{
	 "smiles": "BrC1=C(Br)C(=O)C(Br)=C(Br)C1=O", 
	 "Tm": 566.15, 
	 "num_atms": 12, 
	 "gaussian": { 
		 "optdone": 1, 
		 "sigma_profile": "yes", 
		 "theory": "DFT", 
		 "functional": "B3LYP", 
		 "basiset": "6-31G**", 
		 "properties": { 
			 "R2extent": 8893.2421, 
			 "electric_dipole_moment_norm": 0.0, 
			 "electric_quadrupole_moment_norm": 10.5936439703, 
			 "total_energy": -10664.6362584, 
			 "HOMO_LUMO_gap": 0.11967, 
			 "cosmo_polarized_energy": -8.33, 
			 "cosmo_cavitation_energy": 26.84, 
			 "cosmo_dispersion_energy": -21.23, 
			 "cosmo_repulsion_energy": 1.68, 
			 "cosmo_total_nonelectrostatic_energy": 7.29, 
			 "SMD_solvation_energy": 1.74 
		},
		"coords": [
			{
				"x": 3.194037522,
				"y": -3.036620875,
				"z": 0.0014917168,
				"element": "Br" 
			},
			{
				"x": 2.4458955963,
				"y": -1.3608205448,
				"z": 0.4027631657,
				"element": "C" 
			},
			{
				"x": 2.7615434235,
				"y": -0.6455502893,
				"z": 1.5023370837,
				"element": "C" 
			},
			{
				"x": 3.9960471717,
				"y": -1.2185594501,
				"z": 2.797210231,
				"element": "Br" 
			},
			{
				"x": 2.1343191332,
				"y": 0.6897472441,
				"z": 1.775605492,
				"element": "C" 
			},
			{
				"x": 2.4180636409,
				"y": 1.3330675563,
				"z": 2.7648833544,
				"element": "O" 
			},
			{
				"x": 1.1398134937,
				"y": 1.1935829446,
				"z": 0.7714917038,
				"element": "C" 
			},
			{
				"x": 0.3916910041,
				"y": 2.8693947751,
				"z": 1.1727485771,
				"element": "Br" 
			},
			{
				"x": 0.8241665011,
				"y": 0.4783114943,
				"z": -0.3280811345,
				"element": "C" 
			},
			{
				"x": -0.4103189605,
				"y": 1.0513352346,
				"z": -1.6229671013,
				"element": "Br" 
			},
			{
				"x": 1.451387459,
				"y": -0.8569862842,
				"z": -0.6013495391,
				"element": "C" 
			},
			{
				"x": 1.1676540149,
				"y": -1.5003018055,
				"z": -1.5906335495,
				"element": "O" 
			}
		],
		 "valence_orbital": [ 
			{
				"type": "occ",
				"energy": -0.3114,
				"method": "rhf"
			},
			{
				"type": "occ",
				"energy": -0.30305,
				"method": "rhf"
			},
			{
				"type": "occ",
				"energy": -0.29141,
				"method": "rhf"
			},
			{
				"type": "occ",
				"energy": -0.28539,
				"method": "rhf"
			},
			{
				"type": "occ",
				"energy": -0.27266,
				"method": "rhf"
			},
			{
				"type": "unocc",
				"energy": -0.15299,
				"method": "rhf"
			},
			{
				"type": "unocc",
				"energy": -0.05576,
				"method": "rhf"
			},
			{
				"type": "unocc",
				"energy": -0.05555,
				"method": "rhf"
			},
			{
				"type": "unocc",
				"energy": -0.03057,
				"method": "rhf"
			},
			{
				"type": "unocc",
				"energy": -0.01803,
				"method": "rhf"
			}
		],
		"cosmo_sigma_profile": { 
			"-0.025": 0.0,
			"-0.024": 0.0,
			"-0.023": 0.0,
			"-0.022": 0.0,
			"-0.021": 0.0,
			"-0.02": 0.0,
			"-0.019": 0.0,
			"-0.018": 0.0,
			"-0.017": 0.0,
			"-0.016": 0.0,
			"-0.015": 0.0,
			"-0.014": 0.0,
			"-0.013": 3.35132755834e-05,
			"-0.012": 0.32673991832,
			"-0.011": 1.10497615682,
			"-0.01": 1.43795047237,
			"-0.009": 2.41262461948,
			"-0.008": 3.58397540741,
			"-0.007": 8.59798549626,
			"-0.006": 11.1854758992,
			"-0.005": 9.96267565695,
			"-0.004": 15.2432659139,
			"-0.003": 14.8938436297,
			"-0.002": 15.6713618322,
			"-0.001": 14.8480406606,
			"0.0": 18.4280611687,
			"0.001": 23.0880651919,
			"0.002": 32.2940385958,
			"0.003": 16.9195810713,
			"0.004": 6.78325306552,
			"0.005": 5.06046584428,
			"0.006": 4.83556900009,
			"0.007": 5.97063303434,
			"0.008": 7.9324190008,
			"0.009": 8.75942405794,
			"0.01": 1.19566166599,
			"0.011": 0.0,
			"0.012": 0.0,
			"0.013": 0.0,
			"0.014": 0.0,
			"0.015": 0.0,
			"0.016": 0.0,
			"0.017": 0.0,
			"0.018": 0.0,
			"0.019": 0.0,
			"0.02": 0.0,
			"0.021": 0.0,
			"0.022": 0.0,
			"0.023": 0.0,
			"0.024": 0.0,
			"0.025": 0.0
		}
	}
}
