{
	 "smiles": "OC(=O)CC1(CC(O)=O)CCCC1", 
	 "Tm": 453.15, 
	 "num_atms": 27, 
	 "gaussian": { 
		 "optdone": 1, 
		 "sigma_profile": "yes", 
		 "theory": "DFT", 
		 "functional": "B3LYP", 
		 "basiset": "6-31G**", 
		 "properties": { 
			 "R2extent": 3374.091, 
			 "electric_dipole_moment_norm": 7.63838370665, 
			 "electric_quadrupole_moment_norm": 22.6021872572, 
			 "total_energy": -652.316162227, 
			 "HOMO_LUMO_gap": 0.22683, 
			 "cosmo_polarized_energy": -21.76, 
			 "cosmo_cavitation_energy": 27.82, 
			 "cosmo_dispersion_energy": -20.27, 
			 "cosmo_repulsion_energy": 1.6, 
			 "cosmo_total_nonelectrostatic_energy": 9.14, 
			 "SMD_solvation_energy": 6.09 
		},
		"coords": [
			{
				"x": 2.9112942197,
				"y": 2.6106769747,
				"z": 0.0100445625,
				"element": "O" 
			},
			{
				"x": 1.7878841449,
				"y": 2.1979627533,
				"z": 0.6359448153,
				"element": "C" 
			},
			{
				"x": 1.8187743189,
				"y": 2.0415138646,
				"z": 1.8391735912,
				"element": "O" 
			},
			{
				"x": 0.5703037635,
				"y": 1.9981907358,
				"z": -0.2575688072,
				"element": "C" 
			},
			{
				"x": -0.6375718712,
				"y": 1.3100105784,
				"z": 0.4169372852,
				"element": "C" 
			},
			{
				"x": -1.1866304667,
				"y": 2.2547967211,
				"z": 1.5513875747,
				"element": "C" 
			},
			{
				"x": -1.3857175901,
				"y": 1.6042118466,
				"z": 2.9178540879,
				"element": "C" 
			},
			{
				"x": -0.2590868096,
				"y": 1.4013120271,
				"z": 3.6320556247,
				"element": "O" 
			},
			{
				"x": -2.468807974,
				"y": 1.2852704754,
				"z": 3.3511851232,
				"element": "O" 
			},
			{
				"x": -0.2326155572,
				"y": -0.1530016372,
				"z": 0.8513519434,
				"element": "C" 
			},
			{
				"x": -1.1884684024,
				"y": -1.1131054817,
				"z": 0.115859739,
				"element": "C" 
			},
			{
				"x": -1.5414469108,
				"y": -0.3607751164,
				"z": -1.174045571,
				"element": "C" 
			},
			{
				"x": -1.7458935392,
				"y": 1.0706238606,
				"z": -0.6621354862,
				"element": "C" 
			},
			{
				"x": 2.7598490385,
				"y": 2.6883390119,
				"z": -0.9430822196,
				"element": "H" 
			},
			{
				"x": 0.2818294719,
				"y": 2.9918672518,
				"z": -0.6314038917,
				"element": "H" 
			},
			{
				"x": 0.8852768307,
				"y": 1.4212048808,
				"z": -1.1379702117,
				"element": "H" 
			},
			{
				"x": -0.5172854422,
				"y": 3.1102231311,
				"z": 1.687034719,
				"element": "H" 
			},
			{
				"x": -2.1593099696,
				"y": 2.6523309912,
				"z": 1.2564993491,
				"element": "H" 
			},
			{
				"x": 0.5233694723,
				"y": 1.6582710611,
				"z": 3.1017849452,
				"element": "H" 
			},
			{
				"x": -0.245586279,
				"y": -0.3021932938,
				"z": 1.930540548,
				"element": "H" 
			},
			{
				"x": 0.7975751239,
				"y": -0.3523321354,
				"z": 0.5339535127,
				"element": "H" 
			},
			{
				"x": -0.7417296507,
				"y": -2.0971007981,
				"z": -0.0565642877,
				"element": "H" 
			},
			{
				"x": -2.0967717936,
				"y": -1.2658756821,
				"z": 0.7109310921,
				"element": "H" 
			},
			{
				"x": -2.4249017212,
				"y": -0.7561218343,
				"z": -1.6848549766,
				"element": "H" 
			},
			{
				"x": -0.7060441739,
				"y": -0.4097614049,
				"z": -1.8858722313,
				"element": "H" 
			},
			{
				"x": -1.7314927608,
				"y": 1.8332513032,
				"z": -1.4496941132,
				"element": "H" 
			},
			{
				"x": -2.7261954721,
				"y": 1.1310099154,
				"z": -0.177046717,
				"element": "H" 
			}
		],
		 "valence_orbital": [ 
			{
				"type": "occ",
				"energy": -0.33162,
				"method": "rhf"
			},
			{
				"type": "occ",
				"energy": -0.32537,
				"method": "rhf"
			},
			{
				"type": "occ",
				"energy": -0.30495,
				"method": "rhf"
			},
			{
				"type": "occ",
				"energy": -0.29231,
				"method": "rhf"
			},
			{
				"type": "occ",
				"energy": -0.25063,
				"method": "rhf"
			},
			{
				"type": "unocc",
				"energy": -0.0238,
				"method": "rhf"
			},
			{
				"type": "unocc",
				"energy": 0.01995,
				"method": "rhf"
			},
			{
				"type": "unocc",
				"energy": 0.03303,
				"method": "rhf"
			},
			{
				"type": "unocc",
				"energy": 0.06245,
				"method": "rhf"
			},
			{
				"type": "unocc",
				"energy": 0.0955,
				"method": "rhf"
			}
		],
		"cosmo_sigma_profile": { 
			"-0.025": 0.0,
			"-0.024": 0.0,
			"-0.023": 0.0,
			"-0.022": 0.0,
			"-0.021": 0.0,
			"-0.02": 0.307188311221,
			"-0.019": 1.01676137845,
			"-0.018": 1.11315972074,
			"-0.017": 0.530395970704,
			"-0.016": 1.8017508702,
			"-0.015": 0.935074407642,
			"-0.014": 1.54393488621,
			"-0.013": 1.06197532187,
			"-0.012": 0.964079258854,
			"-0.011": 0.917199650605,
			"-0.01": 1.45468210712,
			"-0.009": 1.65945147686,
			"-0.008": 4.30353279222,
			"-0.007": 6.2474925062,
			"-0.006": 7.62393701744,
			"-0.005": 9.50743312978,
			"-0.004": 12.7857667314,
			"-0.003": 18.7128233495,
			"-0.002": 22.7966012313,
			"-0.001": 23.4747802393,
			"0.0": 18.4216477467,
			"0.001": 16.5314503787,
			"0.002": 5.47219078866,
			"0.003": 3.55983472837,
			"0.004": 3.70509646359,
			"0.005": 4.00284792956,
			"0.006": 4.25138823287,
			"0.007": 4.10371331665,
			"0.008": 5.27688781532,
			"0.009": 5.70485695733,
			"0.01": 7.54618303208,
			"0.011": 5.89864311324,
			"0.012": 7.0559050755,
			"0.013": 4.77321584095,
			"0.014": 1.43363962184,
			"0.015": 0.00950800691026,
			"0.016": 0.0,
			"0.017": 0.0,
			"0.018": 0.0,
			"0.019": 0.0,
			"0.02": 0.0,
			"0.021": 0.0,
			"0.022": 0.0,
			"0.023": 0.0,
			"0.024": 0.0,
			"0.025": 0.0
		}
	}
}
