{
	 "smiles": "CCNC1=C(C=C2C(=O)OC3=CC=CC=C3C2=N1)C(=O)OC", 
	 "Tm": 483.15, 
	 "num_atms": 36, 
	 "gaussian": { 
		 "optdone": 1, 
		 "sigma_profile": "yes", 
		 "theory": "DFT", 
		 "functional": "B3LYP", 
		 "basiset": "6-31G**", 
		 "properties": { 
			 "R2extent": 9276.9602, 
			 "electric_dipole_moment_norm": 6.94943915291, 
			 "electric_quadrupole_moment_norm": 35.0761456583, 
			 "total_energy": -1028.58123732, 
			 "HOMO_LUMO_gap": 0.15864, 
			 "cosmo_polarized_energy": -16.94, 
			 "cosmo_cavitation_energy": 40.44, 
			 "cosmo_dispersion_energy": -29.03, 
			 "cosmo_repulsion_energy": 2.2, 
			 "cosmo_total_nonelectrostatic_energy": 13.6, 
			 "SMD_solvation_energy": 7.33 
		},
		"coords": [
			{
				"x": -0.7587759711,
				"y": -2.4684280432,
				"z": -2.5617118187,
				"element": "C" 
			},
			{
				"x": -1.4338162254,
				"y": -2.3242853711,
				"z": -1.1976247329,
				"element": "C" 
			},
			{
				"x": -1.2889992458,
				"y": -0.9589544659,
				"z": -0.7007101139,
				"element": "N" 
			},
			{
				"x": -0.9406695891,
				"y": -0.5501815054,
				"z": 0.5503139085,
				"element": "C" 
			},
			{
				"x": -1.1423903251,
				"y": -1.3080997093,
				"z": 1.7531230565,
				"element": "C" 
			},
			{
				"x": -0.5143985261,
				"y": -0.8433877828,
				"z": 2.9039574361,
				"element": "C" 
			},
			{
				"x": 0.1736462407,
				"y": 0.3716561801,
				"z": 2.9051948122,
				"element": "C" 
			},
			{
				"x": 0.7992552123,
				"y": 0.8606751942,
				"z": 4.1370545726,
				"element": "C" 
			},
			{
				"x": 0.8383260226,
				"y": 0.2737848587,
				"z": 5.1931256867,
				"element": "O" 
			},
			{
				"x": 1.3929252068,
				"y": 2.1130857921,
				"z": 4.0691266195,
				"element": "O" 
			},
			{
				"x": 1.3946780937,
				"y": 2.8730493896,
				"z": 2.9270614998,
				"element": "C" 
			},
			{
				"x": 2.0157377256,
				"y": 4.1215537588,
				"z": 3.0147059142,
				"element": "C" 
			},
			{
				"x": 2.0533241488,
				"y": 4.9422709512,
				"z": 1.8929790659,
				"element": "C" 
			},
			{
				"x": 1.4767777123,
				"y": 4.5245898492,
				"z": 0.6841832102,
				"element": "C" 
			},
			{
				"x": 0.8639482136,
				"y": 3.2819816333,
				"z": 0.6044329362,
				"element": "C" 
			},
			{
				"x": 0.8113517675,
				"y": 2.436565707,
				"z": 1.7258790385,
				"element": "C" 
			},
			{
				"x": 0.1820435843,
				"y": 1.1197604644,
				"z": 1.7075179984,
				"element": "C" 
			},
			{
				"x": -0.3395343832,
				"y": 0.6570249273,
				"z": 0.570778072,
				"element": "N" 
			},
			{
				"x": -2.0434351996,
				"y": -2.4777581854,
				"z": 1.9439041847,
				"element": "C" 
			},
			{
				"x": -1.89550039,
				"y": -3.3197902089,
				"z": 2.807767789,
				"element": "O" 
			},
			{
				"x": -3.1146656839,
				"y": -2.4560061082,
				"z": 1.1146164715,
				"element": "O" 
			},
			{
				"x": -4.0632998296,
				"y": -3.5160806354,
				"z": 1.3236127698,
				"element": "C" 
			},
			{
				"x": -0.8955446943,
				"y": -3.483888125,
				"z": -2.9446335022,
				"element": "H" 
			},
			{
				"x": 0.3149796967,
				"y": -2.2667919151,
				"z": -2.4982790971,
				"element": "H" 
			},
			{
				"x": -1.1962059507,
				"y": -1.778912613,
				"z": -3.2928406472,
				"element": "H" 
			},
			{
				"x": -2.4918989863,
				"y": -2.5968921971,
				"z": -1.2665565246,
				"element": "H" 
			},
			{
				"x": -0.973849061,
				"y": -3.0131017546,
				"z": -0.4810235027,
				"element": "H" 
			},
			{
				"x": -1.0450409824,
				"y": -0.2593257171,
				"z": -1.390817275,
				"element": "H" 
			},
			{
				"x": -0.6012140564,
				"y": -1.4123202369,
				"z": 3.8233162152,
				"element": "H" 
			},
			{
				"x": 2.4546787493,
				"y": 4.4211389606,
				"z": 3.9600493798,
				"element": "H" 
			},
			{
				"x": 2.5347607571,
				"y": 5.9135028849,
				"z": 1.9583374221,
				"element": "H" 
			},
			{
				"x": 1.5111101023,
				"y": 5.1714137715,
				"z": -0.1868198127,
				"element": "H" 
			},
			{
				"x": 0.4128522578,
				"y": 2.9307321312,
				"z": -0.3169068689,
				"element": "H" 
			},
			{
				"x": -3.5957315858,
				"y": -4.4919327455,
				"z": 1.1691809816,
				"element": "H" 
			},
			{
				"x": -4.8549550284,
				"y": -3.3484898462,
				"z": 0.593414214,
				"element": "H" 
			},
			{
				"x": -4.4630697771,
				"y": -3.476459288,
				"z": 2.339490641,
				"element": "H" 
			}
		],
		 "valence_orbital": [ 
			{
				"type": "occ",
				"energy": -0.27589,
				"method": "rhf"
			},
			{
				"type": "occ",
				"energy": -0.26583,
				"method": "rhf"
			},
			{
				"type": "occ",
				"energy": -0.25512,
				"method": "rhf"
			},
			{
				"type": "occ",
				"energy": -0.24041,
				"method": "rhf"
			},
			{
				"type": "occ",
				"energy": -0.22506,
				"method": "rhf"
			},
			{
				"type": "unocc",
				"energy": -0.06642,
				"method": "rhf"
			},
			{
				"type": "unocc",
				"energy": -0.04602,
				"method": "rhf"
			},
			{
				"type": "unocc",
				"energy": -0.01021,
				"method": "rhf"
			},
			{
				"type": "unocc",
				"energy": 0.00013,
				"method": "rhf"
			},
			{
				"type": "unocc",
				"energy": 0.02862,
				"method": "rhf"
			}
		],
		"cosmo_sigma_profile": { 
			"-0.025": 0.0,
			"-0.024": 0.0,
			"-0.023": 0.0,
			"-0.022": 0.0,
			"-0.021": 0.0,
			"-0.02": 0.0,
			"-0.019": 0.0,
			"-0.018": 0.0,
			"-0.017": 0.0,
			"-0.016": 0.0,
			"-0.015": 0.0,
			"-0.014": 0.0,
			"-0.013": 0.205253957791,
			"-0.012": 0.763309794041,
			"-0.011": 0.879627866234,
			"-0.01": 1.29467453549,
			"-0.009": 0.843670853943,
			"-0.008": 1.10559440807,
			"-0.007": 5.4171478774,
			"-0.006": 16.2407338823,
			"-0.005": 23.3414079051,
			"-0.004": 30.1905504908,
			"-0.003": 33.9555871854,
			"-0.002": 31.4887542857,
			"-0.001": 28.7363235969,
			"0.0": 26.5058787852,
			"0.001": 20.3923442041,
			"0.002": 19.1410446487,
			"0.003": 17.5327491597,
			"0.004": 12.9040394823,
			"0.005": 6.93130067113,
			"0.006": 6.98715955392,
			"0.007": 5.62657929085,
			"0.008": 5.72519845153,
			"0.009": 4.91785534883,
			"0.01": 4.78261654605,
			"0.011": 7.75417708337,
			"0.012": 8.38185748106,
			"0.013": 1.21082780126,
			"0.014": 0.0,
			"0.015": 0.0,
			"0.016": 0.0,
			"0.017": 0.0,
			"0.018": 0.0,
			"0.019": 0.0,
			"0.02": 0.0,
			"0.021": 0.0,
			"0.022": 0.0,
			"0.023": 0.0,
			"0.024": 0.0,
			"0.025": 0.0
		}
	}
}
