{
	 "smiles": "CC[N+](CC)(CC)S(=O)(=O)[N-]C(=O)OC", 
	 "Tm": 350.15, 
	 "num_atms": 33, 
	 "gaussian": { 
		 "optdone": 1, 
		 "sigma_profile": "yes", 
		 "theory": "DFT", 
		 "functional": "B3LYP", 
		 "basiset": "6-31G**", 
		 "properties": { 
			 "R2extent": 4099.2242, 
			 "electric_dipole_moment_norm": 5.54792992926, 
			 "electric_quadrupole_moment_norm": 13.7291339581, 
			 "total_energy": -1124.20051232, 
			 "HOMO_LUMO_gap": 0.21601, 
			 "cosmo_polarized_energy": -19.05, 
			 "cosmo_cavitation_energy": 33.57, 
			 "cosmo_dispersion_energy": -24.48, 
			 "cosmo_repulsion_energy": 1.86, 
			 "cosmo_total_nonelectrostatic_energy": 10.95, 
			 "SMD_solvation_energy": 6.42 
		},
		"coords": [
			{
				"x": -1.2618794749,
				"y": -1.2408773993,
				"z": -0.4202694032,
				"element": "C" 
			},
			{
				"x": -0.4411095589,
				"y": -0.555911796,
				"z": 0.669509268,
				"element": "C" 
			},
			{
				"x": 1.023213044,
				"y": -0.3460773724,
				"z": 0.372584738,
				"element": "N" 
			},
			{
				"x": 1.7683214888,
				"y": 0.0182255482,
				"z": 1.6284387885,
				"element": "C" 
			},
			{
				"x": 1.181626845,
				"y": 1.1630910603,
				"z": 2.4512372312,
				"element": "C" 
			},
			{
				"x": 1.6067664746,
				"y": -1.5943780801,
				"z": -0.2417664618,
				"element": "C" 
			},
			{
				"x": 3.1259557252,
				"y": -1.6447140049,
				"z": -0.3910424887,
				"element": "C" 
			},
			{
				"x": 1.2793800871,
				"y": 1.2159154406,
				"z": -1.0187288296,
				"element": "S" 
			},
			{
				"x": 2.6997685683,
				"y": 1.4513835558,
				"z": -0.7565828935,
				"element": "O" 
			},
			{
				"x": 0.8771922912,
				"y": 0.5000932138,
				"z": -2.2327359987,
				"element": "O" 
			},
			{
				"x": 0.4231002728,
				"y": 2.4155389824,
				"z": -0.5017117138,
				"element": "N" 
			},
			{
				"x": -0.9177905293,
				"y": 2.561633819,
				"z": -0.8434782627,
				"element": "C" 
			},
			{
				"x": -1.7319451229,
				"y": 1.7083506512,
				"z": -1.156155757,
				"element": "O" 
			},
			{
				"x": -1.2329292673,
				"y": 3.8699006695,
				"z": -0.7191862526,
				"element": "O" 
			},
			{
				"x": -2.6037486318,
				"y": 4.1856653825,
				"z": -0.9935092693,
				"element": "C" 
			},
			{
				"x": -1.1899140507,
				"y": -0.7088802356,
				"z": -1.3678287269,
				"element": "H" 
			},
			{
				"x": -2.3091875257,
				"y": -1.2084649981,
				"z": -0.1062367545,
				"element": "H" 
			},
			{
				"x": -0.9898397001,
				"y": -2.2906703735,
				"z": -0.5555206994,
				"element": "H" 
			},
			{
				"x": -0.8626802539,
				"y": 0.427945231,
				"z": 0.8705054222,
				"element": "H" 
			},
			{
				"x": -0.4857193072,
				"y": -1.1399272416,
				"z": 1.5984873355,
				"element": "H" 
			},
			{
				"x": 1.8182240561,
				"y": -0.8964947308,
				"z": 2.2345836555,
				"element": "H" 
			},
			{
				"x": 2.7791346248,
				"y": 0.2788875818,
				"z": 1.3183577261,
				"element": "H" 
			},
			{
				"x": 1.0993485969,
				"y": 2.0803431262,
				"z": 1.8657259103,
				"element": "H" 
			},
			{
				"x": 1.862026548,
				"y": 1.3507503527,
				"z": 3.2876339693,
				"element": "H" 
			},
			{
				"x": 0.2028091481,
				"y": 0.9231409709,
				"z": 2.8741735611,
				"element": "H" 
			},
			{
				"x": 1.2666220711,
				"y": -2.4310291867,
				"z": 0.3825021581,
				"element": "H" 
			},
			{
				"x": 1.1417722149,
				"y": -1.6917356558,
				"z": -1.2219669306,
				"element": "H" 
			},
			{
				"x": 3.5081688999,
				"y": -0.8016753418,
				"z": -0.9668180781,
				"element": "H" 
			},
			{
				"x": 3.3708531657,
				"y": -2.5676904351,
				"z": -0.925846408,
				"element": "H" 
			},
			{
				"x": 3.6449085405,
				"y": -1.6781702861,
				"z": 0.5701763125,
				"element": "H" 
			},
			{
				"x": -2.8665238073,
				"y": 3.9209853492,
				"z": -2.0210360892,
				"element": "H" 
			},
			{
				"x": -2.6894740783,
				"y": 5.2622204801,
				"z": -0.8436818572,
				"element": "H" 
			},
			{
				"x": -3.2717513546,
				"y": 3.6507257228,
				"z": -0.3127132015,
				"element": "H" 
			}
		],
		 "valence_orbital": [ 
			{
				"type": "occ",
				"energy": -0.2998,
				"method": "rhf"
			},
			{
				"type": "occ",
				"energy": -0.29533,
				"method": "rhf"
			},
			{
				"type": "occ",
				"energy": -0.28843,
				"method": "rhf"
			},
			{
				"type": "occ",
				"energy": -0.27135,
				"method": "rhf"
			},
			{
				"type": "occ",
				"energy": -0.25463,
				"method": "rhf"
			},
			{
				"type": "unocc",
				"energy": -0.03862,
				"method": "rhf"
			},
			{
				"type": "unocc",
				"energy": 0.02407,
				"method": "rhf"
			},
			{
				"type": "unocc",
				"energy": 0.0612,
				"method": "rhf"
			},
			{
				"type": "unocc",
				"energy": 0.08735,
				"method": "rhf"
			},
			{
				"type": "unocc",
				"energy": 0.09222,
				"method": "rhf"
			}
		],
		"cosmo_sigma_profile": { 
			"-0.025": 0.0,
			"-0.024": 0.0,
			"-0.023": 0.0,
			"-0.022": 0.0,
			"-0.021": 0.0,
			"-0.02": 0.0,
			"-0.019": 0.0,
			"-0.018": 0.0,
			"-0.017": 0.0,
			"-0.016": 0.0,
			"-0.015": 0.0,
			"-0.014": 0.0,
			"-0.013": 0.0,
			"-0.012": 0.0,
			"-0.011": 0.00443336638998,
			"-0.01": 0.471816596851,
			"-0.009": 1.17030088964,
			"-0.008": 2.53338487274,
			"-0.007": 6.44738674748,
			"-0.006": 13.2758632133,
			"-0.005": 28.7755096257,
			"-0.004": 33.7514439603,
			"-0.003": 25.4924162512,
			"-0.002": 18.771978656,
			"-0.001": 21.4262354214,
			"0.0": 21.3126242557,
			"0.001": 11.5026731228,
			"0.002": 6.9600649539,
			"0.003": 5.75356550928,
			"0.004": 6.31946177037,
			"0.005": 5.53924050314,
			"0.006": 6.47380457987,
			"0.007": 6.55754196646,
			"0.008": 6.93796796964,
			"0.009": 8.42618550981,
			"0.01": 12.024313017,
			"0.011": 7.3146621911,
			"0.012": 3.64793856983,
			"0.013": 1.3491554475,
			"0.014": 0.13054802376,
			"0.015": 0.0,
			"0.016": 0.0,
			"0.017": 0.0,
			"0.018": 0.0,
			"0.019": 0.0,
			"0.02": 0.0,
			"0.021": 0.0,
			"0.022": 0.0,
			"0.023": 0.0,
			"0.024": 0.0,
			"0.025": 0.0
		}
	}
}
