{
	 "smiles": "CC(C)(C)C(=O)CS(=O)(=O)C1=CC=C(Cl)C=C1", 
	 "Tm": 370.15, 
	 "num_atms": 32, 
	 "gaussian": { 
		 "optdone": 1, 
		 "sigma_profile": "yes", 
		 "theory": "DFT", 
		 "functional": "B3LYP", 
		 "basiset": "6-31G**", 
		 "properties": { 
			 "R2extent": 7461.9401, 
			 "electric_dipole_moment_norm": 3.71429880327, 
			 "electric_quadrupole_moment_norm": 9.30713805044, 
			 "total_energy": -1550.30579596, 
			 "HOMO_LUMO_gap": 0.19295, 
			 "cosmo_polarized_energy": -16.24, 
			 "cosmo_cavitation_energy": 37.77, 
			 "cosmo_dispersion_energy": -26.53, 
			 "cosmo_repulsion_energy": 2.0, 
			 "cosmo_total_nonelectrostatic_energy": 13.23, 
			 "SMD_solvation_energy": 6.26 
		},
		"coords": [
			{
				"x": -1.6604556617,
				"y": 1.8133414567,
				"z": 1.6530595922,
				"element": "C" 
			},
			{
				"x": -2.2109204593,
				"y": 1.8380945872,
				"z": 0.2145929661,
				"element": "C" 
			},
			{
				"x": -3.7132410959,
				"y": 2.182788011,
				"z": 0.2287398724,
				"element": "C" 
			},
			{
				"x": -1.4491752993,
				"y": 2.9024792772,
				"z": -0.6186402646,
				"element": "C" 
			},
			{
				"x": -2.0416236158,
				"y": 0.4883285348,
				"z": -0.5105641957,
				"element": "C" 
			},
			{
				"x": -2.7713644532,
				"y": 0.1584467693,
				"z": -1.4230635783,
				"element": "O" 
			},
			{
				"x": -0.9383659384,
				"y": -0.5097175848,
				"z": -0.0959538543,
				"element": "C" 
			},
			{
				"x": 0.731449707,
				"y": -0.0797968832,
				"z": -0.7226520903,
				"element": "S" 
			},
			{
				"x": 1.3182678165,
				"y": 0.9283758355,
				"z": 0.1785979026,
				"element": "O" 
			},
			{
				"x": 0.619247443,
				"y": 0.1675675439,
				"z": -2.1660150658,
				"element": "O" 
			},
			{
				"x": 1.6441522768,
				"y": -1.6124829398,
				"z": -0.4871341713,
				"element": "C" 
			},
			{
				"x": 2.3575851388,
				"y": -1.8099049398,
				"z": 0.6962270445,
				"element": "C" 
			},
			{
				"x": 3.0657956896,
				"y": -2.9967878147,
				"z": 0.8763752705,
				"element": "C" 
			},
			{
				"x": 3.0468334554,
				"y": -3.9603878532,
				"z": -0.1342848132,
				"element": "C" 
			},
			{
				"x": 3.9339687847,
				"y": -5.4535154423,
				"z": 0.0916593612,
				"element": "Cl" 
			},
			{
				"x": 2.3436840704,
				"y": -3.7587155599,
				"z": -1.3244441063,
				"element": "C" 
			},
			{
				"x": 1.637068204,
				"y": -2.571118189,
				"z": -1.5025436531,
				"element": "C" 
			},
			{
				"x": -0.5823768363,
				"y": 1.6321964142,
				"z": 1.674305162,
				"element": "H" 
			},
			{
				"x": -1.8399439387,
				"y": 2.7839909514,
				"z": 2.126359492,
				"element": "H" 
			},
			{
				"x": -2.1628834672,
				"y": 1.0557177388,
				"z": 2.2664282623,
				"element": "H" 
			},
			{
				"x": -4.2816872507,
				"y": 1.4595959547,
				"z": 0.8235294695,
				"element": "H" 
			},
			{
				"x": -3.8610889817,
				"y": 3.1739948148,
				"z": 0.6688477313,
				"element": "H" 
			},
			{
				"x": -4.1234282919,
				"y": 2.1810723782,
				"z": -0.7827469363,
				"element": "H" 
			},
			{
				"x": -1.6234618464,
				"y": 3.8905000047,
				"z": -0.1789606398,
				"element": "H" 
			},
			{
				"x": -1.8083904154,
				"y": 2.9163539638,
				"z": -1.6514560676,
				"element": "H" 
			},
			{
				"x": -0.3713894107,
				"y": 2.7230809014,
				"z": -0.6239684011,
				"element": "H" 
			},
			{
				"x": -0.8398061072,
				"y": -0.6179493674,
				"z": 0.9858502721,
				"element": "H" 
			},
			{
				"x": -1.1902710368,
				"y": -1.466201138,
				"z": -0.5567266252,
				"element": "H" 
			},
			{
				"x": 2.3733623329,
				"y": -1.0343904985,
				"z": 1.4544632832,
				"element": "H" 
			},
			{
				"x": 3.6318051439,
				"y": -3.17226392,
				"z": 1.7841511278,
				"element": "H" 
			},
			{
				"x": 2.3576336691,
				"y": -4.5167792524,
				"z": -2.0992513997,
				"element": "H" 
			},
			{
				"x": 1.1014203743,
				"y": -2.3787137545,
				"z": -2.4262809468,
				"element": "H" 
			}
		],
		 "valence_orbital": [ 
			{
				"type": "occ",
				"energy": -0.30967,
				"method": "rhf"
			},
			{
				"type": "occ",
				"energy": -0.30148,
				"method": "rhf"
			},
			{
				"type": "occ",
				"energy": -0.2914,
				"method": "rhf"
			},
			{
				"type": "occ",
				"energy": -0.27702,
				"method": "rhf"
			},
			{
				"type": "occ",
				"energy": -0.2564,
				"method": "rhf"
			},
			{
				"type": "unocc",
				"energy": -0.06345,
				"method": "rhf"
			},
			{
				"type": "unocc",
				"energy": -0.04167,
				"method": "rhf"
			},
			{
				"type": "unocc",
				"energy": -0.03778,
				"method": "rhf"
			},
			{
				"type": "unocc",
				"energy": 0.0104,
				"method": "rhf"
			},
			{
				"type": "unocc",
				"energy": 0.05652,
				"method": "rhf"
			}
		],
		"cosmo_sigma_profile": { 
			"-0.025": 0.0,
			"-0.024": 0.0,
			"-0.023": 0.0,
			"-0.022": 0.0,
			"-0.021": 0.0,
			"-0.02": 0.0,
			"-0.019": 0.0,
			"-0.018": 0.0,
			"-0.017": 0.0,
			"-0.016": 0.0,
			"-0.015": 0.0,
			"-0.014": 0.0,
			"-0.013": 0.0,
			"-0.012": 0.0,
			"-0.011": 0.000751686751391,
			"-0.01": 0.545345673901,
			"-0.009": 4.38589246083,
			"-0.008": 11.968856792,
			"-0.007": 13.5471473706,
			"-0.006": 11.722359904,
			"-0.005": 11.2921301333,
			"-0.004": 15.4229866361,
			"-0.003": 22.2338652365,
			"-0.002": 21.899097349,
			"-0.001": 26.5060927136,
			"0.0": 38.7533251421,
			"0.001": 35.017919612,
			"0.002": 14.2901632155,
			"0.003": 12.738211379,
			"0.004": 13.3193920936,
			"0.005": 5.28001704761,
			"0.006": 4.26087644313,
			"0.007": 5.49548259467,
			"0.008": 5.74275032,
			"0.009": 5.66235115023,
			"0.01": 9.76288300393,
			"0.011": 9.38685504605,
			"0.012": 1.62201821443,
			"0.013": 0.0,
			"0.014": 0.0,
			"0.015": 0.0,
			"0.016": 0.0,
			"0.017": 0.0,
			"0.018": 0.0,
			"0.019": 0.0,
			"0.02": 0.0,
			"0.021": 0.0,
			"0.022": 0.0,
			"0.023": 0.0,
			"0.024": 0.0,
			"0.025": 0.0
		}
	}
}
