{
	 "smiles": "CC1(C)[C@@H]2CC[C@]11CS(=O)(=O)N=C1C2", 
	 "Tm": 500.15, 
	 "num_atms": 29, 
	 "gaussian": { 
		 "optdone": 1, 
		 "sigma_profile": "yes", 
		 "theory": "DFT", 
		 "functional": "B3LYP", 
		 "basiset": "6-31G**", 
		 "properties": { 
			 "R2extent": 2847.2763, 
			 "electric_dipole_moment_norm": 7.69381747769, 
			 "electric_quadrupole_moment_norm": 18.7571921563, 
			 "total_energy": -993.417069909, 
			 "HOMO_LUMO_gap": 0.24207, 
			 "cosmo_polarized_energy": -18.11, 
			 "cosmo_cavitation_energy": 29.6, 
			 "cosmo_dispersion_energy": -22.07, 
			 "cosmo_repulsion_energy": 1.64, 
			 "cosmo_total_nonelectrostatic_energy": 9.18, 
			 "SMD_solvation_energy": 2.56 
		},
		"coords": [
			{
				"x": 0.3668122068,
				"y": 0.7173502872,
				"z": 2.1764096236,
				"element": "C" 
			},
			{
				"x": 0.3401729305,
				"y": 1.0859777872,
				"z": 0.6823285891,
				"element": "C" 
			},
			{
				"x": -0.1566142122,
				"y": 2.5363100651,
				"z": 0.5688199253,
				"element": "C" 
			},
			{
				"x": 1.691953232,
				"y": 0.8106689903,
				"z": -0.0698082627,
				"element": "C" 
			},
			{
				"x": 1.3250371678,
				"y": 1.0865255815,
				"z": -1.549949672,
				"element": "C" 
			},
			{
				"x": -0.1344092091,
				"y": 0.5459596632,
				"z": -1.6591671913,
				"element": "C" 
			},
			{
				"x": -0.4473027581,
				"y": 0.0593593884,
				"z": -0.2098174676,
				"element": "C" 
			},
			{
				"x": -1.8663459589,
				"y": -0.3815614748,
				"z": 0.0881854408,
				"element": "C" 
			},
			{
				"x": -1.7851684181,
				"y": -2.2349308499,
				"z": -0.0492585269,
				"element": "S" 
			},
			{
				"x": -2.1868993953,
				"y": -2.6496035974,
				"z": -1.3955960547,
				"element": "O" 
			},
			{
				"x": -2.3782034025,
				"y": -2.8626498037,
				"z": 1.1306104058,
				"element": "O" 
			},
			{
				"x": -0.0512257485,
				"y": -2.3612066419,
				"z": 0.0652673429,
				"element": "N" 
			},
			{
				"x": 0.4284240752,
				"y": -1.1840163073,
				"z": -0.023663927,
				"element": "C" 
			},
			{
				"x": 1.8679697679,
				"y": -0.7252076335,
				"z": 0.0667866157,
				"element": "C" 
			},
			{
				"x": 0.6195546479,
				"y": -0.3279397338,
				"z": 2.3702596779,
				"element": "H" 
			},
			{
				"x": 1.0953438558,
				"y": 1.3408160101,
				"z": 2.7056873366,
				"element": "H" 
			},
			{
				"x": -0.609321918,
				"y": 0.9032771897,
				"z": 2.6372858464,
				"element": "H" 
			},
			{
				"x": -0.2199760811,
				"y": 2.9028046787,
				"z": -0.4570515226,
				"element": "H" 
			},
			{
				"x": 0.5151362015,
				"y": 3.2059466244,
				"z": 1.1171515025,
				"element": "H" 
			},
			{
				"x": -1.1509838079,
				"y": 2.6357021343,
				"z": 1.017665874,
				"element": "H" 
			},
			{
				"x": 2.546501117,
				"y": 1.3853915323,
				"z": 0.2963894096,
				"element": "H" 
			},
			{
				"x": 1.3755421007,
				"y": 2.1526817645,
				"z": -1.7847546779,
				"element": "H" 
			},
			{
				"x": 2.0094128822,
				"y": 0.577026186,
				"z": -2.2344030698,
				"element": "H" 
			},
			{
				"x": -0.8412258807,
				"y": 1.3289323447,
				"z": -1.9486195408,
				"element": "H" 
			},
			{
				"x": -0.2429502584,
				"y": -0.2662506295,
				"z": -2.3829436934,
				"element": "H" 
			},
			{
				"x": -2.620374592,
				"y": -0.0399452894,
				"z": -0.6216330426,
				"element": "H" 
			},
			{
				"x": -2.182779182,
				"y": -0.1676915096,
				"z": 1.1110883533,
				"element": "H" 
			},
			{
				"x": 2.4847813929,
				"y": -1.1640694608,
				"z": -0.7237115363,
				"element": "H" 
			},
			{
				"x": 2.3040392445,
				"y": -1.0312572962,
				"z": 1.0224422421,
				"element": "H" 
			}
		],
		 "valence_orbital": [ 
			{
				"type": "occ",
				"energy": -0.32343,
				"method": "rhf"
			},
			{
				"type": "occ",
				"energy": -0.30556,
				"method": "rhf"
			},
			{
				"type": "occ",
				"energy": -0.29625,
				"method": "rhf"
			},
			{
				"type": "occ",
				"energy": -0.28444,
				"method": "rhf"
			},
			{
				"type": "occ",
				"energy": -0.27886,
				"method": "rhf"
			},
			{
				"type": "unocc",
				"energy": -0.03679,
				"method": "rhf"
			},
			{
				"type": "unocc",
				"energy": 0.04717,
				"method": "rhf"
			},
			{
				"type": "unocc",
				"energy": 0.05675,
				"method": "rhf"
			},
			{
				"type": "unocc",
				"energy": 0.0692,
				"method": "rhf"
			},
			{
				"type": "unocc",
				"energy": 0.07825,
				"method": "rhf"
			}
		],
		"cosmo_sigma_profile": { 
			"-0.025": 0.0,
			"-0.024": 0.0,
			"-0.023": 0.0,
			"-0.022": 0.0,
			"-0.021": 0.0,
			"-0.02": 0.0,
			"-0.019": 0.0,
			"-0.018": 0.0,
			"-0.017": 0.0,
			"-0.016": 0.0,
			"-0.015": 0.0,
			"-0.014": 0.0,
			"-0.013": 0.0,
			"-0.012": 0.0,
			"-0.011": 0.0,
			"-0.01": 0.0,
			"-0.009": 0.503154051779,
			"-0.008": 2.93113595478,
			"-0.007": 6.05221293756,
			"-0.006": 13.1023243295,
			"-0.005": 18.3852892883,
			"-0.004": 24.6901307847,
			"-0.003": 32.6088594029,
			"-0.002": 25.1100128807,
			"-0.001": 21.5118055243,
			"0.0": 18.8199274003,
			"0.001": 9.57567499614,
			"0.002": 1.88250761975,
			"0.003": 2.5762169769,
			"0.004": 3.46279689257,
			"0.005": 2.57358451492,
			"0.006": 3.54792749022,
			"0.007": 4.27083438757,
			"0.008": 4.34395082136,
			"0.009": 5.35637411863,
			"0.01": 8.30440104633,
			"0.011": 15.0175987794,
			"0.012": 5.45398198548,
			"0.013": 0.839719387511,
			"0.014": 0.0648906244517,
			"0.015": 0.0,
			"0.016": 0.0,
			"0.017": 0.0,
			"0.018": 0.0,
			"0.019": 0.0,
			"0.02": 0.0,
			"0.021": 0.0,
			"0.022": 0.0,
			"0.023": 0.0,
			"0.024": 0.0,
			"0.025": 0.0
		}
	}
}
