{
	 "smiles": "CCC(CC)C(N)=S", 
	 "Tm": 329.15, 
	 "num_atms": 21, 
	 "gaussian": { 
		 "optdone": 1, 
		 "sigma_profile": "yes", 
		 "theory": "DFT", 
		 "functional": "B3LYP", 
		 "basiset": "6-31G**", 
		 "properties": { 
			 "R2extent": 1891.9501, 
			 "electric_dipole_moment_norm": 4.69716755822, 
			 "electric_quadrupole_moment_norm": 15.1256714707, 
			 "total_energy": -689.434682701, 
			 "HOMO_LUMO_gap": 0.17522, 
			 "cosmo_polarized_energy": -14.43, 
			 "cosmo_cavitation_energy": 24.5, 
			 "cosmo_dispersion_energy": -17.67, 
			 "cosmo_repulsion_energy": 1.45, 
			 "cosmo_total_nonelectrostatic_energy": 8.29, 
			 "SMD_solvation_energy": 3.18 
		},
		"coords": [
			{
				"x": -1.7541915826,
				"y": -3.1650624617,
				"z": -0.0821006593,
				"element": "C" 
			},
			{
				"x": -1.6743231933,
				"y": -1.8518773541,
				"z": -0.8686917393,
				"element": "C" 
			},
			{
				"x": -1.2958739108,
				"y": -0.619779358,
				"z": -0.0049449264,
				"element": "C" 
			},
			{
				"x": 0.1514112675,
				"y": -0.6868754061,
				"z": 0.5340101405,
				"element": "C" 
			},
			{
				"x": 0.5364471071,
				"y": 0.4855442043,
				"z": 1.4424579048,
				"element": "C" 
			},
			{
				"x": -1.5714019796,
				"y": 0.661177172,
				"z": -0.7910966554,
				"element": "C" 
			},
			{
				"x": -0.7395676092,
				"y": 0.8907422213,
				"z": -1.8269068153,
				"element": "N" 
			},
			{
				"x": -2.8285130414,
				"y": 1.6914619877,
				"z": -0.4315144269,
				"element": "S" 
			},
			{
				"x": -2.466670706,
				"y": -3.0835110923,
				"z": 0.7460747911,
				"element": "H" 
			},
			{
				"x": -2.0914093737,
				"y": -3.9801973508,
				"z": -0.7302646874,
				"element": "H" 
			},
			{
				"x": -0.7867448286,
				"y": -3.4594820452,
				"z": 0.3361708017,
				"element": "H" 
			},
			{
				"x": -0.9550733364,
				"y": -1.9604271343,
				"z": -1.6924963194,
				"element": "H" 
			},
			{
				"x": -2.6472855019,
				"y": -1.6563816235,
				"z": -1.3337877488,
				"element": "H" 
			},
			{
				"x": -1.9772397145,
				"y": -0.5884833005,
				"z": 0.8504270425,
				"element": "H" 
			},
			{
				"x": 0.2619096568,
				"y": -1.6239244322,
				"z": 1.0906899391,
				"element": "H" 
			},
			{
				"x": 0.86219411,
				"y": -0.7589401631,
				"z": -0.3027561323,
				"element": "H" 
			},
			{
				"x": 0.4902599926,
				"y": 1.4408981773,
				"z": 0.9108158711,
				"element": "H" 
			},
			{
				"x": -0.1401806586,
				"y": 0.5550840433,
				"z": 2.3004839588,
				"element": "H" 
			},
			{
				"x": 1.5542725771,
				"y": 0.3626573005,
				"z": 1.8262599362,
				"element": "H" 
			},
			{
				"x": 0.0199006596,
				"y": 0.2659271475,
				"z": -2.0536550978,
				"element": "H" 
			},
			{
				"x": -0.8862199342,
				"y": 1.7074494681,
				"z": -2.4019751775,
				"element": "H" 
			}
		],
		 "valence_orbital": [ 
			{
				"type": "occ",
				"energy": -0.33849,
				"method": "rhf"
			},
			{
				"type": "occ",
				"energy": -0.32685,
				"method": "rhf"
			},
			{
				"type": "occ",
				"energy": -0.32217,
				"method": "rhf"
			},
			{
				"type": "occ",
				"energy": -0.22759,
				"method": "rhf"
			},
			{
				"type": "occ",
				"energy": -0.20148,
				"method": "rhf"
			},
			{
				"type": "unocc",
				"energy": -0.02626,
				"method": "rhf"
			},
			{
				"type": "unocc",
				"energy": 0.05063,
				"method": "rhf"
			},
			{
				"type": "unocc",
				"energy": 0.08357,
				"method": "rhf"
			},
			{
				"type": "unocc",
				"energy": 0.098,
				"method": "rhf"
			},
			{
				"type": "unocc",
				"energy": 0.11062,
				"method": "rhf"
			}
		],
		"cosmo_sigma_profile": { 
			"-0.025": 0.0,
			"-0.024": 0.0,
			"-0.023": 0.0,
			"-0.022": 0.0,
			"-0.021": 0.0,
			"-0.02": 0.0,
			"-0.019": 0.0,
			"-0.018": 0.0,
			"-0.017": 0.0,
			"-0.016": 0.0,
			"-0.015": 1.20032171761,
			"-0.014": 2.41395279992,
			"-0.013": 2.09662774543,
			"-0.012": 2.8633007856,
			"-0.011": 3.20838010452,
			"-0.01": 1.62048351665,
			"-0.009": 1.97801629271,
			"-0.008": 2.121306365,
			"-0.007": 2.14718775245,
			"-0.006": 1.76805583344,
			"-0.005": 2.41825605534,
			"-0.004": 4.94532135086,
			"-0.003": 18.4082568088,
			"-0.002": 23.5924808006,
			"-0.001": 26.7036207371,
			"0.0": 24.6201987886,
			"0.001": 19.3025575286,
			"0.002": 7.1234204475,
			"0.003": 3.18411632362,
			"0.004": 3.88518947383,
			"0.005": 3.77582177635,
			"0.006": 4.21633792473,
			"0.007": 3.84089987173,
			"0.008": 4.44801305929,
			"0.009": 5.73115709838,
			"0.01": 5.99254473712,
			"0.011": 4.24488872561,
			"0.012": 3.0532872674,
			"0.013": 1.87617400624,
			"0.014": 0.0,
			"0.015": 0.0,
			"0.016": 0.0,
			"0.017": 0.0,
			"0.018": 0.0,
			"0.019": 0.0,
			"0.02": 0.0,
			"0.021": 0.0,
			"0.022": 0.0,
			"0.023": 0.0,
			"0.024": 0.0,
			"0.025": 0.0
		}
	}
}
