{
	 "smiles": "ClCC(=O)NC1=CC=C(C=C1)S(=O)(=O)N1CCCC1", 
	 "Tm": 459.15, 
	 "num_atms": 34, 
	 "gaussian": { 
		 "optdone": 1, 
		 "sigma_profile": "yes", 
		 "theory": "DFT", 
		 "functional": "B3LYP", 
		 "basiset": "6-31G**", 
		 "properties": { 
			 "R2extent": 9417.3652, 
			 "electric_dipole_moment_norm": 6.02199193789, 
			 "electric_quadrupole_moment_norm": 27.3699409141, 
			 "total_energy": -1659.82220014, 
			 "HOMO_LUMO_gap": 0.19126, 
			 "cosmo_polarized_energy": -20.78, 
			 "cosmo_cavitation_energy": 39.7, 
			 "cosmo_dispersion_energy": -29.12, 
			 "cosmo_repulsion_energy": 2.22, 
			 "cosmo_total_nonelectrostatic_energy": 12.8, 
			 "SMD_solvation_energy": 4.74 
		},
		"coords": [
			{
				"x": 4.9410959927,
				"y": 1.7458509014,
				"z": -3.4078540186,
				"element": "Cl" 
			},
			{
				"x": 5.0483879049,
				"y": 0.2595817049,
				"z": -2.3710753149,
				"element": "C" 
			},
			{
				"x": 3.9587946173,
				"y": 0.0645563031,
				"z": -1.3100023255,
				"element": "C" 
			},
			{
				"x": 4.0228127306,
				"y": -0.9545899669,
				"z": -0.6384730731,
				"element": "O" 
			},
			{
				"x": 3.015282151,
				"y": 1.0440114628,
				"z": -1.2026731141,
				"element": "N" 
			},
			{
				"x": 1.9229248204,
				"y": 1.1124743444,
				"z": -0.3157726451,
				"element": "C" 
			},
			{
				"x": 1.0774738373,
				"y": 2.2293938179,
				"z": -0.4284874827,
				"element": "C" 
			},
			{
				"x": -0.0203670719,
				"y": 2.3711972899,
				"z": 0.4109244345,
				"element": "C" 
			},
			{
				"x": -0.2819668818,
				"y": 1.390443344,
				"z": 1.3731177115,
				"element": "C" 
			},
			{
				"x": 0.562866243,
				"y": 0.2848005978,
				"z": 1.5006789957,
				"element": "C" 
			},
			{
				"x": 1.664450782,
				"y": 0.1367615663,
				"z": 0.6605427196,
				"element": "C" 
			},
			{
				"x": -1.7308916601,
				"y": 1.5401466813,
				"z": 2.4230326446,
				"element": "S" 
			},
			{
				"x": -2.0640176075,
				"y": 2.9650775022,
				"z": 2.4946786825,
				"element": "O" 
			},
			{
				"x": -1.4862930283,
				"y": 0.7240085196,
				"z": 3.6138505924,
				"element": "O" 
			},
			{
				"x": -2.9862529859,
				"y": 0.8105375835,
				"z": 1.6073031365,
				"element": "N" 
			},
			{
				"x": -3.0426997843,
				"y": -0.6665788577,
				"z": 1.4885308149,
				"element": "C" 
			},
			{
				"x": -3.9032144883,
				"y": -0.8975872842,
				"z": 0.2279892913,
				"element": "C" 
			},
			{
				"x": -4.6553547459,
				"y": 0.4306694837,
				"z": 0.0260862497,
				"element": "C" 
			},
			{
				"x": -3.6247942029,
				"y": 1.4782219165,
				"z": 0.4587277148,
				"element": "C" 
			},
			{
				"x": 5.0278031278,
				"y": -0.6017942367,
				"z": -3.0387894283,
				"element": "H" 
			},
			{
				"x": 6.0136060641,
				"y": 0.28993802,
				"z": -1.8647471962,
				"element": "H" 
			},
			{
				"x": 3.1142127501,
				"y": 1.8200533556,
				"z": -1.8453380656,
				"element": "H" 
			},
			{
				"x": 1.2894755638,
				"y": 2.9944152812,
				"z": -1.17137825,
				"element": "H" 
			},
			{
				"x": -0.6557295295,
				"y": 3.2474466373,
				"z": 0.3463642014,
				"element": "H" 
			},
			{
				"x": 0.3731786717,
				"y": -0.444596457,
				"z": 2.2805559784,
				"element": "H" 
			},
			{
				"x": 2.3266682175,
				"y": -0.7118726149,
				"z": 0.7558946615,
				"element": "H" 
			},
			{
				"x": -3.4957393822,
				"y": -1.0830391092,
				"z": 2.3925461876,
				"element": "H" 
			},
			{
				"x": -2.0448983274,
				"y": -1.1070988401,
				"z": 1.3801601603,
				"element": "H" 
			},
			{
				"x": -4.5709152253,
				"y": -1.7558869389,
				"z": 0.3387288711,
				"element": "H" 
			},
			{
				"x": -3.2558558458,
				"y": -1.0915069511,
				"z": -0.6341910947,
				"element": "H" 
			},
			{
				"x": -5.5293058354,
				"y": 0.4812022886,
				"z": 0.6839305766,
				"element": "H" 
			},
			{
				"x": -4.9934647269,
				"y": 0.5796636263,
				"z": -1.0029521975,
				"element": "H" 
			},
			{
				"x": -4.0610412769,
				"y": 2.4271039189,
				"z": 0.7741424626,
				"element": "H" 
			},
			{
				"x": -2.906430868,
				"y": 1.6746951092,
				"z": -0.3534518811,
				"element": "H" 
			}
		],
		 "valence_orbital": [ 
			{
				"type": "occ",
				"energy": -0.29423,
				"method": "rhf"
			},
			{
				"type": "occ",
				"energy": -0.27911,
				"method": "rhf"
			},
			{
				"type": "occ",
				"energy": -0.27463,
				"method": "rhf"
			},
			{
				"type": "occ",
				"energy": -0.25918,
				"method": "rhf"
			},
			{
				"type": "occ",
				"energy": -0.2383,
				"method": "rhf"
			},
			{
				"type": "unocc",
				"energy": -0.04704,
				"method": "rhf"
			},
			{
				"type": "unocc",
				"energy": -0.02589,
				"method": "rhf"
			},
			{
				"type": "unocc",
				"energy": -0.00201,
				"method": "rhf"
			},
			{
				"type": "unocc",
				"energy": 0.01269,
				"method": "rhf"
			},
			{
				"type": "unocc",
				"energy": 0.06108,
				"method": "rhf"
			}
		],
		"cosmo_sigma_profile": { 
			"-0.025": 0.0,
			"-0.024": 0.0,
			"-0.023": 0.0,
			"-0.022": 0.0,
			"-0.021": 0.0,
			"-0.02": 0.0,
			"-0.019": 0.0,
			"-0.018": 0.0,
			"-0.017": 0.0,
			"-0.016": 0.0,
			"-0.015": 0.0101376092203,
			"-0.014": 0.652803951149,
			"-0.013": 0.935468062523,
			"-0.012": 1.26907953928,
			"-0.011": 1.25668288174,
			"-0.01": 1.31785181542,
			"-0.009": 6.26267882197,
			"-0.008": 6.82936634218,
			"-0.007": 8.23319988927,
			"-0.006": 10.6794714046,
			"-0.005": 17.4384907434,
			"-0.004": 30.6052898506,
			"-0.003": 34.3306834934,
			"-0.002": 27.4128649528,
			"-0.001": 22.355796633,
			"0.0": 21.6016439257,
			"0.001": 15.6812414318,
			"0.002": 22.9124873886,
			"0.003": 14.8184684571,
			"0.004": 8.96915740657,
			"0.005": 13.1243883201,
			"0.006": 7.16551919634,
			"0.007": 4.47164361273,
			"0.008": 5.33644591923,
			"0.009": 5.11238923116,
			"0.01": 7.76351500825,
			"0.011": 10.5904535245,
			"0.012": 9.20893386742,
			"0.013": 0.812806249786,
			"0.014": 0.0,
			"0.015": 0.0,
			"0.016": 0.0,
			"0.017": 0.0,
			"0.018": 0.0,
			"0.019": 0.0,
			"0.02": 0.0,
			"0.021": 0.0,
			"0.022": 0.0,
			"0.023": 0.0,
			"0.024": 0.0,
			"0.025": 0.0
		}
	}
}
