{
	 "smiles": "COC1=CC=C(COC2=NC=C(C=C2)C#N)C=C1", 
	 "Tm": 375.15, 
	 "num_atms": 30, 
	 "gaussian": { 
		 "optdone": 1, 
		 "sigma_profile": "yes", 
		 "theory": "DFT", 
		 "functional": "B3LYP", 
		 "basiset": "6-31G**", 
		 "properties": { 
			 "R2extent": 6483.3976, 
			 "electric_dipole_moment_norm": 4.1756150541, 
			 "electric_quadrupole_moment_norm": 28.1776178693, 
			 "total_energy": -800.640393766, 
			 "HOMO_LUMO_gap": 0.17914, 
			 "cosmo_polarized_energy": -13.05, 
			 "cosmo_cavitation_energy": 36.14, 
			 "cosmo_dispersion_energy": -25.24, 
			 "cosmo_repulsion_energy": 1.96, 
			 "cosmo_total_nonelectrostatic_energy": 12.86, 
			 "SMD_solvation_energy": 8.15 
		},
		"coords": [
			{
				"x": 1.8634828606,
				"y": 0.4609293475,
				"z": -5.3670517385,
				"element": "C" 
			},
			{
				"x": 0.5403715172,
				"y": 0.0709786709,
				"z": -5.0322838798,
				"element": "O" 
			},
			{
				"x": 0.1027812604,
				"y": 0.2930328459,
				"z": -3.7606704294,
				"element": "C" 
			},
			{
				"x": -1.2135030118,
				"y": -0.1163947873,
				"z": -3.4911990974,
				"element": "C" 
			},
			{
				"x": -1.7528135063,
				"y": 0.0705293755,
				"z": -2.2269980606,
				"element": "C" 
			},
			{
				"x": -1.0024433016,
				"y": 0.663490297,
				"z": -1.1978266422,
				"element": "C" 
			},
			{
				"x": -1.6018030482,
				"y": 0.85320287,
				"z": 0.17023576,
				"element": "C" 
			},
			{
				"x": -1.6792953174,
				"y": -0.3961259915,
				"z": 0.917687362,
				"element": "O" 
			},
			{
				"x": -0.6142998407,
				"y": -0.7980229997,
				"z": 1.6268961826,
				"element": "C" 
			},
			{
				"x": 0.4673615477,
				"y": -0.0231807524,
				"z": 1.7159750752,
				"element": "N" 
			},
			{
				"x": 1.4926677608,
				"y": -0.4596143628,
				"z": 2.4519457226,
				"element": "C" 
			},
			{
				"x": 1.4922881,
				"y": -1.6846284927,
				"z": 3.1296001767,
				"element": "C" 
			},
			{
				"x": 0.3393873145,
				"y": -2.494122212,
				"z": 3.0236723957,
				"element": "C" 
			},
			{
				"x": -0.7251182256,
				"y": -2.0518258698,
				"z": 2.2672205922,
				"element": "C" 
			},
			{
				"x": 2.6258827102,
				"y": -2.0931917622,
				"z": 3.8976072526,
				"element": "C" 
			},
			{
				"x": 3.5503134567,
				"y": -2.4237291643,
				"z": 4.5228166138,
				"element": "N" 
			},
			{
				"x": 0.306214667,
				"y": 1.0623032583,
				"z": -1.4786181583,
				"element": "C" 
			},
			{
				"x": 0.8645026799,
				"y": 0.8872317921,
				"z": -2.7475943476,
				"element": "C" 
			},
			{
				"x": 2.0087994009,
				"y": 1.5424989985,
				"z": -5.2499578606,
				"element": "H" 
			},
			{
				"x": 2.6077619059,
				"y": -0.0687208861,
				"z": -4.7587779732,
				"element": "H" 
			},
			{
				"x": 2.0002985544,
				"y": 0.1922341502,
				"z": -6.4155384206,
				"element": "H" 
			},
			{
				"x": -1.7881509252,
				"y": -0.5709195667,
				"z": -4.2915082325,
				"element": "H" 
			},
			{
				"x": -2.7739695061,
				"y": -0.2473124724,
				"z": -2.0312375639,
				"element": "H" 
			},
			{
				"x": -1.0417497061,
				"y": 1.584899187,
				"z": 0.753886071,
				"element": "H" 
			},
			{
				"x": -2.647208186,
				"y": 1.1631418311,
				"z": 0.1030664956,
				"element": "H" 
			},
			{
				"x": 2.3614961892,
				"y": 0.1919444898,
				"z": 2.5090494816,
				"element": "H" 
			},
			{
				"x": 0.3000649944,
				"y": -3.4510195606,
				"z": 3.533566612,
				"element": "H" 
			},
			{
				"x": -1.6333008414,
				"y": -2.6313915056,
				"z": 2.1518684552,
				"element": "H" 
			},
			{
				"x": 0.9048632779,
				"y": 1.5086492773,
				"z": -0.6905443282,
				"element": "H" 
			},
			{
				"x": 1.8819172189,
				"y": 1.2116339947,
				"z": -2.9306875161,
				"element": "H" 
			}
		],
		 "valence_orbital": [ 
			{
				"type": "occ",
				"energy": -0.30459,
				"method": "rhf"
			},
			{
				"type": "occ",
				"energy": -0.28402,
				"method": "rhf"
			},
			{
				"type": "occ",
				"energy": -0.2568,
				"method": "rhf"
			},
			{
				"type": "occ",
				"energy": -0.24547,
				"method": "rhf"
			},
			{
				"type": "occ",
				"energy": -0.22417,
				"method": "rhf"
			},
			{
				"type": "unocc",
				"energy": -0.04503,
				"method": "rhf"
			},
			{
				"type": "unocc",
				"energy": -0.04102,
				"method": "rhf"
			},
			{
				"type": "unocc",
				"energy": -0.0064,
				"method": "rhf"
			},
			{
				"type": "unocc",
				"energy": -0.00341,
				"method": "rhf"
			},
			{
				"type": "unocc",
				"energy": 0.03415,
				"method": "rhf"
			}
		],
		"cosmo_sigma_profile": { 
			"-0.025": 0.0,
			"-0.024": 0.0,
			"-0.023": 0.0,
			"-0.022": 0.0,
			"-0.021": 0.0,
			"-0.02": 0.0,
			"-0.019": 0.0,
			"-0.018": 0.0,
			"-0.017": 0.0,
			"-0.016": 0.0,
			"-0.015": 0.0,
			"-0.014": 0.0,
			"-0.013": 0.0,
			"-0.012": 0.0,
			"-0.011": 0.0,
			"-0.01": 0.00541835283588,
			"-0.009": 2.03401029647,
			"-0.008": 6.08570925551,
			"-0.007": 7.85638634348,
			"-0.006": 16.1372197025,
			"-0.005": 25.7919307212,
			"-0.004": 22.920144535,
			"-0.003": 25.5374200369,
			"-0.002": 20.2782696918,
			"-0.001": 22.3382246802,
			"0.0": 22.0929028278,
			"0.001": 16.2341083792,
			"0.002": 14.2005487363,
			"0.003": 15.0285131218,
			"0.004": 18.0692198303,
			"0.005": 17.9709203675,
			"0.006": 7.4169449921,
			"0.007": 6.17661610053,
			"0.008": 6.56903463783,
			"0.009": 5.7478211756,
			"0.01": 4.72429840186,
			"0.011": 3.14789190168,
			"0.012": 2.42177010936,
			"0.013": 1.6475374219,
			"0.014": 0.0868274252658,
			"0.015": 0.0,
			"0.016": 0.0,
			"0.017": 0.0,
			"0.018": 0.0,
			"0.019": 0.0,
			"0.02": 0.0,
			"0.021": 0.0,
			"0.022": 0.0,
			"0.023": 0.0,
			"0.024": 0.0,
			"0.025": 0.0
		}
	}
}
