{
	 "smiles": "COC1=CC(C)=CC(O)=C1", 
	 "Tm": 336.15, 
	 "num_atms": 20, 
	 "gaussian": { 
		 "optdone": 1, 
		 "sigma_profile": "yes", 
		 "theory": "DFT", 
		 "functional": "B3LYP", 
		 "basiset": "6-31G**", 
		 "properties": { 
			 "R2extent": 2197.0798, 
			 "electric_dipole_moment_norm": 2.29037720911, 
			 "electric_quadrupole_moment_norm": 11.4903745561, 
			 "total_energy": -461.315764197, 
			 "HOMO_LUMO_gap": 0.22006, 
			 "cosmo_polarized_energy": -9.96, 
			 "cosmo_cavitation_energy": 23.43, 
			 "cosmo_dispersion_energy": -17.44, 
			 "cosmo_repulsion_energy": 1.42, 
			 "cosmo_total_nonelectrostatic_energy": 7.42, 
			 "SMD_solvation_energy": 5.24 
		},
		"coords": [
			{
				"x": 0.7426808697,
				"y": -1.9123832265,
				"z": -1.12497065,
				"element": "C" 
			},
			{
				"x": 0.660006728,
				"y": -0.5268001926,
				"z": -1.4122779803,
				"element": "O" 
			},
			{
				"x": 0.8325607101,
				"y": 0.359973956,
				"z": -0.3876619709,
				"element": "C" 
			},
			{
				"x": 1.0918130386,
				"y": -0.0085691186,
				"z": 0.9379753403,
				"element": "C" 
			},
			{
				"x": 1.254242034,
				"y": 0.9822867314,
				"z": 1.91768512,
				"element": "C" 
			},
			{
				"x": 1.5032329918,
				"y": 0.5858599803,
				"z": 3.3550225598,
				"element": "C" 
			},
			{
				"x": 1.1614226382,
				"y": 2.3281147751,
				"z": 1.5609953079,
				"element": "C" 
			},
			{
				"x": 0.9016551401,
				"y": 2.685495275,
				"z": 0.22985084,
				"element": "C" 
			},
			{
				"x": 0.8029803881,
				"y": 3.9908913147,
				"z": -0.1652760703,
				"element": "O" 
			},
			{
				"x": 0.7363648764,
				"y": 1.7093519798,
				"z": -0.7474344691,
				"element": "C" 
			},
			{
				"x": 1.7312497733,
				"y": -2.1889890136,
				"z": -0.735872271,
				"element": "H" 
			},
			{
				"x": 0.5743913414,
				"y": -2.4271699761,
				"z": -2.0724332636,
				"element": "H" 
			},
			{
				"x": -0.0242715277,
				"y": -2.2249225709,
				"z": -0.4043548087,
				"element": "H" 
			},
			{
				"x": 1.1701958338,
				"y": -1.0512298611,
				"z": 1.2223075225,
				"element": "H" 
			},
			{
				"x": 1.9054764445,
				"y": 1.4195094491,
				"z": 3.9375410624,
				"element": "H" 
			},
			{
				"x": 0.5754081369,
				"y": 0.2609960743,
				"z": 3.8420694037,
				"element": "H" 
			},
			{
				"x": 2.2113707642,
				"y": -0.2464304729,
				"z": 3.4227688207,
				"element": "H" 
			},
			{
				"x": 1.290513682,
				"y": 3.1018341716,
				"z": 2.3154476691,
				"element": "H" 
			},
			{
				"x": 0.9379542359,
				"y": 4.5600529221,
				"z": 0.6031344339,
				"element": "H" 
			},
			{
				"x": 0.5394519007,
				"y": 1.9856278029,
				"z": -1.7764165966,
				"element": "H" 
			}
		],
		 "valence_orbital": [ 
			{
				"type": "occ",
				"energy": -0.34465,
				"method": "rhf"
			},
			{
				"type": "occ",
				"energy": -0.32101,
				"method": "rhf"
			},
			{
				"type": "occ",
				"energy": -0.29168,
				"method": "rhf"
			},
			{
				"type": "occ",
				"energy": -0.21771,
				"method": "rhf"
			},
			{
				"type": "occ",
				"energy": -0.21027,
				"method": "rhf"
			},
			{
				"type": "unocc",
				"energy": 0.00979,
				"method": "rhf"
			},
			{
				"type": "unocc",
				"energy": 0.02693,
				"method": "rhf"
			},
			{
				"type": "unocc",
				"energy": 0.07604,
				"method": "rhf"
			},
			{
				"type": "unocc",
				"energy": 0.09703,
				"method": "rhf"
			},
			{
				"type": "unocc",
				"energy": 0.11273,
				"method": "rhf"
			}
		],
		"cosmo_sigma_profile": { 
			"-0.025": 0.0,
			"-0.024": 0.0,
			"-0.023": 0.0,
			"-0.022": 0.0,
			"-0.021": 0.0,
			"-0.02": 0.0,
			"-0.019": 0.0,
			"-0.018": 0.101685351257,
			"-0.017": 1.13845419017,
			"-0.016": 0.737242540745,
			"-0.015": 1.36246568703,
			"-0.014": 0.87499395068,
			"-0.013": 0.793626051597,
			"-0.012": 0.870035630873,
			"-0.011": 0.770897647657,
			"-0.01": 0.944643467385,
			"-0.009": 1.36996598309,
			"-0.008": 0.942417385128,
			"-0.007": 0.967519073114,
			"-0.006": 3.97688962267,
			"-0.005": 13.1214323128,
			"-0.004": 18.3319220521,
			"-0.003": 19.9326470925,
			"-0.002": 14.7697135179,
			"-0.001": 11.5738024673,
			"0.0": 13.881216334,
			"0.001": 8.95190840851,
			"0.002": 6.88730093758,
			"0.003": 8.87925574973,
			"0.004": 10.1131047939,
			"0.005": 14.322474109,
			"0.006": 12.8481647136,
			"0.007": 3.59268916194,
			"0.008": 2.10872185722,
			"0.009": 3.14427180037,
			"0.01": 3.84264422704,
			"0.011": 2.44643644086,
			"0.012": 1.37308517723,
			"0.013": 0.0,
			"0.014": 0.0,
			"0.015": 0.0,
			"0.016": 0.0,
			"0.017": 0.0,
			"0.018": 0.0,
			"0.019": 0.0,
			"0.02": 0.0,
			"0.021": 0.0,
			"0.022": 0.0,
			"0.023": 0.0,
			"0.024": 0.0,
			"0.025": 0.0
		}
	}
}
