{
	 "smiles": "OC(=O)C1=CC=C(S1)C1=CC(Cl)=C(Cl)C=C1", 
	 "Tm": 527.15, 
	 "num_atms": 22, 
	 "gaussian": { 
		 "optdone": 1, 
		 "sigma_profile": "yes", 
		 "theory": "DFT", 
		 "functional": "B3LYP", 
		 "basiset": "6-31G**", 
		 "properties": { 
			 "R2extent": 9508.4174, 
			 "electric_dipole_moment_norm": 3.21015991035, 
			 "electric_quadrupole_moment_norm": 26.3700798139, 
			 "total_energy": -1891.80192967, 
			 "HOMO_LUMO_gap": 0.15654, 
			 "cosmo_polarized_energy": -15.11, 
			 "cosmo_cavitation_energy": 32.66, 
			 "cosmo_dispersion_energy": -24.59, 
			 "cosmo_repulsion_energy": 1.85, 
			 "cosmo_total_nonelectrostatic_energy": 9.92, 
			 "SMD_solvation_energy": 5.84 
		},
		"coords": [
			{
				"x": -3.9853679254,
				"y": -4.0441497252,
				"z": 1.5513969513,
				"element": "O" 
			},
			{
				"x": -3.9665363016,
				"y": -3.0624440621,
				"z": 0.6108853344,
				"element": "C" 
			},
			{
				"x": -4.7790889353,
				"y": -3.0628857099,
				"z": -0.2841791469,
				"element": "O" 
			},
			{
				"x": -2.9236568803,
				"y": -2.0168432417,
				"z": 0.7287178315,
				"element": "C" 
			},
			{
				"x": -2.8820108702,
				"y": -0.8729099886,
				"z": -0.0332281425,
				"element": "C" 
			},
			{
				"x": -1.7886133007,
				"y": -0.0300661674,
				"z": 0.2796972378,
				"element": "C" 
			},
			{
				"x": -0.9765525628,
				"y": -0.5220080801,
				"z": 1.282384008,
				"element": "C" 
			},
			{
				"x": -1.571097707,
				"y": -2.0707509741,
				"z": 1.8357941239,
				"element": "S" 
			},
			{
				"x": 0.2371759121,
				"y": 0.0791085242,
				"z": 1.8461523556,
				"element": "C" 
			},
			{
				"x": 0.640481957,
				"y": -0.1893146919,
				"z": 3.1630909289,
				"element": "C" 
			},
			{
				"x": 1.7920899069,
				"y": 0.3885084331,
				"z": 3.6950527259,
				"element": "C" 
			},
			{
				"x": 2.2309207711,
				"y": 0.0107270367,
				"z": 5.3412413721,
				"element": "Cl" 
			},
			{
				"x": 2.5629014084,
				"y": 1.2616462207,
				"z": 2.9150041867,
				"element": "C" 
			},
			{
				"x": 4.0073119486,
				"y": 2.0123845913,
				"z": 3.5365939328,
				"element": "Cl" 
			},
			{
				"x": 2.1665883337,
				"y": 1.5358331705,
				"z": 1.6028664407,
				"element": "C" 
			},
			{
				"x": 1.0247939692,
				"y": 0.9500922121,
				"z": 1.0718159835,
				"element": "C" 
			},
			{
				"x": -3.3685851017,
				"y": -3.86124111,
				"z": 2.2746391595,
				"element": "H" 
			},
			{
				"x": -3.6372181173,
				"y": -0.6620191358,
				"z": -0.7804148093,
				"element": "H" 
			},
			{
				"x": -1.615557392,
				"y": 0.9283370143,
				"z": -0.1956117553,
				"element": "H" 
			},
			{
				"x": 0.0472956279,
				"y": -0.8375885413,
				"z": 3.7986383717,
				"element": "H" 
			},
			{
				"x": 2.7723341623,
				"y": 2.2033318055,
				"z": 1.0002343094,
				"element": "H" 
			},
			{
				"x": 0.754891097,
				"y": 1.1521524196,
				"z": 0.0410286003,
				"element": "H" 
			}
		],
		 "valence_orbital": [ 
			{
				"type": "occ",
				"energy": -0.2924,
				"method": "rhf"
			},
			{
				"type": "occ",
				"energy": -0.28353,
				"method": "rhf"
			},
			{
				"type": "occ",
				"energy": -0.28189,
				"method": "rhf"
			},
			{
				"type": "occ",
				"energy": -0.27371,
				"method": "rhf"
			},
			{
				"type": "occ",
				"energy": -0.24125,
				"method": "rhf"
			},
			{
				"type": "unocc",
				"energy": -0.08471,
				"method": "rhf"
			},
			{
				"type": "unocc",
				"energy": -0.04176,
				"method": "rhf"
			},
			{
				"type": "unocc",
				"energy": -0.03125,
				"method": "rhf"
			},
			{
				"type": "unocc",
				"energy": -0.01416,
				"method": "rhf"
			},
			{
				"type": "unocc",
				"energy": -0.00563,
				"method": "rhf"
			}
		],
		"cosmo_sigma_profile": { 
			"-0.025": 0.0,
			"-0.024": 0.0,
			"-0.023": 0.0,
			"-0.022": 0.0,
			"-0.021": 0.0,
			"-0.02": 0.0,
			"-0.019": 0.0117906242093,
			"-0.018": 0.497826497516,
			"-0.017": 1.00116049722,
			"-0.016": 0.948881159988,
			"-0.015": 0.876581419918,
			"-0.014": 0.523738417014,
			"-0.013": 1.19538514027,
			"-0.012": 1.4858166936,
			"-0.011": 0.803907466265,
			"-0.01": 0.524386357791,
			"-0.009": 1.79652544494,
			"-0.008": 9.50529874216,
			"-0.007": 10.572081089,
			"-0.006": 9.59175233989,
			"-0.005": 9.71199070093,
			"-0.004": 9.68638480101,
			"-0.003": 12.7559131338,
			"-0.002": 14.5768123073,
			"-0.001": 20.715068881,
			"0.0": 31.8381106228,
			"0.001": 36.6746767809,
			"0.002": 26.3877581777,
			"0.003": 19.5331020393,
			"0.004": 15.8714056793,
			"0.005": 5.96973030101,
			"0.006": 2.65059811029,
			"0.007": 2.31634903891,
			"0.008": 2.2685292773,
			"0.009": 3.96686446341,
			"0.01": 4.77038346193,
			"0.011": 5.33293384043,
			"0.012": 4.51159509486,
			"0.013": 1.14775178585,
			"0.014": 0.00360692231542,
			"0.015": 0.0,
			"0.016": 0.0,
			"0.017": 0.0,
			"0.018": 0.0,
			"0.019": 0.0,
			"0.02": 0.0,
			"0.021": 0.0,
			"0.022": 0.0,
			"0.023": 0.0,
			"0.024": 0.0,
			"0.025": 0.0
		}
	}
}
