{
	 "smiles": "[O-][N+](=O)C1=CC(=C(NC2=C(Cl)C=C(C=N2)C(F)(F)F)C(Cl)=C1)[N+]([O-])=O", 
	 "Tm": 399.15, 
	 "num_atms": 30, 
	 "gaussian": { 
		 "optdone": 1, 
		 "sigma_profile": "yes", 
		 "theory": "DFT", 
		 "functional": "B3LYP", 
		 "basiset": "6-31G**", 
		 "properties": { 
			 "R2extent": 11910.6658, 
			 "electric_dipole_moment_norm": 3.86485062454, 
			 "electric_quadrupole_moment_norm": 18.1466276264, 
			 "total_energy": -2199.88100538, 
			 "HOMO_LUMO_gap": 0.14044, 
			 "cosmo_polarized_energy": -14.64, 
			 "cosmo_cavitation_energy": 41.84, 
			 "cosmo_dispersion_energy": -28.86, 
			 "cosmo_repulsion_energy": 2.1, 
			 "cosmo_total_nonelectrostatic_energy": 15.08, 
			 "SMD_solvation_energy": 10.52 
		},
		"coords": [
			{
				"x": 3.5789847093,
				"y": -3.0525515077,
				"z": 3.8282109886,
				"element": "O" 
			},
			{
				"x": 3.3841465799,
				"y": -1.9015258476,
				"z": 3.4387691556,
				"element": "N" 
			},
			{
				"x": 3.7997533245,
				"y": -0.8849525327,
				"z": 3.9905615859,
				"element": "O" 
			},
			{
				"x": 2.5907025574,
				"y": -1.7319124316,
				"z": 2.2172695368,
				"element": "C" 
			},
			{
				"x": 2.3623577751,
				"y": -0.4605990084,
				"z": 1.7242128162,
				"element": "C" 
			},
			{
				"x": 1.6174817789,
				"y": -0.3051005787,
				"z": 0.5580129472,
				"element": "C" 
			},
			{
				"x": 1.0188312788,
				"y": -1.4071578218,
				"z": -0.1122961491,
				"element": "C" 
			},
			{
				"x": 0.2049475732,
				"y": -1.3795157608,
				"z": -1.2218320335,
				"element": "N" 
			},
			{
				"x": -0.6361832203,
				"y": -0.4247230704,
				"z": -1.7985163735,
				"element": "C" 
			},
			{
				"x": -1.4522417006,
				"y": 0.4805222325,
				"z": -1.0891535775,
				"element": "C" 
			},
			{
				"x": -1.5315605631,
				"y": 0.4928548649,
				"z": 0.6562720322,
				"element": "Cl" 
			},
			{
				"x": -2.2666438411,
				"y": 1.3493346967,
				"z": -1.802959993,
				"element": "C" 
			},
			{
				"x": -2.2918051216,
				"y": 1.2666779312,
				"z": -3.1944903621,
				"element": "C" 
			},
			{
				"x": -1.5136612229,
				"y": 0.2845956501,
				"z": -3.8089071207,
				"element": "C" 
			},
			{
				"x": -0.7114038408,
				"y": -0.5314670718,
				"z": -3.1296899257,
				"element": "N" 
			},
			{
				"x": -3.2040858219,
				"y": 2.1519182394,
				"z": -3.9976266474,
				"element": "C" 
			},
			{
				"x": -3.3463331141,
				"y": 3.3643637898,
				"z": -3.4224490319,
				"element": "F" 
			},
			{
				"x": -4.4413863734,
				"y": 1.6181060045,
				"z": -4.107123733,
				"element": "F" 
			},
			{
				"x": -2.7372380216,
				"y": 2.3351785767,
				"z": -5.2493259277,
				"element": "F" 
			},
			{
				"x": 1.3310638141,
				"y": -2.691006821,
				"z": 0.4292490442,
				"element": "C" 
			},
			{
				"x": 0.6986511638,
				"y": -4.1230236087,
				"z": -0.3601354798,
				"element": "Cl" 
			},
			{
				"x": 2.0978724339,
				"y": -2.8622268187,
				"z": 1.5648371729,
				"element": "C" 
			},
			{
				"x": 1.5951272865,
				"y": 1.0620305758,
				"z": 0.0143252895,
				"element": "N" 
			},
			{
				"x": 1.3805162103,
				"y": 1.1936766925,
				"z": -1.1913384797,
				"element": "O" 
			},
			{
				"x": 1.8442470441,
				"y": 1.9853934784,
				"z": 0.7843410296,
				"element": "O" 
			},
			{
				"x": 2.7782347967,
				"y": 0.4086956194,
				"z": 2.2145966308,
				"element": "H" 
			},
			{
				"x": 0.2818007157,
				"y": -2.1955648352,
				"z": -1.818670776,
				"element": "H" 
			},
			{
				"x": -2.8822209467,
				"y": 2.0689331939,
				"z": -1.2755317537,
				"element": "H" 
			},
			{
				"x": -1.5317122212,
				"y": 0.1578803106,
				"z": -4.8875576571,
				"element": "H" 
			},
			{
				"x": 2.3022569672,
				"y": -3.8482341415,
				"z": 1.9611467919,
				"element": "H" 
			}
		],
		 "valence_orbital": [ 
			{
				"type": "occ",
				"energy": -0.30862,
				"method": "rhf"
			},
			{
				"type": "occ",
				"energy": -0.30361,
				"method": "rhf"
			},
			{
				"type": "occ",
				"energy": -0.30099,
				"method": "rhf"
			},
			{
				"type": "occ",
				"energy": -0.29238,
				"method": "rhf"
			},
			{
				"type": "occ",
				"energy": -0.25675,
				"method": "rhf"
			},
			{
				"type": "unocc",
				"energy": -0.11631,
				"method": "rhf"
			},
			{
				"type": "unocc",
				"energy": -0.10535,
				"method": "rhf"
			},
			{
				"type": "unocc",
				"energy": -0.06443,
				"method": "rhf"
			},
			{
				"type": "unocc",
				"energy": -0.05674,
				"method": "rhf"
			},
			{
				"type": "unocc",
				"energy": -0.04168,
				"method": "rhf"
			}
		],
		"cosmo_sigma_profile": { 
			"-0.025": 0.0,
			"-0.024": 0.0,
			"-0.023": 0.0,
			"-0.022": 0.0,
			"-0.021": 0.0,
			"-0.02": 0.0,
			"-0.019": 0.0,
			"-0.018": 0.0,
			"-0.017": 0.0,
			"-0.016": 0.0,
			"-0.015": 0.0,
			"-0.014": 0.0,
			"-0.013": 0.427246242639,
			"-0.012": 1.28513008958,
			"-0.011": 1.12361045409,
			"-0.01": 1.94183450955,
			"-0.009": 4.17202725233,
			"-0.008": 7.64796927066,
			"-0.007": 8.69980900469,
			"-0.006": 11.6967358482,
			"-0.005": 14.3128813022,
			"-0.004": 22.5623097846,
			"-0.003": 28.7867439173,
			"-0.002": 35.3235023193,
			"-0.001": 26.2864827909,
			"0.0": 20.9385206136,
			"0.001": 24.2604984534,
			"0.002": 41.34241172,
			"0.003": 27.0631799837,
			"0.004": 6.9868249208,
			"0.005": 8.91248594265,
			"0.006": 11.6814138495,
			"0.007": 17.0804312932,
			"0.008": 9.98244371385,
			"0.009": 6.98447040189,
			"0.01": 1.73489300897,
			"0.011": 0.854783524005,
			"0.012": 0.321650870531,
			"0.013": 0.0,
			"0.014": 0.0,
			"0.015": 0.0,
			"0.016": 0.0,
			"0.017": 0.0,
			"0.018": 0.0,
			"0.019": 0.0,
			"0.02": 0.0,
			"0.021": 0.0,
			"0.022": 0.0,
			"0.023": 0.0,
			"0.024": 0.0,
			"0.025": 0.0
		}
	}
}
