{
	 "smiles": "COC1=C(OC)C=C(C(=C1)C(=O)C1=CC=C(Cl)C=C1)[N+]([O-])=O", 
	 "Tm": 415.15, 
	 "num_atms": 34, 
	 "gaussian": { 
		 "optdone": 1, 
		 "sigma_profile": "yes", 
		 "theory": "DFT", 
		 "functional": "B3LYP", 
		 "basiset": "6-31G**", 
		 "properties": { 
			 "R2extent": 10392.6509, 
			 "electric_dipole_moment_norm": 6.08371781808, 
			 "electric_quadrupole_moment_norm": 10.3389468927, 
			 "total_energy": -1469.75137396, 
			 "HOMO_LUMO_gap": 0.15993, 
			 "cosmo_polarized_energy": -15.13, 
			 "cosmo_cavitation_energy": 41.55, 
			 "cosmo_dispersion_energy": -28.69, 
			 "cosmo_repulsion_energy": 2.22, 
			 "cosmo_total_nonelectrostatic_energy": 15.08, 
			 "SMD_solvation_energy": 10.78 
		},
		"coords": [
			{
				"x": 3.097451962,
				"y": 1.7338422124,
				"z": -1.5301348717,
				"element": "C" 
			},
			{
				"x": 2.6901325503,
				"y": 0.858459152,
				"z": -0.4626338999,
				"element": "O" 
			},
			{
				"x": 1.4452131614,
				"y": 0.3097255624,
				"z": -0.5825532801,
				"element": "C" 
			},
			{
				"x": 1.1195737325,
				"y": -0.5939873604,
				"z": -1.6190967918,
				"element": "C" 
			},
			{
				"x": 2.0248225573,
				"y": -0.9358509945,
				"z": -2.5905627847,
				"element": "O" 
			},
			{
				"x": 3.1170623232,
				"y": -1.7539273321,
				"z": -2.1414461808,
				"element": "C" 
			},
			{
				"x": -0.1667649175,
				"y": -1.1159285493,
				"z": -1.6846016075,
				"element": "C" 
			},
			{
				"x": -1.1105462201,
				"y": -0.7684938131,
				"z": -0.7170043103,
				"element": "C" 
			},
			{
				"x": -0.8021127695,
				"y": 0.0874968014,
				"z": 0.3484323828,
				"element": "C" 
			},
			{
				"x": 0.4872761227,
				"y": 0.6258830951,
				"z": 0.3830817721,
				"element": "C" 
			},
			{
				"x": -1.766141036,
				"y": 0.5525500223,
				"z": 1.4305123677,
				"element": "C" 
			},
			{
				"x": -2.1439473596,
				"y": 1.7120424283,
				"z": 1.4098109342,
				"element": "O" 
			},
			{
				"x": -2.0924286264,
				"y": -0.3646124973,
				"z": 2.5614276264,
				"element": "C" 
			},
			{
				"x": -2.9879630475,
				"y": 0.0905532686,
				"z": 3.5408157649,
				"element": "C" 
			},
			{
				"x": -3.314159723,
				"y": -0.7075327525,
				"z": 4.630829894,
				"element": "C" 
			},
			{
				"x": -2.7309598776,
				"y": -1.9725727877,
				"z": 4.742854106,
				"element": "C" 
			},
			{
				"x": -3.1326484062,
				"y": -2.9853125053,
				"z": 6.1173825746,
				"element": "Cl" 
			},
			{
				"x": -1.8335730446,
				"y": -2.4457233658,
				"z": 3.7851812199,
				"element": "C" 
			},
			{
				"x": -1.5193272238,
				"y": -1.6361187032,
				"z": 2.6958736756,
				"element": "C" 
			},
			{
				"x": -2.4626304857,
				"y": -1.3211844097,
				"z": -0.8585266291,
				"element": "N" 
			},
			{
				"x": -2.659808676,
				"y": -2.1456934446,
				"z": -1.7494970049,
				"element": "O" 
			},
			{
				"x": -3.3247038084,
				"y": -0.9205172777,
				"z": -0.0738666204,
				"element": "O" 
			},
			{
				"x": 4.1095113884,
				"y": 2.0557059674,
				"z": -1.2812480797,
				"element": "H" 
			},
			{
				"x": 3.0930385723,
				"y": 1.2178211007,
				"z": -2.4935018098,
				"element": "H" 
			},
			{
				"x": 2.437500954,
				"y": 2.6074811638,
				"z": -1.5755049715,
				"element": "H" 
			},
			{
				"x": 3.7460666433,
				"y": -1.9244280936,
				"z": -3.0164513611,
				"element": "H" 
			},
			{
				"x": 2.7474008567,
				"y": -2.7155245694,
				"z": -1.766264013,
				"element": "H" 
			},
			{
				"x": 3.6954938972,
				"y": -1.2527320583,
				"z": -1.3594445142,
				"element": "H" 
			},
			{
				"x": -0.4388320595,
				"y": -1.7890491283,
				"z": -2.487494514,
				"element": "H" 
			},
			{
				"x": 0.7658059404,
				"y": 1.3205833615,
				"z": 1.1683456728,
				"element": "H" 
			},
			{
				"x": -3.4209209384,
				"y": 1.0783836003,
				"z": 3.4257626897,
				"element": "H" 
			},
			{
				"x": -4.009748311,
				"y": -0.3619072844,
				"z": 5.387353357,
				"element": "H" 
			},
			{
				"x": -1.3912160345,
				"y": -3.4294940702,
				"z": 3.8938286509,
				"element": "H" 
			},
			{
				"x": -0.8176180964,
				"y": -2.000236739,
				"z": 1.9522405559,
				"element": "H" 
			}
		],
		 "valence_orbital": [ 
			{
				"type": "occ",
				"energy": -0.27999,
				"method": "rhf"
			},
			{
				"type": "occ",
				"energy": -0.27338,
				"method": "rhf"
			},
			{
				"type": "occ",
				"energy": -0.26511,
				"method": "rhf"
			},
			{
				"type": "occ",
				"energy": -0.25793,
				"method": "rhf"
			},
			{
				"type": "occ",
				"energy": -0.2549,
				"method": "rhf"
			},
			{
				"type": "unocc",
				"energy": -0.09497,
				"method": "rhf"
			},
			{
				"type": "unocc",
				"energy": -0.06643,
				"method": "rhf"
			},
			{
				"type": "unocc",
				"energy": -0.03462,
				"method": "rhf"
			},
			{
				"type": "unocc",
				"energy": -0.02269,
				"method": "rhf"
			},
			{
				"type": "unocc",
				"energy": -0.00394,
				"method": "rhf"
			}
		],
		"cosmo_sigma_profile": { 
			"-0.025": 0.0,
			"-0.024": 0.0,
			"-0.023": 0.0,
			"-0.022": 0.0,
			"-0.021": 0.0,
			"-0.02": 0.0,
			"-0.019": 0.0,
			"-0.018": 0.0,
			"-0.017": 0.0,
			"-0.016": 0.0,
			"-0.015": 0.0,
			"-0.014": 0.0,
			"-0.013": 0.0,
			"-0.012": 0.0,
			"-0.011": 0.0,
			"-0.01": 0.0,
			"-0.009": 0.307525926596,
			"-0.008": 4.84251295933,
			"-0.007": 12.2425064733,
			"-0.006": 17.6964253148,
			"-0.005": 22.0326250554,
			"-0.004": 27.2937892211,
			"-0.003": 34.1421071998,
			"-0.002": 27.6354376225,
			"-0.001": 25.7946795179,
			"0.0": 24.1488788567,
			"0.001": 22.7137782196,
			"0.002": 24.7963470938,
			"0.003": 15.6980641563,
			"0.004": 18.8229034848,
			"0.005": 8.96040981148,
			"0.006": 9.10557343684,
			"0.007": 10.1186126493,
			"0.008": 9.43472827871,
			"0.009": 7.52642065641,
			"0.01": 6.48970632162,
			"0.011": 4.2853941824,
			"0.012": 1.1833643035,
			"0.013": 0.0242598308124,
			"0.014": 0.0,
			"0.015": 0.0,
			"0.016": 0.0,
			"0.017": 0.0,
			"0.018": 0.0,
			"0.019": 0.0,
			"0.02": 0.0,
			"0.021": 0.0,
			"0.022": 0.0,
			"0.023": 0.0,
			"0.024": 0.0,
			"0.025": 0.0
		}
	}
}
