{
	 "smiles": "CC(C)(C)OC(=O)NC(CC1=CC=CS1)C(O)=O", 
	 "Tm": 346.65, 
	 "num_atms": 35, 
	 "gaussian": { 
		 "optdone": 1, 
		 "sigma_profile": "yes", 
		 "theory": "DFT", 
		 "functional": "B3LYP", 
		 "basiset": "6-31G**", 
		 "properties": { 
			 "R2extent": 5116.6232, 
			 "electric_dipole_moment_norm": 4.0918202612, 
			 "electric_quadrupole_moment_norm": 16.1119671598, 
			 "total_energy": -1221.39287642, 
			 "HOMO_LUMO_gap": 0.21391, 
			 "cosmo_polarized_energy": -18.3, 
			 "cosmo_cavitation_energy": 39.83, 
			 "cosmo_dispersion_energy": -25.77, 
			 "cosmo_repulsion_energy": 1.97, 
			 "cosmo_total_nonelectrostatic_energy": 16.02, 
			 "SMD_solvation_energy": 8.79 
		},
		"coords": [
			{
				"x": -3.172717879,
				"y": 0.0530200767,
				"z": 0.9408657497,
				"element": "C" 
			},
			{
				"x": -2.4218155258,
				"y": -0.977155254,
				"z": 0.0952847777,
				"element": "C" 
			},
			{
				"x": -2.6740382556,
				"y": -0.7506436423,
				"z": -1.397825371,
				"element": "C" 
			},
			{
				"x": -2.7576352492,
				"y": -2.40420731,
				"z": 0.5367957189,
				"element": "C" 
			},
			{
				"x": -1.0068115433,
				"y": -0.6816240928,
				"z": 0.419239199,
				"element": "O" 
			},
			{
				"x": -0.0068188727,
				"y": -1.3610990578,
				"z": -0.1608304918,
				"element": "C" 
			},
			{
				"x": -0.0998871577,
				"y": -2.2755719504,
				"z": -0.9574272065,
				"element": "O" 
			},
			{
				"x": 1.2337064553,
				"y": -0.930550326,
				"z": 0.3167271571,
				"element": "N" 
			},
			{
				"x": 1.4898749837,
				"y": 0.384007387,
				"z": 0.9078195766,
				"element": "C" 
			},
			{
				"x": 2.0964260551,
				"y": 1.4057716088,
				"z": -0.0820619214,
				"element": "C" 
			},
			{
				"x": 1.1663638823,
				"y": 1.8037192336,
				"z": -1.1908858867,
				"element": "C" 
			},
			{
				"x": 1.0692213978,
				"y": 1.2798272777,
				"z": -2.4543681755,
				"element": "C" 
			},
			{
				"x": 0.0337813785,
				"y": 1.8712888976,
				"z": -3.2421672978,
				"element": "C" 
			},
			{
				"x": -0.6517223086,
				"y": 2.8432190798,
				"z": -2.5682876323,
				"element": "C" 
			},
			{
				"x": -0.0349906324,
				"y": 3.0542999194,
				"z": -0.9596837619,
				"element": "S" 
			},
			{
				"x": 2.3811028866,
				"y": 0.2531778259,
				"z": 2.163234929,
				"element": "C" 
			},
			{
				"x": 2.3962031969,
				"y": -0.9701240855,
				"z": 2.7206583353,
				"element": "O" 
			},
			{
				"x": 2.9891313127,
				"y": 1.1853108204,
				"z": 2.631828509,
				"element": "O" 
			},
			{
				"x": -2.9478871335,
				"y": -0.0788781255,
				"z": 2.0032518674,
				"element": "H" 
			},
			{
				"x": -2.8925704977,
				"y": 1.0694055746,
				"z": 0.6499591944,
				"element": "H" 
			},
			{
				"x": -4.2510569835,
				"y": -0.0639864561,
				"z": 0.7991518799,
				"element": "H" 
			},
			{
				"x": -2.3492475259,
				"y": 0.2513747267,
				"z": -1.6937504653,
				"element": "H" 
			},
			{
				"x": -3.7467931089,
				"y": -0.8369131118,
				"z": -1.5989927872,
				"element": "H" 
			},
			{
				"x": -2.1435162821,
				"y": -1.4864071124,
				"z": -2.0025162586,
				"element": "H" 
			},
			{
				"x": -2.5295686226,
				"y": -2.5399270593,
				"z": 1.5987099617,
				"element": "H" 
			},
			{
				"x": -3.8274155717,
				"y": -2.5873778395,
				"z": 0.3943799408,
				"element": "H" 
			},
			{
				"x": -2.196476821,
				"y": -3.136387482,
				"z": -0.0447177734,
				"element": "H" 
			},
			{
				"x": 1.9734888503,
				"y": -1.3029867826,
				"z": -0.2685208843,
				"element": "H" 
			},
			{
				"x": 0.5255891481,
				"y": 0.7591397259,
				"z": 1.2618714344,
				"element": "H" 
			},
			{
				"x": 2.4170755438,
				"y": 2.2694882018,
				"z": 0.5065904325,
				"element": "H" 
			},
			{
				"x": 3.0072988508,
				"y": 0.977226561,
				"z": -0.5190082739,
				"element": "H" 
			},
			{
				"x": 1.7233650413,
				"y": 0.4935813573,
				"z": -2.8164111793,
				"element": "H" 
			},
			{
				"x": -0.1830868305,
				"y": 1.5875678205,
				"z": -4.2656774249,
				"element": "H" 
			},
			{
				"x": -1.4657914867,
				"y": 3.4608543238,
				"z": -2.9215416461,
				"element": "H" 
			},
			{
				"x": 1.8613193051,
				"y": -1.5492407303,
				"z": 2.1438057745,
				"element": "H" 
			}
		],
		 "valence_orbital": [ 
			{
				"type": "occ",
				"energy": -0.29941,
				"method": "rhf"
			},
			{
				"type": "occ",
				"energy": -0.28481,
				"method": "rhf"
			},
			{
				"type": "occ",
				"energy": -0.26267,
				"method": "rhf"
			},
			{
				"type": "occ",
				"energy": -0.25752,
				"method": "rhf"
			},
			{
				"type": "occ",
				"energy": -0.23581,
				"method": "rhf"
			},
			{
				"type": "unocc",
				"energy": -0.0219,
				"method": "rhf"
			},
			{
				"type": "unocc",
				"energy": 0.00539,
				"method": "rhf"
			},
			{
				"type": "unocc",
				"energy": 0.02151,
				"method": "rhf"
			},
			{
				"type": "unocc",
				"energy": 0.03027,
				"method": "rhf"
			},
			{
				"type": "unocc",
				"energy": 0.05684,
				"method": "rhf"
			}
		],
		"cosmo_sigma_profile": { 
			"-0.025": 0.0,
			"-0.024": 0.0,
			"-0.023": 0.0,
			"-0.022": 0.0,
			"-0.021": 0.0,
			"-0.02": 0.0,
			"-0.019": 0.0,
			"-0.018": 0.0,
			"-0.017": 0.0,
			"-0.016": 0.0,
			"-0.015": 0.452097329189,
			"-0.014": 2.49071636464,
			"-0.013": 1.79868462296,
			"-0.012": 2.13808285698,
			"-0.011": 2.95664479272,
			"-0.01": 3.30276973969,
			"-0.009": 2.63545956974,
			"-0.008": 5.77116381288,
			"-0.007": 8.89107968804,
			"-0.006": 11.1198408072,
			"-0.005": 14.1087719003,
			"-0.004": 20.6774439437,
			"-0.003": 21.3130099161,
			"-0.002": 23.8297719006,
			"-0.001": 25.1032228883,
			"0.0": 33.9158979505,
			"0.001": 25.8579958587,
			"0.002": 22.8695446461,
			"0.003": 20.8599517607,
			"0.004": 11.8371862273,
			"0.005": 10.6757635777,
			"0.006": 5.38195422496,
			"0.007": 4.62835697967,
			"0.008": 4.1582433449,
			"0.009": 4.69765373786,
			"0.01": 6.64881224815,
			"0.011": 6.4624604614,
			"0.012": 6.78325653168,
			"0.013": 3.93812586955,
			"0.014": 0.122971683789,
			"0.015": 0.0,
			"0.016": 0.0,
			"0.017": 0.0,
			"0.018": 0.0,
			"0.019": 0.0,
			"0.02": 0.0,
			"0.021": 0.0,
			"0.022": 0.0,
			"0.023": 0.0,
			"0.024": 0.0,
			"0.025": 0.0
		}
	}
}
