{
	 "smiles": "CCOC(=O)C1=C(C)NC(C(=O)C(C)Cl)=C1C", 
	 "Tm": 422.15, 
	 "num_atms": 33, 
	 "gaussian": { 
		 "optdone": 1, 
		 "sigma_profile": "yes", 
		 "theory": "DFT", 
		 "functional": "B3LYP", 
		 "basiset": "6-31G**", 
		 "properties": { 
			 "R2extent": 7241.9844, 
			 "electric_dipole_moment_norm": 4.93659318761, 
			 "electric_quadrupole_moment_norm": 12.0474880403, 
			 "total_energy": -1207.57636665, 
			 "HOMO_LUMO_gap": 0.16907, 
			 "cosmo_polarized_energy": -15.06, 
			 "cosmo_cavitation_energy": 37.91, 
			 "cosmo_dispersion_energy": -26.56, 
			 "cosmo_repulsion_energy": 2.09, 
			 "cosmo_total_nonelectrostatic_energy": 13.44, 
			 "SMD_solvation_energy": 7.51 
		},
		"coords": [
			{
				"x": 0.8063274892,
				"y": -2.6501632961,
				"z": -4.6770124484,
				"element": "C" 
			},
			{
				"x": 1.3913827291,
				"y": -2.4815993905,
				"z": -3.2872355863,
				"element": "C" 
			},
			{
				"x": 0.8348408642,
				"y": -1.2746906837,
				"z": -2.7223088992,
				"element": "O" 
			},
			{
				"x": 1.2603870081,
				"y": -0.9672294514,
				"z": -1.4658857735,
				"element": "C" 
			},
			{
				"x": 2.0541109542,
				"y": -1.6619063619,
				"z": -0.856660613,
				"element": "O" 
			},
			{
				"x": 0.6583899759,
				"y": 0.2704645707,
				"z": -0.9584295698,
				"element": "C" 
			},
			{
				"x": -0.2511791674,
				"y": 1.1089728238,
				"z": -1.6241865431,
				"element": "C" 
			},
			{
				"x": -0.8423270558,
				"y": 1.0549677814,
				"z": -2.9964536858,
				"element": "C" 
			},
			{
				"x": -0.5621191118,
				"y": 2.1119827307,
				"z": -0.7723182722,
				"element": "N" 
			},
			{
				"x": 0.1410523232,
				"y": 1.9870005113,
				"z": 0.4285704437,
				"element": "C" 
			},
			{
				"x": -0.0383388922,
				"y": 2.9010574122,
				"z": 1.5478394062,
				"element": "C" 
			},
			{
				"x": 0.6467918573,
				"y": 2.8625854272,
				"z": 2.564022949,
				"element": "O" 
			},
			{
				"x": -1.2078268945,
				"y": 3.9177771545,
				"z": 1.4936196381,
				"element": "C" 
			},
			{
				"x": -1.4199930744,
				"y": 4.634884867,
				"z": 2.8125077646,
				"element": "C" 
			},
			{
				"x": -0.8875500525,
				"y": 5.1577259953,
				"z": 0.1566387713,
				"element": "Cl" 
			},
			{
				"x": 0.9139782182,
				"y": 0.8262666006,
				"z": 0.3328734803,
				"element": "C" 
			},
			{
				"x": 1.8113178915,
				"y": 0.254307522,
				"z": 1.3864353474,
				"element": "C" 
			},
			{
				"x": 1.0613378722,
				"y": -1.7998892006,
				"z": -5.316522719,
				"element": "H" 
			},
			{
				"x": -0.2835680114,
				"y": -2.7369584649,
				"z": -4.6367247019,
				"element": "H" 
			},
			{
				"x": 1.2050880534,
				"y": -3.5582321636,
				"z": -5.1398914819,
				"element": "H" 
			},
			{
				"x": 2.4822320455,
				"y": -2.3936588267,
				"z": -3.3094433046,
				"element": "H" 
			},
			{
				"x": 1.146599238,
				"y": -3.325389073,
				"z": -2.6342752689,
				"element": "H" 
			},
			{
				"x": -1.5016336787,
				"y": 1.9110468204,
				"z": -3.1685102119,
				"element": "H" 
			},
			{
				"x": -0.0606357703,
				"y": 1.0553517211,
				"z": -3.7607081206,
				"element": "H" 
			},
			{
				"x": -1.4184383751,
				"y": 0.1365755169,
				"z": -3.1387084776,
				"element": "H" 
			},
			{
				"x": -1.0801406401,
				"y": 2.9381919785,
				"z": -1.0384288107,
				"element": "H" 
			},
			{
				"x": -2.1205458001,
				"y": 3.4119624758,
				"z": 1.1664512948,
				"element": "H" 
			},
			{
				"x": -2.2350572916,
				"y": 5.3567784809,
				"z": 2.7283253392,
				"element": "H" 
			},
			{
				"x": -1.6730344991,
				"y": 3.8989066197,
				"z": 3.5814951421,
				"element": "H" 
			},
			{
				"x": -0.507416403,
				"y": 5.1436194681,
				"z": 3.1260075329,
				"element": "H" 
			},
			{
				"x": 2.8491363848,
				"y": 0.2465966033,
				"z": 1.0366884161,
				"element": "H" 
			},
			{
				"x": 1.7502805339,
				"y": 0.8397617819,
				"z": 2.3021333892,
				"element": "H" 
			},
			{
				"x": 1.5568512793,
				"y": -0.7907679508,
				"z": 1.5833955737,
				"element": "H" 
			}
		],
		 "valence_orbital": [ 
			{
				"type": "occ",
				"energy": -0.29496,
				"method": "rhf"
			},
			{
				"type": "occ",
				"energy": -0.26712,
				"method": "rhf"
			},
			{
				"type": "occ",
				"energy": -0.25552,
				"method": "rhf"
			},
			{
				"type": "occ",
				"energy": -0.25298,
				"method": "rhf"
			},
			{
				"type": "occ",
				"energy": -0.22747,
				"method": "rhf"
			},
			{
				"type": "unocc",
				"energy": -0.0584,
				"method": "rhf"
			},
			{
				"type": "unocc",
				"energy": -0.0171,
				"method": "rhf"
			},
			{
				"type": "unocc",
				"energy": 0.01012,
				"method": "rhf"
			},
			{
				"type": "unocc",
				"energy": 0.06597,
				"method": "rhf"
			},
			{
				"type": "unocc",
				"energy": 0.0874,
				"method": "rhf"
			}
		],
		"cosmo_sigma_profile": { 
			"-0.025": 0.0,
			"-0.024": 0.0,
			"-0.023": 0.0,
			"-0.022": 0.0,
			"-0.021": 0.0,
			"-0.02": 0.0,
			"-0.019": 0.0,
			"-0.018": 0.0,
			"-0.017": 0.0,
			"-0.016": 0.0,
			"-0.015": 0.0,
			"-0.014": 0.0594041820143,
			"-0.013": 0.841282803242,
			"-0.012": 2.00409239172,
			"-0.011": 2.03966752909,
			"-0.01": 1.16221917988,
			"-0.009": 2.89998969927,
			"-0.008": 4.37053470852,
			"-0.007": 3.68524899583,
			"-0.006": 4.63354938968,
			"-0.005": 13.3504185076,
			"-0.004": 23.674956419,
			"-0.003": 27.8458684462,
			"-0.002": 29.0659282927,
			"-0.001": 31.8482569948,
			"0.0": 33.8935232415,
			"0.001": 27.5620170093,
			"0.002": 20.2424449938,
			"0.003": 16.3993150587,
			"0.004": 12.0873889215,
			"0.005": 9.5051110897,
			"0.006": 6.48676312203,
			"0.007": 4.02212724745,
			"0.008": 4.19377467275,
			"0.009": 2.24829087678,
			"0.01": 4.42758960203,
			"0.011": 4.93718787852,
			"0.012": 4.80264431672,
			"0.013": 2.37285152258,
			"0.014": 0.0122769051013,
			"0.015": 0.0,
			"0.016": 0.0,
			"0.017": 0.0,
			"0.018": 0.0,
			"0.019": 0.0,
			"0.02": 0.0,
			"0.021": 0.0,
			"0.022": 0.0,
			"0.023": 0.0,
			"0.024": 0.0,
			"0.025": 0.0
		}
	}
}
