{
	 "smiles": "CC1=C(Br)C=C(Br)C=C1Br", 
	 "Tm": 342.65, 
	 "num_atms": 15, 
	 "gaussian": { 
		 "optdone": 1, 
		 "sigma_profile": "yes", 
		 "theory": "DFT", 
		 "functional": "B3LYP", 
		 "basiset": "6-31G**", 
		 "properties": { 
			 "R2extent": 5687.0924, 
			 "electric_dipole_moment_norm": 0.694111554435, 
			 "electric_quadrupole_moment_norm": 3.65946395118, 
			 "total_energy": -7983.97368704, 
			 "HOMO_LUMO_gap": 0.21321, 
			 "cosmo_polarized_energy": -3.05, 
			 "cosmo_cavitation_energy": 25.58, 
			 "cosmo_dispersion_energy": -20.15, 
			 "cosmo_repulsion_energy": 1.62, 
			 "cosmo_total_nonelectrostatic_energy": 7.06, 
			 "SMD_solvation_energy": 1.16 
		},
		"coords": [
			{
				"x": -3.4036912436,
				"y": -0.6829245713,
				"z": -0.722769114,
				"element": "C" 
			},
			{
				"x": -1.9795383084,
				"y": -0.8286991165,
				"z": -0.2573939148,
				"element": "C" 
			},
			{
				"x": -1.2570163706,
				"y": -2.0270291011,
				"z": -0.4023349154,
				"element": "C" 
			},
			{
				"x": -2.0797511313,
				"y": -3.5639956213,
				"z": -1.1972484209,
				"element": "Br" 
			},
			{
				"x": 0.062038712,
				"y": -2.1830776176,
				"z": 0.0196081521,
				"element": "C" 
			},
			{
				"x": 0.7007409777,
				"y": -1.1035930236,
				"z": 0.6198964359,
				"element": "C" 
			},
			{
				"x": 2.5064997326,
				"y": -1.2859331392,
				"z": 1.2027550757,
				"element": "Br" 
			},
			{
				"x": 0.0396522072,
				"y": 0.1056287675,
				"z": 0.8051241168,
				"element": "C" 
			},
			{
				"x": -1.2789841859,
				"y": 0.2185420306,
				"z": 0.3683728295,
				"element": "C" 
			},
			{
				"x": -2.1331957316,
				"y": 1.9049709963,
				"z": 0.6797034144,
				"element": "Br" 
			},
			{
				"x": -4.1028269703,
				"y": -0.9634732723,
				"z": 0.0745267257,
				"element": "H" 
			},
			{
				"x": -3.6194239346,
				"y": 0.3493218346,
				"z": -1.0001978762,
				"element": "H" 
			},
			{
				"x": -3.6029707481,
				"y": -1.3308041218,
				"z": -1.5769250873,
				"element": "H" 
			},
			{
				"x": 0.5744773141,
				"y": -3.1258913112,
				"z": -0.1180132522,
				"element": "H" 
			},
			{
				"x": 0.5346896808,
				"y": 0.9430572671,
				"z": 1.2784958306,
				"element": "H" 
			}
		],
		 "valence_orbital": [ 
			{
				"type": "occ",
				"energy": -0.30124,
				"method": "rhf"
			},
			{
				"type": "occ",
				"energy": -0.29274,
				"method": "rhf"
			},
			{
				"type": "occ",
				"energy": -0.29274,
				"method": "rhf"
			},
			{
				"type": "occ",
				"energy": -0.25614,
				"method": "rhf"
			},
			{
				"type": "occ",
				"energy": -0.25151,
				"method": "rhf"
			},
			{
				"type": "unocc",
				"energy": -0.0383,
				"method": "rhf"
			},
			{
				"type": "unocc",
				"energy": -0.03604,
				"method": "rhf"
			},
			{
				"type": "unocc",
				"energy": -0.0335,
				"method": "rhf"
			},
			{
				"type": "unocc",
				"energy": 0.01716,
				"method": "rhf"
			},
			{
				"type": "unocc",
				"energy": 0.01775,
				"method": "rhf"
			}
		],
		"cosmo_sigma_profile": { 
			"-0.025": 0.0,
			"-0.024": 0.0,
			"-0.023": 0.0,
			"-0.022": 0.0,
			"-0.021": 0.0,
			"-0.02": 0.0,
			"-0.019": 0.0,
			"-0.018": 0.0,
			"-0.017": 0.0,
			"-0.016": 0.0,
			"-0.015": 0.0,
			"-0.014": 0.0,
			"-0.013": 0.0,
			"-0.012": 0.0,
			"-0.011": 0.0,
			"-0.01": 0.0,
			"-0.009": 0.245575038505,
			"-0.008": 2.21416442679,
			"-0.007": 2.78961956712,
			"-0.006": 3.49594915442,
			"-0.005": 7.43845364474,
			"-0.004": 12.271969919,
			"-0.003": 14.3416975084,
			"-0.002": 18.6978515575,
			"-0.001": 22.8001362166,
			"0.0": 28.2411268083,
			"0.001": 34.3894023831,
			"0.002": 18.8988072522,
			"0.003": 24.0612993332,
			"0.004": 23.3402586699,
			"0.005": 1.9128170002,
			"0.006": 0.0,
			"0.007": 0.0,
			"0.008": 0.0,
			"0.009": 0.0,
			"0.01": 0.0,
			"0.011": 0.0,
			"0.012": 0.0,
			"0.013": 0.0,
			"0.014": 0.0,
			"0.015": 0.0,
			"0.016": 0.0,
			"0.017": 0.0,
			"0.018": 0.0,
			"0.019": 0.0,
			"0.02": 0.0,
			"0.021": 0.0,
			"0.022": 0.0,
			"0.023": 0.0,
			"0.024": 0.0,
			"0.025": 0.0
		}
	}
}
