{
	 "smiles": "NC1=NC(N)=NC=C1", 
	 "Tm": 419.15, 
	 "num_atms": 14, 
	 "gaussian": { 
		 "optdone": 1, 
		 "sigma_profile": "yes", 
		 "theory": "DFT", 
		 "functional": "B3LYP", 
		 "basiset": "6-31G**", 
		 "properties": { 
			 "R2extent": 1321.9814, 
			 "electric_dipole_moment_norm": 2.51726633474, 
			 "electric_quadrupole_moment_norm": 10.7401323474, 
			 "total_energy": -375.071214283, 
			 "HOMO_LUMO_gap": 0.20676, 
			 "cosmo_polarized_energy": -13.34, 
			 "cosmo_cavitation_energy": 18.13, 
			 "cosmo_dispersion_energy": -14.06, 
			 "cosmo_repulsion_energy": 1.2, 
			 "cosmo_total_nonelectrostatic_energy": 5.27, 
			 "SMD_solvation_energy": 0.39 
		},
		"coords": [
			{
				"x": -0.1734373714,
				"y": 0.8612143643,
				"z": 1.5467879526,
				"element": "N" 
			},
			{
				"x": 0.3157448563,
				"y": -0.3478051014,
				"z": 1.1223279222,
				"element": "C" 
			},
			{
				"x": -0.0364537625,
				"y": -0.7313084462,
				"z": -0.1113647314,
				"element": "N" 
			},
			{
				"x": 0.4815108888,
				"y": -1.8942620811,
				"z": -0.5444666977,
				"element": "C" 
			},
			{
				"x": 0.1667477403,
				"y": -2.2598796933,
				"z": -1.8250274669,
				"element": "N" 
			},
			{
				"x": 1.2911274815,
				"y": -2.7285039491,
				"z": 0.1347666727,
				"element": "N" 
			},
			{
				"x": 1.6149736895,
				"y": -2.3143227142,
				"z": 1.3665310968,
				"element": "C" 
			},
			{
				"x": 1.1703981814,
				"y": -1.1291686464,
				"z": 1.9291736701,
				"element": "C" 
			},
			{
				"x": -0.1972763491,
				"y": 1.0515252758,
				"z": 2.5359316929,
				"element": "H" 
			},
			{
				"x": -0.9260476384,
				"y": 1.2444702178,
				"z": 0.9941907636,
				"element": "H" 
			},
			{
				"x": 0.347389317,
				"y": -3.2184198643,
				"z": -2.076865683,
				"element": "H" 
			},
			{
				"x": -0.6089980932,
				"y": -1.7869070192,
				"z": -2.2597334552,
				"element": "H" 
			},
			{
				"x": 2.2685309271,
				"y": -2.9764157428,
				"z": 1.9335595848,
				"element": "H" 
			},
			{
				"x": 1.4597901328,
				"y": -0.8221165998,
				"z": 2.9276886784,
				"element": "H" 
			}
		],
		 "valence_orbital": [ 
			{
				"type": "occ",
				"energy": -0.30584,
				"method": "rhf"
			},
			{
				"type": "occ",
				"energy": -0.29557,
				"method": "rhf"
			},
			{
				"type": "occ",
				"energy": -0.24435,
				"method": "rhf"
			},
			{
				"type": "occ",
				"energy": -0.23671,
				"method": "rhf"
			},
			{
				"type": "occ",
				"energy": -0.20921,
				"method": "rhf"
			},
			{
				"type": "unocc",
				"energy": -0.00245,
				"method": "rhf"
			},
			{
				"type": "unocc",
				"energy": 0.0226,
				"method": "rhf"
			},
			{
				"type": "unocc",
				"energy": 0.08457,
				"method": "rhf"
			},
			{
				"type": "unocc",
				"energy": 0.10212,
				"method": "rhf"
			},
			{
				"type": "unocc",
				"energy": 0.12171,
				"method": "rhf"
			}
		],
		"cosmo_sigma_profile": { 
			"-0.025": 0.0,
			"-0.024": 0.0,
			"-0.023": 0.0,
			"-0.022": 0.0,
			"-0.021": 0.0,
			"-0.02": 0.0,
			"-0.019": 0.0,
			"-0.018": 0.0,
			"-0.017": 0.0,
			"-0.016": 0.0,
			"-0.015": 0.0,
			"-0.014": 0.77062867174,
			"-0.013": 3.36189046929,
			"-0.012": 4.44149349626,
			"-0.011": 4.66497169765,
			"-0.01": 4.01764141471,
			"-0.009": 4.01622446158,
			"-0.008": 4.64473795916,
			"-0.007": 4.24660645592,
			"-0.006": 6.73529495885,
			"-0.005": 6.46821773097,
			"-0.004": 6.10417400802,
			"-0.003": 4.67651018632,
			"-0.002": 4.97899427997,
			"-0.001": 4.76037747871,
			"0.0": 5.14185264424,
			"0.001": 6.62785991566,
			"0.002": 11.7559717648,
			"0.003": 9.56865551684,
			"0.004": 9.00093385598,
			"0.005": 5.83558508336,
			"0.006": 5.6964684181,
			"0.007": 4.58745073357,
			"0.008": 3.72106134661,
			"0.009": 4.58946110546,
			"0.01": 3.20052876142,
			"0.011": 2.47346974531,
			"0.012": 2.41334762195,
			"0.013": 1.79698987894,
			"0.014": 1.4682354493,
			"0.015": 0.91449379807,
			"0.016": 0.851710137383,
			"0.017": 0.266608314809,
			"0.018": 0.0,
			"0.019": 0.0,
			"0.02": 0.0,
			"0.021": 0.0,
			"0.022": 0.0,
			"0.023": 0.0,
			"0.024": 0.0,
			"0.025": 0.0
		}
	}
}
