{
	 "smiles": "OC(=O)C1(CCN(CC2=CC=CC=C2)C1)C(F)(F)F", 
	 "Tm": 484.15, 
	 "num_atms": 33, 
	 "gaussian": { 
		 "optdone": 1, 
		 "sigma_profile": "yes", 
		 "theory": "DFT", 
		 "functional": "B3LYP", 
		 "basiset": "6-31G**", 
		 "properties": { 
			 "R2extent": 6492.6039, 
			 "electric_dipole_moment_norm": 3.0771734384, 
			 "electric_quadrupole_moment_norm": 17.2881099155, 
			 "total_energy": -1008.54732466, 
			 "HOMO_LUMO_gap": 0.21377, 
			 "cosmo_polarized_energy": -12.56, 
			 "cosmo_cavitation_energy": 36.1, 
			 "cosmo_dispersion_energy": -24.68, 
			 "cosmo_repulsion_energy": 1.84, 
			 "cosmo_total_nonelectrostatic_energy": 13.26, 
			 "SMD_solvation_energy": 5.5 
		},
		"coords": [
			{
				"x": -1.0902048037,
				"y": 3.5779003784,
				"z": 2.1853646424,
				"element": "O" 
			},
			{
				"x": -1.8629002306,
				"y": 2.5122605973,
				"z": 1.8862439175,
				"element": "C" 
			},
			{
				"x": -2.2903048543,
				"y": 1.802403678,
				"z": 2.7610609213,
				"element": "O" 
			},
			{
				"x": -2.0746750955,
				"y": 2.2061897455,
				"z": 0.3807446123,
				"element": "C" 
			},
			{
				"x": -3.1137850811,
				"y": 1.063257731,
				"z": 0.1883202443,
				"element": "C" 
			},
			{
				"x": -2.2571638143,
				"y": -0.1482431423,
				"z": -0.1998630044,
				"element": "C" 
			},
			{
				"x": -1.1822843663,
				"y": 0.4647195922,
				"z": -0.9778860653,
				"element": "N" 
			},
			{
				"x": -0.1250984777,
				"y": -0.4133315955,
				"z": -1.490220694,
				"element": "C" 
			},
			{
				"x": 0.7434026599,
				"y": -1.1115895752,
				"z": -0.453176914,
				"element": "C" 
			},
			{
				"x": 1.9358631974,
				"y": -0.5271318738,
				"z": -0.0034901717,
				"element": "C" 
			},
			{
				"x": 2.7153649932,
				"y": -1.1468343369,
				"z": 0.974860538,
				"element": "C" 
			},
			{
				"x": 2.3133086359,
				"y": -2.3680446973,
				"z": 1.5182331416,
				"element": "C" 
			},
			{
				"x": 1.1329996672,
				"y": -2.9670166236,
				"z": 1.0735310865,
				"element": "C" 
			},
			{
				"x": 0.3575023085,
				"y": -2.3430443757,
				"z": 0.0955113342,
				"element": "C" 
			},
			{
				"x": -0.7458089629,
				"y": 1.6244009678,
				"z": -0.2137841162,
				"element": "C" 
			},
			{
				"x": -2.509790693,
				"y": 3.4507687552,
				"z": -0.3871796431,
				"element": "C" 
			},
			{
				"x": -1.5528040122,
				"y": 4.441513472,
				"z": -0.3371327599,
				"element": "F" 
			},
			{
				"x": -3.6361648008,
				"y": 3.9811104469,
				"z": 0.1234930427,
				"element": "F" 
			},
			{
				"x": -2.7157552361,
				"y": 3.2068139657,
				"z": -1.6890738365,
				"element": "F" 
			},
			{
				"x": -0.8877539915,
				"y": 4.091762963,
				"z": 1.388278928,
				"element": "H" 
			},
			{
				"x": -3.7971033601,
				"y": 1.3120742304,
				"z": -0.625550589,
				"element": "H" 
			},
			{
				"x": -3.6826763147,
				"y": 0.9055131565,
				"z": 1.1038400939,
				"element": "H" 
			},
			{
				"x": -2.8026654032,
				"y": -0.8758940507,
				"z": -0.810718671,
				"element": "H" 
			},
			{
				"x": -1.8970951674,
				"y": -0.6636367688,
				"z": 0.7069781209,
				"element": "H" 
			},
			{
				"x": -0.614769982,
				"y": -1.1624842838,
				"z": -2.1234828397,
				"element": "H" 
			},
			{
				"x": 0.5092404253,
				"y": 0.193389747,
				"z": -2.1481682839,
				"element": "H" 
			},
			{
				"x": 2.264234567,
				"y": 0.4162141067,
				"z": -0.4345774729,
				"element": "H" 
			},
			{
				"x": 3.637746736,
				"y": -0.6794900319,
				"z": 1.308025122,
				"element": "H" 
			},
			{
				"x": 2.9189415857,
				"y": -2.8532801505,
				"z": 2.2781010578,
				"element": "H" 
			},
			{
				"x": 0.8190716939,
				"y": -3.9224530641,
				"z": 1.4843426283,
				"element": "H" 
			},
			{
				"x": -0.5528895854,
				"y": -2.8229108592,
				"z": -0.2560277141,
				"element": "H" 
			},
			{
				"x": -0.0639928201,
				"y": 1.3664217024,
				"z": 0.6145963159,
				"element": "H" 
			},
			{
				"x": -0.2230894172,
				"y": 2.3415701934,
				"z": -0.8569929722,
				"element": "H" 
			}
		],
		 "valence_orbital": [ 
			{
				"type": "occ",
				"energy": -0.32246,
				"method": "rhf"
			},
			{
				"type": "occ",
				"energy": -0.28122,
				"method": "rhf"
			},
			{
				"type": "occ",
				"energy": -0.25515,
				"method": "rhf"
			},
			{
				"type": "occ",
				"energy": -0.25189,
				"method": "rhf"
			},
			{
				"type": "occ",
				"energy": -0.22351,
				"method": "rhf"
			},
			{
				"type": "unocc",
				"energy": -0.00974,
				"method": "rhf"
			},
			{
				"type": "unocc",
				"energy": -0.00816,
				"method": "rhf"
			},
			{
				"type": "unocc",
				"energy": -0.00086,
				"method": "rhf"
			},
			{
				"type": "unocc",
				"energy": 0.07549,
				"method": "rhf"
			},
			{
				"type": "unocc",
				"energy": 0.08548,
				"method": "rhf"
			}
		],
		"cosmo_sigma_profile": { 
			"-0.025": 0.0,
			"-0.024": 0.0,
			"-0.023": 0.0,
			"-0.022": 0.0,
			"-0.021": 0.0,
			"-0.02": 0.0,
			"-0.019": 0.0,
			"-0.018": 0.0,
			"-0.017": 0.0,
			"-0.016": 0.0,
			"-0.015": 0.268376082629,
			"-0.014": 0.857732582068,
			"-0.013": 0.838450050953,
			"-0.012": 1.10731914887,
			"-0.011": 1.10905685044,
			"-0.01": 0.722407231554,
			"-0.009": 1.14049276627,
			"-0.008": 1.4119928765,
			"-0.007": 1.58783158222,
			"-0.006": 6.58999181615,
			"-0.005": 25.3211955204,
			"-0.004": 29.2598346117,
			"-0.003": 26.9414872749,
			"-0.002": 24.726799244,
			"-0.001": 23.7866280803,
			"0.0": 17.8283600807,
			"0.001": 21.5680679979,
			"0.002": 29.4370043813,
			"0.003": 12.1299581605,
			"0.004": 11.5266889985,
			"0.005": 10.544786011,
			"0.006": 10.1249717573,
			"0.007": 4.18993382324,
			"0.008": 4.24821305839,
			"0.009": 4.61122364522,
			"0.01": 5.86039949604,
			"0.011": 5.19261694313,
			"0.012": 2.31645109501,
			"0.013": 0.263452839733,
			"0.014": 0.0,
			"0.015": 0.0,
			"0.016": 0.0,
			"0.017": 0.0,
			"0.018": 0.0,
			"0.019": 0.0,
			"0.02": 0.0,
			"0.021": 0.0,
			"0.022": 0.0,
			"0.023": 0.0,
			"0.024": 0.0,
			"0.025": 0.0
		}
	}
}
