{
	 "smiles": "COC1=CC=C(CC#N)C=C1Br", 
	 "Tm": 325.15, 
	 "num_atms": 20, 
	 "gaussian": { 
		 "optdone": 1, 
		 "sigma_profile": "yes", 
		 "theory": "DFT", 
		 "functional": "B3LYP", 
		 "basiset": "6-31G**", 
		 "properties": { 
			 "R2extent": 5238.0069, 
			 "electric_dipole_moment_norm": 2.04507986641, 
			 "electric_quadrupole_moment_norm": 23.8223845037, 
			 "total_energy": -3049.12197394, 
			 "HOMO_LUMO_gap": 0.21964, 
			 "cosmo_polarized_energy": -11.9, 
			 "cosmo_cavitation_energy": 27.46, 
			 "cosmo_dispersion_energy": -19.64, 
			 "cosmo_repulsion_energy": 1.57, 
			 "cosmo_total_nonelectrostatic_energy": 9.4, 
			 "SMD_solvation_energy": 5.71 
		},
		"coords": [
			{
				"x": -0.0519869696,
				"y": 1.710628369,
				"z": -2.8262863703,
				"element": "C" 
			},
			{
				"x": 0.8668141205,
				"y": 0.6144861972,
				"z": -2.8916871916,
				"element": "O" 
			},
			{
				"x": 0.6576421582,
				"y": -0.3729458698,
				"z": -1.967127716,
				"element": "C" 
			},
			{
				"x": 1.3394497576,
				"y": -0.3376899461,
				"z": -0.747346924,
				"element": "C" 
			},
			{
				"x": 1.1887159725,
				"y": -1.357095174,
				"z": 0.1903115864,
				"element": "C" 
			},
			{
				"x": 0.3430959536,
				"y": -2.438304829,
				"z": -0.0746917827,
				"element": "C" 
			},
			{
				"x": 0.1847410219,
				"y": -3.6022925189,
				"z": 0.8975898501,
				"element": "C" 
			},
			{
				"x": 0.444411859,
				"y": -3.254011492,
				"z": 2.2972079349,
				"element": "C" 
			},
			{
				"x": 0.6626634968,
				"y": -2.9758916454,
				"z": 3.4024472716,
				"element": "N" 
			},
			{
				"x": -0.345221207,
				"y": -2.4817307516,
				"z": -1.2913282511,
				"element": "C" 
			},
			{
				"x": -0.1885996858,
				"y": -1.4610113089,
				"z": -2.2260065549,
				"element": "C" 
			},
			{
				"x": -1.1293889155,
				"y": -1.560888777,
				"z": -3.8810571039,
				"element": "Br" 
			},
			{
				"x": 0.2557739882,
				"y": 2.413086656,
				"z": -3.6025779298,
				"element": "H" 
			},
			{
				"x": -1.0787018199,
				"y": 1.3809078466,
				"z": -3.0210395645,
				"element": "H" 
			},
			{
				"x": -0.0068172995,
				"y": 2.2045601722,
				"z": -1.8475529381,
				"element": "H" 
			},
			{
				"x": 2.0001426142,
				"y": 0.5017777441,
				"z": -0.5551665371,
				"element": "H" 
			},
			{
				"x": 1.724441996,
				"y": -1.3056251869,
				"z": 1.1331342631,
				"element": "H" 
			},
			{
				"x": 0.8673782501,
				"y": -4.4192076344,
				"z": 0.626024659,
				"element": "H" 
			},
			{
				"x": -0.8283667017,
				"y": -4.0147425854,
				"z": 0.8304809439,
				"element": "H" 
			},
			{
				"x": -1.0066885898,
				"y": -3.3110092656,
				"z": -1.5206276449,
				"element": "H" 
			}
		],
		 "valence_orbital": [ 
			{
				"type": "occ",
				"energy": -0.3203,
				"method": "rhf"
			},
			{
				"type": "occ",
				"energy": -0.29362,
				"method": "rhf"
			},
			{
				"type": "occ",
				"energy": -0.2845,
				"method": "rhf"
			},
			{
				"type": "occ",
				"energy": -0.2642,
				"method": "rhf"
			},
			{
				"type": "occ",
				"energy": -0.24813,
				"method": "rhf"
			},
			{
				"type": "unocc",
				"energy": -0.02849,
				"method": "rhf"
			},
			{
				"type": "unocc",
				"energy": -0.0228,
				"method": "rhf"
			},
			{
				"type": "unocc",
				"energy": -0.0034,
				"method": "rhf"
			},
			{
				"type": "unocc",
				"energy": 0.02952,
				"method": "rhf"
			},
			{
				"type": "unocc",
				"energy": 0.03483,
				"method": "rhf"
			}
		],
		"cosmo_sigma_profile": { 
			"-0.025": 0.0,
			"-0.024": 0.0,
			"-0.023": 0.0,
			"-0.022": 0.0,
			"-0.021": 0.0,
			"-0.02": 0.0,
			"-0.019": 0.0,
			"-0.018": 0.0,
			"-0.017": 0.0,
			"-0.016": 0.0,
			"-0.015": 0.0,
			"-0.014": 0.0,
			"-0.013": 0.0,
			"-0.012": 0.0,
			"-0.011": 0.0,
			"-0.01": 0.527018099082,
			"-0.009": 6.69732996907,
			"-0.008": 6.86125923688,
			"-0.007": 8.34378429409,
			"-0.006": 11.5501345992,
			"-0.005": 13.0831606021,
			"-0.004": 16.5195301371,
			"-0.003": 18.0923502895,
			"-0.002": 15.1728028318,
			"-0.001": 12.0352179106,
			"0.0": 12.2284783197,
			"0.001": 14.1629848726,
			"0.002": 20.2815406832,
			"0.003": 17.3106601563,
			"0.004": 12.4356020524,
			"0.005": 6.85226242621,
			"0.006": 4.57672861379,
			"0.007": 3.83491638154,
			"0.008": 5.17979431316,
			"0.009": 4.25078784109,
			"0.01": 4.73957043076,
			"0.011": 4.5034449363,
			"0.012": 2.52722879207,
			"0.013": 1.64829557477,
			"0.014": 0.0683135565057,
			"0.015": 0.0,
			"0.016": 0.0,
			"0.017": 0.0,
			"0.018": 0.0,
			"0.019": 0.0,
			"0.02": 0.0,
			"0.021": 0.0,
			"0.022": 0.0,
			"0.023": 0.0,
			"0.024": 0.0,
			"0.025": 0.0
		}
	}
}
