{
	 "smiles": "CC(=O)NC1=CC(Br)=C(N)C=C1", 
	 "Tm": 353.15, 
	 "num_atms": 21, 
	 "gaussian": { 
		 "optdone": 1, 
		 "sigma_profile": "yes", 
		 "theory": "DFT", 
		 "functional": "B3LYP", 
		 "basiset": "6-31G**", 
		 "properties": { 
			 "R2extent": 4808.2014, 
			 "electric_dipole_moment_norm": 4.69430533839, 
			 "electric_quadrupole_moment_norm": 14.2638817112, 
			 "total_energy": -3066.42623264, 
			 "HOMO_LUMO_gap": 0.1871, 
			 "cosmo_polarized_energy": -14.83, 
			 "cosmo_cavitation_energy": 27.4, 
			 "cosmo_dispersion_energy": -20.36, 
			 "cosmo_repulsion_energy": 1.64, 
			 "cosmo_total_nonelectrostatic_energy": 8.68, 
			 "SMD_solvation_energy": 4.45 
		},
		"coords": [
			{
				"x": -0.8348760248,
				"y": 1.5041276655,
				"z": 3.0892333636,
				"element": "C" 
			},
			{
				"x": 0.4882136008,
				"y": 0.7836774995,
				"z": 3.2802558551,
				"element": "C" 
			},
			{
				"x": 0.957207355,
				"y": 0.5658220921,
				"z": 4.3882443786,
				"element": "O" 
			},
			{
				"x": 1.1684424127,
				"y": 0.3704604465,
				"z": 2.1490577602,
				"element": "N" 
			},
			{
				"x": 0.8287351648,
				"y": 0.5164837511,
				"z": 0.7785882297,
				"element": "C" 
			},
			{
				"x": 1.7422738883,
				"y": 1.1141024084,
				"z": -0.0975948564,
				"element": "C" 
			},
			{
				"x": 1.4487322984,
				"y": 1.2255057179,
				"z": -1.451523831,
				"element": "C" 
			},
			{
				"x": 2.739159311,
				"y": 2.0513508405,
				"z": -2.6052976369,
				"element": "Br" 
			},
			{
				"x": 0.2313972306,
				"y": 0.7703151527,
				"z": -1.9941508589,
				"element": "C" 
			},
			{
				"x": -0.0506287825,
				"y": 0.8376600009,
				"z": -3.3472988036,
				"element": "N" 
			},
			{
				"x": -0.6760939839,
				"y": 0.1805343817,
				"z": -1.0928388376,
				"element": "C" 
			},
			{
				"x": -0.3803415468,
				"y": 0.0378369179,
				"z": 0.2567246559,
				"element": "C" 
			},
			{
				"x": -0.9978980155,
				"y": 2.1263898268,
				"z": 3.9698393537,
				"element": "H" 
			},
			{
				"x": -0.8617291782,
				"y": 2.1150388785,
				"z": 2.1842681907,
				"element": "H" 
			},
			{
				"x": -1.6544922889,
				"y": 0.7798743835,
				"z": 3.0331477081,
				"element": "H" 
			},
			{
				"x": 2.0734474025,
				"y": -0.0264771391,
				"z": 2.3713169082,
				"element": "H" 
			},
			{
				"x": 2.6812734374,
				"y": 1.5018998036,
				"z": 0.2815595161,
				"element": "H" 
			},
			{
				"x": 0.4982544416,
				"y": 1.4974626716,
				"z": -3.8805474603,
				"element": "H" 
			},
			{
				"x": -1.0284643571,
				"y": 0.8214488311,
				"z": -3.596306245,
				"element": "H" 
			},
			{
				"x": -1.6185251027,
				"y": -0.1994968706,
				"z": -1.4783115919,
				"element": "H" 
			},
			{
				"x": -1.0874872626,
				"y": -0.4606172601,
				"z": 0.9109342018,
				"element": "H" 
			}
		],
		 "valence_orbital": [ 
			{
				"type": "occ",
				"energy": -0.30003,
				"method": "rhf"
			},
			{
				"type": "occ",
				"energy": -0.26644,
				"method": "rhf"
			},
			{
				"type": "occ",
				"energy": -0.25441,
				"method": "rhf"
			},
			{
				"type": "occ",
				"energy": -0.24674,
				"method": "rhf"
			},
			{
				"type": "occ",
				"energy": -0.20861,
				"method": "rhf"
			},
			{
				"type": "unocc",
				"energy": -0.02151,
				"method": "rhf"
			},
			{
				"type": "unocc",
				"energy": -0.00827,
				"method": "rhf"
			},
			{
				"type": "unocc",
				"energy": -0.00081,
				"method": "rhf"
			},
			{
				"type": "unocc",
				"energy": 0.03551,
				"method": "rhf"
			},
			{
				"type": "unocc",
				"energy": 0.07666,
				"method": "rhf"
			}
		],
		"cosmo_sigma_profile": { 
			"-0.025": 0.0,
			"-0.024": 0.0,
			"-0.023": 0.0,
			"-0.022": 0.0,
			"-0.021": 0.0,
			"-0.02": 0.0,
			"-0.019": 0.0,
			"-0.018": 0.0,
			"-0.017": 0.0,
			"-0.016": 0.0,
			"-0.015": 0.0,
			"-0.014": 0.5414792439,
			"-0.013": 2.07655380912,
			"-0.012": 2.7800084594,
			"-0.011": 3.63596714005,
			"-0.01": 3.16178765778,
			"-0.009": 3.26294801821,
			"-0.008": 4.29638984444,
			"-0.007": 8.59226450079,
			"-0.006": 9.60057915542,
			"-0.005": 11.6266308503,
			"-0.004": 11.2881949897,
			"-0.003": 12.3961950195,
			"-0.002": 16.1786672278,
			"-0.001": 16.3414034031,
			"0.0": 13.5311727559,
			"0.001": 13.7110780281,
			"0.002": 14.8516437549,
			"0.003": 20.528189276,
			"0.004": 19.0019571937,
			"0.005": 7.85824339143,
			"0.006": 1.48948541123,
			"0.007": 2.13448229128,
			"0.008": 2.54109952928,
			"0.009": 1.30133165178,
			"0.01": 2.21124706325,
			"0.011": 1.83001220741,
			"0.012": 2.87957585139,
			"0.013": 4.0657412,
			"0.014": 5.3526441615,
			"0.015": 1.61362336398,
			"0.016": 0.0187999383289,
			"0.017": 0.0,
			"0.018": 0.0,
			"0.019": 0.0,
			"0.02": 0.0,
			"0.021": 0.0,
			"0.022": 0.0,
			"0.023": 0.0,
			"0.024": 0.0,
			"0.025": 0.0
		}
	}
}
