{
	 "smiles": "SC1=NNC=N1", 
	 "Tm": 495.15, 
	 "num_atms": 9, 
	 "gaussian": { 
		 "optdone": 1, 
		 "sigma_profile": "yes", 
		 "theory": "DFT", 
		 "functional": "B3LYP", 
		 "basiset": "6-31G**", 
		 "properties": { 
			 "R2extent": 1138.4503, 
			 "electric_dipole_moment_norm": 3.40330089619, 
			 "electric_quadrupole_moment_norm": 10.6151732299, 
			 "total_energy": -640.434921927, 
			 "HOMO_LUMO_gap": 0.22995, 
			 "cosmo_polarized_energy": -12.94, 
			 "cosmo_cavitation_energy": 15.18, 
			 "cosmo_dispersion_energy": -12.28, 
			 "cosmo_repulsion_energy": 1.01, 
			 "cosmo_total_nonelectrostatic_energy": 3.91, 
			 "SMD_solvation_energy": 0.02 
		},
		"coords": [
			{
				"x": 0.864065025,
				"y": 3.0604659566,
				"z": 1.3138286596,
				"element": "S" 
			},
			{
				"x": 0.0164192744,
				"y": 1.7521075169,
				"z": 0.4776225842,
				"element": "C" 
			},
			{
				"x": -1.1364110569,
				"y": 1.9722429721,
				"z": -0.1400266545,
				"element": "N" 
			},
			{
				"x": -1.4207491402,
				"y": 0.7339443032,
				"z": -0.6284483539,
				"element": "N" 
			},
			{
				"x": -0.452659275,
				"y": -0.1410676432,
				"z": -0.2893857442,
				"element": "C" 
			},
			{
				"x": 0.4834863341,
				"y": 0.4687367902,
				"z": 0.4171272114,
				"element": "N" 
			},
			{
				"x": 1.879982774,
				"y": 2.2688726408,
				"z": 1.704440412,
				"element": "H" 
			},
			{
				"x": -2.2651785431,
				"y": 0.587251861,
				"z": -1.1608482215,
				"element": "H" 
			},
			{
				"x": -0.4648553923,
				"y": -1.1856543977,
				"z": -0.5682098931,
				"element": "H" 
			}
		],
		 "valence_orbital": [ 
			{
				"type": "occ",
				"energy": -0.33559,
				"method": "rhf"
			},
			{
				"type": "occ",
				"energy": -0.32677,
				"method": "rhf"
			},
			{
				"type": "occ",
				"energy": -0.29594,
				"method": "rhf"
			},
			{
				"type": "occ",
				"energy": -0.28791,
				"method": "rhf"
			},
			{
				"type": "occ",
				"energy": -0.23129,
				"method": "rhf"
			},
			{
				"type": "unocc",
				"energy": -0.00134,
				"method": "rhf"
			},
			{
				"type": "unocc",
				"energy": 0.02157,
				"method": "rhf"
			},
			{
				"type": "unocc",
				"energy": 0.04767,
				"method": "rhf"
			},
			{
				"type": "unocc",
				"energy": 0.06169,
				"method": "rhf"
			},
			{
				"type": "unocc",
				"energy": 0.08857,
				"method": "rhf"
			}
		],
		"cosmo_sigma_profile": { 
			"-0.025": 0.0,
			"-0.024": 0.0,
			"-0.023": 0.0,
			"-0.022": 0.0,
			"-0.021": 0.0,
			"-0.02": 0.0,
			"-0.019": 0.0,
			"-0.018": 1.13389008753,
			"-0.017": 1.89076628352,
			"-0.016": 1.10905506519,
			"-0.015": 1.17618011678,
			"-0.014": 1.14372418159,
			"-0.013": 1.43370369319,
			"-0.012": 1.01311704158,
			"-0.011": 4.42384586441,
			"-0.01": 4.47718528468,
			"-0.009": 3.23304743339,
			"-0.008": 3.76790246966,
			"-0.007": 2.65439512033,
			"-0.006": 3.00996485879,
			"-0.005": 3.56522570993,
			"-0.004": 2.86586682707,
			"-0.003": 3.09107661059,
			"-0.002": 3.94254804988,
			"-0.001": 5.78313700341,
			"0.0": 6.25046526906,
			"0.001": 7.79886597933,
			"0.002": 9.32461024234,
			"0.003": 9.42461109315,
			"0.004": 8.70769188987,
			"0.005": 6.49645846694,
			"0.006": 5.30339934689,
			"0.007": 3.97616080696,
			"0.008": 4.30323067212,
			"0.009": 2.1411783426,
			"0.01": 2.28275474854,
			"0.011": 1.83421355368,
			"0.012": 2.2706343029,
			"0.013": 2.08443917506,
			"0.014": 1.62289188293,
			"0.015": 0.857603235259,
			"0.016": 0.246530353836,
			"0.017": 0.0,
			"0.018": 0.0,
			"0.019": 0.0,
			"0.02": 0.0,
			"0.021": 0.0,
			"0.022": 0.0,
			"0.023": 0.0,
			"0.024": 0.0,
			"0.025": 0.0
		}
	}
}
