{
	 "smiles": "CC(C)(C)C1=NC(C#N)=C(NN)O1", 
	 "Tm": 438.15, 
	 "num_atms": 25, 
	 "gaussian": { 
		 "optdone": 1, 
		 "sigma_profile": "yes", 
		 "theory": "DFT", 
		 "functional": "B3LYP", 
		 "basiset": "6-31G**", 
		 "properties": { 
			 "R2extent": 3357.9445, 
			 "electric_dipole_moment_norm": 6.2656830713, 
			 "electric_quadrupole_moment_norm": 19.9324242191, 
			 "total_energy": -606.258877503, 
			 "HOMO_LUMO_gap": 0.20339, 
			 "cosmo_polarized_energy": -16.79, 
			 "cosmo_cavitation_energy": 29.86, 
			 "cosmo_dispersion_energy": -20.12, 
			 "cosmo_repulsion_energy": 1.63, 
			 "cosmo_total_nonelectrostatic_energy": 11.37, 
			 "SMD_solvation_energy": 5.98 
		},
		"coords": [
			{
				"x": 0.2822852291,
				"y": -2.7068310946,
				"z": 0.2504808416,
				"element": "C" 
			},
			{
				"x": 1.1286310388,
				"y": -1.5321986127,
				"z": -0.2706373026,
				"element": "C" 
			},
			{
				"x": 0.6919094551,
				"y": -1.1612441166,
				"z": -1.7076346642,
				"element": "C" 
			},
			{
				"x": 2.6272097633,
				"y": -1.9161071637,
				"z": -0.2671680364,
				"element": "C" 
			},
			{
				"x": 0.9157886076,
				"y": -0.3481819122,
				"z": 0.6345932774,
				"element": "C" 
			},
			{
				"x": 0.1735742872,
				"y": -0.2201772272,
				"z": 1.6780111104,
				"element": "N" 
			},
			{
				"x": 0.3455795205,
				"y": 1.1028400548,
				"z": 2.1045581875,
				"element": "C" 
			},
			{
				"x": -0.3054898338,
				"y": 1.6880726887,
				"z": 3.2150562634,
				"element": "C" 
			},
			{
				"x": -0.8158529283,
				"y": 2.2254808771,
				"z": 4.1147656805,
				"element": "N" 
			},
			{
				"x": 1.2389661836,
				"y": 1.7216112408,
				"z": 1.2561787127,
				"element": "C" 
			},
			{
				"x": 1.8238854412,
				"y": 2.9552544941,
				"z": 1.2365291966,
				"element": "N" 
			},
			{
				"x": 2.294957134,
				"y": 3.5277137962,
				"z": 0.0339254321,
				"element": "N" 
			},
			{
				"x": 1.6111760172,
				"y": 0.8239940958,
				"z": 0.3139647722,
				"element": "O" 
			},
			{
				"x": -0.7810805704,
				"y": -2.45436925,
				"z": 0.2615402074,
				"element": "H" 
			},
			{
				"x": 0.4276163406,
				"y": -3.5773529659,
				"z": -0.3969756242,
				"element": "H" 
			},
			{
				"x": 0.568651825,
				"y": -2.9791914755,
				"z": 1.2695168847,
				"element": "H" 
			},
			{
				"x": 1.269781338,
				"y": -0.316860994,
				"z": -2.095162531,
				"element": "H" 
			},
			{
				"x": -0.3693733854,
				"y": -0.8953522911,
				"z": -1.7400937063,
				"element": "H" 
			},
			{
				"x": 0.8489764859,
				"y": -2.0142972477,
				"z": -2.3756066998,
				"element": "H" 
			},
			{
				"x": 2.9596009257,
				"y": -2.1932595706,
				"z": 0.7380915155,
				"element": "H" 
			},
			{
				"x": 2.7929661594,
				"y": -2.7727436032,
				"z": -0.9284998693,
				"element": "H" 
			},
			{
				"x": 3.2520276337,
				"y": -1.0896898936,
				"z": -0.6185674575,
				"element": "H" 
			},
			{
				"x": 1.423296665,
				"y": 3.6323979651,
				"z": 1.8722814955,
				"element": "H" 
			},
			{
				"x": 1.6556593844,
				"y": 3.3162635074,
				"z": -0.7322162298,
				"element": "H" 
			},
			{
				"x": 3.1929572825,
				"y": 3.1056286987,
				"z": -0.1869314566,
				"element": "H" 
			}
		],
		 "valence_orbital": [ 
			{
				"type": "occ",
				"energy": -0.3285,
				"method": "rhf"
			},
			{
				"type": "occ",
				"energy": -0.31482,
				"method": "rhf"
			},
			{
				"type": "occ",
				"energy": -0.30913,
				"method": "rhf"
			},
			{
				"type": "occ",
				"energy": -0.28969,
				"method": "rhf"
			},
			{
				"type": "occ",
				"energy": -0.21894,
				"method": "rhf"
			},
			{
				"type": "unocc",
				"energy": -0.01555,
				"method": "rhf"
			},
			{
				"type": "unocc",
				"energy": 0.0065,
				"method": "rhf"
			},
			{
				"type": "unocc",
				"energy": 0.02348,
				"method": "rhf"
			},
			{
				"type": "unocc",
				"energy": 0.05653,
				"method": "rhf"
			},
			{
				"type": "unocc",
				"energy": 0.07925,
				"method": "rhf"
			}
		],
		"cosmo_sigma_profile": { 
			"-0.025": 0.0,
			"-0.024": 0.0,
			"-0.023": 0.0,
			"-0.022": 0.0,
			"-0.021": 0.0,
			"-0.02": 0.0,
			"-0.019": 0.0,
			"-0.018": 0.0,
			"-0.017": 0.0,
			"-0.016": 0.00241107667545,
			"-0.015": 0.650179468771,
			"-0.014": 1.09446102225,
			"-0.013": 1.07081304752,
			"-0.012": 3.65116362764,
			"-0.011": 3.80420260501,
			"-0.01": 4.65320166063,
			"-0.009": 4.56413527032,
			"-0.008": 2.35067651432,
			"-0.007": 3.62984334312,
			"-0.006": 4.26833578827,
			"-0.005": 2.98403063235,
			"-0.004": 11.8322256255,
			"-0.003": 26.7807525586,
			"-0.002": 23.983491705,
			"-0.001": 22.1116550326,
			"0.0": 28.9836040852,
			"0.001": 21.628636646,
			"0.002": 9.87490957941,
			"0.003": 6.69872771643,
			"0.004": 5.62646536415,
			"0.005": 5.33781911482,
			"0.006": 4.98489014118,
			"0.007": 4.64555290498,
			"0.008": 4.85853218825,
			"0.009": 5.42330015441,
			"0.01": 5.30280717087,
			"0.011": 4.18499984337,
			"0.012": 4.61305978654,
			"0.013": 3.24950416677,
			"0.014": 1.62255700008,
			"0.015": 0.742805518153,
			"0.016": 0.173992122825,
			"0.017": 0.0,
			"0.018": 0.0,
			"0.019": 0.0,
			"0.02": 0.0,
			"0.021": 0.0,
			"0.022": 0.0,
			"0.023": 0.0,
			"0.024": 0.0,
			"0.025": 0.0
		}
	}
}
