{
	 "smiles": "NC1=C(C=CC=C1)C1=CC=CN=C1", 
	 "Tm": 345.15, 
	 "num_atms": 23, 
	 "gaussian": { 
		 "optdone": 1, 
		 "sigma_profile": "yes", 
		 "theory": "DFT", 
		 "functional": "B3LYP", 
		 "basiset": "6-31G**", 
		 "properties": { 
			 "R2extent": 2701.1016, 
			 "electric_dipole_moment_norm": 2.58938874254, 
			 "electric_quadrupole_moment_norm": 11.3178904788, 
			 "total_energy": -534.702269203, 
			 "HOMO_LUMO_gap": 0.1731, 
			 "cosmo_polarized_energy": -10.39, 
			 "cosmo_cavitation_energy": 26.53, 
			 "cosmo_dispersion_energy": -19.63, 
			 "cosmo_repulsion_energy": 1.54, 
			 "cosmo_total_nonelectrostatic_energy": 8.44, 
			 "SMD_solvation_energy": 2.94 
		},
		"coords": [
			{
				"x": 1.8574579742,
				"y": 0.4065302981,
				"z": -0.9629875072,
				"element": "N" 
			},
			{
				"x": 0.7231368878,
				"y": 0.4465794177,
				"z": -1.7806531116,
				"element": "C" 
			},
			{
				"x": -0.5597893251,
				"y": 0.0999056976,
				"z": -1.2846992868,
				"element": "C" 
			},
			{
				"x": -1.6589300355,
				"y": 0.1773140849,
				"z": -2.1542445876,
				"element": "C" 
			},
			{
				"x": -1.5276755338,
				"y": 0.5964495768,
				"z": -3.4760579515,
				"element": "C" 
			},
			{
				"x": -0.2630356324,
				"y": 0.9480506564,
				"z": -3.9510908069,
				"element": "C" 
			},
			{
				"x": 0.8458800287,
				"y": 0.8705162411,
				"z": -3.1146826747,
				"element": "C" 
			},
			{
				"x": -0.7679788482,
				"y": -0.3538528629,
				"z": 0.1152588528,
				"element": "C" 
			},
			{
				"x": -0.2665405221,
				"y": 0.3440927601,
				"z": 1.2264422358,
				"element": "C" 
			},
			{
				"x": -0.5413730663,
				"y": -0.1236433533,
				"z": 2.5096732641,
				"element": "C" 
			},
			{
				"x": -1.3139694412,
				"y": -1.2765540628,
				"z": 2.6523006338,
				"element": "C" 
			},
			{
				"x": -1.8021063629,
				"y": -1.9653159789,
				"z": 1.6127689337,
				"element": "N" 
			},
			{
				"x": -1.5263577373,
				"y": -1.5079436127,
				"z": 0.3880683511,
				"element": "C" 
			},
			{
				"x": 2.7302195979,
				"y": 0.3437903046,
				"z": -1.4698779449,
				"element": "H" 
			},
			{
				"x": 1.8156535572,
				"y": -0.263422405,
				"z": -0.2061870777,
				"element": "H" 
			},
			{
				"x": -2.6405428821,
				"y": -0.0798001651,
				"z": -1.7660858176,
				"element": "H" 
			},
			{
				"x": -2.3987226531,
				"y": 0.6550736963,
				"z": -4.1207597356,
				"element": "H" 
			},
			{
				"x": -0.1353343735,
				"y": 1.2801958214,
				"z": -4.9775777949,
				"element": "H" 
			},
			{
				"x": 1.8306543988,
				"y": 1.1367327325,
				"z": -3.4919355323,
				"element": "H" 
			},
			{
				"x": 0.3196013475,
				"y": 1.2461729414,
				"z": 1.079985396,
				"element": "H" 
			},
			{
				"x": -0.1724254305,
				"y": 0.4016787766,
				"z": 3.3854704524,
				"element": "H" 
			},
			{
				"x": -1.5504303131,
				"y": -1.6654515405,
				"z": 3.6412789149,
				"element": "H" 
			},
			{
				"x": -1.920591635,
				"y": -2.0929990242,
				"z": -0.4415072054,
				"element": "H" 
			}
		],
		 "valence_orbital": [ 
			{
				"type": "occ",
				"energy": -0.28901,
				"method": "rhf"
			},
			{
				"type": "occ",
				"energy": -0.27015,
				"method": "rhf"
			},
			{
				"type": "occ",
				"energy": -0.25151,
				"method": "rhf"
			},
			{
				"type": "occ",
				"energy": -0.23668,
				"method": "rhf"
			},
			{
				"type": "occ",
				"energy": -0.2032,
				"method": "rhf"
			},
			{
				"type": "unocc",
				"energy": -0.0301,
				"method": "rhf"
			},
			{
				"type": "unocc",
				"energy": -0.01922,
				"method": "rhf"
			},
			{
				"type": "unocc",
				"energy": 0.00852,
				"method": "rhf"
			},
			{
				"type": "unocc",
				"energy": 0.02283,
				"method": "rhf"
			},
			{
				"type": "unocc",
				"energy": 0.08747,
				"method": "rhf"
			}
		],
		"cosmo_sigma_profile": { 
			"-0.025": 0.0,
			"-0.024": 0.0,
			"-0.023": 0.0,
			"-0.022": 0.0,
			"-0.021": 0.0,
			"-0.02": 0.0,
			"-0.019": 0.0,
			"-0.018": 0.0,
			"-0.017": 0.0,
			"-0.016": 0.0,
			"-0.015": 0.0,
			"-0.014": 0.0,
			"-0.013": 0.198254249985,
			"-0.012": 1.20464279373,
			"-0.011": 2.59864330601,
			"-0.01": 2.22836469211,
			"-0.009": 3.31496833946,
			"-0.008": 2.36114865786,
			"-0.007": 3.77172222144,
			"-0.006": 10.6983756157,
			"-0.005": 16.5496954428,
			"-0.004": 17.2059882906,
			"-0.003": 15.9034389433,
			"-0.002": 13.6450090629,
			"-0.001": 12.5579382608,
			"0.0": 11.6216463876,
			"0.001": 15.4934863302,
			"0.002": 17.3317471907,
			"0.003": 15.6151780227,
			"0.004": 9.69423423445,
			"0.005": 10.5714395588,
			"0.006": 10.5560044839,
			"0.007": 5.83422022847,
			"0.008": 2.36047058944,
			"0.009": 2.00234426015,
			"0.01": 1.73736290874,
			"0.011": 1.23069393339,
			"0.012": 1.20411217095,
			"0.013": 1.7008934826,
			"0.014": 1.10104540519,
			"0.015": 0.826071149752,
			"0.016": 0.730036289125,
			"0.017": 0.432831618996,
			"0.018": 0.0,
			"0.019": 0.0,
			"0.02": 0.0,
			"0.021": 0.0,
			"0.022": 0.0,
			"0.023": 0.0,
			"0.024": 0.0,
			"0.025": 0.0
		}
	}
}
