{
	 "smiles": "CN(CCCC(O)=O)C1=NS(=O)(=O)C2=C1C=CC=C2", 
	 "Tm": 433.15, 
	 "num_atms": 33, 
	 "gaussian": { 
		 "optdone": 1, 
		 "sigma_profile": "yes", 
		 "theory": "DFT", 
		 "functional": "B3LYP", 
		 "basiset": "6-31G**", 
		 "properties": { 
			 "R2extent": 5078.1579, 
			 "electric_dipole_moment_norm": 8.51796950981, 
			 "electric_quadrupole_moment_norm": 37.2846956522, 
			 "total_energy": -1274.22947174, 
			 "HOMO_LUMO_gap": 0.1636, 
			 "cosmo_polarized_energy": -26.91, 
			 "cosmo_cavitation_energy": 36.25, 
			 "cosmo_dispersion_energy": -25.86, 
			 "cosmo_repulsion_energy": 1.92, 
			 "cosmo_total_nonelectrostatic_energy": 12.31, 
			 "SMD_solvation_energy": 4.35 
		},
		"coords": [
			{
				"x": -3.0427387662,
				"y": -0.7288268677,
				"z": 0.191050289,
				"element": "C" 
			},
			{
				"x": -1.599500054,
				"y": -0.9698145018,
				"z": 0.0728691827,
				"element": "N" 
			},
			{
				"x": -1.1294452781,
				"y": -1.3826383008,
				"z": -1.2782808362,
				"element": "C" 
			},
			{
				"x": -0.3847039142,
				"y": -0.2842263123,
				"z": -2.0598690008,
				"element": "C" 
			},
			{
				"x": -1.1192859014,
				"y": 1.0729506398,
				"z": -2.1451792224,
				"element": "C" 
			},
			{
				"x": -0.183042369,
				"y": 2.1193454703,
				"z": -2.7499278261,
				"element": "C" 
			},
			{
				"x": 0.395208074,
				"y": 2.9927624972,
				"z": -1.9026519084,
				"element": "O" 
			},
			{
				"x": 0.0784559695,
				"y": 2.1380415881,
				"z": -3.9308020222,
				"element": "O" 
			},
			{
				"x": -0.7934064562,
				"y": -0.1633343477,
				"z": 0.8230498963,
				"element": "C" 
			},
			{
				"x": -1.2827525452,
				"y": 0.9000193771,
				"z": 1.4106707671,
				"element": "N" 
			},
			{
				"x": -0.0263400513,
				"y": 1.8582603578,
				"z": 1.9967909034,
				"element": "S" 
			},
			{
				"x": -0.1606094982,
				"y": 2.1558152976,
				"z": 3.4191254634,
				"element": "O" 
			},
			{
				"x": 0.1211067461,
				"y": 2.9747146655,
				"z": 1.0415546506,
				"element": "O" 
			},
			{
				"x": 1.2566706014,
				"y": 0.6374823217,
				"z": 1.7005151117,
				"element": "C" 
			},
			{
				"x": 0.6674482538,
				"y": -0.4330167628,
				"z": 1.026826878,
				"element": "C" 
			},
			{
				"x": 1.4338382272,
				"y": -1.5667153909,
				"z": 0.7500129441,
				"element": "C" 
			},
			{
				"x": 2.7816674331,
				"y": -1.5720860546,
				"z": 1.1231311452,
				"element": "C" 
			},
			{
				"x": 3.3570978004,
				"y": -0.4747977873,
				"z": 1.7718194892,
				"element": "C" 
			},
			{
				"x": 2.5879630448,
				"y": 0.6531072071,
				"z": 2.0809907589,
				"element": "C" 
			},
			{
				"x": -3.3014912387,
				"y": -0.6016845862,
				"z": 1.242270528,
				"element": "H" 
			},
			{
				"x": -3.5692133881,
				"y": -1.5988962133,
				"z": -0.2076524387,
				"element": "H" 
			},
			{
				"x": -3.3650983111,
				"y": 0.1700841432,
				"z": -0.3484819898,
				"element": "H" 
			},
			{
				"x": -0.4994091186,
				"y": -2.2750651817,
				"z": -1.2093183568,
				"element": "H" 
			},
			{
				"x": -2.0285356714,
				"y": -1.6849101959,
				"z": -1.8209906794,
				"element": "H" 
			},
			{
				"x": 0.5999510358,
				"y": -0.1288850521,
				"z": -1.606997306,
				"element": "H" 
			},
			{
				"x": -0.1941710786,
				"y": -0.6499040603,
				"z": -3.0746417235,
				"element": "H" 
			},
			{
				"x": -1.9865841486,
				"y": 0.9879150073,
				"z": -2.8069753126,
				"element": "H" 
			},
			{
				"x": -1.473630832,
				"y": 1.3933210896,
				"z": -1.1623837158,
				"element": "H" 
			},
			{
				"x": 0.1152911086,
				"y": 2.8949740379,
				"z": -0.9718704131,
				"element": "H" 
			},
			{
				"x": 0.9996679773,
				"y": -2.438973659,
				"z": 0.2758705758,
				"element": "H" 
			},
			{
				"x": 3.3875057904,
				"y": -2.447952213,
				"z": 0.9132692293,
				"element": "H" 
			},
			{
				"x": 4.4052754656,
				"y": -0.5036643998,
				"z": 2.0523939958,
				"element": "H" 
			},
			{
				"x": 3.0129110927,
				"y": 1.4998981866,
				"z": 2.6094109431,
				"element": "H" 
			}
		],
		 "valence_orbital": [ 
			{
				"type": "occ",
				"energy": -0.2958,
				"method": "rhf"
			},
			{
				"type": "occ",
				"energy": -0.29282,
				"method": "rhf"
			},
			{
				"type": "occ",
				"energy": -0.28718,
				"method": "rhf"
			},
			{
				"type": "occ",
				"energy": -0.26221,
				"method": "rhf"
			},
			{
				"type": "occ",
				"energy": -0.25343,
				"method": "rhf"
			},
			{
				"type": "unocc",
				"energy": -0.08983,
				"method": "rhf"
			},
			{
				"type": "unocc",
				"energy": -0.05493,
				"method": "rhf"
			},
			{
				"type": "unocc",
				"energy": 0.0032,
				"method": "rhf"
			},
			{
				"type": "unocc",
				"energy": 0.02002,
				"method": "rhf"
			},
			{
				"type": "unocc",
				"energy": 0.04028,
				"method": "rhf"
			}
		],
		"cosmo_sigma_profile": { 
			"-0.025": 0.0,
			"-0.024": 0.0,
			"-0.023": 0.0,
			"-0.022": 0.0,
			"-0.021": 0.0,
			"-0.02": 0.0,
			"-0.019": 0.0,
			"-0.018": 0.0,
			"-0.017": 0.0,
			"-0.016": 0.0,
			"-0.015": 0.0,
			"-0.014": 0.0127132515541,
			"-0.013": 0.64042614056,
			"-0.012": 0.714202312321,
			"-0.011": 0.640106465559,
			"-0.01": 1.22300109107,
			"-0.009": 4.84285756644,
			"-0.008": 9.12886397301,
			"-0.007": 16.1548569985,
			"-0.006": 20.0213753312,
			"-0.005": 26.9143358405,
			"-0.004": 25.7749230444,
			"-0.003": 23.0881642021,
			"-0.002": 17.7644967829,
			"-0.001": 15.1994035233,
			"0.0": 15.7709082377,
			"0.001": 17.6438406791,
			"0.002": 10.3932267116,
			"0.003": 6.02002904838,
			"0.004": 5.29096947856,
			"0.005": 5.32293668321,
			"0.006": 6.37470009888,
			"0.007": 6.38901961709,
			"0.008": 7.9337759556,
			"0.009": 8.04249685174,
			"0.01": 13.1062506211,
			"0.011": 11.952021184,
			"0.012": 6.6787957563,
			"0.013": 4.57374125671,
			"0.014": 0.987138847493,
			"0.015": 0.0,
			"0.016": 0.0,
			"0.017": 0.0,
			"0.018": 0.0,
			"0.019": 0.0,
			"0.02": 0.0,
			"0.021": 0.0,
			"0.022": 0.0,
			"0.023": 0.0,
			"0.024": 0.0,
			"0.025": 0.0
		}
	}
}
