{
	 "smiles": "COC1=CC=CC=C1N=NC1=C2NC(=O)C=C(N2N=C1N)C(F)(F)F", 
	 "Tm": 568.15, 
	 "num_atms": 36, 
	 "gaussian": { 
		 "optdone": 1, 
		 "sigma_profile": "yes", 
		 "theory": "DFT", 
		 "functional": "B3LYP", 
		 "basiset": "6-31G**", 
		 "properties": { 
			 "R2extent": 10451.5972, 
			 "electric_dipole_moment_norm": 5.87187478834, 
			 "electric_quadrupole_moment_norm": 16.8447492602, 
			 "total_energy": -1318.50700748, 
			 "HOMO_LUMO_gap": 0.13682, 
			 "cosmo_polarized_energy": -21.26, 
			 "cosmo_cavitation_energy": 42.73, 
			 "cosmo_dispersion_energy": -29.85, 
			 "cosmo_repulsion_energy": 2.2, 
			 "cosmo_total_nonelectrostatic_energy": 15.08, 
			 "SMD_solvation_energy": 7.26 
		},
		"coords": [
			{
				"x": -1.9567643578,
				"y": 3.1183636453,
				"z": -4.2002267345,
				"element": "C" 
			},
			{
				"x": -1.9382915667,
				"y": 2.2874922805,
				"z": -3.0486044668,
				"element": "O" 
			},
			{
				"x": -1.99858481,
				"y": 2.8750679713,
				"z": -1.8270566802,
				"element": "C" 
			},
			{
				"x": -2.0005192635,
				"y": 4.2546760253,
				"z": -1.6004031186,
				"element": "C" 
			},
			{
				"x": -2.0640461028,
				"y": 4.7546179686,
				"z": -0.2941658745,
				"element": "C" 
			},
			{
				"x": -2.1165023996,
				"y": 3.8873725733,
				"z": 0.7944701187,
				"element": "C" 
			},
			{
				"x": -2.096586885,
				"y": 2.5063942242,
				"z": 0.5759194083,
				"element": "C" 
			},
			{
				"x": -2.0289087858,
				"y": 1.985863091,
				"z": -0.723081565,
				"element": "C" 
			},
			{
				"x": -2.240124258,
				"y": 0.6041638977,
				"z": -0.977474001,
				"element": "N" 
			},
			{
				"x": -1.5492548939,
				"y": -0.3163169131,
				"z": -0.4723471549,
				"element": "N" 
			},
			{
				"x": -0.3501414948,
				"y": -0.2254826254,
				"z": 0.2320055115,
				"element": "C" 
			},
			{
				"x": 0.0716275177,
				"y": -1.4162266164,
				"z": 0.8325599223,
				"element": "C" 
			},
			{
				"x": -0.5115447901,
				"y": -2.6377230019,
				"z": 0.9365518829,
				"element": "N" 
			},
			{
				"x": 0.0779455066,
				"y": -3.7362353726,
				"z": 1.5930836055,
				"element": "C" 
			},
			{
				"x": -0.4844814954,
				"y": -4.8174390966,
				"z": 1.6420282085,
				"element": "O" 
			},
			{
				"x": 1.385621858,
				"y": -3.4278674273,
				"z": 2.1814928492,
				"element": "C" 
			},
			{
				"x": 1.9568876902,
				"y": -2.2031290246,
				"z": 2.0656177867,
				"element": "C" 
			},
			{
				"x": 1.2960803679,
				"y": -1.2061602756,
				"z": 1.3868094352,
				"element": "N" 
			},
			{
				"x": 1.7519206971,
				"y": 0.0807305625,
				"z": 1.1641468817,
				"element": "N" 
			},
			{
				"x": 0.7837130844,
				"y": 0.6676511906,
				"z": 0.4655676102,
				"element": "C" 
			},
			{
				"x": 0.9923183522,
				"y": 1.9259157689,
				"z": -0.0237277454,
				"element": "N" 
			},
			{
				"x": 3.3118027566,
				"y": -1.8675357694,
				"z": 2.6572481229,
				"element": "C" 
			},
			{
				"x": 4.1842815728,
				"y": -1.5065513579,
				"z": 1.7039488805,
				"element": "F" 
			},
			{
				"x": 3.2183931285,
				"y": -0.8668693179,
				"z": 3.5475108894,
				"element": "F" 
			},
			{
				"x": 3.8159741025,
				"y": -2.9419850606,
				"z": 3.2944288931,
				"element": "F" 
			},
			{
				"x": -1.9461286189,
				"y": 2.4418703441,
				"z": -5.0555224617,
				"element": "H" 
			},
			{
				"x": -1.0734583033,
				"y": 3.7683469552,
				"z": -4.2428192087,
				"element": "H" 
			},
			{
				"x": -2.8625362857,
				"y": 3.7363885847,
				"z": -4.2374154699,
				"element": "H" 
			},
			{
				"x": -1.9582473134,
				"y": 4.9455532788,
				"z": -2.4339379707,
				"element": "H" 
			},
			{
				"x": -2.0748968195,
				"y": 5.8291525093,
				"z": -0.138401087,
				"element": "H" 
			},
			{
				"x": -2.1796256534,
				"y": 4.2744276876,
				"z": 1.8064879221,
				"element": "H" 
			},
			{
				"x": -2.1593660772,
				"y": 1.8150136697,
				"z": 1.4107230051,
				"element": "H" 
			},
			{
				"x": -1.4082615566,
				"y": -2.7672903964,
				"z": 0.4791615572,
				"element": "H" 
			},
			{
				"x": 1.8882219356,
				"y": -4.222239872,
				"z": 2.7133739008,
				"element": "H" 
			},
			{
				"x": 0.1803161164,
				"y": 2.5171752395,
				"z": -0.1266349574,
				"element": "H" 
			},
			{
				"x": 1.8130670446,
				"y": 2.3792146595,
				"z": 0.3551821047,
				"element": "H" 
			}
		],
		 "valence_orbital": [ 
			{
				"type": "occ",
				"energy": -0.26961,
				"method": "rhf"
			},
			{
				"type": "occ",
				"energy": -0.24593,
				"method": "rhf"
			},
			{
				"type": "occ",
				"energy": -0.24178,
				"method": "rhf"
			},
			{
				"type": "occ",
				"energy": -0.22498,
				"method": "rhf"
			},
			{
				"type": "occ",
				"energy": -0.2099,
				"method": "rhf"
			},
			{
				"type": "unocc",
				"energy": -0.07308,
				"method": "rhf"
			},
			{
				"type": "unocc",
				"energy": -0.0604,
				"method": "rhf"
			},
			{
				"type": "unocc",
				"energy": -0.01411,
				"method": "rhf"
			},
			{
				"type": "unocc",
				"energy": -0.00122,
				"method": "rhf"
			},
			{
				"type": "unocc",
				"energy": 0.00279,
				"method": "rhf"
			}
		],
		"cosmo_sigma_profile": { 
			"-0.025": 0.0,
			"-0.024": 0.0,
			"-0.023": 0.0,
			"-0.022": 0.0,
			"-0.021": 0.0,
			"-0.02": 0.0,
			"-0.019": 0.0,
			"-0.018": 0.0,
			"-0.017": 0.0,
			"-0.016": 0.116143877618,
			"-0.015": 0.907559438915,
			"-0.014": 1.43963867772,
			"-0.013": 1.77432880043,
			"-0.012": 1.87803167164,
			"-0.011": 1.25681905888,
			"-0.01": 2.05331563981,
			"-0.009": 2.89526342487,
			"-0.008": 4.82435362071,
			"-0.007": 7.668705437,
			"-0.006": 19.54703321,
			"-0.005": 27.8264019629,
			"-0.004": 29.4243585238,
			"-0.003": 28.1776256752,
			"-0.002": 23.6221094655,
			"-0.001": 20.9965381235,
			"0.0": 19.577709575,
			"0.001": 26.0719309838,
			"0.002": 31.6207222282,
			"0.003": 16.3208118448,
			"0.004": 11.3921174514,
			"0.005": 10.4085673866,
			"0.006": 7.45664810769,
			"0.007": 5.54260033868,
			"0.008": 5.22396620297,
			"0.009": 6.09135916859,
			"0.01": 7.02276536371,
			"0.011": 6.46837734,
			"0.012": 8.0867843107,
			"0.013": 4.95731302653,
			"0.014": 1.71284686217,
			"0.015": 0.987928322488,
			"0.016": 0.0158065251854,
			"0.017": 0.0,
			"0.018": 0.0,
			"0.019": 0.0,
			"0.02": 0.0,
			"0.021": 0.0,
			"0.022": 0.0,
			"0.023": 0.0,
			"0.024": 0.0,
			"0.025": 0.0
		}
	}
}
