{
	 "smiles": "CCC1=CC(=CC=C1)C(C)=O", 
	 "Tm": 253.15, 
	 "num_atms": 23, 
	 "gaussian": { 
		 "optdone": 1, 
		 "sigma_profile": "yes", 
		 "theory": "DFT", 
		 "functional": "B3LYP", 
		 "basiset": "6-31G**", 
		 "properties": { 
			 "R2extent": 2181.3352, 
			 "electric_dipole_moment_norm": 2.86258757421, 
			 "electric_quadrupole_moment_norm": 10.1779900594, 
			 "total_energy": -463.536015803, 
			 "HOMO_LUMO_gap": 0.19288, 
			 "cosmo_polarized_energy": -7.77, 
			 "cosmo_cavitation_energy": 26.38, 
			 "cosmo_dispersion_energy": -18.87, 
			 "cosmo_repulsion_energy": 1.53, 
			 "cosmo_total_nonelectrostatic_energy": 9.04, 
			 "SMD_solvation_energy": 5.19 
		},
		"coords": [
			{
				"x": 0.5534752641,
				"y": -2.6306469847,
				"z": 2.0941987467,
				"element": "C" 
			},
			{
				"x": 1.4671394339,
				"y": -1.9267510344,
				"z": 1.0747001278,
				"element": "C" 
			},
			{
				"x": 1.0450296728,
				"y": -0.4990704607,
				"z": 0.7967420162,
				"element": "C" 
			},
			{
				"x": 0.1442938345,
				"y": -0.2031217312,
				"z": -0.2283113391,
				"element": "C" 
			},
			{
				"x": -0.2836336099,
				"y": 1.1103775699,
				"z": -0.4735270842,
				"element": "C" 
			},
			{
				"x": 0.2050207594,
				"y": 2.151066297,
				"z": 0.3297382857,
				"element": "C" 
			},
			{
				"x": 1.1064133142,
				"y": 1.871409549,
				"z": 1.3562825449,
				"element": "C" 
			},
			{
				"x": 1.5212773899,
				"y": 0.5595235999,
				"z": 1.586100597,
				"element": "C" 
			},
			{
				"x": -1.2496838765,
				"y": 1.338355724,
				"z": -1.5981900064,
				"element": "C" 
			},
			{
				"x": -1.7269585649,
				"y": 2.7537901689,
				"z": -1.8803219106,
				"element": "C" 
			},
			{
				"x": -1.6487533251,
				"y": 0.4042558592,
				"z": -2.2778624778,
				"element": "O" 
			},
			{
				"x": 0.8856876339,
				"y": -3.6585923507,
				"z": 2.272684614,
				"element": "H" 
			},
			{
				"x": -0.4800167805,
				"y": -2.664832494,
				"z": 1.7349291505,
				"element": "H" 
			},
			{
				"x": 0.5539782014,
				"y": -2.1023556892,
				"z": 3.053354995,
				"element": "H" 
			},
			{
				"x": 2.4989282987,
				"y": -1.9371558246,
				"z": 1.4462742914,
				"element": "H" 
			},
			{
				"x": 1.466872795,
				"y": -2.4946064336,
				"z": 0.1372360541,
				"element": "H" 
			},
			{
				"x": -0.2461621853,
				"y": -0.9888736315,
				"z": -0.8684692012,
				"element": "H" 
			},
			{
				"x": -0.1085907001,
				"y": 3.1754535781,
				"z": 0.1575583793,
				"element": "H" 
			},
			{
				"x": 1.4899274732,
				"y": 2.6772086846,
				"z": 1.9755717538,
				"element": "H" 
			},
			{
				"x": 2.2286762153,
				"y": 0.351963581,
				"z": 2.3858423086,
				"element": "H" 
			},
			{
				"x": -0.8851075928,
				"y": 3.4114673007,
				"z": -2.1234415669,
				"element": "H" 
			},
			{
				"x": -2.4196318567,
				"y": 2.7266020546,
				"z": -2.7218769573,
				"element": "H" 
			},
			{
				"x": -2.2321817945,
				"y": 3.1804326676,
				"z": -1.0068133215,
				"element": "H" 
			}
		],
		 "valence_orbital": [ 
			{
				"type": "occ",
				"energy": -0.33994,
				"method": "rhf"
			},
			{
				"type": "occ",
				"energy": -0.33331,
				"method": "rhf"
			},
			{
				"type": "occ",
				"energy": -0.25467,
				"method": "rhf"
			},
			{
				"type": "occ",
				"energy": -0.24925,
				"method": "rhf"
			},
			{
				"type": "occ",
				"energy": -0.24478,
				"method": "rhf"
			},
			{
				"type": "unocc",
				"energy": -0.0519,
				"method": "rhf"
			},
			{
				"type": "unocc",
				"energy": -0.00624,
				"method": "rhf"
			},
			{
				"type": "unocc",
				"energy": 0.04142,
				"method": "rhf"
			},
			{
				"type": "unocc",
				"energy": 0.08788,
				"method": "rhf"
			},
			{
				"type": "unocc",
				"energy": 0.10669,
				"method": "rhf"
			}
		],
		"cosmo_sigma_profile": { 
			"-0.025": 0.0,
			"-0.024": 0.0,
			"-0.023": 0.0,
			"-0.022": 0.0,
			"-0.021": 0.0,
			"-0.02": 0.0,
			"-0.019": 0.0,
			"-0.018": 0.0,
			"-0.017": 0.0,
			"-0.016": 0.0,
			"-0.015": 0.0,
			"-0.014": 0.0,
			"-0.013": 0.0,
			"-0.012": 0.0,
			"-0.011": 0.0,
			"-0.01": 0.0,
			"-0.009": 0.0,
			"-0.008": 0.0,
			"-0.007": 0.500984211453,
			"-0.006": 10.0846321452,
			"-0.005": 13.7236172754,
			"-0.004": 18.2495429605,
			"-0.003": 20.9244999222,
			"-0.002": 22.5062470878,
			"-0.001": 25.1423139946,
			"0.0": 19.7866616598,
			"0.001": 18.1073721301,
			"0.002": 11.8108226736,
			"0.003": 10.0459362769,
			"0.004": 12.3054671362,
			"0.005": 6.95652900236,
			"0.006": 2.30154130683,
			"0.007": 1.81936836626,
			"0.008": 0.69811849795,
			"0.009": 2.03745386325,
			"0.01": 1.82009744509,
			"0.011": 3.04686659002,
			"0.012": 4.06464616309,
			"0.013": 2.04615960853,
			"0.014": 0.321354343765,
			"0.015": 0.0,
			"0.016": 0.0,
			"0.017": 0.0,
			"0.018": 0.0,
			"0.019": 0.0,
			"0.02": 0.0,
			"0.021": 0.0,
			"0.022": 0.0,
			"0.023": 0.0,
			"0.024": 0.0,
			"0.025": 0.0
		}
	}
}
