{
	 "smiles": "CCCCCCCCCCCCCCCCCC(C)C", 
	 "Tm": 291.15, 
	 "num_atms": 62, 
	 "gaussian": { 
		 "optdone": 1, 
		 "sigma_profile": "yes", 
		 "theory": "DFT", 
		 "functional": "B3LYP", 
		 "basiset": "6-31G**", 
		 "properties": { 
			 "R2extent": 12007.1639, 
			 "electric_dipole_moment_norm": 0.130886095518, 
			 "electric_quadrupole_moment_norm": 0.833196693464, 
			 "total_energy": -787.499447106, 
			 "HOMO_LUMO_gap": 0.36754, 
			 "cosmo_polarized_energy": -1.3, 
			 "cosmo_cavitation_energy": 57.85, 
			 "cosmo_dispersion_energy": -37.73, 
			 "cosmo_repulsion_energy": 3.08, 
			 "cosmo_total_nonelectrostatic_energy": 23.19, 
			 "SMD_solvation_energy": 7.55 
		},
		"coords": [
			{
				"x": -3.7238568208,
				"y": 3.2923994575,
				"z": -1.0302269062,
				"element": "C" 
			},
			{
				"x": -4.5014304626,
				"y": 2.2600438716,
				"z": -0.2047336027,
				"element": "C" 
			},
			{
				"x": -4.0373152189,
				"y": 2.126410912,
				"z": 1.2561223285,
				"element": "C" 
			},
			{
				"x": -2.6228389212,
				"y": 1.5513816973,
				"z": 1.4235194805,
				"element": "C" 
			},
			{
				"x": -2.1437400988,
				"y": 1.4520430536,
				"z": 2.8831263328,
				"element": "C" 
			},
			{
				"x": -2.9536010941,
				"y": 0.5174456809,
				"z": 3.8009285317,
				"element": "C" 
			},
			{
				"x": -3.0269917609,
				"y": -0.9733433263,
				"z": 3.4153776888,
				"element": "C" 
			},
			{
				"x": -1.7040325851,
				"y": -1.7670901538,
				"z": 3.4866797936,
				"element": "C" 
			},
			{
				"x": -0.8498316688,
				"y": -1.7668095542,
				"z": 2.2088565421,
				"element": "C" 
			},
			{
				"x": 0.4138272316,
				"y": -2.6299688202,
				"z": 2.3395159514,
				"element": "C" 
			},
			{
				"x": 1.3307666289,
				"y": -2.6250271721,
				"z": 1.1045633604,
				"element": "C" 
			},
			{
				"x": 0.7223969927,
				"y": -3.2971079936,
				"z": -0.1380786433,
				"element": "C" 
			},
			{
				"x": 1.6668284972,
				"y": -3.4299153276,
				"z": -1.3531937127,
				"element": "C" 
			},
			{
				"x": 1.673903791,
				"y": -2.250283755,
				"z": -2.3461569241,
				"element": "C" 
			},
			{
				"x": 2.2167169091,
				"y": -0.8981174431,
				"z": -1.852001821,
				"element": "C" 
			},
			{
				"x": 3.6953595794,
				"y": -0.9165135439,
				"z": -1.4320123374,
				"element": "C" 
			},
			{
				"x": 4.271393683,
				"y": 0.4668215297,
				"z": -1.0471037539,
				"element": "C" 
			},
			{
				"x": 5.0755998963,
				"y": 1.1936579305,
				"z": -2.1459916137,
				"element": "C" 
			},
			{
				"x": 4.2551271419,
				"y": 1.4853909508,
				"z": -3.4109846511,
				"element": "C" 
			},
			{
				"x": 5.687725109,
				"y": 2.4890785752,
				"z": -1.592020284,
				"element": "C" 
			},
			{
				"x": -4.1343181013,
				"y": 3.377125617,
				"z": -2.0419673371,
				"element": "H" 
			},
			{
				"x": -2.6661955203,
				"y": 3.0274479839,
				"z": -1.12830612,
				"element": "H" 
			},
			{
				"x": -3.7745980581,
				"y": 4.2851869533,
				"z": -0.5676512248,
				"element": "H" 
			},
			{
				"x": -5.5649985085,
				"y": 2.5312775778,
				"z": -0.2107107498,
				"element": "H" 
			},
			{
				"x": -4.4379023973,
				"y": 1.2781689489,
				"z": -0.6940913461,
				"element": "H" 
			},
			{
				"x": -4.7545408366,
				"y": 1.490007096,
				"z": 1.7894674692,
				"element": "H" 
			},
			{
				"x": -4.0870242458,
				"y": 3.1120882768,
				"z": 1.7422013725,
				"element": "H" 
			},
			{
				"x": -1.9080732173,
				"y": 2.1783548746,
				"z": 0.8759825272,
				"element": "H" 
			},
			{
				"x": -2.5792226003,
				"y": 0.5629743638,
				"z": 0.9463681435,
				"element": "H" 
			},
			{
				"x": -1.0900794862,
				"y": 1.1470628818,
				"z": 2.8906173487,
				"element": "H" 
			},
			{
				"x": -2.1613100229,
				"y": 2.4584027822,
				"z": 3.3246444859,
				"element": "H" 
			},
			{
				"x": -3.9797999435,
				"y": 0.8987510333,
				"z": 3.8808934176,
				"element": "H" 
			},
			{
				"x": -2.5349544692,
				"y": 0.5888532041,
				"z": 4.8143768451,
				"element": "H" 
			},
			{
				"x": -3.4659011616,
				"y": -1.0858175405,
				"z": 2.414612184,
				"element": "H" 
			},
			{
				"x": -3.7440265636,
				"y": -1.4416897475,
				"z": 4.1015896661,
				"element": "H" 
			},
			{
				"x": -1.9383456762,
				"y": -2.8128083656,
				"z": 3.7282146783,
				"element": "H" 
			},
			{
				"x": -1.1029477692,
				"y": -1.3972471852,
				"z": 4.3301176728,
				"element": "H" 
			},
			{
				"x": -1.4659606355,
				"y": -2.1308181516,
				"z": 1.3759930618,
				"element": "H" 
			},
			{
				"x": -0.5554588624,
				"y": -0.7436176758,
				"z": 1.9441690141,
				"element": "H" 
			},
			{
				"x": 0.9899578149,
				"y": -2.279105244,
				"z": 3.206771378,
				"element": "H" 
			},
			{
				"x": 0.1227750801,
				"y": -3.6653483433,
				"z": 2.5700624822,
				"element": "H" 
			},
			{
				"x": 1.6193243075,
				"y": -1.5909176779,
				"z": 0.878781932,
				"element": "H" 
			},
			{
				"x": 2.2621115428,
				"y": -3.1496089808,
				"z": 1.3586521064,
				"element": "H" 
			},
			{
				"x": -0.1875313372,
				"y": -2.7667971376,
				"z": -0.4493049433,
				"element": "H" 
			},
			{
				"x": 0.3932404993,
				"y": -4.3024666931,
				"z": 0.1592316097,
				"element": "H" 
			},
			{
				"x": 1.3677160997,
				"y": -4.3189001206,
				"z": -1.92296949,
				"element": "H" 
			},
			{
				"x": 2.6865458491,
				"y": -3.6381693155,
				"z": -1.002466312,
				"element": "H" 
			},
			{
				"x": 0.6464407172,
				"y": -2.1014645617,
				"z": -2.7063613253,
				"element": "H" 
			},
			{
				"x": 2.2576294303,
				"y": -2.5525075137,
				"z": -3.2273113077,
				"element": "H" 
			},
			{
				"x": 1.6105287672,
				"y": -0.5327583326,
				"z": -1.0127977944,
				"element": "H" 
			},
			{
				"x": 2.0757876577,
				"y": -0.1641766605,
				"z": -2.6547352582,
				"element": "H" 
			},
			{
				"x": 3.8097629512,
				"y": -1.5977423865,
				"z": -0.5810057128,
				"element": "H" 
			},
			{
				"x": 4.2982085652,
				"y": -1.3532771208,
				"z": -2.2415172075,
				"element": "H" 
			},
			{
				"x": 4.9344159951,
				"y": 0.3504563084,
				"z": -0.1803209576,
				"element": "H" 
			},
			{
				"x": 3.4555135698,
				"y": 1.1229359113,
				"z": -0.7091047246,
				"element": "H" 
			},
			{
				"x": 5.9043258345,
				"y": 0.5285751048,
				"z": -2.4338827505,
				"element": "H" 
			},
			{
				"x": 4.8636199385,
				"y": 2.0079107234,
				"z": -4.1576489599,
				"element": "H" 
			},
			{
				"x": 3.8795649023,
				"y": 0.5695212823,
				"z": -3.8773281455,
				"element": "H" 
			},
			{
				"x": 3.3928238062,
				"y": 2.1238487565,
				"z": -3.1818588496,
				"element": "H" 
			},
			{
				"x": 6.3101210501,
				"y": 2.9884863457,
				"z": -2.3426603239,
				"element": "H" 
			},
			{
				"x": 4.9035444252,
				"y": 3.194526821,
				"z": -1.2902782025,
				"element": "H" 
			},
			{
				"x": 6.3132237804,
				"y": 2.2935793385,
				"z": -0.7139541114,
				"element": "H" 
			}
		],
		 "valence_orbital": [ 
			{
				"type": "occ",
				"energy": -0.30132,
				"method": "rhf"
			},
			{
				"type": "occ",
				"energy": -0.29915,
				"method": "rhf"
			},
			{
				"type": "occ",
				"energy": -0.29555,
				"method": "rhf"
			},
			{
				"type": "occ",
				"energy": -0.29425,
				"method": "rhf"
			},
			{
				"type": "occ",
				"energy": -0.28945,
				"method": "rhf"
			},
			{
				"type": "unocc",
				"energy": 0.07809,
				"method": "rhf"
			},
			{
				"type": "unocc",
				"energy": 0.08037,
				"method": "rhf"
			},
			{
				"type": "unocc",
				"energy": 0.09215,
				"method": "rhf"
			},
			{
				"type": "unocc",
				"energy": 0.09725,
				"method": "rhf"
			},
			{
				"type": "unocc",
				"energy": 0.10173,
				"method": "rhf"
			}
		],
		"cosmo_sigma_profile": { 
			"-0.025": 0.0,
			"-0.024": 0.0,
			"-0.023": 0.0,
			"-0.022": 0.0,
			"-0.021": 0.0,
			"-0.02": 0.0,
			"-0.019": 0.0,
			"-0.018": 0.0,
			"-0.017": 0.0,
			"-0.016": 0.0,
			"-0.015": 0.0,
			"-0.014": 0.0,
			"-0.013": 0.0,
			"-0.012": 0.0,
			"-0.011": 0.0,
			"-0.01": 0.0,
			"-0.009": 0.0,
			"-0.008": 0.0,
			"-0.007": 0.0,
			"-0.006": 0.0,
			"-0.005": 0.0,
			"-0.004": 0.0,
			"-0.003": 2.64729801982,
			"-0.002": 45.8749751347,
			"-0.001": 112.675067563,
			"0.0": 122.050715332,
			"0.001": 102.726121741,
			"0.002": 52.6965293612,
			"0.003": 1.92534198329,
			"0.004": 0.0,
			"0.005": 0.0,
			"0.006": 0.0,
			"0.007": 0.0,
			"0.008": 0.0,
			"0.009": 0.0,
			"0.01": 0.0,
			"0.011": 0.0,
			"0.012": 0.0,
			"0.013": 0.0,
			"0.014": 0.0,
			"0.015": 0.0,
			"0.016": 0.0,
			"0.017": 0.0,
			"0.018": 0.0,
			"0.019": 0.0,
			"0.02": 0.0,
			"0.021": 0.0,
			"0.022": 0.0,
			"0.023": 0.0,
			"0.024": 0.0,
			"0.025": 0.0
		}
	}
}
