{
	 "smiles": "COC1=C(Br)C=C(C=C1)C(=O)NN", 
	 "Tm": 411.15, 
	 "num_atms": 22, 
	 "gaussian": { 
		 "optdone": 1, 
		 "sigma_profile": "yes", 
		 "theory": "DFT", 
		 "functional": "B3LYP", 
		 "basiset": "6-31G**", 
		 "properties": { 
			 "R2extent": 3993.7866, 
			 "electric_dipole_moment_norm": 3.45005358944, 
			 "electric_quadrupole_moment_norm": 18.084880526, 
			 "total_energy": -3141.59045553, 
			 "HOMO_LUMO_gap": 0.19369, 
			 "cosmo_polarized_energy": -16.08, 
			 "cosmo_cavitation_energy": 28.67, 
			 "cosmo_dispersion_energy": -21.17, 
			 "cosmo_repulsion_energy": 1.7, 
			 "cosmo_total_nonelectrostatic_energy": 9.2, 
			 "SMD_solvation_energy": 5.72 
		},
		"coords": [
			{
				"x": 1.902783319,
				"y": -2.2395988906,
				"z": 2.2767695348,
				"element": "C" 
			},
			{
				"x": 1.6585710399,
				"y": -1.3296777745,
				"z": 1.2109187035,
				"element": "O" 
			},
			{
				"x": 0.5167192289,
				"y": -0.6054778957,
				"z": 1.224053878,
				"element": "C" 
			},
			{
				"x": 0.3182424376,
				"y": 0.3019016665,
				"z": 0.1643873542,
				"element": "C" 
			},
			{
				"x": 1.6508268477,
				"y": 0.4797090838,
				"z": -1.1868202292,
				"element": "Br" 
			},
			{
				"x": -0.8316360861,
				"y": 1.0750985254,
				"z": 0.0914350405,
				"element": "C" 
			},
			{
				"x": -1.8233294834,
				"y": 0.9748488238,
				"z": 1.0795402017,
				"element": "C" 
			},
			{
				"x": -1.6138131172,
				"y": 0.0972903548,
				"z": 2.1484768942,
				"element": "C" 
			},
			{
				"x": -0.4701420174,
				"y": -0.692420214,
				"z": 2.2175182056,
				"element": "C" 
			},
			{
				"x": -3.0568253145,
				"y": 1.826633491,
				"z": 1.1192564023,
				"element": "C" 
			},
			{
				"x": -3.5508145463,
				"y": 2.179520977,
				"z": 2.1849431056,
				"element": "O" 
			},
			{
				"x": -3.6332714609,
				"y": 2.2262742802,
				"z": -0.0732323364,
				"element": "N" 
			},
			{
				"x": -3.5860658394,
				"y": 1.5254323464,
				"z": -1.299583553,
				"element": "N" 
			},
			{
				"x": 2.8678840332,
				"y": -2.6972974896,
				"z": 2.0579793351,
				"element": "H" 
			},
			{
				"x": 1.1330580415,
				"y": -3.0194374447,
				"z": 2.3236705394,
				"element": "H" 
			},
			{
				"x": 1.9561758983,
				"y": -1.7219969165,
				"z": 3.2420295525,
				"element": "H" 
			},
			{
				"x": -0.9272415961,
				"y": 1.7810154052,
				"z": -0.7240604158,
				"element": "H" 
			},
			{
				"x": -2.3610749371,
				"y": 0.0494522314,
				"z": 2.9330564562,
				"element": "H" 
			},
			{
				"x": -0.3423738419,
				"y": -1.3715329553,
				"z": 3.0517753732,
				"element": "H" 
			},
			{
				"x": -4.5161990594,
				"y": 2.700632082,
				"z": 0.0782539829,
				"element": "H" 
			},
			{
				"x": -3.4796034424,
				"y": 0.5276266987,
				"z": -1.133998948,
				"element": "H" 
			},
			{
				"x": -2.7917701041,
				"y": 1.8415036145,
				"z": -1.8479690773,
				"element": "H" 
			}
		],
		 "valence_orbital": [ 
			{
				"type": "occ",
				"energy": -0.28773,
				"method": "rhf"
			},
			{
				"type": "occ",
				"energy": -0.26189,
				"method": "rhf"
			},
			{
				"type": "occ",
				"energy": -0.25319,
				"method": "rhf"
			},
			{
				"type": "occ",
				"energy": -0.25058,
				"method": "rhf"
			},
			{
				"type": "occ",
				"energy": -0.23183,
				"method": "rhf"
			},
			{
				"type": "unocc",
				"energy": -0.03814,
				"method": "rhf"
			},
			{
				"type": "unocc",
				"energy": -0.02317,
				"method": "rhf"
			},
			{
				"type": "unocc",
				"energy": 0.00244,
				"method": "rhf"
			},
			{
				"type": "unocc",
				"energy": 0.04699,
				"method": "rhf"
			},
			{
				"type": "unocc",
				"energy": 0.07154,
				"method": "rhf"
			}
		],
		"cosmo_sigma_profile": { 
			"-0.025": 0.0,
			"-0.024": 0.0,
			"-0.023": 0.0,
			"-0.022": 0.0,
			"-0.021": 0.0,
			"-0.02": 0.0,
			"-0.019": 0.0,
			"-0.018": 0.0,
			"-0.017": 0.0,
			"-0.016": 0.0,
			"-0.015": 0.0,
			"-0.014": 0.0361233300004,
			"-0.013": 1.06393557177,
			"-0.012": 3.07491483745,
			"-0.011": 3.88835355442,
			"-0.01": 4.00956822971,
			"-0.009": 3.94234395337,
			"-0.008": 3.76271538422,
			"-0.007": 8.13100319274,
			"-0.006": 16.2060310291,
			"-0.005": 13.6782278255,
			"-0.004": 16.0360990908,
			"-0.003": 13.0938851464,
			"-0.002": 10.9739531115,
			"-0.001": 11.8749701656,
			"0.0": 11.8768033165,
			"0.001": 16.0785162724,
			"0.002": 19.294713745,
			"0.003": 15.0818522336,
			"0.004": 14.5073811224,
			"0.005": 9.60347114008,
			"0.006": 4.87851547112,
			"0.007": 4.65737704671,
			"0.008": 3.57341220369,
			"0.009": 3.42450408326,
			"0.01": 2.58411961187,
			"0.011": 2.69520253275,
			"0.012": 3.08673151667,
			"0.013": 5.631061688,
			"0.014": 3.45402408383,
			"0.015": 0.527162303529,
			"0.016": 0.434539147074,
			"0.017": 0.0,
			"0.018": 0.0,
			"0.019": 0.0,
			"0.02": 0.0,
			"0.021": 0.0,
			"0.022": 0.0,
			"0.023": 0.0,
			"0.024": 0.0,
			"0.025": 0.0
		}
	}
}
