{
	 "smiles": "CC1=C(C(C)=NN1)S(=O)(=O)N1CCOCC1", 
	 "Tm": 355.65, 
	 "num_atms": 31, 
	 "gaussian": { 
		 "optdone": 1, 
		 "sigma_profile": "yes", 
		 "theory": "DFT", 
		 "functional": "B3LYP", 
		 "basiset": "6-31G**", 
		 "properties": { 
			 "R2extent": 3893.0918, 
			 "electric_dipole_moment_norm": 4.80442573571, 
			 "electric_quadrupole_moment_norm": 15.054721378, 
			 "total_energy": -1140.01862629, 
			 "HOMO_LUMO_gap": 0.24117, 
			 "cosmo_polarized_energy": -19.45, 
			 "cosmo_cavitation_energy": 34.01, 
			 "cosmo_dispersion_energy": -24.22, 
			 "cosmo_repulsion_energy": 1.84, 
			 "cosmo_total_nonelectrostatic_energy": 11.63, 
			 "SMD_solvation_energy": 3.58 
		},
		"coords": [
			{
				"x": -2.9470486729,
				"y": 1.2923840288,
				"z": 0.6506078606,
				"element": "C" 
			},
			{
				"x": -1.6101136384,
				"y": 1.7293673568,
				"z": 1.1499529852,
				"element": "C" 
			},
			{
				"x": -0.4188835529,
				"y": 1.0336619035,
				"z": 1.3513812057,
				"element": "C" 
			},
			{
				"x": 0.523206599,
				"y": 1.9828368807,
				"z": 1.8540910497,
				"element": "C" 
			},
			{
				"x": 1.9497371722,
				"y": 1.7926795977,
				"z": 2.2648045134,
				"element": "C" 
			},
			{
				"x": -0.0469638674,
				"y": 3.1808532547,
				"z": 1.9442766795,
				"element": "N" 
			},
			{
				"x": -1.3228549154,
				"y": 2.9965501173,
				"z": 1.513488729,
				"element": "N" 
			},
			{
				"x": -0.2195181408,
				"y": -0.6922360668,
				"z": 1.110024582,
				"element": "S" 
			},
			{
				"x": -1.3886090112,
				"y": -1.4073820153,
				"z": 1.6374863885,
				"element": "O" 
			},
			{
				"x": 1.1315670281,
				"y": -1.0534736675,
				"z": 1.5629051932,
				"element": "O" 
			},
			{
				"x": -0.3500187713,
				"y": -0.8198277238,
				"z": -0.5928934853,
				"element": "N" 
			},
			{
				"x": -0.7313011932,
				"y": -2.1688088779,
				"z": -1.0651435151,
				"element": "C" 
			},
			{
				"x": -1.0196752354,
				"y": -2.0760989349,
				"z": -2.5618954474,
				"element": "C" 
			},
			{
				"x": 0.101653744,
				"y": -1.5799354496,
				"z": -3.2794324275,
				"element": "O" 
			},
			{
				"x": 0.4723775758,
				"y": -0.289711626,
				"z": -2.8203155477,
				"element": "C" 
			},
			{
				"x": 0.81779743,
				"y": -0.3017738068,
				"z": -1.330778408,
				"element": "C" 
			},
			{
				"x": -2.8690376947,
				"y": 0.9316750153,
				"z": -0.3798321551,
				"element": "H" 
			},
			{
				"x": -3.669046975,
				"y": 2.113204006,
				"z": 0.6814627165,
				"element": "H" 
			},
			{
				"x": -3.3226571997,
				"y": 0.4631558653,
				"z": 1.2556746759,
				"element": "H" 
			},
			{
				"x": 2.0315408523,
				"y": 1.0596632095,
				"z": 3.0714412241,
				"element": "H" 
			},
			{
				"x": 2.3544291759,
				"y": 2.7496666222,
				"z": 2.6000719257,
				"element": "H" 
			},
			{
				"x": 2.5578846061,
				"y": 1.415083066,
				"z": 1.4377131773,
				"element": "H" 
			},
			{
				"x": -1.952798198,
				"y": 3.7851027089,
				"z": 1.5069188993,
				"element": "H" 
			},
			{
				"x": 0.0760989817,
				"y": -2.8958006552,
				"z": -0.8913361202,
				"element": "H" 
			},
			{
				"x": -1.6190809486,
				"y": -2.492392094,
				"z": -0.5189560367,
				"element": "H" 
			},
			{
				"x": -1.2351724592,
				"y": -3.0693533743,
				"z": -2.9656718246,
				"element": "H" 
			},
			{
				"x": -1.8964860919,
				"y": -1.4288961916,
				"z": -2.7275864513,
				"element": "H" 
			},
			{
				"x": -0.3425689947,
				"y": 0.430357238,
				"z": -3.000862421,
				"element": "H" 
			},
			{
				"x": 1.3446073913,
				"y": 0.0137961549,
				"z": -3.406203097,
				"element": "H" 
			},
			{
				"x": 1.0306310666,
				"y": 0.7173693544,
				"z": -0.9933268765,
				"element": "H" 
			},
			{
				"x": 1.7071039377,
				"y": -0.9227158962,
				"z": -1.1538679921,
				"element": "H" 
			}
		],
		 "valence_orbital": [ 
			{
				"type": "occ",
				"energy": -0.29444,
				"method": "rhf"
			},
			{
				"type": "occ",
				"energy": -0.27707,
				"method": "rhf"
			},
			{
				"type": "occ",
				"energy": -0.26668,
				"method": "rhf"
			},
			{
				"type": "occ",
				"energy": -0.25845,
				"method": "rhf"
			},
			{
				"type": "occ",
				"energy": -0.24795,
				"method": "rhf"
			},
			{
				"type": "unocc",
				"energy": -0.00678,
				"method": "rhf"
			},
			{
				"type": "unocc",
				"energy": 0.02428,
				"method": "rhf"
			},
			{
				"type": "unocc",
				"energy": 0.05842,
				"method": "rhf"
			},
			{
				"type": "unocc",
				"energy": 0.07092,
				"method": "rhf"
			},
			{
				"type": "unocc",
				"energy": 0.0841,
				"method": "rhf"
			}
		],
		"cosmo_sigma_profile": { 
			"-0.025": 0.0,
			"-0.024": 0.0,
			"-0.023": 0.0,
			"-0.022": 0.0,
			"-0.021": 0.0,
			"-0.02": 0.0,
			"-0.019": 0.0,
			"-0.018": 0.00926799814739,
			"-0.017": 1.12244282197,
			"-0.016": 1.34840338149,
			"-0.015": 1.85174933591,
			"-0.014": 0.963403701513,
			"-0.013": 0.873405696876,
			"-0.012": 1.36187389279,
			"-0.011": 1.57072492796,
			"-0.01": 0.940195900521,
			"-0.009": 0.764695072774,
			"-0.008": 1.76709000723,
			"-0.007": 1.88488209102,
			"-0.006": 9.17261864983,
			"-0.005": 21.2425653874,
			"-0.004": 33.4121662454,
			"-0.003": 28.7245324968,
			"-0.002": 24.6423958122,
			"-0.001": 19.1971351094,
			"0.0": 17.2995504176,
			"0.001": 11.4862276016,
			"0.002": 11.8538396018,
			"0.003": 11.0286887507,
			"0.004": 7.70974827734,
			"0.005": 5.57473551902,
			"0.006": 5.66542333988,
			"0.007": 5.0132178725,
			"0.008": 5.87753394341,
			"0.009": 6.5399710172,
			"0.01": 7.22964313655,
			"0.011": 8.68297795225,
			"0.012": 7.9190793845,
			"0.013": 2.21933628901,
			"0.014": 0.908396928472,
			"0.015": 0.985881453163,
			"0.016": 0.0595925348512,
			"0.017": 0.0,
			"0.018": 0.0,
			"0.019": 0.0,
			"0.02": 0.0,
			"0.021": 0.0,
			"0.022": 0.0,
			"0.023": 0.0,
			"0.024": 0.0,
			"0.025": 0.0
		}
	}
}
