{
	 "smiles": "COC(=O)C1=C(C(=O)OC)[C@]2(CCl)C3=CC=CC=C3[C@H]1C1=CC=CC=C21", 
	 "Tm": 442.0, 
	 "num_atms": 43, 
	 "gaussian": { 
		 "optdone": 1, 
		 "sigma_profile": "yes", 
		 "theory": "DFT", 
		 "functional": "B3LYP", 
		 "basiset": "6-31G**", 
		 "properties": { 
			 "R2extent": 8806.6283, 
			 "electric_dipole_moment_norm": 3.35453750911, 
			 "electric_quadrupole_moment_norm": 10.5451539372, 
			 "total_energy": -1571.5591955, 
			 "HOMO_LUMO_gap": 0.16336, 
			 "cosmo_polarized_energy": -15.53, 
			 "cosmo_cavitation_energy": 47.11, 
			 "cosmo_dispersion_energy": -31.53, 
			 "cosmo_repulsion_energy": 2.41, 
			 "cosmo_total_nonelectrostatic_energy": 18.0, 
			 "SMD_solvation_energy": 9.94 
		},
		"coords": [
			{
				"x": -0.4702997437,
				"y": -0.9133079646,
				"z": -4.768719943,
				"element": "C" 
			},
			{
				"x": -0.2025104805,
				"y": -0.869018802,
				"z": -3.3577994099,
				"element": "O" 
			},
			{
				"x": -1.2255314931,
				"y": -0.4239066254,
				"z": -2.5927789803,
				"element": "C" 
			},
			{
				"x": -2.29959284,
				"y": -0.0821919308,
				"z": -3.0517021959,
				"element": "O" 
			},
			{
				"x": -0.8671176075,
				"y": -0.3983110135,
				"z": -1.15621824,
				"element": "C" 
			},
			{
				"x": -1.7569304035,
				"y": -0.1044909022,
				"z": -0.1913956483,
				"element": "C" 
			},
			{
				"x": -3.1925776036,
				"y": 0.2494946586,
				"z": -0.4335409616,
				"element": "C" 
			},
			{
				"x": -3.6313689055,
				"y": 1.372652173,
				"z": -0.2980653934,
				"element": "O" 
			},
			{
				"x": -3.930247548,
				"y": -0.8308677201,
				"z": -0.7309450995,
				"element": "O" 
			},
			{
				"x": -5.2992882145,
				"y": -0.5593643379,
				"z": -1.0855118708,
				"element": "C" 
			},
			{
				"x": -1.1565214079,
				"y": -0.0711193423,
				"z": 1.2478612403,
				"element": "C" 
			},
			{
				"x": -2.2499607463,
				"y": 0.2842556644,
				"z": 2.2579682233,
				"element": "C" 
			},
			{
				"x": -1.7169796776,
				"y": 0.3485472225,
				"z": 3.995762666,
				"element": "Cl" 
			},
			{
				"x": -0.5187408137,
				"y": -1.4724328331,
				"z": 1.4110293621,
				"element": "C" 
			},
			{
				"x": -0.796020324,
				"y": -2.4186653122,
				"z": 2.3935575109,
				"element": "C" 
			},
			{
				"x": -0.1252085302,
				"y": -3.6493990122,
				"z": 2.37346315,
				"element": "C" 
			},
			{
				"x": 0.8103659665,
				"y": -3.9318049547,
				"z": 1.381003001,
				"element": "C" 
			},
			{
				"x": 1.0795290727,
				"y": -2.9867224792,
				"z": 0.3831403402,
				"element": "C" 
			},
			{
				"x": 0.4101683987,
				"y": -1.7700795065,
				"z": 0.4010665451,
				"element": "C" 
			},
			{
				"x": 0.5497065314,
				"y": -0.6579726269,
				"z": -0.6329341228,
				"element": "C" 
			},
			{
				"x": 0.9378071512,
				"y": 0.597439083,
				"z": 0.1419394408,
				"element": "C" 
			},
			{
				"x": 2.0553317066,
				"y": 1.3871658945,
				"z": -0.0950038315,
				"element": "C" 
			},
			{
				"x": 2.2535601428,
				"y": 2.541367761,
				"z": 0.6729451135,
				"element": "C" 
			},
			{
				"x": 1.3315516675,
				"y": 2.8898531879,
				"z": 1.6571176487,
				"element": "C" 
			},
			{
				"x": 0.207321436,
				"y": 2.0884597337,
				"z": 1.8992163168,
				"element": "C" 
			},
			{
				"x": 0.0170082041,
				"y": 0.9331698248,
				"z": 1.1468427987,
				"element": "C" 
			},
			{
				"x": -1.3020769894,
				"y": -1.5898639376,
				"z": -4.9799434694,
				"element": "H" 
			},
			{
				"x": 0.4472307921,
				"y": -1.2772374279,
				"z": -5.2305986425,
				"element": "H" 
			},
			{
				"x": -0.7223041188,
				"y": 0.0820772176,
				"z": -5.142582237,
				"element": "H" 
			},
			{
				"x": -5.7657537521,
				"y": -1.5351520789,
				"z": -1.217296763,
				"element": "H" 
			},
			{
				"x": -5.3305880928,
				"y": 0.0105220394,
				"z": -2.0170392394,
				"element": "H" 
			},
			{
				"x": -5.799020013,
				"y": 0.0071473545,
				"z": -0.2965876867,
				"element": "H" 
			},
			{
				"x": -2.669420005,
				"y": 1.2630439955,
				"z": 2.0321277462,
				"element": "H" 
			},
			{
				"x": -3.0487098667,
				"y": -0.4579915052,
				"z": 2.2222267702,
				"element": "H" 
			},
			{
				"x": -1.5112931435,
				"y": -2.2145170258,
				"z": 3.1813537462,
				"element": "H" 
			},
			{
				"x": -0.3398723051,
				"y": -4.3850602126,
				"z": 3.143029889,
				"element": "H" 
			},
			{
				"x": 1.3266620376,
				"y": -4.8873685418,
				"z": 1.3745117376,
				"element": "H" 
			},
			{
				"x": 1.7963441733,
				"y": -3.2043428277,
				"z": -0.4041744192,
				"element": "H" 
			},
			{
				"x": 1.2491425448,
				"y": -0.9011661911,
				"z": -1.4309293484,
				"element": "H" 
			},
			{
				"x": 2.7610457147,
				"y": 1.115664463,
				"z": -0.8756457741,
				"element": "H" 
			},
			{
				"x": 3.1223267532,
				"y": 3.1680003743,
				"z": 0.4933918468,
				"element": "H" 
			},
			{
				"x": 1.4799005659,
				"y": 3.7899759166,
				"z": 2.2463384923,
				"element": "H" 
			},
			{
				"x": -0.4932682332,
				"y": 2.3730185481,
				"z": 2.675019691,
				"element": "H" 
			}
		],
		 "valence_orbital": [ 
			{
				"type": "occ",
				"energy": -0.26909,
				"method": "rhf"
			},
			{
				"type": "occ",
				"energy": -0.25319,
				"method": "rhf"
			},
			{
				"type": "occ",
				"energy": -0.24938,
				"method": "rhf"
			},
			{
				"type": "occ",
				"energy": -0.24754,
				"method": "rhf"
			},
			{
				"type": "occ",
				"energy": -0.22507,
				"method": "rhf"
			},
			{
				"type": "unocc",
				"energy": -0.06171,
				"method": "rhf"
			},
			{
				"type": "unocc",
				"energy": -0.01778,
				"method": "rhf"
			},
			{
				"type": "unocc",
				"energy": -0.00999,
				"method": "rhf"
			},
			{
				"type": "unocc",
				"energy": 0.00662,
				"method": "rhf"
			},
			{
				"type": "unocc",
				"energy": 0.01024,
				"method": "rhf"
			}
		],
		"cosmo_sigma_profile": { 
			"-0.025": 0.0,
			"-0.024": 0.0,
			"-0.023": 0.0,
			"-0.022": 0.0,
			"-0.021": 0.0,
			"-0.02": 0.0,
			"-0.019": 0.0,
			"-0.018": 0.0,
			"-0.017": 0.0,
			"-0.016": 0.0,
			"-0.015": 0.0,
			"-0.014": 0.0,
			"-0.013": 0.0,
			"-0.012": 0.0,
			"-0.011": 0.0,
			"-0.01": 0.0,
			"-0.009": 0.0863525470135,
			"-0.008": 1.44134353419,
			"-0.007": 8.14595819009,
			"-0.006": 27.9990457969,
			"-0.005": 33.2678911067,
			"-0.004": 40.2824506671,
			"-0.003": 33.8288093972,
			"-0.002": 22.0833877948,
			"-0.001": 19.9203910508,
			"0.0": 21.9568689722,
			"0.001": 20.5982294041,
			"0.002": 22.3500340816,
			"0.003": 27.8151878043,
			"0.004": 28.8194335473,
			"0.005": 31.4048447343,
			"0.006": 11.2458120568,
			"0.007": 5.94169415413,
			"0.008": 4.48248018276,
			"0.009": 4.36285059558,
			"0.01": 3.86375653461,
			"0.011": 6.55260593504,
			"0.012": 1.31501456155,
			"0.013": 0.0,
			"0.014": 0.0,
			"0.015": 0.0,
			"0.016": 0.0,
			"0.017": 0.0,
			"0.018": 0.0,
			"0.019": 0.0,
			"0.02": 0.0,
			"0.021": 0.0,
			"0.022": 0.0,
			"0.023": 0.0,
			"0.024": 0.0,
			"0.025": 0.0
		}
	}
}
