{
	 "smiles": "NS(=O)(=O)C1=C(C=CC=C1)C1=CC=CC=C1", 
	 "Tm": 390.15, 
	 "num_atms": 27, 
	 "gaussian": { 
		 "optdone": 1, 
		 "sigma_profile": "yes", 
		 "theory": "DFT", 
		 "functional": "B3LYP", 
		 "basiset": "6-31G**", 
		 "properties": { 
			 "R2extent": 4227.2951, 
			 "electric_dipole_moment_norm": 5.90028379317, 
			 "electric_quadrupole_moment_norm": 22.1310656933, 
			 "total_energy": -1067.22635182, 
			 "HOMO_LUMO_gap": 0.20522, 
			 "cosmo_polarized_energy": -16.97, 
			 "cosmo_cavitation_energy": 31.45, 
			 "cosmo_dispersion_energy": -23.09, 
			 "cosmo_repulsion_energy": 1.74, 
			 "cosmo_total_nonelectrostatic_energy": 10.09, 
			 "SMD_solvation_energy": 4.74 
		},
		"coords": [
			{
				"x": 0.1860935155,
				"y": 0.9374603365,
				"z": 3.0953833007,
				"element": "N" 
			},
			{
				"x": 1.7194402353,
				"y": 1.0953243075,
				"z": 2.4399511235,
				"element": "S" 
			},
			{
				"x": 2.2732880207,
				"y": 2.3182103308,
				"z": 3.0219866469,
				"element": "O" 
			},
			{
				"x": 2.3832673553,
				"y": -0.1974563301,
				"z": 2.611572425,
				"element": "O" 
			},
			{
				"x": 1.5234672994,
				"y": 1.4100859127,
				"z": 0.6627186017,
				"element": "C" 
			},
			{
				"x": 0.7104873035,
				"y": 0.6313250736,
				"z": -0.1898567964,
				"element": "C" 
			},
			{
				"x": 0.6562872898,
				"y": 1.0086227209,
				"z": -1.5424299742,
				"element": "C" 
			},
			{
				"x": 1.3872504469,
				"y": 2.0877263362,
				"z": -2.0364475363,
				"element": "C" 
			},
			{
				"x": 2.1913076658,
				"y": 2.8350750403,
				"z": -1.1778057691,
				"element": "C" 
			},
			{
				"x": 2.2525365534,
				"y": 2.4977299891,
				"z": 0.1728244135,
				"element": "C" 
			},
			{
				"x": -0.1294921547,
				"y": -0.5289108891,
				"z": 0.2385015776,
				"element": "C" 
			},
			{
				"x": -1.5173327021,
				"y": -0.4872782212,
				"z": 0.0122059387,
				"element": "C" 
			},
			{
				"x": -2.3290404317,
				"y": -1.5706594224,
				"z": 0.3481247066,
				"element": "C" 
			},
			{
				"x": -1.7655683048,
				"y": -2.719510688,
				"z": 0.9073519404,
				"element": "C" 
			},
			{
				"x": -0.3883233971,
				"y": -2.7758783584,
				"z": 1.1273675835,
				"element": "C" 
			},
			{
				"x": 0.4277846854,
				"y": -1.6925534654,
				"z": 0.795857302,
				"element": "C" 
			},
			{
				"x": -0.3260164603,
				"y": 0.145126928,
				"z": 2.7183950687,
				"element": "H" 
			},
			{
				"x": -0.3363451788,
				"y": 1.8071360074,
				"z": 3.0589295176,
				"element": "H" 
			},
			{
				"x": 0.0367454411,
				"y": 0.4226883867,
				"z": -2.2145029362,
				"element": "H" 
			},
			{
				"x": 1.3267431733,
				"y": 2.3406295041,
				"z": -3.0908871907,
				"element": "H" 
			},
			{
				"x": 2.7634581557,
				"y": 3.6790093171,
				"z": -1.5504880702,
				"element": "H" 
			},
			{
				"x": 2.850684657,
				"y": 3.0778143968,
				"z": 0.8659922267,
				"element": "H" 
			},
			{
				"x": -1.9580083164,
				"y": 0.4066375915,
				"z": -0.4204445631,
				"element": "H" 
			},
			{
				"x": -3.3997232865,
				"y": -1.5163284601,
				"z": 0.1733160927,
				"element": "H" 
			},
			{
				"x": -2.3956093744,
				"y": -3.5645520592,
				"z": 1.1690428055,
				"element": "H" 
			},
			{
				"x": 0.0588739142,
				"y": -3.6677913427,
				"z": 1.5561303438,
				"element": "H" 
			},
			{
				"x": 1.4946438946,
				"y": -1.7416829427,
				"z": 0.9767112214,
				"element": "H" 
			}
		],
		 "valence_orbital": [ 
			{
				"type": "occ",
				"energy": -0.29888,
				"method": "rhf"
			},
			{
				"type": "occ",
				"energy": -0.27971,
				"method": "rhf"
			},
			{
				"type": "occ",
				"energy": -0.26768,
				"method": "rhf"
			},
			{
				"type": "occ",
				"energy": -0.2644,
				"method": "rhf"
			},
			{
				"type": "occ",
				"energy": -0.25076,
				"method": "rhf"
			},
			{
				"type": "unocc",
				"energy": -0.04554,
				"method": "rhf"
			},
			{
				"type": "unocc",
				"energy": -0.02862,
				"method": "rhf"
			},
			{
				"type": "unocc",
				"energy": -0.01497,
				"method": "rhf"
			},
			{
				"type": "unocc",
				"energy": -0.00408,
				"method": "rhf"
			},
			{
				"type": "unocc",
				"energy": 0.05996,
				"method": "rhf"
			}
		],
		"cosmo_sigma_profile": { 
			"-0.025": 0.0,
			"-0.024": 0.0,
			"-0.023": 0.0,
			"-0.022": 0.0,
			"-0.021": 0.0,
			"-0.02": 0.0,
			"-0.019": 0.0,
			"-0.018": 0.0,
			"-0.017": 0.0,
			"-0.016": 0.224659762706,
			"-0.015": 1.37741766552,
			"-0.014": 1.1871277178,
			"-0.013": 1.05262385883,
			"-0.012": 1.52970707897,
			"-0.011": 1.54367376782,
			"-0.01": 1.59387597114,
			"-0.009": 1.97086023884,
			"-0.008": 1.58786412911,
			"-0.007": 6.564085252,
			"-0.006": 17.5869950073,
			"-0.005": 18.6276389351,
			"-0.004": 20.5258879658,
			"-0.003": 17.6111065187,
			"-0.002": 16.6639861075,
			"-0.001": 14.3297520437,
			"0.0": 13.4091950989,
			"0.001": 17.9407557366,
			"0.002": 20.0431959819,
			"0.003": 20.3498309242,
			"0.004": 10.525575061,
			"0.005": 6.48050364526,
			"0.006": 3.98124978116,
			"0.007": 4.62140027631,
			"0.008": 4.94890903383,
			"0.009": 4.43670357508,
			"0.01": 6.68026219625,
			"0.011": 9.38352014651,
			"0.012": 5.13151979986,
			"0.013": 0.0569951204045,
			"0.014": 0.0,
			"0.015": 0.0,
			"0.016": 0.0,
			"0.017": 0.0,
			"0.018": 0.0,
			"0.019": 0.0,
			"0.02": 0.0,
			"0.021": 0.0,
			"0.022": 0.0,
			"0.023": 0.0,
			"0.024": 0.0,
			"0.025": 0.0
		}
	}
}
