{
	 "smiles": "NC1=CC=CC(=C1)C#N", 
	 "Tm": 326.25, 
	 "num_atms": 15, 
	 "gaussian": { 
		 "optdone": 1, 
		 "sigma_profile": "yes", 
		 "theory": "DFT", 
		 "functional": "B3LYP", 
		 "basiset": "6-31G**", 
		 "properties": { 
			 "R2extent": 1273.5325, 
			 "electric_dipole_moment_norm": 5.63827676777, 
			 "electric_quadrupole_moment_norm": 9.64320342417, 
			 "total_energy": -379.850709283, 
			 "HOMO_LUMO_gap": 0.17882, 
			 "cosmo_polarized_energy": -12.87, 
			 "cosmo_cavitation_energy": 20.28, 
			 "cosmo_dispersion_energy": -14.56, 
			 "cosmo_repulsion_energy": 1.2, 
			 "cosmo_total_nonelectrostatic_energy": 6.92, 
			 "SMD_solvation_energy": 4.93 
		},
		"coords": [
			{
				"x": -1.3897979821,
				"y": 2.6785535296,
				"z": 0.2408667376,
				"element": "N" 
			},
			{
				"x": -0.7887229763,
				"y": 1.4620361716,
				"z": 0.5444613226,
				"element": "C" 
			},
			{
				"x": -0.2815481436,
				"y": 1.2111801387,
				"z": 1.8337309786,
				"element": "C" 
			},
			{
				"x": 0.2697331362,
				"y": -0.0265464765,
				"z": 2.1535516113,
				"element": "C" 
			},
			{
				"x": 0.3357200796,
				"y": -1.049228627,
				"z": 1.209177694,
				"element": "C" 
			},
			{
				"x": -0.1681028138,
				"y": -0.8054994013,
				"z": -0.07866653,
				"element": "C" 
			},
			{
				"x": -0.7253251773,
				"y": 0.4368313386,
				"z": -0.4116505249,
				"element": "C" 
			},
			{
				"x": -0.1109744816,
				"y": -1.8377282334,
				"z": -1.0747389998,
				"element": "C" 
			},
			{
				"x": -0.0629627346,
				"y": -2.6740129299,
				"z": -1.8820068228,
				"element": "N" 
			},
			{
				"x": -1.1160634833,
				"y": 3.4619234029,
				"z": 0.8166053678,
				"element": "H" 
			},
			{
				"x": -1.4379578159,
				"y": 2.9162676483,
				"z": -0.7396462165,
				"element": "H" 
			},
			{
				"x": -0.3278832703,
				"y": 1.9952418552,
				"z": 2.5852155324,
				"element": "H" 
			},
			{
				"x": 0.6551919882,
				"y": -0.1939105217,
				"z": 3.154828527,
				"element": "H" 
			},
			{
				"x": 0.7649836296,
				"y": -2.0142122565,
				"z": 1.451977046,
				"element": "H" 
			},
			{
				"x": -1.1113899548,
				"y": 0.5997043614,
				"z": -1.4132057233,
				"element": "H" 
			}
		],
		 "valence_orbital": [ 
			{
				"type": "occ",
				"energy": -0.35052,
				"method": "rhf"
			},
			{
				"type": "occ",
				"energy": -0.32457,
				"method": "rhf"
			},
			{
				"type": "occ",
				"energy": -0.31542,
				"method": "rhf"
			},
			{
				"type": "occ",
				"energy": -0.26208,
				"method": "rhf"
			},
			{
				"type": "occ",
				"energy": -0.22237,
				"method": "rhf"
			},
			{
				"type": "unocc",
				"energy": -0.04355,
				"method": "rhf"
			},
			{
				"type": "unocc",
				"energy": -0.00543,
				"method": "rhf"
			},
			{
				"type": "unocc",
				"energy": 0.04358,
				"method": "rhf"
			},
			{
				"type": "unocc",
				"energy": 0.06479,
				"method": "rhf"
			},
			{
				"type": "unocc",
				"energy": 0.08725,
				"method": "rhf"
			}
		],
		"cosmo_sigma_profile": { 
			"-0.025": 0.0,
			"-0.024": 0.0,
			"-0.023": 0.0,
			"-0.022": 0.0,
			"-0.021": 0.0,
			"-0.02": 0.0,
			"-0.019": 0.0,
			"-0.018": 0.0,
			"-0.017": 0.0,
			"-0.016": 0.0,
			"-0.015": 0.0,
			"-0.014": 0.0499256438573,
			"-0.013": 1.91032067546,
			"-0.012": 3.3878740726,
			"-0.011": 2.65979279386,
			"-0.01": 3.39126989308,
			"-0.009": 3.48828663856,
			"-0.008": 3.91125943419,
			"-0.007": 6.71722571296,
			"-0.006": 8.52554046084,
			"-0.005": 10.1327895774,
			"-0.004": 7.86829421382,
			"-0.003": 6.93453232723,
			"-0.002": 7.98774964822,
			"-0.001": 6.78183347599,
			"0.0": 11.6801652146,
			"0.001": 8.71274709638,
			"0.002": 9.92508586671,
			"0.003": 13.2721855997,
			"0.004": 12.5445179019,
			"0.005": 3.87309007174,
			"0.006": 4.82803239447,
			"0.007": 2.38841769201,
			"0.008": 4.12627907607,
			"0.009": 4.11480530246,
			"0.01": 4.28166135542,
			"0.011": 3.47803154532,
			"0.012": 3.29365860129,
			"0.013": 2.545577645,
			"0.014": 0.314630817927,
			"0.015": 0.0,
			"0.016": 0.0,
			"0.017": 0.0,
			"0.018": 0.0,
			"0.019": 0.0,
			"0.02": 0.0,
			"0.021": 0.0,
			"0.022": 0.0,
			"0.023": 0.0,
			"0.024": 0.0,
			"0.025": 0.0
		}
	}
}
