{
	 "smiles": "CCOC(=O)C(O)C1=NC=C(Cl)N1C", 
	 "Tm": 359.15, 
	 "num_atms": 25, 
	 "gaussian": { 
		 "optdone": 1, 
		 "sigma_profile": "yes", 
		 "theory": "DFT", 
		 "functional": "B3LYP", 
		 "basiset": "6-31G**", 
		 "properties": { 
			 "R2extent": 4269.833, 
			 "electric_dipole_moment_norm": 4.69055801158, 
			 "electric_quadrupole_moment_norm": 9.54498822943, 
			 "total_energy": -1106.83977166, 
			 "HOMO_LUMO_gap": 0.21753, 
			 "cosmo_polarized_energy": -13.72, 
			 "cosmo_cavitation_energy": 30.83, 
			 "cosmo_dispersion_energy": -21.83, 
			 "cosmo_repulsion_energy": 1.76, 
			 "cosmo_total_nonelectrostatic_energy": 10.76, 
			 "SMD_solvation_energy": 5.13 
		},
		"coords": [
			{
				"x": -1.680356145,
				"y": -1.9361775244,
				"z": 3.4919484918,
				"element": "C" 
			},
			{
				"x": -0.6375929075,
				"y": -1.8674655171,
				"z": 2.3876791554,
				"element": "C" 
			},
			{
				"x": -1.2209701258,
				"y": -1.3946019406,
				"z": 1.1436042541,
				"element": "O" 
			},
			{
				"x": -1.2854019796,
				"y": -0.0509529338,
				"z": 0.978629961,
				"element": "C" 
			},
			{
				"x": -0.9158525646,
				"y": 0.762292452,
				"z": 1.7886872871,
				"element": "O" 
			},
			{
				"x": -1.8760332327,
				"y": 0.2909180239,
				"z": -0.4077335676,
				"element": "C" 
			},
			{
				"x": -2.3641643915,
				"y": 1.5999353178,
				"z": -0.4293453159,
				"element": "O" 
			},
			{
				"x": -0.8042212783,
				"y": 0.1154144477,
				"z": -1.464204979,
				"element": "C" 
			},
			{
				"x": -0.0542104983,
				"y": 1.1314829912,
				"z": -1.8416989394,
				"element": "N" 
			},
			{
				"x": 0.7999549796,
				"y": 0.6419732687,
				"z": -2.797090268,
				"element": "C" 
			},
			{
				"x": 0.5500113153,
				"y": -0.6928154625,
				"z": -2.9839018687,
				"element": "C" 
			},
			{
				"x": 1.2870673743,
				"y": -1.8372956097,
				"z": -4.046211385,
				"element": "Cl" 
			},
			{
				"x": -0.4783617527,
				"y": -1.0416390545,
				"z": -2.1225451298,
				"element": "N" 
			},
			{
				"x": -1.1225552663,
				"y": -2.3455163712,
				"z": -2.0134834898,
				"element": "C" 
			},
			{
				"x": -1.2333422549,
				"y": -2.3611753876,
				"z": 4.3967500364,
				"element": "H" 
			},
			{
				"x": -2.5227952256,
				"y": -2.5683030993,
				"z": 3.1960521012,
				"element": "H" 
			},
			{
				"x": -2.0527070298,
				"y": -0.9371359978,
				"z": 3.7305842374,
				"element": "H" 
			},
			{
				"x": -0.2414019764,
				"y": -2.8559494007,
				"z": 2.1437758965,
				"element": "H" 
			},
			{
				"x": 0.1849864482,
				"y": -1.2022889952,
				"z": 2.6595593157,
				"element": "H" 
			},
			{
				"x": -2.7148608308,
				"y": -0.3902276737,
				"z": -0.5904187965,
				"element": "H" 
			},
			{
				"x": -1.5985019929,
				"y": 2.1711826061,
				"z": -0.6063316706,
				"element": "H" 
			},
			{
				"x": 1.536563492,
				"y": 1.256650663,
				"z": -3.2927601858,
				"element": "H" 
			},
			{
				"x": -1.4975632063,
				"y": -2.4715674203,
				"z": -0.9986420224,
				"element": "H" 
			},
			{
				"x": -0.3880301794,
				"y": -3.1257029322,
				"z": -2.216587364,
				"element": "H" 
			},
			{
				"x": -1.9426607709,
				"y": -2.4382344497,
				"z": -2.7327157542,
				"element": "H" 
			}
		],
		 "valence_orbital": [ 
			{
				"type": "occ",
				"energy": -0.29828,
				"method": "rhf"
			},
			{
				"type": "occ",
				"energy": -0.28782,
				"method": "rhf"
			},
			{
				"type": "occ",
				"energy": -0.28509,
				"method": "rhf"
			},
			{
				"type": "occ",
				"energy": -0.27102,
				"method": "rhf"
			},
			{
				"type": "occ",
				"energy": -0.22826,
				"method": "rhf"
			},
			{
				"type": "unocc",
				"energy": -0.01073,
				"method": "rhf"
			},
			{
				"type": "unocc",
				"energy": 0.02482,
				"method": "rhf"
			},
			{
				"type": "unocc",
				"energy": 0.02856,
				"method": "rhf"
			},
			{
				"type": "unocc",
				"energy": 0.05227,
				"method": "rhf"
			},
			{
				"type": "unocc",
				"energy": 0.08457,
				"method": "rhf"
			}
		],
		"cosmo_sigma_profile": { 
			"-0.025": 0.0,
			"-0.024": 0.0,
			"-0.023": 0.0,
			"-0.022": 0.0,
			"-0.021": 0.0,
			"-0.02": 0.0,
			"-0.019": 0.0,
			"-0.018": 0.0,
			"-0.017": 0.0,
			"-0.016": 0.0,
			"-0.015": 0.0,
			"-0.014": 0.0,
			"-0.013": 0.0695532651157,
			"-0.012": 0.385667239884,
			"-0.011": 0.358334970033,
			"-0.01": 0.845386004546,
			"-0.009": 0.746157084859,
			"-0.008": 4.91486782069,
			"-0.007": 6.79026153879,
			"-0.006": 11.0881412446,
			"-0.005": 17.2362012331,
			"-0.004": 23.6145170525,
			"-0.003": 23.624980878,
			"-0.002": 20.5690226198,
			"-0.001": 19.3062476134,
			"0.0": 20.1980095822,
			"0.001": 16.7334413076,
			"0.002": 14.9070755717,
			"0.003": 15.3799453081,
			"0.004": 9.68283594048,
			"0.005": 4.67293005167,
			"0.006": 4.85391613091,
			"0.007": 4.03235633407,
			"0.008": 2.93333329083,
			"0.009": 4.11995659958,
			"0.01": 5.70615118403,
			"0.011": 6.72660161926,
			"0.012": 5.80290470966,
			"0.013": 1.33759878183,
			"0.014": 0.0,
			"0.015": 0.0,
			"0.016": 0.0,
			"0.017": 0.0,
			"0.018": 0.0,
			"0.019": 0.0,
			"0.02": 0.0,
			"0.021": 0.0,
			"0.022": 0.0,
			"0.023": 0.0,
			"0.024": 0.0,
			"0.025": 0.0
		}
	}
}
