{
	 "smiles": "CN1N=C(C)C(I)=C1Cl", 
	 "Tm": 337.65, 
	 "num_atms": 15, 
	 "gaussian": { 
		 "optdone": 1, 
		 "sigma_profile": "no", 
		 "theory": "DFT", 
		 "functional": "B3LYP", 
		 "basiset": "6-31G**", 
		 "properties": { 
			 "R2extent": 1727.1537, 
			 "electric_dipole_moment_norm": 1.68119185699, 
			 "electric_quadrupole_moment_norm": 5.6563634519, 
			 "total_energy": -775.207078662, 
			 "HOMO_LUMO_gap": 0.19894, 
			 "cosmo_polarized_energy": -87385.31, 
			 "cosmo_cavitation_energy": 23.87, 
			 "cosmo_dispersion_energy": -18.84, 
			 "cosmo_repulsion_energy": 1.52, 
			 "cosmo_total_nonelectrostatic_energy": 6.55, 
			 "SMD_solvation_energy": 2.34 
		},
		"coords": [
			{
				"x": 0.7403288417,
				"y": -1.0032461648,
				"z": 1.390636729,
				"element": "C" 
			},
			{
				"x": 0.460493079,
				"y": 0.1771735045,
				"z": 0.5926381252,
				"element": "N" 
			},
			{
				"x": 0.4941909752,
				"y": 1.4078311225,
				"z": 1.1609306353,
				"element": "N" 
			},
			{
				"x": 0.1993217251,
				"y": 2.2750485734,
				"z": 0.190605503,
				"element": "C" 
			},
			{
				"x": 0.1462043556,
				"y": 3.7433488118,
				"z": 0.4668821005,
				"element": "C" 
			},
			{
				"x": -0.0299296532,
				"y": 1.5920255533,
				"z": -1.0304813205,
				"element": "C" 
			},
			{
				"x": -0.5244563889,
				"y": 2.4072594604,
				"z": -2.8774009813,
				"element": "I" 
			},
			{
				"x": 0.1480031813,
				"y": 0.2525889865,
				"z": -0.7259243401,
				"element": "C" 
			},
			{
				"x": 0.0294804254,
				"y": -1.1482453917,
				"z": -1.7183500987,
				"element": "Cl" 
			},
			{
				"x": 0.9471134503,
				"y": -0.6531466435,
				"z": 2.4010857516,
				"element": "H" 
			},
			{
				"x": 1.6099250865,
				"y": -1.5391230268,
				"z": 1.0001686424,
				"element": "H" 
			},
			{
				"x": -0.1205035477,
				"y": -1.6775335727,
				"z": 1.4022692171,
				"element": "H" 
			},
			{
				"x": -0.8455256804,
				"y": 4.1540154179,
				"z": 0.249153382,
				"element": "H" 
			},
			{
				"x": 0.8675839485,
				"y": 4.2908861944,
				"z": -0.1490711984,
				"element": "H" 
			},
			{
				"x": 0.3763702017,
				"y": 3.9235171749,
				"z": 1.518957853,
				"element": "H" 
			}
		],
		 "valence_orbital": [ 
			{
				"type": "occ",
				"energy": -0.30295,
				"method": "rhf"
			},
			{
				"type": "occ",
				"energy": -0.2987,
				"method": "rhf"
			},
			{
				"type": "occ",
				"energy": -0.26944,
				"method": "rhf"
			},
			{
				"type": "occ",
				"energy": -0.24945,
				"method": "rhf"
			},
			{
				"type": "occ",
				"energy": -0.2329,
				"method": "rhf"
			},
			{
				"type": "unocc",
				"energy": -0.03396,
				"method": "rhf"
			},
			{
				"type": "unocc",
				"energy": 0.00406,
				"method": "rhf"
			},
			{
				"type": "unocc",
				"energy": 0.02553,
				"method": "rhf"
			},
			{
				"type": "unocc",
				"energy": 0.04752,
				"method": "rhf"
			},
			{
				"type": "unocc",
				"energy": 0.04779,
				"method": "rhf"
			}
		],
		"cosmo_sigma_profile": { 
			"0.0": 0.0,
			"0.0": 0.0,
			"0.0": 0.0,
			"0.0": 0.0,
			"0.0": 0.0,
			"0.0": 0.0,
			"0.0": 0.0,
			"0.0": 0.0,
			"0.0": 0.0,
			"0.0": 0.0,
			"0.0": 0.0,
			"0.0": 0.0,
			"0.0": 0.0,
			"0.0": 0.0,
			"0.0": 0.0,
			"0.0": 0.0,
			"0.0": 0.0,
			"0.0": 0.0,
			"0.0": 0.0,
			"0.0": 0.0,
			"0.0": 0.0,
			"0.0": 0.0,
			"0.0": 0.0,
			"0.0": 0.0,
			"0.0": 0.0,
			"0.0": 0.0,
			"0.0": 0.0,
			"0.0": 0.0,
			"0.0": 0.0,
			"0.0": 0.0,
			"0.0": 0.0,
			"0.0": 0.0,
			"0.0": 0.0,
			"0.0": 0.0,
			"0.0": 0.0,
			"0.0": 0.0,
			"0.0": 0.0,
			"0.0": 0.0,
			"0.0": 0.0,
			"0.0": 0.0,
			"0.0": 0.0,
			"0.0": 0.0,
			"0.0": 0.0,
			"0.0": 0.0,
			"0.0": 0.0,
			"0.0": 0.0,
			"0.0": 0.0,
			"0.0": 0.0,
			"0.0": 0.0,
			"0.0": 0.0,
			"0.0": 0.0
		}
	}
}
