{
	 "smiles": "COCCOC(=O)C1=C(C)NC(C(O)=O)=C1C", 
	 "Tm": 451.15, 
	 "num_atms": 32, 
	 "gaussian": { 
		 "optdone": 1, 
		 "sigma_profile": "yes", 
		 "theory": "DFT", 
		 "functional": "B3LYP", 
		 "basiset": "6-31G**", 
		 "properties": { 
			 "R2extent": 5278.7929, 
			 "electric_dipole_moment_norm": 2.16162184251, 
			 "electric_quadrupole_moment_norm": 22.5821554469, 
			 "total_energy": -859.100989433, 
			 "HOMO_LUMO_gap": 0.1972, 
			 "cosmo_polarized_energy": -18.63, 
			 "cosmo_cavitation_energy": 35.74, 
			 "cosmo_dispersion_energy": -24.84, 
			 "cosmo_repulsion_energy": 1.94, 
			 "cosmo_total_nonelectrostatic_energy": 12.84, 
			 "SMD_solvation_energy": 8.39 
		},
		"coords": [
			{
				"x": 0.3890849178,
				"y": -3.5839570189,
				"z": 1.4939865987,
				"element": "C" 
			},
			{
				"x": 1.7008837164,
				"y": -3.5196832648,
				"z": 2.0248242632,
				"element": "O" 
			},
			{
				"x": 2.1474929527,
				"y": -2.2192560056,
				"z": 2.3564201305,
				"element": "C" 
			},
			{
				"x": 2.7196686054,
				"y": -1.4317092392,
				"z": 1.1809696934,
				"element": "C" 
			},
			{
				"x": 1.7111279548,
				"y": -0.9796521648,
				"z": 0.2475963361,
				"element": "O" 
			},
			{
				"x": 1.0928974913,
				"y": 0.1940507075,
				"z": 0.5536806719,
				"element": "C" 
			},
			{
				"x": 1.3373260227,
				"y": 0.8150586632,
				"z": 1.57612709,
				"element": "O" 
			},
			{
				"x": 0.112850841,
				"y": 0.6161217663,
				"z": -0.4515548763,
				"element": "C" 
			},
			{
				"x": -0.706622066,
				"y": 1.7410258805,
				"z": -0.2384274001,
				"element": "C" 
			},
			{
				"x": -0.7888197809,
				"y": 2.6929516611,
				"z": 0.9095517926,
				"element": "C" 
			},
			{
				"x": -1.4933574823,
				"y": 1.8626455335,
				"z": -1.3262412982,
				"element": "N" 
			},
			{
				"x": -1.2278295678,
				"y": 0.8685809563,
				"z": -2.2512695387,
				"element": "C" 
			},
			{
				"x": -2.0269614553,
				"y": 0.9045627918,
				"z": -3.4811162517,
				"element": "C" 
			},
			{
				"x": -1.8707904456,
				"y": -0.1056584744,
				"z": -4.372354355,
				"element": "O" 
			},
			{
				"x": -2.8144415583,
				"y": 1.8036758819,
				"z": -3.7053759841,
				"element": "O" 
			},
			{
				"x": -0.2141092605,
				"y": 0.0665784023,
				"z": -1.7360983492,
				"element": "C" 
			},
			{
				"x": 0.4139682343,
				"y": -1.1152623088,
				"z": -2.4245227124,
				"element": "C" 
			},
			{
				"x": 0.1254717445,
				"y": -4.6429811669,
				"z": 1.4308093467,
				"element": "H" 
			},
			{
				"x": -0.3363298741,
				"y": -3.0791791683,
				"z": 2.151015859,
				"element": "H" 
			},
			{
				"x": 0.3180662448,
				"y": -3.137420566,
				"z": 0.4941414526,
				"element": "H" 
			},
			{
				"x": 1.3554631027,
				"y": -1.6333254286,
				"z": 2.8446200426,
				"element": "H" 
			},
			{
				"x": 2.9592970212,
				"y": -2.3537508183,
				"z": 3.0817523646,
				"element": "H" 
			},
			{
				"x": 3.3782411462,
				"y": -2.0730075197,
				"z": 0.5908719757,
				"element": "H" 
			},
			{
				"x": 3.2729446463,
				"y": -0.5657591803,
				"z": 1.5540537874,
				"element": "H" 
			},
			{
				"x": -0.96456539,
				"y": 2.1594809514,
				"z": 1.8471135611,
				"element": "H" 
			},
			{
				"x": -1.5940731205,
				"y": 3.4170891004,
				"z": 0.7538864486,
				"element": "H" 
			},
			{
				"x": 0.1540247361,
				"y": 3.2319184819,
				"z": 1.0374190445,
				"element": "H" 
			},
			{
				"x": -2.1927295814,
				"y": 2.571221565,
				"z": -1.5060782334,
				"element": "H" 
			},
			{
				"x": -1.2746523859,
				"y": -0.7812334064,
				"z": -4.0208625797,
				"element": "H" 
			},
			{
				"x": -0.2159408768,
				"y": -2.0126197397,
				"z": -2.3543881085,
				"element": "H" 
			},
			{
				"x": 1.3694913136,
				"y": -1.3676652011,
				"z": -1.9686664011,
				"element": "H" 
			},
			{
				"x": 0.6016221536,
				"y": -0.9077416712,
				"z": -3.4851843708,
				"element": "H" 
			}
		],
		 "valence_orbital": [ 
			{
				"type": "occ",
				"energy": -0.28405,
				"method": "rhf"
			},
			{
				"type": "occ",
				"energy": -0.27398,
				"method": "rhf"
			},
			{
				"type": "occ",
				"energy": -0.26614,
				"method": "rhf"
			},
			{
				"type": "occ",
				"energy": -0.2531,
				"method": "rhf"
			},
			{
				"type": "occ",
				"energy": -0.23382,
				"method": "rhf"
			},
			{
				"type": "unocc",
				"energy": -0.03662,
				"method": "rhf"
			},
			{
				"type": "unocc",
				"energy": -0.0231,
				"method": "rhf"
			},
			{
				"type": "unocc",
				"energy": 0.06054,
				"method": "rhf"
			},
			{
				"type": "unocc",
				"energy": 0.08173,
				"method": "rhf"
			},
			{
				"type": "unocc",
				"energy": 0.08644,
				"method": "rhf"
			}
		],
		"cosmo_sigma_profile": { 
			"-0.025": 0.0,
			"-0.024": 0.0,
			"-0.023": 0.0,
			"-0.022": 0.0,
			"-0.021": 0.0,
			"-0.02": 0.0,
			"-0.019": 0.0,
			"-0.018": 0.0,
			"-0.017": 0.0,
			"-0.016": 0.00982636902,
			"-0.015": 0.969718917125,
			"-0.014": 2.44194723419,
			"-0.013": 2.12742084322,
			"-0.012": 2.63538865532,
			"-0.011": 2.41905086985,
			"-0.01": 2.32429884489,
			"-0.009": 2.12968980093,
			"-0.008": 3.7181944166,
			"-0.007": 3.13886104197,
			"-0.006": 8.34117992304,
			"-0.005": 17.5271553127,
			"-0.004": 21.760620728,
			"-0.003": 25.2562051983,
			"-0.002": 31.0822540932,
			"-0.001": 29.7811374892,
			"0.0": 21.3311316269,
			"0.001": 17.4696218597,
			"0.002": 16.0545230081,
			"0.003": 10.3515101005,
			"0.004": 7.27552324987,
			"0.005": 4.50052890765,
			"0.006": 4.44726596414,
			"0.007": 5.09770609384,
			"0.008": 6.04610531282,
			"0.009": 5.25154393591,
			"0.01": 5.92506746112,
			"0.011": 8.27035307729,
			"0.012": 8.56168820275,
			"0.013": 4.75621444251,
			"0.014": 1.00560014722,
			"0.015": 0.0,
			"0.016": 0.0,
			"0.017": 0.0,
			"0.018": 0.0,
			"0.019": 0.0,
			"0.02": 0.0,
			"0.021": 0.0,
			"0.022": 0.0,
			"0.023": 0.0,
			"0.024": 0.0,
			"0.025": 0.0
		}
	}
}
