{
	 "smiles": "CC(=O)C(=O)NC1=CC=CC=C1", 
	 "Tm": 373.15, 
	 "num_atms": 21, 
	 "gaussian": { 
		 "optdone": 1, 
		 "sigma_profile": "yes", 
		 "theory": "DFT", 
		 "functional": "B3LYP", 
		 "basiset": "6-31G**", 
		 "properties": { 
			 "R2extent": 2807.6448, 
			 "electric_dipole_moment_norm": 2.99958463458, 
			 "electric_quadrupole_moment_norm": 6.35900904072, 
			 "total_energy": -553.58085402, 
			 "HOMO_LUMO_gap": 0.18268, 
			 "cosmo_polarized_energy": -11.31, 
			 "cosmo_cavitation_energy": 25.71, 
			 "cosmo_dispersion_energy": -18.49, 
			 "cosmo_repulsion_energy": 1.5, 
			 "cosmo_total_nonelectrostatic_energy": 8.71, 
			 "SMD_solvation_energy": 5.93 
		},
		"coords": [
			{
				"x": -3.7227184995,
				"y": -1.4643608229,
				"z": 0.651498233,
				"element": "C" 
			},
			{
				"x": -2.3179522403,
				"y": -1.5961935369,
				"z": 1.1864356425,
				"element": "C" 
			},
			{
				"x": -1.8485605015,
				"y": -2.6398488052,
				"z": 1.5964589832,
				"element": "O" 
			},
			{
				"x": -1.5662810501,
				"y": -0.259991395,
				"z": 1.3288798816,
				"element": "C" 
			},
			{
				"x": -2.1420857224,
				"y": 0.6366023015,
				"z": 1.9365164969,
				"element": "O" 
			},
			{
				"x": -0.3049208715,
				"y": -0.0845463271,
				"z": 0.8240879108,
				"element": "N" 
			},
			{
				"x": 0.5081966039,
				"y": -0.8704283473,
				"z": -0.0430158132,
				"element": "C" 
			},
			{
				"x": 1.1308747234,
				"y": -0.2153280891,
				"z": -1.1157700558,
				"element": "C" 
			},
			{
				"x": 1.9809009135,
				"y": -0.9164971609,
				"z": -1.9681897102,
				"element": "C" 
			},
			{
				"x": 2.2080533804,
				"y": -2.2795482988,
				"z": -1.7672281506,
				"element": "C" 
			},
			{
				"x": 1.5902335111,
				"y": -2.9274149717,
				"z": -0.6969360445,
				"element": "C" 
			},
			{
				"x": 0.7544266571,
				"y": -2.230729906,
				"z": 0.1770314375,
				"element": "C" 
			},
			{
				"x": -4.271032901,
				"y": -0.7340807612,
				"z": 1.2530546726,
				"element": "H" 
			},
			{
				"x": -4.2172085539,
				"y": -2.4360989964,
				"z": 0.6738892792,
				"element": "H" 
			},
			{
				"x": -3.6989528132,
				"y": -1.0801302174,
				"z": -0.3754551393,
				"element": "H" 
			},
			{
				"x": -0.0000745641,
				"y": 0.8733370641,
				"z": 0.9625150647,
				"element": "H" 
			},
			{
				"x": 0.9396242763,
				"y": 0.8417819906,
				"z": -1.2813350052,
				"element": "H" 
			},
			{
				"x": 2.4582089569,
				"y": -0.3973307934,
				"z": -2.7941295257,
				"element": "H" 
			},
			{
				"x": 2.8651396978,
				"y": -2.8286923114,
				"z": -2.434711042,
				"element": "H" 
			},
			{
				"x": 1.7710511483,
				"y": -3.9842050773,
				"z": -0.5233165003,
				"element": "H" 
			},
			{
				"x": 0.2923778489,
				"y": -2.7277955381,
				"z": 1.0198193848,
				"element": "H" 
			}
		],
		 "valence_orbital": [ 
			{
				"type": "occ",
				"energy": -0.30506,
				"method": "rhf"
			},
			{
				"type": "occ",
				"energy": -0.30202,
				"method": "rhf"
			},
			{
				"type": "occ",
				"energy": -0.25989,
				"method": "rhf"
			},
			{
				"type": "occ",
				"energy": -0.24993,
				"method": "rhf"
			},
			{
				"type": "occ",
				"energy": -0.23275,
				"method": "rhf"
			},
			{
				"type": "unocc",
				"energy": -0.05007,
				"method": "rhf"
			},
			{
				"type": "unocc",
				"energy": -0.01566,
				"method": "rhf"
			},
			{
				"type": "unocc",
				"energy": -0.0097,
				"method": "rhf"
			},
			{
				"type": "unocc",
				"energy": 0.03362,
				"method": "rhf"
			},
			{
				"type": "unocc",
				"energy": 0.08229,
				"method": "rhf"
			}
		],
		"cosmo_sigma_profile": { 
			"-0.025": 0.0,
			"-0.024": 0.0,
			"-0.023": 0.0,
			"-0.022": 0.0,
			"-0.021": 0.0,
			"-0.02": 0.0,
			"-0.019": 0.0,
			"-0.018": 0.0,
			"-0.017": 0.0,
			"-0.016": 0.0160171395419,
			"-0.015": 0.587018430517,
			"-0.014": 0.857152961083,
			"-0.013": 1.49411156018,
			"-0.012": 0.685303205853,
			"-0.011": 0.973117263882,
			"-0.01": 1.48261186506,
			"-0.009": 1.27397890905,
			"-0.008": 3.006016986,
			"-0.007": 4.5554349546,
			"-0.006": 11.8080452608,
			"-0.005": 15.4148301925,
			"-0.004": 15.7688966849,
			"-0.003": 16.1012780493,
			"-0.002": 18.8910481958,
			"-0.001": 12.5497501648,
			"0.0": 11.2763249575,
			"0.001": 11.4334513263,
			"0.002": 12.0811309041,
			"0.003": 12.7433495818,
			"0.004": 11.8229042556,
			"0.005": 11.9745721749,
			"0.006": 4.14222251755,
			"0.007": 2.79669402856,
			"0.008": 3.60300930024,
			"0.009": 3.01455299929,
			"0.01": 3.91757130934,
			"0.011": 4.29033655156,
			"0.012": 5.31684129106,
			"0.013": 1.44055498707,
			"0.014": 0.0,
			"0.015": 0.0,
			"0.016": 0.0,
			"0.017": 0.0,
			"0.018": 0.0,
			"0.019": 0.0,
			"0.02": 0.0,
			"0.021": 0.0,
			"0.022": 0.0,
			"0.023": 0.0,
			"0.024": 0.0,
			"0.025": 0.0
		}
	}
}
