{
	 "smiles": "CC1=CC2=C(N1)C=CC(F)=C2", 
	 "Tm": 372.65, 
	 "num_atms": 19, 
	 "gaussian": { 
		 "optdone": 1, 
		 "sigma_profile": "yes", 
		 "theory": "DFT", 
		 "functional": "B3LYP", 
		 "basiset": "6-31G**", 
		 "properties": { 
			 "R2extent": 2093.465, 
			 "electric_dipole_moment_norm": 4.06495692597, 
			 "electric_quadrupole_moment_norm": 6.18297096063, 
			 "total_energy": -502.376210162, 
			 "HOMO_LUMO_gap": 0.19205, 
			 "cosmo_polarized_energy": -8.77, 
			 "cosmo_cavitation_energy": 23.2, 
			 "cosmo_dispersion_energy": -17.28, 
			 "cosmo_repulsion_energy": 1.36, 
			 "cosmo_total_nonelectrostatic_energy": 7.29, 
			 "SMD_solvation_energy": 4.24 
		},
		"coords": [
			{
				"x": -1.2800393486,
				"y": -3.066980995,
				"z": -2.7030680843,
				"element": "C" 
			},
			{
				"x": -0.5580601727,
				"y": -2.1181700613,
				"z": -1.8022637986,
				"element": "C" 
			},
			{
				"x": 0.6454364157,
				"y": -1.476533184,
				"z": -1.9702837094,
				"element": "C" 
			},
			{
				"x": 0.8809621597,
				"y": -0.6754030463,
				"z": -0.8031461886,
				"element": "C" 
			},
			{
				"x": -0.2342018773,
				"y": -0.8711749928,
				"z": 0.0607586813,
				"element": "C" 
			},
			{
				"x": -1.0897422212,
				"y": -1.7527897974,
				"z": -0.5755509988,
				"element": "N" 
			},
			{
				"x": -0.3383859852,
				"y": -0.2367052221,
				"z": 1.3009659664,
				"element": "C" 
			},
			{
				"x": 0.6946514384,
				"y": 0.612010266,
				"z": 1.6862241558,
				"element": "C" 
			},
			{
				"x": 1.7923945674,
				"y": 0.8034019544,
				"z": 0.8335846574,
				"element": "C" 
			},
			{
				"x": 2.7763665758,
				"y": 1.6388324447,
				"z": 1.2486380097,
				"element": "F" 
			},
			{
				"x": 1.9159562136,
				"y": 0.1859134615,
				"z": -0.3976274174,
				"element": "C" 
			},
			{
				"x": -1.434565178,
				"y": -4.0431830359,
				"z": -2.2264528326,
				"element": "H" 
			},
			{
				"x": -0.7039738385,
				"y": -3.2287712334,
				"z": -3.6165449901,
				"element": "H" 
			},
			{
				"x": -2.2665850879,
				"y": -2.6832461103,
				"z": -2.9920069992,
				"element": "H" 
			},
			{
				"x": 1.2882632454,
				"y": -1.5697541625,
				"z": -2.8343922673,
				"element": "H" 
			},
			{
				"x": -1.9670665005,
				"y": -2.081659012,
				"z": -0.2063532808,
				"element": "H" 
			},
			{
				"x": -1.1947506071,
				"y": -0.3949876955,
				"z": 1.950193449,
				"element": "H" 
			},
			{
				"x": 0.6721150051,
				"y": 1.1333017189,
				"z": 2.6366801958,
				"element": "H" 
			},
			{
				"x": 2.7889251958,
				"y": 0.3729987031,
				"z": -1.0137545482,
				"element": "H" 
			}
		],
		 "valence_orbital": [ 
			{
				"type": "occ",
				"energy": -0.33061,
				"method": "rhf"
			},
			{
				"type": "occ",
				"energy": -0.31587,
				"method": "rhf"
			},
			{
				"type": "occ",
				"energy": -0.27565,
				"method": "rhf"
			},
			{
				"type": "occ",
				"energy": -0.20936,
				"method": "rhf"
			},
			{
				"type": "occ",
				"energy": -0.20172,
				"method": "rhf"
			},
			{
				"type": "unocc",
				"energy": -0.00967,
				"method": "rhf"
			},
			{
				"type": "unocc",
				"energy": 0.03631,
				"method": "rhf"
			},
			{
				"type": "unocc",
				"energy": 0.07061,
				"method": "rhf"
			},
			{
				"type": "unocc",
				"energy": 0.07636,
				"method": "rhf"
			},
			{
				"type": "unocc",
				"energy": 0.1025,
				"method": "rhf"
			}
		],
		"cosmo_sigma_profile": { 
			"-0.025": 0.0,
			"-0.024": 0.0,
			"-0.023": 0.0,
			"-0.022": 0.0,
			"-0.021": 0.0,
			"-0.02": 0.0,
			"-0.019": 0.0,
			"-0.018": 0.0,
			"-0.017": 0.0,
			"-0.016": 0.0175924305135,
			"-0.015": 1.18308036623,
			"-0.014": 1.19205458531,
			"-0.013": 1.09510728544,
			"-0.012": 1.41586876543,
			"-0.011": 1.28274872494,
			"-0.01": 1.27305628709,
			"-0.009": 1.27406875166,
			"-0.008": 1.76096832077,
			"-0.007": 2.08767900428,
			"-0.006": 6.92692248084,
			"-0.005": 12.3599021141,
			"-0.004": 14.3173069294,
			"-0.003": 13.941084135,
			"-0.002": 11.0040547996,
			"-0.001": 13.4646031891,
			"0.0": 10.0457348906,
			"0.001": 8.4753600643,
			"0.002": 9.18610780702,
			"0.003": 13.9967892792,
			"0.004": 16.0176514768,
			"0.005": 25.7686070943,
			"0.006": 14.0218320889,
			"0.007": 3.2602199371,
			"0.008": 0.0593236379012,
			"0.009": 0.0,
			"0.01": 0.0,
			"0.011": 0.0,
			"0.012": 0.0,
			"0.013": 0.0,
			"0.014": 0.0,
			"0.015": 0.0,
			"0.016": 0.0,
			"0.017": 0.0,
			"0.018": 0.0,
			"0.019": 0.0,
			"0.02": 0.0,
			"0.021": 0.0,
			"0.022": 0.0,
			"0.023": 0.0,
			"0.024": 0.0,
			"0.025": 0.0
		}
	}
}
