{
	 "smiles": "NC(=O)C1=CC=C(CNC2=CC(F)=CC=C2)C=C1", 
	 "Tm": 429.15, 
	 "num_atms": 31, 
	 "gaussian": { 
		 "optdone": 1, 
		 "sigma_profile": "yes", 
		 "theory": "DFT", 
		 "functional": "B3LYP", 
		 "basiset": "6-31G**", 
		 "properties": { 
			 "R2extent": 6326.132, 
			 "electric_dipole_moment_norm": 3.47665148814, 
			 "electric_quadrupole_moment_norm": 28.5864271659, 
			 "total_energy": -825.907385669, 
			 "HOMO_LUMO_gap": 0.16797, 
			 "cosmo_polarized_energy": -18.67, 
			 "cosmo_cavitation_energy": 35.95, 
			 "cosmo_dispersion_energy": -25.41, 
			 "cosmo_repulsion_energy": 1.96, 
			 "cosmo_total_nonelectrostatic_energy": 12.49, 
			 "SMD_solvation_energy": 6.85 
		},
		"coords": [
			{
				"x": -1.7587057903,
				"y": 3.983445908,
				"z": -3.3454589965,
				"element": "N" 
			},
			{
				"x": -0.557365945,
				"y": 3.8221216205,
				"z": -2.6926705688,
				"element": "C" 
			},
			{
				"x": 0.4820540031,
				"y": 4.30023792,
				"z": -3.1301272865,
				"element": "O" 
			},
			{
				"x": -0.5997041672,
				"y": 3.0532558498,
				"z": -1.4034270273,
				"element": "C" 
			},
			{
				"x": 0.6095638329,
				"y": 2.5459699469,
				"z": -0.9103608924,
				"element": "C" 
			},
			{
				"x": 0.6431255501,
				"y": 1.8206125331,
				"z": 0.2765640039,
				"element": "C" 
			},
			{
				"x": -0.5298509449,
				"y": 1.596731002,
				"z": 1.0075406033,
				"element": "C" 
			},
			{
				"x": -0.5050630032,
				"y": 0.8605779225,
				"z": 2.3410967927,
				"element": "C" 
			},
			{
				"x": 0.5570550865,
				"y": -0.1229826337,
				"z": 2.4721002332,
				"element": "N" 
			},
			{
				"x": 0.4349661897,
				"y": -1.4194530162,
				"z": 1.9782707083,
				"element": "C" 
			},
			{
				"x": -0.5224819573,
				"y": -1.7524486725,
				"z": 1.0046632308,
				"element": "C" 
			},
			{
				"x": -0.5770672057,
				"y": -3.060262706,
				"z": 0.537451709,
				"element": "C" 
			},
			{
				"x": -1.5059628762,
				"y": -3.3569845435,
				"z": -0.3987533782,
				"element": "F" 
			},
			{
				"x": 0.2697403038,
				"y": -4.0656395134,
				"z": 0.9835164586,
				"element": "C" 
			},
			{
				"x": 1.21917045,
				"y": -3.721061878,
				"z": 1.9501360561,
				"element": "C" 
			},
			{
				"x": 1.3074607965,
				"y": -2.4247462256,
				"z": 2.444543939,
				"element": "C" 
			},
			{
				"x": -1.7364556906,
				"y": 2.1142896341,
				"z": 0.521489777,
				"element": "C" 
			},
			{
				"x": -1.7740847091,
				"y": 2.83712873,
				"z": -0.6697842817,
				"element": "C" 
			},
			{
				"x": -2.508091262,
				"y": 3.3259947063,
				"z": -3.1948162706,
				"element": "H" 
			},
			{
				"x": -1.6913853178,
				"y": 4.3896708069,
				"z": -4.267844742,
				"element": "H" 
			},
			{
				"x": 1.5138701678,
				"y": 2.7339163041,
				"z": -1.4794071105,
				"element": "H" 
			},
			{
				"x": 1.5783974582,
				"y": 1.4109379969,
				"z": 0.6446273208,
				"element": "H" 
			},
			{
				"x": -1.4925945467,
				"y": 0.4073739696,
				"z": 2.5198897309,
				"element": "H" 
			},
			{
				"x": -0.3566003046,
				"y": 1.5974813231,
				"z": 3.1397755736,
				"element": "H" 
			},
			{
				"x": 1.0899616368,
				"y": -0.0590779933,
				"z": 3.3261776527,
				"element": "H" 
			},
			{
				"x": -1.2027778431,
				"y": -1.0188072406,
				"z": 0.5913110124,
				"element": "H" 
			},
			{
				"x": 0.1834882148,
				"y": -5.0694107706,
				"z": 0.5847873799,
				"element": "H" 
			},
			{
				"x": 1.8992342671,
				"y": -4.4803442507,
				"z": 2.3253327776,
				"element": "H" 
			},
			{
				"x": 2.0532331961,
				"y": -2.1778036056,
				"z": 3.1958744055,
				"element": "H" 
			},
			{
				"x": -2.6551050821,
				"y": 1.9558454988,
				"z": 1.0820434883,
				"element": "H" 
			},
			{
				"x": -2.7184245077,
				"y": 3.2544313769,
				"z": -1.0072422991,
				"element": "H" 
			}
		],
		 "valence_orbital": [ 
			{
				"type": "occ",
				"energy": -0.25912,
				"method": "rhf"
			},
			{
				"type": "occ",
				"energy": -0.25401,
				"method": "rhf"
			},
			{
				"type": "occ",
				"energy": -0.24563,
				"method": "rhf"
			},
			{
				"type": "occ",
				"energy": -0.24206,
				"method": "rhf"
			},
			{
				"type": "occ",
				"energy": -0.20538,
				"method": "rhf"
			},
			{
				"type": "unocc",
				"energy": -0.03741,
				"method": "rhf"
			},
			{
				"type": "unocc",
				"energy": -0.01177,
				"method": "rhf"
			},
			{
				"type": "unocc",
				"energy": 0.00391,
				"method": "rhf"
			},
			{
				"type": "unocc",
				"energy": 0.01502,
				"method": "rhf"
			},
			{
				"type": "unocc",
				"energy": 0.05213,
				"method": "rhf"
			}
		],
		"cosmo_sigma_profile": { 
			"-0.025": 0.0,
			"-0.024": 0.0,
			"-0.023": 0.0,
			"-0.022": 0.0,
			"-0.021": 0.0,
			"-0.02": 0.0,
			"-0.019": 0.0,
			"-0.018": 0.0,
			"-0.017": 0.0,
			"-0.016": 0.0,
			"-0.015": 0.0575265597563,
			"-0.014": 1.37743120017,
			"-0.013": 3.33736728578,
			"-0.012": 3.90901997088,
			"-0.011": 4.11533299683,
			"-0.01": 3.55360564236,
			"-0.009": 4.01159552806,
			"-0.008": 4.60755029624,
			"-0.007": 6.00235153176,
			"-0.006": 12.3620603636,
			"-0.005": 17.6629412621,
			"-0.004": 19.6389277456,
			"-0.003": 18.779837334,
			"-0.002": 13.5040448131,
			"-0.001": 15.4985976387,
			"0.0": 16.4657762332,
			"0.001": 16.3114974762,
			"0.002": 19.9991972215,
			"0.003": 21.4736583768,
			"0.004": 30.5653576014,
			"0.005": 25.1187830711,
			"0.006": 8.07472987763,
			"0.007": 1.88371622233,
			"0.008": 2.51557920319,
			"0.009": 1.96665461989,
			"0.01": 0.807782654981,
			"0.011": 1.81862750456,
			"0.012": 1.99399281402,
			"0.013": 4.44101913683,
			"0.014": 4.18737891827,
			"0.015": 0.433729260229,
			"0.016": 0.0,
			"0.017": 0.0,
			"0.018": 0.0,
			"0.019": 0.0,
			"0.02": 0.0,
			"0.021": 0.0,
			"0.022": 0.0,
			"0.023": 0.0,
			"0.024": 0.0,
			"0.025": 0.0
		}
	}
}
