{
	 "smiles": "COC1=CC=C2C=C(C=CC2=C1)C(O)=O", 
	 "Tm": 466.15, 
	 "num_atms": 25, 
	 "gaussian": { 
		 "optdone": 1, 
		 "sigma_profile": "yes", 
		 "theory": "DFT", 
		 "functional": "B3LYP", 
		 "basiset": "6-31G**", 
		 "properties": { 
			 "R2extent": 4398.4507, 
			 "electric_dipole_moment_norm": 2.88039205144, 
			 "electric_quadrupole_moment_norm": 18.7869735607, 
			 "total_energy": -688.996873469, 
			 "HOMO_LUMO_gap": 0.16439, 
			 "cosmo_polarized_energy": -11.78, 
			 "cosmo_cavitation_energy": 29.52, 
			 "cosmo_dispersion_energy": -21.87, 
			 "cosmo_repulsion_energy": 1.68, 
			 "cosmo_total_nonelectrostatic_energy": 9.33, 
			 "SMD_solvation_energy": 6.78 
		},
		"coords": [
			{
				"x": -2.8202449008,
				"y": 3.2175521525,
				"z": 0.1521858637,
				"element": "C" 
			},
			{
				"x": -2.5725526562,
				"y": 2.1145966335,
				"z": 1.0119640436,
				"element": "O" 
			},
			{
				"x": -1.4854017661,
				"y": 1.3356785618,
				"z": 0.7618280904,
				"element": "C" 
			},
			{
				"x": -1.3146873645,
				"y": 0.254048593,
				"z": 1.672347603,
				"element": "C" 
			},
			{
				"x": -0.258289933,
				"y": -0.6065352602,
				"z": 1.5319013116,
				"element": "C" 
			},
			{
				"x": 0.6886549893,
				"y": -0.4427729908,
				"z": 0.4800674319,
				"element": "C" 
			},
			{
				"x": 1.7866557086,
				"y": -1.3184619314,
				"z": 0.315394306,
				"element": "C" 
			},
			{
				"x": 2.691487463,
				"y": -1.1346189692,
				"z": -0.7167785666,
				"element": "C" 
			},
			{
				"x": 2.5191260769,
				"y": -0.0548673708,
				"z": -1.6237922156,
				"element": "C" 
			},
			{
				"x": 1.4604727843,
				"y": 0.8090263223,
				"z": -1.4844108178,
				"element": "C" 
			},
			{
				"x": 0.5143352627,
				"y": 0.6459261627,
				"z": -0.4340165875,
				"element": "C" 
			},
			{
				"x": -0.5874399299,
				"y": 1.5276185117,
				"z": -0.271849969,
				"element": "C" 
			},
			{
				"x": 3.8534751554,
				"y": -2.0316256269,
				"z": -0.9205093317,
				"element": "C" 
			},
			{
				"x": 3.9291479928,
				"y": -3.031750404,
				"z": -0.0030031116,
				"element": "O" 
			},
			{
				"x": 4.6760603131,
				"y": -1.9155552226,
				"z": -1.8093951898,
				"element": "O" 
			},
			{
				"x": -3.7253220751,
				"y": 3.6965245375,
				"z": 0.5282335915,
				"element": "H" 
			},
			{
				"x": -2.9854860208,
				"y": 2.8910291389,
				"z": -0.8822638795,
				"element": "H" 
			},
			{
				"x": -1.9926200677,
				"y": 3.9376615264,
				"z": 0.1743102827,
				"element": "H" 
			},
			{
				"x": -2.0428836573,
				"y": 0.1407758236,
				"z": 2.4686288587,
				"element": "H" 
			},
			{
				"x": -0.1308306019,
				"y": -1.4309058727,
				"z": 2.2283026168,
				"element": "H" 
			},
			{
				"x": 1.9176101261,
				"y": -2.142922349,
				"z": 1.0085859415,
				"element": "H" 
			},
			{
				"x": 3.2438667013,
				"y": 0.0635346932,
				"z": -2.4219266821,
				"element": "H" 
			},
			{
				"x": 1.3328077904,
				"y": 1.6335951221,
				"z": -2.1807657736,
				"element": "H" 
			},
			{
				"x": -0.7022737895,
				"y": 2.3455030933,
				"z": -0.9737128212,
				"element": "H" 
			},
			{
				"x": 4.7201323992,
				"y": -3.5418548749,
				"z": -0.2420249955,
				"element": "H" 
			}
		],
		 "valence_orbital": [ 
			{
				"type": "occ",
				"energy": -0.30297,
				"method": "rhf"
			},
			{
				"type": "occ",
				"energy": -0.28694,
				"method": "rhf"
			},
			{
				"type": "occ",
				"energy": -0.271,
				"method": "rhf"
			},
			{
				"type": "occ",
				"energy": -0.23652,
				"method": "rhf"
			},
			{
				"type": "occ",
				"energy": -0.21621,
				"method": "rhf"
			},
			{
				"type": "unocc",
				"energy": -0.05182,
				"method": "rhf"
			},
			{
				"type": "unocc",
				"energy": -0.02869,
				"method": "rhf"
			},
			{
				"type": "unocc",
				"energy": 0.02547,
				"method": "rhf"
			},
			{
				"type": "unocc",
				"energy": 0.04649,
				"method": "rhf"
			},
			{
				"type": "unocc",
				"energy": 0.0824,
				"method": "rhf"
			}
		],
		"cosmo_sigma_profile": { 
			"-0.025": 0.0,
			"-0.024": 0.0,
			"-0.023": 0.0,
			"-0.022": 0.0,
			"-0.021": 0.0,
			"-0.02": 0.0,
			"-0.019": 0.0,
			"-0.018": 0.681407212728,
			"-0.017": 0.690467001648,
			"-0.016": 0.94804009561,
			"-0.015": 1.05114815537,
			"-0.014": 0.585839219642,
			"-0.013": 0.426922942398,
			"-0.012": 0.473686888583,
			"-0.011": 0.618127370337,
			"-0.01": 0.985031941449,
			"-0.009": 0.75613412515,
			"-0.008": 0.440307859,
			"-0.007": 5.47307823047,
			"-0.006": 16.7593944983,
			"-0.005": 18.9277599288,
			"-0.004": 17.9571609509,
			"-0.003": 15.1999616703,
			"-0.002": 13.0844009492,
			"-0.001": 11.3859038947,
			"0.0": 12.0754136998,
			"0.001": 15.9399449141,
			"0.002": 21.1561853615,
			"0.003": 31.1128695523,
			"0.004": 17.3231830097,
			"0.005": 5.27720696206,
			"0.006": 4.57626633197,
			"0.007": 3.8641518184,
			"0.008": 4.11228840447,
			"0.009": 3.18273462229,
			"0.01": 2.39340243649,
			"0.011": 3.05796556865,
			"0.012": 5.06398737036,
			"0.013": 0.455660900255,
			"0.014": 0.0,
			"0.015": 0.0,
			"0.016": 0.0,
			"0.017": 0.0,
			"0.018": 0.0,
			"0.019": 0.0,
			"0.02": 0.0,
			"0.021": 0.0,
			"0.022": 0.0,
			"0.023": 0.0,
			"0.024": 0.0,
			"0.025": 0.0
		}
	}
}
