{
	 "smiles": "OC(=O)C1=CC=C(S1)C=O", 
	 "Tm": 442.15, 
	 "num_atms": 14, 
	 "gaussian": { 
		 "optdone": 1, 
		 "sigma_profile": "yes", 
		 "theory": "DFT", 
		 "functional": "B3LYP", 
		 "basiset": "6-31G**", 
		 "properties": { 
			 "R2extent": 2628.1475, 
			 "electric_dipole_moment_norm": 6.12335078531, 
			 "electric_quadrupole_moment_norm": 11.0991586762, 
			 "total_energy": -854.886907312, 
			 "HOMO_LUMO_gap": 0.17221, 
			 "cosmo_polarized_energy": -19.45, 
			 "cosmo_cavitation_energy": 21.32, 
			 "cosmo_dispersion_energy": -16.11, 
			 "cosmo_repulsion_energy": 1.26, 
			 "cosmo_total_nonelectrostatic_energy": 6.46, 
			 "SMD_solvation_energy": 5.85 
		},
		"coords": [
			{
				"x": -0.9158282145,
				"y": -1.1330891564,
				"z": 1.8460490068,
				"element": "O" 
			},
			{
				"x": 0.1317437889,
				"y": -0.2717542194,
				"z": 1.8956808078,
				"element": "C" 
			},
			{
				"x": 0.429724027,
				"y": 0.2772118862,
				"z": 2.929923223,
				"element": "O" 
			},
			{
				"x": 0.8684265558,
				"y": -0.0485150245,
				"z": 0.6253228099,
				"element": "C" 
			},
			{
				"x": 0.5330523001,
				"y": -0.4009539161,
				"z": -0.6693106112,
				"element": "C" 
			},
			{
				"x": 1.4988331097,
				"y": 0.0195319397,
				"z": -1.6121043977,
				"element": "C" 
			},
			{
				"x": 2.5544739112,
				"y": 0.6896304699,
				"z": -1.0229131013,
				"element": "C" 
			},
			{
				"x": 2.3685582208,
				"y": 0.8194039443,
				"z": 0.6989045608,
				"element": "S" 
			},
			{
				"x": 3.7242791923,
				"y": 1.2541079514,
				"z": -1.7004730591,
				"element": "C" 
			},
			{
				"x": 4.6303761981,
				"y": 1.8367396421,
				"z": -1.1350360129,
				"element": "O" 
			},
			{
				"x": -0.9499991051,
				"y": -1.5886482123,
				"z": 0.9937160279,
				"element": "H" 
			},
			{
				"x": -0.3809889777,
				"y": -0.9164732759,
				"z": -0.9470861077,
				"element": "H" 
			},
			{
				"x": 1.4282889548,
				"y": -0.1538305319,
				"z": -2.68047537,
				"element": "H" 
			},
			{
				"x": 3.7229600388,
				"y": 1.1066385029,
				"z": -2.8015977762,
				"element": "H" 
			}
		],
		 "valence_orbital": [ 
			{
				"type": "occ",
				"energy": -0.33241,
				"method": "rhf"
			},
			{
				"type": "occ",
				"energy": -0.29377,
				"method": "rhf"
			},
			{
				"type": "occ",
				"energy": -0.28735,
				"method": "rhf"
			},
			{
				"type": "occ",
				"energy": -0.27599,
				"method": "rhf"
			},
			{
				"type": "occ",
				"energy": -0.27436,
				"method": "rhf"
			},
			{
				"type": "unocc",
				"energy": -0.10215,
				"method": "rhf"
			},
			{
				"type": "unocc",
				"energy": -0.0307,
				"method": "rhf"
			},
			{
				"type": "unocc",
				"energy": 0.01174,
				"method": "rhf"
			},
			{
				"type": "unocc",
				"energy": 0.03806,
				"method": "rhf"
			},
			{
				"type": "unocc",
				"energy": 0.04553,
				"method": "rhf"
			}
		],
		"cosmo_sigma_profile": { 
			"-0.025": 0.0,
			"-0.024": 0.0,
			"-0.023": 0.0,
			"-0.022": 0.0,
			"-0.021": 0.0,
			"-0.02": 0.286128387771,
			"-0.019": 1.53043582593,
			"-0.018": 0.709273688891,
			"-0.017": 0.804441300752,
			"-0.016": 1.70652278811,
			"-0.015": 0.539198464253,
			"-0.014": 1.54030607784,
			"-0.013": 1.02556588887,
			"-0.012": 1.07895181413,
			"-0.011": 1.45108116256,
			"-0.01": 1.99799311879,
			"-0.009": 5.75218891325,
			"-0.008": 6.94541608775,
			"-0.007": 6.81139331696,
			"-0.006": 5.3279902823,
			"-0.005": 6.74091828965,
			"-0.004": 6.58585414351,
			"-0.003": 7.75295246306,
			"-0.002": 8.7588436794,
			"-0.001": 11.492269208,
			"0.0": 15.7507683206,
			"0.001": 16.0026068525,
			"0.002": 8.97749988438,
			"0.003": 4.27062559362,
			"0.004": 3.75582476096,
			"0.005": 4.20233092445,
			"0.006": 4.39561769221,
			"0.007": 4.03687872463,
			"0.008": 5.13890645914,
			"0.009": 6.52457462528,
			"0.01": 8.46362877123,
			"0.011": 9.47094323245,
			"0.012": 3.72851923171,
			"0.013": 0.381671966034,
			"0.014": 0.0,
			"0.015": 0.0,
			"0.016": 0.0,
			"0.017": 0.0,
			"0.018": 0.0,
			"0.019": 0.0,
			"0.02": 0.0,
			"0.021": 0.0,
			"0.022": 0.0,
			"0.023": 0.0,
			"0.024": 0.0,
			"0.025": 0.0
		}
	}
}
