{
	 "smiles": "CC(C)C1=NC(=CC(C)=N1)N1CCNCC1", 
	 "Tm": 317.15, 
	 "num_atms": 36, 
	 "gaussian": { 
		 "optdone": 1, 
		 "sigma_profile": "yes", 
		 "theory": "DFT", 
		 "functional": "B3LYP", 
		 "basiset": "6-31G**", 
		 "properties": { 
			 "R2extent": 4766.0776, 
			 "electric_dipole_moment_norm": 2.55420345705, 
			 "electric_quadrupole_moment_norm": 7.42530579572, 
			 "total_energy": -688.354333774, 
			 "HOMO_LUMO_gap": 0.20127, 
			 "cosmo_polarized_energy": -10.92, 
			 "cosmo_cavitation_energy": 36.51, 
			 "cosmo_dispersion_energy": -26.19, 
			 "cosmo_repulsion_energy": 2.1, 
			 "cosmo_total_nonelectrostatic_energy": 12.42, 
			 "SMD_solvation_energy": 0.85 
		},
		"coords": [
			{
				"x": -3.722151481,
				"y": 0.9983740184,
				"z": -1.8062191636,
				"element": "C" 
			},
			{
				"x": -3.1003009577,
				"y": 1.1186861808,
				"z": -0.4035431125,
				"element": "C" 
			},
			{
				"x": -3.3756238049,
				"y": 2.5039387783,
				"z": 0.2071907773,
				"element": "C" 
			},
			{
				"x": -1.6067425294,
				"y": 0.8406557582,
				"z": -0.4549343548,
				"element": "C" 
			},
			{
				"x": -1.1643117987,
				"y": -0.2138065494,
				"z": 0.2362124832,
				"element": "N" 
			},
			{
				"x": 0.1600780292,
				"y": -0.4730551071,
				"z": 0.2004342761,
				"element": "C" 
			},
			{
				"x": 1.0257506395,
				"y": 0.3463336154,
				"z": -0.5610702017,
				"element": "C" 
			},
			{
				"x": 0.456891847,
				"y": 1.4162897612,
				"z": -1.2399375781,
				"element": "C" 
			},
			{
				"x": 1.2896324578,
				"y": 2.3509274859,
				"z": -2.0785638304,
				"element": "C" 
			},
			{
				"x": -0.863762353,
				"y": 1.676507067,
				"z": -1.1920552592,
				"element": "N" 
			},
			{
				"x": 0.6170616962,
				"y": -1.5408810105,
				"z": 0.9269156124,
				"element": "N" 
			},
			{
				"x": 2.0347195574,
				"y": -1.8986361093,
				"z": 0.9345980634,
				"element": "C" 
			},
			{
				"x": 2.2982296582,
				"y": -2.9769810772,
				"z": 2.0052531368,
				"element": "C" 
			},
			{
				"x": 1.5912721149,
				"y": -2.7191205625,
				"z": 3.2547812511,
				"element": "N" 
			},
			{
				"x": 0.1273009526,
				"y": -2.6812737377,
				"z": 3.0646677612,
				"element": "C" 
			},
			{
				"x": -0.293497872,
				"y": -2.4678472932,
				"z": 1.5955416384,
				"element": "C" 
			},
			{
				"x": -3.265962627,
				"y": 1.7232804677,
				"z": -2.4867310313,
				"element": "H" 
			},
			{
				"x": -4.8002469878,
				"y": 1.1885198776,
				"z": -1.7665357578,
				"element": "H" 
			},
			{
				"x": -3.5704185088,
				"y": -0.0024599654,
				"z": -2.2242216233,
				"element": "H" 
			},
			{
				"x": -3.533953612,
				"y": 0.3501471914,
				"z": 0.2450215561,
				"element": "H" 
			},
			{
				"x": -2.9050282115,
				"y": 3.285046008,
				"z": -0.3968981824,
				"element": "H" 
			},
			{
				"x": -4.4529016383,
				"y": 2.6978972989,
				"z": 0.2498945081,
				"element": "H" 
			},
			{
				"x": -2.9783893361,
				"y": 2.5763808631,
				"z": 1.2252595184,
				"element": "H" 
			},
			{
				"x": 2.0882578454,
				"y": 0.1546521752,
				"z": -0.6335557681,
				"element": "H" 
			},
			{
				"x": 1.1931254197,
				"y": 3.3756994307,
				"z": -1.7050422495,
				"element": "H" 
			},
			{
				"x": 2.346650685,
				"y": 2.0726854113,
				"z": -2.0777645794,
				"element": "H" 
			},
			{
				"x": 0.924373818,
				"y": 2.3544910825,
				"z": -3.1106823103,
				"element": "H" 
			},
			{
				"x": 2.3702532275,
				"y": -2.2462269962,
				"z": -0.0568253475,
				"element": "H" 
			},
			{
				"x": 2.6266428076,
				"y": -1.0059050212,
				"z": 1.178589746,
				"element": "H" 
			},
			{
				"x": 3.3745704983,
				"y": -3.0317667519,
				"z": 2.1978828008,
				"element": "H" 
			},
			{
				"x": 1.9995899302,
				"y": -3.9645032588,
				"z": 1.6347882419,
				"element": "H" 
			},
			{
				"x": 1.9025377579,
				"y": -1.8259736664,
				"z": 3.6254795135,
				"element": "H" 
			},
			{
				"x": -0.2822296786,
				"y": -1.8803079974,
				"z": 3.6885744806,
				"element": "H" 
			},
			{
				"x": -0.3187581084,
				"y": -3.6216593998,
				"z": 3.4180008424,
				"element": "H" 
			},
			{
				"x": -0.2963072717,
				"y": -3.4286025148,
				"z": 1.0602779606,
				"element": "H" 
			},
			{
				"x": -1.2986521654,
				"y": -2.0548054527,
				"z": 1.5290161816,
				"element": "H" 
			}
		],
		 "valence_orbital": [ 
			{
				"type": "occ",
				"energy": -0.27376,
				"method": "rhf"
			},
			{
				"type": "occ",
				"energy": -0.26263,
				"method": "rhf"
			},
			{
				"type": "occ",
				"energy": -0.23448,
				"method": "rhf"
			},
			{
				"type": "occ",
				"energy": -0.22609,
				"method": "rhf"
			},
			{
				"type": "occ",
				"energy": -0.20922,
				"method": "rhf"
			},
			{
				"type": "unocc",
				"energy": -0.00795,
				"method": "rhf"
			},
			{
				"type": "unocc",
				"energy": 0.00428,
				"method": "rhf"
			},
			{
				"type": "unocc",
				"energy": 0.07108,
				"method": "rhf"
			},
			{
				"type": "unocc",
				"energy": 0.10028,
				"method": "rhf"
			},
			{
				"type": "unocc",
				"energy": 0.10505,
				"method": "rhf"
			}
		],
		"cosmo_sigma_profile": { 
			"-0.025": 0.0,
			"-0.024": 0.0,
			"-0.023": 0.0,
			"-0.022": 0.0,
			"-0.021": 0.0,
			"-0.02": 0.0,
			"-0.019": 0.0,
			"-0.018": 0.0,
			"-0.017": 0.0,
			"-0.016": 0.0,
			"-0.015": 0.0,
			"-0.014": 0.0,
			"-0.013": 0.0,
			"-0.012": 0.0,
			"-0.011": 0.00468605305267,
			"-0.01": 0.98359802315,
			"-0.009": 1.55054141886,
			"-0.008": 1.7060093357,
			"-0.007": 1.73680463253,
			"-0.006": 3.74987569112,
			"-0.005": 12.5715832595,
			"-0.004": 27.2469808653,
			"-0.003": 33.0544776849,
			"-0.002": 33.6307601151,
			"-0.001": 32.8126262615,
			"0.0": 30.8814354725,
			"0.001": 28.6387961338,
			"0.002": 20.1731185484,
			"0.003": 12.5216175636,
			"0.004": 8.82614235639,
			"0.005": 5.00156041484,
			"0.006": 4.2987886058,
			"0.007": 5.12980991937,
			"0.008": 3.4876202747,
			"0.009": 3.96909375924,
			"0.01": 3.73934121103,
			"0.011": 2.02848305255,
			"0.012": 1.58287945556,
			"0.013": 1.13337377629,
			"0.014": 1.43116001754,
			"0.015": 0.479953406448,
			"0.016": 0.84353538105,
			"0.017": 0.479319657314,
			"0.018": 0.581891718961,
			"0.019": 0.0620289980313,
			"0.02": 0.0,
			"0.021": 0.0,
			"0.022": 0.0,
			"0.023": 0.0,
			"0.024": 0.0,
			"0.025": 0.0
		}
	}
}
