{
	 "smiles": "CN1N=NC2=C1C=CC(=C2)C(O)=O", 
	 "Tm": 523.15, 
	 "num_atms": 20, 
	 "gaussian": { 
		 "optdone": 1, 
		 "sigma_profile": "yes", 
		 "theory": "DFT", 
		 "functional": "B3LYP", 
		 "basiset": "6-31G**", 
		 "properties": { 
			 "R2extent": 3098.6553, 
			 "electric_dipole_moment_norm": 4.82524653153, 
			 "electric_quadrupole_moment_norm": 30.225108414, 
			 "total_energy": -623.746513274, 
			 "HOMO_LUMO_gap": 0.19073, 
			 "cosmo_polarized_energy": -19.52, 
			 "cosmo_cavitation_energy": 25.1, 
			 "cosmo_dispersion_energy": -18.63, 
			 "cosmo_repulsion_energy": 1.45, 
			 "cosmo_total_nonelectrostatic_energy": 7.92, 
			 "SMD_solvation_energy": 3.8 
		},
		"coords": [
			{
				"x": 0.7305220576,
				"y": -2.9428003027,
				"z": -2.8744180883,
				"element": "C" 
			},
			{
				"x": 0.6173826058,
				"y": -1.7941380314,
				"z": -1.9973235117,
				"element": "N" 
			},
			{
				"x": 1.6638111514,
				"y": -0.9185780018,
				"z": -1.8721748072,
				"element": "N" 
			},
			{
				"x": 1.3449454686,
				"y": 0.0154879285,
				"z": -1.0403624362,
				"element": "N" 
			},
			{
				"x": 0.0624655776,
				"y": -0.2227280392,
				"z": -0.5926722671,
				"element": "C" 
			},
			{
				"x": -0.4185388756,
				"y": -1.3975509894,
				"z": -1.2065561667,
				"element": "C" 
			},
			{
				"x": -1.699744012,
				"y": -1.9089470756,
				"z": -0.9373191169,
				"element": "C" 
			},
			{
				"x": -2.4720489989,
				"y": -1.196684559,
				"z": -0.0387837997,
				"element": "C" 
			},
			{
				"x": -2.0118341745,
				"y": 0.0019791339,
				"z": 0.5747282404,
				"element": "C" 
			},
			{
				"x": -0.7350742941,
				"y": 0.4911703288,
				"z": 0.3110070323,
				"element": "C" 
			},
			{
				"x": -2.9491035984,
				"y": 0.6641425465,
				"z": 1.5399408916,
				"element": "C" 
			},
			{
				"x": -2.7073341771,
				"y": 1.9681835023,
				"z": 1.8375872455,
				"element": "O" 
			},
			{
				"x": -3.8855301482,
				"y": 0.0930299124,
				"z": 2.0487091885,
				"element": "O" 
			},
			{
				"x": 1.7198479812,
				"y": -2.9037155346,
				"z": -3.3300890477,
				"element": "H" 
			},
			{
				"x": 0.6269105509,
				"y": -3.8731253932,
				"z": -2.3079472672,
				"element": "H" 
			},
			{
				"x": -0.033031974,
				"y": -2.9077553342,
				"z": -3.6572405189,
				"element": "H" 
			},
			{
				"x": -2.068762836,
				"y": -2.8174816022,
				"z": -1.4013244302,
				"element": "H" 
			},
			{
				"x": -3.4652326822,
				"y": -1.5396710268,
				"z": 0.2288482437,
				"element": "H" 
			},
			{
				"x": -0.3259018928,
				"y": 1.3706168663,
				"z": 0.7997751378,
				"element": "H" 
			},
			{
				"x": -2.0455477291,
				"y": 2.3346656715,
				"z": 1.2352154781,
				"element": "H" 
			}
		],
		 "valence_orbital": [ 
			{
				"type": "occ",
				"energy": -0.31855,
				"method": "rhf"
			},
			{
				"type": "occ",
				"energy": -0.2844,
				"method": "rhf"
			},
			{
				"type": "occ",
				"energy": -0.27868,
				"method": "rhf"
			},
			{
				"type": "occ",
				"energy": -0.26713,
				"method": "rhf"
			},
			{
				"type": "occ",
				"energy": -0.25746,
				"method": "rhf"
			},
			{
				"type": "unocc",
				"energy": -0.06673,
				"method": "rhf"
			},
			{
				"type": "unocc",
				"energy": -0.04023,
				"method": "rhf"
			},
			{
				"type": "unocc",
				"energy": 0.01721,
				"method": "rhf"
			},
			{
				"type": "unocc",
				"energy": 0.0505,
				"method": "rhf"
			},
			{
				"type": "unocc",
				"energy": 0.06229,
				"method": "rhf"
			}
		],
		"cosmo_sigma_profile": { 
			"-0.025": 0.0,
			"-0.024": 0.0,
			"-0.023": 0.0,
			"-0.022": 0.0,
			"-0.021": 0.0,
			"-0.02": 0.0,
			"-0.019": 0.371761374598,
			"-0.018": 0.979132869084,
			"-0.017": 1.12300181972,
			"-0.016": 1.17223494295,
			"-0.015": 0.840636636418,
			"-0.014": 1.06888277224,
			"-0.013": 1.19003404569,
			"-0.012": 1.14383012025,
			"-0.011": 1.39402156977,
			"-0.01": 1.3983423056,
			"-0.009": 0.960211799842,
			"-0.008": 4.12709978729,
			"-0.007": 15.6010943227,
			"-0.006": 13.2786306696,
			"-0.005": 11.8178515834,
			"-0.004": 13.0729033184,
			"-0.003": 12.1009878648,
			"-0.002": 10.8355143868,
			"-0.001": 10.0200565482,
			"0.0": 12.9757063967,
			"0.001": 14.6687064018,
			"0.002": 10.2818909806,
			"0.003": 5.48908880957,
			"0.004": 4.38723580185,
			"0.005": 3.66650038107,
			"0.006": 4.07587614854,
			"0.007": 5.40603183213,
			"0.008": 4.83566795168,
			"0.009": 5.93443713295,
			"0.01": 8.74324809648,
			"0.011": 7.85246349717,
			"0.012": 6.49386258899,
			"0.013": 2.54559705049,
			"0.014": 1.26328247711,
			"0.015": 0.646168410411,
			"0.016": 0.0136926201222,
			"0.017": 0.0,
			"0.018": 0.0,
			"0.019": 0.0,
			"0.02": 0.0,
			"0.021": 0.0,
			"0.022": 0.0,
			"0.023": 0.0,
			"0.024": 0.0,
			"0.025": 0.0
		}
	}
}
