{
	 "smiles": "CCOC(=O)C1=C2CC(C)(C)CC(=O)C2=C(SC(C)C)S1", 
	 "Tm": 361.15, 
	 "num_atms": 43, 
	 "gaussian": { 
		 "optdone": 1, 
		 "sigma_profile": "yes", 
		 "theory": "DFT", 
		 "functional": "B3LYP", 
		 "basiset": "6-31G**", 
		 "properties": { 
			 "R2extent": 8592.0357, 
			 "electric_dipole_moment_norm": 4.19930728216, 
			 "electric_quadrupole_moment_norm": 16.3320670253, 
			 "total_energy": -1645.04485518, 
			 "HOMO_LUMO_gap": 0.15252, 
			 "cosmo_polarized_energy": -12.26, 
			 "cosmo_cavitation_energy": 46.73, 
			 "cosmo_dispersion_energy": -31.84, 
			 "cosmo_repulsion_energy": 2.39, 
			 "cosmo_total_nonelectrostatic_energy": 17.28, 
			 "SMD_solvation_energy": 8.43 
		},
		"coords": [
			{
				"x": 0.7476274139,
				"y": -2.8531751916,
				"z": 4.4570685627,
				"element": "C" 
			},
			{
				"x": -0.5344693235,
				"y": -2.1584067155,
				"z": 4.0406430584,
				"element": "C" 
			},
			{
				"x": -0.2318630881,
				"y": -1.3416871807,
				"z": 2.8835165704,
				"element": "O" 
			},
			{
				"x": -1.2749313435,
				"y": -0.6440479885,
				"z": 2.3787007788,
				"element": "C" 
			},
			{
				"x": -2.3975497201,
				"y": -0.6807790199,
				"z": 2.8513477022,
				"element": "O" 
			},
			{
				"x": -0.9204585203,
				"y": 0.170615754,
				"z": 1.2065221359,
				"element": "C" 
			},
			{
				"x": 0.260262501,
				"y": 0.3411767036,
				"z": 0.5084228999,
				"element": "C" 
			},
			{
				"x": 1.5822936233,
				"y": -0.3211959624,
				"z": 0.8201056564,
				"element": "C" 
			},
			{
				"x": 2.5862021261,
				"y": -0.2887443223,
				"z": -0.3557198668,
				"element": "C" 
			},
			{
				"x": 2.1575943748,
				"y": -1.2746158022,
				"z": -1.4618188177,
				"element": "C" 
			},
			{
				"x": 3.9785091376,
				"y": -0.6893240247,
				"z": 0.1609253276,
				"element": "C" 
			},
			{
				"x": 2.6379736871,
				"y": 1.1513486724,
				"z": -0.9115732021,
				"element": "C" 
			},
			{
				"x": 1.2905953939,
				"y": 1.6764104105,
				"z": -1.390070544,
				"element": "C" 
			},
			{
				"x": 1.2134680822,
				"y": 2.390303401,
				"z": -2.3821080248,
				"element": "O" 
			},
			{
				"x": 0.1235767794,
				"y": 1.2882567986,
				"z": -0.5656169841,
				"element": "C" 
			},
			{
				"x": -1.1685485451,
				"y": 1.8134689158,
				"z": -0.6668625325,
				"element": "C" 
			},
			{
				"x": -1.8570658524,
				"y": 3.0848162904,
				"z": -1.6751558691,
				"element": "S" 
			},
			{
				"x": -1.6972439864,
				"y": 2.4433347269,
				"z": -3.4203257903,
				"element": "C" 
			},
			{
				"x": -2.4755968216,
				"y": 1.1458004,
				"z": -3.623544831,
				"element": "C" 
			},
			{
				"x": -2.1890504233,
				"y": 3.5758960047,
				"z": -4.3254131649,
				"element": "C" 
			},
			{
				"x": -2.2092955023,
				"y": 1.1409875744,
				"z": 0.5407730739,
				"element": "S" 
			},
			{
				"x": 0.5603669636,
				"y": -3.4765968831,
				"z": 5.336804977,
				"element": "H" 
			},
			{
				"x": 1.5235492869,
				"y": -2.1253528022,
				"z": 4.7112809872,
				"element": "H" 
			},
			{
				"x": 1.1249854574,
				"y": -3.4959488667,
				"z": 3.6563182963,
				"element": "H" 
			},
			{
				"x": -1.3219604486,
				"y": -2.8697837501,
				"z": 3.7736067169,
				"element": "H" 
			},
			{
				"x": -0.9293046398,
				"y": -1.513204937,
				"z": 4.8313024497,
				"element": "H" 
			},
			{
				"x": 2.0280403359,
				"y": 0.1948426531,
				"z": 1.6827330289,
				"element": "H" 
			},
			{
				"x": 1.4152058548,
				"y": -1.3495200978,
				"z": 1.1492371205,
				"element": "H" 
			},
			{
				"x": 2.1532309279,
				"y": -2.3019847677,
				"z": -1.0816746479,
				"element": "H" 
			},
			{
				"x": 2.851252425,
				"y": -1.2332940191,
				"z": -2.3085218358,
				"element": "H" 
			},
			{
				"x": 1.1545095884,
				"y": -1.0583163976,
				"z": -1.8425702194,
				"element": "H" 
			},
			{
				"x": 3.9603126501,
				"y": -1.6959717729,
				"z": 0.5937447914,
				"element": "H" 
			},
			{
				"x": 4.3320002681,
				"y": 0.0023272752,
				"z": 0.9338139068,
				"element": "H" 
			},
			{
				"x": 4.7128534269,
				"y": -0.6889004567,
				"z": -0.6518079639,
				"element": "H" 
			},
			{
				"x": 2.9914820297,
				"y": 1.8293012096,
				"z": -0.1199549442,
				"element": "H" 
			},
			{
				"x": 3.3391089689,
				"y": 1.2400725818,
				"z": -1.7468360163,
				"element": "H" 
			},
			{
				"x": -0.6277003285,
				"y": 2.2881810639,
				"z": -3.5685656951,
				"element": "H" 
			},
			{
				"x": -2.1262687552,
				"y": 0.3556955313,
				"z": -2.9528517552,
				"element": "H" 
			},
			{
				"x": -2.3387611618,
				"y": 0.7939886933,
				"z": -4.653440604,
				"element": "H" 
			},
			{
				"x": -3.5469574123,
				"y": 1.2919849319,
				"z": -3.4517902064,
				"element": "H" 
			},
			{
				"x": -1.6001334184,
				"y": 4.4868059972,
				"z": -4.1863401249,
				"element": "H" 
			},
			{
				"x": -3.2431237597,
				"y": 3.8106240815,
				"z": -4.1402502009,
				"element": "H" 
			},
			{
				"x": -2.0939182518,
				"y": 3.2685112873,
				"z": -5.3723541997,
				"element": "H" 
			}
		],
		 "valence_orbital": [ 
			{
				"type": "occ",
				"energy": -0.28087,
				"method": "rhf"
			},
			{
				"type": "occ",
				"energy": -0.26096,
				"method": "rhf"
			},
			{
				"type": "occ",
				"energy": -0.25792,
				"method": "rhf"
			},
			{
				"type": "occ",
				"energy": -0.24636,
				"method": "rhf"
			},
			{
				"type": "occ",
				"energy": -0.22194,
				"method": "rhf"
			},
			{
				"type": "unocc",
				"energy": -0.06942,
				"method": "rhf"
			},
			{
				"type": "unocc",
				"energy": -0.04021,
				"method": "rhf"
			},
			{
				"type": "unocc",
				"energy": 0.02368,
				"method": "rhf"
			},
			{
				"type": "unocc",
				"energy": 0.03866,
				"method": "rhf"
			},
			{
				"type": "unocc",
				"energy": 0.06044,
				"method": "rhf"
			}
		],
		"cosmo_sigma_profile": { 
			"-0.025": 0.0,
			"-0.024": 0.0,
			"-0.023": 0.0,
			"-0.022": 0.0,
			"-0.021": 0.0,
			"-0.02": 0.0,
			"-0.019": 0.0,
			"-0.018": 0.0,
			"-0.017": 0.0,
			"-0.016": 0.0,
			"-0.015": 0.0,
			"-0.014": 0.0,
			"-0.013": 0.0,
			"-0.012": 0.0,
			"-0.011": 0.0,
			"-0.01": 0.0,
			"-0.009": 0.0,
			"-0.008": 0.0,
			"-0.007": 0.000620521800333,
			"-0.006": 4.27882896934,
			"-0.005": 13.0326637617,
			"-0.004": 31.4165345141,
			"-0.003": 48.9938643819,
			"-0.002": 47.0506881634,
			"-0.001": 52.8019902735,
			"0.0": 54.2603944068,
			"0.001": 36.8453018378,
			"0.002": 18.2573245753,
			"0.003": 10.7890263821,
			"0.004": 7.91797435379,
			"0.005": 6.90077821863,
			"0.006": 6.10400439557,
			"0.007": 4.58497579746,
			"0.008": 4.31339720465,
			"0.009": 3.8495967236,
			"0.01": 4.55104712599,
			"0.011": 6.01549384952,
			"0.012": 5.9135113735,
			"0.013": 1.4474951198,
			"0.014": 0.131206961695,
			"0.015": 0.0,
			"0.016": 0.0,
			"0.017": 0.0,
			"0.018": 0.0,
			"0.019": 0.0,
			"0.02": 0.0,
			"0.021": 0.0,
			"0.022": 0.0,
			"0.023": 0.0,
			"0.024": 0.0,
			"0.025": 0.0
		}
	}
}
