{
	 "smiles": "CC1=CC=C(CNC(=O)C2=CC(=CC=C2)C#N)C=C1", 
	 "Tm": 408.15, 
	 "num_atms": 33, 
	 "gaussian": { 
		 "optdone": 1, 
		 "sigma_profile": "yes", 
		 "theory": "DFT", 
		 "functional": "B3LYP", 
		 "basiset": "6-31G**", 
		 "properties": { 
			 "R2extent": 7993.819, 
			 "electric_dipole_moment_norm": 4.17025096727, 
			 "electric_quadrupole_moment_norm": 28.8624384812, 
			 "total_energy": -802.872144987, 
			 "HOMO_LUMO_gap": 0.1822, 
			 "cosmo_polarized_energy": -16.8, 
			 "cosmo_cavitation_energy": 38.98, 
			 "cosmo_dispersion_energy": -26.64, 
			 "cosmo_repulsion_energy": 2.06, 
			 "cosmo_total_nonelectrostatic_energy": 14.4, 
			 "SMD_solvation_energy": 8.02 
		},
		"coords": [
			{
				"x": -0.561842004,
				"y": 3.8205216305,
				"z": -4.7917606399,
				"element": "C" 
			},
			{
				"x": -0.0885454779,
				"y": 2.9674481648,
				"z": -3.6386821127,
				"element": "C" 
			},
			{
				"x": 0.1124886516,
				"y": 1.5877911362,
				"z": -3.8006627757,
				"element": "C" 
			},
			{
				"x": 0.5708504703,
				"y": 0.7981195163,
				"z": -2.7499995894,
				"element": "C" 
			},
			{
				"x": 0.8441239054,
				"y": 1.3640571261,
				"z": -1.4963821062,
				"element": "C" 
			},
			{
				"x": 1.3199144481,
				"y": 0.506093673,
				"z": -0.339072667,
				"element": "C" 
			},
			{
				"x": 2.501735867,
				"y": -0.2856705831,
				"z": -0.6905830395,
				"element": "N" 
			},
			{
				"x": 2.6971984794,
				"y": -1.6412095638,
				"z": -0.6068660382,
				"element": "C" 
			},
			{
				"x": 3.5514069622,
				"y": -2.2041328996,
				"z": -1.2852857798,
				"element": "O" 
			},
			{
				"x": 1.8682612473,
				"y": -2.4358668235,
				"z": 0.3694819407,
				"element": "C" 
			},
			{
				"x": 1.5105440107,
				"y": -1.9592255607,
				"z": 1.6329997103,
				"element": "C" 
			},
			{
				"x": 0.8127125616,
				"y": -2.7892277461,
				"z": 2.5266562878,
				"element": "C" 
			},
			{
				"x": 0.4664673074,
				"y": -4.0970436121,
				"z": 2.1505638786,
				"element": "C" 
			},
			{
				"x": 0.8382736384,
				"y": -4.5719843077,
				"z": 0.894031418,
				"element": "C" 
			},
			{
				"x": 1.5464665727,
				"y": -3.7544537146,
				"z": 0.0158609325,
				"element": "C" 
			},
			{
				"x": 0.4555378631,
				"y": -2.2953173055,
				"z": 3.8254555681,
				"element": "C" 
			},
			{
				"x": 0.1632717954,
				"y": -1.890392189,
				"z": 4.8760513729,
				"element": "N" 
			},
			{
				"x": 0.6483827622,
				"y": 2.7375832133,
				"z": -1.3306776843,
				"element": "C" 
			},
			{
				"x": 0.1844423725,
				"y": 3.5261416868,
				"z": -2.3855863402,
				"element": "C" 
			},
			{
				"x": -0.9493070005,
				"y": 4.7826790589,
				"z": -4.4453243605,
				"element": "H" 
			},
			{
				"x": 0.2559276544,
				"y": 4.0283237054,
				"z": -5.4929048334,
				"element": "H" 
			},
			{
				"x": -1.3534727404,
				"y": 3.3213994281,
				"z": -5.3599936603,
				"element": "H" 
			},
			{
				"x": -0.096261615,
				"y": 1.1272561331,
				"z": -4.7633652573,
				"element": "H" 
			},
			{
				"x": 0.7206722028,
				"y": -0.2674908261,
				"z": -2.9036048142,
				"element": "H" 
			},
			{
				"x": 1.5305339018,
				"y": 1.1514189392,
				"z": 0.5239823658,
				"element": "H" 
			},
			{
				"x": 0.5276205844,
				"y": -0.1831011434,
				"z": -0.0332719021,
				"element": "H" 
			},
			{
				"x": 3.1382030603,
				"y": 0.1427653997,
				"z": -1.3526735237,
				"element": "H" 
			},
			{
				"x": 1.7891491199,
				"y": -0.9600284948,
				"z": 1.948201291,
				"element": "H" 
			},
			{
				"x": -0.0785223354,
				"y": -4.7278595426,
				"z": 2.8447250119,
				"element": "H" 
			},
			{
				"x": 0.582637156,
				"y": -5.5864895045,
				"z": 0.604825431,
				"element": "H" 
			},
			{
				"x": 1.8721836781,
				"y": -4.1222273968,
				"z": -0.9512330372,
				"element": "H" 
			},
			{
				"x": 0.8565168994,
				"y": 3.1978753102,
				"z": -0.3676561122,
				"element": "H" 
			},
			{
				"x": 0.0377280008,
				"y": 4.5922470925,
				"z": -2.2315489347,
				"element": "H" 
			}
		],
		 "valence_orbital": [ 
			{
				"type": "occ",
				"energy": -0.27467,
				"method": "rhf"
			},
			{
				"type": "occ",
				"energy": -0.26994,
				"method": "rhf"
			},
			{
				"type": "occ",
				"energy": -0.25936,
				"method": "rhf"
			},
			{
				"type": "occ",
				"energy": -0.25278,
				"method": "rhf"
			},
			{
				"type": "occ",
				"energy": -0.24298,
				"method": "rhf"
			},
			{
				"type": "unocc",
				"energy": -0.06078,
				"method": "rhf"
			},
			{
				"type": "unocc",
				"energy": -0.04592,
				"method": "rhf"
			},
			{
				"type": "unocc",
				"energy": -0.0137,
				"method": "rhf"
			},
			{
				"type": "unocc",
				"energy": -0.01185,
				"method": "rhf"
			},
			{
				"type": "unocc",
				"energy": 0.02785,
				"method": "rhf"
			}
		],
		"cosmo_sigma_profile": { 
			"-0.025": 0.0,
			"-0.024": 0.0,
			"-0.023": 0.0,
			"-0.022": 0.0,
			"-0.021": 0.0,
			"-0.02": 0.0,
			"-0.019": 0.0,
			"-0.018": 0.0,
			"-0.017": 0.0,
			"-0.016": 0.0,
			"-0.015": 0.0,
			"-0.014": 0.0,
			"-0.013": 0.516525671167,
			"-0.012": 0.767708356415,
			"-0.011": 0.857600884127,
			"-0.01": 0.628781535174,
			"-0.009": 1.54921608409,
			"-0.008": 5.90952764996,
			"-0.007": 10.2132826973,
			"-0.006": 14.8539847258,
			"-0.005": 24.5629846628,
			"-0.004": 26.9291925284,
			"-0.003": 28.6131095919,
			"-0.002": 25.4456308569,
			"-0.001": 24.1447978637,
			"0.0": 26.0511326061,
			"0.001": 23.1188441452,
			"0.002": 16.7569786158,
			"0.003": 11.8285646399,
			"0.004": 10.9878561099,
			"0.005": 11.1189837598,
			"0.006": 10.0163611041,
			"0.007": 5.1737858205,
			"0.008": 4.83527869659,
			"0.009": 4.36312352663,
			"0.01": 4.41384657906,
			"0.011": 4.24492930488,
			"0.012": 4.8533215386,
			"0.013": 5.78793186159,
			"0.014": 3.49531120088,
			"0.015": 0.069137700856,
			"0.016": 0.0,
			"0.017": 0.0,
			"0.018": 0.0,
			"0.019": 0.0,
			"0.02": 0.0,
			"0.021": 0.0,
			"0.022": 0.0,
			"0.023": 0.0,
			"0.024": 0.0,
			"0.025": 0.0
		}
	}
}
