{
	 "smiles": "OC(=O)CSC1=NN=C(N1C1CC1)C1=CC=CS1", 
	 "Tm": 503.15, 
	 "num_atms": 29, 
	 "gaussian": { 
		 "optdone": 1, 
		 "sigma_profile": "yes", 
		 "theory": "DFT", 
		 "functional": "B3LYP", 
		 "basiset": "6-31G**", 
		 "properties": { 
			 "R2extent": 6415.6158, 
			 "electric_dipole_moment_norm": 5.51997263852, 
			 "electric_quadrupole_moment_norm": 12.6994393841, 
			 "total_energy": -1536.81266708, 
			 "HOMO_LUMO_gap": 0.16893, 
			 "cosmo_polarized_energy": -21.42, 
			 "cosmo_cavitation_energy": 36.39, 
			 "cosmo_dispersion_energy": -26.49, 
			 "cosmo_repulsion_energy": 1.99, 
			 "cosmo_total_nonelectrostatic_energy": 11.89, 
			 "SMD_solvation_energy": 4.91 
		},
		"coords": [
			{
				"x": 0.9424645231,
				"y": -2.8767596249,
				"z": 3.0921461145,
				"element": "O" 
			},
			{
				"x": 2.1354852821,
				"y": -2.2572821336,
				"z": 3.0144427654,
				"element": "C" 
			},
			{
				"x": 3.1881055839,
				"y": -2.8435856637,
				"z": 2.9162837511,
				"element": "O" 
			},
			{
				"x": 2.0668923676,
				"y": -0.7408045076,
				"z": 3.1301664878,
				"element": "C" 
			},
			{
				"x": 0.4517794648,
				"y": 0.0788708785,
				"z": 2.8953373477,
				"element": "S" 
			},
			{
				"x": 0.2741787991,
				"y": -0.2260898092,
				"z": 1.1680892097,
				"element": "C" 
			},
			{
				"x": 1.1346754525,
				"y": -0.8719953271,
				"z": 0.4163510926,
				"element": "N" 
			},
			{
				"x": 0.6573757244,
				"y": -0.8380371002,
				"z": -0.8734833912,
				"element": "N" 
			},
			{
				"x": -0.485782233,
				"y": -0.1800382158,
				"z": -0.8701845723,
				"element": "C" 
			},
			{
				"x": -0.7933868251,
				"y": 0.2244013251,
				"z": 0.4245959645,
				"element": "N" 
			},
			{
				"x": -1.9379776775,
				"y": 0.9529221971,
				"z": 0.9109810096,
				"element": "C" 
			},
			{
				"x": -2.73397404,
				"y": 0.3789864553,
				"z": 2.0633313467,
				"element": "C" 
			},
			{
				"x": -3.3212659516,
				"y": 0.3942337634,
				"z": 0.6814549153,
				"element": "C" 
			},
			{
				"x": -1.2619175184,
				"y": 0.0512197967,
				"z": -2.0784895132,
				"element": "C" 
			},
			{
				"x": -1.1590924409,
				"y": -0.7037940625,
				"z": -3.2262331855,
				"element": "C" 
			},
			{
				"x": -1.9310548449,
				"y": -0.1951005379,
				"z": -4.3066118182,
				"element": "C" 
			},
			{
				"x": -2.6102999319,
				"y": 0.9483238405,
				"z": -3.9825332609,
				"element": "C" 
			},
			{
				"x": -2.3178073374,
				"y": 1.4244083792,
				"z": -2.3429262846,
				"element": "S" 
			},
			{
				"x": 1.1316005128,
				"y": -3.8258174911,
				"z": 3.0009232795,
				"element": "H" 
			},
			{
				"x": 2.7934567956,
				"y": -0.3328869,
				"z": 2.427195486,
				"element": "H" 
			},
			{
				"x": 2.3752109091,
				"y": -0.4649829908,
				"z": 4.143678654,
				"element": "H" 
			},
			{
				"x": -1.817644627,
				"y": 2.0329974043,
				"z": 0.8760871425,
				"element": "H" 
			},
			{
				"x": -2.4148356642,
				"y": -0.5762976177,
				"z": 2.4652312409,
				"element": "H" 
			},
			{
				"x": -3.1019238685,
				"y": 1.0810944502,
				"z": 2.8042411178,
				"element": "H" 
			},
			{
				"x": -3.3911101281,
				"y": -0.5509385513,
				"z": 0.1540200416,
				"element": "H" 
			},
			{
				"x": -4.1072717021,
				"y": 1.1029495382,
				"z": 0.4441860495,
				"element": "H" 
			},
			{
				"x": -0.5331778787,
				"y": -1.586194625,
				"z": -3.2724661613,
				"element": "H" 
			},
			{
				"x": -1.9846727634,
				"y": -0.6638377515,
				"z": -5.2824221251,
				"element": "H" 
			},
			{
				"x": -3.2813299823,
				"y": 1.5314348812,
				"z": -4.5978927045,
				"element": "H" 
			}
		],
		 "valence_orbital": [ 
			{
				"type": "occ",
				"energy": -0.27859,
				"method": "rhf"
			},
			{
				"type": "occ",
				"energy": -0.25845,
				"method": "rhf"
			},
			{
				"type": "occ",
				"energy": -0.25384,
				"method": "rhf"
			},
			{
				"type": "occ",
				"energy": -0.25075,
				"method": "rhf"
			},
			{
				"type": "occ",
				"energy": -0.20955,
				"method": "rhf"
			},
			{
				"type": "unocc",
				"energy": -0.04062,
				"method": "rhf"
			},
			{
				"type": "unocc",
				"energy": 0.00646,
				"method": "rhf"
			},
			{
				"type": "unocc",
				"energy": 0.01642,
				"method": "rhf"
			},
			{
				"type": "unocc",
				"energy": 0.02098,
				"method": "rhf"
			},
			{
				"type": "unocc",
				"energy": 0.02813,
				"method": "rhf"
			}
		],
		"cosmo_sigma_profile": { 
			"-0.025": 0.0,
			"-0.024": 0.0,
			"-0.023": 0.0,
			"-0.022": 0.0,
			"-0.021": 0.0,
			"-0.02": 0.0,
			"-0.019": 0.25920934716,
			"-0.018": 1.11366879135,
			"-0.017": 0.704359984327,
			"-0.016": 0.741215243482,
			"-0.015": 0.995709607062,
			"-0.014": 0.569792221152,
			"-0.013": 0.59001199167,
			"-0.012": 1.18755633023,
			"-0.011": 0.996335989635,
			"-0.01": 3.29974531923,
			"-0.009": 3.87709731014,
			"-0.008": 6.67886593941,
			"-0.007": 11.2839451928,
			"-0.006": 19.9858866632,
			"-0.005": 20.2679399549,
			"-0.004": 19.7452321396,
			"-0.003": 16.3669322371,
			"-0.002": 17.727715198,
			"-0.001": 16.5261321023,
			"0.0": 17.8815147231,
			"0.001": 19.5719986752,
			"0.002": 18.3535738454,
			"0.003": 19.9958035454,
			"0.004": 16.4734094034,
			"0.005": 9.28289552024,
			"0.006": 6.39389398422,
			"0.007": 6.49692504394,
			"0.008": 5.65647971511,
			"0.009": 5.7105231873,
			"0.01": 5.31313484411,
			"0.011": 7.30383849223,
			"0.012": 5.11809712475,
			"0.013": 3.62471149364,
			"0.014": 1.95792873237,
			"0.015": 1.10203071122,
			"0.016": 0.742283374458,
			"0.017": 0.0,
			"0.018": 0.0,
			"0.019": 0.0,
			"0.02": 0.0,
			"0.021": 0.0,
			"0.022": 0.0,
			"0.023": 0.0,
			"0.024": 0.0,
			"0.025": 0.0
		}
	}
}
