{
	 "smiles": "CNC1=CC(=C(N)C=C1)C(F)(F)F", 
	 "Tm": 360.15, 
	 "num_atms": 22, 
	 "gaussian": { 
		 "optdone": 1, 
		 "sigma_profile": "yes", 
		 "theory": "DFT", 
		 "functional": "B3LYP", 
		 "basiset": "6-31G**", 
		 "properties": { 
			 "R2extent": 2926.2777, 
			 "electric_dipole_moment_norm": 3.41543112506, 
			 "electric_quadrupole_moment_norm": 10.148345169, 
			 "total_energy": -719.307119373, 
			 "HOMO_LUMO_gap": 0.16612, 
			 "cosmo_polarized_energy": -10.02, 
			 "cosmo_cavitation_energy": 26.46, 
			 "cosmo_dispersion_energy": -19.2, 
			 "cosmo_repulsion_energy": 1.47, 
			 "cosmo_total_nonelectrostatic_energy": 8.73, 
			 "SMD_solvation_energy": 4.67 
		},
		"coords": [
			{
				"x": 1.6956702826,
				"y": -0.5586523816,
				"z": -3.0947980318,
				"element": "C" 
			},
			{
				"x": 0.4215640017,
				"y": -0.8532539717,
				"z": -2.4667660667,
				"element": "N" 
			},
			{
				"x": 0.04583433,
				"y": -0.2090472888,
				"z": -1.2828565306,
				"element": "C" 
			},
			{
				"x": 0.9568526854,
				"y": 0.4831405664,
				"z": -0.4771982817,
				"element": "C" 
			},
			{
				"x": 0.5596427849,
				"y": 1.0744780497,
				"z": 0.7292328653,
				"element": "C" 
			},
			{
				"x": -0.7772343983,
				"y": 1.0067901106,
				"z": 1.1698105107,
				"element": "C" 
			},
			{
				"x": -1.1977739437,
				"y": 1.5385413891,
				"z": 2.392350394,
				"element": "N" 
			},
			{
				"x": -1.6855828826,
				"y": 0.315395009,
				"z": 0.3478640622,
				"element": "C" 
			},
			{
				"x": -1.2885625183,
				"y": -0.2791246865,
				"z": -0.8393382153,
				"element": "C" 
			},
			{
				"x": 1.5903135355,
				"y": 1.7670368572,
				"z": 1.5716849553,
				"element": "C" 
			},
			{
				"x": 1.2093952742,
				"y": 3.0417812457,
				"z": 1.8960853487,
				"element": "F" 
			},
			{
				"x": 2.7870831186,
				"y": 1.8712047559,
				"z": 0.9581133776,
				"element": "F" 
			},
			{
				"x": 1.8015878285,
				"y": 1.138016732,
				"z": 2.7510264146,
				"element": "F" 
			},
			{
				"x": 2.5218642595,
				"y": -0.9116105838,
				"z": -2.4676798518,
				"element": "H" 
			},
			{
				"x": 1.7530657109,
				"y": -1.0977724722,
				"z": -4.0432865222,
				"element": "H" 
			},
			{
				"x": 1.8569252472,
				"y": 0.5140877758,
				"z": -3.2924943979,
				"element": "H" 
			},
			{
				"x": -0.3410920946,
				"y": -0.9543916924,
				"z": -3.1218458756,
				"element": "H" 
			},
			{
				"x": 1.993028281,
				"y": 0.5750041796,
				"z": -0.7744884262,
				"element": "H" 
			},
			{
				"x": -0.6682532892,
				"y": 2.3339809392,
				"z": 2.7204100851,
				"element": "H" 
			},
			{
				"x": -2.1933874028,
				"y": 1.7030842275,
				"z": 2.4479150081,
				"element": "H" 
			},
			{
				"x": -2.725059316,
				"y": 0.2434439615,
				"z": 0.6585959674,
				"element": "H" 
			},
			{
				"x": -2.0228814948,
				"y": -0.811332722,
				"z": -1.4398367891,
				"element": "H" 
			}
		],
		 "valence_orbital": [ 
			{
				"type": "occ",
				"energy": -0.3422,
				"method": "rhf"
			},
			{
				"type": "occ",
				"energy": -0.32817,
				"method": "rhf"
			},
			{
				"type": "occ",
				"energy": -0.26088,
				"method": "rhf"
			},
			{
				"type": "occ",
				"energy": -0.25318,
				"method": "rhf"
			},
			{
				"type": "occ",
				"energy": -0.17914,
				"method": "rhf"
			},
			{
				"type": "unocc",
				"energy": -0.01302,
				"method": "rhf"
			},
			{
				"type": "unocc",
				"energy": 0.02316,
				"method": "rhf"
			},
			{
				"type": "unocc",
				"energy": 0.08198,
				"method": "rhf"
			},
			{
				"type": "unocc",
				"energy": 0.09147,
				"method": "rhf"
			},
			{
				"type": "unocc",
				"energy": 0.11003,
				"method": "rhf"
			}
		],
		"cosmo_sigma_profile": { 
			"-0.025": 0.0,
			"-0.024": 0.0,
			"-0.023": 0.0,
			"-0.022": 0.0,
			"-0.021": 0.0,
			"-0.02": 0.0,
			"-0.019": 0.0,
			"-0.018": 0.0,
			"-0.017": 0.0,
			"-0.016": 0.0,
			"-0.015": 0.0,
			"-0.014": 0.0,
			"-0.013": 0.251936280674,
			"-0.012": 2.41038222244,
			"-0.011": 2.77797073045,
			"-0.01": 4.22496265228,
			"-0.009": 4.52576390333,
			"-0.008": 3.48063528911,
			"-0.007": 4.56731208367,
			"-0.006": 7.24541220244,
			"-0.005": 10.3729761888,
			"-0.004": 10.213761354,
			"-0.003": 12.309410108,
			"-0.002": 12.2546674989,
			"-0.001": 16.6544048336,
			"0.0": 11.8202539494,
			"0.001": 12.9723409553,
			"0.002": 17.8062728931,
			"0.003": 31.3092160382,
			"0.004": 12.6570528775,
			"0.005": 12.8500041621,
			"0.006": 7.69315002459,
			"0.007": 2.49065478371,
			"0.008": 2.5185808289,
			"0.009": 0.931757960031,
			"0.01": 1.26773607536,
			"0.011": 1.2102023111,
			"0.012": 1.45392711011,
			"0.013": 1.08425059072,
			"0.014": 0.459040859353,
			"0.015": 0.0944571809085,
			"0.016": 0.0,
			"0.017": 0.0,
			"0.018": 0.0,
			"0.019": 0.0,
			"0.02": 0.0,
			"0.021": 0.0,
			"0.022": 0.0,
			"0.023": 0.0,
			"0.024": 0.0,
			"0.025": 0.0
		}
	}
}
