{
	 "smiles": "NS(=O)(=O)C1=C(Br)C=C2CCCC(=O)NC2=C1", 
	 "Tm": 523.15, 
	 "num_atms": 28, 
	 "gaussian": { 
		 "optdone": 1, 
		 "sigma_profile": "yes", 
		 "theory": "DFT", 
		 "functional": "B3LYP", 
		 "basiset": "6-31G**", 
		 "properties": { 
			 "R2extent": 6654.5394, 
			 "electric_dipole_moment_norm": 1.9387205188, 
			 "electric_quadrupole_moment_norm": 37.8325526472, 
			 "total_energy": -3692.40573406, 
			 "HOMO_LUMO_gap": 0.18957, 
			 "cosmo_polarized_energy": -24.14, 
			 "cosmo_cavitation_energy": 34.55, 
			 "cosmo_dispersion_energy": -26.01, 
			 "cosmo_repulsion_energy": 1.98, 
			 "cosmo_total_nonelectrostatic_energy": 10.52, 
			 "SMD_solvation_energy": 4.69 
		},
		"coords": [
			{
				"x": 3.596128449,
				"y": -1.7104714616,
				"z": 1.1601056025,
				"element": "N" 
			},
			{
				"x": 2.5109442197,
				"y": -2.5232058773,
				"z": 0.1433776762,
				"element": "S" 
			},
			{
				"x": 1.893433008,
				"y": -3.587117251,
				"z": 0.9360713126,
				"element": "O" 
			},
			{
				"x": 3.2188828344,
				"y": -2.795759489,
				"z": -1.1081101754,
				"element": "O" 
			},
			{
				"x": 1.2597696401,
				"y": -1.2597427393,
				"z": -0.1795246829,
				"element": "C" 
			},
			{
				"x": 0.15827749,
				"y": -1.5379320895,
				"z": -1.0004183515,
				"element": "C" 
			},
			{
				"x": -0.110381427,
				"y": -3.2287850708,
				"z": -1.8295074382,
				"element": "Br" 
			},
			{
				"x": -0.7853607817,
				"y": -0.5405883411,
				"z": -1.2442720458,
				"element": "C" 
			},
			{
				"x": -0.668057065,
				"y": 0.735814231,
				"z": -0.6915311085,
				"element": "C" 
			},
			{
				"x": -1.6305127493,
				"y": 1.8453768982,
				"z": -1.0434011808,
				"element": "C" 
			},
			{
				"x": -2.5270751704,
				"y": 2.3107705336,
				"z": 0.1239323183,
				"element": "C" 
			},
			{
				"x": -1.7787794356,
				"y": 2.4084099717,
				"z": 1.4709178095,
				"element": "C" 
			},
			{
				"x": -0.3932282175,
				"y": 3.0325317449,
				"z": 1.3887147734,
				"element": "C" 
			},
			{
				"x": -0.10404988,
				"y": 4.1144244375,
				"z": 1.8727871469,
				"element": "O" 
			},
			{
				"x": 0.5797467157,
				"y": 2.2654673159,
				"z": 0.757222809,
				"element": "N" 
			},
			{
				"x": 0.4199508379,
				"y": 0.993955796,
				"z": 0.1666349893,
				"element": "C" 
			},
			{
				"x": 1.3756937003,
				"y": 0.0018398117,
				"z": 0.4050862588,
				"element": "C" 
			},
			{
				"x": 3.6341633186,
				"y": -2.1950726827,
				"z": 2.0529769946,
				"element": "H" 
			},
			{
				"x": 4.5073891702,
				"y": -1.6836196924,
				"z": 0.7102636908,
				"element": "H" 
			},
			{
				"x": -1.6168479895,
				"y": -0.7609120449,
				"z": -1.9050632756,
				"element": "H" 
			},
			{
				"x": -2.2545607713,
				"y": 1.5398142615,
				"z": -1.8885431994,
				"element": "H" 
			},
			{
				"x": -1.0343262392,
				"y": 2.7019887522,
				"z": -1.3845356842,
				"element": "H" 
			},
			{
				"x": -2.9546627197,
				"y": 3.2853076415,
				"z": -0.1347004079,
				"element": "H" 
			},
			{
				"x": -3.3677223886,
				"y": 1.6195001078,
				"z": 0.2505313523,
				"element": "H" 
			},
			{
				"x": -1.6701293562,
				"y": 1.4022556629,
				"z": 1.8938977551,
				"element": "H" 
			},
			{
				"x": -2.3491337444,
				"y": 3.009833357,
				"z": 2.180910443,
				"element": "H" 
			},
			{
				"x": 1.5170388607,
				"y": 2.6331849888,
				"z": 0.8664325097,
				"element": "H" 
			},
			{
				"x": 2.2176096909,
				"y": 0.2020312276,
				"z": 1.0568441083,
				"element": "H" 
			}
		],
		 "valence_orbital": [ 
			{
				"type": "occ",
				"energy": -0.28886,
				"method": "rhf"
			},
			{
				"type": "occ",
				"energy": -0.28503,
				"method": "rhf"
			},
			{
				"type": "occ",
				"energy": -0.27613,
				"method": "rhf"
			},
			{
				"type": "occ",
				"energy": -0.262,
				"method": "rhf"
			},
			{
				"type": "occ",
				"energy": -0.2372,
				"method": "rhf"
			},
			{
				"type": "unocc",
				"energy": -0.04763,
				"method": "rhf"
			},
			{
				"type": "unocc",
				"energy": -0.03796,
				"method": "rhf"
			},
			{
				"type": "unocc",
				"energy": -0.00931,
				"method": "rhf"
			},
			{
				"type": "unocc",
				"energy": 0.01305,
				"method": "rhf"
			},
			{
				"type": "unocc",
				"energy": 0.04631,
				"method": "rhf"
			}
		],
		"cosmo_sigma_profile": { 
			"-0.025": 0.0,
			"-0.024": 0.0,
			"-0.023": 0.0,
			"-0.022": 0.0,
			"-0.021": 0.0,
			"-0.02": 0.0,
			"-0.019": 0.0,
			"-0.018": 0.0,
			"-0.017": 0.0,
			"-0.016": 0.0673061850531,
			"-0.015": 2.55436639389,
			"-0.014": 3.70011115409,
			"-0.013": 2.94184042388,
			"-0.012": 4.42875458251,
			"-0.011": 2.85233805547,
			"-0.01": 3.76529340304,
			"-0.009": 2.61060683267,
			"-0.008": 4.43978450219,
			"-0.007": 4.91352146114,
			"-0.006": 6.49520675037,
			"-0.005": 14.5669341593,
			"-0.004": 24.0694792744,
			"-0.003": 25.2209818995,
			"-0.002": 24.7331117057,
			"-0.001": 19.7448516395,
			"0.0": 17.0080795901,
			"0.001": 20.3090232322,
			"0.002": 10.9536392476,
			"0.003": 11.0081687158,
			"0.004": 8.91319628739,
			"0.005": 4.13295669657,
			"0.006": 4.81673477177,
			"0.007": 5.99271657342,
			"0.008": 5.77120742091,
			"0.009": 5.32932095767,
			"0.01": 11.7790403703,
			"0.011": 11.6665881448,
			"0.012": 4.04450441601,
			"0.013": 5.70909467844,
			"0.014": 2.1324625455,
			"0.015": 0.145483769657,
			"0.016": 0.0,
			"0.017": 0.0,
			"0.018": 0.0,
			"0.019": 0.0,
			"0.02": 0.0,
			"0.021": 0.0,
			"0.022": 0.0,
			"0.023": 0.0,
			"0.024": 0.0,
			"0.025": 0.0
		}
	}
}
