{
	 "smiles": "CC(C)CC(N1C(=O)C2=C(C=CC=C2)C1=O)C(O)=O", 
	 "Tm": 393.15, 
	 "num_atms": 34, 
	 "gaussian": { 
		 "optdone": 1, 
		 "sigma_profile": "yes", 
		 "theory": "DFT", 
		 "functional": "B3LYP", 
		 "basiset": "6-31G**", 
		 "properties": { 
			 "R2extent": 5549.5249, 
			 "electric_dipole_moment_norm": 7.2353025341, 
			 "electric_quadrupole_moment_norm": 24.4959731162, 
			 "total_energy": -898.231639656, 
			 "HOMO_LUMO_gap": 0.15082, 
			 "cosmo_polarized_energy": -15.88, 
			 "cosmo_cavitation_energy": 37.12, 
			 "cosmo_dispersion_energy": -25.4, 
			 "cosmo_repulsion_energy": 1.94, 
			 "cosmo_total_nonelectrostatic_energy": 13.66, 
			 "SMD_solvation_energy": 8.32 
		},
		"coords": [
			{
				"x": -0.5568025873,
				"y": 2.1293185776,
				"z": -0.6830913007,
				"element": "C" 
			},
			{
				"x": -0.6724344226,
				"y": 1.8699460567,
				"z": -2.1927118408,
				"element": "C" 
			},
			{
				"x": -1.8608964494,
				"y": 2.6459136843,
				"z": -2.7826020339,
				"element": "C" 
			},
			{
				"x": -0.8053708514,
				"y": 0.3783830641,
				"z": -2.5648207106,
				"element": "C" 
			},
			{
				"x": 0.3971150221,
				"y": -0.5317045317,
				"z": -2.2038593695,
				"element": "C" 
			},
			{
				"x": 0.3822557151,
				"y": -1.0100213438,
				"z": -0.8097962591,
				"element": "N" 
			},
			{
				"x": 1.4218916987,
				"y": -0.7020259261,
				"z": 0.1092431317,
				"element": "C" 
			},
			{
				"x": 2.4050566249,
				"y": -0.0441367962,
				"z": -0.1514841387,
				"element": "O" 
			},
			{
				"x": 1.0175252554,
				"y": -1.3235990461,
				"z": 1.4013660241,
				"element": "C" 
			},
			{
				"x": -0.2136298924,
				"y": -1.9546838495,
				"z": 1.2138623542,
				"element": "C" 
			},
			{
				"x": -0.8517441653,
				"y": -2.6279412046,
				"z": 2.2453300879,
				"element": "C" 
			},
			{
				"x": -0.2119069984,
				"y": -2.64417295,
				"z": 3.4922903398,
				"element": "C" 
			},
			{
				"x": 1.0227004764,
				"y": -2.0098590637,
				"z": 3.681167417,
				"element": "C" 
			},
			{
				"x": 1.6605140596,
				"y": -1.3364599685,
				"z": 2.6299594534,
				"element": "C" 
			},
			{
				"x": -0.6129855086,
				"y": -1.7738710149,
				"z": -0.2065913494,
				"element": "C" 
			},
			{
				"x": -1.6080467189,
				"y": -2.2198462949,
				"z": -0.7709801246,
				"element": "O" 
			},
			{
				"x": 0.5134013574,
				"y": -1.686911883,
				"z": -3.2265226395,
				"element": "C" 
			},
			{
				"x": -0.4361847656,
				"y": -2.6346301682,
				"z": -3.1856090408,
				"element": "O" 
			},
			{
				"x": 1.3840554311,
				"y": -1.6943794466,
				"z": -4.0631416358,
				"element": "O" 
			},
			{
				"x": -1.4014261827,
				"y": 1.6884287395,
				"z": -0.1390969649,
				"element": "H" 
			},
			{
				"x": 0.3711427564,
				"y": 1.730644949,
				"z": -0.2661973642,
				"element": "H" 
			},
			{
				"x": -0.5629280702,
				"y": 3.2057075447,
				"z": -0.4809734125,
				"element": "H" 
			},
			{
				"x": 0.2444451101,
				"y": 2.2455289901,
				"z": -2.6698388982,
				"element": "H" 
			},
			{
				"x": -1.9350805694,
				"y": 2.5067361806,
				"z": -3.8664550025,
				"element": "H" 
			},
			{
				"x": -1.7627936857,
				"y": 3.7188638702,
				"z": -2.5880411882,
				"element": "H" 
			},
			{
				"x": -2.806723717,
				"y": 2.3131548732,
				"z": -2.3378466578,
				"element": "H" 
			},
			{
				"x": -0.9282841076,
				"y": 0.3192585979,
				"z": -3.6528713217,
				"element": "H" 
			},
			{
				"x": -1.7218842149,
				"y": -0.0381170581,
				"z": -2.1316343447,
				"element": "H" 
			},
			{
				"x": 1.3316436149,
				"y": 0.0245123869,
				"z": -2.2961033335,
				"element": "H" 
			},
			{
				"x": -1.8061210478,
				"y": -3.1191463268,
				"z": 2.0870330465,
				"element": "H" 
			},
			{
				"x": -0.6789009466,
				"y": -3.1581766427,
				"z": 4.3268183007,
				"element": "H" 
			},
			{
				"x": 1.4930755514,
				"y": -2.0429609195,
				"z": 4.6591410212,
				"element": "H" 
			},
			{
				"x": 2.618253225,
				"y": -0.8446330067,
				"z": 2.7644969686,
				"element": "H" 
			},
			{
				"x": -1.0540309965,
				"y": -2.4938200734,
				"z": -2.4338392135,
				"element": "H" 
			}
		],
		 "valence_orbital": [ 
			{
				"type": "occ",
				"energy": -0.30275,
				"method": "rhf"
			},
			{
				"type": "occ",
				"energy": -0.29334,
				"method": "rhf"
			},
			{
				"type": "occ",
				"energy": -0.29246,
				"method": "rhf"
			},
			{
				"type": "occ",
				"energy": -0.29038,
				"method": "rhf"
			},
			{
				"type": "occ",
				"energy": -0.25401,
				"method": "rhf"
			},
			{
				"type": "unocc",
				"energy": -0.10319,
				"method": "rhf"
			},
			{
				"type": "unocc",
				"energy": -0.0577,
				"method": "rhf"
			},
			{
				"type": "unocc",
				"energy": 0.01005,
				"method": "rhf"
			},
			{
				"type": "unocc",
				"energy": 0.01418,
				"method": "rhf"
			},
			{
				"type": "unocc",
				"energy": 0.05223,
				"method": "rhf"
			}
		],
		"cosmo_sigma_profile": { 
			"-0.025": 0.0,
			"-0.024": 0.0,
			"-0.023": 0.0,
			"-0.022": 0.0,
			"-0.021": 0.0,
			"-0.02": 0.0,
			"-0.019": 0.0,
			"-0.018": 0.0,
			"-0.017": 0.0,
			"-0.016": 0.0,
			"-0.015": 0.0,
			"-0.014": 0.0,
			"-0.013": 0.0,
			"-0.012": 0.0,
			"-0.011": 0.0,
			"-0.01": 0.0,
			"-0.009": 0.0790165721995,
			"-0.008": 5.0943866639,
			"-0.007": 11.8767433675,
			"-0.006": 15.5787096021,
			"-0.005": 16.0619266193,
			"-0.004": 20.5763850638,
			"-0.003": 31.0671063705,
			"-0.002": 29.874980353,
			"-0.001": 29.1742184644,
			"0.0": 27.8235143305,
			"0.001": 31.7241987537,
			"0.002": 15.188999619,
			"0.003": 4.7423457351,
			"0.004": 3.70730929543,
			"0.005": 4.45649091539,
			"0.006": 4.32294758542,
			"0.007": 5.05628689572,
			"0.008": 5.91637271205,
			"0.009": 6.45912081906,
			"0.01": 10.5980256075,
			"0.011": 8.26152593453,
			"0.012": 5.25590723172,
			"0.013": 1.46907509717,
			"0.014": 0.0,
			"0.015": 0.0,
			"0.016": 0.0,
			"0.017": 0.0,
			"0.018": 0.0,
			"0.019": 0.0,
			"0.02": 0.0,
			"0.021": 0.0,
			"0.022": 0.0,
			"0.023": 0.0,
			"0.024": 0.0,
			"0.0": 0.0
		}
	}
}
