{
	 "smiles": "CCOC(=O)C1=CN=C2C=CC(Cl)=CN2C1=O", 
	 "Tm": 411.15, 
	 "num_atms": 26, 
	 "gaussian": { 
		 "optdone": 1, 
		 "sigma_profile": "yes", 
		 "theory": "DFT", 
		 "functional": "B3LYP", 
		 "basiset": "6-31G**", 
		 "properties": { 
			 "R2extent": 6495.44, 
			 "electric_dipole_moment_norm": 3.05216355558, 
			 "electric_quadrupole_moment_norm": 24.8386012106, 
			 "total_energy": -1219.97428749, 
			 "HOMO_LUMO_gap": 0.14693, 
			 "cosmo_polarized_energy": -14.79, 
			 "cosmo_cavitation_energy": 32.97, 
			 "cosmo_dispersion_energy": -24.32, 
			 "cosmo_repulsion_energy": 1.87, 
			 "cosmo_total_nonelectrostatic_energy": 10.52, 
			 "SMD_solvation_energy": 5.85 
		},
		"coords": [
			{
				"x": -1.8199591272,
				"y": -3.6911316892,
				"z": -0.8330915675,
				"element": "C" 
			},
			{
				"x": -0.8053843395,
				"y": -3.4069373854,
				"z": 0.264658789,
				"element": "C" 
			},
			{
				"x": -0.3695949361,
				"y": -2.0274662794,
				"z": 0.2346967013,
				"element": "O" 
			},
			{
				"x": -1.1433756609,
				"y": -1.1418665336,
				"z": 0.8836846368,
				"element": "C" 
			},
			{
				"x": -2.163759332,
				"y": -1.4401409496,
				"z": 1.4826854094,
				"element": "O" 
			},
			{
				"x": -0.6357558711,
				"y": 0.2552191107,
				"z": 0.8120447154,
				"element": "C" 
			},
			{
				"x": -1.389581297,
				"y": 1.2219752195,
				"z": 1.4712338939,
				"element": "C" 
			},
			{
				"x": -1.1206120332,
				"y": 2.5307349076,
				"z": 1.5381779854,
				"element": "N" 
			},
			{
				"x": -0.0236830161,
				"y": 2.9529276195,
				"z": 0.9119201805,
				"element": "C" 
			},
			{
				"x": 0.3302877465,
				"y": 4.3331021518,
				"z": 0.9380913221,
				"element": "C" 
			},
			{
				"x": 1.4505087479,
				"y": 4.7949896209,
				"z": 0.3034469897,
				"element": "C" 
			},
			{
				"x": 2.2739802464,
				"y": 3.8725490871,
				"z": -0.3950682446,
				"element": "C" 
			},
			{
				"x": 3.708775382,
				"y": 4.4333668513,
				"z": -1.2139980157,
				"element": "Cl" 
			},
			{
				"x": 1.9449845375,
				"y": 2.5488178148,
				"z": -0.4269087401,
				"element": "C" 
			},
			{
				"x": 0.817853934,
				"y": 2.0965867198,
				"z": 0.2141808774,
				"element": "N" 
			},
			{
				"x": 0.560455443,
				"y": 0.6318815678,
				"z": 0.1114099038,
				"element": "C" 
			},
			{
				"x": 1.3609065142,
				"y": -0.0266772392,
				"z": -0.5251020581,
				"element": "O" 
			},
			{
				"x": -2.0682925371,
				"y": -4.7577988263,
				"z": -0.8415431298,
				"element": "H" 
			},
			{
				"x": -2.7394958525,
				"y": -3.1263766364,
				"z": -0.6616858494,
				"element": "H" 
			},
			{
				"x": -1.4153935923,
				"y": -3.4240663906,
				"z": -1.8136881391,
				"element": "H" 
			},
			{
				"x": -1.21978837,
				"y": -3.6273781613,
				"z": 1.2513072462,
				"element": "H" 
			},
			{
				"x": 0.1134105703,
				"y": -3.9792519085,
				"z": 0.1177490809,
				"element": "H" 
			},
			{
				"x": -2.2863559801,
				"y": 0.8849002304,
				"z": 1.9846002359,
				"element": "H" 
			},
			{
				"x": -0.3363654954,
				"y": 4.9873971483,
				"z": 1.4864702492,
				"element": "H" 
			},
			{
				"x": 1.7173710181,
				"y": 5.8457371242,
				"z": 0.325180652,
				"element": "H" 
			},
			{
				"x": 2.5107633004,
				"y": 1.7771068259,
				"z": -0.9320531247,
				"element": "H" 
			}
		],
		 "valence_orbital": [ 
			{
				"type": "occ",
				"energy": -0.29125,
				"method": "rhf"
			},
			{
				"type": "occ",
				"energy": -0.2837,
				"method": "rhf"
			},
			{
				"type": "occ",
				"energy": -0.27878,
				"method": "rhf"
			},
			{
				"type": "occ",
				"energy": -0.2688,
				"method": "rhf"
			},
			{
				"type": "occ",
				"energy": -0.23438,
				"method": "rhf"
			},
			{
				"type": "unocc",
				"energy": -0.08745,
				"method": "rhf"
			},
			{
				"type": "unocc",
				"energy": -0.06583,
				"method": "rhf"
			},
			{
				"type": "unocc",
				"energy": -0.00444,
				"method": "rhf"
			},
			{
				"type": "unocc",
				"energy": 0.00203,
				"method": "rhf"
			},
			{
				"type": "unocc",
				"energy": 0.01252,
				"method": "rhf"
			}
		],
		"cosmo_sigma_profile": { 
			"-0.025": 0.0,
			"-0.024": 0.0,
			"-0.023": 0.0,
			"-0.022": 0.0,
			"-0.021": 0.0,
			"-0.02": 0.0,
			"-0.019": 0.0,
			"-0.018": 0.0,
			"-0.017": 0.0,
			"-0.016": 0.0,
			"-0.015": 0.0,
			"-0.014": 0.0,
			"-0.013": 0.0,
			"-0.012": 0.0,
			"-0.011": 0.0,
			"-0.01": 1.08858059877,
			"-0.009": 3.92391027257,
			"-0.008": 5.58989759168,
			"-0.007": 6.15077187541,
			"-0.006": 11.6256340588,
			"-0.005": 15.0545173118,
			"-0.004": 21.6865515759,
			"-0.003": 25.8723682558,
			"-0.002": 32.004576278,
			"-0.001": 29.7380745514,
			"0.0": 21.5154892389,
			"0.001": 13.9595081691,
			"0.002": 12.8476086086,
			"0.003": 13.7069979526,
			"0.004": 7.71125805392,
			"0.005": 3.9394735261,
			"0.006": 5.19481318706,
			"0.007": 3.71238404316,
			"0.008": 3.71587456165,
			"0.009": 3.93432253259,
			"0.01": 4.45774913963,
			"0.011": 6.78159257792,
			"0.012": 6.75753795372,
			"0.013": 3.00276017914,
			"0.014": 2.25157947255,
			"0.015": 0.978423281807,
			"0.016": 0.000603846366969,
			"0.017": 0.0,
			"0.018": 0.0,
			"0.019": 0.0,
			"0.02": 0.0,
			"0.021": 0.0,
			"0.022": 0.0,
			"0.023": 0.0,
			"0.024": 0.0,
			"0.025": 0.0
		}
	}
}
