{
	 "smiles": "CC1=NN(C2=C1C=C(S2)C(O)=O)C1=C(Cl)C=CC=C1", 
	 "Tm": 330.15, 
	 "num_atms": 28, 
	 "gaussian": { 
		 "optdone": 1, 
		 "sigma_profile": "yes", 
		 "theory": "DFT", 
		 "functional": "B3LYP", 
		 "basiset": "6-31G**", 
		 "properties": { 
			 "R2extent": 7253.1363, 
			 "electric_dipole_moment_norm": 5.55096629156, 
			 "electric_quadrupole_moment_norm": 26.2425604374, 
			 "total_energy": -1619.10945648, 
			 "HOMO_LUMO_gap": 0.17624, 
			 "cosmo_polarized_energy": -15.91, 
			 "cosmo_cavitation_energy": 36.51, 
			 "cosmo_dispersion_energy": -26.5, 
			 "cosmo_repulsion_energy": 2.0, 
			 "cosmo_total_nonelectrostatic_energy": 12.01, 
			 "SMD_solvation_energy": 6.1 
		},
		"coords": [
			{
				"x": 0.5340156983,
				"y": 1.3685647941,
				"z": 4.3412307944,
				"element": "C" 
			},
			{
				"x": 0.0074684807,
				"y": 0.9151656989,
				"z": 3.0164365476,
				"element": "C" 
			},
			{
				"x": 0.1210940106,
				"y": 1.6864216388,
				"z": 1.9448382432,
				"element": "N" 
			},
			{
				"x": -0.4740799933,
				"y": 1.0111864254,
				"z": 0.8930895775,
				"element": "N" 
			},
			{
				"x": -0.9331947237,
				"y": -0.1963366904,
				"z": 1.3223002764,
				"element": "C" 
			},
			{
				"x": -0.6531050855,
				"y": -0.3089326373,
				"z": 2.6855672921,
				"element": "C" 
			},
			{
				"x": -1.0526531126,
				"y": -1.5669838945,
				"z": 3.2179880533,
				"element": "C" 
			},
			{
				"x": -1.6115096395,
				"y": -2.3812989541,
				"z": 2.2678187456,
				"element": "C" 
			},
			{
				"x": -1.6509186456,
				"y": -1.623589602,
				"z": 0.6488617832,
				"element": "S" 
			},
			{
				"x": -2.1379017179,
				"y": -3.7369062949,
				"z": 2.5337505651,
				"element": "C" 
			},
			{
				"x": -2.9027792703,
				"y": -4.3127772323,
				"z": 1.5649592336,
				"element": "O" 
			},
			{
				"x": -1.9086013309,
				"y": -4.333436568,
				"z": 3.5606054093,
				"element": "O" 
			},
			{
				"x": -0.347733514,
				"y": 1.5403043608,
				"z": -0.4170560097,
				"element": "C" 
			},
			{
				"x": -1.4348472306,
				"y": 1.6638028737,
				"z": -1.2959166227,
				"element": "C" 
			},
			{
				"x": -3.0584619531,
				"y": 1.2296922487,
				"z": -0.7998952675,
				"element": "Cl" 
			},
			{
				"x": -1.2486449891,
				"y": 2.1786366095,
				"z": -2.5803395852,
				"element": "C" 
			},
			{
				"x": 0.0147648686,
				"y": 2.6029053087,
				"z": -2.9848668804,
				"element": "C" 
			},
			{
				"x": 1.0959984253,
				"y": 2.5155810602,
				"z": -2.1051964293,
				"element": "C" 
			},
			{
				"x": 0.9149683262,
				"y": 1.9826774655,
				"z": -0.8336257979,
				"element": "C" 
			},
			{
				"x": 1.2683154865,
				"y": 0.6587249121,
				"z": 4.737635444,
				"element": "H" 
			},
			{
				"x": 1.0118467232,
				"y": 2.3444877715,
				"z": 4.2363198414,
				"element": "H" 
			},
			{
				"x": -0.2715127554,
				"y": 1.4525205984,
				"z": 5.0790076491,
				"element": "H" 
			},
			{
				"x": -0.9526107321,
				"y": -1.8904620603,
				"z": 4.2467566449,
				"element": "H" 
			},
			{
				"x": -3.1629495705,
				"y": -3.6692652115,
				"z": 0.8897681251,
				"element": "H" 
			},
			{
				"x": -2.1025799449,
				"y": 2.2598875266,
				"z": -3.243437367,
				"element": "H" 
			},
			{
				"x": 0.1486052958,
				"y": 3.0087704388,
				"z": -3.9826399797,
				"element": "H" 
			},
			{
				"x": 2.0811931833,
				"y": 2.8521330436,
				"z": -2.4115454457,
				"element": "H" 
			},
			{
				"x": 1.7385137106,
				"y": 1.9012263701,
				"z": -0.1338148407,
				"element": "H" 
			}
		],
		 "valence_orbital": [ 
			{
				"type": "occ",
				"energy": -0.27892,
				"method": "rhf"
			},
			{
				"type": "occ",
				"energy": -0.27462,
				"method": "rhf"
			},
			{
				"type": "occ",
				"energy": -0.26405,
				"method": "rhf"
			},
			{
				"type": "occ",
				"energy": -0.25109,
				"method": "rhf"
			},
			{
				"type": "occ",
				"energy": -0.23144,
				"method": "rhf"
			},
			{
				"type": "unocc",
				"energy": -0.0552,
				"method": "rhf"
			},
			{
				"type": "unocc",
				"energy": -0.03881,
				"method": "rhf"
			},
			{
				"type": "unocc",
				"energy": -0.03086,
				"method": "rhf"
			},
			{
				"type": "unocc",
				"energy": -0.00993,
				"method": "rhf"
			},
			{
				"type": "unocc",
				"energy": 0.00487,
				"method": "rhf"
			}
		],
		"cosmo_sigma_profile": { 
			"-0.025": 0.0,
			"-0.024": 0.0,
			"-0.023": 0.0,
			"-0.022": 0.0,
			"-0.021": 0.0,
			"-0.02": 0.0,
			"-0.019": 0.0,
			"-0.018": 0.464218627629,
			"-0.017": 0.648385945776,
			"-0.016": 1.10837600539,
			"-0.015": 0.819346552091,
			"-0.014": 1.32218660855,
			"-0.013": 0.92898421004,
			"-0.012": 1.01528492583,
			"-0.011": 1.04663283964,
			"-0.01": 0.804372657896,
			"-0.009": 0.903719976737,
			"-0.008": 3.23890003775,
			"-0.007": 9.44701974804,
			"-0.006": 12.5712586464,
			"-0.005": 19.3367130559,
			"-0.004": 18.2911982421,
			"-0.003": 18.4462877213,
			"-0.002": 20.729994319,
			"-0.001": 24.6825780411,
			"0.0": 26.3548088288,
			"0.001": 29.7716785537,
			"0.002": 29.2433405043,
			"0.003": 25.3323937247,
			"0.004": 10.9024481874,
			"0.005": 4.33540700601,
			"0.006": 3.5632440077,
			"0.007": 4.20945376719,
			"0.008": 3.85360820539,
			"0.009": 4.55914347518,
			"0.01": 5.62865921359,
			"0.011": 6.20235797396,
			"0.012": 5.46242056143,
			"0.013": 2.1999018418,
			"0.014": 0.331171729769,
			"0.015": 0.0,
			"0.016": 0.0,
			"0.017": 0.0,
			"0.018": 0.0,
			"0.019": 0.0,
			"0.02": 0.0,
			"0.021": 0.0,
			"0.022": 0.0,
			"0.023": 0.0,
			"0.024": 0.0,
			"0.0": 0.0
		}
	}
}
