{
	 "smiles": "SC1=NC=CC=N1", 
	 "Tm": 503.15, 
	 "num_atms": 11, 
	 "gaussian": { 
		 "optdone": 1, 
		 "sigma_profile": "yes", 
		 "theory": "DFT", 
		 "functional": "B3LYP", 
		 "basiset": "6-31G**", 
		 "properties": { 
			 "R2extent": 1620.2998, 
			 "electric_dipole_moment_norm": 2.809282371, 
			 "electric_quadrupole_moment_norm": 11.0592569642, 
			 "total_energy": -662.513998463, 
			 "HOMO_LUMO_gap": 0.19533, 
			 "cosmo_polarized_energy": -7.7, 
			 "cosmo_cavitation_energy": 17.07, 
			 "cosmo_dispersion_energy": -13.58, 
			 "cosmo_repulsion_energy": 1.09, 
			 "cosmo_total_nonelectrostatic_energy": 4.59, 
			 "SMD_solvation_energy": -0.12 
		},
		"coords": [
			{
				"x": -0.0145706218,
				"y": -1.4101666675,
				"z": 0.4050857454,
				"element": "S" 
			},
			{
				"x": 0.1482735563,
				"y": -0.1195109054,
				"z": 1.6171548821,
				"element": "C" 
			},
			{
				"x": 1.377313478,
				"y": 0.2045167848,
				"z": 2.0395480642,
				"element": "N" 
			},
			{
				"x": 1.4362192011,
				"y": 1.1818105118,
				"z": 2.9509406657,
				"element": "C" 
			},
			{
				"x": 0.3010894638,
				"y": 1.8277356967,
				"z": 3.436631496,
				"element": "C" 
			},
			{
				"x": -0.9191180937,
				"y": 1.397881337,
				"z": 2.9171311134,
				"element": "C" 
			},
			{
				"x": -1.0110730068,
				"y": 0.4247297499,
				"z": 2.0063109904,
				"element": "N" 
			},
			{
				"x": 1.3079769321,
				"y": -1.6479163302,
				"z": 0.3161266818,
				"element": "H" 
			},
			{
				"x": 2.4314056544,
				"y": 1.4518857952,
				"z": 3.3000930033,
				"element": "H" 
			},
			{
				"x": 0.3636213853,
				"y": 2.6182746771,
				"z": 4.1753195631,
				"element": "H" 
			},
			{
				"x": -1.8582379486,
				"y": 1.8451593506,
				"z": 3.2382577946,
				"element": "H" 
			}
		],
		 "valence_orbital": [ 
			{
				"type": "occ",
				"energy": -0.32566,
				"method": "rhf"
			},
			{
				"type": "occ",
				"energy": -0.31863,
				"method": "rhf"
			},
			{
				"type": "occ",
				"energy": -0.31081,
				"method": "rhf"
			},
			{
				"type": "occ",
				"energy": -0.26083,
				"method": "rhf"
			},
			{
				"type": "occ",
				"energy": -0.24322,
				"method": "rhf"
			},
			{
				"type": "unocc",
				"energy": -0.04789,
				"method": "rhf"
			},
			{
				"type": "unocc",
				"energy": -0.03109,
				"method": "rhf"
			},
			{
				"type": "unocc",
				"energy": 0.02155,
				"method": "rhf"
			},
			{
				"type": "unocc",
				"energy": 0.08262,
				"method": "rhf"
			},
			{
				"type": "unocc",
				"energy": 0.09975,
				"method": "rhf"
			}
		],
		"cosmo_sigma_profile": { 
			"-0.025": 0.0,
			"-0.024": 0.0,
			"-0.023": 0.0,
			"-0.022": 0.0,
			"-0.021": 0.0,
			"-0.02": 0.0,
			"-0.019": 0.0,
			"-0.018": 0.0,
			"-0.017": 0.0,
			"-0.016": 0.0,
			"-0.015": 0.0,
			"-0.014": 0.0,
			"-0.013": 0.0,
			"-0.012": 0.0,
			"-0.011": 0.990343853031,
			"-0.01": 1.20194196933,
			"-0.009": 1.61463780356,
			"-0.008": 6.73783489283,
			"-0.007": 9.37218000995,
			"-0.006": 8.12475170374,
			"-0.005": 5.68827565296,
			"-0.004": 6.20059701837,
			"-0.003": 5.58028888211,
			"-0.002": 7.58197351699,
			"-0.001": 11.6131268998,
			"0.0": 12.980051892,
			"0.001": 9.78352548306,
			"0.002": 8.19296535679,
			"0.003": 8.22746891435,
			"0.004": 7.4200127306,
			"0.005": 6.91787264042,
			"0.006": 5.99182345,
			"0.007": 5.04337606953,
			"0.008": 2.78582231873,
			"0.009": 0.934623396672,
			"0.01": 2.00949825618,
			"0.011": 1.91162607207,
			"0.012": 1.7168358426,
			"0.013": 1.12702212713,
			"0.014": 0.525373298199,
			"0.015": 0.0,
			"0.016": 0.0,
			"0.017": 0.0,
			"0.018": 0.0,
			"0.019": 0.0,
			"0.02": 0.0,
			"0.021": 0.0,
			"0.022": 0.0,
			"0.023": 0.0,
			"0.024": 0.0,
			"0.025": 0.0
		}
	}
}
