{
	 "smiles": "OC(=O)C1=NC=CC2=CC=CC=C12", 
	 "Tm": 435.15, 
	 "num_atms": 20, 
	 "gaussian": { 
		 "optdone": 1, 
		 "sigma_profile": "yes", 
		 "theory": "DFT", 
		 "functional": "B3LYP", 
		 "basiset": "6-31G**", 
		 "properties": { 
			 "R2extent": 2769.6187, 
			 "electric_dipole_moment_norm": 2.404621386, 
			 "electric_quadrupole_moment_norm": 8.73263686695, 
			 "total_energy": -590.496540422, 
			 "HOMO_LUMO_gap": 0.15944, 
			 "cosmo_polarized_energy": -11.84, 
			 "cosmo_cavitation_energy": 24.48, 
			 "cosmo_dispersion_energy": -18.53, 
			 "cosmo_repulsion_energy": 1.43, 
			 "cosmo_total_nonelectrostatic_energy": 7.38, 
			 "SMD_solvation_energy": 4.21 
		},
		"coords": [
			{
				"x": 2.6611521588,
				"y": -3.141526964,
				"z": -0.7819184238,
				"element": "O" 
			},
			{
				"x": 1.9400017849,
				"y": -2.3961377421,
				"z": 0.0773308989,
				"element": "C" 
			},
			{
				"x": 1.4672022887,
				"y": -2.875262557,
				"z": 1.0932494459,
				"element": "O" 
			},
			{
				"x": 1.8023115441,
				"y": -0.9613271929,
				"z": -0.3653876989,
				"element": "C" 
			},
			{
				"x": 2.40392698,
				"y": -0.6719692564,
				"z": -1.5078670306,
				"element": "N" 
			},
			{
				"x": 2.3366491498,
				"y": 0.5895137089,
				"z": -1.9870291665,
				"element": "C" 
			},
			{
				"x": 1.6672556866,
				"y": 1.6043437845,
				"z": -1.3431046301,
				"element": "C" 
			},
			{
				"x": 1.0108236598,
				"y": 1.3360257848,
				"z": -0.1188858887,
				"element": "C" 
			},
			{
				"x": 0.3046319224,
				"y": 2.3460507625,
				"z": 0.5885741685,
				"element": "C" 
			},
			{
				"x": -0.3234052934,
				"y": 2.0549982172,
				"z": 1.7756811625,
				"element": "C" 
			},
			{
				"x": -0.2693331792,
				"y": 0.7414899211,
				"z": 2.3017350306,
				"element": "C" 
			},
			{
				"x": 0.4059482584,
				"y": -0.2621485628,
				"z": 1.6431668566,
				"element": "C" 
			},
			{
				"x": 1.0684049619,
				"y": 0.0029088705,
				"z": 0.4103435895,
				"element": "C" 
			},
			{
				"x": 2.6757847151,
				"y": -4.0306929907,
				"z": -0.3898304423,
				"element": "H" 
			},
			{
				"x": 2.8503902174,
				"y": 0.7653729875,
				"z": -2.9291282089,
				"element": "H" 
			},
			{
				"x": 1.6384334632,
				"y": 2.6054304273,
				"z": -1.7645755657,
				"element": "H" 
			},
			{
				"x": 0.2724178402,
				"y": 3.3490602209,
				"z": 0.1717969257,
				"element": "H" 
			},
			{
				"x": -0.8623482844,
				"y": 2.8293998494,
				"z": 2.3138108553,
				"element": "H" 
			},
			{
				"x": -0.7692195116,
				"y": 0.5225631928,
				"z": 3.2408022929,
				"element": "H" 
			},
			{
				"x": 0.4443716373,
				"y": -1.2629924617,
				"z": 2.0489358292,
				"element": "H" 
			}
		],
		 "valence_orbital": [ 
			{
				"type": "occ",
				"energy": -0.30013,
				"method": "rhf"
			},
			{
				"type": "occ",
				"energy": -0.28488,
				"method": "rhf"
			},
			{
				"type": "occ",
				"energy": -0.26965,
				"method": "rhf"
			},
			{
				"type": "occ",
				"energy": -0.25423,
				"method": "rhf"
			},
			{
				"type": "occ",
				"energy": -0.23581,
				"method": "rhf"
			},
			{
				"type": "unocc",
				"energy": -0.07637,
				"method": "rhf"
			},
			{
				"type": "unocc",
				"energy": -0.02859,
				"method": "rhf"
			},
			{
				"type": "unocc",
				"energy": -0.0063,
				"method": "rhf"
			},
			{
				"type": "unocc",
				"energy": 0.05434,
				"method": "rhf"
			},
			{
				"type": "unocc",
				"energy": 0.08525,
				"method": "rhf"
			}
		],
		"cosmo_sigma_profile": { 
			"-0.025": 0.0,
			"-0.024": 0.0,
			"-0.023": 0.0,
			"-0.022": 0.0,
			"-0.021": 0.0,
			"-0.02": 0.0,
			"-0.019": 0.0222314488393,
			"-0.018": 0.807517815933,
			"-0.017": 1.00697547834,
			"-0.016": 0.973086625248,
			"-0.015": 0.265503591705,
			"-0.014": 0.543173378136,
			"-0.013": 0.688691811509,
			"-0.012": 1.2897436688,
			"-0.011": 0.517078496637,
			"-0.01": 0.720018417145,
			"-0.009": 0.922109761352,
			"-0.008": 1.92914488361,
			"-0.007": 8.57075984137,
			"-0.006": 12.0026793508,
			"-0.005": 11.1373759169,
			"-0.004": 12.1467587322,
			"-0.003": 12.1590422851,
			"-0.002": 10.696054264,
			"-0.001": 11.5603092992,
			"0.0": 15.2695812036,
			"0.001": 20.624840818,
			"0.002": 20.2697626808,
			"0.003": 14.2599036877,
			"0.004": 8.63532424346,
			"0.005": 3.7062856405,
			"0.006": 2.85311542717,
			"0.007": 2.45100236137,
			"0.008": 3.65820946449,
			"0.009": 2.91145795534,
			"0.01": 3.71126238586,
			"0.011": 3.88798020274,
			"0.012": 2.43172907251,
			"0.013": 0.940287217629,
			"0.014": 0.987968470382,
			"0.015": 0.87737324035,
			"0.016": 1.14839030374,
			"0.017": 0.684942216852,
			"0.018": 0.0769681087174,
			"0.019": 0.0,
			"0.02": 0.0,
			"0.021": 0.0,
			"0.022": 0.0,
			"0.023": 0.0,
			"0.024": 0.0,
			"0.025": 0.0
		}
	}
}
