{
	 "smiles": "O[C@H]1OC[C@H](OCC2=CC=CC=C2)[C@H](OCC2=CC=CC=C2)[C@H]1OCC1=CC=CC=C1", 
	 "Tm": 351.15, 
	 "num_atms": 59, 
	 "gaussian": { 
		 "optdone": 1, 
		 "sigma_profile": "yes", 
		 "theory": "DFT", 
		 "functional": "B3LYP", 
		 "basiset": "6-31G**", 
		 "properties": { 
			 "R2extent": 15298.8938, 
			 "electric_dipole_moment_norm": 2.37541460381, 
			 "electric_quadrupole_moment_norm": 8.77504819303, 
			 "total_energy": -1383.70232739, 
			 "HOMO_LUMO_gap": 0.22193, 
			 "cosmo_polarized_energy": -17.03, 
			 "cosmo_cavitation_energy": 60.93, 
			 "cosmo_dispersion_energy": -39.23, 
			 "cosmo_repulsion_energy": 3.01, 
			 "cosmo_total_nonelectrostatic_energy": 24.71, 
			 "SMD_solvation_energy": 9.43 
		},
		"coords": [
			{
				"x": 1.7546004499,
				"y": -1.0573678176,
				"z": 2.4948305438,
				"element": "O" 
			},
			{
				"x": 0.49305516,
				"y": -1.7014351285,
				"z": 2.5515323587,
				"element": "C" 
			},
			{
				"x": -0.3303072223,
				"y": -1.1403428551,
				"z": 3.5484162193,
				"element": "O" 
			},
			{
				"x": -1.0962266821,
				"y": 0.0184963485,
				"z": 3.1780983531,
				"element": "C" 
			},
			{
				"x": -0.4986273623,
				"y": 0.7740841309,
				"z": 1.9902974694,
				"element": "C" 
			},
			{
				"x": -1.3119422407,
				"y": 1.9216910663,
				"z": 1.823930039,
				"element": "O" 
			},
			{
				"x": -0.8404965611,
				"y": 2.8744884567,
				"z": 0.875498841,
				"element": "C" 
			},
			{
				"x": 0.441605885,
				"y": 3.5732822254,
				"z": 1.2877372064,
				"element": "C" 
			},
			{
				"x": 0.6026818401,
				"y": 4.0391653192,
				"z": 2.6001518178,
				"element": "C" 
			},
			{
				"x": 1.7627188503,
				"y": 4.7153393681,
				"z": 2.97495742,
				"element": "C" 
			},
			{
				"x": 2.7770268029,
				"y": 4.9414624606,
				"z": 2.0400257356,
				"element": "C" 
			},
			{
				"x": 2.6258285553,
				"y": 4.4814799896,
				"z": 0.731657581,
				"element": "C" 
			},
			{
				"x": 1.4661870127,
				"y": 3.7959245217,
				"z": 0.3616944133,
				"element": "C" 
			},
			{
				"x": -0.4360830422,
				"y": -0.1428712872,
				"z": 0.7365922859,
				"element": "C" 
			},
			{
				"x": -1.6759473501,
				"y": -0.0414876064,
				"z": 0.0581897364,
				"element": "O" 
			},
			{
				"x": -1.6831970267,
				"y": -0.5328431091,
				"z": -1.2740203017,
				"element": "C" 
			},
			{
				"x": -2.9808961387,
				"y": -0.1483649694,
				"z": -1.9508461307,
				"element": "C" 
			},
			{
				"x": -3.2858899912,
				"y": -0.6921292844,
				"z": -3.2055797509,
				"element": "C" 
			},
			{
				"x": -4.4615417209,
				"y": -0.3379701682,
				"z": -3.8658451198,
				"element": "C" 
			},
			{
				"x": -5.3529913479,
				"y": 0.56107159,
				"z": -3.2745609041,
				"element": "C" 
			},
			{
				"x": -5.057045949,
				"y": 1.1000600948,
				"z": -2.0223389337,
				"element": "C" 
			},
			{
				"x": -3.8763920947,
				"y": 0.750098639,
				"z": -1.3622590946,
				"element": "C" 
			},
			{
				"x": -0.1732049261,
				"y": -1.610539294,
				"z": 1.1727922367,
				"element": "C" 
			},
			{
				"x": 0.4205231412,
				"y": -2.4220871956,
				"z": 0.1691534429,
				"element": "O" 
			},
			{
				"x": 1.7830995164,
				"y": -2.1947879222,
				"z": -0.1875028257,
				"element": "C" 
			},
			{
				"x": 2.0868593092,
				"y": -2.9208930317,
				"z": -1.4799145411,
				"element": "C" 
			},
			{
				"x": 3.2006787624,
				"y": -2.5366671,
				"z": -2.2376961303,
				"element": "C" 
			},
			{
				"x": 3.5338971215,
				"y": -3.2159583827,
				"z": -3.4093723472,
				"element": "C" 
			},
			{
				"x": 2.7508345192,
				"y": -4.287900137,
				"z": -3.8434807837,
				"element": "C" 
			},
			{
				"x": 1.6373055101,
				"y": -4.6732861466,
				"z": -3.0957698263,
				"element": "C" 
			},
			{
				"x": 1.3077402367,
				"y": -3.9968239532,
				"z": -1.9193466956,
				"element": "C" 
			},
			{
				"x": 2.109862017,
				"y": -1.0566538185,
				"z": 3.3947241816,
				"element": "H" 
			},
			{
				"x": 0.614529652,
				"y": -2.7547688706,
				"z": 2.8365802509,
				"element": "H" 
			},
			{
				"x": -2.1246550794,
				"y": -0.2779691335,
				"z": 2.934756098,
				"element": "H" 
			},
			{
				"x": -1.1279123698,
				"y": 0.6722308581,
				"z": 4.0533982809,
				"element": "H" 
			},
			{
				"x": 0.5311426392,
				"y": 1.0577333003,
				"z": 2.2356628473,
				"element": "H" 
			},
			{
				"x": -1.6556611426,
				"y": 3.6028564313,
				"z": 0.7973641141,
				"element": "H" 
			},
			{
				"x": -0.724692108,
				"y": 2.4161004608,
				"z": -0.1151257778,
				"element": "H" 
			},
			{
				"x": -0.1872436917,
				"y": 3.8595151115,
				"z": 3.3239896707,
				"element": "H" 
			},
			{
				"x": 1.8758050127,
				"y": 5.0702530898,
				"z": 3.9956863405,
				"element": "H" 
			},
			{
				"x": 3.6796414395,
				"y": 5.4708678141,
				"z": 2.3316520015,
				"element": "H" 
			},
			{
				"x": 3.4119107166,
				"y": 4.6484850744,
				"z": 0.0005435554,
				"element": "H" 
			},
			{
				"x": 1.3548150782,
				"y": 3.433235608,
				"z": -0.6577926904,
				"element": "H" 
			},
			{
				"x": 0.3733204877,
				"y": 0.1990127907,
				"z": 0.0750341055,
				"element": "H" 
			},
			{
				"x": -1.5501048161,
				"y": -1.6231922066,
				"z": -1.2945394924,
				"element": "H" 
			},
			{
				"x": -0.8288238207,
				"y": -0.1069530974,
				"z": -1.8295476994,
				"element": "H" 
			},
			{
				"x": -2.5986184204,
				"y": -1.3976312206,
				"z": -3.6681148618,
				"element": "H" 
			},
			{
				"x": -4.6846279108,
				"y": -0.7670286632,
				"z": -4.838849322,
				"element": "H" 
			},
			{
				"x": -6.2715599671,
				"y": 0.8350941813,
				"z": -3.7857760169,
				"element": "H" 
			},
			{
				"x": -5.7475847446,
				"y": 1.7960906834,
				"z": -1.5536312063,
				"element": "H" 
			},
			{
				"x": -3.6429989044,
				"y": 1.1603694715,
				"z": -0.3861738936,
				"element": "H" 
			},
			{
				"x": -1.1663964478,
				"y": -2.0530738083,
				"z": 1.3081036586,
				"element": "H" 
			},
			{
				"x": 1.9928000163,
				"y": -1.1233784094,
				"z": -0.3047269353,
				"element": "H" 
			},
			{
				"x": 2.4456791029,
				"y": -2.5497608536,
				"z": 0.612908852,
				"element": "H" 
			},
			{
				"x": 3.8106672725,
				"y": -1.6976361305,
				"z": -1.9094056499,
				"element": "H" 
			},
			{
				"x": 4.3996568547,
				"y": -2.9037068677,
				"z": -3.9868376512,
				"element": "H" 
			},
			{
				"x": 3.0053737065,
				"y": -4.8153328481,
				"z": -4.7583920824,
				"element": "H" 
			},
			{
				"x": 1.0213111878,
				"y": -5.5047061556,
				"z": -3.4276309245,
				"element": "H" 
			},
			{
				"x": 0.4416112229,
				"y": -4.2930416132,
				"z": -1.3382820679,
				"element": "H" 
			}
		],
		 "valence_orbital": [ 
			{
				"type": "occ",
				"energy": -0.24585,
				"method": "rhf"
			},
			{
				"type": "occ",
				"energy": -0.24427,
				"method": "rhf"
			},
			{
				"type": "occ",
				"energy": -0.24052,
				"method": "rhf"
			},
			{
				"type": "occ",
				"energy": -0.2365,
				"method": "rhf"
			},
			{
				"type": "occ",
				"energy": -0.22984,
				"method": "rhf"
			},
			{
				"type": "unocc",
				"energy": -0.00791,
				"method": "rhf"
			},
			{
				"type": "unocc",
				"energy": -0.0032,
				"method": "rhf"
			},
			{
				"type": "unocc",
				"energy": 0.0011,
				"method": "rhf"
			},
			{
				"type": "unocc",
				"energy": 0.00365,
				"method": "rhf"
			},
			{
				"type": "unocc",
				"energy": 0.00548,
				"method": "rhf"
			}
		],
		"cosmo_sigma_profile": { 
			"-0.025": 0.0,
			"-0.024": 0.0,
			"-0.023": 0.0,
			"-0.022": 0.0,
			"-0.021": 0.0,
			"-0.02": 0.0,
			"-0.019": 0.0,
			"-0.018": 0.0,
			"-0.017": 0.123694450537,
			"-0.016": 0.64600950011,
			"-0.015": 0.683491338598,
			"-0.014": 1.5482212308,
			"-0.013": 0.601071465953,
			"-0.012": 0.204637205141,
			"-0.011": 1.21692975252,
			"-0.01": 0.501521381646,
			"-0.009": 0.465097664401,
			"-0.008": 0.678458936125,
			"-0.007": 1.43556553497,
			"-0.006": 14.923718239,
			"-0.005": 46.5604537663,
			"-0.004": 49.4345341528,
			"-0.003": 50.5887885073,
			"-0.002": 39.9882693831,
			"-0.001": 32.5219406808,
			"0.0": 28.5721658924,
			"0.001": 28.7039908008,
			"0.002": 32.1391042236,
			"0.003": 30.2633458248,
			"0.004": 29.8678914558,
			"0.005": 33.6198171916,
			"0.006": 29.489674386,
			"0.007": 10.2077333197,
			"0.008": 4.75236963197,
			"0.009": 4.02030842965,
			"0.01": 2.9626618943,
			"0.011": 2.72935848103,
			"0.012": 1.89632504132,
			"0.013": 0.202898837971,
			"0.014": 0.0,
			"0.015": 0.0,
			"0.016": 0.0,
			"0.017": 0.0,
			"0.018": 0.0,
			"0.019": 0.0,
			"0.02": 0.0,
			"0.021": 0.0,
			"0.022": 0.0,
			"0.023": 0.0,
			"0.024": 0.0,
			"0.025": 0.0
		}
	}
}
