{
	 "smiles": "NNC(=O)C1CCS(=O)(=O)C1", 
	 "Tm": 345.15, 
	 "num_atms": 21, 
	 "gaussian": { 
		 "optdone": 1, 
		 "sigma_profile": "yes", 
		 "theory": "DFT", 
		 "functional": "B3LYP", 
		 "basiset": "6-31G**", 
		 "properties": { 
			 "R2extent": 2520.7399, 
			 "electric_dipole_moment_norm": 5.00798569587, 
			 "electric_quadrupole_moment_norm": 17.1759140164, 
			 "total_energy": -929.841118538, 
			 "HOMO_LUMO_gap": 0.26893, 
			 "cosmo_polarized_energy": -23.71, 
			 "cosmo_cavitation_energy": 25.6, 
			 "cosmo_dispersion_energy": -19.33, 
			 "cosmo_repulsion_energy": 1.53, 
			 "cosmo_total_nonelectrostatic_energy": 7.81, 
			 "SMD_solvation_energy": 4.35 
		},
		"coords": [
			{
				"x": -3.8200506076,
				"y": 0.1270948583,
				"z": -0.349662021,
				"element": "N" 
			},
			{
				"x": -2.4821537334,
				"y": 0.5169362908,
				"z": -0.1581454794,
				"element": "N" 
			},
			{
				"x": -1.4546373508,
				"y": -0.3782425664,
				"z": -0.1645088134,
				"element": "C" 
			},
			{
				"x": -1.635115618,
				"y": -1.584649908,
				"z": -0.2832063626,
				"element": "O" 
			},
			{
				"x": -0.0585706039,
				"y": 0.2245748496,
				"z": -0.0079635935,
				"element": "C" 
			},
			{
				"x": 0.6780345082,
				"y": -0.4158634619,
				"z": 1.1998900195,
				"element": "C" 
			},
			{
				"x": 2.1721922889,
				"y": -0.0716141848,
				"z": 1.106846458,
				"element": "C" 
			},
			{
				"x": 2.5153225725,
				"y": 0.2485070376,
				"z": -0.676268322,
				"element": "S" 
			},
			{
				"x": 2.7650076119,
				"y": 1.690623279,
				"z": -0.8443459342,
				"element": "O" 
			},
			{
				"x": 3.4508964298,
				"y": -0.7450390086,
				"z": -1.2224064664,
				"element": "O" 
			},
			{
				"x": 0.8076661734,
				"y": -0.0932800617,
				"z": -1.232961413,
				"element": "C" 
			},
			{
				"x": -3.845614412,
				"y": -0.4843234307,
				"z": -1.1658247525,
				"element": "H" 
			},
			{
				"x": -4.0853799057,
				"y": -0.4624140989,
				"z": 0.4389191614,
				"element": "H" 
			},
			{
				"x": -2.3198425997,
				"y": 1.5127384119,
				"z": -0.1413483975,
				"element": "H" 
			},
			{
				"x": -0.1133050224,
				"y": 1.3119965377,
				"z": 0.1227765144,
				"element": "H" 
			},
			{
				"x": 0.5275875283,
				"y": -1.4973693392,
				"z": 1.1382450789,
				"element": "H" 
			},
			{
				"x": 0.2534343533,
				"y": -0.0731624106,
				"z": 2.1477105878,
				"element": "H" 
			},
			{
				"x": 2.4347965515,
				"y": 0.8534794692,
				"z": 1.6239075141,
				"element": "H" 
			},
			{
				"x": 2.8311547522,
				"y": -0.8780107907,
				"z": 1.4316455928,
				"element": "H" 
			},
			{
				"x": 0.616633548,
				"y": 0.5315991509,
				"z": -2.1068292328,
				"element": "H" 
			},
			{
				"x": 0.7349435356,
				"y": -1.1521806235,
				"z": -1.4930701388,
				"element": "H" 
			}
		],
		 "valence_orbital": [ 
			{
				"type": "occ",
				"energy": -0.29758,
				"method": "rhf"
			},
			{
				"type": "occ",
				"energy": -0.29575,
				"method": "rhf"
			},
			{
				"type": "occ",
				"energy": -0.28603,
				"method": "rhf"
			},
			{
				"type": "occ",
				"energy": -0.28084,
				"method": "rhf"
			},
			{
				"type": "occ",
				"energy": -0.27177,
				"method": "rhf"
			},
			{
				"type": "unocc",
				"energy": -0.00284,
				"method": "rhf"
			},
			{
				"type": "unocc",
				"energy": 0.04376,
				"method": "rhf"
			},
			{
				"type": "unocc",
				"energy": 0.05816,
				"method": "rhf"
			},
			{
				"type": "unocc",
				"energy": 0.06702,
				"method": "rhf"
			},
			{
				"type": "unocc",
				"energy": 0.07319,
				"method": "rhf"
			}
		],
		"cosmo_sigma_profile": { 
			"-0.025": 0.0,
			"-0.024": 0.0,
			"-0.023": 0.0,
			"-0.022": 0.0,
			"-0.021": 0.0,
			"-0.02": 0.0,
			"-0.019": 0.0,
			"-0.018": 0.0,
			"-0.017": 0.0,
			"-0.016": 0.0323938887723,
			"-0.015": 0.978762835851,
			"-0.014": 1.51785066163,
			"-0.013": 1.59172147659,
			"-0.012": 1.76711676921,
			"-0.011": 3.54667785957,
			"-0.01": 3.29824913464,
			"-0.009": 5.20729130111,
			"-0.008": 10.2143222002,
			"-0.007": 13.0309033448,
			"-0.006": 19.0161039911,
			"-0.005": 16.4444772133,
			"-0.004": 12.7147642594,
			"-0.003": 10.4641399446,
			"-0.002": 8.5493368994,
			"-0.001": 6.78313364644,
			"0.0": 6.52072539184,
			"0.001": 5.37510924007,
			"0.002": 4.10473241134,
			"0.003": 4.07250300973,
			"0.004": 3.96722774833,
			"0.005": 3.95771512144,
			"0.006": 2.98478248845,
			"0.007": 4.12492949084,
			"0.008": 4.12614756866,
			"0.009": 4.65596244255,
			"0.01": 5.5341835478,
			"0.011": 12.5967566124,
			"0.012": 12.5519791386,
			"0.013": 7.13249162621,
			"0.014": 2.48519393104,
			"0.015": 0.481896547538,
			"0.016": 0.476776328257,
			"0.017": 0.0769212282713,
			"0.018": 0.0,
			"0.019": 0.0,
			"0.02": 0.0,
			"0.021": 0.0,
			"0.022": 0.0,
			"0.023": 0.0,
			"0.024": 0.0,
			"0.025": 0.0
		}
	}
}
