{
	 "smiles": "COC1=C(Cl)C=C(NC(=O)COC2=C(C=CC=C2)C(O)=O)C=C1", 
	 "Tm": 503.15, 
	 "num_atms": 37, 
	 "gaussian": { 
		 "optdone": 1, 
		 "sigma_profile": "yes", 
		 "theory": "DFT", 
		 "functional": "B3LYP", 
		 "basiset": "6-31G**", 
		 "properties": { 
			 "R2extent": 11014.3449, 
			 "electric_dipole_moment_norm": 5.07568120059, 
			 "electric_quadrupole_moment_norm": 15.2416729039, 
			 "total_energy": -1509.19553566, 
			 "HOMO_LUMO_gap": 0.18925, 
			 "cosmo_polarized_energy": -22.48, 
			 "cosmo_cavitation_energy": 44.39, 
			 "cosmo_dispersion_energy": -30.96, 
			 "cosmo_repulsion_energy": 2.4, 
			 "cosmo_total_nonelectrostatic_energy": 15.82, 
			 "SMD_solvation_energy": 9.97 
		},
		"coords": [
			{
				"x": -4.0879017668,
				"y": -2.5610712088,
				"z": -2.5616468779,
				"element": "C" 
			},
			{
				"x": -2.7215099268,
				"y": -2.8419495936,
				"z": -2.8367811592,
				"element": "O" 
			},
			{
				"x": -1.8066846505,
				"y": -2.6186824917,
				"z": -1.8648407197,
				"element": "C" 
			},
			{
				"x": -0.4619592199,
				"y": -2.9142043537,
				"z": -2.172818765,
				"element": "C" 
			},
			{
				"x": -0.0594867192,
				"y": -3.5384597208,
				"z": -3.7558740029,
				"element": "Cl" 
			},
			{
				"x": 0.5469714045,
				"y": -2.7064614193,
				"z": -1.2415564491,
				"element": "C" 
			},
			{
				"x": 0.2417931434,
				"y": -2.2137329525,
				"z": 0.0352703359,
				"element": "C" 
			},
			{
				"x": 1.2823880678,
				"y": -2.0381308354,
				"z": 0.995463468,
				"element": "N" 
			},
			{
				"x": 1.8119243183,
				"y": -0.8566941854,
				"z": 1.4701897072,
				"element": "C" 
			},
			{
				"x": 2.7297268721,
				"y": -0.8592076983,
				"z": 2.2746681688,
				"element": "O" 
			},
			{
				"x": 1.1823411854,
				"y": 0.4289715597,
				"z": 0.908547433,
				"element": "C" 
			},
			{
				"x": 1.9248234102,
				"y": 1.5753121561,
				"z": 1.2724409957,
				"element": "O" 
			},
			{
				"x": 1.535973726,
				"y": 2.2571221617,
				"z": 2.4029996101,
				"element": "C" 
			},
			{
				"x": 0.5836243548,
				"y": 3.2995504275,
				"z": 2.353089475,
				"element": "C" 
			},
			{
				"x": 0.3083183047,
				"y": 4.0135244191,
				"z": 3.533640339,
				"element": "C" 
			},
			{
				"x": 0.9436609589,
				"y": 3.7059541441,
				"z": 4.7296370199,
				"element": "C" 
			},
			{
				"x": 1.883402095,
				"y": 2.67131664,
				"z": 4.7635805345,
				"element": "C" 
			},
			{
				"x": 2.1789578954,
				"y": 1.9535252135,
				"z": 3.6074711542,
				"element": "C" 
			},
			{
				"x": -0.1591018251,
				"y": 3.7537336954,
				"z": 1.1437613602,
				"element": "C" 
			},
			{
				"x": -0.0109695229,
				"y": 2.9754522892,
				"z": 0.0438076521,
				"element": "O" 
			},
			{
				"x": -0.8714670413,
				"y": 4.7407595097,
				"z": 1.1191925274,
				"element": "O" 
			},
			{
				"x": -1.0888289998,
				"y": -1.9379617035,
				"z": 0.3549546801,
				"element": "C" 
			},
			{
				"x": -2.1005657183,
				"y": -2.1240439179,
				"z": -0.587654057,
				"element": "C" 
			},
			{
				"x": -4.6302386667,
				"y": -2.8095390771,
				"z": -3.4742473128,
				"element": "H" 
			},
			{
				"x": -4.2408052636,
				"y": -1.5007705707,
				"z": -2.3257244022,
				"element": "H" 
			},
			{
				"x": -4.4663424504,
				"y": -3.1757976518,
				"z": -1.7357602858,
				"element": "H" 
			},
			{
				"x": 1.575253105,
				"y": -2.9249184499,
				"z": -1.5079432334,
				"element": "H" 
			},
			{
				"x": 1.776983084,
				"y": -2.8569211513,
				"z": 1.3297698218,
				"element": "H" 
			},
			{
				"x": 1.1729378501,
				"y": 0.3829462464,
				"z": -0.1847301746,
				"element": "H" 
			},
			{
				"x": 0.1382188056,
				"y": 0.5100562649,
				"z": 1.2305253111,
				"element": "H" 
			},
			{
				"x": -0.415700779,
				"y": 4.8186271683,
				"z": 3.4737016322,
				"element": "H" 
			},
			{
				"x": 0.7137002627,
				"y": 4.2704585898,
				"z": 5.6279792891,
				"element": "H" 
			},
			{
				"x": 2.3896966474,
				"y": 2.4230526332,
				"z": 5.6922270284,
				"element": "H" 
			},
			{
				"x": 2.8960437728,
				"y": 1.1412374462,
				"z": 3.5972729485,
				"element": "H" 
			},
			{
				"x": -0.5474490501,
				"y": 3.410976981,
				"z": -0.6401370566,
				"element": "H" 
			},
			{
				"x": -1.337993019,
				"y": -1.5871357209,
				"z": 1.3512763862,
				"element": "H" 
			},
			{
				"x": -3.1242346444,
				"y": -1.8976948431,
				"z": -0.3156523825,
				"element": "H" 
			}
		],
		 "valence_orbital": [ 
			{
				"type": "occ",
				"energy": -0.26626,
				"method": "rhf"
			},
			{
				"type": "occ",
				"energy": -0.2589,
				"method": "rhf"
			},
			{
				"type": "occ",
				"energy": -0.25663,
				"method": "rhf"
			},
			{
				"type": "occ",
				"energy": -0.24409,
				"method": "rhf"
			},
			{
				"type": "occ",
				"energy": -0.23423,
				"method": "rhf"
			},
			{
				"type": "unocc",
				"energy": -0.04498,
				"method": "rhf"
			},
			{
				"type": "unocc",
				"energy": -0.03134,
				"method": "rhf"
			},
			{
				"type": "unocc",
				"energy": -0.02239,
				"method": "rhf"
			},
			{
				"type": "unocc",
				"energy": -0.00196,
				"method": "rhf"
			},
			{
				"type": "unocc",
				"energy": 0.01772,
				"method": "rhf"
			}
		],
		"cosmo_sigma_profile": { 
			"-0.025": 0.0,
			"-0.024": 0.0,
			"-0.023": 0.0,
			"-0.022": 0.0,
			"-0.021": 0.0,
			"-0.02": 0.0,
			"-0.019": 0.0,
			"-0.018": 0.638069197497,
			"-0.017": 0.766100700625,
			"-0.016": 1.13637752865,
			"-0.015": 0.745660073052,
			"-0.014": 1.27922469807,
			"-0.013": 1.67040050703,
			"-0.012": 1.30790685959,
			"-0.011": 2.45510734975,
			"-0.01": 2.08022912371,
			"-0.009": 1.29904603626,
			"-0.008": 5.04868654333,
			"-0.007": 13.5030090192,
			"-0.006": 24.1491331335,
			"-0.005": 24.0789224705,
			"-0.004": 24.1161355453,
			"-0.003": 21.9624734918,
			"-0.002": 20.915553176,
			"-0.001": 19.6905510782,
			"0.0": 21.1939122452,
			"0.001": 26.8000939554,
			"0.002": 32.1175808637,
			"0.003": 27.3848741054,
			"0.004": 20.3099313728,
			"0.005": 10.8670575679,
			"0.006": 6.62409979416,
			"0.007": 5.93572989936,
			"0.008": 5.99544059778,
			"0.009": 5.56437650103,
			"0.01": 7.08202113124,
			"0.011": 7.98853843953,
			"0.012": 7.97624306547,
			"0.013": 3.3397566024,
			"0.014": 0.613145373368,
			"0.015": 0.0,
			"0.016": 0.0,
			"0.017": 0.0,
			"0.018": 0.0,
			"0.019": 0.0,
			"0.02": 0.0,
			"0.021": 0.0,
			"0.022": 0.0,
			"0.023": 0.0,
			"0.024": 0.0,
			"0.0": 0.0
		}
	}
}
