{
	 "smiles": "COC1=CC2=C(C=C1OC)C(N(CC2)C(C)=O)C1=CC=C(O)C=C1", 
	 "Tm": 419.15, 
	 "num_atms": 45, 
	 "gaussian": { 
		 "optdone": 1, 
		 "sigma_profile": "yes", 
		 "theory": "DFT", 
		 "functional": "B3LYP", 
		 "basiset": "6-31G**", 
		 "properties": { 
			 "R2extent": 9000.9563, 
			 "electric_dipole_moment_norm": 2.44814110092, 
			 "electric_quadrupole_moment_norm": 17.0048038651, 
			 "total_energy": -1092.29585488, 
			 "HOMO_LUMO_gap": 0.2038, 
			 "cosmo_polarized_energy": -20.05, 
			 "cosmo_cavitation_energy": 46.34, 
			 "cosmo_dispersion_energy": -31.84, 
			 "cosmo_repulsion_energy": 2.43, 
			 "cosmo_total_nonelectrostatic_energy": 16.93, 
			 "SMD_solvation_energy": 8.56 
		},
		"coords": [
			{
				"x": -0.8651718093,
				"y": 3.2482497029,
				"z": 3.8666294644,
				"element": "C" 
			},
			{
				"x": -1.4457237311,
				"y": 2.0184469413,
				"z": 3.4167787274,
				"element": "O" 
			},
			{
				"x": -1.03683346,
				"y": 1.6082200414,
				"z": 2.1666477673,
				"element": "C" 
			},
			{
				"x": -1.9632496753,
				"y": 1.5858218681,
				"z": 1.1270264404,
				"element": "C" 
			},
			{
				"x": -1.6196752542,
				"y": 1.1531602587,
				"z": -0.1585679971,
				"element": "C" 
			},
			{
				"x": -0.3011085288,
				"y": 0.7228972985,
				"z": -0.407812574,
				"element": "C" 
			},
			{
				"x": 0.6302509636,
				"y": 0.7572446239,
				"z": 0.6365497728,
				"element": "C" 
			},
			{
				"x": 0.2780761236,
				"y": 1.1776766666,
				"z": 1.9175453261,
				"element": "C" 
			},
			{
				"x": 1.2435113676,
				"y": 1.1995311778,
				"z": 2.9018427676,
				"element": "O" 
			},
			{
				"x": 1.0619018813,
				"y": 0.2247948019,
				"z": 3.9352750745,
				"element": "C" 
			},
			{
				"x": 0.1102671408,
				"y": 0.3531940332,
				"z": -1.8400024324,
				"element": "C" 
			},
			{
				"x": -1.0775520699,
				"y": -0.0896544756,
				"z": -2.6200612967,
				"element": "N" 
			},
			{
				"x": -2.0830960117,
				"y": 0.9771640317,
				"z": -2.6506577042,
				"element": "C" 
			},
			{
				"x": -2.6809849405,
				"y": 1.1659737955,
				"z": -1.2480897432,
				"element": "C" 
			},
			{
				"x": -1.4900202784,
				"y": -1.4136020399,
				"z": -2.6483593275,
				"element": "C" 
			},
			{
				"x": -2.732650022,
				"y": -1.7192814012,
				"z": -3.4834269832,
				"element": "C" 
			},
			{
				"x": -0.8919272237,
				"y": -2.3205793943,
				"z": -2.0871316471,
				"element": "O" 
			},
			{
				"x": 1.3654366614,
				"y": -0.4921726562,
				"z": -2.0195003588,
				"element": "C" 
			},
			{
				"x": 2.2696245036,
				"y": -0.1230187798,
				"z": -3.0245450922,
				"element": "C" 
			},
			{
				"x": 3.4502487079,
				"y": -0.8271383343,
				"z": -3.2496799251,
				"element": "C" 
			},
			{
				"x": 3.7556554492,
				"y": -1.9269022426,
				"z": -2.4449529066,
				"element": "C" 
			},
			{
				"x": 4.926063743,
				"y": -2.5885856304,
				"z": -2.6892454522,
				"element": "O" 
			},
			{
				"x": 2.8710629067,
				"y": -2.3072462296,
				"z": -1.4282325692,
				"element": "C" 
			},
			{
				"x": 1.6894022901,
				"y": -1.6008551888,
				"z": -1.2259840027,
				"element": "C" 
			},
			{
				"x": 0.2254680138,
				"y": 3.1790331767,
				"z": 3.9212187474,
				"element": "H" 
			},
			{
				"x": -1.1447925518,
				"y": 4.0750458243,
				"z": 3.2012099065,
				"element": "H" 
			},
			{
				"x": -1.2748010324,
				"y": 3.4336857879,
				"z": 4.8618009254,
				"element": "H" 
			},
			{
				"x": -2.9728204266,
				"y": 1.9262797717,
				"z": 1.3419923305,
				"element": "H" 
			},
			{
				"x": 1.6562720028,
				"y": 0.4482124302,
				"z": 0.4730263445,
				"element": "H" 
			},
			{
				"x": 1.8886111034,
				"y": 0.3624738166,
				"z": 4.6354526613,
				"element": "H" 
			},
			{
				"x": 0.1090965589,
				"y": 0.3668060999,
				"z": 4.4552769191,
				"element": "H" 
			},
			{
				"x": 1.1030916952,
				"y": -0.7909317265,
				"z": 3.5220746367,
				"element": "H" 
			},
			{
				"x": 0.3647307261,
				"y": 1.308778621,
				"z": -2.3201252366,
				"element": "H" 
			},
			{
				"x": -1.5892531833,
				"y": 1.8970498752,
				"z": -2.983986278,
				"element": "H" 
			},
			{
				"x": -2.8610908741,
				"y": 0.7520463442,
				"z": -3.380997297,
				"element": "H" 
			},
			{
				"x": -3.2515252763,
				"y": 2.1021634998,
				"z": -1.2056653711,
				"element": "H" 
			},
			{
				"x": -3.4034238861,
				"y": 0.3595932099,
				"z": -1.0576716405,
				"element": "H" 
			},
			{
				"x": -2.7502375011,
				"y": -2.7975126547,
				"z": -3.6421674592,
				"element": "H" 
			},
			{
				"x": -2.7254694338,
				"y": -1.2069443727,
				"z": -4.4498154461,
				"element": "H" 
			},
			{
				"x": -3.6503118955,
				"y": -1.4381759402,
				"z": -2.955125295,
				"element": "H" 
			},
			{
				"x": 2.0460647065,
				"y": 0.7366082055,
				"z": -3.6523111424,
				"element": "H" 
			},
			{
				"x": 4.1427774535,
				"y": -0.5349739379,
				"z": -4.0319849291,
				"element": "H" 
			},
			{
				"x": 5.0014544731,
				"y": -3.3294600877,
				"z": -2.0740253858,
				"element": "H" 
			},
			{
				"x": 3.1013471091,
				"y": -3.1673124939,
				"z": -0.8022818747,
				"element": "H" 
			},
			{
				"x": 1.0006034847,
				"y": -1.9276043183,
				"z": -0.4577404442,
				"element": "H" 
			}
		],
		 "valence_orbital": [ 
			{
				"type": "occ",
				"energy": -0.24055,
				"method": "rhf"
			},
			{
				"type": "occ",
				"energy": -0.23659,
				"method": "rhf"
			},
			{
				"type": "occ",
				"energy": -0.23316,
				"method": "rhf"
			},
			{
				"type": "occ",
				"energy": -0.22102,
				"method": "rhf"
			},
			{
				"type": "occ",
				"energy": -0.2077,
				"method": "rhf"
			},
			{
				"type": "unocc",
				"energy": -0.0039,
				"method": "rhf"
			},
			{
				"type": "unocc",
				"energy": 0.00086,
				"method": "rhf"
			},
			{
				"type": "unocc",
				"energy": 0.00972,
				"method": "rhf"
			},
			{
				"type": "unocc",
				"energy": 0.0151,
				"method": "rhf"
			},
			{
				"type": "unocc",
				"energy": 0.02534,
				"method": "rhf"
			}
		],
		"cosmo_sigma_profile": { 
			"-0.025": 0.0,
			"-0.024": 0.0,
			"-0.023": 0.0,
			"-0.022": 0.0,
			"-0.021": 0.0,
			"-0.02": 0.0,
			"-0.019": 0.0,
			"-0.018": 0.340678771964,
			"-0.017": 1.01811371866,
			"-0.016": 1.03948174487,
			"-0.015": 1.28284011699,
			"-0.014": 0.631455555853,
			"-0.013": 1.2984295947,
			"-0.012": 0.407313921886,
			"-0.011": 0.670526695547,
			"-0.01": 1.42978559724,
			"-0.009": 1.48099541953,
			"-0.008": 0.862834270193,
			"-0.007": 2.92576176801,
			"-0.006": 17.5251321395,
			"-0.005": 26.2846730359,
			"-0.004": 36.2091710402,
			"-0.003": 39.9044671573,
			"-0.002": 35.2598519416,
			"-0.001": 28.7329584515,
			"0.0": 24.6245551029,
			"0.001": 17.5067829701,
			"0.002": 15.5297993703,
			"0.003": 18.3190525219,
			"0.004": 22.1961008312,
			"0.005": 21.1012017543,
			"0.006": 10.7658090574,
			"0.007": 6.04850170308,
			"0.008": 4.77039865126,
			"0.009": 6.42212604974,
			"0.01": 4.23508746054,
			"0.011": 5.76329506299,
			"0.012": 5.10856081203,
			"0.013": 2.56781417667,
			"0.014": 1.95033531762,
			"0.015": 1.36969555712,
			"0.016": 0.036286501417,
			"0.017": 0.0,
			"0.018": 0.0,
			"0.019": 0.0,
			"0.02": 0.0,
			"0.021": 0.0,
			"0.022": 0.0,
			"0.023": 0.0,
			"0.024": 0.0,
			"0.025": 0.0
		}
	}
}
