{
	 "smiles": "O=C1CC2=C3C1=CC=CC3=CC=C2", 
	 "Tm": 394.15, 
	 "num_atms": 21, 
	 "gaussian": { 
		 "optdone": 1, 
		 "sigma_profile": "yes", 
		 "theory": "DFT", 
		 "functional": "B3LYP", 
		 "basiset": "6-31G**", 
		 "properties": { 
			 "R2extent": 2602.5189, 
			 "electric_dipole_moment_norm": 3.23793140292, 
			 "electric_quadrupole_moment_norm": 11.8371036909, 
			 "total_energy": -537.333333573, 
			 "HOMO_LUMO_gap": 0.15442, 
			 "cosmo_polarized_energy": -8.4, 
			 "cosmo_cavitation_energy": 24.71, 
			 "cosmo_dispersion_energy": -18.54, 
			 "cosmo_repulsion_energy": 1.43, 
			 "cosmo_total_nonelectrostatic_energy": 7.6, 
			 "SMD_solvation_energy": 4.22 
		},
		"coords": [
			{
				"x": 0.9978744782,
				"y": 3.3638430885,
				"z": -1.2516069128,
				"element": "O" 
			},
			{
				"x": 0.84672332,
				"y": 2.3457343895,
				"z": -0.6060283525,
				"element": "C" 
			},
			{
				"x": 1.5291083409,
				"y": 0.9781675033,
				"z": -0.9005324069,
				"element": "C" 
			},
			{
				"x": 1.0080660295,
				"y": 0.0645623018,
				"z": 0.1878779084,
				"element": "C" 
			},
			{
				"x": 0.1318127473,
				"y": 0.8100515566,
				"z": 1.0132215785,
				"element": "C" 
			},
			{
				"x": -0.0048396715,
				"y": 2.1522393773,
				"z": 0.6015853704,
				"element": "C" 
			},
			{
				"x": -0.8263646712,
				"y": 3.0104801113,
				"z": 1.3056011551,
				"element": "C" 
			},
			{
				"x": -1.5129147235,
				"y": 2.4992147198,
				"z": 2.4352260584,
				"element": "C" 
			},
			{
				"x": -1.3804614144,
				"y": 1.1781644411,
				"z": 2.8429125805,
				"element": "C" 
			},
			{
				"x": -0.5409377874,
				"y": 0.2759149221,
				"z": 2.1347806071,
				"element": "C" 
			},
			{
				"x": -0.2993799675,
				"y": -1.0970479917,
				"z": 2.4217763245,
				"element": "C" 
			},
			{
				"x": 0.5553026541,
				"y": -1.8278869884,
				"z": 1.6182476581,
				"element": "C" 
			},
			{
				"x": 1.2206611205,
				"y": -1.2603353792,
				"z": 0.491898996,
				"element": "C" 
			},
			{
				"x": 2.6184337875,
				"y": 1.1022162585,
				"z": -0.8837868199,
				"element": "H" 
			},
			{
				"x": 1.2649477944,
				"y": 0.648651424,
				"z": -1.9124219497,
				"element": "H" 
			},
			{
				"x": -0.9432030814,
				"y": 4.0465804071,
				"z": 1.0027136922,
				"element": "H" 
			},
			{
				"x": -2.1630276059,
				"y": 3.1615932951,
				"z": 2.9996245222,
				"element": "H" 
			},
			{
				"x": -1.9257904985,
				"y": 0.8277950758,
				"z": 3.7157111171,
				"element": "H" 
			},
			{
				"x": -0.7871811377,
				"y": -1.5670673539,
				"z": 3.2714791534,
				"element": "H" 
			},
			{
				"x": 0.7308091155,
				"y": -2.8750081368,
				"z": 1.8487002882,
				"element": "H" 
			},
			{
				"x": 1.8822611713,
				"y": -1.8817630218,
				"z": -0.1053805683,
				"element": "H" 
			}
		],
		 "valence_orbital": [ 
			{
				"type": "occ",
				"energy": -0.32781,
				"method": "rhf"
			},
			{
				"type": "occ",
				"energy": -0.28998,
				"method": "rhf"
			},
			{
				"type": "occ",
				"energy": -0.2542,
				"method": "rhf"
			},
			{
				"type": "occ",
				"energy": -0.24436,
				"method": "rhf"
			},
			{
				"type": "occ",
				"energy": -0.22399,
				"method": "rhf"
			},
			{
				"type": "unocc",
				"energy": -0.06957,
				"method": "rhf"
			},
			{
				"type": "unocc",
				"energy": -0.02366,
				"method": "rhf"
			},
			{
				"type": "unocc",
				"energy": -0.00829,
				"method": "rhf"
			},
			{
				"type": "unocc",
				"energy": 0.05297,
				"method": "rhf"
			},
			{
				"type": "unocc",
				"energy": 0.0924,
				"method": "rhf"
			}
		],
		"cosmo_sigma_profile": { 
			"-0.025": 0.0,
			"-0.024": 0.0,
			"-0.023": 0.0,
			"-0.022": 0.0,
			"-0.021": 0.0,
			"-0.02": 0.0,
			"-0.019": 0.0,
			"-0.018": 0.0,
			"-0.017": 0.0,
			"-0.016": 0.0,
			"-0.015": 0.0,
			"-0.014": 0.0,
			"-0.013": 0.0,
			"-0.012": 0.0,
			"-0.011": 0.0,
			"-0.01": 0.0,
			"-0.009": 0.0,
			"-0.008": 0.0134490006611,
			"-0.007": 4.20838975839,
			"-0.006": 17.7149300743,
			"-0.005": 18.373152882,
			"-0.004": 17.4050873486,
			"-0.003": 15.9424189013,
			"-0.002": 13.2415481958,
			"-0.001": 10.9715475468,
			"0.0": 10.946200098,
			"0.001": 12.6123527937,
			"0.002": 19.0792578865,
			"0.003": 22.3750225911,
			"0.004": 12.082639808,
			"0.005": 4.92151848187,
			"0.006": 2.24829906848,
			"0.007": 0.983085939027,
			"0.008": 1.67509580891,
			"0.009": 1.31432854899,
			"0.01": 2.33528157569,
			"0.011": 3.77273069971,
			"0.012": 4.45816337644,
			"0.013": 2.12867047354,
			"0.014": 0.0254542442082,
			"0.015": 0.0,
			"0.016": 0.0,
			"0.017": 0.0,
			"0.018": 0.0,
			"0.019": 0.0,
			"0.02": 0.0,
			"0.021": 0.0,
			"0.022": 0.0,
			"0.023": 0.0,
			"0.024": 0.0,
			"0.025": 0.0
		}
	}
}
