{
	 "smiles": "CC1=CC(C=O)=C(C)N1C1=C(F)C=C(F)C=C1", 
	 "Tm": 407.15, 
	 "num_atms": 28, 
	 "gaussian": { 
		 "optdone": 1, 
		 "sigma_profile": "yes", 
		 "theory": "DFT", 
		 "functional": "B3LYP", 
		 "basiset": "6-31G**", 
		 "properties": { 
			 "R2extent": 4540.5931, 
			 "electric_dipole_moment_norm": 5.00237376952, 
			 "electric_quadrupole_moment_norm": 19.2614967946, 
			 "total_energy": -831.651153749, 
			 "HOMO_LUMO_gap": 0.17098, 
			 "cosmo_polarized_energy": -10.77, 
			 "cosmo_cavitation_energy": 33.12, 
			 "cosmo_dispersion_energy": -22.49, 
			 "cosmo_repulsion_energy": 1.69, 
			 "cosmo_total_nonelectrostatic_energy": 12.32, 
			 "SMD_solvation_energy": 7.89 
		},
		"coords": [
			{
				"x": 2.3656192315,
				"y": 1.5040656343,
				"z": 0.0740929565,
				"element": "C" 
			},
			{
				"x": 1.1823426675,
				"y": 1.4616527307,
				"z": 0.986092378,
				"element": "C" 
			},
			{
				"x": 0.8593066742,
				"y": 2.2402089903,
				"z": 2.0634781287,
				"element": "C" 
			},
			{
				"x": -0.3693876258,
				"y": 1.7527669837,
				"z": 2.6212684615,
				"element": "C" 
			},
			{
				"x": -1.0516374439,
				"y": 2.3232531407,
				"z": 3.7737451965,
				"element": "C" 
			},
			{
				"x": -2.102639636,
				"y": 1.9335384438,
				"z": 4.2662237788,
				"element": "O" 
			},
			{
				"x": -0.7732130094,
				"y": 0.661106892,
				"z": 1.8556132765,
				"element": "C" 
			},
			{
				"x": -1.9724986443,
				"y": -0.217368408,
				"z": 1.9910027734,
				"element": "C" 
			},
			{
				"x": 0.1696389503,
				"y": 0.4940452125,
				"z": 0.8624409708,
				"element": "N" 
			},
			{
				"x": 0.1264645139,
				"y": -0.5120750383,
				"z": -0.1433383378,
				"element": "C" 
			},
			{
				"x": 0.3555453201,
				"y": -1.8539065072,
				"z": 0.183324509,
				"element": "C" 
			},
			{
				"x": 0.5982228403,
				"y": -2.1815069403,
				"z": 1.462999168,
				"element": "F" 
			},
			{
				"x": 0.3299234421,
				"y": -2.8625092495,
				"z": -0.7711267192,
				"element": "C" 
			},
			{
				"x": 0.0778348789,
				"y": -2.4990765964,
				"z": -2.0895885577,
				"element": "C" 
			},
			{
				"x": 0.0547769739,
				"y": -3.4612733054,
				"z": -3.0277158097,
				"element": "F" 
			},
			{
				"x": -0.15432697,
				"y": -1.1797761018,
				"z": -2.4658433799,
				"element": "C" 
			},
			{
				"x": -0.1331641608,
				"y": -0.1939161954,
				"z": -1.4809878461,
				"element": "C" 
			},
			{
				"x": 2.9210203254,
				"y": 0.5584281922,
				"z": 0.0745925421,
				"element": "H" 
			},
			{
				"x": 2.0956504933,
				"y": 1.719028025,
				"z": -0.9665803593,
				"element": "H" 
			},
			{
				"x": 3.0460671316,
				"y": 2.2905308536,
				"z": 0.4086030726,
				"element": "H" 
			},
			{
				"x": 1.4399487913,
				"y": 3.0755705239,
				"z": 2.4320218672,
				"element": "H" 
			},
			{
				"x": -0.5251995772,
				"y": 3.2010431715,
				"z": 4.2131843766,
				"element": "H" 
			},
			{
				"x": -2.6005297262,
				"y": 0.1783639965,
				"z": 2.7888942058,
				"element": "H" 
			},
			{
				"x": -1.6860370477,
				"y": -1.2438515374,
				"z": 2.2477273753,
				"element": "H" 
			},
			{
				"x": -2.5522708469,
				"y": -0.2583806748,
				"z": 1.061251165,
				"element": "H" 
			},
			{
				"x": 0.5071103191,
				"y": -3.8944662478,
				"z": -0.4941373871,
				"element": "H" 
			},
			{
				"x": -0.3543282994,
				"y": -0.9432736553,
				"z": -3.5043138686,
				"element": "H" 
			},
			{
				"x": -0.3264395658,
				"y": 0.8417776668,
				"z": -1.7398239371,
				"element": "H" 
			}
		],
		 "valence_orbital": [ 
			{
				"type": "occ",
				"energy": -0.28301,
				"method": "rhf"
			},
			{
				"type": "occ",
				"energy": -0.27244,
				"method": "rhf"
			},
			{
				"type": "occ",
				"energy": -0.24649,
				"method": "rhf"
			},
			{
				"type": "occ",
				"energy": -0.23394,
				"method": "rhf"
			},
			{
				"type": "occ",
				"energy": -0.21038,
				"method": "rhf"
			},
			{
				"type": "unocc",
				"energy": -0.0394,
				"method": "rhf"
			},
			{
				"type": "unocc",
				"energy": -0.0294,
				"method": "rhf"
			},
			{
				"type": "unocc",
				"energy": -0.02142,
				"method": "rhf"
			},
			{
				"type": "unocc",
				"energy": 0.03481,
				"method": "rhf"
			},
			{
				"type": "unocc",
				"energy": 0.05947,
				"method": "rhf"
			}
		],
		"cosmo_sigma_profile": { 
			"-0.025": 0.0,
			"-0.024": 0.0,
			"-0.023": 0.0,
			"-0.022": 0.0,
			"-0.021": 0.0,
			"-0.02": 0.0,
			"-0.019": 0.0,
			"-0.018": 0.0,
			"-0.017": 0.0,
			"-0.016": 0.0,
			"-0.015": 0.0,
			"-0.014": 0.0,
			"-0.013": 0.0,
			"-0.012": 0.0,
			"-0.011": 0.0,
			"-0.01": 0.121965187059,
			"-0.009": 1.56546135793,
			"-0.008": 4.35893115844,
			"-0.007": 5.47835602949,
			"-0.006": 8.42082958114,
			"-0.005": 15.6545371374,
			"-0.004": 20.1716170034,
			"-0.003": 21.2548372765,
			"-0.002": 22.0144687689,
			"-0.001": 30.8267708539,
			"0.0": 31.0894572092,
			"0.001": 19.5702267759,
			"0.002": 16.230413621,
			"0.003": 22.1028758049,
			"0.004": 17.3980683491,
			"0.005": 6.40514564624,
			"0.006": 4.94760549716,
			"0.007": 2.32632322703,
			"0.008": 1.57792221006,
			"0.009": 1.63200797664,
			"0.01": 2.09233394622,
			"0.011": 2.48191110686,
			"0.012": 3.07633432422,
			"0.013": 2.87652751997,
			"0.014": 1.26708796204,
			"0.015": 0.0954409312896,
			"0.016": 0.0,
			"0.017": 0.0,
			"0.018": 0.0,
			"0.019": 0.0,
			"0.02": 0.0,
			"0.021": 0.0,
			"0.022": 0.0,
			"0.023": 0.0,
			"0.024": 0.0,
			"0.025": 0.0
		}
	}
}
