{
	 "smiles": "COC1=CC=C(C=C1)C(Cl)(C1=CC=CC=C1)C1=CC=CC=C1", 
	 "Tm": 396.15, 
	 "num_atms": 39, 
	 "gaussian": { 
		 "optdone": 1, 
		 "sigma_profile": "yes", 
		 "theory": "DFT", 
		 "functional": "B3LYP", 
		 "basiset": "6-31G**", 
		 "properties": { 
			 "R2extent": 7700.1549, 
			 "electric_dipole_moment_norm": 3.49877683341, 
			 "electric_quadrupole_moment_norm": 15.3239790857, 
			 "total_energy": -1307.77728197, 
			 "HOMO_LUMO_gap": 0.18401, 
			 "cosmo_polarized_energy": -9.9, 
			 "cosmo_cavitation_energy": 42.82, 
			 "cosmo_dispersion_energy": -29.69, 
			 "cosmo_repulsion_energy": 2.28, 
			 "cosmo_total_nonelectrostatic_energy": 15.41, 
			 "SMD_solvation_energy": 7.65 
		},
		"coords": [
			{
				"x": -3.0855894296,
				"y": 4.3619158619,
				"z": 1.6934258219,
				"element": "C" 
			},
			{
				"x": -1.9396191179,
				"y": 3.8902390367,
				"z": 2.384900301,
				"element": "O" 
			},
			{
				"x": -1.3863051472,
				"y": 2.7105986406,
				"z": 1.9853015575,
				"element": "C" 
			},
			{
				"x": -1.8539006338,
				"y": 1.9240210794,
				"z": 0.9303683119,
				"element": "C" 
			},
			{
				"x": -1.204242567,
				"y": 0.7240771821,
				"z": 0.6170699245,
				"element": "C" 
			},
			{
				"x": -0.0896179217,
				"y": 0.2848428135,
				"z": 1.3349291053,
				"element": "C" 
			},
			{
				"x": 0.3724138958,
				"y": 1.098539089,
				"z": 2.38853403,
				"element": "C" 
			},
			{
				"x": -0.2614061729,
				"y": 2.2859802114,
				"z": 2.7129818877,
				"element": "C" 
			},
			{
				"x": 0.6611412139,
				"y": -0.9915597054,
				"z": 0.956640037,
				"element": "C" 
			},
			{
				"x": 0.9001461875,
				"y": -1.9650104079,
				"z": 2.5838407927,
				"element": "Cl" 
			},
			{
				"x": 2.0707347674,
				"y": -0.717713837,
				"z": 0.4177162153,
				"element": "C" 
			},
			{
				"x": 2.4194122235,
				"y": 0.5426940492,
				"z": -0.0839115235,
				"element": "C" 
			},
			{
				"x": 3.6842873761,
				"y": 0.7676551938,
				"z": -0.6359953857,
				"element": "C" 
			},
			{
				"x": 4.6190047496,
				"y": -0.2629905797,
				"z": -0.6969898824,
				"element": "C" 
			},
			{
				"x": 4.2779686341,
				"y": -1.5272467887,
				"z": -0.2073642412,
				"element": "C" 
			},
			{
				"x": 3.017928403,
				"y": -1.752459913,
				"z": 0.3396976269,
				"element": "C" 
			},
			{
				"x": -0.1521799356,
				"y": -1.9008444275,
				"z": 0.0273335096,
				"element": "C" 
			},
			{
				"x": -1.3039075232,
				"y": -2.5540289541,
				"z": 0.4969419557,
				"element": "C" 
			},
			{
				"x": -2.0826075881,
				"y": -3.3306574407,
				"z": -0.3567953341,
				"element": "C" 
			},
			{
				"x": -1.732340865,
				"y": -3.4668436979,
				"z": -1.7031532225,
				"element": "C" 
			},
			{
				"x": -0.5988686606,
				"y": -2.8148508962,
				"z": -2.18293047,
				"element": "C" 
			},
			{
				"x": 0.1854460985,
				"y": -2.0375734851,
				"z": -1.3253362525,
				"element": "C" 
			},
			{
				"x": -3.922933484,
				"y": 3.6565342704,
				"z": 1.7699069641,
				"element": "H" 
			},
			{
				"x": -2.8705904804,
				"y": 4.5487952817,
				"z": 0.633377358,
				"element": "H" 
			},
			{
				"x": -3.3624904241,
				"y": 5.3014236117,
				"z": 2.1740665877,
				"element": "H" 
			},
			{
				"x": -2.7163316904,
				"y": 2.2231004296,
				"z": 0.3467054743,
				"element": "H" 
			},
			{
				"x": -1.5837477361,
				"y": 0.1334159655,
				"z": -0.2082482195,
				"element": "H" 
			},
			{
				"x": 1.2348634641,
				"y": 0.7833085594,
				"z": 2.9657548174,
				"element": "H" 
			},
			{
				"x": 0.0909403715,
				"y": 2.9055461874,
				"z": 3.5311580352,
				"element": "H" 
			},
			{
				"x": 1.7032112582,
				"y": 1.3549727798,
				"z": -0.048030326,
				"element": "H" 
			},
			{
				"x": 3.9330293238,
				"y": 1.7548732588,
				"z": -1.0149360827,
				"element": "H" 
			},
			{
				"x": 5.6036974791,
				"y": -0.0869166089,
				"z": -1.1204251446,
				"element": "H" 
			},
			{
				"x": 4.9969672834,
				"y": -2.3404674554,
				"z": -0.2492128525,
				"element": "H" 
			},
			{
				"x": 2.764847256,
				"y": -2.7351739559,
				"z": 0.7220129374,
				"element": "H" 
			},
			{
				"x": -1.5801443161,
				"y": -2.4592065562,
				"z": 1.5411931948,
				"element": "H" 
			},
			{
				"x": -2.9637608514,
				"y": -3.8337664743,
				"z": 0.0311839545,
				"element": "H" 
			},
			{
				"x": -2.3380139001,
				"y": -4.0761050704,
				"z": -2.3679067712,
				"element": "H" 
			},
			{
				"x": -0.3146038402,
				"y": -2.9088579553,
				"z": -3.22715877,
				"element": "H" 
			},
			{
				"x": 1.0622622999,
				"y": -1.5358592925,
				"z": -1.717245922,
				"element": "H" 
			}
		],
		 "valence_orbital": [ 
			{
				"type": "occ",
				"energy": -0.2522,
				"method": "rhf"
			},
			{
				"type": "occ",
				"energy": -0.24862,
				"method": "rhf"
			},
			{
				"type": "occ",
				"energy": -0.24385,
				"method": "rhf"
			},
			{
				"type": "occ",
				"energy": -0.24183,
				"method": "rhf"
			},
			{
				"type": "occ",
				"energy": -0.21947,
				"method": "rhf"
			},
			{
				"type": "unocc",
				"energy": -0.03546,
				"method": "rhf"
			},
			{
				"type": "unocc",
				"energy": -0.01286,
				"method": "rhf"
			},
			{
				"type": "unocc",
				"energy": -0.00782,
				"method": "rhf"
			},
			{
				"type": "unocc",
				"energy": -7e-05,
				"method": "rhf"
			},
			{
				"type": "unocc",
				"energy": 0.00602,
				"method": "rhf"
			}
		],
		"cosmo_sigma_profile": { 
			"-0.025": 0.0,
			"-0.024": 0.0,
			"-0.023": 0.0,
			"-0.022": 0.0,
			"-0.021": 0.0,
			"-0.02": 0.0,
			"-0.019": 0.0,
			"-0.018": 0.0,
			"-0.017": 0.0,
			"-0.016": 0.0,
			"-0.015": 0.0,
			"-0.014": 0.0,
			"-0.013": 0.0,
			"-0.012": 0.0,
			"-0.011": 0.0,
			"-0.01": 0.0,
			"-0.009": 0.0,
			"-0.008": 0.0,
			"-0.007": 0.808147764593,
			"-0.006": 17.2213784154,
			"-0.005": 30.9789561487,
			"-0.004": 36.435281443,
			"-0.003": 29.4957008651,
			"-0.002": 22.390903606,
			"-0.001": 24.6174746647,
			"0.0": 22.4556446666,
			"0.001": 24.18965127,
			"0.002": 27.1682642508,
			"0.003": 29.4986149114,
			"0.004": 30.1006954007,
			"0.005": 29.9138387045,
			"0.006": 10.0618924745,
			"0.007": 4.19507327266,
			"0.008": 1.56833886489,
			"0.009": 1.29435225963,
			"0.01": 1.45990870567,
			"0.011": 0.160555737181,
			"0.012": 0.0,
			"0.013": 0.0,
			"0.014": 0.0,
			"0.015": 0.0,
			"0.016": 0.0,
			"0.017": 0.0,
			"0.018": 0.0,
			"0.019": 0.0,
			"0.02": 0.0,
			"0.021": 0.0,
			"0.022": 0.0,
			"0.023": 0.0,
			"0.024": 0.0,
			"0.025": 0.0
		}
	}
}
