{
	 "smiles": "CN1C=NC(=N1)C1=CC(N)=CC=C1", 
	 "Tm": 458.15, 
	 "num_atms": 23, 
	 "gaussian": { 
		 "optdone": 1, 
		 "sigma_profile": "yes", 
		 "theory": "DFT", 
		 "functional": "B3LYP", 
		 "basiset": "6-31G**", 
		 "properties": { 
			 "R2extent": 3309.343, 
			 "electric_dipole_moment_norm": 3.30089717956, 
			 "electric_quadrupole_moment_norm": 19.8374378272, 
			 "total_energy": -567.988790296, 
			 "HOMO_LUMO_gap": 0.17635, 
			 "cosmo_polarized_energy": -16.36, 
			 "cosmo_cavitation_energy": 27.33, 
			 "cosmo_dispersion_energy": -20.38, 
			 "cosmo_repulsion_energy": 1.61, 
			 "cosmo_total_nonelectrostatic_energy": 8.56, 
			 "SMD_solvation_energy": 2.87 
		},
		"coords": [
			{
				"x": 3.861674859,
				"y": -1.4556885139,
				"z": -1.0430724472,
				"element": "C" 
			},
			{
				"x": 3.0638392758,
				"y": -0.3650794059,
				"z": -0.5194032844,
				"element": "N" 
			},
			{
				"x": 3.3194938065,
				"y": 0.9632094649,
				"z": -0.503603185,
				"element": "C" 
			},
			{
				"x": 2.3284072038,
				"y": 1.6187571499,
				"z": 0.0679121376,
				"element": "N" 
			},
			{
				"x": 1.4501689062,
				"y": 0.6201295438,
				"z": 0.4018543847,
				"element": "C" 
			},
			{
				"x": 1.8626019602,
				"y": -0.6023833119,
				"z": 0.0609536979,
				"element": "N" 
			},
			{
				"x": 0.1672708832,
				"y": 0.8716071524,
				"z": 1.0751970832,
				"element": "C" 
			},
			{
				"x": -0.6848889869,
				"y": -0.1950580856,
				"z": 1.3858809041,
				"element": "C" 
			},
			{
				"x": -1.9091756328,
				"y": 0.0297831424,
				"z": 2.0297431388,
				"element": "C" 
			},
			{
				"x": -2.7834699545,
				"y": -1.0322987156,
				"z": 2.2865910276,
				"element": "N" 
			},
			{
				"x": -2.2685798096,
				"y": 1.3485453142,
				"z": 2.36074216,
				"element": "C" 
			},
			{
				"x": -1.4167798703,
				"y": 2.4061329023,
				"z": 2.0497602182,
				"element": "C" 
			},
			{
				"x": -0.1992082332,
				"y": 2.1833170882,
				"z": 1.4090429319,
				"element": "C" 
			},
			{
				"x": 4.108502123,
				"y": -2.1586596713,
				"z": -0.2433597134,
				"element": "H" 
			},
			{
				"x": 4.7825188047,
				"y": -1.0473238422,
				"z": -1.4635434971,
				"element": "H" 
			},
			{
				"x": 3.3091875941,
				"y": -1.9841367148,
				"z": -1.8241534624,
				"element": "H" 
			},
			{
				"x": 4.2238461731,
				"y": 1.3927581809,
				"z": -0.9133798018,
				"element": "H" 
			},
			{
				"x": -0.3880578039,
				"y": -1.2049250495,
				"z": 1.1183497807,
				"element": "H" 
			},
			{
				"x": -2.3388988765,
				"y": -1.9379679076,
				"z": 2.3522237733,
				"element": "H" 
			},
			{
				"x": -3.4242805775,
				"y": -0.8772940277,
				"z": 3.0530447788,
				"element": "H" 
			},
			{
				"x": -3.2179668353,
				"y": 1.5371888541,
				"z": 2.8564065943,
				"element": "H" 
			},
			{
				"x": -1.7087519602,
				"y": 3.4188380582,
				"z": 2.3140980935,
				"element": "H" 
			},
			{
				"x": 0.4691469513,
				"y": 3.0007483948,
				"z": 1.1654146867,
				"element": "H" 
			}
		],
		 "valence_orbital": [ 
			{
				"type": "occ",
				"energy": -0.28172,
				"method": "rhf"
			},
			{
				"type": "occ",
				"energy": -0.27089,
				"method": "rhf"
			},
			{
				"type": "occ",
				"energy": -0.26818,
				"method": "rhf"
			},
			{
				"type": "occ",
				"energy": -0.21878,
				"method": "rhf"
			},
			{
				"type": "occ",
				"energy": -0.19315,
				"method": "rhf"
			},
			{
				"type": "unocc",
				"energy": -0.0168,
				"method": "rhf"
			},
			{
				"type": "unocc",
				"energy": 0.01988,
				"method": "rhf"
			},
			{
				"type": "unocc",
				"energy": 0.02745,
				"method": "rhf"
			},
			{
				"type": "unocc",
				"energy": 0.08452,
				"method": "rhf"
			},
			{
				"type": "unocc",
				"energy": 0.09174,
				"method": "rhf"
			}
		],
		"cosmo_sigma_profile": { 
			"-0.025": 0.0,
			"-0.024": 0.0,
			"-0.023": 0.0,
			"-0.022": 0.0,
			"-0.021": 0.0,
			"-0.02": 0.0,
			"-0.019": 0.0,
			"-0.018": 0.0,
			"-0.017": 0.0,
			"-0.016": 0.0,
			"-0.015": 0.0,
			"-0.014": 0.0,
			"-0.013": 0.111762049917,
			"-0.012": 2.19528892435,
			"-0.011": 3.35198253086,
			"-0.01": 5.97760859402,
			"-0.009": 6.12718466125,
			"-0.008": 6.92331958772,
			"-0.007": 7.2791109513,
			"-0.006": 11.5645907818,
			"-0.005": 12.9569313252,
			"-0.004": 16.6548907124,
			"-0.003": 16.439899904,
			"-0.002": 8.62876535348,
			"-0.001": 9.04833407362,
			"0.0": 8.52011745346,
			"0.001": 8.77798613921,
			"0.002": 9.5886390361,
			"0.003": 10.8018465546,
			"0.004": 15.8943810536,
			"0.005": 14.8804101717,
			"0.006": 14.8700290218,
			"0.007": 6.1175719247,
			"0.008": 4.6231329231,
			"0.009": 3.33542306325,
			"0.01": 2.41544355576,
			"0.011": 3.54036920007,
			"0.012": 2.60385708734,
			"0.013": 2.2633666885,
			"0.014": 1.7312135561,
			"0.015": 0.928566077352,
			"0.016": 0.0155985635012,
			"0.017": 0.0,
			"0.018": 0.0,
			"0.019": 0.0,
			"0.02": 0.0,
			"0.021": 0.0,
			"0.022": 0.0,
			"0.023": 0.0,
			"0.024": 0.0,
			"0.025": 0.0
		}
	}
}
