{
	 "smiles": "SC1=NN=C(C2CC2)N1CC1=CC=CC=C1", 
	 "Tm": 450.15, 
	 "num_atms": 29, 
	 "gaussian": { 
		 "optdone": 1, 
		 "sigma_profile": "yes", 
		 "theory": "DFT", 
		 "functional": "B3LYP", 
		 "basiset": "6-31G**", 
		 "properties": { 
			 "R2extent": 4785.0383, 
			 "electric_dipole_moment_norm": 4.85529936255, 
			 "electric_quadrupole_moment_norm": 9.78757726049, 
			 "total_energy": -1027.49969568, 
			 "HOMO_LUMO_gap": 0.20042, 
			 "cosmo_polarized_energy": -16.12, 
			 "cosmo_cavitation_energy": 34.32, 
			 "cosmo_dispersion_energy": -24.19, 
			 "cosmo_repulsion_energy": 1.86, 
			 "cosmo_total_nonelectrostatic_energy": 11.99, 
			 "SMD_solvation_energy": 2.98 
		},
		"coords": [
			{
				"x": 2.3224041177,
				"y": 1.8340686714,
				"z": 3.0752596705,
				"element": "S" 
			},
			{
				"x": 0.7259997991,
				"y": 1.7664430252,
				"z": 2.3111796792,
				"element": "C" 
			},
			{
				"x": -0.4245020822,
				"y": 1.7729627275,
				"z": 2.9379828905,
				"element": "N" 
			},
			{
				"x": -1.4092198867,
				"y": 1.6949719108,
				"z": 1.9670565345,
				"element": "N" 
			},
			{
				"x": -0.8224256331,
				"y": 1.6447821072,
				"z": 0.7941831887,
				"element": "C" 
			},
			{
				"x": -1.4935089505,
				"y": 1.6034306749,
				"z": -0.5196429121,
				"element": "C" 
			},
			{
				"x": -2.2702989846,
				"y": 2.8256671909,
				"z": -1.0034361499,
				"element": "C" 
			},
			{
				"x": -3.0022635833,
				"y": 1.593884846,
				"z": -0.5568235352,
				"element": "C" 
			},
			{
				"x": 0.5518555023,
				"y": 1.6917122255,
				"z": 0.9500943658,
				"element": "N" 
			},
			{
				"x": 1.5656242927,
				"y": 1.7086780533,
				"z": -0.1012836188,
				"element": "C" 
			},
			{
				"x": 1.8252217574,
				"y": 0.3585531271,
				"z": -0.750093236,
				"element": "C" 
			},
			{
				"x": 1.8517852667,
				"y": -0.8213082604,
				"z": 0.0035717091,
				"element": "C" 
			},
			{
				"x": 2.1365120139,
				"y": -2.0418497709,
				"z": -0.6087746525,
				"element": "C" 
			},
			{
				"x": 2.40157792,
				"y": -2.097905804,
				"z": -1.9789446944,
				"element": "C" 
			},
			{
				"x": 2.3764548028,
				"y": -0.9261216226,
				"z": -2.7360113096,
				"element": "C" 
			},
			{
				"x": 2.0858415594,
				"y": 0.2944369803,
				"z": -2.1238736782,
				"element": "C" 
			},
			{
				"x": 1.7974593508,
				"y": 2.0581273797,
				"z": 4.2943396671,
				"element": "H" 
			},
			{
				"x": -0.9755188801,
				"y": 1.0265846703,
				"z": -1.280875525,
				"element": "H" 
			},
			{
				"x": -2.2316538237,
				"y": 3.0567786735,
				"z": -2.0639663279,
				"element": "H" 
			},
			{
				"x": -2.2866929112,
				"y": 3.6895233658,
				"z": -0.3466800379,
				"element": "H" 
			},
			{
				"x": -3.5027611417,
				"y": 1.6225731176,
				"z": 0.4046635364,
				"element": "H" 
			},
			{
				"x": -3.4763391571,
				"y": 0.9706691418,
				"z": -1.3082244497,
				"element": "H" 
			},
			{
				"x": 2.4853181377,
				"y": 2.1014604637,
				"z": 0.3465927105,
				"element": "H" 
			},
			{
				"x": 1.2558364072,
				"y": 2.4336512632,
				"z": -0.8602852122,
				"element": "H" 
			},
			{
				"x": 1.6430952039,
				"y": -0.7880366544,
				"z": 1.0688717894,
				"element": "H" 
			},
			{
				"x": 2.1508185146,
				"y": -2.9504113298,
				"z": -0.0138956378,
				"element": "H" 
			},
			{
				"x": 2.6219870818,
				"y": -3.04959812,
				"z": -2.4534419488,
				"element": "H" 
			},
			{
				"x": 2.5746597804,
				"y": -0.9606988123,
				"z": -3.8033724152,
				"element": "H" 
			},
			{
				"x": 2.0619335258,
				"y": 1.2043707588,
				"z": -2.7192704006,
				"element": "H" 
			}
		],
		 "valence_orbital": [ 
			{
				"type": "occ",
				"energy": -0.2839,
				"method": "rhf"
			},
			{
				"type": "occ",
				"energy": -0.26275,
				"method": "rhf"
			},
			{
				"type": "occ",
				"energy": -0.25791,
				"method": "rhf"
			},
			{
				"type": "occ",
				"energy": -0.24835,
				"method": "rhf"
			},
			{
				"type": "occ",
				"energy": -0.22034,
				"method": "rhf"
			},
			{
				"type": "unocc",
				"energy": -0.01992,
				"method": "rhf"
			},
			{
				"type": "unocc",
				"energy": -0.01515,
				"method": "rhf"
			},
			{
				"type": "unocc",
				"energy": 0.00893,
				"method": "rhf"
			},
			{
				"type": "unocc",
				"energy": 0.01826,
				"method": "rhf"
			},
			{
				"type": "unocc",
				"energy": 0.04699,
				"method": "rhf"
			}
		],
		"cosmo_sigma_profile": { 
			"-0.025": 0.0,
			"-0.024": 0.0,
			"-0.023": 0.0,
			"-0.022": 0.0,
			"-0.021": 0.0,
			"-0.02": 0.0,
			"-0.019": 0.0,
			"-0.018": 0.0,
			"-0.017": 0.0,
			"-0.016": 0.0,
			"-0.015": 0.0,
			"-0.014": 0.0,
			"-0.013": 0.04990102405,
			"-0.012": 1.12920149507,
			"-0.011": 1.6793109954,
			"-0.01": 0.847851649317,
			"-0.009": 1.56756296275,
			"-0.008": 2.78897458614,
			"-0.007": 6.17434678361,
			"-0.006": 13.1280902863,
			"-0.005": 25.8663544223,
			"-0.004": 26.1573391972,
			"-0.003": 21.97236704,
			"-0.002": 21.57146801,
			"-0.001": 23.2548695198,
			"0.0": 18.5229133786,
			"0.001": 19.1558829779,
			"0.002": 16.597497545,
			"0.003": 15.5506551189,
			"0.004": 14.2806112867,
			"0.005": 13.7137577153,
			"0.006": 7.37610351728,
			"0.007": 2.7207243045,
			"0.008": 1.75235462373,
			"0.009": 2.24409335035,
			"0.01": 2.14221507772,
			"0.011": 1.87584028482,
			"0.012": 2.06982822801,
			"0.013": 3.55608430581,
			"0.014": 3.30969442942,
			"0.015": 2.81859992018,
			"0.016": 1.96014855165,
			"0.017": 0.400764263142,
			"0.018": 0.0,
			"0.019": 0.0,
			"0.02": 0.0,
			"0.021": 0.0,
			"0.022": 0.0,
			"0.023": 0.0,
			"0.024": 0.0,
			"0.025": 0.0
		}
	}
}
