{
	 "smiles": "O=CC1=CC=C(C=C1)C1=NC=CC=N1", 
	 "Tm": 381.15, 
	 "num_atms": 22, 
	 "gaussian": { 
		 "optdone": 1, 
		 "sigma_profile": "yes", 
		 "theory": "DFT", 
		 "functional": "B3LYP", 
		 "basiset": "6-31G**", 
		 "properties": { 
			 "R2extent": 3850.2426, 
			 "electric_dipole_moment_norm": 5.17807618909, 
			 "electric_quadrupole_moment_norm": 13.5508363129, 
			 "total_energy": -608.711956463, 
			 "HOMO_LUMO_gap": 0.16868, 
			 "cosmo_polarized_energy": -10.7, 
			 "cosmo_cavitation_energy": 27.32, 
			 "cosmo_dispersion_energy": -20.16, 
			 "cosmo_repulsion_energy": 1.55, 
			 "cosmo_total_nonelectrostatic_energy": 8.72, 
			 "SMD_solvation_energy": 3.78 
		},
		"coords": [
			{
				"x": -1.9508558806,
				"y": 4.9501410831,
				"z": -0.6023648713,
				"element": "O" 
			},
			{
				"x": -0.9495524836,
				"y": 4.2883841199,
				"z": -0.4027667062,
				"element": "C" 
			},
			{
				"x": -0.9317457423,
				"y": 2.8180085377,
				"z": -0.2339875376,
				"element": "C" 
			},
			{
				"x": 0.281701941,
				"y": 2.1543454176,
				"z": -0.0078789097,
				"element": "C" 
			},
			{
				"x": 0.3092387111,
				"y": 0.7730083645,
				"z": 0.1519342024,
				"element": "C" 
			},
			{
				"x": -0.8829348158,
				"y": 0.0339756325,
				"z": 0.0873112645,
				"element": "C" 
			},
			{
				"x": -2.100781406,
				"y": 0.7020767812,
				"z": -0.1398133678,
				"element": "C" 
			},
			{
				"x": -2.1244251494,
				"y": 2.0803178975,
				"z": -0.2988252158,
				"element": "C" 
			},
			{
				"x": -0.8583936043,
				"y": -1.4420574905,
				"z": 0.257432689,
				"element": "C" 
			},
			{
				"x": -2.0335194527,
				"y": -2.0936301553,
				"z": 0.1856165885,
				"element": "N" 
			},
			{
				"x": -1.99943416,
				"y": -3.4184450407,
				"z": 0.3397831127,
				"element": "C" 
			},
			{
				"x": -0.8143481177,
				"y": -4.1163157526,
				"z": 0.5655377979,
				"element": "C" 
			},
			{
				"x": 0.346652356,
				"y": -3.3472038396,
				"z": 0.6223243018,
				"element": "C" 
			},
			{
				"x": 0.3372688372,
				"y": -2.0217263602,
				"z": 0.4711777776,
				"element": "N" 
			},
			{
				"x": 0.0499991215,
				"y": 4.773509389,
				"z": -0.3332946909,
				"element": "H" 
			},
			{
				"x": 1.2050931923,
				"y": 2.7270085335,
				"z": 0.0421523387,
				"element": "H" 
			},
			{
				"x": 1.2406821898,
				"y": 0.2476723318,
				"z": 0.3272594589,
				"element": "H" 
			},
			{
				"x": -3.0128970719,
				"y": 0.1186659876,
				"z": -0.1872256347,
				"element": "H" 
			},
			{
				"x": -3.0539181871,
				"y": 2.6124584263,
				"z": -0.4747241487,
				"element": "H" 
			},
			{
				"x": -2.9549660942,
				"y": -3.9372935269,
				"z": 0.2801588404,
				"element": "H" 
			},
			{
				"x": -0.7965795883,
				"y": -5.1931726134,
				"z": 0.6895943382,
				"element": "H" 
			},
			{
				"x": 1.3182154049,
				"y": -3.8078277231,
				"z": 0.7947983721,
				"element": "H" 
			}
		],
		 "valence_orbital": [ 
			{
				"type": "occ",
				"energy": -0.30826,
				"method": "rhf"
			},
			{
				"type": "occ",
				"energy": -0.26295,
				"method": "rhf"
			},
			{
				"type": "occ",
				"energy": -0.25876,
				"method": "rhf"
			},
			{
				"type": "occ",
				"energy": -0.25321,
				"method": "rhf"
			},
			{
				"type": "occ",
				"energy": -0.24929,
				"method": "rhf"
			},
			{
				"type": "unocc",
				"energy": -0.08061,
				"method": "rhf"
			},
			{
				"type": "unocc",
				"energy": -0.05043,
				"method": "rhf"
			},
			{
				"type": "unocc",
				"energy": -0.02322,
				"method": "rhf"
			},
			{
				"type": "unocc",
				"energy": -0.00837,
				"method": "rhf"
			},
			{
				"type": "unocc",
				"energy": 0.05098,
				"method": "rhf"
			}
		],
		"cosmo_sigma_profile": { 
			"-0.025": 0.0,
			"-0.024": 0.0,
			"-0.023": 0.0,
			"-0.022": 0.0,
			"-0.021": 0.0,
			"-0.02": 0.0,
			"-0.019": 0.0,
			"-0.018": 0.0,
			"-0.017": 0.0,
			"-0.016": 0.0,
			"-0.015": 0.0,
			"-0.014": 0.0,
			"-0.013": 0.0,
			"-0.012": 0.0,
			"-0.011": 0.0,
			"-0.01": 0.0,
			"-0.009": 0.183876717969,
			"-0.008": 6.23398786431,
			"-0.007": 13.338709895,
			"-0.006": 13.5266697643,
			"-0.005": 13.7110355775,
			"-0.004": 12.5112190328,
			"-0.003": 11.7047721284,
			"-0.002": 14.9185518437,
			"-0.001": 17.5176619743,
			"0.0": 20.8769236278,
			"0.001": 17.8204231974,
			"0.002": 21.7032618529,
			"0.003": 16.2303300953,
			"0.004": 5.75458532291,
			"0.005": 4.26934191956,
			"0.006": 5.01594791705,
			"0.007": 4.57596419941,
			"0.008": 3.59246590927,
			"0.009": 3.86586553807,
			"0.01": 5.11751209302,
			"0.011": 5.13317074512,
			"0.012": 2.71692968071,
			"0.013": 0.616331495097,
			"0.014": 0.0,
			"0.015": 0.0,
			"0.016": 0.0,
			"0.017": 0.0,
			"0.018": 0.0,
			"0.019": 0.0,
			"0.02": 0.0,
			"0.021": 0.0,
			"0.022": 0.0,
			"0.023": 0.0,
			"0.024": 0.0,
			"0.025": 0.0
		}
	}
}
