{
	 "smiles": "OC1=C(C=O)C(Cl)=CC=C1", 
	 "Tm": 326.15, 
	 "num_atms": 15, 
	 "gaussian": { 
		 "optdone": 1, 
		 "sigma_profile": "yes", 
		 "theory": "DFT", 
		 "functional": "B3LYP", 
		 "basiset": "6-31G**", 
		 "properties": { 
			 "R2extent": 2223.1622, 
			 "electric_dipole_moment_norm": 5.91925765363, 
			 "electric_quadrupole_moment_norm": 11.3957227779, 
			 "total_energy": -880.374970246, 
			 "HOMO_LUMO_gap": 0.17513, 
			 "cosmo_polarized_energy": -14.19, 
			 "cosmo_cavitation_energy": 21.29, 
			 "cosmo_dispersion_energy": -16.09, 
			 "cosmo_repulsion_energy": 1.29, 
			 "cosmo_total_nonelectrostatic_energy": 6.49, 
			 "SMD_solvation_energy": 4.86 
		},
		"coords": [
			{
				"x": 1.3418609789,
				"y": 0.7426823556,
				"z": -1.398541161,
				"element": "O" 
			},
			{
				"x": 0.5226905022,
				"y": 0.0889670532,
				"z": -0.5279269187,
				"element": "C" 
			},
			{
				"x": 0.4475807181,
				"y": -1.3235006864,
				"z": -0.6361036602,
				"element": "C" 
			},
			{
				"x": 1.2661656843,
				"y": -1.9839141658,
				"z": -1.6885153131,
				"element": "C" 
			},
			{
				"x": 1.3145835641,
				"y": -3.1782901756,
				"z": -1.9113454015,
				"element": "O" 
			},
			{
				"x": -0.4044363704,
				"y": -1.9895521073,
				"z": 0.2712163156,
				"element": "C" 
			},
			{
				"x": -0.5920148448,
				"y": -3.7270314677,
				"z": 0.2498185289,
				"element": "Cl" 
			},
			{
				"x": -1.1412742268,
				"y": -1.2980318672,
				"z": 1.2320747292,
				"element": "C" 
			},
			{
				"x": -1.0394313434,
				"y": 0.0898617035,
				"z": 1.3055155079,
				"element": "C" 
			},
			{
				"x": -0.2123532301,
				"y": 0.7881137803,
				"z": 0.4319484562,
				"element": "C" 
			},
			{
				"x": 1.3033632317,
				"y": 1.6915268,
				"z": -1.2217210592,
				"element": "H" 
			},
			{
				"x": 1.8629536261,
				"y": -1.2751876671,
				"z": -2.2904440694,
				"element": "H" 
			},
			{
				"x": -1.7837119192,
				"y": -1.8475851503,
				"z": 1.9096599364,
				"element": "H" 
			},
			{
				"x": -1.6119475832,
				"y": 0.6312064866,
				"z": 2.052717844,
				"element": "H" 
			},
			{
				"x": -0.1337287876,
				"y": 1.8710351082,
				"z": 0.4902462648,
				"element": "H" 
			}
		],
		 "valence_orbital": [ 
			{
				"type": "occ",
				"energy": -0.32799,
				"method": "rhf"
			},
			{
				"type": "occ",
				"energy": -0.31306,
				"method": "rhf"
			},
			{
				"type": "occ",
				"energy": -0.26416,
				"method": "rhf"
			},
			{
				"type": "occ",
				"energy": -0.24486,
				"method": "rhf"
			},
			{
				"type": "occ",
				"energy": -0.24139,
				"method": "rhf"
			},
			{
				"type": "unocc",
				"energy": -0.06626,
				"method": "rhf"
			},
			{
				"type": "unocc",
				"energy": -0.01448,
				"method": "rhf"
			},
			{
				"type": "unocc",
				"energy": 0.0284,
				"method": "rhf"
			},
			{
				"type": "unocc",
				"energy": 0.03346,
				"method": "rhf"
			},
			{
				"type": "unocc",
				"energy": 0.04998,
				"method": "rhf"
			}
		],
		"cosmo_sigma_profile": { 
			"-0.025": 0.0,
			"-0.024": 0.0,
			"-0.023": 0.0,
			"-0.022": 0.0,
			"-0.021": 0.0,
			"-0.02": 0.0370818309618,
			"-0.019": 0.785274043637,
			"-0.018": 1.23475479227,
			"-0.017": 0.83551921562,
			"-0.016": 1.31401146167,
			"-0.015": 1.04202597352,
			"-0.014": 1.15393573012,
			"-0.013": 0.715577858744,
			"-0.012": 0.880848838932,
			"-0.011": 1.24139837995,
			"-0.01": 0.993625496585,
			"-0.009": 1.16688904386,
			"-0.008": 2.66482149247,
			"-0.007": 6.3738444656,
			"-0.006": 7.39643362042,
			"-0.005": 6.96081714335,
			"-0.004": 7.09570690043,
			"-0.003": 8.84997806702,
			"-0.002": 10.0492858441,
			"-0.001": 9.05149954036,
			"0.0": 14.7462990983,
			"0.001": 18.4023366853,
			"0.002": 16.9799733618,
			"0.003": 13.0622944231,
			"0.004": 10.1908317603,
			"0.005": 4.89176457009,
			"0.006": 3.28549213813,
			"0.007": 5.09304918601,
			"0.008": 2.38553313992,
			"0.009": 2.24562004374,
			"0.01": 2.51707740438,
			"0.011": 4.42083201214,
			"0.012": 4.12673614374,
			"0.013": 0.976896065664,
			"0.014": 0.0160027727659,
			"0.015": 0.0,
			"0.016": 0.0,
			"0.017": 0.0,
			"0.018": 0.0,
			"0.019": 0.0,
			"0.02": 0.0,
			"0.021": 0.0,
			"0.022": 0.0,
			"0.023": 0.0,
			"0.024": 0.0,
			"0.025": 0.0
		}
	}
}
