{
	 "smiles": "OC(=O)C1=CC=C(C=C1)C1=CSN=N1", 
	 "Tm": 503.15, 
	 "num_atms": 20, 
	 "gaussian": { 
		 "optdone": 1, 
		 "sigma_profile": "yes", 
		 "theory": "DFT", 
		 "functional": "B3LYP", 
		 "basiset": "6-31G**", 
		 "properties": { 
			 "R2extent": 4877.2017, 
			 "electric_dipole_moment_norm": 5.86354148958, 
			 "electric_quadrupole_moment_norm": 17.2123143729, 
			 "total_energy": -1004.67765474, 
			 "HOMO_LUMO_gap": 0.17032, 
			 "cosmo_polarized_energy": -19.27, 
			 "cosmo_cavitation_energy": 27.28, 
			 "cosmo_dispersion_energy": -20.88, 
			 "cosmo_repulsion_energy": 1.55, 
			 "cosmo_total_nonelectrostatic_energy": 7.96, 
			 "SMD_solvation_energy": 4.11 
		},
		"coords": [
			{
				"x": -3.8779541874,
				"y": -2.5123552475,
				"z": -1.6580314329,
				"element": "O" 
			},
			{
				"x": -2.8587297283,
				"y": -2.2144277303,
				"z": -2.5091219636,
				"element": "C" 
			},
			{
				"x": -2.9463020283,
				"y": -2.5001030324,
				"z": -3.67979941,
				"element": "O" 
			},
			{
				"x": -1.662806859,
				"y": -1.5316304071,
				"z": -1.9174065228,
				"element": "C" 
			},
			{
				"x": -0.4565765974,
				"y": -1.5887972857,
				"z": -2.6284321645,
				"element": "C" 
			},
			{
				"x": 0.6866461543,
				"y": -0.972967066,
				"z": -2.13570491,
				"element": "C" 
			},
			{
				"x": 0.6506171278,
				"y": -0.2619360231,
				"z": -0.9222543606,
				"element": "C" 
			},
			{
				"x": -0.5651909893,
				"y": -0.1856911065,
				"z": -0.223740984,
				"element": "C" 
			},
			{
				"x": -1.7055931597,
				"y": -0.8130308421,
				"z": -0.7138822595,
				"element": "C" 
			},
			{
				"x": 1.87098676,
				"y": 0.3880128882,
				"z": -0.4163566177,
				"element": "C" 
			},
			{
				"x": 2.0309036974,
				"y": 1.1455099996,
				"z": 0.7252662689,
				"element": "C" 
			},
			{
				"x": 3.6440628447,
				"y": 1.6667314974,
				"z": 0.8528424723,
				"element": "S" 
			},
			{
				"x": 4.0661887787,
				"y": 0.8456562402,
				"z": -0.6449271694,
				"element": "N" 
			},
			{
				"x": 3.0498186102,
				"y": 0.2652870092,
				"z": -1.1289093635,
				"element": "N" 
			},
			{
				"x": -3.5968585152,
				"y": -2.3851694342,
				"z": -0.741558969,
				"element": "H" 
			},
			{
				"x": -0.4372859064,
				"y": -2.1262652196,
				"z": -3.5702943015,
				"element": "H" 
			},
			{
				"x": 1.6203242341,
				"y": -1.0300899692,
				"z": -2.6831557708,
				"element": "H" 
			},
			{
				"x": -0.6300419498,
				"y": 0.3709765071,
				"z": 0.7057711984,
				"element": "H" 
			},
			{
				"x": -2.6373526518,
				"y": -0.7000129812,
				"z": -0.1649690145,
				"element": "H" 
			},
			{
				"x": 1.2818443656,
				"y": 1.4023022033,
				"z": 1.4599652745,
				"element": "H" 
			}
		],
		 "valence_orbital": [ 
			{
				"type": "occ",
				"energy": -0.31307,
				"method": "rhf"
			},
			{
				"type": "occ",
				"energy": -0.28126,
				"method": "rhf"
			},
			{
				"type": "occ",
				"energy": -0.2775,
				"method": "rhf"
			},
			{
				"type": "occ",
				"energy": -0.27517,
				"method": "rhf"
			},
			{
				"type": "occ",
				"energy": -0.25165,
				"method": "rhf"
			},
			{
				"type": "unocc",
				"energy": -0.08133,
				"method": "rhf"
			},
			{
				"type": "unocc",
				"energy": -0.06171,
				"method": "rhf"
			},
			{
				"type": "unocc",
				"energy": -0.02826,
				"method": "rhf"
			},
			{
				"type": "unocc",
				"energy": -0.02623,
				"method": "rhf"
			},
			{
				"type": "unocc",
				"energy": 0.01027,
				"method": "rhf"
			}
		],
		"cosmo_sigma_profile": { 
			"-0.025": 0.0,
			"-0.024": 0.0,
			"-0.023": 0.0,
			"-0.022": 0.0,
			"-0.021": 0.0,
			"-0.02": 0.0,
			"-0.019": 0.147397532115,
			"-0.018": 0.992299302664,
			"-0.017": 0.876660079877,
			"-0.016": 0.88600604255,
			"-0.015": 1.10499777632,
			"-0.014": 0.943594561322,
			"-0.013": 1.00070423674,
			"-0.012": 2.74391483486,
			"-0.011": 3.83345346836,
			"-0.01": 3.54019473499,
			"-0.009": 4.56059237301,
			"-0.008": 4.30137869456,
			"-0.007": 5.18799923081,
			"-0.006": 8.57727620775,
			"-0.005": 7.56234039149,
			"-0.004": 9.95794793596,
			"-0.003": 12.2595021092,
			"-0.002": 14.3317225885,
			"-0.001": 21.5077695249,
			"0.0": 22.981452707,
			"0.001": 15.6583134907,
			"0.002": 17.3485039283,
			"0.003": 10.4952957953,
			"0.004": 4.58436017048,
			"0.005": 4.10125604646,
			"0.006": 4.63348886683,
			"0.007": 5.02214455973,
			"0.008": 5.33993929678,
			"0.009": 7.59116764302,
			"0.01": 6.97540504354,
			"0.011": 7.10490547729,
			"0.012": 5.42016850264,
			"0.013": 1.47173474498,
			"0.014": 0.0300233528061,
			"0.015": 0.0,
			"0.016": 0.0,
			"0.017": 0.0,
			"0.018": 0.0,
			"0.019": 0.0,
			"0.02": 0.0,
			"0.021": 0.0,
			"0.022": 0.0,
			"0.023": 0.0,
			"0.024": 0.0,
			"0.025": 0.0
		}
	}
}
