{
	 "smiles": "BrC1=CC=C(OC2=C(Br)C=CC=C2Br)C(Br)=C1", 
	 "Tm": 369.65, 
	 "num_atms": 23, 
	 "gaussian": { 
		 "optdone": 1, 
		 "sigma_profile": "yes", 
		 "theory": "DFT", 
		 "functional": "B3LYP", 
		 "basiset": "6-31G**", 
		 "properties": { 
			 "R2extent": 10293.2052, 
			 "electric_dipole_moment_norm": 2.04020805312, 
			 "electric_quadrupole_moment_norm": 11.6946940268, 
			 "total_energy": -10821.705083, 
			 "HOMO_LUMO_gap": 0.20264, 
			 "cosmo_polarized_energy": -6.78, 
			 "cosmo_cavitation_energy": 36.74, 
			 "cosmo_dispersion_energy": -26.71, 
			 "cosmo_repulsion_energy": 2.07, 
			 "cosmo_total_nonelectrostatic_energy": 12.1, 
			 "SMD_solvation_energy": 2.12 
		},
		"coords": [
			{
				"x": 2.9104200701,
				"y": 4.0817107545,
				"z": -2.0362008841,
				"element": "Br" 
			},
			{
				"x": 1.9150416268,
				"y": 2.7508363048,
				"z": -1.0986874616,
				"element": "C" 
			},
			{
				"x": 2.0644837074,
				"y": 2.6169837612,
				"z": 0.2813631051,
				"element": "C" 
			},
			{
				"x": 1.3216054338,
				"y": 1.6502456897,
				"z": 0.9470914165,
				"element": "C" 
			},
			{
				"x": 0.4386197336,
				"y": 0.8103771596,
				"z": 0.2605003901,
				"element": "C" 
			},
			{
				"x": -0.1654213978,
				"y": -0.1594652884,
				"z": 1.0328979599,
				"element": "O" 
			},
			{
				"x": -1.4868384068,
				"y": -0.5211846356,
				"z": 0.9564518695,
				"element": "C" 
			},
			{
				"x": -2.5591939572,
				"y": 0.37171051,
				"z": 1.1008392812,
				"element": "C" 
			},
			{
				"x": -2.2624789176,
				"y": 2.23684068,
				"z": 1.3565425907,
				"element": "Br" 
			},
			{
				"x": -3.8771762362,
				"y": -0.0850661789,
				"z": 1.0951086101,
				"element": "C" 
			},
			{
				"x": -4.1414674085,
				"y": -1.4467303192,
				"z": 0.9774820286,
				"element": "C" 
			},
			{
				"x": -3.0898693903,
				"y": -2.3557988241,
				"z": 0.8727325733,
				"element": "C" 
			},
			{
				"x": -1.778056077,
				"y": -1.8924867361,
				"z": 0.8615634406,
				"element": "C" 
			},
			{
				"x": -0.3548274891,
				"y": -3.1437156884,
				"z": 0.7072127592,
				"element": "Br" 
			},
			{
				"x": 0.3252085614,
				"y": 0.9373976805,
				"z": -1.1301411106,
				"element": "C" 
			},
			{
				"x": -0.7722567378,
				"y": -0.2142153766,
				"z": -2.1758260036,
				"element": "Br" 
			},
			{
				"x": 1.0545916618,
				"y": 1.9190232728,
				"z": -1.8064799914,
				"element": "C" 
			},
			{
				"x": 2.7423888169,
				"y": 3.2625806529,
				"z": 0.8268376982,
				"element": "H" 
			},
			{
				"x": 1.4026408513,
				"y": 1.5269850968,
				"z": 2.0214784804,
				"element": "H" 
			},
			{
				"x": -4.6838908002,
				"y": 0.6310507299,
				"z": 1.1986436419,
				"element": "H" 
			},
			{
				"x": -5.1670625283,
				"y": -1.8012226206,
				"z": 0.9793525822,
				"element": "H" 
			},
			{
				"x": -3.2784891482,
				"y": -3.4197876335,
				"z": 0.7920020507,
				"element": "H" 
			},
			{
				"x": 0.954128032,
				"y": 2.0137310086,
				"z": -2.8800650266,
				"element": "H" 
			}
		],
		 "valence_orbital": [ 
			{
				"type": "occ",
				"energy": -0.28946,
				"method": "rhf"
			},
			{
				"type": "occ",
				"energy": -0.26192,
				"method": "rhf"
			},
			{
				"type": "occ",
				"energy": -0.25111,
				"method": "rhf"
			},
			{
				"type": "occ",
				"energy": -0.2496,
				"method": "rhf"
			},
			{
				"type": "occ",
				"energy": -0.2368,
				"method": "rhf"
			},
			{
				"type": "unocc",
				"energy": -0.03416,
				"method": "rhf"
			},
			{
				"type": "unocc",
				"energy": -0.03246,
				"method": "rhf"
			},
			{
				"type": "unocc",
				"energy": -0.02922,
				"method": "rhf"
			},
			{
				"type": "unocc",
				"energy": -0.02364,
				"method": "rhf"
			},
			{
				"type": "unocc",
				"energy": -0.01608,
				"method": "rhf"
			}
		],
		"cosmo_sigma_profile": { 
			"-0.025": 0.0,
			"-0.024": 0.0,
			"-0.023": 0.0,
			"-0.022": 0.0,
			"-0.021": 0.0,
			"-0.02": 0.0,
			"-0.019": 0.0,
			"-0.018": 0.0,
			"-0.017": 0.0,
			"-0.016": 0.0,
			"-0.015": 0.0,
			"-0.014": 0.0,
			"-0.013": 0.0,
			"-0.012": 0.0,
			"-0.011": 0.0,
			"-0.01": 0.0,
			"-0.009": 0.147725385267,
			"-0.008": 5.94227702468,
			"-0.007": 12.7414337224,
			"-0.006": 10.83781021,
			"-0.005": 13.5726874681,
			"-0.004": 14.668154126,
			"-0.003": 16.2689980442,
			"-0.002": 15.0480606682,
			"-0.001": 18.5222455528,
			"0.0": 31.1539732349,
			"0.001": 45.8647179252,
			"0.002": 45.8831956783,
			"0.003": 36.6305507205,
			"0.004": 31.7115319371,
			"0.005": 6.32697262041,
			"0.006": 1.72365002035,
			"0.007": 1.48877209445,
			"0.008": 0.338720951136,
			"0.009": 0.0,
			"0.01": 0.0,
			"0.011": 0.0,
			"0.012": 0.0,
			"0.013": 0.0,
			"0.014": 0.0,
			"0.015": 0.0,
			"0.016": 0.0,
			"0.017": 0.0,
			"0.018": 0.0,
			"0.019": 0.0,
			"0.02": 0.0,
			"0.021": 0.0,
			"0.022": 0.0,
			"0.023": 0.0,
			"0.024": 0.0,
			"0.025": 0.0
		}
	}
}
