{
	 "smiles": "OC(=O)CC1=CC=CC(Cl)=C1", 
	 "Tm": 351.65, 
	 "num_atms": 18, 
	 "gaussian": { 
		 "optdone": 1, 
		 "sigma_profile": "yes", 
		 "theory": "DFT", 
		 "functional": "B3LYP", 
		 "basiset": "6-31G**", 
		 "properties": { 
			 "R2extent": 2995.6436, 
			 "electric_dipole_moment_norm": 2.01545208328, 
			 "electric_quadrupole_moment_norm": 8.72747105065, 
			 "total_energy": -919.72826255, 
			 "HOMO_LUMO_gap": 0.22727, 
			 "cosmo_polarized_energy": -10.35, 
			 "cosmo_cavitation_energy": 24.56, 
			 "cosmo_dispersion_energy": -18.09, 
			 "cosmo_repulsion_energy": 1.48, 
			 "cosmo_total_nonelectrostatic_energy": 7.95, 
			 "SMD_solvation_energy": 5.06 
		},
		"coords": [
			{
				"x": 0.835327049,
				"y": 3.4461441583,
				"z": -1.3717858849,
				"element": "O" 
			},
			{
				"x": 0.0026124549,
				"y": 2.3963211172,
				"z": -1.5643038899,
				"element": "C" 
			},
			{
				"x": -0.6924723386,
				"y": 2.285495896,
				"z": -2.5487361693,
				"element": "O" 
			},
			{
				"x": 0.0353970632,
				"y": 1.4454311299,
				"z": -0.3764357355,
				"element": "C" 
			},
			{
				"x": -0.1162164738,
				"y": -0.0161990273,
				"z": -0.7434403454,
				"element": "C" 
			},
			{
				"x": -1.2590768524,
				"y": -0.487828543,
				"z": -1.4036139361,
				"element": "C" 
			},
			{
				"x": -1.3824704606,
				"y": -1.8410354305,
				"z": -1.7134719262,
				"element": "C" 
			},
			{
				"x": -0.3779179565,
				"y": -2.748609318,
				"z": -1.3710444415,
				"element": "C" 
			},
			{
				"x": 0.7535401046,
				"y": -2.2709882652,
				"z": -0.7149169638,
				"element": "C" 
			},
			{
				"x": 2.0360787677,
				"y": -3.3918777224,
				"z": -0.2713235259,
				"element": "Cl" 
			},
			{
				"x": 0.8951015596,
				"y": -0.9198763357,
				"z": -0.3998793039,
				"element": "C" 
			},
			{
				"x": 0.7260733479,
				"y": 4.0245240025,
				"z": -2.1460835541,
				"element": "H" 
			},
			{
				"x": -0.7921921343,
				"y": 1.757991264,
				"z": 0.2759905126,
				"element": "H" 
			},
			{
				"x": 0.9549399704,
				"y": 1.6164418927,
				"z": 0.1871326232,
				"element": "H" 
			},
			{
				"x": -2.0380895974,
				"y": 0.209778991,
				"z": -1.6890939542,
				"element": "H" 
			},
			{
				"x": -2.2700509448,
				"y": -2.198232584,
				"z": -2.2272530101,
				"element": "H" 
			},
			{
				"x": -0.4689605603,
				"y": -3.8029488708,
				"z": -1.6068717309,
				"element": "H" 
			},
			{
				"x": 1.7893770015,
				"y": -0.5785323547,
				"z": 0.1113312359,
				"element": "H" 
			}
		],
		 "valence_orbital": [ 
			{
				"type": "occ",
				"energy": -0.32641,
				"method": "rhf"
			},
			{
				"type": "occ",
				"energy": -0.31153,
				"method": "rhf"
			},
			{
				"type": "occ",
				"energy": -0.28639,
				"method": "rhf"
			},
			{
				"type": "occ",
				"energy": -0.25891,
				"method": "rhf"
			},
			{
				"type": "occ",
				"energy": -0.24462,
				"method": "rhf"
			},
			{
				"type": "unocc",
				"energy": -0.01735,
				"method": "rhf"
			},
			{
				"type": "unocc",
				"energy": -0.01246,
				"method": "rhf"
			},
			{
				"type": "unocc",
				"energy": 0.00355,
				"method": "rhf"
			},
			{
				"type": "unocc",
				"energy": 0.02997,
				"method": "rhf"
			},
			{
				"type": "unocc",
				"energy": 0.07306,
				"method": "rhf"
			}
		],
		"cosmo_sigma_profile": { 
			"-0.025": 0.0,
			"-0.024": 0.0,
			"-0.023": 0.0,
			"-0.022": 0.0,
			"-0.021": 0.0,
			"-0.02": 0.0,
			"-0.019": 0.0,
			"-0.018": 0.941904177685,
			"-0.017": 0.702963301687,
			"-0.016": 1.1361875853,
			"-0.015": 0.918285504123,
			"-0.014": 0.587995808188,
			"-0.013": 0.51351338302,
			"-0.012": 0.102730466788,
			"-0.011": 1.26506472517,
			"-0.01": 1.04588195928,
			"-0.009": 0.406017681015,
			"-0.008": 2.8990733792,
			"-0.007": 9.49711674131,
			"-0.006": 9.93587432364,
			"-0.005": 12.6075145891,
			"-0.004": 12.2223983239,
			"-0.003": 12.2017464881,
			"-0.002": 10.3819305291,
			"-0.001": 9.92335744116,
			"0.0": 11.5167418802,
			"0.001": 12.0934961872,
			"0.002": 16.6927926457,
			"0.003": 16.8646946361,
			"0.004": 19.5235161424,
			"0.005": 12.3160729541,
			"0.006": 3.6680129754,
			"0.007": 2.53182676467,
			"0.008": 3.35442956986,
			"0.009": 3.45161431961,
			"0.01": 2.48953636236,
			"0.011": 4.15457438102,
			"0.012": 2.2375357676,
			"0.013": 0.0,
			"0.014": 0.0,
			"0.015": 0.0,
			"0.016": 0.0,
			"0.017": 0.0,
			"0.018": 0.0,
			"0.019": 0.0,
			"0.02": 0.0,
			"0.021": 0.0,
			"0.022": 0.0,
			"0.023": 0.0,
			"0.024": 0.0,
			"0.025": 0.0
		}
	}
}
