{
	 "smiles": "[O-][N+](=O)C1=CC(=C(NN=CC2=C(CCCC2)/C=C/C2=CC=CC=C2)C=C1)[N+]([O-])=O", 
	 "Tm": 535.15, 
	 "num_atms": 49, 
	 "gaussian": { 
		 "optdone": 1, 
		 "sigma_profile": "yes", 
		 "theory": "DFT", 
		 "functional": "B3LYP", 
		 "basiset": "6-31G**", 
		 "properties": { 
			 "R2extent": 18643.9915, 
			 "electric_dipole_moment_norm": 9.26581517893, 
			 "electric_quadrupole_moment_norm": 38.533655941, 
			 "total_energy": -1331.95634546, 
			 "HOMO_LUMO_gap": 0.11101, 
			 "cosmo_polarized_energy": -17.03, 
			 "cosmo_cavitation_energy": 54.38, 
			 "cosmo_dispersion_energy": -38.0, 
			 "cosmo_repulsion_energy": 2.87, 
			 "cosmo_total_nonelectrostatic_energy": 19.25, 
			 "SMD_solvation_energy": 12.16 
		},
		"coords": [
			{
				"x": -5.9051313274,
				"y": 4.5369446636,
				"z": -3.3205879741,
				"element": "O" 
			},
			{
				"x": -5.7602196236,
				"y": 4.4434054832,
				"z": -2.0992936239,
				"element": "N" 
			},
			{
				"x": -6.4126529311,
				"y": 5.0723463557,
				"z": -1.2648291239,
				"element": "O" 
			},
			{
				"x": -4.74077389,
				"y": 3.519540003,
				"z": -1.6140668986,
				"element": "C" 
			},
			{
				"x": -4.5436887719,
				"y": 3.382551101,
				"z": -0.2539581482,
				"element": "C" 
			},
			{
				"x": -3.5689471683,
				"y": 2.4998714851,
				"z": 0.2150741959,
				"element": "C" 
			},
			{
				"x": -2.7692718005,
				"y": 1.732403502,
				"z": -0.6907695984,
				"element": "C" 
			},
			{
				"x": -1.8138206478,
				"y": 0.8647674593,
				"z": -0.2691300074,
				"element": "N" 
			},
			{
				"x": -1.0731405905,
				"y": 0.1480416068,
				"z": -1.1603568435,
				"element": "N" 
			},
			{
				"x": -0.1801981272,
				"y": -0.6348320012,
				"z": -0.6438236543,
				"element": "C" 
			},
			{
				"x": 0.6297665335,
				"y": -1.5031678961,
				"z": -1.4796999168,
				"element": "C" 
			},
			{
				"x": 1.6857923025,
				"y": -2.2043491362,
				"z": -0.9617917985,
				"element": "C" 
			},
			{
				"x": 2.421619559,
				"y": -3.2514435534,
				"z": -1.7868485564,
				"element": "C" 
			},
			{
				"x": 2.2034815017,
				"y": -3.1252089663,
				"z": -3.2981055071,
				"element": "C" 
			},
			{
				"x": 0.7215611104,
				"y": -2.9096345703,
				"z": -3.6069101343,
				"element": "C" 
			},
			{
				"x": 0.2127797101,
				"y": -1.6297438332,
				"z": -2.9359158528,
				"element": "C" 
			},
			{
				"x": 2.2013520783,
				"y": -2.0698558376,
				"z": 0.4033455632,
				"element": "C" 
			},
			{
				"x": 2.4180247789,
				"y": -0.916721653,
				"z": 1.0743436278,
				"element": "C" 
			},
			{
				"x": 2.9748077561,
				"y": -0.7723464963,
				"z": 2.4231669817,
				"element": "C" 
			},
			{
				"x": 3.3706395742,
				"y": 0.5061005607,
				"z": 2.858444251,
				"element": "C" 
			},
			{
				"x": 3.915521945,
				"y": 0.6995701731,
				"z": 4.1262063373,
				"element": "C" 
			},
			{
				"x": 4.0723970253,
				"y": -0.3837816375,
				"z": 4.9918446725,
				"element": "C" 
			},
			{
				"x": 3.6748325477,
				"y": -1.6596895785,
				"z": 4.5795662823,
				"element": "C" 
			},
			{
				"x": 3.1296052174,
				"y": -1.8525394539,
				"z": 3.3142087511,
				"element": "C" 
			},
			{
				"x": -3.0120383516,
				"y": 1.9117504227,
				"z": -2.0815262654,
				"element": "C" 
			},
			{
				"x": -3.9739388252,
				"y": 2.7833484165,
				"z": -2.5349481852,
				"element": "C" 
			},
			{
				"x": -3.4192152062,
				"y": 2.4105458259,
				"z": 1.6564356266,
				"element": "N" 
			},
			{
				"x": -4.1445371529,
				"y": 3.1001066154,
				"z": 2.3684412167,
				"element": "O" 
			},
			{
				"x": -2.5575401124,
				"y": 1.6359434245,
				"z": 2.119666763,
				"element": "O" 
			},
			{
				"x": -5.134954368,
				"y": 3.9504912331,
				"z": 0.4509104951,
				"element": "H" 
			},
			{
				"x": -1.6856048749,
				"y": 0.7820151714,
				"z": 0.7405183259,
				"element": "H" 
			},
			{
				"x": -0.0404698944,
				"y": -0.6873326567,
				"z": 0.4393458279,
				"element": "H" 
			},
			{
				"x": 3.4918598241,
				"y": -3.2035298346,
				"z": -1.5528708345,
				"element": "H" 
			},
			{
				"x": 2.090209878,
				"y": -4.2449855217,
				"z": -1.4446249567,
				"element": "H" 
			},
			{
				"x": 2.5867776204,
				"y": -4.0186639571,
				"z": -3.8034272088,
				"element": "H" 
			},
			{
				"x": 2.7820893524,
				"y": -2.2737918883,
				"z": -3.6801283957,
				"element": "H" 
			},
			{
				"x": 0.551836803,
				"y": -2.8539871254,
				"z": -4.687862678,
				"element": "H" 
			},
			{
				"x": 0.1449540532,
				"y": -3.7698312709,
				"z": -3.2411406958,
				"element": "H" 
			},
			{
				"x": 0.5842453964,
				"y": -0.7497607302,
				"z": -3.4812140716,
				"element": "H" 
			},
			{
				"x": -0.8777352523,
				"y": -1.5693313687,
				"z": -2.9992876929,
				"element": "H" 
			},
			{
				"x": 2.5320068292,
				"y": -3.0050122419,
				"z": 0.8574100343,
				"element": "H" 
			},
			{
				"x": 2.2076882733,
				"y": 0.0208102452,
				"z": 0.5622847614,
				"element": "H" 
			},
			{
				"x": 3.2513776099,
				"y": 1.3534283629,
				"z": 2.1878199975,
				"element": "H" 
			},
			{
				"x": 4.2151321385,
				"y": 1.695715826,
				"z": 4.4384967927,
				"element": "H" 
			},
			{
				"x": 4.4932037148,
				"y": -0.2366190274,
				"z": 5.9820666113,
				"element": "H" 
			},
			{
				"x": 3.7831017379,
				"y": -2.5055791217,
				"z": 5.2523955195,
				"element": "H" 
			},
			{
				"x": 2.8067741235,
				"y": -2.8467950524,
				"z": 3.0207007157,
				"element": "H" 
			},
			{
				"x": -2.4094791962,
				"y": 1.3364658983,
				"z": -2.7708778936,
				"element": "H" 
			},
			{
				"x": -4.1548808823,
				"y": 2.916570575,
				"z": -3.594396834,
				"element": "H" 
			}
		],
		 "valence_orbital": [ 
			{
				"type": "occ",
				"energy": -0.28622,
				"method": "rhf"
			},
			{
				"type": "occ",
				"energy": -0.27427,
				"method": "rhf"
			},
			{
				"type": "occ",
				"energy": -0.26217,
				"method": "rhf"
			},
			{
				"type": "occ",
				"energy": -0.24182,
				"method": "rhf"
			},
			{
				"type": "occ",
				"energy": -0.21084,
				"method": "rhf"
			},
			{
				"type": "unocc",
				"energy": -0.09983,
				"method": "rhf"
			},
			{
				"type": "unocc",
				"energy": -0.08849,
				"method": "rhf"
			},
			{
				"type": "unocc",
				"energy": -0.06665,
				"method": "rhf"
			},
			{
				"type": "unocc",
				"energy": -0.0317,
				"method": "rhf"
			},
			{
				"type": "unocc",
				"energy": -0.01173,
				"method": "rhf"
			}
		],
		"cosmo_sigma_profile": { 
			"-0.025": 0.0,
			"-0.024": 0.0,
			"-0.023": 0.0,
			"-0.022": 0.0,
			"-0.021": 0.0,
			"-0.02": 0.0,
			"-0.019": 0.0,
			"-0.018": 0.0,
			"-0.017": 0.0,
			"-0.016": 0.0,
			"-0.015": 0.0,
			"-0.014": 0.00403441379074,
			"-0.013": 0.351054590316,
			"-0.012": 0.969437956202,
			"-0.011": 1.25777603855,
			"-0.01": 1.03214512069,
			"-0.009": 0.993047420788,
			"-0.008": 1.85581836346,
			"-0.007": 6.93934927031,
			"-0.006": 19.0525396562,
			"-0.005": 23.9970492243,
			"-0.004": 30.8196977427,
			"-0.003": 40.2081556961,
			"-0.002": 51.1046536361,
			"-0.001": 47.6049235594,
			"0.0": 39.4361330525,
			"0.001": 31.2852291766,
			"0.002": 24.5416119231,
			"0.003": 19.7848307278,
			"0.004": 18.613129417,
			"0.005": 18.1842439744,
			"0.006": 13.2744238669,
			"0.007": 11.5738967651,
			"0.008": 14.4623356799,
			"0.009": 8.94122342605,
			"0.01": 6.58761639312,
			"0.011": 0.943085606592,
			"0.012": 0.0,
			"0.013": 0.0,
			"0.014": 0.0,
			"0.015": 0.0,
			"0.016": 0.0,
			"0.017": 0.0,
			"0.018": 0.0,
			"0.019": 0.0,
			"0.02": 0.0,
			"0.021": 0.0,
			"0.022": 0.0,
			"0.023": 0.0,
			"0.024": 0.0,
			"0.025": 0.0
		}
	}
}
