{
	 "smiles": "CC(=O)OC1CCC2(C)C(CCC3(C)C2C(=O)C=C2C4CC(C)(CCC4(C)CCC32C)C(O)=O)C1(C)C", 
	 "Tm": 596.15, 
	 "num_atms": 85, 
	 "gaussian": { 
		 "optdone": 1, 
		 "sigma_profile": "yes", 
		 "theory": "DFT", 
		 "functional": "B3LYP", 
		 "basiset": "6-31G**", 
		 "properties": { 
			 "R2extent": 21941.9151, 
			 "electric_dipole_moment_norm": 3.3605189138, 
			 "electric_quadrupole_moment_norm": 46.8460710926, 
			 "total_energy": -1624.46749261, 
			 "HOMO_LUMO_gap": 0.18146, 
			 "cosmo_polarized_energy": -23.69, 
			 "cosmo_cavitation_energy": 68.06, 
			 "cosmo_dispersion_energy": -45.52, 
			 "cosmo_repulsion_energy": 3.21, 
			 "cosmo_total_nonelectrostatic_energy": 25.75, 
			 "SMD_solvation_energy": 12.58 
		},
		"coords": [
			{
				"x": 1.3363634226,
				"y": 6.1459097208,
				"z": -1.9553544232,
				"element": "C" 
			},
			{
				"x": -0.1346328784,
				"y": 6.1672771906,
				"z": -1.607881775,
				"element": "C" 
			},
			{
				"x": -0.7467191737,
				"y": 7.133972221,
				"z": -1.2039933263,
				"element": "O" 
			},
			{
				"x": -0.6853045268,
				"y": 4.9532902197,
				"z": -1.8222659821,
				"element": "O" 
			},
			{
				"x": -2.1014238339,
				"y": 4.7849911197,
				"z": -1.5248783085,
				"element": "C" 
			},
			{
				"x": -2.2587528269,
				"y": 4.5201263251,
				"z": -0.0253948491,
				"element": "C" 
			},
			{
				"x": -1.5728689423,
				"y": 3.2153804382,
				"z": 0.4120909146,
				"element": "C" 
			},
			{
				"x": -2.0485711097,
				"y": 1.9801123058,
				"z": -0.4151180111,
				"element": "C" 
			},
			{
				"x": -3.4883346162,
				"y": 1.699810993,
				"z": 0.1033204837,
				"element": "C" 
			},
			{
				"x": -1.952623153,
				"y": 2.2947011578,
				"z": -1.9493697478,
				"element": "C" 
			},
			{
				"x": -2.3253126962,
				"y": 1.0560188492,
				"z": -2.7876354471,
				"element": "C" 
			},
			{
				"x": -1.4795133217,
				"y": -0.193648387,
				"z": -2.4532409847,
				"element": "C" 
			},
			{
				"x": -1.5108076828,
				"y": -0.5897625084,
				"z": -0.9464408579,
				"element": "C" 
			},
			{
				"x": -2.9401079462,
				"y": -1.1120627607,
				"z": -0.621132905,
				"element": "C" 
			},
			{
				"x": -1.1088716394,
				"y": 0.7268516616,
				"z": -0.16212102,
				"element": "C" 
			},
			{
				"x": 0.3895847,
				"y": 1.0148460401,
				"z": -0.4557357852,
				"element": "C" 
			},
			{
				"x": 0.8720271992,
				"y": 2.1319877641,
				"z": -0.6212228276,
				"element": "O" 
			},
			{
				"x": 1.3146068193,
				"y": -0.1226360572,
				"z": -0.4638195972,
				"element": "C" 
			},
			{
				"x": 0.9511586189,
				"y": -1.4121071422,
				"z": -0.4997845006,
				"element": "C" 
			},
			{
				"x": 1.9359601914,
				"y": -2.5620844917,
				"z": -0.3268270837,
				"element": "C" 
			},
			{
				"x": 3.4384288212,
				"y": -2.2420042725,
				"z": -0.5813264662,
				"element": "C" 
			},
			{
				"x": 4.3409653784,
				"y": -1.7923653705,
				"z": 0.6104338191,
				"element": "C" 
			},
			{
				"x": 4.9523893474,
				"y": -0.3921260603,
				"z": 0.370323655,
				"element": "C" 
			},
			{
				"x": 3.527255492,
				"y": -1.8237423877,
				"z": 1.9283148795,
				"element": "C" 
			},
			{
				"x": 2.7850535018,
				"y": -3.1546824618,
				"z": 2.0627345327,
				"element": "C" 
			},
			{
				"x": 1.6228296965,
				"y": -3.3178850416,
				"z": 1.0444247503,
				"element": "C" 
			},
			{
				"x": 1.4290469251,
				"y": -4.8242653802,
				"z": 0.7862653317,
				"element": "C" 
			},
			{
				"x": 0.3523247248,
				"y": -2.7080885672,
				"z": 1.6885105212,
				"element": "C" 
			},
			{
				"x": -0.8622600628,
				"y": -2.5002028592,
				"z": 0.7666341863,
				"element": "C" 
			},
			{
				"x": -0.5162311475,
				"y": -1.8114969881,
				"z": -0.6144318423,
				"element": "C" 
			},
			{
				"x": -0.6454225458,
				"y": -2.8739415423,
				"z": -1.7461420075,
				"element": "C" 
			},
			{
				"x": 5.5066763874,
				"y": -2.8123811593,
				"z": 0.7572975885,
				"element": "C" 
			},
			{
				"x": 6.4454577488,
				"y": -2.5132127747,
				"z": 1.6939661227,
				"element": "O" 
			},
			{
				"x": 5.6229221315,
				"y": -3.8369519131,
				"z": 0.1285494088,
				"element": "O" 
			},
			{
				"x": -2.6166006863,
				"y": 3.6333255655,
				"z": -2.4281502511,
				"element": "C" 
			},
			{
				"x": -4.1620883897,
				"y": 3.6432680265,
				"z": -2.4070499885,
				"element": "C" 
			},
			{
				"x": -2.1927518318,
				"y": 3.932667865,
				"z": -3.8862377365,
				"element": "C" 
			},
			{
				"x": 1.8168890757,
				"y": 5.2733224342,
				"z": -1.5055475596,
				"element": "H" 
			},
			{
				"x": 1.4557154409,
				"y": 6.0624641409,
				"z": -3.0406571352,
				"element": "H" 
			},
			{
				"x": 1.8058090431,
				"y": 7.06715304,
				"z": -1.6108034338,
				"element": "H" 
			},
			{
				"x": -2.6047308127,
				"y": 5.719953593,
				"z": -1.7919307475,
				"element": "H" 
			},
			{
				"x": -3.3281963194,
				"y": 4.5244028933,
				"z": 0.212546652,
				"element": "H" 
			},
			{
				"x": -1.8312113421,
				"y": 5.3672792475,
				"z": 0.5197791716,
				"element": "H" 
			},
			{
				"x": -0.5006164656,
				"y": 3.346740511,
				"z": 0.3063433658,
				"element": "H" 
			},
			{
				"x": -1.779974713,
				"y": 3.033237703,
				"z": 1.475612154,
				"element": "H" 
			},
			{
				"x": -4.1399242084,
				"y": 1.1919362066,
				"z": -0.6052064574,
				"element": "H" 
			},
			{
				"x": -3.9871914186,
				"y": 2.631250068,
				"z": 0.3732164877,
				"element": "H" 
			},
			{
				"x": -3.4533601813,
				"y": 1.0999257742,
				"z": 1.0178421774,
				"element": "H" 
			},
			{
				"x": -0.8868245067,
				"y": 2.4716894329,
				"z": -2.1226224659,
				"element": "H" 
			},
			{
				"x": -2.1780606806,
				"y": 1.2719727979,
				"z": -3.850766611,
				"element": "H" 
			},
			{
				"x": -3.3911262267,
				"y": 0.8217792933,
				"z": -2.6815800693,
				"element": "H" 
			},
			{
				"x": -0.4433455305,
				"y": -0.0089333396,
				"z": -2.76377678,
				"element": "H" 
			},
			{
				"x": -1.8416584537,
				"y": -1.0223999553,
				"z": -3.0695121772,
				"element": "H" 
			},
			{
				"x": -3.2157719722,
				"y": -0.9930475063,
				"z": 0.4268327983,
				"element": "H" 
			},
			{
				"x": -3.7040871222,
				"y": -0.6153048023,
				"z": -1.2147850752,
				"element": "H" 
			},
			{
				"x": -3.0200677959,
				"y": -2.176260573,
				"z": -0.8528213327,
				"element": "H" 
			},
			{
				"x": -1.1414980668,
				"y": 0.5061725409,
				"z": 0.9176682752,
				"element": "H" 
			},
			{
				"x": 2.3550391489,
				"y": 0.176320349,
				"z": -0.4350772445,
				"element": "H" 
			},
			{
				"x": 1.6933210346,
				"y": -3.2779143644,
				"z": -1.1159988419,
				"element": "H" 
			},
			{
				"x": 3.4998581089,
				"y": -1.5032570448,
				"z": -1.3865610489,
				"element": "H" 
			},
			{
				"x": 3.8874006301,
				"y": -3.1540403592,
				"z": -0.9786624468,
				"element": "H" 
			},
			{
				"x": 5.5812487146,
				"y": -0.053160856,
				"z": 1.2027561952,
				"element": "H" 
			},
			{
				"x": 4.1680701491,
				"y": 0.3591730006,
				"z": 0.2580457316,
				"element": "H" 
			},
			{
				"x": 5.5670369416,
				"y": -0.3778880229,
				"z": -0.5352234721,
				"element": "H" 
			},
			{
				"x": 4.1834549216,
				"y": -1.6666518028,
				"z": 2.7936376341,
				"element": "H" 
			},
			{
				"x": 2.8220135641,
				"y": -0.9844202431,
				"z": 1.9244649701,
				"element": "H" 
			},
			{
				"x": 2.3786207901,
				"y": -3.262166783,
				"z": 3.075504514,
				"element": "H" 
			},
			{
				"x": 3.5032290091,
				"y": -3.9736355705,
				"z": 1.9365974581,
				"element": "H" 
			},
			{
				"x": 2.2977339184,
				"y": -5.2441251122,
				"z": 0.2676685929,
				"element": "H" 
			},
			{
				"x": 0.5412979759,
				"y": -5.0335657541,
				"z": 0.1813672076,
				"element": "H" 
			},
			{
				"x": 1.3151904622,
				"y": -5.3644721831,
				"z": 1.7334045075,
				"element": "H" 
			},
			{
				"x": 0.6222003978,
				"y": -1.7355709415,
				"z": 2.1187151591,
				"element": "H" 
			},
			{
				"x": 0.0517312011,
				"y": -3.3386307585,
				"z": 2.5348775168,
				"element": "H" 
			},
			{
				"x": -1.5789677835,
				"y": -1.894173381,
				"z": 1.3247317772,
				"element": "H" 
			},
			{
				"x": -1.3624752002,
				"y": -3.4562118308,
				"z": 0.5768879073,
				"element": "H" 
			},
			{
				"x": -0.2167389261,
				"y": -3.8312360675,
				"z": -1.4479562343,
				"element": "H" 
			},
			{
				"x": -0.1437596786,
				"y": -2.5562484323,
				"z": -2.6643141087,
				"element": "H" 
			},
			{
				"x": -1.6926216006,
				"y": -3.0660941605,
				"z": -1.9892745507,
				"element": "H" 
			},
			{
				"x": 6.2446367151,
				"y": -1.6680327199,
				"z": 2.1185047943,
				"element": "H" 
			},
			{
				"x": -4.5334326874,
				"y": 4.5732122593,
				"z": -2.8526277511,
				"element": "H" 
			},
			{
				"x": -4.5901423903,
				"y": 3.5664568151,
				"z": -1.4075315423,
				"element": "H" 
			},
			{
				"x": -4.563271483,
				"y": 2.8181263166,
				"z": -3.0034991617,
				"element": "H" 
			},
			{
				"x": -2.4729172211,
				"y": 4.9568920594,
				"z": -4.1582684103,
				"element": "H" 
			},
			{
				"x": -1.1136334319,
				"y": 3.8339385423,
				"z": -4.0241638209,
				"element": "H" 
			},
			{
				"x": -2.6947431185,
				"y": 3.2635542071,
				"z": -4.5912470385,
				"element": "H" 
			}
		],
		 "valence_orbital": [ 
			{
				"type": "occ",
				"energy": -0.2708,
				"method": "rhf"
			},
			{
				"type": "occ",
				"energy": -0.26953,
				"method": "rhf"
			},
			{
				"type": "occ",
				"energy": -0.25719,
				"method": "rhf"
			},
			{
				"type": "occ",
				"energy": -0.25553,
				"method": "rhf"
			},
			{
				"type": "occ",
				"energy": -0.23214,
				"method": "rhf"
			},
			{
				"type": "unocc",
				"energy": -0.05068,
				"method": "rhf"
			},
			{
				"type": "unocc",
				"energy": 0.00589,
				"method": "rhf"
			},
			{
				"type": "unocc",
				"energy": 0.02531,
				"method": "rhf"
			},
			{
				"type": "unocc",
				"energy": 0.03821,
				"method": "rhf"
			},
			{
				"type": "unocc",
				"energy": 0.05108,
				"method": "rhf"
			}
		],
		"cosmo_sigma_profile": { 
			"-0.025": 0.0,
			"-0.024": 0.0,
			"-0.023": 0.0,
			"-0.022": 0.0,
			"-0.021": 0.0,
			"-0.02": 0.0,
			"-0.019": 0.0,
			"-0.018": 0.180543958801,
			"-0.017": 0.97096015342,
			"-0.016": 0.8984661052,
			"-0.015": 1.12138382454,
			"-0.014": 0.740549369867,
			"-0.013": 0.798538919972,
			"-0.012": 0.814824920323,
			"-0.011": 1.25289194218,
			"-0.01": 1.29502468802,
			"-0.009": 0.548522815888,
			"-0.008": 0.919631932385,
			"-0.007": 2.19609301278,
			"-0.006": 4.5672459755,
			"-0.005": 12.8265612714,
			"-0.004": 32.7798398988,
			"-0.003": 61.124605649,
			"-0.002": 87.1922033406,
			"-0.001": 83.8018619451,
			"0.0": 69.1195089171,
			"0.001": 50.7017170617,
			"0.002": 25.1116846173,
			"0.003": 10.0058162647,
			"0.004": 6.57623690862,
			"0.005": 6.80110980182,
			"0.006": 5.65658232606,
			"0.007": 6.5225348484,
			"0.008": 7.28166375305,
			"0.009": 7.49528937199,
			"0.01": 7.50005377752,
			"0.011": 10.221087398,
			"0.012": 10.6521446608,
			"0.013": 6.09740808774,
			"0.014": 0.571726474499,
			"0.015": 0.0,
			"0.016": 0.0,
			"0.017": 0.0,
			"0.018": 0.0,
			"0.019": 0.0,
			"0.02": 0.0,
			"0.021": 0.0,
			"0.022": 0.0,
			"0.023": 0.0,
			"0.024": 0.0,
			"0.025": 0.0
		}
	}
}
