{
	 "smiles": "CN1N=C(C)C2=C1N=C(C)C(CCC(O)=O)=C2C", 
	 "Tm": 485.15, 
	 "num_atms": 35, 
	 "gaussian": { 
		 "optdone": 1, 
		 "sigma_profile": "yes", 
		 "theory": "DFT", 
		 "functional": "B3LYP", 
		 "basiset": "6-31G**", 
		 "properties": { 
			 "R2extent": 5913.998, 
			 "electric_dipole_moment_norm": 3.93945543699, 
			 "electric_quadrupole_moment_norm": 31.6745404241, 
			 "total_energy": -820.354771955, 
			 "HOMO_LUMO_gap": 0.18002, 
			 "cosmo_polarized_energy": -17.16, 
			 "cosmo_cavitation_energy": 36.39, 
			 "cosmo_dispersion_energy": -25.86, 
			 "cosmo_repulsion_energy": 1.99, 
			 "cosmo_total_nonelectrostatic_energy": 12.51, 
			 "SMD_solvation_energy": 5.07 
		},
		"coords": [
			{
				"x": -3.4097254262,
				"y": 2.0828781463,
				"z": 1.8263316225,
				"element": "C" 
			},
			{
				"x": -2.809628108,
				"y": 1.2067981352,
				"z": 0.8427317258,
				"element": "N" 
			},
			{
				"x": -3.3632639204,
				"y": 1.0545912194,
				"z": -0.3915115681,
				"element": "N" 
			},
			{
				"x": -2.6025662298,
				"y": 0.2064220327,
				"z": -1.0691643538,
				"element": "C" 
			},
			{
				"x": -2.984197165,
				"y": -0.1513526634,
				"z": -2.4736421523,
				"element": "C" 
			},
			{
				"x": -1.4977800198,
				"y": -0.2287483217,
				"z": -0.2555525733,
				"element": "C" 
			},
			{
				"x": -1.6830104246,
				"y": 0.452759171,
				"z": 0.9718104546,
				"element": "C" 
			},
			{
				"x": -0.8997913728,
				"y": 0.3916642119,
				"z": 2.0522209731,
				"element": "N" 
			},
			{
				"x": 0.1514705517,
				"y": -0.4226400069,
				"z": 1.9477274493,
				"element": "C" 
			},
			{
				"x": 1.0618627163,
				"y": -0.4368314676,
				"z": 3.1550104899,
				"element": "C" 
			},
			{
				"x": 0.4424750688,
				"y": -1.2023691195,
				"z": 0.7777734668,
				"element": "C" 
			},
			{
				"x": 1.6756414078,
				"y": -2.0950172594,
				"z": 0.7685457996,
				"element": "C" 
			},
			{
				"x": 1.5584368819,
				"y": -3.4547779143,
				"z": 1.5143529301,
				"element": "C" 
			},
			{
				"x": 0.6287885564,
				"y": -4.4821713297,
				"z": 0.880117889,
				"element": "C" 
			},
			{
				"x": -0.6733698675,
				"y": -4.1090078467,
				"z": 0.7517852502,
				"element": "O" 
			},
			{
				"x": 0.9821097486,
				"y": -5.5773554489,
				"z": 0.519306188,
				"element": "O" 
			},
			{
				"x": -0.3812681721,
				"y": -1.0849859297,
				"z": -0.3610926443,
				"element": "C" 
			},
			{
				"x": -0.085445603,
				"y": -1.8233118409,
				"z": -1.6469441335,
				"element": "C" 
			},
			{
				"x": -2.789227562,
				"y": 2.0465543866,
				"z": 2.7224481828,
				"element": "H" 
			},
			{
				"x": -4.423793174,
				"y": 1.7500168465,
				"z": 2.0653015572,
				"element": "H" 
			},
			{
				"x": -3.4515411057,
				"y": 3.1079411411,
				"z": 1.4474534261,
				"element": "H" 
			},
			{
				"x": -3.1534797969,
				"y": -1.227679947,
				"z": -2.5888628559,
				"element": "H" 
			},
			{
				"x": -3.9079677382,
				"y": 0.3700738276,
				"z": -2.7334284885,
				"element": "H" 
			},
			{
				"x": -2.2124542335,
				"y": 0.1416430846,
				"z": -3.1944822207,
				"element": "H" 
			},
			{
				"x": 0.6533166253,
				"y": 0.2385508625,
				"z": 3.907349052,
				"element": "H" 
			},
			{
				"x": 1.1603865025,
				"y": -1.4318678124,
				"z": 3.6009931252,
				"element": "H" 
			},
			{
				"x": 2.0734751839,
				"y": -0.0998319048,
				"z": 2.8991501289,
				"element": "H" 
			},
			{
				"x": 1.9865759013,
				"y": -2.2974754141,
				"z": -0.2593100667,
				"element": "H" 
			},
			{
				"x": 2.5109882111,
				"y": -1.5575586043,
				"z": 1.2294681611,
				"element": "H" 
			},
			{
				"x": 2.5424604811,
				"y": -3.9250835011,
				"z": 1.5655898276,
				"element": "H" 
			},
			{
				"x": 1.2205672278,
				"y": -3.2875255256,
				"z": 2.544216812,
				"element": "H" 
			},
			{
				"x": -0.7849243395,
				"y": -3.1838659118,
				"z": 1.0266313978,
				"element": "H" 
			},
			{
				"x": 0.9134115116,
				"y": -1.5780597002,
				"z": -2.0237748076,
				"element": "H" 
			},
			{
				"x": -0.1270550834,
				"y": -2.9070076196,
				"z": -1.5037922412,
				"element": "H" 
			},
			{
				"x": -0.8021772337,
				"y": -1.5656679756,
				"z": -2.4251578038,
				"element": "H" 
			}
		],
		 "valence_orbital": [ 
			{
				"type": "occ",
				"energy": -0.29619,
				"method": "rhf"
			},
			{
				"type": "occ",
				"energy": -0.27053,
				"method": "rhf"
			},
			{
				"type": "occ",
				"energy": -0.26525,
				"method": "rhf"
			},
			{
				"type": "occ",
				"energy": -0.24641,
				"method": "rhf"
			},
			{
				"type": "occ",
				"energy": -0.22645,
				"method": "rhf"
			},
			{
				"type": "unocc",
				"energy": -0.04643,
				"method": "rhf"
			},
			{
				"type": "unocc",
				"energy": -0.00629,
				"method": "rhf"
			},
			{
				"type": "unocc",
				"energy": 0.00943,
				"method": "rhf"
			},
			{
				"type": "unocc",
				"energy": 0.04206,
				"method": "rhf"
			},
			{
				"type": "unocc",
				"energy": 0.07473,
				"method": "rhf"
			}
		],
		"cosmo_sigma_profile": { 
			"-0.025": 0.0,
			"-0.024": 0.0,
			"-0.023": 0.0,
			"-0.022": 0.0,
			"-0.021": 0.0,
			"-0.02": 0.0,
			"-0.019": 0.0,
			"-0.018": 0.0,
			"-0.017": 0.0,
			"-0.016": 0.0,
			"-0.015": 0.0,
			"-0.014": 0.0,
			"-0.013": 0.37919244344,
			"-0.012": 1.51384349548,
			"-0.011": 1.35558574334,
			"-0.01": 1.10116009962,
			"-0.009": 1.51063270945,
			"-0.008": 2.44069504168,
			"-0.007": 4.3055069656,
			"-0.006": 11.9240836671,
			"-0.005": 24.0762451768,
			"-0.004": 31.0481984287,
			"-0.003": 30.7051616599,
			"-0.002": 28.1575990621,
			"-0.001": 27.7114859596,
			"0.0": 20.3004140781,
			"0.001": 16.2115908834,
			"0.002": 15.5236374293,
			"0.003": 8.91581363779,
			"0.004": 6.31037074801,
			"0.005": 6.07725462851,
			"0.006": 5.00892351944,
			"0.007": 5.99305648238,
			"0.008": 4.25145311194,
			"0.009": 5.43312809399,
			"0.01": 6.57599162798,
			"0.011": 7.40703365113,
			"0.012": 7.35162766931,
			"0.013": 3.88197194157,
			"0.014": 1.1432802472,
			"0.015": 0.699354735712,
			"0.016": 0.207871659438,
			"0.017": 0.0,
			"0.018": 0.0,
			"0.019": 0.0,
			"0.02": 0.0,
			"0.021": 0.0,
			"0.022": 0.0,
			"0.023": 0.0,
			"0.024": 0.0,
			"0.025": 0.0
		}
	}
}
