{
	 "smiles": "CC1=C(CC(O)=O)C(=O)NC(N)=N1", 
	 "Tm": 587.15, 
	 "num_atms": 22, 
	 "gaussian": { 
		 "optdone": 1, 
		 "sigma_profile": "yes", 
		 "theory": "DFT", 
		 "functional": "B3LYP", 
		 "basiset": "6-31G**", 
		 "properties": { 
			 "R2extent": 3312.9389, 
			 "electric_dipole_moment_norm": 3.26015613276, 
			 "electric_quadrupole_moment_norm": 27.7058135475, 
			 "total_energy": -662.143336734, 
			 "HOMO_LUMO_gap": 0.18958, 
			 "cosmo_polarized_energy": -23.98, 
			 "cosmo_cavitation_energy": 26.66, 
			 "cosmo_dispersion_energy": -19.46, 
			 "cosmo_repulsion_energy": 1.57, 
			 "cosmo_total_nonelectrostatic_energy": 8.77, 
			 "SMD_solvation_energy": 5.08 
		},
		"coords": [
			{
				"x": 1.8188891983,
				"y": -0.1910338242,
				"z": -0.7602260196,
				"element": "C" 
			},
			{
				"x": 1.2828553249,
				"y": 1.1830631695,
				"z": -0.4547161619,
				"element": "C" 
			},
			{
				"x": 0.4709692512,
				"y": 1.4264457747,
				"z": 0.6328257267,
				"element": "C" 
			},
			{
				"x": 0.0383956062,
				"y": 0.3847628782,
				"z": 1.625762498,
				"element": "C" 
			},
			{
				"x": -0.9813159494,
				"y": -0.6109065409,
				"z": 1.0975616429,
				"element": "C" 
			},
			{
				"x": -1.4126111233,
				"y": -1.4266457197,
				"z": 2.09132658,
				"element": "O" 
			},
			{
				"x": -1.375343767,
				"y": -0.7152878927,
				"z": -0.0429769617,
				"element": "O" 
			},
			{
				"x": -0.0219800111,
				"y": 2.7685008432,
				"z": 0.863021229,
				"element": "C" 
			},
			{
				"x": -0.7338566494,
				"y": 3.1591053354,
				"z": 1.7843070612,
				"element": "O" 
			},
			{
				"x": 0.4123317194,
				"y": 3.6978159429,
				"z": -0.1120074925,
				"element": "N" 
			},
			{
				"x": 1.2043702666,
				"y": 3.3613329517,
				"z": -1.1682403265,
				"element": "C" 
			},
			{
				"x": 1.585568079,
				"y": 4.3677507333,
				"z": -2.0229175965,
				"element": "N" 
			},
			{
				"x": 1.6464253131,
				"y": 2.1453717349,
				"z": -1.3651126491,
				"element": "N" 
			},
			{
				"x": 1.0237664928,
				"y": -0.8117619248,
				"z": -1.1867763114,
				"element": "H" 
			},
			{
				"x": 2.6337032331,
				"y": -0.1163831191,
				"z": -1.4816361024,
				"element": "H" 
			},
			{
				"x": 2.1808353316,
				"y": -0.6970056309,
				"z": 0.1405973194,
				"element": "H" 
			},
			{
				"x": 0.8834433635,
				"y": -0.2018206239,
				"z": 2.0090332643,
				"element": "H" 
			},
			{
				"x": -0.4059717001,
				"y": 0.8861428107,
				"z": 2.491225214,
				"element": "H" 
			},
			{
				"x": -2.0503569823,
				"y": -2.0344160812,
				"z": 1.6809989353,
				"element": "H" 
			},
			{
				"x": 0.1235123273,
				"y": 4.6542060996,
				"z": 0.0558728445,
				"element": "H" 
			},
			{
				"x": 0.9462068716,
				"y": 5.136233731,
				"z": -2.1672492834,
				"element": "H" 
			},
			{
				"x": 2.027863804,
				"y": 4.0208293524,
				"z": -2.8627734105,
				"element": "H" 
			}
		],
		 "valence_orbital": [ 
			{
				"type": "occ",
				"energy": -0.28798,
				"method": "rhf"
			},
			{
				"type": "occ",
				"energy": -0.27654,
				"method": "rhf"
			},
			{
				"type": "occ",
				"energy": -0.27083,
				"method": "rhf"
			},
			{
				"type": "occ",
				"energy": -0.25394,
				"method": "rhf"
			},
			{
				"type": "occ",
				"energy": -0.21575,
				"method": "rhf"
			},
			{
				"type": "unocc",
				"energy": -0.02617,
				"method": "rhf"
			},
			{
				"type": "unocc",
				"energy": 0.01459,
				"method": "rhf"
			},
			{
				"type": "unocc",
				"energy": 0.01937,
				"method": "rhf"
			},
			{
				"type": "unocc",
				"energy": 0.05387,
				"method": "rhf"
			},
			{
				"type": "unocc",
				"energy": 0.08338,
				"method": "rhf"
			}
		],
		"cosmo_sigma_profile": { 
			"-0.025": 0.0,
			"-0.024": 0.0,
			"-0.023": 0.0,
			"-0.022": 0.0,
			"-0.021": 0.0,
			"-0.02": 0.0,
			"-0.019": 0.0250684408958,
			"-0.018": 1.17090971159,
			"-0.017": 2.399218619,
			"-0.016": 2.85207251087,
			"-0.015": 3.49869532072,
			"-0.014": 2.90938788775,
			"-0.013": 3.44957424651,
			"-0.012": 3.73357759603,
			"-0.011": 4.91213609025,
			"-0.01": 2.39201043777,
			"-0.009": 2.67800056106,
			"-0.008": 3.64053651072,
			"-0.007": 5.42702309304,
			"-0.006": 5.20965404313,
			"-0.005": 5.78811374381,
			"-0.004": 8.22799379727,
			"-0.003": 12.3336106849,
			"-0.002": 14.8022909984,
			"-0.001": 16.8743855948,
			"0.0": 14.6387131695,
			"0.001": 10.5144857963,
			"0.002": 9.13055427142,
			"0.003": 7.67361566691,
			"0.004": 7.81155493914,
			"0.005": 6.20901948987,
			"0.006": 6.51727472356,
			"0.007": 5.44376737597,
			"0.008": 5.83870638031,
			"0.009": 6.30289176714,
			"0.01": 5.42623971717,
			"0.011": 5.70897784071,
			"0.012": 6.28730956986,
			"0.013": 4.45195727774,
			"0.014": 5.86368631031,
			"0.015": 0.351340759447,
			"0.016": 0.0,
			"0.017": 0.0,
			"0.018": 0.0,
			"0.019": 0.0,
			"0.02": 0.0,
			"0.021": 0.0,
			"0.022": 0.0,
			"0.023": 0.0,
			"0.024": 0.0,
			"0.025": 0.0
		}
	}
}
