{
	 "smiles": "CCOC(=O)C1=C(Cl)C2=C(N=C1)C(C)=CC(C)=C2", 
	 "Tm": 346.15, 
	 "num_atms": 32, 
	 "gaussian": { 
		 "optdone": 1, 
		 "sigma_profile": "yes", 
		 "theory": "DFT", 
		 "functional": "B3LYP", 
		 "basiset": "6-31G**", 
		 "properties": { 
			 "R2extent": 6701.1535, 
			 "electric_dipole_moment_norm": 1.73727226709, 
			 "electric_quadrupole_moment_norm": 20.1954844941, 
			 "total_energy": -1207.35328527, 
			 "HOMO_LUMO_gap": 0.16066, 
			 "cosmo_polarized_energy": -9.39, 
			 "cosmo_cavitation_energy": 37.37, 
			 "cosmo_dispersion_energy": -27.13, 
			 "cosmo_repulsion_energy": 2.11, 
			 "cosmo_total_nonelectrostatic_energy": 12.34, 
			 "SMD_solvation_energy": 6.03 
		},
		"coords": [
			{
				"x": -0.7161261033,
				"y": -5.0091974012,
				"z": 4.0171700035,
				"element": "C" 
			},
			{
				"x": -1.471477319,
				"y": -4.6737405997,
				"z": 2.7454960316,
				"element": "C" 
			},
			{
				"x": -0.9161144749,
				"y": -3.4449519111,
				"z": 2.2221408775,
				"element": "O" 
			},
			{
				"x": -1.4793010829,
				"y": -2.9892962768,
				"z": 1.0778268525,
				"element": "C" 
			},
			{
				"x": -2.3736729605,
				"y": -3.5722860627,
				"z": 0.5034027198,
				"element": "O" 
			},
			{
				"x": -0.8632565169,
				"y": -1.6906883049,
				"z": 0.6624749009,
				"element": "C" 
			},
			{
				"x": -0.9178276407,
				"y": -1.1791383566,
				"z": -0.627850557,
				"element": "C" 
			},
			{
				"x": -1.6655298555,
				"y": -2.067392213,
				"z": -1.9334608092,
				"element": "Cl" 
			},
			{
				"x": -0.3285232622,
				"y": 0.0850349248,
				"z": -0.9248238803,
				"element": "C" 
			},
			{
				"x": 0.2992630159,
				"y": 0.7781199261,
				"z": 0.1605934609,
				"element": "C" 
			},
			{
				"x": 0.3507516565,
				"y": 0.2724779611,
				"z": 1.4242999015,
				"element": "N" 
			},
			{
				"x": -0.1992869416,
				"y": -0.8982401057,
				"z": 1.6449975216,
				"element": "C" 
			},
			{
				"x": 0.9061573252,
				"y": 2.0535802787,
				"z": -0.0730983333,
				"element": "C" 
			},
			{
				"x": 1.5663494574,
				"y": 2.7822412577,
				"z": 1.0677714985,
				"element": "C" 
			},
			{
				"x": 0.8669578773,
				"y": 2.5786537926,
				"z": -1.3465938066,
				"element": "C" 
			},
			{
				"x": 0.2494792717,
				"y": 1.9049620824,
				"z": -2.4359446489,
				"element": "C" 
			},
			{
				"x": 0.2465594469,
				"y": 2.545306672,
				"z": -3.8022053652,
				"element": "C" 
			},
			{
				"x": -0.335183471,
				"y": 0.676839493,
				"z": -2.21590197,
				"element": "C" 
			},
			{
				"x": -0.8288519762,
				"y": -4.2157783291,
				"z": 4.7617016277,
				"element": "H" 
			},
			{
				"x": -1.1056379042,
				"y": -5.9385790025,
				"z": 4.4440916641,
				"element": "H" 
			},
			{
				"x": 0.3503142698,
				"y": -5.1438637026,
				"z": 3.8152451268,
				"element": "H" 
			},
			{
				"x": -1.3699940972,
				"y": -5.4554130418,
				"z": 1.9863564744,
				"element": "H" 
			},
			{
				"x": -2.5413923729,
				"y": -4.5288162622,
				"z": 2.9257662222,
				"element": "H" 
			},
			{
				"x": -0.1463004202,
				"y": -1.2838634142,
				"z": 2.6587468261,
				"element": "H" 
			},
			{
				"x": 1.9800197197,
				"y": 3.7367905314,
				"z": 0.7318541212,
				"element": "H" 
			},
			{
				"x": 0.8549615394,
				"y": 2.9724966125,
				"z": 1.8773372751,
				"element": "H" 
			},
			{
				"x": 2.3721735395,
				"y": 2.1834273758,
				"z": 1.5033765015,
				"element": "H" 
			},
			{
				"x": 1.3264653916,
				"y": 3.5477952343,
				"z": -1.5296719995,
				"element": "H" 
			},
			{
				"x": 1.2682456461,
				"y": 2.7267002238,
				"z": -4.1560609373,
				"element": "H" 
			},
			{
				"x": -0.2585063825,
				"y": 1.9156045766,
				"z": -4.5388965849,
				"element": "H" 
			},
			{
				"x": -0.2617418129,
				"y": 3.5165003142,
				"z": -3.7825388597,
				"element": "H" 
			},
			{
				"x": -0.8110735627,
				"y": 0.1486137274,
				"z": -3.0335018552,
				"element": "H" 
			}
		],
		 "valence_orbital": [ 
			{
				"type": "occ",
				"energy": -0.28383,
				"method": "rhf"
			},
			{
				"type": "occ",
				"energy": -0.27403,
				"method": "rhf"
			},
			{
				"type": "occ",
				"energy": -0.25838,
				"method": "rhf"
			},
			{
				"type": "occ",
				"energy": -0.25493,
				"method": "rhf"
			},
			{
				"type": "occ",
				"energy": -0.23046,
				"method": "rhf"
			},
			{
				"type": "unocc",
				"energy": -0.0698,
				"method": "rhf"
			},
			{
				"type": "unocc",
				"energy": -0.03826,
				"method": "rhf"
			},
			{
				"type": "unocc",
				"energy": 0.01349,
				"method": "rhf"
			},
			{
				"type": "unocc",
				"energy": 0.02805,
				"method": "rhf"
			},
			{
				"type": "unocc",
				"energy": 0.03195,
				"method": "rhf"
			}
		],
		"cosmo_sigma_profile": { 
			"-0.025": 0.0,
			"-0.024": 0.0,
			"-0.023": 0.0,
			"-0.022": 0.0,
			"-0.021": 0.0,
			"-0.02": 0.0,
			"-0.019": 0.0,
			"-0.018": 0.0,
			"-0.017": 0.0,
			"-0.016": 0.0,
			"-0.015": 0.0,
			"-0.014": 0.0,
			"-0.013": 0.0,
			"-0.012": 0.0,
			"-0.011": 0.0,
			"-0.01": 0.0,
			"-0.009": 0.0,
			"-0.008": 0.0,
			"-0.007": 0.193572217228,
			"-0.006": 4.59901835108,
			"-0.005": 15.5426057018,
			"-0.004": 31.250154285,
			"-0.003": 31.3942020865,
			"-0.002": 31.1425621254,
			"-0.001": 38.0554475101,
			"0.0": 39.7363317058,
			"0.001": 27.3057891291,
			"0.002": 20.3004759396,
			"0.003": 19.1381354797,
			"0.004": 9.14423041375,
			"0.005": 4.50058069723,
			"0.006": 4.01532828947,
			"0.007": 3.69037241493,
			"0.008": 3.04455411058,
			"0.009": 3.08113238278,
			"0.01": 3.71931963824,
			"0.011": 4.48465791518,
			"0.012": 3.69737440318,
			"0.013": 0.876822948586,
			"0.014": 0.10047301077,
			"0.015": 0.0,
			"0.016": 0.0,
			"0.017": 0.0,
			"0.018": 0.0,
			"0.019": 0.0,
			"0.02": 0.0,
			"0.021": 0.0,
			"0.022": 0.0,
			"0.023": 0.0,
			"0.024": 0.0,
			"0.025": 0.0
		}
	}
}
