{
	 "smiles": "COC1=CC=C(C=C1)N1N=CC(C(Cl)=O)=C1C", 
	 "Tm": 359.15, 
	 "num_atms": 28, 
	 "gaussian": { 
		 "optdone": 1, 
		 "sigma_profile": "yes", 
		 "theory": "DFT", 
		 "functional": "B3LYP", 
		 "basiset": "6-31G**", 
		 "properties": { 
			 "R2extent": 6599.8348, 
			 "electric_dipole_moment_norm": 6.98218066867, 
			 "electric_quadrupole_moment_norm": 18.0576776585, 
			 "total_energy": -1184.03098784, 
			 "HOMO_LUMO_gap": 0.17941, 
			 "cosmo_polarized_energy": -12.38, 
			 "cosmo_cavitation_energy": 34.38, 
			 "cosmo_dispersion_energy": -24.8, 
			 "cosmo_repulsion_energy": 1.91, 
			 "cosmo_total_nonelectrostatic_energy": 11.49, 
			 "SMD_solvation_energy": 6.61 
		},
		"coords": [
			{
				"x": 2.6805210791,
				"y": -4.2773933747,
				"z": 1.9810593262,
				"element": "C" 
			},
			{
				"x": 1.9791253632,
				"y": -4.0973686898,
				"z": 0.7587969583,
				"element": "O" 
			},
			{
				"x": 1.4796470365,
				"y": -2.8648883501,
				"z": 0.4738792905,
				"element": "C" 
			},
			{
				"x": 0.8086937756,
				"y": -2.7497954105,
				"z": -0.7557046371,
				"element": "C" 
			},
			{
				"x": 0.2530607122,
				"y": -1.5401811908,
				"z": -1.1407945538,
				"element": "C" 
			},
			{
				"x": 0.3629312909,
				"y": -0.4221428606,
				"z": -0.3030312966,
				"element": "C" 
			},
			{
				"x": 1.0480121279,
				"y": -0.524308901,
				"z": 0.9062313467,
				"element": "C" 
			},
			{
				"x": 1.5981232116,
				"y": -1.7447596229,
				"z": 1.3056047855,
				"element": "C" 
			},
			{
				"x": -0.1948090352,
				"y": 0.8211891736,
				"z": -0.7313586962,
				"element": "N" 
			},
			{
				"x": 0.0990630737,
				"y": 1.2526985696,
				"z": -2.0018376921,
				"element": "N" 
			},
			{
				"x": -0.5377634714,
				"y": 2.3980982284,
				"z": -2.1211834819,
				"element": "C" 
			},
			{
				"x": -1.2530080351,
				"y": 2.735987535,
				"z": -0.9378345298,
				"element": "C" 
			},
			{
				"x": -2.0122462007,
				"y": 3.9669366007,
				"z": -0.8448121504,
				"element": "C" 
			},
			{
				"x": -2.7544388306,
				"y": 4.3182050435,
				"z": 0.8105353547,
				"element": "Cl" 
			},
			{
				"x": -2.1795976762,
				"y": 4.764927395,
				"z": -1.7199011914,
				"element": "O" 
			},
			{
				"x": -1.0176142337,
				"y": 1.6700432656,
				"z": -0.0534895124,
				"element": "C" 
			},
			{
				"x": -1.5472903947,
				"y": 1.3651432908,
				"z": 1.3119046614,
				"element": "C" 
			},
			{
				"x": 3.5726914205,
				"y": -3.640642844,
				"z": 2.0317436824,
				"element": "H" 
			},
			{
				"x": 2.9851333562,
				"y": -5.3244612142,
				"z": 2.0006761666,
				"element": "H" 
			},
			{
				"x": 2.0401024912,
				"y": -4.0712058792,
				"z": 2.8479996716,
				"element": "H" 
			},
			{
				"x": 0.7350378284,
				"y": -3.6274004624,
				"z": -1.3888426353,
				"element": "H" 
			},
			{
				"x": -0.2596890568,
				"y": -1.4422647881,
				"z": -2.0908175604,
				"element": "H" 
			},
			{
				"x": 1.1732478317,
				"y": 0.3508498192,
				"z": 1.5350052423,
				"element": "H" 
			},
			{
				"x": 2.1255929486,
				"y": -1.8014281904,
				"z": 2.2497615051,
				"element": "H" 
			},
			{
				"x": -0.4780013836,
				"y": 2.9754471612,
				"z": -3.0332149002,
				"element": "H" 
			},
			{
				"x": -1.4093486531,
				"y": 0.3097077546,
				"z": 1.5519640298,
				"element": "H" 
			},
			{
				"x": -2.6093037387,
				"y": 1.6076123141,
				"z": 1.3660885404,
				"element": "H" 
			},
			{
				"x": -1.0458728375,
				"y": 1.9634956273,
				"z": 2.0798722759,
				"element": "H" 
			}
		],
		 "valence_orbital": [ 
			{
				"type": "occ",
				"energy": -0.2851,
				"method": "rhf"
			},
			{
				"type": "occ",
				"energy": -0.28266,
				"method": "rhf"
			},
			{
				"type": "occ",
				"energy": -0.27268,
				"method": "rhf"
			},
			{
				"type": "occ",
				"energy": -0.26286,
				"method": "rhf"
			},
			{
				"type": "occ",
				"energy": -0.23263,
				"method": "rhf"
			},
			{
				"type": "unocc",
				"energy": -0.05322,
				"method": "rhf"
			},
			{
				"type": "unocc",
				"energy": -0.02416,
				"method": "rhf"
			},
			{
				"type": "unocc",
				"energy": -0.01668,
				"method": "rhf"
			},
			{
				"type": "unocc",
				"energy": 0.01597,
				"method": "rhf"
			},
			{
				"type": "unocc",
				"energy": 0.02461,
				"method": "rhf"
			}
		],
		"cosmo_sigma_profile": { 
			"-0.025": 0.0,
			"-0.024": 0.0,
			"-0.023": 0.0,
			"-0.022": 0.0,
			"-0.021": 0.0,
			"-0.02": 0.0,
			"-0.019": 0.0,
			"-0.018": 0.0,
			"-0.017": 0.0,
			"-0.016": 0.0,
			"-0.015": 0.0,
			"-0.014": 0.0,
			"-0.013": 0.0,
			"-0.012": 0.0,
			"-0.011": 0.0,
			"-0.01": 0.0,
			"-0.009": 0.531931157355,
			"-0.008": 1.96515425751,
			"-0.007": 8.12580647571,
			"-0.006": 18.3601417683,
			"-0.005": 21.326284166,
			"-0.004": 22.7232355106,
			"-0.003": 24.5854954252,
			"-0.002": 22.6585801911,
			"-0.001": 20.7030382188,
			"0.0": 17.5175938934,
			"0.001": 17.9640579115,
			"0.002": 18.1102392629,
			"0.003": 20.5095869927,
			"0.004": 16.7845014803,
			"0.005": 11.3684120367,
			"0.006": 7.23958864954,
			"0.007": 6.37805865682,
			"0.008": 5.57136919756,
			"0.009": 7.39619126703,
			"0.01": 4.24523264522,
			"0.011": 1.14540479193,
			"0.012": 0.610628210841,
			"0.013": 1.12781464668,
			"0.014": 0.534943216356,
			"0.015": 0.0,
			"0.016": 0.0,
			"0.017": 0.0,
			"0.018": 0.0,
			"0.019": 0.0,
			"0.02": 0.0,
			"0.021": 0.0,
			"0.022": 0.0,
			"0.023": 0.0,
			"0.024": 0.0,
			"0.025": 0.0
		}
	}
}
