{
	 "smiles": "FC(F)(F)C1=NNC(=S)N1", 
	 "Tm": 435.15, 
	 "num_atms": 12, 
	 "gaussian": { 
		 "optdone": 1, 
		 "sigma_profile": "yes", 
		 "theory": "DFT", 
		 "functional": "B3LYP", 
		 "basiset": "6-31G**", 
		 "properties": { 
			 "R2extent": 2788.2446, 
			 "electric_dipole_moment_norm": 2.11053360551, 
			 "electric_quadrupole_moment_norm": 14.2367986075, 
			 "total_energy": -977.473162989, 
			 "HOMO_LUMO_gap": 0.18593, 
			 "cosmo_polarized_energy": -15.42, 
			 "cosmo_cavitation_energy": 20.57, 
			 "cosmo_dispersion_energy": -15.43, 
			 "cosmo_repulsion_energy": 1.17, 
			 "cosmo_total_nonelectrostatic_energy": 6.31, 
			 "SMD_solvation_energy": 2.82 
		},
		"coords": [
			{
				"x": -2.2558928817,
				"y": -0.6009749171,
				"z": 0.9068864019,
				"element": "F" 
			},
			{
				"x": -1.151339333,
				"y": 0.1083580446,
				"z": 1.1738231257,
				"element": "C" 
			},
			{
				"x": -0.0746805796,
				"y": -0.6484302547,
				"z": 0.8624955698,
				"element": "F" 
			},
			{
				"x": -1.1243123495,
				"y": 0.3578133664,
				"z": 2.4896796267,
				"element": "F" 
			},
			{
				"x": -1.0994765234,
				"y": 1.3778831105,
				"z": 0.3677488301,
				"element": "C" 
			},
			{
				"x": -1.9825536175,
				"y": 2.329059487,
				"z": 0.4235410114,
				"element": "N" 
			},
			{
				"x": -1.5137719913,
				"y": 3.2486898535,
				"z": -0.4689780968,
				"element": "N" 
			},
			{
				"x": -0.3441241704,
				"y": 2.9002666807,
				"z": -1.094952883,
				"element": "C" 
			},
			{
				"x": 0.5375650791,
				"y": 3.731542928,
				"z": -2.2294984192,
				"element": "S" 
			},
			{
				"x": -0.0959783612,
				"y": 1.6634483885,
				"z": -0.5233306046,
				"element": "N" 
			},
			{
				"x": -2.0179699595,
				"y": 4.1080070552,
				"z": -0.6286378023,
				"element": "H" 
			},
			{
				"x": 0.7036346878,
				"y": 1.0904362571,
				"z": -0.7484767597,
				"element": "H" 
			}
		],
		 "valence_orbital": [ 
			{
				"type": "occ",
				"energy": -0.36965,
				"method": "rhf"
			},
			{
				"type": "occ",
				"energy": -0.3592,
				"method": "rhf"
			},
			{
				"type": "occ",
				"energy": -0.34164,
				"method": "rhf"
			},
			{
				"type": "occ",
				"energy": -0.22824,
				"method": "rhf"
			},
			{
				"type": "occ",
				"energy": -0.22546,
				"method": "rhf"
			},
			{
				"type": "unocc",
				"energy": -0.03953,
				"method": "rhf"
			},
			{
				"type": "unocc",
				"energy": -0.01968,
				"method": "rhf"
			},
			{
				"type": "unocc",
				"energy": 0.04828,
				"method": "rhf"
			},
			{
				"type": "unocc",
				"energy": 0.07532,
				"method": "rhf"
			},
			{
				"type": "unocc",
				"energy": 0.08497,
				"method": "rhf"
			}
		],
		"cosmo_sigma_profile": { 
			"-0.025": 0.0,
			"-0.024": 0.0,
			"-0.023": 0.0,
			"-0.022": 0.0,
			"-0.021": 0.0,
			"-0.02": 0.0,
			"-0.019": 0.23246072763,
			"-0.018": 2.32835087838,
			"-0.017": 1.92529719688,
			"-0.016": 2.40370204982,
			"-0.015": 1.05848520461,
			"-0.014": 1.73803420666,
			"-0.013": 2.48624551513,
			"-0.012": 1.52880161598,
			"-0.011": 1.89166029687,
			"-0.01": 2.58943562349,
			"-0.009": 3.18821354409,
			"-0.008": 2.90572626738,
			"-0.007": 2.63990143339,
			"-0.006": 4.34752134407,
			"-0.005": 5.42457255842,
			"-0.004": 5.34638175664,
			"-0.003": 6.38984285474,
			"-0.002": 7.97397344476,
			"-0.001": 7.63779238323,
			"0.0": 10.3518548332,
			"0.001": 25.7335641086,
			"0.002": 19.7928308542,
			"0.003": 4.58812603337,
			"0.004": 3.84486555898,
			"0.005": 4.11620721757,
			"0.006": 3.50098309726,
			"0.007": 5.85978033298,
			"0.008": 4.14329259134,
			"0.009": 6.83072830954,
			"0.01": 9.42284831259,
			"0.011": 5.59517027129,
			"0.012": 0.794290730835,
			"0.013": 0.0,
			"0.014": 0.0,
			"0.015": 0.0,
			"0.016": 0.0,
			"0.017": 0.0,
			"0.018": 0.0,
			"0.019": 0.0,
			"0.02": 0.0,
			"0.021": 0.0,
			"0.022": 0.0,
			"0.023": 0.0,
			"0.024": 0.0,
			"0.025": 0.0
		}
	}
}
