{
	 "smiles": "CCCN(CCC)C(=O)COC(=O)C1=CC=CC=C1OC(C)=O", 
	 "Tm": 323.65, 
	 "num_atms": 46, 
	 "gaussian": { 
		 "optdone": 1, 
		 "sigma_profile": "yes", 
		 "theory": "DFT", 
		 "functional": "B3LYP", 
		 "basiset": "6-31G**", 
		 "properties": { 
			 "R2extent": 9250.61, 
			 "electric_dipole_moment_norm": 3.17347466037, 
			 "electric_quadrupole_moment_norm": 16.2057170955, 
			 "total_energy": -1092.5850867, 
			 "HOMO_LUMO_gap": 0.19352, 
			 "cosmo_polarized_energy": -15.63, 
			 "cosmo_cavitation_energy": 48.37, 
			 "cosmo_dispersion_energy": -31.86, 
			 "cosmo_repulsion_energy": 2.46, 
			 "cosmo_total_nonelectrostatic_energy": 18.97, 
			 "SMD_solvation_energy": 10.29 
		},
		"coords": [
			{
				"x": 2.4417806381,
				"y": -3.6244607943,
				"z": 1.6549419071,
				"element": "C" 
			},
			{
				"x": 2.4602820895,
				"y": -2.4450143956,
				"z": 2.6308987161,
				"element": "C" 
			},
			{
				"x": 1.7300569845,
				"y": -1.1917374755,
				"z": 2.121241845,
				"element": "C" 
			},
			{
				"x": 0.2816269049,
				"y": -1.3672130047,
				"z": 1.9372622122,
				"element": "N" 
			},
			{
				"x": -0.562757101,
				"y": -1.3688381779,
				"z": 3.145038933,
				"element": "C" 
			},
			{
				"x": -1.1241186926,
				"y": -2.7478940878,
				"z": 3.5182729009,
				"element": "C" 
			},
			{
				"x": -2.0052420777,
				"y": -2.6818033024,
				"z": 4.769652892,
				"element": "C" 
			},
			{
				"x": -0.3784928225,
				"y": -1.4067150099,
				"z": 0.7433414499,
				"element": "C" 
			},
			{
				"x": -1.6096118296,
				"y": -1.4406057044,
				"z": 0.6811896186,
				"element": "O" 
			},
			{
				"x": 0.4104292463,
				"y": -1.4287888049,
				"z": -0.5751567996,
				"element": "C" 
			},
			{
				"x": 0.2313798195,
				"y": -0.1655718552,
				"z": -1.2476783651,
				"element": "O" 
			},
			{
				"x": 1.2783910284,
				"y": 0.6865272891,
				"z": -1.2726843866,
				"element": "C" 
			},
			{
				"x": 2.3589335984,
				"y": 0.4367674707,
				"z": -0.7668765219,
				"element": "O" 
			},
			{
				"x": 0.9991228001,
				"y": 1.9473267538,
				"z": -2.0196651017,
				"element": "C" 
			},
			{
				"x": 2.1239250999,
				"y": 2.6885029345,
				"z": -2.4192283731,
				"element": "C" 
			},
			{
				"x": 1.9909776829,
				"y": 3.8758128975,
				"z": -3.1294778944,
				"element": "C" 
			},
			{
				"x": 0.7158340835,
				"y": 4.354221445,
				"z": -3.4407432832,
				"element": "C" 
			},
			{
				"x": -0.4130142408,
				"y": 3.6456127415,
				"z": -3.0359602269,
				"element": "C" 
			},
			{
				"x": -0.2778960349,
				"y": 2.4507370507,
				"z": -2.3311012872,
				"element": "C" 
			},
			{
				"x": -1.431468795,
				"y": 1.8473329051,
				"z": -1.8562198235,
				"element": "O" 
			},
			{
				"x": -2.0373822903,
				"y": 0.8805307262,
				"z": -2.6393999838,
				"element": "C" 
			},
			{
				"x": -3.1695114507,
				"y": 0.2503762443,
				"z": -1.8797736963,
				"element": "C" 
			},
			{
				"x": -1.6657666643,
				"y": 0.6157900372,
				"z": -3.7536177903,
				"element": "O" 
			},
			{
				"x": 2.9382951171,
				"y": -3.3686429152,
				"z": 0.7119149056,
				"element": "H" 
			},
			{
				"x": 1.4174626735,
				"y": -3.935373519,
				"z": 1.4242513234,
				"element": "H" 
			},
			{
				"x": 2.9619807484,
				"y": -4.4904228337,
				"z": 2.0758396405,
				"element": "H" 
			},
			{
				"x": 2.0321926851,
				"y": -2.7516015438,
				"z": 3.5934737417,
				"element": "H" 
			},
			{
				"x": 3.4975025427,
				"y": -2.1531996836,
				"z": 2.8391169474,
				"element": "H" 
			},
			{
				"x": 1.8669125467,
				"y": -0.3780478982,
				"z": 2.8442973345,
				"element": "H" 
			},
			{
				"x": 2.1746533647,
				"y": -0.8399045011,
				"z": 1.1896339718,
				"element": "H" 
			},
			{
				"x": 0.0434708129,
				"y": -0.9736374399,
				"z": 3.9667128947,
				"element": "H" 
			},
			{
				"x": -1.3946630183,
				"y": -0.6784172664,
				"z": 2.9745193046,
				"element": "H" 
			},
			{
				"x": -1.706436805,
				"y": -3.1220518207,
				"z": 2.6709586312,
				"element": "H" 
			},
			{
				"x": -0.2972642911,
				"y": -3.45019953,
				"z": 3.6799526032,
				"element": "H" 
			},
			{
				"x": -2.8574560824,
				"y": -2.0101152447,
				"z": 4.6181656948,
				"element": "H" 
			},
			{
				"x": -1.4446279289,
				"y": -2.3168617566,
				"z": 5.6384176119,
				"element": "H" 
			},
			{
				"x": -2.4030169774,
				"y": -3.669054058,
				"z": 5.0236732424,
				"element": "H" 
			},
			{
				"x": -0.0778827372,
				"y": -2.1676833197,
				"z": -1.2120500969,
				"element": "H" 
			},
			{
				"x": 1.4706924232,
				"y": -1.6519078268,
				"z": -0.4873440656,
				"element": "H" 
			},
			{
				"x": 3.1017255614,
				"y": 2.3003960185,
				"z": -2.1564005079,
				"element": "H" 
			},
			{
				"x": 2.8742095838,
				"y": 4.4271257071,
				"z": -3.436051942,
				"element": "H" 
			},
			{
				"x": 0.5980946956,
				"y": 5.2815113105,
				"z": -3.993611237,
				"element": "H" 
			},
			{
				"x": -1.412547355,
				"y": 4.0084497124,
				"z": -3.2497019604,
				"element": "H" 
			},
			{
				"x": -2.7534679662,
				"y": -0.3779885023,
				"z": -1.0828568195,
				"element": "H" 
			},
			{
				"x": -3.7886193718,
				"y": 1.0173821694,
				"z": -1.4070937485,
				"element": "H" 
			},
			{
				"x": -3.7676881982,
				"y": -0.3561511412,
				"z": -2.5596744111,
				"element": "H" 
			}
		],
		 "valence_orbital": [ 
			{
				"type": "occ",
				"energy": -0.26995,
				"method": "rhf"
			},
			{
				"type": "occ",
				"energy": -0.26475,
				"method": "rhf"
			},
			{
				"type": "occ",
				"energy": -0.25438,
				"method": "rhf"
			},
			{
				"type": "occ",
				"energy": -0.25088,
				"method": "rhf"
			},
			{
				"type": "occ",
				"energy": -0.24455,
				"method": "rhf"
			},
			{
				"type": "unocc",
				"energy": -0.05103,
				"method": "rhf"
			},
			{
				"type": "unocc",
				"energy": -0.00993,
				"method": "rhf"
			},
			{
				"type": "unocc",
				"energy": 0.00268,
				"method": "rhf"
			},
			{
				"type": "unocc",
				"energy": 0.02009,
				"method": "rhf"
			},
			{
				"type": "unocc",
				"energy": 0.0465,
				"method": "rhf"
			}
		],
		"cosmo_sigma_profile": { 
			"-0.025": 0.0,
			"-0.024": 0.0,
			"-0.023": 0.0,
			"-0.022": 0.0,
			"-0.021": 0.0,
			"-0.02": 0.0,
			"-0.019": 0.0,
			"-0.018": 0.0,
			"-0.017": 0.0,
			"-0.016": 0.0,
			"-0.015": 0.0,
			"-0.014": 0.0,
			"-0.013": 0.0,
			"-0.012": 0.0,
			"-0.011": 0.0,
			"-0.01": 0.0,
			"-0.009": 0.0,
			"-0.008": 1.10538260528,
			"-0.007": 8.39346348314,
			"-0.006": 14.8304949405,
			"-0.005": 22.8285194573,
			"-0.004": 29.7362223572,
			"-0.003": 41.772382232,
			"-0.002": 39.859269467,
			"-0.001": 43.7982320738,
			"0.0": 40.7963152516,
			"0.001": 35.5555942474,
			"0.002": 20.8775992961,
			"0.003": 16.2888964275,
			"0.004": 8.92601093354,
			"0.005": 9.13955782348,
			"0.006": 7.48071512544,
			"0.007": 6.29490277727,
			"0.008": 6.77735663302,
			"0.009": 4.96125189816,
			"0.01": 6.31515184913,
			"0.011": 8.38783838778,
			"0.012": 4.65371472404,
			"0.013": 2.1810742787,
			"0.014": 0.29773862551,
			"0.015": 0.0,
			"0.016": 0.0,
			"0.017": 0.0,
			"0.018": 0.0,
			"0.019": 0.0,
			"0.02": 0.0,
			"0.021": 0.0,
			"0.022": 0.0,
			"0.023": 0.0,
			"0.024": 0.0,
			"0.025": 0.0
		}
	}
}
