{
	 "smiles": "COC1=CC2=C(SC(C(O)=O)=C2C)C=C1", 
	 "Tm": 528.15, 
	 "num_atms": 25, 
	 "gaussian": { 
		 "optdone": 1, 
		 "sigma_profile": "yes", 
		 "theory": "DFT", 
		 "functional": "B3LYP", 
		 "basiset": "6-31G**", 
		 "properties": { 
			 "R2extent": 4439.1955, 
			 "electric_dipole_moment_norm": 6.37902428276, 
			 "electric_quadrupole_moment_norm": 17.2051877098, 
			 "total_energy": -1049.05786467, 
			 "HOMO_LUMO_gap": 0.1572, 
			 "cosmo_polarized_energy": -16.75, 
			 "cosmo_cavitation_energy": 30.37, 
			 "cosmo_dispersion_energy": -22.79, 
			 "cosmo_repulsion_energy": 1.72, 
			 "cosmo_total_nonelectrostatic_energy": 9.29, 
			 "SMD_solvation_energy": 6.46 
		},
		"coords": [
			{
				"x": 1.0300274474,
				"y": 3.343311362,
				"z": -3.0643427324,
				"element": "C" 
			},
			{
				"x": 1.904189232,
				"y": 2.9575326438,
				"z": -2.0163787128,
				"element": "O" 
			},
			{
				"x": 1.4090232904,
				"y": 2.1635188082,
				"z": -1.0233015583,
				"element": "C" 
			},
			{
				"x": 0.0989841853,
				"y": 1.7043869849,
				"z": -0.9539739136,
				"element": "C" 
			},
			{
				"x": -0.2852531144,
				"y": 0.8892392467,
				"z": 0.1342837398,
				"element": "C" 
			},
			{
				"x": 0.6623419079,
				"y": 0.5528238143,
				"z": 1.1266097851,
				"element": "C" 
			},
			{
				"x": -0.0258906561,
				"y": -0.4726345222,
				"z": 2.3615895614,
				"element": "S" 
			},
			{
				"x": -1.5925666073,
				"y": -0.4110288374,
				"z": 1.5664310474,
				"element": "C" 
			},
			{
				"x": -2.6706017609,
				"y": -1.18315082,
				"z": 2.2326908816,
				"element": "C" 
			},
			{
				"x": -3.9542752864,
				"y": -0.8106196743,
				"z": 1.9654447281,
				"element": "O" 
			},
			{
				"x": -2.4529062242,
				"y": -2.0954240661,
				"z": 2.9958068961,
				"element": "O" 
			},
			{
				"x": -1.5850415572,
				"y": 0.3152070368,
				"z": 0.395789515,
				"element": "C" 
			},
			{
				"x": -2.7313122237,
				"y": 0.4887722955,
				"z": -0.5678479951,
				"element": "C" 
			},
			{
				"x": 1.9826594851,
				"y": 1.02111747,
				"z": 1.0491648187,
				"element": "C" 
			},
			{
				"x": 2.3460891877,
				"y": 1.8193497825,
				"z": -0.019364685,
				"element": "C" 
			},
			{
				"x": 0.1825959727,
				"y": 3.9313791376,
				"z": -2.6881386756,
				"element": "H" 
			},
			{
				"x": 0.6466795216,
				"y": 2.4725281631,
				"z": -3.6122157248,
				"element": "H" 
			},
			{
				"x": 1.6228231609,
				"y": 3.9606147474,
				"z": -3.7407682567,
				"element": "H" 
			},
			{
				"x": -0.6276285664,
				"y": 1.9667025441,
				"z": -1.712857881,
				"element": "H" 
			},
			{
				"x": -3.9637204384,
				"y": 0.0440772375,
				"z": 1.5139908269,
				"element": "H" 
			},
			{
				"x": -3.5163169445,
				"y": -0.2559439766,
				"z": -0.4227116765,
				"element": "H" 
			},
			{
				"x": -3.1792534107,
				"y": 1.4888154873,
				"z": -0.4934642314,
				"element": "H" 
			},
			{
				"x": -2.3759977208,
				"y": 0.3799139135,
				"z": -1.5975568067,
				"element": "H" 
			},
			{
				"x": 2.7108728097,
				"y": 0.7626259169,
				"z": 1.8114494103,
				"element": "H" 
			},
			{
				"x": 3.3570783103,
				"y": 2.2006853044,
				"z": -0.1157283604,
				"element": "H" 
			}
		],
		 "valence_orbital": [ 
			{
				"type": "occ",
				"energy": -0.30478,
				"method": "rhf"
			},
			{
				"type": "occ",
				"energy": -0.28758,
				"method": "rhf"
			},
			{
				"type": "occ",
				"energy": -0.27614,
				"method": "rhf"
			},
			{
				"type": "occ",
				"energy": -0.2344,
				"method": "rhf"
			},
			{
				"type": "occ",
				"energy": -0.21936,
				"method": "rhf"
			},
			{
				"type": "unocc",
				"energy": -0.06216,
				"method": "rhf"
			},
			{
				"type": "unocc",
				"energy": -0.00281,
				"method": "rhf"
			},
			{
				"type": "unocc",
				"energy": 0.00818,
				"method": "rhf"
			},
			{
				"type": "unocc",
				"energy": 0.02216,
				"method": "rhf"
			},
			{
				"type": "unocc",
				"energy": 0.05856,
				"method": "rhf"
			}
		],
		"cosmo_sigma_profile": { 
			"-0.025": 0.0,
			"-0.024": 0.0,
			"-0.023": 0.0,
			"-0.022": 0.0,
			"-0.021": 0.0,
			"-0.02": 0.0,
			"-0.019": 0.0,
			"-0.018": 0.117039490175,
			"-0.017": 0.843062304006,
			"-0.016": 0.559967820611,
			"-0.015": 0.483283110939,
			"-0.014": 1.14777117162,
			"-0.013": 1.03435357908,
			"-0.012": 1.41430903789,
			"-0.011": 0.928136029795,
			"-0.01": 0.951415268417,
			"-0.009": 0.81554486561,
			"-0.008": 1.56110157404,
			"-0.007": 6.7543604586,
			"-0.006": 15.4945771823,
			"-0.005": 22.4240533888,
			"-0.004": 20.4708669789,
			"-0.003": 18.346014852,
			"-0.002": 15.5471158819,
			"-0.001": 11.1809024311,
			"0.0": 10.6148353313,
			"0.001": 14.6063529067,
			"0.002": 18.3551861288,
			"0.003": 22.2006129382,
			"0.004": 15.9274426174,
			"0.005": 7.93082390392,
			"0.006": 4.39473927924,
			"0.007": 3.27700221185,
			"0.008": 5.31217590448,
			"0.009": 4.5456314434,
			"0.01": 6.67421377413,
			"0.011": 5.64703482854,
			"0.012": 4.11870320834,
			"0.013": 1.0160493839,
			"0.014": 0.0,
			"0.015": 0.0,
			"0.016": 0.0,
			"0.017": 0.0,
			"0.018": 0.0,
			"0.019": 0.0,
			"0.02": 0.0,
			"0.021": 0.0,
			"0.022": 0.0,
			"0.023": 0.0,
			"0.024": 0.0,
			"0.025": 0.0
		}
	}
}
