{
	 "smiles": "FC1=C(C(Cl)=CC=C1)C1(CCCCC1)C#N", 
	 "Tm": 351.65, 
	 "num_atms": 29, 
	 "gaussian": { 
		 "optdone": 1, 
		 "sigma_profile": "yes", 
		 "theory": "DFT", 
		 "functional": "B3LYP", 
		 "basiset": "6-31G**", 
		 "properties": { 
			 "R2extent": 3852.2754, 
			 "electric_dipole_moment_norm": 4.34839913186, 
			 "electric_quadrupole_moment_norm": 14.9591143458, 
			 "total_energy": -1117.97210523, 
			 "HOMO_LUMO_gap": 0.22153, 
			 "cosmo_polarized_energy": -9.48, 
			 "cosmo_cavitation_energy": 32.16, 
			 "cosmo_dispersion_energy": -22.97, 
			 "cosmo_repulsion_energy": 1.74, 
			 "cosmo_total_nonelectrostatic_energy": 10.93, 
			 "SMD_solvation_energy": 5.75 
		},
		"coords": [
			{
				"x": -1.2050060444,
				"y": 2.4801509565,
				"z": 1.6387161214,
				"element": "F" 
			},
			{
				"x": -1.5034491747,
				"y": 2.0234254847,
				"z": 0.4007424652,
				"element": "C" 
			},
			{
				"x": -1.0668190363,
				"y": 0.753779647,
				"z": -0.0188886098,
				"element": "C" 
			},
			{
				"x": -1.4332876152,
				"y": 0.4357510574,
				"z": -1.3491037015,
				"element": "C" 
			},
			{
				"x": -0.96281602,
				"y": -1.0839588249,
				"z": -2.1012153288,
				"element": "Cl" 
			},
			{
				"x": -2.1805350932,
				"y": 1.2893262333,
				"z": -2.1614732533,
				"element": "C" 
			},
			{
				"x": -2.5921014545,
				"y": 2.5262603484,
				"z": -1.6760048504,
				"element": "C" 
			},
			{
				"x": -2.2459821695,
				"y": 2.898622219,
				"z": -0.3841000236,
				"element": "C" 
			},
			{
				"x": -0.2265079044,
				"y": -0.209166664,
				"z": 0.8624707004,
				"element": "C" 
			},
			{
				"x": -0.0728416327,
				"y": 0.2078602675,
				"z": 2.3617356899,
				"element": "C" 
			},
			{
				"x": 0.6558384104,
				"y": -0.8703341619,
				"z": 3.1922372079,
				"element": "C" 
			},
			{
				"x": 1.8356609793,
				"y": -1.5231950721,
				"z": 2.4318223935,
				"element": "C" 
			},
			{
				"x": 2.3246574399,
				"y": -0.6029382329,
				"z": 1.3092476231,
				"element": "C" 
			},
			{
				"x": 1.2266920547,
				"y": -0.364807336,
				"z": 0.2531701264,
				"element": "C" 
			},
			{
				"x": -0.9251653844,
				"y": -1.5161949651,
				"z": 0.9013295462,
				"element": "C" 
			},
			{
				"x": -1.4689455291,
				"y": -2.5347914623,
				"z": 1.0264998639,
				"element": "N" 
			},
			{
				"x": -2.4293876039,
				"y": 0.9737821441,
				"z": -3.1676180079,
				"element": "H" 
			},
			{
				"x": -3.1736437973,
				"y": 3.19355814,
				"z": -2.3036141669,
				"element": "H" 
			},
			{
				"x": -2.5329062708,
				"y": 3.8529566182,
				"z": 0.0426484506,
				"element": "H" 
			},
			{
				"x": 0.4910374005,
				"y": 1.141698029,
				"z": 2.3881135361,
				"element": "H" 
			},
			{
				"x": -1.0499942248,
				"y": 0.4163989856,
				"z": 2.8004125267,
				"element": "H" 
			},
			{
				"x": 1.0170812051,
				"y": -0.3861851499,
				"z": 4.1066236731,
				"element": "H" 
			},
			{
				"x": -0.055189532,
				"y": -1.6400330587,
				"z": 3.5066076321,
				"element": "H" 
			},
			{
				"x": 1.5172545366,
				"y": -2.4779760138,
				"z": 1.9976610186,
				"element": "H" 
			},
			{
				"x": 2.6530979957,
				"y": -1.754850231,
				"z": 3.1226520011,
				"element": "H" 
			},
			{
				"x": 2.6507885668,
				"y": 0.3532091592,
				"z": 1.7376106914,
				"element": "H" 
			},
			{
				"x": 3.2023039114,
				"y": -1.0279980891,
				"z": 0.8097797757,
				"element": "H" 
			},
			{
				"x": 1.447953534,
				"y": 0.5464846305,
				"z": -0.3111185764,
				"element": "H" 
			},
			{
				"x": 1.2226124529,
				"y": -1.1849346589,
				"z": -0.4661445248,
				"element": "H" 
			}
		],
		 "valence_orbital": [ 
			{
				"type": "occ",
				"energy": -0.31541,
				"method": "rhf"
			},
			{
				"type": "occ",
				"energy": -0.30607,
				"method": "rhf"
			},
			{
				"type": "occ",
				"energy": -0.29724,
				"method": "rhf"
			},
			{
				"type": "occ",
				"energy": -0.26675,
				"method": "rhf"
			},
			{
				"type": "occ",
				"energy": -0.25595,
				"method": "rhf"
			},
			{
				"type": "unocc",
				"energy": -0.03442,
				"method": "rhf"
			},
			{
				"type": "unocc",
				"energy": -0.02082,
				"method": "rhf"
			},
			{
				"type": "unocc",
				"energy": 0.01065,
				"method": "rhf"
			},
			{
				"type": "unocc",
				"energy": 0.04486,
				"method": "rhf"
			},
			{
				"type": "unocc",
				"energy": 0.04794,
				"method": "rhf"
			}
		],
		"cosmo_sigma_profile": { 
			"-0.025": 0.0,
			"-0.024": 0.0,
			"-0.023": 0.0,
			"-0.022": 0.0,
			"-0.021": 0.0,
			"-0.02": 0.0,
			"-0.019": 0.0,
			"-0.018": 0.0,
			"-0.017": 0.0,
			"-0.016": 0.0,
			"-0.015": 0.0,
			"-0.014": 0.0,
			"-0.013": 0.0,
			"-0.012": 0.0,
			"-0.011": 0.0,
			"-0.01": 0.0,
			"-0.009": 0.0,
			"-0.008": 2.13601877472,
			"-0.007": 5.9506785425,
			"-0.006": 7.23883914235,
			"-0.005": 9.81288073388,
			"-0.004": 15.5691665641,
			"-0.003": 24.981224834,
			"-0.002": 30.7449547019,
			"-0.001": 32.6339782771,
			"0.0": 31.9942665112,
			"0.001": 25.4469135982,
			"0.002": 16.9984738473,
			"0.003": 16.1842735542,
			"0.004": 10.8645719247,
			"0.005": 3.40655843007,
			"0.006": 2.44556640136,
			"0.007": 2.93671613539,
			"0.008": 3.0059898869,
			"0.009": 2.85887632033,
			"0.01": 3.08468160065,
			"0.011": 2.72726142554,
			"0.012": 2.75761028467,
			"0.013": 2.20757402466,
			"0.014": 0.408513508256,
			"0.015": 0.0,
			"0.016": 0.0,
			"0.017": 0.0,
			"0.018": 0.0,
			"0.019": 0.0,
			"0.02": 0.0,
			"0.021": 0.0,
			"0.022": 0.0,
			"0.023": 0.0,
			"0.024": 0.0,
			"0.025": 0.0
		}
	}
}
