{
	 "smiles": "CC(C)(C)OC(=O)C=P(C1=CC=CC=C1)(C1=CC=CC=C1)C1=CC=CC=C1", 
	 "Tm": 421.15, 
	 "num_atms": 52, 
	 "gaussian": { 
		 "optdone": 1, 
		 "sigma_profile": "yes", 
		 "theory": "DFT", 
		 "functional": "B3LYP", 
		 "basiset": "6-31G**", 
		 "properties": { 
			 "R2extent": 10933.9231, 
			 "electric_dipole_moment_norm": 4.78951819915, 
			 "electric_quadrupole_moment_norm": 4.44691624837, 
			 "total_energy": -1421.41913926, 
			 "HOMO_LUMO_gap": 0.1476, 
			 "cosmo_polarized_energy": -15.74, 
			 "cosmo_cavitation_energy": 54.76, 
			 "cosmo_dispersion_energy": -35.61, 
			 "cosmo_repulsion_energy": 2.73, 
			 "cosmo_total_nonelectrostatic_energy": 21.88, 
			 "SMD_solvation_energy": 10.56 
		},
		"coords": [
			{
				"x": -1.86750726,
				"y": 3.5586029837,
				"z": -3.5545354558,
				"element": "C" 
			},
			{
				"x": -2.2419998868,
				"y": 2.3052462287,
				"z": -2.7553436604,
				"element": "C" 
			},
			{
				"x": -3.3402201845,
				"y": 2.6309536919,
				"z": -1.7339035542,
				"element": "C" 
			},
			{
				"x": -2.6592671258,
				"y": 1.1730633444,
				"z": -3.7036812962,
				"element": "C" 
			},
			{
				"x": -0.9939083104,
				"y": 1.973434592,
				"z": -2.0755522709,
				"element": "O" 
			},
			{
				"x": -0.89499144,
				"y": 0.8869099844,
				"z": -1.2468173825,
				"element": "C" 
			},
			{
				"x": -1.8495483944,
				"y": 0.1275550212,
				"z": -1.0124693112,
				"element": "O" 
			},
			{
				"x": 0.4115078431,
				"y": 0.7658314169,
				"z": -0.6947889482,
				"element": "C" 
			},
			{
				"x": 0.7655477336,
				"y": -0.4725370215,
				"z": 0.437424961,
				"element": "P" 
			},
			{
				"x": 2.4943546874,
				"y": -0.189907099,
				"z": 0.9652754133,
				"element": "C" 
			},
			{
				"x": 2.857796436,
				"y": -0.1469373173,
				"z": 2.3179912536,
				"element": "C" 
			},
			{
				"x": 4.1866624582,
				"y": 0.0810015241,
				"z": 2.6821501145,
				"element": "C" 
			},
			{
				"x": 5.1612740647,
				"y": 0.2663098237,
				"z": 1.7014881555,
				"element": "C" 
			},
			{
				"x": 4.8064191154,
				"y": 0.2225766917,
				"z": 0.3508473816,
				"element": "C" 
			},
			{
				"x": 3.4817640728,
				"y": -0.0063668768,
				"z": -0.0180710375,
				"element": "C" 
			},
			{
				"x": 0.6914734274,
				"y": -2.2182437603,
				"z": -0.1460688371,
				"element": "C" 
			},
			{
				"x": -0.4445875364,
				"y": -2.6590802271,
				"z": -0.8490723096,
				"element": "C" 
			},
			{
				"x": -0.5083511292,
				"y": -3.9741195468,
				"z": -1.3085044086,
				"element": "C" 
			},
			{
				"x": 0.5460317478,
				"y": -4.8600690982,
				"z": -1.0730675673,
				"element": "C" 
			},
			{
				"x": 1.6737785899,
				"y": -4.4270987973,
				"z": -0.3754309453,
				"element": "C" 
			},
			{
				"x": 1.749242737,
				"y": -3.1111176484,
				"z": 0.0861444582,
				"element": "C" 
			},
			{
				"x": -0.2782319304,
				"y": -0.4482067486,
				"z": 1.9485090021,
				"element": "C" 
			},
			{
				"x": -0.4524407732,
				"y": -1.5852327128,
				"z": 2.7512262424,
				"element": "C" 
			},
			{
				"x": -1.2192137239,
				"y": -1.5096315762,
				"z": 3.914703193,
				"element": "C" 
			},
			{
				"x": -1.8240699715,
				"y": -0.304119006,
				"z": 4.2769401273,
				"element": "C" 
			},
			{
				"x": -1.6617421073,
				"y": 0.8274365543,
				"z": 3.47482096,
				"element": "C" 
			},
			{
				"x": -0.8919142694,
				"y": 0.7572616711,
				"z": 2.3140578392,
				"element": "C" 
			},
			{
				"x": -2.7311381108,
				"y": 3.9226871752,
				"z": -4.1200696547,
				"element": "H" 
			},
			{
				"x": -1.5298054804,
				"y": 4.3546781325,
				"z": -2.8842014793,
				"element": "H" 
			},
			{
				"x": -1.0588988998,
				"y": 3.3381110357,
				"z": -4.2578378267,
				"element": "H" 
			},
			{
				"x": -4.2367833198,
				"y": 2.9902352787,
				"z": -2.2510678501,
				"element": "H" 
			},
			{
				"x": -3.0005997106,
				"y": 3.4205267846,
				"z": -1.0552886607,
				"element": "H" 
			},
			{
				"x": -3.5952560764,
				"y": 1.7478564929,
				"z": -1.1480887788,
				"element": "H" 
			},
			{
				"x": -3.5229006665,
				"y": 1.4861547456,
				"z": -4.3007368724,
				"element": "H" 
			},
			{
				"x": -2.9199642919,
				"y": 0.2760342647,
				"z": -3.1423477505,
				"element": "H" 
			},
			{
				"x": -1.8395691789,
				"y": 0.9354508486,
				"z": -4.3896142096,
				"element": "H" 
			},
			{
				"x": 1.1933684144,
				"y": 1.4729017644,
				"z": -0.9339443915,
				"element": "H" 
			},
			{
				"x": 2.1053226782,
				"y": -0.2840759952,
				"z": 3.0871569192,
				"element": "H" 
			},
			{
				"x": 4.4565997304,
				"y": 0.116841122,
				"z": 3.7335273219,
				"element": "H" 
			},
			{
				"x": 6.1939683333,
				"y": 0.4448035281,
				"z": 1.9869875574,
				"element": "H" 
			},
			{
				"x": 5.5612034365,
				"y": 0.3665786936,
				"z": -0.4166539961,
				"element": "H" 
			},
			{
				"x": 3.2104056395,
				"y": -0.0382211415,
				"z": -1.0685994602,
				"element": "H" 
			},
			{
				"x": -1.2570622448,
				"y": -1.962323645,
				"z": -1.0323085626,
				"element": "H" 
			},
			{
				"x": -1.3869560718,
				"y": -4.3072076427,
				"z": -1.8536470049,
				"element": "H" 
			},
			{
				"x": 0.4891303891,
				"y": -5.8834148866,
				"z": -1.4335262051,
				"element": "H" 
			},
			{
				"x": 2.4982157527,
				"y": -5.1099487074,
				"z": -0.1904585812,
				"element": "H" 
			},
			{
				"x": 2.6342208799,
				"y": -2.7844649486,
				"z": 0.6222262675,
				"element": "H" 
			},
			{
				"x": 0.0008631088,
				"y": -2.5291300777,
				"z": 2.4646883323,
				"element": "H" 
			},
			{
				"x": -1.3514193918,
				"y": -2.3935595177,
				"z": 4.5319886622,
				"element": "H" 
			},
			{
				"x": -2.4267980006,
				"y": -0.249052854,
				"z": 5.1790944349,
				"element": "H" 
			},
			{
				"x": -2.1409742277,
				"y": 1.7629068818,
				"z": 3.7484338145,
				"element": "H" 
			},
			{
				"x": -0.7691315612,
				"y": 1.6267165761,
				"z": 1.6756158576,
				"element": "H" 
			}
		],
		 "valence_orbital": [ 
			{
				"type": "occ",
				"energy": -0.25588,
				"method": "rhf"
			},
			{
				"type": "occ",
				"energy": -0.25261,
				"method": "rhf"
			},
			{
				"type": "occ",
				"energy": -0.25086,
				"method": "rhf"
			},
			{
				"type": "occ",
				"energy": -0.22363,
				"method": "rhf"
			},
			{
				"type": "occ",
				"energy": -0.18114,
				"method": "rhf"
			},
			{
				"type": "unocc",
				"energy": -0.03354,
				"method": "rhf"
			},
			{
				"type": "unocc",
				"energy": -0.02792,
				"method": "rhf"
			},
			{
				"type": "unocc",
				"energy": -0.0227,
				"method": "rhf"
			},
			{
				"type": "unocc",
				"energy": -0.01903,
				"method": "rhf"
			},
			{
				"type": "unocc",
				"energy": -0.00659,
				"method": "rhf"
			}
		],
		"cosmo_sigma_profile": { 
			"-0.025": 0.0,
			"-0.024": 0.0,
			"-0.023": 0.0,
			"-0.022": 0.0,
			"-0.021": 0.0,
			"-0.02": 0.0,
			"-0.019": 0.0,
			"-0.018": 0.0,
			"-0.017": 0.0,
			"-0.016": 0.0,
			"-0.015": 0.0,
			"-0.014": 0.0,
			"-0.013": 0.0,
			"-0.012": 0.0,
			"-0.011": 0.0,
			"-0.01": 0.0,
			"-0.009": 0.0,
			"-0.008": 0.0,
			"-0.007": 3.606968396,
			"-0.006": 22.7927390531,
			"-0.005": 29.9526917759,
			"-0.004": 34.2669533544,
			"-0.003": 39.4318082083,
			"-0.002": 37.8294600492,
			"-0.001": 36.3505560368,
			"0.0": 39.6410340526,
			"0.001": 44.4228484051,
			"0.002": 36.6724242679,
			"0.003": 31.9643968974,
			"0.004": 32.8948266376,
			"0.005": 13.8526407003,
			"0.006": 5.09442145632,
			"0.007": 6.21437138664,
			"0.008": 4.99318960056,
			"0.009": 4.03310700845,
			"0.01": 3.7353271837,
			"0.011": 2.8997986208,
			"0.012": 1.31175232563,
			"0.013": 1.10864464713,
			"0.014": 1.19925253982,
			"0.015": 0.166606838239,
			"0.016": 0.0,
			"0.017": 0.0,
			"0.018": 0.0,
			"0.019": 0.0,
			"0.02": 0.0,
			"0.021": 0.0,
			"0.022": 0.0,
			"0.023": 0.0,
			"0.024": 0.0,
			"0.025": 0.0
		}
	}
}
