{
	 "smiles": "OC(=O)C(OC1=CC(C=O)=CC=C1)C1=CC=CC=C1", 
	 "Tm": 372.15, 
	 "num_atms": 31, 
	 "gaussian": { 
		 "optdone": 1, 
		 "sigma_profile": "yes", 
		 "theory": "DFT", 
		 "functional": "B3LYP", 
		 "basiset": "6-31G**", 
		 "properties": { 
			 "R2extent": 6210.2857, 
			 "electric_dipole_moment_norm": 5.29505327169, 
			 "electric_quadrupole_moment_norm": 14.6512639008, 
			 "total_energy": -879.714198484, 
			 "HOMO_LUMO_gap": 0.17695, 
			 "cosmo_polarized_energy": -17.56, 
			 "cosmo_cavitation_energy": 36.5, 
			 "cosmo_dispersion_energy": -25.19, 
			 "cosmo_repulsion_energy": 1.94, 
			 "cosmo_total_nonelectrostatic_energy": 13.25, 
			 "SMD_solvation_energy": 8.62 
		},
		"coords": [
			{
				"x": 0.7068113229,
				"y": 3.9287956511,
				"z": -0.2508089872,
				"element": "O" 
			},
			{
				"x": 1.080338099,
				"y": 3.0449815141,
				"z": 0.6852078161,
				"element": "C" 
			},
			{
				"x": 1.7699057262,
				"y": 3.3362759833,
				"z": 1.6294834598,
				"element": "O" 
			},
			{
				"x": 0.5550771853,
				"y": 1.6011377893,
				"z": 0.4925837761,
				"element": "C" 
			},
			{
				"x": -0.3030071417,
				"y": 1.6114207253,
				"z": -0.6541159468,
				"element": "O" 
			},
			{
				"x": -1.3326220522,
				"y": 0.7008893601,
				"z": -0.7541069649,
				"element": "C" 
			},
			{
				"x": -2.2976446327,
				"y": 0.9748230792,
				"z": -1.721132528,
				"element": "C" 
			},
			{
				"x": -3.3742296984,
				"y": 0.0990181426,
				"z": -1.8916208051,
				"element": "C" 
			},
			{
				"x": -4.40202574,
				"y": 0.3938036651,
				"z": -2.9198307573,
				"element": "C" 
			},
			{
				"x": -4.3835910274,
				"y": 1.3631046451,
				"z": -3.6530529976,
				"element": "O" 
			},
			{
				"x": -3.4884232498,
				"y": -1.0484595495,
				"z": -1.0951438851,
				"element": "C" 
			},
			{
				"x": -2.5151623316,
				"y": -1.3156682891,
				"z": -0.1360293268,
				"element": "C" 
			},
			{
				"x": -1.4313163257,
				"y": -0.4511012904,
				"z": 0.0387138572,
				"element": "C" 
			},
			{
				"x": 1.7051785154,
				"y": 0.6135356892,
				"z": 0.3703511391,
				"element": "C" 
			},
			{
				"x": 2.097339396,
				"y": 0.1151768546,
				"z": -0.8760886007,
				"element": "C" 
			},
			{
				"x": 3.1723250677,
				"y": -0.7706773321,
				"z": -0.968882085,
				"element": "C" 
			},
			{
				"x": 3.8653587419,
				"y": -1.1573412697,
				"z": 0.1787956879,
				"element": "C" 
			},
			{
				"x": 3.4797691151,
				"y": -0.6544868117,
				"z": 1.4235434709,
				"element": "C" 
			},
			{
				"x": 2.4034326361,
				"y": 0.2265456299,
				"z": 1.5210556383,
				"element": "C" 
			},
			{
				"x": 0.1294749518,
				"y": 3.4652720533,
				"z": -0.8839794414,
				"element": "H" 
			},
			{
				"x": -0.0362705821,
				"y": 1.382622735,
				"z": 1.39055915,
				"element": "H" 
			},
			{
				"x": -2.227343658,
				"y": 1.8614373333,
				"z": -2.3424448208,
				"element": "H" 
			},
			{
				"x": -5.2219215255,
				"y": -0.3553495333,
				"z": -2.9815695617,
				"element": "H" 
			},
			{
				"x": -4.3300530996,
				"y": -1.7218208778,
				"z": -1.2331426414,
				"element": "H" 
			},
			{
				"x": -2.5851172674,
				"y": -2.2059794536,
				"z": 0.4812935662,
				"element": "H" 
			},
			{
				"x": -0.6647943443,
				"y": -0.6898497697,
				"z": 0.7661149339,
				"element": "H" 
			},
			{
				"x": 1.5591198896,
				"y": 0.4157310588,
				"z": -1.7688621706,
				"element": "H" 
			},
			{
				"x": 3.46781859,
				"y": -1.156050609,
				"z": -1.9403814169,
				"element": "H" 
			},
			{
				"x": 4.7014516469,
				"y": -1.8465161719,
				"z": 0.104735175,
				"element": "H" 
			},
			{
				"x": 4.0166316906,
				"y": -0.9483458603,
				"z": 2.3206878918,
				"element": "H" 
			},
			{
				"x": 2.1152901021,
				"y": 0.6312749087,
				"z": 2.4862673747,
				"element": "H" 
			}
		],
		 "valence_orbital": [ 
			{
				"type": "occ",
				"energy": -0.27794,
				"method": "rhf"
			},
			{
				"type": "occ",
				"energy": -0.26531,
				"method": "rhf"
			},
			{
				"type": "occ",
				"energy": -0.26159,
				"method": "rhf"
			},
			{
				"type": "occ",
				"energy": -0.25783,
				"method": "rhf"
			},
			{
				"type": "occ",
				"energy": -0.25167,
				"method": "rhf"
			},
			{
				"type": "unocc",
				"energy": -0.07472,
				"method": "rhf"
			},
			{
				"type": "unocc",
				"energy": -0.02637,
				"method": "rhf"
			},
			{
				"type": "unocc",
				"energy": -0.01808,
				"method": "rhf"
			},
			{
				"type": "unocc",
				"energy": -0.01269,
				"method": "rhf"
			},
			{
				"type": "unocc",
				"energy": 0.01247,
				"method": "rhf"
			}
		],
		"cosmo_sigma_profile": { 
			"-0.025": 0.0,
			"-0.024": 0.0,
			"-0.023": 0.0,
			"-0.022": 0.0,
			"-0.021": 0.0,
			"-0.02": 0.0,
			"-0.019": 0.0,
			"-0.018": 0.0,
			"-0.017": 0.0,
			"-0.016": 0.0,
			"-0.015": 0.297738087489,
			"-0.014": 0.415566378511,
			"-0.013": 0.562385648401,
			"-0.012": 0.930367137762,
			"-0.011": 0.94428205293,
			"-0.01": 0.628660223326,
			"-0.009": 3.86581821687,
			"-0.008": 6.60610698366,
			"-0.007": 12.8566448937,
			"-0.006": 21.2037125805,
			"-0.005": 20.9485704884,
			"-0.004": 22.4090214858,
			"-0.003": 19.3774771935,
			"-0.002": 17.2942173759,
			"-0.001": 14.8210604121,
			"0.0": 17.9568426503,
			"0.001": 20.6712529373,
			"0.002": 21.0893395477,
			"0.003": 19.6112065717,
			"0.004": 13.5042760339,
			"0.005": 12.3255921427,
			"0.006": 5.18881664539,
			"0.007": 4.14958012574,
			"0.008": 5.24700693078,
			"0.009": 7.39101879975,
			"0.01": 7.24297423554,
			"0.011": 8.84646585312,
			"0.012": 5.37868254591,
			"0.013": 0.86600469031,
			"0.014": 0.0,
			"0.015": 0.0,
			"0.016": 0.0,
			"0.017": 0.0,
			"0.018": 0.0,
			"0.019": 0.0,
			"0.02": 0.0,
			"0.021": 0.0,
			"0.022": 0.0,
			"0.023": 0.0,
			"0.024": 0.0,
			"0.025": 0.0
		}
	}
}
