{
	 "smiles": "FC1=CC(=CC=C1C(=O)C1=CC=CC=C1)C(F)(F)F", 
	 "Tm": 312.15, 
	 "num_atms": 27, 
	 "gaussian": { 
		 "optdone": 1, 
		 "sigma_profile": "yes", 
		 "theory": "DFT", 
		 "functional": "B3LYP", 
		 "basiset": "6-31G**", 
		 "properties": { 
			 "R2extent": 6645.162, 
			 "electric_dipole_moment_norm": 2.64259418564, 
			 "electric_quadrupole_moment_norm": 9.66412834507, 
			 "total_energy": -1012.89542475, 
			 "HOMO_LUMO_gap": 0.17917, 
			 "cosmo_polarized_energy": -8.38, 
			 "cosmo_cavitation_energy": 33.95, 
			 "cosmo_dispersion_energy": -23.72, 
			 "cosmo_repulsion_energy": 1.73, 
			 "cosmo_total_nonelectrostatic_energy": 11.96, 
			 "SMD_solvation_energy": 7.75 
		},
		"coords": [
			{
				"x": -0.0233214263,
				"y": 1.5032718475,
				"z": 1.1687831298,
				"element": "F" 
			},
			{
				"x": 0.4207774756,
				"y": 0.2453947932,
				"z": 0.9769409798,
				"element": "C" 
			},
			{
				"x": -0.1982645832,
				"y": -0.7726433356,
				"z": 1.692514166,
				"element": "C" 
			},
			{
				"x": 0.2598744352,
				"y": -2.0793466047,
				"z": 1.5326876721,
				"element": "C" 
			},
			{
				"x": 1.3353204026,
				"y": -2.3538717818,
				"z": 0.6808141703,
				"element": "C" 
			},
			{
				"x": 1.944601806,
				"y": -1.3133510671,
				"z": -0.0102801621,
				"element": "C" 
			},
			{
				"x": 1.4855489678,
				"y": 0.0088868921,
				"z": 0.1024138431,
				"element": "C" 
			},
			{
				"x": 2.2393687831,
				"y": 1.0828289684,
				"z": -0.6448572549,
				"element": "C" 
			},
			{
				"x": 3.4587280227,
				"y": 0.9903980062,
				"z": -0.7105974903,
				"element": "O" 
			},
			{
				"x": 1.5173466693,
				"y": 2.1952236847,
				"z": -1.329807345,
				"element": "C" 
			},
			{
				"x": 2.2618824832,
				"y": 3.3261988041,
				"z": -1.7029161436,
				"element": "C" 
			},
			{
				"x": 1.6537675437,
				"y": 4.3736041511,
				"z": -2.3873214571,
				"element": "C" 
			},
			{
				"x": 0.2996825434,
				"y": 4.2928186691,
				"z": -2.7272169759,
				"element": "C" 
			},
			{
				"x": -0.4429982587,
				"y": 3.1629001074,
				"z": -2.3784286282,
				"element": "C" 
			},
			{
				"x": 0.160131828,
				"y": 2.1203789749,
				"z": -1.6768941545,
				"element": "C" 
			},
			{
				"x": -0.3645426252,
				"y": -3.1945191054,
				"z": 2.3318532356,
				"element": "C" 
			},
			{
				"x": -0.399753421,
				"y": -4.347246573,
				"z": 1.6295723058,
				"element": "F" 
			},
			{
				"x": -1.6291323299,
				"y": -2.9014643044,
				"z": 2.7026878398,
				"element": "F" 
			},
			{
				"x": 0.3349254506,
				"y": -3.4415179173,
				"z": 3.4615662153,
				"element": "F" 
			},
			{
				"x": -1.0190081041,
				"y": -0.5349726639,
				"z": 2.3584466533,
				"element": "H" 
			},
			{
				"x": 1.6869313056,
				"y": -3.3725862007,
				"z": 0.5627559595,
				"element": "H" 
			},
			{
				"x": 2.7943986516,
				"y": -1.5016870881,
				"z": -0.6574863009,
				"element": "H" 
			},
			{
				"x": 3.3148043456,
				"y": 3.359155144,
				"z": -1.4441012858,
				"element": "H" 
			},
			{
				"x": 2.2322667358,
				"y": 5.2509306246,
				"z": -2.6611895672,
				"element": "H" 
			},
			{
				"x": -0.1744705177,
				"y": 5.1079742991,
				"z": -3.2664420457,
				"element": "H" 
			},
			{
				"x": -1.4913796469,
				"y": 3.0938972917,
				"z": -2.6527843123,
				"element": "H" 
			},
			{
				"x": -0.420486537,
				"y": 1.2409443838,
				"z": -1.419613047,
				"element": "H" 
			}
		],
		 "valence_orbital": [ 
			{
				"type": "occ",
				"energy": -0.28676,
				"method": "rhf"
			},
			{
				"type": "occ",
				"energy": -0.27042,
				"method": "rhf"
			},
			{
				"type": "occ",
				"energy": -0.26673,
				"method": "rhf"
			},
			{
				"type": "occ",
				"energy": -0.26445,
				"method": "rhf"
			},
			{
				"type": "occ",
				"energy": -0.25791,
				"method": "rhf"
			},
			{
				"type": "unocc",
				"energy": -0.07874,
				"method": "rhf"
			},
			{
				"type": "unocc",
				"energy": -0.0355,
				"method": "rhf"
			},
			{
				"type": "unocc",
				"energy": -0.02411,
				"method": "rhf"
			},
			{
				"type": "unocc",
				"energy": -0.01254,
				"method": "rhf"
			},
			{
				"type": "unocc",
				"energy": 0.03737,
				"method": "rhf"
			}
		],
		"cosmo_sigma_profile": { 
			"-0.025": 0.0,
			"-0.024": 0.0,
			"-0.023": 0.0,
			"-0.022": 0.0,
			"-0.021": 0.0,
			"-0.02": 0.0,
			"-0.019": 0.0,
			"-0.018": 0.0,
			"-0.017": 0.0,
			"-0.016": 0.0,
			"-0.015": 0.0,
			"-0.014": 0.0,
			"-0.013": 0.0,
			"-0.012": 0.0,
			"-0.011": 0.0,
			"-0.01": 0.0,
			"-0.009": 0.510951250021,
			"-0.008": 2.76199418427,
			"-0.007": 7.75902559655,
			"-0.006": 15.3058343561,
			"-0.005": 16.8780792189,
			"-0.004": 18.7375673577,
			"-0.003": 15.142207481,
			"-0.002": 18.6884005457,
			"-0.001": 19.6966273207,
			"0.0": 25.5855779899,
			"0.001": 23.7198979555,
			"0.002": 36.3328492813,
			"0.003": 37.3423266296,
			"0.004": 17.3068956678,
			"0.005": 2.96257859914,
			"0.006": 2.29220242262,
			"0.007": 1.09152880509,
			"0.008": 1.73012724282,
			"0.009": 2.1390464127,
			"0.01": 2.39190634677,
			"0.011": 3.84019342172,
			"0.012": 1.75386085997,
			"0.013": 0.0,
			"0.014": 0.0,
			"0.015": 0.0,
			"0.016": 0.0,
			"0.017": 0.0,
			"0.018": 0.0,
			"0.019": 0.0,
			"0.02": 0.0,
			"0.021": 0.0,
			"0.022": 0.0,
			"0.023": 0.0,
			"0.024": 0.0,
			"0.025": 0.0
		}
	}
}
