{
	 "smiles": "CC(C)(C)OC(=O)C(Cl)(Cl)Cl", 
	 "Tm": 298.65, 
	 "num_atms": 20, 
	 "gaussian": { 
		 "optdone": 1, 
		 "sigma_profile": "yes", 
		 "theory": "DFT", 
		 "functional": "B3LYP", 
		 "basiset": "6-31G**", 
		 "properties": { 
			 "R2extent": 5547.5056, 
			 "electric_dipole_moment_norm": 3.37549334765, 
			 "electric_quadrupole_moment_norm": 7.89451019063, 
			 "total_energy": -1765.08533617, 
			 "HOMO_LUMO_gap": 0.24225, 
			 "cosmo_polarized_energy": -5.54, 
			 "cosmo_cavitation_energy": 28.46, 
			 "cosmo_dispersion_energy": -19.73, 
			 "cosmo_repulsion_energy": 1.6, 
			 "cosmo_total_nonelectrostatic_energy": 10.33, 
			 "SMD_solvation_energy": 5.01 
		},
		"coords": [
			{
				"x": -1.1894047051,
				"y": 0.1650549996,
				"z": -0.6775606806,
				"element": "C" 
			},
			{
				"x": -0.0868216592,
				"y": -0.0596568241,
				"z": 0.3590755377,
				"element": "C" 
			},
			{
				"x": -0.2221769753,
				"y": 0.9078032545,
				"z": 1.5345137783,
				"element": "C" 
			},
			{
				"x": 1.316629162,
				"y": -0.006331331,
				"z": -0.2478213201,
				"element": "C" 
			},
			{
				"x": -0.2899551454,
				"y": -1.383073139,
				"z": 1.0157244897,
				"element": "O" 
			},
			{
				"x": -0.2493101007,
				"y": -2.5119229156,
				"z": 0.3267015845,
				"element": "C" 
			},
			{
				"x": -0.0580190407,
				"y": -2.6676944569,
				"z": -0.8534857989,
				"element": "O" 
			},
			{
				"x": -0.4984906976,
				"y": -3.7196799358,
				"z": 1.2988523914,
				"element": "C" 
			},
			{
				"x": 0.7824822022,
				"y": -3.7232422157,
				"z": 2.5667346215,
				"element": "Cl" 
			},
			{
				"x": -0.447253369,
				"y": -5.2516173887,
				"z": 0.3948411894,
				"element": "Cl" 
			},
			{
				"x": -2.1168112897,
				"y": -3.5258281947,
				"z": 2.0681735857,
				"element": "Cl" 
			},
			{
				"x": -2.1757770779,
				"y": 0.056465911,
				"z": -0.216938551,
				"element": "H" 
			},
			{
				"x": -1.1049882169,
				"y": -0.536527015,
				"z": -1.5083148788,
				"element": "H" 
			},
			{
				"x": -1.1091222209,
				"y": 1.1827601902,
				"z": -1.0722074658,
				"element": "H" 
			},
			{
				"x": -1.2092827534,
				"y": 0.8200380278,
				"z": 1.9964492231,
				"element": "H" 
			},
			{
				"x": 0.535486746,
				"y": 0.7011182683,
				"z": 2.2952303985,
				"element": "H" 
			},
			{
				"x": -0.0921387472,
				"y": 1.9358547777,
				"z": 1.1842234301,
				"element": "H" 
			},
			{
				"x": 1.4204334573,
				"y": -0.7087804265,
				"z": -1.0756455209,
				"element": "H" 
			},
			{
				"x": 1.5073521529,
				"y": 1.0040294505,
				"z": -0.6229335873,
				"element": "H" 
			},
			{
				"x": 2.0707682785,
				"y": -0.2345710368,
				"z": 0.5111875737,
				"element": "H" 
			}
		],
		 "valence_orbital": [ 
			{
				"type": "occ",
				"energy": -0.32637,
				"method": "rhf"
			},
			{
				"type": "occ",
				"energy": -0.32076,
				"method": "rhf"
			},
			{
				"type": "occ",
				"energy": -0.31715,
				"method": "rhf"
			},
			{
				"type": "occ",
				"energy": -0.30799,
				"method": "rhf"
			},
			{
				"type": "occ",
				"energy": -0.28901,
				"method": "rhf"
			},
			{
				"type": "unocc",
				"energy": -0.04676,
				"method": "rhf"
			},
			{
				"type": "unocc",
				"energy": -0.0431,
				"method": "rhf"
			},
			{
				"type": "unocc",
				"energy": 0.00111,
				"method": "rhf"
			},
			{
				"type": "unocc",
				"energy": 0.04656,
				"method": "rhf"
			},
			{
				"type": "unocc",
				"energy": 0.07117,
				"method": "rhf"
			}
		],
		"cosmo_sigma_profile": { 
			"-0.025": 0.0,
			"-0.024": 0.0,
			"-0.023": 0.0,
			"-0.022": 0.0,
			"-0.021": 0.0,
			"-0.02": 0.0,
			"-0.019": 0.0,
			"-0.018": 0.0,
			"-0.017": 0.0,
			"-0.016": 0.0,
			"-0.015": 0.0,
			"-0.014": 0.0,
			"-0.013": 0.0,
			"-0.012": 0.0,
			"-0.011": 0.0,
			"-0.01": 0.0,
			"-0.009": 0.0,
			"-0.008": 0.0,
			"-0.007": 0.0,
			"-0.006": 0.769417178033,
			"-0.005": 10.3998760095,
			"-0.004": 21.6588729093,
			"-0.003": 23.2139750403,
			"-0.002": 24.264414678,
			"-0.001": 30.7108749893,
			"0.0": 27.9479126596,
			"0.001": 17.1322109337,
			"0.002": 28.8589119583,
			"0.003": 21.7104252063,
			"0.004": 5.90946730891,
			"0.005": 5.17601369884,
			"0.006": 3.02967612865,
			"0.007": 1.91151349316,
			"0.008": 2.02288527047,
			"0.009": 2.71995194907,
			"0.01": 2.637339394,
			"0.011": 0.628002426461,
			"0.012": 0.0,
			"0.013": 0.0,
			"0.014": 0.0,
			"0.015": 0.0,
			"0.016": 0.0,
			"0.017": 0.0,
			"0.018": 0.0,
			"0.019": 0.0,
			"0.02": 0.0,
			"0.021": 0.0,
			"0.022": 0.0,
			"0.023": 0.0,
			"0.024": 0.0,
			"0.025": 0.0
		}
	}
}
