{
	 "smiles": "NC1=C(C=CC=C1)C1=NC(=NO1)C1CC1", 
	 "Tm": 358.15, 
	 "num_atms": 26, 
	 "gaussian": { 
		 "optdone": 1, 
		 "sigma_profile": "yes", 
		 "theory": "DFT", 
		 "functional": "B3LYP", 
		 "basiset": "6-31G**", 
		 "properties": { 
			 "R2extent": 3720.9851, 
			 "electric_dipole_moment_norm": 3.31447780804, 
			 "electric_quadrupole_moment_norm": 9.82756165587, 
			 "total_energy": -665.230896056, 
			 "HOMO_LUMO_gap": 0.15773, 
			 "cosmo_polarized_energy": -10.09, 
			 "cosmo_cavitation_energy": 29.95, 
			 "cosmo_dispersion_energy": -22.13, 
			 "cosmo_repulsion_energy": 1.71, 
			 "cosmo_total_nonelectrostatic_energy": 9.53, 
			 "SMD_solvation_energy": 3.63 
		},
		"coords": [
			{
				"x": -0.1230242905,
				"y": 2.0059184086,
				"z": -0.570100018,
				"element": "N" 
			},
			{
				"x": -1.001560522,
				"y": 1.6488849647,
				"z": 0.4122354845,
				"element": "C" 
			},
			{
				"x": -0.9182828626,
				"y": 0.3903118516,
				"z": 1.0794479924,
				"element": "C" 
			},
			{
				"x": -1.8263271085,
				"y": 0.0883818549,
				"z": 2.1152461422,
				"element": "C" 
			},
			{
				"x": -2.8091241142,
				"y": 0.9846388094,
				"z": 2.4992146151,
				"element": "C" 
			},
			{
				"x": -2.8976630634,
				"y": 2.2190851349,
				"z": 1.8366871446,
				"element": "C" 
			},
			{
				"x": -2.0172279627,
				"y": 2.5446048728,
				"z": 0.8188606893,
				"element": "C" 
			},
			{
				"x": 0.080241033,
				"y": -0.5896776105,
				"z": 0.6978548761,
				"element": "C" 
			},
			{
				"x": 0.9848257818,
				"y": -0.5177238312,
				"z": -0.2558365836,
				"element": "N" 
			},
			{
				"x": 1.634923801,
				"y": -1.7279172146,
				"z": -0.1604806629,
				"element": "C" 
			},
			{
				"x": 1.1816968694,
				"y": -2.5158986051,
				"z": 0.7842043456,
				"element": "N" 
			},
			{
				"x": 0.1391414985,
				"y": -1.7590525192,
				"z": 1.3640624532,
				"element": "O" 
			},
			{
				"x": 2.7505102156,
				"y": -2.1242235132,
				"z": -1.035521665,
				"element": "C" 
			},
			{
				"x": 3.7344408779,
				"y": -1.0717810258,
				"z": -1.5127181956,
				"element": "C" 
			},
			{
				"x": 2.761370704,
				"y": -1.6703660628,
				"z": -2.4836743771,
				"element": "C" 
			},
			{
				"x": -0.31886253,
				"y": 2.822417124,
				"z": -1.1247953414,
				"element": "H" 
			},
			{
				"x": 0.5197745525,
				"y": 1.3064553823,
				"z": -0.922424384,
				"element": "H" 
			},
			{
				"x": -1.7412699582,
				"y": -0.8742975397,
				"z": 2.6078980592,
				"element": "H" 
			},
			{
				"x": -3.4997690271,
				"y": 0.7344138953,
				"z": 3.2972342948,
				"element": "H" 
			},
			{
				"x": -3.6648404936,
				"y": 2.933733115,
				"z": 2.1220179726,
				"element": "H" 
			},
			{
				"x": -2.0923637563,
				"y": 3.5062322692,
				"z": 0.3175902192,
				"element": "H" 
			},
			{
				"x": 3.1393424811,
				"y": -3.1128428303,
				"z": -0.8159367682,
				"element": "H" 
			},
			{
				"x": 4.7787999525,
				"y": -1.3614668446,
				"z": -1.5719918763,
				"element": "H" 
			},
			{
				"x": 3.5603721974,
				"y": -0.0530569976,
				"z": -1.1822628712,
				"element": "H" 
			},
			{
				"x": 1.9285625534,
				"y": -1.0567501294,
				"z": -2.811100275,
				"element": "H" 
			},
			{
				"x": 3.1256131709,
				"y": -2.3783229589,
				"z": -3.2214112706,
				"element": "H" 
			}
		],
		 "valence_orbital": [ 
			{
				"type": "occ",
				"energy": -0.31016,
				"method": "rhf"
			},
			{
				"type": "occ",
				"energy": -0.29443,
				"method": "rhf"
			},
			{
				"type": "occ",
				"energy": -0.27603,
				"method": "rhf"
			},
			{
				"type": "occ",
				"energy": -0.24255,
				"method": "rhf"
			},
			{
				"type": "occ",
				"energy": -0.20442,
				"method": "rhf"
			},
			{
				"type": "unocc",
				"energy": -0.04669,
				"method": "rhf"
			},
			{
				"type": "unocc",
				"energy": 0.01082,
				"method": "rhf"
			},
			{
				"type": "unocc",
				"energy": 0.0227,
				"method": "rhf"
			},
			{
				"type": "unocc",
				"energy": 0.06311,
				"method": "rhf"
			},
			{
				"type": "unocc",
				"energy": 0.08588,
				"method": "rhf"
			}
		],
		"cosmo_sigma_profile": { 
			"-0.025": 0.0,
			"-0.024": 0.0,
			"-0.023": 0.0,
			"-0.022": 0.0,
			"-0.021": 0.0,
			"-0.02": 0.0,
			"-0.019": 0.0,
			"-0.018": 0.0,
			"-0.017": 0.0,
			"-0.016": 0.0,
			"-0.015": 0.0,
			"-0.014": 0.25241454977,
			"-0.013": 1.61659329778,
			"-0.012": 0.840055937166,
			"-0.011": 1.64720594872,
			"-0.01": 1.54883687505,
			"-0.009": 1.41063506403,
			"-0.008": 2.27498260726,
			"-0.007": 2.95141519899,
			"-0.006": 9.88848135459,
			"-0.005": 17.3098980615,
			"-0.004": 16.262515112,
			"-0.003": 16.8840142206,
			"-0.002": 16.0064855716,
			"-0.001": 17.4173524588,
			"0.0": 21.5888829038,
			"0.001": 22.2458269634,
			"0.002": 20.9275668249,
			"0.003": 17.4077498666,
			"0.004": 16.2103416564,
			"0.005": 13.323811993,
			"0.006": 4.97152940812,
			"0.007": 4.9708650906,
			"0.008": 2.77345121282,
			"0.009": 2.24402743316,
			"0.01": 1.63759582527,
			"0.011": 1.25707360368,
			"0.012": 1.51879045035,
			"0.013": 1.3483630312,
			"0.014": 0.683415419022,
			"0.015": 0.00141863475961,
			"0.016": 0.0,
			"0.017": 0.0,
			"0.018": 0.0,
			"0.019": 0.0,
			"0.02": 0.0,
			"0.021": 0.0,
			"0.022": 0.0,
			"0.023": 0.0,
			"0.024": 0.0,
			"0.025": 0.0
		}
	}
}
