{
	 "smiles": "NNC1=NC=CC=C1[N+]([O-])=O", 
	 "Tm": 438.15, 
	 "num_atms": 17, 
	 "gaussian": { 
		 "optdone": 1, 
		 "sigma_profile": "yes", 
		 "theory": "DFT", 
		 "functional": "B3LYP", 
		 "basiset": "6-31G**", 
		 "properties": { 
			 "R2extent": 1951.7603, 
			 "electric_dipole_moment_norm": 4.09475995023, 
			 "electric_quadrupole_moment_norm": 4.38969409982, 
			 "total_energy": -563.471148111, 
			 "HOMO_LUMO_gap": 0.14336, 
			 "cosmo_polarized_energy": -10.82, 
			 "cosmo_cavitation_energy": 21.78, 
			 "cosmo_dispersion_energy": -16.57, 
			 "cosmo_repulsion_energy": 1.34, 
			 "cosmo_total_nonelectrostatic_energy": 6.54, 
			 "SMD_solvation_energy": 5.36 
		},
		"coords": [
			{
				"x": -3.7734448784,
				"y": -0.4661382117,
				"z": -1.6199863372,
				"element": "N" 
			},
			{
				"x": -2.7187782122,
				"y": 0.2293646644,
				"z": -1.0061845905,
				"element": "N" 
			},
			{
				"x": -1.5095155769,
				"y": -0.3235858277,
				"z": -0.7531205888,
				"element": "C" 
			},
			{
				"x": -1.3522390971,
				"y": -1.6143835882,
				"z": -1.1264817181,
				"element": "N" 
			},
			{
				"x": -0.1871945723,
				"y": -2.2146835637,
				"z": -0.9054237966,
				"element": "C" 
			},
			{
				"x": 0.9187008183,
				"y": -1.6044878473,
				"z": -0.3023072607,
				"element": "C" 
			},
			{
				"x": 0.7806593813,
				"y": -0.2817058386,
				"z": 0.0887520297,
				"element": "C" 
			},
			{
				"x": -0.4290715169,
				"y": 0.3782938327,
				"z": -0.1284708541,
				"element": "C" 
			},
			{
				"x": -0.5291653737,
				"y": 1.758716974,
				"z": 0.295561572,
				"element": "N" 
			},
			{
				"x": -1.6019744022,
				"y": 2.3601972735,
				"z": 0.1082143944,
				"element": "O" 
			},
			{
				"x": 0.4518730269,
				"y": 2.2823033353,
				"z": 0.8248862741,
				"element": "O" 
			},
			{
				"x": -3.4374644919,
				"y": -0.8166441174,
				"z": -2.5170270646,
				"element": "H" 
			},
			{
				"x": -3.9645127987,
				"y": -1.2997667489,
				"z": -1.064127038,
				"element": "H" 
			},
			{
				"x": -2.8760747687,
				"y": 1.1915737557,
				"z": -0.7427203437,
				"element": "H" 
			},
			{
				"x": -0.1272982418,
				"y": -3.2528089688,
				"z": -1.2296257778,
				"element": "H" 
			},
			{
				"x": 1.8434624943,
				"y": -2.1480378898,
				"z": -0.1493615346,
				"element": "H" 
			},
			{
				"x": 1.5836382098,
				"y": 0.2695927665,
				"z": 0.5627226343,
				"element": "H" 
			}
		],
		 "valence_orbital": [ 
			{
				"type": "occ",
				"energy": -0.30895,
				"method": "rhf"
			},
			{
				"type": "occ",
				"energy": -0.30108,
				"method": "rhf"
			},
			{
				"type": "occ",
				"energy": -0.28565,
				"method": "rhf"
			},
			{
				"type": "occ",
				"energy": -0.27508,
				"method": "rhf"
			},
			{
				"type": "occ",
				"energy": -0.23683,
				"method": "rhf"
			},
			{
				"type": "unocc",
				"energy": -0.09347,
				"method": "rhf"
			},
			{
				"type": "unocc",
				"energy": -0.02541,
				"method": "rhf"
			},
			{
				"type": "unocc",
				"energy": -0.00418,
				"method": "rhf"
			},
			{
				"type": "unocc",
				"energy": 0.07821,
				"method": "rhf"
			},
			{
				"type": "unocc",
				"energy": 0.09424,
				"method": "rhf"
			}
		],
		"cosmo_sigma_profile": { 
			"-0.025": 0.0,
			"-0.024": 0.0,
			"-0.023": 0.0,
			"-0.022": 0.0,
			"-0.021": 0.0,
			"-0.02": 0.0,
			"-0.019": 0.0,
			"-0.018": 0.0,
			"-0.017": 0.0,
			"-0.016": 0.0,
			"-0.015": 0.0,
			"-0.014": 0.0,
			"-0.013": 0.0,
			"-0.012": 0.281095367621,
			"-0.011": 2.19743711105,
			"-0.01": 2.10707807574,
			"-0.009": 3.23089223576,
			"-0.008": 4.16801185327,
			"-0.007": 10.0596400716,
			"-0.006": 9.59149563291,
			"-0.005": 9.22372371982,
			"-0.004": 10.2225399971,
			"-0.003": 9.93601088756,
			"-0.002": 13.9621485828,
			"-0.001": 15.4110206669,
			"0.0": 14.8227092477,
			"0.001": 11.5645342817,
			"0.002": 7.67534525952,
			"0.003": 4.2129733356,
			"0.004": 4.5644986383,
			"0.005": 4.91738217825,
			"0.006": 5.21012776395,
			"0.007": 5.58263457522,
			"0.008": 8.28357054605,
			"0.009": 6.41582348008,
			"0.01": 4.96279963748,
			"0.011": 2.01842591115,
			"0.012": 0.909792773477,
			"0.013": 0.942303662507,
			"0.014": 0.691831090656,
			"0.015": 0.484762408546,
			"0.016": 0.503402126269,
			"0.017": 0.0670893393987,
			"0.018": 0.0,
			"0.019": 0.0,
			"0.02": 0.0,
			"0.021": 0.0,
			"0.022": 0.0,
			"0.023": 0.0,
			"0.024": 0.0,
			"0.025": 0.0
		}
	}
}
