{
	 "smiles": "O=C1C2=CC=CC=C2C(=O)C2=CC(=CC=C12)C1=CC=CC=C1", 
	 "Tm": 434.65, 
	 "num_atms": 34, 
	 "gaussian": { 
		 "optdone": 1, 
		 "sigma_profile": "yes", 
		 "theory": "DFT", 
		 "functional": "B3LYP", 
		 "basiset": "6-31G**", 
		 "properties": { 
			 "R2extent": 9243.7033, 
			 "electric_dipole_moment_norm": 0.782429428128, 
			 "electric_quadrupole_moment_norm": 23.8580465873, 
			 "total_energy": -919.836968724, 
			 "HOMO_LUMO_gap": 0.13552, 
			 "cosmo_polarized_energy": -11.16, 
			 "cosmo_cavitation_energy": 38.6, 
			 "cosmo_dispersion_energy": -28.23, 
			 "cosmo_repulsion_energy": 2.06, 
			 "cosmo_total_nonelectrostatic_energy": 12.42, 
			 "SMD_solvation_energy": 6.81 
		},
		"coords": [
			{
				"x": -0.6996039608,
				"y": -0.3660906255,
				"z": 3.2258758166,
				"element": "O" 
			},
			{
				"x": 0.347886795,
				"y": -0.3720061969,
				"z": 2.5863629139,
				"element": "C" 
			},
			{
				"x": 1.6713925346,
				"y": -0.4655536546,
				"z": 3.2699899315,
				"element": "C" 
			},
			{
				"x": 1.7094360929,
				"y": -0.5483780353,
				"z": 4.6667293313,
				"element": "C" 
			},
			{
				"x": 2.9310604554,
				"y": -0.637166733,
				"z": 5.3292080534,
				"element": "C" 
			},
			{
				"x": 4.1266394079,
				"y": -0.6439221527,
				"z": 4.6005929065,
				"element": "C" 
			},
			{
				"x": 4.0981859374,
				"y": -0.5617474551,
				"z": 3.2108747947,
				"element": "C" 
			},
			{
				"x": 2.8745446388,
				"y": -0.4722297575,
				"z": 2.5366746018,
				"element": "C" 
			},
			{
				"x": 2.8745052312,
				"y": -0.3848483626,
				"z": 1.0472616814,
				"element": "C" 
			},
			{
				"x": 3.9221257039,
				"y": -0.3890226947,
				"z": 0.4092128607,
				"element": "O" 
			},
			{
				"x": 1.5504430658,
				"y": -0.2898285905,
				"z": 0.3644342617,
				"element": "C" 
			},
			{
				"x": 1.5153519365,
				"y": -0.2110407327,
				"z": -1.0294584212,
				"element": "C" 
			},
			{
				"x": 0.2995532502,
				"y": -0.1243389188,
				"z": -1.7227144237,
				"element": "C" 
			},
			{
				"x": -0.8929646873,
				"y": -0.1197135986,
				"z": -0.9704523864,
				"element": "C" 
			},
			{
				"x": -0.868706586,
				"y": -0.2018413883,
				"z": 0.4161657788,
				"element": "C" 
			},
			{
				"x": 0.3494981373,
				"y": -0.2874546921,
				"z": 1.1003248728,
				"element": "C" 
			},
			{
				"x": 0.2696151946,
				"y": -0.0402723631,
				"z": -3.2040076866,
				"element": "C" 
			},
			{
				"x": 1.2565366796,
				"y": 0.6744764547,
				"z": -3.9045824184,
				"element": "C" 
			},
			{
				"x": 1.2276580842,
				"y": 0.7546553993,
				"z": -5.2956883243,
				"element": "C" 
			},
			{
				"x": 0.2131960504,
				"y": 0.1206276015,
				"z": -6.0157813017,
				"element": "C" 
			},
			{
				"x": -0.7727246292,
				"y": -0.5944285193,
				"z": -5.3331446,
				"element": "C" 
			},
			{
				"x": -0.7455594448,
				"y": -0.6733190231,
				"z": -3.9417882452,
				"element": "C" 
			},
			{
				"x": 0.7686174705,
				"y": -0.5412228774,
				"z": 5.2067145095,
				"element": "H" 
			},
			{
				"x": 2.9557996311,
				"y": -0.7013684587,
				"z": 6.4131259159,
				"element": "H" 
			},
			{
				"x": 5.0781603003,
				"y": -0.7133032816,
				"z": 5.1196004842,
				"element": "H" 
			},
			{
				"x": 5.0094208922,
				"y": -0.5648171514,
				"z": 2.6223107279,
				"element": "H" 
			},
			{
				"x": 2.4603647178,
				"y": -0.2417655501,
				"z": -1.5608561733,
				"element": "H" 
			},
			{
				"x": -1.8453546175,
				"y": -0.0258513696,
				"z": -1.4830955459,
				"element": "H" 
			},
			{
				"x": -1.7847585702,
				"y": -0.1912894782,
				"z": 0.997262483,
				"element": "H" 
			},
			{
				"x": 2.0366606355,
				"y": 1.1905901771,
				"z": -3.3532269077,
				"element": "H" 
			},
			{
				"x": 1.9951098679,
				"y": 1.3192566707,
				"z": -5.8172267619,
				"element": "H" 
			},
			{
				"x": 0.1916457006,
				"y": 0.182553487,
				"z": -7.0998434956,
				"element": "H" 
			},
			{
				"x": -1.5604727993,
				"y": -1.099238943,
				"z": -5.8849434469,
				"element": "H" 
			},
			{
				"x": -1.5020631166,
				"y": -1.2548991861,
				"z": -3.4233117869,
				"element": "H" 
			}
		],
		 "valence_orbital": [ 
			{
				"type": "occ",
				"energy": -0.26713,
				"method": "rhf"
			},
			{
				"type": "occ",
				"energy": -0.26495,
				"method": "rhf"
			},
			{
				"type": "occ",
				"energy": -0.25881,
				"method": "rhf"
			},
			{
				"type": "occ",
				"energy": -0.25542,
				"method": "rhf"
			},
			{
				"type": "occ",
				"energy": -0.23749,
				"method": "rhf"
			},
			{
				"type": "unocc",
				"energy": -0.10197,
				"method": "rhf"
			},
			{
				"type": "unocc",
				"energy": -0.05927,
				"method": "rhf"
			},
			{
				"type": "unocc",
				"energy": -0.03371,
				"method": "rhf"
			},
			{
				"type": "unocc",
				"energy": -0.01434,
				"method": "rhf"
			},
			{
				"type": "unocc",
				"energy": -0.00918,
				"method": "rhf"
			}
		],
		"cosmo_sigma_profile": { 
			"-0.025": 0.0,
			"-0.024": 0.0,
			"-0.023": 0.0,
			"-0.022": 0.0,
			"-0.021": 0.0,
			"-0.02": 0.0,
			"-0.019": 0.0,
			"-0.018": 0.0,
			"-0.017": 0.0,
			"-0.016": 0.0,
			"-0.015": 0.0,
			"-0.014": 0.0,
			"-0.013": 0.0,
			"-0.012": 0.0,
			"-0.011": 0.0,
			"-0.01": 0.0,
			"-0.009": 0.0,
			"-0.008": 0.418992251069,
			"-0.007": 7.07401197764,
			"-0.006": 23.0861183056,
			"-0.005": 25.5830059531,
			"-0.004": 23.7740230981,
			"-0.003": 21.2406328364,
			"-0.002": 21.0720460093,
			"-0.001": 19.8563473989,
			"0.0": 27.0460624059,
			"0.001": 36.8070469291,
			"0.002": 34.0635898058,
			"0.003": 16.7933918712,
			"0.004": 12.7428233998,
			"0.005": 13.4348906842,
			"0.006": 3.88469247465,
			"0.007": 3.13521809344,
			"0.008": 3.72664666102,
			"0.009": 3.86907540563,
			"0.01": 4.33618989829,
			"0.011": 7.99780537827,
			"0.012": 2.14535746947,
			"0.013": 0.0,
			"0.014": 0.0,
			"0.015": 0.0,
			"0.016": 0.0,
			"0.017": 0.0,
			"0.018": 0.0,
			"0.019": 0.0,
			"0.02": 0.0,
			"0.021": 0.0,
			"0.022": 0.0,
			"0.023": 0.0,
			"0.024": 0.0,
			"0.025": 0.0
		}
	}
}
