{
	 "smiles": "CC1=NC(S)=NC(=C1)C1=CC=CC=C1", 
	 "Tm": 482.15, 
	 "num_atms": 24, 
	 "gaussian": { 
		 "optdone": 1, 
		 "sigma_profile": "yes", 
		 "theory": "DFT", 
		 "functional": "B3LYP", 
		 "basiset": "6-31G**", 
		 "properties": { 
			 "R2extent": 4975.9724, 
			 "electric_dipole_moment_norm": 3.40165572332, 
			 "electric_quadrupole_moment_norm": 14.5856385212, 
			 "total_energy": -932.901823066, 
			 "HOMO_LUMO_gap": 0.17529, 
			 "cosmo_polarized_energy": -9.34, 
			 "cosmo_cavitation_energy": 29.97, 
			 "cosmo_dispersion_energy": -22.55, 
			 "cosmo_repulsion_energy": 1.73, 
			 "cosmo_total_nonelectrostatic_energy": 9.15, 
			 "SMD_solvation_energy": 2.26 
		},
		"coords": [
			{
				"x": -3.7500015704,
				"y": -1.2369673738,
				"z": -2.5898254122,
				"element": "C" 
			},
			{
				"x": -3.1138311293,
				"y": -0.2324697351,
				"z": -1.6651268849,
				"element": "C" 
			},
			{
				"x": -3.9362660294,
				"y": 0.5142311472,
				"z": -0.9150921,
				"element": "N" 
			},
			{
				"x": -3.3459355126,
				"y": 1.4086229583,
				"z": -0.1125965426,
				"element": "C" 
			},
			{
				"x": -4.4883963822,
				"y": 2.3831319574,
				"z": 0.8462270212,
				"element": "S" 
			},
			{
				"x": -2.0430332116,
				"y": 1.631743604,
				"z": 0.0363829613,
				"element": "N" 
			},
			{
				"x": -1.2102201506,
				"y": 0.8735526786,
				"z": -0.7082035921,
				"element": "C" 
			},
			{
				"x": -1.7247972269,
				"y": -0.0789014933,
				"z": -1.5941312533,
				"element": "C" 
			},
			{
				"x": 0.2447928546,
				"y": 1.1204525815,
				"z": -0.542542675,
				"element": "C" 
			},
			{
				"x": 0.6827886249,
				"y": 2.3099316403,
				"z": 0.0629459938,
				"element": "C" 
			},
			{
				"x": 2.0423922176,
				"y": 2.5682389371,
				"z": 0.2179245135,
				"element": "C" 
			},
			{
				"x": 2.989402806,
				"y": 1.6397162139,
				"z": -0.2204851463,
				"element": "C" 
			},
			{
				"x": 2.5657896611,
				"y": 0.4483575943,
				"z": -0.8127741286,
				"element": "C" 
			},
			{
				"x": 1.2056394647,
				"y": 0.1907352654,
				"z": -0.9731079383,
				"element": "C" 
			},
			{
				"x": -3.4812624802,
				"y": -1.0317909516,
				"z": -3.6320521007,
				"element": "H" 
			},
			{
				"x": -3.4072225904,
				"y": -2.2518648152,
				"z": -2.3600501358,
				"element": "H" 
			},
			{
				"x": -4.8352268741,
				"y": -1.1970758553,
				"z": -2.4890409479,
				"element": "H" 
			},
			{
				"x": -3.5337449805,
				"y": 3.0917826535,
				"z": 1.4785908373,
				"element": "H" 
			},
			{
				"x": -1.0786128697,
				"y": -0.673123791,
				"z": -2.2288947621,
				"element": "H" 
			},
			{
				"x": -0.060883832,
				"y": 3.0207510283,
				"z": 0.4041635451,
				"element": "H" 
			},
			{
				"x": 2.3643875878,
				"y": 3.4961407013,
				"z": 0.6817710558,
				"element": "H" 
			},
			{
				"x": 4.0497594155,
				"y": 1.840491616,
				"z": -0.0973650327,
				"element": "H" 
			},
			{
				"x": 3.2949024498,
				"y": -0.2849265965,
				"z": -1.1448963578,
				"element": "H" 
			},
			{
				"x": 0.8956797579,
				"y": -0.7511599652,
				"z": -1.4142209177,
				"element": "H" 
			}
		],
		 "valence_orbital": [ 
			{
				"type": "occ",
				"energy": -0.29945,
				"method": "rhf"
			},
			{
				"type": "occ",
				"energy": -0.25955,
				"method": "rhf"
			},
			{
				"type": "occ",
				"energy": -0.25458,
				"method": "rhf"
			},
			{
				"type": "occ",
				"energy": -0.25107,
				"method": "rhf"
			},
			{
				"type": "occ",
				"energy": -0.23312,
				"method": "rhf"
			},
			{
				"type": "unocc",
				"energy": -0.05783,
				"method": "rhf"
			},
			{
				"type": "unocc",
				"energy": -0.02865,
				"method": "rhf"
			},
			{
				"type": "unocc",
				"energy": -0.00571,
				"method": "rhf"
			},
			{
				"type": "unocc",
				"energy": 0.02038,
				"method": "rhf"
			},
			{
				"type": "unocc",
				"energy": 0.02702,
				"method": "rhf"
			}
		],
		"cosmo_sigma_profile": { 
			"-0.025": 0.0,
			"-0.024": 0.0,
			"-0.023": 0.0,
			"-0.022": 0.0,
			"-0.021": 0.0,
			"-0.02": 0.0,
			"-0.019": 0.0,
			"-0.018": 0.0,
			"-0.017": 0.0,
			"-0.016": 0.0,
			"-0.015": 0.0,
			"-0.014": 0.0,
			"-0.013": 0.0,
			"-0.012": 0.0,
			"-0.011": 0.43500536388,
			"-0.01": 1.74716037819,
			"-0.009": 1.79373029361,
			"-0.008": 3.00872888437,
			"-0.007": 3.83621765732,
			"-0.006": 11.7456434707,
			"-0.005": 16.1653309564,
			"-0.004": 20.0922473676,
			"-0.003": 17.7332642288,
			"-0.002": 16.1942205609,
			"-0.001": 19.9359304707,
			"0.0": 21.3000070727,
			"0.001": 18.4757145799,
			"0.002": 16.5587901427,
			"0.003": 16.7980221343,
			"0.004": 19.7494696019,
			"0.005": 17.1525112026,
			"0.006": 6.18665353898,
			"0.007": 5.27110462835,
			"0.008": 3.60902666258,
			"0.009": 1.56346089946,
			"0.01": 1.03487502325,
			"0.011": 0.878685667489,
			"0.012": 0.815296935298,
			"0.013": 0.836440189876,
			"0.014": 0.140639398091,
			"0.015": 0.0,
			"0.016": 0.0,
			"0.017": 0.0,
			"0.018": 0.0,
			"0.019": 0.0,
			"0.02": 0.0,
			"0.021": 0.0,
			"0.022": 0.0,
			"0.023": 0.0,
			"0.024": 0.0,
			"0.025": 0.0
		}
	}
}
