{
	 "smiles": "COC1=CC2=C(C=C1OC)C(CBr)=CC(=O)O2", 
	 "Tm": 474.65, 
	 "num_atms": 28, 
	 "gaussian": { 
		 "optdone": 1, 
		 "sigma_profile": "yes", 
		 "theory": "DFT", 
		 "functional": "B3LYP", 
		 "basiset": "6-31G**", 
		 "properties": { 
			 "R2extent": 7455.7912, 
			 "electric_dipole_moment_norm": 4.93973532995, 
			 "electric_quadrupole_moment_norm": 22.4665362945, 
			 "total_energy": -3336.17849132, 
			 "HOMO_LUMO_gap": 0.15025, 
			 "cosmo_polarized_energy": -14.2, 
			 "cosmo_cavitation_energy": 34.46, 
			 "cosmo_dispersion_energy": -24.79, 
			 "cosmo_repulsion_energy": 1.93, 
			 "cosmo_total_nonelectrostatic_energy": 11.6, 
			 "SMD_solvation_energy": 7.32 
		},
		"coords": [
			{
				"x": 2.0324090477,
				"y": -0.4151402203,
				"z": -2.3755391485,
				"element": "C" 
			},
			{
				"x": 2.1517199334,
				"y": -0.3898112534,
				"z": -0.9441106015,
				"element": "O" 
			},
			{
				"x": 0.9729916794,
				"y": -0.4231026157,
				"z": -0.2492825215,
				"element": "C" 
			},
			{
				"x": 0.7203618935,
				"y": -1.5148570156,
				"z": 0.5745912988,
				"element": "C" 
			},
			{
				"x": -0.4564826093,
				"y": -1.5633822056,
				"z": 1.3226337269,
				"element": "C" 
			},
			{
				"x": -1.4133518718,
				"y": -0.5320880933,
				"z": 1.2531921298,
				"element": "C" 
			},
			{
				"x": -1.1286199639,
				"y": 0.5751798204,
				"z": 0.4301998605,
				"element": "C" 
			},
			{
				"x": 0.0426563725,
				"y": 0.6444439204,
				"z": -0.307972713,
				"element": "C" 
			},
			{
				"x": 0.2672186329,
				"y": 1.7407445779,
				"z": -1.1087677559,
				"element": "O" 
			},
			{
				"x": 1.2919329674,
				"y": 2.6259329396,
				"z": -0.6333960313,
				"element": "C" 
			},
			{
				"x": -2.6239133244,
				"y": -0.6863291882,
				"z": 2.041297231,
				"element": "C" 
			},
			{
				"x": -3.7211492882,
				"y": 0.3299641746,
				"z": 1.9834674619,
				"element": "C" 
			},
			{
				"x": -3.2606886207,
				"y": 1.9924042594,
				"z": 2.9844378705,
				"element": "Br" 
			},
			{
				"x": -2.776889997,
				"y": -1.7959430886,
				"z": 2.8095151139,
				"element": "C" 
			},
			{
				"x": -1.7759132422,
				"y": -2.8528884282,
				"z": 2.8836668138,
				"element": "C" 
			},
			{
				"x": -1.8551707663,
				"y": -3.8587874199,
				"z": 3.5488164895,
				"element": "O" 
			},
			{
				"x": -0.6375476081,
				"y": -2.6683366977,
				"z": 2.103844781,
				"element": "O" 
			},
			{
				"x": 1.4470839658,
				"y": 0.4321226854,
				"z": -2.7422352657,
				"element": "H" 
			},
			{
				"x": 1.5694585852,
				"y": -1.3536598679,
				"z": -2.7031047845,
				"element": "H" 
			},
			{
				"x": 3.0513309102,
				"y": -0.3609845902,
				"z": -2.7622770102,
				"element": "H" 
			},
			{
				"x": 1.433961787,
				"y": -2.3284277951,
				"z": 0.6305884112,
				"element": "H" 
			},
			{
				"x": -1.8090555367,
				"y": 1.4169392592,
				"z": 0.3750355802,
				"element": "H" 
			},
			{
				"x": 1.0208606612,
				"y": 3.039996271,
				"z": 0.3452436776,
				"element": "H" 
			},
			{
				"x": 1.3584710676,
				"y": 3.434896966,
				"z": -1.3632486565,
				"element": "H" 
			},
			{
				"x": 2.2565765507,
				"y": 2.113892111,
				"z": -0.5593173366,
				"element": "H" 
			},
			{
				"x": -4.6330026585,
				"y": -0.036351585,
				"z": 2.4491309295,
				"element": "H" 
			},
			{
				"x": -3.9297012973,
				"y": 0.6646782148,
				"z": 0.9682654004,
				"element": "H" 
			},
			{
				"x": -3.6618472701,
				"y": -1.957505135,
				"z": 3.4144250485,
				"element": "H" 
			}
		],
		 "valence_orbital": [ 
			{
				"type": "occ",
				"energy": -0.28766,
				"method": "rhf"
			},
			{
				"type": "occ",
				"energy": -0.27967,
				"method": "rhf"
			},
			{
				"type": "occ",
				"energy": -0.2742,
				"method": "rhf"
			},
			{
				"type": "occ",
				"energy": -0.25455,
				"method": "rhf"
			},
			{
				"type": "occ",
				"energy": -0.23123,
				"method": "rhf"
			},
			{
				"type": "unocc",
				"energy": -0.08098,
				"method": "rhf"
			},
			{
				"type": "unocc",
				"energy": -0.02335,
				"method": "rhf"
			},
			{
				"type": "unocc",
				"energy": -0.01469,
				"method": "rhf"
			},
			{
				"type": "unocc",
				"energy": 0.01541,
				"method": "rhf"
			},
			{
				"type": "unocc",
				"energy": 0.06863,
				"method": "rhf"
			}
		],
		"cosmo_sigma_profile": { 
			"-0.025": 0.0,
			"-0.024": 0.0,
			"-0.023": 0.0,
			"-0.022": 0.0,
			"-0.021": 0.0,
			"-0.02": 0.0,
			"-0.019": 0.0,
			"-0.018": 0.0,
			"-0.017": 0.0,
			"-0.016": 0.0,
			"-0.015": 0.0,
			"-0.014": 0.0,
			"-0.013": 0.0,
			"-0.012": 0.0,
			"-0.011": 0.0,
			"-0.01": 0.711857581864,
			"-0.009": 5.86727365578,
			"-0.008": 7.22037103409,
			"-0.007": 7.54236340851,
			"-0.006": 9.63640129066,
			"-0.005": 17.5886850403,
			"-0.004": 20.6209850112,
			"-0.003": 28.9183900981,
			"-0.002": 24.7113737339,
			"-0.001": 21.5419590779,
			"0.0": 22.0101226681,
			"0.001": 21.0846349066,
			"0.002": 15.6361798578,
			"0.003": 11.6174049639,
			"0.004": 11.8417644177,
			"0.005": 13.6840733951,
			"0.006": 7.20246217084,
			"0.007": 4.01377413084,
			"0.008": 4.65371177057,
			"0.009": 3.99802065965,
			"0.01": 4.70672474164,
			"0.011": 5.66900224882,
			"0.012": 6.25379129071,
			"0.013": 1.73036169233,
			"0.014": 0.0,
			"0.015": 0.0,
			"0.016": 0.0,
			"0.017": 0.0,
			"0.018": 0.0,
			"0.019": 0.0,
			"0.02": 0.0,
			"0.021": 0.0,
			"0.022": 0.0,
			"0.023": 0.0,
			"0.024": 0.0,
			"0.025": 0.0
		}
	}
}
