{
	 "smiles": "CC1=NC=NC(NCC2=CC=CO2)=C1", 
	 "Tm": 369.15, 
	 "num_atms": 25, 
	 "gaussian": { 
		 "optdone": 1, 
		 "sigma_profile": "yes", 
		 "theory": "DFT", 
		 "functional": "B3LYP", 
		 "basiset": "6-31G**", 
		 "properties": { 
			 "R2extent": 4599.1126, 
			 "electric_dipole_moment_norm": 3.42217370833, 
			 "electric_quadrupole_moment_norm": 10.5945142413, 
			 "total_energy": -627.155787566, 
			 "HOMO_LUMO_gap": 0.2032, 
			 "cosmo_polarized_energy": -11.87, 
			 "cosmo_cavitation_energy": 29.71, 
			 "cosmo_dispersion_energy": -21.82, 
			 "cosmo_repulsion_energy": 1.73, 
			 "cosmo_total_nonelectrostatic_energy": 9.61, 
			 "SMD_solvation_energy": 3.37 
		},
		"coords": [
			{
				"x": -0.8304287077,
				"y": -2.5292307402,
				"z": 4.9384595357,
				"element": "C" 
			},
			{
				"x": -0.5014951565,
				"y": -2.6281394596,
				"z": 3.4729746826,
				"element": "C" 
			},
			{
				"x": 0.1107754554,
				"y": -3.7684819908,
				"z": 3.0719875866,
				"element": "N" 
			},
			{
				"x": 0.3937897301,
				"y": -3.8424944806,
				"z": 1.7749629652,
				"element": "C" 
			},
			{
				"x": 0.1459684285,
				"y": -2.9392537718,
				"z": 0.8212515358,
				"element": "N" 
			},
			{
				"x": -0.4563772745,
				"y": -1.8074014607,
				"z": 1.224846624,
				"element": "C" 
			},
			{
				"x": -0.7072446839,
				"y": -0.8419503746,
				"z": 0.290734778,
				"element": "N" 
			},
			{
				"x": -0.4757118332,
				"y": -1.0059877945,
				"z": -1.1340906378,
				"element": "C" 
			},
			{
				"x": 0.0032149279,
				"y": 0.2741461289,
				"z": -1.7450415438,
				"element": "C" 
			},
			{
				"x": 0.755328652,
				"y": 1.3178703588,
				"z": -1.2899538831,
				"element": "C" 
			},
			{
				"x": 0.8817725102,
				"y": 2.2349272554,
				"z": -2.3868622389,
				"element": "C" 
			},
			{
				"x": 0.1994292468,
				"y": 1.6806630369,
				"z": -3.424469516,
				"element": "C" 
			},
			{
				"x": -0.3475031644,
				"y": 0.4862939493,
				"z": -3.0489252874,
				"element": "O" 
			},
			{
				"x": -0.805584569,
				"y": -1.6128187003,
				"z": 2.5808632696,
				"element": "C" 
			},
			{
				"x": 0.0843305187,
				"y": -2.6156219272,
				"z": 5.5338561571,
				"element": "H" 
			},
			{
				"x": -1.4795629132,
				"y": -3.3602986373,
				"z": 5.2327955304,
				"element": "H" 
			},
			{
				"x": -1.3263227634,
				"y": -1.5870843646,
				"z": 5.1854376595,
				"element": "H" 
			},
			{
				"x": 0.8867275784,
				"y": -4.754856146,
				"z": 1.4402897698,
				"element": "H" 
			},
			{
				"x": -1.246269455,
				"y": -0.0399181453,
				"z": 0.580782674,
				"element": "H" 
			},
			{
				"x": 0.2570146582,
				"y": -1.8111484787,
				"z": -1.2444614369,
				"element": "H" 
			},
			{
				"x": -1.3832379981,
				"y": -1.3308491173,
				"z": -1.6642673439,
				"element": "H" 
			},
			{
				"x": 1.1755029389,
				"y": 1.415217673,
				"z": -0.2996105261,
				"element": "H" 
			},
			{
				"x": 1.4104838817,
				"y": 3.1773001266,
				"z": -2.3946767223,
				"element": "H" 
			},
			{
				"x": 0.0076913185,
				"y": 1.9854701484,
				"z": -4.4413647605,
				"element": "H" 
			},
			{
				"x": -1.2936913262,
				"y": -0.6999530878,
				"z": 2.9095811284,
				"element": "H" 
			}
		],
		 "valence_orbital": [ 
			{
				"type": "occ",
				"energy": -0.279,
				"method": "rhf"
			},
			{
				"type": "occ",
				"energy": -0.27625,
				"method": "rhf"
			},
			{
				"type": "occ",
				"energy": -0.24506,
				"method": "rhf"
			},
			{
				"type": "occ",
				"energy": -0.23157,
				"method": "rhf"
			},
			{
				"type": "occ",
				"energy": -0.21731,
				"method": "rhf"
			},
			{
				"type": "unocc",
				"energy": -0.01411,
				"method": "rhf"
			},
			{
				"type": "unocc",
				"energy": -0.0026,
				"method": "rhf"
			},
			{
				"type": "unocc",
				"energy": 0.0115,
				"method": "rhf"
			},
			{
				"type": "unocc",
				"energy": 0.06879,
				"method": "rhf"
			},
			{
				"type": "unocc",
				"energy": 0.08311,
				"method": "rhf"
			}
		],
		"cosmo_sigma_profile": { 
			"-0.025": 0.0,
			"-0.024": 0.0,
			"-0.023": 0.0,
			"-0.022": 0.0,
			"-0.021": 0.0,
			"-0.02": 0.0,
			"-0.019": 0.0,
			"-0.018": 0.0,
			"-0.017": 0.0,
			"-0.016": 0.0,
			"-0.015": 0.0161176767115,
			"-0.014": 0.707209140028,
			"-0.013": 1.52049519848,
			"-0.012": 0.918824373168,
			"-0.011": 1.4378946355,
			"-0.01": 1.65583946265,
			"-0.009": 1.77301496846,
			"-0.008": 3.67260943443,
			"-0.007": 4.92428198814,
			"-0.006": 11.557529884,
			"-0.005": 14.4364233389,
			"-0.004": 17.8163633712,
			"-0.003": 16.983994364,
			"-0.002": 15.8348792198,
			"-0.001": 19.3931433541,
			"0.0": 18.330474258,
			"0.001": 21.1406692931,
			"0.002": 18.5434103313,
			"0.003": 14.62017462,
			"0.004": 11.5173441822,
			"0.005": 10.8661332192,
			"0.006": 7.99927815579,
			"0.007": 4.39050029922,
			"0.008": 4.60004856723,
			"0.009": 2.78334097261,
			"0.01": 1.65231115416,
			"0.011": 1.68312304093,
			"0.012": 2.34680592923,
			"0.013": 1.19032886521,
			"0.014": 0.623149620849,
			"0.015": 0.683903815757,
			"0.016": 1.00497188284,
			"0.017": 0.537243633715,
			"0.018": 0.0602709920324,
			"0.019": 0.0,
			"0.02": 0.0,
			"0.021": 0.0,
			"0.022": 0.0,
			"0.023": 0.0,
			"0.024": 0.0,
			"0.025": 0.0
		}
	}
}
