{
	 "smiles": "CN(CC(O)=O)C(=O)NC1=C2C=CC=CC2=CC=C1", 
	 "Tm": 400.15, 
	 "num_atms": 33, 
	 "gaussian": { 
		 "optdone": 1, 
		 "sigma_profile": "yes", 
		 "theory": "DFT", 
		 "functional": "B3LYP", 
		 "basiset": "6-31G**", 
		 "properties": { 
			 "R2extent": 5722.1854, 
			 "electric_dipole_moment_norm": 3.44144670306, 
			 "electric_quadrupole_moment_norm": 18.4117919478, 
			 "total_energy": -877.141722234, 
			 "HOMO_LUMO_gap": 0.17053, 
			 "cosmo_polarized_energy": -22.02, 
			 "cosmo_cavitation_energy": 37.0, 
			 "cosmo_dispersion_energy": -25.82, 
			 "cosmo_repulsion_energy": 1.97, 
			 "cosmo_total_nonelectrostatic_energy": 13.16, 
			 "SMD_solvation_energy": 6.59 
		},
		"coords": [
			{
				"x": 1.6886086527,
				"y": 3.2397395685,
				"z": -0.2314350525,
				"element": "C" 
			},
			{
				"x": 0.2828959828,
				"y": 2.9659110623,
				"z": 0.0576887131,
				"element": "N" 
			},
			{
				"x": -0.7078836411,
				"y": 3.6648091875,
				"z": -0.7325832938,
				"element": "C" 
			},
			{
				"x": -0.8127552355,
				"y": 3.1231479493,
				"z": -2.154878,
				"element": "C" 
			},
			{
				"x": -1.7763469053,
				"y": 3.7676916018,
				"z": -2.8484579387,
				"element": "O" 
			},
			{
				"x": -0.1272845002,
				"y": 2.244258644,
				"z": -2.6275773773,
				"element": "O" 
			},
			{
				"x": -0.1397017771,
				"y": 1.7223265185,
				"z": 0.5314417625,
				"element": "C" 
			},
			{
				"x": -1.309734422,
				"y": 1.3683777765,
				"z": 0.4718116516,
				"element": "O" 
			},
			{
				"x": 0.8674632248,
				"y": 0.928373694,
				"z": 1.0635154335,
				"element": "N" 
			},
			{
				"x": 0.6081356666,
				"y": -0.3234840097,
				"z": 1.6939626262,
				"element": "C" 
			},
			{
				"x": 0.1333471486,
				"y": -1.4364967128,
				"z": 0.9295060628,
				"element": "C" 
			},
			{
				"x": -0.1242280483,
				"y": -1.3675152014,
				"z": -0.466531093,
				"element": "C" 
			},
			{
				"x": -0.5749865883,
				"y": -2.4728568341,
				"z": -1.1524158433,
				"element": "C" 
			},
			{
				"x": -0.7956582227,
				"y": -3.6995267844,
				"z": -0.4812298564,
				"element": "C" 
			},
			{
				"x": -0.5438323627,
				"y": -3.8008633319,
				"z": 0.8670872951,
				"element": "C" 
			},
			{
				"x": -0.0661738976,
				"y": -2.6851565581,
				"z": 1.607419381,
				"element": "C" 
			},
			{
				"x": 0.238599504,
				"y": -2.7926283638,
				"z": 2.9910202275,
				"element": "C" 
			},
			{
				"x": 0.724468817,
				"y": -1.7111351798,
				"z": 3.6868802559,
				"element": "C" 
			},
			{
				"x": 0.9012911822,
				"y": -0.4698753489,
				"z": 3.0348914295,
				"element": "C" 
			},
			{
				"x": 2.1147260224,
				"y": 2.5333651016,
				"z": -0.9526181427,
				"element": "H" 
			},
			{
				"x": 2.2910567282,
				"y": 3.2330978549,
				"z": 0.6847599511,
				"element": "H" 
			},
			{
				"x": 1.7696604285,
				"y": 4.2468378608,
				"z": -0.6456726582,
				"element": "H" 
			},
			{
				"x": -1.6861671984,
				"y": 3.5597737177,
				"z": -0.2602424035,
				"element": "H" 
			},
			{
				"x": -0.46895158,
				"y": 4.7325684399,
				"z": -0.7786859289,
				"element": "H" 
			},
			{
				"x": -1.7942487454,
				"y": 3.3675981738,
				"z": -3.7342094359,
				"element": "H" 
			},
			{
				"x": 1.7193898112,
				"y": 1.3852164606,
				"z": 1.351624969,
				"element": "H" 
			},
			{
				"x": 0.0355589311,
				"y": -0.4349768226,
				"z": -0.9934079442,
				"element": "H" 
			},
			{
				"x": -0.7647654049,
				"y": -2.4026935915,
				"z": -2.2195408912,
				"element": "H" 
			},
			{
				"x": -1.1585569236,
				"y": -4.5604866905,
				"z": -1.0354750035,
				"element": "H" 
			},
			{
				"x": -0.7007764594,
				"y": -4.7412420213,
				"z": 1.3893396672,
				"element": "H" 
			},
			{
				"x": 0.0882545827,
				"y": -3.7476673526,
				"z": 3.4873629182,
				"element": "H" 
			},
			{
				"x": 0.962079114,
				"y": -1.7970443008,
				"z": 4.7430387003,
				"element": "H" 
			},
			{
				"x": 1.2582161158,
				"y": 0.3890554923,
				"z": 3.5971098187,
				"element": "H" 
			}
		],
		 "valence_orbital": [ 
			{
				"type": "occ",
				"energy": -0.26147,
				"method": "rhf"
			},
			{
				"type": "occ",
				"energy": -0.25051,
				"method": "rhf"
			},
			{
				"type": "occ",
				"energy": -0.24229,
				"method": "rhf"
			},
			{
				"type": "occ",
				"energy": -0.23569,
				"method": "rhf"
			},
			{
				"type": "occ",
				"energy": -0.20302,
				"method": "rhf"
			},
			{
				"type": "unocc",
				"energy": -0.03249,
				"method": "rhf"
			},
			{
				"type": "unocc",
				"energy": -0.00218,
				"method": "rhf"
			},
			{
				"type": "unocc",
				"energy": 0.0055,
				"method": "rhf"
			},
			{
				"type": "unocc",
				"energy": 0.03668,
				"method": "rhf"
			},
			{
				"type": "unocc",
				"energy": 0.05708,
				"method": "rhf"
			}
		],
		"cosmo_sigma_profile": { 
			"-0.025": 0.0,
			"-0.024": 0.0,
			"-0.023": 0.0,
			"-0.022": 0.0,
			"-0.021": 0.0,
			"-0.02": 0.0,
			"-0.019": 0.10140584775,
			"-0.018": 1.04171464602,
			"-0.017": 0.963821951273,
			"-0.016": 0.753915219814,
			"-0.015": 0.674339018076,
			"-0.014": 1.95312069274,
			"-0.013": 1.49394430691,
			"-0.012": 2.39613329807,
			"-0.011": 1.65076557028,
			"-0.01": 2.6480600055,
			"-0.009": 2.72814788956,
			"-0.008": 6.73425550866,
			"-0.007": 6.61967745544,
			"-0.006": 17.0099620455,
			"-0.005": 19.5049631336,
			"-0.004": 22.3830453622,
			"-0.003": 21.8014514769,
			"-0.002": 17.5299675623,
			"-0.001": 15.1582704207,
			"0.0": 11.8157559292,
			"0.001": 15.0893508108,
			"0.002": 16.4986892487,
			"0.003": 19.1011104002,
			"0.004": 26.2070526556,
			"0.005": 20.5618086199,
			"0.006": 8.39479181339,
			"0.007": 5.48345357669,
			"0.008": 3.92991903456,
			"0.009": 5.60943999911,
			"0.01": 3.54506569294,
			"0.011": 3.88630051893,
			"0.012": 3.58841301745,
			"0.013": 3.30172498124,
			"0.014": 3.60601035331,
			"0.015": 0.489178487661,
			"0.016": 0.0,
			"0.017": 0.0,
			"0.018": 0.0,
			"0.019": 0.0,
			"0.02": 0.0,
			"0.021": 0.0,
			"0.022": 0.0,
			"0.023": 0.0,
			"0.024": 0.0,
			"0.025": 0.0
		}
	}
}
