{
	 "smiles": "OC(=O)C1=CN(CC(=O)N2CCCC2)N=N1", 
	 "Tm": 482.15, 
	 "num_atms": 28, 
	 "gaussian": { 
		 "optdone": 1, 
		 "sigma_profile": "yes", 
		 "theory": "DFT", 
		 "functional": "B3LYP", 
		 "basiset": "6-31G**", 
		 "properties": { 
			 "R2extent": 5424.8439, 
			 "electric_dipole_moment_norm": 5.02633365884, 
			 "electric_quadrupole_moment_norm": 23.084184471, 
			 "total_energy": -794.850219858, 
			 "HOMO_LUMO_gap": 0.22098, 
			 "cosmo_polarized_energy": -22.37, 
			 "cosmo_cavitation_energy": 32.51, 
			 "cosmo_dispersion_energy": -23.15, 
			 "cosmo_repulsion_energy": 1.84, 
			 "cosmo_total_nonelectrostatic_energy": 11.2, 
			 "SMD_solvation_energy": 4.86 
		},
		"coords": [
			{
				"x": -0.2633949069,
				"y": -1.9398303298,
				"z": -5.2770237832,
				"element": "O" 
			},
			{
				"x": -0.9719509532,
				"y": -2.4640988804,
				"z": -4.2399480713,
				"element": "C" 
			},
			{
				"x": -1.3358035361,
				"y": -3.6175514101,
				"z": -4.2054875877,
				"element": "O" 
			},
			{
				"x": -1.2161503403,
				"y": -1.4457470386,
				"z": -3.20448315,
				"element": "C" 
			},
			{
				"x": -0.8169049903,
				"y": -0.1207029207,
				"z": -3.1757948913,
				"element": "C" 
			},
			{
				"x": -1.3135316529,
				"y": 0.345188623,
				"z": -2.0119439475,
				"element": "N" 
			},
			{
				"x": -1.1616540827,
				"y": 1.6641889513,
				"z": -1.4094882232,
				"element": "C" 
			},
			{
				"x": 0.312970135,
				"y": 1.8978706754,
				"z": -1.0338028984,
				"element": "C" 
			},
			{
				"x": 1.0995197537,
				"y": 2.2636169447,
				"z": -1.9052342941,
				"element": "O" 
			},
			{
				"x": 0.6789056238,
				"y": 1.6410500157,
				"z": 0.245048011,
				"element": "N" 
			},
			{
				"x": 2.1000508763,
				"y": 1.7026690734,
				"z": 0.6305362991,
				"element": "C" 
			},
			{
				"x": 2.1690062667,
				"y": 0.8041953311,
				"z": 1.8710029239,
				"element": "C" 
			},
			{
				"x": 0.7888467979,
				"y": 0.9979433718,
				"z": 2.5214578474,
				"element": "C" 
			},
			{
				"x": -0.1708748077,
				"y": 1.0912880163,
				"z": 1.3227614456,
				"element": "C" 
			},
			{
				"x": -1.9794434812,
				"y": -0.6420055383,
				"z": -1.340266799,
				"element": "N" 
			},
			{
				"x": -1.9201592639,
				"y": -1.7157797269,
				"z": -2.0628262259,
				"element": "N" 
			},
			{
				"x": -0.1425670988,
				"y": -2.6676811934,
				"z": -5.9088165504,
				"element": "H" 
			},
			{
				"x": -0.234788332,
				"y": 0.4866271486,
				"z": -3.8498349422,
				"element": "H" 
			},
			{
				"x": -1.856268246,
				"y": 1.6971455547,
				"z": -0.5707575605,
				"element": "H" 
			},
			{
				"x": -1.4343687647,
				"y": 2.4279521708,
				"z": -2.1402515348,
				"element": "H" 
			},
			{
				"x": 2.7201091505,
				"y": 1.3696559187,
				"z": -0.2042434753,
				"element": "H" 
			},
			{
				"x": 2.3831074842,
				"y": 2.7379470534,
				"z": 0.8614417257,
				"element": "H" 
			},
			{
				"x": 2.3018086642,
				"y": -0.2406947866,
				"z": 1.5691035894,
				"element": "H" 
			},
			{
				"x": 2.9961722317,
				"y": 1.0697312383,
				"z": 2.5342023234,
				"element": "H" 
			},
			{
				"x": 0.7695794215,
				"y": 1.935489086,
				"z": 3.0882173525,
				"element": "H" 
			},
			{
				"x": 0.5122746871,
				"y": 0.1901524957,
				"z": 3.2034662579,
				"element": "H" 
			},
			{
				"x": -1.0212266985,
				"y": 1.7483441303,
				"z": 1.533363266,
				"element": "H" 
			},
			{
				"x": -0.5661639371,
				"y": 0.1092360256,
				"z": 1.0382028929,
				"element": "H" 
			}
		],
		 "valence_orbital": [ 
			{
				"type": "occ",
				"energy": -0.27899,
				"method": "rhf"
			},
			{
				"type": "occ",
				"energy": -0.2761,
				"method": "rhf"
			},
			{
				"type": "occ",
				"energy": -0.27574,
				"method": "rhf"
			},
			{
				"type": "occ",
				"energy": -0.25903,
				"method": "rhf"
			},
			{
				"type": "occ",
				"energy": -0.25372,
				"method": "rhf"
			},
			{
				"type": "unocc",
				"energy": -0.03274,
				"method": "rhf"
			},
			{
				"type": "unocc",
				"energy": -0.01707,
				"method": "rhf"
			},
			{
				"type": "unocc",
				"energy": 0.00406,
				"method": "rhf"
			},
			{
				"type": "unocc",
				"energy": 0.06743,
				"method": "rhf"
			},
			{
				"type": "unocc",
				"energy": 0.08085,
				"method": "rhf"
			}
		],
		"cosmo_sigma_profile": { 
			"-0.025": 0.0,
			"-0.024": 0.0,
			"-0.023": 0.0,
			"-0.022": 0.0,
			"-0.021": 0.0,
			"-0.02": 0.0,
			"-0.019": 0.20873960469,
			"-0.018": 0.858331199995,
			"-0.017": 1.0406060316,
			"-0.016": 0.60867038648,
			"-0.015": 0.728525878487,
			"-0.014": 0.968032044882,
			"-0.013": 0.424788694585,
			"-0.012": 0.912808960865,
			"-0.011": 1.05352275908,
			"-0.01": 1.95711967028,
			"-0.009": 5.64993103682,
			"-0.008": 6.56849513684,
			"-0.007": 6.82665571198,
			"-0.006": 8.43491805914,
			"-0.005": 10.4117511673,
			"-0.004": 25.7023335361,
			"-0.003": 33.4857310829,
			"-0.002": 28.7897318351,
			"-0.001": 22.2498449429,
			"0.0": 14.1173271366,
			"0.001": 6.88098958054,
			"0.002": 6.83318852536,
			"0.003": 5.25427888853,
			"0.004": 5.38212465153,
			"0.005": 4.4839427542,
			"0.006": 5.26220804503,
			"0.007": 6.72948902795,
			"0.008": 5.70257090842,
			"0.009": 5.54585460447,
			"0.01": 7.05745492296,
			"0.011": 8.79249552415,
			"0.012": 6.69100199406,
			"0.013": 7.04689991814,
			"0.014": 4.00685458033,
			"0.015": 0.479549960704,
			"0.016": 0.0,
			"0.017": 0.0,
			"0.018": 0.0,
			"0.019": 0.0,
			"0.02": 0.0,
			"0.021": 0.0,
			"0.022": 0.0,
			"0.023": 0.0,
			"0.024": 0.0,
			"0.025": 0.0
		}
	}
}
