{
	 "smiles": "COC1=NC=C(Br)C=N1", 
	 "Tm": 330.65, 
	 "num_atms": 14, 
	 "gaussian": { 
		 "optdone": 1, 
		 "sigma_profile": "yes", 
		 "theory": "DFT", 
		 "functional": "B3LYP", 
		 "basiset": "6-31G**", 
		 "properties": { 
			 "R2extent": 4518.8159, 
			 "electric_dipole_moment_norm": 1.56103843002, 
			 "electric_quadrupole_moment_norm": 5.85575734897, 
			 "total_energy": -2949.66085648, 
			 "HOMO_LUMO_gap": 0.19423, 
			 "cosmo_polarized_energy": -7.17, 
			 "cosmo_cavitation_energy": 20.99, 
			 "cosmo_dispersion_energy": -16.29, 
			 "cosmo_repulsion_energy": 1.34, 
			 "cosmo_total_nonelectrostatic_energy": 6.03, 
			 "SMD_solvation_energy": 1.07 
		},
		"coords": [
			{
				"x": 1.1604961827,
				"y": 0.8311169878,
				"z": 2.5556546655,
				"element": "C" 
			},
			{
				"x": 1.3413158649,
				"y": 0.5330063873,
				"z": 1.1667667172,
				"element": "O" 
			},
			{
				"x": 0.6753579475,
				"y": 1.2832741186,
				"z": 0.281572373,
				"element": "C" 
			},
			{
				"x": -0.1182758777,
				"y": 2.2641293737,
				"z": 0.7265157526,
				"element": "N" 
			},
			{
				"x": -0.7559760362,
				"y": 2.9782740567,
				"z": -0.2060658837,
				"element": "C" 
			},
			{
				"x": -0.6001231098,
				"y": 2.7129666309,
				"z": -1.561682727,
				"element": "C" 
			},
			{
				"x": -1.5077774253,
				"y": 3.7305645134,
				"z": -2.8837087656,
				"element": "Br" 
			},
			{
				"x": 0.2550345039,
				"y": 1.6633636991,
				"z": -1.9111127346,
				"element": "C" 
			},
			{
				"x": 0.8970211913,
				"y": 0.942926539,
				"z": -0.9976514907,
				"element": "N" 
			},
			{
				"x": 0.1132639262,
				"y": 0.717467241,
				"z": 2.8490583424,
				"element": "H" 
			},
			{
				"x": 1.4788415041,
				"y": 1.8521654614,
				"z": 2.7832971211,
				"element": "H" 
			},
			{
				"x": 1.7843565952,
				"y": 0.1110531524,
				"z": 3.0855617687,
				"element": "H" 
			},
			{
				"x": -1.4050139449,
				"y": 3.77934147,
				"z": 0.139336843,
				"element": "H" 
			},
			{
				"x": 0.4205786782,
				"y": 1.4041503686,
				"z": -2.954441982,
				"element": "H" 
			}
		],
		 "valence_orbital": [ 
			{
				"type": "occ",
				"energy": -0.33068,
				"method": "rhf"
			},
			{
				"type": "occ",
				"energy": -0.31214,
				"method": "rhf"
			},
			{
				"type": "occ",
				"energy": -0.30653,
				"method": "rhf"
			},
			{
				"type": "occ",
				"energy": -0.26278,
				"method": "rhf"
			},
			{
				"type": "occ",
				"energy": -0.24747,
				"method": "rhf"
			},
			{
				"type": "unocc",
				"energy": -0.05324,
				"method": "rhf"
			},
			{
				"type": "unocc",
				"energy": -0.02234,
				"method": "rhf"
			},
			{
				"type": "unocc",
				"energy": -0.00251,
				"method": "rhf"
			},
			{
				"type": "unocc",
				"energy": 0.11331,
				"method": "rhf"
			},
			{
				"type": "unocc",
				"energy": 0.12237,
				"method": "rhf"
			}
		],
		"cosmo_sigma_profile": { 
			"-0.025": 0.0,
			"-0.024": 0.0,
			"-0.023": 0.0,
			"-0.022": 0.0,
			"-0.021": 0.0,
			"-0.02": 0.0,
			"-0.019": 0.0,
			"-0.018": 0.0,
			"-0.017": 0.0,
			"-0.016": 0.0,
			"-0.015": 0.0,
			"-0.014": 0.0,
			"-0.013": 0.0,
			"-0.012": 0.0,
			"-0.011": 0.0,
			"-0.01": 0.0,
			"-0.009": 1.81751864461,
			"-0.008": 3.74335071088,
			"-0.007": 3.88107114086,
			"-0.006": 7.05804172841,
			"-0.005": 11.866809195,
			"-0.004": 13.7539775918,
			"-0.003": 18.8678376659,
			"-0.002": 16.5116438883,
			"-0.001": 15.3639575366,
			"0.0": 10.6014532597,
			"0.001": 8.99428751298,
			"0.002": 10.7079456789,
			"0.003": 12.3120923724,
			"0.004": 11.3510996125,
			"0.005": 3.59476846547,
			"0.006": 2.88066135453,
			"0.007": 3.0188625987,
			"0.008": 2.26911986833,
			"0.009": 3.20171021472,
			"0.01": 2.72932064219,
			"0.011": 2.8170728793,
			"0.012": 2.09107498898,
			"0.013": 1.30512085983,
			"0.014": 0.871311163852,
			"0.015": 0.374708988348,
			"0.016": 0.0,
			"0.017": 0.0,
			"0.018": 0.0,
			"0.019": 0.0,
			"0.02": 0.0,
			"0.021": 0.0,
			"0.022": 0.0,
			"0.023": 0.0,
			"0.024": 0.0,
			"0.025": 0.0
		}
	}
}
