{
	 "smiles": "SC1=NN=C(N1C1=CC2=C(OCCO2)C=C1)C1=CC=CO1", 
	 "Tm": 511.15, 
	 "num_atms": 32, 
	 "gaussian": { 
		 "optdone": 1, 
		 "sigma_profile": "yes", 
		 "theory": "DFT", 
		 "functional": "B3LYP", 
		 "basiset": "6-31G**", 
		 "properties": { 
			 "R2extent": 6911.7054, 
			 "electric_dipole_moment_norm": 8.62053002373, 
			 "electric_quadrupole_moment_norm": 18.401321596, 
			 "total_energy": -1328.1522662, 
			 "HOMO_LUMO_gap": 0.17595, 
			 "cosmo_polarized_energy": -20.48, 
			 "cosmo_cavitation_energy": 38.83, 
			 "cosmo_dispersion_energy": -27.5, 
			 "cosmo_repulsion_energy": 2.07, 
			 "cosmo_total_nonelectrostatic_energy": 13.4, 
			 "SMD_solvation_energy": 5.36 
		},
		"coords": [
			{
				"x": -3.9034588748,
				"y": -0.8232786542,
				"z": 0.2621706857,
				"element": "S" 
			},
			{
				"x": -2.6915367425,
				"y": 0.2956412419,
				"z": 0.8889527988,
				"element": "C" 
			},
			{
				"x": -2.98089034,
				"y": 1.2977583047,
				"z": 1.6838436606,
				"element": "N" 
			},
			{
				"x": -1.79603975,
				"y": 1.8913717594,
				"z": 2.0444861762,
				"element": "N" 
			},
			{
				"x": -0.8149494643,
				"y": 1.2423043641,
				"z": 1.4480264196,
				"element": "C" 
			},
			{
				"x": -1.3245004661,
				"y": 0.1944591065,
				"z": 0.6965450098,
				"element": "N" 
			},
			{
				"x": -0.6423965793,
				"y": -0.7729177084,
				"z": -0.1121427443,
				"element": "C" 
			},
			{
				"x": -0.4360587873,
				"y": -0.5077549722,
				"z": -1.4667719525,
				"element": "C" 
			},
			{
				"x": 0.2075333888,
				"y": -1.4524180323,
				"z": -2.2655609397,
				"element": "C" 
			},
			{
				"x": 0.6540092549,
				"y": -2.6609465602,
				"z": -1.6985688475,
				"element": "C" 
			},
			{
				"x": 1.307968691,
				"y": -3.6076620028,
				"z": -2.4410652466,
				"element": "O" 
			},
			{
				"x": 1.793490385,
				"y": -3.1298745214,
				"z": -3.6982009445,
				"element": "C" 
			},
			{
				"x": 0.7248457253,
				"y": -2.3015606631,
				"z": -4.39158034,
				"element": "C" 
			},
			{
				"x": 0.3887181451,
				"y": -1.1644832979,
				"z": -3.592933678,
				"element": "O" 
			},
			{
				"x": 0.4255561158,
				"y": -2.9188112024,
				"z": -0.3455926616,
				"element": "C" 
			},
			{
				"x": -0.2261337264,
				"y": -1.9822060805,
				"z": 0.4511025402,
				"element": "C" 
			},
			{
				"x": 0.5756369708,
				"y": 1.6194535684,
				"z": 1.5761086556,
				"element": "C" 
			},
			{
				"x": 1.154215807,
				"y": 2.659714235,
				"z": 2.2545036644,
				"element": "C" 
			},
			{
				"x": 2.5617299643,
				"y": 2.5390861471,
				"z": 2.0445187592,
				"element": "C" 
			},
			{
				"x": 2.7392843473,
				"y": 1.4409534387,
				"z": 1.2570192278,
				"element": "C" 
			},
			{
				"x": 1.5382467716,
				"y": 0.8663047556,
				"z": 0.9616155825,
				"element": "O" 
			},
			{
				"x": -3.2217577612,
				"y": -1.1556742437,
				"z": -0.8530434386,
				"element": "H" 
			},
			{
				"x": -0.7634421281,
				"y": 0.4254960463,
				"z": -1.9120714847,
				"element": "H" 
			},
			{
				"x": 2.0547825676,
				"y": -4.0140278385,
				"z": -4.2844232369,
				"element": "H" 
			},
			{
				"x": 2.6956450766,
				"y": -2.5236818557,
				"z": -3.5414677027,
				"element": "H" 
			},
			{
				"x": -0.1711700215,
				"y": -2.9127085827,
				"z": -4.56427533,
				"element": "H" 
			},
			{
				"x": 1.0811109285,
				"y": -1.9123349622,
				"z": -5.348198772,
				"element": "H" 
			},
			{
				"x": 0.7739263432,
				"y": -3.8610925302,
				"z": 0.063742129,
				"element": "H" 
			},
			{
				"x": -0.4046364202,
				"y": -2.1770428644,
				"z": 1.5025829911,
				"element": "H" 
			},
			{
				"x": 0.6238908939,
				"y": 3.4062734201,
				"z": 2.8257897418,
				"element": "H" 
			},
			{
				"x": 3.3370826179,
				"y": 3.1859504537,
				"z": 2.4287673642,
				"element": "H" 
			},
			{
				"x": 3.6054970673,
				"y": 0.9547097312,
				"z": 0.8367219128,
				"element": "H" 
			}
		],
		 "valence_orbital": [ 
			{
				"type": "occ",
				"energy": -0.26208,
				"method": "rhf"
			},
			{
				"type": "occ",
				"energy": -0.25586,
				"method": "rhf"
			},
			{
				"type": "occ",
				"energy": -0.24926,
				"method": "rhf"
			},
			{
				"type": "occ",
				"energy": -0.22952,
				"method": "rhf"
			},
			{
				"type": "occ",
				"energy": -0.20443,
				"method": "rhf"
			},
			{
				"type": "unocc",
				"energy": -0.02848,
				"method": "rhf"
			},
			{
				"type": "unocc",
				"energy": -0.02354,
				"method": "rhf"
			},
			{
				"type": "unocc",
				"energy": -0.01378,
				"method": "rhf"
			},
			{
				"type": "unocc",
				"energy": 0.01792,
				"method": "rhf"
			},
			{
				"type": "unocc",
				"energy": 0.04155,
				"method": "rhf"
			}
		],
		"cosmo_sigma_profile": { 
			"-0.025": 0.0,
			"-0.024": 0.0,
			"-0.023": 0.0,
			"-0.022": 0.0,
			"-0.021": 0.0,
			"-0.02": 0.0,
			"-0.019": 0.0,
			"-0.018": 0.0,
			"-0.017": 0.0,
			"-0.016": 0.0,
			"-0.015": 0.0,
			"-0.014": 0.0,
			"-0.013": 0.0,
			"-0.012": 0.232119707969,
			"-0.011": 0.843205125889,
			"-0.01": 2.10850906941,
			"-0.009": 2.59946119935,
			"-0.008": 7.80310296527,
			"-0.007": 20.9786436195,
			"-0.006": 25.116076235,
			"-0.005": 22.8594776155,
			"-0.004": 20.1195264408,
			"-0.003": 15.6280219762,
			"-0.002": 16.0795824702,
			"-0.001": 15.5631865694,
			"0.0": 19.3439944633,
			"0.001": 21.6924134136,
			"0.002": 25.2930448509,
			"0.003": 23.3127068902,
			"0.004": 17.9378007474,
			"0.005": 11.0764978068,
			"0.006": 9.7138582255,
			"0.007": 7.31396008204,
			"0.008": 4.36823566498,
			"0.009": 5.34145760209,
			"0.01": 4.00561983278,
			"0.011": 2.4455817365,
			"0.012": 3.52946092599,
			"0.013": 3.15408165478,
			"0.014": 3.0145914841,
			"0.015": 1.93199633617,
			"0.016": 1.47605648552,
			"0.017": 0.0,
			"0.018": 0.0,
			"0.019": 0.0,
			"0.02": 0.0,
			"0.021": 0.0,
			"0.022": 0.0,
			"0.023": 0.0,
			"0.024": 0.0,
			"0.025": 0.0
		}
	}
}
