{
	 "smiles": "FC(F)(F)C1=CC(=CC(NC(=O)CCl)=C1)C(F)(F)F", 
	 "Tm": 359.65, 
	 "num_atms": 25, 
	 "gaussian": { 
		 "optdone": 1, 
		 "sigma_profile": "yes", 
		 "theory": "DFT", 
		 "functional": "B3LYP", 
		 "basiset": "6-31G**", 
		 "properties": { 
			 "R2extent": 6928.0686, 
			 "electric_dipole_moment_norm": 2.26341245468, 
			 "electric_quadrupole_moment_norm": 16.8827681054, 
			 "total_energy": -1573.9084912, 
			 "HOMO_LUMO_gap": 0.19768, 
			 "cosmo_polarized_energy": -16.11, 
			 "cosmo_cavitation_energy": 35.15, 
			 "cosmo_dispersion_energy": -23.9, 
			 "cosmo_repulsion_energy": 1.75, 
			 "cosmo_total_nonelectrostatic_energy": 13.0, 
			 "SMD_solvation_energy": 8.65 
		},
		"coords": [
			{
				"x": -1.6645657591,
				"y": -3.4508821884,
				"z": 1.1172562217,
				"element": "F" 
			},
			{
				"x": -1.0113838617,
				"y": -3.2835133055,
				"z": -0.0520561893,
				"element": "C" 
			},
			{
				"x": -0.0589333938,
				"y": -4.2392217916,
				"z": -0.116723583,
				"element": "F" 
			},
			{
				"x": -1.8850979682,
				"y": -3.5229499664,
				"z": -1.0509094291,
				"element": "F" 
			},
			{
				"x": -0.4071285464,
				"y": -1.9051437412,
				"z": -0.1620597303,
				"element": "C" 
			},
			{
				"x": -0.1977822177,
				"y": -1.3429394488,
				"z": -1.4222686702,
				"element": "C" 
			},
			{
				"x": 0.4160903741,
				"y": -0.0949309041,
				"z": -1.5071802892,
				"element": "C" 
			},
			{
				"x": 0.8204841105,
				"y": 0.587419623,
				"z": -0.3588628378,
				"element": "C" 
			},
			{
				"x": 0.5754520601,
				"y": 0.0377399073,
				"z": 0.9058661704,
				"element": "C" 
			},
			{
				"x": 0.9629953324,
				"y": 0.6772831487,
				"z": 2.1004959318,
				"element": "N" 
			},
			{
				"x": 0.8898448274,
				"y": 2.0000180256,
				"z": 2.5236277416,
				"element": "C" 
			},
			{
				"x": 1.2581301446,
				"y": 2.2956668179,
				"z": 3.6420701354,
				"element": "O" 
			},
			{
				"x": 0.3326139076,
				"y": 3.0175159627,
				"z": 1.5237991239,
				"element": "C" 
			},
			{
				"x": -0.3287985854,
				"y": 4.4616035582,
				"z": 2.3500208443,
				"element": "Cl" 
			},
			{
				"x": -0.0348643174,
				"y": -1.2228385872,
				"z": 0.9932111527,
				"element": "C" 
			},
			{
				"x": 0.7255274095,
				"y": 0.4942194145,
				"z": -2.8615667989,
				"element": "C" 
			},
			{
				"x": 1.9371424502,
				"y": 0.0944591778,
				"z": -3.3043623711,
				"element": "F" 
			},
			{
				"x": -0.1816680935,
				"y": 0.1190332721,
				"z": -3.7854999018,
				"element": "F" 
			},
			{
				"x": 0.7423657971,
				"y": 1.844469139,
				"z": -2.8236769106,
				"element": "F" 
			},
			{
				"x": -0.5146869118,
				"y": -1.8633128267,
				"z": -2.317605402,
				"element": "H" 
			},
			{
				"x": 1.3358772139,
				"y": 1.5338169344,
				"z": -0.459967969,
				"element": "H" 
			},
			{
				"x": 1.2414922773,
				"y": 0.073632412,
				"z": 2.865568317,
				"element": "H" 
			},
			{
				"x": -0.4605175401,
				"y": 2.5899378971,
				"z": 0.9097740471,
				"element": "H" 
			},
			{
				"x": 1.1344065825,
				"y": 3.3641671663,
				"z": 0.8672250658,
				"element": "H" 
			},
			{
				"x": -0.2369952922,
				"y": -1.6579496966,
				"z": 1.9662253308,
				"element": "H" 
			}
		],
		 "valence_orbital": [ 
			{
				"type": "occ",
				"energy": -0.31139,
				"method": "rhf"
			},
			{
				"type": "occ",
				"energy": -0.30879,
				"method": "rhf"
			},
			{
				"type": "occ",
				"energy": -0.3033,
				"method": "rhf"
			},
			{
				"type": "occ",
				"energy": -0.28585,
				"method": "rhf"
			},
			{
				"type": "occ",
				"energy": -0.26387,
				"method": "rhf"
			},
			{
				"type": "unocc",
				"energy": -0.06619,
				"method": "rhf"
			},
			{
				"type": "unocc",
				"energy": -0.05832,
				"method": "rhf"
			},
			{
				"type": "unocc",
				"energy": -0.01045,
				"method": "rhf"
			},
			{
				"type": "unocc",
				"energy": 0.02015,
				"method": "rhf"
			},
			{
				"type": "unocc",
				"energy": 0.06522,
				"method": "rhf"
			}
		],
		"cosmo_sigma_profile": { 
			"-0.025": 0.0,
			"-0.024": 0.0,
			"-0.023": 0.0,
			"-0.022": 0.0,
			"-0.021": 0.0,
			"-0.02": 0.0,
			"-0.019": 0.0,
			"-0.018": 0.0,
			"-0.017": 0.0,
			"-0.016": 0.244584087407,
			"-0.015": 1.33518220816,
			"-0.014": 1.361377712,
			"-0.013": 1.57051655904,
			"-0.012": 2.24530404652,
			"-0.011": 3.41209448385,
			"-0.01": 3.82120009924,
			"-0.009": 5.76296262965,
			"-0.008": 6.69666448477,
			"-0.007": 7.53656449296,
			"-0.006": 9.09766619824,
			"-0.005": 9.24873967823,
			"-0.004": 8.57588413527,
			"-0.003": 11.3488221125,
			"-0.002": 14.6777825335,
			"-0.001": 20.5392886661,
			"0.0": 28.9261566145,
			"0.001": 22.0999022948,
			"0.002": 48.6430230304,
			"0.003": 38.1729587161,
			"0.004": 5.40549709168,
			"0.005": 8.46222193831,
			"0.006": 5.46324926601,
			"0.007": 2.45586033702,
			"0.008": 1.69694064743,
			"0.009": 1.72722050616,
			"0.01": 2.49961477373,
			"0.011": 3.2400551518,
			"0.012": 5.39305401586,
			"0.013": 2.44482846407,
			"0.014": 0.324670925612,
			"0.015": 0.0,
			"0.016": 0.0,
			"0.017": 0.0,
			"0.018": 0.0,
			"0.019": 0.0,
			"0.02": 0.0,
			"0.021": 0.0,
			"0.022": 0.0,
			"0.023": 0.0,
			"0.024": 0.0,
			"0.025": 0.0
		}
	}
}
