{
	 "smiles": "ClC1=CC=C(SC2=C(C=O)N3C=CSC3=N2)C=C1", 
	 "Tm": 413.15, 
	 "num_atms": 25, 
	 "gaussian": { 
		 "optdone": 1, 
		 "sigma_profile": "yes", 
		 "theory": "DFT", 
		 "functional": "B3LYP", 
		 "basiset": "6-31G**", 
		 "properties": { 
			 "R2extent": 7254.0495, 
			 "electric_dipole_moment_norm": 6.10764727289, 
			 "electric_quadrupole_moment_norm": 19.7598453005, 
			 "total_energy": -1902.74397423, 
			 "HOMO_LUMO_gap": 0.15636, 
			 "cosmo_polarized_energy": -16.73, 
			 "cosmo_cavitation_energy": 35.68, 
			 "cosmo_dispersion_energy": -26.29, 
			 "cosmo_repulsion_energy": 1.92, 
			 "cosmo_total_nonelectrostatic_energy": 11.3, 
			 "SMD_solvation_energy": 4.42 
		},
		"coords": [
			{
				"x": -1.2062657486,
				"y": -0.441873299,
				"z": 5.6599198459,
				"element": "Cl" 
			},
			{
				"x": -1.1530626427,
				"y": -0.689018386,
				"z": 3.920028704,
				"element": "C" 
			},
			{
				"x": -2.2911705371,
				"y": -0.4341682618,
				"z": 3.1571599353,
				"element": "C" 
			},
			{
				"x": -2.2418338419,
				"y": -0.6224519523,
				"z": 1.7751991113,
				"element": "C" 
			},
			{
				"x": -1.0672997202,
				"y": -1.0803615394,
				"z": 1.1699235859,
				"element": "C" 
			},
			{
				"x": -1.0475427942,
				"y": -1.4297842693,
				"z": -0.5949331671,
				"element": "S" 
			},
			{
				"x": 0.0920188096,
				"y": -0.2155031592,
				"z": -1.1961822104,
				"element": "C" 
			},
			{
				"x": -0.0319813028,
				"y": 1.1859207616,
				"z": -1.1564021534,
				"element": "C" 
			},
			{
				"x": -1.0720311374,
				"y": 2.0836731909,
				"z": -0.7013013889,
				"element": "C" 
			},
			{
				"x": -2.1082768706,
				"y": 1.7478197082,
				"z": -0.1499383561,
				"element": "O" 
			},
			{
				"x": 1.1204291249,
				"y": 1.640498111,
				"z": -1.811455696,
				"element": "N" 
			},
			{
				"x": 1.7325942221,
				"y": 2.8421500512,
				"z": -2.1536394921,
				"element": "C" 
			},
			{
				"x": 2.8950759123,
				"y": 2.6466436385,
				"z": -2.8157926736,
				"element": "C" 
			},
			{
				"x": 3.2821671208,
				"y": 0.9432499856,
				"z": -3.0364458236,
				"element": "S" 
			},
			{
				"x": 1.8101100779,
				"y": 0.5196841472,
				"z": -2.1992704523,
				"element": "C" 
			},
			{
				"x": 1.2271975001,
				"y": -0.6118809571,
				"z": -1.8468647934,
				"element": "N" 
			},
			{
				"x": 0.0642815127,
				"y": -1.343592838,
				"z": 1.9527449323,
				"element": "C" 
			},
			{
				"x": 0.0298044573,
				"y": -1.1380642119,
				"z": 3.3306575599,
				"element": "C" 
			},
			{
				"x": -3.1981726323,
				"y": -0.0789721853,
				"z": 3.6334082703,
				"element": "H" 
			},
			{
				"x": -3.1065351085,
				"y": -0.3936449673,
				"z": 1.1644059366,
				"element": "H" 
			},
			{
				"x": -0.8670418542,
				"y": 3.1586517671,
				"z": -0.9088363268,
				"element": "H" 
			},
			{
				"x": 1.2790702821,
				"y": 3.7868240493,
				"z": -1.8917739658,
				"element": "H" 
			},
			{
				"x": 3.5618684541,
				"y": 3.4077128003,
				"z": -3.1925711415,
				"element": "H" 
			},
			{
				"x": 0.970390188,
				"y": -1.7139101242,
				"z": 1.4839695772,
				"element": "H" 
			},
			{
				"x": 0.9024065285,
				"y": -1.33720206,
				"z": 3.9428901826,
				"element": "H" 
			}
		],
		 "valence_orbital": [ 
			{
				"type": "occ",
				"energy": -0.26428,
				"method": "rhf"
			},
			{
				"type": "occ",
				"energy": -0.26086,
				"method": "rhf"
			},
			{
				"type": "occ",
				"energy": -0.24959,
				"method": "rhf"
			},
			{
				"type": "occ",
				"energy": -0.24513,
				"method": "rhf"
			},
			{
				"type": "occ",
				"energy": -0.22529,
				"method": "rhf"
			},
			{
				"type": "unocc",
				"energy": -0.06893,
				"method": "rhf"
			},
			{
				"type": "unocc",
				"energy": -0.0264,
				"method": "rhf"
			},
			{
				"type": "unocc",
				"energy": -0.02416,
				"method": "rhf"
			},
			{
				"type": "unocc",
				"energy": -0.01284,
				"method": "rhf"
			},
			{
				"type": "unocc",
				"energy": -0.01212,
				"method": "rhf"
			}
		],
		"cosmo_sigma_profile": { 
			"-0.025": 0.0,
			"-0.024": 0.0,
			"-0.023": 0.0,
			"-0.022": 0.0,
			"-0.021": 0.0,
			"-0.02": 0.0,
			"-0.019": 0.0,
			"-0.018": 0.0,
			"-0.017": 0.0,
			"-0.016": 0.0,
			"-0.015": 0.0,
			"-0.014": 0.0,
			"-0.013": 0.0,
			"-0.012": 0.233899196567,
			"-0.011": 4.72410869022,
			"-0.01": 5.52005927207,
			"-0.009": 4.50989206889,
			"-0.008": 7.11188770361,
			"-0.007": 10.2515501045,
			"-0.006": 12.330779812,
			"-0.005": 12.1893543654,
			"-0.004": 11.7489411577,
			"-0.003": 16.7736350682,
			"-0.002": 21.1652941698,
			"-0.001": 23.5501409494,
			"0.0": 27.5143063667,
			"0.001": 26.4543303773,
			"0.002": 27.9055521929,
			"0.003": 22.7430062722,
			"0.004": 17.5003715414,
			"0.005": 9.92582112947,
			"0.006": 5.62282765544,
			"0.007": 5.55525426676,
			"0.008": 4.34938789276,
			"0.009": 3.3866612931,
			"0.01": 4.44161309252,
			"0.011": 3.06430952102,
			"0.012": 2.71586580567,
			"0.013": 2.20233971871,
			"0.014": 0.958903752409,
			"0.015": 0.806396319406,
			"0.016": 0.0677676378304,
			"0.017": 0.0,
			"0.018": 0.0,
			"0.019": 0.0,
			"0.02": 0.0,
			"0.021": 0.0,
			"0.022": 0.0,
			"0.023": 0.0,
			"0.024": 0.0,
			"0.025": 0.0
		}
	}
}
