{
	 "smiles": "NN=C(C(=O)C1=C2C=CC=CC2=CC=C1)C1=CC=CC=C1", 
	 "Tm": 425.15, 
	 "num_atms": 35, 
	 "gaussian": { 
		 "optdone": 1, 
		 "sigma_profile": "yes", 
		 "theory": "DFT", 
		 "functional": "B3LYP", 
		 "basiset": "6-31G**", 
		 "properties": { 
			 "R2extent": 7248.067, 
			 "electric_dipole_moment_norm": 3.48518431507, 
			 "electric_quadrupole_moment_norm": 12.1669534864, 
			 "total_energy": -879.048807277, 
			 "HOMO_LUMO_gap": 0.15228, 
			 "cosmo_polarized_energy": -15.04, 
			 "cosmo_cavitation_energy": 39.05, 
			 "cosmo_dispersion_energy": -27.93, 
			 "cosmo_repulsion_energy": 2.13, 
			 "cosmo_total_nonelectrostatic_energy": 13.24, 
			 "SMD_solvation_energy": 6.44 
		},
		"coords": [
			{
				"x": 1.6188611845,
				"y": 2.4297628861,
				"z": 1.6485706053,
				"element": "N" 
			},
			{
				"x": 0.6869289426,
				"y": 1.5380094661,
				"z": 1.2651468371,
				"element": "N" 
			},
			{
				"x": 0.7633546187,
				"y": 0.9647458081,
				"z": 0.1016567129,
				"element": "C" 
			},
			{
				"x": -0.2890847938,
				"y": -0.0659271639,
				"z": -0.1914162478,
				"element": "C" 
			},
			{
				"x": -0.0580703126,
				"y": -0.9384174073,
				"z": -1.0251058157,
				"element": "O" 
			},
			{
				"x": -1.5990620647,
				"y": -0.0173930835,
				"z": 0.5413126918,
				"element": "C" 
			},
			{
				"x": -2.2681426981,
				"y": -1.2253889388,
				"z": 0.94799272,
				"element": "C" 
			},
			{
				"x": -1.7106307371,
				"y": -2.526787821,
				"z": 0.7999095326,
				"element": "C" 
			},
			{
				"x": -2.3855797952,
				"y": -3.6429731127,
				"z": 1.2434367727,
				"element": "C" 
			},
			{
				"x": -3.656193683,
				"y": -3.5287983841,
				"z": 1.8542568151,
				"element": "C" 
			},
			{
				"x": -4.2264116902,
				"y": -2.2877621735,
				"z": 2.0131003834,
				"element": "C" 
			},
			{
				"x": -3.5569750391,
				"y": -1.113883041,
				"z": 1.5726267097,
				"element": "C" 
			},
			{
				"x": -4.1493293766,
				"y": 0.1658887247,
				"z": 1.7395905812,
				"element": "C" 
			},
			{
				"x": -3.4964090693,
				"y": 1.3031956513,
				"z": 1.3273326493,
				"element": "C" 
			},
			{
				"x": -2.2165897848,
				"y": 1.2070237933,
				"z": 0.7409454252,
				"element": "C" 
			},
			{
				"x": 1.8529899,
				"y": 1.200428107,
				"z": -0.8924890277,
				"element": "C" 
			},
			{
				"x": 2.1168177086,
				"y": 2.5075273255,
				"z": -1.3404378946,
				"element": "C" 
			},
			{
				"x": 3.1281293967,
				"y": 2.753224145,
				"z": -2.2695337268,
				"element": "C" 
			},
			{
				"x": 3.8945717755,
				"y": 1.6967104647,
				"z": -2.763958986,
				"element": "C" 
			},
			{
				"x": 3.6410554241,
				"y": 0.394967383,
				"z": -2.3268223857,
				"element": "C" 
			},
			{
				"x": 2.6281425896,
				"y": 0.1446469121,
				"z": -1.4015041512,
				"element": "C" 
			},
			{
				"x": 2.5239637867,
				"y": 2.4103408995,
				"z": 1.1809463068,
				"element": "H" 
			},
			{
				"x": 1.6516157664,
				"y": 2.5309960192,
				"z": 2.6531293106,
				"element": "H" 
			},
			{
				"x": -0.7500537361,
				"y": -2.6333653344,
				"z": 0.3144645122,
				"element": "H" 
			},
			{
				"x": -1.9373095587,
				"y": -4.6245994372,
				"z": 1.1181654529,
				"element": "H" 
			},
			{
				"x": -4.1762209699,
				"y": -4.4194366268,
				"z": 2.1951784727,
				"element": "H" 
			},
			{
				"x": -5.2012236524,
				"y": -2.1828582914,
				"z": 2.482807708,
				"element": "H" 
			},
			{
				"x": -5.1322111392,
				"y": 0.228716775,
				"z": 2.2000613482,
				"element": "H" 
			},
			{
				"x": -3.9565667832,
				"y": 2.2788622136,
				"z": 1.4521228056,
				"element": "H" 
			},
			{
				"x": -1.7117690285,
				"y": 2.1129431418,
				"z": 0.427350792,
				"element": "H" 
			},
			{
				"x": 1.5168060161,
				"y": 3.3322619474,
				"z": -0.9662269844,
				"element": "H" 
			},
			{
				"x": 3.3123601937,
				"y": 3.7683994122,
				"z": -2.6094894865,
				"element": "H" 
			},
			{
				"x": 4.6823898815,
				"y": 1.886174402,
				"z": -3.4874778902,
				"element": "H" 
			},
			{
				"x": 4.2312604607,
				"y": -0.4319677205,
				"z": -2.711349266,
				"element": "H" 
			},
			{
				"x": 2.4201862671,
				"y": -0.8682669416,
				"z": -1.0808932828,
				"element": "H" 
			}
		],
		 "valence_orbital": [ 
			{
				"type": "occ",
				"energy": -0.25509,
				"method": "rhf"
			},
			{
				"type": "occ",
				"energy": -0.23924,
				"method": "rhf"
			},
			{
				"type": "occ",
				"energy": -0.23628,
				"method": "rhf"
			},
			{
				"type": "occ",
				"energy": -0.22946,
				"method": "rhf"
			},
			{
				"type": "occ",
				"energy": -0.21119,
				"method": "rhf"
			},
			{
				"type": "unocc",
				"energy": -0.05891,
				"method": "rhf"
			},
			{
				"type": "unocc",
				"energy": -0.03438,
				"method": "rhf"
			},
			{
				"type": "unocc",
				"energy": -0.00757,
				"method": "rhf"
			},
			{
				"type": "unocc",
				"energy": -0.00411,
				"method": "rhf"
			},
			{
				"type": "unocc",
				"energy": -0.00324,
				"method": "rhf"
			}
		],
		"cosmo_sigma_profile": { 
			"-0.025": 0.0,
			"-0.024": 0.0,
			"-0.023": 0.0,
			"-0.022": 0.0,
			"-0.021": 0.0,
			"-0.02": 0.0,
			"-0.019": 0.0,
			"-0.018": 0.0,
			"-0.017": 0.0,
			"-0.016": 0.0,
			"-0.015": 0.0881597904847,
			"-0.014": 1.21770405318,
			"-0.013": 1.67874880526,
			"-0.012": 1.84213009387,
			"-0.011": 2.64803209439,
			"-0.01": 1.92821076938,
			"-0.009": 1.92123147214,
			"-0.008": 1.54727920308,
			"-0.007": 3.17632589842,
			"-0.006": 17.6940879792,
			"-0.005": 22.1028155863,
			"-0.004": 27.4339439323,
			"-0.003": 24.0316655177,
			"-0.002": 20.7146099712,
			"-0.001": 21.0949176043,
			"0.0": 17.3707095022,
			"0.001": 19.55567068,
			"0.002": 19.5332812429,
			"0.003": 26.7167306076,
			"0.004": 29.1973542488,
			"0.005": 21.5570495025,
			"0.006": 7.79956278333,
			"0.007": 4.01651623605,
			"0.008": 4.25216405079,
			"0.009": 2.85754780422,
			"0.01": 3.56187799567,
			"0.011": 3.5786528811,
			"0.012": 3.69380467727,
			"0.013": 0.599483308362,
			"0.014": 0.0,
			"0.015": 0.0,
			"0.016": 0.0,
			"0.017": 0.0,
			"0.018": 0.0,
			"0.019": 0.0,
			"0.02": 0.0,
			"0.021": 0.0,
			"0.022": 0.0,
			"0.023": 0.0,
			"0.024": 0.0,
			"0.025": 0.0
		}
	}
}
