{
	 "smiles": "NNC(=O)CNC1=CC(=CC=C1)C(F)(F)F", 
	 "Tm": 354.15, 
	 "num_atms": 26, 
	 "gaussian": { 
		 "optdone": 1, 
		 "sigma_profile": "yes", 
		 "theory": "DFT", 
		 "functional": "B3LYP", 
		 "basiset": "6-31G**", 
		 "properties": { 
			 "R2extent": 6181.1079, 
			 "electric_dipole_moment_norm": 3.70474032018, 
			 "electric_quadrupole_moment_norm": 19.8306706455, 
			 "total_energy": -887.964949755, 
			 "HOMO_LUMO_gap": 0.19692, 
			 "cosmo_polarized_energy": -17.7, 
			 "cosmo_cavitation_energy": 31.57, 
			 "cosmo_dispersion_energy": -22.2, 
			 "cosmo_repulsion_energy": 1.68, 
			 "cosmo_total_nonelectrostatic_energy": 11.06, 
			 "SMD_solvation_energy": 7.5 
		},
		"coords": [
			{
				"x": 1.1805703329,
				"y": 1.4927468181,
				"z": 1.7560570054,
				"element": "N" 
			},
			{
				"x": 0.0343960758,
				"y": 2.1489265315,
				"z": 1.2732630758,
				"element": "N" 
			},
			{
				"x": -0.4515934392,
				"y": 2.133697449,
				"z": -0.0035744837,
				"element": "C" 
			},
			{
				"x": -1.5250633652,
				"y": 2.6520161483,
				"z": -0.28766957,
				"element": "O" 
			},
			{
				"x": 0.4215442121,
				"y": 1.4500791196,
				"z": -1.0705330453,
				"element": "C" 
			},
			{
				"x": 0.6240042466,
				"y": 0.0203182883,
				"z": -0.8372442522,
				"element": "N" 
			},
			{
				"x": -0.3691624927,
				"y": -0.9102578878,
				"z": -1.1959821368,
				"element": "C" 
			},
			{
				"x": -0.0050918652,
				"y": -2.2598968698,
				"z": -1.3368543509,
				"element": "C" 
			},
			{
				"x": -0.961033644,
				"y": -3.2163612823,
				"z": -1.6657709065,
				"element": "C" 
			},
			{
				"x": -2.2984641785,
				"y": -2.8555997857,
				"z": -1.8587523753,
				"element": "C" 
			},
			{
				"x": -2.6566853446,
				"y": -1.5177389818,
				"z": -1.7160958427,
				"element": "C" 
			},
			{
				"x": -1.711675943,
				"y": -0.5438107735,
				"z": -1.3887699508,
				"element": "C" 
			},
			{
				"x": -0.5611052044,
				"y": -4.6641936789,
				"z": -1.7581767452,
				"element": "C" 
			},
			{
				"x": -0.7737227918,
				"y": -5.3165678727,
				"z": -0.5910493796,
				"element": "F" 
			},
			{
				"x": -1.2665144532,
				"y": -5.3211509567,
				"z": -2.7053228865,
				"element": "F" 
			},
			{
				"x": 0.7509549785,
				"y": -4.8129295558,
				"z": -2.0547982479,
				"element": "F" 
			},
			{
				"x": 2.0147089848,
				"y": 1.9986908373,
				"z": 1.4652761336,
				"element": "H" 
			},
			{
				"x": 1.2100186864,
				"y": 0.5559538964,
				"z": 1.3585940417,
				"element": "H" 
			},
			{
				"x": -0.5943442944,
				"y": 2.5092652711,
				"z": 1.9799993779,
				"element": "H" 
			},
			{
				"x": 1.4084617266,
				"y": 1.9248533226,
				"z": -1.0745719728,
				"element": "H" 
			},
			{
				"x": -0.0613447879,
				"y": 1.659338914,
				"z": -2.0326321374,
				"element": "H" 
			},
			{
				"x": 1.5477624663,
				"y": -0.2911538366,
				"z": -1.1077987083,
				"element": "H" 
			},
			{
				"x": 1.0287594475,
				"y": -2.5610924123,
				"z": -1.1965226613,
				"element": "H" 
			},
			{
				"x": -3.0342318905,
				"y": -3.6064310009,
				"z": -2.1229530686,
				"element": "H" 
			},
			{
				"x": -3.6894989635,
				"y": -1.2178390747,
				"z": -1.8662057244,
				"element": "H" 
			},
			{
				"x": -2.0225484992,
				"y": 0.4893373731,
				"z": -1.2799111883,
				"element": "H" 
			}
		],
		 "valence_orbital": [ 
			{
				"type": "occ",
				"energy": -0.29849,
				"method": "rhf"
			},
			{
				"type": "occ",
				"energy": -0.26505,
				"method": "rhf"
			},
			{
				"type": "occ",
				"energy": -0.26364,
				"method": "rhf"
			},
			{
				"type": "occ",
				"energy": -0.25652,
				"method": "rhf"
			},
			{
				"type": "occ",
				"energy": -0.22017,
				"method": "rhf"
			},
			{
				"type": "unocc",
				"energy": -0.02325,
				"method": "rhf"
			},
			{
				"type": "unocc",
				"energy": -0.00532,
				"method": "rhf"
			},
			{
				"type": "unocc",
				"energy": 0.00263,
				"method": "rhf"
			},
			{
				"type": "unocc",
				"energy": 0.05402,
				"method": "rhf"
			},
			{
				"type": "unocc",
				"energy": 0.08924,
				"method": "rhf"
			}
		],
		"cosmo_sigma_profile": { 
			"-0.025": 0.0,
			"-0.024": 0.0,
			"-0.023": 0.0,
			"-0.022": 0.0,
			"-0.021": 0.0,
			"-0.02": 0.0,
			"-0.019": 0.0,
			"-0.018": 0.0,
			"-0.017": 0.0,
			"-0.016": 0.0,
			"-0.015": 0.0,
			"-0.014": 0.747910654548,
			"-0.013": 2.86112072502,
			"-0.012": 3.30147375122,
			"-0.011": 4.49381868005,
			"-0.01": 5.53232971762,
			"-0.009": 5.79026755908,
			"-0.008": 6.63062960018,
			"-0.007": 6.88428846615,
			"-0.006": 8.87021389894,
			"-0.005": 9.40378004219,
			"-0.004": 12.7580664413,
			"-0.003": 14.0514343576,
			"-0.002": 10.8740985842,
			"-0.001": 11.5937234067,
			"0.0": 14.2922530046,
			"0.001": 16.9706778702,
			"0.002": 23.7837480543,
			"0.003": 42.88175317,
			"0.004": 17.5023560858,
			"0.005": 7.44401580546,
			"0.006": 1.82575588031,
			"0.007": 1.23800016064,
			"0.008": 1.30312220097,
			"0.009": 2.5826989776,
			"0.01": 1.95474151071,
			"0.011": 2.04160526223,
			"0.012": 2.79893326666,
			"0.013": 4.74235724329,
			"0.014": 3.87205306718,
			"0.015": 1.00604359666,
			"0.016": 0.481618845113,
			"0.017": 0.0393703316018,
			"0.018": 0.0,
			"0.019": 0.0,
			"0.02": 0.0,
			"0.021": 0.0,
			"0.022": 0.0,
			"0.023": 0.0,
			"0.024": 0.0,
			"0.025": 0.0
		}
	}
}
