{
	 "smiles": "CC(C)(C)OC(=O)NC1=C2OCOC2=CC=C1", 
	 "Tm": 363.15, 
	 "num_atms": 32, 
	 "gaussian": { 
		 "optdone": 1, 
		 "sigma_profile": "yes", 
		 "theory": "DFT", 
		 "functional": "B3LYP", 
		 "basiset": "6-31G**", 
		 "properties": { 
			 "R2extent": 5600.9396, 
			 "electric_dipole_moment_norm": 1.21868789688, 
			 "electric_quadrupole_moment_norm": 15.9074477129, 
			 "total_energy": -821.973849062, 
			 "HOMO_LUMO_gap": 0.20399, 
			 "cosmo_polarized_energy": -10.1, 
			 "cosmo_cavitation_energy": 34.81, 
			 "cosmo_dispersion_energy": -25.09, 
			 "cosmo_repulsion_energy": 1.94, 
			 "cosmo_total_nonelectrostatic_energy": 11.66, 
			 "SMD_solvation_energy": 7.59 
		},
		"coords": [
			{
				"x": 2.9778190527,
				"y": -1.4370211556,
				"z": 1.115407555,
				"element": "C" 
			},
			{
				"x": 2.2192658409,
				"y": -1.2617503905,
				"z": -0.2037767326,
				"element": "C" 
			},
			{
				"x": 3.0186281293,
				"y": -0.3944569998,
				"z": -1.1793710191,
				"element": "C" 
			},
			{
				"x": 1.8460516064,
				"y": -2.6009912949,
				"z": -0.8468106563,
				"element": "C" 
			},
			{
				"x": 1.002165025,
				"y": -0.453938924,
				"z": 0.0191299705,
				"element": "O" 
			},
			{
				"x": 0.0301880779,
				"y": -0.893380166,
				"z": 0.8396124853,
				"element": "C" 
			},
			{
				"x": 0.0254527083,
				"y": -1.9421718895,
				"z": 1.462941247,
				"element": "O" 
			},
			{
				"x": -1.0278809648,
				"y": -0.0115994689,
				"z": 0.9281925015,
				"element": "N" 
			},
			{
				"x": -1.2977173646,
				"y": 1.2381540822,
				"z": 0.3458578512,
				"element": "C" 
			},
			{
				"x": -2.505508491,
				"y": 1.8386488003,
				"z": 0.6846242526,
				"element": "C" 
			},
			{
				"x": -3.4643683342,
				"y": 1.3276306294,
				"z": 1.5358664346,
				"element": "O" 
			},
			{
				"x": -4.5151400473,
				"y": 2.3053397036,
				"z": 1.5626265222,
				"element": "C" 
			},
			{
				"x": -4.139592919,
				"y": 3.3900048593,
				"z": 0.7075765495,
				"element": "O" 
			},
			{
				"x": -2.9051884913,
				"y": 3.067550479,
				"z": 0.1895910127,
				"element": "C" 
			},
			{
				"x": -2.121858224,
				"y": 3.794738478,
				"z": -0.6883325015,
				"element": "C" 
			},
			{
				"x": -0.8971385944,
				"y": 3.2047557652,
				"z": -1.0430200549,
				"element": "C" 
			},
			{
				"x": -0.4839064969,
				"y": 1.9661639642,
				"z": -0.5499308816,
				"element": "C" 
			},
			{
				"x": 2.4041787447,
				"y": -2.0390728625,
				"z": 1.8200715752,
				"element": "H" 
			},
			{
				"x": 3.1859977649,
				"y": -0.4618048767,
				"z": 1.5667248726,
				"element": "H" 
			},
			{
				"x": 3.9346270839,
				"y": -1.9329442221,
				"z": 0.9224304937,
				"element": "H" 
			},
			{
				"x": 2.4570560075,
				"y": -0.2326975792,
				"z": -2.1042020228,
				"element": "H" 
			},
			{
				"x": 3.2469105484,
				"y": 0.5790391089,
				"z": -0.7354760826,
				"element": "H" 
			},
			{
				"x": 3.9619069573,
				"y": -0.8881040011,
				"z": -1.4309208462,
				"element": "H" 
			},
			{
				"x": 1.2671133287,
				"y": -2.4356677996,
				"z": -1.7609034068,
				"element": "H" 
			},
			{
				"x": 2.7586028251,
				"y": -3.1425801839,
				"z": -1.1162335412,
				"element": "H" 
			},
			{
				"x": 1.2607139567,
				"y": -3.214620036,
				"z": -0.1620492707,
				"element": "H" 
			},
			{
				"x": -1.7450814457,
				"y": -0.3624540973,
				"z": 1.5485404535,
				"element": "H" 
			},
			{
				"x": -4.6436689492,
				"y": 2.6732921206,
				"z": 2.5882743853,
				"element": "H" 
			},
			{
				"x": -5.4437784991,
				"y": 1.8515492486,
				"z": 1.1944509889,
				"element": "H" 
			},
			{
				"x": -2.4371452419,
				"y": 4.7565413681,
				"z": -1.074405307,
				"element": "H" 
			},
			{
				"x": -0.2412960444,
				"y": 3.7312784943,
				"z": -1.7294823038,
				"element": "H" 
			},
			{
				"x": 0.46639245,
				"y": 1.5526688461,
				"z": -0.8511045241,
				"element": "H" 
			}
		],
		 "valence_orbital": [ 
			{
				"type": "occ",
				"energy": -0.30036,
				"method": "rhf"
			},
			{
				"type": "occ",
				"energy": -0.29126,
				"method": "rhf"
			},
			{
				"type": "occ",
				"energy": -0.2695,
				"method": "rhf"
			},
			{
				"type": "occ",
				"energy": -0.21714,
				"method": "rhf"
			},
			{
				"type": "occ",
				"energy": -0.20471,
				"method": "rhf"
			},
			{
				"type": "unocc",
				"energy": -0.00072,
				"method": "rhf"
			},
			{
				"type": "unocc",
				"energy": 0.01293,
				"method": "rhf"
			},
			{
				"type": "unocc",
				"energy": 0.06588,
				"method": "rhf"
			},
			{
				"type": "unocc",
				"energy": 0.08053,
				"method": "rhf"
			},
			{
				"type": "unocc",
				"energy": 0.08178,
				"method": "rhf"
			}
		],
		"cosmo_sigma_profile": { 
			"-0.025": 0.0,
			"-0.024": 0.0,
			"-0.023": 0.0,
			"-0.022": 0.0,
			"-0.021": 0.0,
			"-0.02": 0.0,
			"-0.019": 0.0,
			"-0.018": 0.0,
			"-0.017": 0.0,
			"-0.016": 0.0,
			"-0.015": 0.0,
			"-0.014": 0.0,
			"-0.013": 0.0796922341282,
			"-0.012": 0.499781921221,
			"-0.011": 0.44653157334,
			"-0.01": 1.00181774798,
			"-0.009": 0.774091708153,
			"-0.008": 2.62963115476,
			"-0.007": 8.89919738074,
			"-0.006": 9.56411466855,
			"-0.005": 11.1702208206,
			"-0.004": 20.2312016121,
			"-0.003": 23.8269213386,
			"-0.002": 24.4058174796,
			"-0.001": 27.3651975572,
			"0.0": 34.3922560422,
			"0.001": 25.4915232693,
			"0.002": 17.2238076112,
			"0.003": 16.318158735,
			"0.004": 13.0535120809,
			"0.005": 11.3709708351,
			"0.006": 7.02804202192,
			"0.007": 3.47015990798,
			"0.008": 3.07594049559,
			"0.009": 3.42459255426,
			"0.01": 1.74194827585,
			"0.011": 1.93389128136,
			"0.012": 2.37736637272,
			"0.013": 3.12153267553,
			"0.014": 0.283689837103,
			"0.015": 0.0,
			"0.016": 0.0,
			"0.017": 0.0,
			"0.018": 0.0,
			"0.019": 0.0,
			"0.02": 0.0,
			"0.021": 0.0,
			"0.022": 0.0,
			"0.023": 0.0,
			"0.024": 0.0,
			"0.025": 0.0
		}
	}
}
