{
	 "smiles": "C(CCP(C1=CC=CC=C1)C1=CC=CC=C1)CP(C1=CC=CC=C1)C1=CC=CC=C1", 
	 "Tm": 407.15, 
	 "num_atms": 58, 
	 "gaussian": { 
		 "optdone": 1, 
		 "sigma_profile": "yes", 
		 "theory": "DFT", 
		 "functional": "B3LYP", 
		 "basiset": "6-31G**", 
		 "properties": { 
			 "R2extent": 16234.257, 
			 "electric_dipole_moment_norm": 2.43848582731, 
			 "electric_quadrupole_moment_norm": 19.9114905675, 
			 "total_energy": -1766.55865268, 
			 "HOMO_LUMO_gap": 0.18361, 
			 "cosmo_polarized_energy": -12.76, 
			 "cosmo_cavitation_energy": 63.37, 
			 "cosmo_dispersion_energy": -39.63, 
			 "cosmo_repulsion_energy": 3.17, 
			 "cosmo_total_nonelectrostatic_energy": 26.91, 
			 "SMD_solvation_energy": 9.54 
		},
		"coords": [
			{
				"x": -1.6342467479,
				"y": 1.1659473907,
				"z": 2.8964359491,
				"element": "C" 
			},
			{
				"x": -0.8084186807,
				"y": 2.1477691679,
				"z": 2.0489542317,
				"element": "C" 
			},
			{
				"x": 0.6622908726,
				"y": 1.7226834312,
				"z": 1.8781412064,
				"element": "C" 
			},
			{
				"x": 0.9340810787,
				"y": 0.1739948947,
				"z": 0.8484804045,
				"element": "P" 
			},
			{
				"x": 0.863278018,
				"y": 0.791137811,
				"z": -0.8979908533,
				"element": "C" 
			},
			{
				"x": 0.8628442495,
				"y": -0.1871298511,
				"z": -1.9091593249,
				"element": "C" 
			},
			{
				"x": 0.802676036,
				"y": 0.1679582778,
				"z": -3.256201881,
				"element": "C" 
			},
			{
				"x": 0.7210723707,
				"y": 1.514468538,
				"z": -3.6217407122,
				"element": "C" 
			},
			{
				"x": 0.7037853849,
				"y": 2.4961215967,
				"z": -2.6309228411,
				"element": "C" 
			},
			{
				"x": 0.7765657909,
				"y": 2.1378861613,
				"z": -1.281936378,
				"element": "C" 
			},
			{
				"x": 2.7624021114,
				"y": -0.0282294858,
				"z": 1.1065046811,
				"element": "C" 
			},
			{
				"x": 3.178815562,
				"y": -0.9934556624,
				"z": 2.0371716321,
				"element": "C" 
			},
			{
				"x": 4.5337970301,
				"y": -1.1824587886,
				"z": 2.3160630996,
				"element": "C" 
			},
			{
				"x": 5.4955672938,
				"y": -0.4172609051,
				"z": 1.6549119124,
				"element": "C" 
			},
			{
				"x": 5.0956541611,
				"y": 0.5379064687,
				"z": 0.7173471851,
				"element": "C" 
			},
			{
				"x": 3.7405977017,
				"y": 0.7322431333,
				"z": 0.446548603,
				"element": "C" 
			},
			{
				"x": -3.0547495452,
				"y": 1.6675931581,
				"z": 3.2425498451,
				"element": "C" 
			},
			{
				"x": -4.5572286296,
				"y": 1.1968805611,
				"z": 2.2125697387,
				"element": "P" 
			},
			{
				"x": -4.5247265027,
				"y": -0.6520806729,
				"z": 2.2251819866,
				"element": "C" 
			},
			{
				"x": -5.2547089479,
				"y": -1.3512643898,
				"z": 1.2455158879,
				"element": "C" 
			},
			{
				"x": -5.3709048581,
				"y": -2.7394247684,
				"z": 1.287854117,
				"element": "C" 
			},
			{
				"x": -4.7708978021,
				"y": -3.4652666051,
				"z": 2.3197613907,
				"element": "C" 
			},
			{
				"x": -4.0563233096,
				"y": -2.7870347805,
				"z": 3.3063777281,
				"element": "C" 
			},
			{
				"x": -3.9348935401,
				"y": -1.3960948164,
				"z": 3.2602247313,
				"element": "C" 
			},
			{
				"x": -4.0523035018,
				"y": 1.6076376629,
				"z": 0.4772075856,
				"element": "C" 
			},
			{
				"x": -3.2430733256,
				"y": 0.8002579747,
				"z": -0.3403541484,
				"element": "C" 
			},
			{
				"x": -2.9027421346,
				"y": 1.2081437659,
				"z": -1.6308779392,
				"element": "C" 
			},
			{
				"x": -3.3658739569,
				"y": 2.4294011819,
				"z": -2.126938271,
				"element": "C" 
			},
			{
				"x": -4.176825131,
				"y": 3.2382761883,
				"z": -1.3300940237,
				"element": "C" 
			},
			{
				"x": -4.5217808298,
				"y": 2.825701204,
				"z": -0.0415383602,
				"element": "C" 
			},
			{
				"x": -1.0913872168,
				"y": 0.9963130465,
				"z": 3.8372585937,
				"element": "H" 
			},
			{
				"x": -1.6774509341,
				"y": 0.1902872055,
				"z": 2.401385565,
				"element": "H" 
			},
			{
				"x": -0.8205287676,
				"y": 3.1299556183,
				"z": 2.5420324477,
				"element": "H" 
			},
			{
				"x": -1.2815212762,
				"y": 2.2916276012,
				"z": 1.0717427603,
				"element": "H" 
			},
			{
				"x": 1.2652105237,
				"y": 2.5503319168,
				"z": 1.4862967246,
				"element": "H" 
			},
			{
				"x": 1.089309756,
				"y": 1.4805835368,
				"z": 2.8594700127,
				"element": "H" 
			},
			{
				"x": 0.9096991421,
				"y": -1.238124055,
				"z": -1.6340570825,
				"element": "H" 
			},
			{
				"x": 0.8132271005,
				"y": -0.6049768195,
				"z": -4.019794628,
				"element": "H" 
			},
			{
				"x": 0.6672140499,
				"y": 1.7941826305,
				"z": -4.670092075,
				"element": "H" 
			},
			{
				"x": 0.6346818131,
				"y": 3.545372269,
				"z": -2.9048519742,
				"element": "H" 
			},
			{
				"x": 0.7588683133,
				"y": 2.9223595759,
				"z": -0.5324555319,
				"element": "H" 
			},
			{
				"x": 2.4345937357,
				"y": -1.6047876389,
				"z": 2.5417882967,
				"element": "H" 
			},
			{
				"x": 4.8373372863,
				"y": -1.9329683104,
				"z": 3.0407954968,
				"element": "H" 
			},
			{
				"x": 6.5510505494,
				"y": -0.5680000104,
				"z": 1.8636209192,
				"element": "H" 
			},
			{
				"x": 5.8405903496,
				"y": 1.1327832963,
				"z": 0.1956008579,
				"element": "H" 
			},
			{
				"x": 3.4422817654,
				"y": 1.4735839643,
				"z": -0.2889801195,
				"element": "H" 
			},
			{
				"x": -3.0724435238,
				"y": 2.7642662365,
				"z": 3.2701344472,
				"element": "H" 
			},
			{
				"x": -3.3284718214,
				"y": 1.3601977801,
				"z": 4.2592478268,
				"element": "H" 
			},
			{
				"x": -5.7320618213,
				"y": -0.8031205244,
				"z": 0.4378383079,
				"element": "H" 
			},
			{
				"x": -5.9339584223,
				"y": -3.2550355877,
				"z": 0.5146145943,
				"element": "H" 
			},
			{
				"x": -4.8624760208,
				"y": -4.5470235985,
				"z": 2.3545066743,
				"element": "H" 
			},
			{
				"x": -3.5852975061,
				"y": -3.3390752259,
				"z": 4.1152036151,
				"element": "H" 
			},
			{
				"x": -3.3721045501,
				"y": -0.8965625921,
				"z": 4.0421373911,
				"element": "H" 
			},
			{
				"x": -2.8802703422,
				"y": -0.1530524794,
				"z": 0.0307987339,
				"element": "H" 
			},
			{
				"x": -2.2639239991,
				"y": 0.5793038276,
				"z": -2.2437778493,
				"element": "H" 
			},
			{
				"x": -3.0968394253,
				"y": 2.7446570245,
				"z": -3.1310612214,
				"element": "H" 
			},
			{
				"x": -4.5493218369,
				"y": 4.1847088316,
				"z": -1.7126069877,
				"element": "H" 
			},
			{
				"x": -5.1697371384,
				"y": 3.4503046387,
				"z": 0.5685570212,
				"element": "H" 
			}
		],
		 "valence_orbital": [ 
			{
				"type": "occ",
				"energy": -0.24842,
				"method": "rhf"
			},
			{
				"type": "occ",
				"energy": -0.24583,
				"method": "rhf"
			},
			{
				"type": "occ",
				"energy": -0.2433,
				"method": "rhf"
			},
			{
				"type": "occ",
				"energy": -0.21492,
				"method": "rhf"
			},
			{
				"type": "occ",
				"energy": -0.20371,
				"method": "rhf"
			},
			{
				"type": "unocc",
				"energy": -0.0201,
				"method": "rhf"
			},
			{
				"type": "unocc",
				"energy": -0.01328,
				"method": "rhf"
			},
			{
				"type": "unocc",
				"energy": -0.00782,
				"method": "rhf"
			},
			{
				"type": "unocc",
				"energy": -0.00615,
				"method": "rhf"
			},
			{
				"type": "unocc",
				"energy": -0.00467,
				"method": "rhf"
			}
		],
		"cosmo_sigma_profile": { 
			"-0.025": 0.0,
			"-0.024": 0.0,
			"-0.023": 0.0,
			"-0.022": 0.0,
			"-0.021": 0.0,
			"-0.02": 0.0,
			"-0.019": 0.0,
			"-0.018": 0.0,
			"-0.017": 0.0,
			"-0.016": 0.0,
			"-0.015": 0.0,
			"-0.014": 0.0,
			"-0.013": 0.0,
			"-0.012": 0.0,
			"-0.011": 0.0,
			"-0.01": 0.0,
			"-0.009": 0.0,
			"-0.008": 0.0,
			"-0.007": 0.00146741780063,
			"-0.006": 12.6705186845,
			"-0.005": 35.869599726,
			"-0.004": 46.5929709172,
			"-0.003": 53.6601811146,
			"-0.002": 49.2950483723,
			"-0.001": 44.4372525062,
			"0.0": 46.7375425049,
			"0.001": 46.3691884054,
			"0.002": 40.9296209981,
			"0.003": 34.7087845992,
			"0.004": 32.9432475749,
			"0.005": 31.6051844752,
			"0.006": 18.46763732,
			"0.007": 1.29028792998,
			"0.008": 1.36551758859,
			"0.009": 2.1216002682,
			"0.01": 1.20328257244,
			"0.011": 1.22002943667,
			"0.012": 1.35070027296,
			"0.013": 1.02400808293,
			"0.014": 1.02148870299,
			"0.015": 0.200857480828,
			"0.016": 0.0,
			"0.017": 0.0,
			"0.018": 0.0,
			"0.019": 0.0,
			"0.02": 0.0,
			"0.021": 0.0,
			"0.022": 0.0,
			"0.023": 0.0,
			"0.024": 0.0,
			"0.025": 0.0
		}
	}
}
