{
	 "smiles": "O=CC1=C(CCCC1)SC1=NC2=C(O1)C=CC=C2", 
	 "Tm": 367.15, 
	 "num_atms": 31, 
	 "gaussian": { 
		 "optdone": 1, 
		 "sigma_profile": "yes", 
		 "theory": "DFT", 
		 "functional": "B3LYP", 
		 "basiset": "6-31G**", 
		 "properties": { 
			 "R2extent": 6381.7337, 
			 "electric_dipole_moment_norm": 3.99766335376, 
			 "electric_quadrupole_moment_norm": 22.5545935738, 
			 "total_energy": -1144.68601073, 
			 "HOMO_LUMO_gap": 0.16272, 
			 "cosmo_polarized_energy": -11.33, 
			 "cosmo_cavitation_energy": 35.54, 
			 "cosmo_dispersion_energy": -26.67, 
			 "cosmo_repulsion_energy": 2.01, 
			 "cosmo_total_nonelectrostatic_energy": 10.89, 
			 "SMD_solvation_energy": 4.76 
		},
		"coords": [
			{
				"x": 2.8465609224,
				"y": 2.0528543205,
				"z": -2.7065959932,
				"element": "O" 
			},
			{
				"x": 2.678117531,
				"y": 2.8410375288,
				"z": -1.7842400866,
				"element": "C" 
			},
			{
				"x": 1.8698002176,
				"y": 2.5828749987,
				"z": -0.5916069838,
				"element": "C" 
			},
			{
				"x": 1.2438151696,
				"y": 1.3875303435,
				"z": -0.3911732341,
				"element": "C" 
			},
			{
				"x": 0.4100376758,
				"y": 1.1127565938,
				"z": 0.8410891599,
				"element": "C" 
			},
			{
				"x": 0.5633470203,
				"y": 2.1766819038,
				"z": 1.9381640367,
				"element": "C" 
			},
			{
				"x": 0.5740219273,
				"y": 3.5880440334,
				"z": 1.35126102,
				"element": "C" 
			},
			{
				"x": 1.7620001534,
				"y": 3.7321606616,
				"z": 0.3984400699,
				"element": "C" 
			},
			{
				"x": 1.3658976936,
				"y": 0.127729767,
				"z": -1.6608060981,
				"element": "S" 
			},
			{
				"x": 0.4774244918,
				"y": -1.2398833408,
				"z": -0.9590711216,
				"element": "C" 
			},
			{
				"x": 0.6881791744,
				"y": -1.916753475,
				"z": 0.1267201614,
				"element": "N" 
			},
			{
				"x": -0.2284957169,
				"y": -2.9671287539,
				"z": 0.0665621796,
				"element": "C" 
			},
			{
				"x": -0.949315073,
				"y": -2.8656315472,
				"z": -1.13121879,
				"element": "C" 
			},
			{
				"x": -0.4995967628,
				"y": -1.7490765129,
				"z": -1.7903711386,
				"element": "O" 
			},
			{
				"x": -1.932008534,
				"y": -3.7644650178,
				"z": -1.5209307488,
				"element": "C" 
			},
			{
				"x": -2.1809467295,
				"y": -4.8092841045,
				"z": -0.6283282524,
				"element": "C" 
			},
			{
				"x": -1.4720368189,
				"y": -4.933540754,
				"z": 0.5822894218,
				"element": "C" 
			},
			{
				"x": -0.4867197491,
				"y": -4.0192296476,
				"z": 0.9507245877,
				"element": "C" 
			},
			{
				"x": 3.1556195638,
				"y": 3.8438833275,
				"z": -1.8180038692,
				"element": "H" 
			},
			{
				"x": 0.6650249789,
				"y": 0.1283826496,
				"z": 1.2396740702,
				"element": "H" 
			},
			{
				"x": -0.6414088615,
				"y": 1.04291365,
				"z": 0.5251090852,
				"element": "H" 
			},
			{
				"x": -0.246785115,
				"y": 2.0544453777,
				"z": 2.6652316781,
				"element": "H" 
			},
			{
				"x": 1.5016016133,
				"y": 2.0048840246,
				"z": 2.481302297,
				"element": "H" 
			},
			{
				"x": 0.632160472,
				"y": 4.3419772815,
				"z": 2.1437746716,
				"element": "H" 
			},
			{
				"x": -0.3616202883,
				"y": 3.7679103752,
				"z": 0.8055263692,
				"element": "H" 
			},
			{
				"x": 1.6926713995,
				"y": 4.6747237496,
				"z": -0.1594704819,
				"element": "H" 
			},
			{
				"x": 2.6923244258,
				"y": 3.7994710958,
				"z": 0.9823348769,
				"element": "H" 
			},
			{
				"x": -2.4705519191,
				"y": -3.6588279576,
				"z": -2.4558397646,
				"element": "H" 
			},
			{
				"x": -2.9404962791,
				"y": -5.5447687778,
				"z": -0.8749555765,
				"element": "H" 
			},
			{
				"x": -1.7005858405,
				"y": -5.765060234,
				"z": 1.2419679595,
				"element": "H" 
			},
			{
				"x": 0.0648632572,
				"y": -4.1132115599,
				"z": 1.8799404946,
				"element": "H" 
			}
		],
		 "valence_orbital": [ 
			{
				"type": "occ",
				"energy": -0.29737,
				"method": "rhf"
			},
			{
				"type": "occ",
				"energy": -0.2552,
				"method": "rhf"
			},
			{
				"type": "occ",
				"energy": -0.25124,
				"method": "rhf"
			},
			{
				"type": "occ",
				"energy": -0.24561,
				"method": "rhf"
			},
			{
				"type": "occ",
				"energy": -0.22519,
				"method": "rhf"
			},
			{
				"type": "unocc",
				"energy": -0.06247,
				"method": "rhf"
			},
			{
				"type": "unocc",
				"energy": -0.03801,
				"method": "rhf"
			},
			{
				"type": "unocc",
				"energy": 0.00057,
				"method": "rhf"
			},
			{
				"type": "unocc",
				"energy": 0.01936,
				"method": "rhf"
			},
			{
				"type": "unocc",
				"energy": 0.05824,
				"method": "rhf"
			}
		],
		"cosmo_sigma_profile": { 
			"-0.025": 0.0,
			"-0.024": 0.0,
			"-0.023": 0.0,
			"-0.022": 0.0,
			"-0.021": 0.0,
			"-0.02": 0.0,
			"-0.019": 0.0,
			"-0.018": 0.0,
			"-0.017": 0.0,
			"-0.016": 0.0,
			"-0.015": 0.0,
			"-0.014": 0.0,
			"-0.013": 0.0,
			"-0.012": 0.0,
			"-0.011": 0.0,
			"-0.01": 0.0,
			"-0.009": 0.0,
			"-0.008": 0.808943756684,
			"-0.007": 4.37279028358,
			"-0.006": 13.8729624658,
			"-0.005": 17.3597945374,
			"-0.004": 22.7585693625,
			"-0.003": 32.5929725204,
			"-0.002": 31.8933113451,
			"-0.001": 27.8813708557,
			"0.0": 24.566871351,
			"0.001": 18.4659963932,
			"0.002": 18.0967715574,
			"0.003": 15.9883727861,
			"0.004": 16.1906005777,
			"0.005": 9.38536653408,
			"0.006": 5.8546905891,
			"0.007": 5.65800522126,
			"0.008": 3.44406049817,
			"0.009": 2.93639294376,
			"0.01": 3.51047036996,
			"0.011": 4.33463126027,
			"0.012": 2.93297279258,
			"0.013": 1.81010874489,
			"0.014": 0.186525398464,
			"0.015": 0.0,
			"0.016": 0.0,
			"0.017": 0.0,
			"0.018": 0.0,
			"0.019": 0.0,
			"0.02": 0.0,
			"0.021": 0.0,
			"0.022": 0.0,
			"0.023": 0.0,
			"0.024": 0.0,
			"0.0": 0.0
		}
	}
}
