{
	 "smiles": "FC1=C(C#N)C(SC2=CC=C(Cl)C=C2)=CC=C1", 
	 "Tm": 343.15, 
	 "num_atms": 24, 
	 "gaussian": { 
		 "optdone": 1, 
		 "sigma_profile": "yes", 
		 "theory": "DFT", 
		 "functional": "B3LYP", 
		 "basiset": "6-31G**", 
		 "properties": { 
			 "R2extent": 5952.1437, 
			 "electric_dipole_moment_norm": 5.11936226595, 
			 "electric_quadrupole_moment_norm": 17.9297935044, 
			 "total_energy": -1512.54198299, 
			 "HOMO_LUMO_gap": 0.16833, 
			 "cosmo_polarized_energy": -11.14, 
			 "cosmo_cavitation_energy": 33.99, 
			 "cosmo_dispersion_energy": -23.61, 
			 "cosmo_repulsion_energy": 1.77, 
			 "cosmo_total_nonelectrostatic_energy": 12.15, 
			 "SMD_solvation_energy": 6.52 
		},
		"coords": [
			{
				"x": 1.9257475229,
				"y": 3.1343002597,
				"z": 2.9331168672,
				"element": "F" 
			},
			{
				"x": 1.5501091225,
				"y": 1.8516512103,
				"z": 2.831649598,
				"element": "C" 
			},
			{
				"x": 0.5480044014,
				"y": 1.5202895667,
				"z": 1.9080406347,
				"element": "C" 
			},
			{
				"x": -0.0605780264,
				"y": 2.5659544432,
				"z": 1.1459046081,
				"element": "C" 
			},
			{
				"x": -0.5545136145,
				"y": 3.4278431489,
				"z": 0.5414957702,
				"element": "N" 
			},
			{
				"x": 0.1589382739,
				"y": 0.1636029137,
				"z": 1.7895067172,
				"element": "C" 
			},
			{
				"x": -1.1490763436,
				"y": -0.3579080149,
				"z": 0.6783992506,
				"element": "S" 
			},
			{
				"x": -0.4651540349,
				"y": 0.0161609193,
				"z": -0.9441423486,
				"element": "C" 
			},
			{
				"x": -1.1316968318,
				"y": 0.9234440677,
				"z": -1.774564275,
				"element": "C" 
			},
			{
				"x": -0.6681565093,
				"y": 1.1631454656,
				"z": -3.0686765243,
				"element": "C" 
			},
			{
				"x": 0.4741490788,
				"y": 0.5019078171,
				"z": -3.5160497924,
				"element": "C" 
			},
			{
				"x": 1.0691129862,
				"y": 0.8064910893,
				"z": -5.1393373563,
				"element": "Cl" 
			},
			{
				"x": 1.1559570294,
				"y": -0.3999775192,
				"z": -2.6968460469,
				"element": "C" 
			},
			{
				"x": 0.6748226839,
				"y": -0.6492341597,
				"z": -1.4135430727,
				"element": "C" 
			},
			{
				"x": 0.7550919473,
				"y": -0.7919913218,
				"z": 2.6170674042,
				"element": "C" 
			},
			{
				"x": 1.7349088307,
				"y": -0.4227953691,
				"z": 3.5425460774,
				"element": "C" 
			},
			{
				"x": 2.1481642723,
				"y": 0.9034911793,
				"z": 3.6504309077,
				"element": "C" 
			},
			{
				"x": -2.0013705762,
				"y": 1.4555780226,
				"z": -1.4056474906,
				"element": "H" 
			},
			{
				"x": -1.1790940839,
				"y": 1.8678193277,
				"z": -3.7149692065,
				"element": "H" 
			},
			{
				"x": 2.0407666815,
				"y": -0.9075741782,
				"z": -3.0646236596,
				"element": "H" 
			},
			{
				"x": 1.1872052951,
				"y": -1.3633354269,
				"z": -0.7768962582,
				"element": "H" 
			},
			{
				"x": 0.4506916137,
				"y": -1.8287353508,
				"z": 2.526320343,
				"element": "H" 
			},
			{
				"x": 2.1884482121,
				"y": -1.1785936296,
				"z": 4.1761349498,
				"element": "H" 
			},
			{
				"x": 2.913722069,
				"y": 1.216165539,
				"z": 4.351282903,
				"element": "H" 
			}
		],
		 "valence_orbital": [ 
			{
				"type": "occ",
				"energy": -0.29119,
				"method": "rhf"
			},
			{
				"type": "occ",
				"energy": -0.27449,
				"method": "rhf"
			},
			{
				"type": "occ",
				"energy": -0.27114,
				"method": "rhf"
			},
			{
				"type": "occ",
				"energy": -0.26589,
				"method": "rhf"
			},
			{
				"type": "occ",
				"energy": -0.2387,
				"method": "rhf"
			},
			{
				"type": "unocc",
				"energy": -0.07037,
				"method": "rhf"
			},
			{
				"type": "unocc",
				"energy": -0.04028,
				"method": "rhf"
			},
			{
				"type": "unocc",
				"energy": -0.03249,
				"method": "rhf"
			},
			{
				"type": "unocc",
				"energy": -0.02092,
				"method": "rhf"
			},
			{
				"type": "unocc",
				"energy": 0.02284,
				"method": "rhf"
			}
		],
		"cosmo_sigma_profile": { 
			"-0.025": 0.0,
			"-0.024": 0.0,
			"-0.023": 0.0,
			"-0.022": 0.0,
			"-0.021": 0.0,
			"-0.02": 0.0,
			"-0.019": 0.0,
			"-0.018": 0.0,
			"-0.017": 0.0,
			"-0.016": 0.0,
			"-0.015": 0.0,
			"-0.014": 0.0,
			"-0.013": 0.0,
			"-0.012": 0.0,
			"-0.011": 0.0,
			"-0.01": 0.0,
			"-0.009": 1.30941291305,
			"-0.008": 7.2098708129,
			"-0.007": 13.21172801,
			"-0.006": 13.7865919704,
			"-0.005": 11.3544596923,
			"-0.004": 11.912613528,
			"-0.003": 17.0469651853,
			"-0.002": 21.6303888503,
			"-0.001": 25.7154944373,
			"0.0": 23.6415710195,
			"0.001": 28.5076736939,
			"0.002": 28.3042645437,
			"0.003": 27.6980164678,
			"0.004": 17.319700646,
			"0.005": 9.53717697499,
			"0.006": 5.02346374171,
			"0.007": 3.50663178919,
			"0.008": 2.72068112877,
			"0.009": 2.84794861979,
			"0.01": 2.59652306124,
			"0.011": 1.91877783057,
			"0.012": 2.11549111538,
			"0.013": 0.592414111898,
			"0.014": 0.0,
			"0.015": 0.0,
			"0.016": 0.0,
			"0.017": 0.0,
			"0.018": 0.0,
			"0.019": 0.0,
			"0.02": 0.0,
			"0.021": 0.0,
			"0.022": 0.0,
			"0.023": 0.0,
			"0.024": 0.0,
			"0.025": 0.0
		}
	}
}
