{
	 "smiles": "[O-][N+](=O)C1=CC=C(C=C1)N=NC1=CC=C(NC2=CC=CC=C2)C=C1", 
	 "Tm": 433.15, 
	 "num_atms": 38, 
	 "gaussian": { 
		 "optdone": 1, 
		 "sigma_profile": "yes", 
		 "theory": "DFT", 
		 "functional": "B3LYP", 
		 "basiset": "6-31G**", 
		 "properties": { 
			 "R2extent": 11970.6061, 
			 "electric_dipole_moment_norm": 7.04858831398, 
			 "electric_quadrupole_moment_norm": 21.7973727451, 
			 "total_energy": -1063.64727063, 
			 "HOMO_LUMO_gap": 0.11129, 
			 "cosmo_polarized_energy": -18.32, 
			 "cosmo_cavitation_energy": 44.09, 
			 "cosmo_dispersion_energy": -30.89, 
			 "cosmo_repulsion_energy": 2.34, 
			 "cosmo_total_nonelectrostatic_energy": 15.54, 
			 "SMD_solvation_energy": 7.49 
		},
		"coords": [
			{
				"x": 6.8449033144,
				"y": -0.1777398373,
				"z": 1.764344079,
				"element": "O" 
			},
			{
				"x": 5.8334381345,
				"y": -0.4983834886,
				"z": 2.3910767613,
				"element": "N" 
			},
			{
				"x": 5.6153797957,
				"y": -0.1979203792,
				"z": 3.5663990807,
				"element": "O" 
			},
			{
				"x": 4.8184448971,
				"y": -1.2868282934,
				"z": 1.6897991349,
				"element": "C" 
			},
			{
				"x": 3.6610976981,
				"y": -1.6663594591,
				"z": 2.3728997513,
				"element": "C" 
			},
			{
				"x": 2.6902402453,
				"y": -2.3976528216,
				"z": 1.7028275687,
				"element": "C" 
			},
			{
				"x": 2.8809774815,
				"y": -2.7543961199,
				"z": 0.3541801634,
				"element": "C" 
			},
			{
				"x": 4.0744674393,
				"y": -2.4018297677,
				"z": -0.2995918103,
				"element": "C" 
			},
			{
				"x": 5.0366337634,
				"y": -1.6473927011,
				"z": 0.3588507445,
				"element": "C" 
			},
			{
				"x": 2.001644697,
				"y": -3.6616558047,
				"z": -0.2996634327,
				"element": "N" 
			},
			{
				"x": 0.7684020621,
				"y": -3.4944701953,
				"z": -0.4519612973,
				"element": "N" 
			},
			{
				"x": 0.0806838131,
				"y": -2.2776474107,
				"z": -0.2140630128,
				"element": "C" 
			},
			{
				"x": -1.2906291598,
				"y": -2.4235040409,
				"z": 0.0658917803,
				"element": "C" 
			},
			{
				"x": -2.0969214971,
				"y": -1.3199402858,
				"z": 0.2783578287,
				"element": "C" 
			},
			{
				"x": -1.5764922341,
				"y": -0.0131254185,
				"z": 0.1512068061,
				"element": "C" 
			},
			{
				"x": -2.4345376621,
				"y": 1.0589361304,
				"z": 0.3272059708,
				"element": "N" 
			},
			{
				"x": -2.1415990183,
				"y": 2.4275910581,
				"z": 0.4768007853,
				"element": "C" 
			},
			{
				"x": -3.0662197854,
				"y": 3.3651499778,
				"z": -0.0118083837,
				"element": "C" 
			},
			{
				"x": -2.8464159346,
				"y": 4.7293512881,
				"z": 0.1613873091,
				"element": "C" 
			},
			{
				"x": -1.695773567,
				"y": 5.1839395551,
				"z": 0.809170741,
				"element": "C" 
			},
			{
				"x": -0.7777796061,
				"y": 4.2539177456,
				"z": 1.2998584656,
				"element": "C" 
			},
			{
				"x": -0.997104116,
				"y": 2.8850410219,
				"z": 1.1499649999,
				"element": "C" 
			},
			{
				"x": -0.2196638282,
				"y": 0.1345144347,
				"z": -0.2129167425,
				"element": "C" 
			},
			{
				"x": 0.5938708433,
				"y": -0.9759091106,
				"z": -0.3766360495,
				"element": "C" 
			},
			{
				"x": 3.5400690543,
				"y": -1.3790397998,
				"z": 3.4099842071,
				"element": "H" 
			},
			{
				"x": 1.7844124155,
				"y": -2.703106314,
				"z": 2.2150754269,
				"element": "H" 
			},
			{
				"x": 4.2283064625,
				"y": -2.7240501373,
				"z": -1.3241621276,
				"element": "H" 
			},
			{
				"x": 5.9543104817,
				"y": -1.3441603379,
				"z": -0.12946613,
				"element": "H" 
			},
			{
				"x": -1.695408556,
				"y": -3.4282747827,
				"z": 0.1325474552,
				"element": "H" 
			},
			{
				"x": -3.1454185992,
				"y": -1.4543084085,
				"z": 0.5321424053,
				"element": "H" 
			},
			{
				"x": -3.4178749242,
				"y": 0.8331512726,
				"z": 0.2900221515,
				"element": "H" 
			},
			{
				"x": -3.9529986597,
				"y": 3.016700935,
				"z": -0.5354924048,
				"element": "H" 
			},
			{
				"x": -3.573545112,
				"y": 5.439091891,
				"z": -0.222364787,
				"element": "H" 
			},
			{
				"x": -1.5202146471,
				"y": 6.2476202124,
				"z": 0.9348825284,
				"element": "H" 
			},
			{
				"x": 0.1124441855,
				"y": 4.5920234531,
				"z": 1.8223673323,
				"element": "H" 
			},
			{
				"x": -0.2982613889,
				"y": 2.1745368662,
				"z": 1.5762818435,
				"element": "H" 
			},
			{
				"x": 0.1847510882,
				"y": 1.1226643659,
				"z": -0.3948073774,
				"element": "H" 
			},
			{
				"x": 1.6235804232,
				"y": -0.8279352932,
				"z": -0.6780917652,
				"element": "H" 
			}
		],
		 "valence_orbital": [ 
			{
				"type": "occ",
				"energy": -0.27027,
				"method": "rhf"
			},
			{
				"type": "occ",
				"energy": -0.26829,
				"method": "rhf"
			},
			{
				"type": "occ",
				"energy": -0.26486,
				"method": "rhf"
			},
			{
				"type": "occ",
				"energy": -0.22827,
				"method": "rhf"
			},
			{
				"type": "occ",
				"energy": -0.20474,
				"method": "rhf"
			},
			{
				"type": "unocc",
				"energy": -0.09345,
				"method": "rhf"
			},
			{
				"type": "unocc",
				"energy": -0.06885,
				"method": "rhf"
			},
			{
				"type": "unocc",
				"energy": -0.03064,
				"method": "rhf"
			},
			{
				"type": "unocc",
				"energy": -0.01873,
				"method": "rhf"
			},
			{
				"type": "unocc",
				"energy": -0.01599,
				"method": "rhf"
			}
		],
		"cosmo_sigma_profile": { 
			"-0.025": 0.0,
			"-0.024": 0.0,
			"-0.023": 0.0,
			"-0.022": 0.0,
			"-0.021": 0.0,
			"-0.02": 0.0,
			"-0.019": 0.0,
			"-0.018": 0.0,
			"-0.017": 0.0,
			"-0.016": 0.0,
			"-0.015": 0.50681176459,
			"-0.014": 1.30792628544,
			"-0.013": 1.6068794442,
			"-0.012": 1.32320425864,
			"-0.011": 1.38125724541,
			"-0.01": 1.84262146294,
			"-0.009": 1.59997374959,
			"-0.008": 4.12457977925,
			"-0.007": 10.7050876051,
			"-0.006": 21.1009122705,
			"-0.005": 27.0462423834,
			"-0.004": 27.428872863,
			"-0.003": 23.5291657976,
			"-0.002": 21.0755501913,
			"-0.001": 23.5018309353,
			"0.0": 24.7026502392,
			"0.001": 28.1362152137,
			"0.002": 26.6362865907,
			"0.003": 25.1242256223,
			"0.004": 18.5618952885,
			"0.005": 13.5087801581,
			"0.006": 10.2559364915,
			"0.007": 7.97505486516,
			"0.008": 10.9882773117,
			"0.009": 6.98640301233,
			"0.01": 5.33385548365,
			"0.011": 3.1714658406,
			"0.012": 2.4538939837,
			"0.013": 2.01691591512,
			"0.014": 0.830031733678,
			"0.015": 0.0,
			"0.016": 0.0,
			"0.017": 0.0,
			"0.018": 0.0,
			"0.019": 0.0,
			"0.02": 0.0,
			"0.021": 0.0,
			"0.022": 0.0,
			"0.023": 0.0,
			"0.024": 0.0,
			"0.025": 0.0
		}
	}
}
