{
	 "smiles": "COC1=C(OC)C=C(CNC2=NC=NC=C2)C=C1", 
	 "Tm": 398.15, 
	 "num_atms": 33, 
	 "gaussian": { 
		 "optdone": 1, 
		 "sigma_profile": "yes", 
		 "theory": "DFT", 
		 "functional": "B3LYP", 
		 "basiset": "6-31G**", 
		 "properties": { 
			 "R2extent": 6130.1229, 
			 "electric_dipole_moment_norm": 3.96314408645, 
			 "electric_quadrupole_moment_norm": 11.21718089, 
			 "total_energy": -819.095467468, 
			 "HOMO_LUMO_gap": 0.20822, 
			 "cosmo_polarized_energy": -14.12, 
			 "cosmo_cavitation_energy": 36.92, 
			 "cosmo_dispersion_energy": -25.71, 
			 "cosmo_repulsion_energy": 2.02, 
			 "cosmo_total_nonelectrostatic_energy": 13.23, 
			 "SMD_solvation_energy": 4.61 
		},
		"coords": [
			{
				"x": 2.0195304494,
				"y": -5.4490681843,
				"z": 1.0156242589,
				"element": "C" 
			},
			{
				"x": 2.3158533664,
				"y": -4.3440633315,
				"z": 0.1525367041,
				"element": "O" 
			},
			{
				"x": 1.2961201279,
				"y": -3.430432899,
				"z": 0.0088090545,
				"element": "C" 
			},
			{
				"x": 0.8985317071,
				"y": -2.5919852126,
				"z": 1.0690539959,
				"element": "C" 
			},
			{
				"x": 1.4743731714,
				"y": -2.6910344436,
				"z": 2.3159327957,
				"element": "O" 
			},
			{
				"x": 2.8323764917,
				"y": -2.23711868,
				"z": 2.3875804731,
				"element": "C" 
			},
			{
				"x": -0.1261130028,
				"y": -1.6666397105,
				"z": 0.8739548662,
				"element": "C" 
			},
			{
				"x": -0.7566442328,
				"y": -1.540855846,
				"z": -0.3680991046,
				"element": "C" 
			},
			{
				"x": -1.9112114652,
				"y": -0.5671900998,
				"z": -0.5706174985,
				"element": "C" 
			},
			{
				"x": -1.8425908059,
				"y": 0.6463556258,
				"z": 0.2219731637,
				"element": "N" 
			},
			{
				"x": -1.0354091123,
				"y": 1.7148042934,
				"z": -0.0482902225,
				"element": "C" 
			},
			{
				"x": -1.2673080034,
				"y": 2.8206498562,
				"z": 0.6890916546,
				"element": "N" 
			},
			{
				"x": -0.4920993379,
				"y": 3.8750638651,
				"z": 0.4398849049,
				"element": "C" 
			},
			{
				"x": 0.4918619879,
				"y": 3.9779524964,
				"z": -0.4589624294,
				"element": "N" 
			},
			{
				"x": 0.7084868911,
				"y": 2.8637533248,
				"z": -1.179494876,
				"element": "C" 
			},
			{
				"x": -0.0165883697,
				"y": 1.6934230512,
				"z": -1.024556076,
				"element": "C" 
			},
			{
				"x": -0.3338278614,
				"y": -2.3538768353,
				"z": -1.4248344537,
				"element": "C" 
			},
			{
				"x": 0.6775444068,
				"y": -3.2962118672,
				"z": -1.2341742859,
				"element": "C" 
			},
			{
				"x": 1.7837400633,
				"y": -5.1117671636,
				"z": 2.0294455525,
				"element": "H" 
			},
			{
				"x": 1.1794601478,
				"y": -6.034272824,
				"z": 0.6207415393,
				"element": "H" 
			},
			{
				"x": 2.9159351421,
				"y": -6.0722586519,
				"z": 1.0319453785,
				"element": "H" 
			},
			{
				"x": 2.8975906791,
				"y": -1.1716393536,
				"z": 2.1347715117,
				"element": "H" 
			},
			{
				"x": 3.4804230138,
				"y": -2.8115483258,
				"z": 1.7184202946,
				"element": "H" 
			},
			{
				"x": 3.1482107576,
				"y": -2.3818083073,
				"z": 3.4226486204,
				"element": "H" 
			},
			{
				"x": -0.4121944129,
				"y": -1.0321267233,
				"z": 1.7066764959,
				"element": "H" 
			},
			{
				"x": -2.852258212,
				"y": -1.0611432693,
				"z": -0.3024978365,
				"element": "H" 
			},
			{
				"x": -1.9893053712,
				"y": -0.3212546029,
				"z": -1.6392557372,
				"element": "H" 
			},
			{
				"x": -2.574961897,
				"y": 0.8451769399,
				"z": 0.8874657071,
				"element": "H" 
			},
			{
				"x": -0.689421262,
				"y": 4.7605516882,
				"z": 1.0430930192,
				"element": "H" 
			},
			{
				"x": 1.5083306419,
				"y": 2.9151812437,
				"z": -1.9169267875,
				"element": "H" 
			},
			{
				"x": 0.2051859483,
				"y": 0.8091279729,
				"z": -1.6089820571,
				"element": "H" 
			},
			{
				"x": -0.8019247201,
				"y": -2.2604905636,
				"z": -2.4018887658,
				"element": "H" 
			},
			{
				"x": 1.0099030729,
				"y": -3.9376534625,
				"z": -2.04436986,
				"element": "H" 
			}
		],
		 "valence_orbital": [ 
			{
				"type": "occ",
				"energy": -0.26747,
				"method": "rhf"
			},
			{
				"type": "occ",
				"energy": -0.24766,
				"method": "rhf"
			},
			{
				"type": "occ",
				"energy": -0.24341,
				"method": "rhf"
			},
			{
				"type": "occ",
				"energy": -0.23153,
				"method": "rhf"
			},
			{
				"type": "occ",
				"energy": -0.22706,
				"method": "rhf"
			},
			{
				"type": "unocc",
				"energy": -0.01884,
				"method": "rhf"
			},
			{
				"type": "unocc",
				"energy": -0.00781,
				"method": "rhf"
			},
			{
				"type": "unocc",
				"energy": -0.00423,
				"method": "rhf"
			},
			{
				"type": "unocc",
				"energy": -0.0006,
				"method": "rhf"
			},
			{
				"type": "unocc",
				"energy": 0.07918,
				"method": "rhf"
			}
		],
		"cosmo_sigma_profile": { 
			"-0.025": 0.0,
			"-0.024": 0.0,
			"-0.023": 0.0,
			"-0.022": 0.0,
			"-0.021": 0.0,
			"-0.02": 0.0,
			"-0.019": 0.0,
			"-0.018": 0.0,
			"-0.017": 0.0,
			"-0.016": 0.0,
			"-0.015": 0.0,
			"-0.014": 0.307809262757,
			"-0.013": 1.35106418881,
			"-0.012": 1.01568598608,
			"-0.011": 1.03774829183,
			"-0.01": 1.12601020729,
			"-0.009": 1.22071002616,
			"-0.008": 1.31511008762,
			"-0.007": 4.23695703474,
			"-0.006": 15.2333991066,
			"-0.005": 22.7696522996,
			"-0.004": 25.135826066,
			"-0.003": 30.2181601392,
			"-0.002": 26.0243699851,
			"-0.001": 20.5915890587,
			"0.0": 20.5972722871,
			"0.001": 22.6648879288,
			"0.002": 19.2784612978,
			"0.003": 18.2436779965,
			"0.004": 15.7504019548,
			"0.005": 9.66677282141,
			"0.006": 4.93658618037,
			"0.007": 4.79386861404,
			"0.008": 4.92960128141,
			"0.009": 4.0145161223,
			"0.01": 2.99047197398,
			"0.011": 3.87529128297,
			"0.012": 4.08852890791,
			"0.013": 1.96057073786,
			"0.014": 1.06444679589,
			"0.015": 1.61681320695,
			"0.016": 0.925008729625,
			"0.017": 0.582264023806,
			"0.018": 0.0,
			"0.019": 0.0,
			"0.02": 0.0,
			"0.021": 0.0,
			"0.022": 0.0,
			"0.023": 0.0,
			"0.024": 0.0,
			"0.025": 0.0
		}
	}
}
