{
	 "smiles": "CCOC(C)C1=NC=CN1", 
	 "Tm": 343.15, 
	 "num_atms": 22, 
	 "gaussian": { 
		 "optdone": 1, 
		 "sigma_profile": "yes", 
		 "theory": "DFT", 
		 "functional": "B3LYP", 
		 "basiset": "6-31G**", 
		 "properties": { 
			 "R2extent": 1967.8635, 
			 "electric_dipole_moment_norm": 2.72394132463, 
			 "electric_quadrupole_moment_norm": 9.43027393876, 
			 "total_energy": -458.698532313, 
			 "HOMO_LUMO_gap": 0.24882, 
			 "cosmo_polarized_energy": -10.97, 
			 "cosmo_cavitation_energy": 25.14, 
			 "cosmo_dispersion_energy": -17.88, 
			 "cosmo_repulsion_energy": 1.49, 
			 "cosmo_total_nonelectrostatic_energy": 8.75, 
			 "SMD_solvation_energy": 3.1 
		},
		"coords": [
			{
				"x": -0.0014557666,
				"y": -1.9955996472,
				"z": -2.4800451256,
				"element": "C" 
			},
			{
				"x": -0.2617102154,
				"y": -0.9647211362,
				"z": -1.3943505844,
				"element": "C" 
			},
			{
				"x": 0.4278469479,
				"y": -1.3740575163,
				"z": -0.2154244431,
				"element": "O" 
			},
			{
				"x": 0.2769082067,
				"y": -0.4792315853,
				"z": 0.8877157757,
				"element": "C" 
			},
			{
				"x": 0.6009478404,
				"y": -1.2715293602,
				"z": 2.1553945527,
				"element": "C" 
			},
			{
				"x": 1.1766540047,
				"y": 0.718357376,
				"z": 0.7160131044,
				"element": "C" 
			},
			{
				"x": 0.9781641133,
				"y": 1.9353199146,
				"z": 1.1820760926,
				"element": "N" 
			},
			{
				"x": 2.1034837099,
				"y": 2.6494040584,
				"z": 0.8275974964,
				"element": "C" 
			},
			{
				"x": 2.9868320543,
				"y": 1.8562670242,
				"z": 0.1378742011,
				"element": "C" 
			},
			{
				"x": 2.3818794539,
				"y": 0.6171951803,
				"z": 0.0780500006,
				"element": "N" 
			},
			{
				"x": -0.5343009158,
				"y": -1.7255632552,
				"z": -3.3970681614,
				"element": "H" 
			},
			{
				"x": 1.0669634302,
				"y": -2.0584307343,
				"z": -2.708897079,
				"element": "H" 
			},
			{
				"x": -0.3398258408,
				"y": -2.9851546446,
				"z": -2.1595199752,
				"element": "H" 
			},
			{
				"x": -1.3401697762,
				"y": -0.887196934,
				"z": -1.1839991181,
				"element": "H" 
			},
			{
				"x": 0.0792979795,
				"y": 0.0317301584,
				"z": -1.7141456362,
				"element": "H" 
			},
			{
				"x": -0.7571329375,
				"y": -0.1097478043,
				"z": 0.9467086083,
				"element": "H" 
			},
			{
				"x": -0.0904772852,
				"y": -2.1123382675,
				"z": 2.259966511,
				"element": "H" 
			},
			{
				"x": 1.6211489248,
				"y": -1.6646253932,
				"z": 2.1077795447,
				"element": "H" 
			},
			{
				"x": 0.5173081208,
				"y": -0.625232582,
				"z": 3.0329109406,
				"element": "H" 
			},
			{
				"x": 2.2108307275,
				"y": 3.694672209,
				"z": 1.0829439441,
				"element": "H" 
			},
			{
				"x": 3.9491398985,
				"y": 2.0510003733,
				"z": -0.3096773299,
				"element": "H" 
			},
			{
				"x": 2.7156673252,
				"y": -0.2170174338,
				"z": -0.3808033193,
				"element": "H" 
			}
		],
		 "valence_orbital": [ 
			{
				"type": "occ",
				"energy": -0.32132,
				"method": "rhf"
			},
			{
				"type": "occ",
				"energy": -0.27294,
				"method": "rhf"
			},
			{
				"type": "occ",
				"energy": -0.2682,
				"method": "rhf"
			},
			{
				"type": "occ",
				"energy": -0.25759,
				"method": "rhf"
			},
			{
				"type": "occ",
				"energy": -0.21717,
				"method": "rhf"
			},
			{
				"type": "unocc",
				"energy": 0.03165,
				"method": "rhf"
			},
			{
				"type": "unocc",
				"energy": 0.07218,
				"method": "rhf"
			},
			{
				"type": "unocc",
				"energy": 0.07604,
				"method": "rhf"
			},
			{
				"type": "unocc",
				"energy": 0.10184,
				"method": "rhf"
			},
			{
				"type": "unocc",
				"energy": 0.11444,
				"method": "rhf"
			}
		],
		"cosmo_sigma_profile": { 
			"-0.025": 0.0,
			"-0.024": 0.0,
			"-0.023": 0.0,
			"-0.022": 0.0,
			"-0.021": 0.0,
			"-0.02": 0.0,
			"-0.019": 0.0,
			"-0.018": 0.0,
			"-0.017": 0.0,
			"-0.016": 0.00626047061095,
			"-0.015": 0.762428436644,
			"-0.014": 0.853346620918,
			"-0.013": 1.1784428739,
			"-0.012": 0.760938249216,
			"-0.011": 0.761169679068,
			"-0.01": 0.996000467102,
			"-0.009": 1.27820731101,
			"-0.008": 2.35666430747,
			"-0.007": 3.48679307912,
			"-0.006": 3.67219069387,
			"-0.005": 6.26860996812,
			"-0.004": 16.3517695782,
			"-0.003": 24.712093611,
			"-0.002": 24.9801615952,
			"-0.001": 20.9452603684,
			"0.0": 20.5384637179,
			"0.001": 13.3967780875,
			"0.002": 6.61687924303,
			"0.003": 6.55966067458,
			"0.004": 5.73740106966,
			"0.005": 6.13158014681,
			"0.006": 6.54778271672,
			"0.007": 4.27846432648,
			"0.008": 2.59129861152,
			"0.009": 2.10962335742,
			"0.01": 2.21055207914,
			"0.011": 3.21345950981,
			"0.012": 1.77087745019,
			"0.013": 0.819773351135,
			"0.014": 1.29765282351,
			"0.015": 1.18002288921,
			"0.016": 0.520357906493,
			"0.017": 1.01554815252,
			"0.018": 1.08625111839,
			"0.019": 0.247892640114,
			"0.02": 0.0,
			"0.021": 0.0,
			"0.022": 0.0,
			"0.023": 0.0,
			"0.024": 0.0,
			"0.025": 0.0
		}
	}
}
