{
	 "smiles": "CCN1C(=O)NN=C1C1CCN(CC1)C(=O)OC(C)(C)C", 
	 "Tm": 493.15, 
	 "num_atms": 45, 
	 "gaussian": { 
		 "optdone": 1, 
		 "sigma_profile": "yes", 
		 "theory": "DFT", 
		 "functional": "B3LYP", 
		 "basiset": "6-31G**", 
		 "properties": { 
			 "R2extent": 9502.6212, 
			 "electric_dipole_moment_norm": 1.94774235976, 
			 "electric_quadrupole_moment_norm": 22.1111597538, 
			 "total_energy": -992.682855245, 
			 "HOMO_LUMO_gap": 0.23871, 
			 "cosmo_polarized_energy": -19.3, 
			 "cosmo_cavitation_energy": 45.01, 
			 "cosmo_dispersion_energy": -31.17, 
			 "cosmo_repulsion_energy": 2.4, 
			 "cosmo_total_nonelectrostatic_energy": 16.24, 
			 "SMD_solvation_energy": 7.52 
		},
		"coords": [
			{
				"x": 0.1221463649,
				"y": 1.5528130828,
				"z": 4.866958571,
				"element": "C" 
			},
			{
				"x": 0.1557792408,
				"y": 0.0456697788,
				"z": 4.6047334642,
				"element": "C" 
			},
			{
				"x": 1.2221407394,
				"y": -0.3454772307,
				"z": 3.6868845915,
				"element": "N" 
			},
			{
				"x": 2.5598873911,
				"y": -0.3964341122,
				"z": 4.1124385557,
				"element": "C" 
			},
			{
				"x": 3.0015792152,
				"y": -0.1302471121,
				"z": 5.2211846851,
				"element": "O" 
			},
			{
				"x": 3.2028277789,
				"y": -0.8225713318,
				"z": 2.9740764785,
				"element": "N" 
			},
			{
				"x": 2.3562984012,
				"y": -1.054107222,
				"z": 1.9112628484,
				"element": "N" 
			},
			{
				"x": 1.1702426399,
				"y": -0.7567040783,
				"z": 2.3657039751,
				"element": "C" 
			},
			{
				"x": -0.0860604896,
				"y": -0.8240034059,
				"z": 1.5407926275,
				"element": "C" 
			},
			{
				"x": 0.1180648813,
				"y": -1.643766875,
				"z": 0.2392466018,
				"element": "C" 
			},
			{
				"x": 0.4760124449,
				"y": -0.7708870053,
				"z": -0.9652356176,
				"element": "C" 
			},
			{
				"x": -0.5978531401,
				"y": 0.2020828219,
				"z": -1.214123027,
				"element": "N" 
			},
			{
				"x": -1.4376326934,
				"y": 0.6108443074,
				"z": -0.0866210241,
				"element": "C" 
			},
			{
				"x": -0.6193720683,
				"y": 0.6035231636,
				"z": 1.2060094827,
				"element": "C" 
			},
			{
				"x": -0.7722168328,
				"y": 0.8389429606,
				"z": -2.4131633729,
				"element": "C" 
			},
			{
				"x": -1.645361083,
				"y": 1.6727100674,
				"z": -2.6207062071,
				"element": "O" 
			},
			{
				"x": 0.1472489956,
				"y": 0.4165128613,
				"z": -3.3177137357,
				"element": "O" 
			},
			{
				"x": 0.1406511114,
				"y": 0.9307664854,
				"z": -4.6947949463,
				"element": "C" 
			},
			{
				"x": 0.4043601972,
				"y": 2.440627237,
				"z": -4.6928200489,
				"element": "C" 
			},
			{
				"x": 1.3099170039,
				"y": 0.1779174578,
				"z": -5.3357823151,
				"element": "C" 
			},
			{
				"x": -1.1793671121,
				"y": 0.5731150649,
				"z": -5.3866822449,
				"element": "C" 
			},
			{
				"x": -0.0586711837,
				"y": 2.1155260025,
				"z": 3.9463190919,
				"element": "H" 
			},
			{
				"x": 1.0742303213,
				"y": 1.8752136034,
				"z": 5.2948202641,
				"element": "H" 
			},
			{
				"x": -0.6747191986,
				"y": 1.7906402242,
				"z": 5.5787626018,
				"element": "H" 
			},
			{
				"x": 0.332699198,
				"y": -0.487820071,
				"z": 5.5437519145,
				"element": "H" 
			},
			{
				"x": -0.7924743544,
				"y": -0.3094948983,
				"z": 4.1932905911,
				"element": "H" 
			},
			{
				"x": 4.1885655234,
				"y": -1.0091358423,
				"z": 2.8930458913,
				"element": "H" 
			},
			{
				"x": -0.8467566619,
				"y": -1.3385294624,
				"z": 2.1425673261,
				"element": "H" 
			},
			{
				"x": -0.8078076421,
				"y": -2.1844966115,
				"z": 0.0158581555,
				"element": "H" 
			},
			{
				"x": 0.9041739586,
				"y": -2.3875251658,
				"z": 0.3843844814,
				"element": "H" 
			},
			{
				"x": 1.4337915684,
				"y": -0.2639646608,
				"z": -0.7879677259,
				"element": "H" 
			},
			{
				"x": 0.5998976245,
				"y": -1.3915134549,
				"z": -1.8541656761,
				"element": "H" 
			},
			{
				"x": -1.8213407366,
				"y": 1.6084754056,
				"z": -0.3048973848,
				"element": "H" 
			},
			{
				"x": -2.3097571086,
				"y": -0.0532633044,
				"z": 0.0121382752,
				"element": "H" 
			},
			{
				"x": 0.2252869838,
				"y": 1.2913859851,
				"z": 1.0867304013,
				"element": "H" 
			},
			{
				"x": -1.2318639933,
				"y": 0.9887347783,
				"z": 2.0274054245,
				"element": "H" 
			},
			{
				"x": 1.3340874458,
				"y": 2.6621663738,
				"z": -4.1589568901,
				"element": "H" 
			},
			{
				"x": 0.511161272,
				"y": 2.7969762045,
				"z": -5.7226744629,
				"element": "H" 
			},
			{
				"x": -0.4151556808,
				"y": 2.977488971,
				"z": -4.2150123609,
				"element": "H" 
			},
			{
				"x": 1.1396221626,
				"y": -0.9022846222,
				"z": -5.3021627019,
				"element": "H" 
			},
			{
				"x": 2.2440915705,
				"y": 0.3961331939,
				"z": -4.8101066749,
				"element": "H" 
			},
			{
				"x": 1.4223607693,
				"y": 0.4780799829,
				"z": -6.3818712619,
				"element": "H" 
			},
			{
				"x": -2.0168956646,
				"y": 1.0915637994,
				"z": -4.9197886972,
				"element": "H" 
			},
			{
				"x": -1.1295120954,
				"y": 0.8572582466,
				"z": -6.4429569787,
				"element": "H" 
			},
			{
				"x": -1.3550070643,
				"y": -0.5062415931,
				"z": -5.3339629453,
				"element": "H" 
			}
		],
		 "valence_orbital": [ 
			{
				"type": "occ",
				"energy": -0.28282,
				"method": "rhf"
			},
			{
				"type": "occ",
				"energy": -0.25999,
				"method": "rhf"
			},
			{
				"type": "occ",
				"energy": -0.2561,
				"method": "rhf"
			},
			{
				"type": "occ",
				"energy": -0.23197,
				"method": "rhf"
			},
			{
				"type": "occ",
				"energy": -0.21967,
				"method": "rhf"
			},
			{
				"type": "unocc",
				"energy": 0.01904,
				"method": "rhf"
			},
			{
				"type": "unocc",
				"energy": 0.05428,
				"method": "rhf"
			},
			{
				"type": "unocc",
				"energy": 0.05912,
				"method": "rhf"
			},
			{
				"type": "unocc",
				"energy": 0.06372,
				"method": "rhf"
			},
			{
				"type": "unocc",
				"energy": 0.08679,
				"method": "rhf"
			}
		],
		"cosmo_sigma_profile": { 
			"-0.025": 0.0,
			"-0.024": 0.0,
			"-0.023": 0.0,
			"-0.022": 0.0,
			"-0.021": 0.0,
			"-0.02": 0.0,
			"-0.019": 0.0,
			"-0.018": 0.0,
			"-0.017": 0.204245292039,
			"-0.016": 1.18683047179,
			"-0.015": 1.40473226446,
			"-0.014": 0.822949434961,
			"-0.013": 0.500526241365,
			"-0.012": 0.8492020419,
			"-0.011": 1.04355368,
			"-0.01": 1.17109406612,
			"-0.009": 0.759060923913,
			"-0.008": 0.892847554397,
			"-0.007": 4.88077384653,
			"-0.006": 5.57086068134,
			"-0.005": 12.6417468904,
			"-0.004": 34.2210972978,
			"-0.003": 47.0851536939,
			"-0.002": 40.9134650085,
			"-0.001": 38.3461872294,
			"0.0": 41.2976661359,
			"0.001": 30.998779633,
			"0.002": 13.5438480265,
			"0.003": 9.62576199583,
			"0.004": 7.27529070244,
			"0.005": 7.31975204727,
			"0.006": 6.90239846475,
			"0.007": 5.36027491911,
			"0.008": 5.05910180876,
			"0.009": 3.91339649369,
			"0.01": 3.1004892411,
			"0.011": 4.15466928087,
			"0.012": 3.4460224947,
			"0.013": 5.82269770757,
			"0.014": 8.73816691871,
			"0.015": 1.24588379685,
			"0.016": 0.0,
			"0.017": 0.0,
			"0.018": 0.0,
			"0.019": 0.0,
			"0.02": 0.0,
			"0.021": 0.0,
			"0.022": 0.0,
			"0.023": 0.0,
			"0.024": 0.0,
			"0.025": 0.0
		}
	}
}
