{
	 "smiles": "CC(=O)OC1C2CC(OC(C)=O)C3C1(C1CC4C(C)(C)CCC(OC(C)=O)C34C(=O)O1)C(=O)C2=C", 
	 "Tm": 503.15, 
	 "num_atms": 67, 
	 "gaussian": { 
		 "optdone": 1, 
		 "sigma_profile": "yes", 
		 "theory": "DFT", 
		 "functional": "B3LYP", 
		 "basiset": "6-31G**", 
		 "properties": { 
			 "R2extent": 13724.3007, 
			 "electric_dipole_moment_norm": 4.9707533765, 
			 "electric_quadrupole_moment_norm": 31.7273335783, 
			 "total_energy": -1687.08863727, 
			 "HOMO_LUMO_gap": 0.17936, 
			 "cosmo_polarized_energy": -26.78, 
			 "cosmo_cavitation_energy": 60.68, 
			 "cosmo_dispersion_energy": -38.26, 
			 "cosmo_repulsion_energy": 2.79, 
			 "cosmo_total_nonelectrostatic_energy": 25.21, 
			 "SMD_solvation_energy": 13.63 
		},
		"coords": [
			{
				"x": -2.8806152482,
				"y": -5.1211893861,
				"z": -1.101412487,
				"element": "C" 
			},
			{
				"x": -1.9686438402,
				"y": -4.2328445839,
				"z": -0.293062725,
				"element": "C" 
			},
			{
				"x": -0.9537385012,
				"y": -4.5778474745,
				"z": 0.2690646045,
				"element": "O" 
			},
			{
				"x": -2.4345978349,
				"y": -2.953135468,
				"z": -0.2731277647,
				"element": "O" 
			},
			{
				"x": -1.6590290548,
				"y": -1.9984160849,
				"z": 0.4873400588,
				"element": "C" 
			},
			{
				"x": -1.9764286425,
				"y": -2.079436668,
				"z": 1.9926728226,
				"element": "C" 
			},
			{
				"x": -0.9520298002,
				"y": -1.1892094303,
				"z": 2.7416186699,
				"element": "C" 
			},
			{
				"x": -0.4002066226,
				"y": 0.0208094745,
				"z": 1.9317904281,
				"element": "C" 
			},
			{
				"x": -0.3235652661,
				"y": 1.1770419565,
				"z": 2.8120154387,
				"element": "O" 
			},
			{
				"x": 0.6160402395,
				"y": 1.159549705,
				"z": 3.7869841906,
				"element": "C" 
			},
			{
				"x": 0.5702745772,
				"y": 2.4258537609,
				"z": 4.6047381829,
				"element": "C" 
			},
			{
				"x": 1.3982498437,
				"y": 0.2435831845,
				"z": 3.9442133214,
				"element": "O" 
			},
			{
				"x": -1.2610931283,
				"y": 0.5136343129,
				"z": 0.738092757,
				"element": "C" 
			},
			{
				"x": -2.1947185005,
				"y": -0.5993048187,
				"z": 0.1290701453,
				"element": "C" 
			},
			{
				"x": -2.3460166462,
				"y": -0.3221640622,
				"z": -1.3696587652,
				"element": "C" 
			},
			{
				"x": -1.0546055284,
				"y": -0.5913550324,
				"z": -2.1312723835,
				"element": "C" 
			},
			{
				"x": 0.1177540086,
				"y": 0.1860639236,
				"z": -1.4708856726,
				"element": "C" 
			},
			{
				"x": 1.1742304984,
				"y": 0.7926056114,
				"z": -2.4957335212,
				"element": "C" 
			},
			{
				"x": 2.6065161175,
				"y": 0.4434310534,
				"z": -2.0294726334,
				"element": "C" 
			},
			{
				"x": 1.0394126536,
				"y": 0.2054789992,
				"z": -3.9194321958,
				"element": "C" 
			},
			{
				"x": 0.9773526757,
				"y": 2.3224391504,
				"z": -2.6055432428,
				"element": "C" 
			},
			{
				"x": 1.0524835869,
				"y": 3.0998453004,
				"z": -1.2790723186,
				"element": "C" 
			},
			{
				"x": 0.4893332546,
				"y": 2.3340075131,
				"z": -0.0597228772,
				"element": "C" 
			},
			{
				"x": 1.5981189774,
				"y": 1.6846508559,
				"z": 0.635431912,
				"element": "O" 
			},
			{
				"x": 2.3672469251,
				"y": 2.4742443946,
				"z": 1.4298370208,
				"element": "C" 
			},
			{
				"x": 3.5875536531,
				"y": 1.731981596,
				"z": 1.9191116992,
				"element": "C" 
			},
			{
				"x": 2.0916717431,
				"y": 3.624991841,
				"z": 1.6964646462,
				"element": "O" 
			},
			{
				"x": -0.5148290902,
				"y": 1.2390533318,
				"z": -0.4714491501,
				"element": "C" 
			},
			{
				"x": -1.7124945529,
				"y": 1.9384904031,
				"z": -1.1462510661,
				"element": "C" 
			},
			{
				"x": -1.8751879722,
				"y": 3.1311170296,
				"z": -1.2570865555,
				"element": "O" 
			},
			{
				"x": -2.6706751395,
				"y": 1.0764936063,
				"z": -1.5612516205,
				"element": "O" 
			},
			{
				"x": -3.5409182638,
				"y": -0.589325755,
				"z": 0.8938524098,
				"element": "C" 
			},
			{
				"x": -4.5326494829,
				"y": 0.0394298676,
				"z": 0.5903870726,
				"element": "O" 
			},
			{
				"x": -3.3776129781,
				"y": -1.5100604842,
				"z": 2.062440244,
				"element": "C" 
			},
			{
				"x": -4.3507519433,
				"y": -1.7396278971,
				"z": 2.9469039754,
				"element": "C" 
			},
			{
				"x": -3.8864489711,
				"y": -5.113504802,
				"z": -0.6712575815,
				"element": "H" 
			},
			{
				"x": -2.9626737028,
				"y": -4.7452903272,
				"z": -2.1254768256,
				"element": "H" 
			},
			{
				"x": -2.4849808563,
				"y": -6.1361194026,
				"z": -1.1075608183,
				"element": "H" 
			},
			{
				"x": -0.6005054546,
				"y": -2.1593621788,
				"z": 0.2760355231,
				"element": "H" 
			},
			{
				"x": -1.9137494031,
				"y": -3.1033176126,
				"z": 2.3661489795,
				"element": "H" 
			},
			{
				"x": -0.0981389369,
				"y": -1.7943514016,
				"z": 3.0534087767,
				"element": "H" 
			},
			{
				"x": -1.4196257164,
				"y": -0.8082632472,
				"z": 3.6533051178,
				"element": "H" 
			},
			{
				"x": 0.6128518471,
				"y": -0.208903756,
				"z": 1.60325374,
				"element": "H" 
			},
			{
				"x": -0.4613710703,
				"y": 2.698831076,
				"z": 4.8384585133,
				"element": "H" 
			},
			{
				"x": 1.0068001833,
				"y": 3.2410011162,
				"z": 4.018439001,
				"element": "H" 
			},
			{
				"x": 1.1467460498,
				"y": 2.2863346837,
				"z": 5.5190966711,
				"element": "H" 
			},
			{
				"x": -1.9151124356,
				"y": 1.278400535,
				"z": 1.1724489211,
				"element": "H" 
			},
			{
				"x": -3.1939680816,
				"y": -0.8664656458,
				"z": -1.7841338583,
				"element": "H" 
			},
			{
				"x": -0.8488538854,
				"y": -1.6645180789,
				"z": -2.1750516902,
				"element": "H" 
			},
			{
				"x": -1.23087931,
				"y": -0.2609348244,
				"z": -3.1556351339,
				"element": "H" 
			},
			{
				"x": 0.6726008528,
				"y": -0.5173327351,
				"z": -0.8406422613,
				"element": "H" 
			},
			{
				"x": 2.7676163321,
				"y": -0.6402700518,
				"z": -2.0763483498,
				"element": "H" 
			},
			{
				"x": 2.7996319205,
				"y": 0.7645099868,
				"z": -1.0073774952,
				"element": "H" 
			},
			{
				"x": 3.3466474655,
				"y": 0.9139315088,
				"z": -2.6865532183,
				"element": "H" 
			},
			{
				"x": 1.0637694713,
				"y": -0.8895497815,
				"z": -3.9180290726,
				"element": "H" 
			},
			{
				"x": 1.882557515,
				"y": 0.5488124816,
				"z": -4.5279865614,
				"element": "H" 
			},
			{
				"x": 0.1278705789,
				"y": 0.5282618191,
				"z": -4.4310999024,
				"element": "H" 
			},
			{
				"x": 0.0040576221,
				"y": 2.5112124424,
				"z": -3.0728466335,
				"element": "H" 
			},
			{
				"x": 1.7216760392,
				"y": 2.7267139746,
				"z": -3.3022022133,
				"element": "H" 
			},
			{
				"x": 0.4980993872,
				"y": 4.0336549059,
				"z": -1.3846049846,
				"element": "H" 
			},
			{
				"x": 2.0857851398,
				"y": 3.3710377651,
				"z": -1.047718572,
				"element": "H" 
			},
			{
				"x": 0.0258970729,
				"y": 3.0297242459,
				"z": 0.6396359747,
				"element": "H" 
			},
			{
				"x": 4.1792782649,
				"y": 1.382814936,
				"z": 1.0674278041,
				"element": "H" 
			},
			{
				"x": 4.1884471654,
				"y": 2.4012335948,
				"z": 2.5344697235,
				"element": "H" 
			},
			{
				"x": 3.2883875261,
				"y": 0.8588562955,
				"z": 2.5043129329,
				"element": "H" 
			},
			{
				"x": -4.2323174352,
				"y": -2.4247514323,
				"z": 3.7816562581,
				"element": "H" 
			},
			{
				"x": -5.3045258921,
				"y": -1.230575816,
				"z": 2.8385326146,
				"element": "H" 
			}
		],
		 "valence_orbital": [ 
			{
				"type": "occ",
				"energy": -0.28198,
				"method": "rhf"
			},
			{
				"type": "occ",
				"energy": -0.27711,
				"method": "rhf"
			},
			{
				"type": "occ",
				"energy": -0.27661,
				"method": "rhf"
			},
			{
				"type": "occ",
				"energy": -0.26309,
				"method": "rhf"
			},
			{
				"type": "occ",
				"energy": -0.25018,
				"method": "rhf"
			},
			{
				"type": "unocc",
				"energy": -0.07082,
				"method": "rhf"
			},
			{
				"type": "unocc",
				"energy": -0.01152,
				"method": "rhf"
			},
			{
				"type": "unocc",
				"energy": -0.00755,
				"method": "rhf"
			},
			{
				"type": "unocc",
				"energy": 0.00582,
				"method": "rhf"
			},
			{
				"type": "unocc",
				"energy": 0.01497,
				"method": "rhf"
			}
		],
		"cosmo_sigma_profile": { 
			"-0.025": 0.0,
			"-0.024": 0.0,
			"-0.023": 0.0,
			"-0.022": 0.0,
			"-0.021": 0.0,
			"-0.02": 0.0,
			"-0.019": 0.0,
			"-0.018": 0.0,
			"-0.017": 0.0,
			"-0.016": 0.0,
			"-0.015": 0.0,
			"-0.014": 0.00505850256604,
			"-0.013": 0.0489243841926,
			"-0.012": 0.106175136241,
			"-0.011": 0.311131571166,
			"-0.01": 0.810882169539,
			"-0.009": 1.1582399318,
			"-0.008": 2.72893508768,
			"-0.007": 9.14609227508,
			"-0.006": 24.9825712318,
			"-0.005": 37.3228109054,
			"-0.004": 40.0218882081,
			"-0.003": 53.7782168629,
			"-0.002": 60.296980356,
			"-0.001": 44.702767581,
			"0.0": 34.710056339,
			"0.001": 30.5753158596,
			"0.002": 23.0954158695,
			"0.003": 13.7457000027,
			"0.004": 10.4901599452,
			"0.005": 8.99449467238,
			"0.006": 7.06697456684,
			"0.007": 7.01826007975,
			"0.008": 8.67012406026,
			"0.009": 9.12765922303,
			"0.01": 12.0836979162,
			"0.011": 17.1145062186,
			"0.012": 12.6019440998,
			"0.013": 2.41482511762,
			"0.014": 0.0,
			"0.015": 0.0,
			"0.016": 0.0,
			"0.017": 0.0,
			"0.018": 0.0,
			"0.019": 0.0,
			"0.02": 0.0,
			"0.021": 0.0,
			"0.022": 0.0,
			"0.023": 0.0,
			"0.024": 0.0,
			"0.025": 0.0
		}
	}
}
