{
	 "smiles": "O=C(N1CCOCC1)C1=CC2=C(NCCC2)C=C1", 
	 "Tm": 416.15, 
	 "num_atms": 36, 
	 "gaussian": { 
		 "optdone": 1, 
		 "sigma_profile": "yes", 
		 "theory": "DFT", 
		 "functional": "B3LYP", 
		 "basiset": "6-31G**", 
		 "properties": { 
			 "R2extent": 6268.1495, 
			 "electric_dipole_moment_norm": 4.7830444123, 
			 "electric_quadrupole_moment_norm": 12.1364059639, 
			 "total_energy": -804.299719465, 
			 "HOMO_LUMO_gap": 0.18213, 
			 "cosmo_polarized_energy": -15.4, 
			 "cosmo_cavitation_energy": 36.5, 
			 "cosmo_dispersion_energy": -26.87, 
			 "cosmo_repulsion_energy": 2.08, 
			 "cosmo_total_nonelectrostatic_energy": 11.71, 
			 "SMD_solvation_energy": 4.35 
		},
		"coords": [
			{
				"x": 3.2006397549,
				"y": 0.8526121917,
				"z": -0.1323602504,
				"element": "O" 
			},
			{
				"x": 2.027758019,
				"y": 0.9894202689,
				"z": -0.4820081141,
				"element": "C" 
			},
			{
				"x": 1.7033153967,
				"y": 1.5329606677,
				"z": -1.7160456402,
				"element": "N" 
			},
			{
				"x": 2.7918737057,
				"y": 2.0319780698,
				"z": -2.5607707882,
				"element": "C" 
			},
			{
				"x": 3.0218201275,
				"y": 1.100829405,
				"z": -3.7504009119,
				"element": "C" 
			},
			{
				"x": 1.8187478064,
				"y": 0.9112985243,
				"z": -4.4906282794,
				"element": "O" 
			},
			{
				"x": 0.80259535,
				"y": 0.3503773971,
				"z": -3.6748222584,
				"element": "C" 
			},
			{
				"x": 0.4814316197,
				"y": 1.2441257392,
				"z": -2.4698737489,
				"element": "C" 
			},
			{
				"x": 0.9153740636,
				"y": 0.6215159494,
				"z": 0.4497094053,
				"element": "C" 
			},
			{
				"x": -0.2499815853,
				"y": 1.3847823357,
				"z": 0.6089706988,
				"element": "C" 
			},
			{
				"x": -1.2184346274,
				"y": 1.0775511219,
				"z": 1.5637209553,
				"element": "C" 
			},
			{
				"x": -1.0290995921,
				"y": -0.0594456314,
				"z": 2.3846209016,
				"element": "C" 
			},
			{
				"x": -1.9992032948,
				"y": -0.4444661233,
				"z": 3.2986287002,
				"element": "N" 
			},
			{
				"x": -3.0644620623,
				"y": 0.4709919537,
				"z": 3.6833817186,
				"element": "C" 
			},
			{
				"x": -3.5879921499,
				"y": 1.1899540444,
				"z": 2.4383100424,
				"element": "C" 
			},
			{
				"x": -2.4458844464,
				"y": 1.9510116402,
				"z": 1.7503723655,
				"element": "C" 
			},
			{
				"x": 0.1465129241,
				"y": -0.8229565574,
				"z": 2.2383909874,
				"element": "C" 
			},
			{
				"x": 1.1076212249,
				"y": -0.4761734343,
				"z": 1.3027527891,
				"element": "C" 
			},
			{
				"x": 3.6884383974,
				"y": 2.1077318343,
				"z": -1.9450671464,
				"element": "H" 
			},
			{
				"x": 2.5145066135,
				"y": 3.0280003298,
				"z": -2.9314758615,
				"element": "H" 
			},
			{
				"x": 3.7498123122,
				"y": 1.5294015964,
				"z": -4.4456822082,
				"element": "H" 
			},
			{
				"x": 3.40489,
				"y": 0.1321160941,
				"z": -3.3912510863,
				"element": "H" 
			},
			{
				"x": 1.1080472636,
				"y": -0.6469264925,
				"z": -3.3150288223,
				"element": "H" 
			},
			{
				"x": -0.0822130532,
				"y": 0.2351640185,
				"z": -4.3090507821,
				"element": "H" 
			},
			{
				"x": 0.0431311192,
				"y": 2.1867215182,
				"z": -2.826561217,
				"element": "H" 
			},
			{
				"x": -0.2452000317,
				"y": 0.7473273061,
				"z": -1.8275046506,
				"element": "H" 
			},
			{
				"x": -0.3967638165,
				"y": 2.2698771917,
				"z": -0.0057507134,
				"element": "H" 
			},
			{
				"x": -1.6877920384,
				"y": -1.0872593565,
				"z": 4.0125948673,
				"element": "H" 
			},
			{
				"x": -2.7200984317,
				"y": 1.2176581734,
				"z": 4.4197426634,
				"element": "H" 
			},
			{
				"x": -3.8624974629,
				"y": -0.1097011637,
				"z": 4.1581499948,
				"element": "H" 
			},
			{
				"x": -4.0099277991,
				"y": 0.4458266279,
				"z": 1.7528523733,
				"element": "H" 
			},
			{
				"x": -4.394295161,
				"y": 1.8757249977,
				"z": 2.718315899,
				"element": "H" 
			},
			{
				"x": -2.1838815058,
				"y": 2.8297100879,
				"z": 2.3573500099,
				"element": "H" 
			},
			{
				"x": -2.7788343634,
				"y": 2.341246639,
				"z": 0.7816568604,
				"element": "H" 
			},
			{
				"x": 0.2967298802,
				"y": -1.6904432662,
				"z": 2.8772097381,
				"element": "H" 
			},
			{
				"x": 2.0267158429,
				"y": -1.0467436987,
				"z": 1.2196515092,
				"element": "H" 
			}
		],
		 "valence_orbital": [ 
			{
				"type": "occ",
				"energy": -0.26828,
				"method": "rhf"
			},
			{
				"type": "occ",
				"energy": -0.24377,
				"method": "rhf"
			},
			{
				"type": "occ",
				"energy": -0.24008,
				"method": "rhf"
			},
			{
				"type": "occ",
				"energy": -0.21868,
				"method": "rhf"
			},
			{
				"type": "occ",
				"energy": -0.19433,
				"method": "rhf"
			},
			{
				"type": "unocc",
				"energy": -0.0122,
				"method": "rhf"
			},
			{
				"type": "unocc",
				"energy": 0.00026,
				"method": "rhf"
			},
			{
				"type": "unocc",
				"energy": 0.06134,
				"method": "rhf"
			},
			{
				"type": "unocc",
				"energy": 0.07717,
				"method": "rhf"
			},
			{
				"type": "unocc",
				"energy": 0.09983,
				"method": "rhf"
			}
		],
		"cosmo_sigma_profile": { 
			"-0.025": 0.0,
			"-0.024": 0.0,
			"-0.023": 0.0,
			"-0.022": 0.0,
			"-0.021": 0.0,
			"-0.02": 0.0,
			"-0.019": 0.0,
			"-0.018": 0.0,
			"-0.017": 0.0,
			"-0.016": 0.0,
			"-0.015": 0.0,
			"-0.014": 0.0,
			"-0.013": 0.424078445256,
			"-0.012": 1.56363372229,
			"-0.011": 1.0668417052,
			"-0.01": 1.73648067547,
			"-0.009": 1.28136003833,
			"-0.008": 1.35967136067,
			"-0.007": 1.78776427014,
			"-0.006": 4.01324081972,
			"-0.005": 16.7514123507,
			"-0.004": 35.6785921801,
			"-0.003": 43.0881918596,
			"-0.002": 35.2248638402,
			"-0.001": 26.8069330866,
			"0.0": 19.1161109189,
			"0.001": 13.0267870046,
			"0.002": 10.0139836411,
			"0.003": 10.9018392638,
			"0.004": 8.15763967773,
			"0.005": 11.5375810793,
			"0.006": 10.4465455558,
			"0.007": 5.15638173538,
			"0.008": 3.05723544104,
			"0.009": 3.30434379484,
			"0.01": 3.55301161888,
			"0.011": 3.15213102391,
			"0.012": 3.04484483748,
			"0.013": 3.91034640833,
			"0.014": 4.76811608049,
			"0.015": 1.91010129304,
			"0.016": 0.0902622960254,
			"0.017": 0.0,
			"0.018": 0.0,
			"0.019": 0.0,
			"0.02": 0.0,
			"0.021": 0.0,
			"0.022": 0.0,
			"0.023": 0.0,
			"0.024": 0.0,
			"0.025": 0.0
		}
	}
}
