{
	 "smiles": "O=C(CCC#N)C1=CN=CC=C1", 
	 "Tm": 345.15, 
	 "num_atms": 20, 
	 "gaussian": { 
		 "optdone": 1, 
		 "sigma_profile": "yes", 
		 "theory": "DFT", 
		 "functional": "B3LYP", 
		 "basiset": "6-31G**", 
		 "properties": { 
			 "R2extent": 3826.7095, 
			 "electric_dipole_moment_norm": 4.28696007213, 
			 "electric_quadrupole_moment_norm": 34.8130352826, 
			 "total_energy": -532.481422869, 
			 "HOMO_LUMO_gap": 0.18768, 
			 "cosmo_polarized_energy": -16.73, 
			 "cosmo_cavitation_energy": 25.68, 
			 "cosmo_dispersion_energy": -18.03, 
			 "cosmo_repulsion_energy": 1.44, 
			 "cosmo_total_nonelectrostatic_energy": 9.09, 
			 "SMD_solvation_energy": 4.78 
		},
		"coords": [
			{
				"x": 1.8330284048,
				"y": -1.8078710917,
				"z": -2.3299724186,
				"element": "O" 
			},
			{
				"x": 1.6905144563,
				"y": -1.7466494014,
				"z": -1.1188873603,
				"element": "C" 
			},
			{
				"x": 2.4211713809,
				"y": -2.7283491532,
				"z": -0.2030947107,
				"element": "C" 
			},
			{
				"x": 3.4344850626,
				"y": -3.5965180914,
				"z": -0.9684063972,
				"element": "C" 
			},
			{
				"x": 4.6363636445,
				"y": -2.8532332856,
				"z": -1.3582208109,
				"element": "C" 
			},
			{
				"x": 5.5956793419,
				"y": -2.2642899371,
				"z": -1.6399558878,
				"element": "N" 
			},
			{
				"x": 0.7814830024,
				"y": -0.7285321859,
				"z": -0.5080297289,
				"element": "C" 
			},
			{
				"x": 0.5241298008,
				"y": -0.6433954901,
				"z": 0.8681673705,
				"element": "C" 
			},
			{
				"x": -0.2947606417,
				"y": 0.2579018446,
				"z": 1.4205543201,
				"element": "N" 
			},
			{
				"x": -0.8936305238,
				"y": 1.1268438699,
				"z": 0.5967949955,
				"element": "C" 
			},
			{
				"x": -0.7110524937,
				"y": 1.1356311194,
				"z": -0.7898183122,
				"element": "C" 
			},
			{
				"x": 0.1384442571,
				"y": 0.1910364422,
				"z": -1.3501276684,
				"element": "C" 
			},
			{
				"x": 1.6726506882,
				"y": -3.3790063938,
				"z": 0.2676741753,
				"element": "H" 
			},
			{
				"x": 2.9136965002,
				"y": -2.1877114288,
				"z": 0.6119225676,
				"element": "H" 
			},
			{
				"x": 3.7436961565,
				"y": -4.4428975252,
				"z": -0.3462028285,
				"element": "H" 
			},
			{
				"x": 2.9673598152,
				"y": -3.9938499353,
				"z": -1.87436747,
				"element": "H" 
			},
			{
				"x": 0.9942171529,
				"y": -1.3331270327,
				"z": 1.5661167513,
				"element": "H" 
			},
			{
				"x": -1.5532055464,
				"y": 1.8532399655,
				"z": 1.0682114462,
				"element": "H" 
			},
			{
				"x": -1.225110739,
				"y": 1.8667940242,
				"z": -1.405422852,
				"element": "H" 
			},
			{
				"x": 0.3239402802,
				"y": 0.1399836867,
				"z": -2.4180351811,
				"element": "H" 
			}
		],
		 "valence_orbital": [ 
			{
				"type": "occ",
				"energy": -0.32122,
				"method": "rhf"
			},
			{
				"type": "occ",
				"energy": -0.3039,
				"method": "rhf"
			},
			{
				"type": "occ",
				"energy": -0.28384,
				"method": "rhf"
			},
			{
				"type": "occ",
				"energy": -0.28271,
				"method": "rhf"
			},
			{
				"type": "occ",
				"energy": -0.26645,
				"method": "rhf"
			},
			{
				"type": "unocc",
				"energy": -0.07877,
				"method": "rhf"
			},
			{
				"type": "unocc",
				"energy": -0.04019,
				"method": "rhf"
			},
			{
				"type": "unocc",
				"energy": 0.0141,
				"method": "rhf"
			},
			{
				"type": "unocc",
				"energy": 0.03238,
				"method": "rhf"
			},
			{
				"type": "unocc",
				"energy": 0.0431,
				"method": "rhf"
			}
		],
		"cosmo_sigma_profile": { 
			"-0.025": 0.0,
			"-0.024": 0.0,
			"-0.023": 0.0,
			"-0.022": 0.0,
			"-0.021": 0.0,
			"-0.02": 0.0,
			"-0.019": 0.0,
			"-0.018": 0.0,
			"-0.017": 0.0,
			"-0.016": 0.0,
			"-0.015": 0.0,
			"-0.014": 0.0,
			"-0.013": 0.0,
			"-0.012": 0.0,
			"-0.011": 0.0,
			"-0.01": 0.0,
			"-0.009": 1.27604796139,
			"-0.008": 13.4750070326,
			"-0.007": 21.2981077136,
			"-0.006": 17.1962465066,
			"-0.005": 14.8093140596,
			"-0.004": 10.5268019743,
			"-0.003": 8.28635814311,
			"-0.002": 9.01453942775,
			"-0.001": 9.73289739631,
			"0.0": 15.6272818336,
			"0.001": 14.6210978568,
			"0.002": 7.57547712664,
			"0.003": 5.25574027862,
			"0.004": 6.34876487439,
			"0.005": 4.24076744814,
			"0.006": 5.90536521236,
			"0.007": 6.67824126951,
			"0.008": 5.69354091205,
			"0.009": 6.19576350821,
			"0.01": 6.46852594031,
			"0.011": 7.18434919256,
			"0.012": 3.77807375763,
			"0.013": 2.7147274968,
			"0.014": 1.21220508102,
			"0.015": 1.01334502238,
			"0.016": 0.434289637724,
			"0.017": 0.0,
			"0.018": 0.0,
			"0.019": 0.0,
			"0.02": 0.0,
			"0.021": 0.0,
			"0.022": 0.0,
			"0.023": 0.0,
			"0.024": 0.0,
			"0.025": 0.0
		}
	}
}
