{
	 "smiles": "O=C(CC1CCCCC1)NCCC1CNC2=C1C=CC=C2", 
	 "Tm": 398.15, 
	 "num_atms": 47, 
	 "gaussian": { 
		 "optdone": 1, 
		 "sigma_profile": "yes", 
		 "theory": "DFT", 
		 "functional": "B3LYP", 
		 "basiset": "6-31G**", 
		 "properties": { 
			 "R2extent": 7941.4846, 
			 "electric_dipole_moment_norm": 5.03519124662, 
			 "electric_quadrupole_moment_norm": 24.7781421674, 
			 "total_energy": -886.342338598, 
			 "HOMO_LUMO_gap": 0.19504, 
			 "cosmo_polarized_energy": -15.15, 
			 "cosmo_cavitation_energy": 46.03, 
			 "cosmo_dispersion_energy": -30.11, 
			 "cosmo_repulsion_energy": 2.32, 
			 "cosmo_total_nonelectrostatic_energy": 18.24, 
			 "SMD_solvation_energy": 5.07 
		},
		"coords": [
			{
				"x": 3.2546620063,
				"y": 3.7840408994,
				"z": -0.230699669,
				"element": "O" 
			},
			{
				"x": 2.6055092663,
				"y": 2.8376323595,
				"z": 0.2036672372,
				"element": "C" 
			},
			{
				"x": 2.879516402,
				"y": 1.3917903972,
				"z": -0.2149844617,
				"element": "C" 
			},
			{
				"x": 3.8734728857,
				"y": 1.2932593261,
				"z": -1.3843962286,
				"element": "C" 
			},
			{
				"x": 3.2674531036,
				"y": 1.8200066387,
				"z": -2.7243538605,
				"element": "C" 
			},
			{
				"x": 2.9627225521,
				"y": 0.7026976563,
				"z": -3.7427599357,
				"element": "C" 
			},
			{
				"x": 2.3341978989,
				"y": -0.5191894885,
				"z": -3.0593786749,
				"element": "C" 
			},
			{
				"x": 3.2950388293,
				"y": -1.1407020531,
				"z": -2.0110480119,
				"element": "C" 
			},
			{
				"x": 4.3886699255,
				"y": -0.149091185,
				"z": -1.5559070215,
				"element": "C" 
			},
			{
				"x": 1.6152641237,
				"y": 3.0399775964,
				"z": 1.1327007986,
				"element": "N" 
			},
			{
				"x": 0.6700363897,
				"y": 2.0717697046,
				"z": 1.6716218155,
				"element": "C" 
			},
			{
				"x": -0.6599118996,
				"y": 2.0378851257,
				"z": 0.8975589566,
				"element": "C" 
			},
			{
				"x": -1.6600818857,
				"y": 0.9480769152,
				"z": 1.3530104184,
				"element": "C" 
			},
			{
				"x": -2.0682219535,
				"y": 1.040773158,
				"z": 2.8522551687,
				"element": "C" 
			},
			{
				"x": -1.1842243042,
				"y": 0.0732615158,
				"z": 3.5274123005,
				"element": "N" 
			},
			{
				"x": -0.8292319623,
				"y": -0.9079156407,
				"z": 2.5922999435,
				"element": "C" 
			},
			{
				"x": -1.0816750823,
				"y": -0.4564445432,
				"z": 1.2849761786,
				"element": "C" 
			},
			{
				"x": -0.7554556111,
				"y": -1.2519210467,
				"z": 0.1945538685,
				"element": "C" 
			},
			{
				"x": -0.1832342898,
				"y": -2.5148455184,
				"z": 0.411237273,
				"element": "C" 
			},
			{
				"x": 0.0599000249,
				"y": -2.9553679353,
				"z": 1.7147246781,
				"element": "C" 
			},
			{
				"x": -0.2569961215,
				"y": -2.1601971882,
				"z": 2.822173149,
				"element": "C" 
			},
			{
				"x": 3.2799897017,
				"y": 0.8623283453,
				"z": 0.6618948398,
				"element": "H" 
			},
			{
				"x": 1.9365079443,
				"y": 0.8887024801,
				"z": -0.4590129279,
				"element": "H" 
			},
			{
				"x": 4.7196568773,
				"y": 1.9341901239,
				"z": -1.1195606818,
				"element": "H" 
			},
			{
				"x": 3.9466550625,
				"y": 2.5513431181,
				"z": -3.1742514782,
				"element": "H" 
			},
			{
				"x": 2.3446638882,
				"y": 2.3722707987,
				"z": -2.5119517399,
				"element": "H" 
			},
			{
				"x": 3.8850122532,
				"y": 0.3946690926,
				"z": -4.2532264797,
				"element": "H" 
			},
			{
				"x": 2.2989203726,
				"y": 1.0880488673,
				"z": -4.5258346082,
				"element": "H" 
			},
			{
				"x": 1.402066862,
				"y": -0.2034047653,
				"z": -2.5710220597,
				"element": "H" 
			},
			{
				"x": 2.044424369,
				"y": -1.27072419,
				"z": -3.8027888944,
				"element": "H" 
			},
			{
				"x": 3.7813558993,
				"y": -2.0304810608,
				"z": -2.4284368541,
				"element": "H" 
			},
			{
				"x": 2.7184916179,
				"y": -1.4904901203,
				"z": -1.1466566876,
				"element": "H" 
			},
			{
				"x": 5.1951534457,
				"y": -0.1362287125,
				"z": -2.2995807718,
				"element": "H" 
			},
			{
				"x": 4.8468802427,
				"y": -0.5009170691,
				"z": -0.6231232194,
				"element": "H" 
			},
			{
				"x": 1.4728547938,
				"y": 4.0187358599,
				"z": 1.3473997282,
				"element": "H" 
			},
			{
				"x": 1.1322549575,
				"y": 1.0833602505,
				"z": 1.6621998874,
				"element": "H" 
			},
			{
				"x": 0.4927638123,
				"y": 2.3111217007,
				"z": 2.7253360055,
				"element": "H" 
			},
			{
				"x": -1.1441793141,
				"y": 3.0212210339,
				"z": 0.9696322537,
				"element": "H" 
			},
			{
				"x": -0.4374810869,
				"y": 1.8828604533,
				"z": -0.1655245204,
				"element": "H" 
			},
			{
				"x": -2.5507574903,
				"y": 1.0453948853,
				"z": 0.722139639,
				"element": "H" 
			},
			{
				"x": -1.9358855603,
				"y": 2.0469929105,
				"z": 3.2641904345,
				"element": "H" 
			},
			{
				"x": -3.1272790387,
				"y": 0.7651616629,
				"z": 2.9685596318,
				"element": "H" 
			},
			{
				"x": -1.4906855722,
				"y": -0.2540428989,
				"z": 4.4347808952,
				"element": "H" 
			},
			{
				"x": -0.9545630779,
				"y": -0.9091883171,
				"z": -0.818189846,
				"element": "H" 
			},
			{
				"x": 0.0625200465,
				"y": -3.1515222018,
				"z": -0.4328532799,
				"element": "H" 
			},
			{
				"x": 0.4990021964,
				"y": -3.9359129947,
				"z": 1.8767184721,
				"element": "H" 
			},
			{
				"x": -0.0630535004,
				"y": -2.5111859463,
				"z": 3.8318983395,
				"element": "H" 
			}
		],
		 "valence_orbital": [ 
			{
				"type": "occ",
				"energy": -0.28121,
				"method": "rhf"
			},
			{
				"type": "occ",
				"energy": -0.24831,
				"method": "rhf"
			},
			{
				"type": "occ",
				"energy": -0.23669,
				"method": "rhf"
			},
			{
				"type": "occ",
				"energy": -0.23342,
				"method": "rhf"
			},
			{
				"type": "occ",
				"energy": -0.19982,
				"method": "rhf"
			},
			{
				"type": "unocc",
				"energy": -0.00478,
				"method": "rhf"
			},
			{
				"type": "unocc",
				"energy": 0.01255,
				"method": "rhf"
			},
			{
				"type": "unocc",
				"energy": 0.03998,
				"method": "rhf"
			},
			{
				"type": "unocc",
				"energy": 0.06407,
				"method": "rhf"
			},
			{
				"type": "unocc",
				"energy": 0.07884,
				"method": "rhf"
			}
		],
		"cosmo_sigma_profile": { 
			"-0.025": 0.0,
			"-0.024": 0.0,
			"-0.023": 0.0,
			"-0.022": 0.0,
			"-0.021": 0.0,
			"-0.02": 0.0,
			"-0.019": 0.0,
			"-0.018": 0.0,
			"-0.017": 0.0,
			"-0.016": 0.0,
			"-0.015": 0.0,
			"-0.014": 0.0,
			"-0.013": 0.41049473913,
			"-0.012": 2.79407975158,
			"-0.011": 1.69133615325,
			"-0.01": 2.50225743806,
			"-0.009": 1.74174352648,
			"-0.008": 2.67351785545,
			"-0.007": 2.38229083256,
			"-0.006": 3.51377146224,
			"-0.005": 11.6305547981,
			"-0.004": 24.4927374975,
			"-0.003": 37.6751853321,
			"-0.002": 46.2291555777,
			"-0.001": 44.2575081001,
			"0.0": 48.1234780501,
			"0.001": 36.8335927546,
			"0.002": 22.1385233781,
			"0.003": 9.63607797768,
			"0.004": 10.3022025267,
			"0.005": 9.83618416468,
			"0.006": 8.73754020737,
			"0.007": 8.28738205315,
			"0.008": 2.56748713745,
			"0.009": 2.25421210953,
			"0.01": 1.85216321922,
			"0.011": 2.06226038072,
			"0.012": 2.21444345572,
			"0.013": 2.22586223947,
			"0.014": 4.42148918816,
			"0.015": 3.56500292166,
			"0.016": 0.0991913773162,
			"0.017": 0.0,
			"0.018": 0.0,
			"0.019": 0.0,
			"0.02": 0.0,
			"0.021": 0.0,
			"0.022": 0.0,
			"0.023": 0.0,
			"0.024": 0.0,
			"0.025": 0.0
		}
	}
}
