{
	 "smiles": "CC1(C)C2=CC=CC=C2N=C1C(=O)C1=CC=CC=C1", 
	 "Tm": 356.15, 
	 "num_atms": 34, 
	 "gaussian": { 
		 "optdone": 1, 
		 "sigma_profile": "yes", 
		 "theory": "DFT", 
		 "functional": "B3LYP", 
		 "basiset": "6-31G**", 
		 "properties": { 
			 "R2extent": 5900.0374, 
			 "electric_dipole_moment_norm": 1.65584084078, 
			 "electric_quadrupole_moment_norm": 11.1334613899, 
			 "total_energy": -786.827035406, 
			 "HOMO_LUMO_gap": 0.14954, 
			 "cosmo_polarized_energy": -7.73, 
			 "cosmo_cavitation_energy": 36.83, 
			 "cosmo_dispersion_energy": -26.21, 
			 "cosmo_repulsion_energy": 1.98, 
			 "cosmo_total_nonelectrostatic_energy": 12.6, 
			 "SMD_solvation_energy": 5.55 
		},
		"coords": [
			{
				"x": 1.716928115,
				"y": -1.2599872816,
				"z": -0.997131968,
				"element": "C" 
			},
			{
				"x": 0.5671011304,
				"y": -1.1338711406,
				"z": 0.0307276662,
				"element": "C" 
			},
			{
				"x": -0.4208386967,
				"y": -2.316224977,
				"z": -0.111238494,
				"element": "C" 
			},
			{
				"x": 1.0943059431,
				"y": -1.0137788737,
				"z": 1.4455912662,
				"element": "C" 
			},
			{
				"x": 1.8460152751,
				"y": -1.8706755603,
				"z": 2.2388603596,
				"element": "C" 
			},
			{
				"x": 2.1808736885,
				"y": -1.4589319831,
				"z": 3.5362217089,
				"element": "C" 
			},
			{
				"x": 1.7705364158,
				"y": -0.2130072689,
				"z": 4.0290302451,
				"element": "C" 
			},
			{
				"x": 1.0144299429,
				"y": 0.6540219492,
				"z": 3.2372695466,
				"element": "C" 
			},
			{
				"x": 0.6874025065,
				"y": 0.2336334097,
				"z": 1.9485450422,
				"element": "C" 
			},
			{
				"x": -0.0625105303,
				"y": 0.9557879343,
				"z": 0.9995771587,
				"element": "N" 
			},
			{
				"x": -0.1473916642,
				"y": 0.2278923364,
				"z": -0.0710915972,
				"element": "C" 
			},
			{
				"x": -0.8706443671,
				"y": 0.6466766021,
				"z": -1.3168698289,
				"element": "C" 
			},
			{
				"x": -0.8659472063,
				"y": -0.1518994941,
				"z": -2.2558338146,
				"element": "O" 
			},
			{
				"x": -1.5803897567,
				"y": 1.9596224042,
				"z": -1.466380219,
				"element": "C" 
			},
			{
				"x": -2.2055366342,
				"y": 2.1840908827,
				"z": -2.7079541635,
				"element": "C" 
			},
			{
				"x": -2.8918452776,
				"y": 3.3673382189,
				"z": -2.9556334413,
				"element": "C" 
			},
			{
				"x": -2.9666217617,
				"y": 4.3510855154,
				"z": -1.9648245848,
				"element": "C" 
			},
			{
				"x": -2.351066228,
				"y": 4.1399536049,
				"z": -0.730423668,
				"element": "C" 
			},
			{
				"x": -1.6609043184,
				"y": 2.9545517554,
				"z": -0.4759979113,
				"element": "C" 
			},
			{
				"x": 2.2678194156,
				"y": -2.19019301,
				"z": -0.8233995885,
				"element": "H" 
			},
			{
				"x": 1.313016437,
				"y": -1.2706459554,
				"z": -2.0107361479,
				"element": "H" 
			},
			{
				"x": 2.4225502278,
				"y": -0.4285798606,
				"z": -0.9053400672,
				"element": "H" 
			},
			{
				"x": -0.8400049219,
				"y": -2.3344793505,
				"z": -1.1184971483,
				"element": "H" 
			},
			{
				"x": 0.1028331883,
				"y": -3.2598637367,
				"z": 0.0738480288,
				"element": "H" 
			},
			{
				"x": -1.2385358997,
				"y": -2.2374602889,
				"z": 0.6117665333,
				"element": "H" 
			},
			{
				"x": 2.1721866096,
				"y": -2.8402971639,
				"z": 1.8717943937,
				"element": "H" 
			},
			{
				"x": 2.7683402572,
				"y": -2.1162747854,
				"z": 4.170820517,
				"element": "H" 
			},
			{
				"x": 2.0445591795,
				"y": 0.0798584908,
				"z": 5.0382350246,
				"element": "H" 
			},
			{
				"x": 0.6873328623,
				"y": 1.6227460219,
				"z": 3.601060135,
				"element": "H" 
			},
			{
				"x": -2.1365737072,
				"y": 1.4096370162,
				"z": -3.4636108994,
				"element": "H" 
			},
			{
				"x": -3.3687875561,
				"y": 3.5253647145,
				"z": -3.9186584362,
				"element": "H" 
			},
			{
				"x": -3.5024135433,
				"y": 5.2769339943,
				"z": -2.155702373,
				"element": "H" 
			},
			{
				"x": -2.4069696334,
				"y": 4.9018635456,
				"z": 0.0418127552,
				"element": "H" 
			},
			{
				"x": -1.1838494917,
				"y": 2.7908123341,
				"z": 0.4805639698,
				"element": "H" 
			}
		],
		 "valence_orbital": [ 
			{
				"type": "occ",
				"energy": -0.25474,
				"method": "rhf"
			},
			{
				"type": "occ",
				"energy": -0.25429,
				"method": "rhf"
			},
			{
				"type": "occ",
				"energy": -0.25119,
				"method": "rhf"
			},
			{
				"type": "occ",
				"energy": -0.24981,
				"method": "rhf"
			},
			{
				"type": "occ",
				"energy": -0.23714,
				"method": "rhf"
			},
			{
				"type": "unocc",
				"energy": -0.0876,
				"method": "rhf"
			},
			{
				"type": "unocc",
				"energy": -0.02378,
				"method": "rhf"
			},
			{
				"type": "unocc",
				"energy": -0.00869,
				"method": "rhf"
			},
			{
				"type": "unocc",
				"energy": -0.00025,
				"method": "rhf"
			},
			{
				"type": "unocc",
				"energy": 0.0228,
				"method": "rhf"
			}
		],
		"cosmo_sigma_profile": { 
			"-0.025": 0.0,
			"-0.024": 0.0,
			"-0.023": 0.0,
			"-0.022": 0.0,
			"-0.021": 0.0,
			"-0.02": 0.0,
			"-0.019": 0.0,
			"-0.018": 0.0,
			"-0.017": 0.0,
			"-0.016": 0.0,
			"-0.015": 0.0,
			"-0.014": 0.0,
			"-0.013": 0.0,
			"-0.012": 0.0,
			"-0.011": 0.0,
			"-0.01": 0.0,
			"-0.009": 0.0,
			"-0.008": 0.0,
			"-0.007": 1.23329357901,
			"-0.006": 12.8759215264,
			"-0.005": 18.3878777548,
			"-0.004": 28.8974178957,
			"-0.003": 25.4103505012,
			"-0.002": 24.858565355,
			"-0.001": 22.5949369239,
			"0.0": 30.4251815314,
			"0.001": 25.41522228,
			"0.002": 24.5303131826,
			"0.003": 24.5354730844,
			"0.004": 26.8154805485,
			"0.005": 13.8031266682,
			"0.006": 3.6422584402,
			"0.007": 3.31180503218,
			"0.008": 1.83723057499,
			"0.009": 1.52203248487,
			"0.01": 1.46733246445,
			"0.011": 2.06431226594,
			"0.012": 0.711525304282,
			"0.013": 0.0,
			"0.014": 0.0,
			"0.015": 0.0,
			"0.016": 0.0,
			"0.017": 0.0,
			"0.018": 0.0,
			"0.019": 0.0,
			"0.02": 0.0,
			"0.021": 0.0,
			"0.022": 0.0,
			"0.023": 0.0,
			"0.024": 0.0,
			"0.025": 0.0
		}
	}
}
