{
	 "smiles": "N#CC(=CC1=CC=CS1)C#N", 
	 "Tm": 364.65, 
	 "num_atms": 15, 
	 "gaussian": { 
		 "optdone": 1, 
		 "sigma_profile": "yes", 
		 "theory": "DFT", 
		 "functional": "B3LYP", 
		 "basiset": "6-31G**", 
		 "properties": { 
			 "R2extent": 2345.0638, 
			 "electric_dipole_moment_norm": 6.65556807042, 
			 "electric_quadrupole_moment_norm": 5.85088494418, 
			 "total_energy": -814.879085771, 
			 "HOMO_LUMO_gap": 0.1401, 
			 "cosmo_polarized_energy": -13.09, 
			 "cosmo_cavitation_energy": 23.85, 
			 "cosmo_dispersion_energy": -16.85, 
			 "cosmo_repulsion_energy": 1.3, 
			 "cosmo_total_nonelectrostatic_energy": 8.3, 
			 "SMD_solvation_energy": 6.88 
		},
		"coords": [
			{
				"x": -3.0567845462,
				"y": -0.7784941575,
				"z": -0.0052947243,
				"element": "N" 
			},
			{
				"x": -2.2367200809,
				"y": -0.2379275483,
				"z": 0.6197156151,
				"element": "C" 
			},
			{
				"x": -1.2209657605,
				"y": 0.426410028,
				"z": 1.3745968804,
				"element": "C" 
			},
			{
				"x": -0.0185363739,
				"y": 0.8235635838,
				"z": 0.8477016451,
				"element": "C" 
			},
			{
				"x": 0.4749936031,
				"y": 0.6792081724,
				"z": -0.4894072601,
				"element": "C" 
			},
			{
				"x": -0.0839016131,
				"y": 0.1140502777,
				"z": -1.6297899049,
				"element": "C" 
			},
			{
				"x": 0.7642404837,
				"y": 0.1867808866,
				"z": -2.7584606821,
				"element": "C" 
			},
			{
				"x": 1.9650631582,
				"y": 0.8023249561,
				"z": -2.4890811707,
				"element": "C" 
			},
			{
				"x": 2.0801723999,
				"y": 1.3044723491,
				"z": -0.848877002,
				"element": "S" 
			},
			{
				"x": -1.508250626,
				"y": 0.6754514531,
				"z": 2.7549166092,
				"element": "C" 
			},
			{
				"x": -1.7365469889,
				"y": 0.880405427,
				"z": 3.8775915371,
				"element": "N" 
			},
			{
				"x": 0.6483643883,
				"y": 1.3167726896,
				"z": 1.5506476642,
				"element": "H" 
			},
			{
				"x": -1.06824169,
				"y": -0.3348357738,
				"z": -1.6476352916,
				"element": "H" 
			},
			{
				"x": 0.5005420008,
				"y": -0.2003434708,
				"z": -3.7354385194,
				"element": "H" 
			},
			{
				"x": 2.7852716456,
				"y": 0.9854611273,
				"z": -3.169785396,
				"element": "H" 
			}
		],
		 "valence_orbital": [ 
			{
				"type": "occ",
				"energy": -0.35422,
				"method": "rhf"
			},
			{
				"type": "occ",
				"energy": -0.34348,
				"method": "rhf"
			},
			{
				"type": "occ",
				"energy": -0.32366,
				"method": "rhf"
			},
			{
				"type": "occ",
				"energy": -0.28786,
				"method": "rhf"
			},
			{
				"type": "occ",
				"energy": -0.25105,
				"method": "rhf"
			},
			{
				"type": "unocc",
				"energy": -0.11095,
				"method": "rhf"
			},
			{
				"type": "unocc",
				"energy": -0.01977,
				"method": "rhf"
			},
			{
				"type": "unocc",
				"energy": -0.0176,
				"method": "rhf"
			},
			{
				"type": "unocc",
				"energy": -0.00466,
				"method": "rhf"
			},
			{
				"type": "unocc",
				"energy": 0.03403,
				"method": "rhf"
			}
		],
		"cosmo_sigma_profile": { 
			"-0.025": 0.0,
			"-0.024": 0.0,
			"-0.023": 0.0,
			"-0.022": 0.0,
			"-0.021": 0.0,
			"-0.02": 0.0,
			"-0.019": 0.0,
			"-0.018": 0.0,
			"-0.017": 0.0,
			"-0.016": 0.0,
			"-0.015": 0.0,
			"-0.014": 0.0,
			"-0.013": 0.0,
			"-0.012": 0.140323987049,
			"-0.011": 2.42878442426,
			"-0.01": 4.85041101655,
			"-0.009": 3.75716517622,
			"-0.008": 5.83141121965,
			"-0.007": 6.19973487847,
			"-0.006": 8.81519056959,
			"-0.005": 6.73042125473,
			"-0.004": 12.5635134083,
			"-0.003": 18.5216411043,
			"-0.002": 14.935195857,
			"-0.001": 12.8363570118,
			"0.0": 15.91184678,
			"0.001": 18.6151951698,
			"0.002": 14.4933947521,
			"0.003": 5.80505481306,
			"0.004": 3.26790236783,
			"0.005": 4.94226174615,
			"0.006": 5.22384763409,
			"0.007": 5.46844974627,
			"0.008": 6.21094458344,
			"0.009": 5.58957502181,
			"0.01": 5.48120509554,
			"0.011": 4.72786524471,
			"0.012": 3.8353820406,
			"0.013": 0.449882610812,
			"0.014": 0.0,
			"0.015": 0.0,
			"0.016": 0.0,
			"0.017": 0.0,
			"0.018": 0.0,
			"0.019": 0.0,
			"0.02": 0.0,
			"0.021": 0.0,
			"0.022": 0.0,
			"0.023": 0.0,
			"0.024": 0.0,
			"0.025": 0.0
		}
	}
}
