{
	 "smiles": "OC(=O)C1=C(ON=C1)C1CC1", 
	 "Tm": 433.15, 
	 "num_atms": 18, 
	 "gaussian": { 
		 "optdone": 1, 
		 "sigma_profile": "yes", 
		 "theory": "DFT", 
		 "functional": "B3LYP", 
		 "basiset": "6-31G**", 
		 "properties": { 
			 "R2extent": 3196.2562, 
			 "electric_dipole_moment_norm": 3.88186358596, 
			 "electric_quadrupole_moment_norm": 8.90819455333, 
			 "total_energy": -551.317795803, 
			 "HOMO_LUMO_gap": 0.21199, 
			 "cosmo_polarized_energy": -11.34, 
			 "cosmo_cavitation_energy": 22.5, 
			 "cosmo_dispersion_energy": -16.62, 
			 "cosmo_repulsion_energy": 1.33, 
			 "cosmo_total_nonelectrostatic_energy": 7.21, 
			 "SMD_solvation_energy": 4.83 
		},
		"coords": [
			{
				"x": -2.9730733524,
				"y": -0.3770587721,
				"z": -1.8471929403,
				"element": "O" 
			},
			{
				"x": -3.5652011049,
				"y": 0.6933885109,
				"z": -1.2516046691,
				"element": "C" 
			},
			{
				"x": -4.5838130763,
				"y": 1.187458061,
				"z": -1.6946627828,
				"element": "O" 
			},
			{
				"x": -2.8753599142,
				"y": 1.179563636,
				"z": -0.0573332232,
				"element": "C" 
			},
			{
				"x": -1.7335906515,
				"y": 0.7989563466,
				"z": 0.6294116845,
				"element": "C" 
			},
			{
				"x": -1.5795711584,
				"y": 1.6270499635,
				"z": 1.6806312882,
				"element": "O" 
			},
			{
				"x": -2.616100383,
				"y": 2.5808933537,
				"z": 1.7200407406,
				"element": "N" 
			},
			{
				"x": -3.3615923728,
				"y": 2.2953184217,
				"z": 0.6894451259,
				"element": "C" 
			},
			{
				"x": -0.6731588389,
				"y": -0.2163340589,
				"z": 0.5459428808,
				"element": "C" 
			},
			{
				"x": -0.0872521497,
				"y": -0.7245298607,
				"z": -0.7634082944,
				"element": "C" 
			},
			{
				"x": -0.9043194214,
				"y": -1.647813185,
				"z": 0.0838696673,
				"element": "C" 
			},
			{
				"x": -3.5298832639,
				"y": -0.5895475223,
				"z": -2.615000045,
				"element": "H" 
			},
			{
				"x": -4.2457837318,
				"y": 2.8807977107,
				"z": 0.4745092124,
				"element": "H" 
			},
			{
				"x": 0.0343074081,
				"y": -0.0951445854,
				"z": 1.3603505278,
				"element": "H" 
			},
			{
				"x": -0.5348611519,
				"y": -0.3663336277,
				"z": -1.682222439,
				"element": "H" 
			},
			{
				"x": 0.9913863309,
				"y": -0.843384256,
				"z": -0.7884689934,
				"element": "H" 
			},
			{
				"x": -0.4045458654,
				"y": -2.4207735257,
				"z": 0.6591713307,
				"element": "H" 
			},
			{
				"x": -1.8947873026,
				"y": -1.9032066105,
				"z": -0.271979071,
				"element": "H" 
			}
		],
		 "valence_orbital": [ 
			{
				"type": "occ",
				"energy": -0.32962,
				"method": "rhf"
			},
			{
				"type": "occ",
				"energy": -0.30935,
				"method": "rhf"
			},
			{
				"type": "occ",
				"energy": -0.30543,
				"method": "rhf"
			},
			{
				"type": "occ",
				"energy": -0.28841,
				"method": "rhf"
			},
			{
				"type": "occ",
				"energy": -0.25702,
				"method": "rhf"
			},
			{
				"type": "unocc",
				"energy": -0.04503,
				"method": "rhf"
			},
			{
				"type": "unocc",
				"energy": -0.00544,
				"method": "rhf"
			},
			{
				"type": "unocc",
				"energy": 0.06342,
				"method": "rhf"
			},
			{
				"type": "unocc",
				"energy": 0.07818,
				"method": "rhf"
			},
			{
				"type": "unocc",
				"energy": 0.09528,
				"method": "rhf"
			}
		],
		"cosmo_sigma_profile": { 
			"-0.025": 0.0,
			"-0.024": 0.0,
			"-0.023": 0.0,
			"-0.022": 0.0,
			"-0.021": 0.0,
			"-0.02": 0.0,
			"-0.019": 0.104563373636,
			"-0.018": 1.01067305675,
			"-0.017": 1.07294359687,
			"-0.016": 0.387435398456,
			"-0.015": 0.990040466313,
			"-0.014": 0.645467812982,
			"-0.013": 0.534769928539,
			"-0.012": 0.647929579911,
			"-0.011": 0.916849737952,
			"-0.01": 1.32894107628,
			"-0.009": 1.46837483345,
			"-0.008": 2.62620432864,
			"-0.007": 3.52807123003,
			"-0.006": 7.17969582334,
			"-0.005": 9.13434882086,
			"-0.004": 8.48535318536,
			"-0.003": 12.9647891023,
			"-0.002": 18.9729114542,
			"-0.001": 21.2867055408,
			"0.0": 16.3996434062,
			"0.001": 12.2547884704,
			"0.002": 9.798282376,
			"0.003": 6.04738839541,
			"0.004": 5.94188237518,
			"0.005": 4.01798455536,
			"0.006": 4.5562138338,
			"0.007": 5.62658792698,
			"0.008": 3.16166329964,
			"0.009": 3.74254118769,
			"0.01": 3.19673574101,
			"0.011": 6.2858728393,
			"0.012": 4.00152368039,
			"0.013": 1.38178023432,
			"0.014": 0.18112798458,
			"0.015": 0.0,
			"0.016": 0.0,
			"0.017": 0.0,
			"0.018": 0.0,
			"0.019": 0.0,
			"0.02": 0.0,
			"0.021": 0.0,
			"0.022": 0.0,
			"0.023": 0.0,
			"0.024": 0.0,
			"0.025": 0.0
		}
	}
}
