{
	 "smiles": "CC(C)C1=C(O)C=CC(C)=C1", 
	 "Tm": 309.65, 
	 "num_atms": 25, 
	 "gaussian": { 
		 "optdone": 1, 
		 "sigma_profile": "yes", 
		 "theory": "DFT", 
		 "functional": "B3LYP", 
		 "basiset": "6-31G**", 
		 "properties": { 
			 "R2extent": 2236.8935, 
			 "electric_dipole_moment_norm": 1.14555101589, 
			 "electric_quadrupole_moment_norm": 7.91010455304, 
			 "total_energy": -464.741052881, 
			 "HOMO_LUMO_gap": 0.21078, 
			 "cosmo_polarized_energy": -7.28, 
			 "cosmo_cavitation_energy": 27.13, 
			 "cosmo_dispersion_energy": -19.41, 
			 "cosmo_repulsion_energy": 1.58, 
			 "cosmo_total_nonelectrostatic_energy": 9.31, 
			 "SMD_solvation_energy": 5.13 
		},
		"coords": [
			{
				"x": 2.0399890289,
				"y": 0.4428158504,
				"z": -2.5286684219,
				"element": "C" 
			},
			{
				"x": 2.4416809241,
				"y": 0.3324412827,
				"z": -1.0455877133,
				"element": "C" 
			},
			{
				"x": 2.8795647875,
				"y": 1.6999132951,
				"z": -0.4870121688,
				"element": "C" 
			},
			{
				"x": 1.3311988022,
				"y": -0.2872508775,
				"z": -0.2050257425,
				"element": "C" 
			},
			{
				"x": 1.5328165508,
				"y": -1.4957405134,
				"z": 0.4875761265,
				"element": "C" 
			},
			{
				"x": 2.7606769628,
				"y": -2.102298082,
				"z": 0.3813263511,
				"element": "O" 
			},
			{
				"x": 0.5094026781,
				"y": -2.0499202368,
				"z": 1.2603487147,
				"element": "C" 
			},
			{
				"x": -0.7270430107,
				"y": -1.4127456773,
				"z": 1.3546175029,
				"element": "C" 
			},
			{
				"x": -0.9662794868,
				"y": -0.212601373,
				"z": 0.6792352076,
				"element": "C" 
			},
			{
				"x": -2.3094644083,
				"y": 0.4769854806,
				"z": 0.7500356149,
				"element": "C" 
			},
			{
				"x": 0.0784340811,
				"y": 0.3225443413,
				"z": -0.0862761824,
				"element": "C" 
			},
			{
				"x": 1.1849064943,
				"y": 1.1145207908,
				"z": -2.664582364,
				"element": "H" 
			},
			{
				"x": 1.7644404798,
				"y": -0.5342409388,
				"z": -2.9376562925,
				"element": "H" 
			},
			{
				"x": 2.8701629173,
				"y": 0.8390946874,
				"z": -3.1240824934,
				"element": "H" 
			},
			{
				"x": 3.3037523565,
				"y": -0.337953514,
				"z": -0.9873115718,
				"element": "H" 
			},
			{
				"x": 2.0616120777,
				"y": 2.4282900876,
				"z": -0.5236582916,
				"element": "H" 
			},
			{
				"x": 3.7125886217,
				"y": 2.106577339,
				"z": -1.0714012623,
				"element": "H" 
			},
			{
				"x": 3.2042776853,
				"y": 1.6157982345,
				"z": 0.5547581728,
				"element": "H" 
			},
			{
				"x": 2.7514501768,
				"y": -2.91329915,
				"z": 0.9050311127,
				"element": "H" 
			},
			{
				"x": 0.6828122021,
				"y": -2.9828849646,
				"z": 1.7942319303,
				"element": "H" 
			},
			{
				"x": -1.5106602285,
				"y": -1.8577902729,
				"z": 1.9626442557,
				"element": "H" 
			},
			{
				"x": -2.1997386863,
				"y": 1.5617302832,
				"z": 0.8543490484,
				"element": "H" 
			},
			{
				"x": -2.8977303746,
				"y": 0.1177067957,
				"z": 1.5997104877,
				"element": "H" 
			},
			{
				"x": -2.9026465727,
				"y": 0.2995172673,
				"z": -0.156111804,
				"element": "H" 
			},
			{
				"x": -0.092304059,
				"y": 1.2592898649,
				"z": -0.6129902168,
				"element": "H" 
			}
		],
		 "valence_orbital": [ 
			{
				"type": "occ",
				"energy": -0.31495,
				"method": "rhf"
			},
			{
				"type": "occ",
				"energy": -0.31359,
				"method": "rhf"
			},
			{
				"type": "occ",
				"energy": -0.31029,
				"method": "rhf"
			},
			{
				"type": "occ",
				"energy": -0.23705,
				"method": "rhf"
			},
			{
				"type": "occ",
				"energy": -0.20716,
				"method": "rhf"
			},
			{
				"type": "unocc",
				"energy": 0.00362,
				"method": "rhf"
			},
			{
				"type": "unocc",
				"energy": 0.02134,
				"method": "rhf"
			},
			{
				"type": "unocc",
				"energy": 0.07288,
				"method": "rhf"
			},
			{
				"type": "unocc",
				"energy": 0.09592,
				"method": "rhf"
			},
			{
				"type": "unocc",
				"energy": 0.10882,
				"method": "rhf"
			}
		],
		"cosmo_sigma_profile": { 
			"-0.025": 0.0,
			"-0.024": 0.0,
			"-0.023": 0.0,
			"-0.022": 0.0,
			"-0.021": 0.0,
			"-0.02": 0.0,
			"-0.019": 0.0,
			"-0.018": 0.099040301699,
			"-0.017": 0.777785141777,
			"-0.016": 1.07958464437,
			"-0.015": 1.06968543673,
			"-0.014": 0.962607834717,
			"-0.013": 0.820183103589,
			"-0.012": 0.911284715787,
			"-0.011": 0.90788398849,
			"-0.01": 1.03483412924,
			"-0.009": 1.10639028696,
			"-0.008": 1.3110551031,
			"-0.007": 1.28504249662,
			"-0.006": 1.29624204796,
			"-0.005": 3.4790519283,
			"-0.004": 11.0854570807,
			"-0.003": 20.0500459508,
			"-0.002": 22.5413254288,
			"-0.001": 23.9297207579,
			"0.0": 25.4773024631,
			"0.001": 28.0568937064,
			"0.002": 14.757646614,
			"0.003": 9.44711890125,
			"0.004": 9.40681806665,
			"0.005": 9.25143748697,
			"0.006": 8.92438462013,
			"0.007": 6.90104035347,
			"0.008": 1.51787230622,
			"0.009": 1.879993022,
			"0.01": 2.0224515385,
			"0.011": 0.774311028615,
			"0.012": 0.0,
			"0.013": 0.0,
			"0.014": 0.0,
			"0.015": 0.0,
			"0.016": 0.0,
			"0.017": 0.0,
			"0.018": 0.0,
			"0.019": 0.0,
			"0.02": 0.0,
			"0.021": 0.0,
			"0.022": 0.0,
			"0.023": 0.0,
			"0.024": 0.0,
			"0.025": 0.0
		}
	}
}
