{
	 "smiles": "ClC1=CC=C(C=O)C(Cl)=C1", 
	 "Tm": 345.15, 
	 "num_atms": 14, 
	 "gaussian": { 
		 "optdone": 1, 
		 "sigma_profile": "yes", 
		 "theory": "DFT", 
		 "functional": "B3LYP", 
		 "basiset": "6-31G**", 
		 "properties": { 
			 "R2extent": 3173.0522, 
			 "electric_dipole_moment_norm": 1.62305246064, 
			 "electric_quadrupole_moment_norm": 13.8995241897, 
			 "total_energy": -1264.75169861, 
			 "HOMO_LUMO_gap": 0.1848, 
			 "cosmo_polarized_energy": -6.01, 
			 "cosmo_cavitation_energy": 22.5, 
			 "cosmo_dispersion_energy": -16.83, 
			 "cosmo_repulsion_energy": 1.36, 
			 "cosmo_total_nonelectrostatic_energy": 7.02, 
			 "SMD_solvation_energy": 4.43 
		},
		"coords": [
			{
				"x": -1.189441879,
				"y": 2.0598648,
				"z": 1.8323737507,
				"element": "Cl" 
			},
			{
				"x": -0.9117872367,
				"y": 1.7090851476,
				"z": 0.1413139106,
				"element": "C" 
			},
			{
				"x": -1.0580096534,
				"y": 2.7263443728,
				"z": -0.8062503379,
				"element": "C" 
			},
			{
				"x": -0.8328338544,
				"y": 2.4255763048,
				"z": -2.1418929823,
				"element": "C" 
			},
			{
				"x": -0.4651477931,
				"y": 1.135064551,
				"z": -2.5577822364,
				"element": "C" 
			},
			{
				"x": -0.2439605069,
				"y": 0.9029932055,
				"z": -4.0099988991,
				"element": "C" 
			},
			{
				"x": -0.3678558421,
				"y": 1.7797092919,
				"z": -4.844876824,
				"element": "O" 
			},
			{
				"x": -0.3283686479,
				"y": 0.1404151399,
				"z": -1.5761620091,
				"element": "C" 
			},
			{
				"x": 0.1280835282,
				"y": -1.5033309179,
				"z": -1.9998287197,
				"element": "Cl" 
			},
			{
				"x": -0.5483686705,
				"y": 0.4143766288,
				"z": -0.2273076977,
				"element": "C" 
			},
			{
				"x": -1.3413964316,
				"y": 3.7250533539,
				"z": -0.4947724236,
				"element": "H" 
			},
			{
				"x": -0.934661724,
				"y": 3.1839439003,
				"z": -2.9120577707,
				"element": "H" 
			},
			{
				"x": 0.043623065,
				"y": -0.1239502735,
				"z": -4.2987393648,
				"element": "H" 
			},
			{
				"x": -0.4387743537,
				"y": -0.3638455052,
				"z": 0.5177816039,
				"element": "H" 
			}
		],
		 "valence_orbital": [ 
			{
				"type": "occ",
				"energy": -0.33726,
				"method": "rhf"
			},
			{
				"type": "occ",
				"energy": -0.33233,
				"method": "rhf"
			},
			{
				"type": "occ",
				"energy": -0.27946,
				"method": "rhf"
			},
			{
				"type": "occ",
				"energy": -0.269,
				"method": "rhf"
			},
			{
				"type": "occ",
				"energy": -0.26779,
				"method": "rhf"
			},
			{
				"type": "unocc",
				"energy": -0.08299,
				"method": "rhf"
			},
			{
				"type": "unocc",
				"energy": -0.03922,
				"method": "rhf"
			},
			{
				"type": "unocc",
				"energy": -0.00673,
				"method": "rhf"
			},
			{
				"type": "unocc",
				"energy": 0.01625,
				"method": "rhf"
			},
			{
				"type": "unocc",
				"energy": 0.03449,
				"method": "rhf"
			}
		],
		"cosmo_sigma_profile": { 
			"-0.025": 0.0,
			"-0.024": 0.0,
			"-0.023": 0.0,
			"-0.022": 0.0,
			"-0.021": 0.0,
			"-0.02": 0.0,
			"-0.019": 0.0,
			"-0.018": 0.0,
			"-0.017": 0.0,
			"-0.016": 0.0,
			"-0.015": 0.0,
			"-0.014": 0.0,
			"-0.013": 0.0,
			"-0.012": 0.0,
			"-0.011": 0.0,
			"-0.01": 0.0111818533929,
			"-0.009": 1.3007604516,
			"-0.008": 3.35156527375,
			"-0.007": 5.66433891681,
			"-0.006": 7.5395810937,
			"-0.005": 8.94017388114,
			"-0.004": 10.093588189,
			"-0.003": 11.5757284092,
			"-0.002": 12.5999277395,
			"-0.001": 21.4439558109,
			"0.0": 28.4742878478,
			"0.001": 17.1983741634,
			"0.002": 13.9885230416,
			"0.003": 17.2900746334,
			"0.004": 10.2315422294,
			"0.005": 1.09237264315,
			"0.006": 1.2377585529,
			"0.007": 2.05582820301,
			"0.008": 1.81776433014,
			"0.009": 2.02224061254,
			"0.01": 3.35158509651,
			"0.011": 3.50984103917,
			"0.012": 1.35703231781,
			"0.013": 0.121409674198,
			"0.014": 0.0,
			"0.015": 0.0,
			"0.016": 0.0,
			"0.017": 0.0,
			"0.018": 0.0,
			"0.019": 0.0,
			"0.02": 0.0,
			"0.021": 0.0,
			"0.022": 0.0,
			"0.023": 0.0,
			"0.024": 0.0,
			"0.025": 0.0
		}
	}
}
