{
	 "smiles": "CCOC(=O)C1=C(N=C(C)S1)C1=CC=CC=C1", 
	 "Tm": 318.65, 
	 "num_atms": 30, 
	 "gaussian": { 
		 "optdone": 1, 
		 "sigma_profile": "yes", 
		 "theory": "DFT", 
		 "functional": "B3LYP", 
		 "basiset": "6-31G**", 
		 "properties": { 
			 "R2extent": 4886.0142, 
			 "electric_dipole_moment_norm": 1.41872666148, 
			 "electric_quadrupole_moment_norm": 18.209666291, 
			 "total_energy": -1106.62322, 
			 "HOMO_LUMO_gap": 0.16505, 
			 "cosmo_polarized_energy": -10.71, 
			 "cosmo_cavitation_energy": 35.97, 
			 "cosmo_dispersion_energy": -25.39, 
			 "cosmo_repulsion_energy": 1.96, 
			 "cosmo_total_nonelectrostatic_energy": 12.54, 
			 "SMD_solvation_energy": 5.61 
		},
		"coords": [
			{
				"x": -4.2078915678,
				"y": -0.8045643332,
				"z": 0.6997940158,
				"element": "C" 
			},
			{
				"x": -3.1141850911,
				"y": -0.9068373039,
				"z": 1.7456044268,
				"element": "C" 
			},
			{
				"x": -1.8500336146,
				"y": -0.7059351317,
				"z": 1.0695017195,
				"element": "O" 
			},
			{
				"x": -0.7621524153,
				"y": -0.6795888345,
				"z": 1.8622035207,
				"element": "C" 
			},
			{
				"x": -0.8082236815,
				"y": -0.8091784195,
				"z": 3.0737972052,
				"element": "O" 
			},
			{
				"x": 0.4970302117,
				"y": -0.430551531,
				"z": 1.1358705371,
				"element": "C" 
			},
			{
				"x": 0.8516613266,
				"y": -0.3280428921,
				"z": -0.2021488467,
				"element": "C" 
			},
			{
				"x": 2.1544583692,
				"y": 0.0809138844,
				"z": -0.4147857278,
				"element": "N" 
			},
			{
				"x": 2.8067908618,
				"y": 0.2605966953,
				"z": 0.7019265621,
				"element": "C" 
			},
			{
				"x": 4.243389848,
				"y": 0.683276606,
				"z": 0.7583561348,
				"element": "C" 
			},
			{
				"x": 1.8745257517,
				"y": -0.0488298441,
				"z": 2.1438288663,
				"element": "S" 
			},
			{
				"x": 0.0468054013,
				"y": -0.6178175986,
				"z": -1.4104636796,
				"element": "C" 
			},
			{
				"x": -0.8130478767,
				"y": -1.723644783,
				"z": -1.4923660671,
				"element": "C" 
			},
			{
				"x": -1.5119386477,
				"y": -1.9904986272,
				"z": -2.6681885777,
				"element": "C" 
			},
			{
				"x": -1.363739261,
				"y": -1.158509484,
				"z": -3.7800580657,
				"element": "C" 
			},
			{
				"x": -0.498609615,
				"y": -0.0643830056,
				"z": -3.7135196394,
				"element": "C" 
			},
			{
				"x": 0.2096487333,
				"y": 0.1978266608,
				"z": -2.5426449607,
				"element": "C" 
			},
			{
				"x": -4.0761604295,
				"y": -1.557751971,
				"z": -0.0818674609,
				"element": "H" 
			},
			{
				"x": -5.18390056,
				"y": -0.9600396865,
				"z": 1.1700679753,
				"element": "H" 
			},
			{
				"x": -4.2049217455,
				"y": 0.1817202968,
				"z": 0.2275329989,
				"element": "H" 
			},
			{
				"x": -3.2183963301,
				"y": -0.150211128,
				"z": 2.5289485915,
				"element": "H" 
			},
			{
				"x": -3.1001454188,
				"y": -1.8861122247,
				"z": 2.2351414445,
				"element": "H" 
			},
			{
				"x": 4.587754125,
				"y": 0.8799002813,
				"z": -0.2583307618,
				"element": "H" 
			},
			{
				"x": 4.3728239447,
				"y": 1.5878568546,
				"z": 1.3612892273,
				"element": "H" 
			},
			{
				"x": 4.8712059977,
				"y": -0.0999287789,
				"z": 1.1967531262,
				"element": "H" 
			},
			{
				"x": -0.9221755953,
				"y": -2.3816411175,
				"z": -0.6384288106,
				"element": "H" 
			},
			{
				"x": -2.1655517446,
				"y": -2.8567447636,
				"z": -2.7197046178,
				"element": "H" 
			},
			{
				"x": -1.9105413392,
				"y": -1.3678663941,
				"z": -4.6950746258,
				"element": "H" 
			},
			{
				"x": -0.3697519635,
				"y": 0.5822187262,
				"z": -4.5768129476,
				"element": "H" 
			},
			{
				"x": 0.8992723261,
				"y": 1.0334678473,
				"z": -2.492121563,
				"element": "H" 
			}
		],
		 "valence_orbital": [ 
			{
				"type": "occ",
				"energy": -0.2858,
				"method": "rhf"
			},
			{
				"type": "occ",
				"energy": -0.26861,
				"method": "rhf"
			},
			{
				"type": "occ",
				"energy": -0.26106,
				"method": "rhf"
			},
			{
				"type": "occ",
				"energy": -0.24884,
				"method": "rhf"
			},
			{
				"type": "occ",
				"energy": -0.22756,
				"method": "rhf"
			},
			{
				"type": "unocc",
				"energy": -0.06251,
				"method": "rhf"
			},
			{
				"type": "unocc",
				"energy": -0.00703,
				"method": "rhf"
			},
			{
				"type": "unocc",
				"energy": 0.00101,
				"method": "rhf"
			},
			{
				"type": "unocc",
				"energy": 0.01974,
				"method": "rhf"
			},
			{
				"type": "unocc",
				"energy": 0.0265,
				"method": "rhf"
			}
		],
		"cosmo_sigma_profile": { 
			"-0.025": 0.0,
			"-0.024": 0.0,
			"-0.023": 0.0,
			"-0.022": 0.0,
			"-0.021": 0.0,
			"-0.02": 0.0,
			"-0.019": 0.0,
			"-0.018": 0.0,
			"-0.017": 0.0,
			"-0.016": 0.0,
			"-0.015": 0.0,
			"-0.014": 0.0,
			"-0.013": 0.0,
			"-0.012": 0.0,
			"-0.011": 0.0,
			"-0.01": 0.0,
			"-0.009": 0.0,
			"-0.008": 0.0,
			"-0.007": 0.856616693306,
			"-0.006": 12.6743412063,
			"-0.005": 24.6757913351,
			"-0.004": 29.4632573452,
			"-0.003": 30.0897312632,
			"-0.002": 27.5299191165,
			"-0.001": 25.6534481294,
			"0.0": 25.7456063042,
			"0.001": 20.1948043986,
			"0.002": 18.5675763034,
			"0.003": 15.3796777694,
			"0.004": 13.2996496449,
			"0.005": 14.7757223939,
			"0.006": 6.53803873446,
			"0.007": 4.20306941193,
			"0.008": 3.70487564003,
			"0.009": 2.91023602295,
			"0.01": 2.91181157454,
			"0.011": 4.34546918921,
			"0.012": 4.36074312931,
			"0.013": 0.609475548899,
			"0.014": 0.252606880317,
			"0.015": 0.0,
			"0.016": 0.0,
			"0.017": 0.0,
			"0.018": 0.0,
			"0.019": 0.0,
			"0.02": 0.0,
			"0.021": 0.0,
			"0.022": 0.0,
			"0.023": 0.0,
			"0.024": 0.0,
			"0.025": 0.0
		}
	}
}
