{
	 "smiles": "COC(=O)C(NC(=O)OCC1=CC=CC=C1)P(=O)(OC)OC", 
	 "Tm": 351.15, 
	 "num_atms": 40, 
	 "gaussian": { 
		 "optdone": 1, 
		 "sigma_profile": "yes", 
		 "theory": "DFT", 
		 "functional": "B3LYP", 
		 "basiset": "6-31G**", 
		 "properties": { 
			 "R2extent": 7014.2007, 
			 "electric_dipole_moment_norm": 5.16515553493, 
			 "electric_quadrupole_moment_norm": 14.2215415494, 
			 "total_energy": -1428.96576717, 
			 "HOMO_LUMO_gap": 0.23272, 
			 "cosmo_polarized_energy": -25.06, 
			 "cosmo_cavitation_energy": 45.52, 
			 "cosmo_dispersion_energy": -29.05, 
			 "cosmo_repulsion_energy": 2.21, 
			 "cosmo_total_nonelectrostatic_energy": 18.69, 
			 "SMD_solvation_energy": 12.72 
		},
		"coords": [
			{
				"x": 2.9323360337,
				"y": 2.0615531294,
				"z": -1.1614847222,
				"element": "C" 
			},
			{
				"x": 2.0087917891,
				"y": 2.0326614757,
				"z": -0.0545558178,
				"element": "O" 
			},
			{
				"x": 0.7369949818,
				"y": 1.7349519641,
				"z": -0.3794767899,
				"element": "C" 
			},
			{
				"x": 0.3277186994,
				"y": 1.5922372662,
				"z": -1.5055291458,
				"element": "O" 
			},
			{
				"x": -0.1346508412,
				"y": 1.6400176004,
				"z": 0.8813316982,
				"element": "C" 
			},
			{
				"x": -1.5241118919,
				"y": 1.3631064154,
				"z": 0.5862989884,
				"element": "N" 
			},
			{
				"x": -1.9532676329,
				"y": 0.2164260648,
				"z": -0.0671001768,
				"element": "C" 
			},
			{
				"x": -3.0363955514,
				"y": 0.1207909089,
				"z": -0.6060873774,
				"element": "O" 
			},
			{
				"x": -1.027169405,
				"y": -0.7516984693,
				"z": 0.0549418109,
				"element": "O" 
			},
			{
				"x": -1.2906938718,
				"y": -2.0311554672,
				"z": -0.5716296136,
				"element": "C" 
			},
			{
				"x": -0.2404472062,
				"y": -2.3325241583,
				"z": -1.612285013,
				"element": "C" 
			},
			{
				"x": 1.1219015523,
				"y": -2.2876087773,
				"z": -1.2790840208,
				"element": "C" 
			},
			{
				"x": 2.0845128999,
				"y": -2.5963549226,
				"z": -2.2395279146,
				"element": "C" 
			},
			{
				"x": 1.7015972417,
				"y": -2.9587177919,
				"z": -3.5346631093,
				"element": "C" 
			},
			{
				"x": 0.3484900411,
				"y": -3.0043288019,
				"z": -3.8691791209,
				"element": "C" 
			},
			{
				"x": -0.6175297388,
				"y": -2.6871930551,
				"z": -2.9110807276,
				"element": "C" 
			},
			{
				"x": 0.6507800711,
				"y": 0.5016269696,
				"z": 2.1566837742,
				"element": "P" 
			},
			{
				"x": 1.5092442015,
				"y": -0.6024120697,
				"z": 1.6712435897,
				"element": "O" 
			},
			{
				"x": -0.5643410845,
				"y": 0.0063661267,
				"z": 3.0856023656,
				"element": "O" 
			},
			{
				"x": -1.3515269857,
				"y": 0.8951553992,
				"z": 3.8956202619,
				"element": "C" 
			},
			{
				"x": 1.4123988449,
				"y": 1.6057296764,
				"z": 3.0758200623,
				"element": "O" 
			},
			{
				"x": 2.8345986291,
				"y": 1.5224014116,
				"z": 3.2898334775,
				"element": "C" 
			},
			{
				"x": 3.9052432734,
				"y": 2.2859193022,
				"z": -0.7257581669,
				"element": "H" 
			},
			{
				"x": 2.9462245681,
				"y": 1.0909185424,
				"z": -1.6615918621,
				"element": "H" 
			},
			{
				"x": 2.6430860207,
				"y": 2.832873904,
				"z": -1.8788529637,
				"element": "H" 
			},
			{
				"x": -0.0928453329,
				"y": 2.6191717854,
				"z": 1.3701508114,
				"element": "H" 
			},
			{
				"x": -2.0865613981,
				"y": 2.1609626761,
				"z": 0.3234483879,
				"element": "H" 
			},
			{
				"x": -1.2632421873,
				"y": -2.7611757799,
				"z": 0.2432963811,
				"element": "H" 
			},
			{
				"x": -2.2935885566,
				"y": -2.0069743202,
				"z": -1.0009592812,
				"element": "H" 
			},
			{
				"x": 1.4183670584,
				"y": -1.9961289947,
				"z": -0.2748228514,
				"element": "H" 
			},
			{
				"x": 3.1381422898,
				"y": -2.5615737812,
				"z": -1.9751517251,
				"element": "H" 
			},
			{
				"x": 2.4553034347,
				"y": -3.2027146847,
				"z": -4.2783825367,
				"element": "H" 
			},
			{
				"x": 0.0427965355,
				"y": -3.2788775809,
				"z": -4.8748831843,
				"element": "H" 
			},
			{
				"x": -1.671550875,
				"y": -2.7125735462,
				"z": -3.1763696266,
				"element": "H" 
			},
			{
				"x": -2.0134478977,
				"y": 1.4965899294,
				"z": 3.2656673037,
				"element": "H" 
			},
			{
				"x": -1.9529141963,
				"y": 0.2605980668,
				"z": 4.5480887026,
				"element": "H" 
			},
			{
				"x": -0.7097000973,
				"y": 1.5416364056,
				"z": 4.499825626,
				"element": "H" 
			},
			{
				"x": 3.0280017384,
				"y": 1.8919313385,
				"z": 4.2988170218,
				"element": "H" 
			},
			{
				"x": 3.183717034,
				"y": 0.4931615869,
				"z": 3.1898031326,
				"element": "H" 
			},
			{
				"x": 3.3452378123,
				"y": 2.1541242556,
				"z": 2.5579823521,
				"element": "H" 
			}
		],
		 "valence_orbital": [ 
			{
				"type": "occ",
				"energy": -0.28437,
				"method": "rhf"
			},
			{
				"type": "occ",
				"energy": -0.27523,
				"method": "rhf"
			},
			{
				"type": "occ",
				"energy": -0.26019,
				"method": "rhf"
			},
			{
				"type": "occ",
				"energy": -0.2396,
				"method": "rhf"
			},
			{
				"type": "occ",
				"energy": -0.23582,
				"method": "rhf"
			},
			{
				"type": "unocc",
				"energy": -0.0031,
				"method": "rhf"
			},
			{
				"type": "unocc",
				"energy": 0.00231,
				"method": "rhf"
			},
			{
				"type": "unocc",
				"energy": 0.01011,
				"method": "rhf"
			},
			{
				"type": "unocc",
				"energy": 0.04724,
				"method": "rhf"
			},
			{
				"type": "unocc",
				"energy": 0.05293,
				"method": "rhf"
			}
		],
		"cosmo_sigma_profile": { 
			"-0.025": 0.0,
			"-0.024": 0.0,
			"-0.023": 0.0,
			"-0.022": 0.0,
			"-0.021": 0.0,
			"-0.02": 0.0,
			"-0.019": 0.0,
			"-0.018": 0.0,
			"-0.017": 0.0,
			"-0.016": 0.189884659103,
			"-0.015": 1.4149637617,
			"-0.014": 1.86336116959,
			"-0.013": 1.20184955119,
			"-0.012": 1.59119665124,
			"-0.011": 2.13645299,
			"-0.01": 2.33789243715,
			"-0.009": 2.2431700551,
			"-0.008": 1.90754126273,
			"-0.007": 6.74329393087,
			"-0.006": 22.3820744137,
			"-0.005": 32.7617674823,
			"-0.004": 39.7027128138,
			"-0.003": 33.4052617444,
			"-0.002": 20.9937521909,
			"-0.001": 19.0652272739,
			"0.0": 18.2523220718,
			"0.001": 17.4362463787,
			"0.002": 18.1649685934,
			"0.003": 17.5303049542,
			"0.004": 15.834544422,
			"0.005": 17.2040438558,
			"0.006": 15.9266925571,
			"0.007": 8.66693372681,
			"0.008": 6.79913280803,
			"0.009": 6.3182021685,
			"0.01": 7.59154397956,
			"0.011": 6.90791065903,
			"0.012": 7.11555211345,
			"0.013": 3.92524338096,
			"0.014": 1.37226728735,
			"0.015": 0.178218690742,
			"0.016": 0.0,
			"0.017": 0.0,
			"0.018": 0.0,
			"0.019": 0.0,
			"0.02": 0.0,
			"0.021": 0.0,
			"0.022": 0.0,
			"0.023": 0.0,
			"0.024": 0.0,
			"0.025": 0.0
		}
	}
}
