{
	 "smiles": "CCC1=CC(OC)=C(O)C=C1", 
	 "Tm": 288.15, 
	 "num_atms": 23, 
	 "gaussian": { 
		 "optdone": 1, 
		 "sigma_profile": "yes", 
		 "theory": "DFT", 
		 "functional": "B3LYP", 
		 "basiset": "6-31G**", 
		 "properties": { 
			 "R2extent": 2166.4297, 
			 "electric_dipole_moment_norm": 2.74436951047, 
			 "electric_quadrupole_moment_norm": 10.7591385952, 
			 "total_energy": -500.63215948, 
			 "HOMO_LUMO_gap": 0.20961, 
			 "cosmo_polarized_energy": -7.24, 
			 "cosmo_cavitation_energy": 25.99, 
			 "cosmo_dispersion_energy": -18.99, 
			 "cosmo_repulsion_energy": 1.55, 
			 "cosmo_total_nonelectrostatic_energy": 8.55, 
			 "SMD_solvation_energy": 5.47 
		},
		"coords": [
			{
				"x": 2.0417972443,
				"y": -1.6508155676,
				"z": 2.281107373,
				"element": "C" 
			},
			{
				"x": 1.3204937197,
				"y": -0.3094021238,
				"z": 2.0576029386,
				"element": "C" 
			},
			{
				"x": 0.3072406018,
				"y": -0.357067932,
				"z": 0.9324690817,
				"element": "C" 
			},
			{
				"x": 0.717769815,
				"y": -0.1624650815,
				"z": -0.399126351,
				"element": "C" 
			},
			{
				"x": -0.2003679917,
				"y": -0.2450161274,
				"z": -1.440718423,
				"element": "C" 
			},
			{
				"x": 0.0744314875,
				"y": -0.0697378813,
				"z": -2.7785317213,
				"element": "O" 
			},
			{
				"x": 1.4110677172,
				"y": 0.215867811,
				"z": -3.1562040161,
				"element": "C" 
			},
			{
				"x": -1.5568312844,
				"y": -0.5241976349,
				"z": -1.176415709,
				"element": "C" 
			},
			{
				"x": -2.4542185931,
				"y": -0.5994170098,
				"z": -2.2002046028,
				"element": "O" 
			},
			{
				"x": -1.9674787846,
				"y": -0.7148479142,
				"z": 0.137155653,
				"element": "C" 
			},
			{
				"x": -1.0395321625,
				"y": -0.6306217013,
				"z": 1.1804357956,
				"element": "C" 
			},
			{
				"x": 2.5796904278,
				"y": -1.9628265748,
				"z": 1.379650711,
				"element": "H" 
			},
			{
				"x": 2.7660870858,
				"y": -1.5783413503,
				"z": 3.0998298707,
				"element": "H" 
			},
			{
				"x": 1.3264972237,
				"y": -2.4419055248,
				"z": 2.5281975844,
				"element": "H" 
			},
			{
				"x": 0.8174066713,
				"y": -0.0129911254,
				"z": 2.9856321906,
				"element": "H" 
			},
			{
				"x": 2.0659717701,
				"y": 0.4687411462,
				"z": 1.8500799952,
				"element": "H" 
			},
			{
				"x": 1.760342842,
				"y": 0.0570560696,
				"z": -0.6057858966,
				"element": "H" 
			},
			{
				"x": 2.0910665121,
				"y": -0.5951787107,
				"z": -2.8663879446,
				"element": "H" 
			},
			{
				"x": 1.4081818117,
				"y": 0.3126382536,
				"z": -4.2431261511,
				"element": "H" 
			},
			{
				"x": 1.7614001828,
				"y": 1.1551305396,
				"z": -2.7098428594,
				"element": "H" 
			},
			{
				"x": -1.9616173329,
				"y": -0.4329481888,
				"z": -3.0183484299,
				"element": "H" 
			},
			{
				"x": -3.0151338598,
				"y": -0.9231033222,
				"z": 0.3286962523,
				"element": "H" 
			},
			{
				"x": -1.3767651036,
				"y": -0.7786500493,
				"z": 2.2030346588,
				"element": "H" 
			}
		],
		 "valence_orbital": [ 
			{
				"type": "occ",
				"energy": -0.33144,
				"method": "rhf"
			},
			{
				"type": "occ",
				"energy": -0.32474,
				"method": "rhf"
			},
			{
				"type": "occ",
				"energy": -0.30603,
				"method": "rhf"
			},
			{
				"type": "occ",
				"energy": -0.23165,
				"method": "rhf"
			},
			{
				"type": "occ",
				"energy": -0.19805,
				"method": "rhf"
			},
			{
				"type": "unocc",
				"energy": 0.01156,
				"method": "rhf"
			},
			{
				"type": "unocc",
				"energy": 0.02182,
				"method": "rhf"
			},
			{
				"type": "unocc",
				"energy": 0.07981,
				"method": "rhf"
			},
			{
				"type": "unocc",
				"energy": 0.09377,
				"method": "rhf"
			},
			{
				"type": "unocc",
				"energy": 0.11269,
				"method": "rhf"
			}
		],
		"cosmo_sigma_profile": { 
			"-0.025": 0.0,
			"-0.024": 0.0,
			"-0.023": 0.0,
			"-0.022": 0.0,
			"-0.021": 0.0,
			"-0.02": 0.0,
			"-0.019": 0.0,
			"-0.018": 0.0,
			"-0.017": 0.0,
			"-0.016": 0.0,
			"-0.015": 0.0,
			"-0.014": 0.187592671838,
			"-0.013": 0.842672292193,
			"-0.012": 0.585574365917,
			"-0.011": 0.254138507529,
			"-0.01": 0.228306516002,
			"-0.009": 1.02922476044,
			"-0.008": 0.620864135922,
			"-0.007": 1.06661188629,
			"-0.006": 5.33085246564,
			"-0.005": 13.8231193553,
			"-0.004": 16.7760516818,
			"-0.003": 22.1409902742,
			"-0.002": 19.7452884243,
			"-0.001": 18.5089482366,
			"0.0": 19.0636562637,
			"0.001": 17.4914136842,
			"0.002": 13.6850100085,
			"0.003": 9.66858725893,
			"0.004": 11.372078784,
			"0.005": 11.296637498,
			"0.006": 9.3113029274,
			"0.007": 3.15363143413,
			"0.008": 1.56031225762,
			"0.009": 1.30636946849,
			"0.01": 2.08583333445,
			"0.011": 1.61121728606,
			"0.012": 1.71324332711,
			"0.013": 0.0774156244101,
			"0.014": 0.0,
			"0.015": 0.0,
			"0.016": 0.0,
			"0.017": 0.0,
			"0.018": 0.0,
			"0.019": 0.0,
			"0.02": 0.0,
			"0.021": 0.0,
			"0.022": 0.0,
			"0.023": 0.0,
			"0.024": 0.0,
			"0.025": 0.0
		}
	}
}
