{
	 "smiles": "CCCCCCCCC1CCCCC1", 
	 "Tm": 253.15, 
	 "num_atms": 42, 
	 "gaussian": { 
		 "optdone": 1, 
		 "sigma_profile": "yes", 
		 "theory": "DFT", 
		 "functional": "B3LYP", 
		 "basiset": "6-31G**", 
		 "properties": { 
			 "R2extent": 5988.1259, 
			 "electric_dipole_moment_norm": 0.0909686209635, 
			 "electric_quadrupole_moment_norm": 0.672929676861, 
			 "total_energy": -550.41097296, 
			 "HOMO_LUMO_gap": 0.36414, 
			 "cosmo_polarized_energy": -0.84, 
			 "cosmo_cavitation_energy": 39.4, 
			 "cosmo_dispersion_energy": -27.83, 
			 "cosmo_repulsion_energy": 2.26, 
			 "cosmo_total_nonelectrostatic_energy": 13.83, 
			 "SMD_solvation_energy": 4.89 
		},
		"coords": [
			{
				"x": 1.924663653,
				"y": 4.1204109755,
				"z": -3.5687773876,
				"element": "C" 
			},
			{
				"x": 1.4360879145,
				"y": 4.2474523286,
				"z": -2.1221382064,
				"element": "C" 
			},
			{
				"x": 0.0827912873,
				"y": 3.562748346,
				"z": -1.8826028552,
				"element": "C" 
			},
			{
				"x": -0.4331089189,
				"y": 3.6767644513,
				"z": -0.4353486691,
				"element": "C" 
			},
			{
				"x": 0.3151622178,
				"y": 2.8225236971,
				"z": 0.6163005244,
				"element": "C" 
			},
			{
				"x": -0.3380670559,
				"y": 1.4694309425,
				"z": 0.954260295,
				"element": "C" 
			},
			{
				"x": -0.4167985773,
				"y": 0.464963042,
				"z": -0.2044908847,
				"element": "C" 
			},
			{
				"x": -1.0775745611,
				"y": -0.8771950809,
				"z": 0.1612073221,
				"element": "C" 
			},
			{
				"x": -0.3522365211,
				"y": -1.7503241466,
				"z": 1.2039076772,
				"element": "C" 
			},
			{
				"x": -1.2047479763,
				"y": -2.9842313453,
				"z": 1.5621451849,
				"element": "C" 
			},
			{
				"x": -0.5203038819,
				"y": -3.8941003955,
				"z": 2.5933234184,
				"element": "C" 
			},
			{
				"x": 0.8767993804,
				"y": -4.3241127117,
				"z": 2.12293319,
				"element": "C" 
			},
			{
				"x": 1.7413028054,
				"y": -3.1048727204,
				"z": 1.7711077308,
				"element": "C" 
			},
			{
				"x": 1.0498214496,
				"y": -2.19494128,
				"z": 0.7429166237,
				"element": "C" 
			},
			{
				"x": 2.8851880426,
				"y": 4.6257482022,
				"z": -3.7143698269,
				"element": "H" 
			},
			{
				"x": 2.0558990868,
				"y": 3.0696253413,
				"z": -3.8518840105,
				"element": "H" 
			},
			{
				"x": 1.2070397893,
				"y": 4.5621474504,
				"z": -4.2698480509,
				"element": "H" 
			},
			{
				"x": 1.3510400367,
				"y": 5.3100570503,
				"z": -1.8554777292,
				"element": "H" 
			},
			{
				"x": 2.1928346555,
				"y": 3.8268394355,
				"z": -1.4472162031,
				"element": "H" 
			},
			{
				"x": -0.6578985722,
				"y": 4.0117095912,
				"z": -2.5588819638,
				"element": "H" 
			},
			{
				"x": 0.1567946048,
				"y": 2.507192134,
				"z": -2.1745128118,
				"element": "H" 
			},
			{
				"x": -1.4996256921,
				"y": 3.4153444011,
				"z": -0.4104439042,
				"element": "H" 
			},
			{
				"x": -0.3833825835,
				"y": 4.7342614843,
				"z": -0.1434740852,
				"element": "H" 
			},
			{
				"x": 0.3918712122,
				"y": 3.3934847171,
				"z": 1.5498437883,
				"element": "H" 
			},
			{
				"x": 1.3504595536,
				"y": 2.6519170711,
				"z": 0.291330868,
				"element": "H" 
			},
			{
				"x": 0.2199815906,
				"y": 1.0215879552,
				"z": 1.7865329637,
				"element": "H" 
			},
			{
				"x": -1.3535228834,
				"y": 1.6510474123,
				"z": 1.3364151368,
				"element": "H" 
			},
			{
				"x": -0.9936707435,
				"y": 0.9067105188,
				"z": -1.0262363453,
				"element": "H" 
			},
			{
				"x": 0.5906616151,
				"y": 0.2924755834,
				"z": -0.6064263326,
				"element": "H" 
			},
			{
				"x": -1.2000766909,
				"y": -1.4692433948,
				"z": -0.7571541385,
				"element": "H" 
			},
			{
				"x": -2.0954064046,
				"y": -0.6760105539,
				"z": 0.5254624488,
				"element": "H" 
			},
			{
				"x": -0.2284159022,
				"y": -1.1632535762,
				"z": 2.1271214063,
				"element": "H" 
			},
			{
				"x": -1.3980168799,
				"y": -3.5599488641,
				"z": 0.6442564892,
				"element": "H" 
			},
			{
				"x": -2.18522911,
				"y": -2.6612870962,
				"z": 1.9352023404,
				"element": "H" 
			},
			{
				"x": -0.4293822692,
				"y": -3.3548153813,
				"z": 3.5471901989,
				"element": "H" 
			},
			{
				"x": -1.1437424354,
				"y": -4.774200224,
				"z": 2.793117732,
				"element": "H" 
			},
			{
				"x": 1.3689677677,
				"y": -4.9319726696,
				"z": 2.8919070296,
				"element": "H" 
			},
			{
				"x": 0.7774427729,
				"y": -4.9647279644,
				"z": 1.2347743333,
				"element": "H" 
			},
			{
				"x": 1.939751121,
				"y": -2.5283843484,
				"z": 2.6861717829,
				"element": "H" 
			},
			{
				"x": 2.7184041902,
				"y": -3.4270630448,
				"z": 1.390791183,
				"element": "H" 
			},
			{
				"x": 1.6817721721,
				"y": -1.3221357378,
				"z": 0.5411955806,
				"element": "H" 
			},
			{
				"x": 0.9527707402,
				"y": -2.7343215953,
				"z": -0.2117318432,
				"element": "H" 
			}
		],
		 "valence_orbital": [ 
			{
				"type": "occ",
				"energy": -0.30578,
				"method": "rhf"
			},
			{
				"type": "occ",
				"energy": -0.30307,
				"method": "rhf"
			},
			{
				"type": "occ",
				"energy": -0.29568,
				"method": "rhf"
			},
			{
				"type": "occ",
				"energy": -0.28676,
				"method": "rhf"
			},
			{
				"type": "occ",
				"energy": -0.28297,
				"method": "rhf"
			},
			{
				"type": "unocc",
				"energy": 0.08117,
				"method": "rhf"
			},
			{
				"type": "unocc",
				"energy": 0.09456,
				"method": "rhf"
			},
			{
				"type": "unocc",
				"energy": 0.10181,
				"method": "rhf"
			},
			{
				"type": "unocc",
				"energy": 0.10441,
				"method": "rhf"
			},
			{
				"type": "unocc",
				"energy": 0.11284,
				"method": "rhf"
			}
		],
		"cosmo_sigma_profile": { 
			"-0.025": 0.0,
			"-0.024": 0.0,
			"-0.023": 0.0,
			"-0.022": 0.0,
			"-0.021": 0.0,
			"-0.02": 0.0,
			"-0.019": 0.0,
			"-0.018": 0.0,
			"-0.017": 0.0,
			"-0.016": 0.0,
			"-0.015": 0.0,
			"-0.014": 0.0,
			"-0.013": 0.0,
			"-0.012": 0.0,
			"-0.011": 0.0,
			"-0.01": 0.0,
			"-0.009": 0.0,
			"-0.008": 0.0,
			"-0.007": 0.0,
			"-0.006": 0.0,
			"-0.005": 0.0,
			"-0.004": 0.0,
			"-0.003": 1.83217388687,
			"-0.002": 30.7339912925,
			"-0.001": 74.6317224976,
			"0.0": 86.4262263439,
			"0.001": 71.5611325379,
			"0.002": 34.135478914,
			"0.003": 0.87754476629,
			"0.004": 0.0,
			"0.005": 0.0,
			"0.006": 0.0,
			"0.007": 0.0,
			"0.008": 0.0,
			"0.009": 0.0,
			"0.01": 0.0,
			"0.011": 0.0,
			"0.012": 0.0,
			"0.013": 0.0,
			"0.014": 0.0,
			"0.015": 0.0,
			"0.016": 0.0,
			"0.017": 0.0,
			"0.018": 0.0,
			"0.019": 0.0,
			"0.02": 0.0,
			"0.021": 0.0,
			"0.022": 0.0,
			"0.023": 0.0,
			"0.024": 0.0,
			"0.025": 0.0
		}
	}
}
