{
	 "smiles": "OC(=O)CSC1=CSC(=N1)C1=CC=C(Br)C=C1", 
	 "Tm": 452.15, 
	 "num_atms": 25, 
	 "gaussian": { 
		 "optdone": 1, 
		 "sigma_profile": "yes", 
		 "theory": "DFT", 
		 "functional": "B3LYP", 
		 "basiset": "6-31G**", 
		 "properties": { 
			 "R2extent": 9866.1362, 
			 "electric_dipole_moment_norm": 1.16479142768, 
			 "electric_quadrupole_moment_norm": 14.5048552626, 
			 "total_energy": -3996.97488069, 
			 "HOMO_LUMO_gap": 0.1448, 
			 "cosmo_polarized_energy": -14.57, 
			 "cosmo_cavitation_energy": 36.15, 
			 "cosmo_dispersion_energy": -26.64, 
			 "cosmo_repulsion_energy": 1.98, 
			 "cosmo_total_nonelectrostatic_energy": 11.49, 
			 "SMD_solvation_energy": 5.05 
		},
		"coords": [
			{
				"x": 2.705961137,
				"y": -2.1132409062,
				"z": 1.2526026908,
				"element": "O" 
			},
			{
				"x": 2.3680032161,
				"y": -1.0326809294,
				"z": 2.0015713311,
				"element": "C" 
			},
			{
				"x": 2.9699791724,
				"y": 0.0115716305,
				"z": 1.9582612872,
				"element": "O" 
			},
			{
				"x": 1.195566618,
				"y": -1.3740245654,
				"z": 2.9108662228,
				"element": "C" 
			},
			{
				"x": 0.1705120109,
				"y": 0.0496611306,
				"z": 3.3947463318,
				"element": "S" 
			},
			{
				"x": -0.5694468614,
				"y": 0.4393308352,
				"z": 1.8252526464,
				"element": "C" 
			},
			{
				"x": -1.4794393474,
				"y": 1.4470649376,
				"z": 1.632254719,
				"element": "C" 
			},
			{
				"x": -1.9487181793,
				"y": 1.4937741568,
				"z": -0.0338270806,
				"element": "S" 
			},
			{
				"x": -0.8766655941,
				"y": 0.1359170834,
				"z": -0.3537173356,
				"element": "C" 
			},
			{
				"x": -0.2410173888,
				"y": -0.2858175034,
				"z": 0.7126376889,
				"element": "N" 
			},
			{
				"x": -0.7099326132,
				"y": -0.4615179625,
				"z": -1.6832486656,
				"element": "C" 
			},
			{
				"x": -1.444127412,
				"y": -0.0248112871,
				"z": -2.7974761386,
				"element": "C" 
			},
			{
				"x": -1.266301223,
				"y": -0.6119034264,
				"z": -4.0471268601,
				"element": "C" 
			},
			{
				"x": -0.3451680123,
				"y": -1.6492810567,
				"z": -4.1871404632,
				"element": "C" 
			},
			{
				"x": -0.0966281827,
				"y": -2.4606105609,
				"z": -5.8963641904,
				"element": "Br" 
			},
			{
				"x": 0.3969835953,
				"y": -2.1023075383,
				"z": -3.0956273536,
				"element": "C" 
			},
			{
				"x": 0.2138148395,
				"y": -1.5092403352,
				"z": -1.8509470768,
				"element": "C" 
			},
			{
				"x": 3.482575864,
				"y": -1.8435477963,
				"z": 0.7334283662,
				"element": "H" 
			},
			{
				"x": 0.5853323339,
				"y": -2.1512651185,
				"z": 2.4515202172,
				"element": "H" 
			},
			{
				"x": 1.5973197063,
				"y": -1.7629937123,
				"z": 3.8529246272,
				"element": "H" 
			},
			{
				"x": -1.8844289134,
				"y": 2.1441373948,
				"z": 2.3508224131,
				"element": "H" 
			},
			{
				"x": -2.16684741,
				"y": 0.7801199308,
				"z": -2.6976098513,
				"element": "H" 
			},
			{
				"x": -1.8372895446,
				"y": -0.2691745966,
				"z": -4.9021744659,
				"element": "H" 
			},
			{
				"x": 1.1095414169,
				"y": -2.9097625815,
				"z": -3.2199227147,
				"element": "H" 
			},
			{
				"x": 0.7859207718,
				"y": -1.847597223,
				"z": -0.9939063453,
				"element": "H" 
			}
		],
		 "valence_orbital": [ 
			{
				"type": "occ",
				"energy": -0.29084,
				"method": "rhf"
			},
			{
				"type": "occ",
				"energy": -0.28184,
				"method": "rhf"
			},
			{
				"type": "occ",
				"energy": -0.27345,
				"method": "rhf"
			},
			{
				"type": "occ",
				"energy": -0.24936,
				"method": "rhf"
			},
			{
				"type": "occ",
				"energy": -0.21236,
				"method": "rhf"
			},
			{
				"type": "unocc",
				"energy": -0.06756,
				"method": "rhf"
			},
			{
				"type": "unocc",
				"energy": -0.02307,
				"method": "rhf"
			},
			{
				"type": "unocc",
				"energy": -0.00868,
				"method": "rhf"
			},
			{
				"type": "unocc",
				"energy": 0.00144,
				"method": "rhf"
			},
			{
				"type": "unocc",
				"energy": 0.00815,
				"method": "rhf"
			}
		],
		"cosmo_sigma_profile": { 
			"-0.025": 0.0,
			"-0.024": 0.0,
			"-0.023": 0.0,
			"-0.022": 0.0,
			"-0.021": 0.0,
			"-0.02": 0.0,
			"-0.019": 0.0614487730832,
			"-0.018": 1.00919768599,
			"-0.017": 0.597165330402,
			"-0.016": 0.978381107402,
			"-0.015": 0.705029975345,
			"-0.014": 1.09107924357,
			"-0.013": 1.24965692922,
			"-0.012": 0.0725530469946,
			"-0.011": 0.225252857879,
			"-0.01": 3.26976317226,
			"-0.009": 5.92845649132,
			"-0.008": 7.18338534466,
			"-0.007": 11.0324487186,
			"-0.006": 12.1526398182,
			"-0.005": 12.999512153,
			"-0.004": 12.1557058874,
			"-0.003": 14.5148003476,
			"-0.002": 14.7332398324,
			"-0.001": 18.139824103,
			"0.0": 23.3128097977,
			"0.001": 30.1751824852,
			"0.002": 38.1069331677,
			"0.003": 28.3828110902,
			"0.004": 19.9003481929,
			"0.005": 10.6572432535,
			"0.006": 5.58060397692,
			"0.007": 5.14087126194,
			"0.008": 2.95404701138,
			"0.009": 3.21789418704,
			"0.01": 3.01815243896,
			"0.011": 4.8848243547,
			"0.012": 3.07030327152,
			"0.013": 1.30163938791,
			"0.014": 0.115464032135,
			"0.015": 0.0,
			"0.016": 0.0,
			"0.017": 0.0,
			"0.018": 0.0,
			"0.019": 0.0,
			"0.02": 0.0,
			"0.021": 0.0,
			"0.022": 0.0,
			"0.023": 0.0,
			"0.024": 0.0,
			"0.025": 0.0
		}
	}
}
