{
	 "smiles": "CCNC(N)=O", 
	 "Tm": 365.65, 
	 "num_atms": 14, 
	 "gaussian": { 
		 "optdone": 1, 
		 "sigma_profile": "yes", 
		 "theory": "DFT", 
		 "functional": "B3LYP", 
		 "basiset": "6-31G**", 
		 "properties": { 
			 "R2extent": 1229.4346, 
			 "electric_dipole_moment_norm": 3.60022245702, 
			 "electric_quadrupole_moment_norm": 11.9192745178, 
			 "total_energy": -303.896967295, 
			 "HOMO_LUMO_gap": 0.30279, 
			 "cosmo_polarized_energy": -13.97, 
			 "cosmo_cavitation_energy": 17.36, 
			 "cosmo_dispersion_energy": -12.96, 
			 "cosmo_repulsion_energy": 1.16, 
			 "cosmo_total_nonelectrostatic_energy": 5.56, 
			 "SMD_solvation_energy": 3.44 
		},
		"coords": [
			{
				"x": -0.5140277646,
				"y": -2.2645081582,
				"z": -2.6664543917,
				"element": "C" 
			},
			{
				"x": -1.1529496124,
				"y": -1.392622856,
				"z": -1.5843054901,
				"element": "C" 
			},
			{
				"x": -0.2194802361,
				"y": -0.4110724277,
				"z": -1.0296286249,
				"element": "N" 
			},
			{
				"x": -0.0304207258,
				"y": 0.7901525929,
				"z": -1.6793739871,
				"element": "C" 
			},
			{
				"x": 0.7437728927,
				"y": 1.7071556438,
				"z": -0.9681061617,
				"element": "N" 
			},
			{
				"x": -0.5151776549,
				"y": 1.0450646404,
				"z": -2.7745906594,
				"element": "O" 
			},
			{
				"x": -1.2405860793,
				"y": -2.9870679232,
				"z": -3.0536937708,
				"element": "H" 
			},
			{
				"x": 0.3456352801,
				"y": -2.8156327141,
				"z": -2.2718788675,
				"element": "H" 
			},
			{
				"x": -0.1768676779,
				"y": -1.6383587514,
				"z": -3.4960510433,
				"element": "H" 
			},
			{
				"x": -2.018925309,
				"y": -0.8659516191,
				"z": -1.9997754339,
				"element": "H" 
			},
			{
				"x": -1.5045231652,
				"y": -2.0125124673,
				"z": -0.7531796134,
				"element": "H" 
			},
			{
				"x": -0.0694958223,
				"y": -0.4250417725,
				"z": -0.0318961375,
				"element": "H" 
			},
			{
				"x": 1.4831050418,
				"y": 1.3344063291,
				"z": -0.3874288712,
				"element": "H" 
			},
			{
				"x": 1.0352408329,
				"y": 2.4821894834,
				"z": -1.5473369474,
				"element": "H" 
			}
		],
		 "valence_orbital": [ 
			{
				"type": "occ",
				"energy": -0.36608,
				"method": "rhf"
			},
			{
				"type": "occ",
				"energy": -0.34275,
				"method": "rhf"
			},
			{
				"type": "occ",
				"energy": -0.26936,
				"method": "rhf"
			},
			{
				"type": "occ",
				"energy": -0.2486,
				"method": "rhf"
			},
			{
				"type": "occ",
				"energy": -0.24554,
				"method": "rhf"
			},
			{
				"type": "unocc",
				"energy": 0.05725,
				"method": "rhf"
			},
			{
				"type": "unocc",
				"energy": 0.06723,
				"method": "rhf"
			},
			{
				"type": "unocc",
				"energy": 0.10413,
				"method": "rhf"
			},
			{
				"type": "unocc",
				"energy": 0.13325,
				"method": "rhf"
			},
			{
				"type": "unocc",
				"energy": 0.14148,
				"method": "rhf"
			}
		],
		"cosmo_sigma_profile": { 
			"-0.025": 0.0,
			"-0.024": 0.0,
			"-0.023": 0.0,
			"-0.022": 0.0,
			"-0.021": 0.0,
			"-0.02": 0.0,
			"-0.019": 0.0,
			"-0.018": 0.0,
			"-0.017": 0.0,
			"-0.016": 0.0,
			"-0.015": 0.0,
			"-0.014": 1.31494454658,
			"-0.013": 3.66529059846,
			"-0.012": 4.25366417945,
			"-0.011": 3.02244944586,
			"-0.01": 3.17207675158,
			"-0.009": 3.2609931892,
			"-0.008": 2.61288090554,
			"-0.007": 3.02483240841,
			"-0.006": 2.67518167942,
			"-0.005": 3.59422416111,
			"-0.004": 4.23370799339,
			"-0.003": 8.58988913377,
			"-0.002": 11.7350237094,
			"-0.001": 13.1973137938,
			"0.0": 10.6458937688,
			"0.001": 10.7912879374,
			"0.002": 6.85627980102,
			"0.003": 3.89646736816,
			"0.004": 2.8864494292,
			"0.005": 4.12641947946,
			"0.006": 3.10074507114,
			"0.007": 2.06008072669,
			"0.008": 3.00169197637,
			"0.009": 2.51859114405,
			"0.01": 1.98405577077,
			"0.011": 2.00712698107,
			"0.012": 1.86590965426,
			"0.013": 2.22619503279,
			"0.014": 4.02849588715,
			"0.015": 4.2972397561,
			"0.016": 0.223770233701,
			"0.017": 0.0,
			"0.018": 0.0,
			"0.019": 0.0,
			"0.02": 0.0,
			"0.021": 0.0,
			"0.022": 0.0,
			"0.023": 0.0,
			"0.024": 0.0,
			"0.025": 0.0
		}
	}
}
