{
	 "smiles": "NC1=C(C=C(Cl)C=C1)C(=O)NC1=CC=NC=C1", 
	 "Tm": 443.15, 
	 "num_atms": 27, 
	 "gaussian": { 
		 "optdone": 1, 
		 "sigma_profile": "yes", 
		 "theory": "DFT", 
		 "functional": "B3LYP", 
		 "basiset": "6-31G**", 
		 "properties": { 
			 "R2extent": 5076.6132, 
			 "electric_dipole_moment_norm": 2.98684265572, 
			 "electric_quadrupole_moment_norm": 17.8745386103, 
			 "total_energy": -1162.9905137, 
			 "HOMO_LUMO_gap": 0.15238, 
			 "cosmo_polarized_energy": -15.32, 
			 "cosmo_cavitation_energy": 33.14, 
			 "cosmo_dispersion_energy": -23.76, 
			 "cosmo_repulsion_energy": 1.85, 
			 "cosmo_total_nonelectrostatic_energy": 11.23, 
			 "SMD_solvation_energy": 4.27 
		},
		"coords": [
			{
				"x": 3.4497733285,
				"y": -1.4712278329,
				"z": -0.758480386,
				"element": "N" 
			},
			{
				"x": 2.6871473009,
				"y": -0.3435127835,
				"z": -0.5963401152,
				"element": "C" 
			},
			{
				"x": 1.8516834305,
				"y": -0.1572538896,
				"z": 0.5437553673,
				"element": "C" 
			},
			{
				"x": 1.1113659435,
				"y": 1.0325105762,
				"z": 0.6742961843,
				"element": "C" 
			},
			{
				"x": 1.1466328112,
				"y": 2.0026635461,
				"z": -0.3126314832,
				"element": "C" 
			},
			{
				"x": 0.2251921749,
				"y": 3.4885238652,
				"z": -0.121847138,
				"element": "Cl" 
			},
			{
				"x": 1.9193567819,
				"y": 1.8074696916,
				"z": -1.4636911117,
				"element": "C" 
			},
			{
				"x": 2.6721634399,
				"y": 0.6534076611,
				"z": -1.5979424809,
				"element": "C" 
			},
			{
				"x": 1.8556157145,
				"y": -1.1670081214,
				"z": 1.631345641,
				"element": "C" 
			},
			{
				"x": 2.8288336244,
				"y": -1.8909409914,
				"z": 1.8595520265,
				"element": "O" 
			},
			{
				"x": 0.7661860905,
				"y": -1.2606762877,
				"z": 2.4952134227,
				"element": "N" 
			},
			{
				"x": -0.6181841208,
				"y": -1.1115700033,
				"z": 2.284893243,
				"element": "C" 
			},
			{
				"x": -1.225168344,
				"y": -1.0954270436,
				"z": 1.021485015,
				"element": "C" 
			},
			{
				"x": -2.6121526101,
				"y": -0.977793684,
				"z": 0.9546014437,
				"element": "C" 
			},
			{
				"x": -3.4227828325,
				"y": -0.8960074861,
				"z": 2.0175181472,
				"element": "N" 
			},
			{
				"x": -2.8300413431,
				"y": -0.9296250004,
				"z": 3.2177820595,
				"element": "C" 
			},
			{
				"x": -1.4546089414,
				"y": -1.0295353224,
				"z": 3.4077643226,
				"element": "C" 
			},
			{
				"x": 3.6707011739,
				"y": -1.973677229,
				"z": 0.0928276239,
				"element": "H" 
			},
			{
				"x": 4.1585208653,
				"y": -1.4476107244,
				"z": -1.4749023905,
				"element": "H" 
			},
			{
				"x": 0.5174800716,
				"y": 1.1990744621,
				"z": 1.5642885123,
				"element": "H" 
			},
			{
				"x": 1.9379109849,
				"y": 2.5659337245,
				"z": -2.238960109,
				"element": "H" 
			},
			{
				"x": 3.2842170601,
				"y": 0.5130776233,
				"z": -2.484863232,
				"element": "H" 
			},
			{
				"x": 1.0155332176,
				"y": -1.8143169907,
				"z": 3.3070964141,
				"element": "H" 
			},
			{
				"x": -0.6413812674,
				"y": -1.1804694631,
				"z": 0.1138278909,
				"element": "H" 
			},
			{
				"x": -3.097466015,
				"y": -0.9609021806,
				"z": -0.0196520864,
				"element": "H" 
			},
			{
				"x": -3.4891010728,
				"y": -0.8667552441,
				"z": 4.0819968019,
				"element": "H" 
			},
			{
				"x": -1.0358274672,
				"y": -1.0372508716,
				"z": 4.4099664167,
				"element": "H" 
			}
		],
		 "valence_orbital": [ 
			{
				"type": "occ",
				"energy": -0.27222,
				"method": "rhf"
			},
			{
				"type": "occ",
				"energy": -0.26518,
				"method": "rhf"
			},
			{
				"type": "occ",
				"energy": -0.25696,
				"method": "rhf"
			},
			{
				"type": "occ",
				"energy": -0.2476,
				"method": "rhf"
			},
			{
				"type": "occ",
				"energy": -0.21298,
				"method": "rhf"
			},
			{
				"type": "unocc",
				"energy": -0.0606,
				"method": "rhf"
			},
			{
				"type": "unocc",
				"energy": -0.02293,
				"method": "rhf"
			},
			{
				"type": "unocc",
				"energy": -0.01592,
				"method": "rhf"
			},
			{
				"type": "unocc",
				"energy": -0.00115,
				"method": "rhf"
			},
			{
				"type": "unocc",
				"energy": 0.02874,
				"method": "rhf"
			}
		],
		"cosmo_sigma_profile": { 
			"-0.025": 0.0,
			"-0.024": 0.0,
			"-0.023": 0.0,
			"-0.022": 0.0,
			"-0.021": 0.0,
			"-0.02": 0.0,
			"-0.019": 0.0,
			"-0.018": 0.0,
			"-0.017": 0.0,
			"-0.016": 0.00747006858493,
			"-0.015": 0.653848661231,
			"-0.014": 1.12207635257,
			"-0.013": 2.35734164718,
			"-0.012": 2.69390781247,
			"-0.011": 2.663408436,
			"-0.01": 2.80974100137,
			"-0.009": 3.43838007274,
			"-0.008": 4.69271941029,
			"-0.007": 9.24108230508,
			"-0.006": 16.1858326246,
			"-0.005": 15.9332876591,
			"-0.004": 11.3188762297,
			"-0.003": 12.3288909668,
			"-0.002": 14.9879712021,
			"-0.001": 14.7421460634,
			"0.0": 18.6222976639,
			"0.001": 21.4221746812,
			"0.002": 30.1565640112,
			"0.003": 24.4324232586,
			"0.004": 14.7859607024,
			"0.005": 13.3695878304,
			"0.006": 4.69758800915,
			"0.007": 2.95132385299,
			"0.008": 3.89576520438,
			"0.009": 3.70797614892,
			"0.01": 2.37982776898,
			"0.011": 3.74630132468,
			"0.012": 3.77393012505,
			"0.013": 1.65518137854,
			"0.014": 0.608698885013,
			"0.015": 1.23601974972,
			"0.016": 0.832671645058,
			"0.017": 0.565409209763,
			"0.018": 0.0134955197785,
			"0.019": 0.0,
			"0.02": 0.0,
			"0.021": 0.0,
			"0.022": 0.0,
			"0.023": 0.0,
			"0.024": 0.0,
			"0.025": 0.0
		}
	}
}
