{
	 "smiles": "CC1(CCCCC1)C(O)=O", 
	 "Tm": 310.95, 
	 "num_atms": 24, 
	 "gaussian": { 
		 "optdone": 1, 
		 "sigma_profile": "yes", 
		 "theory": "DFT", 
		 "functional": "B3LYP", 
		 "basiset": "6-31G**", 
		 "properties": { 
			 "R2extent": 1805.4615, 
			 "electric_dipole_moment_norm": 1.74688061699, 
			 "electric_quadrupole_moment_norm": 8.10503054097, 
			 "total_energy": -463.772822064, 
			 "HOMO_LUMO_gap": 0.27505, 
			 "cosmo_polarized_energy": -7.38, 
			 "cosmo_cavitation_energy": 24.27, 
			 "cosmo_dispersion_energy": -18.02, 
			 "cosmo_repulsion_energy": 1.46, 
			 "cosmo_total_nonelectrostatic_energy": 7.71, 
			 "SMD_solvation_energy": 4.66 
		},
		"coords": [
			{
				"x": -1.3670939072,
				"y": 1.2250938613,
				"z": -0.2108121626,
				"element": "C" 
			},
			{
				"x": -0.5842834333,
				"y": 0.2445362933,
				"z": -1.1006957928,
				"element": "C" 
			},
			{
				"x": 0.9528661154,
				"y": 0.3830145774,
				"z": -0.8848513812,
				"element": "C" 
			},
			{
				"x": 1.4151326766,
				"y": -0.1330606106,
				"z": 0.4870262065,
				"element": "C" 
			},
			{
				"x": 0.9761795421,
				"y": -1.5862185292,
				"z": 0.7189815838,
				"element": "C" 
			},
			{
				"x": -0.5409892318,
				"y": -1.7449035553,
				"z": 0.5426934203,
				"element": "C" 
			},
			{
				"x": -1.0057319799,
				"y": -1.2310068627,
				"z": -0.8291313764,
				"element": "C" 
			},
			{
				"x": -0.9039863293,
				"y": 0.5829513858,
				"z": -2.558169259,
				"element": "C" 
			},
			{
				"x": -0.2603251139,
				"y": -0.22865566,
				"z": -3.4391381606,
				"element": "O" 
			},
			{
				"x": -1.6418842073,
				"y": 1.4663849785,
				"z": -2.9399176391,
				"element": "O" 
			},
			{
				"x": -1.1812607522,
				"y": 1.0362490799,
				"z": 0.8486316865,
				"element": "H" 
			},
			{
				"x": -2.4418631909,
				"y": 1.1377865233,
				"z": -0.3908668379,
				"element": "H" 
			},
			{
				"x": -1.0829237974,
				"y": 2.2578246711,
				"z": -0.4295940713,
				"element": "H" 
			},
			{
				"x": 1.4671149738,
				"y": -0.184800549,
				"z": -1.6682030388,
				"element": "H" 
			},
			{
				"x": 1.2430870412,
				"y": 1.4332906071,
				"z": -1.0124805032,
				"element": "H" 
			},
			{
				"x": 2.5068158759,
				"y": -0.0517006991,
				"z": 0.5507162237,
				"element": "H" 
			},
			{
				"x": 1.0144405622,
				"y": 0.5036071505,
				"z": 1.2862055983,
				"element": "H" 
			},
			{
				"x": 1.4920008185,
				"y": -2.2370829415,
				"z": -0.0013695811,
				"element": "H" 
			},
			{
				"x": 1.2809365898,
				"y": -1.9217097229,
				"z": 1.7173743122,
				"element": "H" 
			},
			{
				"x": -0.8267827979,
				"y": -2.7985610544,
				"z": 0.6456222032,
				"element": "H" 
			},
			{
				"x": -1.0621713988,
				"y": -1.2074869261,
				"z": 1.3452641651,
				"element": "H" 
			},
			{
				"x": -0.5732474927,
				"y": -1.8662271817,
				"z": -1.6101519603,
				"element": "H" 
			},
			{
				"x": -2.095776406,
				"y": -1.3180808222,
				"z": -0.9175012441,
				"element": "H" 
			},
			{
				"x": -0.5335541567,
				"y": 0.0736559866,
				"z": -4.3213323911,
				"element": "H" 
			}
		],
		 "valence_orbital": [ 
			{
				"type": "occ",
				"energy": -0.32079,
				"method": "rhf"
			},
			{
				"type": "occ",
				"energy": -0.3132,
				"method": "rhf"
			},
			{
				"type": "occ",
				"energy": -0.31146,
				"method": "rhf"
			},
			{
				"type": "occ",
				"energy": -0.29857,
				"method": "rhf"
			},
			{
				"type": "occ",
				"energy": -0.26352,
				"method": "rhf"
			},
			{
				"type": "unocc",
				"energy": 0.01153,
				"method": "rhf"
			},
			{
				"type": "unocc",
				"energy": 0.07285,
				"method": "rhf"
			},
			{
				"type": "unocc",
				"energy": 0.08264,
				"method": "rhf"
			},
			{
				"type": "unocc",
				"energy": 0.11318,
				"method": "rhf"
			},
			{
				"type": "unocc",
				"energy": 0.133,
				"method": "rhf"
			}
		],
		"cosmo_sigma_profile": { 
			"-0.025": 0.0,
			"-0.024": 0.0,
			"-0.023": 0.0,
			"-0.022": 0.0,
			"-0.021": 0.0,
			"-0.02": 0.0,
			"-0.019": 0.0,
			"-0.018": 0.286596124358,
			"-0.017": 0.975568268889,
			"-0.016": 0.78643007504,
			"-0.015": 0.691077194604,
			"-0.014": 0.738666190171,
			"-0.013": 0.679377397296,
			"-0.012": 0.678289083459,
			"-0.011": 0.97914666071,
			"-0.01": 1.0998543394,
			"-0.009": 0.381498803621,
			"-0.008": 0.149746423626,
			"-0.007": 0.724809543497,
			"-0.006": 1.118651868,
			"-0.005": 1.00919566944,
			"-0.004": 3.275239604,
			"-0.003": 18.9389346156,
			"-0.002": 29.4992784508,
			"-0.001": 32.4835529456,
			"0.0": 32.2679929912,
			"0.001": 22.0915560611,
			"0.002": 6.68790997405,
			"0.003": 3.96470756375,
			"0.004": 3.03209037236,
			"0.005": 2.93299149107,
			"0.006": 2.76799820656,
			"0.007": 2.64404962476,
			"0.008": 2.81568483113,
			"0.009": 2.27968691437,
			"0.01": 1.9104234986,
			"0.011": 3.02678953555,
			"0.012": 4.75248460773,
			"0.013": 1.20822212155,
			"0.014": 0.0,
			"0.015": 0.0,
			"0.016": 0.0,
			"0.017": 0.0,
			"0.018": 0.0,
			"0.019": 0.0,
			"0.02": 0.0,
			"0.021": 0.0,
			"0.022": 0.0,
			"0.023": 0.0,
			"0.024": 0.0,
			"0.025": 0.0
		}
	}
}
