{
	 "smiles": "FC1(F)C(F)(F)C(F)(F)C2(F)C(F)(C1(F)F)C(F)(F)C(F)(F)C1(F)C(F)(F)C(F)(F)C(F)(F)C(F)(F)C21F", 
	 "Tm": 253.15, 
	 "num_atms": 38, 
	 "gaussian": { 
		 "optdone": 1, 
		 "sigma_profile": "yes", 
		 "theory": "DFT", 
		 "functional": "B3LYP", 
		 "basiset": "6-31G**", 
		 "properties": { 
			 "R2extent": 13060.9837, 
			 "electric_dipole_moment_norm": 0.397999409547, 
			 "electric_quadrupole_moment_norm": 1.22612194744, 
			 "total_energy": -2929.48678989, 
			 "HOMO_LUMO_gap": 0.29585, 
			 "cosmo_polarized_energy": -1.53, 
			 "cosmo_cavitation_energy": 43.46, 
			 "cosmo_dispersion_energy": -29.49, 
			 "cosmo_repulsion_energy": 1.66, 
			 "cosmo_total_nonelectrostatic_energy": 15.63, 
			 "SMD_solvation_energy": 13.85 
		},
		"coords": [
			{
				"x": 2.295335333,
				"y": -1.0602426935,
				"z": -2.7611666903,
				"element": "F" 
			},
			{
				"x": 2.4330021836,
				"y": -1.2338484846,
				"z": -1.430075543,
				"element": "C" 
			},
			{
				"x": 3.5110970573,
				"y": -2.0110701529,
				"z": -1.1964275032,
				"element": "F" 
			},
			{
				"x": 2.6466249378,
				"y": 0.139214408,
				"z": -0.7558829207,
				"element": "C" 
			},
			{
				"x": 3.6208256928,
				"y": 0.8029906085,
				"z": -1.4115148553,
				"element": "F" 
			},
			{
				"x": 3.0288188174,
				"y": -0.0515312973,
				"z": 0.5255349919,
				"element": "F" 
			},
			{
				"x": 1.3657296832,
				"y": 1.0168010494,
				"z": -0.789475703,
				"element": "C" 
			},
			{
				"x": 1.1365339237,
				"y": 1.308433527,
				"z": -2.089341057,
				"element": "F" 
			},
			{
				"x": 1.6430141299,
				"y": 2.1631636135,
				"z": -0.1383799332,
				"element": "F" 
			},
			{
				"x": 0.1116633576,
				"y": 0.2979187181,
				"z": -0.1555905651,
				"element": "C" 
			},
			{
				"x": 0.4149377805,
				"y": -0.0303837636,
				"z": 1.1474634001,
				"element": "F" 
			},
			{
				"x": -0.1060727243,
				"y": -1.0640678431,
				"z": -0.9026418713,
				"element": "C" 
			},
			{
				"x": -0.3460002899,
				"y": -0.7778014158,
				"z": -2.2231327434,
				"element": "F" 
			},
			{
				"x": 1.1809726034,
				"y": -1.9504140354,
				"z": -0.866858152,
				"element": "C" 
			},
			{
				"x": 1.4787279735,
				"y": -2.3176074378,
				"z": 0.3988900189,
				"element": "F" 
			},
			{
				"x": 0.9447940295,
				"y": -3.0538545873,
				"z": -1.6101911077,
				"element": "F" 
			},
			{
				"x": -1.3512311312,
				"y": -1.8772953489,
				"z": -0.383867405,
				"element": "C" 
			},
			{
				"x": -0.9783604306,
				"y": -2.850643281,
				"z": 0.4763385297,
				"element": "F" 
			},
			{
				"x": -1.9388028959,
				"y": -2.4551255071,
				"z": -1.4476381919,
				"element": "F" 
			},
			{
				"x": -2.4081847883,
				"y": -1.0087338017,
				"z": 0.3571089044,
				"element": "C" 
			},
			{
				"x": -2.029803068,
				"y": -0.9100462897,
				"z": 1.6547164438,
				"element": "F" 
			},
			{
				"x": -3.5894181505,
				"y": -1.6519244785,
				"z": 0.2990807641,
				"element": "F" 
			},
			{
				"x": -2.5216921679,
				"y": 0.4012560164,
				"z": -0.2581083936,
				"element": "C" 
			},
			{
				"x": -2.7563013873,
				"y": 0.1865712115,
				"z": -1.5959691234,
				"element": "F" 
			},
			{
				"x": -3.7280218841,
				"y": 1.2392103979,
				"z": 0.2419613448,
				"element": "C" 
			},
			{
				"x": -3.7352452745,
				"y": 2.3853833424,
				"z": -0.4856696299,
				"element": "F" 
			},
			{
				"x": -4.8787960778,
				"y": 0.5818938711,
				"z": 0.0049419641,
				"element": "F" 
			},
			{
				"x": -3.6754673332,
				"y": 1.6353920963,
				"z": 1.7392244791,
				"element": "C" 
			},
			{
				"x": -4.5317717887,
				"y": 2.6590276112,
				"z": 1.9221339135,
				"element": "F" 
			},
			{
				"x": -4.0915427195,
				"y": 0.5831878034,
				"z": 2.4765593306,
				"element": "F" 
			},
			{
				"x": -2.2422819269,
				"y": 2.0662280828,
				"z": 2.2151576733,
				"element": "C" 
			},
			{
				"x": -1.7492046466,
				"y": 1.1434583148,
				"z": 3.0645541542,
				"element": "F" 
			},
			{
				"x": -2.3412597024,
				"y": 3.2369314307,
				"z": 2.8773276886,
				"element": "F" 
			},
			{
				"x": -1.2062127477,
				"y": 2.2862024662,
				"z": 1.0668042524,
				"element": "C" 
			},
			{
				"x": -1.5124285456,
				"y": 3.4785417445,
				"z": 0.5099755818,
				"element": "F" 
			},
			{
				"x": -0.0114652774,
				"y": 2.4044891844,
				"z": 1.6778684964,
				"element": "F" 
			},
			{
				"x": -1.1721792743,
				"y": 1.2266863843,
				"z": -0.1466451652,
				"element": "C" 
			},
			{
				"x": -1.1323332705,
				"y": 1.9791085356,
				"z": -1.2872653775,
				"element": "F" 
			}
		],
		 "valence_orbital": [ 
			{
				"type": "occ",
				"energy": -0.3848,
				"method": "rhf"
			},
			{
				"type": "occ",
				"energy": -0.37541,
				"method": "rhf"
			},
			{
				"type": "occ",
				"energy": -0.36456,
				"method": "rhf"
			},
			{
				"type": "occ",
				"energy": -0.35574,
				"method": "rhf"
			},
			{
				"type": "occ",
				"energy": -0.35227,
				"method": "rhf"
			},
			{
				"type": "unocc",
				"energy": -0.05642,
				"method": "rhf"
			},
			{
				"type": "unocc",
				"energy": -0.02146,
				"method": "rhf"
			},
			{
				"type": "unocc",
				"energy": 0.00542,
				"method": "rhf"
			},
			{
				"type": "unocc",
				"energy": 0.01507,
				"method": "rhf"
			},
			{
				"type": "unocc",
				"energy": 0.02936,
				"method": "rhf"
			}
		],
		"cosmo_sigma_profile": { 
			"-0.025": 0.0,
			"-0.024": 0.0,
			"-0.023": 0.0,
			"-0.022": 0.0,
			"-0.021": 0.0,
			"-0.02": 0.0,
			"-0.019": 0.0,
			"-0.018": 0.0,
			"-0.017": 0.0,
			"-0.016": 0.0,
			"-0.015": 0.0,
			"-0.014": 0.0,
			"-0.013": 0.0,
			"-0.012": 0.0,
			"-0.011": 0.0,
			"-0.01": 0.0,
			"-0.009": 0.0,
			"-0.008": 0.269034004756,
			"-0.007": 0.692322887566,
			"-0.006": 0.44992765687,
			"-0.005": 1.54362798569,
			"-0.004": 3.46492191153,
			"-0.003": 9.62513751418,
			"-0.002": 21.2111050811,
			"-0.001": 41.7833593841,
			"0.0": 127.50254183,
			"0.001": 138.059998704,
			"0.002": 5.34013009047,
			"0.003": 0.0,
			"0.004": 0.0,
			"0.005": 0.0,
			"0.006": 0.0,
			"0.007": 0.0,
			"0.008": 0.0,
			"0.009": 0.0,
			"0.01": 0.0,
			"0.011": 0.0,
			"0.012": 0.0,
			"0.013": 0.0,
			"0.014": 0.0,
			"0.015": 0.0,
			"0.016": 0.0,
			"0.017": 0.0,
			"0.018": 0.0,
			"0.019": 0.0,
			"0.02": 0.0,
			"0.021": 0.0,
			"0.022": 0.0,
			"0.023": 0.0,
			"0.024": 0.0,
			"0.025": 0.0
		}
	}
}
