{
	 "smiles": "OC1=C2C=C(Br)C=C(F)C2=NC=N1", 
	 "Tm": 573.15, 
	 "num_atms": 17, 
	 "gaussian": { 
		 "optdone": 1, 
		 "sigma_profile": "yes", 
		 "theory": "DFT", 
		 "functional": "B3LYP", 
		 "basiset": "6-31G**", 
		 "properties": { 
			 "R2extent": 4136.5425, 
			 "electric_dipole_moment_norm": 2.04187724656, 
			 "electric_quadrupole_moment_norm": 8.59466741765, 
			 "total_energy": -3163.23469556, 
			 "HOMO_LUMO_gap": 0.17345, 
			 "cosmo_polarized_energy": -9.31, 
			 "cosmo_cavitation_energy": 24.93, 
			 "cosmo_dispersion_energy": -19.08, 
			 "cosmo_repulsion_energy": 1.47, 
			 "cosmo_total_nonelectrostatic_energy": 7.32, 
			 "SMD_solvation_energy": 1.29 
		},
		"coords": [
			{
				"x": 1.0960854917,
				"y": -2.7314478999,
				"z": 1.7659743917,
				"element": "O" 
			},
			{
				"x": 0.6917432858,
				"y": -1.4950274955,
				"z": 2.0926405815,
				"element": "C" 
			},
			{
				"x": 0.9025532679,
				"y": -0.446775684,
				"z": 1.1431037878,
				"element": "C" 
			},
			{
				"x": 1.5107742499,
				"y": -0.6318521285,
				"z": -0.1192346567,
				"element": "C" 
			},
			{
				"x": 1.6548504825,
				"y": 0.4626909597,
				"z": -0.9424551489,
				"element": "C" 
			},
			{
				"x": 2.4687899493,
				"y": 0.2652742019,
				"z": -2.6553731639,
				"element": "Br" 
			},
			{
				"x": 1.2136050719,
				"y": 1.7475750635,
				"z": -0.5563239028,
				"element": "C" 
			},
			{
				"x": 0.6237205348,
				"y": 1.9128476948,
				"z": 0.6745832678,
				"element": "C" 
			},
			{
				"x": 0.2043861457,
				"y": 3.1271300935,
				"z": 1.0447590882,
				"element": "F" 
			},
			{
				"x": 0.442704213,
				"y": 0.828499281,
				"z": 1.5747676967,
				"element": "C" 
			},
			{
				"x": -0.1469048697,
				"y": 1.0317173316,
				"z": 2.7873593756,
				"element": "N" 
			},
			{
				"x": -0.2686571716,
				"y": -0.0322256383,
				"z": 3.54687689,
				"element": "C" 
			},
			{
				"x": 0.124409293,
				"y": -1.3028414312,
				"z": 3.2609882445,
				"element": "N" 
			},
			{
				"x": 0.8742171817,
				"y": -3.3024491614,
				"z": 2.5203421477,
				"element": "H" 
			},
			{
				"x": 1.8505619131,
				"y": -1.6146429358,
				"z": -0.4195983429,
				"element": "H" 
			},
			{
				"x": 1.3324997572,
				"y": 2.6008532786,
				"z": -1.2126267511,
				"element": "H" 
			},
			{
				"x": -0.7359387961,
				"y": 0.1024744698,
				"z": 4.5199164948,
				"element": "H" 
			}
		],
		 "valence_orbital": [ 
			{
				"type": "occ",
				"energy": -0.30091,
				"method": "rhf"
			},
			{
				"type": "occ",
				"energy": -0.2997,
				"method": "rhf"
			},
			{
				"type": "occ",
				"energy": -0.27758,
				"method": "rhf"
			},
			{
				"type": "occ",
				"energy": -0.27098,
				"method": "rhf"
			},
			{
				"type": "occ",
				"energy": -0.24127,
				"method": "rhf"
			},
			{
				"type": "unocc",
				"energy": -0.06782,
				"method": "rhf"
			},
			{
				"type": "unocc",
				"energy": -0.04773,
				"method": "rhf"
			},
			{
				"type": "unocc",
				"energy": -0.00753,
				"method": "rhf"
			},
			{
				"type": "unocc",
				"energy": 0.01002,
				"method": "rhf"
			},
			{
				"type": "unocc",
				"energy": 0.06483,
				"method": "rhf"
			}
		],
		"cosmo_sigma_profile": { 
			"-0.025": 0.0,
			"-0.024": 0.0,
			"-0.023": 0.0,
			"-0.022": 0.0,
			"-0.021": 0.0,
			"-0.02": 0.0,
			"-0.019": 0.181178350227,
			"-0.018": 0.805544429633,
			"-0.017": 1.0785009522,
			"-0.016": 0.799973195282,
			"-0.015": 0.509258768623,
			"-0.014": 0.605394137036,
			"-0.013": 0.355941257514,
			"-0.012": 0.89418830294,
			"-0.011": 1.02753971425,
			"-0.01": 0.578302456385,
			"-0.009": 1.87985037507,
			"-0.008": 4.34501532334,
			"-0.007": 4.7554862942,
			"-0.006": 5.03340659824,
			"-0.005": 6.28564428903,
			"-0.004": 9.4614219811,
			"-0.003": 10.4447624857,
			"-0.002": 19.6660969848,
			"-0.001": 23.9502805745,
			"0.0": 22.4462616082,
			"0.001": 16.7278593656,
			"0.002": 12.1377037319,
			"0.003": 19.434293201,
			"0.004": 15.676098098,
			"0.005": 5.3469393845,
			"0.006": 4.47542586785,
			"0.007": 3.96267356013,
			"0.008": 2.22134371634,
			"0.009": 1.88339255858,
			"0.01": 1.6811947926,
			"0.011": 2.24377018954,
			"0.012": 2.08790976855,
			"0.013": 0.677877011485,
			"0.014": 1.14570201633,
			"0.015": 0.315193013352,
			"0.016": 0.0,
			"0.017": 0.0,
			"0.018": 0.0,
			"0.019": 0.0,
			"0.02": 0.0,
			"0.021": 0.0,
			"0.022": 0.0,
			"0.023": 0.0,
			"0.024": 0.0,
			"0.025": 0.0
		}
	}
}
