{
	 "smiles": "COC1=CC=C2SC(S)=NC2=C1", 
	 "Tm": 468.65, 
	 "num_atms": 19, 
	 "gaussian": { 
		 "optdone": 1, 
		 "sigma_profile": "yes", 
		 "theory": "DFT", 
		 "functional": "B3LYP", 
		 "basiset": "6-31G**", 
		 "properties": { 
			 "R2extent": 5879.6218, 
			 "electric_dipole_moment_norm": 1.55556065134, 
			 "electric_quadrupole_moment_norm": 8.10601819083, 
			 "total_energy": -1235.40722997, 
			 "HOMO_LUMO_gap": 0.17791, 
			 "cosmo_polarized_energy": -7.82, 
			 "cosmo_cavitation_energy": 26.6, 
			 "cosmo_dispersion_energy": -21.01, 
			 "cosmo_repulsion_energy": 1.57, 
			 "cosmo_total_nonelectrostatic_energy": 7.16, 
			 "SMD_solvation_energy": 2.65 
		},
		"coords": [
			{
				"x": 0.0534304859,
				"y": -0.048107395,
				"z": -2.2130622112,
				"element": "C" 
			},
			{
				"x": -0.1742419525,
				"y": 1.2660992303,
				"z": -1.7293817939,
				"element": "O" 
			},
			{
				"x": -0.8224297149,
				"y": 1.4089479289,
				"z": -0.5370726915,
				"element": "C" 
			},
			{
				"x": -1.0126968481,
				"y": 2.7446374014,
				"z": -0.1197395829,
				"element": "C" 
			},
			{
				"x": -1.6571963816,
				"y": 3.0360655885,
				"z": 1.0736989767,
				"element": "C" 
			},
			{
				"x": -2.1173578017,
				"y": 1.9758500772,
				"z": 1.8597319444,
				"element": "C" 
			},
			{
				"x": -2.9605282226,
				"y": 2.0055245868,
				"z": 3.4025877912,
				"element": "S" 
			},
			{
				"x": -2.9819694458,
				"y": 0.2288781193,
				"z": 3.3490354843,
				"element": "C" 
			},
			{
				"x": -3.7365914405,
				"y": -0.6558294982,
				"z": 4.6820429136,
				"element": "S" 
			},
			{
				"x": -2.4338166133,
				"y": -0.3258059998,
				"z": 2.3181120903,
				"element": "N" 
			},
			{
				"x": -1.9324624179,
				"y": 0.6374460081,
				"z": 1.4519339868,
				"element": "C" 
			},
			{
				"x": -1.2794226773,
				"y": 0.3479082575,
				"z": 0.243078181,
				"element": "C" 
			},
			{
				"x": 0.5767007514,
				"y": 0.0665395629,
				"z": -3.1635078006,
				"element": "H" 
			},
			{
				"x": 0.6790141549,
				"y": -0.6299304407,
				"z": -1.5238438414,
				"element": "H" 
			},
			{
				"x": -0.8885472047,
				"y": -0.5858649303,
				"z": -2.3815646709,
				"element": "H" 
			},
			{
				"x": -0.6398447055,
				"y": 3.5366626139,
				"z": -0.7601126724,
				"element": "H" 
			},
			{
				"x": -1.7959620257,
				"y": 4.0674319605,
				"z": 1.381094126,
				"element": "H" 
			},
			{
				"x": -3.4758585624,
				"y": -1.8622980304,
				"z": 4.141824848,
				"element": "H" 
			},
			{
				"x": -1.1518193777,
				"y": -0.6876550407,
				"z": -0.0441550776,
				"element": "H" 
			}
		],
		 "valence_orbital": [ 
			{
				"type": "occ",
				"energy": -0.30066,
				"method": "rhf"
			},
			{
				"type": "occ",
				"energy": -0.28339,
				"method": "rhf"
			},
			{
				"type": "occ",
				"energy": -0.27536,
				"method": "rhf"
			},
			{
				"type": "occ",
				"energy": -0.23283,
				"method": "rhf"
			},
			{
				"type": "occ",
				"energy": -0.21284,
				"method": "rhf"
			},
			{
				"type": "unocc",
				"energy": -0.03493,
				"method": "rhf"
			},
			{
				"type": "unocc",
				"energy": -0.01099,
				"method": "rhf"
			},
			{
				"type": "unocc",
				"energy": 0.00233,
				"method": "rhf"
			},
			{
				"type": "unocc",
				"energy": 0.02423,
				"method": "rhf"
			},
			{
				"type": "unocc",
				"energy": 0.03362,
				"method": "rhf"
			}
		],
		"cosmo_sigma_profile": { 
			"-0.025": 0.0,
			"-0.024": 0.0,
			"-0.023": 0.0,
			"-0.022": 0.0,
			"-0.021": 0.0,
			"-0.02": 0.0,
			"-0.019": 0.0,
			"-0.018": 0.0,
			"-0.017": 0.0,
			"-0.016": 0.0,
			"-0.015": 0.0,
			"-0.014": 0.0,
			"-0.013": 0.0263495881769,
			"-0.012": 1.34382211008,
			"-0.011": 1.15732531709,
			"-0.01": 1.59240275964,
			"-0.009": 1.04049021063,
			"-0.008": 1.87985294463,
			"-0.007": 6.10401918421,
			"-0.006": 10.4830045318,
			"-0.005": 17.1927495213,
			"-0.004": 14.4163614079,
			"-0.003": 15.205251916,
			"-0.002": 12.0026264974,
			"-0.001": 11.2578886873,
			"0.0": 16.8640797896,
			"0.001": 18.5998809706,
			"0.002": 20.6130015988,
			"0.003": 24.355335905,
			"0.004": 17.997272148,
			"0.005": 7.26953929356,
			"0.006": 5.81659066992,
			"0.007": 3.30548006248,
			"0.008": 2.2173762325,
			"0.009": 2.52895726654,
			"0.01": 2.3752833454,
			"0.011": 0.936045079445,
			"0.012": 0.967721979836,
			"0.013": 0.639167556857,
			"0.014": 0.060108963279,
			"0.015": 0.0,
			"0.016": 0.0,
			"0.017": 0.0,
			"0.018": 0.0,
			"0.019": 0.0,
			"0.02": 0.0,
			"0.021": 0.0,
			"0.022": 0.0,
			"0.023": 0.0,
			"0.024": 0.0,
			"0.025": 0.0
		}
	}
}
