{
	 "smiles": "[O-][N+](=O)C1=CC=CC2=C1C=CC=C2[N+]([O-])=O", 
	 "Tm": 491.15, 
	 "num_atms": 22, 
	 "gaussian": { 
		 "optdone": 1, 
		 "sigma_profile": "yes", 
		 "theory": "DFT", 
		 "functional": "B3LYP", 
		 "basiset": "6-31G**", 
		 "properties": { 
			 "R2extent": 3805.5085, 
			 "electric_dipole_moment_norm": 0.000866025403784, 
			 "electric_quadrupole_moment_norm": 31.5729743604, 
			 "total_energy": -794.873521773, 
			 "HOMO_LUMO_gap": 0.14752, 
			 "cosmo_polarized_energy": -11.2, 
			 "cosmo_cavitation_energy": 27.51, 
			 "cosmo_dispersion_energy": -20.49, 
			 "cosmo_repulsion_energy": 1.55, 
			 "cosmo_total_nonelectrostatic_energy": 8.57, 
			 "SMD_solvation_energy": 8.83 
		},
		"coords": [
			{
				"x": 0.3310472028,
				"y": 0.8721281304,
				"z": 3.8870590807,
				"element": "O" 
			},
			{
				"x": 0.937982712,
				"y": -0.1734030381,
				"z": 3.6487555731,
				"element": "N" 
			},
			{
				"x": 1.3944462381,
				"y": -0.9198042618,
				"z": 4.5128441094,
				"element": "O" 
			},
			{
				"x": 1.1764864756,
				"y": -0.5510368932,
				"z": 2.2409392883,
				"element": "C" 
			},
			{
				"x": 2.3181990192,
				"y": -1.2871222149,
				"z": 2.0173348547,
				"element": "C" 
			},
			{
				"x": 2.6687264873,
				"y": -1.6467117353,
				"z": 0.7046358011,
				"element": "C" 
			},
			{
				"x": 1.8616950667,
				"y": -1.302132715,
				"z": -0.3551447095,
				"element": "C" 
			},
			{
				"x": 0.6536455561,
				"y": -0.5783866137,
				"z": -0.1520875124,
				"element": "C" 
			},
			{
				"x": 0.2916165623,
				"y": -0.1631926138,
				"z": 1.1835404211,
				"element": "C" 
			},
			{
				"x": -0.916511035,
				"y": 0.5604721844,
				"z": 1.3865239709,
				"element": "C" 
			},
			{
				"x": -1.72353719,
				"y": 0.9049755311,
				"z": 0.3267021092,
				"element": "C" 
			},
			{
				"x": -1.3729432664,
				"y": 0.5454183134,
				"z": -0.9859879225,
				"element": "C" 
			},
			{
				"x": -0.2311640962,
				"y": -0.1905704024,
				"z": -1.209507511,
				"element": "C" 
			},
			{
				"x": 0.0075529675,
				"y": -0.5683130825,
				"z": -2.6172406714,
				"element": "N" 
			},
			{
				"x": -0.4490636648,
				"y": 0.177824399,
				"z": -3.4814761601,
				"element": "O" 
			},
			{
				"x": 0.6147275414,
				"y": -1.6137713025,
				"z": -2.8552604547,
				"element": "O" 
			},
			{
				"x": 2.9375069865,
				"y": -1.5636537463,
				"z": 2.8612322252,
				"element": "H" 
			},
			{
				"x": 3.5851499585,
				"y": -2.2002007501,
				"z": 0.529051429,
				"element": "H" 
			},
			{
				"x": 2.1365410938,
				"y": -1.5917757556,
				"z": -1.3582986635,
				"element": "H" 
			},
			{
				"x": -1.1914604047,
				"y": 0.8500686962,
				"z": 2.3896515918,
				"element": "H" 
			},
			{
				"x": -2.6400128405,
				"y": 1.4583890887,
				"z": 0.5022521053,
				"element": "H" 
			},
			{
				"x": -1.9922313703,
				"y": 0.8218987819,
				"z": -1.8299189548,
				"element": "H" 
			}
		],
		 "valence_orbital": [ 
			{
				"type": "occ",
				"energy": -0.31411,
				"method": "rhf"
			},
			{
				"type": "occ",
				"energy": -0.30571,
				"method": "rhf"
			},
			{
				"type": "occ",
				"energy": -0.29464,
				"method": "rhf"
			},
			{
				"type": "occ",
				"energy": -0.28682,
				"method": "rhf"
			},
			{
				"type": "occ",
				"energy": -0.26117,
				"method": "rhf"
			},
			{
				"type": "unocc",
				"energy": -0.11365,
				"method": "rhf"
			},
			{
				"type": "unocc",
				"energy": -0.09204,
				"method": "rhf"
			},
			{
				"type": "unocc",
				"energy": -0.05217,
				"method": "rhf"
			},
			{
				"type": "unocc",
				"energy": -0.04591,
				"method": "rhf"
			},
			{
				"type": "unocc",
				"energy": 0.01059,
				"method": "rhf"
			}
		],
		"cosmo_sigma_profile": { 
			"-0.025": 0.0,
			"-0.024": 0.0,
			"-0.023": 0.0,
			"-0.022": 0.0,
			"-0.021": 0.0,
			"-0.02": 0.0,
			"-0.019": 0.0,
			"-0.018": 0.0,
			"-0.017": 0.0,
			"-0.016": 0.0,
			"-0.015": 0.0,
			"-0.014": 0.0,
			"-0.013": 0.0,
			"-0.012": 0.0,
			"-0.011": 0.0,
			"-0.01": 0.0,
			"-0.009": 1.16990157104,
			"-0.008": 8.25586909166,
			"-0.007": 13.108077832,
			"-0.006": 16.3160339086,
			"-0.005": 13.1076764381,
			"-0.004": 9.93873600707,
			"-0.003": 11.0118976236,
			"-0.002": 15.5102482409,
			"-0.001": 23.3305854975,
			"0.0": 22.3861979007,
			"0.001": 16.7285395825,
			"0.002": 7.8824929839,
			"0.003": 4.63984780928,
			"0.004": 6.24411556668,
			"0.005": 6.3901585152,
			"0.006": 8.56113852346,
			"0.007": 16.8218428315,
			"0.008": 10.8009684788,
			"0.009": 7.82136723627,
			"0.01": 2.79902374332,
			"0.011": 0.0,
			"0.012": 0.0,
			"0.013": 0.0,
			"0.014": 0.0,
			"0.015": 0.0,
			"0.016": 0.0,
			"0.017": 0.0,
			"0.018": 0.0,
			"0.019": 0.0,
			"0.02": 0.0,
			"0.021": 0.0,
			"0.022": 0.0,
			"0.023": 0.0,
			"0.024": 0.0,
			"0.025": 0.0
		}
	}
}
