{
	 "smiles": "CC1=C(Cl)C=C(N)C=C1", 
	 "Tm": 297.65, 
	 "num_atms": 17, 
	 "gaussian": { 
		 "optdone": 1, 
		 "sigma_profile": "yes", 
		 "theory": "DFT", 
		 "functional": "B3LYP", 
		 "basiset": "6-31G**", 
		 "properties": { 
			 "R2extent": 2166.684, 
			 "electric_dipole_moment_norm": 2.77707644295, 
			 "electric_quadrupole_moment_norm": 11.7987479942, 
			 "total_energy": -786.521749282, 
			 "HOMO_LUMO_gap": 0.19976, 
			 "cosmo_polarized_energy": -8.18, 
			 "cosmo_cavitation_energy": 22.11, 
			 "cosmo_dispersion_energy": -16.61, 
			 "cosmo_repulsion_energy": 1.36, 
			 "cosmo_total_nonelectrostatic_energy": 6.86, 
			 "SMD_solvation_energy": 3.53 
		},
		"coords": [
			{
				"x": -2.3147975728,
				"y": 0.9235945957,
				"z": -1.2983732213,
				"element": "C" 
			},
			{
				"x": -1.4873599171,
				"y": -0.3360920846,
				"z": -1.3044987585,
				"element": "C" 
			},
			{
				"x": -0.0974082456,
				"y": -0.3335499809,
				"z": -1.1226000181,
				"element": "C" 
			},
			{
				"x": 0.7430686978,
				"y": 1.2007079773,
				"z": -0.8768751756,
				"element": "Cl" 
			},
			{
				"x": 0.6727961252,
				"y": -1.492308886,
				"z": -1.1287227998,
				"element": "C" 
			},
			{
				"x": 0.0590474581,
				"y": -2.7398422371,
				"z": -1.3229028442,
				"element": "C" 
			},
			{
				"x": 0.8098028476,
				"y": -3.9158031341,
				"z": -1.2735897013,
				"element": "N" 
			},
			{
				"x": -1.3322988454,
				"y": -2.7741896466,
				"z": -1.508153939,
				"element": "C" 
			},
			{
				"x": -2.0717657413,
				"y": -1.5960100282,
				"z": -1.4963504818,
				"element": "C" 
			},
			{
				"x": -3.3705700379,
				"y": 0.6891277004,
				"z": -1.4584176353,
				"element": "H" 
			},
			{
				"x": -2.2268155854,
				"y": 1.4603367594,
				"z": -0.3472520739,
				"element": "H" 
			},
			{
				"x": -1.9986372338,
				"y": 1.619362688,
				"z": -2.0835398355,
				"element": "H" 
			},
			{
				"x": 1.7453604942,
				"y": -1.4252347924,
				"z": -0.9777240809,
				"element": "H" 
			},
			{
				"x": 0.4022049514,
				"y": -4.7035339557,
				"z": -1.758137216,
				"element": "H" 
			},
			{
				"x": 1.7914811026,
				"y": -3.8095125796,
				"z": -1.4892510856,
				"element": "H" 
			},
			{
				"x": -1.8326292913,
				"y": -3.7276073435,
				"z": -1.6563456877,
				"element": "H" 
			},
			{
				"x": -3.1474792062,
				"y": -1.6496450523,
				"z": -1.6436654456,
				"element": "H" 
			}
		],
		 "valence_orbital": [ 
			{
				"type": "occ",
				"energy": -0.3418,
				"method": "rhf"
			},
			{
				"type": "occ",
				"energy": -0.30379,
				"method": "rhf"
			},
			{
				"type": "occ",
				"energy": -0.29468,
				"method": "rhf"
			},
			{
				"type": "occ",
				"energy": -0.24103,
				"method": "rhf"
			},
			{
				"type": "occ",
				"energy": -0.20368,
				"method": "rhf"
			},
			{
				"type": "unocc",
				"energy": -0.00392,
				"method": "rhf"
			},
			{
				"type": "unocc",
				"energy": 0.01314,
				"method": "rhf"
			},
			{
				"type": "unocc",
				"energy": 0.03886,
				"method": "rhf"
			},
			{
				"type": "unocc",
				"energy": 0.07775,
				"method": "rhf"
			},
			{
				"type": "unocc",
				"energy": 0.10755,
				"method": "rhf"
			}
		],
		"cosmo_sigma_profile": { 
			"-0.025": 0.0,
			"-0.024": 0.0,
			"-0.023": 0.0,
			"-0.022": 0.0,
			"-0.021": 0.0,
			"-0.02": 0.0,
			"-0.019": 0.0,
			"-0.018": 0.0,
			"-0.017": 0.0,
			"-0.016": 0.0,
			"-0.015": 0.0,
			"-0.014": 0.0,
			"-0.013": 0.679134366436,
			"-0.012": 2.46744692925,
			"-0.011": 3.30299883469,
			"-0.01": 2.95969555453,
			"-0.009": 2.79789722225,
			"-0.008": 3.50746766117,
			"-0.007": 3.45659673597,
			"-0.006": 5.1381110066,
			"-0.005": 7.47707808717,
			"-0.004": 9.74506276833,
			"-0.003": 10.5851810665,
			"-0.002": 10.0075977278,
			"-0.001": 11.8318993264,
			"0.0": 15.1619330581,
			"0.001": 13.0290689427,
			"0.002": 11.4850219653,
			"0.003": 13.8050413987,
			"0.004": 16.2120737467,
			"0.005": 19.496738303,
			"0.006": 8.39491764592,
			"0.007": 0.679986353046,
			"0.008": 0.443281709015,
			"0.009": 1.01044306095,
			"0.01": 0.911617137649,
			"0.011": 0.718140239336,
			"0.012": 0.576329154829,
			"0.013": 0.43737285389,
			"0.014": 0.847426014907,
			"0.015": 0.0301562729693,
			"0.016": 0.0,
			"0.017": 0.0,
			"0.018": 0.0,
			"0.019": 0.0,
			"0.02": 0.0,
			"0.021": 0.0,
			"0.022": 0.0,
			"0.023": 0.0,
			"0.024": 0.0,
			"0.025": 0.0
		}
	}
}
