{
	 "smiles": "COC1=C(F)C=C(C=C1)C1CCCCC1=O", 
	 "Tm": 352.15, 
	 "num_atms": 31, 
	 "gaussian": { 
		 "optdone": 1, 
		 "sigma_profile": "yes", 
		 "theory": "DFT", 
		 "functional": "B3LYP", 
		 "basiset": "6-31G**", 
		 "properties": { 
			 "R2extent": 4381.3794, 
			 "electric_dipole_moment_norm": 2.7014691503, 
			 "electric_quadrupole_moment_norm": 12.5098900535, 
			 "total_energy": -754.695243598, 
			 "HOMO_LUMO_gap": 0.19503, 
			 "cosmo_polarized_energy": -8.82, 
			 "cosmo_cavitation_energy": 32.84, 
			 "cosmo_dispersion_energy": -23.79, 
			 "cosmo_repulsion_energy": 1.83, 
			 "cosmo_total_nonelectrostatic_energy": 10.88, 
			 "SMD_solvation_energy": 6.6 
		},
		"coords": [
			{
				"x": 2.2353562257,
				"y": 4.4730343167,
				"z": -0.3420873154,
				"element": "C" 
			},
			{
				"x": 1.4656251337,
				"y": 3.7073169946,
				"z": -1.2700107269,
				"element": "O" 
			},
			{
				"x": 1.0929608174,
				"y": 2.4282646035,
				"z": -0.9956133641,
				"element": "C" 
			},
			{
				"x": 1.3784377057,
				"y": 1.6828892863,
				"z": 0.1592562474,
				"element": "C" 
			},
			{
				"x": 2.109754551,
				"y": 2.2254932492,
				"z": 1.1675973652,
				"element": "F" 
			},
			{
				"x": 0.9349706066,
				"y": 0.3783965485,
				"z": 0.3183113285,
				"element": "C" 
			},
			{
				"x": 0.1776544349,
				"y": -0.2569250735,
				"z": -0.6753632268,
				"element": "C" 
			},
			{
				"x": -0.110644942,
				"y": 0.4769409189,
				"z": -1.8336827731,
				"element": "C" 
			},
			{
				"x": 0.3380888124,
				"y": 1.7863014965,
				"z": -1.9859513106,
				"element": "C" 
			},
			{
				"x": -0.2475782297,
				"y": -1.7139521865,
				"z": -0.455236286,
				"element": "C" 
			},
			{
				"x": -1.1293977438,
				"y": -2.3352584274,
				"z": -1.5637744552,
				"element": "C" 
			},
			{
				"x": -2.5938777873,
				"y": -1.868143687,
				"z": -1.5314923891,
				"element": "C" 
			},
			{
				"x": -3.2242736201,
				"y": -2.1281867733,
				"z": -0.1572591822,
				"element": "C" 
			},
			{
				"x": -2.4124719294,
				"y": -1.4464391456,
				"z": 0.9616285223,
				"element": "C" 
			},
			{
				"x": -0.942145118,
				"y": -1.8312811229,
				"z": 0.9139271742,
				"element": "C" 
			},
			{
				"x": -0.3309685259,
				"y": -2.1933875378,
				"z": 1.9026872085,
				"element": "O" 
			},
			{
				"x": 3.2095217831,
				"y": 4.0150024022,
				"z": -0.1485288775,
				"element": "H" 
			},
			{
				"x": 2.3768758168,
				"y": 5.4421321872,
				"z": -0.823641172,
				"element": "H" 
			},
			{
				"x": 1.7079778415,
				"y": 4.6094742058,
				"z": 0.6064217676,
				"element": "H" 
			},
			{
				"x": 1.1959849151,
				"y": -0.1382423659,
				"z": 1.2366495263,
				"element": "H" 
			},
			{
				"x": -0.6834760234,
				"y": 0.0340574689,
				"z": -2.6402657961,
				"element": "H" 
			},
			{
				"x": 0.1139486194,
				"y": 2.3510858922,
				"z": -2.8851064039,
				"element": "H" 
			},
			{
				"x": 0.6681369053,
				"y": -2.3094230949,
				"z": -0.3619792845,
				"element": "H" 
			},
			{
				"x": -0.6785821228,
				"y": -2.1497823416,
				"z": -2.545116916,
				"element": "H" 
			},
			{
				"x": -1.1116153056,
				"y": -3.4242951728,
				"z": -1.426912162,
				"element": "H" 
			},
			{
				"x": -3.1606820326,
				"y": -2.3901796685,
				"z": -2.3112185106,
				"element": "H" 
			},
			{
				"x": -2.6584048877,
				"y": -0.797386011,
				"z": -1.7600956614,
				"element": "H" 
			},
			{
				"x": -4.2595781954,
				"y": -1.7704252664,
				"z": -0.1320029268,
				"element": "H" 
			},
			{
				"x": -3.2620318801,
				"y": -3.2096344425,
				"z": 0.0305626796,
				"element": "H" 
			},
			{
				"x": -2.4680771431,
				"y": -0.356351873,
				"z": 0.8298572775,
				"element": "H" 
			},
			{
				"x": -2.7952886819,
				"y": -1.68269538,
				"z": 1.9578396432,
				"element": "H" 
			}
		],
		 "valence_orbital": [ 
			{
				"type": "occ",
				"energy": -0.32383,
				"method": "rhf"
			},
			{
				"type": "occ",
				"energy": -0.31369,
				"method": "rhf"
			},
			{
				"type": "occ",
				"energy": -0.24987,
				"method": "rhf"
			},
			{
				"type": "occ",
				"energy": -0.24057,
				"method": "rhf"
			},
			{
				"type": "occ",
				"energy": -0.21521,
				"method": "rhf"
			},
			{
				"type": "unocc",
				"energy": -0.02018,
				"method": "rhf"
			},
			{
				"type": "unocc",
				"energy": -0.00779,
				"method": "rhf"
			},
			{
				"type": "unocc",
				"energy": 0.01267,
				"method": "rhf"
			},
			{
				"type": "unocc",
				"energy": 0.07639,
				"method": "rhf"
			},
			{
				"type": "unocc",
				"energy": 0.08987,
				"method": "rhf"
			}
		],
		"cosmo_sigma_profile": { 
			"-0.025": 0.0,
			"-0.024": 0.0,
			"-0.023": 0.0,
			"-0.022": 0.0,
			"-0.021": 0.0,
			"-0.02": 0.0,
			"-0.019": 0.0,
			"-0.018": 0.0,
			"-0.017": 0.0,
			"-0.016": 0.0,
			"-0.015": 0.0,
			"-0.014": 0.0,
			"-0.013": 0.0,
			"-0.012": 0.0,
			"-0.011": 0.0,
			"-0.01": 0.0,
			"-0.009": 0.0,
			"-0.008": 0.0,
			"-0.007": 0.211555339884,
			"-0.006": 4.773317832,
			"-0.005": 14.6538966316,
			"-0.004": 27.0968411304,
			"-0.003": 35.3330207568,
			"-0.002": 33.5068893444,
			"-0.001": 30.3406893234,
			"0.0": 22.7865239499,
			"0.001": 14.1900820498,
			"0.002": 13.6154013778,
			"0.003": 14.7123739252,
			"0.004": 15.4126197507,
			"0.005": 7.54878568207,
			"0.006": 3.78772590019,
			"0.007": 2.35112914242,
			"0.008": 2.44780107986,
			"0.009": 3.75202074521,
			"0.01": 2.57104749046,
			"0.011": 2.85442173961,
			"0.012": 4.15653789707,
			"0.013": 2.14842698902,
			"0.014": 0.124785167272,
			"0.015": 0.0,
			"0.016": 0.0,
			"0.017": 0.0,
			"0.018": 0.0,
			"0.019": 0.0,
			"0.02": 0.0,
			"0.021": 0.0,
			"0.022": 0.0,
			"0.023": 0.0,
			"0.024": 0.0,
			"0.025": 0.0
		}
	}
}
