{
	 "smiles": "CCCCCCCCCCCCCCCC1CCCCC1", 
	 "Tm": 302.15, 
	 "num_atms": 63, 
	 "gaussian": { 
		 "optdone": 1, 
		 "sigma_profile": "yes", 
		 "theory": "DFT", 
		 "functional": "B3LYP", 
		 "basiset": "6-31G**", 
		 "properties": { 
			 "R2extent": 9924.1231, 
			 "electric_dipole_moment_norm": 0.141105527886, 
			 "electric_quadrupole_moment_norm": 0.681321414605, 
			 "total_energy": -825.60030851, 
			 "HOMO_LUMO_gap": 0.32891, 
			 "cosmo_polarized_energy": -1.19, 
			 "cosmo_cavitation_energy": 58.35, 
			 "cosmo_dispersion_energy": -35.75, 
			 "cosmo_repulsion_energy": 2.82, 
			 "cosmo_total_nonelectrostatic_energy": 25.42, 
			 "SMD_solvation_energy": 6.78 
		},
		"coords": [
			{
				"x": -2.2736794758,
				"y": -1.208983424,
				"z": 5.9647748667,
				"element": "C" 
			},
			{
				"x": -2.4074984444,
				"y": -1.8733757023,
				"z": 4.5904019637,
				"element": "C" 
			},
			{
				"x": -1.2435550551,
				"y": -1.5370456352,
				"z": 3.6478253273,
				"element": "C" 
			},
			{
				"x": -1.2887894733,
				"y": -2.2551009493,
				"z": 2.2872124344,
				"element": "C" 
			},
			{
				"x": -2.4959806403,
				"y": -1.9331178409,
				"z": 1.3879234836,
				"element": "C" 
			},
			{
				"x": -2.6004704204,
				"y": -0.4584451739,
				"z": 0.9649908488,
				"element": "C" 
			},
			{
				"x": -3.7407561128,
				"y": -0.148388026,
				"z": -0.032173151,
				"element": "C" 
			},
			{
				"x": -3.3582624493,
				"y": -0.1758151185,
				"z": -1.523831029,
				"element": "C" 
			},
			{
				"x": -2.8960391385,
				"y": -1.5349624332,
				"z": -2.0699531738,
				"element": "C" 
			},
			{
				"x": -2.7330303193,
				"y": -1.5787264981,
				"z": -3.5995848415,
				"element": "C" 
			},
			{
				"x": -1.5872646398,
				"y": -0.7346563447,
				"z": -4.1892273339,
				"element": "C" 
			},
			{
				"x": -0.1647280797,
				"y": -1.1868338559,
				"z": -3.7718461073,
				"element": "C" 
			},
			{
				"x": 0.5566028126,
				"y": -0.2295984323,
				"z": -2.8094643654,
				"element": "C" 
			},
			{
				"x": 1.9412554616,
				"y": -0.7448246139,
				"z": -2.3918350971,
				"element": "C" 
			},
			{
				"x": 2.8519580624,
				"y": 0.2343168073,
				"z": -1.6287054458,
				"element": "C" 
			},
			{
				"x": 2.3655538124,
				"y": 0.7098692912,
				"z": -0.2412796714,
				"element": "C" 
			},
			{
				"x": 1.4831870285,
				"y": 1.9717393163,
				"z": -0.2843013208,
				"element": "C" 
			},
			{
				"x": 0.8576534,
				"y": 2.2809111535,
				"z": 1.0975452768,
				"element": "C" 
			},
			{
				"x": 1.7620444311,
				"y": 1.828900282,
				"z": 2.2677742591,
				"element": "C" 
			},
			{
				"x": 3.2427499973,
				"y": 1.9220919702,
				"z": 1.8785915615,
				"element": "C" 
			},
			{
				"x": 3.5735321963,
				"y": 0.9781154803,
				"z": 0.6968763677,
				"element": "C" 
			},
			{
				"x": -3.1147962883,
				"y": -1.4636971326,
				"z": 6.6180619666,
				"element": "H" 
			},
			{
				"x": -2.2416915919,
				"y": -0.1169438545,
				"z": 5.8752810802,
				"element": "H" 
			},
			{
				"x": -1.3530136806,
				"y": -1.5240755168,
				"z": 6.4693437093,
				"element": "H" 
			},
			{
				"x": -2.4671159646,
				"y": -2.9637090733,
				"z": 4.7143400783,
				"element": "H" 
			},
			{
				"x": -3.3579713211,
				"y": -1.5683825319,
				"z": 4.1343727362,
				"element": "H" 
			},
			{
				"x": -0.3008953355,
				"y": -1.8026304929,
				"z": 4.1460389511,
				"element": "H" 
			},
			{
				"x": -1.2025982905,
				"y": -0.4496053935,
				"z": 3.4982744609,
				"element": "H" 
			},
			{
				"x": -1.2632118189,
				"y": -3.3395162584,
				"z": 2.4626612092,
				"element": "H" 
			},
			{
				"x": -0.3681829838,
				"y": -2.0179902551,
				"z": 1.7356349632,
				"element": "H" 
			},
			{
				"x": -2.4360744245,
				"y": -2.5683346876,
				"z": 0.4968213854,
				"element": "H" 
			},
			{
				"x": -3.4270049538,
				"y": -2.2221142685,
				"z": 1.8939947726,
				"element": "H" 
			},
			{
				"x": -1.6415677342,
				"y": -0.1330176961,
				"z": 0.5352089101,
				"element": "H" 
			},
			{
				"x": -2.7435877931,
				"y": 0.1532210815,
				"z": 1.8640761967,
				"element": "H" 
			},
			{
				"x": -4.1381053466,
				"y": 0.8510601061,
				"z": 0.1844987878,
				"element": "H" 
			},
			{
				"x": -4.5743306976,
				"y": -0.843583266,
				"z": 0.1428497193,
				"element": "H" 
			},
			{
				"x": -4.2303047223,
				"y": 0.1538082361,
				"z": -2.1064258434,
				"element": "H" 
			},
			{
				"x": -2.5793464049,
				"y": 0.5786035228,
				"z": -1.6987615776,
				"element": "H" 
			},
			{
				"x": -3.6316427168,
				"y": -2.2983185484,
				"z": -1.7811359515,
				"element": "H" 
			},
			{
				"x": -1.9531822151,
				"y": -1.831353191,
				"z": -1.5926920945,
				"element": "H" 
			},
			{
				"x": -2.5820755765,
				"y": -2.6228405693,
				"z": -3.9061931861,
				"element": "H" 
			},
			{
				"x": -3.6789683139,
				"y": -1.2629397374,
				"z": -4.0613748231,
				"element": "H" 
			},
			{
				"x": -1.6753828136,
				"y": -0.7776231129,
				"z": -5.2814826351,
				"element": "H" 
			},
			{
				"x": -1.7296639556,
				"y": 0.3218066752,
				"z": -3.9271412792,
				"element": "H" 
			},
			{
				"x": 0.4608672696,
				"y": -1.3041581817,
				"z": -4.666106249,
				"element": "H" 
			},
			{
				"x": -0.2134732523,
				"y": -2.1860417365,
				"z": -3.3166940653,
				"element": "H" 
			},
			{
				"x": -0.0675857847,
				"y": -0.0655737455,
				"z": -1.9219575275,
				"element": "H" 
			},
			{
				"x": 0.6595547228,
				"y": 0.750881814,
				"z": -3.2961070374,
				"element": "H" 
			},
			{
				"x": 2.477371229,
				"y": -1.0624160126,
				"z": -3.2974604996,
				"element": "H" 
			},
			{
				"x": 1.8141650442,
				"y": -1.6554086917,
				"z": -1.7884108699,
				"element": "H" 
			},
			{
				"x": 3.8212406756,
				"y": -0.2661522454,
				"z": -1.5002390704,
				"element": "H" 
			},
			{
				"x": 3.0557100116,
				"y": 1.1146079445,
				"z": -2.2563111396,
				"element": "H" 
			},
			{
				"x": 1.7673397649,
				"y": -0.10250677,
				"z": 0.2000086748,
				"element": "H" 
			},
			{
				"x": 0.6950221636,
				"y": 1.8816087174,
				"z": -1.0374393949,
				"element": "H" 
			},
			{
				"x": 2.1121236572,
				"y": 2.8133890378,
				"z": -0.6072750631,
				"element": "H" 
			},
			{
				"x": -0.1187743889,
				"y": 1.7890103693,
				"z": 1.1826685783,
				"element": "H" 
			},
			{
				"x": 0.6639207232,
				"y": 3.3580138166,
				"z": 1.1714304789,
				"element": "H" 
			},
			{
				"x": 1.5563293167,
				"y": 2.4306476873,
				"z": 3.1603792081,
				"element": "H" 
			},
			{
				"x": 1.5297368432,
				"y": 0.7910786157,
				"z": 2.5405907625,
				"element": "H" 
			},
			{
				"x": 3.8855321751,
				"y": 1.692579362,
				"z": 2.7360904211,
				"element": "H" 
			},
			{
				"x": 3.4682141466,
				"y": 2.9601030911,
				"z": 1.6006971763,
				"element": "H" 
			},
			{
				"x": 3.9471867712,
				"y": 0.0174402803,
				"z": 1.0733686907,
				"element": "H" 
			},
			{
				"x": 4.3919509013,
				"y": 1.4118023591,
				"z": 0.1070005368,
				"element": "H" 
			}
		],
		 "valence_orbital": [ 
			{
				"type": "occ",
				"energy": -0.29582,
				"method": "rhf"
			},
			{
				"type": "occ",
				"energy": -0.29242,
				"method": "rhf"
			},
			{
				"type": "occ",
				"energy": -0.28971,
				"method": "rhf"
			},
			{
				"type": "occ",
				"energy": -0.28544,
				"method": "rhf"
			},
			{
				"type": "occ",
				"energy": -0.28069,
				"method": "rhf"
			},
			{
				"type": "unocc",
				"energy": 0.04822,
				"method": "rhf"
			},
			{
				"type": "unocc",
				"energy": 0.08541,
				"method": "rhf"
			},
			{
				"type": "unocc",
				"energy": 0.08616,
				"method": "rhf"
			},
			{
				"type": "unocc",
				"energy": 0.08955,
				"method": "rhf"
			},
			{
				"type": "unocc",
				"energy": 0.0973,
				"method": "rhf"
			}
		],
		"cosmo_sigma_profile": { 
			"-0.025": 0.0,
			"-0.024": 0.0,
			"-0.023": 0.0,
			"-0.022": 0.0,
			"-0.021": 0.0,
			"-0.02": 0.0,
			"-0.019": 0.0,
			"-0.018": 0.0,
			"-0.017": 0.0,
			"-0.016": 0.0,
			"-0.015": 0.0,
			"-0.014": 0.0,
			"-0.013": 0.0,
			"-0.012": 0.0,
			"-0.011": 0.0,
			"-0.01": 0.0,
			"-0.009": 0.0,
			"-0.008": 0.0,
			"-0.007": 0.0,
			"-0.006": 0.0,
			"-0.005": 0.0,
			"-0.004": 0.0,
			"-0.003": 1.583154394,
			"-0.002": 35.1200580979,
			"-0.001": 118.047761745,
			"0.0": 143.32740383,
			"0.001": 99.4942153132,
			"0.002": 45.5580246652,
			"0.003": 0.765835211545,
			"0.004": 0.0,
			"0.005": 0.0,
			"0.006": 0.0,
			"0.007": 0.0,
			"0.008": 0.0,
			"0.009": 0.0,
			"0.01": 0.0,
			"0.011": 0.0,
			"0.012": 0.0,
			"0.013": 0.0,
			"0.014": 0.0,
			"0.015": 0.0,
			"0.016": 0.0,
			"0.017": 0.0,
			"0.018": 0.0,
			"0.019": 0.0,
			"0.02": 0.0,
			"0.021": 0.0,
			"0.022": 0.0,
			"0.023": 0.0,
			"0.024": 0.0,
			"0.025": 0.0
		}
	}
}
