{
	 "smiles": "OC(=O)C1=C2C(CC3=C2C=CC(I)=C3)=CC=C1", 
	 "Tm": 539.15, 
	 "num_atms": 26, 
	 "gaussian": { 
		 "optdone": 1, 
		 "sigma_profile": "no", 
		 "theory": "DFT", 
		 "functional": "B3LYP", 
		 "basiset": "6-31G**", 
		 "properties": { 
			 "R2extent": 4824.5296, 
			 "electric_dipole_moment_norm": 4.80271455013, 
			 "electric_quadrupole_moment_norm": 11.2467054781, 
			 "total_energy": -700.769569185, 
			 "HOMO_LUMO_gap": 0.16609, 
			 "cosmo_polarized_energy": -102199.5, 
			 "cosmo_cavitation_energy": 33.02, 
			 "cosmo_dispersion_energy": -25.72, 
			 "cosmo_repulsion_energy": 1.94, 
			 "cosmo_total_nonelectrostatic_energy": 9.24, 
			 "SMD_solvation_energy": 5.0 
		},
		"coords": [
			{
				"x": -2.2266804687,
				"y": -2.828611557,
				"z": 0.958363211,
				"element": "O" 
			},
			{
				"x": -1.6480067945,
				"y": -1.9160719101,
				"z": 1.7885202976,
				"element": "C" 
			},
			{
				"x": -1.4132225913,
				"y": -2.2136805971,
				"z": 2.9346592306,
				"element": "O" 
			},
			{
				"x": -1.4043826064,
				"y": -0.5493573326,
				"z": 1.2176028221,
				"element": "C" 
			},
			{
				"x": -0.9674226458,
				"y": -0.2619170869,
				"z": -0.0936500509,
				"element": "C" 
			},
			{
				"x": -0.8829576735,
				"y": 1.0893173137,
				"z": -0.5054982976,
				"element": "C" 
			},
			{
				"x": -0.4236943035,
				"y": 1.1811510652,
				"z": -1.9418477851,
				"element": "C" 
			},
			{
				"x": -0.1931149432,
				"y": -0.2642898178,
				"z": -2.309515968,
				"element": "C" 
			},
			{
				"x": -0.4968759226,
				"y": -1.1079115958,
				"z": -1.2169191303,
				"element": "C" 
			},
			{
				"x": -0.2711903182,
				"y": -2.4862016185,
				"z": -1.3369242957,
				"element": "C" 
			},
			{
				"x": 0.2116997361,
				"y": -3.0060215049,
				"z": -2.5400600654,
				"element": "C" 
			},
			{
				"x": 0.4758589353,
				"y": -2.1548266324,
				"z": -3.6164472525,
				"element": "C" 
			},
			{
				"x": 1.199493536,
				"y": -2.9671026676,
				"z": -5.4356964954,
				"element": "I" 
			},
			{
				"x": 0.2843683295,
				"y": -0.7739109713,
				"z": -3.5107598827,
				"element": "C" 
			},
			{
				"x": -1.1864794883,
				"y": 2.1339552506,
				"z": 0.3580569305,
				"element": "C" 
			},
			{
				"x": -1.5672522784,
				"y": 1.8429773814,
				"z": 1.6710937105,
				"element": "C" 
			},
			{
				"x": -1.6666660349,
				"y": 0.5184166552,
				"z": 2.0901741355,
				"element": "C" 
			},
			{
				"x": -2.446462368,
				"y": -2.4148672655,
				"z": 0.1104858937,
				"element": "H" 
			},
			{
				"x": 0.4913642541,
				"y": 1.7782396059,
				"z": -2.0470123328,
				"element": "H" 
			},
			{
				"x": -1.1808332912,
				"y": 1.6558159144,
				"z": -2.5804030711,
				"element": "H" 
			},
			{
				"x": -0.4516992094,
				"y": -3.1667193577,
				"z": -0.5135115673,
				"element": "H" 
			},
			{
				"x": 0.3853808351,
				"y": -4.0722122428,
				"z": -2.6305462471,
				"element": "H" 
			},
			{
				"x": 0.5121179579,
				"y": -0.1156674869,
				"z": -4.3424987186,
				"element": "H" 
			},
			{
				"x": -1.1173781132,
				"y": 3.1646820366,
				"z": 0.0206184427,
				"element": "H" 
			},
			{
				"x": -1.7917154349,
				"y": 2.6469394701,
				"z": 2.3651545216,
				"element": "H" 
			},
			{
				"x": -1.965249098,
				"y": 0.2813749521,
				"z": 3.105661965,
				"element": "H" 
			}
		],
		 "valence_orbital": [ 
			{
				"type": "occ",
				"energy": -0.27429,
				"method": "rhf"
			},
			{
				"type": "occ",
				"energy": -0.27396,
				"method": "rhf"
			},
			{
				"type": "occ",
				"energy": -0.27123,
				"method": "rhf"
			},
			{
				"type": "occ",
				"energy": -0.25981,
				"method": "rhf"
			},
			{
				"type": "occ",
				"energy": -0.23204,
				"method": "rhf"
			},
			{
				"type": "unocc",
				"energy": -0.06595,
				"method": "rhf"
			},
			{
				"type": "unocc",
				"energy": -0.04431,
				"method": "rhf"
			},
			{
				"type": "unocc",
				"energy": -0.03952,
				"method": "rhf"
			},
			{
				"type": "unocc",
				"energy": -0.02119,
				"method": "rhf"
			},
			{
				"type": "unocc",
				"energy": 0.00637,
				"method": "rhf"
			}
		],
		"cosmo_sigma_profile": { 
			"0.0": 0.0,
			"0.0": 0.0,
			"0.0": 0.0,
			"0.0": 0.0,
			"0.0": 0.0,
			"0.0": 0.0,
			"0.0": 0.0,
			"0.0": 0.0,
			"0.0": 0.0,
			"0.0": 0.0,
			"0.0": 0.0,
			"0.0": 0.0,
			"0.0": 0.0,
			"0.0": 0.0,
			"0.0": 0.0,
			"0.0": 0.0,
			"0.0": 0.0,
			"0.0": 0.0,
			"0.0": 0.0,
			"0.0": 0.0,
			"0.0": 0.0,
			"0.0": 0.0,
			"0.0": 0.0,
			"0.0": 0.0,
			"0.0": 0.0,
			"0.0": 0.0,
			"0.0": 0.0,
			"0.0": 0.0,
			"0.0": 0.0,
			"0.0": 0.0,
			"0.0": 0.0,
			"0.0": 0.0,
			"0.0": 0.0,
			"0.0": 0.0,
			"0.0": 0.0,
			"0.0": 0.0,
			"0.0": 0.0,
			"0.0": 0.0,
			"0.0": 0.0,
			"0.0": 0.0,
			"0.0": 0.0,
			"0.0": 0.0,
			"0.0": 0.0,
			"0.0": 0.0,
			"0.0": 0.0,
			"0.0": 0.0,
			"0.0": 0.0,
			"0.0": 0.0,
			"0.0": 0.0,
			"0.0": 0.0,
			"0.0": 0.0
		}
	}
}
