{
	 "smiles": "CC(C)(C)OC(=N)C(Cl)(Cl)Cl", 
	 "Tm": 294.15, 
	 "num_atms": 21, 
	 "gaussian": { 
		 "optdone": 1, 
		 "sigma_profile": "yes", 
		 "theory": "DFT", 
		 "functional": "B3LYP", 
		 "basiset": "6-31G**", 
		 "properties": { 
			 "R2extent": 3440.2958, 
			 "electric_dipole_moment_norm": 1.69534911449, 
			 "electric_quadrupole_moment_norm": 3.51917066651, 
			 "total_energy": -1745.19807728, 
			 "HOMO_LUMO_gap": 0.23498, 
			 "cosmo_polarized_energy": -4.88, 
			 "cosmo_cavitation_energy": 28.77, 
			 "cosmo_dispersion_energy": -20.07, 
			 "cosmo_repulsion_energy": 1.62, 
			 "cosmo_total_nonelectrostatic_energy": 10.32, 
			 "SMD_solvation_energy": 4.04 
		},
		"coords": [
			{
				"x": 1.2944034376,
				"y": 0.1232685738,
				"z": -1.8852594493,
				"element": "C" 
			},
			{
				"x": -0.0773386337,
				"y": 0.139890169,
				"z": -1.2059524906,
				"element": "C" 
			},
			{
				"x": -0.7834764981,
				"y": 1.4918529923,
				"z": -1.3363755874,
				"element": "C" 
			},
			{
				"x": -0.9620671816,
				"y": -0.9934962198,
				"z": -1.7294104425,
				"element": "C" 
			},
			{
				"x": 0.0654056509,
				"y": -0.2172975457,
				"z": 0.2248917059,
				"element": "O" 
			},
			{
				"x": 0.7709756841,
				"y": 0.507556185,
				"z": 1.0902353931,
				"element": "C" 
			},
			{
				"x": 1.4035903991,
				"y": 1.5729852733,
				"z": 0.8291357651,
				"element": "N" 
			},
			{
				"x": 0.674249061,
				"y": -0.1962472934,
				"z": 2.4799438319,
				"element": "C" 
			},
			{
				"x": 1.5989229699,
				"y": 0.7069983185,
				"z": 3.7322963526,
				"element": "Cl" 
			},
			{
				"x": -1.0503359106,
				"y": -0.2793288187,
				"z": 2.9896003337,
				"element": "Cl" 
			},
			{
				"x": 1.3510910654,
				"y": -1.8598077384,
				"z": 2.3563500736,
				"element": "Cl" 
			},
			{
				"x": 1.1629307962,
				"y": 0.2596501282,
				"z": -2.9635267197,
				"element": "H" 
			},
			{
				"x": 1.9338042155,
				"y": 0.9208761003,
				"z": -1.5065921681,
				"element": "H" 
			},
			{
				"x": 1.7886551828,
				"y": -0.8393141073,
				"z": -1.7224378899,
				"element": "H" 
			},
			{
				"x": -0.1629456599,
				"y": 2.3016604502,
				"z": -0.9522390149,
				"element": "H" 
			},
			{
				"x": -1.733040636,
				"y": 1.47987907,
				"z": -0.7927369093,
				"element": "H" 
			},
			{
				"x": -0.9989613917,
				"y": 1.6841711049,
				"z": -2.3923721446,
				"element": "H" 
			},
			{
				"x": -1.1523683738,
				"y": -0.8539156129,
				"z": -2.7975102652,
				"element": "H" 
			},
			{
				"x": -1.9208568782,
				"y": -1.0089091063,
				"z": -1.2038202874,
				"element": "H" 
			},
			{
				"x": -0.4741829333,
				"y": -1.9615813682,
				"z": -1.5860729475,
				"element": "H" 
			},
			{
				"x": 1.8686456344,
				"y": 1.9496094452,
				"z": 1.6523528605,
				"element": "H" 
			}
		],
		 "valence_orbital": [ 
			{
				"type": "occ",
				"energy": -0.32413,
				"method": "rhf"
			},
			{
				"type": "occ",
				"energy": -0.32145,
				"method": "rhf"
			},
			{
				"type": "occ",
				"energy": -0.31114,
				"method": "rhf"
			},
			{
				"type": "occ",
				"energy": -0.28288,
				"method": "rhf"
			},
			{
				"type": "occ",
				"energy": -0.28099,
				"method": "rhf"
			},
			{
				"type": "unocc",
				"energy": -0.04601,
				"method": "rhf"
			},
			{
				"type": "unocc",
				"energy": -0.03654,
				"method": "rhf"
			},
			{
				"type": "unocc",
				"energy": -0.0085,
				"method": "rhf"
			},
			{
				"type": "unocc",
				"energy": 0.05587,
				"method": "rhf"
			},
			{
				"type": "unocc",
				"energy": 0.08054,
				"method": "rhf"
			}
		],
		"cosmo_sigma_profile": { 
			"-0.025": 0.0,
			"-0.024": 0.0,
			"-0.023": 0.0,
			"-0.022": 0.0,
			"-0.021": 0.0,
			"-0.02": 0.0,
			"-0.019": 0.0,
			"-0.018": 0.0,
			"-0.017": 0.0,
			"-0.016": 0.0,
			"-0.015": 0.0,
			"-0.014": 0.0,
			"-0.013": 0.0,
			"-0.012": 0.0,
			"-0.011": 0.0791205595107,
			"-0.01": 0.728063958707,
			"-0.009": 1.06512389187,
			"-0.008": 0.825869789647,
			"-0.007": 0.817256003003,
			"-0.006": 2.05489497969,
			"-0.005": 6.82721502017,
			"-0.004": 18.3975332232,
			"-0.003": 20.9239404204,
			"-0.002": 23.3985668299,
			"-0.001": 25.2927108397,
			"0.0": 33.236322434,
			"0.001": 25.9210770136,
			"0.002": 24.3754804512,
			"0.003": 25.7181425192,
			"0.004": 6.89791637068,
			"0.005": 4.62996421583,
			"0.006": 4.90214211998,
			"0.007": 3.16364987938,
			"0.008": 1.31152843235,
			"0.009": 0.645159880358,
			"0.01": 0.627445334095,
			"0.011": 0.864003170483,
			"0.012": 0.107011916035,
			"0.013": 0.0,
			"0.014": 0.0,
			"0.015": 0.0,
			"0.016": 0.0,
			"0.017": 0.0,
			"0.018": 0.0,
			"0.019": 0.0,
			"0.02": 0.0,
			"0.021": 0.0,
			"0.022": 0.0,
			"0.023": 0.0,
			"0.024": 0.0,
			"0.025": 0.0
		}
	}
}
