{
	 "smiles": "CCOC(=O)C1=C(N)C(=NS1)C(N)=O", 
	 "Tm": 479.15, 
	 "num_atms": 23, 
	 "gaussian": { 
		 "optdone": 1, 
		 "sigma_profile": "yes", 
		 "theory": "DFT", 
		 "functional": "B3LYP", 
		 "basiset": "6-31G**", 
		 "properties": { 
			 "R2extent": 3995.8293, 
			 "electric_dipole_moment_norm": 4.82467726071, 
			 "electric_quadrupole_moment_norm": 29.3227105444, 
			 "total_energy": -1060.30057019, 
			 "HOMO_LUMO_gap": 0.15842, 
			 "cosmo_polarized_energy": -18.8, 
			 "cosmo_cavitation_energy": 29.31, 
			 "cosmo_dispersion_energy": -22.2, 
			 "cosmo_repulsion_energy": 1.74, 
			 "cosmo_total_nonelectrostatic_energy": 8.85, 
			 "SMD_solvation_energy": 5.55 
		},
		"coords": [
			{
				"x": 3.6093597381,
				"y": -0.2003167822,
				"z": 2.2382611973,
				"element": "C" 
			},
			{
				"x": 3.2828540293,
				"y": -1.1359898255,
				"z": 1.0847015044,
				"element": "C" 
			},
			{
				"x": 2.3710011526,
				"y": -0.5137533189,
				"z": 0.1443283617,
				"element": "O" 
			},
			{
				"x": 1.0532562037,
				"y": -0.6083823861,
				"z": 0.4159077804,
				"element": "C" 
			},
			{
				"x": 0.59306707,
				"y": -1.1874938646,
				"z": 1.3938976954,
				"element": "O" 
			},
			{
				"x": 0.2361525738,
				"y": 0.0466490771,
				"z": -0.5963270689,
				"element": "C" 
			},
			{
				"x": -1.1543729949,
				"y": 0.0883821428,
				"z": -0.598402638,
				"element": "C" 
			},
			{
				"x": -1.9551058253,
				"y": -0.4031071439,
				"z": 0.4061694867,
				"element": "N" 
			},
			{
				"x": -1.6155063827,
				"y": 0.7672316066,
				"z": -1.7912825146,
				"element": "C" 
			},
			{
				"x": -0.675205314,
				"y": 1.1918742134,
				"z": -2.61540215,
				"element": "N" 
			},
			{
				"x": 0.832520713,
				"y": 0.837281785,
				"z": -2.0250849279,
				"element": "S" 
			},
			{
				"x": -3.0491577502,
				"y": 1.0212896508,
				"z": -2.1820876133,
				"element": "C" 
			},
			{
				"x": -3.9381172937,
				"y": 1.0408652826,
				"z": -1.1221551685,
				"element": "N" 
			},
			{
				"x": -3.4039064837,
				"y": 1.1604052843,
				"z": -3.3377308887,
				"element": "O" 
			},
			{
				"x": 4.3579238588,
				"y": -0.664191709,
				"z": 2.8890745128,
				"element": "H" 
			},
			{
				"x": 2.7163766134,
				"y": 0.0031069586,
				"z": 2.8342630554,
				"element": "H" 
			},
			{
				"x": 4.0141634307,
				"y": 0.7466027707,
				"z": 1.8696595936,
				"element": "H" 
			},
			{
				"x": 2.8358483653,
				"y": -2.0664941794,
				"z": 1.4417218252,
				"element": "H" 
			},
			{
				"x": 4.1683696918,
				"y": -1.3635525993,
				"z": 0.4873286185,
				"element": "H" 
			},
			{
				"x": -2.8653166406,
				"y": -0.7412625649,
				"z": 0.1238398282,
				"element": "H" 
			},
			{
				"x": -1.4514248728,
				"y": -0.9744674299,
				"z": 1.0781171528,
				"element": "H" 
			},
			{
				"x": -3.6037130743,
				"y": 1.2904156731,
				"z": -0.200254735,
				"element": "H" 
			},
			{
				"x": -4.8661668079,
				"y": 1.3610073587,
				"z": -1.3660429073,
				"element": "H" 
			}
		],
		 "valence_orbital": [ 
			{
				"type": "occ",
				"energy": -0.28895,
				"method": "rhf"
			},
			{
				"type": "occ",
				"energy": -0.283,
				"method": "rhf"
			},
			{
				"type": "occ",
				"energy": -0.27822,
				"method": "rhf"
			},
			{
				"type": "occ",
				"energy": -0.25756,
				"method": "rhf"
			},
			{
				"type": "occ",
				"energy": -0.23043,
				"method": "rhf"
			},
			{
				"type": "unocc",
				"energy": -0.07201,
				"method": "rhf"
			},
			{
				"type": "unocc",
				"energy": -0.01879,
				"method": "rhf"
			},
			{
				"type": "unocc",
				"energy": 0.00957,
				"method": "rhf"
			},
			{
				"type": "unocc",
				"energy": 0.0591,
				"method": "rhf"
			},
			{
				"type": "unocc",
				"energy": 0.07389,
				"method": "rhf"
			}
		],
		"cosmo_sigma_profile": { 
			"-0.025": 0.0,
			"-0.024": 0.0,
			"-0.023": 0.0,
			"-0.022": 0.0,
			"-0.021": 0.0,
			"-0.02": 0.0,
			"-0.019": 0.0,
			"-0.018": 0.0,
			"-0.017": 0.0,
			"-0.016": 0.0,
			"-0.015": 0.146902509859,
			"-0.014": 0.971021717102,
			"-0.013": 2.23479046846,
			"-0.012": 3.57892654711,
			"-0.011": 3.73925250229,
			"-0.01": 4.73974062085,
			"-0.009": 3.89605833187,
			"-0.008": 4.00155384324,
			"-0.007": 4.61810723352,
			"-0.006": 5.95597376051,
			"-0.005": 8.63287084555,
			"-0.004": 15.4692158365,
			"-0.003": 17.5266010051,
			"-0.002": 22.3033888316,
			"-0.001": 23.2964424227,
			"0.0": 23.5882110572,
			"0.001": 17.5029865342,
			"0.002": 12.285518854,
			"0.003": 7.5162265553,
			"0.004": 7.6671415329,
			"0.005": 5.91744811696,
			"0.006": 4.06564944293,
			"0.007": 3.26151754807,
			"0.008": 4.16650208662,
			"0.009": 3.81383784232,
			"0.01": 4.32981033932,
			"0.011": 4.25949478784,
			"0.012": 5.1201674451,
			"0.013": 5.91224244943,
			"0.014": 2.82523904342,
			"0.015": 1.66405841532,
			"0.016": 0.205115221836,
			"0.017": 0.0,
			"0.018": 0.0,
			"0.019": 0.0,
			"0.02": 0.0,
			"0.021": 0.0,
			"0.022": 0.0,
			"0.023": 0.0,
			"0.024": 0.0,
			"0.025": 0.0
		}
	}
}
