{
	 "smiles": "CC1=CC=C(C=C1)C1=CSC(CC#N)=N1", 
	 "Tm": 365.15, 
	 "num_atms": 25, 
	 "gaussian": { 
		 "optdone": 1, 
		 "sigma_profile": "yes", 
		 "theory": "DFT", 
		 "functional": "B3LYP", 
		 "basiset": "6-31G**", 
		 "properties": { 
			 "R2extent": 5437.5786, 
			 "electric_dipole_moment_norm": 3.95781083555, 
			 "electric_quadrupole_moment_norm": 18.2214586749, 
			 "total_energy": -970.979383288, 
			 "HOMO_LUMO_gap": 0.17384, 
			 "cosmo_polarized_energy": -12.07, 
			 "cosmo_cavitation_energy": 32.06, 
			 "cosmo_dispersion_energy": -23.34, 
			 "cosmo_repulsion_energy": 1.78, 
			 "cosmo_total_nonelectrostatic_energy": 10.5, 
			 "SMD_solvation_energy": 5.45 
		},
		"coords": [
			{
				"x": -2.6147850067,
				"y": 4.5190687391,
				"z": -0.4412342022,
				"element": "C" 
			},
			{
				"x": -2.1125500547,
				"y": 3.137409268,
				"z": -0.0971939045,
				"element": "C" 
			},
			{
				"x": -1.0433172287,
				"y": 2.5582432588,
				"z": -0.7916737751,
				"element": "C" 
			},
			{
				"x": -0.5967686207,
				"y": 1.2728310649,
				"z": -0.4945491234,
				"element": "C" 
			},
			{
				"x": -1.207594383,
				"y": 0.5173999923,
				"z": 0.518324888,
				"element": "C" 
			},
			{
				"x": -2.2803161515,
				"y": 1.0950803098,
				"z": 1.2174738627,
				"element": "C" 
			},
			{
				"x": -2.719773248,
				"y": 2.3796060932,
				"z": 0.9149713748,
				"element": "C" 
			},
			{
				"x": -0.7171247535,
				"y": -0.8396057554,
				"z": 0.8249105935,
				"element": "C" 
			},
			{
				"x": -1.1467673821,
				"y": -1.6648341552,
				"z": 1.8368093816,
				"element": "C" 
			},
			{
				"x": -0.2812822387,
				"y": -3.161665559,
				"z": 1.8265883032,
				"element": "S" 
			},
			{
				"x": 0.6178604772,
				"y": -2.5778878497,
				"z": 0.4388541892,
				"element": "C" 
			},
			{
				"x": 1.6438489649,
				"y": -3.4112985964,
				"z": -0.2952400594,
				"element": "C" 
			},
			{
				"x": 2.4303176566,
				"y": -4.2980538103,
				"z": 0.5666137509,
				"element": "C" 
			},
			{
				"x": 3.046467063,
				"y": -5.0106849865,
				"z": 1.2437051153,
				"element": "N" 
			},
			{
				"x": 0.2907042952,
				"y": -1.3861619402,
				"z": 0.0453779734,
				"element": "N" 
			},
			{
				"x": -1.8363025397,
				"y": 5.1199009701,
				"z": -0.920382627,
				"element": "H" 
			},
			{
				"x": -3.4635808972,
				"y": 4.4711999104,
				"z": -1.1352885085,
				"element": "H" 
			},
			{
				"x": -2.9568077852,
				"y": 5.0549778539,
				"z": 0.4497865297,
				"element": "H" 
			},
			{
				"x": -0.5491421566,
				"y": 3.1236716223,
				"z": -1.5780784636,
				"element": "H" 
			},
			{
				"x": 0.2337067772,
				"y": 0.8400814513,
				"z": -1.0407764308,
				"element": "H" 
			},
			{
				"x": -2.781528896,
				"y": 0.5402753302,
				"z": 2.0052466836,
				"element": "H" 
			},
			{
				"x": -3.5506146839,
				"y": 2.8030558707,
				"z": 1.4741916728,
				"element": "H" 
			},
			{
				"x": -1.8936384021,
				"y": -1.4751653459,
				"z": 2.5932448861,
				"element": "H" 
			},
			{
				"x": 2.3131629557,
				"y": -2.7227171117,
				"z": -0.8206601494,
				"element": "H" 
			},
			{
				"x": 1.1516262385,
				"y": -4.0254266248,
				"z": -1.061221961,
				"element": "H" 
			}
		],
		 "valence_orbital": [ 
			{
				"type": "occ",
				"energy": -0.29812,
				"method": "rhf"
			},
			{
				"type": "occ",
				"energy": -0.28806,
				"method": "rhf"
			},
			{
				"type": "occ",
				"energy": -0.27869,
				"method": "rhf"
			},
			{
				"type": "occ",
				"energy": -0.25278,
				"method": "rhf"
			},
			{
				"type": "occ",
				"energy": -0.22014,
				"method": "rhf"
			},
			{
				"type": "unocc",
				"energy": -0.0463,
				"method": "rhf"
			},
			{
				"type": "unocc",
				"energy": -0.01887,
				"method": "rhf"
			},
			{
				"type": "unocc",
				"energy": -0.00183,
				"method": "rhf"
			},
			{
				"type": "unocc",
				"energy": -0.00042,
				"method": "rhf"
			},
			{
				"type": "unocc",
				"energy": 0.03032,
				"method": "rhf"
			}
		],
		"cosmo_sigma_profile": { 
			"-0.025": 0.0,
			"-0.024": 0.0,
			"-0.023": 0.0,
			"-0.022": 0.0,
			"-0.021": 0.0,
			"-0.02": 0.0,
			"-0.019": 0.0,
			"-0.018": 0.0,
			"-0.017": 0.0,
			"-0.016": 0.0,
			"-0.015": 0.0,
			"-0.014": 0.0,
			"-0.013": 0.0,
			"-0.012": 0.0,
			"-0.011": 0.256416597053,
			"-0.01": 5.66774190317,
			"-0.009": 7.6650847287,
			"-0.008": 6.6868653181,
			"-0.007": 7.80356343099,
			"-0.006": 5.83050755217,
			"-0.005": 10.2942486814,
			"-0.004": 20.1365907333,
			"-0.003": 18.0614082605,
			"-0.002": 18.0243147574,
			"-0.001": 16.3824096319,
			"0.0": 22.5215433273,
			"0.001": 22.2873228882,
			"0.002": 20.6725880126,
			"0.003": 18.4289390956,
			"0.004": 13.2271757112,
			"0.005": 14.5689952884,
			"0.006": 8.85567782677,
			"0.007": 4.01406490486,
			"0.008": 5.20153497686,
			"0.009": 4.23917129297,
			"0.01": 3.73777055756,
			"0.011": 2.36842834849,
			"0.012": 2.34780116418,
			"0.013": 0.729075445184,
			"0.014": 0.0,
			"0.015": 0.0,
			"0.016": 0.0,
			"0.017": 0.0,
			"0.018": 0.0,
			"0.019": 0.0,
			"0.02": 0.0,
			"0.021": 0.0,
			"0.022": 0.0,
			"0.023": 0.0,
			"0.024": 0.0,
			"0.025": 0.0
		}
	}
}
