{
	 "smiles": "OC(=O)CCC(=O)N1CCC(=N1)C1=CC=CC=C1", 
	 "Tm": 456.15, 
	 "num_atms": 32, 
	 "gaussian": { 
		 "optdone": 1, 
		 "sigma_profile": "yes", 
		 "theory": "DFT", 
		 "functional": "B3LYP", 
		 "basiset": "6-31G**", 
		 "properties": { 
			 "R2extent": 8969.7209, 
			 "electric_dipole_moment_norm": 6.03232784752, 
			 "electric_quadrupole_moment_norm": 21.6764136459, 
			 "total_energy": -838.995768558, 
			 "HOMO_LUMO_gap": 0.16437, 
			 "cosmo_polarized_energy": -23.82, 
			 "cosmo_cavitation_energy": 36.73, 
			 "cosmo_dispersion_energy": -26.54, 
			 "cosmo_repulsion_energy": 2.07, 
			 "cosmo_total_nonelectrostatic_energy": 12.26, 
			 "SMD_solvation_energy": 6.58 
		},
		"coords": [
			{
				"x": -1.3232319738,
				"y": 6.5501052085,
				"z": 1.0309094203,
				"element": "O" 
			},
			{
				"x": -1.3996527785,
				"y": 6.1036663778,
				"z": 2.313758865,
				"element": "C" 
			},
			{
				"x": -1.1782713781,
				"y": 6.8272271352,
				"z": 3.2588566931,
				"element": "O" 
			},
			{
				"x": -1.8117002337,
				"y": 4.6517953739,
				"z": 2.3897348699,
				"element": "C" 
			},
			{
				"x": -1.0084056421,
				"y": 3.7318987856,
				"z": 1.4636796419,
				"element": "C" 
			},
			{
				"x": -1.5992999774,
				"y": 2.3206585278,
				"z": 1.454891559,
				"element": "C" 
			},
			{
				"x": -2.6486136401,
				"y": 2.0447792651,
				"z": 2.0111396888,
				"element": "O" 
			},
			{
				"x": -0.8500688282,
				"y": 1.3934443121,
				"z": 0.7518334527,
				"element": "N" 
			},
			{
				"x": 0.4210833732,
				"y": 1.6289535472,
				"z": 0.0284311765,
				"element": "C" 
			},
			{
				"x": 0.712769367,
				"y": 0.2452395358,
				"z": -0.5870599584,
				"element": "C" 
			},
			{
				"x": -0.4513457432,
				"y": -0.5839617169,
				"z": -0.0662327829,
				"element": "C" 
			},
			{
				"x": -1.2808806438,
				"y": 0.089592589,
				"z": 0.6561761273,
				"element": "N" 
			},
			{
				"x": -0.6480635372,
				"y": -2.0098855836,
				"z": -0.3441579556,
				"element": "C" 
			},
			{
				"x": 0.2675040724,
				"y": -2.7179170086,
				"z": -1.1398314182,
				"element": "C" 
			},
			{
				"x": 0.077926897,
				"y": -4.0748244265,
				"z": -1.4037545064,
				"element": "C" 
			},
			{
				"x": -1.0273202341,
				"y": -4.742770819,
				"z": -0.8771280442,
				"element": "C" 
			},
			{
				"x": -1.9450890949,
				"y": -4.045468499,
				"z": -0.0830826224,
				"element": "C" 
			},
			{
				"x": -1.7608672298,
				"y": -2.6936829458,
				"z": 0.1827426153,
				"element": "C" 
			},
			{
				"x": -1.0821213598,
				"y": 7.4897217708,
				"z": 1.0920028416,
				"element": "H" 
			},
			{
				"x": -2.8719039887,
				"y": 4.5787397392,
				"z": 2.1234084536,
				"element": "H" 
			},
			{
				"x": -1.7257019397,
				"y": 4.337917823,
				"z": 3.4307821438,
				"element": "H" 
			},
			{
				"x": 0.0432822127,
				"y": 3.6994008029,
				"z": 1.7743094668,
				"element": "H" 
			},
			{
				"x": -1.0128898458,
				"y": 4.1319781645,
				"z": 0.4427061748,
				"element": "H" 
			},
			{
				"x": 1.2064965476,
				"y": 1.9485407521,
				"z": 0.7209520198,
				"element": "H" 
			},
			{
				"x": 0.2980589296,
				"y": 2.4085998566,
				"z": -0.7292925263,
				"element": "H" 
			},
			{
				"x": 0.7254356379,
				"y": 0.2686409077,
				"z": -1.6821198805,
				"element": "H" 
			},
			{
				"x": 1.6756623013,
				"y": -0.1617708812,
				"z": -0.2616334087,
				"element": "H" 
			},
			{
				"x": 1.1325799207,
				"y": -2.2106072747,
				"z": -1.5565193804,
				"element": "H" 
			},
			{
				"x": 0.7950117086,
				"y": -4.608271365,
				"z": -2.020990851,
				"element": "H" 
			},
			{
				"x": -1.1751274605,
				"y": -5.7990623128,
				"z": -1.0821377629,
				"element": "H" 
			},
			{
				"x": -2.8075616341,
				"y": -4.5609692281,
				"z": 0.3295197143,
				"element": "H" 
			},
			{
				"x": -2.4669938046,
				"y": -2.1454084136,
				"z": 0.7970061734,
				"element": "H" 
			}
		],
		 "valence_orbital": [ 
			{
				"type": "occ",
				"energy": -0.27336,
				"method": "rhf"
			},
			{
				"type": "occ",
				"energy": -0.27296,
				"method": "rhf"
			},
			{
				"type": "occ",
				"energy": -0.25705,
				"method": "rhf"
			},
			{
				"type": "occ",
				"energy": -0.25079,
				"method": "rhf"
			},
			{
				"type": "occ",
				"energy": -0.21399,
				"method": "rhf"
			},
			{
				"type": "unocc",
				"energy": -0.04962,
				"method": "rhf"
			},
			{
				"type": "unocc",
				"energy": -0.00622,
				"method": "rhf"
			},
			{
				"type": "unocc",
				"energy": 0.00779,
				"method": "rhf"
			},
			{
				"type": "unocc",
				"energy": 0.02777,
				"method": "rhf"
			},
			{
				"type": "unocc",
				"energy": 0.04459,
				"method": "rhf"
			}
		],
		"cosmo_sigma_profile": { 
			"-0.025": 0.0,
			"-0.024": 0.0,
			"-0.023": 0.0,
			"-0.022": 0.0,
			"-0.021": 0.0,
			"-0.02": 0.0,
			"-0.019": 0.0191001127724,
			"-0.018": 0.818814708054,
			"-0.017": 0.796598234916,
			"-0.016": 0.70820953897,
			"-0.015": 0.85267641074,
			"-0.014": 0.711356144607,
			"-0.013": 0.440712956332,
			"-0.012": 0.933525632473,
			"-0.011": 0.424217333852,
			"-0.01": 0.603691246772,
			"-0.009": 0.576517340411,
			"-0.008": 2.06705249308,
			"-0.007": 10.0533423281,
			"-0.006": 30.8445222693,
			"-0.005": 31.2439236082,
			"-0.004": 27.4610205693,
			"-0.003": 19.4772214777,
			"-0.002": 15.6909108717,
			"-0.001": 13.5137590187,
			"0.0": 13.1898718275,
			"0.001": 12.0397268543,
			"0.002": 13.3863086824,
			"0.003": 15.3743052216,
			"0.004": 16.4941618813,
			"0.005": 14.5280385194,
			"0.006": 6.37292770379,
			"0.007": 4.85923100132,
			"0.008": 3.42705803901,
			"0.009": 4.65407907336,
			"0.01": 3.58264373082,
			"0.011": 6.09422745945,
			"0.012": 6.89431424997,
			"0.013": 5.89752146327,
			"0.014": 3.3207888372,
			"0.015": 1.31942116797,
			"0.016": 1.26607377736,
			"0.017": 0.722244384058,
			"0.018": 0.621805698916,
			"0.019": 0.00554621702444,
			"0.02": 0.0,
			"0.021": 0.0,
			"0.022": 0.0,
			"0.023": 0.0,
			"0.024": 0.0,
			"0.025": 0.0
		}
	}
}
