{
	 "smiles": "CC(=NOCC1=CC(=CC=C1)C(O)=O)C1=CC=C(Cl)C=C1", 
	 "Tm": 429.15, 
	 "num_atms": 35, 
	 "gaussian": { 
		 "optdone": 1, 
		 "sigma_profile": "yes", 
		 "theory": "DFT", 
		 "functional": "B3LYP", 
		 "basiset": "6-31G**", 
		 "properties": { 
			 "R2extent": 11911.08, 
			 "electric_dipole_moment_norm": 2.19924760998, 
			 "electric_quadrupole_moment_norm": 15.8609930433, 
			 "total_energy": -1358.72139239, 
			 "HOMO_LUMO_gap": 0.178, 
			 "cosmo_polarized_energy": -13.69, 
			 "cosmo_cavitation_energy": 42.5, 
			 "cosmo_dispersion_energy": -29.69, 
			 "cosmo_repulsion_energy": 2.31, 
			 "cosmo_total_nonelectrostatic_energy": 15.12, 
			 "SMD_solvation_energy": 8.05 
		},
		"coords": [
			{
				"x": 1.3055529505,
				"y": -1.744749435,
				"z": -2.1808947349,
				"element": "C" 
			},
			{
				"x": 0.2517569057,
				"y": -1.3987353738,
				"z": -1.1516684506,
				"element": "C" 
			},
			{
				"x": 0.4573425516,
				"y": -0.2592460008,
				"z": -0.5813390795,
				"element": "N" 
			},
			{
				"x": -0.5348157521,
				"y": 0.1283758774,
				"z": 0.3237603926,
				"element": "O" 
			},
			{
				"x": -0.1502087956,
				"y": 1.3712170631,
				"z": 0.9372840793,
				"element": "C" 
			},
			{
				"x": 0.8399539579,
				"y": 1.1888784129,
				"z": 2.0647642037,
				"element": "C" 
			},
			{
				"x": 0.3958071826,
				"y": 1.0826068731,
				"z": 3.3854829727,
				"element": "C" 
			},
			{
				"x": 1.3081207329,
				"y": 0.8874971979,
				"z": 4.4309574546,
				"element": "C" 
			},
			{
				"x": 2.6781984848,
				"y": 0.7953601253,
				"z": 4.1538628175,
				"element": "C" 
			},
			{
				"x": 3.1270346233,
				"y": 0.8993174467,
				"z": 2.8396579637,
				"element": "C" 
			},
			{
				"x": 2.2143349532,
				"y": 1.0966563707,
				"z": 1.8019576601,
				"element": "C" 
			},
			{
				"x": 0.8748569165,
				"y": 0.7756075845,
				"z": 5.8487847897,
				"element": "C" 
			},
			{
				"x": -0.4694541626,
				"y": 0.8814799244,
				"z": 6.0058045764,
				"element": "O" 
			},
			{
				"x": 1.6211140981,
				"y": 0.606334111,
				"z": 6.7930245458,
				"element": "O" 
			},
			{
				"x": -0.8565003546,
				"y": -2.3615435913,
				"z": -0.9156333757,
				"element": "C" 
			},
			{
				"x": -1.5161632312,
				"y": -2.4799880292,
				"z": 0.3230690114,
				"element": "C" 
			},
			{
				"x": -2.5156041898,
				"y": -3.4292239722,
				"z": 0.5189108453,
				"element": "C" 
			},
			{
				"x": -2.8817548776,
				"y": -4.2694173213,
				"z": -0.531885889,
				"element": "C" 
			},
			{
				"x": -4.1523870838,
				"y": -5.4577694741,
				"z": -0.2914234565,
				"element": "Cl" 
			},
			{
				"x": -2.2491131484,
				"y": -4.1801658827,
				"z": -1.770140413,
				"element": "C" 
			},
			{
				"x": -1.2386395296,
				"y": -3.2383905918,
				"z": -1.9477993805,
				"element": "C" 
			},
			{
				"x": 0.8922045438,
				"y": -1.7418889958,
				"z": -3.196070141,
				"element": "H" 
			},
			{
				"x": 2.1051448539,
				"y": -1.0037990361,
				"z": -2.1420539313,
				"element": "H" 
			},
			{
				"x": 1.7244521423,
				"y": -2.7399629119,
				"z": -1.9987383203,
				"element": "H" 
			},
			{
				"x": -1.0895062623,
				"y": 1.78629452,
				"z": 1.3128475633,
				"element": "H" 
			},
			{
				"x": 0.2488085238,
				"y": 2.033879088,
				"z": 0.1627486267,
				"element": "H" 
			},
			{
				"x": -0.6634448468,
				"y": 1.1543646592,
				"z": 3.6101619918,
				"element": "H" 
			},
			{
				"x": 3.3668635986,
				"y": 0.646736755,
				"z": 4.978631483,
				"element": "H" 
			},
			{
				"x": 4.1887492502,
				"y": 0.83083723,
				"z": 2.6221619868,
				"element": "H" 
			},
			{
				"x": 2.5609700671,
				"y": 1.1718673223,
				"z": 0.775831641,
				"element": "H" 
			},
			{
				"x": -0.6294186497,
				"y": 0.7938373781,
				"z": 6.9597184424,
				"element": "H" 
			},
			{
				"x": -1.2396785826,
				"y": -1.8271567189,
				"z": 1.1386033946,
				"element": "H" 
			},
			{
				"x": -3.0088146902,
				"y": -3.5162010679,
				"z": 1.4807388144,
				"element": "H" 
			},
			{
				"x": -2.539389075,
				"y": -4.8396443413,
				"z": -2.5803981715,
				"element": "H" 
			},
			{
				"x": -0.7503731049,
				"y": -3.1858651954,
				"z": -2.9145199128,
				"element": "H" 
			}
		],
		 "valence_orbital": [ 
			{
				"type": "occ",
				"energy": -0.26979,
				"method": "rhf"
			},
			{
				"type": "occ",
				"energy": -0.26577,
				"method": "rhf"
			},
			{
				"type": "occ",
				"energy": -0.26417,
				"method": "rhf"
			},
			{
				"type": "occ",
				"energy": -0.25902,
				"method": "rhf"
			},
			{
				"type": "occ",
				"energy": -0.23065,
				"method": "rhf"
			},
			{
				"type": "unocc",
				"energy": -0.05265,
				"method": "rhf"
			},
			{
				"type": "unocc",
				"energy": -0.04465,
				"method": "rhf"
			},
			{
				"type": "unocc",
				"energy": -0.01814,
				"method": "rhf"
			},
			{
				"type": "unocc",
				"energy": -0.01489,
				"method": "rhf"
			},
			{
				"type": "unocc",
				"energy": 0.0277,
				"method": "rhf"
			}
		],
		"cosmo_sigma_profile": { 
			"-0.025": 0.0,
			"-0.024": 0.0,
			"-0.023": 0.0,
			"-0.022": 0.0,
			"-0.021": 0.0,
			"-0.02": 0.0,
			"-0.019": 0.0829228991405,
			"-0.018": 0.592225237109,
			"-0.017": 0.995517825446,
			"-0.016": 1.13100904479,
			"-0.015": 0.689341691518,
			"-0.014": 0.379746037211,
			"-0.013": 0.524247186959,
			"-0.012": 0.410019839277,
			"-0.011": 1.3266124852,
			"-0.01": 0.97285884751,
			"-0.009": 0.161276062206,
			"-0.008": 1.99696185588,
			"-0.007": 9.75615865627,
			"-0.006": 16.9112996988,
			"-0.005": 20.9037909972,
			"-0.004": 22.6723428268,
			"-0.003": 22.4881724037,
			"-0.002": 24.5509671513,
			"-0.001": 24.9047916449,
			"0.0": 25.3470202308,
			"0.001": 29.3480949539,
			"0.002": 31.2854159404,
			"0.003": 36.0234536111,
			"0.004": 25.3985830565,
			"0.005": 14.1564082034,
			"0.006": 6.28351165619,
			"0.007": 4.60885092684,
			"0.008": 4.1678955686,
			"0.009": 3.51571228478,
			"0.01": 2.39828373681,
			"0.011": 3.84053426107,
			"0.012": 4.05355859857,
			"0.013": 0.102453907834,
			"0.014": 0.0,
			"0.015": 0.0,
			"0.016": 0.0,
			"0.017": 0.0,
			"0.018": 0.0,
			"0.019": 0.0,
			"0.02": 0.0,
			"0.021": 0.0,
			"0.022": 0.0,
			"0.023": 0.0,
			"0.024": 0.0,
			"0.025": 0.0
		}
	}
}
