{
	 "smiles": "CC(C)C(=O)C(C)C", 
	 "Tm": 204.15, 
	 "num_atms": 22, 
	 "gaussian": { 
		 "optdone": 1, 
		 "sigma_profile": "yes", 
		 "theory": "DFT", 
		 "functional": "B3LYP", 
		 "basiset": "6-31G**", 
		 "properties": { 
			 "R2extent": 1958.5558, 
			 "electric_dipole_moment_norm": 2.5106453513, 
			 "electric_quadrupole_moment_norm": 9.54763478721, 
			 "total_energy": -350.424023763, 
			 "HOMO_LUMO_gap": 0.22493, 
			 "cosmo_polarized_energy": -6.23, 
			 "cosmo_cavitation_energy": 23.93, 
			 "cosmo_dispersion_energy": -16.5, 
			 "cosmo_repulsion_energy": 1.39, 
			 "cosmo_total_nonelectrostatic_energy": 8.82, 
			 "SMD_solvation_energy": 4.99 
		},
		"coords": [
			{
				"x": -1.3223582881,
				"y": -0.9498110983,
				"z": 1.3950249099,
				"element": "C" 
			},
			{
				"x": -1.0652116857,
				"y": 0.5118291602,
				"z": 1.0161030633,
				"element": "C" 
			},
			{
				"x": -1.5276921232,
				"y": 1.4744982831,
				"z": 2.1328878894,
				"element": "C" 
			},
			{
				"x": -1.7939947389,
				"y": 0.8953572701,
				"z": -0.2766116202,
				"element": "C" 
			},
			{
				"x": -2.8424059742,
				"y": 0.3628643715,
				"z": -0.5952223798,
				"element": "O" 
			},
			{
				"x": -1.1500157394,
				"y": 1.9759849869,
				"z": -1.1522427107,
				"element": "C" 
			},
			{
				"x": -2.2027146704,
				"y": 2.7720981074,
				"z": -1.9295523659,
				"element": "C" 
			},
			{
				"x": -0.1454986795,
				"y": 1.2885571173,
				"z": -2.104215101,
				"element": "C" 
			},
			{
				"x": -0.9346957307,
				"y": -1.6328997689,
				"z": 0.6327733015,
				"element": "H" 
			},
			{
				"x": -2.3959136149,
				"y": -1.133666735,
				"z": 1.4864510677,
				"element": "H" 
			},
			{
				"x": -0.8408796198,
				"y": -1.1929423591,
				"z": 2.3476674015,
				"element": "H" 
			},
			{
				"x": 0.0105431772,
				"y": 0.6718597402,
				"z": 0.8606527927,
				"element": "H" 
			},
			{
				"x": -2.5995278947,
				"y": 1.3529052998,
				"z": 2.3202481786,
				"element": "H" 
			},
			{
				"x": -0.9923910825,
				"y": 1.2606076722,
				"z": 3.0634071097,
				"element": "H" 
			},
			{
				"x": -1.34464398,
				"y": 2.5230603638,
				"z": 1.8753375914,
				"element": "H" 
			},
			{
				"x": -0.5821751638,
				"y": 2.6510548905,
				"z": -0.4973645477,
				"element": "H" 
			},
			{
				"x": -2.8157428085,
				"y": 2.0989645079,
				"z": -2.5343481449,
				"element": "H" 
			},
			{
				"x": -1.7251167494,
				"y": 3.5027787135,
				"z": -2.5902137474,
				"element": "H" 
			},
			{
				"x": -2.8738070252,
				"y": 3.310988104,
				"z": -1.2534228825,
				"element": "H" 
			},
			{
				"x": -0.6681002473,
				"y": 0.599496633,
				"z": -2.7756354689,
				"element": "H" 
			},
			{
				"x": 0.3692468904,
				"y": 2.0361511849,
				"z": -2.7160104745,
				"element": "H" 
			},
			{
				"x": 0.6159957485,
				"y": 0.7202635549,
				"z": -1.5597138622,
				"element": "H" 
			}
		],
		 "valence_orbital": [ 
			{
				"type": "occ",
				"energy": -0.34243,
				"method": "rhf"
			},
			{
				"type": "occ",
				"energy": -0.33655,
				"method": "rhf"
			},
			{
				"type": "occ",
				"energy": -0.33619,
				"method": "rhf"
			},
			{
				"type": "occ",
				"energy": -0.32864,
				"method": "rhf"
			},
			{
				"type": "occ",
				"energy": -0.23559,
				"method": "rhf"
			},
			{
				"type": "unocc",
				"energy": -0.01066,
				"method": "rhf"
			},
			{
				"type": "unocc",
				"energy": 0.07214,
				"method": "rhf"
			},
			{
				"type": "unocc",
				"energy": 0.11622,
				"method": "rhf"
			},
			{
				"type": "unocc",
				"energy": 0.12473,
				"method": "rhf"
			},
			{
				"type": "unocc",
				"energy": 0.12749,
				"method": "rhf"
			}
		],
		"cosmo_sigma_profile": { 
			"-0.025": 0.0,
			"-0.024": 0.0,
			"-0.023": 0.0,
			"-0.022": 0.0,
			"-0.021": 0.0,
			"-0.02": 0.0,
			"-0.019": 0.0,
			"-0.018": 0.0,
			"-0.017": 0.0,
			"-0.016": 0.0,
			"-0.015": 0.0,
			"-0.014": 0.0,
			"-0.013": 0.0,
			"-0.012": 0.0,
			"-0.011": 0.0,
			"-0.01": 0.0,
			"-0.009": 0.0,
			"-0.008": 0.0,
			"-0.007": 0.0,
			"-0.006": 0.0,
			"-0.005": 0.675866486239,
			"-0.004": 15.5095737574,
			"-0.003": 29.9242805766,
			"-0.002": 29.2531310383,
			"-0.001": 28.2362458994,
			"0.0": 27.052203949,
			"0.001": 22.9452983603,
			"0.002": 7.22165092275,
			"0.003": 1.81973521022,
			"0.004": 1.56571505757,
			"0.005": 2.37931891492,
			"0.006": 1.53444917483,
			"0.007": 1.94197977654,
			"0.008": 1.62998295128,
			"0.009": 1.97814747899,
			"0.01": 1.96216599314,
			"0.011": 2.43282323838,
			"0.012": 4.06845605914,
			"0.013": 2.51389670493,
			"0.014": 0.000445581101705,
			"0.015": 0.0,
			"0.016": 0.0,
			"0.017": 0.0,
			"0.018": 0.0,
			"0.019": 0.0,
			"0.02": 0.0,
			"0.021": 0.0,
			"0.022": 0.0,
			"0.023": 0.0,
			"0.024": 0.0,
			"0.025": 0.0
		}
	}
}
