{
	 "smiles": "CC1=CC=CC(C(N)=O)=C1C", 
	 "Tm": 430.15, 
	 "num_atms": 22, 
	 "gaussian": { 
		 "optdone": 1, 
		 "sigma_profile": "yes", 
		 "theory": "DFT", 
		 "functional": "B3LYP", 
		 "basiset": "6-31G**", 
		 "properties": { 
			 "R2extent": 1907.9055, 
			 "electric_dipole_moment_norm": 3.2129815748, 
			 "electric_quadrupole_moment_norm": 14.8491537274, 
			 "total_energy": -479.591914106, 
			 "HOMO_LUMO_gap": 0.21371, 
			 "cosmo_polarized_energy": -11.95, 
			 "cosmo_cavitation_energy": 24.83, 
			 "cosmo_dispersion_energy": -18.33, 
			 "cosmo_repulsion_energy": 1.48, 
			 "cosmo_total_nonelectrostatic_energy": 7.97, 
			 "SMD_solvation_energy": 5.07 
		},
		"coords": [
			{
				"x": 1.7184237728,
				"y": -2.2996394583,
				"z": 0.5283278669,
				"element": "C" 
			},
			{
				"x": 0.9576906253,
				"y": -0.9944348705,
				"z": 0.5602363776,
				"element": "C" 
			},
			{
				"x": 0.6171181401,
				"y": -0.426872014,
				"z": 1.7922290459,
				"element": "C" 
			},
			{
				"x": -0.0831090566,
				"y": 0.775621971,
				"z": 1.8648938611,
				"element": "C" 
			},
			{
				"x": -0.4417663778,
				"y": 1.4246563924,
				"z": 0.6896901219,
				"element": "C" 
			},
			{
				"x": -0.1155984275,
				"y": 0.8754950179,
				"z": -0.5619783609,
				"element": "C" 
			},
			{
				"x": -0.5719167383,
				"y": 1.6100573718,
				"z": -1.7969090624,
				"element": "C" 
			},
			{
				"x": -0.4931369858,
				"y": 2.9809412696,
				"z": -1.7135699092,
				"element": "N" 
			},
			{
				"x": -1.023109672,
				"y": 1.0598213334,
				"z": -2.7950158375,
				"element": "O" 
			},
			{
				"x": 0.5852646666,
				"y": -0.3481491829,
				"z": -0.6414555006,
				"element": "C" 
			},
			{
				"x": 0.9766181227,
				"y": -0.9819133064,
				"z": -1.9574561276,
				"element": "C" 
			},
			{
				"x": 2.6947612282,
				"y": -2.1903245083,
				"z": 0.0408107231,
				"element": "H" 
			},
			{
				"x": 1.8922147733,
				"y": -2.6758018128,
				"z": 1.5397847467,
				"element": "H" 
			},
			{
				"x": 1.1755141123,
				"y": -3.0721207308,
				"z": -0.0286204289,
				"element": "H" 
			},
			{
				"x": 0.9026319673,
				"y": -0.9409223243,
				"z": 2.7066889622,
				"element": "H" 
			},
			{
				"x": -0.3523492688,
				"y": 1.1972875243,
				"z": 2.8288510178,
				"element": "H" 
			},
			{
				"x": -1.011257894,
				"y": 2.3479823844,
				"z": 0.7320962597,
				"element": "H" 
			},
			{
				"x": -0.715790659,
				"y": 3.4899876746,
				"z": -2.556613518,
				"element": "H" 
			},
			{
				"x": 0.1119515012,
				"y": 3.4231182061,
				"z": -1.0400215977,
				"element": "H" 
			},
			{
				"x": 2.0537791018,
				"y": -1.1845317915,
				"z": -1.9846285293,
				"element": "H" 
			},
			{
				"x": 0.7048364176,
				"y": -0.3644953,
				"z": -2.8095021983,
				"element": "H" 
			},
			{
				"x": 0.4723306506,
				"y": -1.9477638458,
				"z": -2.0846379125,
				"element": "H" 
			}
		],
		 "valence_orbital": [ 
			{
				"type": "occ",
				"energy": -0.33475,
				"method": "rhf"
			},
			{
				"type": "occ",
				"energy": -0.26658,
				"method": "rhf"
			},
			{
				"type": "occ",
				"energy": -0.25254,
				"method": "rhf"
			},
			{
				"type": "occ",
				"energy": -0.24105,
				"method": "rhf"
			},
			{
				"type": "occ",
				"energy": -0.23709,
				"method": "rhf"
			},
			{
				"type": "unocc",
				"energy": -0.02338,
				"method": "rhf"
			},
			{
				"type": "unocc",
				"energy": -0.00343,
				"method": "rhf"
			},
			{
				"type": "unocc",
				"energy": 0.05432,
				"method": "rhf"
			},
			{
				"type": "unocc",
				"energy": 0.08684,
				"method": "rhf"
			},
			{
				"type": "unocc",
				"energy": 0.09952,
				"method": "rhf"
			}
		],
		"cosmo_sigma_profile": { 
			"-0.025": 0.0,
			"-0.024": 0.0,
			"-0.023": 0.0,
			"-0.022": 0.0,
			"-0.021": 0.0,
			"-0.02": 0.0,
			"-0.019": 0.0,
			"-0.018": 0.0,
			"-0.017": 0.0,
			"-0.016": 0.0,
			"-0.015": 0.0,
			"-0.014": 0.718912607666,
			"-0.013": 2.43852860546,
			"-0.012": 1.94090295551,
			"-0.011": 2.47573244939,
			"-0.01": 2.12716494566,
			"-0.009": 1.96459596356,
			"-0.008": 2.52523045268,
			"-0.007": 1.59818383759,
			"-0.006": 4.64415857414,
			"-0.005": 9.36239230478,
			"-0.004": 17.3525026134,
			"-0.003": 16.3733847413,
			"-0.002": 14.5206225598,
			"-0.001": 17.9539085457,
			"0.0": 20.4278751461,
			"0.001": 16.3910161062,
			"0.002": 9.85586594186,
			"0.003": 8.10247629651,
			"0.004": 11.1278088248,
			"0.005": 9.95629033364,
			"0.006": 5.36961328774,
			"0.007": 1.77064501781,
			"0.008": 1.72943396477,
			"0.009": 1.20231723612,
			"0.01": 2.03600244967,
			"0.011": 1.41747879056,
			"0.012": 2.32015551412,
			"0.013": 3.36297102503,
			"0.014": 4.38907203176,
			"0.015": 0.529563004492,
			"0.016": 0.0,
			"0.017": 0.0,
			"0.018": 0.0,
			"0.019": 0.0,
			"0.02": 0.0,
			"0.021": 0.0,
			"0.022": 0.0,
			"0.023": 0.0,
			"0.024": 0.0,
			"0.025": 0.0
		}
	}
}
