{
	 "smiles": "CN(C(=O)C1=CC=CO1)C1=C(C=CC=C1)C(O)=O", 
	 "Tm": 463.15, 
	 "num_atms": 29, 
	 "gaussian": { 
		 "optdone": 1, 
		 "sigma_profile": "yes", 
		 "theory": "DFT", 
		 "functional": "B3LYP", 
		 "basiset": "6-31G**", 
		 "properties": { 
			 "R2extent": 3865.9388, 
			 "electric_dipole_moment_norm": 2.87652600371, 
			 "electric_quadrupole_moment_norm": 13.5299203468, 
			 "total_energy": -857.65003668, 
			 "HOMO_LUMO_gap": 0.17614, 
			 "cosmo_polarized_energy": -15.99, 
			 "cosmo_cavitation_energy": 33.7, 
			 "cosmo_dispersion_energy": -22.92, 
			 "cosmo_repulsion_energy": 1.77, 
			 "cosmo_total_nonelectrostatic_energy": 12.55, 
			 "SMD_solvation_energy": 8.88 
		},
		"coords": [
			{
				"x": 0.0611846348,
				"y": -0.5743506449,
				"z": 2.7100426159,
				"element": "C" 
			},
			{
				"x": -0.1231394604,
				"y": -0.1921376491,
				"z": 1.3068752383,
				"element": "N" 
			},
			{
				"x": -1.2316100435,
				"y": -0.7034987246,
				"z": 0.6571614382,
				"element": "C" 
			},
			{
				"x": -2.0543480928,
				"y": -1.4060109518,
				"z": 1.2416740105,
				"element": "O" 
			},
			{
				"x": -1.4869895442,
				"y": -0.3740628725,
				"z": -0.761399855,
				"element": "C" 
			},
			{
				"x": -2.5049032545,
				"y": -0.8436609157,
				"z": -1.5485610207,
				"element": "C" 
			},
			{
				"x": -2.3517855837,
				"y": -0.227202919,
				"z": -2.8252636316,
				"element": "C" 
			},
			{
				"x": -1.2538800705,
				"y": 0.5771548269,
				"z": -2.7258694948,
				"element": "C" 
			},
			{
				"x": -0.7153598953,
				"y": 0.5020713948,
				"z": -1.4810511985,
				"element": "O" 
			},
			{
				"x": 0.9987995624,
				"y": 0.44456531,
				"z": 0.6830973625,
				"element": "C" 
			},
			{
				"x": 1.9914395663,
				"y": -0.2480070842,
				"z": -0.0465824058,
				"element": "C" 
			},
			{
				"x": 3.0634602446,
				"y": 0.4779140931,
				"z": -0.5912250787,
				"element": "C" 
			},
			{
				"x": 3.1801908343,
				"y": 1.8498842758,
				"z": -0.4022897789,
				"element": "C" 
			},
			{
				"x": 2.2086369754,
				"y": 2.527448376,
				"z": 0.3368091954,
				"element": "C" 
			},
			{
				"x": 1.1299125119,
				"y": 1.8254710223,
				"z": 0.8683947618,
				"element": "C" 
			},
			{
				"x": 2.0211630147,
				"y": -1.7169352307,
				"z": -0.3231317988,
				"element": "C" 
			},
			{
				"x": 1.0943559348,
				"y": -2.4403038919,
				"z": 0.3440372711,
				"element": "O" 
			},
			{
				"x": 2.8217124901,
				"y": -2.2446522904,
				"z": -1.0710443963,
				"element": "O" 
			},
			{
				"x": 0.723391367,
				"y": -1.4438595638,
				"z": 2.7921241196,
				"element": "H" 
			},
			{
				"x": 0.4971819043,
				"y": 0.2637263747,
				"z": 3.2598111649,
				"element": "H" 
			},
			{
				"x": -0.9121459217,
				"y": -0.8327598856,
				"z": 3.1244538293,
				"element": "H" 
			},
			{
				"x": -3.2616507718,
				"y": -1.5429186631,
				"z": -1.2278544283,
				"element": "H" 
			},
			{
				"x": -2.9724896858,
				"y": -0.3613464008,
				"z": -3.6992950066,
				"element": "H" 
			},
			{
				"x": -0.7484751722,
				"y": 1.2350785942,
				"z": -3.4161352881,
				"element": "H" 
			},
			{
				"x": 3.8027684917,
				"y": -0.0731732618,
				"z": -1.1617117198,
				"element": "H" 
			},
			{
				"x": 4.0225422862,
				"y": 2.3869450406,
				"z": -0.8272658768,
				"element": "H" 
			},
			{
				"x": 2.2844479463,
				"y": 3.5997492338,
				"z": 0.492108035,
				"element": "H" 
			},
			{
				"x": 0.3560547648,
				"y": 2.3408406802,
				"z": 1.4285393516,
				"element": "H" 
			},
			{
				"x": 1.2293349668,
				"y": -3.3619682724,
				"z": 0.0663525846,
				"element": "H" 
			}
		],
		 "valence_orbital": [ 
			{
				"type": "occ",
				"energy": -0.27386,
				"method": "rhf"
			},
			{
				"type": "occ",
				"energy": -0.26715,
				"method": "rhf"
			},
			{
				"type": "occ",
				"energy": -0.24877,
				"method": "rhf"
			},
			{
				"type": "occ",
				"energy": -0.24101,
				"method": "rhf"
			},
			{
				"type": "occ",
				"energy": -0.23174,
				"method": "rhf"
			},
			{
				"type": "unocc",
				"energy": -0.0556,
				"method": "rhf"
			},
			{
				"type": "unocc",
				"energy": -0.02946,
				"method": "rhf"
			},
			{
				"type": "unocc",
				"energy": -0.0183,
				"method": "rhf"
			},
			{
				"type": "unocc",
				"energy": 0.04695,
				"method": "rhf"
			},
			{
				"type": "unocc",
				"energy": 0.05093,
				"method": "rhf"
			}
		],
		"cosmo_sigma_profile": { 
			"-0.025": 0.0,
			"-0.024": 0.0,
			"-0.023": 0.0,
			"-0.022": 0.0,
			"-0.021": 0.0,
			"-0.02": 0.0,
			"-0.019": 0.107282959625,
			"-0.018": 0.828869378889,
			"-0.017": 1.23760878812,
			"-0.016": 0.5299520171,
			"-0.015": 0.269710212958,
			"-0.014": 1.03799324151,
			"-0.013": 0.387912174681,
			"-0.012": 1.1277177595,
			"-0.011": 0.765413342365,
			"-0.01": 1.09977490574,
			"-0.009": 2.59962953768,
			"-0.008": 3.19485185949,
			"-0.007": 9.58469192493,
			"-0.006": 13.4394788463,
			"-0.005": 17.6860912906,
			"-0.004": 17.5213874098,
			"-0.003": 18.1486472586,
			"-0.002": 23.150074644,
			"-0.001": 19.3283388287,
			"0.0": 18.1698897872,
			"0.001": 19.7549615878,
			"0.002": 22.0881740852,
			"0.003": 19.8773995296,
			"0.004": 13.4514958177,
			"0.005": 7.16694357961,
			"0.006": 4.77854968905,
			"0.007": 4.01083014639,
			"0.008": 3.36334346072,
			"0.009": 3.19958049153,
			"0.01": 4.37028866782,
			"0.011": 5.7298783349,
			"0.012": 5.14502031708,
			"0.013": 4.51687706291,
			"0.014": 2.1990454739,
			"0.015": 0.0,
			"0.016": 0.0,
			"0.017": 0.0,
			"0.018": 0.0,
			"0.019": 0.0,
			"0.02": 0.0,
			"0.021": 0.0,
			"0.022": 0.0,
			"0.023": 0.0,
			"0.024": 0.0,
			"0.025": 0.0
		}
	}
}
