{
	 "smiles": "ClC1=C2OC3=C(C=CC=C3)C2=NC=N1", 
	 "Tm": 418.15, 
	 "num_atms": 19, 
	 "gaussian": { 
		 "optdone": 1, 
		 "sigma_profile": "yes", 
		 "theory": "DFT", 
		 "functional": "B3LYP", 
		 "basiset": "6-31G**", 
		 "properties": { 
			 "R2extent": 3195.5664, 
			 "electric_dipole_moment_norm": 3.57238698632, 
			 "electric_quadrupole_moment_norm": 4.54099642259, 
			 "total_energy": -1028.99009159, 
			 "HOMO_LUMO_gap": 0.18068, 
			 "cosmo_polarized_energy": -7.21, 
			 "cosmo_cavitation_energy": 25.94, 
			 "cosmo_dispersion_energy": -19.79, 
			 "cosmo_repulsion_energy": 1.53, 
			 "cosmo_total_nonelectrostatic_energy": 7.68, 
			 "SMD_solvation_energy": 1.26 
		},
		"coords": [
			{
				"x": 0.2828346988,
				"y": 2.5960416325,
				"z": -2.9118486698,
				"element": "Cl" 
			},
			{
				"x": -0.6401770572,
				"y": 1.94463473,
				"z": -1.5810307494,
				"element": "C" 
			},
			{
				"x": -0.3114841007,
				"y": 0.7242415249,
				"z": -1.009886034,
				"element": "C" 
			},
			{
				"x": 0.6927659906,
				"y": -0.1419674568,
				"z": -1.3245414382,
				"element": "O" 
			},
			{
				"x": 0.5566233232,
				"y": -1.196547649,
				"z": -0.4388103501,
				"element": "C" 
			},
			{
				"x": -0.5269553127,
				"y": -1.010154284,
				"z": 0.4389634123,
				"element": "C" 
			},
			{
				"x": -0.8124424902,
				"y": -1.9823737005,
				"z": 1.404836509,
				"element": "C" 
			},
			{
				"x": 0.0001963557,
				"y": -3.110720759,
				"z": 1.4575687433,
				"element": "C" 
			},
			{
				"x": 1.0783757734,
				"y": -3.2718161165,
				"z": 0.5666234933,
				"element": "C" 
			},
			{
				"x": 1.379016618,
				"y": -2.3144132569,
				"z": -0.4027213967,
				"element": "C" 
			},
			{
				"x": -1.1026189585,
				"y": 0.2641010512,
				"z": 0.0599261357,
				"element": "C" 
			},
			{
				"x": -2.1460288115,
				"y": 0.9526659602,
				"z": 0.5389602171,
				"element": "N" 
			},
			{
				"x": -2.366307287,
				"y": 2.110486744,
				"z": -0.088148927,
				"element": "C" 
			},
			{
				"x": -1.6694524852,
				"y": 2.6320444054,
				"z": -1.1143151439,
				"element": "N" 
			},
			{
				"x": -1.6454795333,
				"y": -1.8492582553,
				"z": 2.086987804,
				"element": "H" 
			},
			{
				"x": -0.1966419972,
				"y": -3.8815952867,
				"z": 2.1958712653,
				"element": "H" 
			},
			{
				"x": 1.6933492864,
				"y": -4.1640859672,
				"z": 0.6341604293,
				"element": "H" 
			},
			{
				"x": 2.2068011988,
				"y": -2.4290016147,
				"z": -1.0932904927,
				"element": "H" 
			},
			{
				"x": -3.2034752113,
				"y": 2.7070182984,
				"z": 0.2641951925,
				"element": "H" 
			}
		],
		 "valence_orbital": [ 
			{
				"type": "occ",
				"energy": -0.32032,
				"method": "rhf"
			},
			{
				"type": "occ",
				"energy": -0.28824,
				"method": "rhf"
			},
			{
				"type": "occ",
				"energy": -0.27132,
				"method": "rhf"
			},
			{
				"type": "occ",
				"energy": -0.26037,
				"method": "rhf"
			},
			{
				"type": "occ",
				"energy": -0.25243,
				"method": "rhf"
			},
			{
				"type": "unocc",
				"energy": -0.07175,
				"method": "rhf"
			},
			{
				"type": "unocc",
				"energy": -0.03255,
				"method": "rhf"
			},
			{
				"type": "unocc",
				"energy": -0.01227,
				"method": "rhf"
			},
			{
				"type": "unocc",
				"energy": 0.00886,
				"method": "rhf"
			},
			{
				"type": "unocc",
				"energy": 0.02546,
				"method": "rhf"
			}
		],
		"cosmo_sigma_profile": { 
			"-0.025": 0.0,
			"-0.024": 0.0,
			"-0.023": 0.0,
			"-0.022": 0.0,
			"-0.021": 0.0,
			"-0.02": 0.0,
			"-0.019": 0.0,
			"-0.018": 0.0,
			"-0.017": 0.0,
			"-0.016": 0.0,
			"-0.015": 0.0,
			"-0.014": 0.0,
			"-0.013": 0.0,
			"-0.012": 0.0,
			"-0.011": 0.0,
			"-0.01": 0.0,
			"-0.009": 0.224408730682,
			"-0.008": 3.82950931284,
			"-0.007": 7.37239339582,
			"-0.006": 10.7814133432,
			"-0.005": 11.5052593029,
			"-0.004": 15.7238850267,
			"-0.003": 16.0714353513,
			"-0.002": 15.4438768616,
			"-0.001": 16.5424283385,
			"0.0": 19.1911079632,
			"0.001": 18.7045149316,
			"0.002": 20.6749348047,
			"0.003": 23.1234702265,
			"0.004": 10.3461417659,
			"0.005": 4.87360525463,
			"0.006": 4.18172397825,
			"0.007": 3.26097435197,
			"0.008": 2.47772052947,
			"0.009": 1.60723619054,
			"0.01": 1.56025724089,
			"0.011": 2.10222292833,
			"0.012": 1.69427708035,
			"0.013": 1.35230384949,
			"0.014": 0.616846079145,
			"0.015": 0.0594450844911,
			"0.016": 0.0,
			"0.017": 0.0,
			"0.018": 0.0,
			"0.019": 0.0,
			"0.02": 0.0,
			"0.021": 0.0,
			"0.022": 0.0,
			"0.023": 0.0,
			"0.024": 0.0,
			"0.025": 0.0
		}
	}
}
