{
	 "smiles": "NS(=O)(=O)C1=C2C=CN=CC2=CC=C1", 
	 "Tm": 496.15, 
	 "num_atms": 22, 
	 "gaussian": { 
		 "optdone": 1, 
		 "sigma_profile": "yes", 
		 "theory": "DFT", 
		 "functional": "B3LYP", 
		 "basiset": "6-31G**", 
		 "properties": { 
			 "R2extent": 3200.6675, 
			 "electric_dipole_moment_norm": 4.9287019285, 
			 "electric_quadrupole_moment_norm": 23.2626260766, 
			 "total_energy": -1005.84617059, 
			 "HOMO_LUMO_gap": 0.17207, 
			 "cosmo_polarized_energy": -19.8, 
			 "cosmo_cavitation_energy": 27.1, 
			 "cosmo_dispersion_energy": -20.75, 
			 "cosmo_repulsion_energy": 1.55, 
			 "cosmo_total_nonelectrostatic_energy": 7.91, 
			 "SMD_solvation_energy": 2.64 
		},
		"coords": [
			{
				"x": -0.6041691658,
				"y": -3.3404545849,
				"z": -0.4981787733,
				"element": "N" 
			},
			{
				"x": 0.1612547048,
				"y": -2.4803113469,
				"z": -1.7213371518,
				"element": "S" 
			},
			{
				"x": -0.9013079441,
				"y": -1.9997027956,
				"z": -2.6032676512,
				"element": "O" 
			},
			{
				"x": 1.2394491564,
				"y": -3.3456008088,
				"z": -2.1952410633,
				"element": "O" 
			},
			{
				"x": 0.9329365045,
				"y": -1.0544270732,
				"z": -0.9242812572,
				"element": "C" 
			},
			{
				"x": 0.158115375,
				"y": 0.0088776039,
				"z": -0.3616588226,
				"element": "C" 
			},
			{
				"x": -1.2563342888,
				"y": 0.1325262728,
				"z": -0.4128297823,
				"element": "C" 
			},
			{
				"x": -1.8634402689,
				"y": 1.2021565057,
				"z": 0.207386878,
				"element": "C" 
			},
			{
				"x": -1.1998492567,
				"y": 2.1805960038,
				"z": 0.8799036244,
				"element": "N" 
			},
			{
				"x": 0.1123343693,
				"y": 2.0929961886,
				"z": 0.9172583313,
				"element": "C" 
			},
			{
				"x": 0.8693262955,
				"y": 1.0456444446,
				"z": 0.3220977353,
				"element": "C" 
			},
			{
				"x": 2.2859562209,
				"y": 1.0199775429,
				"z": 0.3932282954,
				"element": "C" 
			},
			{
				"x": 2.9955780321,
				"y": -0.0035920059,
				"z": -0.1893345764,
				"element": "C" 
			},
			{
				"x": 2.3100141908,
				"y": -1.0527675361,
				"z": -0.8456334427,
				"element": "C" 
			},
			{
				"x": -1.3459619152,
				"y": -2.8196038311,
				"z": -0.0407516236,
				"element": "H" 
			},
			{
				"x": 0.0531235287,
				"y": -3.7548795936,
				"z": 0.1550660894,
				"element": "H" 
			},
			{
				"x": -1.8531616265,
				"y": -0.5760655144,
				"z": -0.9744907593,
				"element": "H" 
			},
			{
				"x": -2.944917955,
				"y": 1.3097558166,
				"z": 0.1712662059,
				"element": "H" 
			},
			{
				"x": 0.6445634083,
				"y": 2.885359401,
				"z": 1.4451508548,
				"element": "H" 
			},
			{
				"x": 2.7980605149,
				"y": 1.825165226,
				"z": 0.9133627537,
				"element": "H" 
			},
			{
				"x": 4.0797470527,
				"y": -0.0214580537,
				"z": -0.1451664706,
				"element": "H" 
			},
			{
				"x": 2.859683067,
				"y": -1.8719918616,
				"z": -1.2961493939,
				"element": "H" 
			}
		],
		 "valence_orbital": [ 
			{
				"type": "occ",
				"energy": -0.30738,
				"method": "rhf"
			},
			{
				"type": "occ",
				"energy": -0.30379,
				"method": "rhf"
			},
			{
				"type": "occ",
				"energy": -0.28587,
				"method": "rhf"
			},
			{
				"type": "occ",
				"energy": -0.26948,
				"method": "rhf"
			},
			{
				"type": "occ",
				"energy": -0.25127,
				"method": "rhf"
			},
			{
				"type": "unocc",
				"energy": -0.0792,
				"method": "rhf"
			},
			{
				"type": "unocc",
				"energy": -0.04528,
				"method": "rhf"
			},
			{
				"type": "unocc",
				"energy": -0.00933,
				"method": "rhf"
			},
			{
				"type": "unocc",
				"energy": 0.04837,
				"method": "rhf"
			},
			{
				"type": "unocc",
				"energy": 0.05869,
				"method": "rhf"
			}
		],
		"cosmo_sigma_profile": { 
			"-0.025": 0.0,
			"-0.024": 0.0,
			"-0.023": 0.0,
			"-0.022": 0.0,
			"-0.021": 0.0,
			"-0.02": 0.0,
			"-0.019": 0.0,
			"-0.018": 0.0,
			"-0.017": 0.0,
			"-0.016": 0.221004373941,
			"-0.015": 1.6614881136,
			"-0.014": 2.75047949371,
			"-0.013": 2.16596246416,
			"-0.012": 3.3178372884,
			"-0.011": 3.07349182725,
			"-0.01": 1.84950036753,
			"-0.009": 2.90403044832,
			"-0.008": 6.16509519243,
			"-0.007": 12.567651165,
			"-0.006": 12.0025267064,
			"-0.005": 10.9405289717,
			"-0.004": 8.82584654107,
			"-0.003": 9.52543975431,
			"-0.002": 9.12013711765,
			"-0.001": 12.9102937878,
			"0.0": 21.0573226836,
			"0.001": 18.8294932789,
			"0.002": 14.365182417,
			"0.003": 5.0548377411,
			"0.004": 5.27191221706,
			"0.005": 5.1953849752,
			"0.006": 4.00291008349,
			"0.007": 6.77625252868,
			"0.008": 6.10280492585,
			"0.009": 5.91527904592,
			"0.01": 7.70744587812,
			"0.011": 10.3193300382,
			"0.012": 3.80403543676,
			"0.013": 1.03284940697,
			"0.014": 0.973414041281,
			"0.015": 0.784505272645,
			"0.016": 0.650809834499,
			"0.017": 0.0791467833609,
			"0.018": 0.0,
			"0.019": 0.0,
			"0.02": 0.0,
			"0.021": 0.0,
			"0.022": 0.0,
			"0.023": 0.0,
			"0.024": 0.0,
			"0.025": 0.0
		}
	}
}
