{
	 "smiles": "CCOC1=CC=C(NS(=O)(=O)C2=CC(N)=C(C)C=C2)C=C1", 
	 "Tm": 390.15, 
	 "num_atms": 39, 
	 "gaussian": { 
		 "optdone": 1, 
		 "sigma_profile": "yes", 
		 "theory": "DFT", 
		 "functional": "B3LYP", 
		 "basiset": "6-31G**", 
		 "properties": { 
			 "R2extent": 9031.823, 
			 "electric_dipole_moment_norm": 6.03784401753, 
			 "electric_quadrupole_moment_norm": 32.1636939399, 
			 "total_energy": -1315.74197274, 
			 "HOMO_LUMO_gap": 0.18747, 
			 "cosmo_polarized_energy": -21.8, 
			 "cosmo_cavitation_energy": 43.86, 
			 "cosmo_dispersion_energy": -30.68, 
			 "cosmo_repulsion_energy": 2.35, 
			 "cosmo_total_nonelectrostatic_energy": 15.53, 
			 "SMD_solvation_energy": 6.79 
		},
		"coords": [
			{
				"x": -1.8732441719,
				"y": -3.4232231606,
				"z": 2.4605562512,
				"element": "C" 
			},
			{
				"x": -2.4337427775,
				"y": -2.2565586758,
				"z": 3.2676543081,
				"element": "C" 
			},
			{
				"x": -1.4100950001,
				"y": -1.3922759042,
				"z": 3.7676690974,
				"element": "O" 
			},
			{
				"x": -0.8470375282,
				"y": -0.455833659,
				"z": 2.951090152,
				"element": "C" 
			},
			{
				"x": -1.2254645153,
				"y": -0.2030488032,
				"z": 1.6258438856,
				"element": "C" 
			},
			{
				"x": -0.5902222677,
				"y": 0.8113621801,
				"z": 0.9063072291,
				"element": "C" 
			},
			{
				"x": 0.4313674942,
				"y": 1.5675680348,
				"z": 1.4815621657,
				"element": "C" 
			},
			{
				"x": 1.044610128,
				"y": 2.6078203615,
				"z": 0.7052242636,
				"element": "N" 
			},
			{
				"x": 2.5153679901,
				"y": 2.2775654156,
				"z": -0.1125476666,
				"element": "S" 
			},
			{
				"x": 3.0560257076,
				"y": 3.6125004006,
				"z": -0.3983365566,
				"element": "O" 
			},
			{
				"x": 3.3096684427,
				"y": 1.2796330318,
				"z": 0.6120430013,
				"element": "O" 
			},
			{
				"x": 1.958086018,
				"y": 1.5239719206,
				"z": -1.6378675545,
				"element": "C" 
			},
			{
				"x": 1.4593499462,
				"y": 2.3475471242,
				"z": -2.6450835059,
				"element": "C" 
			},
			{
				"x": 1.0246127149,
				"y": 1.7838136037,
				"z": -3.8516639273,
				"element": "C" 
			},
			{
				"x": 0.4711811555,
				"y": 2.5909391369,
				"z": -4.8465796756,
				"element": "N" 
			},
			{
				"x": 1.0984468915,
				"y": 0.3793585774,
				"z": -4.0315817495,
				"element": "C" 
			},
			{
				"x": 0.6206345952,
				"y": -0.2394175823,
				"z": -5.3204060731,
				"element": "C" 
			},
			{
				"x": 1.6159639049,
				"y": -0.4067564782,
				"z": -3.000373518,
				"element": "C" 
			},
			{
				"x": 2.0533795159,
				"y": 0.1434570983,
				"z": -1.7940837658,
				"element": "C" 
			},
			{
				"x": 0.8184659049,
				"y": 1.2978363136,
				"z": 2.8026353002,
				"element": "C" 
			},
			{
				"x": 0.1795059772,
				"y": 0.3062370685,
				"z": 3.5331402741,
				"element": "C" 
			},
			{
				"x": -1.1628743053,
				"y": -3.9940991446,
				"z": 3.0651428922,
				"element": "H" 
			},
			{
				"x": -2.684867356,
				"y": -4.0930105598,
				"z": 2.1569186195,
				"element": "H" 
			},
			{
				"x": -1.3563187011,
				"y": -3.0819291432,
				"z": 1.5596938472,
				"element": "H" 
			},
			{
				"x": -3.1699748593,
				"y": -1.6820239665,
				"z": 2.691273685,
				"element": "H" 
			},
			{
				"x": -2.9387417806,
				"y": -2.6251732861,
				"z": 4.1649680698,
				"element": "H" 
			},
			{
				"x": -2.012123147,
				"y": -0.7738861507,
				"z": 1.1476322531,
				"element": "H" 
			},
			{
				"x": -0.8931770773,
				"y": 1.0269533166,
				"z": -0.1130208633,
				"element": "H" 
			},
			{
				"x": 1.2072800397,
				"y": 3.4750042195,
				"z": 1.2132114014,
				"element": "H" 
			},
			{
				"x": 1.4233917171,
				"y": 3.4220867089,
				"z": -2.4951084888,
				"element": "H" 
			},
			{
				"x": 0.5912585006,
				"y": 2.2639720804,
				"z": -5.7950010539,
				"element": "H" 
			},
			{
				"x": 0.6799712505,
				"y": 3.5761290653,
				"z": -4.7594108236,
				"element": "H" 
			},
			{
				"x": 1.2212938543,
				"y": 0.0893247864,
				"z": -6.1805463467,
				"element": "H" 
			},
			{
				"x": 0.6831356081,
				"y": -1.3294013313,
				"z": -5.2814455491,
				"element": "H" 
			},
			{
				"x": -0.4200578478,
				"y": 0.0350134103,
				"z": -5.5325686318,
				"element": "H" 
			},
			{
				"x": 1.6794464466,
				"y": -1.4818444155,
				"z": -3.1474814961,
				"element": "H" 
			},
			{
				"x": 2.466800969,
				"y": -0.4691803235,
				"z": -1.0024044598,
				"element": "H" 
			},
			{
				"x": 1.6275573478,
				"y": 1.866012749,
				"z": 3.251592291,
				"element": "H" 
			},
			{
				"x": 0.4620392147,
				"y": 0.0929559803,
				"z": 4.5586527185,
				"element": "H" 
			}
		],
		 "valence_orbital": [ 
			{
				"type": "occ",
				"energy": -0.27359,
				"method": "rhf"
			},
			{
				"type": "occ",
				"energy": -0.25436,
				"method": "rhf"
			},
			{
				"type": "occ",
				"energy": -0.25034,
				"method": "rhf"
			},
			{
				"type": "occ",
				"energy": -0.21659,
				"method": "rhf"
			},
			{
				"type": "occ",
				"energy": -0.21422,
				"method": "rhf"
			},
			{
				"type": "unocc",
				"energy": -0.02675,
				"method": "rhf"
			},
			{
				"type": "unocc",
				"energy": -0.00478,
				"method": "rhf"
			},
			{
				"type": "unocc",
				"energy": 0.00149,
				"method": "rhf"
			},
			{
				"type": "unocc",
				"energy": 0.0034,
				"method": "rhf"
			},
			{
				"type": "unocc",
				"energy": 0.06639,
				"method": "rhf"
			}
		],
		"cosmo_sigma_profile": { 
			"-0.025": 0.0,
			"-0.024": 0.0,
			"-0.023": 0.0,
			"-0.022": 0.0,
			"-0.021": 0.0,
			"-0.02": 0.0,
			"-0.019": 0.0,
			"-0.018": 0.0,
			"-0.017": 0.0,
			"-0.016": 0.0,
			"-0.015": 0.159945126934,
			"-0.014": 0.996741832086,
			"-0.013": 2.12297893752,
			"-0.012": 3.58705739248,
			"-0.011": 4.45079277167,
			"-0.01": 4.56719925937,
			"-0.009": 3.53258956596,
			"-0.008": 4.8297455964,
			"-0.007": 7.11940308978,
			"-0.006": 14.8123827604,
			"-0.005": 22.3315792047,
			"-0.004": 26.8942475702,
			"-0.003": 26.0026655545,
			"-0.002": 24.1452501926,
			"-0.001": 24.4552124128,
			"0.0": 24.1027447902,
			"0.001": 20.1897374144,
			"0.002": 19.8678912195,
			"0.003": 25.8584720954,
			"0.004": 25.5784403157,
			"0.005": 11.6741455888,
			"0.006": 6.51696766546,
			"0.007": 5.39352462616,
			"0.008": 7.17639212832,
			"0.009": 6.31006361722,
			"0.01": 8.58761733667,
			"0.011": 9.9699781572,
			"0.012": 5.16815083649,
			"0.013": 0.711899524611,
			"0.014": 0.196023376378,
			"0.015": 0.0,
			"0.016": 0.0,
			"0.017": 0.0,
			"0.018": 0.0,
			"0.019": 0.0,
			"0.02": 0.0,
			"0.021": 0.0,
			"0.022": 0.0,
			"0.023": 0.0,
			"0.024": 0.0,
			"0.025": 0.0
		}
	}
}
