{
	 "smiles": "CC1=CC(C=C(C(O)=O)C2=CC=CS2)=CC=C1", 
	 "Tm": 432.15, 
	 "num_atms": 29, 
	 "gaussian": { 
		 "optdone": 1, 
		 "sigma_profile": "yes", 
		 "theory": "DFT", 
		 "functional": "B3LYP", 
		 "basiset": "6-31G**", 
		 "properties": { 
			 "R2extent": 5176.545, 
			 "electric_dipole_moment_norm": 2.40028134393, 
			 "electric_quadrupole_moment_norm": 10.5978186803, 
			 "total_energy": -1089.34977078, 
			 "HOMO_LUMO_gap": 0.1463, 
			 "cosmo_polarized_energy": -11.65, 
			 "cosmo_cavitation_energy": 35.02, 
			 "cosmo_dispersion_energy": -24.61, 
			 "cosmo_repulsion_energy": 1.89, 
			 "cosmo_total_nonelectrostatic_energy": 12.3, 
			 "SMD_solvation_energy": 7.08 
		},
		"coords": [
			{
				"x": 2.4685411378,
				"y": -0.3858996472,
				"z": 1.8994541363,
				"element": "C" 
			},
			{
				"x": 1.3758701419,
				"y": -1.2841980117,
				"z": 1.367505484,
				"element": "C" 
			},
			{
				"x": 0.7059004447,
				"y": -0.9728602407,
				"z": 0.1837204947,
				"element": "C" 
			},
			{
				"x": -0.2970484044,
				"y": -1.8126317145,
				"z": -0.3401846771,
				"element": "C" 
			},
			{
				"x": -0.9914587837,
				"y": -1.5583983328,
				"z": -1.6060257263,
				"element": "C" 
			},
			{
				"x": -1.2101403499,
				"y": -0.3971453541,
				"z": -2.2781140554,
				"element": "C" 
			},
			{
				"x": -1.7976822656,
				"y": -0.4646339948,
				"z": -3.6522581921,
				"element": "C" 
			},
			{
				"x": -2.1994814086,
				"y": -1.7130263978,
				"z": -4.0165582807,
				"element": "O" 
			},
			{
				"x": -1.9066516065,
				"y": 0.4778187102,
				"z": -4.4113050405,
				"element": "O" 
			},
			{
				"x": -0.9431360662,
				"y": 0.9642728144,
				"z": -1.7789376461,
				"element": "C" 
			},
			{
				"x": -0.2531413053,
				"y": 1.9850500608,
				"z": -2.3884038584,
				"element": "C" 
			},
			{
				"x": -0.251125807,
				"y": 3.198249924,
				"z": -1.6396761706,
				"element": "C" 
			},
			{
				"x": -0.9626639864,
				"y": 3.1025030732,
				"z": -0.4747551431,
				"element": "C" 
			},
			{
				"x": -1.6446597951,
				"y": 1.5240895237,
				"z": -0.2709623749,
				"element": "S" 
			},
			{
				"x": -0.6014308888,
				"y": -3.0006471568,
				"z": 0.3491307939,
				"element": "C" 
			},
			{
				"x": 0.0454777101,
				"y": -3.3126458148,
				"z": 1.5425721838,
				"element": "C" 
			},
			{
				"x": 1.0249538562,
				"y": -2.4604638342,
				"z": 2.0496736646,
				"element": "C" 
			},
			{
				"x": 2.4880996192,
				"y": 0.572463184,
				"z": 1.37399704,
				"element": "H" 
			},
			{
				"x": 2.3320624372,
				"y": -0.1828724585,
				"z": 2.9670951332,
				"element": "H" 
			},
			{
				"x": 3.45569686,
				"y": -0.8495860992,
				"z": 1.7834519182,
				"element": "H" 
			},
			{
				"x": 0.9765034597,
				"y": -0.0715499182,
				"z": -0.3551533831,
				"element": "H" 
			},
			{
				"x": -1.3735565225,
				"y": -2.4553369125,
				"z": -2.0851705702,
				"element": "H" 
			},
			{
				"x": -2.5394476006,
				"y": -1.6151721729,
				"z": -4.9205307697,
				"element": "H" 
			},
			{
				"x": 0.2278742092,
				"y": 1.8661057208,
				"z": -3.3510222514,
				"element": "H" 
			},
			{
				"x": 0.2528349528,
				"y": 4.1031863213,
				"z": -1.9596089894,
				"element": "H" 
			},
			{
				"x": -1.130672319,
				"y": 3.864678907,
				"z": 0.2737454661,
				"element": "H" 
			},
			{
				"x": -1.3567492454,
				"y": -3.6711286266,
				"z": -0.052111881,
				"element": "H" 
			},
			{
				"x": -0.2093816714,
				"y": -4.2246726206,
				"z": 2.074648736,
				"element": "H" 
			},
			{
				"x": 1.5312131976,
				"y": -2.7116489316,
				"z": 2.9786839594,
				"element": "H" 
			}
		],
		 "valence_orbital": [ 
			{
				"type": "occ",
				"energy": -0.27241,
				"method": "rhf"
			},
			{
				"type": "occ",
				"energy": -0.2546,
				"method": "rhf"
			},
			{
				"type": "occ",
				"energy": -0.24448,
				"method": "rhf"
			},
			{
				"type": "occ",
				"energy": -0.24183,
				"method": "rhf"
			},
			{
				"type": "occ",
				"energy": -0.21389,
				"method": "rhf"
			},
			{
				"type": "unocc",
				"energy": -0.06759,
				"method": "rhf"
			},
			{
				"type": "unocc",
				"energy": -0.0087,
				"method": "rhf"
			},
			{
				"type": "unocc",
				"energy": -0.00235,
				"method": "rhf"
			},
			{
				"type": "unocc",
				"energy": 0.01649,
				"method": "rhf"
			},
			{
				"type": "unocc",
				"energy": 0.03673,
				"method": "rhf"
			}
		],
		"cosmo_sigma_profile": { 
			"-0.025": 0.0,
			"-0.024": 0.0,
			"-0.023": 0.0,
			"-0.022": 0.0,
			"-0.021": 0.0,
			"-0.02": 0.0,
			"-0.019": 0.00405935975299,
			"-0.018": 0.512266552499,
			"-0.017": 1.03063488344,
			"-0.016": 1.03560599768,
			"-0.015": 0.40366935463,
			"-0.014": 0.364626475684,
			"-0.013": 0.905393813316,
			"-0.012": 0.763395742055,
			"-0.011": 0.678263549704,
			"-0.01": 0.904472376614,
			"-0.009": 1.3473013507,
			"-0.008": 2.38284917291,
			"-0.007": 4.67658845658,
			"-0.006": 12.3394696322,
			"-0.005": 13.2129582818,
			"-0.004": 21.9544337186,
			"-0.003": 20.4733130708,
			"-0.002": 22.5314171827,
			"-0.001": 23.0562617707,
			"0.0": 26.4983794417,
			"0.001": 23.5290982443,
			"0.002": 20.7325297736,
			"0.003": 19.5898614548,
			"0.004": 20.9842778228,
			"0.005": 18.398821828,
			"0.006": 4.86282756991,
			"0.007": 4.12700043232,
			"0.008": 2.05121598319,
			"0.009": 1.82003436199,
			"0.01": 2.07630434673,
			"0.011": 3.14548914291,
			"0.012": 5.07807541227,
			"0.013": 0.40495390517,
			"0.014": 0.0,
			"0.015": 0.0,
			"0.016": 0.0,
			"0.017": 0.0,
			"0.018": 0.0,
			"0.019": 0.0,
			"0.02": 0.0,
			"0.021": 0.0,
			"0.022": 0.0,
			"0.023": 0.0,
			"0.024": 0.0,
			"0.025": 0.0
		}
	}
}
