{
	 "smiles": "CN(C)S(=O)(=O)C1=CC(C(O)=O)=C(Br)C=C1", 
	 "Tm": 448.15, 
	 "num_atms": 26, 
	 "gaussian": { 
		 "optdone": 1, 
		 "sigma_profile": "yes", 
		 "theory": "DFT", 
		 "functional": "B3LYP", 
		 "basiset": "6-31G**", 
		 "properties": { 
			 "R2extent": 6347.0132, 
			 "electric_dipole_moment_norm": 3.73343226536, 
			 "electric_quadrupole_moment_norm": 18.9222072317, 
			 "total_energy": -3674.15358793, 
			 "HOMO_LUMO_gap": 0.18205, 
			 "cosmo_polarized_energy": -17.3, 
			 "cosmo_cavitation_energy": 33.85, 
			 "cosmo_dispersion_energy": -24.76, 
			 "cosmo_repulsion_energy": 1.89, 
			 "cosmo_total_nonelectrostatic_energy": 10.98, 
			 "SMD_solvation_energy": 4.95 
		},
		"coords": [
			{
				"x": 3.2292282015,
				"y": 1.1018268534,
				"z": -2.4538667685,
				"element": "C" 
			},
			{
				"x": 2.5549384272,
				"y": 0.2795410214,
				"z": -1.436998148,
				"element": "N" 
			},
			{
				"x": 2.9448226529,
				"y": -1.1355727155,
				"z": -1.4632100897,
				"element": "C" 
			},
			{
				"x": 2.5433420664,
				"y": 0.9595790102,
				"z": 0.1219261279,
				"element": "S" 
			},
			{
				"x": 2.3506743195,
				"y": 2.4008224388,
				"z": -0.0597415634,
				"element": "O" 
			},
			{
				"x": 3.651924682,
				"y": 0.4498627512,
				"z": 0.9420405792,
				"element": "O" 
			},
			{
				"x": 1.0314451988,
				"y": 0.2551464949,
				"z": 0.7923929982,
				"element": "C" 
			},
			{
				"x": -0.1927942083,
				"y": 0.5995705976,
				"z": 0.2299476842,
				"element": "C" 
			},
			{
				"x": -1.393178741,
				"y": 0.1066166441,
				"z": 0.7650640646,
				"element": "C" 
			},
			{
				"x": -2.6807666008,
				"y": 0.5268999262,
				"z": 0.1294950335,
				"element": "C" 
			},
			{
				"x": -2.471988192,
				"y": 1.1908350492,
				"z": -1.0367404149,
				"element": "O" 
			},
			{
				"x": -3.7947080019,
				"y": 0.3319658325,
				"z": 0.5620781725,
				"element": "O" 
			},
			{
				"x": -1.3196701886,
				"y": -0.7455003403,
				"z": 1.8884842432,
				"element": "C" 
			},
			{
				"x": -2.8386379542,
				"y": -1.5246702245,
				"z": 2.7243309143,
				"element": "Br" 
			},
			{
				"x": -0.0832359804,
				"y": -1.0788321729,
				"z": 2.4472974269,
				"element": "C" 
			},
			{
				"x": 1.0982837551,
				"y": -0.578491676,
				"z": 1.9072928909,
				"element": "C" 
			},
			{
				"x": 2.8990530223,
				"y": 2.1356484502,
				"z": -2.3616213641,
				"element": "H" 
			},
			{
				"x": 2.9351717566,
				"y": 0.7190949092,
				"z": -3.435302872,
				"element": "H" 
			},
			{
				"x": 4.3246638915,
				"y": 1.0626799701,
				"z": -2.3724996006,
				"element": "H" 
			},
			{
				"x": 2.3538712974,
				"y": -1.7007534392,
				"z": -0.7387717893,
				"element": "H" 
			},
			{
				"x": 4.0103683853,
				"y": -1.2860860347,
				"z": -1.2463952944,
				"element": "H" 
			},
			{
				"x": 2.7200340279,
				"y": -1.5265136514,
				"z": -2.4592575711,
				"element": "H" 
			},
			{
				"x": -0.2290238314,
				"y": 1.2573202345,
				"z": -0.6286960498,
				"element": "H" 
			},
			{
				"x": -3.3543789877,
				"y": 1.4429423547,
				"z": -1.3544913433,
				"element": "H" 
			},
			{
				"x": -0.0543716367,
				"y": -1.73359296,
				"z": 3.3100701384,
				"element": "H" 
			},
			{
				"x": 2.0615326388,
				"y": -0.8237393235,
				"z": 2.3410725955,
				"element": "H" 
			}
		],
		 "valence_orbital": [ 
			{
				"type": "occ",
				"energy": -0.30542,
				"method": "rhf"
			},
			{
				"type": "occ",
				"energy": -0.29155,
				"method": "rhf"
			},
			{
				"type": "occ",
				"energy": -0.27205,
				"method": "rhf"
			},
			{
				"type": "occ",
				"energy": -0.2713,
				"method": "rhf"
			},
			{
				"type": "occ",
				"energy": -0.25592,
				"method": "rhf"
			},
			{
				"type": "unocc",
				"energy": -0.07387,
				"method": "rhf"
			},
			{
				"type": "unocc",
				"energy": -0.05272,
				"method": "rhf"
			},
			{
				"type": "unocc",
				"energy": -0.00544,
				"method": "rhf"
			},
			{
				"type": "unocc",
				"energy": 0.02523,
				"method": "rhf"
			},
			{
				"type": "unocc",
				"energy": 0.05758,
				"method": "rhf"
			}
		],
		"cosmo_sigma_profile": { 
			"-0.025": 0.0,
			"-0.024": 0.0,
			"-0.023": 0.0,
			"-0.022": 0.0,
			"-0.021": 0.0,
			"-0.02": 0.0,
			"-0.019": 0.292851753793,
			"-0.018": 0.974622348033,
			"-0.017": 1.0279184418,
			"-0.016": 0.742218316799,
			"-0.015": 0.831485925901,
			"-0.014": 0.762816809137,
			"-0.013": 0.418621359792,
			"-0.012": 0.464872721373,
			"-0.011": 0.802244161725,
			"-0.01": 0.635771308343,
			"-0.009": 1.3338888389,
			"-0.008": 5.09218379202,
			"-0.007": 4.88641047075,
			"-0.006": 9.94193822906,
			"-0.005": 17.5925219641,
			"-0.004": 24.0083670966,
			"-0.003": 27.4359152066,
			"-0.002": 27.8168261828,
			"-0.001": 24.7108100804,
			"0.0": 18.9485329274,
			"0.001": 12.8594324782,
			"0.002": 12.4305100438,
			"0.003": 13.8340456707,
			"0.004": 9.5637828114,
			"0.005": 7.18294256595,
			"0.006": 6.54044205323,
			"0.007": 4.98454444009,
			"0.008": 5.04043749384,
			"0.009": 6.14805036888,
			"0.01": 11.0955347751,
			"0.011": 11.8408950025,
			"0.012": 2.65514502992,
			"0.013": 0.0,
			"0.014": 0.0,
			"0.015": 0.0,
			"0.016": 0.0,
			"0.017": 0.0,
			"0.018": 0.0,
			"0.019": 0.0,
			"0.02": 0.0,
			"0.021": 0.0,
			"0.022": 0.0,
			"0.023": 0.0,
			"0.024": 0.0,
			"0.025": 0.0
		}
	}
}
