{
	 "smiles": "OC(=O)CC1=CC=C(OC(F)(F)F)C=C1", 
	 "Tm": 360.15, 
	 "num_atms": 22, 
	 "gaussian": { 
		 "optdone": 1, 
		 "sigma_profile": "yes", 
		 "theory": "DFT", 
		 "functional": "B3LYP", 
		 "basiset": "6-31G**", 
		 "properties": { 
			 "R2extent": 5360.5527, 
			 "electric_dipole_moment_norm": 4.70896234111, 
			 "electric_quadrupole_moment_norm": 14.1680013333, 
			 "total_energy": -872.377214855, 
			 "HOMO_LUMO_gap": 0.22906, 
			 "cosmo_polarized_energy": -16.49, 
			 "cosmo_cavitation_energy": 28.65, 
			 "cosmo_dispersion_energy": -20.44, 
			 "cosmo_repulsion_energy": 1.56, 
			 "cosmo_total_nonelectrostatic_energy": 9.77, 
			 "SMD_solvation_energy": 7.53 
		},
		"coords": [
			{
				"x": 1.2758044275,
				"y": -3.9754952877,
				"z": -1.1646232926,
				"element": "O" 
			},
			{
				"x": 0.6194907611,
				"y": -2.7897814291,
				"z": -1.2872382794,
				"element": "C" 
			},
			{
				"x": 0.3665466909,
				"y": -2.3507834229,
				"z": -2.37825862,
				"element": "O" 
			},
			{
				"x": 0.2174017838,
				"y": -2.1457241669,
				"z": 0.0453319211,
				"element": "C" 
			},
			{
				"x": -0.245717158,
				"y": -0.7116470862,
				"z": -0.053522659,
				"element": "C" 
			},
			{
				"x": 0.3983110888,
				"y": 0.2931741556,
				"z": 0.6764452117,
				"element": "C" 
			},
			{
				"x": -0.0359267935,
				"y": 1.6156915706,
				"z": 0.6184869429,
				"element": "C" 
			},
			{
				"x": -1.1223051759,
				"y": 1.9406633593,
				"z": -0.1887008401,
				"element": "C" 
			},
			{
				"x": -1.4541406542,
				"y": 3.2992780733,
				"z": -0.2026481476,
				"element": "O" 
			},
			{
				"x": -2.7007501833,
				"y": 3.7063009074,
				"z": -0.5423976056,
				"element": "C" 
			},
			{
				"x": -2.9663019154,
				"y": 3.5283784152,
				"z": -1.8549040622,
				"element": "F" 
			},
			{
				"x": -2.7812996535,
				"y": 5.0097430584,
				"z": -0.2780660063,
				"element": "F" 
			},
			{
				"x": -3.6602097505,
				"y": 3.0629962143,
				"z": 0.1473740729,
				"element": "F" 
			},
			{
				"x": -1.7771003002,
				"y": 0.9638431896,
				"z": -0.939340294,
				"element": "C" 
			},
			{
				"x": -1.3345263878,
				"y": -0.3554923518,
				"z": -0.8586552387,
				"element": "C" 
			},
			{
				"x": 1.414397885,
				"y": -4.1934378971,
				"z": -0.2320685439,
				"element": "H" 
			},
			{
				"x": 1.0596627611,
				"y": -2.2187780644,
				"z": 0.7442904439,
				"element": "H" 
			},
			{
				"x": -0.5778593589,
				"y": -2.7804800867,
				"z": 0.4643488063,
				"element": "H" 
			},
			{
				"x": 1.2484730801,
				"y": 0.0438796692,
				"z": 1.306101879,
				"element": "H" 
			},
			{
				"x": 0.4542276744,
				"y": 2.3981423412,
				"z": 1.1873266683,
				"element": "H" 
			},
			{
				"x": -2.6086298759,
				"y": 1.2180444085,
				"z": -1.5833054806,
				"element": "H" 
			},
			{
				"x": -1.8340489456,
				"y": -1.1131155698,
				"z": -1.4523768761,
				"element": "H" 
			}
		],
		 "valence_orbital": [ 
			{
				"type": "occ",
				"energy": -0.34586,
				"method": "rhf"
			},
			{
				"type": "occ",
				"energy": -0.32408,
				"method": "rhf"
			},
			{
				"type": "occ",
				"energy": -0.28304,
				"method": "rhf"
			},
			{
				"type": "occ",
				"energy": -0.26487,
				"method": "rhf"
			},
			{
				"type": "occ",
				"energy": -0.24677,
				"method": "rhf"
			},
			{
				"type": "unocc",
				"energy": -0.01771,
				"method": "rhf"
			},
			{
				"type": "unocc",
				"energy": -0.01319,
				"method": "rhf"
			},
			{
				"type": "unocc",
				"energy": 0.00302,
				"method": "rhf"
			},
			{
				"type": "unocc",
				"energy": 0.04624,
				"method": "rhf"
			},
			{
				"type": "unocc",
				"energy": 0.07515,
				"method": "rhf"
			}
		],
		"cosmo_sigma_profile": { 
			"-0.025": 0.0,
			"-0.024": 0.0,
			"-0.023": 0.0,
			"-0.022": 0.0,
			"-0.021": 0.0,
			"-0.02": 0.0262540657696,
			"-0.019": 0.904017907345,
			"-0.018": 1.09196175852,
			"-0.017": 1.01051812558,
			"-0.016": 1.55109877204,
			"-0.015": 1.15704005808,
			"-0.014": 0.982670165759,
			"-0.013": 0.837050670052,
			"-0.012": 1.19396761097,
			"-0.011": 1.4621974021,
			"-0.01": 1.24654595091,
			"-0.009": 2.18069684194,
			"-0.008": 4.28124265267,
			"-0.007": 9.609564548,
			"-0.006": 11.371657177,
			"-0.005": 11.1322376619,
			"-0.004": 8.9459493969,
			"-0.003": 8.33699552973,
			"-0.002": 10.2163803587,
			"-0.001": 11.2119987895,
			"0.0": 16.0102937509,
			"0.001": 25.8589527931,
			"0.002": 37.6729994977,
			"0.003": 15.0686556417,
			"0.004": 11.252542379,
			"0.005": 4.45528060395,
			"0.006": 3.5205029602,
			"0.007": 3.0920391688,
			"0.008": 3.60891964648,
			"0.009": 3.21518728783,
			"0.01": 5.04959623596,
			"0.011": 6.13731544259,
			"0.012": 4.28003998834,
			"0.013": 1.144696596,
			"0.014": 0.0,
			"0.015": 0.0,
			"0.016": 0.0,
			"0.017": 0.0,
			"0.018": 0.0,
			"0.019": 0.0,
			"0.02": 0.0,
			"0.021": 0.0,
			"0.022": 0.0,
			"0.023": 0.0,
			"0.024": 0.0,
			"0.025": 0.0
		}
	}
}
