{
	 "smiles": "FC1=C(Cl)C(Cl)=C(C=C1)C#N", 
	 "Tm": 339.15, 
	 "num_atms": 13, 
	 "gaussian": { 
		 "optdone": 1, 
		 "sigma_profile": "yes", 
		 "theory": "DFT", 
		 "functional": "B3LYP", 
		 "basiset": "6-31G**", 
		 "properties": { 
			 "R2extent": 2813.5716, 
			 "electric_dipole_moment_norm": 3.56065366752, 
			 "electric_quadrupole_moment_norm": 12.901570211, 
			 "total_energy": -1342.88888423, 
			 "HOMO_LUMO_gap": 0.20436, 
			 "cosmo_polarized_energy": -8.38, 
			 "cosmo_cavitation_energy": 22.94, 
			 "cosmo_dispersion_energy": -16.52, 
			 "cosmo_repulsion_energy": 1.3, 
			 "cosmo_total_nonelectrostatic_energy": 7.72, 
			 "SMD_solvation_energy": 5.29 
		},
		"coords": [
			{
				"x": 0.7102316713,
				"y": -4.2194545275,
				"z": 0.142451817,
				"element": "F" 
			},
			{
				"x": 0.0679343765,
				"y": -3.05698382,
				"z": 0.0038157331,
				"element": "C" 
			},
			{
				"x": 0.7633375452,
				"y": -1.9585710276,
				"z": -0.5170967309,
				"element": "C" 
			},
			{
				"x": 2.426590412,
				"y": -2.1563196276,
				"z": -0.9587111311,
				"element": "Cl" 
			},
			{
				"x": 0.0870687707,
				"y": -0.739398828,
				"z": -0.6617347885,
				"element": "C" 
			},
			{
				"x": 0.9040873053,
				"y": 0.6486475504,
				"z": -1.3015570441,
				"element": "Cl" 
			},
			{
				"x": -1.2691907977,
				"y": -0.6400793473,
				"z": -0.2839308055,
				"element": "C" 
			},
			{
				"x": -1.9325219551,
				"y": -1.7641121102,
				"z": 0.2346830102,
				"element": "C" 
			},
			{
				"x": -1.2668914827,
				"y": -2.9736334254,
				"z": 0.3797318317,
				"element": "C" 
			},
			{
				"x": -1.9869769539,
				"y": 0.591120914,
				"z": -0.419508792,
				"element": "C" 
			},
			{
				"x": -2.6087106391,
				"y": 1.5693628027,
				"z": -0.5118216557,
				"element": "N" 
			},
			{
				"x": -2.9740533726,
				"y": -1.6728001082,
				"z": 0.5205424805,
				"element": "H" 
			},
			{
				"x": -1.75810488,
				"y": -3.8539784453,
				"z": 0.7774360754,
				"element": "H" 
			}
		],
		 "valence_orbital": [ 
			{
				"type": "occ",
				"energy": -0.34888,
				"method": "rhf"
			},
			{
				"type": "occ",
				"energy": -0.34763,
				"method": "rhf"
			},
			{
				"type": "occ",
				"energy": -0.32922,
				"method": "rhf"
			},
			{
				"type": "occ",
				"energy": -0.28011,
				"method": "rhf"
			},
			{
				"type": "occ",
				"energy": -0.27578,
				"method": "rhf"
			},
			{
				"type": "unocc",
				"energy": -0.07142,
				"method": "rhf"
			},
			{
				"type": "unocc",
				"energy": -0.05549,
				"method": "rhf"
			},
			{
				"type": "unocc",
				"energy": -0.02366,
				"method": "rhf"
			},
			{
				"type": "unocc",
				"energy": 0.01547,
				"method": "rhf"
			},
			{
				"type": "unocc",
				"energy": 0.04815,
				"method": "rhf"
			}
		],
		"cosmo_sigma_profile": { 
			"-0.025": 0.0,
			"-0.024": 0.0,
			"-0.023": 0.0,
			"-0.022": 0.0,
			"-0.021": 0.0,
			"-0.02": 0.0,
			"-0.019": 0.0,
			"-0.018": 0.0,
			"-0.017": 0.0,
			"-0.016": 0.0,
			"-0.015": 0.0,
			"-0.014": 0.0,
			"-0.013": 0.0,
			"-0.012": 0.0,
			"-0.011": 0.0,
			"-0.01": 2.05716071032,
			"-0.009": 4.56428738196,
			"-0.008": 4.80158922721,
			"-0.007": 3.83965270663,
			"-0.006": 3.38699387126,
			"-0.005": 4.07473757641,
			"-0.004": 9.87479127868,
			"-0.003": 24.8498712322,
			"-0.002": 19.3047049934,
			"-0.001": 15.8316483684,
			"0.0": 13.9630011457,
			"0.001": 11.7827792667,
			"0.002": 23.4478524928,
			"0.003": 21.2955470402,
			"0.004": 5.57280549163,
			"0.005": 3.11619811362,
			"0.006": 2.17357752252,
			"0.007": 3.21462058309,
			"0.008": 3.38044169967,
			"0.009": 3.21399481209,
			"0.01": 2.7875015498,
			"0.011": 2.60366881392,
			"0.012": 1.90422278345,
			"0.013": 0.296797112383,
			"0.014": 0.0,
			"0.015": 0.0,
			"0.016": 0.0,
			"0.017": 0.0,
			"0.018": 0.0,
			"0.019": 0.0,
			"0.02": 0.0,
			"0.021": 0.0,
			"0.022": 0.0,
			"0.023": 0.0,
			"0.024": 0.0,
			"0.025": 0.0
		}
	}
}
