{
	 "smiles": "COC1=CC=CC(OC)=C1P(C1=C(OC)C=CC=C1OC)C1=C(OC)C=CC=C1OC", 
	 "Tm": 428.15, 
	 "num_atms": 58, 
	 "gaussian": { 
		 "optdone": 1, 
		 "sigma_profile": "yes", 
		 "theory": "DFT", 
		 "functional": "B3LYP", 
		 "basiset": "6-31G**", 
		 "properties": { 
			 "R2extent": 11145.8286, 
			 "electric_dipole_moment_norm": 2.25039069719, 
			 "electric_quadrupole_moment_norm": 5.40901330374, 
			 "total_energy": -1723.41807882, 
			 "HOMO_LUMO_gap": 0.17303, 
			 "cosmo_polarized_energy": -25.13, 
			 "cosmo_cavitation_energy": 59.85, 
			 "cosmo_dispersion_energy": -36.08, 
			 "cosmo_repulsion_energy": 2.78, 
			 "cosmo_total_nonelectrostatic_energy": 26.56, 
			 "SMD_solvation_energy": 14.38 
		},
		"coords": [
			{
				"x": 3.3424191397,
				"y": 2.3178835965,
				"z": 1.3343978304,
				"element": "C" 
			},
			{
				"x": 2.1513566999,
				"y": 1.7855631166,
				"z": 0.785942184,
				"element": "O" 
			},
			{
				"x": 1.1450536094,
				"y": 2.6387279585,
				"z": 0.4236634577,
				"element": "C" 
			},
			{
				"x": 1.1872701324,
				"y": 4.0123748954,
				"z": 0.6729426879,
				"element": "C" 
			},
			{
				"x": 0.1134674177,
				"y": 4.8128375339,
				"z": 0.2762280118,
				"element": "C" 
			},
			{
				"x": -0.9859341864,
				"y": 4.2408830529,
				"z": -0.3483815018,
				"element": "C" 
			},
			{
				"x": -1.0219800597,
				"y": 2.8587249102,
				"z": -0.5844952119,
				"element": "C" 
			},
			{
				"x": -2.1387815681,
				"y": 2.3689825774,
				"z": -1.22892163,
				"element": "O" 
			},
			{
				"x": -3.2073594166,
				"y": 2.002610513,
				"z": -0.357031358,
				"element": "C" 
			},
			{
				"x": 0.0419137004,
				"y": 2.0187767239,
				"z": -0.2172489664,
				"element": "C" 
			},
			{
				"x": 0.3107935934,
				"y": 0.2381920393,
				"z": -0.6777150896,
				"element": "P" 
			},
			{
				"x": -1.1639200371,
				"y": -0.3060429139,
				"z": -1.6664494741,
				"element": "C" 
			},
			{
				"x": -2.2078593194,
				"y": -1.1666980029,
				"z": -1.2690022376,
				"element": "C" 
			},
			{
				"x": -2.2934430273,
				"y": -1.4575945129,
				"z": 0.0628849876,
				"element": "O" 
			},
			{
				"x": -3.2321753047,
				"y": -2.4199282318,
				"z": 0.5044348943,
				"element": "C" 
			},
			{
				"x": -3.1291419507,
				"y": -1.6765386512,
				"z": -2.1991229256,
				"element": "C" 
			},
			{
				"x": -3.0344889226,
				"y": -1.3037779503,
				"z": -3.5355872208,
				"element": "C" 
			},
			{
				"x": -2.0419111485,
				"y": -0.4264773458,
				"z": -3.965366356,
				"element": "C" 
			},
			{
				"x": -1.124816549,
				"y": 0.0648016171,
				"z": -3.0305798055,
				"element": "C" 
			},
			{
				"x": -0.1315174628,
				"y": 0.9410483089,
				"z": -3.355003344,
				"element": "O" 
			},
			{
				"x": 0.0088540902,
				"y": 1.3599846911,
				"z": -4.7001614205,
				"element": "C" 
			},
			{
				"x": 0.2442750276,
				"y": -0.7083173662,
				"z": 0.9194287997,
				"element": "C" 
			},
			{
				"x": -0.2725752114,
				"y": -0.2734864375,
				"z": 2.1571320999,
				"element": "C" 
			},
			{
				"x": -0.9762217181,
				"y": 0.8953824802,
				"z": 2.148751452,
				"element": "O" 
			},
			{
				"x": -1.3871844282,
				"y": 1.4658584533,
				"z": 3.3775505263,
				"element": "C" 
			},
			{
				"x": -0.088571767,
				"y": -1.0214003147,
				"z": 3.3303076526,
				"element": "C" 
			},
			{
				"x": 0.5870617509,
				"y": -2.2369258701,
				"z": 3.2699333548,
				"element": "C" 
			},
			{
				"x": 1.0748226919,
				"y": -2.7250980702,
				"z": 2.0614038761,
				"element": "C" 
			},
			{
				"x": 0.892411607,
				"y": -1.9624377504,
				"z": 0.9000328338,
				"element": "C" 
			},
			{
				"x": 1.3120073288,
				"y": -2.382537351,
				"z": -0.3308570703,
				"element": "O" 
			},
			{
				"x": 2.0678316877,
				"y": -3.5750622189,
				"z": -0.4321431194,
				"element": "C" 
			},
			{
				"x": 4.0086030325,
				"y": 1.4673150972,
				"z": 1.4874893866,
				"element": "H" 
			},
			{
				"x": 3.1615708826,
				"y": 2.8103095524,
				"z": 2.2991703854,
				"element": "H" 
			},
			{
				"x": 3.8191635009,
				"y": 3.0337849301,
				"z": 0.6522895331,
				"element": "H" 
			},
			{
				"x": 2.0416767184,
				"y": 4.4603880476,
				"z": 1.1655137082,
				"element": "H" 
			},
			{
				"x": 0.144990343,
				"y": 5.8834431241,
				"z": 0.4578284117,
				"element": "H" 
			},
			{
				"x": -1.8303783486,
				"y": 4.8399033836,
				"z": -0.6741458508,
				"element": "H" 
			},
			{
				"x": -3.5824271319,
				"y": 2.8765308112,
				"z": 0.1949760409,
				"element": "H" 
			},
			{
				"x": -4.003323271,
				"y": 1.610543417,
				"z": -0.9940218999,
				"element": "H" 
			},
			{
				"x": -2.8939880599,
				"y": 1.2321093945,
				"z": 0.354676952,
				"element": "H" 
			},
			{
				"x": -4.2671019956,
				"y": -2.0893804142,
				"z": 0.3424431592,
				"element": "H" 
			},
			{
				"x": -3.0561269611,
				"y": -2.5342680422,
				"z": 1.5755091604,
				"element": "H" 
			},
			{
				"x": -3.0870710621,
				"y": -3.3886730413,
				"z": 0.0092281593,
				"element": "H" 
			},
			{
				"x": -3.9218601113,
				"y": -2.3426223299,
				"z": -1.8825983315,
				"element": "H" 
			},
			{
				"x": -3.7513860047,
				"y": -1.6949190092,
				"z": -4.2521411111,
				"element": "H" 
			},
			{
				"x": -1.9932035736,
				"y": -0.1291348673,
				"z": -5.0051974471,
				"element": "H" 
			},
			{
				"x": -0.8798360079,
				"y": 1.9013259247,
				"z": -5.0486748406,
				"element": "H" 
			},
			{
				"x": 0.8676675838,
				"y": 2.0328075407,
				"z": -4.7154335756,
				"element": "H" 
			},
			{
				"x": 0.201406159,
				"y": 0.5133624358,
				"z": -5.3720407689,
				"element": "H" 
			},
			{
				"x": -1.8466813083,
				"y": 2.4219437448,
				"z": 3.1212899231,
				"element": "H" 
			},
			{
				"x": -0.5369426655,
				"y": 1.6425335234,
				"z": 4.0485048932,
				"element": "H" 
			},
			{
				"x": -2.1252045402,
				"y": 0.8383197034,
				"z": 3.8950211972,
				"element": "H" 
			},
			{
				"x": -0.4794378439,
				"y": -0.6712600353,
				"z": 4.2774803822,
				"element": "H" 
			},
			{
				"x": 0.7261948104,
				"y": -2.8172885777,
				"z": 4.1778949365,
				"element": "H" 
			},
			{
				"x": 1.5797861101,
				"y": -3.6822283746,
				"z": 2.0274535662,
				"element": "H" 
			},
			{
				"x": 2.3355529398,
				"y": -3.670686306,
				"z": -1.4856692036,
				"element": "H" 
			},
			{
				"x": 1.4845863388,
				"y": -4.4546187136,
				"z": -0.1287052404,
				"element": "H" 
			},
			{
				"x": 2.9840140666,
				"y": -3.5289503994,
				"z": 0.1707905572,
				"element": "H" 
			}
		],
		 "valence_orbital": [ 
			{
				"type": "occ",
				"energy": -0.20607,
				"method": "rhf"
			},
			{
				"type": "occ",
				"energy": -0.20381,
				"method": "rhf"
			},
			{
				"type": "occ",
				"energy": -0.20054,
				"method": "rhf"
			},
			{
				"type": "occ",
				"energy": -0.19923,
				"method": "rhf"
			},
			{
				"type": "occ",
				"energy": -0.17272,
				"method": "rhf"
			},
			{
				"type": "unocc",
				"energy": 0.00031,
				"method": "rhf"
			},
			{
				"type": "unocc",
				"energy": 0.00411,
				"method": "rhf"
			},
			{
				"type": "unocc",
				"energy": 0.02343,
				"method": "rhf"
			},
			{
				"type": "unocc",
				"energy": 0.03109,
				"method": "rhf"
			},
			{
				"type": "unocc",
				"energy": 0.03548,
				"method": "rhf"
			}
		],
		"cosmo_sigma_profile": { 
			"-0.025": 0.0,
			"-0.024": 0.0,
			"-0.023": 0.0,
			"-0.022": 0.0,
			"-0.021": 0.0,
			"-0.02": 0.0,
			"-0.019": 0.0,
			"-0.018": 0.0,
			"-0.017": 0.0,
			"-0.016": 0.0,
			"-0.015": 0.0,
			"-0.014": 0.0,
			"-0.013": 0.0,
			"-0.012": 0.0,
			"-0.011": 0.0,
			"-0.01": 0.0,
			"-0.009": 0.0,
			"-0.008": 0.0,
			"-0.007": 0.347810186424,
			"-0.006": 21.1014424578,
			"-0.005": 58.9807945275,
			"-0.004": 56.6041551866,
			"-0.003": 63.0714099267,
			"-0.002": 38.6751188145,
			"-0.001": 28.4052185349,
			"0.0": 20.4872971321,
			"0.001": 21.1028840514,
			"0.002": 18.8155061105,
			"0.003": 22.0333713245,
			"0.004": 22.6236235403,
			"0.005": 30.6828823391,
			"0.006": 24.7684569963,
			"0.007": 11.326983764,
			"0.008": 8.62229682245,
			"0.009": 7.48872623738,
			"0.01": 4.8602999344,
			"0.011": 3.06203406116,
			"0.012": 3.08187185071,
			"0.013": 2.18601175992,
			"0.014": 1.65652128066,
			"0.015": 2.01775127884,
			"0.016": 0.814722146697,
			"0.017": 0.0069985931713,
			"0.018": 0.0,
			"0.019": 0.0,
			"0.02": 0.0,
			"0.021": 0.0,
			"0.022": 0.0,
			"0.023": 0.0,
			"0.024": 0.0,
			"0.025": 0.0
		}
	}
}
