{
	 "smiles": "C1CC(CCN1)C1=NC2=C(N1)C=CC=C2", 
	 "Tm": 527.15, 
	 "num_atms": 30, 
	 "gaussian": { 
		 "optdone": 1, 
		 "sigma_profile": "yes", 
		 "theory": "DFT", 
		 "functional": "B3LYP", 
		 "basiset": "6-31G**", 
		 "properties": { 
			 "R2extent": 4399.3139, 
			 "electric_dipole_moment_norm": 3.43411503302, 
			 "electric_quadrupole_moment_norm": 14.2872842664, 
			 "total_energy": -630.579231098, 
			 "HOMO_LUMO_gap": 0.19839, 
			 "cosmo_polarized_energy": -15.18, 
			 "cosmo_cavitation_energy": 31.43, 
			 "cosmo_dispersion_energy": -23.45, 
			 "cosmo_repulsion_energy": 1.83, 
			 "cosmo_total_nonelectrostatic_energy": 9.8, 
			 "SMD_solvation_energy": 0.34 
		},
		"coords": [
			{
				"x": -1.6124266079,
				"y": 1.9968011859,
				"z": 3.9469512841,
				"element": "C" 
			},
			{
				"x": -1.6226352233,
				"y": 0.7808698225,
				"z": 3.0190789922,
				"element": "C" 
			},
			{
				"x": -0.2518829346,
				"y": 0.6318401349,
				"z": 2.2908196865,
				"element": "C" 
			},
			{
				"x": 0.3633828172,
				"y": 2.024987346,
				"z": 1.9907103158,
				"element": "C" 
			},
			{
				"x": -0.7322068562,
				"y": 3.0964680448,
				"z": 1.9125455916,
				"element": "C" 
			},
			{
				"x": -1.5203524203,
				"y": 3.2312187115,
				"z": 3.1529105648,
				"element": "N" 
			},
			{
				"x": -0.3958873031,
				"y": -0.2055803596,
				"z": 1.0475135945,
				"element": "C" 
			},
			{
				"x": -0.1664997753,
				"y": 0.1826873814,
				"z": -0.1842873735,
				"element": "N" 
			},
			{
				"x": -0.4555940648,
				"y": -0.9183629106,
				"z": -0.9813976639,
				"element": "C" 
			},
			{
				"x": -0.8755030817,
				"y": -2.0078802191,
				"z": -0.1810016148,
				"element": "C" 
			},
			{
				"x": -0.8278869741,
				"y": -1.5190427276,
				"z": 1.1141509992,
				"element": "N" 
			},
			{
				"x": -1.2270638891,
				"y": -3.2457606919,
				"z": -0.7207769667,
				"element": "C" 
			},
			{
				"x": -1.1485133523,
				"y": -3.3697417038,
				"z": -2.1069146015,
				"element": "C" 
			},
			{
				"x": -0.7335683529,
				"y": -2.2964402842,
				"z": -2.9195691382,
				"element": "C" 
			},
			{
				"x": -0.3837398336,
				"y": -1.0653005445,
				"z": -2.3716500297,
				"element": "C" 
			},
			{
				"x": -2.5337969541,
				"y": 2.020962143,
				"z": 4.5429932778,
				"element": "H" 
			},
			{
				"x": -0.7787820774,
				"y": 1.8778720071,
				"z": 4.6638607075,
				"element": "H" 
			},
			{
				"x": -1.8556474038,
				"y": -0.1234249629,
				"z": 3.5928199617,
				"element": "H" 
			},
			{
				"x": -2.4252317409,
				"y": 0.9068257542,
				"z": 2.2835543037,
				"element": "H" 
			},
			{
				"x": 0.4246077544,
				"y": 0.0940972701,
				"z": 2.9708256236,
				"element": "H" 
			},
			{
				"x": 1.068849476,
				"y": 2.2865469418,
				"z": 2.7882726101,
				"element": "H" 
			},
			{
				"x": 0.9210517644,
				"y": 1.9854759398,
				"z": 1.0520210622,
				"element": "H" 
			},
			{
				"x": -1.402582016,
				"y": 2.8501331505,
				"z": 1.0789625894,
				"element": "H" 
			},
			{
				"x": -0.2975970326,
				"y": 4.0726889486,
				"z": 1.6748231976,
				"element": "H" 
			},
			{
				"x": -1.1281665449,
				"y": 3.9696875358,
				"z": 3.7272907546,
				"element": "H" 
			},
			{
				"x": -1.0606373407,
				"y": -2.0242204494,
				"z": 1.9545884815,
				"element": "H" 
			},
			{
				"x": -1.5475149947,
				"y": -4.0756889146,
				"z": -0.0977590456,
				"element": "H" 
			},
			{
				"x": -1.4136993549,
				"y": -4.3156141192,
				"z": -2.5701007665,
				"element": "H" 
			},
			{
				"x": -0.6868302787,
				"y": -2.4364838234,
				"z": -3.9955221581,
				"element": "H" 
			},
			{
				"x": -0.063145404,
				"y": -0.2350206072,
				"z": -2.9927142397,
				"element": "H" 
			}
		],
		 "valence_orbital": [ 
			{
				"type": "occ",
				"energy": -0.29844,
				"method": "rhf"
			},
			{
				"type": "occ",
				"energy": -0.26476,
				"method": "rhf"
			},
			{
				"type": "occ",
				"energy": -0.22204,
				"method": "rhf"
			},
			{
				"type": "occ",
				"energy": -0.21694,
				"method": "rhf"
			},
			{
				"type": "occ",
				"energy": -0.20757,
				"method": "rhf"
			},
			{
				"type": "unocc",
				"energy": -0.00918,
				"method": "rhf"
			},
			{
				"type": "unocc",
				"energy": 0.02641,
				"method": "rhf"
			},
			{
				"type": "unocc",
				"energy": 0.0558,
				"method": "rhf"
			},
			{
				"type": "unocc",
				"energy": 0.06459,
				"method": "rhf"
			},
			{
				"type": "unocc",
				"energy": 0.08471,
				"method": "rhf"
			}
		],
		"cosmo_sigma_profile": { 
			"-0.025": 0.0,
			"-0.024": 0.0,
			"-0.023": 0.0,
			"-0.022": 0.0,
			"-0.021": 0.0,
			"-0.02": 0.0,
			"-0.019": 0.0,
			"-0.018": 0.0,
			"-0.017": 0.0,
			"-0.016": 0.566301528379,
			"-0.015": 1.3234939407,
			"-0.014": 1.32529665851,
			"-0.013": 0.855416096569,
			"-0.012": 1.47756921284,
			"-0.011": 1.74969772258,
			"-0.01": 1.86271535691,
			"-0.009": 3.194362968,
			"-0.008": 2.94799936791,
			"-0.007": 2.83494230427,
			"-0.006": 6.42389088632,
			"-0.005": 12.0433902475,
			"-0.004": 14.7334441314,
			"-0.003": 24.2611802198,
			"-0.002": 29.8788282438,
			"-0.001": 24.4275541073,
			"0.0": 19.897002384,
			"0.001": 14.1418089608,
			"0.002": 13.3516102872,
			"0.003": 10.7752668644,
			"0.004": 10.9655646349,
			"0.005": 12.8380685366,
			"0.006": 11.2649851405,
			"0.007": 6.08884943738,
			"0.008": 2.30321122855,
			"0.009": 2.72465206335,
			"0.01": 2.09071070274,
			"0.011": 1.69216516223,
			"0.012": 1.90792935234,
			"0.013": 1.67782862647,
			"0.014": 1.51959026734,
			"0.015": 0.988177484438,
			"0.016": 0.970917372146,
			"0.017": 0.82934278876,
			"0.018": 0.444684019057,
			"0.019": 0.424118773842,
			"0.02": 0.000984836114086,
			"0.021": 0.0,
			"0.022": 0.0,
			"0.023": 0.0,
			"0.024": 0.0,
			"0.025": 0.0
		}
	}
}
