{
	 "smiles": "OC(=O)C1CCCN1C(=O)C1CCCCC1", 
	 "Tm": 409.15, 
	 "num_atms": 35, 
	 "gaussian": { 
		 "optdone": 1, 
		 "sigma_profile": "yes", 
		 "theory": "DFT", 
		 "functional": "B3LYP", 
		 "basiset": "6-31G**", 
		 "properties": { 
			 "R2extent": 4139.8416, 
			 "electric_dipole_moment_norm": 3.52720193638, 
			 "electric_quadrupole_moment_norm": 10.1786746033, 
			 "total_energy": -749.190121714, 
			 "HOMO_LUMO_gap": 0.24469, 
			 "cosmo_polarized_energy": -14.87, 
			 "cosmo_cavitation_energy": 34.55, 
			 "cosmo_dispersion_energy": -24.5, 
			 "cosmo_repulsion_energy": 1.93, 
			 "cosmo_total_nonelectrostatic_energy": 11.98, 
			 "SMD_solvation_energy": 5.43 
		},
		"coords": [
			{
				"x": -2.5913265905,
				"y": 2.3214418901,
				"z": -1.8135276712,
				"element": "O" 
			},
			{
				"x": -1.8699894233,
				"y": 1.2762460834,
				"z": -1.3528344086,
				"element": "C" 
			},
			{
				"x": -1.5614689747,
				"y": 0.3289607731,
				"z": -2.0416896296,
				"element": "O" 
			},
			{
				"x": -1.5819771172,
				"y": 1.4211661404,
				"z": 0.1423438631,
				"element": "C" 
			},
			{
				"x": -2.6980706017,
				"y": 0.7650794393,
				"z": 0.9865965357,
				"element": "C" 
			},
			{
				"x": -2.2354235457,
				"y": -0.6967998779,
				"z": 1.0964919762,
				"element": "C" 
			},
			{
				"x": -0.7084694441,
				"y": -0.5798589342,
				"z": 1.234283974,
				"element": "C" 
			},
			{
				"x": -0.3931792799,
				"y": 0.6618366686,
				"z": 0.5112387433,
				"element": "N" 
			},
			{
				"x": 0.82246842,
				"y": 1.0777881188,
				"z": 0.0305072328,
				"element": "C" 
			},
			{
				"x": 0.8975228901,
				"y": 2.1214296785,
				"z": -0.6187157654,
				"element": "O" 
			},
			{
				"x": 2.0235458833,
				"y": 0.1777159093,
				"z": 0.3156759903,
				"element": "C" 
			},
			{
				"x": 3.3446909109,
				"y": 0.9738046953,
				"z": 0.3373818446,
				"element": "C" 
			},
			{
				"x": 3.803049757,
				"y": 1.5087644762,
				"z": -1.0395271146,
				"element": "C" 
			},
			{
				"x": 3.3653349864,
				"y": 0.5956886761,
				"z": -2.2063832994,
				"element": "C" 
			},
			{
				"x": 3.2215764874,
				"y": -0.8588610563,
				"z": -1.7441622398,
				"element": "C" 
			},
			{
				"x": 2.0722574113,
				"y": -0.9987122503,
				"z": -0.7262784637,
				"element": "C" 
			},
			{
				"x": -2.7589673061,
				"y": 2.1447962049,
				"z": -2.7546359406,
				"element": "H" 
			},
			{
				"x": -1.453780861,
				"y": 2.4833885003,
				"z": 0.3599448448,
				"element": "H" 
			},
			{
				"x": -3.6870751438,
				"y": 0.8789853492,
				"z": 0.5357675477,
				"element": "H" 
			},
			{
				"x": -2.7229751478,
				"y": 1.2403254632,
				"z": 1.9729794978,
				"element": "H" 
			},
			{
				"x": -2.479817513,
				"y": -1.2342982768,
				"z": 0.1755445702,
				"element": "H" 
			},
			{
				"x": -2.6897439812,
				"y": -1.2297741828,
				"z": 1.9358574801,
				"element": "H" 
			},
			{
				"x": -0.4093031794,
				"y": -0.500670301,
				"z": 2.2890139313,
				"element": "H" 
			},
			{
				"x": -0.192746967,
				"y": -1.4395753624,
				"z": 0.799778411,
				"element": "H" 
			},
			{
				"x": 1.8829296963,
				"y": -0.2535152717,
				"z": 1.3136156059,
				"element": "H" 
			},
			{
				"x": 4.1108486919,
				"y": 0.298032199,
				"z": 0.7374219767,
				"element": "H" 
			},
			{
				"x": 3.2639482116,
				"y": 1.7997350973,
				"z": 1.0521476815,
				"element": "H" 
			},
			{
				"x": 4.8970303318,
				"y": 1.5943622481,
				"z": -1.0251480621,
				"element": "H" 
			},
			{
				"x": 3.4009763868,
				"y": 2.511322882,
				"z": -1.1957392082,
				"element": "H" 
			},
			{
				"x": 2.3977279225,
				"y": 0.9398482895,
				"z": -2.589626183,
				"element": "H" 
			},
			{
				"x": 4.0789173787,
				"y": 0.6689468089,
				"z": -3.0350031183,
				"element": "H" 
			},
			{
				"x": 4.1659070635,
				"y": -1.1978435594,
				"z": -1.2969664837,
				"element": "H" 
			},
			{
				"x": 3.0287358975,
				"y": -1.5234634793,
				"z": -2.5942924615,
				"element": "H" 
			},
			{
				"x": 1.1228591713,
				"y": -1.0348303709,
				"z": -1.2735685663,
				"element": "H" 
			},
			{
				"x": 2.1634875782,
				"y": -1.9541626683,
				"z": -0.1966930911,
				"element": "H" 
			}
		],
		 "valence_orbital": [ 
			{
				"type": "occ",
				"energy": -0.29062,
				"method": "rhf"
			},
			{
				"type": "occ",
				"energy": -0.28968,
				"method": "rhf"
			},
			{
				"type": "occ",
				"energy": -0.27526,
				"method": "rhf"
			},
			{
				"type": "occ",
				"energy": -0.23921,
				"method": "rhf"
			},
			{
				"type": "occ",
				"energy": -0.23642,
				"method": "rhf"
			},
			{
				"type": "unocc",
				"energy": 0.00827,
				"method": "rhf"
			},
			{
				"type": "unocc",
				"energy": 0.02706,
				"method": "rhf"
			},
			{
				"type": "unocc",
				"energy": 0.07185,
				"method": "rhf"
			},
			{
				"type": "unocc",
				"energy": 0.08023,
				"method": "rhf"
			},
			{
				"type": "unocc",
				"energy": 0.09156,
				"method": "rhf"
			}
		],
		"cosmo_sigma_profile": { 
			"-0.025": 0.0,
			"-0.024": 0.0,
			"-0.023": 0.0,
			"-0.022": 0.0,
			"-0.021": 0.0,
			"-0.02": 0.0,
			"-0.019": 0.188278334479,
			"-0.018": 0.678995014323,
			"-0.017": 1.02438892121,
			"-0.016": 0.7435052856,
			"-0.015": 1.28331217839,
			"-0.014": 0.574348525536,
			"-0.013": 0.709449609273,
			"-0.012": 0.136186861185,
			"-0.011": 0.747274656434,
			"-0.01": 0.770864890392,
			"-0.009": 0.490808367263,
			"-0.008": 0.84816363979,
			"-0.007": 1.00674062577,
			"-0.006": 2.21967590333,
			"-0.005": 11.9570296343,
			"-0.004": 24.303544414,
			"-0.003": 28.4938756438,
			"-0.002": 34.7703309014,
			"-0.001": 34.3518021049,
			"0.0": 29.5851551809,
			"0.001": 22.8271046603,
			"0.002": 13.1688824486,
			"0.003": 6.3963964996,
			"0.004": 5.26728833706,
			"0.005": 6.16715589754,
			"0.006": 4.81025253733,
			"0.007": 5.69931002163,
			"0.008": 6.51974387471,
			"0.009": 4.00554824379,
			"0.01": 3.43452455408,
			"0.011": 5.28630968018,
			"0.012": 3.93861537329,
			"0.013": 2.2696029445,
			"0.014": 2.27635052538,
			"0.015": 0.0211491466389,
			"0.016": 0.0,
			"0.017": 0.0,
			"0.018": 0.0,
			"0.019": 0.0,
			"0.02": 0.0,
			"0.021": 0.0,
			"0.022": 0.0,
			"0.023": 0.0,
			"0.024": 0.0,
			"0.025": 0.0
		}
	}
}
