{
	 "smiles": "N#CC1=CC2=CC=CC=C2C=N1", 
	 "Tm": 400.15, 
	 "num_atms": 18, 
	 "gaussian": { 
		 "optdone": 1, 
		 "sigma_profile": "yes", 
		 "theory": "DFT", 
		 "functional": "B3LYP", 
		 "basiset": "6-31G**", 
		 "properties": { 
			 "R2extent": 3007.5951, 
			 "electric_dipole_moment_norm": 6.8511769602, 
			 "electric_quadrupole_moment_norm": 24.3252008123, 
			 "total_energy": -494.167121416, 
			 "HOMO_LUMO_gap": 0.17179, 
			 "cosmo_polarized_energy": -12.11, 
			 "cosmo_cavitation_energy": 23.66, 
			 "cosmo_dispersion_energy": -17.09, 
			 "cosmo_repulsion_energy": 1.33, 
			 "cosmo_total_nonelectrostatic_energy": 7.9, 
			 "SMD_solvation_energy": 3.83 
		},
		"coords": [
			{
				"x": 4.8247432647,
				"y": -2.2958847409,
				"z": -1.5102948183,
				"element": "N" 
			},
			{
				"x": 3.6956563677,
				"y": -2.0233789427,
				"z": -1.4634291484,
				"element": "C" 
			},
			{
				"x": 2.2938488072,
				"y": -1.6998786501,
				"z": -1.3692952114,
				"element": "C" 
			},
			{
				"x": 1.6005396297,
				"y": -1.9878976637,
				"z": -0.2083780196,
				"element": "C" 
			},
			{
				"x": 0.2235800251,
				"y": -1.6646026909,
				"z": -0.1298474878,
				"element": "C" 
			},
			{
				"x": -0.5776540217,
				"y": -1.9182018939,
				"z": 1.014564165,
				"element": "C" 
			},
			{
				"x": -1.9114084676,
				"y": -1.5740353189,
				"z": 1.013354562,
				"element": "C" 
			},
			{
				"x": -2.5021871513,
				"y": -0.9651747726,
				"z": -0.1224773619,
				"element": "C" 
			},
			{
				"x": -1.7479084089,
				"y": -0.7077557967,
				"z": -1.2462595078,
				"element": "C" 
			},
			{
				"x": -0.3734028989,
				"y": -1.0510578723,
				"z": -1.2733698623,
				"element": "C" 
			},
			{
				"x": 0.4584241173,
				"y": -0.8106562603,
				"z": -2.4045559334,
				"element": "C" 
			},
			{
				"x": 1.7348432052,
				"y": -1.1130259354,
				"z": -2.4706648818,
				"element": "N" 
			},
			{
				"x": 2.1058796631,
				"y": -2.4554563704,
				"z": 0.6306645109,
				"element": "H" 
			},
			{
				"x": -0.1253561964,
				"y": -2.3847314939,
				"z": 1.8850937514,
				"element": "H" 
			},
			{
				"x": -2.5213321025,
				"y": -1.7694229497,
				"z": 1.8903271449,
				"element": "H" 
			},
			{
				"x": -3.5554339192,
				"y": -0.7025553026,
				"z": -0.1005793976,
				"element": "H" 
			},
			{
				"x": -2.1940336909,
				"y": -0.2413178286,
				"z": -2.1204524237,
				"element": "H" 
			},
			{
				"x": 0.0238017774,
				"y": -0.3432655165,
				"z": -3.2885000803,
				"element": "H" 
			}
		],
		 "valence_orbital": [ 
			{
				"type": "occ",
				"energy": -0.33244,
				"method": "rhf"
			},
			{
				"type": "occ",
				"energy": -0.31446,
				"method": "rhf"
			},
			{
				"type": "occ",
				"energy": -0.28163,
				"method": "rhf"
			},
			{
				"type": "occ",
				"energy": -0.27956,
				"method": "rhf"
			},
			{
				"type": "occ",
				"energy": -0.2487,
				"method": "rhf"
			},
			{
				"type": "unocc",
				"energy": -0.07691,
				"method": "rhf"
			},
			{
				"type": "unocc",
				"energy": -0.05801,
				"method": "rhf"
			},
			{
				"type": "unocc",
				"energy": -0.0003,
				"method": "rhf"
			},
			{
				"type": "unocc",
				"energy": 0.03681,
				"method": "rhf"
			},
			{
				"type": "unocc",
				"energy": 0.03862,
				"method": "rhf"
			}
		],
		"cosmo_sigma_profile": { 
			"-0.025": 0.0,
			"-0.024": 0.0,
			"-0.023": 0.0,
			"-0.022": 0.0,
			"-0.021": 0.0,
			"-0.02": 0.0,
			"-0.019": 0.0,
			"-0.018": 0.0,
			"-0.017": 0.0,
			"-0.016": 0.0,
			"-0.015": 0.0,
			"-0.014": 0.0,
			"-0.013": 0.0,
			"-0.012": 0.0,
			"-0.011": 0.0,
			"-0.01": 0.0,
			"-0.009": 1.65502926213,
			"-0.008": 7.07210168946,
			"-0.007": 12.4568094645,
			"-0.006": 12.4112426626,
			"-0.005": 12.3315604101,
			"-0.004": 8.70757763285,
			"-0.003": 8.8102151252,
			"-0.002": 13.6993717527,
			"-0.001": 15.802300129,
			"0.0": 19.6081314299,
			"0.001": 15.3513044554,
			"0.002": 13.6658474917,
			"0.003": 11.658644196,
			"0.004": 4.68893948294,
			"0.005": 4.27776622958,
			"0.006": 4.46100389417,
			"0.007": 3.46344158526,
			"0.008": 5.28832712218,
			"0.009": 3.4850546052,
			"0.01": 4.1799004458,
			"0.011": 3.574855499,
			"0.012": 3.42163096542,
			"0.013": 1.65049829288,
			"0.014": 0.550528763064,
			"0.015": 0.210454927979,
			"0.016": 0.0,
			"0.017": 0.0,
			"0.018": 0.0,
			"0.019": 0.0,
			"0.02": 0.0,
			"0.021": 0.0,
			"0.022": 0.0,
			"0.023": 0.0,
			"0.024": 0.0,
			"0.025": 0.0
		}
	}
}
