{
	 "smiles": "CC1=C(C2=CC=CC=C2C1=NNC(N)=O)C1=CC=CC=C1", 
	 "Tm": 473.15, 
	 "num_atms": 36, 
	 "gaussian": { 
		 "optdone": 1, 
		 "sigma_profile": "yes", 
		 "theory": "DFT", 
		 "functional": "B3LYP", 
		 "basiset": "6-31G**", 
		 "properties": { 
			 "R2extent": 6593.6059, 
			 "electric_dipole_moment_norm": 3.23781478933, 
			 "electric_quadrupole_moment_norm": 28.6351918773, 
			 "total_energy": -896.311317351, 
			 "HOMO_LUMO_gap": 0.13281, 
			 "cosmo_polarized_energy": -19.78, 
			 "cosmo_cavitation_energy": 39.47, 
			 "cosmo_dispersion_energy": -27.99, 
			 "cosmo_repulsion_energy": 2.14, 
			 "cosmo_total_nonelectrostatic_energy": 13.63, 
			 "SMD_solvation_energy": 6.21 
		},
		"coords": [
			{
				"x": 0.6606889268,
				"y": 1.0948759737,
				"z": 1.8690458602,
				"element": "C" 
			},
			{
				"x": -0.1265541618,
				"y": 0.5057885574,
				"z": 0.7363861141,
				"element": "C" 
			},
			{
				"x": 0.3821435332,
				"y": 0.0544001231,
				"z": -0.4531139729,
				"element": "C" 
			},
			{
				"x": -0.724230778,
				"y": -0.292082129,
				"z": -1.3780442772,
				"element": "C" 
			},
			{
				"x": -0.7311732795,
				"y": -0.8321730691,
				"z": -2.6603476201,
				"element": "C" 
			},
			{
				"x": -1.967248163,
				"y": -1.0524488183,
				"z": -3.288368597,
				"element": "C" 
			},
			{
				"x": -3.1675083494,
				"y": -0.7512966735,
				"z": -2.6415008425,
				"element": "C" 
			},
			{
				"x": -3.1609396994,
				"y": -0.230076442,
				"z": -1.3387459353,
				"element": "C" 
			},
			{
				"x": -1.9378717008,
				"y": -0.0022663243,
				"z": -0.7284849367,
				"element": "C" 
			},
			{
				"x": -1.6120222667,
				"y": 0.4910859758,
				"z": 0.6316579969,
				"element": "C" 
			},
			{
				"x": -2.5880383797,
				"y": 0.854721697,
				"z": 1.3963107514,
				"element": "N" 
			},
			{
				"x": -2.3289715225,
				"y": 1.2113303092,
				"z": 2.7197651851,
				"element": "N" 
			},
			{
				"x": -1.8502389029,
				"y": 0.2485067645,
				"z": 3.6338183353,
				"element": "C" 
			},
			{
				"x": -2.0350847608,
				"y": 0.620261876,
				"z": 4.9488511131,
				"element": "N" 
			},
			{
				"x": -1.2764127937,
				"y": -0.7751248347,
				"z": 3.3076978852,
				"element": "O" 
			},
			{
				"x": 1.8076817628,
				"y": -0.0551227041,
				"z": -0.8187943675,
				"element": "C" 
			},
			{
				"x": 2.7314355319,
				"y": -0.6742169609,
				"z": 0.0420685205,
				"element": "C" 
			},
			{
				"x": 4.0771397993,
				"y": -0.7772512312,
				"z": -0.3084754971,
				"element": "C" 
			},
			{
				"x": 4.5284092081,
				"y": -0.2629775056,
				"z": -1.5255377304,
				"element": "C" 
			},
			{
				"x": 3.6225444493,
				"y": 0.3528290066,
				"z": -2.3919574198,
				"element": "C" 
			},
			{
				"x": 2.2758114182,
				"y": 0.4514779575,
				"z": -2.045581309,
				"element": "C" 
			},
			{
				"x": 1.6620801881,
				"y": 1.3757397959,
				"z": 1.534189797,
				"element": "H" 
			},
			{
				"x": 0.7591670764,
				"y": 0.3889570245,
				"z": 2.6987870289,
				"element": "H" 
			},
			{
				"x": 0.1635937699,
				"y": 1.9866055455,
				"z": 2.2626084117,
				"element": "H" 
			},
			{
				"x": 0.194508631,
				"y": -1.0872010358,
				"z": -3.1665188573,
				"element": "H" 
			},
			{
				"x": -1.9881014498,
				"y": -1.4702684921,
				"z": -4.2911190657,
				"element": "H" 
			},
			{
				"x": -4.1123363171,
				"y": -0.9302546293,
				"z": -3.1464512306,
				"element": "H" 
			},
			{
				"x": -4.0846421687,
				"y": -0.0105895105,
				"z": -0.8126664098,
				"element": "H" 
			},
			{
				"x": -3.1362884614,
				"y": 1.7177419291,
				"z": 3.064695064,
				"element": "H" 
			},
			{
				"x": -1.8557851934,
				"y": -0.105797972,
				"z": 5.6245628346,
				"element": "H" 
			},
			{
				"x": -2.6830977683,
				"y": 1.3447869163,
				"z": 5.2157771269,
				"element": "H" 
			},
			{
				"x": 2.381324951,
				"y": -1.0943321392,
				"z": 0.9796981236,
				"element": "H" 
			},
			{
				"x": 4.7729312877,
				"y": -1.2655275893,
				"z": 0.3681015867,
				"element": "H" 
			},
			{
				"x": 5.5767853958,
				"y": -0.3436865207,
				"z": -1.7981457986,
				"element": "H" 
			},
			{
				"x": 3.965475405,
				"y": 0.7594491193,
				"z": -3.339293538,
				"element": "H" 
			},
			{
				"x": 1.5796247823,
				"y": 0.9427360103,
				"z": -2.7183743296,
				"element": "H" 
			}
		],
		 "valence_orbital": [ 
			{
				"type": "occ",
				"energy": -0.24979,
				"method": "rhf"
			},
			{
				"type": "occ",
				"energy": -0.24788,
				"method": "rhf"
			},
			{
				"type": "occ",
				"energy": -0.24415,
				"method": "rhf"
			},
			{
				"type": "occ",
				"energy": -0.21888,
				"method": "rhf"
			},
			{
				"type": "occ",
				"energy": -0.19977,
				"method": "rhf"
			},
			{
				"type": "unocc",
				"energy": -0.06696,
				"method": "rhf"
			},
			{
				"type": "unocc",
				"energy": -0.00263,
				"method": "rhf"
			},
			{
				"type": "unocc",
				"energy": -3e-05,
				"method": "rhf"
			},
			{
				"type": "unocc",
				"energy": 0.0014,
				"method": "rhf"
			},
			{
				"type": "unocc",
				"energy": 0.03664,
				"method": "rhf"
			}
		],
		"cosmo_sigma_profile": { 
			"-0.025": 0.0,
			"-0.024": 0.0,
			"-0.023": 0.0,
			"-0.022": 0.0,
			"-0.021": 0.0,
			"-0.02": 0.0,
			"-0.019": 0.0,
			"-0.018": 0.310977566096,
			"-0.017": 1.17255860419,
			"-0.016": 1.96482603293,
			"-0.015": 2.08328041047,
			"-0.014": 2.86319203252,
			"-0.013": 2.78286943549,
			"-0.012": 2.75597901934,
			"-0.011": 3.08908620862,
			"-0.01": 2.01481562533,
			"-0.009": 2.58957160028,
			"-0.008": 1.70776627247,
			"-0.007": 1.79051429413,
			"-0.006": 8.72617432502,
			"-0.005": 19.2538138375,
			"-0.004": 20.7055698211,
			"-0.003": 24.3530121512,
			"-0.002": 20.9226700508,
			"-0.001": 21.443236977,
			"0.0": 22.4458440439,
			"0.001": 23.2191554114,
			"0.002": 23.4584868683,
			"0.003": 24.5212784589,
			"0.004": 23.4467392834,
			"0.005": 23.6372253275,
			"0.006": 9.24094116875,
			"0.007": 3.1212271726,
			"0.008": 3.91699936669,
			"0.009": 3.28467707391,
			"0.01": 2.90425722161,
			"0.011": 2.38351657676,
			"0.012": 2.60047654572,
			"0.013": 4.1109836559,
			"0.014": 2.25318478207,
			"0.015": 0.0174203341021,
			"0.016": 0.0,
			"0.017": 0.0,
			"0.018": 0.0,
			"0.019": 0.0,
			"0.02": 0.0,
			"0.021": 0.0,
			"0.022": 0.0,
			"0.023": 0.0,
			"0.024": 0.0,
			"0.025": 0.0
		}
	}
}
