{
	 "smiles": "OC(=O)C1=C(SCC2=CC=C(F)C=C2)N=CC=C1", 
	 "Tm": 465.15, 
	 "num_atms": 28, 
	 "gaussian": { 
		 "optdone": 1, 
		 "sigma_profile": "yes", 
		 "theory": "DFT", 
		 "functional": "B3LYP", 
		 "basiset": "6-31G**", 
		 "properties": { 
			 "R2extent": 5749.8316, 
			 "electric_dipole_moment_norm": 4.67343989905, 
			 "electric_quadrupole_moment_norm": 24.6222325681, 
			 "total_energy": -1204.6381377, 
			 "HOMO_LUMO_gap": 0.178, 
			 "cosmo_polarized_energy": -13.55, 
			 "cosmo_cavitation_energy": 34.81, 
			 "cosmo_dispersion_energy": -24.64, 
			 "cosmo_repulsion_energy": 1.83, 
			 "cosmo_total_nonelectrostatic_energy": 12.0, 
			 "SMD_solvation_energy": 6.77 
		},
		"coords": [
			{
				"x": 0.4746206198,
				"y": 1.1496585322,
				"z": 3.3354145861,
				"element": "O" 
			},
			{
				"x": 1.6860875749,
				"y": 1.4620307686,
				"z": 2.8466871673,
				"element": "C" 
			},
			{
				"x": 2.2972100985,
				"y": 2.4097801878,
				"z": 3.2891537747,
				"element": "O" 
			},
			{
				"x": 2.2531963643,
				"y": 0.641437544,
				"z": 1.706471806,
				"element": "C" 
			},
			{
				"x": 1.8421809267,
				"y": -0.6335566285,
				"z": 1.2520103992,
				"element": "C" 
			},
			{
				"x": 0.6197987027,
				"y": -1.5963461636,
				"z": 2.1583806073,
				"element": "S" 
			},
			{
				"x": -0.1557836896,
				"y": -2.612756915,
				"z": 0.8130768875,
				"element": "C" 
			},
			{
				"x": -1.1658173519,
				"y": -1.8834617528,
				"z": -0.0300641041,
				"element": "C" 
			},
			{
				"x": -2.4856225705,
				"y": -1.7151826248,
				"z": 0.4144288158,
				"element": "C" 
			},
			{
				"x": -3.4265714417,
				"y": -1.0427263863,
				"z": -0.362112068,
				"element": "C" 
			},
			{
				"x": -3.032201866,
				"y": -0.536599786,
				"z": -1.5966625579,
				"element": "C" 
			},
			{
				"x": -3.9374927804,
				"y": 0.1130066872,
				"z": -2.3558108745,
				"element": "F" 
			},
			{
				"x": -1.7345515522,
				"y": -0.6854961959,
				"z": -2.0712735059,
				"element": "C" 
			},
			{
				"x": -0.8055361473,
				"y": -1.361710497,
				"z": -1.2804839874,
				"element": "C" 
			},
			{
				"x": 2.3774390585,
				"y": -1.2295277067,
				"z": 0.1839372238,
				"element": "N" 
			},
			{
				"x": 3.3589257492,
				"y": -0.6101021515,
				"z": -0.4784417858,
				"element": "C" 
			},
			{
				"x": 3.879573277,
				"y": 0.6228351526,
				"z": -0.0901425408,
				"element": "C" 
			},
			{
				"x": 3.3123973511,
				"y": 1.2453233671,
				"z": 1.0144679361,
				"element": "C" 
			},
			{
				"x": 0.0893702361,
				"y": 0.3735613154,
				"z": 2.8797449557,
				"element": "H" 
			},
			{
				"x": 0.6750325517,
				"y": -2.9979473083,
				"z": 0.2213499703,
				"element": "H" 
			},
			{
				"x": -0.6092953142,
				"y": -3.4397738862,
				"z": 1.3657575954,
				"element": "H" 
			},
			{
				"x": -2.783211858,
				"y": -2.1147666992,
				"z": 1.3805487341,
				"element": "H" 
			},
			{
				"x": -4.4504621507,
				"y": -0.9096636512,
				"z": -0.0302220517,
				"element": "H" 
			},
			{
				"x": -1.469022361,
				"y": -0.2801353044,
				"z": -3.04161341,
				"element": "H" 
			},
			{
				"x": 0.2128876518,
				"y": -1.4859058227,
				"z": -1.6346762375,
				"element": "H" 
			},
			{
				"x": 3.7480769533,
				"y": -1.1326802611,
				"z": -1.3500412613,
				"element": "H" 
			},
			{
				"x": 4.6935775441,
				"y": 1.0804639281,
				"z": -0.6417617095,
				"element": "H" 
			},
			{
				"x": 3.6557944237,
				"y": 2.2112422584,
				"z": 1.3684756351,
				"element": "H" 
			}
		],
		 "valence_orbital": [ 
			{
				"type": "occ",
				"energy": -0.29041,
				"method": "rhf"
			},
			{
				"type": "occ",
				"energy": -0.27063,
				"method": "rhf"
			},
			{
				"type": "occ",
				"energy": -0.26967,
				"method": "rhf"
			},
			{
				"type": "occ",
				"energy": -0.2569,
				"method": "rhf"
			},
			{
				"type": "occ",
				"energy": -0.24226,
				"method": "rhf"
			},
			{
				"type": "unocc",
				"energy": -0.06426,
				"method": "rhf"
			},
			{
				"type": "unocc",
				"energy": -0.04989,
				"method": "rhf"
			},
			{
				"type": "unocc",
				"energy": -0.0236,
				"method": "rhf"
			},
			{
				"type": "unocc",
				"energy": -0.01751,
				"method": "rhf"
			},
			{
				"type": "unocc",
				"energy": 0.02459,
				"method": "rhf"
			}
		],
		"cosmo_sigma_profile": { 
			"-0.025": 0.0,
			"-0.024": 0.0,
			"-0.023": 0.0,
			"-0.022": 0.0,
			"-0.021": 0.0,
			"-0.02": 0.0,
			"-0.019": 0.0,
			"-0.018": 0.0,
			"-0.017": 0.0,
			"-0.016": 0.0,
			"-0.015": 0.0,
			"-0.014": 0.0,
			"-0.013": 0.0,
			"-0.012": 0.0,
			"-0.011": 0.0149333165689,
			"-0.01": 0.368708031701,
			"-0.009": 1.42120369042,
			"-0.008": 6.01213090996,
			"-0.007": 15.6610577939,
			"-0.006": 17.4273436882,
			"-0.005": 15.9853076033,
			"-0.004": 18.1805614141,
			"-0.003": 17.5485724446,
			"-0.002": 16.5897373901,
			"-0.001": 20.7621239198,
			"0.0": 27.4138907577,
			"0.001": 26.8995247378,
			"0.002": 16.3728680144,
			"0.003": 18.5587786201,
			"0.004": 22.120752192,
			"0.005": 9.16581291393,
			"0.006": 5.34121338318,
			"0.007": 3.88671617255,
			"0.008": 2.8382619806,
			"0.009": 3.8758336254,
			"0.01": 5.2543475103,
			"0.011": 5.0811259403,
			"0.012": 3.68852609244,
			"0.013": 1.39686725175,
			"0.014": 0.00680330474702,
			"0.015": 0.0,
			"0.016": 0.0,
			"0.017": 0.0,
			"0.018": 0.0,
			"0.019": 0.0,
			"0.02": 0.0,
			"0.021": 0.0,
			"0.022": 0.0,
			"0.023": 0.0,
			"0.024": 0.0,
			"0.025": 0.0
		}
	}
}
