{
	 "smiles": "BrC1=C(C=NC=C1)C#N", 
	 "Tm": 394.15, 
	 "num_atms": 12, 
	 "gaussian": { 
		 "optdone": 1, 
		 "sigma_profile": "yes", 
		 "theory": "DFT", 
		 "functional": "B3LYP", 
		 "basiset": "6-31G**", 
		 "properties": { 
			 "R2extent": 2265.7997, 
			 "electric_dipole_moment_norm": 3.80729354135, 
			 "electric_quadrupole_moment_norm": 9.33473936808, 
			 "total_energy": -2911.3210525, 
			 "HOMO_LUMO_gap": 0.20837, 
			 "cosmo_polarized_energy": -9.29, 
			 "cosmo_cavitation_energy": 20.15, 
			 "cosmo_dispersion_energy": -14.78, 
			 "cosmo_repulsion_energy": 1.21, 
			 "cosmo_total_nonelectrostatic_energy": 6.58, 
			 "SMD_solvation_energy": 2.41 
		},
		"coords": [
			{
				"x": -2.8557461647,
				"y": 0.9256967138,
				"z": -0.7055979685,
				"element": "Br" 
			},
			{
				"x": -1.4902351738,
				"y": -0.293156349,
				"z": -0.2246274068,
				"element": "C" 
			},
			{
				"x": -0.2828837135,
				"y": -0.347137234,
				"z": -0.9422374294,
				"element": "C" 
			},
			{
				"x": 0.683200386,
				"y": -1.2827516631,
				"z": -0.5204432352,
				"element": "C" 
			},
			{
				"x": 0.5189270233,
				"y": -2.1101937902,
				"z": 0.5088468251,
				"element": "N" 
			},
			{
				"x": -0.6409560245,
				"y": -2.0372751537,
				"z": 1.1747587667,
				"element": "C" 
			},
			{
				"x": -1.6719255277,
				"y": -1.1536439351,
				"z": 0.8528252064,
				"element": "C" 
			},
			{
				"x": -0.0035507858,
				"y": 0.4955988563,
				"z": -2.0628302607,
				"element": "C" 
			},
			{
				"x": 0.2652753293,
				"y": 1.1605094486,
				"z": -2.9781660623,
				"element": "N" 
			},
			{
				"x": 1.6258691362,
				"y": -1.3442354961,
				"z": -1.059181649,
				"element": "H" 
			},
			{
				"x": -0.7591496843,
				"y": -2.7203071262,
				"z": 2.0131853475,
				"element": "H" 
			},
			{
				"x": -2.5906248005,
				"y": -1.1375042713,
				"z": 1.4266678662,
				"element": "H" 
			}
		],
		 "valence_orbital": [ 
			{
				"type": "occ",
				"energy": -0.35149,
				"method": "rhf"
			},
			{
				"type": "occ",
				"energy": -0.31426,
				"method": "rhf"
			},
			{
				"type": "occ",
				"energy": -0.29365,
				"method": "rhf"
			},
			{
				"type": "occ",
				"energy": -0.28836,
				"method": "rhf"
			},
			{
				"type": "occ",
				"energy": -0.28598,
				"method": "rhf"
			},
			{
				"type": "unocc",
				"energy": -0.07761,
				"method": "rhf"
			},
			{
				"type": "unocc",
				"energy": -0.0565,
				"method": "rhf"
			},
			{
				"type": "unocc",
				"energy": -0.02175,
				"method": "rhf"
			},
			{
				"type": "unocc",
				"energy": 0.01889,
				"method": "rhf"
			},
			{
				"type": "unocc",
				"energy": 0.0527,
				"method": "rhf"
			}
		],
		"cosmo_sigma_profile": { 
			"-0.025": 0.0,
			"-0.024": 0.0,
			"-0.023": 0.0,
			"-0.022": 0.0,
			"-0.021": 0.0,
			"-0.02": 0.0,
			"-0.019": 0.0,
			"-0.018": 0.0,
			"-0.017": 0.0,
			"-0.016": 0.0,
			"-0.015": 0.0,
			"-0.014": 0.0,
			"-0.013": 0.0,
			"-0.012": 0.0,
			"-0.011": 0.0,
			"-0.01": 0.319117147271,
			"-0.009": 5.10760704155,
			"-0.008": 7.39586947806,
			"-0.007": 6.01744277161,
			"-0.006": 6.43828945033,
			"-0.005": 6.66364393751,
			"-0.004": 10.2798332049,
			"-0.003": 16.0970519559,
			"-0.002": 15.8782972654,
			"-0.001": 15.7473427034,
			"0.0": 9.41720649254,
			"0.001": 9.37080588693,
			"0.002": 13.340718444,
			"0.003": 9.03460553282,
			"0.004": 3.77417420431,
			"0.005": 4.06060150293,
			"0.006": 4.85198916651,
			"0.007": 3.82969245054,
			"0.008": 4.27163665676,
			"0.009": 3.89215419653,
			"0.01": 4.0124324324,
			"0.011": 2.86782089114,
			"0.012": 2.63989892173,
			"0.013": 1.29190785575,
			"0.014": 0.576115907892,
			"0.015": 0.358305737312,
			"0.016": 0.0,
			"0.017": 0.0,
			"0.018": 0.0,
			"0.019": 0.0,
			"0.02": 0.0,
			"0.021": 0.0,
			"0.022": 0.0,
			"0.023": 0.0,
			"0.024": 0.0,
			"0.025": 0.0
		}
	}
}
