{
	 "smiles": "[O-][N+](=O)C1=CC=C(C=C1)N1C=CC=C1C=O", 
	 "Tm": 441.15, 
	 "num_atms": 24, 
	 "gaussian": { 
		 "optdone": 1, 
		 "sigma_profile": "yes", 
		 "theory": "DFT", 
		 "functional": "B3LYP", 
		 "basiset": "6-31G**", 
		 "properties": { 
			 "R2extent": 4477.6446, 
			 "electric_dipole_moment_norm": 4.09314441597, 
			 "electric_quadrupole_moment_norm": 21.2358235781, 
			 "total_energy": -759.041309828, 
			 "HOMO_LUMO_gap": 0.13996, 
			 "cosmo_polarized_energy": -15.46, 
			 "cosmo_cavitation_energy": 30.03, 
			 "cosmo_dispersion_energy": -21.39, 
			 "cosmo_repulsion_energy": 1.64, 
			 "cosmo_total_nonelectrostatic_energy": 10.27, 
			 "SMD_solvation_energy": 8.8 
		},
		"coords": [
			{
				"x": 2.2217874729,
				"y": 4.2282137825,
				"z": -0.6588388887,
				"element": "O" 
			},
			{
				"x": 1.3438475955,
				"y": 3.934708987,
				"z": 0.1511334038,
				"element": "N" 
			},
			{
				"x": 0.8674780416,
				"y": 4.7042306409,
				"z": 0.984487736,
				"element": "O" 
			},
			{
				"x": 0.8246327534,
				"y": 2.5586783903,
				"z": 0.121987894,
				"element": "C" 
			},
			{
				"x": -0.1770860006,
				"y": 2.1952133026,
				"z": 1.0197508503,
				"element": "C" 
			},
			{
				"x": -0.6704663954,
				"y": 0.8957453275,
				"z": 0.9848069948,
				"element": "C" 
			},
			{
				"x": -0.1517866302,
				"y": -0.0291317647,
				"z": 0.0669691515,
				"element": "C" 
			},
			{
				"x": 0.8656928945,
				"y": 0.3534609386,
				"z": -0.8198767544,
				"element": "C" 
			},
			{
				"x": 1.351271457,
				"y": 1.6563105595,
				"z": -0.8002842847,
				"element": "C" 
			},
			{
				"x": -0.6414372713,
				"y": -1.3609370872,
				"z": 0.070795534,
				"element": "N" 
			},
			{
				"x": -0.7632405681,
				"y": -2.1283627015,
				"z": 1.2060958441,
				"element": "C" 
			},
			{
				"x": -1.2022705934,
				"y": -3.3897756383,
				"z": 0.8503248231,
				"element": "C" 
			},
			{
				"x": -1.3603729961,
				"y": -3.3975331111,
				"z": -0.5516155682,
				"element": "C" 
			},
			{
				"x": -1.0122539339,
				"y": -2.1422365559,
				"z": -1.033300703,
				"element": "C" 
			},
			{
				"x": -1.1529174051,
				"y": -1.6463674913,
				"z": -2.3966044486,
				"element": "C" 
			},
			{
				"x": -1.460868182,
				"y": -2.3609983449,
				"z": -3.3376425638,
				"element": "O" 
			},
			{
				"x": -0.5625617026,
				"y": 2.9307217052,
				"z": 1.7144581944,
				"element": "H" 
			},
			{
				"x": -1.4721098265,
				"y": 0.5967932898,
				"z": 1.6513284469,
				"element": "H" 
			},
			{
				"x": 1.2885436534,
				"y": -0.3757619245,
				"z": -1.5015894702,
				"element": "H" 
			},
			{
				"x": 2.1378881075,
				"y": 1.977919481,
				"z": -1.4710937755,
				"element": "H" 
			},
			{
				"x": -0.4803971999,
				"y": -1.7268800853,
				"z": 2.1680727731,
				"element": "H" 
			},
			{
				"x": -1.3788330534,
				"y": -4.2086912533,
				"z": 1.5329643454,
				"element": "H" 
			},
			{
				"x": -1.7159937328,
				"y": -4.2035416068,
				"z": -1.1769556369,
				"element": "H" 
			},
			{
				"x": -0.9803464844,
				"y": -0.5598788404,
				"z": -2.5406738973,
				"element": "H" 
			}
		],
		 "valence_orbital": [ 
			{
				"type": "occ",
				"energy": -0.30173,
				"method": "rhf"
			},
			{
				"type": "occ",
				"energy": -0.29854,
				"method": "rhf"
			},
			{
				"type": "occ",
				"energy": -0.26321,
				"method": "rhf"
			},
			{
				"type": "occ",
				"energy": -0.25485,
				"method": "rhf"
			},
			{
				"type": "occ",
				"energy": -0.24302,
				"method": "rhf"
			},
			{
				"type": "unocc",
				"energy": -0.10306,
				"method": "rhf"
			},
			{
				"type": "unocc",
				"energy": -0.05926,
				"method": "rhf"
			},
			{
				"type": "unocc",
				"energy": -0.04742,
				"method": "rhf"
			},
			{
				"type": "unocc",
				"energy": -0.01783,
				"method": "rhf"
			},
			{
				"type": "unocc",
				"energy": 0.03432,
				"method": "rhf"
			}
		],
		"cosmo_sigma_profile": { 
			"-0.025": 0.0,
			"-0.024": 0.0,
			"-0.023": 0.0,
			"-0.022": 0.0,
			"-0.021": 0.0,
			"-0.02": 0.0,
			"-0.019": 0.0,
			"-0.018": 0.0,
			"-0.017": 0.0,
			"-0.016": 0.0,
			"-0.015": 0.0,
			"-0.014": 0.0,
			"-0.013": 0.0,
			"-0.012": 0.0,
			"-0.011": 0.0,
			"-0.01": 0.238752792844,
			"-0.009": 3.35176066769,
			"-0.008": 10.0872344632,
			"-0.007": 14.7289883858,
			"-0.006": 14.994709829,
			"-0.005": 14.6535813712,
			"-0.004": 15.6692266069,
			"-0.003": 15.1840090863,
			"-0.002": 18.4108963216,
			"-0.001": 18.3793467371,
			"0.0": 20.0378392828,
			"0.001": 13.676808171,
			"0.002": 10.0002613267,
			"0.003": 9.3381213188,
			"0.004": 10.6747686883,
			"0.005": 7.5101614805,
			"0.006": 6.64510082313,
			"0.007": 9.34846312961,
			"0.008": 8.11663029445,
			"0.009": 6.02625381844,
			"0.01": 4.67287887687,
			"0.011": 2.97451036732,
			"0.012": 4.83746249511,
			"0.013": 2.38689219531,
			"0.014": 0.423011061942,
			"0.015": 0.0,
			"0.016": 0.0,
			"0.017": 0.0,
			"0.018": 0.0,
			"0.019": 0.0,
			"0.02": 0.0,
			"0.021": 0.0,
			"0.022": 0.0,
			"0.023": 0.0,
			"0.024": 0.0,
			"0.025": 0.0
		}
	}
}
