{
	 "smiles": "O=C(OC1=CC=CC=C1)C1=CC(=CC=C1)C(=O)OC1=CC=CC=C1", 
	 "Tm": 411.15, 
	 "num_atms": 38, 
	 "gaussian": { 
		 "optdone": 1, 
		 "sigma_profile": "yes", 
		 "theory": "DFT", 
		 "functional": "B3LYP", 
		 "basiset": "6-31G**", 
		 "properties": { 
			 "R2extent": 13452.4159, 
			 "electric_dipole_moment_norm": 1.77790586084, 
			 "electric_quadrupole_moment_norm": 18.8873540706, 
			 "total_energy": -1071.48253689, 
			 "HOMO_LUMO_gap": 0.17487, 
			 "cosmo_polarized_energy": -12.3, 
			 "cosmo_cavitation_energy": 44.69, 
			 "cosmo_dispersion_energy": -31.87, 
			 "cosmo_repulsion_energy": 2.39, 
			 "cosmo_total_nonelectrostatic_energy": 15.2, 
			 "SMD_solvation_energy": 9.4 
		},
		"coords": [
			{
				"x": -0.2935131597,
				"y": -1.3080579932,
				"z": 1.0300818993,
				"element": "O" 
			},
			{
				"x": -0.2184474331,
				"y": -0.3846515997,
				"z": 1.8090769305,
				"element": "C" 
			},
			{
				"x": -0.0300463981,
				"y": -0.525992247,
				"z": 3.1560651496,
				"element": "O" 
			},
			{
				"x": 0.0922760299,
				"y": -1.7900104153,
				"z": 3.7395841586,
				"element": "C" 
			},
			{
				"x": 0.9348510776,
				"y": -2.7775428125,
				"z": 3.2293380159,
				"element": "C" 
			},
			{
				"x": 1.0530590351,
				"y": -3.9813787961,
				"z": 3.925657236,
				"element": "C" 
			},
			{
				"x": 0.3477893055,
				"y": -4.1928694261,
				"z": 5.1121123303,
				"element": "C" 
			},
			{
				"x": -0.4858635765,
				"y": -3.1897287273,
				"z": 5.6100498996,
				"element": "C" 
			},
			{
				"x": -0.6173901157,
				"y": -1.982677025,
				"z": 4.9234994274,
				"element": "C" 
			},
			{
				"x": -0.3220937157,
				"y": 1.0530298344,
				"z": 1.4268057917,
				"element": "C" 
			},
			{
				"x": -0.5456448003,
				"y": 1.3443972393,
				"z": 0.0762413448,
				"element": "C" 
			},
			{
				"x": -0.649384145,
				"y": 2.6731936592,
				"z": -0.3438746533,
				"element": "C" 
			},
			{
				"x": -0.5268679362,
				"y": 3.7116886235,
				"z": 0.5915344058,
				"element": "C" 
			},
			{
				"x": -0.3032819249,
				"y": 3.4210907157,
				"z": 1.9351092645,
				"element": "C" 
			},
			{
				"x": -0.2012857974,
				"y": 2.0954038216,
				"z": 2.3572465578,
				"element": "C" 
			},
			{
				"x": -0.8875437643,
				"y": 3.0526635961,
				"z": -1.7668206308,
				"element": "C" 
			},
			{
				"x": -0.9830260619,
				"y": 4.1943507952,
				"z": -2.1600549006,
				"element": "O" 
			},
			{
				"x": -0.9804084394,
				"y": 1.9492273487,
				"z": -2.5636355219,
				"element": "O" 
			},
			{
				"x": -1.1884112962,
				"y": 2.0529308189,
				"z": -3.9415671707,
				"element": "C" 
			},
			{
				"x": -0.4602214733,
				"y": 1.1587617391,
				"z": -4.7250233626,
				"element": "C" 
			},
			{
				"x": -0.6604472226,
				"y": 1.1392766517,
				"z": -6.1049206101,
				"element": "C" 
			},
			{
				"x": -1.5815801356,
				"y": 2.0085889311,
				"z": -6.6926486192,
				"element": "C" 
			},
			{
				"x": -2.3049516059,
				"y": 2.894402876,
				"z": -5.8919030144,
				"element": "C" 
			},
			{
				"x": -2.1186799623,
				"y": 2.9242766467,
				"z": -4.5086743662,
				"element": "C" 
			},
			{
				"x": 1.4747581763,
				"y": -2.613187973,
				"z": 2.3060574955,
				"element": "H" 
			},
			{
				"x": 1.7039036206,
				"y": -4.7575784142,
				"z": 3.5340851551,
				"element": "H" 
			},
			{
				"x": 0.4482582072,
				"y": -5.1332509189,
				"z": 5.6454251192,
				"element": "H" 
			},
			{
				"x": -1.0365939477,
				"y": -3.3435676223,
				"z": 6.5332579993,
				"element": "H" 
			},
			{
				"x": -1.2580988015,
				"y": -1.1880078236,
				"z": 5.2913245532,
				"element": "H" 
			},
			{
				"x": -0.6358555517,
				"y": 0.5286105991,
				"z": -0.6300056136,
				"element": "H" 
			},
			{
				"x": -0.6099766638,
				"y": 4.7352957509,
				"z": 0.242197985,
				"element": "H" 
			},
			{
				"x": -0.2083830171,
				"y": 4.2271793317,
				"z": 2.6559768417,
				"element": "H" 
			},
			{
				"x": -0.0278929837,
				"y": 1.8617333522,
				"z": 3.4011300774,
				"element": "H" 
			},
			{
				"x": 0.2468591989,
				"y": 0.4905383112,
				"z": -4.244710527,
				"element": "H" 
			},
			{
				"x": -0.0955209269,
				"y": 0.4434568183,
				"z": -6.7180754014,
				"element": "H" 
			},
			{
				"x": -1.7361087179,
				"y": 1.9947672733,
				"z": -7.7672712421,
				"element": "H" 
			},
			{
				"x": -3.0245447626,
				"y": 3.5714122525,
				"z": -6.3428398549,
				"element": "H" 
			},
			{
				"x": -2.672990314,
				"y": 3.6149248079,
				"z": -3.8876321494,
				"element": "H" 
			}
		],
		 "valence_orbital": [ 
			{
				"type": "occ",
				"energy": -0.27256,
				"method": "rhf"
			},
			{
				"type": "occ",
				"energy": -0.25637,
				"method": "rhf"
			},
			{
				"type": "occ",
				"energy": -0.25387,
				"method": "rhf"
			},
			{
				"type": "occ",
				"energy": -0.24405,
				"method": "rhf"
			},
			{
				"type": "occ",
				"energy": -0.24114,
				"method": "rhf"
			},
			{
				"type": "unocc",
				"energy": -0.06627,
				"method": "rhf"
			},
			{
				"type": "unocc",
				"energy": -0.04968,
				"method": "rhf"
			},
			{
				"type": "unocc",
				"energy": -0.00735,
				"method": "rhf"
			},
			{
				"type": "unocc",
				"energy": -0.00476,
				"method": "rhf"
			},
			{
				"type": "unocc",
				"energy": -0.00274,
				"method": "rhf"
			}
		],
		"cosmo_sigma_profile": { 
			"-0.025": 0.0,
			"-0.024": 0.0,
			"-0.023": 0.0,
			"-0.022": 0.0,
			"-0.021": 0.0,
			"-0.02": 0.0,
			"-0.019": 0.0,
			"-0.018": 0.0,
			"-0.017": 0.0,
			"-0.016": 0.0,
			"-0.015": 0.0,
			"-0.014": 0.0,
			"-0.013": 0.0,
			"-0.012": 0.0,
			"-0.011": 0.0,
			"-0.01": 0.0,
			"-0.009": 0.0,
			"-0.008": 0.327162320458,
			"-0.007": 6.88576234931,
			"-0.006": 24.2154860605,
			"-0.005": 27.4937465815,
			"-0.004": 30.7043864068,
			"-0.003": 25.2717964059,
			"-0.002": 25.5663659544,
			"-0.001": 28.4767576121,
			"0.0": 31.4383374501,
			"0.001": 33.7613482276,
			"0.002": 31.2495010332,
			"0.003": 22.788863572,
			"0.004": 25.5061105199,
			"0.005": 18.0801451942,
			"0.006": 3.90053584265,
			"0.007": 3.66187943854,
			"0.008": 3.79428321841,
			"0.009": 4.00394013409,
			"0.01": 5.4833541528,
			"0.011": 7.50294239508,
			"0.012": 0.445206874253,
			"0.013": 0.0,
			"0.014": 0.0,
			"0.015": 0.0,
			"0.016": 0.0,
			"0.017": 0.0,
			"0.018": 0.0,
			"0.019": 0.0,
			"0.02": 0.0,
			"0.021": 0.0,
			"0.022": 0.0,
			"0.023": 0.0,
			"0.024": 0.0,
			"0.025": 0.0
		}
	}
}
