{
	 "smiles": "COC1=C(C=C2C(=O)CCCC2=C1)[N+]([O-])=O", 
	 "Tm": 450.15, 
	 "num_atms": 27, 
	 "gaussian": { 
		 "optdone": 1, 
		 "sigma_profile": "yes", 
		 "theory": "DFT", 
		 "functional": "B3LYP", 
		 "basiset": "6-31G**", 
		 "properties": { 
			 "R2extent": 4457.0742, 
			 "electric_dipole_moment_norm": 8.1853456555, 
			 "electric_quadrupole_moment_norm": 12.2655141388, 
			 "total_energy": -781.341371109, 
			 "HOMO_LUMO_gap": 0.17112, 
			 "cosmo_polarized_energy": -17.46, 
			 "cosmo_cavitation_energy": 30.91, 
			 "cosmo_dispersion_energy": -22.59, 
			 "cosmo_repulsion_energy": 1.76, 
			 "cosmo_total_nonelectrostatic_energy": 10.08, 
			 "SMD_solvation_energy": 8.31 
		},
		"coords": [
			{
				"x": 2.1533873627,
				"y": -1.9624719223,
				"z": -1.1829739122,
				"element": "C" 
			},
			{
				"x": 1.5666721223,
				"y": -1.7459379004,
				"z": 0.0970294558,
				"element": "O" 
			},
			{
				"x": 0.3589121752,
				"y": -1.1631356069,
				"z": 0.1759908102,
				"element": "C" 
			},
			{
				"x": -0.1887424722,
				"y": -0.9132710478,
				"z": 1.461722713,
				"element": "C" 
			},
			{
				"x": -1.3996092653,
				"y": -0.2569698808,
				"z": 1.5985689517,
				"element": "C" 
			},
			{
				"x": -2.132997075,
				"y": 0.1428688868,
				"z": 0.4761928947,
				"element": "C" 
			},
			{
				"x": -3.4445137779,
				"y": 0.8220855546,
				"z": 0.6852456991,
				"element": "C" 
			},
			{
				"x": -3.8838223306,
				"y": 1.035273424,
				"z": 1.8048563528,
				"element": "O" 
			},
			{
				"x": -4.2222209885,
				"y": 1.2160748712,
				"z": -0.5639228988,
				"element": "C" 
			},
			{
				"x": -3.3121870044,
				"y": 1.5063096127,
				"z": -1.7633945656,
				"element": "C" 
			},
			{
				"x": -2.3918302137,
				"y": 0.3108777658,
				"z": -2.0414636466,
				"element": "C" 
			},
			{
				"x": -1.6143629908,
				"y": -0.1040357089,
				"z": -0.8109319147,
				"element": "C" 
			},
			{
				"x": -0.377144627,
				"y": -0.7399473826,
				"z": -0.940505778,
				"element": "C" 
			},
			{
				"x": 0.4896182392,
				"y": -1.3406597658,
				"z": 2.693255837,
				"element": "N" 
			},
			{
				"x": 1.1982148877,
				"y": -2.3426680995,
				"z": 2.6487053648,
				"element": "O" 
			},
			{
				"x": 0.2747756295,
				"y": -0.6732609359,
				"z": 3.7064198671,
				"element": "O" 
			},
			{
				"x": 3.1136071704,
				"y": -2.4381295375,
				"z": -0.9842493267,
				"element": "H" 
			},
			{
				"x": 1.536850253,
				"y": -2.6290210465,
				"z": -1.796933337,
				"element": "H" 
			},
			{
				"x": 2.3156671948,
				"y": -1.0175611014,
				"z": -1.7147255427,
				"element": "H" 
			},
			{
				"x": -1.7922722079,
				"y": -0.0544288833,
				"z": 2.5879429604,
				"element": "H" 
			},
			{
				"x": -4.8916390426,
				"y": 0.3758322152,
				"z": -0.8033884981,
				"element": "H" 
			},
			{
				"x": -4.8625830638,
				"y": 2.0638709699,
				"z": -0.3059668014,
				"element": "H" 
			},
			{
				"x": -3.9126914358,
				"y": 1.7332661373,
				"z": -2.6504002328,
				"element": "H" 
			},
			{
				"x": -2.7025301632,
				"y": 2.394781413,
				"z": -1.556662447,
				"element": "H" 
			},
			{
				"x": -3.000785667,
				"y": -0.5422689675,
				"z": -2.3768523295,
				"element": "H" 
			},
			{
				"x": -1.6995574669,
				"y": 0.5320309235,
				"z": -2.8611934155,
				"element": "H" 
			},
			{
				"x": 0.0228847578,
				"y": -0.9015039871,
				"z": -1.9343662598,
				"element": "H" 
			}
		],
		 "valence_orbital": [ 
			{
				"type": "occ",
				"energy": -0.29724,
				"method": "rhf"
			},
			{
				"type": "occ",
				"energy": -0.28862,
				"method": "rhf"
			},
			{
				"type": "occ",
				"energy": -0.27034,
				"method": "rhf"
			},
			{
				"type": "occ",
				"energy": -0.25149,
				"method": "rhf"
			},
			{
				"type": "occ",
				"energy": -0.24925,
				"method": "rhf"
			},
			{
				"type": "unocc",
				"energy": -0.07813,
				"method": "rhf"
			},
			{
				"type": "unocc",
				"energy": -0.06071,
				"method": "rhf"
			},
			{
				"type": "unocc",
				"energy": -0.01236,
				"method": "rhf"
			},
			{
				"type": "unocc",
				"energy": 0.03562,
				"method": "rhf"
			},
			{
				"type": "unocc",
				"energy": 0.06796,
				"method": "rhf"
			}
		],
		"cosmo_sigma_profile": { 
			"-0.025": 0.0,
			"-0.024": 0.0,
			"-0.023": 0.0,
			"-0.022": 0.0,
			"-0.021": 0.0,
			"-0.02": 0.0,
			"-0.019": 0.0,
			"-0.018": 0.0,
			"-0.017": 0.0,
			"-0.016": 0.0,
			"-0.015": 0.0,
			"-0.014": 0.0,
			"-0.013": 0.0,
			"-0.012": 0.0,
			"-0.011": 0.0,
			"-0.01": 0.0,
			"-0.009": 0.0265514415501,
			"-0.008": 1.94988805382,
			"-0.007": 7.73588896857,
			"-0.006": 17.7407000769,
			"-0.005": 21.6388914401,
			"-0.004": 26.4976730212,
			"-0.003": 25.654936964,
			"-0.002": 23.6293263957,
			"-0.001": 18.4020900168,
			"0.0": 17.8612753663,
			"0.001": 12.6302928074,
			"0.002": 5.88031854212,
			"0.003": 5.43482412485,
			"0.004": 4.97299143065,
			"0.005": 5.21837277685,
			"0.006": 4.46931697614,
			"0.007": 7.47206051673,
			"0.008": 11.6339118433,
			"0.009": 9.16371211449,
			"0.01": 6.050214734,
			"0.011": 4.57510772019,
			"0.012": 4.65827109128,
			"0.013": 1.62609852681,
			"0.014": 0.286896326149,
			"0.015": 0.0,
			"0.016": 0.0,
			"0.017": 0.0,
			"0.018": 0.0,
			"0.019": 0.0,
			"0.02": 0.0,
			"0.021": 0.0,
			"0.022": 0.0,
			"0.023": 0.0,
			"0.024": 0.0,
			"0.025": 0.0
		}
	}
}
