{
	 "smiles": "ClC1=NC=CC(=C1)C1=NCCN1", 
	 "Tm": 439.15, 
	 "num_atms": 20, 
	 "gaussian": { 
		 "optdone": 1, 
		 "sigma_profile": "yes", 
		 "theory": "DFT", 
		 "functional": "B3LYP", 
		 "basiset": "6-31G**", 
		 "properties": { 
			 "R2extent": 3096.6557, 
			 "electric_dipole_moment_norm": 4.18563029662, 
			 "electric_quadrupole_moment_norm": 9.02964517963, 
			 "total_energy": -934.107926406, 
			 "HOMO_LUMO_gap": 0.17164, 
			 "cosmo_polarized_energy": -11.72, 
			 "cosmo_cavitation_energy": 25.73, 
			 "cosmo_dispersion_energy": -19.61, 
			 "cosmo_repulsion_energy": 1.57, 
			 "cosmo_total_nonelectrostatic_energy": 7.7, 
			 "SMD_solvation_energy": -1.47 
		},
		"coords": [
			{
				"x": -2.7463216993,
				"y": -1.7120481016,
				"z": -2.4490540208,
				"element": "Cl" 
			},
			{
				"x": -1.2858086852,
				"y": -1.5335692206,
				"z": -1.4753756509,
				"element": "C" 
			},
			{
				"x": -0.2365693931,
				"y": -2.2413644847,
				"z": -1.8434597967,
				"element": "N" 
			},
			{
				"x": 0.8748525858,
				"y": -2.1122512285,
				"z": -1.0970428535,
				"element": "C" 
			},
			{
				"x": 0.9655052209,
				"y": -1.2805967363,
				"z": 0.0111299015,
				"element": "C" 
			},
			{
				"x": -0.1611041919,
				"y": -0.5295077137,
				"z": 0.3787383394,
				"element": "C" 
			},
			{
				"x": -1.3254231394,
				"y": -0.6634757242,
				"z": -0.3821664458,
				"element": "C" 
			},
			{
				"x": -0.0985008715,
				"y": 0.3722422964,
				"z": 1.5494537886,
				"element": "C" 
			},
			{
				"x": 0.8257579484,
				"y": 0.2936665147,
				"z": 2.4392341223,
				"element": "N" 
			},
			{
				"x": 0.5149246882,
				"y": 1.3127151131,
				"z": 3.4533503725,
				"element": "C" 
			},
			{
				"x": -0.5960097317,
				"y": 2.2053437251,
				"z": 2.8340449946,
				"element": "C" 
			},
			{
				"x": -1.0964782339,
				"y": 1.3280811089,
				"z": 1.7612302183,
				"element": "N" 
			},
			{
				"x": 1.7274978743,
				"y": -2.7078773916,
				"z": -1.4143178921,
				"element": "H" 
			},
			{
				"x": 1.8762359445,
				"y": -1.2009653083,
				"z": 0.5924561588,
				"element": "H" 
			},
			{
				"x": -2.2394605758,
				"y": -0.141072613,
				"z": -0.1279742207,
				"element": "H" 
			},
			{
				"x": 0.158877372,
				"y": 0.8079345881,
				"z": 4.3611539633,
				"element": "H" 
			},
			{
				"x": 1.4134550772,
				"y": 1.8743170637,
				"z": 3.7269859345,
				"element": "H" 
			},
			{
				"x": -1.3883978241,
				"y": 2.4603958832,
				"z": 3.5429854406,
				"element": "H" 
			},
			{
				"x": -0.1849498435,
				"y": 3.1386169685,
				"z": 2.424860598,
				"element": "H" 
			},
			{
				"x": -1.4754825219,
				"y": 1.7808152607,
				"z": 0.9386670478,
				"element": "H" 
			}
		],
		 "valence_orbital": [ 
			{
				"type": "occ",
				"energy": -0.29234,
				"method": "rhf"
			},
			{
				"type": "occ",
				"energy": -0.27857,
				"method": "rhf"
			},
			{
				"type": "occ",
				"energy": -0.2754,
				"method": "rhf"
			},
			{
				"type": "occ",
				"energy": -0.26287,
				"method": "rhf"
			},
			{
				"type": "occ",
				"energy": -0.23279,
				"method": "rhf"
			},
			{
				"type": "unocc",
				"energy": -0.06115,
				"method": "rhf"
			},
			{
				"type": "unocc",
				"energy": -0.02642,
				"method": "rhf"
			},
			{
				"type": "unocc",
				"energy": 0.03269,
				"method": "rhf"
			},
			{
				"type": "unocc",
				"energy": 0.04269,
				"method": "rhf"
			},
			{
				"type": "unocc",
				"energy": 0.07225,
				"method": "rhf"
			}
		],
		"cosmo_sigma_profile": { 
			"-0.025": 0.0,
			"-0.024": 0.0,
			"-0.023": 0.0,
			"-0.022": 0.0,
			"-0.021": 0.0,
			"-0.02": 0.0,
			"-0.019": 0.0,
			"-0.018": 0.0,
			"-0.017": 0.0,
			"-0.016": 0.0,
			"-0.015": 0.0,
			"-0.014": 0.302386211868,
			"-0.013": 1.49159885159,
			"-0.012": 1.69213483865,
			"-0.011": 1.43734052907,
			"-0.01": 1.9788774382,
			"-0.009": 1.96935625881,
			"-0.008": 2.60217066774,
			"-0.007": 5.37599171299,
			"-0.006": 6.73974353497,
			"-0.005": 10.3660282501,
			"-0.004": 17.2024855329,
			"-0.003": 16.8154080201,
			"-0.002": 16.7914868024,
			"-0.001": 18.4532453341,
			"0.0": 21.0034509186,
			"0.001": 14.9916208831,
			"0.002": 10.4652547066,
			"0.003": 10.4918823828,
			"0.004": 13.0444749161,
			"0.005": 7.67339834497,
			"0.006": 4.82004933719,
			"0.007": 3.72982057074,
			"0.008": 2.49894535924,
			"0.009": 4.04159398818,
			"0.01": 2.88210270139,
			"0.011": 1.95088854794,
			"0.012": 2.16705758683,
			"0.013": 1.38036454559,
			"0.014": 1.92541424582,
			"0.015": 0.945264278725,
			"0.016": 0.662342186533,
			"0.017": 0.0758270229537,
			"0.018": 0.0,
			"0.019": 0.0,
			"0.02": 0.0,
			"0.021": 0.0,
			"0.022": 0.0,
			"0.023": 0.0,
			"0.024": 0.0,
			"0.025": 0.0
		}
	}
}
