{
	 "smiles": "NC1=C(C#N)C(C2=C(O1)N(N=C2C(F)(F)F)C1=CC=CC=C1)C1=CC=C(Cl)C=C1", 
	 "Tm": 494.15, 
	 "num_atms": 41, 
	 "gaussian": { 
		 "optdone": 1, 
		 "sigma_profile": "yes", 
		 "theory": "DFT", 
		 "functional": "B3LYP", 
		 "basiset": "6-31G**", 
		 "properties": { 
			 "R2extent": 13415.688, 
			 "electric_dipole_moment_norm": 7.16414074122, 
			 "electric_quadrupole_moment_norm": 26.948976706, 
			 "total_energy": -1823.2540106, 
			 "HOMO_LUMO_gap": 0.18558, 
			 "cosmo_polarized_energy": -20.49, 
			 "cosmo_cavitation_energy": 50.18, 
			 "cosmo_dispersion_energy": -33.15, 
			 "cosmo_repulsion_energy": 2.46, 
			 "cosmo_total_nonelectrostatic_energy": 19.49, 
			 "SMD_solvation_energy": 9.81 
		},
		"coords": [
			{
				"x": 1.1914496975,
				"y": -2.0832903792,
				"z": -3.3516827252,
				"element": "N" 
			},
			{
				"x": 0.52148608,
				"y": -1.6648912571,
				"z": -2.2382739167,
				"element": "C" 
			},
			{
				"x": -0.4966953836,
				"y": -2.3241292253,
				"z": -1.6064447549,
				"element": "C" 
			},
			{
				"x": -0.8427816292,
				"y": -3.5972434915,
				"z": -2.131033233,
				"element": "C" 
			},
			{
				"x": -1.0985033524,
				"y": -4.6369358961,
				"z": -2.595089322,
				"element": "N" 
			},
			{
				"x": -1.2744537458,
				"y": -1.7869090574,
				"z": -0.3983395665,
				"element": "C" 
			},
			{
				"x": -0.7280358981,
				"y": -0.415972118,
				"z": -0.1049554677,
				"element": "C" 
			},
			{
				"x": 0.3094122739,
				"y": 0.1305490308,
				"z": -0.8152015005,
				"element": "C" 
			},
			{
				"x": 0.9845977029,
				"y": -0.4274123164,
				"z": -1.8551514445,
				"element": "O" 
			},
			{
				"x": 0.5949724725,
				"y": 1.3717881531,
				"z": -0.3290949507,
				"element": "N" 
			},
			{
				"x": -0.2383528363,
				"y": 1.6623912927,
				"z": 0.7073691163,
				"element": "N" 
			},
			{
				"x": -1.0259446966,
				"y": 0.6010807245,
				"z": 0.8349550272,
				"element": "C" 
			},
			{
				"x": -2.0680819666,
				"y": 0.5633181114,
				"z": 1.9106881254,
				"element": "C" 
			},
			{
				"x": -3.1870135942,
				"y": -0.0526809208,
				"z": 1.4526802275,
				"element": "F" 
			},
			{
				"x": -2.4100448693,
				"y": 1.7907317062,
				"z": 2.3276532892,
				"element": "F" 
			},
			{
				"x": -1.6485506994,
				"y": -0.1355192672,
				"z": 2.9866091003,
				"element": "F" 
			},
			{
				"x": 1.5989432613,
				"y": 2.3053201656,
				"z": -0.7230707256,
				"element": "C" 
			},
			{
				"x": 2.0252629164,
				"y": 2.3762544196,
				"z": -2.0529579893,
				"element": "C" 
			},
			{
				"x": 3.0098157728,
				"y": 3.3006620235,
				"z": -2.4029564532,
				"element": "C" 
			},
			{
				"x": 3.5518432155,
				"y": 4.1572403038,
				"z": -1.444175152,
				"element": "C" 
			},
			{
				"x": 3.1047862192,
				"y": 4.0867891862,
				"z": -0.1226469825,
				"element": "C" 
			},
			{
				"x": 2.132658745,
				"y": 3.1600654647,
				"z": 0.2466515182,
				"element": "C" 
			},
			{
				"x": -1.1983756865,
				"y": -2.731608641,
				"z": 0.8049083932,
				"element": "C" 
			},
			{
				"x": 0.0345668441,
				"y": -3.0886468679,
				"z": 1.3643508706,
				"element": "C" 
			},
			{
				"x": 0.1050900704,
				"y": -3.9439779891,
				"z": 2.4607216868,
				"element": "C" 
			},
			{
				"x": -1.0772280135,
				"y": -4.4496633897,
				"z": 3.0036050845,
				"element": "C" 
			},
			{
				"x": -0.9976489732,
				"y": -5.5316184929,
				"z": 4.3866094427,
				"element": "Cl" 
			},
			{
				"x": -2.3164502762,
				"y": -4.1112593209,
				"z": 2.466275015,
				"element": "C" 
			},
			{
				"x": -2.3666233323,
				"y": -3.2513735795,
				"z": 1.3678994836,
				"element": "C" 
			},
			{
				"x": 1.0580514529,
				"y": -3.0481195954,
				"z": -3.6208245406,
				"element": "H" 
			},
			{
				"x": 2.1213102158,
				"y": -1.7111225518,
				"z": -3.4804045177,
				"element": "H" 
			},
			{
				"x": -2.3341548403,
				"y": -1.7018922146,
				"z": -0.6716969009,
				"element": "H" 
			},
			{
				"x": 1.5891268877,
				"y": 1.7295637067,
				"z": -2.8041908944,
				"element": "H" 
			},
			{
				"x": 3.3414373902,
				"y": 3.3575458534,
				"z": -3.4353443994,
				"element": "H" 
			},
			{
				"x": 4.3134981932,
				"y": 4.8780266477,
				"z": -1.7251245101,
				"element": "H" 
			},
			{
				"x": 3.5179442542,
				"y": 4.752221905,
				"z": 0.6292415147,
				"element": "H" 
			},
			{
				"x": 1.773595337,
				"y": 3.0930945983,
				"z": 1.2664393291,
				"element": "H" 
			},
			{
				"x": 0.9537653502,
				"y": -2.6966967234,
				"z": 0.9377074116,
				"element": "H" 
			},
			{
				"x": 1.0616964339,
				"y": -4.2185428007,
				"z": 2.8912464102,
				"element": "H" 
			},
			{
				"x": -3.2263567441,
				"y": -4.5124707369,
				"z": 2.8982758943,
				"element": "H" 
			},
			{
				"x": -3.332214249,
				"y": -2.9815664603,
				"z": 0.9498730069,
				"element": "H" 
			}
		],
		 "valence_orbital": [ 
			{
				"type": "occ",
				"energy": -0.26595,
				"method": "rhf"
			},
			{
				"type": "occ",
				"energy": -0.26141,
				"method": "rhf"
			},
			{
				"type": "occ",
				"energy": -0.25153,
				"method": "rhf"
			},
			{
				"type": "occ",
				"energy": -0.24253,
				"method": "rhf"
			},
			{
				"type": "occ",
				"energy": -0.23244,
				"method": "rhf"
			},
			{
				"type": "unocc",
				"energy": -0.04686,
				"method": "rhf"
			},
			{
				"type": "unocc",
				"energy": -0.02734,
				"method": "rhf"
			},
			{
				"type": "unocc",
				"energy": -0.02268,
				"method": "rhf"
			},
			{
				"type": "unocc",
				"energy": -0.01775,
				"method": "rhf"
			},
			{
				"type": "unocc",
				"energy": -0.00707,
				"method": "rhf"
			}
		],
		"cosmo_sigma_profile": { 
			"-0.025": 0.0,
			"-0.024": 0.0,
			"-0.023": 0.0,
			"-0.022": 0.0,
			"-0.021": 0.0,
			"-0.02": 0.0,
			"-0.019": 0.0,
			"-0.018": 0.0,
			"-0.017": 0.0,
			"-0.016": 0.280391896889,
			"-0.015": 1.29943428356,
			"-0.014": 2.35037904628,
			"-0.013": 1.97564989834,
			"-0.012": 2.66119446195,
			"-0.011": 2.23619640341,
			"-0.01": 1.75996791231,
			"-0.009": 1.39144475753,
			"-0.008": 2.54141918733,
			"-0.007": 11.542750344,
			"-0.006": 23.9020608286,
			"-0.005": 24.6522235322,
			"-0.004": 23.3572933413,
			"-0.003": 22.6870989797,
			"-0.002": 23.6885672657,
			"-0.001": 25.7974476802,
			"0.0": 27.5417729817,
			"0.001": 32.0166519835,
			"0.002": 46.5973249792,
			"0.003": 51.6725137495,
			"0.004": 32.1305782111,
			"0.005": 12.7492851466,
			"0.006": 4.40024893607,
			"0.007": 3.98657531314,
			"0.008": 4.59951280707,
			"0.009": 4.5607150645,
			"0.01": 3.98450739855,
			"0.011": 3.82847927764,
			"0.012": 3.08289299197,
			"0.013": 2.58686528973,
			"0.014": 1.07089749142,
			"0.015": 0.0,
			"0.016": 0.0,
			"0.017": 0.0,
			"0.018": 0.0,
			"0.019": 0.0,
			"0.02": 0.0,
			"0.021": 0.0,
			"0.022": 0.0,
			"0.023": 0.0,
			"0.024": 0.0,
			"0.025": 0.0
		}
	}
}
