{
	 "smiles": "BrC1=C2C(=O)N(CCN3C(=O)C4=C(C3=O)C(Br)=C(Br)C(Br)=C4Br)C(=O)C2=C(Br)C(Br)=C1Br", 
	 "Tm": 718.15, 
	 "num_atms": 36, 
	 "gaussian": { 
		 "optdone": 1, 
		 "sigma_profile": "yes", 
		 "theory": "DFT", 
		 "functional": "B3LYP", 
		 "basiset": "6-31G**", 
		 "properties": { 
			 "R2extent": 46006.6052, 
			 "electric_dipole_moment_norm": 0.611095458991, 
			 "electric_quadrupole_moment_norm": 8.47198581739, 
			 "total_energy": -21669.9651523, 
			 "HOMO_LUMO_gap": 0.1582, 
			 "cosmo_polarized_energy": -16.69, 
			 "cosmo_cavitation_energy": 59.79, 
			 "cosmo_dispersion_energy": -41.85, 
			 "cosmo_repulsion_energy": 3.11, 
			 "cosmo_total_nonelectrostatic_energy": 21.05, 
			 "SMD_solvation_energy": 3.45 
		},
		"coords": [
			{
				"x": 2.1858115921,
				"y": -3.5776724191,
				"z": 1.147449159,
				"element": "Br" 
			},
			{
				"x": 3.1252764534,
				"y": -1.949711671,
				"z": 1.3308425578,
				"element": "C" 
			},
			{
				"x": 2.4544644699,
				"y": -0.7392018517,
				"z": 1.2375150352,
				"element": "C" 
			},
			{
				"x": 1.0031667846,
				"y": -0.4465567654,
				"z": 0.9881066875,
				"element": "C" 
			},
			{
				"x": 0.0824002856,
				"y": -1.2110322115,
				"z": 0.7866323863,
				"element": "O" 
			},
			{
				"x": 0.8927592036,
				"y": 0.9464346992,
				"z": 1.0222919035,
				"element": "N" 
			},
			{
				"x": -0.3469595502,
				"y": 1.6740632291,
				"z": 0.7957873222,
				"element": "C" 
			},
			{
				"x": -0.5429726264,
				"y": 2.0800012034,
				"z": -0.6724671605,
				"element": "C" 
			},
			{
				"x": -0.731420015,
				"y": 0.9388953102,
				"z": -1.5555983879,
				"element": "N" 
			},
			{
				"x": -1.9727030507,
				"y": 0.3186687795,
				"z": -1.741836391,
				"element": "C" 
			},
			{
				"x": -3.0074540126,
				"y": 0.6850614797,
				"z": -1.2275980971,
				"element": "O" 
			},
			{
				"x": -1.7135120078,
				"y": -0.8224034748,
				"z": -2.6811676002,
				"element": "C" 
			},
			{
				"x": -0.3481091714,
				"y": -0.8319521278,
				"z": -2.9851466969,
				"element": "C" 
			},
			{
				"x": 0.3039780664,
				"y": 0.2975623004,
				"z": -2.2414972434,
				"element": "C" 
			},
			{
				"x": 1.471553399,
				"y": 0.6259609214,
				"z": -2.2003540689,
				"element": "O" 
			},
			{
				"x": 0.1960214027,
				"y": -1.7799578646,
				"z": -3.8391114474,
				"element": "C" 
			},
			{
				"x": 2.0428297613,
				"y": -1.7607770954,
				"z": -4.2332931041,
				"element": "Br" 
			},
			{
				"x": -0.6709259799,
				"y": -2.7457644398,
				"z": -4.3966469712,
				"element": "C" 
			},
			{
				"x": 0.0304354255,
				"y": -4.0569465588,
				"z": -5.5647693642,
				"element": "Br" 
			},
			{
				"x": -2.0468823861,
				"y": -2.7366033611,
				"z": -4.0890270764,
				"element": "C" 
			},
			{
				"x": -3.1954063111,
				"y": -4.0363690465,
				"z": -4.8418039621,
				"element": "Br" 
			},
			{
				"x": -2.5816891039,
				"y": -1.7607942857,
				"z": -3.2189544982,
				"element": "C" 
			},
			{
				"x": -4.4190842028,
				"y": -1.7158163366,
				"z": -2.7874633532,
				"element": "Br" 
			},
			{
				"x": 2.1227021615,
				"y": 1.5843558048,
				"z": 1.2236868292,
				"element": "C" 
			},
			{
				"x": 2.2739417514,
				"y": 2.7862825858,
				"z": 1.2669532375,
				"element": "O" 
			},
			{
				"x": 3.1270954508,
				"y": 0.4797233464,
				"z": 1.3739402652,
				"element": "C" 
			},
			{
				"x": 4.4932984731,
				"y": 0.5307852708,
				"z": 1.6071910453,
				"element": "C" 
			},
			{
				"x": 5.3668861071,
				"y": 2.1945955039,
				"z": 1.7882803278,
				"element": "Br" 
			},
			{
				"x": 5.1954561977,
				"y": -0.6911060673,
				"z": 1.703161927,
				"element": "C" 
			},
			{
				"x": 7.0596744308,
				"y": -0.6663748698,
				"z": 2.0180153178,
				"element": "Br" 
			},
			{
				"x": 4.5176817329,
				"y": -1.9199011221,
				"z": 1.5665643857,
				"element": "C" 
			},
			{
				"x": 5.4706768637,
				"y": -3.5478075789,
				"z": 1.6985656968,
				"element": "Br" 
			},
			{
				"x": -0.3168225984,
				"y": 2.5767103445,
				"z": 1.411453475,
				"element": "H" 
			},
			{
				"x": -1.1713887402,
				"y": 1.0388724041,
				"z": 1.1259088039,
				"element": "H" 
			},
			{
				"x": 0.3247254957,
				"y": 2.6380584082,
				"z": -1.0299668081,
				"element": "H" 
			},
			{
				"x": -1.4341057525,
				"y": 2.7082175565,
				"z": -0.7498441318,
				"element": "H" 
			}
		],
		 "valence_orbital": [ 
			{
				"type": "occ",
				"energy": -0.26936,
				"method": "rhf"
			},
			{
				"type": "occ",
				"energy": -0.26879,
				"method": "rhf"
			},
			{
				"type": "occ",
				"energy": -0.26827,
				"method": "rhf"
			},
			{
				"type": "occ",
				"energy": -0.26415,
				"method": "rhf"
			},
			{
				"type": "occ",
				"energy": -0.264,
				"method": "rhf"
			},
			{
				"type": "unocc",
				"energy": -0.1058,
				"method": "rhf"
			},
			{
				"type": "unocc",
				"energy": -0.10535,
				"method": "rhf"
			},
			{
				"type": "unocc",
				"energy": -0.07276,
				"method": "rhf"
			},
			{
				"type": "unocc",
				"energy": -0.06983,
				"method": "rhf"
			},
			{
				"type": "unocc",
				"energy": -0.06346,
				"method": "rhf"
			}
		],
		"cosmo_sigma_profile": { 
			"-0.025": 0.0,
			"-0.024": 0.0,
			"-0.023": 0.0,
			"-0.022": 0.0,
			"-0.021": 0.0,
			"-0.02": 0.0,
			"-0.019": 0.0,
			"-0.018": 0.0,
			"-0.017": 0.0,
			"-0.016": 0.0,
			"-0.015": 0.0,
			"-0.014": 0.0,
			"-0.013": 0.0,
			"-0.012": 0.0,
			"-0.011": 0.0,
			"-0.01": 0.0,
			"-0.009": 0.102822133917,
			"-0.008": 3.66593291831,
			"-0.007": 13.0689861527,
			"-0.006": 21.8484784533,
			"-0.005": 31.6139314384,
			"-0.004": 36.6357837096,
			"-0.003": 56.5547368462,
			"-0.002": 39.2324680879,
			"-0.001": 34.7908939772,
			"0.0": 39.4307154113,
			"0.001": 39.4668341593,
			"0.002": 61.5150562201,
			"0.003": 58.7373098199,
			"0.004": 14.8256513576,
			"0.005": 6.05348922359,
			"0.006": 7.05232620726,
			"0.007": 7.21881377696,
			"0.008": 8.1074658065,
			"0.009": 9.89818869752,
			"0.01": 14.6627892767,
			"0.011": 3.3559390617,
			"0.012": 0.0,
			"0.013": 0.0,
			"0.014": 0.0,
			"0.015": 0.0,
			"0.016": 0.0,
			"0.017": 0.0,
			"0.018": 0.0,
			"0.019": 0.0,
			"0.02": 0.0,
			"0.021": 0.0,
			"0.022": 0.0,
			"0.023": 0.0,
			"0.024": 0.0,
			"0.025": 0.0
		}
	}
}
