{
	 "smiles": "CN1CCC(CC1)N1CCNCC1", 
	 "Tm": 304.15, 
	 "num_atms": 34, 
	 "gaussian": { 
		 "optdone": 1, 
		 "sigma_profile": "yes", 
		 "theory": "DFT", 
		 "functional": "B3LYP", 
		 "basiset": "6-31G**", 
		 "properties": { 
			 "R2extent": 2957.9992, 
			 "electric_dipole_moment_norm": 0.339973896057, 
			 "electric_quadrupole_moment_norm": 8.60781176606, 
			 "total_energy": -557.926617397, 
			 "HOMO_LUMO_gap": 0.23993, 
			 "cosmo_polarized_energy": -8.01, 
			 "cosmo_cavitation_energy": 31.09, 
			 "cosmo_dispersion_energy": -22.95, 
			 "cosmo_repulsion_energy": 1.79, 
			 "cosmo_total_nonelectrostatic_energy": 9.94, 
			 "SMD_solvation_energy": -2.93 
		},
		"coords": [
			{
				"x": -2.2690649283,
				"y": -2.5516976501,
				"z": -0.935903408,
				"element": "C" 
			},
			{
				"x": -1.3577375672,
				"y": -2.0996078985,
				"z": -1.9776334175,
				"element": "N" 
			},
			{
				"x": -0.0010977156,
				"y": -2.6194085285,
				"z": -1.8401336591,
				"element": "C" 
			},
			{
				"x": 0.789490144,
				"y": -2.0278229335,
				"z": -0.6480736884,
				"element": "C" 
			},
			{
				"x": 0.5041377624,
				"y": -0.5094066726,
				"z": -0.4445993292,
				"element": "C" 
			},
			{
				"x": -0.0466742239,
				"y": 0.0679936578,
				"z": -1.7579554472,
				"element": "C" 
			},
			{
				"x": -1.3540113549,
				"y": -0.6395942597,
				"z": -2.1852594305,
				"element": "C" 
			},
			{
				"x": 1.7339368397,
				"y": 0.1769630931,
				"z": -0.0008545586,
				"element": "N" 
			},
			{
				"x": 1.7183487419,
				"y": 1.6407338826,
				"z": -0.0044598247,
				"element": "C" 
			},
			{
				"x": 0.7645017995,
				"y": 2.2481426426,
				"z": 1.05745846,
				"element": "C" 
			},
			{
				"x": 0.6854631592,
				"y": 1.4267478988,
				"z": 2.2775293165,
				"element": "N" 
			},
			{
				"x": 1.9153597033,
				"y": 0.6625854439,
				"z": 2.4834388253,
				"element": "C" 
			},
			{
				"x": 2.2625193728,
				"y": -0.289480334,
				"z": 1.2995516404,
				"element": "C" 
			},
			{
				"x": -2.0432065066,
				"y": -2.1749709801,
				"z": 0.0801779706,
				"element": "H" 
			},
			{
				"x": -3.2906948076,
				"y": -2.2433149829,
				"z": -1.1815491132,
				"element": "H" 
			},
			{
				"x": -2.2581468068,
				"y": -3.6463746086,
				"z": -0.8946624325,
				"element": "H" 
			},
			{
				"x": -0.0482099616,
				"y": -3.7109548891,
				"z": -1.7571095855,
				"element": "H" 
			},
			{
				"x": 0.5336654926,
				"y": -2.4075949797,
				"z": -2.7741454702,
				"element": "H" 
			},
			{
				"x": 1.8617562767,
				"y": -2.1572494117,
				"z": -0.8315134029,
				"element": "H" 
			},
			{
				"x": 0.5508580127,
				"y": -2.5835756385,
				"z": 0.2652236033,
				"element": "H" 
			},
			{
				"x": -0.3070476562,
				"y": -0.4163195186,
				"z": 0.3055533257,
				"element": "H" 
			},
			{
				"x": -0.2646998885,
				"y": 1.1362400928,
				"z": -1.6698034187,
				"element": "H" 
			},
			{
				"x": 0.7219902512,
				"y": -0.0300518181,
				"z": -2.5344102206,
				"element": "H" 
			},
			{
				"x": -1.5426960233,
				"y": -0.4131110458,
				"z": -3.2449161008,
				"element": "H" 
			},
			{
				"x": -2.1905370513,
				"y": -0.2072055387,
				"z": -1.6233545803,
				"element": "H" 
			},
			{
				"x": 2.7471519071,
				"y": 1.9626873385,
				"z": 0.2028172945,
				"element": "H" 
			},
			{
				"x": 1.4855553378,
				"y": 2.0233431119,
				"z": -1.0013097429,
				"element": "H" 
			},
			{
				"x": -0.2482912202,
				"y": 2.3561491991,
				"z": 0.6533915896,
				"element": "H" 
			},
			{
				"x": 1.1062537126,
				"y": 3.261414138,
				"z": 1.3170521936,
				"element": "H" 
			},
			{
				"x": -0.0956584558,
				"y": 0.7819639206,
				"z": 2.1990327919,
				"element": "H" 
			},
			{
				"x": 2.7284922766,
				"y": 1.383305371,
				"z": 2.6384336715,
				"element": "H" 
			},
			{
				"x": 1.8319078715,
				"y": 0.0921817021,
				"z": 3.4151120828,
				"element": "H" 
			},
			{
				"x": 3.3557124002,
				"y": -0.3990679366,
				"z": 1.2306557554,
				"element": "H" 
			},
			{
				"x": 1.864473106,
				"y": -1.2865418675,
				"z": 1.5032183097,
				"element": "H" 
			}
		],
		 "valence_orbital": [ 
			{
				"type": "occ",
				"energy": -0.31567,
				"method": "rhf"
			},
			{
				"type": "occ",
				"energy": -0.30594,
				"method": "rhf"
			},
			{
				"type": "occ",
				"energy": -0.23542,
				"method": "rhf"
			},
			{
				"type": "occ",
				"energy": -0.19637,
				"method": "rhf"
			},
			{
				"type": "occ",
				"energy": -0.18466,
				"method": "rhf"
			},
			{
				"type": "unocc",
				"energy": 0.05527,
				"method": "rhf"
			},
			{
				"type": "unocc",
				"energy": 0.08526,
				"method": "rhf"
			},
			{
				"type": "unocc",
				"energy": 0.10125,
				"method": "rhf"
			},
			{
				"type": "unocc",
				"energy": 0.10506,
				"method": "rhf"
			},
			{
				"type": "unocc",
				"energy": 0.11614,
				"method": "rhf"
			}
		],
		"cosmo_sigma_profile": { 
			"-0.025": 0.0,
			"-0.024": 0.0,
			"-0.023": 0.0,
			"-0.022": 0.0,
			"-0.021": 0.0,
			"-0.02": 0.0,
			"-0.019": 0.0,
			"-0.018": 0.0,
			"-0.017": 0.0,
			"-0.016": 0.0,
			"-0.015": 0.0,
			"-0.014": 0.0,
			"-0.013": 0.0,
			"-0.012": 0.0,
			"-0.011": 0.0,
			"-0.01": 0.0,
			"-0.009": 0.25733477821,
			"-0.008": 1.27568296179,
			"-0.007": 1.98233773145,
			"-0.006": 2.43973276144,
			"-0.005": 2.12707099155,
			"-0.004": 8.93063492339,
			"-0.003": 36.2932045184,
			"-0.002": 46.5608113106,
			"-0.001": 45.2254009703,
			"0.0": 35.9403582689,
			"0.001": 15.0904928848,
			"0.002": 6.12262855471,
			"0.003": 4.94490163926,
			"0.004": 3.50818086857,
			"0.005": 3.29680349918,
			"0.006": 3.23353641612,
			"0.007": 2.54226300639,
			"0.008": 2.37232188973,
			"0.009": 1.86458334039,
			"0.01": 2.1913760379,
			"0.011": 1.87030664134,
			"0.012": 1.94006466696,
			"0.013": 1.6185037254,
			"0.014": 1.37511968396,
			"0.015": 1.09634501517,
			"0.016": 1.85025866328,
			"0.017": 1.25271465856,
			"0.018": 0.40783813389,
			"0.019": 0.388582852152,
			"0.02": 0.0339022562093,
			"0.021": 0.0,
			"0.022": 0.0,
			"0.023": 0.0,
			"0.024": 0.0,
			"0.025": 0.0
		}
	}
}
