{
	 "smiles": "CC1=CNC(=S)N=C1", 
	 "Tm": 513.15, 
	 "num_atms": 14, 
	 "gaussian": { 
		 "optdone": 1, 
		 "sigma_profile": "yes", 
		 "theory": "DFT", 
		 "functional": "B3LYP", 
		 "basiset": "6-31G**", 
		 "properties": { 
			 "R2extent": 3364.6462, 
			 "electric_dipole_moment_norm": 7.53592487489, 
			 "electric_quadrupole_moment_norm": 33.3930948346, 
			 "total_energy": -701.830484866, 
			 "HOMO_LUMO_gap": 0.13134, 
			 "cosmo_polarized_energy": -23.17, 
			 "cosmo_cavitation_energy": 19.87, 
			 "cosmo_dispersion_energy": -15.42, 
			 "cosmo_repulsion_energy": 1.23, 
			 "cosmo_total_nonelectrostatic_energy": 5.68, 
			 "SMD_solvation_energy": 1.32 
		},
		"coords": [
			{
				"x": -0.696047769,
				"y": -1.0241195406,
				"z": -1.4691075256,
				"element": "C" 
			},
			{
				"x": -0.2044826936,
				"y": 0.3526574865,
				"z": -1.8228345201,
				"element": "C" 
			},
			{
				"x": -0.7112698498,
				"y": 1.0942358997,
				"z": -2.8548706412,
				"element": "C" 
			},
			{
				"x": -0.2117437746,
				"y": 2.3308438292,
				"z": -3.1092454754,
				"element": "N" 
			},
			{
				"x": 0.8156612703,
				"y": 2.9333310031,
				"z": -2.3774837553,
				"element": "C" 
			},
			{
				"x": 1.3383078379,
				"y": 4.461175803,
				"z": -2.7959094855,
				"element": "S" 
			},
			{
				"x": 1.3289323278,
				"y": 2.1910000776,
				"z": -1.3386703682,
				"element": "N" 
			},
			{
				"x": 0.8449532565,
				"y": 0.9978447876,
				"z": -1.0954669252,
				"element": "C" 
			},
			{
				"x": -1.4994063327,
				"y": -1.3430237205,
				"z": -2.138918109,
				"element": "H" 
			},
			{
				"x": 0.1083627011,
				"y": -1.7653423272,
				"z": -1.5369446422,
				"element": "H" 
			},
			{
				"x": -1.082923074,
				"y": -1.0592656615,
				"z": -0.4443235427,
				"element": "H" 
			},
			{
				"x": -1.510068603,
				"y": 0.7534433759,
				"z": -3.5058898022,
				"element": "H" 
			},
			{
				"x": -0.5796405859,
				"y": 2.8885091127,
				"z": -3.8709992745,
				"element": "H" 
			},
			{
				"x": 1.299065289,
				"y": 0.4658098745,
				"z": -0.256735933,
				"element": "H" 
			}
		],
		 "valence_orbital": [ 
			{
				"type": "occ",
				"energy": -0.3519,
				"method": "rhf"
			},
			{
				"type": "occ",
				"energy": -0.31205,
				"method": "rhf"
			},
			{
				"type": "occ",
				"energy": -0.27424,
				"method": "rhf"
			},
			{
				"type": "occ",
				"energy": -0.20958,
				"method": "rhf"
			},
			{
				"type": "occ",
				"energy": -0.20377,
				"method": "rhf"
			},
			{
				"type": "unocc",
				"energy": -0.07243,
				"method": "rhf"
			},
			{
				"type": "unocc",
				"energy": -0.03315,
				"method": "rhf"
			},
			{
				"type": "unocc",
				"energy": 0.05203,
				"method": "rhf"
			},
			{
				"type": "unocc",
				"energy": 0.0859,
				"method": "rhf"
			},
			{
				"type": "unocc",
				"energy": 0.08665,
				"method": "rhf"
			}
		],
		"cosmo_sigma_profile": { 
			"-0.025": 0.0,
			"-0.024": 0.0,
			"-0.023": 0.0,
			"-0.022": 0.0,
			"-0.021": 0.0,
			"-0.02": 0.0,
			"-0.019": 0.0,
			"-0.018": 0.496795237371,
			"-0.017": 1.29880597453,
			"-0.016": 1.18923246554,
			"-0.015": 1.52235233819,
			"-0.014": 0.92513346218,
			"-0.013": 0.965085321907,
			"-0.012": 1.61112595091,
			"-0.011": 2.73253203411,
			"-0.01": 2.93063645359,
			"-0.009": 2.64367457582,
			"-0.008": 4.07058390267,
			"-0.007": 5.41175021555,
			"-0.006": 7.20773350676,
			"-0.005": 12.098548155,
			"-0.004": 11.6305454784,
			"-0.003": 14.2787212194,
			"-0.002": 16.2623511079,
			"-0.001": 12.8970030185,
			"0.0": 3.35327376465,
			"0.001": 2.30850772137,
			"0.002": 1.33209296783,
			"0.003": 2.73161049058,
			"0.004": 3.0471063784,
			"0.005": 3.47412069096,
			"0.006": 3.8281046651,
			"0.007": 3.98892330057,
			"0.008": 4.60118989708,
			"0.009": 4.90062621475,
			"0.01": 7.7364539436,
			"0.011": 6.92809885269,
			"0.012": 4.22800894192,
			"0.013": 2.70116474156,
			"0.014": 2.77468690039,
			"0.015": 2.19369795908,
			"0.016": 1.09414298971,
			"0.017": 0.226518678406,
			"0.018": 0.0,
			"0.019": 0.0,
			"0.02": 0.0,
			"0.021": 0.0,
			"0.022": 0.0,
			"0.023": 0.0,
			"0.024": 0.0,
			"0.025": 0.0
		}
	}
}
