{
	 "smiles": "OC(=O)C1=C(Cl)C=CC(S)=C1", 
	 "Tm": 428.15, 
	 "num_atms": 16, 
	 "gaussian": { 
		 "optdone": 1, 
		 "sigma_profile": "yes", 
		 "theory": "DFT", 
		 "functional": "B3LYP", 
		 "basiset": "6-31G**", 
		 "properties": { 
			 "R2extent": 2613.3765, 
			 "electric_dipole_moment_norm": 0.478723490128, 
			 "electric_quadrupole_moment_norm": 4.66948704035, 
			 "total_energy": -1278.59113815, 
			 "HOMO_LUMO_gap": 0.16791, 
			 "cosmo_polarized_energy": -10.91, 
			 "cosmo_cavitation_energy": 24.28, 
			 "cosmo_dispersion_energy": -18.7, 
			 "cosmo_repulsion_energy": 1.45, 
			 "cosmo_total_nonelectrostatic_energy": 7.03, 
			 "SMD_solvation_energy": 4.7 
		},
		"coords": [
			{
				"x": 2.0514434275,
				"y": -1.1977653769,
				"z": 1.3942023372,
				"element": "O" 
			},
			{
				"x": 1.5760560768,
				"y": 0.0536110557,
				"z": 1.2611487417,
				"element": "C" 
			},
			{
				"x": 2.0514915256,
				"y": 0.9887431148,
				"z": 1.8779708119,
				"element": "O" 
			},
			{
				"x": 0.4301091873,
				"y": 0.2074972249,
				"z": 0.3067685117,
				"element": "C" 
			},
			{
				"x": -0.2022862855,
				"y": -0.7922565391,
				"z": -0.4569759303,
				"element": "C" 
			},
			{
				"x": 0.2491274185,
				"y": -2.4850103073,
				"z": -0.4373152174,
				"element": "Cl" 
			},
			{
				"x": -1.2657535759,
				"y": -0.4530718207,
				"z": -1.2997756587,
				"element": "C" 
			},
			{
				"x": -1.7120548508,
				"y": 0.8583156268,
				"z": -1.3980169239,
				"element": "C" 
			},
			{
				"x": -1.0964617505,
				"y": 1.8690348043,
				"z": -0.6462496338,
				"element": "C" 
			},
			{
				"x": -1.7108092399,
				"y": 3.5355594286,
				"z": -0.8117070658,
				"element": "S" 
			},
			{
				"x": -0.0382483345,
				"y": 1.5284421671,
				"z": 0.1918044364,
				"element": "C" 
			},
			{
				"x": 2.7787584862,
				"y": -1.131386775,
				"z": 2.0361701547,
				"element": "H" 
			},
			{
				"x": -1.7429896048,
				"y": -1.2333307527,
				"z": -1.881796165,
				"element": "H" 
			},
			{
				"x": -2.5399668953,
				"y": 1.0916216044,
				"z": -2.0609328777,
				"element": "H" 
			},
			{
				"x": -0.8520526594,
				"y": 4.1075815014,
				"z": 0.0528668339,
				"element": "H" 
			},
			{
				"x": 0.4694370747,
				"y": 2.2744150436,
				"z": 0.7928376449,
				"element": "H" 
			}
		],
		 "valence_orbital": [ 
			{
				"type": "occ",
				"energy": -0.31176,
				"method": "rhf"
			},
			{
				"type": "occ",
				"energy": -0.29532,
				"method": "rhf"
			},
			{
				"type": "occ",
				"energy": -0.28784,
				"method": "rhf"
			},
			{
				"type": "occ",
				"energy": -0.27882,
				"method": "rhf"
			},
			{
				"type": "occ",
				"energy": -0.23122,
				"method": "rhf"
			},
			{
				"type": "unocc",
				"energy": -0.06331,
				"method": "rhf"
			},
			{
				"type": "unocc",
				"energy": -0.02567,
				"method": "rhf"
			},
			{
				"type": "unocc",
				"energy": 0.00059,
				"method": "rhf"
			},
			{
				"type": "unocc",
				"energy": 0.02912,
				"method": "rhf"
			},
			{
				"type": "unocc",
				"energy": 0.04206,
				"method": "rhf"
			}
		],
		"cosmo_sigma_profile": { 
			"-0.025": 0.0,
			"-0.024": 0.0,
			"-0.023": 0.0,
			"-0.022": 0.0,
			"-0.021": 0.0,
			"-0.02": 0.0,
			"-0.019": 0.340283802017,
			"-0.018": 0.863097570272,
			"-0.017": 1.01491989818,
			"-0.016": 0.910252442634,
			"-0.015": 0.538332515184,
			"-0.014": 0.393810010805,
			"-0.013": 0.293640575596,
			"-0.012": 1.34568100483,
			"-0.011": 4.32459270505,
			"-0.01": 2.51880145513,
			"-0.009": 2.8434383837,
			"-0.008": 5.79337803506,
			"-0.007": 6.83828231038,
			"-0.006": 6.7139502951,
			"-0.005": 5.52463370449,
			"-0.004": 5.93943836845,
			"-0.003": 9.15008419912,
			"-0.002": 11.9275337792,
			"-0.001": 11.2033449704,
			"0.0": 16.4015011347,
			"0.001": 20.7686922315,
			"0.002": 21.6399583891,
			"0.003": 12.4558258356,
			"0.004": 13.0748590892,
			"0.005": 8.34189540674,
			"0.006": 6.20327324187,
			"0.007": 5.11996133741,
			"0.008": 5.8998046564,
			"0.009": 2.65840201425,
			"0.01": 2.25433720424,
			"0.011": 4.43150576957,
			"0.012": 1.80072267469,
			"0.013": 0.0,
			"0.014": 0.0,
			"0.015": 0.0,
			"0.016": 0.0,
			"0.017": 0.0,
			"0.018": 0.0,
			"0.019": 0.0,
			"0.02": 0.0,
			"0.021": 0.0,
			"0.022": 0.0,
			"0.023": 0.0,
			"0.024": 0.0,
			"0.025": 0.0
		}
	}
}
