{
	 "smiles": "FS(=O)(=O)CC1CCOCC1", 
	 "Tm": 327.15, 
	 "num_atms": 22, 
	 "gaussian": { 
		 "optdone": 1, 
		 "sigma_profile": "yes", 
		 "theory": "DFT", 
		 "functional": "B3LYP", 
		 "basiset": "6-31G**", 
		 "properties": { 
			 "R2extent": 3756.5981, 
			 "electric_dipole_moment_norm": 3.52193051891, 
			 "electric_quadrupole_moment_norm": 14.6438981856, 
			 "total_energy": -958.904672152, 
			 "HOMO_LUMO_gap": 0.26992, 
			 "cosmo_polarized_energy": -12.2, 
			 "cosmo_cavitation_energy": 25.57, 
			 "cosmo_dispersion_energy": -19.45, 
			 "cosmo_repulsion_energy": 1.49, 
			 "cosmo_total_nonelectrostatic_energy": 7.61, 
			 "SMD_solvation_energy": 3.28 
		},
		"coords": [
			{
				"x": 1.3647969915,
				"y": 1.9028774214,
				"z": -4.3332232742,
				"element": "F" 
			},
			{
				"x": 1.1960881229,
				"y": 2.3894451495,
				"z": -2.7901794922,
				"element": "S" 
			},
			{
				"x": 2.5315607642,
				"y": 2.4275600367,
				"z": -2.2204422488,
				"element": "O" 
			},
			{
				"x": 0.3437948424,
				"y": 3.5647914755,
				"z": -2.828687237,
				"element": "O" 
			},
			{
				"x": 0.3046904158,
				"y": 0.9362777461,
				"z": -2.1954674708,
				"element": "C" 
			},
			{
				"x": 0.1332335451,
				"y": 0.9267058688,
				"z": -0.6696779786,
				"element": "C" 
			},
			{
				"x": -0.4046458407,
				"y": -0.4482869528,
				"z": -0.2242811964,
				"element": "C" 
			},
			{
				"x": -0.6550080836,
				"y": -0.4575331136,
				"z": 1.2875882265,
				"element": "C" 
			},
			{
				"x": -1.5424764237,
				"y": 0.5771159421,
				"z": 1.6791482976,
				"element": "O" 
			},
			{
				"x": -1.0264585247,
				"y": 1.8633443842,
				"z": 1.3630284769,
				"element": "C" 
			},
			{
				"x": -0.7987761265,
				"y": 2.0340548862,
				"z": -0.1415813523,
				"element": "C" 
			},
			{
				"x": 0.9003994347,
				"y": 0.083810788,
				"z": -2.5337063275,
				"element": "H" 
			},
			{
				"x": -0.653989623,
				"y": 0.9342786398,
				"z": -2.7219473899,
				"element": "H" 
			},
			{
				"x": 1.1279634202,
				"y": 1.0616327356,
				"z": -0.222712115,
				"element": "H" 
			},
			{
				"x": 0.3015768989,
				"y": -1.2454747165,
				"z": -0.488147139,
				"element": "H" 
			},
			{
				"x": -1.3501365417,
				"y": -0.6598537313,
				"z": -0.7402060125,
				"element": "H" 
			},
			{
				"x": -1.1189512961,
				"y": -1.397788407,
				"z": 1.599087218,
				"element": "H" 
			},
			{
				"x": 0.3051623601,
				"y": -0.3592090667,
				"z": 1.8240585582,
				"element": "H" 
			},
			{
				"x": -0.0812783591,
				"y": 2.0347064171,
				"z": 1.9072841704,
				"element": "H" 
			},
			{
				"x": -1.7600957283,
				"y": 2.5865819568,
				"z": 1.729327367,
				"element": "H" 
			},
			{
				"x": -1.7659375925,
				"y": 1.9723730557,
				"z": -0.6570141642,
				"element": "H" 
			},
			{
				"x": -0.3897126559,
				"y": 3.0292894845,
				"z": -0.3428489162,
				"element": "H" 
			}
		],
		 "valence_orbital": [ 
			{
				"type": "occ",
				"energy": -0.34224,
				"method": "rhf"
			},
			{
				"type": "occ",
				"energy": -0.3309,
				"method": "rhf"
			},
			{
				"type": "occ",
				"energy": -0.32592,
				"method": "rhf"
			},
			{
				"type": "occ",
				"energy": -0.31232,
				"method": "rhf"
			},
			{
				"type": "occ",
				"energy": -0.26253,
				"method": "rhf"
			},
			{
				"type": "unocc",
				"energy": 0.00739,
				"method": "rhf"
			},
			{
				"type": "unocc",
				"energy": 0.0336,
				"method": "rhf"
			},
			{
				"type": "unocc",
				"energy": 0.07649,
				"method": "rhf"
			},
			{
				"type": "unocc",
				"energy": 0.08092,
				"method": "rhf"
			},
			{
				"type": "unocc",
				"energy": 0.08987,
				"method": "rhf"
			}
		],
		"cosmo_sigma_profile": { 
			"-0.025": 0.0,
			"-0.024": 0.0,
			"-0.023": 0.0,
			"-0.022": 0.0,
			"-0.021": 0.0,
			"-0.02": 0.0,
			"-0.019": 0.0,
			"-0.018": 0.0,
			"-0.017": 0.0,
			"-0.016": 0.0,
			"-0.015": 0.0,
			"-0.014": 0.0,
			"-0.013": 0.0,
			"-0.012": 0.0,
			"-0.011": 0.0,
			"-0.01": 1.41651992084,
			"-0.009": 4.7645960628,
			"-0.008": 4.11035135568,
			"-0.007": 5.30104874859,
			"-0.006": 5.53914210197,
			"-0.005": 14.2033651101,
			"-0.004": 24.6503863792,
			"-0.003": 25.1342476798,
			"-0.002": 17.3460639294,
			"-0.001": 11.9436028995,
			"0.0": 7.36209921952,
			"0.001": 6.27663603926,
			"0.002": 10.8888010138,
			"0.003": 12.430000954,
			"0.004": 4.3139231831,
			"0.005": 5.00747333729,
			"0.006": 4.31785514223,
			"0.007": 4.59747861412,
			"0.008": 8.31910823677,
			"0.009": 12.6599842731,
			"0.01": 4.04947301586,
			"0.011": 0.946822545932,
			"0.012": 1.4394479153,
			"0.013": 1.97039519324,
			"0.014": 0.720090291674,
			"0.015": 0.0,
			"0.016": 0.0,
			"0.017": 0.0,
			"0.018": 0.0,
			"0.019": 0.0,
			"0.02": 0.0,
			"0.021": 0.0,
			"0.022": 0.0,
			"0.023": 0.0,
			"0.024": 0.0,
			"0.025": 0.0
		}
	}
}
