{
	 "smiles": "NC(=S)C1=C(Cl)C=C(C=C1Cl)C(F)(F)F", 
	 "Tm": 450.15, 
	 "num_atms": 19, 
	 "gaussian": { 
		 "optdone": 1, 
		 "sigma_profile": "yes", 
		 "theory": "DFT", 
		 "functional": "B3LYP", 
		 "basiset": "6-31G**", 
		 "properties": { 
			 "R2extent": 5214.5144, 
			 "electric_dipole_moment_norm": 3.98519649076, 
			 "electric_quadrupole_moment_norm": 15.0155517355, 
			 "total_energy": -1980.10939553, 
			 "HOMO_LUMO_gap": 0.16404, 
			 "cosmo_polarized_energy": -15.59, 
			 "cosmo_cavitation_energy": 31.05, 
			 "cosmo_dispersion_energy": -21.76, 
			 "cosmo_repulsion_energy": 1.63, 
			 "cosmo_total_nonelectrostatic_energy": 10.92, 
			 "SMD_solvation_energy": 4.87 
		},
		"coords": [
			{
				"x": 0.5871455316,
				"y": 1.5160518135,
				"z": 2.2361491012,
				"element": "N" 
			},
			{
				"x": 1.405346303,
				"y": 1.2519038947,
				"z": 1.2023629187,
				"element": "C" 
			},
			{
				"x": 3.0464797359,
				"y": 1.4597146012,
				"z": 1.2278036435,
				"element": "S" 
			},
			{
				"x": 0.7046990636,
				"y": 0.7358499898,
				"z": -0.0243798054,
				"element": "C" 
			},
			{
				"x": 0.243639338,
				"y": 1.6070697919,
				"z": -1.0265885656,
				"element": "C" 
			},
			{
				"x": 0.4057368413,
				"y": 3.3382451227,
				"z": -0.823888543,
				"element": "Cl" 
			},
			{
				"x": -0.351950771,
				"y": 1.1369217001,
				"z": -2.1938407383,
				"element": "C" 
			},
			{
				"x": -0.5058262942,
				"y": -0.2366440753,
				"z": -2.3733679981,
				"element": "C" 
			},
			{
				"x": -0.0778437371,
				"y": -1.1327952185,
				"z": -1.395448909,
				"element": "C" 
			},
			{
				"x": 0.5151252402,
				"y": -0.6408680201,
				"z": -0.2358603028,
				"element": "C" 
			},
			{
				"x": 1.0254315563,
				"y": -1.7916483896,
				"z": 0.9805608518,
				"element": "Cl" 
			},
			{
				"x": -1.2036094017,
				"y": -0.7544952947,
				"z": -3.6061301725,
				"element": "C" 
			},
			{
				"x": -1.0124228951,
				"y": 0.0592883748,
				"z": -4.6645029082,
				"element": "F" 
			},
			{
				"x": -2.5380374046,
				"y": -0.8456171336,
				"z": -3.4100271489,
				"element": "F" 
			},
			{
				"x": -0.76705498,
				"y": -1.9848190178,
				"z": -3.9447563213,
				"element": "F" 
			},
			{
				"x": -0.4105664736,
				"y": 1.3739783358,
				"z": 2.1761736241,
				"element": "H" 
			},
			{
				"x": 0.9831563662,
				"y": 1.8665887437,
				"z": 3.0974450923,
				"element": "H" 
			},
			{
				"x": -0.6834873947,
				"y": 1.8353239956,
				"z": -2.9521010134,
				"element": "H" 
			},
			{
				"x": -0.1960606242,
				"y": -2.200449214,
				"z": -1.532502805,
				"element": "H" 
			}
		],
		 "valence_orbital": [ 
			{
				"type": "occ",
				"energy": -0.32903,
				"method": "rhf"
			},
			{
				"type": "occ",
				"energy": -0.28881,
				"method": "rhf"
			},
			{
				"type": "occ",
				"energy": -0.27166,
				"method": "rhf"
			},
			{
				"type": "occ",
				"energy": -0.24723,
				"method": "rhf"
			},
			{
				"type": "occ",
				"energy": -0.22266,
				"method": "rhf"
			},
			{
				"type": "unocc",
				"energy": -0.05862,
				"method": "rhf"
			},
			{
				"type": "unocc",
				"energy": -0.05185,
				"method": "rhf"
			},
			{
				"type": "unocc",
				"energy": -0.04544,
				"method": "rhf"
			},
			{
				"type": "unocc",
				"energy": -0.00785,
				"method": "rhf"
			},
			{
				"type": "unocc",
				"energy": 0.03411,
				"method": "rhf"
			}
		],
		"cosmo_sigma_profile": { 
			"-0.025": 0.0,
			"-0.024": 0.0,
			"-0.023": 0.0,
			"-0.022": 0.0,
			"-0.021": 0.0,
			"-0.02": 0.0,
			"-0.019": 0.0,
			"-0.018": 0.0,
			"-0.017": 0.601737661534,
			"-0.016": 2.10483177694,
			"-0.015": 2.43745368658,
			"-0.014": 2.63201087506,
			"-0.013": 2.99621134827,
			"-0.012": 1.90541280993,
			"-0.011": 2.05559897301,
			"-0.01": 1.99286710193,
			"-0.009": 2.90018062873,
			"-0.008": 4.9310069766,
			"-0.007": 4.85726916533,
			"-0.006": 5.37226775016,
			"-0.005": 6.31307029558,
			"-0.004": 6.84731204745,
			"-0.003": 10.9972675644,
			"-0.002": 16.7366910491,
			"-0.001": 22.2114619543,
			"0.0": 21.4314215762,
			"0.001": 18.0097181553,
			"0.002": 39.1523557077,
			"0.003": 33.3283508928,
			"0.004": 11.3906467782,
			"0.005": 6.8876738777,
			"0.006": 6.77694283878,
			"0.007": 7.16991854348,
			"0.008": 5.30114213773,
			"0.009": 4.17878301076,
			"0.01": 3.3422348669,
			"0.011": 1.66718514713,
			"0.012": 0.10219729041,
			"0.013": 0.0,
			"0.014": 0.0,
			"0.015": 0.0,
			"0.016": 0.0,
			"0.017": 0.0,
			"0.018": 0.0,
			"0.019": 0.0,
			"0.02": 0.0,
			"0.021": 0.0,
			"0.022": 0.0,
			"0.023": 0.0,
			"0.024": 0.0,
			"0.025": 0.0
		}
	}
}
