{
	 "smiles": "CC1=CC(O)=NC(O)=N1", 
	 "Tm": 591.15, 
	 "num_atms": 15, 
	 "gaussian": { 
		 "optdone": 1, 
		 "sigma_profile": "yes", 
		 "theory": "DFT", 
		 "functional": "B3LYP", 
		 "basiset": "6-31G**", 
		 "properties": { 
			 "R2extent": 2079.5664, 
			 "electric_dipole_moment_norm": 1.58301937133, 
			 "electric_quadrupole_moment_norm": 6.04029287618, 
			 "total_energy": -454.121768297, 
			 "HOMO_LUMO_gap": 0.22137, 
			 "cosmo_polarized_energy": -10.72, 
			 "cosmo_cavitation_energy": 19.51, 
			 "cosmo_dispersion_energy": -14.94, 
			 "cosmo_repulsion_energy": 1.24, 
			 "cosmo_total_nonelectrostatic_energy": 5.82, 
			 "SMD_solvation_energy": 1.79 
		},
		"coords": [
			{
				"x": -0.771517592,
				"y": 4.1349664043,
				"z": 1.9689655609,
				"element": "C" 
			},
			{
				"x": -0.7669734265,
				"y": 2.8944109471,
				"z": 1.1144493679,
				"element": "C" 
			},
			{
				"x": -0.1863609811,
				"y": 2.8848869613,
				"z": -0.1518998105,
				"element": "C" 
			},
			{
				"x": -0.245976347,
				"y": 1.6729839635,
				"z": -0.847652762,
				"element": "C" 
			},
			{
				"x": 0.2933058139,
				"y": 1.5885567187,
				"z": -2.0753471853,
				"element": "O" 
			},
			{
				"x": -0.8168129492,
				"y": 0.5727899503,
				"z": -0.3578578198,
				"element": "N" 
			},
			{
				"x": -1.3375630691,
				"y": 0.7039710802,
				"z": 0.861656115,
				"element": "C" 
			},
			{
				"x": -1.9158429876,
				"y": -0.3993714865,
				"z": 1.3645788205,
				"element": "O" 
			},
			{
				"x": -1.3500362983,
				"y": 1.7958274434,
				"z": 1.6317800176,
				"element": "N" 
			},
			{
				"x": -1.2892498369,
				"y": 4.9559187105,
				"z": 1.4611647047,
				"element": "H" 
			},
			{
				"x": 0.2507618238,
				"y": 4.4726164182,
				"z": 2.1709781192,
				"element": "H" 
			},
			{
				"x": -1.271853681,
				"y": 3.9327767204,
				"z": 2.9168366264,
				"element": "H" 
			},
			{
				"x": 0.2869941487,
				"y": 3.7565321529,
				"z": -0.5856069503,
				"element": "H" 
			},
			{
				"x": 0.144791757,
				"y": 0.6763083732,
				"z": -2.3741202486,
				"element": "H" 
			},
			{
				"x": -2.2414663746,
				"y": -0.1472743576,
				"z": 2.2426754442,
				"element": "H" 
			}
		],
		 "valence_orbital": [ 
			{
				"type": "occ",
				"energy": -0.33171,
				"method": "rhf"
			},
			{
				"type": "occ",
				"energy": -0.3206,
				"method": "rhf"
			},
			{
				"type": "occ",
				"energy": -0.28646,
				"method": "rhf"
			},
			{
				"type": "occ",
				"energy": -0.26408,
				"method": "rhf"
			},
			{
				"type": "occ",
				"energy": -0.2441,
				"method": "rhf"
			},
			{
				"type": "unocc",
				"energy": -0.02273,
				"method": "rhf"
			},
			{
				"type": "unocc",
				"energy": 0.00074,
				"method": "rhf"
			},
			{
				"type": "unocc",
				"energy": 0.08463,
				"method": "rhf"
			},
			{
				"type": "unocc",
				"energy": 0.09064,
				"method": "rhf"
			},
			{
				"type": "unocc",
				"energy": 0.11303,
				"method": "rhf"
			}
		],
		"cosmo_sigma_profile": { 
			"-0.025": 0.0,
			"-0.024": 0.0,
			"-0.023": 0.0,
			"-0.022": 0.0,
			"-0.021": 0.0,
			"-0.02": 0.0,
			"-0.019": 0.0,
			"-0.018": 0.545147536197,
			"-0.017": 1.43911295786,
			"-0.016": 1.82424766831,
			"-0.015": 1.65128305379,
			"-0.014": 1.00825561754,
			"-0.013": 1.09719141201,
			"-0.012": 0.498512317905,
			"-0.011": 1.98327969679,
			"-0.01": 2.03470999651,
			"-0.009": 1.10641180598,
			"-0.008": 0.511883142214,
			"-0.007": 2.74095900075,
			"-0.006": 4.71817647906,
			"-0.005": 8.88637715012,
			"-0.004": 8.86448575207,
			"-0.003": 9.09066195668,
			"-0.002": 11.5254177194,
			"-0.001": 16.4984504321,
			"0.0": 13.8107950952,
			"0.001": 10.8176931603,
			"0.002": 7.44518104201,
			"0.003": 6.36515062517,
			"0.004": 4.99034536857,
			"0.005": 4.02622174731,
			"0.006": 4.33878142327,
			"0.007": 4.830613688,
			"0.008": 4.11716138489,
			"0.009": 5.22250614127,
			"0.01": 4.96307072898,
			"0.011": 4.22576198182,
			"0.012": 2.49274454681,
			"0.013": 1.31479793523,
			"0.014": 0.159407268791,
			"0.015": 0.0,
			"0.016": 0.0,
			"0.017": 0.0,
			"0.018": 0.0,
			"0.019": 0.0,
			"0.02": 0.0,
			"0.021": 0.0,
			"0.022": 0.0,
			"0.023": 0.0,
			"0.024": 0.0,
			"0.025": 0.0
		}
	}
}
