{
	 "smiles": "CC(N1C(S)=NN=C1C1=CC=CC=C1)C1=CC=CC=C1", 
	 "Tm": 475.15, 
	 "num_atms": 35, 
	 "gaussian": { 
		 "optdone": 1, 
		 "sigma_profile": "yes", 
		 "theory": "DFT", 
		 "functional": "B3LYP", 
		 "basiset": "6-31G**", 
		 "properties": { 
			 "R2extent": 6725.2921, 
			 "electric_dipole_moment_norm": 4.98387391694, 
			 "electric_quadrupole_moment_norm": 19.1463734663, 
			 "total_energy": -1181.16371203, 
			 "HOMO_LUMO_gap": 0.18798, 
			 "cosmo_polarized_energy": -16.87, 
			 "cosmo_cavitation_energy": 39.52, 
			 "cosmo_dispersion_energy": -27.56, 
			 "cosmo_repulsion_energy": 2.07, 
			 "cosmo_total_nonelectrostatic_energy": 14.04, 
			 "SMD_solvation_energy": 4.55 
		},
		"coords": [
			{
				"x": -1.2263310694,
				"y": -1.0939535091,
				"z": -0.537723949,
				"element": "C" 
			},
			{
				"x": 0.0625351279,
				"y": -0.2915825746,
				"z": -0.3066951189,
				"element": "C" 
			},
			{
				"x": 0.2261075582,
				"y": 0.7363378671,
				"z": -1.3584179519,
				"element": "N" 
			},
			{
				"x": 0.4073831603,
				"y": 0.5380203535,
				"z": -2.7080788716,
				"element": "C" 
			},
			{
				"x": 0.8372304061,
				"y": -1.0127918742,
				"z": -3.443108275,
				"element": "S" 
			},
			{
				"x": 0.2449615073,
				"y": 1.6551425272,
				"z": -3.3803150965,
				"element": "N" 
			},
			{
				"x": -0.0618554429,
				"y": 2.6361856245,
				"z": -2.4652963505,
				"element": "N" 
			},
			{
				"x": -0.0692906003,
				"y": 2.0917059548,
				"z": -1.2668540821,
				"element": "C" 
			},
			{
				"x": -0.3448521047,
				"y": 2.8455124786,
				"z": -0.0324886959,
				"element": "C" 
			},
			{
				"x": -1.3548219832,
				"y": 3.8219736293,
				"z": -0.0611690888,
				"element": "C" 
			},
			{
				"x": -1.6254123089,
				"y": 4.5910619275,
				"z": 1.0680690509,
				"element": "C" 
			},
			{
				"x": -0.8963227724,
				"y": 4.397043638,
				"z": 2.2440653748,
				"element": "C" 
			},
			{
				"x": 0.1183656088,
				"y": 3.4395206717,
				"z": 2.2782542145,
				"element": "C" 
			},
			{
				"x": 0.3998478154,
				"y": 2.6731175346,
				"z": 1.1469606423,
				"element": "C" 
			},
			{
				"x": 1.3391278376,
				"y": -1.1157450627,
				"z": -0.1307205992,
				"element": "C" 
			},
			{
				"x": 1.2969757739,
				"y": -2.4845819272,
				"z": 0.1623405468,
				"element": "C" 
			},
			{
				"x": 2.4736971741,
				"y": -3.2023281655,
				"z": 0.3887510818,
				"element": "C" 
			},
			{
				"x": 3.7113771885,
				"y": -2.5638170822,
				"z": 0.3255961191,
				"element": "C" 
			},
			{
				"x": 3.7657804751,
				"y": -1.200153245,
				"z": 0.0307367587,
				"element": "C" 
			},
			{
				"x": 2.5913599162,
				"y": -0.4844411757,
				"z": -0.1950316119,
				"element": "C" 
			},
			{
				"x": -1.1586595143,
				"y": -1.7370096791,
				"z": -1.4183963749,
				"element": "H" 
			},
			{
				"x": -2.0626086869,
				"y": -0.4036371694,
				"z": -0.6744745856,
				"element": "H" 
			},
			{
				"x": -1.4470022929,
				"y": -1.7160239893,
				"z": 0.3336910324,
				"element": "H" 
			},
			{
				"x": -0.0848944897,
				"y": 0.2835895875,
				"z": 0.6111261723,
				"element": "H" 
			},
			{
				"x": 0.6304153662,
				"y": -0.5349621003,
				"z": -4.6860164833,
				"element": "H" 
			},
			{
				"x": -1.9123611121,
				"y": 3.9677584668,
				"z": -0.9800438184,
				"element": "H" 
			},
			{
				"x": -2.4098680836,
				"y": 5.3413577626,
				"z": 1.0314525669,
				"element": "H" 
			},
			{
				"x": -1.1122137507,
				"y": 4.9940842283,
				"z": 3.1252432089,
				"element": "H" 
			},
			{
				"x": 0.7039643757,
				"y": 3.2969759039,
				"z": 3.1817937292,
				"element": "H" 
			},
			{
				"x": 1.2221390792,
				"y": 1.9643227252,
				"z": 1.1752114465,
				"element": "H" 
			},
			{
				"x": 0.3469849427,
				"y": -3.0048302825,
				"z": 0.213513272,
				"element": "H" 
			},
			{
				"x": 2.4182021083,
				"y": -4.2641739244,
				"z": 0.6106182552,
				"element": "H" 
			},
			{
				"x": 4.625834021,
				"y": -3.1234075135,
				"z": 0.4988608268,
				"element": "H" 
			},
			{
				"x": 4.7238929137,
				"y": -0.6922530797,
				"z": -0.0298304244,
				"element": "H" 
			},
			{
				"x": 2.6489118559,
				"y": 0.5712814734,
				"z": -0.4430229215,
				"element": "H" 
			}
		],
		 "valence_orbital": [ 
			{
				"type": "occ",
				"energy": -0.26004,
				"method": "rhf"
			},
			{
				"type": "occ",
				"energy": -0.25947,
				"method": "rhf"
			},
			{
				"type": "occ",
				"energy": -0.25342,
				"method": "rhf"
			},
			{
				"type": "occ",
				"energy": -0.24958,
				"method": "rhf"
			},
			{
				"type": "occ",
				"energy": -0.21762,
				"method": "rhf"
			},
			{
				"type": "unocc",
				"energy": -0.02964,
				"method": "rhf"
			},
			{
				"type": "unocc",
				"energy": -0.02083,
				"method": "rhf"
			},
			{
				"type": "unocc",
				"energy": -0.01323,
				"method": "rhf"
			},
			{
				"type": "unocc",
				"energy": -0.00897,
				"method": "rhf"
			},
			{
				"type": "unocc",
				"energy": 0.01822,
				"method": "rhf"
			}
		],
		"cosmo_sigma_profile": { 
			"-0.025": 0.0,
			"-0.024": 0.0,
			"-0.023": 0.0,
			"-0.022": 0.0,
			"-0.021": 0.0,
			"-0.02": 0.0,
			"-0.019": 0.0,
			"-0.018": 0.0,
			"-0.017": 0.0,
			"-0.016": 0.0,
			"-0.015": 0.0,
			"-0.014": 0.0,
			"-0.013": 0.0,
			"-0.012": 0.97778227589,
			"-0.011": 1.48217722573,
			"-0.01": 1.64587598002,
			"-0.009": 1.10335557571,
			"-0.008": 1.71494125937,
			"-0.007": 3.79574699727,
			"-0.006": 20.3902817857,
			"-0.005": 31.168818346,
			"-0.004": 31.2008129289,
			"-0.003": 25.4069678186,
			"-0.002": 23.3655958304,
			"-0.001": 22.8688479127,
			"0.0": 18.9840851808,
			"0.001": 18.7302175624,
			"0.002": 19.4788149293,
			"0.003": 21.2134284984,
			"0.004": 24.6968594628,
			"0.005": 18.5988459006,
			"0.006": 7.07994664097,
			"0.007": 2.84932353347,
			"0.008": 1.77936041521,
			"0.009": 2.29557692274,
			"0.01": 1.97359855646,
			"0.011": 2.21588827397,
			"0.012": 2.63042451794,
			"0.013": 3.28338994029,
			"0.014": 2.7972981475,
			"0.015": 2.54435844616,
			"0.016": 1.96572504765,
			"0.017": 0.299072702953,
			"0.018": 0.0,
			"0.019": 0.0,
			"0.02": 0.0,
			"0.021": 0.0,
			"0.022": 0.0,
			"0.023": 0.0,
			"0.024": 0.0,
			"0.025": 0.0
		}
	}
}
