{
	 "smiles": "CN1N=CC2=C1N=CN(CCC(O)=O)C2=O", 
	 "Tm": 486.15, 
	 "num_atms": 26, 
	 "gaussian": { 
		 "optdone": 1, 
		 "sigma_profile": "yes", 
		 "theory": "DFT", 
		 "functional": "B3LYP", 
		 "basiset": "6-31G**", 
		 "properties": { 
			 "R2extent": 3981.7554, 
			 "electric_dipole_moment_norm": 3.14781922766, 
			 "electric_quadrupole_moment_norm": 13.6289915779, 
			 "total_energy": -793.684790644, 
			 "HOMO_LUMO_gap": 0.19956, 
			 "cosmo_polarized_energy": -17.27, 
			 "cosmo_cavitation_energy": 30.66, 
			 "cosmo_dispersion_energy": -22.3, 
			 "cosmo_repulsion_energy": 1.73, 
			 "cosmo_total_nonelectrostatic_energy": 10.08, 
			 "SMD_solvation_energy": 4.93 
		},
		"coords": [
			{
				"x": 0.8116172774,
				"y": 3.0003777926,
				"z": -3.2441405885,
				"element": "C" 
			},
			{
				"x": -0.0945017676,
				"y": 2.4267507064,
				"z": -2.2687575964,
				"element": "N" 
			},
			{
				"x": -1.441515828,
				"y": 2.6254961716,
				"z": -2.367689705,
				"element": "N" 
			},
			{
				"x": -1.9823076858,
				"y": 1.9792462235,
				"z": -1.3427972836,
				"element": "C" 
			},
			{
				"x": -0.9883236887,
				"y": 1.3467011003,
				"z": -0.556833212,
				"element": "C" 
			},
			{
				"x": 0.2189411718,
				"y": 1.6632780013,
				"z": -1.193106202,
				"element": "C" 
			},
			{
				"x": 1.4721282509,
				"y": 1.2823068749,
				"z": -0.8163354856,
				"element": "N" 
			},
			{
				"x": 1.4785256856,
				"y": 0.5481832627,
				"z": 0.2596319196,
				"element": "C" 
			},
			{
				"x": 0.3742642981,
				"y": 0.1698230966,
				"z": 0.9844388114,
				"element": "N" 
			},
			{
				"x": 0.5269938211,
				"y": -0.6372240242,
				"z": 2.2041849398,
				"element": "C" 
			},
			{
				"x": 0.2039125583,
				"y": -2.1160628955,
				"z": 1.986438652,
				"element": "C" 
			},
			{
				"x": 1.2660509132,
				"y": -2.8398848575,
				"z": 1.188723557,
				"element": "C" 
			},
			{
				"x": 0.8680651315,
				"y": -4.080466301,
				"z": 0.8364102844,
				"element": "O" 
			},
			{
				"x": 2.3598295222,
				"y": -2.3967718703,
				"z": 0.9029062854,
				"element": "O" 
			},
			{
				"x": -0.970099935,
				"y": 0.5346778523,
				"z": 0.6281073495,
				"element": "C" 
			},
			{
				"x": -1.9113083089,
				"y": 0.150102297,
				"z": 1.3123292805,
				"element": "O" 
			},
			{
				"x": 1.8263148822,
				"y": 2.71219191,
				"z": -2.9678362636,
				"element": "H" 
			},
			{
				"x": 0.5768300436,
				"y": 2.621986788,
				"z": -4.2423585729,
				"element": "H" 
			},
			{
				"x": 0.7217698894,
				"y": 4.0897158993,
				"z": -3.244520523,
				"element": "H" 
			},
			{
				"x": -3.0536826669,
				"y": 1.9860986202,
				"z": -1.1988389589,
				"element": "H" 
			},
			{
				"x": 2.4230124895,
				"y": 0.1683159497,
				"z": 0.635755736,
				"element": "H" 
			},
			{
				"x": -0.1607233479,
				"y": -0.228958901,
				"z": 2.9460822862,
				"element": "H" 
			},
			{
				"x": 1.5519935549,
				"y": -0.5210179761,
				"z": 2.5604172138,
				"element": "H" 
			},
			{
				"x": -0.7706735258,
				"y": -2.2297424936,
				"z": 1.504361088,
				"element": "H" 
			},
			{
				"x": 0.1212910639,
				"y": -2.6210583129,
				"z": 2.9574054828,
				"element": "H" 
			},
			{
				"x": 1.6086962008,
				"y": -4.4803649144,
				"z": 0.3495215051,
				"element": "H" 
			}
		],
		 "valence_orbital": [ 
			{
				"type": "occ",
				"energy": -0.29136,
				"method": "rhf"
			},
			{
				"type": "occ",
				"energy": -0.28626,
				"method": "rhf"
			},
			{
				"type": "occ",
				"energy": -0.26442,
				"method": "rhf"
			},
			{
				"type": "occ",
				"energy": -0.25648,
				"method": "rhf"
			},
			{
				"type": "occ",
				"energy": -0.22986,
				"method": "rhf"
			},
			{
				"type": "unocc",
				"energy": -0.0303,
				"method": "rhf"
			},
			{
				"type": "unocc",
				"energy": -0.00974,
				"method": "rhf"
			},
			{
				"type": "unocc",
				"energy": -0.00541,
				"method": "rhf"
			},
			{
				"type": "unocc",
				"energy": 0.04194,
				"method": "rhf"
			},
			{
				"type": "unocc",
				"energy": 0.06809,
				"method": "rhf"
			}
		],
		"cosmo_sigma_profile": { 
			"-0.025": 0.0,
			"-0.024": 0.0,
			"-0.023": 0.0,
			"-0.022": 0.0,
			"-0.021": 0.0,
			"-0.02": 0.0,
			"-0.019": 0.153971587344,
			"-0.018": 0.740640459059,
			"-0.017": 1.02811574032,
			"-0.016": 1.13231474036,
			"-0.015": 0.61271788555,
			"-0.014": 0.798409038038,
			"-0.013": 0.246885491544,
			"-0.012": 0.54422992344,
			"-0.011": 1.17375057083,
			"-0.01": 0.818322984396,
			"-0.009": 2.06383288872,
			"-0.008": 5.93109000198,
			"-0.007": 9.8549852653,
			"-0.006": 16.5967822257,
			"-0.005": 19.2338333945,
			"-0.004": 18.6704573202,
			"-0.003": 22.742978564,
			"-0.002": 14.9886515126,
			"-0.001": 13.6637650224,
			"0.0": 13.0031616847,
			"0.001": 13.7515891851,
			"0.002": 11.8028925982,
			"0.003": 9.1850622815,
			"0.004": 7.4093006026,
			"0.005": 7.74466272587,
			"0.006": 6.36242481508,
			"0.007": 7.21052350592,
			"0.008": 5.06670655005,
			"0.009": 6.2936034991,
			"0.01": 6.46783161994,
			"0.011": 5.69394134794,
			"0.012": 6.21369305797,
			"0.013": 5.12178608237,
			"0.014": 1.55449270418,
			"0.015": 0.570288083663,
			"0.016": 0.0165708056024,
			"0.017": 0.0,
			"0.018": 0.0,
			"0.019": 0.0,
			"0.02": 0.0,
			"0.021": 0.0,
			"0.022": 0.0,
			"0.023": 0.0,
			"0.024": 0.0,
			"0.025": 0.0
		}
	}
}
