{
	 "smiles": "SC1=NN=NN1C1CCCC1", 
	 "Tm": 397.15, 
	 "num_atms": 21, 
	 "gaussian": { 
		 "optdone": 1, 
		 "sigma_profile": "yes", 
		 "theory": "DFT", 
		 "functional": "B3LYP", 
		 "basiset": "6-31G**", 
		 "properties": { 
			 "R2extent": 3258.4962, 
			 "electric_dipole_moment_norm": 5.38986861899, 
			 "electric_quadrupole_moment_norm": 24.3481015866, 
			 "total_energy": -851.801492219, 
			 "HOMO_LUMO_gap": 0.24668, 
			 "cosmo_polarized_energy": -12.24, 
			 "cosmo_cavitation_energy": 24.97, 
			 "cosmo_dispersion_energy": -18.93, 
			 "cosmo_repulsion_energy": 1.48, 
			 "cosmo_total_nonelectrostatic_energy": 7.51, 
			 "SMD_solvation_energy": 1.3 
		},
		"coords": [
			{
				"x": 0.9501837389,
				"y": -0.1244307355,
				"z": 2.5129331945,
				"element": "S" 
			},
			{
				"x": 2.0062396739,
				"y": 1.1941295813,
				"z": 2.0157217862,
				"element": "C" 
			},
			{
				"x": 3.1323233547,
				"y": 1.5364236533,
				"z": 2.6213041814,
				"element": "N" 
			},
			{
				"x": 3.6176418255,
				"y": 2.592983893,
				"z": 1.918329716,
				"element": "N" 
			},
			{
				"x": 2.8450002845,
				"y": 2.8956567592,
				"z": 0.9324906789,
				"element": "N" 
			},
			{
				"x": 1.7995646957,
				"y": 2.0197328572,
				"z": 0.9636552338,
				"element": "N" 
			},
			{
				"x": 0.7457761826,
				"y": 2.108037256,
				"z": -0.0513003241,
				"element": "C" 
			},
			{
				"x": -0.6873786598,
				"y": 2.3384966983,
				"z": 0.5214034967,
				"element": "C" 
			},
			{
				"x": -1.6129218908,
				"y": 1.3876565899,
				"z": -0.2805404824,
				"element": "C" 
			},
			{
				"x": -0.7884230203,
				"y": 0.9717336375,
				"z": -1.5155048041,
				"element": "C" 
			},
			{
				"x": 0.6429789358,
				"y": 0.870854795,
				"z": -0.9697009932,
				"element": "C" 
			},
			{
				"x": 1.731238577,
				"y": -0.4404627569,
				"z": 3.5638399997,
				"element": "H" 
			},
			{
				"x": 1.0491739005,
				"y": 2.9724023712,
				"z": -0.6451690343,
				"element": "H" 
			},
			{
				"x": -0.9691743055,
				"y": 3.3869071707,
				"z": 0.390263782,
				"element": "H" 
			},
			{
				"x": -0.7265975404,
				"y": 2.1355388729,
				"z": 1.5948042729,
				"element": "H" 
			},
			{
				"x": -2.5655072527,
				"y": 1.8555997707,
				"z": -0.5437674699,
				"element": "H" 
			},
			{
				"x": -1.8460131797,
				"y": 0.5003063761,
				"z": 0.3189133802,
				"element": "H" 
			},
			{
				"x": -0.8400480458,
				"y": 1.7499952034,
				"z": -2.287475636,
				"element": "H" 
			},
			{
				"x": -1.1365908856,
				"y": 0.0395618746,
				"z": -1.9694277424,
				"element": "H" 
			},
			{
				"x": 0.7547395787,
				"y": -0.0486714933,
				"z": -0.3831735158,
				"element": "H" 
			},
			{
				"x": 1.4188940329,
				"y": 0.8675476253,
				"z": -1.7400997201,
				"element": "H" 
			}
		],
		 "valence_orbital": [ 
			{
				"type": "occ",
				"energy": -0.33611,
				"method": "rhf"
			},
			{
				"type": "occ",
				"energy": -0.30031,
				"method": "rhf"
			},
			{
				"type": "occ",
				"energy": -0.29324,
				"method": "rhf"
			},
			{
				"type": "occ",
				"energy": -0.2824,
				"method": "rhf"
			},
			{
				"type": "occ",
				"energy": -0.25772,
				"method": "rhf"
			},
			{
				"type": "unocc",
				"energy": -0.01104,
				"method": "rhf"
			},
			{
				"type": "unocc",
				"energy": -0.00775,
				"method": "rhf"
			},
			{
				"type": "unocc",
				"energy": 0.02328,
				"method": "rhf"
			},
			{
				"type": "unocc",
				"energy": 0.04142,
				"method": "rhf"
			},
			{
				"type": "unocc",
				"energy": 0.06775,
				"method": "rhf"
			}
		],
		"cosmo_sigma_profile": { 
			"-0.025": 0.0,
			"-0.024": 0.0,
			"-0.023": 0.0,
			"-0.022": 0.0,
			"-0.021": 0.0,
			"-0.02": 0.0,
			"-0.019": 0.0,
			"-0.018": 0.0,
			"-0.017": 0.0,
			"-0.016": 0.0,
			"-0.015": 0.0,
			"-0.014": 0.0243576904717,
			"-0.013": 1.25018683054,
			"-0.012": 1.76366919055,
			"-0.011": 0.846866351651,
			"-0.01": 1.28955557248,
			"-0.009": 1.18558187321,
			"-0.008": 1.17545944349,
			"-0.007": 2.68450199813,
			"-0.006": 4.27420503005,
			"-0.005": 7.03646567236,
			"-0.004": 17.6302824578,
			"-0.003": 27.5723414688,
			"-0.002": 28.799405971,
			"-0.001": 22.8536411586,
			"0.0": 19.618369788,
			"0.001": 9.4447205511,
			"0.002": 5.18979969582,
			"0.003": 4.81128376773,
			"0.004": 5.04111062267,
			"0.005": 3.90202958565,
			"0.006": 3.11574036954,
			"0.007": 3.59418474736,
			"0.008": 4.14122009146,
			"0.009": 5.45123877127,
			"0.01": 5.30386660228,
			"0.011": 4.01238770204,
			"0.012": 3.30185407701,
			"0.013": 2.17819817139,
			"0.014": 1.65795983775,
			"0.015": 0.227036062786,
			"0.016": 0.0,
			"0.017": 0.0,
			"0.018": 0.0,
			"0.019": 0.0,
			"0.02": 0.0,
			"0.021": 0.0,
			"0.022": 0.0,
			"0.023": 0.0,
			"0.024": 0.0,
			"0.025": 0.0
		}
	}
}
