{
	 "smiles": "ClCC(=O)N1CCC2=C(C1)C1=C(N2)C=CC=C1", 
	 "Tm": 462.15, 
	 "num_atms": 30, 
	 "gaussian": { 
		 "optdone": 1, 
		 "sigma_profile": "yes", 
		 "theory": "DFT", 
		 "functional": "B3LYP", 
		 "basiset": "6-31G**", 
		 "properties": { 
			 "R2extent": 6081.9159, 
			 "electric_dipole_moment_norm": 5.26437585569, 
			 "electric_quadrupole_moment_norm": 23.8102440659, 
			 "total_energy": -1148.15628084, 
			 "HOMO_LUMO_gap": 0.19184, 
			 "cosmo_polarized_energy": -19.07, 
			 "cosmo_cavitation_energy": 34.31, 
			 "cosmo_dispersion_energy": -25.39, 
			 "cosmo_repulsion_energy": 1.97, 
			 "cosmo_total_nonelectrostatic_energy": 10.89, 
			 "SMD_solvation_energy": 4.6 
		},
		"coords": [
			{
				"x": 4.2755639015,
				"y": -0.9173933969,
				"z": -3.3587314464,
				"element": "Cl" 
			},
			{
				"x": 2.8533920595,
				"y": -0.2324305012,
				"z": -2.5138940837,
				"element": "C" 
			},
			{
				"x": 2.8864333518,
				"y": -0.5086011377,
				"z": -0.9986334429,
				"element": "C" 
			},
			{
				"x": 3.7610685077,
				"y": -1.18664429,
				"z": -0.4834973546,
				"element": "O" 
			},
			{
				"x": 1.8574657547,
				"y": 0.0550834859,
				"z": -0.2803875523,
				"element": "N" 
			},
			{
				"x": 1.8520866048,
				"y": -0.1100097954,
				"z": 1.1767549709,
				"element": "C" 
			},
			{
				"x": 0.5538752621,
				"y": -0.7842237381,
				"z": 1.6535890312,
				"element": "C" 
			},
			{
				"x": -0.5917600973,
				"y": -0.0915202118,
				"z": 0.9897716655,
				"element": "C" 
			},
			{
				"x": -0.4859467168,
				"y": 0.6969735768,
				"z": -0.1269243935,
				"element": "C" 
			},
			{
				"x": 0.8171612131,
				"y": 0.9313007302,
				"z": -0.8366125469,
				"element": "C" 
			},
			{
				"x": -1.8030643696,
				"y": 1.1861739041,
				"z": -0.4375404523,
				"element": "C" 
			},
			{
				"x": -2.6785294349,
				"y": 0.6410124584,
				"z": 0.5451472915,
				"element": "C" 
			},
			{
				"x": -1.9122376257,
				"y": -0.1335350656,
				"z": 1.398428487,
				"element": "N" 
			},
			{
				"x": -4.0502203678,
				"y": 0.9071147711,
				"z": 0.5503157016,
				"element": "C" 
			},
			{
				"x": -4.5494473239,
				"y": 1.7352614712,
				"z": -0.4503608218,
				"element": "C" 
			},
			{
				"x": -3.7024738919,
				"y": 2.2847043058,
				"z": -1.4331024115,
				"element": "C" 
			},
			{
				"x": -2.3380010485,
				"y": 2.0185735071,
				"z": -1.4355599295,
				"element": "C" 
			},
			{
				"x": 2.8428441615,
				"y": 0.8403750003,
				"z": -2.7167426023,
				"element": "H" 
			},
			{
				"x": 1.9650270281,
				"y": -0.678506249,
				"z": -2.9669199405,
				"element": "H" 
			},
			{
				"x": 2.7296508919,
				"y": -0.7002203714,
				"z": 1.435711151,
				"element": "H" 
			},
			{
				"x": 1.9415368175,
				"y": 0.8786486472,
				"z": 1.6470030658,
				"element": "H" 
			},
			{
				"x": 0.5726258995,
				"y": -1.8530655928,
				"z": 1.4006288993,
				"element": "H" 
			},
			{
				"x": 0.4874948903,
				"y": -0.7148833439,
				"z": 2.7472168409,
				"element": "H" 
			},
			{
				"x": 0.6962015591,
				"y": 0.7246248216,
				"z": -1.9034026429,
				"element": "H" 
			},
			{
				"x": 1.1257473093,
				"y": 1.9876754148,
				"z": -0.7548084837,
				"element": "H" 
			},
			{
				"x": -2.2573095052,
				"y": -0.6363012553,
				"z": 2.2000127747,
				"element": "H" 
			},
			{
				"x": -4.7048325832,
				"y": 0.4835959034,
				"z": 1.3069894975,
				"element": "H" 
			},
			{
				"x": -5.6113665079,
				"y": 1.9611433204,
				"z": -0.4739352331,
				"element": "H" 
			},
			{
				"x": -4.1256066256,
				"y": 2.9268652884,
				"z": -2.1999036144,
				"element": "H" 
			},
			{
				"x": -1.696679114,
				"y": 2.4508083425,
				"z": -2.1991124245,
				"element": "H" 
			}
		],
		 "valence_orbital": [ 
			{
				"type": "occ",
				"energy": -0.2781,
				"method": "rhf"
			},
			{
				"type": "occ",
				"energy": -0.25788,
				"method": "rhf"
			},
			{
				"type": "occ",
				"energy": -0.24733,
				"method": "rhf"
			},
			{
				"type": "occ",
				"energy": -0.22477,
				"method": "rhf"
			},
			{
				"type": "occ",
				"energy": -0.20674,
				"method": "rhf"
			},
			{
				"type": "unocc",
				"energy": -0.0149,
				"method": "rhf"
			},
			{
				"type": "unocc",
				"energy": 0.01574,
				"method": "rhf"
			},
			{
				"type": "unocc",
				"energy": 0.02231,
				"method": "rhf"
			},
			{
				"type": "unocc",
				"energy": 0.02738,
				"method": "rhf"
			},
			{
				"type": "unocc",
				"energy": 0.05801,
				"method": "rhf"
			}
		],
		"cosmo_sigma_profile": { 
			"-0.025": 0.0,
			"-0.024": 0.0,
			"-0.023": 0.0,
			"-0.022": 0.0,
			"-0.021": 0.0,
			"-0.02": 0.0,
			"-0.019": 0.0,
			"-0.018": 0.0,
			"-0.017": 0.0,
			"-0.016": 0.0814291394831,
			"-0.015": 1.40949253928,
			"-0.014": 1.20566464151,
			"-0.013": 1.35605118032,
			"-0.012": 1.13901347325,
			"-0.011": 1.08559185797,
			"-0.01": 2.3512186387,
			"-0.009": 6.62602744922,
			"-0.008": 8.23664705139,
			"-0.007": 5.70588564664,
			"-0.006": 8.45354744539,
			"-0.005": 19.7672147754,
			"-0.004": 27.4956888157,
			"-0.003": 23.0917445431,
			"-0.002": 18.5767092226,
			"-0.001": 14.5037981775,
			"0.0": 13.6516832665,
			"0.001": 11.2882121319,
			"0.002": 11.1298120631,
			"0.003": 12.8503707894,
			"0.004": 14.5690968948,
			"0.005": 19.4746783037,
			"0.006": 18.8844803472,
			"0.007": 11.3921595946,
			"0.008": 3.45962635053,
			"0.009": 2.00734401229,
			"0.01": 1.91843998805,
			"0.011": 1.79232377925,
			"0.012": 2.86258712468,
			"0.013": 4.62711207144,
			"0.014": 2.80159401307,
			"0.015": 0.799680622003,
			"0.016": 0.0,
			"0.017": 0.0,
			"0.018": 0.0,
			"0.019": 0.0,
			"0.02": 0.0,
			"0.021": 0.0,
			"0.022": 0.0,
			"0.023": 0.0,
			"0.024": 0.0,
			"0.025": 0.0
		}
	}
}
