{
	 "smiles": "CCOC(=O)C(C(C(=O)OCC)C(=O)OCC)C(=O)OCC", 
	 "Tm": 350.15, 
	 "num_atms": 44, 
	 "gaussian": { 
		 "optdone": 1, 
		 "sigma_profile": "yes", 
		 "theory": "DFT", 
		 "functional": "B3LYP", 
		 "basiset": "6-31G**", 
		 "properties": { 
			 "R2extent": 7651.0833, 
			 "electric_dipole_moment_norm": 3.14330446505, 
			 "electric_quadrupole_moment_norm": 24.1019244427, 
			 "total_energy": -1148.595055, 
			 "HOMO_LUMO_gap": 0.25679, 
			 "cosmo_polarized_energy": -17.01, 
			 "cosmo_cavitation_energy": 48.81, 
			 "cosmo_dispersion_energy": -29.84, 
			 "cosmo_repulsion_energy": 2.4, 
			 "cosmo_total_nonelectrostatic_energy": 21.36, 
			 "SMD_solvation_energy": 12.05 
		},
		"coords": [
			{
				"x": 0.7733989796,
				"y": -4.4857086264,
				"z": 1.228154886,
				"element": "C" 
			},
			{
				"x": 1.6263265595,
				"y": -3.5159293362,
				"z": 2.0301638074,
				"element": "C" 
			},
			{
				"x": 1.7759805824,
				"y": -2.2626495054,
				"z": 1.3092866866,
				"element": "O" 
			},
			{
				"x": 0.8864737166,
				"y": -1.290649631,
				"z": 1.5822006229,
				"element": "C" 
			},
			{
				"x": 0.0211700115,
				"y": -1.3493643596,
				"z": 2.4263624524,
				"element": "O" 
			},
			{
				"x": 1.0755681886,
				"y": -0.0998697316,
				"z": 0.6375422981,
				"element": "C" 
			},
			{
				"x": 0.4692142726,
				"y": -0.4064279135,
				"z": -0.7532690934,
				"element": "C" 
			},
			{
				"x": 0.4815769959,
				"y": 0.7803690535,
				"z": -1.7185161999,
				"element": "C" 
			},
			{
				"x": 0.3406821034,
				"y": 0.6476208063,
				"z": -2.9133302156,
				"element": "O" 
			},
			{
				"x": 0.629070523,
				"y": 1.9609128389,
				"z": -1.0894573832,
				"element": "O" 
			},
			{
				"x": 0.6283931617,
				"y": 3.1431508432,
				"z": -1.929542557,
				"element": "C" 
			},
			{
				"x": -0.7889100118,
				"y": 3.6222291587,
				"z": -2.2018119663,
				"element": "C" 
			},
			{
				"x": -0.9592320196,
				"y": -0.9403861235,
				"z": -0.6037194418,
				"element": "C" 
			},
			{
				"x": -1.2510394031,
				"y": -2.1151021028,
				"z": -0.63190626,
				"element": "O" 
			},
			{
				"x": -1.8342624616,
				"y": 0.0573688403,
				"z": -0.3942718989,
				"element": "O" 
			},
			{
				"x": -3.2089399602,
				"y": -0.3434326906,
				"z": -0.1591893823,
				"element": "C" 
			},
			{
				"x": -4.0195048074,
				"y": 0.9189260347,
				"z": 0.0586781552,
				"element": "C" 
			},
			{
				"x": 2.5534872045,
				"y": 0.2622909136,
				"z": 0.5023622743,
				"element": "C" 
			},
			{
				"x": 3.1885523301,
				"y": 0.2166588895,
				"z": -0.5278963592,
				"element": "O" 
			},
			{
				"x": 3.0449275412,
				"y": 0.6473459455,
				"z": 1.694244814,
				"element": "O" 
			},
			{
				"x": 4.4567696536,
				"y": 0.9793345594,
				"z": 1.7393745017,
				"element": "C" 
			},
			{
				"x": 5.3060928787,
				"y": -0.2654202667,
				"z": 1.9428841307,
				"element": "C" 
			},
			{
				"x": 0.6823090017,
				"y": -5.4324417305,
				"z": 1.7711969574,
				"element": "H" 
			},
			{
				"x": 1.2257209005,
				"y": -4.6886606288,
				"z": 0.2534340596,
				"element": "H" 
			},
			{
				"x": -0.2264369146,
				"y": -4.0774282476,
				"z": 1.0633590947,
				"element": "H" 
			},
			{
				"x": 2.6475059171,
				"y": -3.8822356678,
				"z": 2.1593181166,
				"element": "H" 
			},
			{
				"x": 1.1876087191,
				"y": -3.3035825622,
				"z": 3.0070491131,
				"element": "H" 
			},
			{
				"x": 0.5498863716,
				"y": 0.7396950824,
				"z": 1.0948048255,
				"element": "H" 
			},
			{
				"x": 1.0469194335,
				"y": -1.1990010016,
				"z": -1.2300962436,
				"element": "H" 
			},
			{
				"x": 1.1552996849,
				"y": 2.9107393705,
				"z": -2.857579336,
				"element": "H" 
			},
			{
				"x": 1.2006702491,
				"y": 3.8787291874,
				"z": -1.3597562915,
				"element": "H" 
			},
			{
				"x": -1.3242880511,
				"y": 3.8067848607,
				"z": -1.2659751937,
				"element": "H" 
			},
			{
				"x": -0.7604228288,
				"y": 4.5559146031,
				"z": -2.7733866942,
				"element": "H" 
			},
			{
				"x": -1.3386670173,
				"y": 2.879261695,
				"z": -2.7842763818,
				"element": "H" 
			},
			{
				"x": -3.2286459145,
				"y": -1.004730146,
				"z": 0.7119379556,
				"element": "H" 
			},
			{
				"x": -3.5568735398,
				"y": -0.9161529581,
				"z": -1.0239287062,
				"element": "H" 
			},
			{
				"x": -3.6490668326,
				"y": 1.4767618022,
				"z": 0.9233454493,
				"element": "H" 
			},
			{
				"x": -5.0665710187,
				"y": 0.6577229035,
				"z": 0.2406607407,
				"element": "H" 
			},
			{
				"x": -3.9750888641,
				"y": 1.5696358428,
				"z": -0.8193468087,
				"element": "H" 
			},
			{
				"x": 4.5437485948,
				"y": 1.6696409183,
				"z": 2.581351707,
				"element": "H" 
			},
			{
				"x": 4.7238867978,
				"y": 1.496158273,
				"z": 0.8147677415,
				"element": "H" 
			},
			{
				"x": 6.3593316563,
				"y": 0.0174917216,
				"z": 2.0417575598,
				"element": "H" 
			},
			{
				"x": 5.2104766984,
				"y": -0.9400817311,
				"z": 1.0887337037,
				"element": "H" 
			},
			{
				"x": 5.0058009177,
				"y": -0.7973891831,
				"z": 2.8501847597,
				"element": "H" 
			}
		],
		 "valence_orbital": [ 
			{
				"type": "occ",
				"energy": -0.2995,
				"method": "rhf"
			},
			{
				"type": "occ",
				"energy": -0.29465,
				"method": "rhf"
			},
			{
				"type": "occ",
				"energy": -0.28057,
				"method": "rhf"
			},
			{
				"type": "occ",
				"energy": -0.27536,
				"method": "rhf"
			},
			{
				"type": "occ",
				"energy": -0.26335,
				"method": "rhf"
			},
			{
				"type": "unocc",
				"energy": -0.00656,
				"method": "rhf"
			},
			{
				"type": "unocc",
				"energy": -0.00238,
				"method": "rhf"
			},
			{
				"type": "unocc",
				"energy": 0.01045,
				"method": "rhf"
			},
			{
				"type": "unocc",
				"energy": 0.01731,
				"method": "rhf"
			},
			{
				"type": "unocc",
				"energy": 0.09111,
				"method": "rhf"
			}
		],
		"cosmo_sigma_profile": { 
			"-0.025": 0.0,
			"-0.024": 0.0,
			"-0.023": 0.0,
			"-0.022": 0.0,
			"-0.021": 0.0,
			"-0.02": 0.0,
			"-0.019": 0.0,
			"-0.018": 0.0,
			"-0.017": 0.0,
			"-0.016": 0.0,
			"-0.015": 0.0,
			"-0.014": 0.0,
			"-0.013": 0.0,
			"-0.012": 0.0,
			"-0.011": 0.0,
			"-0.01": 0.0,
			"-0.009": 0.0,
			"-0.008": 0.729540845934,
			"-0.007": 2.23260309157,
			"-0.006": 12.6831743416,
			"-0.005": 27.4898305693,
			"-0.004": 47.6176997999,
			"-0.003": 42.9534274286,
			"-0.002": 37.8823144955,
			"-0.001": 38.5102446019,
			"0.0": 37.1119999986,
			"0.001": 23.3095131742,
			"0.002": 20.3720749221,
			"0.003": 14.4065794425,
			"0.004": 13.7773866571,
			"0.005": 12.0801990795,
			"0.006": 7.36560509424,
			"0.007": 6.2468815781,
			"0.008": 6.67059398085,
			"0.009": 7.24159464762,
			"0.01": 9.46594389015,
			"0.011": 11.6407914753,
			"0.012": 2.16610735946,
			"0.013": 0.0,
			"0.014": 0.0,
			"0.015": 0.0,
			"0.016": 0.0,
			"0.017": 0.0,
			"0.018": 0.0,
			"0.019": 0.0,
			"0.02": 0.0,
			"0.021": 0.0,
			"0.022": 0.0,
			"0.023": 0.0,
			"0.024": 0.0,
			"0.025": 0.0
		}
	}
}
