{
	 "smiles": "OC(=O)C1=CC(=CC(F)=C1)S(Cl)(=O)=O", 
	 "Tm": 410.15, 
	 "num_atms": 18, 
	 "gaussian": { 
		 "optdone": 1, 
		 "sigma_profile": "yes", 
		 "theory": "DFT", 
		 "functional": "B3LYP", 
		 "basiset": "6-31G**", 
		 "properties": { 
			 "R2extent": 3926.2151, 
			 "electric_dipole_moment_norm": 5.41646312089, 
			 "electric_quadrupole_moment_norm": 11.1722488255, 
			 "total_energy": -1528.1939844, 
			 "HOMO_LUMO_gap": 0.18729, 
			 "cosmo_polarized_energy": -18.78, 
			 "cosmo_cavitation_energy": 27.83, 
			 "cosmo_dispersion_energy": -20.47, 
			 "cosmo_repulsion_energy": 1.55, 
			 "cosmo_total_nonelectrostatic_energy": 8.91, 
			 "SMD_solvation_energy": 5.22 
		},
		"coords": [
			{
				"x": -0.1118942926,
				"y": -2.7809834311,
				"z": -2.9463020325,
				"element": "O" 
			},
			{
				"x": 0.6471524518,
				"y": -1.7366557916,
				"z": -2.5332472704,
				"element": "C" 
			},
			{
				"x": 1.7057089029,
				"y": -1.4984748926,
				"z": -3.059203518,
				"element": "O" 
			},
			{
				"x": 0.1000035436,
				"y": -0.9013263622,
				"z": -1.4054595972,
				"element": "C" 
			},
			{
				"x": 1.0151300587,
				"y": -0.1333754001,
				"z": -0.6743685047,
				"element": "C" 
			},
			{
				"x": 0.5349387987,
				"y": 0.6574907841,
				"z": 0.363240117,
				"element": "C" 
			},
			{
				"x": -0.8187374989,
				"y": 0.7431451417,
				"z": 0.691330567,
				"element": "C" 
			},
			{
				"x": -1.7002730387,
				"y": -0.013833621,
				"z": -0.0692456537,
				"element": "C" 
			},
			{
				"x": -3.0128089131,
				"y": 0.0533857253,
				"z": 0.1960892895,
				"element": "F" 
			},
			{
				"x": -1.2662679553,
				"y": -0.8348479298,
				"z": -1.1063207478,
				"element": "C" 
			},
			{
				"x": 1.6973548545,
				"y": 1.6436566129,
				"z": 1.3126039593,
				"element": "S" 
			},
			{
				"x": 2.1978790958,
				"y": 0.2792058583,
				"z": 2.8641862575,
				"element": "Cl" 
			},
			{
				"x": 2.9063386863,
				"y": 1.843657468,
				"z": 0.5276986338,
				"element": "O" 
			},
			{
				"x": 0.9761879937,
				"y": 2.7405077265,
				"z": 1.9440456801,
				"element": "O" 
			},
			{
				"x": -0.8278264834,
				"y": -2.9601244073,
				"z": -2.3211298056,
				"element": "H" 
			},
			{
				"x": 2.0674690231,
				"y": -0.1603807586,
				"z": -0.931489154,
				"element": "H" 
			},
			{
				"x": -1.1759462234,
				"y": 1.3817051843,
				"z": 1.4904208422,
				"element": "H" 
			},
			{
				"x": -2.0142090038,
				"y": -1.3708519071,
				"z": -1.6821490624,
				"element": "H" 
			}
		],
		 "valence_orbital": [ 
			{
				"type": "occ",
				"energy": -0.34312,
				"method": "rhf"
			},
			{
				"type": "occ",
				"energy": -0.32689,
				"method": "rhf"
			},
			{
				"type": "occ",
				"energy": -0.31773,
				"method": "rhf"
			},
			{
				"type": "occ",
				"energy": -0.30541,
				"method": "rhf"
			},
			{
				"type": "occ",
				"energy": -0.29541,
				"method": "rhf"
			},
			{
				"type": "unocc",
				"energy": -0.10812,
				"method": "rhf"
			},
			{
				"type": "unocc",
				"energy": -0.08549,
				"method": "rhf"
			},
			{
				"type": "unocc",
				"energy": -0.06119,
				"method": "rhf"
			},
			{
				"type": "unocc",
				"energy": 0.00582,
				"method": "rhf"
			},
			{
				"type": "unocc",
				"energy": 0.0311,
				"method": "rhf"
			}
		],
		"cosmo_sigma_profile": { 
			"-0.025": 0.0,
			"-0.024": 0.0,
			"-0.023": 0.0,
			"-0.022": 0.0,
			"-0.021": 0.0,
			"-0.02": 0.870318730421,
			"-0.019": 1.18410544621,
			"-0.018": 0.888877270304,
			"-0.017": 0.880046805995,
			"-0.016": 1.01806456222,
			"-0.015": 1.28023298241,
			"-0.014": 1.49947937267,
			"-0.013": 1.61673124035,
			"-0.012": 0.952100833651,
			"-0.011": 1.78661844481,
			"-0.01": 2.55806291693,
			"-0.009": 2.7521098082,
			"-0.008": 4.28399149498,
			"-0.007": 6.2566888044,
			"-0.006": 6.52050208146,
			"-0.005": 8.73082239861,
			"-0.004": 11.4676599206,
			"-0.003": 20.6952885916,
			"-0.002": 19.7406631222,
			"-0.001": 12.9993158496,
			"0.0": 10.0176588753,
			"0.001": 11.4401938651,
			"0.002": 16.4140068191,
			"0.003": 23.839265773,
			"0.004": 7.43991399111,
			"0.005": 5.32206893942,
			"0.006": 4.99211587751,
			"0.007": 11.1417237535,
			"0.008": 11.1750978809,
			"0.009": 6.18620262059,
			"0.01": 4.90290575129,
			"0.011": 4.70783370837,
			"0.012": 1.61551722426,
			"0.013": 0.0405934168061,
			"0.014": 0.0,
			"0.015": 0.0,
			"0.016": 0.0,
			"0.017": 0.0,
			"0.018": 0.0,
			"0.019": 0.0,
			"0.02": 0.0,
			"0.021": 0.0,
			"0.022": 0.0,
			"0.023": 0.0,
			"0.024": 0.0,
			"0.025": 0.0
		}
	}
}
