{
	 "smiles": "CCN1C(=O)C2=CC=CC=C2C1=O", 
	 "Tm": 350.65, 
	 "num_atms": 22, 
	 "gaussian": { 
		 "optdone": 1, 
		 "sigma_profile": "yes", 
		 "theory": "DFT", 
		 "functional": "B3LYP", 
		 "basiset": "6-31G**", 
		 "properties": { 
			 "R2extent": 2969.2168, 
			 "electric_dipole_moment_norm": 2.19784379336, 
			 "electric_quadrupole_moment_norm": 17.7719242371, 
			 "total_energy": -591.72699963, 
			 "HOMO_LUMO_gap": 0.18453, 
			 "cosmo_polarized_energy": -9.73, 
			 "cosmo_cavitation_energy": 26.61, 
			 "cosmo_dispersion_energy": -19.04, 
			 "cosmo_repulsion_energy": 1.49, 
			 "cosmo_total_nonelectrostatic_energy": 9.06, 
			 "SMD_solvation_energy": 5.78 
		},
		"coords": [
			{
				"x": -1.3819331059,
				"y": 1.7929915872,
				"z": -0.2880710859,
				"element": "C" 
			},
			{
				"x": -0.1148815994,
				"y": 1.1865729074,
				"z": -0.8951595108,
				"element": "C" 
			},
			{
				"x": 0.244143722,
				"y": -0.0918959201,
				"z": -0.2906006433,
				"element": "N" 
			},
			{
				"x": -0.2196492723,
				"y": -1.3336367229,
				"z": -0.7533890033,
				"element": "C" 
			},
			{
				"x": -0.9516433252,
				"y": -1.498001873,
				"z": -1.7099153954,
				"element": "O" 
			},
			{
				"x": 0.3773450202,
				"y": -2.3528208939,
				"z": 0.1619373029,
				"element": "C" 
			},
			{
				"x": 0.2575548153,
				"y": -3.7347594482,
				"z": 0.1638359604,
				"element": "C" 
			},
			{
				"x": 0.9449449155,
				"y": -4.4400619341,
				"z": 1.1610488146,
				"element": "C" 
			},
			{
				"x": 1.7219719235,
				"y": -3.7706496926,
				"z": 2.1151919439,
				"element": "C" 
			},
			{
				"x": 1.8371874762,
				"y": -2.3738686246,
				"z": 2.1035815998,
				"element": "C" 
			},
			{
				"x": 1.1520656322,
				"y": -1.6853697834,
				"z": 1.1132853754,
				"element": "C" 
			},
			{
				"x": 1.0736858786,
				"y": -0.2193028532,
				"z": 0.8349304052,
				"element": "C" 
			},
			{
				"x": 1.6019780866,
				"y": 0.7022076123,
				"z": 1.426118159,
				"element": "O" 
			},
			{
				"x": -1.249836647,
				"y": 1.975728829,
				"z": 0.7821454188,
				"element": "H" 
			},
			{
				"x": -2.2370605614,
				"y": 1.1258912585,
				"z": -0.4293040029,
				"element": "H" 
			},
			{
				"x": -1.6093596368,
				"y": 2.7478795398,
				"z": -0.7726071796,
				"element": "H" 
			},
			{
				"x": 0.7387534916,
				"y": 1.8545965149,
				"z": -0.7542934868,
				"element": "H" 
			},
			{
				"x": -0.2478355395,
				"y": 1.0050714725,
				"z": -1.9648161494,
				"element": "H" 
			},
			{
				"x": -0.346629746,
				"y": -4.2426852721,
				"z": -0.5809576622,
				"element": "H" 
			},
			{
				"x": 0.8755452784,
				"y": -5.5232161947,
				"z": 1.1964293713,
				"element": "H" 
			},
			{
				"x": 2.24278372,
				"y": -4.3453321125,
				"z": 2.875314221,
				"element": "H" 
			},
			{
				"x": 2.4368694732,
				"y": -1.8446383961,
				"z": 2.8370955472,
				"element": "H" 
			}
		],
		 "valence_orbital": [ 
			{
				"type": "occ",
				"energy": -0.28794,
				"method": "rhf"
			},
			{
				"type": "occ",
				"energy": -0.28304,
				"method": "rhf"
			},
			{
				"type": "occ",
				"energy": -0.27669,
				"method": "rhf"
			},
			{
				"type": "occ",
				"energy": -0.26533,
				"method": "rhf"
			},
			{
				"type": "occ",
				"energy": -0.26436,
				"method": "rhf"
			},
			{
				"type": "unocc",
				"energy": -0.07983,
				"method": "rhf"
			},
			{
				"type": "unocc",
				"energy": -0.0393,
				"method": "rhf"
			},
			{
				"type": "unocc",
				"energy": 0.02953,
				"method": "rhf"
			},
			{
				"type": "unocc",
				"energy": 0.07584,
				"method": "rhf"
			},
			{
				"type": "unocc",
				"energy": 0.08731,
				"method": "rhf"
			}
		],
		"cosmo_sigma_profile": { 
			"-0.025": 0.0,
			"-0.024": 0.0,
			"-0.023": 0.0,
			"-0.022": 0.0,
			"-0.021": 0.0,
			"-0.02": 0.0,
			"-0.019": 0.0,
			"-0.018": 0.0,
			"-0.017": 0.0,
			"-0.016": 0.0,
			"-0.015": 0.0,
			"-0.014": 0.0,
			"-0.013": 0.0,
			"-0.012": 0.0,
			"-0.011": 0.0,
			"-0.01": 0.0,
			"-0.009": 0.0,
			"-0.008": 1.13493571863,
			"-0.007": 8.07952006325,
			"-0.006": 9.88407240835,
			"-0.005": 13.6909985264,
			"-0.004": 18.0147906034,
			"-0.003": 22.7869659277,
			"-0.002": 22.6557485345,
			"-0.001": 19.0796083438,
			"0.0": 20.0545705897,
			"0.001": 17.0454376008,
			"0.002": 15.7092054012,
			"0.003": 7.4453278097,
			"0.004": 2.71765370729,
			"0.005": 4.0358925341,
			"0.006": 2.45526770002,
			"0.007": 2.42439274318,
			"0.008": 2.75413785098,
			"0.009": 3.83605651526,
			"0.01": 4.46811721826,
			"0.011": 9.27413659252,
			"0.012": 5.16001466885,
			"0.013": 0.046244647044,
			"0.014": 0.0,
			"0.015": 0.0,
			"0.016": 0.0,
			"0.017": 0.0,
			"0.018": 0.0,
			"0.019": 0.0,
			"0.02": 0.0,
			"0.021": 0.0,
			"0.022": 0.0,
			"0.023": 0.0,
			"0.024": 0.0,
			"0.025": 0.0
		}
	}
}
