{
	 "smiles": "CN(C=NC1=CC=C(C)C=C1C)C=N/C1=CC=C(C)C=C1C", 
	 "Tm": 359.15, 
	 "num_atms": 45, 
	 "gaussian": { 
		 "optdone": 1, 
		 "sigma_profile": "yes", 
		 "theory": "DFT", 
		 "functional": "B3LYP", 
		 "basiset": "6-31G**", 
		 "properties": { 
			 "R2extent": 12205.5252, 
			 "electric_dipole_moment_norm": 3.18403912978, 
			 "electric_quadrupole_moment_norm": 7.60133674626, 
			 "total_energy": -902.148111227, 
			 "HOMO_LUMO_gap": 0.16439, 
			 "cosmo_polarized_energy": -11.61, 
			 "cosmo_cavitation_energy": 47.94, 
			 "cosmo_dispersion_energy": -32.94, 
			 "cosmo_repulsion_energy": 2.54, 
			 "cosmo_total_nonelectrostatic_energy": 17.54, 
			 "SMD_solvation_energy": 7.33 
		},
		"coords": [
			{
				"x": 1.8225116313,
				"y": 1.007362848,
				"z": 0.2699403811,
				"element": "C" 
			},
			{
				"x": 0.5146460525,
				"y": 0.3893368434,
				"z": 0.0515389662,
				"element": "N" 
			},
			{
				"x": -0.2733827685,
				"y": 0.0982677432,
				"z": 1.1586513272,
				"element": "C" 
			},
			{
				"x": -1.3601777192,
				"y": -0.5693701797,
				"z": 1.0853294854,
				"element": "N" 
			},
			{
				"x": -2.169124076,
				"y": -0.7001090186,
				"z": 2.2288466217,
				"element": "C" 
			},
			{
				"x": -2.4095553648,
				"y": 0.361636655,
				"z": 3.1131466613,
				"element": "C" 
			},
			{
				"x": -3.2375633583,
				"y": 0.1954563467,
				"z": 4.2233942524,
				"element": "C" 
			},
			{
				"x": -3.855979866,
				"y": -1.0313726203,
				"z": 4.4766629692,
				"element": "C" 
			},
			{
				"x": -4.7696070317,
				"y": -1.2245840596,
				"z": 5.6642353041,
				"element": "C" 
			},
			{
				"x": -3.6225478643,
				"y": -2.0816596862,
				"z": 3.5752665587,
				"element": "C" 
			},
			{
				"x": -2.802675126,
				"y": -1.9453231932,
				"z": 2.4553049251,
				"element": "C" 
			},
			{
				"x": -2.5690412652,
				"y": -3.0981930201,
				"z": 1.5118952634,
				"element": "C" 
			},
			{
				"x": -0.0202440389,
				"y": 0.1933417694,
				"z": -1.2290987021,
				"element": "C" 
			},
			{
				"x": 0.5502157923,
				"y": 0.194833436,
				"z": -2.3698718939,
				"element": "N" 
			},
			{
				"x": 1.9287702351,
				"y": 0.1475164949,
				"z": -2.6317172425,
				"element": "C" 
			},
			{
				"x": 2.7263273354,
				"y": -0.9126938831,
				"z": -2.1728248871,
				"element": "C" 
			},
			{
				"x": 4.0662400236,
				"y": -1.0120979604,
				"z": -2.547809872,
				"element": "C" 
			},
			{
				"x": 4.6505721096,
				"y": -0.0593974024,
				"z": -3.3873532472,
				"element": "C" 
			},
			{
				"x": 6.106202703,
				"y": -0.1426557383,
				"z": -3.7836723459,
				"element": "C" 
			},
			{
				"x": 3.8380450752,
				"y": 0.9850252921,
				"z": -3.8534745173,
				"element": "C" 
			},
			{
				"x": 2.4909910525,
				"y": 1.1047084534,
				"z": -3.5091784281,
				"element": "C" 
			},
			{
				"x": 1.6383839635,
				"y": 2.2273642459,
				"z": -4.0435188737,
				"element": "C" 
			},
			{
				"x": 1.9931453973,
				"y": 1.7875298371,
				"z": -0.4734790986,
				"element": "H" 
			},
			{
				"x": 2.6392298126,
				"y": 0.2839211906,
				"z": 0.1990167559,
				"element": "H" 
			},
			{
				"x": 1.8309342035,
				"y": 1.4637811976,
				"z": 1.2628360589,
				"element": "H" 
			},
			{
				"x": 0.1346903179,
				"y": 0.4938453574,
				"z": 2.0966882954,
				"element": "H" 
			},
			{
				"x": -1.9734017955,
				"y": 1.3350713879,
				"z": 2.9058143887,
				"element": "H" 
			},
			{
				"x": -3.4139698341,
				"y": 1.0360283948,
				"z": 4.8901461156,
				"element": "H" 
			},
			{
				"x": -4.7694067474,
				"y": -0.3453831469,
				"z": 6.3147857984,
				"element": "H" 
			},
			{
				"x": -5.8049726268,
				"y": -1.4034698415,
				"z": 5.3494955914,
				"element": "H" 
			},
			{
				"x": -4.4658248733,
				"y": -2.0874966188,
				"z": 6.2679241822,
				"element": "H" 
			},
			{
				"x": -4.1022156216,
				"y": -3.0428532064,
				"z": 3.7515254948,
				"element": "H" 
			},
			{
				"x": -3.2467429586,
				"y": -3.9280762083,
				"z": 1.7305354684,
				"element": "H" 
			},
			{
				"x": -1.5413842339,
				"y": -3.4738101091,
				"z": 1.5841428535,
				"element": "H" 
			},
			{
				"x": -2.7114213956,
				"y": -2.7882866085,
				"z": 0.4720677144,
				"element": "H" 
			},
			{
				"x": -1.0982896156,
				"y": 0.0499586098,
				"z": -1.1856658236,
				"element": "H" 
			},
			{
				"x": 2.2761441302,
				"y": -1.6754349401,
				"z": -1.5434707816,
				"element": "H" 
			},
			{
				"x": 4.6604882709,
				"y": -1.847553395,
				"z": -2.1852651618,
				"element": "H" 
			},
			{
				"x": 6.5370227292,
				"y": -1.1121212311,
				"z": -3.5170955403,
				"element": "H" 
			},
			{
				"x": 6.2379796639,
				"y": -0.0030740836,
				"z": -4.8623491072,
				"element": "H" 
			},
			{
				"x": 6.7044333505,
				"y": 0.6309283912,
				"z": -3.285672887,
				"element": "H" 
			},
			{
				"x": 4.2683347854,
				"y": 1.729067317,
				"z": -4.5217541596,
				"element": "H" 
			},
			{
				"x": 1.3725746476,
				"y": 2.946804396,
				"z": -3.2584309771,
				"element": "H" 
			},
			{
				"x": 0.6933888634,
				"y": 1.8392553355,
				"z": -4.4375722425,
				"element": "H" 
			},
			{
				"x": 2.1566560348,
				"y": 2.7747746083,
				"z": -4.8356156442,
				"element": "H" 
			}
		],
		 "valence_orbital": [ 
			{
				"type": "occ",
				"energy": -0.24894,
				"method": "rhf"
			},
			{
				"type": "occ",
				"energy": -0.23708,
				"method": "rhf"
			},
			{
				"type": "occ",
				"energy": -0.23673,
				"method": "rhf"
			},
			{
				"type": "occ",
				"energy": -0.20784,
				"method": "rhf"
			},
			{
				"type": "occ",
				"energy": -0.19944,
				"method": "rhf"
			},
			{
				"type": "unocc",
				"energy": -0.03505,
				"method": "rhf"
			},
			{
				"type": "unocc",
				"energy": 0.00479,
				"method": "rhf"
			},
			{
				"type": "unocc",
				"energy": 0.00687,
				"method": "rhf"
			},
			{
				"type": "unocc",
				"energy": 0.00887,
				"method": "rhf"
			},
			{
				"type": "unocc",
				"energy": 0.02963,
				"method": "rhf"
			}
		],
		"cosmo_sigma_profile": { 
			"-0.025": 0.0,
			"-0.024": 0.0,
			"-0.023": 0.0,
			"-0.022": 0.0,
			"-0.021": 0.0,
			"-0.02": 0.0,
			"-0.019": 0.0,
			"-0.018": 0.0,
			"-0.017": 0.0,
			"-0.016": 0.0,
			"-0.015": 0.0,
			"-0.014": 0.0,
			"-0.013": 0.0,
			"-0.012": 0.0,
			"-0.011": 0.0,
			"-0.01": 0.0898999892107,
			"-0.009": 1.72512766078,
			"-0.008": 2.73518957152,
			"-0.007": 2.98690852715,
			"-0.006": 5.55510417561,
			"-0.005": 14.1499151918,
			"-0.004": 34.6360557884,
			"-0.003": 48.454062514,
			"-0.002": 41.566807901,
			"-0.001": 38.3187077358,
			"0.0": 41.7631622741,
			"0.001": 35.2088663627,
			"0.002": 20.9615349613,
			"0.003": 16.9142288632,
			"0.004": 16.925793176,
			"0.005": 18.3359361978,
			"0.006": 18.456600572,
			"0.007": 9.45142789906,
			"0.008": 3.71943065133,
			"0.009": 2.40736635744,
			"0.01": 0.67792967253,
			"0.011": 1.29682440463,
			"0.012": 0.857222606359,
			"0.013": 0.82854488586,
			"0.014": 0.470361452163,
			"0.015": 0.344372640241,
			"0.016": 0.0,
			"0.017": 0.0,
			"0.018": 0.0,
			"0.019": 0.0,
			"0.02": 0.0,
			"0.021": 0.0,
			"0.022": 0.0,
			"0.023": 0.0,
			"0.024": 0.0,
			"0.025": 0.0
		}
	}
}
