{
	 "smiles": "NC1=C(F)C=CC(=C1)N1N=NN=C1C1CC1", 
	 "Tm": 386.15, 
	 "num_atms": 26, 
	 "gaussian": { 
		 "optdone": 1, 
		 "sigma_profile": "yes", 
		 "theory": "DFT", 
		 "functional": "B3LYP", 
		 "basiset": "6-31G**", 
		 "properties": { 
			 "R2extent": 3998.23, 
			 "electric_dipole_moment_norm": 6.09327546152, 
			 "electric_quadrupole_moment_norm": 25.0669500759, 
			 "total_energy": -760.597799998, 
			 "HOMO_LUMO_gap": 0.19994, 
			 "cosmo_polarized_energy": -18.14, 
			 "cosmo_cavitation_energy": 30.73, 
			 "cosmo_dispersion_energy": -21.59, 
			 "cosmo_repulsion_energy": 1.66, 
			 "cosmo_total_nonelectrostatic_energy": 10.79, 
			 "SMD_solvation_energy": 3.44 
		},
		"coords": [
			{
				"x": -4.2487969339,
				"y": 0.3941034921,
				"z": -1.0753229644,
				"element": "N" 
			},
			{
				"x": -2.985247289,
				"y": -0.1719229481,
				"z": -1.0974101534,
				"element": "C" 
			},
			{
				"x": -2.8343608186,
				"y": -1.5554786537,
				"z": -0.895584422,
				"element": "C" 
			},
			{
				"x": -3.9700981646,
				"y": -2.2816405875,
				"z": -0.7505400349,
				"element": "F" 
			},
			{
				"x": -1.6039497668,
				"y": -2.1843132521,
				"z": -0.8628798498,
				"element": "C" 
			},
			{
				"x": -0.4419096474,
				"y": -1.4256695305,
				"z": -1.0302568963,
				"element": "C" 
			},
			{
				"x": -0.5640409441,
				"y": -0.0487205117,
				"z": -1.2173763292,
				"element": "C" 
			},
			{
				"x": -1.811956961,
				"y": 0.5779404997,
				"z": -1.2598798091,
				"element": "C" 
			},
			{
				"x": 0.6085094863,
				"y": 0.7465096555,
				"z": -1.4286635036,
				"element": "N" 
			},
			{
				"x": 1.0001224605,
				"y": 1.0437195574,
				"z": -2.7087403076,
				"element": "N" 
			},
			{
				"x": 2.0601429339,
				"y": 1.7658128841,
				"z": -2.6033616085,
				"element": "N" 
			},
			{
				"x": 2.396656781,
				"y": 1.9686493636,
				"z": -1.3052088477,
				"element": "N" 
			},
			{
				"x": 1.4906684271,
				"y": 1.3342968244,
				"z": -0.5743770671,
				"element": "C" 
			},
			{
				"x": 1.5167776587,
				"y": 1.3494026223,
				"z": 0.8991578669,
				"element": "C" 
			},
			{
				"x": 0.2725733616,
				"y": 1.3845957888,
				"z": 1.7695908804,
				"element": "C" 
			},
			{
				"x": 1.1491638919,
				"y": 0.1673378596,
				"z": 1.7789109052,
				"element": "C" 
			},
			{
				"x": -5.0090030896,
				"y": -0.25386867,
				"z": -1.2243668939,
				"element": "H" 
			},
			{
				"x": -4.3555718517,
				"y": 1.2658089523,
				"z": -1.5732549813,
				"element": "H" 
			},
			{
				"x": -1.5656661284,
				"y": -3.2586535628,
				"z": -0.720708959,
				"element": "H" 
			},
			{
				"x": 0.535616474,
				"y": -1.8935406399,
				"z": -1.0373770932,
				"element": "H" 
			},
			{
				"x": -1.8678347575,
				"y": 1.6485385547,
				"z": -1.4290337899,
				"element": "H" 
			},
			{
				"x": 2.3533707903,
				"y": 1.9505378188,
				"z": 1.2391659238,
				"element": "H" 
			},
			{
				"x": -0.6925766479,
				"y": 1.3070885871,
				"z": 1.2809276449,
				"element": "H" 
			},
			{
				"x": 0.2929044922,
				"y": 2.0548101422,
				"z": 2.6230925747,
				"element": "H" 
			},
			{
				"x": 1.7867118422,
				"y": -0.0141661855,
				"z": 2.638420232,
				"element": "H" 
			},
			{
				"x": 0.7715944008,
				"y": -0.7291780607,
				"z": 1.3004774829,
				"element": "H" 
			}
		],
		 "valence_orbital": [ 
			{
				"type": "occ",
				"energy": -0.28472,
				"method": "rhf"
			},
			{
				"type": "occ",
				"energy": -0.28151,
				"method": "rhf"
			},
			{
				"type": "occ",
				"energy": -0.26566,
				"method": "rhf"
			},
			{
				"type": "occ",
				"energy": -0.26029,
				"method": "rhf"
			},
			{
				"type": "occ",
				"energy": -0.22919,
				"method": "rhf"
			},
			{
				"type": "unocc",
				"energy": -0.02925,
				"method": "rhf"
			},
			{
				"type": "unocc",
				"energy": -0.01831,
				"method": "rhf"
			},
			{
				"type": "unocc",
				"energy": -0.00756,
				"method": "rhf"
			},
			{
				"type": "unocc",
				"energy": 0.03406,
				"method": "rhf"
			},
			{
				"type": "unocc",
				"energy": 0.0616,
				"method": "rhf"
			}
		],
		"cosmo_sigma_profile": { 
			"-0.025": 0.0,
			"-0.024": 0.0,
			"-0.023": 0.0,
			"-0.022": 0.0,
			"-0.021": 0.0,
			"-0.02": 0.0,
			"-0.019": 0.0,
			"-0.018": 0.0,
			"-0.017": 0.0,
			"-0.016": 0.0,
			"-0.015": 0.0,
			"-0.014": 0.326746298737,
			"-0.013": 1.78392140133,
			"-0.012": 2.94685086099,
			"-0.011": 2.06224917947,
			"-0.01": 3.04033843203,
			"-0.009": 3.25783146596,
			"-0.008": 5.78461639527,
			"-0.007": 8.6186228316,
			"-0.006": 14.3024178911,
			"-0.005": 16.092230611,
			"-0.004": 14.6834526774,
			"-0.003": 15.3537385682,
			"-0.002": 14.3071444101,
			"-0.001": 17.2628097708,
			"0.0": 17.2581670024,
			"0.001": 20.620883322,
			"0.002": 16.4933005056,
			"0.003": 14.7747361017,
			"0.004": 12.6517016314,
			"0.005": 3.97513019478,
			"0.006": 3.04117124502,
			"0.007": 4.96312113782,
			"0.008": 5.56847864392,
			"0.009": 5.67103208187,
			"0.01": 5.38935791027,
			"0.011": 5.58066071404,
			"0.012": 4.17620841349,
			"0.013": 3.13798048904,
			"0.014": 1.85152610968,
			"0.015": 0.78277432751,
			"0.016": 0.298296864568,
			"0.017": 0.0,
			"0.018": 0.0,
			"0.019": 0.0,
			"0.02": 0.0,
			"0.021": 0.0,
			"0.022": 0.0,
			"0.023": 0.0,
			"0.024": 0.0,
			"0.025": 0.0
		}
	}
}
