{
	 "smiles": "CC1=CC(N)=NN1C1=CC=CC=C1", 
	 "Tm": 353.15, 
	 "num_atms": 24, 
	 "gaussian": { 
		 "optdone": 1, 
		 "sigma_profile": "yes", 
		 "theory": "DFT", 
		 "functional": "B3LYP", 
		 "basiset": "6-31G**", 
		 "properties": { 
			 "R2extent": 2672.6489, 
			 "electric_dipole_moment_norm": 1.78783154967, 
			 "electric_quadrupole_moment_norm": 10.8978493259, 
			 "total_energy": -551.934790417, 
			 "HOMO_LUMO_gap": 0.18242, 
			 "cosmo_polarized_energy": -11.56, 
			 "cosmo_cavitation_energy": 27.51, 
			 "cosmo_dispersion_energy": -20.32, 
			 "cosmo_repulsion_energy": 1.62, 
			 "cosmo_total_nonelectrostatic_energy": 8.81, 
			 "SMD_solvation_energy": 3.95 
		},
		"coords": [
			{
				"x": -1.3318248334,
				"y": 1.7113897357,
				"z": -0.7558303408,
				"element": "C" 
			},
			{
				"x": 0.0530701706,
				"y": 1.3702682912,
				"z": -0.2998103238,
				"element": "C" 
			},
			{
				"x": 1.189704993,
				"y": 2.1529687159,
				"z": -0.3456989843,
				"element": "C" 
			},
			{
				"x": 2.2345231927,
				"y": 1.3243452106,
				"z": 0.1397376298,
				"element": "C" 
			},
			{
				"x": 3.5903644031,
				"y": 1.6371750913,
				"z": 0.2299121591,
				"element": "N" 
			},
			{
				"x": 1.7919922134,
				"y": 0.117969049,
				"z": 0.4708608735,
				"element": "N" 
			},
			{
				"x": 0.4432475761,
				"y": 0.1509542971,
				"z": 0.2017665245,
				"element": "N" 
			},
			{
				"x": -0.3052223735,
				"y": -1.0387803879,
				"z": 0.3795772312,
				"element": "C" 
			},
			{
				"x": -1.6296534255,
				"y": -1.0058630321,
				"z": 0.8341483916,
				"element": "C" 
			},
			{
				"x": -2.3406341958,
				"y": -2.1968730862,
				"z": 0.9884186207,
				"element": "C" 
			},
			{
				"x": -1.7351608411,
				"y": -3.4239914337,
				"z": 0.7182503462,
				"element": "C" 
			},
			{
				"x": -0.4043417959,
				"y": -3.453052591,
				"z": 0.2921858448,
				"element": "C" 
			},
			{
				"x": 0.3104432002,
				"y": -2.2711764858,
				"z": 0.1179325035,
				"element": "C" 
			},
			{
				"x": -1.283390296,
				"y": 2.5592245289,
				"z": -1.4434863396,
				"element": "H" 
			},
			{
				"x": -1.9895105708,
				"y": 1.9990086306,
				"z": 0.0729700459,
				"element": "H" 
			},
			{
				"x": -1.8059035217,
				"y": 0.8749190432,
				"z": -1.2774403969,
				"element": "H" 
			},
			{
				"x": 1.2586069043,
				"y": 3.1682906457,
				"z": -0.7083881148,
				"element": "H" 
			},
			{
				"x": 3.7679207596,
				"y": 2.5803401219,
				"z": 0.5507909318,
				"element": "H" 
			},
			{
				"x": 4.0943016453,
				"y": 0.960950705,
				"z": 0.7913099652,
				"element": "H" 
			},
			{
				"x": -2.0940501418,
				"y": -0.062196689,
				"z": 1.0935171112,
				"element": "H" 
			},
			{
				"x": -3.3676444372,
				"y": -2.1605454519,
				"z": 1.3403723428,
				"element": "H" 
			},
			{
				"x": -2.2901031002,
				"y": -4.3484258641,
				"z": 0.8465878989,
				"element": "H" 
			},
			{
				"x": 0.0802526342,
				"y": -4.4032040217,
				"z": 0.0862267335,
				"element": "H" 
			},
			{
				"x": 1.3428118404,
				"y": -2.2773950226,
				"z": -0.209810654,
				"element": "H" 
			}
		],
		 "valence_orbital": [ 
			{
				"type": "occ",
				"energy": -0.27742,
				"method": "rhf"
			},
			{
				"type": "occ",
				"energy": -0.25695,
				"method": "rhf"
			},
			{
				"type": "occ",
				"energy": -0.2501,
				"method": "rhf"
			},
			{
				"type": "occ",
				"energy": -0.22684,
				"method": "rhf"
			},
			{
				"type": "occ",
				"energy": -0.19309,
				"method": "rhf"
			},
			{
				"type": "unocc",
				"energy": -0.01067,
				"method": "rhf"
			},
			{
				"type": "unocc",
				"energy": -0.00121,
				"method": "rhf"
			},
			{
				"type": "unocc",
				"energy": 0.04357,
				"method": "rhf"
			},
			{
				"type": "unocc",
				"energy": 0.08062,
				"method": "rhf"
			},
			{
				"type": "unocc",
				"energy": 0.08986,
				"method": "rhf"
			}
		],
		"cosmo_sigma_profile": { 
			"-0.025": 0.0,
			"-0.024": 0.0,
			"-0.023": 0.0,
			"-0.022": 0.0,
			"-0.021": 0.0,
			"-0.02": 0.0,
			"-0.019": 0.0,
			"-0.018": 0.0,
			"-0.017": 0.0,
			"-0.016": 0.0,
			"-0.015": 0.0,
			"-0.014": 0.0,
			"-0.013": 0.241525272406,
			"-0.012": 1.86233252031,
			"-0.011": 2.25360703965,
			"-0.01": 2.37102826167,
			"-0.009": 2.5815430929,
			"-0.008": 2.57705743566,
			"-0.007": 3.75322529327,
			"-0.006": 10.6653871811,
			"-0.005": 17.5588051555,
			"-0.004": 19.9326885508,
			"-0.003": 17.0448124031,
			"-0.002": 15.9417622419,
			"-0.001": 14.5487410313,
			"0.0": 12.9531568834,
			"0.001": 11.6013580044,
			"0.002": 11.2260027954,
			"0.003": 12.0549752768,
			"0.004": 13.5910703773,
			"0.005": 16.5637488988,
			"0.006": 9.62614346688,
			"0.007": 3.75928433012,
			"0.008": 2.39492664688,
			"0.009": 3.08503732774,
			"0.01": 2.76206792133,
			"0.011": 2.19558846416,
			"0.012": 1.32022704779,
			"0.013": 0.954710469456,
			"0.014": 2.15798769711,
			"0.015": 1.21053369469,
			"0.016": 0.252464940099,
			"0.017": 0.0,
			"0.018": 0.0,
			"0.019": 0.0,
			"0.02": 0.0,
			"0.021": 0.0,
			"0.022": 0.0,
			"0.023": 0.0,
			"0.024": 0.0,
			"0.025": 0.0
		}
	}
}
