{
	 "smiles": "FC(F)(F)COC(=O)NCCC1=NC=CC=C1", 
	 "Tm": 333.15, 
	 "num_atms": 28, 
	 "gaussian": { 
		 "optdone": 1, 
		 "sigma_profile": "yes", 
		 "theory": "DFT", 
		 "functional": "B3LYP", 
		 "basiset": "6-31G**", 
		 "properties": { 
			 "R2extent": 5275.3207, 
			 "electric_dipole_moment_norm": 2.26933128036, 
			 "electric_quadrupole_moment_norm": 5.6326615707, 
			 "total_energy": -947.195678058, 
			 "HOMO_LUMO_gap": 0.22642, 
			 "cosmo_polarized_energy": -12.12, 
			 "cosmo_cavitation_energy": 34.1, 
			 "cosmo_dispersion_energy": -22.68, 
			 "cosmo_repulsion_energy": 1.71, 
			 "cosmo_total_nonelectrostatic_energy": 13.13, 
			 "SMD_solvation_energy": 5.57 
		},
		"coords": [
			{
				"x": -1.4295693539,
				"y": 1.9891540672,
				"z": 0.3101895224,
				"element": "F" 
			},
			{
				"x": -1.9112299449,
				"y": 2.8608252547,
				"z": -0.6038398004,
				"element": "C" 
			},
			{
				"x": -2.9504051004,
				"y": 3.5160025909,
				"z": -0.0478444457,
				"element": "F" 
			},
			{
				"x": -0.9398246861,
				"y": 3.7590599014,
				"z": -0.8544359674,
				"element": "F" 
			},
			{
				"x": -2.3678045797,
				"y": 2.1487294625,
				"z": -1.8667686071,
				"element": "C" 
			},
			{
				"x": -1.2787194982,
				"y": 1.4349892575,
				"z": -2.4292076888,
				"element": "O" 
			},
			{
				"x": -1.2447207696,
				"y": 0.0849989709,
				"z": -2.1395653414,
				"element": "C" 
			},
			{
				"x": -2.1565451269,
				"y": -0.5239413121,
				"z": -1.614050743,
				"element": "O" 
			},
			{
				"x": -0.0643212728,
				"y": -0.4372540205,
				"z": -2.5575808756,
				"element": "N" 
			},
			{
				"x": 0.3294584566,
				"y": -1.785489221,
				"z": -2.1602827013,
				"element": "C" 
			},
			{
				"x": 0.7600978882,
				"y": -1.8856641896,
				"z": -0.6817658098,
				"element": "C" 
			},
			{
				"x": 1.9702415188,
				"y": -1.0338970082,
				"z": -0.3743671064,
				"element": "C" 
			},
			{
				"x": 3.1602885754,
				"y": -1.5381252709,
				"z": -0.7484718512,
				"element": "N" 
			},
			{
				"x": 4.2554993166,
				"y": -0.8058196273,
				"z": -0.5182292685,
				"element": "C" 
			},
			{
				"x": 4.2342997437,
				"y": 0.4542802337,
				"z": 0.0819374587,
				"element": "C" 
			},
			{
				"x": 2.9992747062,
				"y": 0.9810467052,
				"z": 0.4559492719,
				"element": "C" 
			},
			{
				"x": 1.8486916852,
				"y": 0.2278185431,
				"z": 0.2249631446,
				"element": "C" 
			},
			{
				"x": -3.1872163907,
				"y": 1.4718790128,
				"z": -1.6168959035,
				"element": "H" 
			},
			{
				"x": -2.6944328785,
				"y": 2.8969489058,
				"z": -2.5918611841,
				"element": "H" 
			},
			{
				"x": 0.654680514,
				"y": 0.226040366,
				"z": -2.8080136753,
				"element": "H" 
			},
			{
				"x": -0.5205888783,
				"y": -2.4476001799,
				"z": -2.340471655,
				"element": "H" 
			},
			{
				"x": 1.1526962151,
				"y": -2.09655499,
				"z": -2.8087049562,
				"element": "H" 
			},
			{
				"x": -0.0876155855,
				"y": -1.5978279834,
				"z": -0.0527227794,
				"element": "H" 
			},
			{
				"x": 1.0022241362,
				"y": -2.9323323491,
				"z": -0.47005905,
				"element": "H" 
			},
			{
				"x": 5.2001403929,
				"y": -1.2498535837,
				"z": -0.829188799,
				"element": "H" 
			},
			{
				"x": 5.1573434045,
				"y": 1.0010756239,
				"z": 0.2464940511,
				"element": "H" 
			},
			{
				"x": 2.9304324474,
				"y": 1.9604497752,
				"z": 0.9209895898,
				"element": "H" 
			},
			{
				"x": 0.8703250644,
				"y": 0.6120610649,
				"z": 0.4969051705,
				"element": "H" 
			}
		],
		 "valence_orbital": [ 
			{
				"type": "occ",
				"energy": -0.28927,
				"method": "rhf"
			},
			{
				"type": "occ",
				"energy": -0.28783,
				"method": "rhf"
			},
			{
				"type": "occ",
				"energy": -0.26862,
				"method": "rhf"
			},
			{
				"type": "occ",
				"energy": -0.25717,
				"method": "rhf"
			},
			{
				"type": "occ",
				"energy": -0.25387,
				"method": "rhf"
			},
			{
				"type": "unocc",
				"energy": -0.02745,
				"method": "rhf"
			},
			{
				"type": "unocc",
				"energy": -0.013,
				"method": "rhf"
			},
			{
				"type": "unocc",
				"energy": 0.03839,
				"method": "rhf"
			},
			{
				"type": "unocc",
				"energy": 0.08114,
				"method": "rhf"
			},
			{
				"type": "unocc",
				"energy": 0.09522,
				"method": "rhf"
			}
		],
		"cosmo_sigma_profile": { 
			"-0.025": 0.0,
			"-0.024": 0.0,
			"-0.023": 0.0,
			"-0.022": 0.0,
			"-0.021": 0.0,
			"-0.02": 0.0,
			"-0.019": 0.0,
			"-0.018": 0.0,
			"-0.017": 0.0,
			"-0.016": 0.0,
			"-0.015": 0.0697412834449,
			"-0.014": 0.988305532395,
			"-0.013": 0.415307322002,
			"-0.012": 0.789254411814,
			"-0.011": 1.26135497183,
			"-0.01": 1.14551806725,
			"-0.009": 2.6765866333,
			"-0.008": 3.8673617912,
			"-0.007": 7.59778874492,
			"-0.006": 13.3329933282,
			"-0.005": 15.5029987913,
			"-0.004": 20.0428864808,
			"-0.003": 20.2102900554,
			"-0.002": 18.2873311168,
			"-0.001": 19.498973423,
			"0.0": 17.3303491407,
			"0.001": 18.0076632297,
			"0.002": 33.0554223395,
			"0.003": 35.0412343701,
			"0.004": 9.24369428056,
			"0.005": 5.40776319374,
			"0.006": 5.24799030133,
			"0.007": 3.16310984565,
			"0.008": 3.02825516306,
			"0.009": 2.37493390205,
			"0.01": 2.00194350445,
			"0.011": 2.44088153974,
			"0.012": 5.24428069391,
			"0.013": 1.87419999352,
			"0.014": 0.872755749739,
			"0.015": 0.349351792663,
			"0.016": 0.617990243216,
			"0.017": 0.124052093705,
			"0.018": 0.0,
			"0.019": 0.0,
			"0.02": 0.0,
			"0.021": 0.0,
			"0.022": 0.0,
			"0.023": 0.0,
			"0.024": 0.0,
			"0.025": 0.0
		}
	}
}
