{
	 "smiles": "CN(C)CCCOC1=NN(CC2=CC=CC=C2)C2=C1C=CC=C2", 
	 "Tm": 433.15, 
	 "num_atms": 46, 
	 "gaussian": { 
		 "optdone": 1, 
		 "sigma_profile": "yes", 
		 "theory": "DFT", 
		 "functional": "B3LYP", 
		 "basiset": "6-31G**", 
		 "properties": { 
			 "R2extent": 9225.6336, 
			 "electric_dipole_moment_norm": 1.34408002738, 
			 "electric_quadrupole_moment_norm": 8.50909715011, 
			 "total_energy": -977.337018326, 
			 "HOMO_LUMO_gap": 0.17479, 
			 "cosmo_polarized_energy": -10.87, 
			 "cosmo_cavitation_energy": 48.78, 
			 "cosmo_dispersion_energy": -32.22, 
			 "cosmo_repulsion_energy": 2.48, 
			 "cosmo_total_nonelectrostatic_energy": 19.04, 
			 "SMD_solvation_energy": 4.94 
		},
		"coords": [
			{
				"x": -3.8204904829,
				"y": 1.1779514893,
				"z": -1.1877204359,
				"element": "C" 
			},
			{
				"x": -3.8533365391,
				"y": 2.5515386755,
				"z": -0.70020049,
				"element": "N" 
			},
			{
				"x": -5.0428257546,
				"y": 2.7784285469,
				"z": 0.1105147071,
				"element": "C" 
			},
			{
				"x": -2.6388902637,
				"y": 2.9208694821,
				"z": 0.0315171327,
				"element": "C" 
			},
			{
				"x": -1.4014702835,
				"y": 3.0266657289,
				"z": -0.8667128593,
				"element": "C" 
			},
			{
				"x": -0.1853074408,
				"y": 3.5988333287,
				"z": -0.1420713934,
				"element": "C" 
			},
			{
				"x": 0.2205832796,
				"y": 2.8023065335,
				"z": 0.9894331809,
				"element": "O" 
			},
			{
				"x": 0.9989538271,
				"y": 1.7300081208,
				"z": 0.7422118681,
				"element": "C" 
			},
			{
				"x": 1.3784016631,
				"y": 1.3445463022,
				"z": -0.4600495621,
				"element": "N" 
			},
			{
				"x": 2.186599331,
				"y": 0.2434056725,
				"z": -0.2645798441,
				"element": "N" 
			},
			{
				"x": 2.739272188,
				"y": -0.45607533,
				"z": -1.4077637712,
				"element": "C" 
			},
			{
				"x": 2.0393464002,
				"y": -1.7620584278,
				"z": -1.7523894002,
				"element": "C" 
			},
			{
				"x": 0.6414110489,
				"y": -1.849759772,
				"z": -1.7444651875,
				"element": "C" 
			},
			{
				"x": 0.0073430518,
				"y": -3.0410633835,
				"z": -2.0946836091,
				"element": "C" 
			},
			{
				"x": 0.761624401,
				"y": -4.1590891471,
				"z": -2.4609641142,
				"element": "C" 
			},
			{
				"x": 2.154235659,
				"y": -4.0791010099,
				"z": -2.4716960556,
				"element": "C" 
			},
			{
				"x": 2.7879000091,
				"y": -2.8864360182,
				"z": -2.1153102423,
				"element": "C" 
			},
			{
				"x": 2.2912567974,
				"y": -0.0716912674,
				"z": 1.0628959161,
				"element": "C" 
			},
			{
				"x": 1.5294635774,
				"y": 0.8890763811,
				"z": 1.7725556853,
				"element": "C" 
			},
			{
				"x": 1.4560209121,
				"y": 0.8479314442,
				"z": 3.1736377055,
				"element": "C" 
			},
			{
				"x": 2.1418590803,
				"y": -0.1595699738,
				"z": 3.8344878582,
				"element": "C" 
			},
			{
				"x": 2.8928596157,
				"y": -1.1198448576,
				"z": 3.1154192405,
				"element": "C" 
			},
			{
				"x": 2.9819100512,
				"y": -1.0981876441,
				"z": 1.7314540551,
				"element": "C" 
			},
			{
				"x": -4.7393117099,
				"y": 0.9663605518,
				"z": -1.7440598294,
				"element": "H" 
			},
			{
				"x": -2.98039229,
				"y": 1.0313170428,
				"z": -1.8713255588,
				"element": "H" 
			},
			{
				"x": -3.7347788812,
				"y": 0.4298067059,
				"z": -0.3745751915,
				"element": "H" 
			},
			{
				"x": -5.0922768107,
				"y": 3.829250135,
				"z": 0.4140185316,
				"element": "H" 
			},
			{
				"x": -5.0766393567,
				"y": 2.1573034052,
				"z": 1.0274095303,
				"element": "H" 
			},
			{
				"x": -5.9387621581,
				"y": 2.5543701608,
				"z": -0.4778741735,
				"element": "H" 
			},
			{
				"x": -2.8200307634,
				"y": 3.9033775135,
				"z": 0.4864280079,
				"element": "H" 
			},
			{
				"x": -2.4341554387,
				"y": 2.2236714746,
				"z": 0.8666689388,
				"element": "H" 
			},
			{
				"x": -1.1271245828,
				"y": 2.0551926533,
				"z": -1.2877088919,
				"element": "H" 
			},
			{
				"x": -1.6345288937,
				"y": 3.6875203322,
				"z": -1.7112588055,
				"element": "H" 
			},
			{
				"x": -0.4144801252,
				"y": 4.5786056781,
				"z": 0.2886673978,
				"element": "H" 
			},
			{
				"x": 0.6595890901,
				"y": 3.7010762067,
				"z": -0.8302133059,
				"element": "H" 
			},
			{
				"x": 2.6712280474,
				"y": 0.2488976689,
				"z": -2.2417418357,
				"element": "H" 
			},
			{
				"x": 3.8047156483,
				"y": -0.6434379454,
				"z": -1.2280887389,
				"element": "H" 
			},
			{
				"x": 0.056111738,
				"y": -0.9807950085,
				"z": -1.458005285,
				"element": "H" 
			},
			{
				"x": -1.0775018475,
				"y": -3.0980434494,
				"z": -2.0821491493,
				"element": "H" 
			},
			{
				"x": 0.265944359,
				"y": -5.0866885165,
				"z": -2.7324542299,
				"element": "H" 
			},
			{
				"x": 2.7488452297,
				"y": -4.9449466775,
				"z": -2.7491466198,
				"element": "H" 
			},
			{
				"x": 3.8743607254,
				"y": -2.8302329774,
				"z": -2.1194947025,
				"element": "H" 
			},
			{
				"x": 0.8754411052,
				"y": 1.586785105,
				"z": 3.7168976115,
				"element": "H" 
			},
			{
				"x": 2.1037513922,
				"y": -0.2201984291,
				"z": 4.9177671707,
				"element": "H" 
			},
			{
				"x": 3.4120053881,
				"y": -1.9002556318,
				"z": 3.6647270678,
				"element": "H" 
			},
			{
				"x": 3.5483700061,
				"y": -1.8488208723,
				"z": 1.1905916762,
				"element": "H" 
			}
		],
		 "valence_orbital": [ 
			{
				"type": "occ",
				"energy": -0.25192,
				"method": "rhf"
			},
			{
				"type": "occ",
				"energy": -0.24689,
				"method": "rhf"
			},
			{
				"type": "occ",
				"energy": -0.23604,
				"method": "rhf"
			},
			{
				"type": "occ",
				"energy": -0.20662,
				"method": "rhf"
			},
			{
				"type": "occ",
				"energy": -0.19541,
				"method": "rhf"
			},
			{
				"type": "unocc",
				"energy": -0.02062,
				"method": "rhf"
			},
			{
				"type": "unocc",
				"energy": -0.00632,
				"method": "rhf"
			},
			{
				"type": "unocc",
				"energy": -0.0032,
				"method": "rhf"
			},
			{
				"type": "unocc",
				"energy": 0.02173,
				"method": "rhf"
			},
			{
				"type": "unocc",
				"energy": 0.07708,
				"method": "rhf"
			}
		],
		"cosmo_sigma_profile": { 
			"-0.025": 0.0,
			"-0.024": 0.0,
			"-0.023": 0.0,
			"-0.022": 0.0,
			"-0.021": 0.0,
			"-0.02": 0.0,
			"-0.019": 0.0,
			"-0.018": 0.0,
			"-0.017": 0.0,
			"-0.016": 0.0,
			"-0.015": 0.0,
			"-0.014": 0.0,
			"-0.013": 0.0,
			"-0.012": 0.0,
			"-0.011": 0.0,
			"-0.01": 0.0,
			"-0.009": 0.0,
			"-0.008": 0.0,
			"-0.007": 1.26953831813,
			"-0.006": 15.3941589595,
			"-0.005": 23.5675447168,
			"-0.004": 37.1386168553,
			"-0.003": 42.6125305738,
			"-0.002": 30.0643428819,
			"-0.001": 39.6207400091,
			"0.0": 41.4388595712,
			"0.001": 27.1358566005,
			"0.002": 26.899903557,
			"0.003": 24.9135791789,
			"0.004": 22.6869039537,
			"0.005": 21.8398824268,
			"0.006": 14.4806014837,
			"0.007": 3.97797975883,
			"0.008": 3.15967596989,
			"0.009": 2.80498010736,
			"0.01": 1.84531958534,
			"0.011": 1.267334695,
			"0.012": 1.09470634118,
			"0.013": 0.624576863205,
			"0.014": 0.502822268171,
			"0.015": 0.261953896538,
			"0.016": 0.382614998387,
			"0.017": 0.247954205613,
			"0.018": 0.0,
			"0.019": 0.0,
			"0.02": 0.0,
			"0.021": 0.0,
			"0.022": 0.0,
			"0.023": 0.0,
			"0.024": 0.0,
			"0.025": 0.0
		}
	}
}
