{
	 "smiles": "CCC1=CC=C(OCC(O)=O)C=C1", 
	 "Tm": 368.15, 
	 "num_atms": 25, 
	 "gaussian": { 
		 "optdone": 1, 
		 "sigma_profile": "yes", 
		 "theory": "DFT", 
		 "functional": "B3LYP", 
		 "basiset": "6-31G**", 
		 "properties": { 
			 "R2extent": 3513.1125, 
			 "electric_dipole_moment_norm": 3.9591559012, 
			 "electric_quadrupole_moment_norm": 20.1385274412, 
			 "total_energy": -613.973501311, 
			 "HOMO_LUMO_gap": 0.21612, 
			 "cosmo_polarized_energy": -12.03, 
			 "cosmo_cavitation_energy": 28.89, 
			 "cosmo_dispersion_energy": -20.73, 
			 "cosmo_repulsion_energy": 1.67, 
			 "cosmo_total_nonelectrostatic_energy": 9.82, 
			 "SMD_solvation_energy": 6.31 
		},
		"coords": [
			{
				"x": 3.5426274857,
				"y": 2.4393685672,
				"z": 0.2747213183,
				"element": "C" 
			},
			{
				"x": 2.7198184363,
				"y": 2.0139906693,
				"z": -0.9548010131,
				"element": "C" 
			},
			{
				"x": 1.5358470778,
				"y": 1.139150198,
				"z": -0.6006415396,
				"element": "C" 
			},
			{
				"x": 1.6710271723,
				"y": -0.2537065593,
				"z": -0.4925580116,
				"element": "C" 
			},
			{
				"x": 0.5983350694,
				"y": -1.0606589692,
				"z": -0.1280628631,
				"element": "C" 
			},
			{
				"x": -0.6470327284,
				"y": -0.4819319385,
				"z": 0.1336822762,
				"element": "C" 
			},
			{
				"x": -1.6605935575,
				"y": -1.3694126644,
				"z": 0.4654466187,
				"element": "O" 
			},
			{
				"x": -2.8506165781,
				"y": -0.8458552662,
				"z": 1.0442703576,
				"element": "C" 
			},
			{
				"x": -3.8766307029,
				"y": -0.4031041344,
				"z": -0.0060633245,
				"element": "C" 
			},
			{
				"x": -3.6650926068,
				"y": -0.9036264448,
				"z": -1.2371498737,
				"element": "O" 
			},
			{
				"x": -4.8184933774,
				"y": 0.2991028503,
				"z": 0.26426949,
				"element": "O" 
			},
			{
				"x": -0.814614051,
				"y": 0.9001498838,
				"z": 0.0262721274,
				"element": "C" 
			},
			{
				"x": 0.2790565449,
				"y": 1.6919020516,
				"z": -0.3365904913,
				"element": "C" 
			},
			{
				"x": 2.9274372597,
				"y": 3.0065204096,
				"z": 0.9808284267,
				"element": "H" 
			},
			{
				"x": 3.9356531003,
				"y": 1.566199098,
				"z": 0.8057611702,
				"element": "H" 
			},
			{
				"x": 4.3900378084,
				"y": 3.0677597562,
				"z": -0.0188119928,
				"element": "H" 
			},
			{
				"x": 2.367404438,
				"y": 2.9094225242,
				"z": -1.4803212735,
				"element": "H" 
			},
			{
				"x": 3.3713572846,
				"y": 1.4798167695,
				"z": -1.6569040511,
				"element": "H" 
			},
			{
				"x": 2.6343298071,
				"y": -0.7151128681,
				"z": -0.6961924144,
				"element": "H" 
			},
			{
				"x": 0.7047405876,
				"y": -2.1371652772,
				"z": -0.0409851423,
				"element": "H" 
			},
			{
				"x": -3.2932364671,
				"y": -1.6653322309,
				"z": 1.6198249839,
				"element": "H" 
			},
			{
				"x": -2.6521962819,
				"y": -0.0161040827,
				"z": 1.7278300301,
				"element": "H" 
			},
			{
				"x": -2.841537377,
				"y": -1.4228083913,
				"z": -1.2086060315,
				"element": "H" 
			},
			{
				"x": -1.7760112747,
				"y": 1.3705496039,
				"z": 0.2004027095,
				"element": "H" 
			},
			{
				"x": 0.138582931,
				"y": 2.7664864456,
				"z": -0.4235214862,
				"element": "H" 
			}
		],
		 "valence_orbital": [ 
			{
				"type": "occ",
				"energy": -0.33585,
				"method": "rhf"
			},
			{
				"type": "occ",
				"energy": -0.31744,
				"method": "rhf"
			},
			{
				"type": "occ",
				"energy": -0.27368,
				"method": "rhf"
			},
			{
				"type": "occ",
				"energy": -0.26142,
				"method": "rhf"
			},
			{
				"type": "occ",
				"energy": -0.23127,
				"method": "rhf"
			},
			{
				"type": "unocc",
				"energy": -0.01515,
				"method": "rhf"
			},
			{
				"type": "unocc",
				"energy": -0.00179,
				"method": "rhf"
			},
			{
				"type": "unocc",
				"energy": 0.00557,
				"method": "rhf"
			},
			{
				"type": "unocc",
				"energy": 0.07595,
				"method": "rhf"
			},
			{
				"type": "unocc",
				"energy": 0.08496,
				"method": "rhf"
			}
		],
		"cosmo_sigma_profile": { 
			"-0.025": 0.0,
			"-0.024": 0.0,
			"-0.023": 0.0,
			"-0.022": 0.0,
			"-0.021": 0.0,
			"-0.02": 0.0,
			"-0.019": 0.0,
			"-0.018": 0.0,
			"-0.017": 0.0,
			"-0.016": 0.214280743838,
			"-0.015": 0.630147175093,
			"-0.014": 0.437673339987,
			"-0.013": 0.455027076737,
			"-0.012": 0.809584177034,
			"-0.011": 0.913505338529,
			"-0.01": 1.79659906732,
			"-0.009": 4.52816071898,
			"-0.008": 5.53671338378,
			"-0.007": 6.09318323553,
			"-0.006": 9.03775054068,
			"-0.005": 12.7032410427,
			"-0.004": 13.4906596652,
			"-0.003": 18.3042455774,
			"-0.002": 18.6726689719,
			"-0.001": 20.6511909309,
			"0.0": 19.051561473,
			"0.001": 18.0605473284,
			"0.002": 11.6410221871,
			"0.003": 10.8657642778,
			"0.004": 10.7963706275,
			"0.005": 11.2379956912,
			"0.006": 5.61261366141,
			"0.007": 3.36089207859,
			"0.008": 3.54225585663,
			"0.009": 4.67074612634,
			"0.01": 4.81780567406,
			"0.011": 4.68670907421,
			"0.012": 4.93673183971,
			"0.013": 0.858086033522,
			"0.014": 0.0,
			"0.015": 0.0,
			"0.016": 0.0,
			"0.017": 0.0,
			"0.018": 0.0,
			"0.019": 0.0,
			"0.02": 0.0,
			"0.021": 0.0,
			"0.022": 0.0,
			"0.023": 0.0,
			"0.024": 0.0,
			"0.025": 0.0
		}
	}
}
