{
	 "smiles": "NC1=C(COC2=CC=CC=C2)C=CC=C1", 
	 "Tm": 351.15, 
	 "num_atms": 28, 
	 "gaussian": { 
		 "optdone": 1, 
		 "sigma_profile": "yes", 
		 "theory": "DFT", 
		 "functional": "B3LYP", 
		 "basiset": "6-31G**", 
		 "properties": { 
			 "R2extent": 3949.8905, 
			 "electric_dipole_moment_norm": 2.42602990295, 
			 "electric_quadrupole_moment_norm": 8.4488794618, 
			 "total_energy": -633.185326705, 
			 "HOMO_LUMO_gap": 0.20476, 
			 "cosmo_polarized_energy": -11.39, 
			 "cosmo_cavitation_energy": 31.1, 
			 "cosmo_dispersion_energy": -22.64, 
			 "cosmo_repulsion_energy": 1.78, 
			 "cosmo_total_nonelectrostatic_energy": 10.24, 
			 "SMD_solvation_energy": 5.21 
		},
		"coords": [
			{
				"x": 1.800718964,
				"y": -0.3987225609,
				"z": -2.2260563583,
				"element": "N" 
			},
			{
				"x": 0.7059762929,
				"y": -1.0559799561,
				"z": -1.6449391681,
				"element": "C" 
			},
			{
				"x": 0.4790515648,
				"y": -0.979321331,
				"z": -0.2521223054,
				"element": "C" 
			},
			{
				"x": 1.41887061,
				"y": -0.1533544979,
				"z": 0.6039138314,
				"element": "C" 
			},
			{
				"x": 1.0595681915,
				"y": -0.0855352818,
				"z": 1.9779961899,
				"element": "O" 
			},
			{
				"x": 0.1805603433,
				"y": 0.8825861913,
				"z": 2.3934867762,
				"element": "C" 
			},
			{
				"x": -0.6214615286,
				"y": 1.648448155,
				"z": 1.5394167977,
				"element": "C" 
			},
			{
				"x": -1.4770771833,
				"y": 2.6114303191,
				"z": 2.0832854539,
				"element": "C" 
			},
			{
				"x": -1.5479160622,
				"y": 2.8123369342,
				"z": 3.4604937507,
				"element": "C" 
			},
			{
				"x": -0.7508229002,
				"y": 2.0334651308,
				"z": 4.3058221952,
				"element": "C" 
			},
			{
				"x": 0.1102332953,
				"y": 1.0753180121,
				"z": 3.7803274395,
				"element": "C" 
			},
			{
				"x": -0.5681430086,
				"y": -1.7117233953,
				"z": 0.309893587,
				"element": "C" 
			},
			{
				"x": -1.399719184,
				"y": -2.5102548808,
				"z": -0.4763908008,
				"element": "C" 
			},
			{
				"x": -1.1749038781,
				"y": -2.5822176797,
				"z": -1.8512886855,
				"element": "C" 
			},
			{
				"x": -0.1342749576,
				"y": -1.8601192365,
				"z": -2.4303762094,
				"element": "C" 
			},
			{
				"x": 1.74665695,
				"y": -0.3218238545,
				"z": -3.2332143294,
				"element": "H" 
			},
			{
				"x": 2.0512353571,
				"y": 0.4889201978,
				"z": -1.8107066566,
				"element": "H" 
			},
			{
				"x": 2.4202414819,
				"y": -0.601234695,
				"z": 0.5915788483,
				"element": "H" 
			},
			{
				"x": 1.5240521893,
				"y": 0.8696955649,
				"z": 0.2076809095,
				"element": "H" 
			},
			{
				"x": -0.6087360998,
				"y": 1.4821348943,
				"z": 0.4687749551,
				"element": "H" 
			},
			{
				"x": -2.0990942784,
				"y": 3.2004272281,
				"z": 1.4148912053,
				"element": "H" 
			},
			{
				"x": -2.2174062345,
				"y": 3.5609648817,
				"z": 3.8726091658,
				"element": "H" 
			},
			{
				"x": -0.7955488453,
				"y": 2.1767789036,
				"z": 5.3818497468,
				"element": "H" 
			},
			{
				"x": 0.742665272,
				"y": 0.4682966621,
				"z": 4.4200469038,
				"element": "H" 
			},
			{
				"x": -0.7226138753,
				"y": -1.6528453677,
				"z": 1.3819280112,
				"element": "H" 
			},
			{
				"x": -2.2090417363,
				"y": -3.0704113572,
				"z": -0.0187925807,
				"element": "H" 
			},
			{
				"x": -1.8119419585,
				"y": -3.198092631,
				"z": -2.4799527591,
				"element": "H" 
			},
			{
				"x": 0.0398712184,
				"y": -1.9177663497,
				"z": -3.5026559139,
				"element": "H" 
			}
		],
		 "valence_orbital": [ 
			{
				"type": "occ",
				"energy": -0.30557,
				"method": "rhf"
			},
			{
				"type": "occ",
				"energy": -0.24864,
				"method": "rhf"
			},
			{
				"type": "occ",
				"energy": -0.23948,
				"method": "rhf"
			},
			{
				"type": "occ",
				"energy": -0.21691,
				"method": "rhf"
			},
			{
				"type": "occ",
				"energy": -0.20398,
				"method": "rhf"
			},
			{
				"type": "unocc",
				"energy": 0.00078,
				"method": "rhf"
			},
			{
				"type": "unocc",
				"energy": 0.00535,
				"method": "rhf"
			},
			{
				"type": "unocc",
				"energy": 0.01498,
				"method": "rhf"
			},
			{
				"type": "unocc",
				"energy": 0.01942,
				"method": "rhf"
			},
			{
				"type": "unocc",
				"energy": 0.06633,
				"method": "rhf"
			}
		],
		"cosmo_sigma_profile": { 
			"-0.025": 0.0,
			"-0.024": 0.0,
			"-0.023": 0.0,
			"-0.022": 0.0,
			"-0.021": 0.0,
			"-0.02": 0.0,
			"-0.019": 0.0,
			"-0.018": 0.0,
			"-0.017": 0.0,
			"-0.016": 0.0,
			"-0.015": 0.0,
			"-0.014": 0.0,
			"-0.013": 0.363727076008,
			"-0.012": 2.46755037234,
			"-0.011": 3.29144517669,
			"-0.01": 3.03649294676,
			"-0.009": 3.63118901456,
			"-0.008": 2.87131152575,
			"-0.007": 3.41064398837,
			"-0.006": 8.84924030772,
			"-0.005": 18.5778573505,
			"-0.004": 20.2103754603,
			"-0.003": 20.9134471137,
			"-0.002": 16.1179776168,
			"-0.001": 15.5046208566,
			"0.0": 11.9137970076,
			"0.001": 13.1122789981,
			"0.002": 14.6822418151,
			"0.003": 16.4742472497,
			"0.004": 18.5210024657,
			"0.005": 17.6943736486,
			"0.006": 17.4527627633,
			"0.007": 9.95330391196,
			"0.008": 2.44347364354,
			"0.009": 1.62671427671,
			"0.01": 1.73157961305,
			"0.011": 1.08488222506,
			"0.012": 0.535868243207,
			"0.013": 0.372035514815,
			"0.014": 0.557272996709,
			"0.015": 0.216952675874,
			"0.016": 0.0,
			"0.017": 0.0,
			"0.018": 0.0,
			"0.019": 0.0,
			"0.02": 0.0,
			"0.021": 0.0,
			"0.022": 0.0,
			"0.023": 0.0,
			"0.024": 0.0,
			"0.025": 0.0
		}
	}
}
