{
	 "smiles": "O=C(C1CC2=C(CN1)C=CC=C2)N1CCCC1", 
	 "Tm": 362.15, 
	 "num_atms": 35, 
	 "gaussian": { 
		 "optdone": 1, 
		 "sigma_profile": "yes", 
		 "theory": "DFT", 
		 "functional": "B3LYP", 
		 "basiset": "6-31G**", 
		 "properties": { 
			 "R2extent": 5432.2365, 
			 "electric_dipole_moment_norm": 3.41685896841, 
			 "electric_quadrupole_moment_norm": 10.1728546559, 
			 "total_energy": -729.079864014, 
			 "HOMO_LUMO_gap": 0.22676, 
			 "cosmo_polarized_energy": -13.7, 
			 "cosmo_cavitation_energy": 35.17, 
			 "cosmo_dispersion_energy": -25.55, 
			 "cosmo_repulsion_energy": 1.98, 
			 "cosmo_total_nonelectrostatic_energy": 11.6, 
			 "SMD_solvation_energy": 3.57 
		},
		"coords": [
			{
				"x": 1.0800551262,
				"y": -1.6332277773,
				"z": 1.4980295192,
				"element": "O" 
			},
			{
				"x": 0.9395013055,
				"y": -0.6211029745,
				"z": 0.8117160518,
				"element": "C" 
			},
			{
				"x": -0.1038584953,
				"y": 0.4615092556,
				"z": 1.168962612,
				"element": "C" 
			},
			{
				"x": -0.664757435,
				"y": 0.2472026596,
				"z": 2.5871438502,
				"element": "C" 
			},
			{
				"x": -1.8348386369,
				"y": -0.7185606836,
				"z": 2.6494722509,
				"element": "C" 
			},
			{
				"x": -2.4760474597,
				"y": -1.1621429184,
				"z": 1.4829768066,
				"element": "C" 
			},
			{
				"x": -1.9550614991,
				"y": -0.7330927377,
				"z": 0.1226729446,
				"element": "C" 
			},
			{
				"x": -1.1521591932,
				"y": 0.495893643,
				"z": 0.1301179269,
				"element": "N" 
			},
			{
				"x": -3.5753063077,
				"y": -2.0241222029,
				"z": 1.5814739082,
				"element": "C" 
			},
			{
				"x": -4.0441192371,
				"y": -2.4502540225,
				"z": 2.8218141983,
				"element": "C" 
			},
			{
				"x": -3.4078643611,
				"y": -2.0102134599,
				"z": 3.9854054188,
				"element": "C" 
			},
			{
				"x": -2.3154993393,
				"y": -1.1511043592,
				"z": 3.8928053034,
				"element": "C" 
			},
			{
				"x": 1.7015026409,
				"y": -0.4005956479,
				"z": -0.2938247976,
				"element": "N" 
			},
			{
				"x": 1.6649506188,
				"y": 0.7603693177,
				"z": -1.1973725566,
				"element": "C" 
			},
			{
				"x": 2.445747144,
				"y": 0.2675853459,
				"z": -2.4240625818,
				"element": "C" 
			},
			{
				"x": 3.4885433732,
				"y": -0.6862311449,
				"z": -1.8155817638,
				"element": "C" 
			},
			{
				"x": 2.7157957331,
				"y": -1.3904586918,
				"z": -0.6903474025,
				"element": "C" 
			},
			{
				"x": 0.4051419695,
				"y": 1.4334254403,
				"z": 1.1341611649,
				"element": "H" 
			},
			{
				"x": -0.9924042844,
				"y": 1.2218720527,
				"z": 2.9763366887,
				"element": "H" 
			},
			{
				"x": 0.1342250409,
				"y": -0.1050069067,
				"z": 3.2464067233,
				"element": "H" 
			},
			{
				"x": -1.3357733163,
				"y": -1.5368080051,
				"z": -0.2985620579,
				"element": "H" 
			},
			{
				"x": -2.7865451947,
				"y": -0.5898670124,
				"z": -0.5765267156,
				"element": "H" 
			},
			{
				"x": -1.7656135108,
				"y": 1.2837580819,
				"z": 0.330439811,
				"element": "H" 
			},
			{
				"x": -4.0672972974,
				"y": -2.3629568742,
				"z": 0.6716721878,
				"element": "H" 
			},
			{
				"x": -4.8999461048,
				"y": -3.1167117256,
				"z": 2.882409997,
				"element": "H" 
			},
			{
				"x": -3.7614890809,
				"y": -2.3360964607,
				"z": 4.9596089192,
				"element": "H" 
			},
			{
				"x": -1.8188079141,
				"y": -0.8103143749,
				"z": 4.7987140632,
				"element": "H" 
			},
			{
				"x": 2.1704926578,
				"y": 1.6250934038,
				"z": -0.7403509015,
				"element": "H" 
			},
			{
				"x": 0.6314626632,
				"y": 1.03630381,
				"z": -1.4146100913,
				"element": "H" 
			},
			{
				"x": 2.8882234497,
				"y": 1.0887545405,
				"z": -2.9947524625,
				"element": "H" 
			},
			{
				"x": 1.774945173,
				"y": -0.2837027154,
				"z": -3.0930595211,
				"element": "H" 
			},
			{
				"x": 3.9032795607,
				"y": -1.3918615629,
				"z": -2.5403539791,
				"element": "H" 
			},
			{
				"x": 4.3224958217,
				"y": -0.1108441846,
				"z": -1.3970089781,
				"element": "H" 
			},
			{
				"x": 2.2263061516,
				"y": -2.3089708075,
				"z": -1.0389666336,
				"element": "H" 
			},
			{
				"x": 3.3361202379,
				"y": -1.6640203005,
				"z": 0.1676400969,
				"element": "H" 
			}
		],
		 "valence_orbital": [ 
			{
				"type": "occ",
				"energy": -0.24063,
				"method": "rhf"
			},
			{
				"type": "occ",
				"energy": -0.23324,
				"method": "rhf"
			},
			{
				"type": "occ",
				"energy": -0.23263,
				"method": "rhf"
			},
			{
				"type": "occ",
				"energy": -0.22726,
				"method": "rhf"
			},
			{
				"type": "occ",
				"energy": -0.2204,
				"method": "rhf"
			},
			{
				"type": "unocc",
				"energy": 0.00636,
				"method": "rhf"
			},
			{
				"type": "unocc",
				"energy": 0.01033,
				"method": "rhf"
			},
			{
				"type": "unocc",
				"energy": 0.02866,
				"method": "rhf"
			},
			{
				"type": "unocc",
				"energy": 0.07997,
				"method": "rhf"
			},
			{
				"type": "unocc",
				"energy": 0.09248,
				"method": "rhf"
			}
		],
		"cosmo_sigma_profile": { 
			"-0.025": 0.0,
			"-0.024": 0.0,
			"-0.023": 0.0,
			"-0.022": 0.0,
			"-0.021": 0.0,
			"-0.02": 0.0,
			"-0.019": 0.0,
			"-0.018": 0.0,
			"-0.017": 0.0,
			"-0.016": 0.0,
			"-0.015": 0.0,
			"-0.014": 0.0,
			"-0.013": 0.0,
			"-0.012": 0.0,
			"-0.011": 0.351435884702,
			"-0.01": 1.64739828966,
			"-0.009": 1.18374169675,
			"-0.008": 1.34675958635,
			"-0.007": 1.87774829828,
			"-0.006": 3.0630439096,
			"-0.005": 16.0588616082,
			"-0.004": 28.7596544131,
			"-0.003": 41.329388142,
			"-0.002": 39.4475640073,
			"-0.001": 30.633675533,
			"0.0": 20.9109727169,
			"0.001": 12.3986048496,
			"0.002": 10.056554012,
			"0.003": 8.49321666228,
			"0.004": 9.32509090175,
			"0.005": 8.8930250727,
			"0.006": 9.50612771888,
			"0.007": 8.79652433864,
			"0.008": 2.81692930849,
			"0.009": 2.40982772258,
			"0.01": 2.60298753846,
			"0.011": 2.44750199469,
			"0.012": 1.6664887976,
			"0.013": 2.25887041606,
			"0.014": 4.2264417517,
			"0.015": 2.69695843974,
			"0.016": 0.0,
			"0.017": 0.0,
			"0.018": 0.0,
			"0.019": 0.0,
			"0.02": 0.0,
			"0.021": 0.0,
			"0.022": 0.0,
			"0.023": 0.0,
			"0.024": 0.0,
			"0.025": 0.0
		}
	}
}
