{
	 "smiles": "O=C1CN(C=CC2=CC=CC=C2)C(=O)N1", 
	 "Tm": 498.15, 
	 "num_atms": 25, 
	 "gaussian": { 
		 "optdone": 1, 
		 "sigma_profile": "yes", 
		 "theory": "DFT", 
		 "functional": "B3LYP", 
		 "basiset": "6-31G**", 
		 "properties": { 
			 "R2extent": 4974.9892, 
			 "electric_dipole_moment_norm": 1.41917731098, 
			 "electric_quadrupole_moment_norm": 5.46585297643, 
			 "total_energy": -685.174354378, 
			 "HOMO_LUMO_gap": 0.16889, 
			 "cosmo_polarized_energy": -16.02, 
			 "cosmo_cavitation_energy": 30.18, 
			 "cosmo_dispersion_energy": -22.11, 
			 "cosmo_repulsion_energy": 1.72, 
			 "cosmo_total_nonelectrostatic_energy": 9.79, 
			 "SMD_solvation_energy": 6.65 
		},
		"coords": [
			{
				"x": 1.6374554569,
				"y": 4.7532095602,
				"z": -0.3284215733,
				"element": "O" 
			},
			{
				"x": 0.7235689915,
				"y": 3.9620027087,
				"z": -0.3802484914,
				"element": "C" 
			},
			{
				"x": 0.7885088644,
				"y": 2.4487096255,
				"z": -0.1486811413,
				"element": "C" 
			},
			{
				"x": -0.5876628535,
				"y": 2.0217778485,
				"z": -0.337435995,
				"element": "N" 
			},
			{
				"x": -1.0565157552,
				"y": 0.7151922628,
				"z": -0.233926852,
				"element": "C" 
			},
			{
				"x": -0.288620153,
				"y": -0.3498317384,
				"z": 0.0601894684,
				"element": "C" 
			},
			{
				"x": -0.7462023494,
				"y": -1.7385103679,
				"z": 0.1775812353,
				"element": "C" 
			},
			{
				"x": 0.1953077986,
				"y": -2.7345790793,
				"z": 0.4958620399,
				"element": "C" 
			},
			{
				"x": -0.1783309816,
				"y": -4.0715317916,
				"z": 0.6214562624,
				"element": "C" 
			},
			{
				"x": -1.5079588064,
				"y": -4.4483670303,
				"z": 0.4312743198,
				"element": "C" 
			},
			{
				"x": -2.4571390629,
				"y": -3.47167378,
				"z": 0.1142631671,
				"element": "C" 
			},
			{
				"x": -2.0844565532,
				"y": -2.1369941879,
				"z": -0.0112028097,
				"element": "C" 
			},
			{
				"x": -1.424577624,
				"y": 3.0865292082,
				"z": -0.6451929711,
				"element": "C" 
			},
			{
				"x": -2.6176315278,
				"y": 3.0531480942,
				"z": -0.8583554629,
				"element": "O" 
			},
			{
				"x": -0.6032162108,
				"y": 4.2274020084,
				"z": -0.6609744298,
				"element": "N" 
			},
			{
				"x": 1.1557704652,
				"y": 2.2346608871,
				"z": 0.8620212294,
				"element": "H" 
			},
			{
				"x": 1.4711735714,
				"y": 1.9833361611,
				"z": -0.8695587034,
				"element": "H" 
			},
			{
				"x": -2.1226955658,
				"y": 0.6531382877,
				"z": -0.4193021406,
				"element": "H" 
			},
			{
				"x": 0.7751166972,
				"y": -0.198309936,
				"z": 0.232565213,
				"element": "H" 
			},
			{
				"x": 1.2342481844,
				"y": -2.4509001636,
				"z": 0.646116075,
				"element": "H" 
			},
			{
				"x": 0.5710694167,
				"y": -4.818401597,
				"z": 0.8681605765,
				"element": "H" 
			},
			{
				"x": -1.8036494419,
				"y": -5.4887640633,
				"z": 0.5280661201,
				"element": "H" 
			},
			{
				"x": -3.495726272,
				"y": -3.7527811485,
				"z": -0.036376257,
				"element": "H" 
			},
			{
				"x": -2.8427127336,
				"y": -1.4000888884,
				"z": -0.258357067,
				"element": "H" 
			},
			{
				"x": -0.9693235553,
				"y": 5.1470271199,
				"z": -0.8617218122,
				"element": "H" 
			}
		],
		 "valence_orbital": [ 
			{
				"type": "occ",
				"energy": -0.30251,
				"method": "rhf"
			},
			{
				"type": "occ",
				"energy": -0.27995,
				"method": "rhf"
			},
			{
				"type": "occ",
				"energy": -0.27721,
				"method": "rhf"
			},
			{
				"type": "occ",
				"energy": -0.25183,
				"method": "rhf"
			},
			{
				"type": "occ",
				"energy": -0.2085,
				"method": "rhf"
			},
			{
				"type": "unocc",
				"energy": -0.03961,
				"method": "rhf"
			},
			{
				"type": "unocc",
				"energy": -0.01801,
				"method": "rhf"
			},
			{
				"type": "unocc",
				"energy": -0.00099,
				"method": "rhf"
			},
			{
				"type": "unocc",
				"energy": 0.04346,
				"method": "rhf"
			},
			{
				"type": "unocc",
				"energy": 0.07415,
				"method": "rhf"
			}
		],
		"cosmo_sigma_profile": { 
			"-0.025": 0.0,
			"-0.024": 0.0,
			"-0.023": 0.0,
			"-0.022": 0.0,
			"-0.021": 0.0,
			"-0.02": 0.0,
			"-0.019": 0.0,
			"-0.018": 0.0306651958669,
			"-0.017": 0.981023530469,
			"-0.016": 1.3934691527,
			"-0.015": 0.819963629519,
			"-0.014": 1.40225606638,
			"-0.013": 0.582292641873,
			"-0.012": 0.453096328453,
			"-0.011": 1.38831144328,
			"-0.01": 0.703441599918,
			"-0.009": 3.63126789876,
			"-0.008": 9.46994243862,
			"-0.007": 11.1605011164,
			"-0.006": 13.9028046142,
			"-0.005": 15.2399202097,
			"-0.004": 16.3739479791,
			"-0.003": 17.5942893113,
			"-0.002": 13.7171072587,
			"-0.001": 14.6016798102,
			"0.0": 10.7965507892,
			"0.001": 10.3792660006,
			"0.002": 11.7579760019,
			"0.003": 12.0168737907,
			"0.004": 13.8586820359,
			"0.005": 14.56324909,
			"0.006": 12.7567863223,
			"0.007": 3.43294430097,
			"0.008": 2.24630114891,
			"0.009": 3.10648668641,
			"0.01": 4.11692127076,
			"0.011": 8.17244957689,
			"0.012": 9.79520933539,
			"0.013": 1.22281253277,
			"0.014": 0.0,
			"0.015": 0.0,
			"0.016": 0.0,
			"0.017": 0.0,
			"0.018": 0.0,
			"0.019": 0.0,
			"0.02": 0.0,
			"0.021": 0.0,
			"0.022": 0.0,
			"0.023": 0.0,
			"0.024": 0.0,
			"0.025": 0.0
		}
	}
}
