{
	 "smiles": "COC1=CC=CC=C1C1=NN=C2SCN(CN12)C(C)C", 
	 "Tm": 480.15, 
	 "num_atms": 38, 
	 "gaussian": { 
		 "optdone": 1, 
		 "sigma_profile": "yes", 
		 "theory": "DFT", 
		 "functional": "B3LYP", 
		 "basiset": "6-31G**", 
		 "properties": { 
			 "R2extent": 6098.0158, 
			 "electric_dipole_moment_norm": 8.02069827259, 
			 "electric_quadrupole_moment_norm": 22.05247895, 
			 "total_energy": -1236.71428493, 
			 "HOMO_LUMO_gap": 0.18064, 
			 "cosmo_polarized_energy": -22.15, 
			 "cosmo_cavitation_energy": 40.0, 
			 "cosmo_dispersion_energy": -27.95, 
			 "cosmo_repulsion_energy": 2.04, 
			 "cosmo_total_nonelectrostatic_energy": 14.1, 
			 "SMD_solvation_energy": 3.44 
		},
		"coords": [
			{
				"x": -2.0990155597,
				"y": 1.2003617031,
				"z": 1.6520900972,
				"element": "C" 
			},
			{
				"x": -1.2287845255,
				"y": 0.2132072224,
				"z": 1.1109500874,
				"element": "O" 
			},
			{
				"x": -0.9197370151,
				"y": -0.8781042563,
				"z": 1.8830017197,
				"element": "C" 
			},
			{
				"x": -1.2574119323,
				"y": -0.9761065826,
				"z": 3.2367070647,
				"element": "C" 
			},
			{
				"x": -0.9398609763,
				"y": -2.1301477239,
				"z": 3.9560605204,
				"element": "C" 
			},
			{
				"x": -0.2905186509,
				"y": -3.1930723744,
				"z": 3.3329962357,
				"element": "C" 
			},
			{
				"x": 0.0521255088,
				"y": -3.0885093956,
				"z": 1.9860899849,
				"element": "C" 
			},
			{
				"x": -0.2379851507,
				"y": -1.9363717605,
				"z": 1.2411403345,
				"element": "C" 
			},
			{
				"x": 0.1020148752,
				"y": -1.9517186245,
				"z": -0.1941318238,
				"element": "C" 
			},
			{
				"x": -0.1497081973,
				"y": -2.9813905711,
				"z": -0.9776632547,
				"element": "N" 
			},
			{
				"x": 0.3991825479,
				"y": -2.7260652814,
				"z": -2.2150063774,
				"element": "N" 
			},
			{
				"x": 0.9749861113,
				"y": -1.5474612109,
				"z": -2.1429885673,
				"element": "C" 
			},
			{
				"x": 1.7866993499,
				"y": -0.7516784935,
				"z": -3.4915175259,
				"element": "S" 
			},
			{
				"x": 2.6595457205,
				"y": 0.5602015761,
				"z": -2.4398703912,
				"element": "C" 
			},
			{
				"x": 1.8587369567,
				"y": 1.149118305,
				"z": -1.4164881421,
				"element": "N" 
			},
			{
				"x": 1.4960217803,
				"y": 0.2201039245,
				"z": -0.3800525851,
				"element": "C" 
			},
			{
				"x": 0.8065151215,
				"y": -0.9889508422,
				"z": -0.8962759493,
				"element": "N" 
			},
			{
				"x": 0.8845208185,
				"y": 2.2001635118,
				"z": -1.8007142711,
				"element": "C" 
			},
			{
				"x": -0.523155581,
				"y": 1.6954272073,
				"z": -2.1633393399,
				"element": "C" 
			},
			{
				"x": 0.8317679698,
				"y": 3.2770861761,
				"z": -0.7075499395,
				"element": "C" 
			},
			{
				"x": -2.2875241854,
				"y": 1.9082260495,
				"z": 0.8439894798,
				"element": "H" 
			},
			{
				"x": -3.0476785942,
				"y": 0.7576520924,
				"z": 1.9769333789,
				"element": "H" 
			},
			{
				"x": -1.6391963055,
				"y": 1.7300644624,
				"z": 2.4956969672,
				"element": "H" 
			},
			{
				"x": -1.7762979948,
				"y": -0.1655031663,
				"z": 3.7335211605,
				"element": "H" 
			},
			{
				"x": -1.2103073324,
				"y": -2.1907790856,
				"z": 5.0062639038,
				"element": "H" 
			},
			{
				"x": -0.0518303671,
				"y": -4.0954080631,
				"z": 3.8866453434,
				"element": "H" 
			},
			{
				"x": 0.5460392545,
				"y": -3.9079832711,
				"z": 1.4754268518,
				"element": "H" 
			},
			{
				"x": 3.530094477,
				"y": 0.0724534903,
				"z": -1.9926829654,
				"element": "H" 
			},
			{
				"x": 2.9985003095,
				"y": 1.3100400698,
				"z": -3.156115409,
				"element": "H" 
			},
			{
				"x": 0.8314362931,
				"y": 0.6949670312,
				"z": 0.3381432038,
				"element": "H" 
			},
			{
				"x": 2.4020908741,
				"y": -0.1138938333,
				"z": 0.1411892129,
				"element": "H" 
			},
			{
				"x": 1.318079075,
				"y": 2.6630592533,
				"z": -2.6952768691,
				"element": "H" 
			},
			{
				"x": -0.9961943779,
				"y": 1.1913118412,
				"z": -1.3152754753,
				"element": "H" 
			},
			{
				"x": -1.1546905725,
				"y": 2.5438357765,
				"z": -2.4487783097,
				"element": "H" 
			},
			{
				"x": -0.4936028982,
				"y": 0.9968380841,
				"z": -3.0019352627,
				"element": "H" 
			},
			{
				"x": 0.2107667169,
				"y": 4.1173928258,
				"z": -1.034100403,
				"element": "H" 
			},
			{
				"x": 1.833976665,
				"y": 3.6505674973,
				"z": -0.4805534877,
				"element": "H" 
			},
			{
				"x": 0.3939997912,
				"y": 2.8896664361,
				"z": 0.2191708026,
				"element": "H" 
			}
		],
		 "valence_orbital": [ 
			{
				"type": "occ",
				"energy": -0.25781,
				"method": "rhf"
			},
			{
				"type": "occ",
				"energy": -0.24243,
				"method": "rhf"
			},
			{
				"type": "occ",
				"energy": -0.23686,
				"method": "rhf"
			},
			{
				"type": "occ",
				"energy": -0.23397,
				"method": "rhf"
			},
			{
				"type": "occ",
				"energy": -0.20585,
				"method": "rhf"
			},
			{
				"type": "unocc",
				"energy": -0.02521,
				"method": "rhf"
			},
			{
				"type": "unocc",
				"energy": 0.00057,
				"method": "rhf"
			},
			{
				"type": "unocc",
				"energy": 0.01625,
				"method": "rhf"
			},
			{
				"type": "unocc",
				"energy": 0.03397,
				"method": "rhf"
			},
			{
				"type": "unocc",
				"energy": 0.05357,
				"method": "rhf"
			}
		],
		"cosmo_sigma_profile": { 
			"-0.025": 0.0,
			"-0.024": 0.0,
			"-0.023": 0.0,
			"-0.022": 0.0,
			"-0.021": 0.0,
			"-0.02": 0.0,
			"-0.019": 0.0,
			"-0.018": 0.0,
			"-0.017": 0.0,
			"-0.016": 0.0,
			"-0.015": 0.0,
			"-0.014": 0.0,
			"-0.013": 0.0,
			"-0.012": 0.0,
			"-0.011": 0.0,
			"-0.01": 0.000794846869064,
			"-0.009": 1.08612825654,
			"-0.008": 5.86140831477,
			"-0.007": 10.8578517538,
			"-0.006": 17.5854516182,
			"-0.005": 24.7474042477,
			"-0.004": 27.7737837577,
			"-0.003": 33.6525852628,
			"-0.002": 26.3448654269,
			"-0.001": 21.4623291659,
			"0.0": 24.2361237466,
			"0.001": 23.1350208277,
			"0.002": 14.6143274226,
			"0.003": 17.531690152,
			"0.004": 17.8057200172,
			"0.005": 13.4892947953,
			"0.006": 7.6460684372,
			"0.007": 4.87004925348,
			"0.008": 3.25740734219,
			"0.009": 2.30147258659,
			"0.01": 2.32911440052,
			"0.011": 2.03219377997,
			"0.012": 2.6573100815,
			"0.013": 3.59122322296,
			"0.014": 3.46233500931,
			"0.015": 2.29391429277,
			"0.016": 2.4907914654,
			"0.017": 1.53097237786,
			"0.018": 0.108608356679,
			"0.019": 0.0,
			"0.02": 0.0,
			"0.021": 0.0,
			"0.022": 0.0,
			"0.023": 0.0,
			"0.024": 0.0,
			"0.025": 0.0
		}
	}
}
