{
	 "smiles": "CN(C)[Si](C)(N(C)C)N(C)C", 
	 "Tm": 262.15, 
	 "num_atms": 32, 
	 "gaussian": { 
		 "optdone": 1, 
		 "sigma_profile": "yes", 
		 "theory": "DFT", 
		 "functional": "B3LYP", 
		 "basiset": "6-31G**", 
		 "properties": { 
			 "R2extent": 2475.7457, 
			 "electric_dipole_moment_norm": 0.394280458557, 
			 "electric_quadrupole_moment_norm": 0.977363663126, 
			 "total_energy": -733.21492198, 
			 "HOMO_LUMO_gap": 0.26081, 
			 "cosmo_polarized_energy": -1.99, 
			 "cosmo_cavitation_energy": 32.59, 
			 "cosmo_dispersion_energy": -20.24, 
			 "cosmo_repulsion_energy": 1.7, 
			 "cosmo_total_nonelectrostatic_energy": 14.05, 
			 "SMD_solvation_energy": 7.47 
		},
		"coords": [
			{
				"x": -2.8101040205,
				"y": 0.6831947866,
				"z": 0.5022283844,
				"element": "C" 
			},
			{
				"x": -1.5717448181,
				"y": -0.0290375629,
				"z": 0.230104368,
				"element": "N" 
			},
			{
				"x": -1.8148254378,
				"y": -1.356615262,
				"z": -0.3184686136,
				"element": "C" 
			},
			{
				"x": -0.037331325,
				"y": 0.3785059364,
				"z": 0.9652992722,
				"element": "Si" 
			},
			{
				"x": -0.0932356735,
				"y": 2.2074077476,
				"z": 1.4344566323,
				"element": "C" 
			},
			{
				"x": 1.1586894083,
				"y": -0.0135868776,
				"z": -0.2424876306,
				"element": "N" 
			},
			{
				"x": 0.9440826792,
				"y": 0.2375252973,
				"z": -1.6608969136,
				"element": "C" 
			},
			{
				"x": 2.5714223129,
				"y": -0.1601656075,
				"z": 0.0794219881,
				"element": "C" 
			},
			{
				"x": 0.4442109562,
				"y": -0.5208364686,
				"z": 2.3867322446,
				"element": "N" 
			},
			{
				"x": 0.2234754123,
				"y": -0.056404194,
				"z": 3.7470517761,
				"element": "C" 
			},
			{
				"x": 0.6592566889,
				"y": -1.9606399648,
				"z": 2.3296612893,
				"element": "C" 
			},
			{
				"x": -3.4385367673,
				"y": 0.1728386324,
				"z": 1.2526073167,
				"element": "H" 
			},
			{
				"x": -2.6115055906,
				"y": 1.6938267821,
				"z": 0.8645899883,
				"element": "H" 
			},
			{
				"x": -3.4144046409,
				"y": 0.7744194486,
				"z": -0.4134313061,
				"element": "H" 
			},
			{
				"x": -0.869441174,
				"y": -1.8542852014,
				"z": -0.5480027094,
				"element": "H" 
			},
			{
				"x": -2.3944700052,
				"y": -1.2936858924,
				"z": -1.252337505,
				"element": "H" 
			},
			{
				"x": -2.3823805455,
				"y": -2.0016041395,
				"z": 0.3736111924,
				"element": "H" 
			},
			{
				"x": -0.3032938347,
				"y": 2.8102002537,
				"z": 0.5442759596,
				"element": "H" 
			},
			{
				"x": 0.8848499842,
				"y": 2.5205974637,
				"z": 1.8154663252,
				"element": "H" 
			},
			{
				"x": -0.8401588094,
				"y": 2.4660782735,
				"z": 2.1915026495,
				"element": "H" 
			},
			{
				"x": 1.4730049094,
				"y": 1.142478939,
				"z": -2.0056969372,
				"element": "H" 
			},
			{
				"x": 1.3129248885,
				"y": -0.6022752251,
				"z": -2.2700933429,
				"element": "H" 
			},
			{
				"x": -0.1199643177,
				"y": 0.367017034,
				"z": -1.8673070334,
				"element": "H" 
			},
			{
				"x": 3.1557296716,
				"y": 0.7311763425,
				"z": -0.2063795285,
				"element": "H" 
			},
			{
				"x": 2.7022529566,
				"y": -0.3224748215,
				"z": 1.1509186702,
				"element": "H" 
			},
			{
				"x": 3.0104499969,
				"y": -1.0172743123,
				"z": -0.4544789813,
				"element": "H" 
			},
			{
				"x": -0.6767465468,
				"y": -0.4994306676,
				"z": 4.2072572354,
				"element": "H" 
			},
			{
				"x": 1.0762512535,
				"y": -0.3217638032,
				"z": 4.3906882919,
				"element": "H" 
			},
			{
				"x": 0.1151958416,
				"y": 1.0295691424,
				"z": 3.7795535865,
				"element": "H" 
			},
			{
				"x": 1.5251585534,
				"y": -2.2511951342,
				"z": 2.9443330997,
				"element": "H" 
			},
			{
				"x": 0.8604310377,
				"y": -2.27675943,
				"z": 1.3031643616,
				"element": "H" 
			},
			{
				"x": -0.2088430441,
				"y": -2.531801515,
				"z": 2.7001558699,
				"element": "H" 
			}
		],
		 "valence_orbital": [ 
			{
				"type": "occ",
				"energy": -0.33134,
				"method": "rhf"
			},
			{
				"type": "occ",
				"energy": -0.31065,
				"method": "rhf"
			},
			{
				"type": "occ",
				"energy": -0.22475,
				"method": "rhf"
			},
			{
				"type": "occ",
				"energy": -0.20253,
				"method": "rhf"
			},
			{
				"type": "occ",
				"energy": -0.19157,
				"method": "rhf"
			},
			{
				"type": "unocc",
				"energy": 0.06924,
				"method": "rhf"
			},
			{
				"type": "unocc",
				"energy": 0.09384,
				"method": "rhf"
			},
			{
				"type": "unocc",
				"energy": 0.10071,
				"method": "rhf"
			},
			{
				"type": "unocc",
				"energy": 0.1125,
				"method": "rhf"
			},
			{
				"type": "unocc",
				"energy": 0.12144,
				"method": "rhf"
			}
		],
		"cosmo_sigma_profile": { 
			"-0.025": 0.0,
			"-0.024": 0.0,
			"-0.023": 0.0,
			"-0.022": 0.0,
			"-0.021": 0.0,
			"-0.02": 0.0,
			"-0.019": 0.0,
			"-0.018": 0.0,
			"-0.017": 0.0,
			"-0.016": 0.0,
			"-0.015": 0.0,
			"-0.014": 0.0,
			"-0.013": 0.0,
			"-0.012": 0.0,
			"-0.011": 0.0,
			"-0.01": 0.0,
			"-0.009": 0.0,
			"-0.008": 0.0,
			"-0.007": 0.0,
			"-0.006": 0.0,
			"-0.005": 0.0,
			"-0.004": 1.71284677405,
			"-0.003": 12.3610078184,
			"-0.002": 37.6246318358,
			"-0.001": 49.6663809604,
			"0.0": 62.713971249,
			"0.001": 46.7623605562,
			"0.002": 14.568027426,
			"0.003": 7.90936157851,
			"0.004": 5.64197235708,
			"0.005": 3.7721383105,
			"0.006": 2.53630928432,
			"0.007": 1.5171987007,
			"0.008": 0.397046674086,
			"0.009": 0.0,
			"0.01": 0.0,
			"0.011": 0.0,
			"0.012": 0.0,
			"0.013": 0.0,
			"0.014": 0.0,
			"0.015": 0.0,
			"0.016": 0.0,
			"0.017": 0.0,
			"0.018": 0.0,
			"0.019": 0.0,
			"0.02": 0.0,
			"0.021": 0.0,
			"0.022": 0.0,
			"0.023": 0.0,
			"0.024": 0.0,
			"0.025": 0.0
		}
	}
}
