{
	 "smiles": "OC(=O)C1=CC(Cl)=C(Cl)N1", 
	 "Tm": 438.15, 
	 "num_atms": 13, 
	 "gaussian": { 
		 "optdone": 1, 
		 "sigma_profile": "yes", 
		 "theory": "DFT", 
		 "functional": "B3LYP", 
		 "basiset": "6-31G**", 
		 "properties": { 
			 "R2extent": 2366.3064, 
			 "electric_dipole_moment_norm": 1.77886912391, 
			 "electric_quadrupole_moment_norm": 19.9469478563, 
			 "total_energy": -1317.91641568, 
			 "HOMO_LUMO_gap": 0.19038, 
			 "cosmo_polarized_energy": -14.4, 
			 "cosmo_cavitation_energy": 22.09, 
			 "cosmo_dispersion_energy": -16.7, 
			 "cosmo_repulsion_energy": 1.38, 
			 "cosmo_total_nonelectrostatic_energy": 6.76, 
			 "SMD_solvation_energy": 4.51 
		},
		"coords": [
			{
				"x": -3.0519680225,
				"y": 1.8182889124,
				"z": 1.2048095504,
				"element": "O" 
			},
			{
				"x": -2.6770533999,
				"y": 0.6281133044,
				"z": 0.6798790504,
				"element": "C" 
			},
			{
				"x": -3.4994722549,
				"y": -0.1367785256,
				"z": 0.2204585291,
				"element": "O" 
			},
			{
				"x": -1.2429479064,
				"y": 0.3080668505,
				"z": 0.691272336,
				"element": "C" 
			},
			{
				"x": -0.0935034978,
				"y": 0.9532884976,
				"z": 1.1305545231,
				"element": "C" 
			},
			{
				"x": 0.994621929,
				"y": 0.0971024756,
				"z": 0.8466958492,
				"element": "C" 
			},
			{
				"x": 2.6617118867,
				"y": 0.4022200683,
				"z": 1.1830745036,
				"element": "Cl" 
			},
			{
				"x": 0.481588663,
				"y": -1.0447949677,
				"z": 0.2433369841,
				"element": "C" 
			},
			{
				"x": 1.2890844858,
				"y": -2.4442326891,
				"z": -0.331722067,
				"element": "Cl" 
			},
			{
				"x": -0.8670605579,
				"y": -0.9028895781,
				"z": 0.156664128,
				"element": "N" 
			},
			{
				"x": -2.2837543788,
				"y": 2.3099380642,
				"z": 1.5276606602,
				"element": "H" 
			},
			{
				"x": -0.0153434717,
				"y": 1.9230333538,
				"z": 1.6020080573,
				"element": "H" 
			},
			{
				"x": -1.5352034747,
				"y": -1.5559557663,
				"z": -0.2312921043,
				"element": "H" 
			}
		],
		 "valence_orbital": [ 
			{
				"type": "occ",
				"energy": -0.3308,
				"method": "rhf"
			},
			{
				"type": "occ",
				"energy": -0.32742,
				"method": "rhf"
			},
			{
				"type": "occ",
				"energy": -0.29179,
				"method": "rhf"
			},
			{
				"type": "occ",
				"energy": -0.27761,
				"method": "rhf"
			},
			{
				"type": "occ",
				"energy": -0.24161,
				"method": "rhf"
			},
			{
				"type": "unocc",
				"energy": -0.05123,
				"method": "rhf"
			},
			{
				"type": "unocc",
				"energy": 0.00069,
				"method": "rhf"
			},
			{
				"type": "unocc",
				"energy": 0.02384,
				"method": "rhf"
			},
			{
				"type": "unocc",
				"energy": 0.03821,
				"method": "rhf"
			},
			{
				"type": "unocc",
				"energy": 0.04805,
				"method": "rhf"
			}
		],
		"cosmo_sigma_profile": { 
			"-0.025": 0.0,
			"-0.024": 0.0,
			"-0.023": 0.0,
			"-0.022": 0.0,
			"-0.021": 0.0,
			"-0.02": 0.00545430162252,
			"-0.019": 0.846679030203,
			"-0.018": 1.2926199039,
			"-0.017": 1.44261832044,
			"-0.016": 1.74871020803,
			"-0.015": 2.05278510055,
			"-0.014": 1.98048737723,
			"-0.013": 1.7619458223,
			"-0.012": 2.32874365376,
			"-0.011": 1.81537366911,
			"-0.01": 2.38707906938,
			"-0.009": 2.56561861884,
			"-0.008": 2.74665543529,
			"-0.007": 2.27105309633,
			"-0.006": 2.96526860071,
			"-0.005": 4.07328011825,
			"-0.004": 5.52953528452,
			"-0.003": 7.72654064805,
			"-0.002": 10.2994233626,
			"-0.001": 12.6745400453,
			"0.0": 16.7106407951,
			"0.001": 18.0029529958,
			"0.002": 20.9376375514,
			"0.003": 18.8881146503,
			"0.004": 11.9288735874,
			"0.005": 1.4918142716,
			"0.006": 3.04418116832,
			"0.007": 2.64411758808,
			"0.008": 2.51556267732,
			"0.009": 2.91056145913,
			"0.01": 5.6162601086,
			"0.011": 4.34383265217,
			"0.012": 3.17786852112,
			"0.013": 1.53297909373,
			"0.014": 0.0486360453967,
			"0.015": 0.0,
			"0.016": 0.0,
			"0.017": 0.0,
			"0.018": 0.0,
			"0.019": 0.0,
			"0.02": 0.0,
			"0.021": 0.0,
			"0.022": 0.0,
			"0.023": 0.0,
			"0.024": 0.0,
			"0.025": 0.0
		}
	}
}
