{
	 "smiles": "OC(=O)C1=CC=CC(C(O)=O)=C1C(O)=O", 
	 "Tm": 473.15, 
	 "num_atms": 21, 
	 "gaussian": { 
		 "optdone": 1, 
		 "sigma_profile": "yes", 
		 "theory": "DFT", 
		 "functional": "B3LYP", 
		 "basiset": "6-31G**", 
		 "properties": { 
			 "R2extent": 3431.8278, 
			 "electric_dipole_moment_norm": 5.99489596073, 
			 "electric_quadrupole_moment_norm": 9.54298918002, 
			 "total_energy": -797.948004735, 
			 "HOMO_LUMO_gap": 0.18266, 
			 "cosmo_polarized_energy": -21.25, 
			 "cosmo_cavitation_energy": 26.63, 
			 "cosmo_dispersion_energy": -19.61, 
			 "cosmo_repulsion_energy": 1.53, 
			 "cosmo_total_nonelectrostatic_energy": 8.55, 
			 "SMD_solvation_energy": 7.84 
		},
		"coords": [
			{
				"x": 1.061040176,
				"y": 1.0120054557,
				"z": -2.786544803,
				"element": "O" 
			},
			{
				"x": 0.1807510584,
				"y": 1.2153674918,
				"z": -1.7917872916,
				"element": "C" 
			},
			{
				"x": -0.0225203381,
				"y": 2.3448191961,
				"z": -1.362712077,
				"element": "O" 
			},
			{
				"x": -0.5225718006,
				"y": -0.0238430739,
				"z": -1.3599127083,
				"element": "C" 
			},
			{
				"x": -0.6431426955,
				"y": -1.0442504811,
				"z": -2.3210381612,
				"element": "C" 
			},
			{
				"x": -1.3602795773,
				"y": -2.2011917453,
				"z": -2.0487710419,
				"element": "C" 
			},
			{
				"x": -1.9763741281,
				"y": -2.345011864,
				"z": -0.8090593537,
				"element": "C" 
			},
			{
				"x": -1.8635246142,
				"y": -1.346302349,
				"z": 0.1609136316,
				"element": "C" 
			},
			{
				"x": -2.6101054222,
				"y": -1.6034660836,
				"z": 1.4404191839,
				"element": "C" 
			},
			{
				"x": -3.3013893142,
				"y": -0.5242416346,
				"z": 1.8606197096,
				"element": "O" 
			},
			{
				"x": -2.677667604,
				"y": -2.6897852798,
				"z": 1.9715387455,
				"element": "O" 
			},
			{
				"x": -1.1112985319,
				"y": -0.1774203146,
				"z": -0.0794554032,
				"element": "C" 
			},
			{
				"x": -0.8168341827,
				"y": 0.6822109797,
				"z": 1.1519828489,
				"element": "C" 
			},
			{
				"x": -0.8651229582,
				"y": 2.0078837891,
				"z": 1.0592025218,
				"element": "O" 
			},
			{
				"x": -0.5663979697,
				"y": 0.1242712335,
				"z": 2.1980809427,
				"element": "O" 
			},
			{
				"x": 1.4107834574,
				"y": 1.8867449854,
				"z": -3.0276644021,
				"element": "H" 
			},
			{
				"x": -0.1673263936,
				"y": -0.9117588583,
				"z": -3.2850484158,
				"element": "H" 
			},
			{
				"x": -1.4434790693,
				"y": -2.981295591,
				"z": -2.7984068505,
				"element": "H" 
			},
			{
				"x": -2.5481352619,
				"y": -3.2348908211,
				"z": -0.5682515021,
				"element": "H" 
			},
			{
				"x": -3.7146686299,
				"y": -0.7718273632,
				"z": 2.7046422363,
				"element": "H" 
			},
			{
				"x": -0.8208362006,
				"y": 2.2953823282,
				"z": 0.1179521904,
				"element": "H" 
			}
		],
		 "valence_orbital": [ 
			{
				"type": "occ",
				"energy": -0.30371,
				"method": "rhf"
			},
			{
				"type": "occ",
				"energy": -0.29841,
				"method": "rhf"
			},
			{
				"type": "occ",
				"energy": -0.29106,
				"method": "rhf"
			},
			{
				"type": "occ",
				"energy": -0.27626,
				"method": "rhf"
			},
			{
				"type": "occ",
				"energy": -0.26519,
				"method": "rhf"
			},
			{
				"type": "unocc",
				"energy": -0.08253,
				"method": "rhf"
			},
			{
				"type": "unocc",
				"energy": -0.06308,
				"method": "rhf"
			},
			{
				"type": "unocc",
				"energy": -0.00205,
				"method": "rhf"
			},
			{
				"type": "unocc",
				"energy": 0.02908,
				"method": "rhf"
			},
			{
				"type": "unocc",
				"energy": 0.03796,
				"method": "rhf"
			}
		],
		"cosmo_sigma_profile": { 
			"-0.025": 0.0,
			"-0.024": 0.0,
			"-0.023": 0.0,
			"-0.022": 0.0,
			"-0.021": 0.0,
			"-0.02": 0.361942293571,
			"-0.019": 1.35142157785,
			"-0.018": 2.18026305967,
			"-0.017": 1.81605903647,
			"-0.016": 1.06510033298,
			"-0.015": 1.75172201214,
			"-0.014": 1.15058010162,
			"-0.013": 1.56830020191,
			"-0.012": 1.28677978258,
			"-0.011": 1.30190637147,
			"-0.01": 1.36279545141,
			"-0.009": 2.51714155081,
			"-0.008": 7.27455904842,
			"-0.007": 10.9675552968,
			"-0.006": 9.13827321684,
			"-0.005": 10.814229154,
			"-0.004": 10.4359747698,
			"-0.003": 9.41106437376,
			"-0.002": 12.0455009517,
			"-0.001": 12.8590546444,
			"0.0": 16.9040354397,
			"0.001": 13.273261243,
			"0.002": 7.22482907848,
			"0.003": 7.59246535212,
			"0.004": 6.69748758642,
			"0.005": 7.72470101692,
			"0.006": 8.61992675652,
			"0.007": 7.81406400584,
			"0.008": 6.73832585919,
			"0.009": 6.25123469845,
			"0.01": 8.51315987777,
			"0.011": 10.4643982637,
			"0.012": 4.27472952883,
			"0.013": 0.935910453802,
			"0.014": 0.0,
			"0.015": 0.0,
			"0.016": 0.0,
			"0.017": 0.0,
			"0.018": 0.0,
			"0.019": 0.0,
			"0.02": 0.0,
			"0.021": 0.0,
			"0.022": 0.0,
			"0.023": 0.0,
			"0.024": 0.0,
			"0.025": 0.0
		}
	}
}
