{
	 "smiles": "OC(=O)CCC1=NC2=C(S1)C=CC=C2", 
	 "Tm": 371.15, 
	 "num_atms": 23, 
	 "gaussian": { 
		 "optdone": 1, 
		 "sigma_profile": "yes", 
		 "theory": "DFT", 
		 "functional": "B3LYP", 
		 "basiset": "6-31G**", 
		 "properties": { 
			 "R2extent": 4211.2252, 
			 "electric_dipole_moment_norm": 2.27603353227, 
			 "electric_quadrupole_moment_norm": 10.5748589598, 
			 "total_energy": -989.903265219, 
			 "HOMO_LUMO_gap": 0.20189, 
			 "cosmo_polarized_energy": -13.23, 
			 "cosmo_cavitation_energy": 29.13, 
			 "cosmo_dispersion_energy": -21.51, 
			 "cosmo_repulsion_energy": 1.67, 
			 "cosmo_total_nonelectrostatic_energy": 9.29, 
			 "SMD_solvation_energy": 4.18 
		},
		"coords": [
			{
				"x": -0.5436299891,
				"y": 1.9933626494,
				"z": 1.6461053216,
				"element": "O" 
			},
			{
				"x": -1.2890217066,
				"y": 0.9008793184,
				"z": 1.3420484797,
				"element": "C" 
			},
			{
				"x": -2.368688795,
				"y": 0.9799012519,
				"z": 0.8031184389,
				"element": "O" 
			},
			{
				"x": -0.6514553686,
				"y": -0.3884399645,
				"z": 1.8224922412,
				"element": "C" 
			},
			{
				"x": 0.8808519708,
				"y": -0.3972613272,
				"z": 1.8755344003,
				"element": "C" 
			},
			{
				"x": 1.5136794219,
				"y": -0.2854241472,
				"z": 0.5159204466,
				"element": "C" 
			},
			{
				"x": 0.8538538603,
				"y": -0.157315958,
				"z": -0.5865252423,
				"element": "N" 
			},
			{
				"x": 1.699903158,
				"y": -0.0738661838,
				"z": -1.6844326667,
				"element": "C" 
			},
			{
				"x": 3.0824325346,
				"y": -0.1453137833,
				"z": -1.3878639265,
				"element": "C" 
			},
			{
				"x": 3.2895644862,
				"y": -0.3229093271,
				"z": 0.3451885012,
				"element": "S" 
			},
			{
				"x": 4.0472383916,
				"y": -0.0756719138,
				"z": -2.3952404742,
				"element": "C" 
			},
			{
				"x": 3.6115444047,
				"y": 0.0680875261,
				"z": -3.7107987737,
				"element": "C" 
			},
			{
				"x": 2.241980612,
				"y": 0.1407527602,
				"z": -4.0173734914,
				"element": "C" 
			},
			{
				"x": 1.2818761941,
				"y": 0.0708226247,
				"z": -3.0143504036,
				"element": "C" 
			},
			{
				"x": -1.0441784481,
				"y": 2.7568837889,
				"z": 1.3132944706,
				"element": "H" 
			},
			{
				"x": -1.0321240293,
				"y": -1.1839303906,
				"z": 1.1798475603,
				"element": "H" 
			},
			{
				"x": -1.0387105477,
				"y": -0.5717546087,
				"z": 2.8329416218,
				"element": "H" 
			},
			{
				"x": 1.2196324879,
				"y": -1.3257443122,
				"z": 2.3518083643,
				"element": "H" 
			},
			{
				"x": 1.2390972812,
				"y": 0.4236366449,
				"z": 2.5064580486,
				"element": "H" 
			},
			{
				"x": 5.1061677309,
				"y": -0.1311906139,
				"z": -2.1642575117,
				"element": "H" 
			},
			{
				"x": 4.3442253635,
				"y": 0.1245804778,
				"z": -4.5103320316,
				"element": "H" 
			},
			{
				"x": 1.9312916989,
				"y": 0.2529089287,
				"z": -5.0516886831,
				"element": "H" 
			},
			{
				"x": 0.2206692876,
				"y": 0.1253065594,
				"z": -3.2335946902,
				"element": "H" 
			}
		],
		 "valence_orbital": [ 
			{
				"type": "occ",
				"energy": -0.30321,
				"method": "rhf"
			},
			{
				"type": "occ",
				"energy": -0.27846,
				"method": "rhf"
			},
			{
				"type": "occ",
				"energy": -0.26827,
				"method": "rhf"
			},
			{
				"type": "occ",
				"energy": -0.23859,
				"method": "rhf"
			},
			{
				"type": "occ",
				"energy": -0.23617,
				"method": "rhf"
			},
			{
				"type": "unocc",
				"energy": -0.03428,
				"method": "rhf"
			},
			{
				"type": "unocc",
				"energy": -0.00695,
				"method": "rhf"
			},
			{
				"type": "unocc",
				"energy": 0.00761,
				"method": "rhf"
			},
			{
				"type": "unocc",
				"energy": 0.01585,
				"method": "rhf"
			},
			{
				"type": "unocc",
				"energy": 0.03431,
				"method": "rhf"
			}
		],
		"cosmo_sigma_profile": { 
			"-0.025": 0.0,
			"-0.024": 0.0,
			"-0.023": 0.0,
			"-0.022": 0.0,
			"-0.021": 0.0,
			"-0.02": 0.0,
			"-0.019": 0.0,
			"-0.018": 0.55967364134,
			"-0.017": 0.822473433845,
			"-0.016": 0.92530343716,
			"-0.015": 0.969212798434,
			"-0.014": 0.788703616014,
			"-0.013": 0.875031505611,
			"-0.012": 0.169805797653,
			"-0.011": 0.745032881477,
			"-0.01": 1.04534602887,
			"-0.009": 0.496719809096,
			"-0.008": 0.946169767369,
			"-0.007": 7.68401953956,
			"-0.006": 16.2556330396,
			"-0.005": 21.7439093412,
			"-0.004": 18.1978223389,
			"-0.003": 14.8820844566,
			"-0.002": 12.054629662,
			"-0.001": 11.0007298955,
			"0.0": 13.1066942658,
			"0.001": 14.8840632829,
			"0.002": 17.0945570614,
			"0.003": 18.5431659099,
			"0.004": 17.8696381302,
			"0.005": 11.9024617924,
			"0.006": 6.18070031636,
			"0.007": 3.71865243997,
			"0.008": 3.74056075339,
			"0.009": 2.53826588321,
			"0.01": 3.04019752851,
			"0.011": 4.64234618227,
			"0.012": 5.54589758794,
			"0.013": 1.48400430542,
			"0.014": 0.0549916942415,
			"0.015": 0.0,
			"0.016": 0.0,
			"0.017": 0.0,
			"0.018": 0.0,
			"0.019": 0.0,
			"0.02": 0.0,
			"0.021": 0.0,
			"0.022": 0.0,
			"0.023": 0.0,
			"0.024": 0.0,
			"0.0": 0.0
		}
	}
}
