{
	 "smiles": "ON(C(=O)C1=CC=CC=C1)C1=CC=CC=C1", 
	 "Tm": 394.15, 
	 "num_atms": 27, 
	 "gaussian": { 
		 "optdone": 1, 
		 "sigma_profile": "yes", 
		 "theory": "DFT", 
		 "functional": "B3LYP", 
		 "basiset": "6-31G**", 
		 "properties": { 
			 "R2extent": 3799.2034, 
			 "electric_dipole_moment_norm": 3.64842505884, 
			 "electric_quadrupole_moment_norm": 7.42952157746, 
			 "total_energy": -707.16249684, 
			 "HOMO_LUMO_gap": 0.16979, 
			 "cosmo_polarized_energy": -10.0, 
			 "cosmo_cavitation_energy": 31.09, 
			 "cosmo_dispersion_energy": -22.21, 
			 "cosmo_repulsion_energy": 1.73, 
			 "cosmo_total_nonelectrostatic_energy": 10.61, 
			 "SMD_solvation_energy": 6.55 
		},
		"coords": [
			{
				"x": 2.9007999337,
				"y": -1.7194402982,
				"z": -0.9423821544,
				"element": "O" 
			},
			{
				"x": 1.7358473463,
				"y": -0.9657389512,
				"z": -0.7032231268,
				"element": "N" 
			},
			{
				"x": 1.2085504395,
				"y": -1.1673478911,
				"z": 0.5449083942,
				"element": "C" 
			},
			{
				"x": 1.7456692248,
				"y": -2.0208728026,
				"z": 1.2689709272,
				"element": "O" 
			},
			{
				"x": 0.0715513602,
				"y": -0.3313339697,
				"z": 1.0287185967,
				"element": "C" 
			},
			{
				"x": -0.830142827,
				"y": -0.9315914569,
				"z": 1.9192268879,
				"element": "C" 
			},
			{
				"x": -1.8776898946,
				"y": -0.1908400213,
				"z": 2.4623199109,
				"element": "C" 
			},
			{
				"x": -2.0177055398,
				"y": 1.1615583364,
				"z": 2.141529147,
				"element": "C" 
			},
			{
				"x": -1.1048840871,
				"y": 1.7709911007,
				"z": 1.277641231,
				"element": "C" 
			},
			{
				"x": -0.0646624979,
				"y": 1.029728528,
				"z": 0.7191039524,
				"element": "C" 
			},
			{
				"x": 1.2250648942,
				"y": -0.3497842291,
				"z": -1.8713397358,
				"element": "C" 
			},
			{
				"x": -0.1330604836,
				"y": -0.4331701968,
				"z": -2.2029206929,
				"element": "C" 
			},
			{
				"x": -0.5977801558,
				"y": 0.1907068415,
				"z": -3.359906015,
				"element": "C" 
			},
			{
				"x": 0.2855532943,
				"y": 0.8635655075,
				"z": -4.2062306319,
				"element": "C" 
			},
			{
				"x": 1.6446663418,
				"y": 0.9135420009,
				"z": -3.8871202975,
				"element": "C" 
			},
			{
				"x": 2.1185859972,
				"y": 0.3149296504,
				"z": -2.7218170888,
				"element": "C" 
			},
			{
				"x": 2.9449812488,
				"y": -2.2205362979,
				"z": -0.0920291564,
				"element": "H" 
			},
			{
				"x": -0.6889436464,
				"y": -1.974865816,
				"z": 2.1807235522,
				"element": "H" 
			},
			{
				"x": -2.578777289,
				"y": -0.6654410606,
				"z": 3.1424726543,
				"element": "H" 
			},
			{
				"x": -2.8297931269,
				"y": 1.7413602874,
				"z": 2.5707390599,
				"element": "H" 
			},
			{
				"x": -1.1993606071,
				"y": 2.8267648284,
				"z": 1.0415597074,
				"element": "H" 
			},
			{
				"x": 0.6465669545,
				"y": 1.5107446887,
				"z": 0.0566194487,
				"element": "H" 
			},
			{
				"x": -0.8143477162,
				"y": -0.9811597418,
				"z": -1.562454742,
				"element": "H" 
			},
			{
				"x": -1.6528824276,
				"y": 0.1294403894,
				"z": -3.6095831972,
				"element": "H" 
			},
			{
				"x": -0.0805070567,
				"y": 1.3361303836,
				"z": -5.1126338213,
				"element": "H" 
			},
			{
				"x": 2.3407496773,
				"y": 1.4251895863,
				"z": -4.5452155605,
				"element": "H" 
			},
			{
				"x": 3.1710506429,
				"y": 0.344070604,
				"z": -2.4644772494,
				"element": "H" 
			}
		],
		 "valence_orbital": [ 
			{
				"type": "occ",
				"energy": -0.2734,
				"method": "rhf"
			},
			{
				"type": "occ",
				"energy": -0.2651,
				"method": "rhf"
			},
			{
				"type": "occ",
				"energy": -0.25753,
				"method": "rhf"
			},
			{
				"type": "occ",
				"energy": -0.25636,
				"method": "rhf"
			},
			{
				"type": "occ",
				"energy": -0.21602,
				"method": "rhf"
			},
			{
				"type": "unocc",
				"energy": -0.04623,
				"method": "rhf"
			},
			{
				"type": "unocc",
				"energy": -0.01769,
				"method": "rhf"
			},
			{
				"type": "unocc",
				"energy": -0.01105,
				"method": "rhf"
			},
			{
				"type": "unocc",
				"energy": -0.00438,
				"method": "rhf"
			},
			{
				"type": "unocc",
				"energy": 0.04645,
				"method": "rhf"
			}
		],
		"cosmo_sigma_profile": { 
			"-0.025": 0.0,
			"-0.024": 0.0,
			"-0.023": 0.0,
			"-0.022": 0.0,
			"-0.021": 0.0,
			"-0.02": 0.0,
			"-0.019": 0.0,
			"-0.018": 0.0,
			"-0.017": 0.0,
			"-0.016": 0.0,
			"-0.015": 0.0,
			"-0.014": 0.0,
			"-0.013": 0.0,
			"-0.012": 0.19611458149,
			"-0.011": 0.572352712339,
			"-0.01": 0.45542721001,
			"-0.009": 0.580169822258,
			"-0.008": 0.661199423101,
			"-0.007": 3.2709575207,
			"-0.006": 19.1636548496,
			"-0.005": 24.0080120968,
			"-0.004": 22.4097616538,
			"-0.003": 17.9851070769,
			"-0.002": 16.3562694021,
			"-0.001": 16.2207930538,
			"0.0": 15.9560576191,
			"0.001": 15.144862071,
			"0.002": 18.0377206777,
			"0.003": 20.7801255417,
			"0.004": 25.4712436898,
			"0.005": 8.67083676496,
			"0.006": 2.82598547278,
			"0.007": 3.09836628679,
			"0.008": 3.65090855438,
			"0.009": 3.96806568773,
			"0.01": 2.8713012838,
			"0.011": 2.31558369533,
			"0.012": 2.73742125663,
			"0.013": 1.63718841498,
			"0.014": 0.21574093139,
			"0.015": 0.0,
			"0.016": 0.0,
			"0.017": 0.0,
			"0.018": 0.0,
			"0.019": 0.0,
			"0.02": 0.0,
			"0.021": 0.0,
			"0.022": 0.0,
			"0.023": 0.0,
			"0.024": 0.0,
			"0.025": 0.0
		}
	}
}
