{
	 "smiles": "OC1=CC=C(C=C1)C1=NOC(=N1)C1=CC(Br)=CC=C1", 
	 "Tm": 496.15, 
	 "num_atms": 28, 
	 "gaussian": { 
		 "optdone": 1, 
		 "sigma_profile": "yes", 
		 "theory": "DFT", 
		 "functional": "B3LYP", 
		 "basiset": "6-31G**", 
		 "properties": { 
			 "R2extent": 12005.1588, 
			 "electric_dipole_moment_norm": 4.04365295247, 
			 "electric_quadrupole_moment_norm": 11.1578942951, 
			 "total_energy": -3370.2396163, 
			 "HOMO_LUMO_gap": 0.15641, 
			 "cosmo_polarized_energy": -13.25, 
			 "cosmo_cavitation_energy": 36.48, 
			 "cosmo_dispersion_energy": -27.33, 
			 "cosmo_repulsion_energy": 2.07, 
			 "cosmo_total_nonelectrostatic_energy": 11.22, 
			 "SMD_solvation_energy": 3.85 
		},
		"coords": [
			{
				"x": 4.8603496066,
				"y": -4.1033095888,
				"z": 1.9080334516,
				"element": "O" 
			},
			{
				"x": 3.9264055283,
				"y": -3.2179273763,
				"z": 1.4612762139,
				"element": "C" 
			},
			{
				"x": 2.9225024414,
				"y": -3.570541114,
				"z": 0.5518371599,
				"element": "C" 
			},
			{
				"x": 1.997643173,
				"y": -2.6178223718,
				"z": 0.1344469573,
				"element": "C" 
			},
			{
				"x": 2.0612165159,
				"y": -1.3041401517,
				"z": 0.6169773173,
				"element": "C" 
			},
			{
				"x": 3.0740364226,
				"y": -0.9609502232,
				"z": 1.5303703158,
				"element": "C" 
			},
			{
				"x": 3.998687606,
				"y": -1.9055782196,
				"z": 1.9502781712,
				"element": "C" 
			},
			{
				"x": 1.081105103,
				"y": -0.3115871204,
				"z": 0.1690194413,
				"element": "C" 
			},
			{
				"x": 1.0866513058,
				"y": 0.9393501397,
				"z": 0.5846425799,
				"element": "N" 
			},
			{
				"x": -0.00388936,
				"y": 1.5117839274,
				"z": -0.0888958649,
				"element": "O" 
			},
			{
				"x": -0.5499647594,
				"y": 0.5372189751,
				"z": -0.8400232155,
				"element": "C" 
			},
			{
				"x": 0.0702449481,
				"y": -0.6041215524,
				"z": -0.7251079022,
				"element": "N" 
			},
			{
				"x": -1.7192110262,
				"y": 0.8481373248,
				"z": -1.6611719334,
				"element": "C" 
			},
			{
				"x": -2.2624552713,
				"y": 2.1419714043,
				"z": -1.6660428029,
				"element": "C" 
			},
			{
				"x": -3.3750764744,
				"y": 2.4017739805,
				"z": -2.4591979769,
				"element": "C" 
			},
			{
				"x": -4.1213943615,
				"y": 4.1596991578,
				"z": -2.4725810917,
				"element": "Br" 
			},
			{
				"x": -3.9570417699,
				"y": 1.4065688914,
				"z": -3.2446258258,
				"element": "C" 
			},
			{
				"x": -3.4068562579,
				"y": 0.12262524,
				"z": -3.2310443839,
				"element": "C" 
			},
			{
				"x": -2.2937394638,
				"y": -0.1628984556,
				"z": -2.445990625,
				"element": "C" 
			},
			{
				"x": 4.7041297141,
				"y": -4.9655799194,
				"z": 1.5009199743,
				"element": "H" 
			},
			{
				"x": 2.8654416033,
				"y": -4.5883515389,
				"z": 0.1717937318,
				"element": "H" 
			},
			{
				"x": 1.2173481199,
				"y": -2.8844174766,
				"z": -0.569931737,
				"element": "H" 
			},
			{
				"x": 3.1275432807,
				"y": 0.0551412327,
				"z": 1.9070537747,
				"element": "H" 
			},
			{
				"x": 4.7839798009,
				"y": -1.6520768004,
				"z": 2.6543490577,
				"element": "H" 
			},
			{
				"x": -1.8208053391,
				"y": 2.9242426779,
				"z": -1.0611038226,
				"element": "H" 
			},
			{
				"x": -4.8239373438,
				"y": 1.6328397119,
				"z": -3.8547656188,
				"element": "H" 
			},
			{
				"x": -3.8549895221,
				"y": -0.6564091227,
				"z": -3.8400306993,
				"element": "H" 
			},
			{
				"x": -1.8580242203,
				"y": -1.1554416319,
				"z": -2.4272846469,
				"element": "H" 
			}
		],
		 "valence_orbital": [ 
			{
				"type": "occ",
				"energy": -0.2946,
				"method": "rhf"
			},
			{
				"type": "occ",
				"energy": -0.26651,
				"method": "rhf"
			},
			{
				"type": "occ",
				"energy": -0.26086,
				"method": "rhf"
			},
			{
				"type": "occ",
				"energy": -0.25175,
				"method": "rhf"
			},
			{
				"type": "occ",
				"energy": -0.22323,
				"method": "rhf"
			},
			{
				"type": "unocc",
				"energy": -0.06682,
				"method": "rhf"
			},
			{
				"type": "unocc",
				"energy": -0.03156,
				"method": "rhf"
			},
			{
				"type": "unocc",
				"energy": -0.02521,
				"method": "rhf"
			},
			{
				"type": "unocc",
				"energy": -0.00946,
				"method": "rhf"
			},
			{
				"type": "unocc",
				"energy": -0.00112,
				"method": "rhf"
			}
		],
		"cosmo_sigma_profile": { 
			"-0.025": 0.0,
			"-0.024": 0.0,
			"-0.023": 0.0,
			"-0.022": 0.0,
			"-0.021": 0.0,
			"-0.02": 0.0,
			"-0.019": 0.0453524711386,
			"-0.018": 0.867885141355,
			"-0.017": 1.17764222003,
			"-0.016": 1.02140171398,
			"-0.015": 1.52001814344,
			"-0.014": 0.821819397776,
			"-0.013": 0.346886564761,
			"-0.012": 0.918843638802,
			"-0.011": 1.39853692401,
			"-0.01": 1.36402227198,
			"-0.009": 0.973229803,
			"-0.008": 2.9036402315,
			"-0.007": 9.16349244631,
			"-0.006": 14.0290290675,
			"-0.005": 13.5946320782,
			"-0.004": 17.0133020222,
			"-0.003": 14.8941730472,
			"-0.002": 18.5754491433,
			"-0.001": 18.4281212916,
			"0.0": 23.8257175657,
			"0.001": 34.7146836414,
			"0.002": 31.4337250347,
			"0.003": 27.6337213862,
			"0.004": 26.5545271435,
			"0.005": 7.63763693885,
			"0.006": 6.98580102268,
			"0.007": 4.45249248148,
			"0.008": 4.05624195013,
			"0.009": 4.71363472229,
			"0.01": 2.98875495918,
			"0.011": 2.39002279658,
			"0.012": 1.24317236795,
			"0.013": 0.191065631329,
			"0.014": 0.0,
			"0.015": 0.0,
			"0.016": 0.0,
			"0.017": 0.0,
			"0.018": 0.0,
			"0.019": 0.0,
			"0.02": 0.0,
			"0.021": 0.0,
			"0.022": 0.0,
			"0.023": 0.0,
			"0.024": 0.0,
			"0.025": 0.0
		}
	}
}
