{
	 "smiles": "CC(=O)C1=CC(=CC=C1)N1CCCC1=O", 
	 "Tm": 365.65, 
	 "num_atms": 28, 
	 "gaussian": { 
		 "optdone": 1, 
		 "sigma_profile": "yes", 
		 "theory": "DFT", 
		 "functional": "B3LYP", 
		 "basiset": "6-31G**", 
		 "properties": { 
			 "R2extent": 4155.8463, 
			 "electric_dipole_moment_norm": 5.13546316314, 
			 "electric_quadrupole_moment_norm": 14.0324105028, 
			 "total_energy": -670.336339509, 
			 "HOMO_LUMO_gap": 0.1714, 
			 "cosmo_polarized_energy": -14.69, 
			 "cosmo_cavitation_energy": 30.91, 
			 "cosmo_dispersion_energy": -22.56, 
			 "cosmo_repulsion_energy": 1.75, 
			 "cosmo_total_nonelectrostatic_energy": 10.1, 
			 "SMD_solvation_energy": 5.86 
		},
		"coords": [
			{
				"x": 2.9615262143,
				"y": 1.8339036486,
				"z": -3.0170719089,
				"element": "C" 
			},
			{
				"x": 2.8594703633,
				"y": 2.6392144771,
				"z": -1.7308158022,
				"element": "C" 
			},
			{
				"x": 3.4777298789,
				"y": 3.6858790015,
				"z": -1.6088922203,
				"element": "O" 
			},
			{
				"x": 1.9913044596,
				"y": 2.1305549424,
				"z": -0.6180678819,
				"element": "C" 
			},
			{
				"x": 1.2691768753,
				"y": 0.9336021794,
				"z": -0.7234549376,
				"element": "C" 
			},
			{
				"x": 0.463295047,
				"y": 0.4812847249,
				"z": 0.3337612659,
				"element": "C" 
			},
			{
				"x": 0.3939218079,
				"y": 1.2498591542,
				"z": 1.5113661168,
				"element": "C" 
			},
			{
				"x": 1.1184993808,
				"y": 2.4371987226,
				"z": 1.6086667096,
				"element": "C" 
			},
			{
				"x": 1.912691858,
				"y": 2.8863558016,
				"z": 0.5584083857,
				"element": "C" 
			},
			{
				"x": -0.2679822385,
				"y": -0.7216775692,
				"z": 0.1870559997,
				"element": "N" 
			},
			{
				"x": -0.3550692193,
				"y": -1.4127448614,
				"z": -1.1056521131,
				"element": "C" 
			},
			{
				"x": -1.4549120769,
				"y": -2.4674169522,
				"z": -0.8911453803,
				"element": "C" 
			},
			{
				"x": -1.3854953789,
				"y": -2.7539618072,
				"z": 0.6115756673,
				"element": "C" 
			},
			{
				"x": -0.8406632037,
				"y": -1.4634009265,
				"z": 1.2178993316,
				"element": "C" 
			},
			{
				"x": -0.8852407356,
				"y": -1.1570829201,
				"z": 2.3968323796,
				"element": "O" 
			},
			{
				"x": 3.3564260193,
				"y": 0.8303064943,
				"z": -2.8235597129,
				"element": "H" 
			},
			{
				"x": 3.6286581749,
				"y": 2.3577338426,
				"z": -3.702041718,
				"element": "H" 
			},
			{
				"x": 1.9791779895,
				"y": 1.7152575809,
				"z": -3.4876337404,
				"element": "H" 
			},
			{
				"x": 1.3448863554,
				"y": 0.3489589202,
				"z": -1.6309769164,
				"element": "H" 
			},
			{
				"x": -0.2135758084,
				"y": 0.9023669145,
				"z": 2.3341860682,
				"element": "H" 
			},
			{
				"x": 1.0526300332,
				"y": 3.0171146751,
				"z": 2.5247244641,
				"element": "H" 
			},
			{
				"x": 2.4781153474,
				"y": 3.8092944669,
				"z": 0.6207851147,
				"element": "H" 
			},
			{
				"x": 0.6081167993,
				"y": -1.8777267494,
				"z": -1.3605308834,
				"element": "H" 
			},
			{
				"x": -0.606195077,
				"y": -0.7042546994,
				"z": -1.9006255211,
				"element": "H" 
			},
			{
				"x": -2.4290421454,
				"y": -2.0397302034,
				"z": -1.1481161005,
				"element": "H" 
			},
			{
				"x": -1.3011669575,
				"y": -3.3494747115,
				"z": -1.5169134239,
				"element": "H" 
			},
			{
				"x": -2.339675143,
				"y": -3.0129309638,
				"z": 1.0744699719,
				"element": "H" 
			},
			{
				"x": -0.6777086198,
				"y": -3.5591831827,
				"z": 0.845866786,
				"element": "H" 
			}
		],
		 "valence_orbital": [ 
			{
				"type": "occ",
				"energy": -0.29954,
				"method": "rhf"
			},
			{
				"type": "occ",
				"energy": -0.26048,
				"method": "rhf"
			},
			{
				"type": "occ",
				"energy": -0.25516,
				"method": "rhf"
			},
			{
				"type": "occ",
				"energy": -0.24686,
				"method": "rhf"
			},
			{
				"type": "occ",
				"energy": -0.22507,
				"method": "rhf"
			},
			{
				"type": "unocc",
				"energy": -0.05367,
				"method": "rhf"
			},
			{
				"type": "unocc",
				"energy": -0.01737,
				"method": "rhf"
			},
			{
				"type": "unocc",
				"energy": 0.02421,
				"method": "rhf"
			},
			{
				"type": "unocc",
				"energy": 0.05242,
				"method": "rhf"
			},
			{
				"type": "unocc",
				"energy": 0.07119,
				"method": "rhf"
			}
		],
		"cosmo_sigma_profile": { 
			"-0.025": 0.0,
			"-0.024": 0.0,
			"-0.023": 0.0,
			"-0.022": 0.0,
			"-0.021": 0.0,
			"-0.02": 0.0,
			"-0.019": 0.0,
			"-0.018": 0.0,
			"-0.017": 0.0,
			"-0.016": 0.0,
			"-0.015": 0.0,
			"-0.014": 0.0,
			"-0.013": 0.0,
			"-0.012": 0.0,
			"-0.011": 0.0,
			"-0.01": 0.0,
			"-0.009": 0.0,
			"-0.008": 0.0366642811792,
			"-0.007": 3.55457426374,
			"-0.006": 15.8778288961,
			"-0.005": 26.3848565193,
			"-0.004": 31.1783542767,
			"-0.003": 24.2031157329,
			"-0.002": 20.4045237739,
			"-0.001": 20.0488913576,
			"0.0": 11.7491368637,
			"0.001": 12.1524329518,
			"0.002": 11.8271749977,
			"0.003": 15.1651242487,
			"0.004": 13.2080712401,
			"0.005": 4.48831190496,
			"0.006": 3.81919855026,
			"0.007": 3.30100534857,
			"0.008": 2.62982122231,
			"0.009": 3.18366495395,
			"0.01": 4.26400123096,
			"0.011": 4.76955903942,
			"0.012": 6.95869449004,
			"0.013": 4.69085447613,
			"0.014": 1.33121648501,
			"0.015": 0.0,
			"0.016": 0.0,
			"0.017": 0.0,
			"0.018": 0.0,
			"0.019": 0.0,
			"0.02": 0.0,
			"0.021": 0.0,
			"0.022": 0.0,
			"0.023": 0.0,
			"0.024": 0.0,
			"0.025": 0.0
		}
	}
}
