{
	 "smiles": "[O-][N+](=O)C1=CC=CN=C1SC1=CC=C(Cl)C=C1", 
	 "Tm": 401.15, 
	 "num_atms": 24, 
	 "gaussian": { 
		 "optdone": 1, 
		 "sigma_profile": "yes", 
		 "theory": "DFT", 
		 "functional": "B3LYP", 
		 "basiset": "6-31G**", 
		 "properties": { 
			 "R2extent": 7316.3607, 
			 "electric_dipole_moment_norm": 3.97111772805, 
			 "electric_quadrupole_moment_norm": 18.100543791, 
			 "total_energy": -1541.60475605, 
			 "HOMO_LUMO_gap": 0.14751, 
			 "cosmo_polarized_energy": -11.84, 
			 "cosmo_cavitation_energy": 33.25, 
			 "cosmo_dispersion_energy": -24.46, 
			 "cosmo_repulsion_energy": 1.87, 
			 "cosmo_total_nonelectrostatic_energy": 10.65, 
			 "SMD_solvation_energy": 6.48 
		},
		"coords": [
			{
				"x": -1.9258364487,
				"y": -1.8319160324,
				"z": -3.1111072907,
				"element": "O" 
			},
			{
				"x": -2.6704488025,
				"y": -1.709437184,
				"z": -2.1347561297,
				"element": "N" 
			},
			{
				"x": -3.7427915426,
				"y": -2.2991816266,
				"z": -1.999052588,
				"element": "O" 
			},
			{
				"x": -2.2431757304,
				"y": -0.8027895685,
				"z": -1.0752012075,
				"element": "C" 
			},
			{
				"x": -3.0850422519,
				"y": -0.6642394348,
				"z": 0.0284660071,
				"element": "C" 
			},
			{
				"x": -2.7116446008,
				"y": 0.1891281087,
				"z": 1.0557332943,
				"element": "C" 
			},
			{
				"x": -1.497575447,
				"y": 0.867194458,
				"z": 0.9198472563,
				"element": "C" 
			},
			{
				"x": -0.6889182236,
				"y": 0.739256933,
				"z": -0.1316456428,
				"element": "N" 
			},
			{
				"x": -1.0278771314,
				"y": -0.0784027305,
				"z": -1.1355899276,
				"element": "C" 
			},
			{
				"x": 0.1042238023,
				"y": -0.1998107133,
				"z": -2.512009815,
				"element": "S" 
			},
			{
				"x": 1.3985384301,
				"y": 0.9290527038,
				"z": -1.9833618904,
				"element": "C" 
			},
			{
				"x": 2.502881277,
				"y": 0.4454435708,
				"z": -1.2735373035,
				"element": "C" 
			},
			{
				"x": 3.557547888,
				"y": 1.2957831167,
				"z": -0.9444653618,
				"element": "C" 
			},
			{
				"x": 3.4984358335,
				"y": 2.6330116617,
				"z": -1.3370640107,
				"element": "C" 
			},
			{
				"x": 4.8246810086,
				"y": 3.7093662912,
				"z": -0.9285818039,
				"element": "Cl" 
			},
			{
				"x": 2.409876172,
				"y": 3.1307404906,
				"z": -2.0533132025,
				"element": "C" 
			},
			{
				"x": 1.3609989635,
				"y": 2.2710830685,
				"z": -2.3767536764,
				"element": "C" 
			},
			{
				"x": -4.0077155086,
				"y": -1.2313456627,
				"z": 0.046033936,
				"element": "H" 
			},
			{
				"x": -3.3349663926,
				"y": 0.327340716,
				"z": 1.9318552883,
				"element": "H" 
			},
			{
				"x": -1.1554508617,
				"y": 1.5494503093,
				"z": 1.6959052203,
				"element": "H" 
			},
			{
				"x": 2.5395398987,
				"y": -0.5977948459,
				"z": -0.9772796636,
				"element": "H" 
			},
			{
				"x": 4.4157640547,
				"y": 0.9275162786,
				"z": -0.3935252432,
				"element": "H" 
			},
			{
				"x": 2.3863451015,
				"y": 4.1721603617,
				"z": -2.3542723844,
				"element": "H" 
			},
			{
				"x": 0.510810512,
				"y": 2.6457897299,
				"z": -2.9373238607,
				"element": "H" 
			}
		],
		 "valence_orbital": [ 
			{
				"type": "occ",
				"energy": -0.29673,
				"method": "rhf"
			},
			{
				"type": "occ",
				"energy": -0.28122,
				"method": "rhf"
			},
			{
				"type": "occ",
				"energy": -0.27293,
				"method": "rhf"
			},
			{
				"type": "occ",
				"energy": -0.25387,
				"method": "rhf"
			},
			{
				"type": "occ",
				"energy": -0.24747,
				"method": "rhf"
			},
			{
				"type": "unocc",
				"energy": -0.09996,
				"method": "rhf"
			},
			{
				"type": "unocc",
				"energy": -0.04797,
				"method": "rhf"
			},
			{
				"type": "unocc",
				"energy": -0.03557,
				"method": "rhf"
			},
			{
				"type": "unocc",
				"energy": -0.02407,
				"method": "rhf"
			},
			{
				"type": "unocc",
				"energy": -0.01342,
				"method": "rhf"
			}
		],
		"cosmo_sigma_profile": { 
			"-0.025": 0.0,
			"-0.024": 0.0,
			"-0.023": 0.0,
			"-0.022": 0.0,
			"-0.021": 0.0,
			"-0.02": 0.0,
			"-0.019": 0.0,
			"-0.018": 0.0,
			"-0.017": 0.0,
			"-0.016": 0.0,
			"-0.015": 0.0,
			"-0.014": 0.0,
			"-0.013": 0.0,
			"-0.012": 0.0,
			"-0.011": 0.0,
			"-0.01": 0.0,
			"-0.009": 1.133899246,
			"-0.008": 8.82232247417,
			"-0.007": 16.1595830769,
			"-0.006": 14.70652666,
			"-0.005": 13.5977312746,
			"-0.004": 12.5580428445,
			"-0.003": 16.3654122433,
			"-0.002": 21.4756167189,
			"-0.001": 22.3832606991,
			"0.0": 22.2403458357,
			"0.001": 21.0953186983,
			"0.002": 20.9427665751,
			"0.003": 16.2247305742,
			"0.004": 17.5121834132,
			"0.005": 9.4774346228,
			"0.006": 9.39179540198,
			"0.007": 11.0653529251,
			"0.008": 8.23005888659,
			"0.009": 5.3004045473,
			"0.01": 2.78911818443,
			"0.011": 0.88558932412,
			"0.012": 0.18506729792,
			"0.013": 0.0,
			"0.014": 0.0,
			"0.015": 0.0,
			"0.016": 0.0,
			"0.017": 0.0,
			"0.018": 0.0,
			"0.019": 0.0,
			"0.02": 0.0,
			"0.021": 0.0,
			"0.022": 0.0,
			"0.023": 0.0,
			"0.024": 0.0,
			"0.025": 0.0
		}
	}
}
