{
	 "smiles": "NC1=NC=NC(Cl)=C1", 
	 "Tm": 470.15, 
	 "num_atms": 12, 
	 "gaussian": { 
		 "optdone": 1, 
		 "sigma_profile": "yes", 
		 "theory": "DFT", 
		 "functional": "B3LYP", 
		 "basiset": "6-31G**", 
		 "properties": { 
			 "R2extent": 1382.4568, 
			 "electric_dipole_moment_norm": 4.34689394166, 
			 "electric_quadrupole_moment_norm": 2.46338865996, 
			 "total_energy": -779.290153755, 
			 "HOMO_LUMO_gap": 0.21528, 
			 "cosmo_polarized_energy": -11.86, 
			 "cosmo_cavitation_energy": 18.37, 
			 "cosmo_dispersion_energy": -14.21, 
			 "cosmo_repulsion_energy": 1.19, 
			 "cosmo_total_nonelectrostatic_energy": 5.35, 
			 "SMD_solvation_energy": 0.26 
		},
		"coords": [
			{
				"x": -0.4494015828,
				"y": -1.7334433422,
				"z": 1.0410233683,
				"element": "N" 
			},
			{
				"x": -0.6621402068,
				"y": -0.5531602213,
				"z": 0.3952804249,
				"element": "C" 
			},
			{
				"x": -1.697650366,
				"y": 0.1931389431,
				"z": 0.8312793343,
				"element": "N" 
			},
			{
				"x": -1.9203872546,
				"y": 1.3288549954,
				"z": 0.1763882846,
				"element": "C" 
			},
			{
				"x": -1.2364597965,
				"y": 1.8250101247,
				"z": -0.8621588409,
				"element": "N" 
			},
			{
				"x": -0.2221992324,
				"y": 1.0688581403,
				"z": -1.2650331167,
				"element": "C" 
			},
			{
				"x": 0.7180024964,
				"y": 1.6692055644,
				"z": -2.624701018,
				"element": "Cl" 
			},
			{
				"x": 0.1359043833,
				"y": -0.1391793865,
				"z": -0.6917030901,
				"element": "C" 
			},
			{
				"x": -0.9643184088,
				"y": -1.8814805363,
				"z": 1.8953904158,
				"element": "H" 
			},
			{
				"x": 0.4160885282,
				"y": -2.2323030331,
				"z": 0.9171299387,
				"element": "H" 
			},
			{
				"x": -2.7565162939,
				"y": 1.9307820357,
				"z": 0.5271204931,
				"element": "H" 
			},
			{
				"x": 0.9700777339,
				"y": -0.7249832841,
				"z": -1.0578161941,
				"element": "H" 
			}
		],
		 "valence_orbital": [ 
			{
				"type": "occ",
				"energy": -0.31673,
				"method": "rhf"
			},
			{
				"type": "occ",
				"energy": -0.30711,
				"method": "rhf"
			},
			{
				"type": "occ",
				"energy": -0.28125,
				"method": "rhf"
			},
			{
				"type": "occ",
				"energy": -0.2663,
				"method": "rhf"
			},
			{
				"type": "occ",
				"energy": -0.24856,
				"method": "rhf"
			},
			{
				"type": "unocc",
				"energy": -0.03328,
				"method": "rhf"
			},
			{
				"type": "unocc",
				"energy": -0.01754,
				"method": "rhf"
			},
			{
				"type": "unocc",
				"energy": 0.03178,
				"method": "rhf"
			},
			{
				"type": "unocc",
				"energy": 0.06714,
				"method": "rhf"
			},
			{
				"type": "unocc",
				"energy": 0.11659,
				"method": "rhf"
			}
		],
		"cosmo_sigma_profile": { 
			"-0.025": 0.0,
			"-0.024": 0.0,
			"-0.023": 0.0,
			"-0.022": 0.0,
			"-0.021": 0.0,
			"-0.02": 0.0,
			"-0.019": 0.0,
			"-0.018": 0.0,
			"-0.017": 0.0,
			"-0.016": 0.0,
			"-0.015": 0.868136650606,
			"-0.014": 2.82254740667,
			"-0.013": 2.39198212663,
			"-0.012": 2.17936173976,
			"-0.011": 3.12668063517,
			"-0.01": 2.87600904987,
			"-0.009": 3.18143969829,
			"-0.008": 3.5035471661,
			"-0.007": 4.51330073524,
			"-0.006": 3.54250119263,
			"-0.005": 3.73984144175,
			"-0.004": 3.98969480765,
			"-0.003": 4.49097150094,
			"-0.002": 8.04200844902,
			"-0.001": 11.8242522592,
			"0.0": 15.9619971597,
			"0.001": 11.9241140639,
			"0.002": 7.76208299908,
			"0.003": 10.9929889257,
			"0.004": 12.8860132662,
			"0.005": 6.30261358153,
			"0.006": 4.75279860845,
			"0.007": 2.91900073746,
			"0.008": 2.96724737018,
			"0.009": 2.30384829787,
			"0.01": 2.28860687986,
			"0.011": 1.75818259535,
			"0.012": 1.91417598798,
			"0.013": 1.75992765385,
			"0.014": 1.46551728271,
			"0.015": 0.655573656595,
			"0.016": 0.0,
			"0.017": 0.0,
			"0.018": 0.0,
			"0.019": 0.0,
			"0.02": 0.0,
			"0.021": 0.0,
			"0.022": 0.0,
			"0.023": 0.0,
			"0.024": 0.0,
			"0.025": 0.0
		}
	}
}
