{
	 "smiles": "O=C1CCNC(=O)N1", 
	 "Tm": 552.15, 
	 "num_atms": 14, 
	 "gaussian": { 
		 "optdone": 1, 
		 "sigma_profile": "yes", 
		 "theory": "DFT", 
		 "functional": "B3LYP", 
		 "basiset": "6-31G**", 
		 "properties": { 
			 "R2extent": 1843.5672, 
			 "electric_dipole_moment_norm": 3.92404488506, 
			 "electric_quadrupole_moment_norm": 13.7971859837, 
			 "total_energy": -416.0331648, 
			 "HOMO_LUMO_gap": 0.24669, 
			 "cosmo_polarized_energy": -15.51, 
			 "cosmo_cavitation_energy": 17.78, 
			 "cosmo_dispersion_energy": -13.72, 
			 "cosmo_repulsion_energy": 1.17, 
			 "cosmo_total_nonelectrostatic_energy": 5.23, 
			 "SMD_solvation_energy": 3.86 
		},
		"coords": [
			{
				"x": -1.0772636058,
				"y": 1.9383443195,
				"z": 0.8074633882,
				"element": "O" 
			},
			{
				"x": -0.5128355492,
				"y": 1.7428787332,
				"z": -0.2517376599,
				"element": "C" 
			},
			{
				"x": -1.1165821135,
				"y": 0.9643467844,
				"z": -1.4103661663,
				"element": "C" 
			},
			{
				"x": -0.0438066093,
				"y": 0.3266057895,
				"z": -2.2932357451,
				"element": "C" 
			},
			{
				"x": 0.9461418336,
				"y": 1.3389255403,
				"z": -2.6479550057,
				"element": "N" 
			},
			{
				"x": 1.4917944061,
				"y": 2.1745418845,
				"z": -1.7062012972,
				"element": "C" 
			},
			{
				"x": 2.516287068,
				"y": 2.8160596124,
				"z": -1.8609008948,
				"element": "O" 
			},
			{
				"x": 0.7501156561,
				"y": 2.2583299236,
				"z": -0.5121359021,
				"element": "N" 
			},
			{
				"x": -1.7147478278,
				"y": 1.67066708,
				"z": -1.999660097,
				"element": "H" 
			},
			{
				"x": -1.7960768926,
				"y": 0.2170461912,
				"z": -0.9960274846,
				"element": "H" 
			},
			{
				"x": 0.4199531041,
				"y": -0.5218658123,
				"z": -1.7674085816,
				"element": "H" 
			},
			{
				"x": -0.4889800348,
				"y": -0.060736601,
				"z": -3.2133015975,
				"element": "H" 
			},
			{
				"x": 1.5631346446,
				"y": 1.1698889679,
				"z": -3.4297350519,
				"element": "H" 
			},
			{
				"x": 1.1539659205,
				"y": 2.8589675868,
				"z": 0.1965020955,
				"element": "H" 
			}
		],
		 "valence_orbital": [ 
			{
				"type": "occ",
				"energy": -0.36665,
				"method": "rhf"
			},
			{
				"type": "occ",
				"energy": -0.28869,
				"method": "rhf"
			},
			{
				"type": "occ",
				"energy": -0.28379,
				"method": "rhf"
			},
			{
				"type": "occ",
				"energy": -0.26992,
				"method": "rhf"
			},
			{
				"type": "occ",
				"energy": -0.26101,
				"method": "rhf"
			},
			{
				"type": "unocc",
				"energy": -0.01432,
				"method": "rhf"
			},
			{
				"type": "unocc",
				"energy": 0.05233,
				"method": "rhf"
			},
			{
				"type": "unocc",
				"energy": 0.06831,
				"method": "rhf"
			},
			{
				"type": "unocc",
				"energy": 0.10823,
				"method": "rhf"
			},
			{
				"type": "unocc",
				"energy": 0.11198,
				"method": "rhf"
			}
		],
		"cosmo_sigma_profile": { 
			"-0.025": 0.0,
			"-0.024": 0.0,
			"-0.023": 0.0,
			"-0.022": 0.0,
			"-0.021": 0.0,
			"-0.02": 0.0,
			"-0.019": 0.0,
			"-0.018": 0.0,
			"-0.017": 0.0,
			"-0.016": 0.0463203272543,
			"-0.015": 0.94657775854,
			"-0.014": 2.36236250327,
			"-0.013": 1.28361887014,
			"-0.012": 2.20122885544,
			"-0.011": 1.63481806601,
			"-0.01": 1.87082929519,
			"-0.009": 1.55706850369,
			"-0.008": 2.2523627584,
			"-0.007": 6.22072370754,
			"-0.006": 13.4363480195,
			"-0.005": 14.6027263391,
			"-0.004": 11.7504388529,
			"-0.003": 10.6877086463,
			"-0.002": 5.67191386459,
			"-0.001": 5.58079257725,
			"0.0": 5.17522844575,
			"0.001": 3.17757152772,
			"0.002": 2.83754953655,
			"0.003": 4.13558404281,
			"0.004": 2.5993281022,
			"0.005": 2.5903345529,
			"0.006": 3.05545060428,
			"0.007": 2.08956531666,
			"0.008": 2.71553485452,
			"0.009": 2.40856359681,
			"0.01": 3.1243116457,
			"0.011": 4.4439341132,
			"0.012": 7.73459167544,
			"0.013": 9.80694016883,
			"0.014": 2.11339356746,
			"0.015": 0.0,
			"0.016": 0.0,
			"0.017": 0.0,
			"0.018": 0.0,
			"0.019": 0.0,
			"0.02": 0.0,
			"0.021": 0.0,
			"0.022": 0.0,
			"0.023": 0.0,
			"0.024": 0.0,
			"0.025": 0.0
		}
	}
}
