{
	 "smiles": "CCCCN1C2=CC=CC=C2C2=C1C=CC=C2", 
	 "Tm": 331.15, 
	 "num_atms": 34, 
	 "gaussian": { 
		 "optdone": 1, 
		 "sigma_profile": "yes", 
		 "theory": "DFT", 
		 "functional": "B3LYP", 
		 "basiset": "6-31G**", 
		 "properties": { 
			 "R2extent": 4303.569, 
			 "electric_dipole_moment_norm": 1.80536350633, 
			 "electric_quadrupole_moment_norm": 9.9955655903, 
			 "total_energy": -674.733340035, 
			 "HOMO_LUMO_gap": 0.17119, 
			 "cosmo_polarized_energy": -6.99, 
			 "cosmo_cavitation_energy": 35.31, 
			 "cosmo_dispersion_energy": -24.64, 
			 "cosmo_repulsion_energy": 1.89, 
			 "cosmo_total_nonelectrostatic_energy": 12.56, 
			 "SMD_solvation_energy": 5.22 
		},
		"coords": [
			{
				"x": 2.2485888264,
				"y": -0.458477179,
				"z": -0.1063870572,
				"element": "C" 
			},
			{
				"x": 2.1113741792,
				"y": -1.7064752296,
				"z": -0.9878213835,
				"element": "C" 
			},
			{
				"x": 0.9371265869,
				"y": -2.6393102054,
				"z": -0.6372677584,
				"element": "C" 
			},
			{
				"x": -0.4575879449,
				"y": -2.2194129665,
				"z": -1.1379977837,
				"element": "C" 
			},
			{
				"x": -1.0328307899,
				"y": -1.0344343708,
				"z": -0.5184720409,
				"element": "N" 
			},
			{
				"x": -1.6177244577,
				"y": -1.0032932886,
				"z": 0.7433936756,
				"element": "C" 
			},
			{
				"x": -1.7527712775,
				"y": -2.0308324248,
				"z": 1.6834766354,
				"element": "C" 
			},
			{
				"x": -2.3981658559,
				"y": -1.7339810339,
				"z": 2.882598903,
				"element": "C" 
			},
			{
				"x": -2.8971578265,
				"y": -0.4468662065,
				"z": 3.1471054861,
				"element": "C" 
			},
			{
				"x": -2.7640483035,
				"y": 0.5719890761,
				"z": 2.207182081,
				"element": "C" 
			},
			{
				"x": -2.1234915579,
				"y": 0.3006630399,
				"z": 0.9928623666,
				"element": "C" 
			},
			{
				"x": -1.8339747301,
				"y": 1.0878726254,
				"z": -0.1869431537,
				"element": "C" 
			},
			{
				"x": -1.1643689755,
				"y": 0.2252705316,
				"z": -1.0976862818,
				"element": "C" 
			},
			{
				"x": -0.7461728147,
				"y": 0.6797203975,
				"z": -2.3534019877,
				"element": "C" 
			},
			{
				"x": -1.0125844094,
				"y": 2.0057117009,
				"z": -2.6895316806,
				"element": "C" 
			},
			{
				"x": -1.6746119104,
				"y": 2.8692072959,
				"z": -1.7998951053,
				"element": "C" 
			},
			{
				"x": -2.0853631886,
				"y": 2.4162250597,
				"z": -0.5492021326,
				"element": "C" 
			},
			{
				"x": 1.4010654016,
				"y": 0.2217615765,
				"z": -0.2157059921,
				"element": "H" 
			},
			{
				"x": 3.1555596382,
				"y": 0.0979731265,
				"z": -0.3656893445,
				"element": "H" 
			},
			{
				"x": 2.321111767,
				"y": -0.7349967526,
				"z": 0.9515934548,
				"element": "H" 
			},
			{
				"x": 2.0381642392,
				"y": -1.4114332273,
				"z": -2.0439641764,
				"element": "H" 
			},
			{
				"x": 3.0366678925,
				"y": -2.2910223125,
				"z": -0.9073109903,
				"element": "H" 
			},
			{
				"x": 1.1282786619,
				"y": -3.6270484804,
				"z": -1.0776430482,
				"element": "H" 
			},
			{
				"x": 0.9023627417,
				"y": -2.7920364183,
				"z": 0.4487735276,
				"element": "H" 
			},
			{
				"x": -1.1563344636,
				"y": -3.0507340936,
				"z": -0.979458412,
				"element": "H" 
			},
			{
				"x": -0.4261370576,
				"y": -2.0457539601,
				"z": -2.217916841,
				"element": "H" 
			},
			{
				"x": -1.3710969854,
				"y": -3.028745285,
				"z": 1.4934589625,
				"element": "H" 
			},
			{
				"x": -2.515094409,
				"y": -2.5155276229,
				"z": 3.6279485931,
				"element": "H" 
			},
			{
				"x": -3.39202392,
				"y": -0.2482826184,
				"z": 4.0929494373,
				"element": "H" 
			},
			{
				"x": -3.1555463034,
				"y": 1.5646158672,
				"z": 2.4122248923,
				"element": "H" 
			},
			{
				"x": -0.2270140339,
				"y": 0.0298516019,
				"z": -3.0504319866,
				"element": "H" 
			},
			{
				"x": -0.6976640995,
				"y": 2.3777623609,
				"z": -3.6602892319,
				"element": "H" 
			},
			{
				"x": -1.8644300602,
				"y": 3.8974891272,
				"z": -2.0922452231,
				"element": "H" 
			},
			{
				"x": -2.5968045593,
				"y": 3.0846502889,
				"z": 0.1379935963,
				"element": "H" 
			}
		],
		 "valence_orbital": [ 
			{
				"type": "occ",
				"energy": -0.30358,
				"method": "rhf"
			},
			{
				"type": "occ",
				"energy": -0.27377,
				"method": "rhf"
			},
			{
				"type": "occ",
				"energy": -0.24735,
				"method": "rhf"
			},
			{
				"type": "occ",
				"energy": -0.20853,
				"method": "rhf"
			},
			{
				"type": "occ",
				"energy": -0.19519,
				"method": "rhf"
			},
			{
				"type": "unocc",
				"energy": -0.024,
				"method": "rhf"
			},
			{
				"type": "unocc",
				"energy": 0.00964,
				"method": "rhf"
			},
			{
				"type": "unocc",
				"energy": 0.03141,
				"method": "rhf"
			},
			{
				"type": "unocc",
				"energy": 0.04609,
				"method": "rhf"
			},
			{
				"type": "unocc",
				"energy": 0.07948,
				"method": "rhf"
			}
		],
		"cosmo_sigma_profile": { 
			"-0.025": 0.0,
			"-0.024": 0.0,
			"-0.023": 0.0,
			"-0.022": 0.0,
			"-0.021": 0.0,
			"-0.02": 0.0,
			"-0.019": 0.0,
			"-0.018": 0.0,
			"-0.017": 0.0,
			"-0.016": 0.0,
			"-0.015": 0.0,
			"-0.014": 0.0,
			"-0.013": 0.0,
			"-0.012": 0.0,
			"-0.011": 0.0,
			"-0.01": 0.0,
			"-0.009": 0.0,
			"-0.008": 0.0,
			"-0.007": 0.679611583612,
			"-0.006": 7.22947795604,
			"-0.005": 20.1220330467,
			"-0.004": 23.7535627715,
			"-0.003": 29.596862764,
			"-0.002": 29.211356614,
			"-0.001": 24.3683056701,
			"0.0": 26.3557167053,
			"0.001": 24.060768872,
			"0.002": 21.0341681018,
			"0.003": 17.1896924189,
			"0.004": 14.6145145115,
			"0.005": 17.6990751388,
			"0.006": 17.0988648275,
			"0.007": 6.610900086,
			"0.008": 0.00746178906758,
			"0.009": 0.0,
			"0.01": 0.0,
			"0.011": 0.0,
			"0.012": 0.0,
			"0.013": 0.0,
			"0.014": 0.0,
			"0.015": 0.0,
			"0.016": 0.0,
			"0.017": 0.0,
			"0.018": 0.0,
			"0.019": 0.0,
			"0.02": 0.0,
			"0.021": 0.0,
			"0.022": 0.0,
			"0.023": 0.0,
			"0.024": 0.0,
			"0.025": 0.0
		}
	}
}
