{
	 "smiles": "CCC1=NC(C)=NC(N)=C1", 
	 "Tm": 423.15, 
	 "num_atms": 21, 
	 "gaussian": { 
		 "optdone": 1, 
		 "sigma_profile": "yes", 
		 "theory": "DFT", 
		 "functional": "B3LYP", 
		 "basiset": "6-31G**", 
		 "properties": { 
			 "R2extent": 1908.9183, 
			 "electric_dipole_moment_norm": 2.89419385322, 
			 "electric_quadrupole_moment_norm": 7.96917585137, 
			 "total_energy": -437.661083131, 
			 "HOMO_LUMO_gap": 0.21735, 
			 "cosmo_polarized_energy": -10.88, 
			 "cosmo_cavitation_energy": 24.36, 
			 "cosmo_dispersion_energy": -17.99, 
			 "cosmo_repulsion_energy": 1.51, 
			 "cosmo_total_nonelectrostatic_energy": 7.88, 
			 "SMD_solvation_energy": 1.79 
		},
		"coords": [
			{
				"x": 0.7078022229,
				"y": 0.1191031756,
				"z": -2.3153688605,
				"element": "C" 
			},
			{
				"x": 0.9001158643,
				"y": 1.1941975317,
				"z": -1.2334394855,
				"element": "C" 
			},
			{
				"x": 0.1527281685,
				"y": 0.8688539473,
				"z": 0.0387283516,
				"element": "C" 
			},
			{
				"x": -1.1952703254,
				"y": 0.8317736131,
				"z": -0.0557346343,
				"element": "N" 
			},
			{
				"x": -1.8663273656,
				"y": 0.53191136,
				"z": 1.0604320095,
				"element": "C" 
			},
			{
				"x": -3.370138191,
				"y": 0.4922728978,
				"z": 0.975181852,
				"element": "C" 
			},
			{
				"x": -1.3321982421,
				"y": 0.2608704862,
				"z": 2.2617788,
				"element": "N" 
			},
			{
				"x": 0.004909039,
				"y": 0.3040938426,
				"z": 2.3500073546,
				"element": "C" 
			},
			{
				"x": 0.5443064731,
				"y": 0.0702531685,
				"z": 3.5880864327,
				"element": "N" 
			},
			{
				"x": 0.8082310611,
				"y": 0.6104342801,
				"z": 1.2324771193,
				"element": "C" 
			},
			{
				"x": 1.2073903108,
				"y": 0.4090083308,
				"z": -3.2450843837,
				"element": "H" 
			},
			{
				"x": -0.3567151358,
				"y": -0.0201358551,
				"z": -2.5202027861,
				"element": "H" 
			},
			{
				"x": 1.1208473405,
				"y": -0.8428546392,
				"z": -1.9937212016,
				"element": "H" 
			},
			{
				"x": 0.5223698964,
				"y": 2.1520369522,
				"z": -1.6111251419,
				"element": "H" 
			},
			{
				"x": 1.9651911128,
				"y": 1.328077775,
				"z": -1.0135309136,
				"element": "H" 
			},
			{
				"x": -3.6949923714,
				"y": 0.6719510826,
				"z": -0.0501098215,
				"element": "H" 
			},
			{
				"x": -3.8065198032,
				"y": 1.252114801,
				"z": 1.6323968925,
				"element": "H" 
			},
			{
				"x": -3.7453593127,
				"y": -0.4776835363,
				"z": 1.3167389432,
				"element": "H" 
			},
			{
				"x": 1.5138913525,
				"y": -0.1951376294,
				"z": 3.6558435284,
				"element": "H" 
			},
			{
				"x": -0.0857877229,
				"y": -0.3278168902,
				"z": 4.2687227863,
				"element": "H" 
			},
			{
				"x": 1.8906256283,
				"y": 0.6481753054,
				"z": 1.3061231588,
				"element": "H" 
			}
		],
		 "valence_orbital": [ 
			{
				"type": "occ",
				"energy": -0.32276,
				"method": "rhf"
			},
			{
				"type": "occ",
				"energy": -0.28326,
				"method": "rhf"
			},
			{
				"type": "occ",
				"energy": -0.26602,
				"method": "rhf"
			},
			{
				"type": "occ",
				"energy": -0.23564,
				"method": "rhf"
			},
			{
				"type": "occ",
				"energy": -0.22838,
				"method": "rhf"
			},
			{
				"type": "unocc",
				"energy": -0.01103,
				"method": "rhf"
			},
			{
				"type": "unocc",
				"energy": 0.00427,
				"method": "rhf"
			},
			{
				"type": "unocc",
				"energy": 0.08153,
				"method": "rhf"
			},
			{
				"type": "unocc",
				"energy": 0.10852,
				"method": "rhf"
			},
			{
				"type": "unocc",
				"energy": 0.12541,
				"method": "rhf"
			}
		],
		"cosmo_sigma_profile": { 
			"-0.025": 0.0,
			"-0.024": 0.0,
			"-0.023": 0.0,
			"-0.022": 0.0,
			"-0.021": 0.0,
			"-0.02": 0.0,
			"-0.019": 0.0,
			"-0.018": 0.0,
			"-0.017": 0.0,
			"-0.016": 0.0,
			"-0.015": 0.0,
			"-0.014": 0.818261515638,
			"-0.013": 2.39236501416,
			"-0.012": 2.07439604334,
			"-0.011": 2.52556961314,
			"-0.01": 2.43385883544,
			"-0.009": 2.66106095163,
			"-0.008": 2.11254308909,
			"-0.007": 3.11107647512,
			"-0.006": 3.09868788779,
			"-0.005": 4.94176072594,
			"-0.004": 10.6990061502,
			"-0.003": 14.0637302134,
			"-0.002": 16.6612523455,
			"-0.001": 21.3537197306,
			"0.0": 23.3111684622,
			"0.001": 20.4409059207,
			"0.002": 12.7532278024,
			"0.003": 10.2195101199,
			"0.004": 5.28310876549,
			"0.005": 3.81795773364,
			"0.006": 5.67313051861,
			"0.007": 3.50742729031,
			"0.008": 3.10621278782,
			"0.009": 3.47123819284,
			"0.01": 2.71388962799,
			"0.011": 2.38594026578,
			"0.012": 0.77683945543,
			"0.013": 2.05155109175,
			"0.014": 1.41266696743,
			"0.015": 1.12360470216,
			"0.016": 0.444325021891,
			"0.017": 0.00740186756903,
			"0.018": 0.0,
			"0.019": 0.0,
			"0.02": 0.0,
			"0.021": 0.0,
			"0.022": 0.0,
			"0.023": 0.0,
			"0.024": 0.0,
			"0.025": 0.0
		}
	}
}
