{
	 "smiles": "OC(=O)C1NCCC1C1=CC=CC=C1", 
	 "Tm": 508.15, 
	 "num_atms": 27, 
	 "gaussian": { 
		 "optdone": 1, 
		 "sigma_profile": "yes", 
		 "theory": "DFT", 
		 "functional": "B3LYP", 
		 "basiset": "6-31G**", 
		 "properties": { 
			 "R2extent": 3231.5942, 
			 "electric_dipole_moment_norm": 1.92739885078, 
			 "electric_quadrupole_moment_norm": 11.0726739408, 
			 "total_energy": -632.211063094, 
			 "HOMO_LUMO_gap": 0.22112, 
			 "cosmo_polarized_energy": -11.34, 
			 "cosmo_cavitation_energy": 28.98, 
			 "cosmo_dispersion_energy": -21.41, 
			 "cosmo_repulsion_energy": 1.68, 
			 "cosmo_total_nonelectrostatic_energy": 9.24, 
			 "SMD_solvation_energy": 3.21 
		},
		"coords": [
			{
				"x": 0.0787617945,
				"y": 3.7243430882,
				"z": -1.4235199964,
				"element": "O" 
			},
			{
				"x": 0.532415887,
				"y": 2.4725570193,
				"z": -1.1673671937,
				"element": "C" 
			},
			{
				"x": 1.0750200937,
				"y": 1.8005504145,
				"z": -2.019683804,
				"element": "O" 
			},
			{
				"x": 0.3174884891,
				"y": 2.0358621054,
				"z": 0.2838569473,
				"element": "C" 
			},
			{
				"x": -0.4284826901,
				"y": 2.967602073,
				"z": 1.1271519037,
				"element": "N" 
			},
			{
				"x": -1.8290107803,
				"y": 2.5366554822,
				"z": 1.1197011255,
				"element": "C" 
			},
			{
				"x": -1.6754330923,
				"y": 1.024922735,
				"z": 1.2835801963,
				"element": "C" 
			},
			{
				"x": -0.4952075462,
				"y": 0.6832891135,
				"z": 0.3447722949,
				"element": "C" 
			},
			{
				"x": 0.3375140512,
				"y": -0.5409670213,
				"z": 0.7070600149,
				"element": "C" 
			},
			{
				"x": 1.5251802585,
				"y": -0.8075198657,
				"z": 0.0049895934,
				"element": "C" 
			},
			{
				"x": 2.2934048784,
				"y": -1.9331769034,
				"z": 0.2985102755,
				"element": "C" 
			},
			{
				"x": 1.8878334356,
				"y": -2.8246505364,
				"z": 1.2944008586,
				"element": "C" 
			},
			{
				"x": 0.7031749317,
				"y": -2.580335846,
				"z": 1.986766779,
				"element": "C" 
			},
			{
				"x": -0.0648269308,
				"y": -1.4500059217,
				"z": 1.6938640609,
				"element": "C" 
			},
			{
				"x": 0.2879711712,
				"y": 3.8994602857,
				"z": -2.3567841119,
				"element": "H" 
			},
			{
				"x": 1.3281936778,
				"y": 1.8823417651,
				"z": 0.6842960472,
				"element": "H" 
			},
			{
				"x": -0.309602934,
				"y": 3.9288093718,
				"z": 0.8254628169,
				"element": "H" 
			},
			{
				"x": -2.359736914,
				"y": 2.7732624973,
				"z": 0.1795246066,
				"element": "H" 
			},
			{
				"x": -2.3799751878,
				"y": 3.0024080377,
				"z": 1.9431517588,
				"element": "H" 
			},
			{
				"x": -1.4087745608,
				"y": 0.8129701958,
				"z": 2.3229539605,
				"element": "H" 
			},
			{
				"x": -2.5827820954,
				"y": 0.4667274464,
				"z": 1.0362637925,
				"element": "H" 
			},
			{
				"x": -0.9024118837,
				"y": 0.5040132538,
				"z": -0.6583718694,
				"element": "H" 
			},
			{
				"x": 1.835965128,
				"y": -0.1307851308,
				"z": -0.7858289915,
				"element": "H" 
			},
			{
				"x": 3.2097865444,
				"y": -2.1161755592,
				"z": -0.2560955003,
				"element": "H" 
			},
			{
				"x": 2.4865345217,
				"y": -3.7016819076,
				"z": 1.5234920704,
				"element": "H" 
			},
			{
				"x": 0.3706772604,
				"y": -3.2682115464,
				"z": 2.7594426586,
				"element": "H" 
			},
			{
				"x": -0.9861775077,
				"y": -1.287364646,
				"z": 2.2433097055,
				"element": "H" 
			}
		],
		 "valence_orbital": [ 
			{
				"type": "occ",
				"energy": -0.32004,
				"method": "rhf"
			},
			{
				"type": "occ",
				"energy": -0.29196,
				"method": "rhf"
			},
			{
				"type": "occ",
				"energy": -0.24202,
				"method": "rhf"
			},
			{
				"type": "occ",
				"energy": -0.23569,
				"method": "rhf"
			},
			{
				"type": "occ",
				"energy": -0.2229,
				"method": "rhf"
			},
			{
				"type": "unocc",
				"energy": -0.00178,
				"method": "rhf"
			},
			{
				"type": "unocc",
				"energy": 0.00585,
				"method": "rhf"
			},
			{
				"type": "unocc",
				"energy": 0.00881,
				"method": "rhf"
			},
			{
				"type": "unocc",
				"energy": 0.06249,
				"method": "rhf"
			},
			{
				"type": "unocc",
				"energy": 0.09982,
				"method": "rhf"
			}
		],
		"cosmo_sigma_profile": { 
			"-0.025": 0.0,
			"-0.024": 0.0,
			"-0.023": 0.0,
			"-0.022": 0.0,
			"-0.021": 0.0,
			"-0.02": 0.0,
			"-0.019": 0.118431663493,
			"-0.018": 0.682469737579,
			"-0.017": 1.00145414208,
			"-0.016": 0.796871043264,
			"-0.015": 1.03493572932,
			"-0.014": 0.613250986049,
			"-0.013": 0.415755266211,
			"-0.012": 0.511782338968,
			"-0.011": 1.15797953176,
			"-0.01": 0.873528918658,
			"-0.009": 1.02715568224,
			"-0.008": 1.34825266168,
			"-0.007": 1.60319189845,
			"-0.006": 5.91978028435,
			"-0.005": 14.9793287778,
			"-0.004": 18.8103966321,
			"-0.003": 25.1407005203,
			"-0.002": 23.7893126906,
			"-0.001": 20.5039637321,
			"0.0": 16.4328794522,
			"0.001": 11.0101345775,
			"0.002": 12.5246836919,
			"0.003": 12.3285221914,
			"0.004": 11.118369048,
			"0.005": 10.379262005,
			"0.006": 12.502830619,
			"0.007": 6.27515217055,
			"0.008": 1.5151523376,
			"0.009": 2.19967876471,
			"0.01": 2.9468125035,
			"0.011": 3.81643553209,
			"0.012": 2.77901171661,
			"0.013": 0.480440307743,
			"0.014": 0.316091854101,
			"0.015": 0.553797104443,
			"0.016": 0.590714999278,
			"0.017": 0.411200981962,
			"0.018": 0.0253511543721,
			"0.019": 0.0,
			"0.02": 0.0,
			"0.021": 0.0,
			"0.022": 0.0,
			"0.023": 0.0,
			"0.024": 0.0,
			"0.025": 0.0
		}
	}
}
