{
	 "smiles": "COC1=C(C=C(C=C1)C(=O)NCC(O)=O)[N+]([O-])=O", 
	 "Tm": 372.15, 
	 "num_atms": 28, 
	 "gaussian": { 
		 "optdone": 1, 
		 "sigma_profile": "yes", 
		 "theory": "DFT", 
		 "functional": "B3LYP", 
		 "basiset": "6-31G**", 
		 "properties": { 
			 "R2extent": 5740.4815, 
			 "electric_dipole_moment_norm": 3.2522546241, 
			 "electric_quadrupole_moment_norm": 40.0055046677, 
			 "total_energy": -947.832489787, 
			 "HOMO_LUMO_gap": 0.17155, 
			 "cosmo_polarized_energy": -27.25, 
			 "cosmo_cavitation_energy": 33.89, 
			 "cosmo_dispersion_energy": -24.01, 
			 "cosmo_repulsion_energy": 1.88, 
			 "cosmo_total_nonelectrostatic_energy": 11.76, 
			 "SMD_solvation_energy": 10.94 
		},
		"coords": [
			{
				"x": -0.6988400243,
				"y": 4.0599868054,
				"z": -0.9556122776,
				"element": "C" 
			},
			{
				"x": 0.4710623082,
				"y": 3.3354831113,
				"z": -1.3327721726,
				"element": "O" 
			},
			{
				"x": 0.6774982633,
				"y": 2.113193367,
				"z": -0.8209897687,
				"element": "C" 
			},
			{
				"x": 1.8172244048,
				"y": 1.3828238129,
				"z": -1.2423307863,
				"element": "C" 
			},
			{
				"x": 2.0545859964,
				"y": 0.0934746849,
				"z": -0.7905589448,
				"element": "C" 
			},
			{
				"x": 1.1735252695,
				"y": -0.5265820693,
				"z": 0.1015631593,
				"element": "C" 
			},
			{
				"x": 0.0565152994,
				"y": 0.1960101615,
				"z": 0.5444635421,
				"element": "C" 
			},
			{
				"x": -0.1903592618,
				"y": 1.4873558291,
				"z": 0.0904301791,
				"element": "C" 
			},
			{
				"x": 1.5469168307,
				"y": -1.88786529,
				"z": 0.5934628257,
				"element": "C" 
			},
			{
				"x": 2.7116563278,
				"y": -2.2436317422,
				"z": 0.6778657009,
				"element": "O" 
			},
			{
				"x": 0.52408949,
				"y": -2.7535533501,
				"z": 1.0143315561,
				"element": "N" 
			},
			{
				"x": -0.7872231114,
				"y": -2.8760921839,
				"z": 0.370655911,
				"element": "C" 
			},
			{
				"x": -1.966889304,
				"y": -2.6345789769,
				"z": 1.3254118836,
				"element": "C" 
			},
			{
				"x": -1.6197881283,
				"y": -2.2292655316,
				"z": 2.5644355968,
				"element": "O" 
			},
			{
				"x": -3.1123898296,
				"y": -2.7765387123,
				"z": 0.9808300661,
				"element": "O" 
			},
			{
				"x": 2.8096455548,
				"y": 1.9576455073,
				"z": -2.1644887553,
				"element": "N" 
			},
			{
				"x": 2.9892493484,
				"y": 3.1708683956,
				"z": -2.1394202205,
				"element": "O" 
			},
			{
				"x": 3.4176907626,
				"y": 1.1657447019,
				"z": -2.8861826189,
				"element": "O" 
			},
			{
				"x": -0.7064125217,
				"y": 4.2705969625,
				"z": 0.1196775063,
				"element": "H" 
			},
			{
				"x": -0.6476273372,
				"y": 4.9976978943,
				"z": -1.5081540314,
				"element": "H" 
			},
			{
				"x": -1.6106018185,
				"y": 3.5189594108,
				"z": -1.2333760871,
				"element": "H" 
			},
			{
				"x": 2.9379451181,
				"y": -0.4308024076,
				"z": -1.1333599356,
				"element": "H" 
			},
			{
				"x": -0.6245740117,
				"y": -0.2318040844,
				"z": 1.2722077063,
				"element": "H" 
			},
			{
				"x": -1.0643811524,
				"y": 2.0134381142,
				"z": 0.4521219579,
				"element": "H" 
			},
			{
				"x": 0.9456966941,
				"y": -3.6386735991,
				"z": 1.2787050413,
				"element": "H" 
			},
			{
				"x": -0.8792685255,
				"y": -2.1608168713,
				"z": -0.4497461661,
				"element": "H" 
			},
			{
				"x": -0.9133994116,
				"y": -3.8715517695,
				"z": -0.0656380333,
				"element": "H" 
			},
			{
				"x": -0.6425472302,
				"y": -2.2357221704,
				"z": 2.6010671656,
				"element": "H" 
			}
		],
		 "valence_orbital": [ 
			{
				"type": "occ",
				"energy": -0.30315,
				"method": "rhf"
			},
			{
				"type": "occ",
				"energy": -0.29362,
				"method": "rhf"
			},
			{
				"type": "occ",
				"energy": -0.28342,
				"method": "rhf"
			},
			{
				"type": "occ",
				"energy": -0.27115,
				"method": "rhf"
			},
			{
				"type": "occ",
				"energy": -0.26108,
				"method": "rhf"
			},
			{
				"type": "unocc",
				"energy": -0.08953,
				"method": "rhf"
			},
			{
				"type": "unocc",
				"energy": -0.06199,
				"method": "rhf"
			},
			{
				"type": "unocc",
				"energy": -0.02482,
				"method": "rhf"
			},
			{
				"type": "unocc",
				"energy": -0.00541,
				"method": "rhf"
			},
			{
				"type": "unocc",
				"energy": 0.02383,
				"method": "rhf"
			}
		],
		"cosmo_sigma_profile": { 
			"-0.025": 0.0,
			"-0.024": 0.0,
			"-0.023": 0.0,
			"-0.022": 0.0,
			"-0.021": 0.0,
			"-0.02": 0.0,
			"-0.019": 0.0,
			"-0.018": 0.0,
			"-0.017": 0.0,
			"-0.016": 0.0,
			"-0.015": 0.686453386739,
			"-0.014": 2.54331721592,
			"-0.013": 2.75710625445,
			"-0.012": 2.81496992898,
			"-0.011": 3.64443365825,
			"-0.01": 3.35105637087,
			"-0.009": 5.03341228998,
			"-0.008": 10.8120358259,
			"-0.007": 16.9896223013,
			"-0.006": 19.2127320442,
			"-0.005": 19.3626352245,
			"-0.004": 16.7123248179,
			"-0.003": 12.0895210041,
			"-0.002": 13.1866045907,
			"-0.001": 14.3404805825,
			"0.0": 14.353511652,
			"0.001": 10.8525161184,
			"0.002": 7.26117279695,
			"0.003": 5.90574538658,
			"0.004": 6.11261582112,
			"0.005": 7.06967597874,
			"0.006": 6.44496431901,
			"0.007": 11.5477998604,
			"0.008": 14.8072911986,
			"0.009": 10.5728577527,
			"0.01": 10.7786853032,
			"0.011": 8.56940011441,
			"0.012": 10.3621801322,
			"0.013": 2.40419721139,
			"0.014": 0.0,
			"0.015": 0.0,
			"0.016": 0.0,
			"0.017": 0.0,
			"0.018": 0.0,
			"0.019": 0.0,
			"0.02": 0.0,
			"0.021": 0.0,
			"0.022": 0.0,
			"0.023": 0.0,
			"0.024": 0.0,
			"0.0": 0.0
		}
	}
}
