{
	 "smiles": "CC(=O)C1=C(F)C=C(SCC(O)=O)C=C1", 
	 "Tm": 412.15, 
	 "num_atms": 24, 
	 "gaussian": { 
		 "optdone": 1, 
		 "sigma_profile": "yes", 
		 "theory": "DFT", 
		 "functional": "B3LYP", 
		 "basiset": "6-31G**", 
		 "properties": { 
			 "R2extent": 4697.6399, 
			 "electric_dipole_moment_norm": 4.6560300042, 
			 "electric_quadrupole_moment_norm": 13.7893572113, 
			 "total_energy": -1110.18871583, 
			 "HOMO_LUMO_gap": 0.17962, 
			 "cosmo_polarized_energy": -16.68, 
			 "cosmo_cavitation_energy": 30.66, 
			 "cosmo_dispersion_energy": -22.45, 
			 "cosmo_repulsion_energy": 1.69, 
			 "cosmo_total_nonelectrostatic_energy": 9.89, 
			 "SMD_solvation_energy": 7.14 
		},
		"coords": [
			{
				"x": 1.2356388353,
				"y": -3.4797291769,
				"z": -2.9679817256,
				"element": "C" 
			},
			{
				"x": 0.0160059282,
				"y": -2.936124522,
				"z": -2.2532537864,
				"element": "C" 
			},
			{
				"x": -1.1056062704,
				"y": -3.3046497,
				"z": -2.5671420934,
				"element": "O" 
			},
			{
				"x": 0.1730603575,
				"y": -1.9316372118,
				"z": -1.1439243417,
				"element": "C" 
			},
			{
				"x": 1.3834588581,
				"y": -1.4179242489,
				"z": -0.6606317129,
				"element": "C" 
			},
			{
				"x": 2.5577506762,
				"y": -1.8195348743,
				"z": -1.1931756939,
				"element": "F" 
			},
			{
				"x": 1.4515820136,
				"y": -0.4948226165,
				"z": 0.372736681,
				"element": "C" 
			},
			{
				"x": 0.2671156528,
				"y": -0.0410474404,
				"z": 0.9656169802,
				"element": "C" 
			},
			{
				"x": 0.464650762,
				"y": 1.1517815016,
				"z": 2.2812523102,
				"element": "S" 
			},
			{
				"x": -1.2251774777,
				"y": 1.34553216,
				"z": 2.9465387295,
				"element": "C" 
			},
			{
				"x": -2.2168368585,
				"y": 2.1481109033,
				"z": 2.0911259684,
				"element": "C" 
			},
			{
				"x": -1.6959647254,
				"y": 3.0988859094,
				"z": 1.2961199286,
				"element": "O" 
			},
			{
				"x": -3.4046448381,
				"y": 1.9561846675,
				"z": 2.168424674,
				"element": "O" 
			},
			{
				"x": -0.9674896349,
				"y": -0.526736572,
				"z": 0.5075631286,
				"element": "C" 
			},
			{
				"x": -0.9944501311,
				"y": -1.4556773057,
				"z": -0.5257359294,
				"element": "C" 
			},
			{
				"x": 1.9085344975,
				"y": -3.9816290212,
				"z": -2.2659161973,
				"element": "H" 
			},
			{
				"x": 0.9005456925,
				"y": -4.1823356944,
				"z": -3.7314352111,
				"element": "H" 
			},
			{
				"x": 1.8118165101,
				"y": -2.6714841651,
				"z": -3.4287704465,
				"element": "H" 
			},
			{
				"x": 2.4261270179,
				"y": -0.1510357291,
				"z": 0.7028056806,
				"element": "H" 
			},
			{
				"x": -1.6706498793,
				"y": 0.3796647489,
				"z": 3.1877481637,
				"element": "H" 
			},
			{
				"x": -1.0814916373,
				"y": 1.8858576119,
				"z": 3.8889216844,
				"element": "H" 
			},
			{
				"x": -0.7231105804,
				"y": 3.0406871006,
				"z": 1.3178807517,
				"element": "H" 
			},
			{
				"x": -1.9039907873,
				"y": -0.1907539071,
				"z": 0.9361429796,
				"element": "H" 
			},
			{
				"x": -1.9383739814,
				"y": -1.8435824179,
				"z": -0.8941105221,
				"element": "H" 
			}
		],
		 "valence_orbital": [ 
			{
				"type": "occ",
				"energy": -0.31821,
				"method": "rhf"
			},
			{
				"type": "occ",
				"energy": -0.28613,
				"method": "rhf"
			},
			{
				"type": "occ",
				"energy": -0.27309,
				"method": "rhf"
			},
			{
				"type": "occ",
				"energy": -0.25861,
				"method": "rhf"
			},
			{
				"type": "occ",
				"energy": -0.24817,
				"method": "rhf"
			},
			{
				"type": "unocc",
				"energy": -0.06855,
				"method": "rhf"
			},
			{
				"type": "unocc",
				"energy": -0.02619,
				"method": "rhf"
			},
			{
				"type": "unocc",
				"energy": -0.01496,
				"method": "rhf"
			},
			{
				"type": "unocc",
				"energy": 0.00713,
				"method": "rhf"
			},
			{
				"type": "unocc",
				"energy": 0.02023,
				"method": "rhf"
			}
		],
		"cosmo_sigma_profile": { 
			"-0.025": 0.0,
			"-0.024": 0.0,
			"-0.023": 0.0,
			"-0.022": 0.0,
			"-0.021": 0.0,
			"-0.02": 0.0,
			"-0.019": 0.0,
			"-0.018": 0.0,
			"-0.017": 0.0,
			"-0.016": 0.0,
			"-0.015": 0.216344206194,
			"-0.014": 0.739713973039,
			"-0.013": 1.1399960606,
			"-0.012": 1.25251457305,
			"-0.011": 3.24656100295,
			"-0.01": 4.30866134093,
			"-0.009": 4.65124950504,
			"-0.008": 6.0576803183,
			"-0.007": 6.97359502705,
			"-0.006": 13.6606641213,
			"-0.005": 14.6949801253,
			"-0.004": 13.7901619184,
			"-0.003": 14.3324651648,
			"-0.002": 15.1633402431,
			"-0.001": 19.6675593133,
			"0.0": 20.8944544995,
			"0.001": 20.0197641425,
			"0.002": 16.4022116463,
			"0.003": 14.4449598778,
			"0.004": 7.67885170725,
			"0.005": 4.56226154877,
			"0.006": 4.65147409934,
			"0.007": 4.57502608016,
			"0.008": 3.94106982215,
			"0.009": 6.55953573581,
			"0.01": 6.29308881827,
			"0.011": 8.46652137854,
			"0.012": 6.92490762018,
			"0.013": 1.64170925089,
			"0.014": 0.0166766071225,
			"0.015": 0.0,
			"0.016": 0.0,
			"0.017": 0.0,
			"0.018": 0.0,
			"0.019": 0.0,
			"0.02": 0.0,
			"0.021": 0.0,
			"0.022": 0.0,
			"0.023": 0.0,
			"0.024": 0.0,
			"0.025": 0.0
		}
	}
}
