{
	 "smiles": "[O-][N+](=O)C1=C(C=CC(=C1)C(F)(F)F)S(Cl)(=O)=O", 
	 "Tm": 316.15, 
	 "num_atms": 20, 
	 "gaussian": { 
		 "optdone": 1, 
		 "sigma_profile": "yes", 
		 "theory": "DFT", 
		 "functional": "B3LYP", 
		 "basiset": "6-31G**", 
		 "properties": { 
			 "R2extent": 5676.5813, 
			 "electric_dipole_moment_norm": 4.75288258744, 
			 "electric_quadrupole_moment_norm": 10.7896849667, 
			 "total_energy": -1781.90968477, 
			 "HOMO_LUMO_gap": 0.18502, 
			 "cosmo_polarized_energy": -13.0, 
			 "cosmo_cavitation_energy": 30.56, 
			 "cosmo_dispersion_energy": -22.11, 
			 "cosmo_repulsion_energy": 1.6, 
			 "cosmo_total_nonelectrostatic_energy": 10.05, 
			 "SMD_solvation_energy": 7.29 
		},
		"coords": [
			{
				"x": 2.4774213285,
				"y": -0.8855881265,
				"z": -0.7064915988,
				"element": "O" 
			},
			{
				"x": 2.1403035237,
				"y": 0.2715617058,
				"z": -0.4773291342,
				"element": "N" 
			},
			{
				"x": 2.8639699047,
				"y": 1.2579005218,
				"z": -0.5201672472,
				"element": "O" 
			},
			{
				"x": 0.7394582095,
				"y": 0.4827249868,
				"z": -0.0543477228,
				"element": "C" 
			},
			{
				"x": 0.0088726627,
				"y": 1.6443576657,
				"z": -0.347107044,
				"element": "C" 
			},
			{
				"x": -1.2863416949,
				"y": 1.7789861538,
				"z": 0.1548055593,
				"element": "C" 
			},
			{
				"x": -1.8406419006,
				"y": 0.7796201619,
				"z": 0.9536433323,
				"element": "C" 
			},
			{
				"x": -1.110791436,
				"y": -0.3760395682,
				"z": 1.2263829988,
				"element": "C" 
			},
			{
				"x": 0.1768936868,
				"y": -0.5299784233,
				"z": 0.7139214308,
				"element": "C" 
			},
			{
				"x": -1.7313363564,
				"y": -1.4931833726,
				"z": 2.0343137869,
				"element": "C" 
			},
			{
				"x": -2.3872613056,
				"y": -2.3565775581,
				"z": 1.2335711919,
				"element": "F" 
			},
			{
				"x": -0.7966242395,
				"y": -2.1918792775,
				"z": 2.7062466465,
				"element": "F" 
			},
			{
				"x": -2.619168674,
				"y": -1.0144629591,
				"z": 2.9277605942,
				"element": "F" 
			},
			{
				"x": 0.5195115387,
				"y": 2.9543139296,
				"z": -1.5007433386,
				"element": "S" 
			},
			{
				"x": 1.7342185087,
				"y": 4.1824430252,
				"z": -0.3041129536,
				"element": "Cl" 
			},
			{
				"x": 1.3194601123,
				"y": 2.3803930428,
				"z": -2.5695621405,
				"element": "O" 
			},
			{
				"x": -0.6724322513,
				"y": 3.7452771112,
				"z": -1.7816493223,
				"element": "O" 
			},
			{
				"x": -1.8573967703,
				"y": 2.664407337,
				"z": -0.0969428616,
				"element": "H" 
			},
			{
				"x": -2.8400453584,
				"y": 0.9004093802,
				"z": 1.3558444468,
				"element": "H" 
			},
			{
				"x": 0.7602305114,
				"y": -1.4205857366,
				"z": 0.9115633761,
				"element": "H" 
			}
		],
		 "valence_orbital": [ 
			{
				"type": "occ",
				"energy": -0.33706,
				"method": "rhf"
			},
			{
				"type": "occ",
				"energy": -0.33227,
				"method": "rhf"
			},
			{
				"type": "occ",
				"energy": -0.32634,
				"method": "rhf"
			},
			{
				"type": "occ",
				"energy": -0.32393,
				"method": "rhf"
			},
			{
				"type": "occ",
				"energy": -0.31128,
				"method": "rhf"
			},
			{
				"type": "unocc",
				"energy": -0.12626,
				"method": "rhf"
			},
			{
				"type": "unocc",
				"energy": -0.09961,
				"method": "rhf"
			},
			{
				"type": "unocc",
				"energy": -0.08105,
				"method": "rhf"
			},
			{
				"type": "unocc",
				"energy": -0.05263,
				"method": "rhf"
			},
			{
				"type": "unocc",
				"energy": 0.01919,
				"method": "rhf"
			}
		],
		"cosmo_sigma_profile": { 
			"-0.025": 0.0,
			"-0.024": 0.0,
			"-0.023": 0.0,
			"-0.022": 0.0,
			"-0.021": 0.0,
			"-0.02": 0.0,
			"-0.019": 0.0,
			"-0.018": 0.0,
			"-0.017": 0.0,
			"-0.016": 0.0,
			"-0.015": 0.0,
			"-0.014": 0.0,
			"-0.013": 0.0,
			"-0.012": 0.0,
			"-0.011": 0.203008300652,
			"-0.01": 3.84974177546,
			"-0.009": 6.18463015672,
			"-0.008": 7.0417579746,
			"-0.007": 7.73434259414,
			"-0.006": 9.10471442239,
			"-0.005": 11.4573396314,
			"-0.004": 17.5354332931,
			"-0.003": 19.1532978308,
			"-0.002": 14.5753178221,
			"-0.001": 11.3149136039,
			"0.0": 13.9512849103,
			"0.001": 21.23930615,
			"0.002": 37.1420499686,
			"0.003": 14.6504311461,
			"0.004": 6.44037629739,
			"0.005": 8.29939727669,
			"0.006": 13.7261734992,
			"0.007": 13.7465721286,
			"0.008": 10.9069746041,
			"0.009": 1.30940899091,
			"0.01": 0.0,
			"0.011": 0.0,
			"0.012": 0.0,
			"0.013": 0.0,
			"0.014": 0.0,
			"0.015": 0.0,
			"0.016": 0.0,
			"0.017": 0.0,
			"0.018": 0.0,
			"0.019": 0.0,
			"0.02": 0.0,
			"0.021": 0.0,
			"0.022": 0.0,
			"0.023": 0.0,
			"0.024": 0.0,
			"0.025": 0.0
		}
	}
}
