{
	 "smiles": "OC(=O)C1=NOC(=C1)C1=CC=NC=C1", 
	 "Tm": 550.15, 
	 "num_atms": 20, 
	 "gaussian": { 
		 "optdone": 1, 
		 "sigma_profile": "yes", 
		 "theory": "DFT", 
		 "functional": "B3LYP", 
		 "basiset": "6-31G**", 
		 "properties": { 
			 "R2extent": 3893.4869, 
			 "electric_dipole_moment_norm": 1.12650999552, 
			 "electric_quadrupole_moment_norm": 1.87690186211, 
			 "total_energy": -681.69973006, 
			 "HOMO_LUMO_gap": 0.18411, 
			 "cosmo_polarized_energy": -14.75, 
			 "cosmo_cavitation_energy": 26.48, 
			 "cosmo_dispersion_energy": -19.51, 
			 "cosmo_repulsion_energy": 1.51, 
			 "cosmo_total_nonelectrostatic_energy": 8.49, 
			 "SMD_solvation_energy": 4.35 
		},
		"coords": [
			{
				"x": 1.2030318809,
				"y": -1.9061362488,
				"z": 4.4083451439,
				"element": "O" 
			},
			{
				"x": 1.4307538951,
				"y": -2.3124596381,
				"z": 3.1477010495,
				"element": "C" 
			},
			{
				"x": 2.1660722469,
				"y": -3.2306303493,
				"z": 2.8510294835,
				"element": "O" 
			},
			{
				"x": 0.6878001568,
				"y": -1.5223402405,
				"z": 2.13215256,
				"element": "C" 
			},
			{
				"x": -0.1123536509,
				"y": -0.5234428093,
				"z": 2.4535796813,
				"element": "N" 
			},
			{
				"x": -0.6036964408,
				"y": -0.0565733505,
				"z": 1.2498698892,
				"element": "O" 
			},
			{
				"x": -0.0902204181,
				"y": -0.78357725,
				"z": 0.2205949068,
				"element": "C" 
			},
			{
				"x": 0.7452041695,
				"y": -1.7380949692,
				"z": 0.7304312435,
				"element": "C" 
			},
			{
				"x": -0.5088162488,
				"y": -0.4198876423,
				"z": -1.1305981676,
				"element": "C" 
			},
			{
				"x": -1.4038386417,
				"y": 0.6354287398,
				"z": -1.3581032803,
				"element": "C" 
			},
			{
				"x": -1.7647901685,
				"y": 0.9335369672,
				"z": -2.6707768603,
				"element": "C" 
			},
			{
				"x": -1.3090944078,
				"y": 0.2722936866,
				"z": -3.7422949735,
				"element": "N" 
			},
			{
				"x": -0.4546212135,
				"y": -0.7340703964,
				"z": -3.5148436978,
				"element": "C" 
			},
			{
				"x": -0.0259340994,
				"y": -1.1185462287,
				"z": -2.2468919253,
				"element": "C" 
			},
			{
				"x": 1.7331970625,
				"y": -2.4858942184,
				"z": 4.9809434499,
				"element": "H" 
			},
			{
				"x": 1.3232830489,
				"y": -2.4891490498,
				"z": 0.2172972588,
				"element": "H" 
			},
			{
				"x": -1.8069803834,
				"y": 1.2078579076,
				"z": -0.5306418983,
				"element": "H" 
			},
			{
				"x": -2.4580293411,
				"y": 1.7484940302,
				"z": -2.8697848726,
				"element": "H" 
			},
			{
				"x": -0.0917124489,
				"y": -1.2633019432,
				"z": -4.3938199056,
				"element": "H" 
			},
			{
				"x": 0.6688450024,
				"y": -1.944506997,
				"z": -2.1354890851,
				"element": "H" 
			}
		],
		 "valence_orbital": [ 
			{
				"type": "occ",
				"energy": -0.31712,
				"method": "rhf"
			},
			{
				"type": "occ",
				"energy": -0.2987,
				"method": "rhf"
			},
			{
				"type": "occ",
				"energy": -0.27808,
				"method": "rhf"
			},
			{
				"type": "occ",
				"energy": -0.26775,
				"method": "rhf"
			},
			{
				"type": "occ",
				"energy": -0.26326,
				"method": "rhf"
			},
			{
				"type": "unocc",
				"energy": -0.07915,
				"method": "rhf"
			},
			{
				"type": "unocc",
				"energy": -0.0516,
				"method": "rhf"
			},
			{
				"type": "unocc",
				"energy": -0.02525,
				"method": "rhf"
			},
			{
				"type": "unocc",
				"energy": 0.03207,
				"method": "rhf"
			},
			{
				"type": "unocc",
				"energy": 0.06634,
				"method": "rhf"
			}
		],
		"cosmo_sigma_profile": { 
			"-0.025": 0.0,
			"-0.024": 0.0,
			"-0.023": 0.0,
			"-0.022": 0.0,
			"-0.021": 0.0,
			"-0.02": 0.024818661083,
			"-0.019": 0.966855611248,
			"-0.018": 0.988818002874,
			"-0.017": 1.20683032372,
			"-0.016": 0.538201337375,
			"-0.015": 0.44420122679,
			"-0.014": 0.188626852793,
			"-0.013": 1.13723852015,
			"-0.012": 1.39709988119,
			"-0.011": 0.367155704784,
			"-0.01": 2.58620660691,
			"-0.009": 3.62208879837,
			"-0.008": 4.05054168816,
			"-0.007": 9.03011189265,
			"-0.006": 10.4344011434,
			"-0.005": 9.67631462739,
			"-0.004": 11.111743491,
			"-0.003": 13.031920564,
			"-0.002": 19.3711033918,
			"-0.001": 16.3001870124,
			"0.0": 16.2885243485,
			"0.001": 18.7891621693,
			"0.002": 9.91082399458,
			"0.003": 7.25434369248,
			"0.004": 6.50854235316,
			"0.005": 6.4174231477,
			"0.006": 6.34578562749,
			"0.007": 5.10920007036,
			"0.008": 5.47589989018,
			"0.009": 6.15980531004,
			"0.01": 7.07362178877,
			"0.011": 6.42020487158,
			"0.012": 1.53761682961,
			"0.013": 1.72489680107,
			"0.014": 0.947410041706,
			"0.015": 0.83131006197,
			"0.016": 0.622622871079,
			"0.017": 0.100407306308,
			"0.018": 0.0,
			"0.019": 0.0,
			"0.02": 0.0,
			"0.021": 0.0,
			"0.022": 0.0,
			"0.023": 0.0,
			"0.024": 0.0,
			"0.025": 0.0
		}
	}
}
