{
	 "smiles": "NC(=O)C1=C(O)C=C(Cl)C=C1", 
	 "Tm": 462.15, 
	 "num_atms": 17, 
	 "gaussian": { 
		 "optdone": 1, 
		 "sigma_profile": "yes", 
		 "theory": "DFT", 
		 "functional": "B3LYP", 
		 "basiset": "6-31G**", 
		 "properties": { 
			 "R2extent": 2499.8385, 
			 "electric_dipole_moment_norm": 4.44105341107, 
			 "electric_quadrupole_moment_norm": 13.2258585884, 
			 "total_energy": -935.782180873, 
			 "HOMO_LUMO_gap": 0.17979, 
			 "cosmo_polarized_energy": -12.68, 
			 "cosmo_cavitation_energy": 22.96, 
			 "cosmo_dispersion_energy": -17.76, 
			 "cosmo_repulsion_energy": 1.42, 
			 "cosmo_total_nonelectrostatic_energy": 6.62, 
			 "SMD_solvation_energy": 4.61 
		},
		"coords": [
			{
				"x": -1.9784357486,
				"y": 2.5234359522,
				"z": -1.2661646825,
				"element": "N" 
			},
			{
				"x": -0.954883073,
				"y": 2.4122200866,
				"z": -0.3738435715,
				"element": "C" 
			},
			{
				"x": -0.3190811329,
				"y": 3.4300234525,
				"z": -0.0379701896,
				"element": "O" 
			},
			{
				"x": -0.6138208251,
				"y": 1.0746197698,
				"z": 0.1624274338,
				"element": "C" 
			},
			{
				"x": 0.3707471724,
				"y": 0.9969212552,
				"z": 1.1860936374,
				"element": "C" 
			},
			{
				"x": 1.012529982,
				"y": 2.0723818593,
				"z": 1.6495897881,
				"element": "O" 
			},
			{
				"x": 0.6956595562,
				"y": -0.2509961688,
				"z": 1.7484885827,
				"element": "C" 
			},
			{
				"x": 0.068414353,
				"y": -1.393557522,
				"z": 1.2821654642,
				"element": "C" 
			},
			{
				"x": 0.4860130668,
				"y": -2.9454810072,
				"z": 1.9866950643,
				"element": "Cl" 
			},
			{
				"x": -0.8854909714,
				"y": -1.3517318492,
				"z": 0.2553857336,
				"element": "C" 
			},
			{
				"x": -1.2089737658,
				"y": -0.1179639883,
				"z": -0.2870677522,
				"element": "C" 
			},
			{
				"x": -2.2358916099,
				"y": 3.4641772538,
				"z": -1.5259226658,
				"element": "H" 
			},
			{
				"x": -2.6701552625,
				"y": 1.8008011678,
				"z": -1.3749118884,
				"element": "H" 
			},
			{
				"x": 0.6798313512,
				"y": 2.8435590828,
				"z": 1.1103462677,
				"element": "H" 
			},
			{
				"x": 1.4408604473,
				"y": -0.2902070345,
				"z": 2.5335172177,
				"element": "H" 
			},
			{
				"x": -1.3474336448,
				"y": -2.2633751146,
				"z": -0.1030730677,
				"element": "H" 
			},
			{
				"x": -1.9273898948,
				"y": -0.0932271954,
				"z": -1.1012553719,
				"element": "H" 
			}
		],
		 "valence_orbital": [ 
			{
				"type": "occ",
				"energy": -0.31802,
				"method": "rhf"
			},
			{
				"type": "occ",
				"energy": -0.29283,
				"method": "rhf"
			},
			{
				"type": "occ",
				"energy": -0.27799,
				"method": "rhf"
			},
			{
				"type": "occ",
				"energy": -0.2601,
				"method": "rhf"
			},
			{
				"type": "occ",
				"energy": -0.23379,
				"method": "rhf"
			},
			{
				"type": "unocc",
				"energy": -0.054,
				"method": "rhf"
			},
			{
				"type": "unocc",
				"energy": -0.00697,
				"method": "rhf"
			},
			{
				"type": "unocc",
				"energy": 0.02326,
				"method": "rhf"
			},
			{
				"type": "unocc",
				"energy": 0.04254,
				"method": "rhf"
			},
			{
				"type": "unocc",
				"energy": 0.06179,
				"method": "rhf"
			}
		],
		"cosmo_sigma_profile": { 
			"-0.025": 0.0,
			"-0.024": 0.0,
			"-0.023": 0.0,
			"-0.022": 0.0,
			"-0.021": 0.0,
			"-0.02": 0.0,
			"-0.019": 0.0,
			"-0.018": 0.0,
			"-0.017": 0.0,
			"-0.016": 0.324575942822,
			"-0.015": 1.78649299799,
			"-0.014": 2.88829430095,
			"-0.013": 1.9339356986,
			"-0.012": 2.73920726083,
			"-0.011": 2.32374612288,
			"-0.01": 2.50745415004,
			"-0.009": 2.21553527077,
			"-0.008": 3.15959448327,
			"-0.007": 5.2527045722,
			"-0.006": 6.51330318241,
			"-0.005": 5.11125630125,
			"-0.004": 5.53604430554,
			"-0.003": 7.79533192242,
			"-0.002": 9.64233894656,
			"-0.001": 12.2742870053,
			"0.0": 15.289554291,
			"0.001": 18.8768380343,
			"0.002": 21.2115906202,
			"0.003": 16.3123387317,
			"0.004": 14.9176179801,
			"0.005": 5.89891998312,
			"0.006": 3.65605635988,
			"0.007": 2.76595499776,
			"0.008": 2.19982706304,
			"0.009": 2.67254293436,
			"0.01": 3.52745466068,
			"0.011": 3.18118062759,
			"0.012": 2.22425916715,
			"0.013": 1.50248866835,
			"0.014": 0.051417014033,
			"0.015": 0.0,
			"0.016": 0.0,
			"0.017": 0.0,
			"0.018": 0.0,
			"0.019": 0.0,
			"0.02": 0.0,
			"0.021": 0.0,
			"0.022": 0.0,
			"0.023": 0.0,
			"0.024": 0.0,
			"0.025": 0.0
		}
	}
}
