{
	 "smiles": "CN1CC(=O)NC(=O)C1", 
	 "Tm": 373.15, 
	 "num_atms": 17, 
	 "gaussian": { 
		 "optdone": 1, 
		 "sigma_profile": "yes", 
		 "theory": "DFT", 
		 "functional": "B3LYP", 
		 "basiset": "6-31G**", 
		 "properties": { 
			 "R2extent": 1380.9712, 
			 "electric_dipole_moment_norm": 2.20013491405, 
			 "electric_quadrupole_moment_norm": 8.44464182307, 
			 "total_energy": -455.315285906, 
			 "HOMO_LUMO_gap": 0.19786, 
			 "cosmo_polarized_energy": -13.02, 
			 "cosmo_cavitation_energy": 20.26, 
			 "cosmo_dispersion_energy": -15.11, 
			 "cosmo_repulsion_energy": 1.25, 
			 "cosmo_total_nonelectrostatic_energy": 6.4, 
			 "SMD_solvation_energy": 2.24 
		},
		"coords": [
			{
				"x": 1.8875686586,
				"y": 1.6129518036,
				"z": -1.0267150006,
				"element": "C" 
			},
			{
				"x": 1.5725781859,
				"y": 0.4722077376,
				"z": -0.1655138103,
				"element": "N" 
			},
			{
				"x": 0.2320019278,
				"y": 0.5352970825,
				"z": 0.4024756707,
				"element": "C" 
			},
			{
				"x": -0.8963810673,
				"y": 0.2213327717,
				"z": -0.5840578094,
				"element": "C" 
			},
			{
				"x": -2.0370312492,
				"y": 0.6229659582,
				"z": -0.4707307606,
				"element": "O" 
			},
			{
				"x": -0.5200732293,
				"y": -0.6113049731,
				"z": -1.6408837274,
				"element": "N" 
			},
			{
				"x": 0.7326367738,
				"y": -1.1904808395,
				"z": -1.8578748073,
				"element": "C" 
			},
			{
				"x": 0.9273025206,
				"y": -1.9459377928,
				"z": -2.7887988406,
				"element": "O" 
			},
			{
				"x": 1.7892509167,
				"y": -0.8140931796,
				"z": -0.8152854668,
				"element": "C" 
			},
			{
				"x": 2.9294936291,
				"y": 1.5395529238,
				"z": -1.3514872091,
				"element": "H" 
			},
			{
				"x": 1.2541833623,
				"y": 1.6952297285,
				"z": -1.9273662997,
				"element": "H" 
			},
			{
				"x": 1.7789807688,
				"y": 2.5368378483,
				"z": -0.451284593,
				"element": "H" 
			},
			{
				"x": 0.0362500433,
				"y": 1.5241411335,
				"z": 0.823258409,
				"element": "H" 
			},
			{
				"x": 0.1526683125,
				"y": -0.1880415256,
				"z": 1.2268511455,
				"element": "H" 
			},
			{
				"x": -1.2480567714,
				"y": -0.8490515064,
				"z": -2.3083243548,
				"element": "H" 
			},
			{
				"x": 1.7923688571,
				"y": -1.6087024071,
				"z": -0.0552223808,
				"element": "H" 
			},
			{
				"x": 2.7631583606,
				"y": -0.8388047635,
				"z": -1.3093401647,
				"element": "H" 
			}
		],
		 "valence_orbital": [ 
			{
				"type": "occ",
				"energy": -0.36774,
				"method": "rhf"
			},
			{
				"type": "occ",
				"energy": -0.31446,
				"method": "rhf"
			},
			{
				"type": "occ",
				"energy": -0.29181,
				"method": "rhf"
			},
			{
				"type": "occ",
				"energy": -0.26735,
				"method": "rhf"
			},
			{
				"type": "occ",
				"energy": -0.23049,
				"method": "rhf"
			},
			{
				"type": "unocc",
				"energy": -0.03263,
				"method": "rhf"
			},
			{
				"type": "unocc",
				"energy": 0.02463,
				"method": "rhf"
			},
			{
				"type": "unocc",
				"energy": 0.06849,
				"method": "rhf"
			},
			{
				"type": "unocc",
				"energy": 0.10259,
				"method": "rhf"
			},
			{
				"type": "unocc",
				"energy": 0.11868,
				"method": "rhf"
			}
		],
		"cosmo_sigma_profile": { 
			"-0.025": 0.0,
			"-0.024": 0.0,
			"-0.023": 0.0,
			"-0.022": 0.0,
			"-0.021": 0.0,
			"-0.02": 0.0,
			"-0.019": 0.0,
			"-0.018": 0.0,
			"-0.017": 0.0,
			"-0.016": 0.0538826550408,
			"-0.015": 0.845740776827,
			"-0.014": 1.15788979006,
			"-0.013": 0.366840616191,
			"-0.012": 1.11390028719,
			"-0.011": 0.675627361124,
			"-0.01": 1.32556294571,
			"-0.009": 2.24034260572,
			"-0.008": 4.73879499322,
			"-0.007": 8.38779267784,
			"-0.006": 10.4719706041,
			"-0.005": 12.7135852716,
			"-0.004": 16.1698179327,
			"-0.003": 13.4822221265,
			"-0.002": 13.5493771644,
			"-0.001": 11.4414725257,
			"0.0": 3.73411467634,
			"0.001": 3.67003294486,
			"0.002": 3.88837068692,
			"0.003": 2.75991975309,
			"0.004": 3.21421870115,
			"0.005": 4.54053476535,
			"0.006": 2.80952386931,
			"0.007": 2.83342046169,
			"0.008": 2.34502327472,
			"0.009": 3.97586873306,
			"0.01": 4.96369649882,
			"0.011": 7.4828507397,
			"0.012": 10.6095389694,
			"0.013": 2.99776097244,
			"0.014": 0.43340414477,
			"0.015": 0.0807485585611,
			"0.016": 0.0,
			"0.017": 0.0,
			"0.018": 0.0,
			"0.019": 0.0,
			"0.02": 0.0,
			"0.021": 0.0,
			"0.022": 0.0,
			"0.023": 0.0,
			"0.024": 0.0,
			"0.025": 0.0
		}
	}
}
