{
	 "smiles": "CC1=CC=C(O1)C(N)=S", 
	 "Tm": 423.15, 
	 "num_atms": 16, 
	 "gaussian": { 
		 "optdone": 1, 
		 "sigma_profile": "yes", 
		 "theory": "DFT", 
		 "functional": "B3LYP", 
		 "basiset": "6-31G**", 
		 "properties": { 
			 "R2extent": 1700.1293, 
			 "electric_dipole_moment_norm": 5.23430969661, 
			 "electric_quadrupole_moment_norm": 15.5644700674, 
			 "total_energy": -761.009941141, 
			 "HOMO_LUMO_gap": 0.14358, 
			 "cosmo_polarized_energy": -18.65, 
			 "cosmo_cavitation_energy": 22.11, 
			 "cosmo_dispersion_energy": -16.84, 
			 "cosmo_repulsion_energy": 1.36, 
			 "cosmo_total_nonelectrostatic_energy": 6.63, 
			 "SMD_solvation_energy": 3.65 
		},
		"coords": [
			{
				"x": -1.4973026796,
				"y": -2.7656734145,
				"z": 0.4615353687,
				"element": "C" 
			},
			{
				"x": -1.273117104,
				"y": -1.4798733452,
				"z": -0.2519746661,
				"element": "C" 
			},
			{
				"x": -2.0914842392,
				"y": -0.646965325,
				"z": -0.9712989672,
				"element": "C" 
			},
			{
				"x": -1.2775978382,
				"y": 0.4352583187,
				"z": -1.4050011424,
				"element": "C" 
			},
			{
				"x": -0.0090242333,
				"y": 0.1974138595,
				"z": -0.9233900677,
				"element": "C" 
			},
			{
				"x": -0.0150852697,
				"y": -0.9750195283,
				"z": -0.219855434,
				"element": "O" 
			},
			{
				"x": 1.2489922957,
				"y": 0.9266016856,
				"z": -1.0260963965,
				"element": "C" 
			},
			{
				"x": 1.1829542608,
				"y": 2.0802475233,
				"z": -1.7363579522,
				"element": "N" 
			},
			{
				"x": 2.6778887364,
				"y": 0.409065152,
				"z": -0.334007624,
				"element": "S" 
			},
			{
				"x": -0.8636690616,
				"y": -3.5596737252,
				"z": 0.0513753423,
				"element": "H" 
			},
			{
				"x": -2.541738086,
				"y": -3.0697806835,
				"z": 0.3656424692,
				"element": "H" 
			},
			{
				"x": -1.2574233904,
				"y": -2.6725050701,
				"z": 1.5264015682,
				"element": "H" 
			},
			{
				"x": -3.1444832882,
				"y": -0.7950618342,
				"z": -1.1632639174,
				"element": "H" 
			},
			{
				"x": -1.6021768251,
				"y": 1.2785954013,
				"z": -1.9989002196,
				"element": "H" 
			},
			{
				"x": 2.0278101177,
				"y": 2.6212921737,
				"z": -1.8359964738,
				"element": "H" 
			},
			{
				"x": 0.3333566048,
				"y": 2.4144788118,
				"z": -2.1633118874,
				"element": "H" 
			}
		],
		 "valence_orbital": [ 
			{
				"type": "occ",
				"energy": -0.35263,
				"method": "rhf"
			},
			{
				"type": "occ",
				"energy": -0.29138,
				"method": "rhf"
			},
			{
				"type": "occ",
				"energy": -0.24289,
				"method": "rhf"
			},
			{
				"type": "occ",
				"energy": -0.2147,
				"method": "rhf"
			},
			{
				"type": "occ",
				"energy": -0.20131,
				"method": "rhf"
			},
			{
				"type": "unocc",
				"energy": -0.05773,
				"method": "rhf"
			},
			{
				"type": "unocc",
				"energy": 0.03461,
				"method": "rhf"
			},
			{
				"type": "unocc",
				"energy": 0.06044,
				"method": "rhf"
			},
			{
				"type": "unocc",
				"energy": 0.08569,
				"method": "rhf"
			},
			{
				"type": "unocc",
				"energy": 0.08966,
				"method": "rhf"
			}
		],
		"cosmo_sigma_profile": { 
			"-0.025": 0.0,
			"-0.024": 0.0,
			"-0.023": 0.0,
			"-0.022": 0.0,
			"-0.021": 0.0,
			"-0.02": 0.0,
			"-0.019": 0.0,
			"-0.018": 0.0,
			"-0.017": 0.0,
			"-0.016": 0.64959386651,
			"-0.015": 1.72020882276,
			"-0.014": 2.77694181966,
			"-0.013": 3.25200444185,
			"-0.012": 2.22247913031,
			"-0.011": 2.22613408562,
			"-0.01": 2.63792332122,
			"-0.009": 2.53313591844,
			"-0.008": 2.77487239871,
			"-0.007": 4.18945485685,
			"-0.006": 8.90295388822,
			"-0.005": 10.4191074749,
			"-0.004": 10.5890321962,
			"-0.003": 10.0823261708,
			"-0.002": 12.3668358877,
			"-0.001": 11.3751358262,
			"0.0": 8.6517735384,
			"0.001": 12.1248070889,
			"0.002": 9.60079432124,
			"0.003": 9.86529212566,
			"0.004": 7.29328541483,
			"0.005": 3.67314129149,
			"0.006": 4.20830179141,
			"0.007": 4.58277621037,
			"0.008": 4.218729527,
			"0.009": 6.94301285614,
			"0.01": 6.8246327965,
			"0.011": 4.7942869223,
			"0.012": 3.85117252797,
			"0.013": 1.93084479079,
			"0.014": 1.59913413346,
			"0.015": 0.244836290667,
			"0.016": 0.0,
			"0.017": 0.0,
			"0.018": 0.0,
			"0.019": 0.0,
			"0.02": 0.0,
			"0.021": 0.0,
			"0.022": 0.0,
			"0.023": 0.0,
			"0.024": 0.0,
			"0.025": 0.0
		}
	}
}
