{
	 "smiles": "CC1=CN(N=C1N)C1=CC=CC=C1", 
	 "Tm": 393.15, 
	 "num_atms": 24, 
	 "gaussian": { 
		 "optdone": 1, 
		 "sigma_profile": "yes", 
		 "theory": "DFT", 
		 "functional": "B3LYP", 
		 "basiset": "6-31G**", 
		 "properties": { 
			 "R2extent": 3285.9569, 
			 "electric_dipole_moment_norm": 1.81799067379, 
			 "electric_quadrupole_moment_norm": 11.6237033341, 
			 "total_energy": -551.936285144, 
			 "HOMO_LUMO_gap": 0.17907, 
			 "cosmo_polarized_energy": -11.27, 
			 "cosmo_cavitation_energy": 27.79, 
			 "cosmo_dispersion_energy": -20.61, 
			 "cosmo_repulsion_energy": 1.63, 
			 "cosmo_total_nonelectrostatic_energy": 8.81, 
			 "SMD_solvation_energy": 4.27 
		},
		"coords": [
			{
				"x": 3.6222612379,
				"y": 0.0067073081,
				"z": 0.5937436119,
				"element": "C" 
			},
			{
				"x": 2.1937503278,
				"y": 0.2961564784,
				"z": 0.251055629,
				"element": "C" 
			},
			{
				"x": 1.5704264154,
				"y": 0.2535869769,
				"z": -0.9760006171,
				"element": "C" 
			},
			{
				"x": 0.2519836561,
				"y": 0.5670208452,
				"z": -0.7922120072,
				"element": "N" 
			},
			{
				"x": -0.0184812446,
				"y": 0.8226740409,
				"z": 0.5257759693,
				"element": "N" 
			},
			{
				"x": 1.1415656672,
				"y": 0.6547457312,
				"z": 1.1479854064,
				"element": "C" 
			},
			{
				"x": 1.2405281835,
				"y": 0.7608299863,
				"z": 2.5344502118,
				"element": "N" 
			},
			{
				"x": -0.7808630707,
				"y": 0.6288738314,
				"z": -1.7526638666,
				"element": "C" 
			},
			{
				"x": -2.1169701827,
				"y": 0.6397554714,
				"z": -1.3288451776,
				"element": "C" 
			},
			{
				"x": -3.1397894128,
				"y": 0.6930452576,
				"z": -2.2725444959,
				"element": "C" 
			},
			{
				"x": -2.8518965772,
				"y": 0.729702302,
				"z": -3.6389047137,
				"element": "C" 
			},
			{
				"x": -1.5195044293,
				"y": 0.7235011163,
				"z": -4.0543157899,
				"element": "C" 
			},
			{
				"x": -0.4841495135,
				"y": 0.6816699234,
				"z": -3.1218364519,
				"element": "C" 
			},
			{
				"x": 4.147020693,
				"y": 0.8965401878,
				"z": 0.966777766,
				"element": "H" 
			},
			{
				"x": 4.1742196142,
				"y": -0.3503071377,
				"z": -0.2802015565,
				"element": "H" 
			},
			{
				"x": 3.696935576,
				"y": -0.7608682782,
				"z": 1.373153086,
				"element": "H" 
			},
			{
				"x": 1.9669010747,
				"y": -0.0055497341,
				"z": -1.9458161877,
				"element": "H" 
			},
			{
				"x": 2.0807083805,
				"y": 1.2310962917,
				"z": 2.8478497026,
				"element": "H" 
			},
			{
				"x": 0.414469654,
				"y": 1.1841983078,
				"z": 2.9403739591,
				"element": "H" 
			},
			{
				"x": -2.3265833523,
				"y": 0.6072991177,
				"z": -0.2672184937,
				"element": "H" 
			},
			{
				"x": -4.1720359865,
				"y": 0.7003403292,
				"z": -1.9339852557,
				"element": "H" 
			},
			{
				"x": -3.6540980419,
				"y": 0.7675844924,
				"z": -4.3694434116,
				"element": "H" 
			},
			{
				"x": -1.2775037593,
				"y": 0.7632658568,
				"z": -5.112545812,
				"element": "H" 
			},
			{
				"x": 0.5453050904,
				"y": 0.7087312976,
				"z": -3.4621315049,
				"element": "H" 
			}
		],
		 "valence_orbital": [ 
			{
				"type": "occ",
				"energy": -0.28074,
				"method": "rhf"
			},
			{
				"type": "occ",
				"energy": -0.25736,
				"method": "rhf"
			},
			{
				"type": "occ",
				"energy": -0.24918,
				"method": "rhf"
			},
			{
				"type": "occ",
				"energy": -0.23069,
				"method": "rhf"
			},
			{
				"type": "occ",
				"energy": -0.19148,
				"method": "rhf"
			},
			{
				"type": "unocc",
				"energy": -0.01241,
				"method": "rhf"
			},
			{
				"type": "unocc",
				"energy": 0.00132,
				"method": "rhf"
			},
			{
				"type": "unocc",
				"energy": 0.05189,
				"method": "rhf"
			},
			{
				"type": "unocc",
				"energy": 0.07324,
				"method": "rhf"
			},
			{
				"type": "unocc",
				"energy": 0.08852,
				"method": "rhf"
			}
		],
		"cosmo_sigma_profile": { 
			"-0.025": 0.0,
			"-0.024": 0.0,
			"-0.023": 0.0,
			"-0.022": 0.0,
			"-0.021": 0.0,
			"-0.02": 0.0,
			"-0.019": 0.0,
			"-0.018": 0.0,
			"-0.017": 0.0,
			"-0.016": 0.0,
			"-0.015": 0.0,
			"-0.014": 0.0,
			"-0.013": 0.124163532583,
			"-0.012": 1.79636950046,
			"-0.011": 2.43237486395,
			"-0.01": 2.61464719508,
			"-0.009": 4.64246383955,
			"-0.008": 4.12196049286,
			"-0.007": 4.73481138861,
			"-0.006": 8.20090370845,
			"-0.005": 12.6987419233,
			"-0.004": 18.4628059288,
			"-0.003": 15.5212022564,
			"-0.002": 15.5390880529,
			"-0.001": 15.8450033318,
			"0.0": 14.3519668944,
			"0.001": 12.6400371487,
			"0.002": 12.7867783667,
			"0.003": 15.2131094691,
			"0.004": 16.2087956695,
			"0.005": 16.8908623266,
			"0.006": 8.94837216878,
			"0.007": 3.07334330481,
			"0.008": 3.05050606593,
			"0.009": 2.30627408703,
			"0.01": 2.47637856536,
			"0.011": 2.45390220548,
			"0.012": 1.07608743839,
			"0.013": 1.56624110365,
			"0.014": 1.15391050183,
			"0.015": 0.38578356297,
			"0.016": 0.0509470290844,
			"0.017": 0.0,
			"0.018": 0.0,
			"0.019": 0.0,
			"0.02": 0.0,
			"0.021": 0.0,
			"0.022": 0.0,
			"0.023": 0.0,
			"0.024": 0.0,
			"0.025": 0.0
		}
	}
}
