{
	 "smiles": "CC1=C(N)C=CC(OC2=NC=CC=N2)=C1", 
	 "Tm": 406.15, 
	 "num_atms": 26, 
	 "gaussian": { 
		 "optdone": 1, 
		 "sigma_profile": "yes", 
		 "theory": "DFT", 
		 "functional": "B3LYP", 
		 "basiset": "6-31G**", 
		 "properties": { 
			 "R2extent": 3998.7501, 
			 "electric_dipole_moment_norm": 2.03866447215, 
			 "electric_quadrupole_moment_norm": 24.1372041422, 
			 "total_energy": -665.274753128, 
			 "HOMO_LUMO_gap": 0.15952, 
			 "cosmo_polarized_energy": -15.82, 
			 "cosmo_cavitation_energy": 30.62, 
			 "cosmo_dispersion_energy": -22.31, 
			 "cosmo_repulsion_energy": 1.76, 
			 "cosmo_total_nonelectrostatic_energy": 10.07, 
			 "SMD_solvation_energy": 2.91 
		},
		"coords": [
			{
				"x": 4.0162962784,
				"y": -0.4809328495,
				"z": 1.3765882328,
				"element": "C" 
			},
			{
				"x": 2.86789564,
				"y": -0.5071390819,
				"z": 0.3989381811,
				"element": "C" 
			},
			{
				"x": 3.0654117599,
				"y": -0.101106086,
				"z": -0.9413783659,
				"element": "C" 
			},
			{
				"x": 4.3176178268,
				"y": 0.3727722388,
				"z": -1.3554842411,
				"element": "N" 
			},
			{
				"x": 1.9830437331,
				"y": -0.1223618263,
				"z": -1.8340531621,
				"element": "C" 
			},
			{
				"x": 0.7179106407,
				"y": -0.5321852833,
				"z": -1.4204759156,
				"element": "C" 
			},
			{
				"x": 0.5327755338,
				"y": -0.9301035028,
				"z": -0.1023492015,
				"element": "C" 
			},
			{
				"x": -0.706551308,
				"y": -1.4437459704,
				"z": 0.2999354815,
				"element": "O" 
			},
			{
				"x": -1.6333588233,
				"y": -0.616360887,
				"z": 0.8327232294,
				"element": "C" 
			},
			{
				"x": -2.7682941837,
				"y": -1.2409847256,
				"z": 1.1712924659,
				"element": "N" 
			},
			{
				"x": -3.7121884144,
				"y": -0.4620412269,
				"z": 1.7009428721,
				"element": "C" 
			},
			{
				"x": -3.5446173544,
				"y": 0.9102547828,
				"z": 1.8956373951,
				"element": "C" 
			},
			{
				"x": -2.3168579833,
				"y": 1.4328341532,
				"z": 1.5005135858,
				"element": "C" 
			},
			{
				"x": -1.3484670906,
				"y": 0.6805923958,
				"z": 0.9660623942,
				"element": "N" 
			},
			{
				"x": 1.5953021263,
				"y": -0.9221156127,
				"z": 0.7957992731,
				"element": "C" 
			},
			{
				"x": 4.4664228709,
				"y": 0.517675074,
				"z": 1.4364667917,
				"element": "H" 
			},
			{
				"x": 3.6867429978,
				"y": -0.7635019003,
				"z": 2.3792898512,
				"element": "H" 
			},
			{
				"x": 4.8176054286,
				"y": -1.1778562125,
				"z": 1.0909429695,
				"element": "H" 
			},
			{
				"x": 4.4483676209,
				"y": 0.3788993146,
				"z": -2.3582020928,
				"element": "H" 
			},
			{
				"x": 5.1106692319,
				"y": -0.0435802628,
				"z": -0.8865771564,
				"element": "H" 
			},
			{
				"x": 2.1369577072,
				"y": 0.1877867051,
				"z": -2.8648340501,
				"element": "H" 
			},
			{
				"x": -0.1158813876,
				"y": -0.5544195059,
				"z": -2.1142602251,
				"element": "H" 
			},
			{
				"x": -4.6403429107,
				"y": -0.958738135,
				"z": 1.9803624857,
				"element": "H" 
			},
			{
				"x": -4.3220757729,
				"y": 1.5293035469,
				"z": 2.3274678224,
				"element": "H" 
			},
			{
				"x": -2.0916815805,
				"y": 2.4923829447,
				"z": 1.6123246049,
				"element": "H" 
			},
			{
				"x": 1.4250974131,
				"y": -1.2460280868,
				"z": 1.8182267743,
				"element": "H" 
			}
		],
		 "valence_orbital": [ 
			{
				"type": "occ",
				"energy": -0.29858,
				"method": "rhf"
			},
			{
				"type": "occ",
				"energy": -0.25035,
				"method": "rhf"
			},
			{
				"type": "occ",
				"energy": -0.24817,
				"method": "rhf"
			},
			{
				"type": "occ",
				"energy": -0.23906,
				"method": "rhf"
			},
			{
				"type": "occ",
				"energy": -0.19571,
				"method": "rhf"
			},
			{
				"type": "unocc",
				"energy": -0.03619,
				"method": "rhf"
			},
			{
				"type": "unocc",
				"energy": -0.00651,
				"method": "rhf"
			},
			{
				"type": "unocc",
				"energy": 0.00751,
				"method": "rhf"
			},
			{
				"type": "unocc",
				"energy": 0.02203,
				"method": "rhf"
			},
			{
				"type": "unocc",
				"energy": 0.07633,
				"method": "rhf"
			}
		],
		"cosmo_sigma_profile": { 
			"-0.025": 0.0,
			"-0.024": 0.0,
			"-0.023": 0.0,
			"-0.022": 0.0,
			"-0.021": 0.0,
			"-0.02": 0.0,
			"-0.019": 0.0,
			"-0.018": 0.0,
			"-0.017": 0.0,
			"-0.016": 0.0,
			"-0.015": 0.0,
			"-0.014": 0.0,
			"-0.013": 0.10162148935,
			"-0.012": 1.52706175578,
			"-0.011": 2.4227924748,
			"-0.01": 2.8634953803,
			"-0.009": 3.67470587715,
			"-0.008": 6.62328976316,
			"-0.007": 10.5257688351,
			"-0.006": 13.7151473236,
			"-0.005": 15.4779919922,
			"-0.004": 15.5714983044,
			"-0.003": 15.3697215793,
			"-0.002": 17.5770798619,
			"-0.001": 18.4304726516,
			"0.0": 20.8057074721,
			"0.001": 16.2359464008,
			"0.002": 9.6091415263,
			"0.003": 10.1579157059,
			"0.004": 10.6584429332,
			"0.005": 11.056687644,
			"0.006": 10.2555137089,
			"0.007": 5.12009417802,
			"0.008": 3.98228273436,
			"0.009": 3.68803991709,
			"0.01": 4.43167134265,
			"0.011": 4.58743650202,
			"0.012": 2.7340075757,
			"0.013": 3.19171162121,
			"0.014": 2.54562745166,
			"0.015": 1.42159784246,
			"0.016": 0.151538861957,
			"0.017": 0.0,
			"0.018": 0.0,
			"0.019": 0.0,
			"0.02": 0.0,
			"0.021": 0.0,
			"0.022": 0.0,
			"0.023": 0.0,
			"0.024": 0.0,
			"0.025": 0.0
		}
	}
}
