{
	 "smiles": "CCOC(C)C1=NC=C(S1)C(O)=O", 
	 "Tm": 386.15, 
	 "num_atms": 24, 
	 "gaussian": { 
		 "optdone": 1, 
		 "sigma_profile": "yes", 
		 "theory": "DFT", 
		 "functional": "B3LYP", 
		 "basiset": "6-31G**", 
		 "properties": { 
			 "R2extent": 3615.3444, 
			 "electric_dipole_moment_norm": 5.20687363204, 
			 "electric_quadrupole_moment_norm": 18.0085663544, 
			 "total_energy": -990.083514645, 
			 "HOMO_LUMO_gap": 0.19242, 
			 "cosmo_polarized_energy": -14.89, 
			 "cosmo_cavitation_energy": 29.78, 
			 "cosmo_dispersion_energy": -21.49, 
			 "cosmo_repulsion_energy": 1.69, 
			 "cosmo_total_nonelectrostatic_energy": 9.98, 
			 "SMD_solvation_energy": 4.71 
		},
		"coords": [
			{
				"x": -3.289956998,
				"y": -2.3788050941,
				"z": 0.6792551916,
				"element": "C" 
			},
			{
				"x": -1.7959212615,
				"y": -2.1813758409,
				"z": 0.4453391573,
				"element": "C" 
			},
			{
				"x": -1.2835075064,
				"y": -1.0373337545,
				"z": 1.140573445,
				"element": "O" 
			},
			{
				"x": -1.4631204859,
				"y": 0.2036787172,
				"z": 0.4766326563,
				"element": "C" 
			},
			{
				"x": -1.534509633,
				"y": 1.3020515799,
				"z": 1.5399439233,
				"element": "C" 
			},
			{
				"x": -0.3253834521,
				"y": 0.4518753647,
				"z": -0.4922031481,
				"element": "C" 
			},
			{
				"x": -0.3547085068,
				"y": 1.3002886184,
				"z": -1.4809790464,
				"element": "N" 
			},
			{
				"x": 0.848821306,
				"y": 1.3473559467,
				"z": -2.1293638927,
				"element": "C" 
			},
			{
				"x": 1.8348044341,
				"y": 0.5231309635,
				"z": -1.6442846569,
				"element": "C" 
			},
			{
				"x": 1.2118154178,
				"y": -0.3748225622,
				"z": -0.2786347355,
				"element": "S" 
			},
			{
				"x": 3.1935004865,
				"y": 0.4242666155,
				"z": -2.2273469398,
				"element": "C" 
			},
			{
				"x": 4.0695454594,
				"y": -0.436525779,
				"z": -1.6466445672,
				"element": "O" 
			},
			{
				"x": 3.5310999801,
				"y": 1.0783547018,
				"z": -3.1862746637,
				"element": "O" 
			},
			{
				"x": -3.8773495392,
				"y": -1.5439549937,
				"z": 0.2832939928,
				"element": "H" 
			},
			{
				"x": -3.4997700313,
				"y": -2.4684557328,
				"z": 1.7489113728,
				"element": "H" 
			},
			{
				"x": -3.6331796876,
				"y": -3.2915230881,
				"z": 0.1805964058,
				"element": "H" 
			},
			{
				"x": -1.5715492502,
				"y": -2.1081503634,
				"z": -0.6284402044,
				"element": "H" 
			},
			{
				"x": -1.2339899145,
				"y": -3.0339690962,
				"z": 0.8386006727,
				"element": "H" 
			},
			{
				"x": -2.3904607603,
				"y": 0.2131392258,
				"z": -0.1130797897,
				"element": "H" 
			},
			{
				"x": -0.6318976597,
				"y": 1.2866336295,
				"z": 2.1573507353,
				"element": "H" 
			},
			{
				"x": -1.6238170291,
				"y": 2.2829586855,
				"z": 1.0665503185,
				"element": "H" 
			},
			{
				"x": -2.4005426297,
				"y": 1.1313106731,
				"z": 2.1848159223,
				"element": "H" 
			},
			{
				"x": 0.9882920518,
				"y": 2.0021652745,
				"z": -2.9808342194,
				"element": "H" 
			},
			{
				"x": 3.6773852098,
				"y": -0.8904936911,
				"z": -0.8870779299,
				"element": "H" 
			}
		],
		 "valence_orbital": [ 
			{
				"type": "occ",
				"energy": -0.30282,
				"method": "rhf"
			},
			{
				"type": "occ",
				"energy": -0.29599,
				"method": "rhf"
			},
			{
				"type": "occ",
				"energy": -0.28008,
				"method": "rhf"
			},
			{
				"type": "occ",
				"energy": -0.27845,
				"method": "rhf"
			},
			{
				"type": "occ",
				"energy": -0.26061,
				"method": "rhf"
			},
			{
				"type": "unocc",
				"energy": -0.06819,
				"method": "rhf"
			},
			{
				"type": "unocc",
				"energy": -0.01089,
				"method": "rhf"
			},
			{
				"type": "unocc",
				"energy": 0.0045,
				"method": "rhf"
			},
			{
				"type": "unocc",
				"energy": 0.05522,
				"method": "rhf"
			},
			{
				"type": "unocc",
				"energy": 0.07772,
				"method": "rhf"
			}
		],
		"cosmo_sigma_profile": { 
			"-0.025": 0.0,
			"-0.024": 0.0,
			"-0.023": 0.0,
			"-0.022": 0.0,
			"-0.021": 0.0,
			"-0.02": 0.0,
			"-0.019": 0.00272298947942,
			"-0.018": 0.748398728067,
			"-0.017": 0.96118478437,
			"-0.016": 0.835362291893,
			"-0.015": 1.07423947834,
			"-0.014": 1.09909314385,
			"-0.013": 1.05503894541,
			"-0.012": 1.03590511318,
			"-0.011": 1.14528907597,
			"-0.01": 0.667873013493,
			"-0.009": 1.01633264697,
			"-0.008": 2.79595595608,
			"-0.007": 3.2562177249,
			"-0.006": 6.85060963766,
			"-0.005": 10.065717821,
			"-0.004": 19.4388131012,
			"-0.003": 24.9731813523,
			"-0.002": 24.2963706717,
			"-0.001": 24.4543919845,
			"0.0": 26.9734928661,
			"0.001": 18.5637539445,
			"0.002": 9.45658026975,
			"0.003": 5.43327121042,
			"0.004": 4.59050265588,
			"0.005": 5.04284913373,
			"0.006": 5.64311819795,
			"0.007": 4.20297315899,
			"0.008": 4.30771073425,
			"0.009": 5.85780348998,
			"0.01": 6.85384438784,
			"0.011": 6.89142115822,
			"0.012": 5.49339590477,
			"0.013": 1.70143376082,
			"0.014": 0.518129261636,
			"0.015": 0.0579574508679,
			"0.016": 0.0,
			"0.017": 0.0,
			"0.018": 0.0,
			"0.019": 0.0,
			"0.02": 0.0,
			"0.021": 0.0,
			"0.022": 0.0,
			"0.023": 0.0,
			"0.024": 0.0,
			"0.025": 0.0
		}
	}
}
