{
	 "smiles": "CC1=NN(C(C)=C1C(Cl)=O)C1=CC=CC=C1", 
	 "Tm": 331.65, 
	 "num_atms": 27, 
	 "gaussian": { 
		 "optdone": 1, 
		 "sigma_profile": "yes", 
		 "theory": "DFT", 
		 "functional": "B3LYP", 
		 "basiset": "6-31G**", 
		 "properties": { 
			 "R2extent": 5053.1087, 
			 "electric_dipole_moment_norm": 5.03630050235, 
			 "electric_quadrupole_moment_norm": 13.2566639721, 
			 "total_energy": -1108.83225046, 
			 "HOMO_LUMO_gap": 0.19266, 
			 "cosmo_polarized_energy": -9.58, 
			 "cosmo_cavitation_energy": 32.61, 
			 "cosmo_dispersion_energy": -23.63, 
			 "cosmo_repulsion_energy": 1.83, 
			 "cosmo_total_nonelectrostatic_energy": 10.81, 
			 "SMD_solvation_energy": 5.35 
		},
		"coords": [
			{
				"x": -2.4016251712,
				"y": 0.0802502107,
				"z": 1.9680431628,
				"element": "C" 
			},
			{
				"x": -1.0488841269,
				"y": -0.0623647382,
				"z": 1.341221588,
				"element": "C" 
			},
			{
				"x": -0.9493579369,
				"y": -0.7589701349,
				"z": 0.2216585452,
				"element": "N" 
			},
			{
				"x": 0.3802482291,
				"y": -0.7416862363,
				"z": -0.1216360257,
				"element": "N" 
			},
			{
				"x": 1.1347035504,
				"y": -0.0307750313,
				"z": 0.7516718258,
				"element": "C" 
			},
			{
				"x": 2.5978694603,
				"y": 0.2258233939,
				"z": 0.591139446,
				"element": "C" 
			},
			{
				"x": 0.2417044554,
				"y": 0.4263610286,
				"z": 1.7388762528,
				"element": "C" 
			},
			{
				"x": 0.6971247231,
				"y": 1.2253214486,
				"z": 2.8587540882,
				"element": "C" 
			},
			{
				"x": -0.6282679061,
				"y": 1.7911285456,
				"z": 4.0026123716,
				"element": "Cl" 
			},
			{
				"x": 1.8250880922,
				"y": 1.5500765079,
				"z": 3.1080398686,
				"element": "O" 
			},
			{
				"x": 0.7721105104,
				"y": -1.4174984438,
				"z": -1.3160985336,
				"element": "C" 
			},
			{
				"x": -0.0210390578,
				"y": -1.2731456341,
				"z": -2.4589419423,
				"element": "C" 
			},
			{
				"x": 0.3373708228,
				"y": -1.9380755871,
				"z": -3.6293754469,
				"element": "C" 
			},
			{
				"x": 1.4816040664,
				"y": -2.7392782482,
				"z": -3.6656494925,
				"element": "C" 
			},
			{
				"x": 2.2611204377,
				"y": -2.8867582123,
				"z": -2.5178880333,
				"element": "C" 
			},
			{
				"x": 1.9051474327,
				"y": -2.2359344299,
				"z": -1.3357964757,
				"element": "C" 
			},
			{
				"x": -2.7030456311,
				"y": 1.1288228731,
				"z": 2.0380979892,
				"element": "H" 
			},
			{
				"x": -3.1254493334,
				"y": -0.4603693399,
				"z": 1.3547732536,
				"element": "H" 
			},
			{
				"x": -2.4187189004,
				"y": -0.3255463477,
				"z": 2.9830670691,
				"element": "H" 
			},
			{
				"x": 3.1925389864,
				"y": -0.4677465773,
				"z": 1.1969200898,
				"element": "H" 
			},
			{
				"x": 2.9050281989,
				"y": 0.120345532,
				"z": -0.4510962577,
				"element": "H" 
			},
			{
				"x": 2.8346080125,
				"y": 1.228739788,
				"z": 0.947488463,
				"element": "H" 
			},
			{
				"x": -0.9081144832,
				"y": -0.6526291215,
				"z": -2.4106464439,
				"element": "H" 
			},
			{
				"x": -0.2777071553,
				"y": -1.8259890881,
				"z": -4.5170919859,
				"element": "H" 
			},
			{
				"x": 1.7589262159,
				"y": -3.2520954151,
				"z": -4.5815569133,
				"element": "H" 
			},
			{
				"x": 3.1413792097,
				"y": -3.5221728637,
				"z": -2.5328525179,
				"element": "H" 
			},
			{
				"x": 2.4875372984,
				"y": -2.3822338789,
				"z": -0.433033945,
				"element": "H" 
			}
		],
		 "valence_orbital": [ 
			{
				"type": "occ",
				"energy": -0.29301,
				"method": "rhf"
			},
			{
				"type": "occ",
				"energy": -0.28047,
				"method": "rhf"
			},
			{
				"type": "occ",
				"energy": -0.27053,
				"method": "rhf"
			},
			{
				"type": "occ",
				"energy": -0.26078,
				"method": "rhf"
			},
			{
				"type": "occ",
				"energy": -0.24741,
				"method": "rhf"
			},
			{
				"type": "unocc",
				"energy": -0.05475,
				"method": "rhf"
			},
			{
				"type": "unocc",
				"energy": -0.02425,
				"method": "rhf"
			},
			{
				"type": "unocc",
				"energy": -0.02176,
				"method": "rhf"
			},
			{
				"type": "unocc",
				"energy": 0.0171,
				"method": "rhf"
			},
			{
				"type": "unocc",
				"energy": 0.02773,
				"method": "rhf"
			}
		],
		"cosmo_sigma_profile": { 
			"-0.025": 0.0,
			"-0.024": 0.0,
			"-0.023": 0.0,
			"-0.022": 0.0,
			"-0.021": 0.0,
			"-0.02": 0.0,
			"-0.019": 0.0,
			"-0.018": 0.0,
			"-0.017": 0.0,
			"-0.016": 0.0,
			"-0.015": 0.0,
			"-0.014": 0.0,
			"-0.013": 0.0,
			"-0.012": 0.0,
			"-0.011": 0.0,
			"-0.01": 0.0,
			"-0.009": 0.0,
			"-0.008": 0.753779776927,
			"-0.007": 5.53852193055,
			"-0.006": 13.1327034126,
			"-0.005": 17.2103842974,
			"-0.004": 21.7916712306,
			"-0.003": 23.5776469636,
			"-0.002": 27.3381585118,
			"-0.001": 24.0962461491,
			"0.0": 21.9920167656,
			"0.001": 17.5569937661,
			"0.002": 16.8860294524,
			"0.003": 17.0742011148,
			"0.004": 18.6710396822,
			"0.005": 12.0601640217,
			"0.006": 6.99860996787,
			"0.007": 3.54882796683,
			"0.008": 3.63083470748,
			"0.009": 5.10707822511,
			"0.01": 3.51721732593,
			"0.011": 0.806696461306,
			"0.012": 0.508027017281,
			"0.013": 1.03461984803,
			"0.014": 0.285240595873,
			"0.015": 0.0,
			"0.016": 0.0,
			"0.017": 0.0,
			"0.018": 0.0,
			"0.019": 0.0,
			"0.02": 0.0,
			"0.021": 0.0,
			"0.022": 0.0,
			"0.023": 0.0,
			"0.024": 0.0,
			"0.025": 0.0
		}
	}
}
