{
	 "smiles": "BrC1=NN2C(S1)=NC=CC2=O", 
	 "Tm": 473.15, 
	 "num_atms": 13, 
	 "gaussian": { 
		 "optdone": 1, 
		 "sigma_profile": "yes", 
		 "theory": "DFT", 
		 "functional": "B3LYP", 
		 "basiset": "6-31G**", 
		 "properties": { 
			 "R2extent": 7202.7116, 
			 "electric_dipole_moment_norm": 3.02392187895, 
			 "electric_quadrupole_moment_norm": 15.545044263, 
			 "total_energy": -3400.75861232, 
			 "HOMO_LUMO_gap": 0.17211, 
			 "cosmo_polarized_energy": -11.68, 
			 "cosmo_cavitation_energy": 22.53, 
			 "cosmo_dispersion_energy": -18.02, 
			 "cosmo_repulsion_energy": 1.39, 
			 "cosmo_total_nonelectrostatic_energy": 5.9, 
			 "SMD_solvation_energy": 0.95 
		},
		"coords": [
			{
				"x": 5.3552626657,
				"y": -1.6078070348,
				"z": 2.0367858295,
				"element": "Br" 
			},
			{
				"x": 3.8686369652,
				"y": -0.5361649553,
				"z": 1.6355819189,
				"element": "C" 
			},
			{
				"x": 3.0777536613,
				"y": -0.7965100142,
				"z": 0.6596671557,
				"element": "N" 
			},
			{
				"x": 2.0870864083,
				"y": 0.1471379131,
				"z": 0.6035582876,
				"element": "N" 
			},
			{
				"x": 2.1130591976,
				"y": 1.151835466,
				"z": 1.5505357005,
				"element": "C" 
			},
			{
				"x": 3.506632681,
				"y": 0.8895119637,
				"z": 2.6082668848,
				"element": "S" 
			},
			{
				"x": 1.2641755311,
				"y": 2.1235164638,
				"z": 1.6520324009,
				"element": "N" 
			},
			{
				"x": 0.2652949837,
				"y": 2.1115873707,
				"z": 0.7098792021,
				"element": "C" 
			},
			{
				"x": 0.1305143075,
				"y": 1.1755932028,
				"z": -0.2755087337,
				"element": "C" 
			},
			{
				"x": 1.0574047035,
				"y": 0.0729742273,
				"z": -0.4234947792,
				"element": "C" 
			},
			{
				"x": 1.0602806449,
				"y": -0.8199306768,
				"z": -1.2427197731,
				"element": "O" 
			},
			{
				"x": -0.4487845106,
				"y": 2.9265346429,
				"z": 0.7925571704,
				"element": "H" 
			},
			{
				"x": -0.6816172392,
				"y": 1.2216214307,
				"z": -0.9906412644,
				"element": "H" 
			}
		],
		 "valence_orbital": [ 
			{
				"type": "occ",
				"energy": -0.32499,
				"method": "rhf"
			},
			{
				"type": "occ",
				"energy": -0.30033,
				"method": "rhf"
			},
			{
				"type": "occ",
				"energy": -0.29688,
				"method": "rhf"
			},
			{
				"type": "occ",
				"energy": -0.27584,
				"method": "rhf"
			},
			{
				"type": "occ",
				"energy": -0.24531,
				"method": "rhf"
			},
			{
				"type": "unocc",
				"energy": -0.0732,
				"method": "rhf"
			},
			{
				"type": "unocc",
				"energy": -0.04788,
				"method": "rhf"
			},
			{
				"type": "unocc",
				"energy": -0.03483,
				"method": "rhf"
			},
			{
				"type": "unocc",
				"energy": -0.02423,
				"method": "rhf"
			},
			{
				"type": "unocc",
				"energy": -0.01458,
				"method": "rhf"
			}
		],
		"cosmo_sigma_profile": { 
			"-0.025": 0.0,
			"-0.024": 0.0,
			"-0.023": 0.0,
			"-0.022": 0.0,
			"-0.021": 0.0,
			"-0.02": 0.0,
			"-0.019": 0.0,
			"-0.018": 0.0,
			"-0.017": 0.0,
			"-0.016": 0.0,
			"-0.015": 0.0,
			"-0.014": 0.0,
			"-0.013": 0.0,
			"-0.012": 0.0,
			"-0.011": 0.0,
			"-0.01": 0.0,
			"-0.009": 1.05796276131,
			"-0.008": 6.55033389679,
			"-0.007": 8.14362201942,
			"-0.006": 10.4972796221,
			"-0.005": 14.0924870411,
			"-0.004": 13.6328132721,
			"-0.003": 15.6234003338,
			"-0.002": 16.2821795184,
			"-0.001": 15.3034892633,
			"0.0": 19.294235408,
			"0.001": 18.0937527516,
			"0.002": 8.5969413949,
			"0.003": 3.74388580641,
			"0.004": 2.88577423145,
			"0.005": 3.24971822531,
			"0.006": 3.2753420697,
			"0.007": 2.67630275545,
			"0.008": 3.09312923101,
			"0.009": 2.88515889588,
			"0.01": 3.36785721443,
			"0.011": 4.11702444268,
			"0.012": 7.28058154328,
			"0.013": 3.93782747003,
			"0.014": 1.26570976613,
			"0.015": 0.0631070083423,
			"0.016": 0.0,
			"0.017": 0.0,
			"0.018": 0.0,
			"0.019": 0.0,
			"0.02": 0.0,
			"0.021": 0.0,
			"0.022": 0.0,
			"0.023": 0.0,
			"0.024": 0.0,
			"0.025": 0.0
		}
	}
}
