{
	 "smiles": "CC1=CC(=NC=C1)S(N)(=O)=O", 
	 "Tm": 437.15, 
	 "num_atms": 19, 
	 "gaussian": { 
		 "optdone": 1, 
		 "sigma_profile": "yes", 
		 "theory": "DFT", 
		 "functional": "B3LYP", 
		 "basiset": "6-31G**", 
		 "properties": { 
			 "R2extent": 2147.9794, 
			 "electric_dipole_moment_norm": 6.75630127363, 
			 "electric_quadrupole_moment_norm": 12.1888557096, 
			 "total_energy": -891.529398773, 
			 "HOMO_LUMO_gap": 0.22594, 
			 "cosmo_polarized_energy": -18.28, 
			 "cosmo_cavitation_energy": 24.64, 
			 "cosmo_dispersion_energy": -18.72, 
			 "cosmo_repulsion_energy": 1.47, 
			 "cosmo_total_nonelectrostatic_energy": 7.38, 
			 "SMD_solvation_energy": 2.93 
		},
		"coords": [
			{
				"x": 2.0096105927,
				"y": -1.0853010503,
				"z": -2.404555235,
				"element": "C" 
			},
			{
				"x": 0.7674752503,
				"y": -0.5945055361,
				"z": -1.7063726553,
				"element": "C" 
			},
			{
				"x": 0.8332355454,
				"y": -0.0214038924,
				"z": -0.4286989934,
				"element": "C" 
			},
			{
				"x": -0.3542005603,
				"y": 0.3853046255,
				"z": 0.1686101057,
				"element": "C" 
			},
			{
				"x": -1.5648503042,
				"y": 0.2938340946,
				"z": -0.3778168437,
				"element": "N" 
			},
			{
				"x": -1.6240988736,
				"y": -0.2471044037,
				"z": -1.6003174153,
				"element": "C" 
			},
			{
				"x": -0.4999116898,
				"y": -0.7020246631,
				"z": -2.2908983171,
				"element": "C" 
			},
			{
				"x": -0.3218758247,
				"y": 1.0589672112,
				"z": 1.8556182146,
				"element": "S" 
			},
			{
				"x": -1.4450795124,
				"y": 2.3029701792,
				"z": 1.842040195,
				"element": "N" 
			},
			{
				"x": 0.9938125738,
				"y": 1.6702710596,
				"z": 2.0532662082,
				"element": "O" 
			},
			{
				"x": -0.8374842401,
				"y": 0.0256322685,
				"z": 2.7492279785,
				"element": "O" 
			},
			{
				"x": 2.8503098163,
				"y": -0.4041101584,
				"z": -2.2436917698,
				"element": "H" 
			},
			{
				"x": 2.3070366716,
				"y": -2.0657065204,
				"z": -2.0138770685,
				"element": "H" 
			},
			{
				"x": 1.8498181718,
				"y": -1.1910638798,
				"z": -3.4806255943,
				"element": "H" 
			},
			{
				"x": 1.7760337343,
				"y": 0.1179766584,
				"z": 0.0892755456,
				"element": "H" 
			},
			{
				"x": -2.612732958,
				"y": -0.315365945,
				"z": -2.0488462825,
				"element": "H" 
			},
			{
				"x": -0.6145171301,
				"y": -1.1306351999,
				"z": -3.282101832,
				"element": "H" 
			},
			{
				"x": -2.3431164356,
				"y": 1.9662241574,
				"z": 1.5017860024,
				"element": "H" 
			},
			{
				"x": -1.1087648272,
				"y": 3.0923409946,
				"z": 1.2972777571,
				"element": "H" 
			}
		],
		 "valence_orbital": [ 
			{
				"type": "occ",
				"energy": -0.3107,
				"method": "rhf"
			},
			{
				"type": "occ",
				"energy": -0.29811,
				"method": "rhf"
			},
			{
				"type": "occ",
				"energy": -0.29647,
				"method": "rhf"
			},
			{
				"type": "occ",
				"energy": -0.2805,
				"method": "rhf"
			},
			{
				"type": "occ",
				"energy": -0.2781,
				"method": "rhf"
			},
			{
				"type": "unocc",
				"energy": -0.05216,
				"method": "rhf"
			},
			{
				"type": "unocc",
				"energy": -0.04108,
				"method": "rhf"
			},
			{
				"type": "unocc",
				"energy": 0.05981,
				"method": "rhf"
			},
			{
				"type": "unocc",
				"energy": 0.08169,
				"method": "rhf"
			},
			{
				"type": "unocc",
				"energy": 0.08707,
				"method": "rhf"
			}
		],
		"cosmo_sigma_profile": { 
			"-0.025": 0.0,
			"-0.024": 0.0,
			"-0.023": 0.0,
			"-0.022": 0.0,
			"-0.021": 0.0,
			"-0.02": 0.0,
			"-0.019": 0.0,
			"-0.018": 0.0,
			"-0.017": 0.0,
			"-0.016": 0.287007939724,
			"-0.015": 1.57409826722,
			"-0.014": 1.34835430919,
			"-0.013": 2.40313376097,
			"-0.012": 2.54019257656,
			"-0.011": 2.30551224056,
			"-0.01": 1.00076446544,
			"-0.009": 1.61158455659,
			"-0.008": 3.74424134499,
			"-0.007": 9.02234914507,
			"-0.006": 10.6200135442,
			"-0.005": 13.2053559766,
			"-0.004": 11.8099341837,
			"-0.003": 14.2103000314,
			"-0.002": 12.7801219538,
			"-0.001": 15.9885643803,
			"0.0": 15.058010475,
			"0.001": 12.2163229728,
			"0.002": 4.48499713263,
			"0.003": 4.46837549408,
			"0.004": 4.26329494732,
			"0.005": 4.98452114635,
			"0.006": 4.4878382244,
			"0.007": 5.3566471819,
			"0.008": 5.07612146618,
			"0.009": 4.95853258961,
			"0.01": 10.236390018,
			"0.011": 12.3386902963,
			"0.012": 3.58487912136,
			"0.013": 0.247695600686,
			"0.014": 0.0,
			"0.015": 0.0,
			"0.016": 0.0,
			"0.017": 0.0,
			"0.018": 0.0,
			"0.019": 0.0,
			"0.02": 0.0,
			"0.021": 0.0,
			"0.022": 0.0,
			"0.023": 0.0,
			"0.024": 0.0,
			"0.025": 0.0
		}
	}
}
