{
	 "smiles": "OC1CCC(Cl)CC1", 
	 "Tm": 355.65, 
	 "num_atms": 19, 
	 "gaussian": { 
		 "optdone": 1, 
		 "sigma_profile": "yes", 
		 "theory": "DFT", 
		 "functional": "B3LYP", 
		 "basiset": "6-31G**", 
		 "properties": { 
			 "R2extent": 2387.83, 
			 "electric_dipole_moment_norm": 2.34390216946, 
			 "electric_quadrupole_moment_norm": 9.25105659695, 
			 "total_energy": -770.688968809, 
			 "HOMO_LUMO_gap": 0.28998, 
			 "cosmo_polarized_energy": -8.62, 
			 "cosmo_cavitation_energy": 21.76, 
			 "cosmo_dispersion_energy": -16.58, 
			 "cosmo_repulsion_energy": 1.39, 
			 "cosmo_total_nonelectrostatic_energy": 6.56, 
			 "SMD_solvation_energy": 2.62 
		},
		"coords": [
			{
				"x": 1.7278104309,
				"y": -1.9945211697,
				"z": 0.8508094965,
				"element": "O" 
			},
			{
				"x": 1.0787319439,
				"y": -1.1555204886,
				"z": -0.099618044,
				"element": "C" 
			},
			{
				"x": 2.1354716891,
				"y": -0.7923103583,
				"z": -1.1601346857,
				"element": "C" 
			},
			{
				"x": 1.5235573827,
				"y": -0.4797508932,
				"z": -2.549041983,
				"element": "C" 
			},
			{
				"x": 0.1263198755,
				"y": 0.1105324406,
				"z": -2.3815419484,
				"element": "C" 
			},
			{
				"x": -0.5295309441,
				"y": 0.7011237417,
				"z": -3.9891623114,
				"element": "Cl" 
			},
			{
				"x": -0.849404491,
				"y": -0.9014994127,
				"z": -1.7534897099,
				"element": "C" 
			},
			{
				"x": -0.1282624324,
				"y": -1.8392151543,
				"z": -0.7518243054,
				"element": "C" 
			},
			{
				"x": 1.1042180921,
				"y": -2.173260098,
				"z": 1.5667722174,
				"element": "H" 
			},
			{
				"x": 0.7298780567,
				"y": -0.2329101585,
				"z": 0.3959159581,
				"element": "H" 
			},
			{
				"x": 2.8164879365,
				"y": -1.6456966437,
				"z": -1.2421576579,
				"element": "H" 
			},
			{
				"x": 2.7310199435,
				"y": 0.0542851192,
				"z": -0.8032200623,
				"element": "H" 
			},
			{
				"x": 1.446782035,
				"y": -1.3914828837,
				"z": -3.1523002797,
				"element": "H" 
			},
			{
				"x": 2.164542767,
				"y": 0.2113580649,
				"z": -3.1024816274,
				"element": "H" 
			},
			{
				"x": 0.1806716714,
				"y": 1.0198475128,
				"z": -1.7778595582,
				"element": "H" 
			},
			{
				"x": -1.6641397152,
				"y": -0.3572663761,
				"z": -1.2650355586,
				"element": "H" 
			},
			{
				"x": -1.3035593911,
				"y": -1.499886909,
				"z": -2.548333252,
				"element": "H" 
			},
			{
				"x": 0.2304478002,
				"y": -2.7422939893,
				"z": -1.2596065669,
				"element": "H" 
			},
			{
				"x": -0.8349426509,
				"y": -2.1741323441,
				"z": 0.0174098787,
				"element": "H" 
			}
		],
		 "valence_orbital": [ 
			{
				"type": "occ",
				"energy": -0.33121,
				"method": "rhf"
			},
			{
				"type": "occ",
				"energy": -0.31319,
				"method": "rhf"
			},
			{
				"type": "occ",
				"energy": -0.28824,
				"method": "rhf"
			},
			{
				"type": "occ",
				"energy": -0.28625,
				"method": "rhf"
			},
			{
				"type": "occ",
				"energy": -0.26856,
				"method": "rhf"
			},
			{
				"type": "unocc",
				"energy": 0.02142,
				"method": "rhf"
			},
			{
				"type": "unocc",
				"energy": 0.06678,
				"method": "rhf"
			},
			{
				"type": "unocc",
				"energy": 0.08585,
				"method": "rhf"
			},
			{
				"type": "unocc",
				"energy": 0.101,
				"method": "rhf"
			},
			{
				"type": "unocc",
				"energy": 0.12315,
				"method": "rhf"
			}
		],
		"cosmo_sigma_profile": { 
			"-0.025": 0.0,
			"-0.024": 0.0,
			"-0.023": 0.0,
			"-0.022": 0.0,
			"-0.021": 0.0,
			"-0.02": 0.0,
			"-0.019": 0.0,
			"-0.018": 0.0,
			"-0.017": 0.0,
			"-0.016": 0.0301654702659,
			"-0.015": 0.797662912923,
			"-0.014": 1.31833770983,
			"-0.013": 0.513667516864,
			"-0.012": 1.00676568588,
			"-0.011": 1.03932503545,
			"-0.01": 0.915941056984,
			"-0.009": 0.964585278514,
			"-0.008": 0.790798251474,
			"-0.007": 1.07685677507,
			"-0.006": 5.04635814712,
			"-0.005": 5.22979366583,
			"-0.004": 13.1988341104,
			"-0.003": 28.1393947175,
			"-0.002": 20.5121985865,
			"-0.001": 14.437590442,
			"0.0": 13.5094570678,
			"0.001": 7.21743945233,
			"0.002": 6.47688575058,
			"0.003": 5.79035077238,
			"0.004": 5.85195778423,
			"0.005": 6.28487586528,
			"0.006": 7.60312881459,
			"0.007": 10.9482695386,
			"0.008": 2.31816383217,
			"0.009": 0.89970625307,
			"0.01": 1.23484375148,
			"0.011": 1.4895293234,
			"0.012": 1.20313652977,
			"0.013": 1.66199658575,
			"0.014": 2.05576816305,
			"0.015": 0.424482567803,
			"0.016": 0.0,
			"0.017": 0.0,
			"0.018": 0.0,
			"0.019": 0.0,
			"0.02": 0.0,
			"0.021": 0.0,
			"0.022": 0.0,
			"0.023": 0.0,
			"0.024": 0.0,
			"0.025": 0.0
		}
	}
}
