{
	 "smiles": "OC(=O)C1CCCCC1C(=O)C1=CC=C(Cl)C=C1", 
	 "Tm": 432.15, 
	 "num_atms": 33, 
	 "gaussian": { 
		 "optdone": 1, 
		 "sigma_profile": "yes", 
		 "theory": "DFT", 
		 "functional": "B3LYP", 
		 "basiset": "6-31G**", 
		 "properties": { 
			 "R2extent": 7190.4272, 
			 "electric_dipole_moment_norm": 2.69936222282, 
			 "electric_quadrupole_moment_norm": 10.0142224561, 
			 "total_energy": -1228.42181111, 
			 "HOMO_LUMO_gap": 0.18497, 
			 "cosmo_polarized_energy": -14.5, 
			 "cosmo_cavitation_energy": 36.85, 
			 "cosmo_dispersion_energy": -25.93, 
			 "cosmo_repulsion_energy": 2.02, 
			 "cosmo_total_nonelectrostatic_energy": 12.94, 
			 "SMD_solvation_energy": 6.82 
		},
		"coords": [
			{
				"x": 1.4966426828,
				"y": 0.844917918,
				"z": 2.5714079119,
				"element": "O" 
			},
			{
				"x": 0.8553389096,
				"y": -0.3372254229,
				"z": 2.4036394693,
				"element": "C" 
			},
			{
				"x": 0.4991173476,
				"y": -1.0247318384,
				"z": 3.3345016017,
				"element": "O" 
			},
			{
				"x": 0.6278623152,
				"y": -0.6492153773,
				"z": 0.9325592464,
				"element": "C" 
			},
			{
				"x": 0.5756509802,
				"y": -2.1721042596,
				"z": 0.7105698892,
				"element": "C" 
			},
			{
				"x": 0.2344355975,
				"y": -2.5363928651,
				"z": -0.7396693522,
				"element": "C" 
			},
			{
				"x": -1.0859733094,
				"y": -1.8923226583,
				"z": -1.1815379037,
				"element": "C" 
			},
			{
				"x": -1.0464994409,
				"y": -0.3684644418,
				"z": -1.0005362968,
				"element": "C" 
			},
			{
				"x": -0.7059770387,
				"y": 0.0153805072,
				"z": 0.4594773113,
				"element": "C" 
			},
			{
				"x": -0.818615636,
				"y": 1.5267179796,
				"z": 0.7269429367,
				"element": "C" 
			},
			{
				"x": -1.6467804558,
				"y": 1.9014181181,
				"z": 1.546120422,
				"element": "O" 
			},
			{
				"x": 0.0016584133,
				"y": 2.5555257681,
				"z": -0.0034881481,
				"element": "C" 
			},
			{
				"x": -0.324774068,
				"y": 3.9029170201,
				"z": 0.2284527234,
				"element": "C" 
			},
			{
				"x": 0.3707177582,
				"y": 4.933323312,
				"z": -0.3924141671,
				"element": "C" 
			},
			{
				"x": 1.4189171513,
				"y": 4.6159973766,
				"z": -1.2590989678,
				"element": "C" 
			},
			{
				"x": 2.3067317151,
				"y": 5.9060941016,
				"z": -2.0491582407,
				"element": "Cl" 
			},
			{
				"x": 1.7720690539,
				"y": 3.2903530248,
				"z": -1.5063644629,
				"element": "C" 
			},
			{
				"x": 1.0602247226,
				"y": 2.2690835615,
				"z": -0.8790156059,
				"element": "C" 
			},
			{
				"x": 1.5387480739,
				"y": 1.0010503819,
				"z": 3.5304373815,
				"element": "H" 
			},
			{
				"x": 1.4687725988,
				"y": -0.22381429,
				"z": 0.3753760649,
				"element": "H" 
			},
			{
				"x": 1.5368189229,
				"y": -2.611471297,
				"z": 1.000646956,
				"element": "H" 
			},
			{
				"x": -0.1724170844,
				"y": -2.5922807135,
				"z": 1.3921479722,
				"element": "H" 
			},
			{
				"x": 1.0432534945,
				"y": -2.2024090997,
				"z": -1.4056056591,
				"element": "H" 
			},
			{
				"x": 0.180024183,
				"y": -3.6261127197,
				"z": -0.8422015366,
				"element": "H" 
			},
			{
				"x": -1.3005120754,
				"y": -2.1348087381,
				"z": -2.2287463974,
				"element": "H" 
			},
			{
				"x": -1.910573058,
				"y": -2.3079918909,
				"z": -0.5867295615,
				"element": "H" 
			},
			{
				"x": -2.0152429318,
				"y": 0.0715592081,
				"z": -1.2645639405,
				"element": "H" 
			},
			{
				"x": -0.3141106695,
				"y": 0.0576209646,
				"z": -1.6951334685,
				"element": "H" 
			},
			{
				"x": -1.4943467683,
				"y": -0.4000823028,
				"z": 1.0982101019,
				"element": "H" 
			},
			{
				"x": -1.1394486338,
				"y": 4.1188330768,
				"z": 0.9108106748,
				"element": "H" 
			},
			{
				"x": 0.1102096085,
				"y": 5.9702267681,
				"z": -0.2111612144,
				"element": "H" 
			},
			{
				"x": 2.5916979455,
				"y": 3.0621457863,
				"z": -2.1783728937,
				"element": "H" 
			},
			{
				"x": 1.3526796955,
				"y": 1.2468630418,
				"z": -1.0818028462,
				"element": "H" 
			}
		],
		 "valence_orbital": [ 
			{
				"type": "occ",
				"energy": -0.31849,
				"method": "rhf"
			},
			{
				"type": "occ",
				"energy": -0.27658,
				"method": "rhf"
			},
			{
				"type": "occ",
				"energy": -0.27395,
				"method": "rhf"
			},
			{
				"type": "occ",
				"energy": -0.25681,
				"method": "rhf"
			},
			{
				"type": "occ",
				"energy": -0.25093,
				"method": "rhf"
			},
			{
				"type": "unocc",
				"energy": -0.06596,
				"method": "rhf"
			},
			{
				"type": "unocc",
				"energy": -0.02382,
				"method": "rhf"
			},
			{
				"type": "unocc",
				"energy": 0.00342,
				"method": "rhf"
			},
			{
				"type": "unocc",
				"energy": 0.02194,
				"method": "rhf"
			},
			{
				"type": "unocc",
				"energy": 0.02556,
				"method": "rhf"
			}
		],
		"cosmo_sigma_profile": { 
			"-0.025": 0.0,
			"-0.024": 0.0,
			"-0.023": 0.0,
			"-0.022": 0.0,
			"-0.021": 0.0,
			"-0.02": 0.0,
			"-0.019": 0.0984651858204,
			"-0.018": 0.805201538904,
			"-0.017": 0.897382468658,
			"-0.016": 0.793599911111,
			"-0.015": 0.939492318059,
			"-0.014": 0.584752252157,
			"-0.013": 0.555854336766,
			"-0.012": 0.393307270812,
			"-0.011": 1.17597920008,
			"-0.01": 0.735296395763,
			"-0.009": 1.73934101205,
			"-0.008": 4.43824613694,
			"-0.007": 7.21522928368,
			"-0.006": 8.25050177517,
			"-0.005": 11.2391661526,
			"-0.004": 17.6124517273,
			"-0.003": 25.633770225,
			"-0.002": 29.5090301711,
			"-0.001": 32.0959166594,
			"0.0": 27.8071779419,
			"0.001": 23.6898964485,
			"0.002": 21.8754704902,
			"0.003": 16.0045983341,
			"0.004": 16.3744143208,
			"0.005": 7.38268011406,
			"0.006": 4.75139609647,
			"0.007": 3.80674781801,
			"0.008": 4.30656384604,
			"0.009": 3.26517055149,
			"0.01": 4.06642261521,
			"0.011": 7.49581060155,
			"0.012": 6.42168156022,
			"0.013": 0.702783107073,
			"0.014": 0.0,
			"0.015": 0.0,
			"0.016": 0.0,
			"0.017": 0.0,
			"0.018": 0.0,
			"0.019": 0.0,
			"0.02": 0.0,
			"0.021": 0.0,
			"0.022": 0.0,
			"0.023": 0.0,
			"0.024": 0.0,
			"0.025": 0.0
		}
	}
}
