{
	 "smiles": "COC1=CC(OC)=C(F)C=C1[N+]([O-])=O", 
	 "Tm": 426.15, 
	 "num_atms": 22, 
	 "gaussian": { 
		 "optdone": 1, 
		 "sigma_profile": "yes", 
		 "theory": "DFT", 
		 "functional": "B3LYP", 
		 "basiset": "6-31G**", 
		 "properties": { 
			 "R2extent": 3259.9833, 
			 "electric_dipole_moment_norm": 7.47427730687, 
			 "electric_quadrupole_moment_norm": 7.73104925932, 
			 "total_energy": -765.011449718, 
			 "HOMO_LUMO_gap": 0.15924, 
			 "cosmo_polarized_energy": -15.64, 
			 "cosmo_cavitation_energy": 27.46, 
			 "cosmo_dispersion_energy": -19.84, 
			 "cosmo_repulsion_energy": 1.54, 
			 "cosmo_total_nonelectrostatic_energy": 9.16, 
			 "SMD_solvation_energy": 9.18 
		},
		"coords": [
			{
				"x": 2.3321688872,
				"y": 1.0996229789,
				"z": -0.3530563323,
				"element": "C" 
			},
			{
				"x": 1.8668194194,
				"y": -0.056225978,
				"z": 0.3314533437,
				"element": "O" 
			},
			{
				"x": 0.5922527586,
				"y": -0.4590517991,
				"z": 0.1582655744,
				"element": "C" 
			},
			{
				"x": -0.3084059719,
				"y": 0.2310043135,
				"z": -0.6747067488,
				"element": "C" 
			},
			{
				"x": -1.6240406407,
				"y": -0.2044879945,
				"z": -0.8499373743,
				"element": "C" 
			},
			{
				"x": -2.5484912499,
				"y": 0.3998167514,
				"z": -1.626188452,
				"element": "O" 
			},
			{
				"x": -2.1804192821,
				"y": 1.5776640932,
				"z": -2.334464059,
				"element": "C" 
			},
			{
				"x": -2.047958746,
				"y": -1.3654966415,
				"z": -0.1756325058,
				"element": "C" 
			},
			{
				"x": -3.3146784846,
				"y": -1.7832668035,
				"z": -0.3464737852,
				"element": "F" 
			},
			{
				"x": -1.1885581475,
				"y": -2.0583496571,
				"z": 0.6407243531,
				"element": "C" 
			},
			{
				"x": 0.1308950421,
				"y": -1.6204742119,
				"z": 0.8222834025,
				"element": "C" 
			},
			{
				"x": 0.9652714943,
				"y": -2.4225218931,
				"z": 1.7156949021,
				"element": "N" 
			},
			{
				"x": 0.4708388564,
				"y": -3.4658099375,
				"z": 2.1585578402,
				"element": "O" 
			},
			{
				"x": 2.0978792582,
				"y": -2.029238588,
				"z": 1.9864784733,
				"element": "O" 
			},
			{
				"x": 1.7751496978,
				"y": 1.9968187939,
				"z": -0.0561691273,
				"element": "H" 
			},
			{
				"x": 3.375515739,
				"y": 1.2100143993,
				"z": -0.0571187817,
				"element": "H" 
			},
			{
				"x": 2.2751965031,
				"y": 0.9755854806,
				"z": -1.4415475715,
				"element": "H" 
			},
			{
				"x": 0.0257689006,
				"y": 1.1182506685,
				"z": -1.1911066545,
				"element": "H" 
			},
			{
				"x": -3.071071421,
				"y": 1.883350827,
				"z": -2.8837338763,
				"element": "H" 
			},
			{
				"x": -1.8830142729,
				"y": 2.3802564523,
				"z": -1.6487030573,
				"element": "H" 
			},
			{
				"x": -1.3665311559,
				"y": 1.3805686442,
				"z": -3.0427180832,
				"element": "H" 
			},
			{
				"x": -1.5181871842,
				"y": -2.9516298984,
				"z": 1.1541985198,
				"element": "H" 
			}
		],
		 "valence_orbital": [ 
			{
				"type": "occ",
				"energy": -0.29136,
				"method": "rhf"
			},
			{
				"type": "occ",
				"energy": -0.29086,
				"method": "rhf"
			},
			{
				"type": "occ",
				"energy": -0.27061,
				"method": "rhf"
			},
			{
				"type": "occ",
				"energy": -0.26582,
				"method": "rhf"
			},
			{
				"type": "occ",
				"energy": -0.23329,
				"method": "rhf"
			},
			{
				"type": "unocc",
				"energy": -0.07405,
				"method": "rhf"
			},
			{
				"type": "unocc",
				"energy": -0.01273,
				"method": "rhf"
			},
			{
				"type": "unocc",
				"energy": 0.01405,
				"method": "rhf"
			},
			{
				"type": "unocc",
				"energy": 0.05881,
				"method": "rhf"
			},
			{
				"type": "unocc",
				"energy": 0.07722,
				"method": "rhf"
			}
		],
		"cosmo_sigma_profile": { 
			"-0.025": 0.0,
			"-0.024": 0.0,
			"-0.023": 0.0,
			"-0.022": 0.0,
			"-0.021": 0.0,
			"-0.02": 0.0,
			"-0.019": 0.0,
			"-0.018": 0.0,
			"-0.017": 0.0,
			"-0.016": 0.0,
			"-0.015": 0.0,
			"-0.014": 0.0,
			"-0.013": 0.0,
			"-0.012": 0.0,
			"-0.011": 0.0,
			"-0.01": 0.0,
			"-0.009": 1.10562874916,
			"-0.008": 4.2682529681,
			"-0.007": 11.8657999853,
			"-0.006": 17.7124761481,
			"-0.005": 17.6287043747,
			"-0.004": 19.630857391,
			"-0.003": 13.040563441,
			"-0.002": 11.0134262403,
			"-0.001": 19.2260924111,
			"0.0": 19.8736739432,
			"0.001": 10.8638330037,
			"0.002": 6.31527764237,
			"0.003": 7.8152894183,
			"0.004": 11.5737455746,
			"0.005": 6.44251239319,
			"0.006": 5.09079957669,
			"0.007": 5.42180380109,
			"0.008": 8.4611330273,
			"0.009": 9.69953211217,
			"0.01": 6.26809125238,
			"0.011": 4.43714550737,
			"0.012": 1.34691669049,
			"0.013": 0.363991846374,
			"0.014": 0.0,
			"0.015": 0.0,
			"0.016": 0.0,
			"0.017": 0.0,
			"0.018": 0.0,
			"0.019": 0.0,
			"0.02": 0.0,
			"0.021": 0.0,
			"0.022": 0.0,
			"0.023": 0.0,
			"0.024": 0.0,
			"0.025": 0.0
		}
	}
}
