{
	 "smiles": "CC(C)OC(=O)CS(=O)(=O)C1=CC=C(Cl)C=C1", 
	 "Tm": 314.15, 
	 "num_atms": 30, 
	 "gaussian": { 
		 "optdone": 1, 
		 "sigma_profile": "yes", 
		 "theory": "DFT", 
		 "functional": "B3LYP", 
		 "basiset": "6-31G**", 
		 "properties": { 
			 "R2extent": 7878.1162, 
			 "electric_dipole_moment_norm": 3.42267315705, 
			 "electric_quadrupole_moment_norm": 23.3118329852, 
			 "total_energy": -1586.23084591, 
			 "HOMO_LUMO_gap": 0.21617, 
			 "cosmo_polarized_energy": -15.14, 
			 "cosmo_cavitation_energy": 37.14, 
			 "cosmo_dispersion_energy": -26.26, 
			 "cosmo_repulsion_energy": 2.02, 
			 "cosmo_total_nonelectrostatic_energy": 12.9, 
			 "SMD_solvation_energy": 6.11 
		},
		"coords": [
			{
				"x": -0.8208035751,
				"y": -2.5373667716,
				"z": 2.9785437175,
				"element": "C" 
			},
			{
				"x": 0.5721675089,
				"y": -1.9292729993,
				"z": 3.1123141584,
				"element": "C" 
			},
			{
				"x": 0.665193325,
				"y": -0.7673059708,
				"z": 4.0968176919,
				"element": "C" 
			},
			{
				"x": 1.1226202241,
				"y": -1.5591427832,
				"z": 1.8000727169,
				"element": "O" 
			},
			{
				"x": 0.5671737456,
				"y": -0.5753192398,
				"z": 1.0875366263,
				"element": "C" 
			},
			{
				"x": -0.4331220921,
				"y": 0.0514571381,
				"z": 1.3735153808,
				"element": "O" 
			},
			{
				"x": 1.3818356024,
				"y": -0.3112403796,
				"z": -0.166327749,
				"element": "C" 
			},
			{
				"x": 2.3324133584,
				"y": 1.2584008207,
				"z": -0.0372661615,
				"element": "S" 
			},
			{
				"x": 2.780045236,
				"y": 1.3881884832,
				"z": 1.3570883069,
				"element": "O" 
			},
			{
				"x": 3.2882600685,
				"y": 1.2315722963,
				"z": -1.154301836,
				"element": "O" 
			},
			{
				"x": 1.1437790695,
				"y": 2.5635370767,
				"z": -0.3736127906,
				"element": "C" 
			},
			{
				"x": 1.0464659725,
				"y": 3.0626825248,
				"z": -1.6737016564,
				"element": "C" 
			},
			{
				"x": 0.1427033392,
				"y": 4.0879597767,
				"z": -1.9462143578,
				"element": "C" 
			},
			{
				"x": -0.6439939838,
				"y": 4.59223095,
				"z": -0.9089131986,
				"element": "C" 
			},
			{
				"x": -1.7822338519,
				"y": 5.8809184175,
				"z": -1.2486815139,
				"element": "Cl" 
			},
			{
				"x": -0.5417478891,
				"y": 4.0994034724,
				"z": 0.3936454291,
				"element": "C" 
			},
			{
				"x": 0.3628274404,
				"y": 3.0751913178,
				"z": 0.6645312674,
				"element": "C" 
			},
			{
				"x": -1.5537274502,
				"y": -1.7853724806,
				"z": 2.6820869925,
				"element": "H" 
			},
			{
				"x": -0.8198073432,
				"y": -3.3451430772,
				"z": 2.2405757803,
				"element": "H" 
			},
			{
				"x": -1.1223118797,
				"y": -2.9607483996,
				"z": 3.9421946446,
				"element": "H" 
			},
			{
				"x": 1.2753752375,
				"y": -2.7101028,
				"z": 3.416342733,
				"element": "H" 
			},
			{
				"x": 1.6658769809,
				"y": -0.327130218,
				"z": 4.0731687474,
				"element": "H" 
			},
			{
				"x": 0.4756992437,
				"y": -1.1391551453,
				"z": 5.1090366881,
				"element": "H" 
			},
			{
				"x": -0.0670769168,
				"y": 0.0079879668,
				"z": 3.8663665849,
				"element": "H" 
			},
			{
				"x": 0.7327647606,
				"y": -0.2246621495,
				"z": -1.0395398139,
				"element": "H" 
			},
			{
				"x": 2.1460559209,
				"y": -1.0722949668,
				"z": -0.3305666065,
				"element": "H" 
			},
			{
				"x": 1.6866444071,
				"y": 2.6653443222,
				"z": -2.4538222477,
				"element": "H" 
			},
			{
				"x": 0.0530435343,
				"y": 4.4969523041,
				"z": -2.9461230052,
				"element": "H" 
			},
			{
				"x": -1.1597671967,
				"y": 4.5137975661,
				"z": 1.1818331569,
				"element": "H" 
			},
			{
				"x": 0.4639472031,
				"y": 2.6806329478,
				"z": 1.6680003142,
				"element": "H" 
			}
		],
		 "valence_orbital": [ 
			{
				"type": "occ",
				"energy": -0.30719,
				"method": "rhf"
			},
			{
				"type": "occ",
				"energy": -0.29727,
				"method": "rhf"
			},
			{
				"type": "occ",
				"energy": -0.28527,
				"method": "rhf"
			},
			{
				"type": "occ",
				"energy": -0.27856,
				"method": "rhf"
			},
			{
				"type": "occ",
				"energy": -0.26784,
				"method": "rhf"
			},
			{
				"type": "unocc",
				"energy": -0.05167,
				"method": "rhf"
			},
			{
				"type": "unocc",
				"energy": -0.03258,
				"method": "rhf"
			},
			{
				"type": "unocc",
				"energy": -0.02138,
				"method": "rhf"
			},
			{
				"type": "unocc",
				"energy": 0.01725,
				"method": "rhf"
			},
			{
				"type": "unocc",
				"energy": 0.06766,
				"method": "rhf"
			}
		],
		"cosmo_sigma_profile": { 
			"-0.025": 0.0,
			"-0.024": 0.0,
			"-0.023": 0.0,
			"-0.022": 0.0,
			"-0.021": 0.0,
			"-0.02": 0.0,
			"-0.019": 0.0,
			"-0.018": 0.0,
			"-0.017": 0.0,
			"-0.016": 0.0,
			"-0.015": 0.0,
			"-0.014": 0.0,
			"-0.013": 0.0,
			"-0.012": 0.0,
			"-0.011": 0.113993726492,
			"-0.01": 2.95659442491,
			"-0.009": 5.11910020899,
			"-0.008": 8.60675976722,
			"-0.007": 11.1882525495,
			"-0.006": 11.4581783427,
			"-0.005": 14.3171554637,
			"-0.004": 18.6562054017,
			"-0.003": 19.6165347314,
			"-0.002": 23.0268267102,
			"-0.001": 25.4552988774,
			"0.0": 35.2119272049,
			"0.001": 28.2039470152,
			"0.002": 15.9900492425,
			"0.003": 13.8252539431,
			"0.004": 14.8252614636,
			"0.005": 6.70055755392,
			"0.006": 5.09982863677,
			"0.007": 6.3410311493,
			"0.008": 4.93009651024,
			"0.009": 5.18799356744,
			"0.01": 8.38835019451,
			"0.011": 10.0568097606,
			"0.012": 1.84318592074,
			"0.013": 0.0,
			"0.014": 0.0,
			"0.015": 0.0,
			"0.016": 0.0,
			"0.017": 0.0,
			"0.018": 0.0,
			"0.019": 0.0,
			"0.02": 0.0,
			"0.021": 0.0,
			"0.022": 0.0,
			"0.023": 0.0,
			"0.024": 0.0,
			"0.025": 0.0
		}
	}
}
