{
	 "smiles": "NC(=NC1=CC=CC=C1)N1CCCCC1", 
	 "Tm": 335.15, 
	 "num_atms": 32, 
	 "gaussian": { 
		 "optdone": 1, 
		 "sigma_profile": "yes", 
		 "theory": "DFT", 
		 "functional": "B3LYP", 
		 "basiset": "6-31G**", 
		 "properties": { 
			 "R2extent": 5025.351, 
			 "electric_dipole_moment_norm": 3.74050129662, 
			 "electric_quadrupole_moment_norm": 7.22679638567, 
			 "total_energy": -631.783943276, 
			 "HOMO_LUMO_gap": 0.20015, 
			 "cosmo_polarized_energy": -11.05, 
			 "cosmo_cavitation_energy": 32.98, 
			 "cosmo_dispersion_energy": -24.41, 
			 "cosmo_repulsion_energy": 1.93, 
			 "cosmo_total_nonelectrostatic_energy": 10.5, 
			 "SMD_solvation_energy": 3.25 
		},
		"coords": [
			{
				"x": 0.5562010095,
				"y": -0.2209859519,
				"z": 1.0509724497,
				"element": "N" 
			},
			{
				"x": 0.5676476168,
				"y": 0.0956819168,
				"z": -0.3117425101,
				"element": "C" 
			},
			{
				"x": 1.4634642063,
				"y": -0.2788754377,
				"z": -1.1689654846,
				"element": "N" 
			},
			{
				"x": 2.5329383303,
				"y": -1.10740175,
				"z": -0.8234678368,
				"element": "C" 
			},
			{
				"x": 3.4502864904,
				"y": -0.8029606156,
				"z": 0.2055354819,
				"element": "C" 
			},
			{
				"x": 4.5418725486,
				"y": -1.6358129654,
				"z": 0.4614629118,
				"element": "C" 
			},
			{
				"x": 4.750992059,
				"y": -2.7870642987,
				"z": -0.2976924865,
				"element": "C" 
			},
			{
				"x": 3.8575059561,
				"y": -3.0916958609,
				"z": -1.3302347464,
				"element": "C" 
			},
			{
				"x": 2.7702842749,
				"y": -2.2642636665,
				"z": -1.5943055849,
				"element": "C" 
			},
			{
				"x": -0.4835749696,
				"y": 0.8767684712,
				"z": -0.7358846257,
				"element": "N" 
			},
			{
				"x": -1.3222284028,
				"y": 1.6372015343,
				"z": 0.1980565236,
				"element": "C" 
			},
			{
				"x": -1.6638689243,
				"y": 3.0141777288,
				"z": -0.3831647343,
				"element": "C" 
			},
			{
				"x": -2.4267355723,
				"y": 2.9036517843,
				"z": -1.721040878,
				"element": "C" 
			},
			{
				"x": -2.0167577221,
				"y": 1.6302680704,
				"z": -2.4972227952,
				"element": "C" 
			},
			{
				"x": -0.5899166558,
				"y": 1.1881550312,
				"z": -2.1660598662,
				"element": "C" 
			},
			{
				"x": 1.2492031116,
				"y": -0.9199520549,
				"z": 1.2903019962,
				"element": "H" 
			},
			{
				"x": -0.3560074522,
				"y": -0.4428828944,
				"z": 1.428742709,
				"element": "H" 
			},
			{
				"x": 3.317793268,
				"y": 0.1100337445,
				"z": 0.7796248897,
				"element": "H" 
			},
			{
				"x": 5.2358423142,
				"y": -1.3749857307,
				"z": 1.2566795825,
				"element": "H" 
			},
			{
				"x": 5.6011848375,
				"y": -3.4322801827,
				"z": -0.0971504396,
				"element": "H" 
			},
			{
				"x": 4.0123497403,
				"y": -3.9807081428,
				"z": -1.9364245764,
				"element": "H" 
			},
			{
				"x": 2.0797717228,
				"y": -2.491761311,
				"z": -2.4008619277,
				"element": "H" 
			},
			{
				"x": -0.7784695256,
				"y": 1.7567908993,
				"z": 1.1386280843,
				"element": "H" 
			},
			{
				"x": -2.255047008,
				"y": 1.0941323145,
				"z": 0.4261147983,
				"element": "H" 
			},
			{
				"x": -0.7256858072,
				"y": 3.5618718669,
				"z": -0.5290647198,
				"element": "H" 
			},
			{
				"x": -2.2460568251,
				"y": 3.5803035647,
				"z": 0.3520491938,
				"element": "H" 
			},
			{
				"x": -3.507589756,
				"y": 2.8887514619,
				"z": -1.5401425109,
				"element": "H" 
			},
			{
				"x": -2.2276600741,
				"y": 3.7971975432,
				"z": -2.3230973744,
				"element": "H" 
			},
			{
				"x": -2.6976262662,
				"y": 0.8063751021,
				"z": -2.2511595414,
				"element": "H" 
			},
			{
				"x": -2.1017805729,
				"y": 1.7910728357,
				"z": -3.5769833713,
				"element": "H" 
			},
			{
				"x": -0.3095552021,
				"y": 0.2918068845,
				"z": -2.7224800584,
				"element": "H" 
			},
			{
				"x": 0.1347232499,
				"y": 1.9653901089,
				"z": -2.4525225524,
				"element": "H" 
			}
		],
		 "valence_orbital": [ 
			{
				"type": "occ",
				"energy": -0.27292,
				"method": "rhf"
			},
			{
				"type": "occ",
				"energy": -0.2534,
				"method": "rhf"
			},
			{
				"type": "occ",
				"energy": -0.23383,
				"method": "rhf"
			},
			{
				"type": "occ",
				"energy": -0.21976,
				"method": "rhf"
			},
			{
				"type": "occ",
				"energy": -0.18655,
				"method": "rhf"
			},
			{
				"type": "unocc",
				"energy": 0.0136,
				"method": "rhf"
			},
			{
				"type": "unocc",
				"energy": 0.01554,
				"method": "rhf"
			},
			{
				"type": "unocc",
				"energy": 0.06529,
				"method": "rhf"
			},
			{
				"type": "unocc",
				"energy": 0.07509,
				"method": "rhf"
			},
			{
				"type": "unocc",
				"energy": 0.09174,
				"method": "rhf"
			}
		],
		"cosmo_sigma_profile": { 
			"-0.025": 0.0,
			"-0.024": 0.0,
			"-0.023": 0.0,
			"-0.022": 0.0,
			"-0.021": 0.0,
			"-0.02": 0.0,
			"-0.019": 0.0,
			"-0.018": 0.0,
			"-0.017": 0.0,
			"-0.016": 0.0,
			"-0.015": 0.0,
			"-0.014": 0.0,
			"-0.013": 0.605067126404,
			"-0.012": 1.22184674729,
			"-0.011": 1.35471934101,
			"-0.01": 2.77464221417,
			"-0.009": 2.37546028332,
			"-0.008": 1.31102082491,
			"-0.007": 2.10525129519,
			"-0.006": 2.37713472142,
			"-0.005": 8.61571765801,
			"-0.004": 14.3050452726,
			"-0.003": 31.4685464979,
			"-0.002": 41.7753208521,
			"-0.001": 33.6592789972,
			"0.0": 21.7873309149,
			"0.001": 15.9853901961,
			"0.002": 10.6112645485,
			"0.003": 10.1686131622,
			"0.004": 11.6119802993,
			"0.005": 9.82510478718,
			"0.006": 11.9410789629,
			"0.007": 9.55824947965,
			"0.008": 3.24618528331,
			"0.009": 2.3473873316,
			"0.01": 1.3092359431,
			"0.011": 2.18535676284,
			"0.012": 1.01689504805,
			"0.013": 1.10485515328,
			"0.014": 0.828035773215,
			"0.015": 0.854869397698,
			"0.016": 0.215891133707,
			"0.017": 0.0,
			"0.018": 0.0,
			"0.019": 0.0,
			"0.02": 0.0,
			"0.021": 0.0,
			"0.022": 0.0,
			"0.023": 0.0,
			"0.024": 0.0,
			"0.025": 0.0
		}
	}
}
