{
	 "smiles": "CC1=CC(=CC(C)=C1)[N+]([O-])=O", 
	 "Tm": 346.15, 
	 "num_atms": 20, 
	 "gaussian": { 
		 "optdone": 1, 
		 "sigma_profile": "yes", 
		 "theory": "DFT", 
		 "functional": "B3LYP", 
		 "basiset": "6-31G**", 
		 "properties": { 
			 "R2extent": 3948.6971, 
			 "electric_dipole_moment_norm": 5.07265413861, 
			 "electric_quadrupole_moment_norm": 21.5030634678, 
			 "total_energy": -515.390476437, 
			 "HOMO_LUMO_gap": 0.17569, 
			 "cosmo_polarized_energy": -7.74, 
			 "cosmo_cavitation_energy": 24.37, 
			 "cosmo_dispersion_energy": -17.75, 
			 "cosmo_repulsion_energy": 1.43, 
			 "cosmo_total_nonelectrostatic_energy": 8.05, 
			 "SMD_solvation_energy": 6.65 
		},
		"coords": [
			{
				"x": 0.6054244464,
				"y": 1.2618727675,
				"z": 0.5234995571,
				"element": "C" 
			},
			{
				"x": 0.6575117876,
				"y": 0.617141664,
				"z": -0.8416883411,
				"element": "C" 
			},
			{
				"x": 1.8829538176,
				"y": 0.3353353466,
				"z": -1.4521213656,
				"element": "C" 
			},
			{
				"x": 1.8895805483,
				"y": -0.2885792975,
				"z": -2.6964726642,
				"element": "C" 
			},
			{
				"x": 0.7207636751,
				"y": -0.6430459334,
				"z": -3.3642423331,
				"element": "C" 
			},
			{
				"x": -0.5121000486,
				"y": -0.3613093299,
				"z": -2.7688874435,
				"element": "C" 
			},
			{
				"x": -1.8047577145,
				"y": -0.6977707686,
				"z": -3.474539626,
				"element": "C" 
			},
			{
				"x": -0.5206120019,
				"y": 0.2639385481,
				"z": -1.5142698724,
				"element": "C" 
			},
			{
				"x": 3.185163068,
				"y": -0.5854977889,
				"z": -3.3320208697,
				"element": "N" 
			},
			{
				"x": 3.1704056472,
				"y": -1.1437149184,
				"z": -4.4290186817,
				"element": "O" 
			},
			{
				"x": 4.2072320963,
				"y": -0.2581103692,
				"z": -2.7291789552,
				"element": "O" 
			},
			{
				"x": 0.5133746527,
				"y": 0.5051302893,
				"z": 1.312166582,
				"element": "H" 
			},
			{
				"x": -0.2533377954,
				"y": 1.9335182512,
				"z": 0.6155094983,
				"element": "H" 
			},
			{
				"x": 1.5120319479,
				"y": 1.8379753741,
				"z": 0.7271621208,
				"element": "H" 
			},
			{
				"x": 2.8247744828,
				"y": 0.5880907553,
				"z": -0.9805138418,
				"element": "H" 
			},
			{
				"x": 0.7882336215,
				"y": -1.1271637407,
				"z": -4.3308896937,
				"element": "H" 
			},
			{
				"x": -1.6680933066,
				"y": -1.5138082196,
				"z": -4.1891876198,
				"element": "H" 
			},
			{
				"x": -2.1844314655,
				"y": 0.1669121394,
				"z": -4.0324812556,
				"element": "H" 
			},
			{
				"x": -2.5825023843,
				"y": -0.9933058414,
				"z": -2.7640436089,
				"element": "H" 
			},
			{
				"x": -1.4775150747,
				"y": 0.4832910722,
				"z": -1.0448815858,
				"element": "H" 
			}
		],
		 "valence_orbital": [ 
			{
				"type": "occ",
				"energy": -0.30467,
				"method": "rhf"
			},
			{
				"type": "occ",
				"energy": -0.30167,
				"method": "rhf"
			},
			{
				"type": "occ",
				"energy": -0.28544,
				"method": "rhf"
			},
			{
				"type": "occ",
				"energy": -0.27021,
				"method": "rhf"
			},
			{
				"type": "occ",
				"energy": -0.25942,
				"method": "rhf"
			},
			{
				"type": "unocc",
				"energy": -0.08373,
				"method": "rhf"
			},
			{
				"type": "unocc",
				"energy": -0.01914,
				"method": "rhf"
			},
			{
				"type": "unocc",
				"energy": 0.00441,
				"method": "rhf"
			},
			{
				"type": "unocc",
				"energy": 0.08478,
				"method": "rhf"
			},
			{
				"type": "unocc",
				"energy": 0.10755,
				"method": "rhf"
			}
		],
		"cosmo_sigma_profile": { 
			"-0.025": 0.0,
			"-0.024": 0.0,
			"-0.023": 0.0,
			"-0.022": 0.0,
			"-0.021": 0.0,
			"-0.02": 0.0,
			"-0.019": 0.0,
			"-0.018": 0.0,
			"-0.017": 0.0,
			"-0.016": 0.0,
			"-0.015": 0.0,
			"-0.014": 0.0,
			"-0.013": 0.0,
			"-0.012": 0.0,
			"-0.011": 0.0,
			"-0.01": 0.0,
			"-0.009": 0.0,
			"-0.008": 0.0,
			"-0.007": 1.17812583729,
			"-0.006": 6.57948174229,
			"-0.005": 14.6975908593,
			"-0.004": 19.9700663835,
			"-0.003": 17.6482920432,
			"-0.002": 18.5617426653,
			"-0.001": 24.3265483987,
			"0.0": 21.750668482,
			"0.001": 12.3492468207,
			"0.002": 13.7270086811,
			"0.003": 9.6108660282,
			"0.004": 2.25381592543,
			"0.005": 3.19910571224,
			"0.006": 3.77327555851,
			"0.007": 6.11747635572,
			"0.008": 9.20132459998,
			"0.009": 4.9010999438,
			"0.01": 3.18691118433,
			"0.011": 0.504312730355,
			"0.012": 0.0,
			"0.013": 0.0,
			"0.014": 0.0,
			"0.015": 0.0,
			"0.016": 0.0,
			"0.017": 0.0,
			"0.018": 0.0,
			"0.019": 0.0,
			"0.02": 0.0,
			"0.021": 0.0,
			"0.022": 0.0,
			"0.023": 0.0,
			"0.024": 0.0,
			"0.025": 0.0
		}
	}
}
