{
	 "smiles": "OC(=O)C1CN(C(=O)C1)C1=CC2=C(OCCO2)C=C1", 
	 "Tm": 495.15, 
	 "num_atms": 32, 
	 "gaussian": { 
		 "optdone": 1, 
		 "sigma_profile": "yes", 
		 "theory": "DFT", 
		 "functional": "B3LYP", 
		 "basiset": "6-31G**", 
		 "properties": { 
			 "R2extent": 6925.2949, 
			 "electric_dipole_moment_norm": 2.03516893402, 
			 "electric_quadrupole_moment_norm": 25.02883384, 
			 "total_energy": -934.099369062, 
			 "HOMO_LUMO_gap": 0.18566, 
			 "cosmo_polarized_energy": -20.2, 
			 "cosmo_cavitation_energy": 35.13, 
			 "cosmo_dispersion_energy": -26.2, 
			 "cosmo_repulsion_energy": 2.01, 
			 "cosmo_total_nonelectrostatic_energy": 10.93, 
			 "SMD_solvation_energy": 7.41 
		},
		"coords": [
			{
				"x": -4.0873101157,
				"y": -4.5355405516,
				"z": 1.4228955217,
				"element": "O" 
			},
			{
				"x": -3.8540118804,
				"y": -3.2264376034,
				"z": 1.1723808331,
				"element": "C" 
			},
			{
				"x": -4.4019021441,
				"y": -2.62546477,
				"z": 0.2755495158,
				"element": "O" 
			},
			{
				"x": -2.8696344888,
				"y": -2.6387661464,
				"z": 2.1778584868,
				"element": "C" 
			},
			{
				"x": -2.4510429774,
				"y": -1.2109061779,
				"z": 1.7862141595,
				"element": "C" 
			},
			{
				"x": -1.1496819963,
				"y": -1.3710729833,
				"z": 1.129086813,
				"element": "N" 
			},
			{
				"x": -0.5792046752,
				"y": -2.6109160933,
				"z": 1.3664350137,
				"element": "C" 
			},
			{
				"x": 0.5051938582,
				"y": -3.0115560449,
				"z": 0.9759384704,
				"element": "O" 
			},
			{
				"x": -1.5397805614,
				"y": -3.4122975037,
				"z": 2.2420172083,
				"element": "C" 
			},
			{
				"x": -0.5450727243,
				"y": -0.2858127669,
				"z": 0.442825818,
				"element": "C" 
			},
			{
				"x": 0.6337235514,
				"y": -0.4554035685,
				"z": -0.2995491922,
				"element": "C" 
			},
			{
				"x": 1.1976077407,
				"y": 0.627402242,
				"z": -0.9691602638,
				"element": "C" 
			},
			{
				"x": 0.594214463,
				"y": 1.8954508105,
				"z": -0.9249521762,
				"element": "C" 
			},
			{
				"x": 1.1172362092,
				"y": 2.9799694232,
				"z": -1.5905016216,
				"element": "O" 
			},
			{
				"x": 2.0725794332,
				"y": 2.6275245314,
				"z": -2.5899940193,
				"element": "C" 
			},
			{
				"x": 3.0475215684,
				"y": 1.5977726172,
				"z": -2.0413972575,
				"element": "C" 
			},
			{
				"x": 2.3539570443,
				"y": 0.4053235987,
				"z": -1.6780432717,
				"element": "O" 
			},
			{
				"x": -0.5686324246,
				"y": 2.0616202031,
				"z": -0.1784245836,
				"element": "C" 
			},
			{
				"x": -1.1354495979,
				"y": 0.9893274831,
				"z": 0.5058139761,
				"element": "C" 
			},
			{
				"x": -4.731185644,
				"y": -4.8312019415,
				"z": 0.7573336871,
				"element": "H" 
			},
			{
				"x": -3.3843366259,
				"y": -2.6497031556,
				"z": 3.1445004094,
				"element": "H" 
			},
			{
				"x": -2.3613872424,
				"y": -0.567103533,
				"z": 2.6710248972,
				"element": "H" 
			},
			{
				"x": -3.1764800265,
				"y": -0.7686461756,
				"z": 1.0999901665,
				"element": "H" 
			},
			{
				"x": -1.604255371,
				"y": -4.4441905538,
				"z": 1.8951076399,
				"element": "H" 
			},
			{
				"x": -1.1372177728,
				"y": -3.4341979535,
				"z": 3.2608314858,
				"element": "H" 
			},
			{
				"x": 1.1241151888,
				"y": -1.4165032694,
				"z": -0.3473009385,
				"element": "H" 
			},
			{
				"x": 2.5856705849,
				"y": 3.5513365913,
				"z": -2.8696951017,
				"element": "H" 
			},
			{
				"x": 1.5596736181,
				"y": 2.2213918211,
				"z": -3.4729908968,
				"element": "H" 
			},
			{
				"x": 3.5701009392,
				"y": 2.009139522,
				"z": -1.1666216979,
				"element": "H" 
			},
			{
				"x": 3.7863539667,
				"y": 1.3096117371,
				"z": -2.7936853698,
				"element": "H" 
			},
			{
				"x": -1.025647249,
				"y": 3.0452625834,
				"z": -0.1454052008,
				"element": "H" 
			},
			{
				"x": -2.0377146483,
				"y": 1.159687628,
				"z": 1.0791174891,
				"element": "H" 
			}
		],
		 "valence_orbital": [ 
			{
				"type": "occ",
				"energy": -0.28832,
				"method": "rhf"
			},
			{
				"type": "occ",
				"energy": -0.26919,
				"method": "rhf"
			},
			{
				"type": "occ",
				"energy": -0.24827,
				"method": "rhf"
			},
			{
				"type": "occ",
				"energy": -0.22406,
				"method": "rhf"
			},
			{
				"type": "occ",
				"energy": -0.19601,
				"method": "rhf"
			},
			{
				"type": "unocc",
				"energy": -0.01035,
				"method": "rhf"
			},
			{
				"type": "unocc",
				"energy": -0.0003,
				"method": "rhf"
			},
			{
				"type": "unocc",
				"energy": 0.00884,
				"method": "rhf"
			},
			{
				"type": "unocc",
				"energy": 0.05022,
				"method": "rhf"
			},
			{
				"type": "unocc",
				"energy": 0.06552,
				"method": "rhf"
			}
		],
		"cosmo_sigma_profile": { 
			"-0.025": 0.0,
			"-0.024": 0.0,
			"-0.023": 0.0,
			"-0.022": 0.0,
			"-0.021": 0.0,
			"-0.02": 0.0,
			"-0.019": 0.0697369993001,
			"-0.018": 1.12585494625,
			"-0.017": 0.765028334258,
			"-0.016": 0.92279626187,
			"-0.015": 0.801313188436,
			"-0.014": 0.969573654374,
			"-0.013": 0.0741814679034,
			"-0.012": 0.655111387748,
			"-0.011": 1.13836266927,
			"-0.01": 0.791349104304,
			"-0.009": 0.285736479652,
			"-0.008": 3.1344232442,
			"-0.007": 16.4623689853,
			"-0.006": 28.5342503976,
			"-0.005": 23.889723795,
			"-0.004": 21.3630406373,
			"-0.003": 16.9383533468,
			"-0.002": 10.9109549641,
			"-0.001": 13.0225852794,
			"0.0": 11.3247460614,
			"0.001": 11.9652390171,
			"0.002": 12.7021743208,
			"0.003": 15.8317514055,
			"0.004": 20.0999959058,
			"0.005": 14.0968465527,
			"0.006": 6.9830523825,
			"0.007": 6.84281897884,
			"0.008": 7.08449124615,
			"0.009": 6.36328985365,
			"0.01": 7.0607695044,
			"0.011": 7.90906164883,
			"0.012": 4.25437690775,
			"0.013": 3.14645315107,
			"0.014": 1.15091113746,
			"0.015": 0.0,
			"0.016": 0.0,
			"0.017": 0.0,
			"0.018": 0.0,
			"0.019": 0.0,
			"0.02": 0.0,
			"0.021": 0.0,
			"0.022": 0.0,
			"0.023": 0.0,
			"0.024": 0.0,
			"0.025": 0.0
		}
	}
}
