{
	 "smiles": "NC1=C(C=NN1C1=NC=CS1)C#N", 
	 "Tm": 439.15, 
	 "num_atms": 18, 
	 "gaussian": { 
		 "optdone": 1, 
		 "sigma_profile": "yes", 
		 "theory": "DFT", 
		 "functional": "B3LYP", 
		 "basiset": "6-31G**", 
		 "properties": { 
			 "R2extent": 3047.8, 
			 "electric_dipole_moment_norm": 5.42444604176, 
			 "electric_quadrupole_moment_norm": 14.5701884199, 
			 "total_energy": -941.657532778, 
			 "HOMO_LUMO_gap": 0.17383, 
			 "cosmo_polarized_energy": -13.73, 
			 "cosmo_cavitation_energy": 25.63, 
			 "cosmo_dispersion_energy": -19.31, 
			 "cosmo_repulsion_energy": 1.47, 
			 "cosmo_total_nonelectrostatic_energy": 7.79, 
			 "SMD_solvation_energy": 4.64 
		},
		"coords": [
			{
				"x": 2.254288617,
				"y": -0.9503436695,
				"z": -0.1818568529,
				"element": "N" 
			},
			{
				"x": 0.950875584,
				"y": -1.0556368866,
				"z": -0.5063555981,
				"element": "C" 
			},
			{
				"x": 0.1401190758,
				"y": -2.1770365857,
				"z": -0.7376778132,
				"element": "C" 
			},
			{
				"x": -1.1379044586,
				"y": -1.6382965761,
				"z": -1.0722944972,
				"element": "C" 
			},
			{
				"x": -1.1565256495,
				"y": -0.3242554454,
				"z": -1.0582646923,
				"element": "N" 
			},
			{
				"x": 0.1348878049,
				"y": 0.0342532464,
				"z": -0.7069923349,
				"element": "N" 
			},
			{
				"x": 0.4630252802,
				"y": 1.374306333,
				"z": -0.5770051901,
				"element": "C" 
			},
			{
				"x": 1.6463912158,
				"y": 1.7941600423,
				"z": -0.2192859077,
				"element": "N" 
			},
			{
				"x": 1.6629158919,
				"y": 3.1736209721,
				"z": -0.1782763256,
				"element": "C" 
			},
			{
				"x": 0.4946582867,
				"y": 3.7911955404,
				"z": -0.5037898884,
				"element": "C" 
			},
			{
				"x": -0.7299835802,
				"y": 2.6124714911,
				"z": -0.8927513084,
				"element": "S" 
			},
			{
				"x": 0.5571459928,
				"y": -3.5220044093,
				"z": -0.6422112011,
				"element": "C" 
			},
			{
				"x": 0.9336783545,
				"y": -4.6219735576,
				"z": -0.5517010987,
				"element": "N" 
			},
			{
				"x": 2.6225426418,
				"y": -0.0276425509,
				"z": 0.020248505,
				"element": "H" 
			},
			{
				"x": 2.76609751,
				"y": -1.7854220024,
				"z": 0.0523094256,
				"element": "H" 
			},
			{
				"x": -2.0332788765,
				"y": -2.1919990351,
				"z": -1.3201579816,
				"element": "H" 
			},
			{
				"x": 2.5791179258,
				"y": 3.6777889389,
				"z": 0.1031030899,
				"element": "H" 
			},
			{
				"x": 0.2771483837,
				"y": 4.8487141543,
				"z": -0.5389403302,
				"element": "H" 
			}
		],
		 "valence_orbital": [ 
			{
				"type": "occ",
				"energy": -0.31184,
				"method": "rhf"
			},
			{
				"type": "occ",
				"energy": -0.30874,
				"method": "rhf"
			},
			{
				"type": "occ",
				"energy": -0.29866,
				"method": "rhf"
			},
			{
				"type": "occ",
				"energy": -0.24126,
				"method": "rhf"
			},
			{
				"type": "occ",
				"energy": -0.22713,
				"method": "rhf"
			},
			{
				"type": "unocc",
				"energy": -0.0533,
				"method": "rhf"
			},
			{
				"type": "unocc",
				"energy": 0.00043,
				"method": "rhf"
			},
			{
				"type": "unocc",
				"energy": 0.00252,
				"method": "rhf"
			},
			{
				"type": "unocc",
				"energy": 0.01554,
				"method": "rhf"
			},
			{
				"type": "unocc",
				"energy": 0.02748,
				"method": "rhf"
			}
		],
		"cosmo_sigma_profile": { 
			"-0.025": 0.0,
			"-0.024": 0.0,
			"-0.023": 0.0,
			"-0.022": 0.0,
			"-0.021": 0.0,
			"-0.02": 0.0,
			"-0.019": 0.0,
			"-0.018": 0.0,
			"-0.017": 0.0,
			"-0.016": 0.184474212647,
			"-0.015": 1.02687146971,
			"-0.014": 1.12060935581,
			"-0.013": 0.890872068,
			"-0.012": 1.43882097806,
			"-0.011": 2.16701471001,
			"-0.01": 3.57722840626,
			"-0.009": 6.80264818235,
			"-0.008": 6.82242184497,
			"-0.007": 7.21117711719,
			"-0.006": 6.07584420073,
			"-0.005": 7.76170199292,
			"-0.004": 6.7069003882,
			"-0.003": 11.955086454,
			"-0.002": 13.2381157963,
			"-0.001": 15.3427080632,
			"0.0": 19.7148200989,
			"0.001": 19.9515990509,
			"0.002": 17.9511588653,
			"0.003": 13.4993471163,
			"0.004": 8.22022247165,
			"0.005": 5.76125808991,
			"0.006": 4.95464842402,
			"0.007": 4.28268059691,
			"0.008": 3.5344442842,
			"0.009": 5.28670474358,
			"0.01": 5.07288948388,
			"0.011": 4.21080432034,
			"0.012": 2.87255097254,
			"0.013": 2.45898324863,
			"0.014": 0.622934949661,
			"0.015": 0.0,
			"0.016": 0.0,
			"0.017": 0.0,
			"0.018": 0.0,
			"0.019": 0.0,
			"0.02": 0.0,
			"0.021": 0.0,
			"0.022": 0.0,
			"0.023": 0.0,
			"0.024": 0.0,
			"0.025": 0.0
		}
	}
}
