{
	 "smiles": "CS(=O)(=O)NC1=C(C=C(Cl)C=C1)C(O)=O", 
	 "Tm": 473.15, 
	 "num_atms": 23, 
	 "gaussian": { 
		 "optdone": 1, 
		 "sigma_profile": "yes", 
		 "theory": "DFT", 
		 "functional": "B3LYP", 
		 "basiset": "6-31G**", 
		 "properties": { 
			 "R2extent": 4928.8203, 
			 "electric_dipole_moment_norm": 4.8646384398, 
			 "electric_quadrupole_moment_norm": 13.911656823, 
			 "total_energy": -1523.64278825, 
			 "HOMO_LUMO_gap": 0.18151, 
			 "cosmo_polarized_energy": -21.53, 
			 "cosmo_cavitation_energy": 30.5, 
			 "cosmo_dispersion_energy": -22.61, 
			 "cosmo_repulsion_energy": 1.71, 
			 "cosmo_total_nonelectrostatic_energy": 9.61, 
			 "SMD_solvation_energy": 5.81 
		},
		"coords": [
			{
				"x": 2.3608028268,
				"y": 1.3326487256,
				"z": -0.969208652,
				"element": "C" 
			},
			{
				"x": 1.0373881904,
				"y": 1.2042700722,
				"z": 0.2381063671,
				"element": "S" 
			},
			{
				"x": 1.0141738535,
				"y": -0.1468097372,
				"z": 0.7939500628,
				"element": "O" 
			},
			{
				"x": 1.1068536575,
				"y": 2.3886906166,
				"z": 1.1004084878,
				"element": "O" 
			},
			{
				"x": -0.3608868972,
				"y": 1.3913836157,
				"z": -0.7689288967,
				"element": "N" 
			},
			{
				"x": -1.508776433,
				"y": 0.586959727,
				"z": -0.5187508083,
				"element": "C" 
			},
			{
				"x": -1.5792640622,
				"y": -0.7921784485,
				"z": -0.8157103292,
				"element": "C" 
			},
			{
				"x": -2.7549787636,
				"y": -1.4967626933,
				"z": -0.513367315,
				"element": "C" 
			},
			{
				"x": -3.8597154396,
				"y": -0.8471641898,
				"z": 0.0185375432,
				"element": "C" 
			},
			{
				"x": -5.3235957768,
				"y": -1.7510131054,
				"z": 0.3565083859,
				"element": "Cl" 
			},
			{
				"x": -3.814494799,
				"y": 0.5210957531,
				"z": 0.2834408734,
				"element": "C" 
			},
			{
				"x": -2.6375038349,
				"y": 1.2151192663,
				"z": 0.0305621369,
				"element": "C" 
			},
			{
				"x": -0.5249765405,
				"y": -1.6301190061,
				"z": -1.4643843911,
				"element": "C" 
			},
			{
				"x": 0.4211383171,
				"y": -0.9446265114,
				"z": -2.1516419925,
				"element": "O" 
			},
			{
				"x": -0.5370152257,
				"y": -2.8438026793,
				"z": -1.4553078919,
				"element": "O" 
			},
			{
				"x": 3.2957313472,
				"y": 1.2130019105,
				"z": -0.4186669,
				"element": "H" 
			},
			{
				"x": 2.2242986863,
				"y": 0.5436256141,
				"z": -1.7046608599,
				"element": "H" 
			},
			{
				"x": 2.317336301,
				"y": 2.3192318887,
				"z": -1.4318631818,
				"element": "H" 
			},
			{
				"x": -0.599022783,
				"y": 2.3796149058,
				"z": -0.72425225,
				"element": "H" 
			},
			{
				"x": -2.7806187645,
				"y": -2.5588744639,
				"z": -0.7234831551,
				"element": "H" 
			},
			{
				"x": -4.6758413356,
				"y": 1.0294731055,
				"z": 0.701976522,
				"element": "H" 
			},
			{
				"x": -2.5827260926,
				"y": 2.2718511912,
				"z": 0.2773149485,
				"element": "H" 
			},
			{
				"x": 0.9851935682,
				"y": -1.6371155574,
				"z": -2.5370787042,
				"element": "H" 
			}
		],
		 "valence_orbital": [ 
			{
				"type": "occ",
				"energy": -0.31391,
				"method": "rhf"
			},
			{
				"type": "occ",
				"energy": -0.30587,
				"method": "rhf"
			},
			{
				"type": "occ",
				"energy": -0.29188,
				"method": "rhf"
			},
			{
				"type": "occ",
				"energy": -0.27816,
				"method": "rhf"
			},
			{
				"type": "occ",
				"energy": -0.2451,
				"method": "rhf"
			},
			{
				"type": "unocc",
				"energy": -0.06359,
				"method": "rhf"
			},
			{
				"type": "unocc",
				"energy": -0.03253,
				"method": "rhf"
			},
			{
				"type": "unocc",
				"energy": 0.01848,
				"method": "rhf"
			},
			{
				"type": "unocc",
				"energy": 0.03729,
				"method": "rhf"
			},
			{
				"type": "unocc",
				"energy": 0.05217,
				"method": "rhf"
			}
		],
		"cosmo_sigma_profile": { 
			"-0.025": 0.0,
			"-0.024": 0.0,
			"-0.023": 0.0,
			"-0.022": 0.0,
			"-0.021": 0.0,
			"-0.02": 0.0,
			"-0.019": 0.0605000798988,
			"-0.018": 0.944372974927,
			"-0.017": 0.99018974213,
			"-0.016": 1.13891268684,
			"-0.015": 1.61035062537,
			"-0.014": 2.34427114536,
			"-0.013": 2.04164410608,
			"-0.012": 2.57784018028,
			"-0.011": 2.62917690616,
			"-0.01": 3.13494032481,
			"-0.009": 6.17049738906,
			"-0.008": 9.79539540295,
			"-0.007": 9.14613171634,
			"-0.006": 10.6130944318,
			"-0.005": 9.78477914144,
			"-0.004": 11.8475829473,
			"-0.003": 10.5205462798,
			"-0.002": 11.1020719995,
			"-0.001": 12.1919063419,
			"0.0": 16.7487492129,
			"0.001": 22.3029951295,
			"0.002": 13.328630408,
			"0.003": 11.7128833776,
			"0.004": 16.7315183112,
			"0.005": 6.63738841744,
			"0.006": 5.37388204856,
			"0.007": 5.50249629006,
			"0.008": 5.40280308598,
			"0.009": 6.46430121548,
			"0.01": 11.1966073014,
			"0.011": 13.7508057077,
			"0.012": 2.33474042312,
			"0.013": 0.0,
			"0.014": 0.0,
			"0.015": 0.0,
			"0.016": 0.0,
			"0.017": 0.0,
			"0.018": 0.0,
			"0.019": 0.0,
			"0.02": 0.0,
			"0.021": 0.0,
			"0.022": 0.0,
			"0.023": 0.0,
			"0.024": 0.0,
			"0.025": 0.0
		}
	}
}
