{
	 "smiles": "CC1=CC=CC2=C1NC=C2", 
	 "Tm": 357.65, 
	 "num_atms": 19, 
	 "gaussian": { 
		 "optdone": 1, 
		 "sigma_profile": "yes", 
		 "theory": "DFT", 
		 "functional": "B3LYP", 
		 "basiset": "6-31G**", 
		 "properties": { 
			 "R2extent": 1601.3902, 
			 "electric_dipole_moment_norm": 2.31237286786, 
			 "electric_quadrupole_moment_norm": 7.04905708304, 
			 "total_energy": -403.140787939, 
			 "HOMO_LUMO_gap": 0.19231, 
			 "cosmo_polarized_energy": -8.34, 
			 "cosmo_cavitation_energy": 21.97, 
			 "cosmo_dispersion_energy": -16.65, 
			 "cosmo_repulsion_energy": 1.33, 
			 "cosmo_total_nonelectrostatic_energy": 6.65, 
			 "SMD_solvation_energy": 3.75 
		},
		"coords": [
			{
				"x": -0.7437365688,
				"y": 0.8915055651,
				"z": -1.4404970698,
				"element": "C" 
			},
			{
				"x": -0.9924275685,
				"y": -0.061932188,
				"z": -0.2935737239,
				"element": "C" 
			},
			{
				"x": -2.2777883085,
				"y": -0.5097663306,
				"z": 0.011959548,
				"element": "C" 
			},
			{
				"x": -2.5313931825,
				"y": -1.3974042732,
				"z": 1.075390324,
				"element": "C" 
			},
			{
				"x": -1.5014502577,
				"y": -1.87195419,
				"z": 1.8765642368,
				"element": "C" 
			},
			{
				"x": -0.1888223266,
				"y": -1.4488944867,
				"z": 1.6075379955,
				"element": "C" 
			},
			{
				"x": 0.0386272167,
				"y": -0.5502320992,
				"z": 0.525006823,
				"element": "C" 
			},
			{
				"x": 1.3998384199,
				"y": -0.3028800684,
				"z": 0.4861265514,
				"element": "N" 
			},
			{
				"x": 2.0234633352,
				"y": -1.0093713073,
				"z": 1.4973321961,
				"element": "C" 
			},
			{
				"x": 1.0903111941,
				"y": -1.7203591154,
				"z": 2.2034703361,
				"element": "C" 
			},
			{
				"x": 0.3137988797,
				"y": 1.1495433304,
				"z": -1.5529592109,
				"element": "H" 
			},
			{
				"x": -1.2905796516,
				"y": 1.8309210939,
				"z": -1.3022866324,
				"element": "H" 
			},
			{
				"x": -1.0725337651,
				"y": 0.4616870178,
				"z": -2.3932767185,
				"element": "H" 
			},
			{
				"x": -3.1103994442,
				"y": -0.159451288,
				"z": -0.5938629668,
				"element": "H" 
			},
			{
				"x": -3.5531598645,
				"y": -1.7126654907,
				"z": 1.267154503,
				"element": "H" 
			},
			{
				"x": -1.7037618153,
				"y": -2.5565632703,
				"z": 2.6954269042,
				"element": "H" 
			},
			{
				"x": 1.8673433573,
				"y": 0.2962802686,
				"z": -0.172746636,
				"element": "H" 
			},
			{
				"x": 3.0942290277,
				"y": -0.9443304939,
				"z": 1.6293410193,
				"element": "H" 
			},
			{
				"x": 1.2885413228,
				"y": -2.362932674,
				"z": 3.0494925209,
				"element": "H" 
			}
		],
		 "valence_orbital": [ 
			{
				"type": "occ",
				"energy": -0.32576,
				"method": "rhf"
			},
			{
				"type": "occ",
				"energy": -0.31962,
				"method": "rhf"
			},
			{
				"type": "occ",
				"energy": -0.26313,
				"method": "rhf"
			},
			{
				"type": "occ",
				"energy": -0.21262,
				"method": "rhf"
			},
			{
				"type": "occ",
				"energy": -0.19371,
				"method": "rhf"
			},
			{
				"type": "unocc",
				"energy": -0.0014,
				"method": "rhf"
			},
			{
				"type": "unocc",
				"energy": 0.03669,
				"method": "rhf"
			},
			{
				"type": "unocc",
				"energy": 0.06781,
				"method": "rhf"
			},
			{
				"type": "unocc",
				"energy": 0.07438,
				"method": "rhf"
			},
			{
				"type": "unocc",
				"energy": 0.11789,
				"method": "rhf"
			}
		],
		"cosmo_sigma_profile": { 
			"-0.025": 0.0,
			"-0.024": 0.0,
			"-0.023": 0.0,
			"-0.022": 0.0,
			"-0.021": 0.0,
			"-0.02": 0.0,
			"-0.019": 0.0,
			"-0.018": 0.0,
			"-0.017": 0.0,
			"-0.016": 0.0,
			"-0.015": 0.727856605213,
			"-0.014": 1.32632847606,
			"-0.013": 1.35785622343,
			"-0.012": 1.67472613477,
			"-0.011": 1.00417477576,
			"-0.01": 1.136720776,
			"-0.009": 1.61700836386,
			"-0.008": 2.35207233588,
			"-0.007": 3.64084608059,
			"-0.006": 3.62019287847,
			"-0.005": 6.92643166672,
			"-0.004": 12.9952747773,
			"-0.003": 13.1901874577,
			"-0.002": 18.3798270111,
			"-0.001": 14.7935102725,
			"0.0": 15.0519610096,
			"0.001": 8.7936456231,
			"0.002": 7.99951763596,
			"0.003": 8.25323985825,
			"0.004": 8.41111274087,
			"0.005": 11.4681289364,
			"0.006": 12.6602429692,
			"0.007": 13.0424826674,
			"0.008": 4.82082132485,
			"0.009": 0.0,
			"0.01": 0.0,
			"0.011": 0.0,
			"0.012": 0.0,
			"0.013": 0.0,
			"0.014": 0.0,
			"0.015": 0.0,
			"0.016": 0.0,
			"0.017": 0.0,
			"0.018": 0.0,
			"0.019": 0.0,
			"0.02": 0.0,
			"0.021": 0.0,
			"0.022": 0.0,
			"0.023": 0.0,
			"0.024": 0.0,
			"0.025": 0.0
		}
	}
}
