{
	 "smiles": "ClCC(=O)NC1=C(C=CC=C1)C(=O)NC1CC1", 
	 "Tm": 444.15, 
	 "num_atms": 30, 
	 "gaussian": { 
		 "optdone": 1, 
		 "sigma_profile": "yes", 
		 "theory": "DFT", 
		 "functional": "B3LYP", 
		 "basiset": "6-31G**", 
		 "properties": { 
			 "R2extent": 5673.1403, 
			 "electric_dipole_moment_norm": 4.50062223809, 
			 "electric_quadrupole_moment_norm": 11.3012389485, 
			 "total_energy": -1185.25735324, 
			 "HOMO_LUMO_gap": 0.18302, 
			 "cosmo_polarized_energy": -14.53, 
			 "cosmo_cavitation_energy": 35.18, 
			 "cosmo_dispersion_energy": -25.32, 
			 "cosmo_repulsion_energy": 1.97, 
			 "cosmo_total_nonelectrostatic_energy": 11.83, 
			 "SMD_solvation_energy": 5.65 
		},
		"coords": [
			{
				"x": 0.0051675417,
				"y": -3.3839930356,
				"z": 2.8834105469,
				"element": "Cl" 
			},
			{
				"x": 0.6189956025,
				"y": -1.9074894637,
				"z": 3.7283585701,
				"element": "C" 
			},
			{
				"x": 0.4888259364,
				"y": -0.5633759787,
				"z": 3.0023407357,
				"element": "C" 
			},
			{
				"x": 1.0726635991,
				"y": 0.3826182378,
				"z": 3.5182818527,
				"element": "O" 
			},
			{
				"x": -0.2747216965,
				"y": -0.5299897214,
				"z": 1.8746006002,
				"element": "N" 
			},
			{
				"x": -0.5619714632,
				"y": 0.5873900736,
				"z": 1.0697765888,
				"element": "C" 
			},
			{
				"x": -1.1815153017,
				"y": 0.3835681721,
				"z": -0.195881076,
				"element": "C" 
			},
			{
				"x": -1.5402663602,
				"y": 1.5031224994,
				"z": -0.9615834911,
				"element": "C" 
			},
			{
				"x": -1.2669321831,
				"y": 2.7975060989,
				"z": -0.5321228485,
				"element": "C" 
			},
			{
				"x": -0.6098757017,
				"y": 2.9830236533,
				"z": 0.6842418513,
				"element": "C" 
			},
			{
				"x": -0.2594726073,
				"y": 1.896520799,
				"z": 1.4806710033,
				"element": "C" 
			},
			{
				"x": -1.510133192,
				"y": -0.9981690257,
				"z": -0.6645376686,
				"element": "C" 
			},
			{
				"x": -1.7734904964,
				"y": -1.9101588304,
				"z": 0.131195442,
				"element": "O" 
			},
			{
				"x": -1.5289259564,
				"y": -1.2767971502,
				"z": -2.0094082502,
				"element": "N" 
			},
			{
				"x": -0.8740006496,
				"y": -0.5775141629,
				"z": -3.0876305024,
				"element": "C" 
			},
			{
				"x": -0.950888194,
				"y": -1.1952423032,
				"z": -4.4556875001,
				"element": "C" 
			},
			{
				"x": -1.6842534767,
				"y": 0.0951739062,
				"z": -4.1741915169,
				"element": "C" 
			},
			{
				"x": 1.6769077652,
				"y": -2.0625978978,
				"z": 3.9380625285,
				"element": "H" 
			},
			{
				"x": 0.0836431587,
				"y": -1.8335125088,
				"z": 4.6766572265,
				"element": "H" 
			},
			{
				"x": -0.7386013354,
				"y": -1.3872928208,
				"z": 1.5631545867,
				"element": "H" 
			},
			{
				"x": -2.0565941175,
				"y": 1.350536895,
				"z": -1.9011721931,
				"element": "H" 
			},
			{
				"x": -1.5626493102,
				"y": 3.6476309676,
				"z": -1.138780738,
				"element": "H" 
			},
			{
				"x": -0.3764829982,
				"y": 3.9857601435,
				"z": 1.0308740678,
				"element": "H" 
			},
			{
				"x": 0.2418662434,
				"y": 2.0398096,
				"z": 2.4266532286,
				"element": "H" 
			},
			{
				"x": -1.7119850904,
				"y": -2.2622963419,
				"z": -2.1579373442,
				"element": "H" 
			},
			{
				"x": 0.063074786,
				"y": -0.1042806051,
				"z": -2.8068139396,
				"element": "H" 
			},
			{
				"x": -0.061230844,
				"y": -1.1731337252,
				"z": -5.0767137159,
				"element": "H" 
			},
			{
				"x": -1.5495137042,
				"y": -2.0953813252,
				"z": -4.568845456,
				"element": "H" 
			},
			{
				"x": -2.7652587204,
				"y": 0.0435729879,
				"z": -4.087096023,
				"element": "H" 
			},
			{
				"x": -1.3020812339,
				"y": 1.0167908624,
				"z": -4.6031765655,
				"element": "H" 
			}
		],
		 "valence_orbital": [ 
			{
				"type": "occ",
				"energy": -0.27245,
				"method": "rhf"
			},
			{
				"type": "occ",
				"energy": -0.25757,
				"method": "rhf"
			},
			{
				"type": "occ",
				"energy": -0.25457,
				"method": "rhf"
			},
			{
				"type": "occ",
				"energy": -0.25186,
				"method": "rhf"
			},
			{
				"type": "occ",
				"energy": -0.2278,
				"method": "rhf"
			},
			{
				"type": "unocc",
				"energy": -0.04478,
				"method": "rhf"
			},
			{
				"type": "unocc",
				"energy": -0.01771,
				"method": "rhf"
			},
			{
				"type": "unocc",
				"energy": 0.0244,
				"method": "rhf"
			},
			{
				"type": "unocc",
				"energy": 0.03797,
				"method": "rhf"
			},
			{
				"type": "unocc",
				"energy": 0.0464,
				"method": "rhf"
			}
		],
		"cosmo_sigma_profile": { 
			"-0.025": 0.0,
			"-0.024": 0.0,
			"-0.023": 0.0,
			"-0.022": 0.0,
			"-0.021": 0.0,
			"-0.02": 0.0,
			"-0.019": 0.0,
			"-0.018": 0.0,
			"-0.017": 0.0,
			"-0.016": 0.0,
			"-0.015": 0.0,
			"-0.014": 0.0177661241875,
			"-0.013": 0.721131575964,
			"-0.012": 1.17007871585,
			"-0.011": 0.502851062399,
			"-0.01": 1.55833979924,
			"-0.009": 5.07337974924,
			"-0.008": 4.80603711936,
			"-0.007": 6.17640754606,
			"-0.006": 12.9754804818,
			"-0.005": 20.180506878,
			"-0.004": 23.3770621359,
			"-0.003": 20.2339984478,
			"-0.002": 21.3587336676,
			"-0.001": 20.8512260565,
			"0.0": 20.9308219252,
			"0.001": 18.0910040468,
			"0.002": 19.1372464291,
			"0.003": 21.0353980591,
			"0.004": 18.2157460679,
			"0.005": 13.2626850257,
			"0.006": 6.82903650287,
			"0.007": 3.22192225291,
			"0.008": 3.30480476104,
			"0.009": 2.81855485315,
			"0.01": 3.62347603098,
			"0.011": 4.04172256854,
			"0.012": 5.49691866712,
			"0.013": 3.24888067694,
			"0.014": 0.413228619584,
			"0.015": 0.0,
			"0.016": 0.0,
			"0.017": 0.0,
			"0.018": 0.0,
			"0.019": 0.0,
			"0.02": 0.0,
			"0.021": 0.0,
			"0.022": 0.0,
			"0.023": 0.0,
			"0.024": 0.0,
			"0.025": 0.0
		}
	}
}
