{
	 "smiles": "COC(=O)C1=CC=C(Br)C(C)=C1", 
	 "Tm": 315.15, 
	 "num_atms": 21, 
	 "gaussian": { 
		 "optdone": 1, 
		 "sigma_profile": "yes", 
		 "theory": "DFT", 
		 "functional": "B3LYP", 
		 "basiset": "6-31G**", 
		 "properties": { 
			 "R2extent": 5290.2621, 
			 "electric_dipole_moment_norm": 1.35539026114, 
			 "electric_quadrupole_moment_norm": 8.67595628216, 
			 "total_energy": -3070.25395389, 
			 "HOMO_LUMO_gap": 0.19575, 
			 "cosmo_polarized_energy": -6.84, 
			 "cosmo_cavitation_energy": 27.53, 
			 "cosmo_dispersion_energy": -20.51, 
			 "cosmo_repulsion_energy": 1.63, 
			 "cosmo_total_nonelectrostatic_energy": 8.65, 
			 "SMD_solvation_energy": 5.3 
		},
		"coords": [
			{
				"x": 2.9720803758,
				"y": 1.5092576931,
				"z": -1.1402880149,
				"element": "C" 
			},
			{
				"x": 1.6863908904,
				"y": 1.4114556107,
				"z": -0.5092873274,
				"element": "O" 
			},
			{
				"x": 1.3631205771,
				"y": 0.1811997773,
				"z": -0.0486192869,
				"element": "C" 
			},
			{
				"x": 2.098319775,
				"y": -0.7813471267,
				"z": -0.1543267473,
				"element": "O" 
			},
			{
				"x": 0.018955377,
				"y": 0.1509512886,
				"z": 0.5933378016,
				"element": "C" 
			},
			{
				"x": -0.7951502884,
				"y": 1.285383984,
				"z": 0.693168464,
				"element": "C" 
			},
			{
				"x": -2.0405125151,
				"y": 1.1854058205,
				"z": 1.3060988009,
				"element": "C" 
			},
			{
				"x": -2.4631291862,
				"y": -0.0432837379,
				"z": 1.8136915855,
				"element": "C" 
			},
			{
				"x": -4.1853254436,
				"y": -0.1192655297,
				"z": 2.6457504523,
				"element": "Br" 
			},
			{
				"x": -1.6737311942,
				"y": -1.2024516805,
				"z": 1.731704257,
				"element": "C" 
			},
			{
				"x": -2.1245119852,
				"y": -2.5322775133,
				"z": 2.2779739153,
				"element": "C" 
			},
			{
				"x": -0.4281441471,
				"y": -1.070015021,
				"z": 1.1105019393,
				"element": "C" 
			},
			{
				"x": 3.071309287,
				"y": 2.5501419782,
				"z": -1.4479645231,
				"element": "H" 
			},
			{
				"x": 3.0271018426,
				"y": 0.8451919354,
				"z": -2.0065771514,
				"element": "H" 
			},
			{
				"x": 3.7660808648,
				"y": 1.2378207351,
				"z": -0.4400271616,
				"element": "H" 
			},
			{
				"x": -0.4562933079,
				"y": 2.2344906798,
				"z": 0.295210846,
				"element": "H" 
			},
			{
				"x": -2.6846125725,
				"y": 2.0528696836,
				"z": 1.39260456,
				"element": "H" 
			},
			{
				"x": -2.3229886515,
				"y": -2.4729250491,
				"z": 3.3533327179,
				"element": "H" 
			},
			{
				"x": -1.3616070239,
				"y": -3.2957583739,
				"z": 2.1092762315,
				"element": "H" 
			},
			{
				"x": -3.0547730601,
				"y": -2.8616270627,
				"z": 1.8031574994,
				"element": "H" 
			},
			{
				"x": 0.2237203863,
				"y": -1.9330180917,
				"z": 1.0191811419,
				"element": "H" 
			}
		],
		 "valence_orbital": [ 
			{
				"type": "occ",
				"energy": -0.30462,
				"method": "rhf"
			},
			{
				"type": "occ",
				"energy": -0.2916,
				"method": "rhf"
			},
			{
				"type": "occ",
				"energy": -0.27658,
				"method": "rhf"
			},
			{
				"type": "occ",
				"energy": -0.26155,
				"method": "rhf"
			},
			{
				"type": "occ",
				"energy": -0.24785,
				"method": "rhf"
			},
			{
				"type": "unocc",
				"energy": -0.0521,
				"method": "rhf"
			},
			{
				"type": "unocc",
				"energy": -0.01479,
				"method": "rhf"
			},
			{
				"type": "unocc",
				"energy": 0.00486,
				"method": "rhf"
			},
			{
				"type": "unocc",
				"energy": 0.04776,
				"method": "rhf"
			},
			{
				"type": "unocc",
				"energy": 0.105,
				"method": "rhf"
			}
		],
		"cosmo_sigma_profile": { 
			"-0.025": 0.0,
			"-0.024": 0.0,
			"-0.023": 0.0,
			"-0.022": 0.0,
			"-0.021": 0.0,
			"-0.02": 0.0,
			"-0.019": 0.0,
			"-0.018": 0.0,
			"-0.017": 0.0,
			"-0.016": 0.0,
			"-0.015": 0.0,
			"-0.014": 0.0,
			"-0.013": 0.0,
			"-0.012": 0.0,
			"-0.011": 0.0,
			"-0.01": 0.0,
			"-0.009": 0.0,
			"-0.008": 0.236314655598,
			"-0.007": 3.21970741861,
			"-0.006": 10.5103405357,
			"-0.005": 14.1973206738,
			"-0.004": 17.7739934966,
			"-0.003": 21.4377823381,
			"-0.002": 17.817466572,
			"-0.001": 19.9789229096,
			"0.0": 21.2968242497,
			"0.001": 21.1981968241,
			"0.002": 24.1396414903,
			"0.003": 16.6982644661,
			"0.004": 12.8605357436,
			"0.005": 5.66755916993,
			"0.006": 2.22460700052,
			"0.007": 0.827996533635,
			"0.008": 1.80646204518,
			"0.009": 1.59598406775,
			"0.01": 1.87596715854,
			"0.011": 2.94238892026,
			"0.012": 4.1783819936,
			"0.013": 0.0989821267887,
			"0.014": 0.0,
			"0.015": 0.0,
			"0.016": 0.0,
			"0.017": 0.0,
			"0.018": 0.0,
			"0.019": 0.0,
			"0.02": 0.0,
			"0.021": 0.0,
			"0.022": 0.0,
			"0.023": 0.0,
			"0.024": 0.0,
			"0.025": 0.0
		}
	}
}
