{
	 "smiles": "COC1=CC=C(C)C=C1", 
	 "Tm": 241.15, 
	 "num_atms": 19, 
	 "gaussian": { 
		 "optdone": 1, 
		 "sigma_profile": "yes", 
		 "theory": "DFT", 
		 "functional": "B3LYP", 
		 "basiset": "6-31G**", 
		 "properties": { 
			 "R2extent": 1551.3303, 
			 "electric_dipole_moment_norm": 1.15038877776, 
			 "electric_quadrupole_moment_norm": 7.52131414515, 
			 "total_energy": -386.095877116, 
			 "HOMO_LUMO_gap": 0.21263, 
			 "cosmo_polarized_energy": -5.08, 
			 "cosmo_cavitation_energy": 22.08, 
			 "cosmo_dispersion_energy": -16.49, 
			 "cosmo_repulsion_energy": 1.35, 
			 "cosmo_total_nonelectrostatic_energy": 6.94, 
			 "SMD_solvation_energy": 4.68 
		},
		"coords": [
			{
				"x": 1.3029789201,
				"y": 2.2473237334,
				"z": 2.8100393738,
				"element": "C" 
			},
			{
				"x": 1.7831940193,
				"y": 1.5465117417,
				"z": 1.6759411002,
				"element": "O" 
			},
			{
				"x": 0.9535034362,
				"y": 0.6340643559,
				"z": 1.084719814,
				"element": "C" 
			},
			{
				"x": 1.4780048173,
				"y": -0.0318045252,
				"z": -0.0337753234,
				"element": "C" 
			},
			{
				"x": 0.7136780154,
				"y": -0.9769728621,
				"z": -0.70407112,
				"element": "C" 
			},
			{
				"x": -0.5919818215,
				"y": -1.2935532619,
				"z": -0.2903134108,
				"element": "C" 
			},
			{
				"x": -1.4115005191,
				"y": -2.3248174874,
				"z": -1.030484574,
				"element": "C" 
			},
			{
				"x": -1.0954907745,
				"y": -0.6206492501,
				"z": 0.8239499891,
				"element": "C" 
			},
			{
				"x": -0.3422771786,
				"y": 0.3360085665,
				"z": 1.5147492791,
				"element": "C" 
			},
			{
				"x": 1.0617727711,
				"y": 1.5664352235,
				"z": 3.6371270576,
				"element": "H" 
			},
			{
				"x": 0.4138774366,
				"y": 2.8462311821,
				"z": 2.5719698949,
				"element": "H" 
			},
			{
				"x": 2.1103475494,
				"y": 2.9133510721,
				"z": 3.1191731695,
				"element": "H" 
			},
			{
				"x": 2.4858848954,
				"y": 0.2109280636,
				"z": -0.3550913444,
				"element": "H" 
			},
			{
				"x": 1.1379733898,
				"y": -1.48227884,
				"z": -1.5688129748,
				"element": "H" 
			},
			{
				"x": -1.5612513847,
				"y": -2.0435635117,
				"z": -2.0797394717,
				"element": "H" 
			},
			{
				"x": -0.9215592007,
				"y": -3.3058362597,
				"z": -1.0293492031,
				"element": "H" 
			},
			{
				"x": -2.3992595571,
				"y": -2.4480761188,
				"z": -0.5771892736,
				"element": "H" 
			},
			{
				"x": -2.1022419811,
				"y": -0.8418725697,
				"z": 1.1705323792,
				"element": "H" 
			},
			{
				"x": -0.7752528332,
				"y": 0.8330707481,
				"z": 2.3749246385,
				"element": "H" 
			}
		],
		 "valence_orbital": [ 
			{
				"type": "occ",
				"energy": -0.34483,
				"method": "rhf"
			},
			{
				"type": "occ",
				"energy": -0.31861,
				"method": "rhf"
			},
			{
				"type": "occ",
				"energy": -0.30544,
				"method": "rhf"
			},
			{
				"type": "occ",
				"energy": -0.24398,
				"method": "rhf"
			},
			{
				"type": "occ",
				"energy": -0.20792,
				"method": "rhf"
			},
			{
				"type": "unocc",
				"energy": 0.00471,
				"method": "rhf"
			},
			{
				"type": "unocc",
				"energy": 0.01954,
				"method": "rhf"
			},
			{
				"type": "unocc",
				"energy": 0.09511,
				"method": "rhf"
			},
			{
				"type": "unocc",
				"energy": 0.10821,
				"method": "rhf"
			},
			{
				"type": "unocc",
				"energy": 0.12777,
				"method": "rhf"
			}
		],
		"cosmo_sigma_profile": { 
			"-0.025": 0.0,
			"-0.024": 0.0,
			"-0.023": 0.0,
			"-0.022": 0.0,
			"-0.021": 0.0,
			"-0.02": 0.0,
			"-0.019": 0.0,
			"-0.018": 0.0,
			"-0.017": 0.0,
			"-0.016": 0.0,
			"-0.015": 0.0,
			"-0.014": 0.0,
			"-0.013": 0.0,
			"-0.012": 0.0,
			"-0.011": 0.0,
			"-0.01": 0.0,
			"-0.009": 0.0,
			"-0.008": 0.0,
			"-0.007": 0.0015507633599,
			"-0.006": 3.49388580796,
			"-0.005": 15.248230726,
			"-0.004": 19.1260348325,
			"-0.003": 23.4630486751,
			"-0.002": 16.1830222176,
			"-0.001": 14.4544267688,
			"0.0": 13.354423651,
			"0.001": 11.1809741521,
			"0.002": 9.3200617809,
			"0.003": 7.51819114006,
			"0.004": 11.4127157045,
			"0.005": 9.67337913021,
			"0.006": 11.2700754155,
			"0.007": 3.5927335566,
			"0.008": 1.21817443766,
			"0.009": 1.57151499473,
			"0.01": 1.6046851991,
			"0.011": 0.988467449113,
			"0.012": 0.0,
			"0.013": 0.0,
			"0.014": 0.0,
			"0.015": 0.0,
			"0.016": 0.0,
			"0.017": 0.0,
			"0.018": 0.0,
			"0.019": 0.0,
			"0.02": 0.0,
			"0.021": 0.0,
			"0.022": 0.0,
			"0.023": 0.0,
			"0.024": 0.0,
			"0.025": 0.0
		}
	}
}
