{
	 "smiles": "NC1=C(CC2=CC=CC=C2)C=C(Br)C=C1Br", 
	 "Tm": 468.15, 
	 "num_atms": 27, 
	 "gaussian": { 
		 "optdone": 1, 
		 "sigma_profile": "yes", 
		 "theory": "DFT", 
		 "functional": "B3LYP", 
		 "basiset": "6-31G**", 
		 "properties": { 
			 "R2extent": 9930.6058, 
			 "electric_dipole_moment_norm": 3.37895044355, 
			 "electric_quadrupole_moment_norm": 5.27940475338, 
			 "total_energy": -5699.58714477, 
			 "HOMO_LUMO_gap": 0.18762, 
			 "cosmo_polarized_energy": -7.8, 
			 "cosmo_cavitation_energy": 34.94, 
			 "cosmo_dispersion_energy": -25.72, 
			 "cosmo_repulsion_energy": 2.02, 
			 "cosmo_total_nonelectrostatic_energy": 11.24, 
			 "SMD_solvation_energy": 3.12 
		},
		"coords": [
			{
				"x": 1.2266583473,
				"y": -1.2196227598,
				"z": -0.7719210366,
				"element": "N" 
			},
			{
				"x": 1.7913830708,
				"y": 0.0155908081,
				"z": -0.500454504,
				"element": "C" 
			},
			{
				"x": 0.9685334701,
				"y": 1.1196647813,
				"z": -0.1534472895,
				"element": "C" 
			},
			{
				"x": -0.5344349761,
				"y": 0.9412340887,
				"z": -0.0642837795,
				"element": "C" 
			},
			{
				"x": -1.0218060186,
				"y": 0.0586589364,
				"z": 1.0808033444,
				"element": "C" 
			},
			{
				"x": -2.0168374946,
				"y": -0.9041992069,
				"z": 0.8615644962,
				"element": "C" 
			},
			{
				"x": -2.4958007526,
				"y": -1.6931672662,
				"z": 1.9107725158,
				"element": "C" 
			},
			{
				"x": -1.9835389934,
				"y": -1.5297048394,
				"z": 3.1977000785,
				"element": "C" 
			},
			{
				"x": -0.9896154611,
				"y": -0.5747645857,
				"z": 3.4277337733,
				"element": "C" 
			},
			{
				"x": -0.5118960794,
				"y": 0.2099965613,
				"z": 2.3787779097,
				"element": "C" 
			},
			{
				"x": 1.5418570447,
				"y": 2.3713893167,
				"z": 0.067693961,
				"element": "C" 
			},
			{
				"x": 2.917484362,
				"y": 2.5599033545,
				"z": -0.0530719862,
				"element": "C" 
			},
			{
				"x": 3.6726527592,
				"y": 4.2886379984,
				"z": 0.254720104,
				"element": "Br" 
			},
			{
				"x": 3.7460474846,
				"y": 1.4999735322,
				"z": -0.4000741518,
				"element": "C" 
			},
			{
				"x": 3.1748011716,
				"y": 0.248900582,
				"z": -0.6140520927,
				"element": "C" 
			},
			{
				"x": 4.3389610471,
				"y": -1.2030322498,
				"z": -1.0811751196,
				"element": "Br" 
			},
			{
				"x": 1.886258888,
				"y": -1.9840442039,
				"z": -0.8276964052,
				"element": "H" 
			},
			{
				"x": 0.3985847528,
				"y": -1.4467012959,
				"z": -0.2374897533,
				"element": "H" 
			},
			{
				"x": -0.9936152206,
				"y": 1.9325167377,
				"z": 0.0309187695,
				"element": "H" 
			},
			{
				"x": -0.902881056,
				"y": 0.522280114,
				"z": -1.0094810133,
				"element": "H" 
			},
			{
				"x": -2.424915471,
				"y": -1.0319597877,
				"z": -0.1387158075,
				"element": "H" 
			},
			{
				"x": -3.2671192536,
				"y": -2.4339365884,
				"z": 1.7196728388,
				"element": "H" 
			},
			{
				"x": -2.3527049563,
				"y": -2.1420166649,
				"z": 4.0152405198,
				"element": "H" 
			},
			{
				"x": -0.5837775166,
				"y": -0.4424248393,
				"z": 4.42673902,
				"element": "H" 
			},
			{
				"x": 0.26718014,
				"y": 0.9443732772,
				"z": 2.563594635,
				"element": "H" 
			},
			{
				"x": 0.9050749529,
				"y": 3.2105365089,
				"z": 0.3267735527,
				"element": "H" 
			},
			{
				"x": 4.8154657588,
				"y": 1.6352176907,
				"z": -0.4975425793,
				"element": "H" 
			}
		],
		 "valence_orbital": [ 
			{
				"type": "occ",
				"energy": -0.28186,
				"method": "rhf"
			},
			{
				"type": "occ",
				"energy": -0.25974,
				"method": "rhf"
			},
			{
				"type": "occ",
				"energy": -0.2548,
				"method": "rhf"
			},
			{
				"type": "occ",
				"energy": -0.24787,
				"method": "rhf"
			},
			{
				"type": "occ",
				"energy": -0.20889,
				"method": "rhf"
			},
			{
				"type": "unocc",
				"energy": -0.02127,
				"method": "rhf"
			},
			{
				"type": "unocc",
				"energy": -0.01601,
				"method": "rhf"
			},
			{
				"type": "unocc",
				"energy": -0.0104,
				"method": "rhf"
			},
			{
				"type": "unocc",
				"energy": -0.00549,
				"method": "rhf"
			},
			{
				"type": "unocc",
				"energy": -0.00215,
				"method": "rhf"
			}
		],
		"cosmo_sigma_profile": { 
			"-0.025": 0.0,
			"-0.024": 0.0,
			"-0.023": 0.0,
			"-0.022": 0.0,
			"-0.021": 0.0,
			"-0.02": 0.0,
			"-0.019": 0.0,
			"-0.018": 0.0,
			"-0.017": 0.0,
			"-0.016": 0.0,
			"-0.015": 0.0,
			"-0.014": 0.0,
			"-0.013": 0.0,
			"-0.012": 0.0514989430827,
			"-0.011": 0.70710847831,
			"-0.01": 1.35032608425,
			"-0.009": 2.09495591789,
			"-0.008": 1.38264825378,
			"-0.007": 5.20661535878,
			"-0.006": 10.7088269734,
			"-0.005": 19.4923697999,
			"-0.004": 21.7018082382,
			"-0.003": 23.2555735072,
			"-0.002": 18.9819227043,
			"-0.001": 20.0442111446,
			"0.0": 19.3941854057,
			"0.001": 21.5931183511,
			"0.002": 30.3467220811,
			"0.003": 33.3143012652,
			"0.004": 27.0280809579,
			"0.005": 20.0164980452,
			"0.006": 5.28393580423,
			"0.007": 0.767594622713,
			"0.008": 0.634040898203,
			"0.009": 0.844534249995,
			"0.01": 0.346980184284,
			"0.011": 0.349389993873,
			"0.012": 0.878370486869,
			"0.013": 0.140155544836,
			"0.014": 0.0,
			"0.015": 0.0,
			"0.016": 0.0,
			"0.017": 0.0,
			"0.018": 0.0,
			"0.019": 0.0,
			"0.02": 0.0,
			"0.021": 0.0,
			"0.022": 0.0,
			"0.023": 0.0,
			"0.024": 0.0,
			"0.025": 0.0
		}
	}
}
