{
	 "smiles": "CN(C1CCCC1)C(=O)C1=C(O)C=CC=C1", 
	 "Tm": 342.65, 
	 "num_atms": 33, 
	 "gaussian": { 
		 "optdone": 1, 
		 "sigma_profile": "yes", 
		 "theory": "DFT", 
		 "functional": "B3LYP", 
		 "basiset": "6-31G**", 
		 "properties": { 
			 "R2extent": 4258.4459, 
			 "electric_dipole_moment_norm": 2.42991028229, 
			 "electric_quadrupole_moment_norm": 10.0707718885, 
			 "total_energy": -710.841879295, 
			 "HOMO_LUMO_gap": 0.18896, 
			 "cosmo_polarized_energy": -9.99, 
			 "cosmo_cavitation_energy": 33.37, 
			 "cosmo_dispersion_energy": -24.16, 
			 "cosmo_repulsion_energy": 1.87, 
			 "cosmo_total_nonelectrostatic_energy": 11.07, 
			 "SMD_solvation_energy": 6.0 
		},
		"coords": [
			{
				"x": -1.8958583976,
				"y": 0.0853590655,
				"z": 1.2426750556,
				"element": "C" 
			},
			{
				"x": -1.189794465,
				"y": -0.4602100857,
				"z": 0.0685417976,
				"element": "N" 
			},
			{
				"x": -1.8978017735,
				"y": -1.6010578233,
				"z": -0.5595701675,
				"element": "C" 
			},
			{
				"x": -0.9951845838,
				"y": -2.5150092272,
				"z": -1.4466576388,
				"element": "C" 
			},
			{
				"x": -1.702777439,
				"y": -2.6049621728,
				"z": -2.8145412768,
				"element": "C" 
			},
			{
				"x": -3.184359577,
				"y": -2.3465626233,
				"z": -2.4896621745,
				"element": "C" 
			},
			{
				"x": -3.1245363204,
				"y": -1.2257117125,
				"z": -1.438747244,
				"element": "C" 
			},
			{
				"x": -0.485776579,
				"y": 0.4226497899,
				"z": -0.7671174863,
				"element": "C" 
			},
			{
				"x": -0.5210028466,
				"y": 0.328625572,
				"z": -1.9890790611,
				"element": "O" 
			},
			{
				"x": 0.4022065397,
				"y": 1.4258406573,
				"z": -0.0960909698,
				"element": "C" 
			},
			{
				"x": 1.1676991331,
				"y": 1.1213300363,
				"z": 1.0523349006,
				"element": "C" 
			},
			{
				"x": 1.1031701644,
				"y": -0.0771434129,
				"z": 1.6904776218,
				"element": "O" 
			},
			{
				"x": 2.0567285665,
				"y": 2.0739822681,
				"z": 1.5682622456,
				"element": "C" 
			},
			{
				"x": 2.1868348914,
				"y": 3.3137272978,
				"z": 0.9527012893,
				"element": "C" 
			},
			{
				"x": 1.4498358024,
				"y": 3.6207144819,
				"z": -0.1980054431,
				"element": "C" 
			},
			{
				"x": 0.5802329873,
				"y": 2.6711704556,
				"z": -0.7195073966,
				"element": "C" 
			},
			{
				"x": -2.9270024988,
				"y": 0.3554793433,
				"z": 0.9833810545,
				"element": "H" 
			},
			{
				"x": -1.3929326656,
				"y": 0.977406794,
				"z": 1.6120125686,
				"element": "H" 
			},
			{
				"x": -1.9246083013,
				"y": -0.6596127401,
				"z": 2.0434211265,
				"element": "H" 
			},
			{
				"x": -2.2489533747,
				"y": -2.1928003729,
				"z": 0.2929064138,
				"element": "H" 
			},
			{
				"x": -0.9267572316,
				"y": -3.5049800571,
				"z": -0.9819388073,
				"element": "H" 
			},
			{
				"x": 0.0209190496,
				"y": -2.1274564327,
				"z": -1.5347018785,
				"element": "H" 
			},
			{
				"x": -1.5336396893,
				"y": -3.5634289708,
				"z": -3.3152409639,
				"element": "H" 
			},
			{
				"x": -1.3286559801,
				"y": -1.8101522248,
				"z": -3.4664816806,
				"element": "H" 
			},
			{
				"x": -3.6413455693,
				"y": -3.2478529572,
				"z": -2.05888584,
				"element": "H" 
			},
			{
				"x": -3.777443,
				"y": -2.0703698657,
				"z": -3.3672532773,
				"element": "H" 
			},
			{
				"x": -2.9336706459,
				"y": -0.2699449723,
				"z": -1.9328753297,
				"element": "H" 
			},
			{
				"x": -4.0462967361,
				"y": -1.1338230789,
				"z": -0.854997204,
				"element": "H" 
			},
			{
				"x": 0.4725343872,
				"y": -0.6422859593,
				"z": 1.2054058603,
				"element": "H" 
			},
			{
				"x": 2.6368363615,
				"y": 1.8120341488,
				"z": 2.4469546131,
				"element": "H" 
			},
			{
				"x": 2.8759774462,
				"y": 4.0440176164,
				"z": 1.3675622307,
				"element": "H" 
			},
			{
				"x": 1.5628950065,
				"y": 4.5849948843,
				"z": -0.6828343652,
				"element": "H" 
			},
			{
				"x": 0.0168273389,
				"y": 2.8682322782,
				"z": -1.6260485731,
				"element": "H" 
			}
		],
		 "valence_orbital": [ 
			{
				"type": "occ",
				"energy": -0.31651,
				"method": "rhf"
			},
			{
				"type": "occ",
				"energy": -0.26825,
				"method": "rhf"
			},
			{
				"type": "occ",
				"energy": -0.25171,
				"method": "rhf"
			},
			{
				"type": "occ",
				"energy": -0.24423,
				"method": "rhf"
			},
			{
				"type": "occ",
				"energy": -0.22388,
				"method": "rhf"
			},
			{
				"type": "unocc",
				"energy": -0.03492,
				"method": "rhf"
			},
			{
				"type": "unocc",
				"energy": 0.00707,
				"method": "rhf"
			},
			{
				"type": "unocc",
				"energy": 0.03906,
				"method": "rhf"
			},
			{
				"type": "unocc",
				"energy": 0.07065,
				"method": "rhf"
			},
			{
				"type": "unocc",
				"energy": 0.09491,
				"method": "rhf"
			}
		],
		"cosmo_sigma_profile": { 
			"-0.025": 0.0,
			"-0.024": 0.0,
			"-0.023": 0.0,
			"-0.022": 0.0,
			"-0.021": 0.0,
			"-0.02": 0.0,
			"-0.019": 0.0,
			"-0.018": 0.0,
			"-0.017": 0.0,
			"-0.016": 0.0,
			"-0.015": 0.0,
			"-0.014": 0.0,
			"-0.013": 0.0,
			"-0.012": 0.0,
			"-0.011": 0.0,
			"-0.01": 0.220545919139,
			"-0.009": 0.65555283207,
			"-0.008": 2.07996597301,
			"-0.007": 2.15642512985,
			"-0.006": 8.38610894265,
			"-0.005": 15.6583433431,
			"-0.004": 21.4792258297,
			"-0.003": 29.6327314875,
			"-0.002": 31.844794392,
			"-0.001": 24.1022011332,
			"0.0": 24.9304198981,
			"0.001": 25.0487698805,
			"0.002": 15.7990565869,
			"0.003": 11.79394637,
			"0.004": 12.3626461145,
			"0.005": 11.050813814,
			"0.006": 2.84144358251,
			"0.007": 3.1692790151,
			"0.008": 4.30512474665,
			"0.009": 2.87973585899,
			"0.01": 3.00002307378,
			"0.011": 3.69740186168,
			"0.012": 2.31305524921,
			"0.013": 1.65753230935,
			"0.014": 0.970655012669,
			"0.015": 0.0,
			"0.016": 0.0,
			"0.017": 0.0,
			"0.018": 0.0,
			"0.019": 0.0,
			"0.02": 0.0,
			"0.021": 0.0,
			"0.022": 0.0,
			"0.023": 0.0,
			"0.024": 0.0,
			"0.025": 0.0
		}
	}
}
