{
	 "smiles": "NC1=C(F)C=C(F)C=N1", 
	 "Tm": 330.15, 
	 "num_atms": 13, 
	 "gaussian": { 
		 "optdone": 1, 
		 "sigma_profile": "yes", 
		 "theory": "DFT", 
		 "functional": "B3LYP", 
		 "basiset": "6-31G**", 
		 "properties": { 
			 "R2extent": 1436.5352, 
			 "electric_dipole_moment_norm": 1.74491325286, 
			 "electric_quadrupole_moment_norm": 3.82780469852, 
			 "total_energy": -502.109837522, 
			 "HOMO_LUMO_gap": 0.18774, 
			 "cosmo_polarized_energy": -7.35, 
			 "cosmo_cavitation_energy": 18.43, 
			 "cosmo_dispersion_energy": -13.71, 
			 "cosmo_repulsion_energy": 1.09, 
			 "cosmo_total_nonelectrostatic_energy": 5.81, 
			 "SMD_solvation_energy": 2.86 
		},
		"coords": [
			{
				"x": 1.7437329258,
				"y": 1.2203358934,
				"z": 0.7768658763,
				"element": "N" 
			},
			{
				"x": 0.9676697465,
				"y": 0.079485427,
				"z": 0.7388895538,
				"element": "C" 
			},
			{
				"x": -0.3418634003,
				"y": 0.089894266,
				"z": 1.2617554953,
				"element": "C" 
			},
			{
				"x": -0.8344571491,
				"y": 1.261122931,
				"z": 1.7293349664,
				"element": "F" 
			},
			{
				"x": -1.1084532289,
				"y": -1.0549626667,
				"z": 1.2841853382,
				"element": "C" 
			},
			{
				"x": -0.520971809,
				"y": -2.2123560948,
				"z": 0.769844017,
				"element": "C" 
			},
			{
				"x": -1.2183311062,
				"y": -3.3671273962,
				"z": 0.7650839048,
				"element": "F" 
			},
			{
				"x": 0.7668990971,
				"y": -2.1698782326,
				"z": 0.2601771403,
				"element": "C" 
			},
			{
				"x": 1.4936167488,
				"y": -1.0425048648,
				"z": 0.2422797656,
				"element": "N" 
			},
			{
				"x": 1.2476103691,
				"y": 2.0980366904,
				"z": 0.8185464377,
				"element": "H" 
			},
			{
				"x": 2.5408134054,
				"y": 1.1997071188,
				"z": 0.1569868214,
				"element": "H" 
			},
			{
				"x": -2.1165677157,
				"y": -1.0527140013,
				"z": 1.6816674541,
				"element": "H" 
			},
			{
				"x": 1.2226021165,
				"y": -3.0676390704,
				"z": -0.149016771,
				"element": "H" 
			}
		],
		 "valence_orbital": [ 
			{
				"type": "occ",
				"energy": -0.37885,
				"method": "rhf"
			},
			{
				"type": "occ",
				"energy": -0.31947,
				"method": "rhf"
			},
			{
				"type": "occ",
				"energy": -0.28522,
				"method": "rhf"
			},
			{
				"type": "occ",
				"energy": -0.27176,
				"method": "rhf"
			},
			{
				"type": "occ",
				"energy": -0.21576,
				"method": "rhf"
			},
			{
				"type": "unocc",
				"energy": -0.02802,
				"method": "rhf"
			},
			{
				"type": "unocc",
				"energy": 0.00768,
				"method": "rhf"
			},
			{
				"type": "unocc",
				"energy": 0.07837,
				"method": "rhf"
			},
			{
				"type": "unocc",
				"energy": 0.09358,
				"method": "rhf"
			},
			{
				"type": "unocc",
				"energy": 0.13371,
				"method": "rhf"
			}
		],
		"cosmo_sigma_profile": { 
			"-0.025": 0.0,
			"-0.024": 0.0,
			"-0.023": 0.0,
			"-0.022": 0.0,
			"-0.021": 0.0,
			"-0.02": 0.0,
			"-0.019": 0.0,
			"-0.018": 0.0,
			"-0.017": 0.0,
			"-0.016": 0.0,
			"-0.015": 0.0,
			"-0.014": 0.0687878812945,
			"-0.013": 1.40326103496,
			"-0.012": 2.19699639442,
			"-0.011": 2.31577458531,
			"-0.01": 1.7561055579,
			"-0.009": 3.51160942199,
			"-0.008": 4.58322588809,
			"-0.007": 4.77306102256,
			"-0.006": 5.06964292222,
			"-0.005": 4.83370606754,
			"-0.004": 4.65123614498,
			"-0.003": 4.76284712777,
			"-0.002": 5.89168540149,
			"-0.001": 11.5012847238,
			"0.0": 19.7580852949,
			"0.001": 14.1571524942,
			"0.002": 8.27538788647,
			"0.003": 12.2331165761,
			"0.004": 17.0984183463,
			"0.005": 3.8920043031,
			"0.006": 2.86170677551,
			"0.007": 2.38458717796,
			"0.008": 1.72768629092,
			"0.009": 1.4067934778,
			"0.01": 1.67148805013,
			"0.011": 1.87716751612,
			"0.012": 1.47430629606,
			"0.013": 0.802358544643,
			"0.014": 0.704726143749,
			"0.015": 0.436941857845,
			"0.016": 0.0100856128752,
			"0.017": 0.0,
			"0.018": 0.0,
			"0.019": 0.0,
			"0.02": 0.0,
			"0.021": 0.0,
			"0.022": 0.0,
			"0.023": 0.0,
			"0.024": 0.0,
			"0.025": 0.0
		}
	}
}
