{
	 "smiles": "CC(C)(C)C(=O)NC1=CC=NC=C1C=O", 
	 "Tm": 335.15, 
	 "num_atms": 29, 
	 "gaussian": { 
		 "optdone": 1, 
		 "sigma_profile": "yes", 
		 "theory": "DFT", 
		 "functional": "B3LYP", 
		 "basiset": "6-31G**", 
		 "properties": { 
			 "R2extent": 4323.6502, 
			 "electric_dipole_moment_norm": 7.29823311837, 
			 "electric_quadrupole_moment_norm": 10.9106635742, 
			 "total_energy": -687.566395895, 
			 "HOMO_LUMO_gap": 0.18072, 
			 "cosmo_polarized_energy": -19.3, 
			 "cosmo_cavitation_energy": 32.16, 
			 "cosmo_dispersion_energy": -22.25, 
			 "cosmo_repulsion_energy": 1.72, 
			 "cosmo_total_nonelectrostatic_energy": 11.63, 
			 "SMD_solvation_energy": 5.51 
		},
		"coords": [
			{
				"x": -1.8771600594,
				"y": -0.7676039315,
				"z": -2.983536549,
				"element": "C" 
			},
			{
				"x": -2.5979183856,
				"y": -1.3563467697,
				"z": -1.7493354588,
				"element": "C" 
			},
			{
				"x": -2.239902264,
				"y": -2.8524605837,
				"z": -1.5888566086,
				"element": "C" 
			},
			{
				"x": -4.1188097774,
				"y": -1.2111684783,
				"z": -1.921673854,
				"element": "C" 
			},
			{
				"x": -2.1830985365,
				"y": -0.5811280627,
				"z": -0.477802468,
				"element": "C" 
			},
			{
				"x": -2.9816668535,
				"y": -0.0186036245,
				"z": 0.2503402747,
				"element": "O" 
			},
			{
				"x": -0.8098707115,
				"y": -0.5588922036,
				"z": -0.224432311,
				"element": "N" 
			},
			{
				"x": -0.2136079088,
				"y": -0.1704707746,
				"z": 0.9938038365,
				"element": "C" 
			},
			{
				"x": 0.7577412969,
				"y": -1.0065355882,
				"z": 1.5603970132,
				"element": "C" 
			},
			{
				"x": 1.3394297062,
				"y": -0.6479528173,
				"z": 2.7714989899,
				"element": "C" 
			},
			{
				"x": 1.0180243442,
				"y": 0.4588515574,
				"z": 3.4583687922,
				"element": "N" 
			},
			{
				"x": 0.1049570835,
				"y": 1.2559865897,
				"z": 2.9024551134,
				"element": "C" 
			},
			{
				"x": -0.5321547145,
				"y": 1.0206735031,
				"z": 1.6722897026,
				"element": "C" 
			},
			{
				"x": -1.4056542585,
				"y": 2.0930689395,
				"z": 1.1226814347,
				"element": "C" 
			},
			{
				"x": -1.7876503013,
				"y": 3.0384982245,
				"z": 1.7851694775,
				"element": "O" 
			},
			{
				"x": -2.2154721649,
				"y": -1.283887796,
				"z": -3.887858179,
				"element": "H" 
			},
			{
				"x": -2.1000431732,
				"y": 0.2974413921,
				"z": -3.1013339146,
				"element": "H" 
			},
			{
				"x": -0.7889371436,
				"y": -0.8784343926,
				"z": -2.9317690599,
				"element": "H" 
			},
			{
				"x": -2.7091756619,
				"y": -3.2790096309,
				"z": -0.6967686443,
				"element": "H" 
			},
			{
				"x": -2.5988136663,
				"y": -3.4124650409,
				"z": -2.4583125433,
				"element": "H" 
			},
			{
				"x": -1.1599247354,
				"y": -3.0262339051,
				"z": -1.5187072281,
				"element": "H" 
			},
			{
				"x": -4.6537895715,
				"y": -1.6119603928,
				"z": -1.0576687711,
				"element": "H" 
			},
			{
				"x": -4.4051450552,
				"y": -0.1618115699,
				"z": -2.0255973206,
				"element": "H" 
			},
			{
				"x": -4.4426498361,
				"y": -1.7519161795,
				"z": -2.8167014146,
				"element": "H" 
			},
			{
				"x": -0.256309197,
				"y": -1.2047947443,
				"z": -0.7701643468,
				"element": "H" 
			},
			{
				"x": 1.0356907924,
				"y": -1.9378870625,
				"z": 1.0745238719,
				"element": "H" 
			},
			{
				"x": 2.0934001991,
				"y": -1.2916831844,
				"z": 3.2208736442,
				"element": "H" 
			},
			{
				"x": -0.1489875514,
				"y": 2.1694847886,
				"z": 3.4344890698,
				"element": "H" 
			},
			{
				"x": -1.6423018946,
				"y": 2.0191417383,
				"z": 0.0472274512,
				"element": "H" 
			}
		],
		 "valence_orbital": [ 
			{
				"type": "occ",
				"energy": -0.27847,
				"method": "rhf"
			},
			{
				"type": "occ",
				"energy": -0.27131,
				"method": "rhf"
			},
			{
				"type": "occ",
				"energy": -0.26568,
				"method": "rhf"
			},
			{
				"type": "occ",
				"energy": -0.26217,
				"method": "rhf"
			},
			{
				"type": "occ",
				"energy": -0.24461,
				"method": "rhf"
			},
			{
				"type": "unocc",
				"energy": -0.06389,
				"method": "rhf"
			},
			{
				"type": "unocc",
				"energy": -0.03496,
				"method": "rhf"
			},
			{
				"type": "unocc",
				"energy": 0.00921,
				"method": "rhf"
			},
			{
				"type": "unocc",
				"energy": 0.03114,
				"method": "rhf"
			},
			{
				"type": "unocc",
				"energy": 0.03854,
				"method": "rhf"
			}
		],
		"cosmo_sigma_profile": { 
			"-0.025": 0.0,
			"-0.024": 0.0,
			"-0.023": 0.0,
			"-0.022": 0.0,
			"-0.021": 0.0,
			"-0.02": 0.0,
			"-0.019": 0.0,
			"-0.018": 0.0,
			"-0.017": 0.0,
			"-0.016": 0.0278790749694,
			"-0.015": 1.01427234542,
			"-0.014": 1.48365683317,
			"-0.013": 1.37505687758,
			"-0.012": 1.59476487168,
			"-0.011": 1.67825513693,
			"-0.01": 1.86351790775,
			"-0.009": 1.59125408991,
			"-0.008": 3.5971574379,
			"-0.007": 5.8929407447,
			"-0.006": 8.40312734549,
			"-0.005": 8.99958495198,
			"-0.004": 21.0128905863,
			"-0.003": 24.7486212493,
			"-0.002": 23.231000118,
			"-0.001": 25.445625753,
			"0.0": 32.5406223636,
			"0.001": 22.6738018102,
			"0.002": 7.29332580437,
			"0.003": 5.86259727959,
			"0.004": 5.55253594945,
			"0.005": 5.55597394333,
			"0.006": 4.86473633368,
			"0.007": 4.43462043689,
			"0.008": 5.68845561214,
			"0.009": 3.94206696236,
			"0.01": 6.11226376739,
			"0.011": 6.94993801599,
			"0.012": 5.70718369799,
			"0.013": 1.95159755882,
			"0.014": 1.4498441931,
			"0.015": 0.663446554434,
			"0.016": 0.633815489044,
			"0.017": 0.0841314256432,
			"0.018": 0.0,
			"0.019": 0.0,
			"0.02": 0.0,
			"0.021": 0.0,
			"0.022": 0.0,
			"0.023": 0.0,
			"0.024": 0.0,
			"0.025": 0.0
		}
	}
}
