{
	 "smiles": "O=C1C=C(C(=O)C=C1C1=CC=CC=C1)C1=CC=CC=C1", 
	 "Tm": 490.15, 
	 "num_atms": 32, 
	 "gaussian": { 
		 "optdone": 1, 
		 "sigma_profile": "yes", 
		 "theory": "DFT", 
		 "functional": "B3LYP", 
		 "basiset": "6-31G**", 
		 "properties": { 
			 "R2extent": 7552.7775, 
			 "electric_dipole_moment_norm": 0.1602681191, 
			 "electric_quadrupole_moment_norm": 21.0182161498, 
			 "total_energy": -843.569288518, 
			 "HOMO_LUMO_gap": 0.11849, 
			 "cosmo_polarized_energy": -11.24, 
			 "cosmo_cavitation_energy": 36.93, 
			 "cosmo_dispersion_energy": -26.73, 
			 "cosmo_repulsion_energy": 2.0, 
			 "cosmo_total_nonelectrostatic_energy": 12.2, 
			 "SMD_solvation_energy": 6.96 
		},
		"coords": [
			{
				"x": -0.0635947174,
				"y": 1.3674177088,
				"z": -2.7886530141,
				"element": "O" 
			},
			{
				"x": -0.0824942901,
				"y": 0.7772436694,
				"z": -1.7127348946,
				"element": "C" 
			},
			{
				"x": -1.25717426,
				"y": 0.9068421816,
				"z": -0.8280286537,
				"element": "C" 
			},
			{
				"x": -1.3932869909,
				"y": 0.273964576,
				"z": 0.3609041853,
				"element": "C" 
			},
			{
				"x": -0.2506653073,
				"y": -0.5920660065,
				"z": 0.820596477,
				"element": "C" 
			},
			{
				"x": -0.2818476319,
				"y": -1.2055780735,
				"z": 1.8830901998,
				"element": "O" 
			},
			{
				"x": 0.9373720092,
				"y": -0.6962890443,
				"z": -0.0495063235,
				"element": "C" 
			},
			{
				"x": 1.0601451924,
				"y": -0.0887619694,
				"z": -1.2530300585,
				"element": "C" 
			},
			{
				"x": 2.2528264761,
				"y": -0.2683531109,
				"z": -2.1083228557,
				"element": "C" 
			},
			{
				"x": 2.786034316,
				"y": 0.7878749783,
				"z": -2.8704650308,
				"element": "C" 
			},
			{
				"x": 3.9408864686,
				"y": 0.5987249789,
				"z": -3.6271471775,
				"element": "C" 
			},
			{
				"x": 4.5767422242,
				"y": -0.6439165982,
				"z": -3.6511595329,
				"element": "C" 
			},
			{
				"x": 4.0497154129,
				"y": -1.7040326771,
				"z": -2.9103781718,
				"element": "C" 
			},
			{
				"x": 2.9001793755,
				"y": -1.5176372303,
				"z": -2.1470496181,
				"element": "C" 
			},
			{
				"x": -2.6148038167,
				"y": 0.3987372292,
				"z": 1.1846741748,
				"element": "C" 
			},
			{
				"x": -3.8714800539,
				"y": 0.4901569882,
				"z": 0.5572330131,
				"element": "C" 
			},
			{
				"x": -5.0345429397,
				"y": 0.6506261744,
				"z": 1.3058190763,
				"element": "C" 
			},
			{
				"x": -4.9651177914,
				"y": 0.7236703809,
				"z": 2.6987325852,
				"element": "C" 
			},
			{
				"x": -3.7258635184,
				"y": 0.6276657298,
				"z": 3.3344013418,
				"element": "C" 
			},
			{
				"x": -2.5600172806,
				"y": 0.459656365,
				"z": 2.5896931119,
				"element": "C" 
			},
			{
				"x": -2.0251205471,
				"y": 1.5737504799,
				"z": -1.2080981904,
				"element": "H" 
			},
			{
				"x": 1.7341208517,
				"y": -1.3084388396,
				"z": 0.3621048964,
				"element": "H" 
			},
			{
				"x": 2.2963610968,
				"y": 1.7528395532,
				"z": -2.8644037896,
				"element": "H" 
			},
			{
				"x": 4.3444660531,
				"y": 1.4272730714,
				"z": -4.2017798333,
				"element": "H" 
			},
			{
				"x": 5.4726434331,
				"y": -0.7876453831,
				"z": -4.248210957,
				"element": "H" 
			},
			{
				"x": 4.5283780528,
				"y": -2.6786548195,
				"z": -2.9338251732,
				"element": "H" 
			},
			{
				"x": 2.480576187,
				"y": -2.3532372414,
				"z": -1.5949794625,
				"element": "H" 
			},
			{
				"x": -3.9354415893,
				"y": 0.4070652852,
				"z": -0.5235478737,
				"element": "H" 
			},
			{
				"x": -5.9951001558,
				"y": 0.7095476982,
				"z": 0.8024168667,
				"element": "H" 
			},
			{
				"x": -5.8713621682,
				"y": 0.847560009,
				"z": 3.2845137337,
				"element": "H" 
			},
			{
				"x": -3.6645199205,
				"y": 0.6824050967,
				"z": 4.4173656596,
				"element": "H" 
			},
			{
				"x": -1.6051141704,
				"y": 0.3787888394,
				"z": 3.0922752894,
				"element": "H" 
			}
		],
		 "valence_orbital": [ 
			{
				"type": "occ",
				"energy": -0.26298,
				"method": "rhf"
			},
			{
				"type": "occ",
				"energy": -0.25608,
				"method": "rhf"
			},
			{
				"type": "occ",
				"energy": -0.25565,
				"method": "rhf"
			},
			{
				"type": "occ",
				"energy": -0.25013,
				"method": "rhf"
			},
			{
				"type": "occ",
				"energy": -0.24079,
				"method": "rhf"
			},
			{
				"type": "unocc",
				"energy": -0.1223,
				"method": "rhf"
			},
			{
				"type": "unocc",
				"energy": -0.04887,
				"method": "rhf"
			},
			{
				"type": "unocc",
				"energy": -0.00855,
				"method": "rhf"
			},
			{
				"type": "unocc",
				"energy": -0.00769,
				"method": "rhf"
			},
			{
				"type": "unocc",
				"energy": -0.00621,
				"method": "rhf"
			}
		],
		"cosmo_sigma_profile": { 
			"-0.025": 0.0,
			"-0.024": 0.0,
			"-0.023": 0.0,
			"-0.022": 0.0,
			"-0.021": 0.0,
			"-0.02": 0.0,
			"-0.019": 0.0,
			"-0.018": 0.0,
			"-0.017": 0.0,
			"-0.016": 0.0,
			"-0.015": 0.0,
			"-0.014": 0.0,
			"-0.013": 0.0,
			"-0.012": 0.0,
			"-0.011": 0.0,
			"-0.01": 0.0,
			"-0.009": 0.0,
			"-0.008": 0.605963156185,
			"-0.007": 6.50772656471,
			"-0.006": 18.0363325767,
			"-0.005": 27.7065846051,
			"-0.004": 31.9163315225,
			"-0.003": 22.7945301824,
			"-0.002": 24.2297398361,
			"-0.001": 22.0610370248,
			"0.0": 18.4788594458,
			"0.001": 19.0834257829,
			"0.002": 16.5780880793,
			"0.003": 17.6532542213,
			"0.004": 23.6831995344,
			"0.005": 18.6925547073,
			"0.006": 3.24768408827,
			"0.007": 3.67836378405,
			"0.008": 4.84944873947,
			"0.009": 3.89551149513,
			"0.01": 6.29527471014,
			"0.011": 5.99024336055,
			"0.012": 1.88871478992,
			"0.013": 0.0,
			"0.014": 0.0,
			"0.015": 0.0,
			"0.016": 0.0,
			"0.017": 0.0,
			"0.018": 0.0,
			"0.019": 0.0,
			"0.02": 0.0,
			"0.021": 0.0,
			"0.022": 0.0,
			"0.023": 0.0,
			"0.024": 0.0,
			"0.025": 0.0
		}
	}
}
