{
	 "smiles": "COC1=C(C=CC(CC#N)=C1)[N+]([O-])=O", 
	 "Tm": 358.15, 
	 "num_atms": 22, 
	 "gaussian": { 
		 "optdone": 1, 
		 "sigma_profile": "yes", 
		 "theory": "DFT", 
		 "functional": "B3LYP", 
		 "basiset": "6-31G**", 
		 "properties": { 
			 "R2extent": 3277.2894, 
			 "electric_dipole_moment_norm": 3.54903061976, 
			 "electric_quadrupole_moment_norm": 26.2936097444, 
			 "total_energy": -682.810334046, 
			 "HOMO_LUMO_gap": 0.18024, 
			 "cosmo_polarized_energy": -16.26, 
			 "cosmo_cavitation_energy": 28.12, 
			 "cosmo_dispersion_energy": -19.57, 
			 "cosmo_repulsion_energy": 1.54, 
			 "cosmo_total_nonelectrostatic_energy": 10.09, 
			 "SMD_solvation_energy": 9.02 
		},
		"coords": [
			{
				"x": 1.8419135501,
				"y": 2.9988898782,
				"z": 0.8062323917,
				"element": "C" 
			},
			{
				"x": 1.8829683809,
				"y": 1.6335194167,
				"z": 1.2486978995,
				"element": "O" 
			},
			{
				"x": 1.1420380188,
				"y": 0.7485587071,
				"z": 0.5292636298,
				"element": "C" 
			},
			{
				"x": 1.7124342454,
				"y": -0.112293977,
				"z": -0.4248408154,
				"element": "C" 
			},
			{
				"x": 0.9478746074,
				"y": -1.1016700719,
				"z": -1.0469768359,
				"element": "C" 
			},
			{
				"x": -0.4047433822,
				"y": -1.2159039494,
				"z": -0.7597491454,
				"element": "C" 
			},
			{
				"x": -1.0003525513,
				"y": -0.359759033,
				"z": 0.1784051722,
				"element": "C" 
			},
			{
				"x": -2.4786108078,
				"y": -0.5472204224,
				"z": 0.500320394,
				"element": "C" 
			},
			{
				"x": -3.0882031449,
				"y": 0.5631012986,
				"z": 1.2349570229,
				"element": "C" 
			},
			{
				"x": -3.5626658052,
				"y": 1.4445514622,
				"z": 1.8215119601,
				"element": "N" 
			},
			{
				"x": -0.2215747763,
				"y": 0.6031752058,
				"z": 0.8176897528,
				"element": "C" 
			},
			{
				"x": 3.1267373279,
				"y": -0.017160448,
				"z": -0.8055723855,
				"element": "N" 
			},
			{
				"x": 3.6711981248,
				"y": 1.0833642284,
				"z": -0.7492046421,
				"element": "O" 
			},
			{
				"x": 3.6739417426,
				"y": -1.0529393999,
				"z": -1.1855561429,
				"element": "O" 
			},
			{
				"x": 2.4208479925,
				"y": 3.5663600561,
				"z": 1.5356452768,
				"element": "H" 
			},
			{
				"x": 2.3003612588,
				"y": 3.0914254049,
				"z": -0.181851588,
				"element": "H" 
			},
			{
				"x": 0.8116587076,
				"y": 3.3739454376,
				"z": 0.785297999,
				"element": "H" 
			},
			{
				"x": 1.4336273715,
				"y": -1.7609839456,
				"z": -1.7560752274,
				"element": "H" 
			},
			{
				"x": -0.9977760115,
				"y": -1.9749266743,
				"z": -1.2616057048,
				"element": "H" 
			},
			{
				"x": -2.6157067157,
				"y": -1.4611960022,
				"z": 1.0936670964,
				"element": "H" 
			},
			{
				"x": -3.0447215521,
				"y": -0.6971557205,
				"z": -0.4266106693,
				"element": "H" 
			},
			{
				"x": -0.6520465811,
				"y": 1.2560185486,
				"z": 1.5702545617,
				"element": "H" 
			}
		],
		 "valence_orbital": [ 
			{
				"type": "occ",
				"energy": -0.31169,
				"method": "rhf"
			},
			{
				"type": "occ",
				"energy": -0.3028,
				"method": "rhf"
			},
			{
				"type": "occ",
				"energy": -0.28999,
				"method": "rhf"
			},
			{
				"type": "occ",
				"energy": -0.2805,
				"method": "rhf"
			},
			{
				"type": "occ",
				"energy": -0.2708,
				"method": "rhf"
			},
			{
				"type": "unocc",
				"energy": -0.09056,
				"method": "rhf"
			},
			{
				"type": "unocc",
				"energy": -0.03719,
				"method": "rhf"
			},
			{
				"type": "unocc",
				"energy": -0.01725,
				"method": "rhf"
			},
			{
				"type": "unocc",
				"energy": 0.01378,
				"method": "rhf"
			},
			{
				"type": "unocc",
				"energy": 0.02511,
				"method": "rhf"
			}
		],
		"cosmo_sigma_profile": { 
			"-0.025": 0.0,
			"-0.024": 0.0,
			"-0.023": 0.0,
			"-0.022": 0.0,
			"-0.021": 0.0,
			"-0.02": 0.0,
			"-0.019": 0.0,
			"-0.018": 0.0,
			"-0.017": 0.0,
			"-0.016": 0.0,
			"-0.015": 0.0,
			"-0.014": 0.0,
			"-0.013": 0.0,
			"-0.012": 0.0,
			"-0.011": 0.0,
			"-0.01": 2.73791053816,
			"-0.009": 7.79750427001,
			"-0.008": 8.88067212742,
			"-0.007": 9.65942648025,
			"-0.006": 13.8032343103,
			"-0.005": 15.4088008311,
			"-0.004": 15.3937983435,
			"-0.003": 16.5456453087,
			"-0.002": 14.6923824852,
			"-0.001": 13.0163797145,
			"0.0": 14.0647779178,
			"0.001": 14.8629729274,
			"0.002": 8.73479020263,
			"0.003": 5.52248409597,
			"0.004": 5.23047376095,
			"0.005": 6.74860632663,
			"0.006": 7.85895230574,
			"0.007": 10.0635033436,
			"0.008": 11.8013000941,
			"0.009": 9.86768946134,
			"0.01": 6.33574560293,
			"0.011": 3.34858448348,
			"0.012": 2.1518483052,
			"0.013": 1.29406927145,
			"0.014": 0.013313205608,
			"0.015": 0.0,
			"0.016": 0.0,
			"0.017": 0.0,
			"0.018": 0.0,
			"0.019": 0.0,
			"0.02": 0.0,
			"0.021": 0.0,
			"0.022": 0.0,
			"0.023": 0.0,
			"0.024": 0.0,
			"0.025": 0.0
		}
	}
}
