{
	 "smiles": "CC(C)CCCCC(C)C", 
	 "Tm": 218.65, 
	 "num_atms": 32, 
	 "gaussian": { 
		 "optdone": 1, 
		 "sigma_profile": "yes", 
		 "theory": "DFT", 
		 "functional": "B3LYP", 
		 "basiset": "6-31G**", 
		 "properties": { 
			 "R2extent": 3078.7804, 
			 "electric_dipole_moment_norm": 0.0397605331956, 
			 "electric_quadrupole_moment_norm": 0.869011599462, 
			 "total_energy": -394.359403321, 
			 "HOMO_LUMO_gap": 0.37944, 
			 "cosmo_polarized_energy": -0.81, 
			 "cosmo_cavitation_energy": 31.53, 
			 "cosmo_dispersion_energy": -22.05, 
			 "cosmo_repulsion_energy": 1.83, 
			 "cosmo_total_nonelectrostatic_energy": 11.3, 
			 "SMD_solvation_energy": 5.0 
		},
		"coords": [
			{
				"x": -3.0249899579,
				"y": 2.3534980607,
				"z": 0.0523917817,
				"element": "C" 
			},
			{
				"x": -1.570675145,
				"y": 2.1416385677,
				"z": -0.3943818694,
				"element": "C" 
			},
			{
				"x": -1.458155668,
				"y": 2.2411272441,
				"z": -1.9236175179,
				"element": "C" 
			},
			{
				"x": -1.025755212,
				"y": 0.8065426968,
				"z": 0.1521394909,
				"element": "C" 
			},
			{
				"x": 0.4761543734,
				"y": 0.5770452955,
				"z": -0.0756753058,
				"element": "C" 
			},
			{
				"x": 1.0475660499,
				"y": -0.6633836297,
				"z": 0.6349844293,
				"element": "C" 
			},
			{
				"x": 0.5055266607,
				"y": -1.9976482577,
				"z": 0.0973154126,
				"element": "C" 
			},
			{
				"x": 1.1113849774,
				"y": -3.2798793283,
				"z": 0.7144018301,
				"element": "C" 
			},
			{
				"x": 2.6126570136,
				"y": -3.428687903,
				"z": 0.4207387939,
				"element": "C" 
			},
			{
				"x": 0.828487717,
				"y": -3.4003485615,
				"z": 2.2202965704,
				"element": "C" 
			},
			{
				"x": -3.6770566157,
				"y": 1.5698365084,
				"z": -0.3530202931,
				"element": "H" 
			},
			{
				"x": -3.116304476,
				"y": 2.3288252695,
				"z": 1.1439341823,
				"element": "H" 
			},
			{
				"x": -3.4123395156,
				"y": 3.317664112,
				"z": -0.2949146976,
				"element": "H" 
			},
			{
				"x": -0.9644064448,
				"y": 2.9506860833,
				"z": 0.0413826796,
				"element": "H" 
			},
			{
				"x": -0.4214073731,
				"y": 2.1716532589,
				"z": -2.266466865,
				"element": "H" 
			},
			{
				"x": -1.8616913175,
				"y": 3.1933599246,
				"z": -2.2851087745,
				"element": "H" 
			},
			{
				"x": -2.0249579432,
				"y": 1.4362533223,
				"z": -2.4085149198,
				"element": "H" 
			},
			{
				"x": -1.60495348,
				"y": -0.0150992144,
				"z": -0.2918875933,
				"element": "H" 
			},
			{
				"x": -1.2239076243,
				"y": 0.7668767788,
				"z": 1.2330681264,
				"element": "H" 
			},
			{
				"x": 0.6857416617,
				"y": 0.4975008343,
				"z": -1.1505584506,
				"element": "H" 
			},
			{
				"x": 1.0225320694,
				"y": 1.463587705,
				"z": 0.2754177536,
				"element": "H" 
			},
			{
				"x": 2.1396061029,
				"y": -0.6456699514,
				"z": 0.531150214,
				"element": "H" 
			},
			{
				"x": 0.8420608058,
				"y": -0.582381782,
				"z": 1.7107708266,
				"element": "H" 
			},
			{
				"x": -0.5819764113,
				"y": -2.0321932179,
				"z": 0.2425820528,
				"element": "H" 
			},
			{
				"x": 0.6667592977,
				"y": -2.0272400688,
				"z": -0.9901235718,
				"element": "H" 
			},
			{
				"x": 0.6022317581,
				"y": -4.1212255776,
				"z": 0.2217893855,
				"element": "H" 
			},
			{
				"x": 2.8187621792,
				"y": -3.3553095539,
				"z": -0.653105581,
				"element": "H" 
			},
			{
				"x": 2.9828931625,
				"y": -4.4004447264,
				"z": 0.7655920933,
				"element": "H" 
			},
			{
				"x": 3.2038593218,
				"y": -2.6576840668,
				"z": 0.9272118465,
				"element": "H" 
			},
			{
				"x": 1.1629121327,
				"y": -4.3703735514,
				"z": 2.6043416057,
				"element": "H" 
			},
			{
				"x": -0.2423549104,
				"y": -3.3080048543,
				"z": 2.434328394,
				"element": "H" 
			},
			{
				"x": 1.3506968111,
				"y": -2.625721417,
				"z": 2.7928379705,
				"element": "H" 
			}
		],
		 "valence_orbital": [ 
			{
				"type": "occ",
				"energy": -0.31642,
				"method": "rhf"
			},
			{
				"type": "occ",
				"energy": -0.31243,
				"method": "rhf"
			},
			{
				"type": "occ",
				"energy": -0.30665,
				"method": "rhf"
			},
			{
				"type": "occ",
				"energy": -0.29783,
				"method": "rhf"
			},
			{
				"type": "occ",
				"energy": -0.29588,
				"method": "rhf"
			},
			{
				"type": "unocc",
				"energy": 0.08356,
				"method": "rhf"
			},
			{
				"type": "unocc",
				"energy": 0.08977,
				"method": "rhf"
			},
			{
				"type": "unocc",
				"energy": 0.11064,
				"method": "rhf"
			},
			{
				"type": "unocc",
				"energy": 0.11876,
				"method": "rhf"
			},
			{
				"type": "unocc",
				"energy": 0.12698,
				"method": "rhf"
			}
		],
		"cosmo_sigma_profile": { 
			"-0.025": 0.0,
			"-0.024": 0.0,
			"-0.023": 0.0,
			"-0.022": 0.0,
			"-0.021": 0.0,
			"-0.02": 0.0,
			"-0.019": 0.0,
			"-0.018": 0.0,
			"-0.017": 0.0,
			"-0.016": 0.0,
			"-0.015": 0.0,
			"-0.014": 0.0,
			"-0.013": 0.0,
			"-0.012": 0.0,
			"-0.011": 0.0,
			"-0.01": 0.0,
			"-0.009": 0.0,
			"-0.008": 0.0,
			"-0.007": 0.0,
			"-0.006": 0.0,
			"-0.005": 0.0,
			"-0.004": 0.0,
			"-0.003": 2.98032889048,
			"-0.002": 30.2767492325,
			"-0.001": 58.0499587225,
			"0.0": 58.7715846304,
			"0.001": 54.9891520244,
			"0.002": 33.0869123669,
			"0.003": 2.36667262079,
			"0.004": 0.0,
			"0.005": 0.0,
			"0.006": 0.0,
			"0.007": 0.0,
			"0.008": 0.0,
			"0.009": 0.0,
			"0.01": 0.0,
			"0.011": 0.0,
			"0.012": 0.0,
			"0.013": 0.0,
			"0.014": 0.0,
			"0.015": 0.0,
			"0.016": 0.0,
			"0.017": 0.0,
			"0.018": 0.0,
			"0.019": 0.0,
			"0.02": 0.0,
			"0.021": 0.0,
			"0.022": 0.0,
			"0.023": 0.0,
			"0.024": 0.0,
			"0.025": 0.0
		}
	}
}
