{
	 "smiles": "CC1=CC=C(C=C1)S(=O)(=O)NC(=S)NC1=CC=CC=C1", 
	 "Tm": 421.15, 
	 "num_atms": 34, 
	 "gaussian": { 
		 "optdone": 1, 
		 "sigma_profile": "yes", 
		 "theory": "DFT", 
		 "functional": "B3LYP", 
		 "basiset": "6-31G**", 
		 "properties": { 
			 "R2extent": 6580.2853, 
			 "electric_dipole_moment_norm": 7.93756929671, 
			 "electric_quadrupole_moment_norm": 23.7647057842, 
			 "total_energy": -1598.19124332, 
			 "HOMO_LUMO_gap": 0.16326, 
			 "cosmo_polarized_energy": -19.42, 
			 "cosmo_cavitation_energy": 40.36, 
			 "cosmo_dispersion_energy": -27.93, 
			 "cosmo_repulsion_energy": 2.07, 
			 "cosmo_total_nonelectrostatic_energy": 14.51, 
			 "SMD_solvation_energy": 5.04 
		},
		"coords": [
			{
				"x": -1.6364484477,
				"y": 4.2169712647,
				"z": 0.1161795491,
				"element": "C" 
			},
			{
				"x": -1.3272033215,
				"y": 2.7775431524,
				"z": 0.4488039522,
				"element": "C" 
			},
			{
				"x": -2.3652812633,
				"y": 1.8673263845,
				"z": 0.7076660165,
				"element": "C" 
			},
			{
				"x": -2.0949998583,
				"y": 0.5462946689,
				"z": 1.0483494476,
				"element": "C" 
			},
			{
				"x": -0.7639923463,
				"y": 0.1231714175,
				"z": 1.115187479,
				"element": "C" 
			},
			{
				"x": 0.2882204201,
				"y": 1.0020638947,
				"z": 0.8657793075,
				"element": "C" 
			},
			{
				"x": -0.0045894444,
				"y": 2.3247474995,
				"z": 0.5342378407,
				"element": "C" 
			},
			{
				"x": -0.4116541628,
				"y": -1.5559699921,
				"z": 1.6119554842,
				"element": "S" 
			},
			{
				"x": 1.0134875607,
				"y": -1.6764619606,
				"z": 1.9053869954,
				"element": "O" 
			},
			{
				"x": -1.451475125,
				"y": -1.958358996,
				"z": 2.5609119024,
				"element": "O" 
			},
			{
				"x": -0.7677186573,
				"y": -2.5277534665,
				"z": 0.1939320695,
				"element": "N" 
			},
			{
				"x": 0.1335582537,
				"y": -3.4614380245,
				"z": -0.3439373375,
				"element": "C" 
			},
			{
				"x": -0.2992821299,
				"y": -5.0683421335,
				"z": -0.487702343,
				"element": "S" 
			},
			{
				"x": 1.3381298635,
				"y": -2.997440135,
				"z": -0.7621562489,
				"element": "N" 
			},
			{
				"x": 1.7176032207,
				"y": -1.6964237878,
				"z": -1.1965529095,
				"element": "C" 
			},
			{
				"x": 3.0143818749,
				"y": -1.2521432333,
				"z": -0.9116423036,
				"element": "C" 
			},
			{
				"x": 3.4565752878,
				"y": -0.0300829219,
				"z": -1.416623685,
				"element": "C" 
			},
			{
				"x": 2.6066776993,
				"y": 0.7588495337,
				"z": -2.1957697821,
				"element": "C" 
			},
			{
				"x": 1.3112448558,
				"y": 0.3152526953,
				"z": -2.4695177301,
				"element": "C" 
			},
			{
				"x": 0.8633995386,
				"y": -0.9117129402,
				"z": -1.980985873,
				"element": "C" 
			},
			{
				"x": -2.4908179893,
				"y": 4.2953172911,
				"z": -0.5633850209,
				"element": "H" 
			},
			{
				"x": -1.8913113396,
				"y": 4.7808115269,
				"z": 1.0218252047,
				"element": "H" 
			},
			{
				"x": -0.7817619894,
				"y": 4.7136201082,
				"z": -0.3507153833,
				"element": "H" 
			},
			{
				"x": -3.3976276003,
				"y": 2.2021830273,
				"z": 0.6517543137,
				"element": "H" 
			},
			{
				"x": -2.9004142692,
				"y": -0.1432255312,
				"z": 1.2767082256,
				"element": "H" 
			},
			{
				"x": 1.3127533234,
				"y": 0.655102128,
				"z": 0.9320266039,
				"element": "H" 
			},
			{
				"x": 0.8114533393,
				"y": 3.0146882335,
				"z": 0.3386343066,
				"element": "H" 
			},
			{
				"x": -1.6488020781,
				"y": -2.9970580247,
				"z": 0.393609669,
				"element": "H" 
			},
			{
				"x": 1.9863981715,
				"y": -3.7439875583,
				"z": -0.9769408535,
				"element": "H" 
			},
			{
				"x": 3.6621699505,
				"y": -1.8631605911,
				"z": -0.2906168596,
				"element": "H" 
			},
			{
				"x": 4.4654168969,
				"y": 0.3063116719,
				"z": -1.1964201693,
				"element": "H" 
			},
			{
				"x": 2.9530825956,
				"y": 1.7095817254,
				"z": -2.5896695338,
				"element": "H" 
			},
			{
				"x": 0.6464744746,
				"y": 0.9187904382,
				"z": -3.08028803,
				"element": "H" 
			},
			{
				"x": -0.1345473046,
				"y": -1.266867365,
				"z": -2.2115243046,
				"element": "H" 
			}
		],
		 "valence_orbital": [ 
			{
				"type": "occ",
				"energy": -0.27114,
				"method": "rhf"
			},
			{
				"type": "occ",
				"energy": -0.26465,
				"method": "rhf"
			},
			{
				"type": "occ",
				"energy": -0.25805,
				"method": "rhf"
			},
			{
				"type": "occ",
				"energy": -0.22887,
				"method": "rhf"
			},
			{
				"type": "occ",
				"energy": -0.21556,
				"method": "rhf"
			},
			{
				"type": "unocc",
				"energy": -0.0523,
				"method": "rhf"
			},
			{
				"type": "unocc",
				"energy": -0.04552,
				"method": "rhf"
			},
			{
				"type": "unocc",
				"energy": -0.02716,
				"method": "rhf"
			},
			{
				"type": "unocc",
				"energy": -0.01772,
				"method": "rhf"
			},
			{
				"type": "unocc",
				"energy": -0.00733,
				"method": "rhf"
			}
		],
		"cosmo_sigma_profile": { 
			"-0.025": 0.0,
			"-0.024": 0.0,
			"-0.023": 0.0,
			"-0.022": 0.0,
			"-0.021": 0.0,
			"-0.02": 0.0,
			"-0.019": 0.0,
			"-0.018": 0.0,
			"-0.017": 0.0,
			"-0.016": 0.194775196426,
			"-0.015": 1.32700399811,
			"-0.014": 1.03867470691,
			"-0.013": 1.39753974953,
			"-0.012": 2.14594657267,
			"-0.011": 1.78029029172,
			"-0.01": 2.02338680727,
			"-0.009": 1.81453850075,
			"-0.008": 2.97141449523,
			"-0.007": 7.81429883716,
			"-0.006": 18.2326454879,
			"-0.005": 25.8009589216,
			"-0.004": 25.4074193347,
			"-0.003": 20.5705848763,
			"-0.002": 20.4266722201,
			"-0.001": 24.8213398918,
			"0.0": 23.0668489451,
			"0.001": 20.576517837,
			"0.002": 24.2139138024,
			"0.003": 23.879039929,
			"0.004": 14.0137628112,
			"0.005": 7.59989146567,
			"0.006": 8.30416680762,
			"0.007": 8.17664685491,
			"0.008": 10.9878674085,
			"0.009": 11.6174592689,
			"0.01": 11.5544915056,
			"0.011": 3.09606534593,
			"0.012": 0.0,
			"0.013": 0.0,
			"0.014": 0.0,
			"0.015": 0.0,
			"0.016": 0.0,
			"0.017": 0.0,
			"0.018": 0.0,
			"0.019": 0.0,
			"0.02": 0.0,
			"0.021": 0.0,
			"0.022": 0.0,
			"0.023": 0.0,
			"0.024": 0.0,
			"0.025": 0.0
		}
	}
}
