{
	 "smiles": "CCCCOC(=O)C1=CC=CC=C1C(=O)OCC1=CC=CC=C1", 
	 "Tm": 503.15, 
	 "num_atms": 43, 
	 "gaussian": { 
		 "optdone": 1, 
		 "sigma_profile": "yes", 
		 "theory": "DFT", 
		 "functional": "B3LYP", 
		 "basiset": "6-31G**", 
		 "properties": { 
			 "R2extent": 8498.0955, 
			 "electric_dipole_moment_norm": 0.625381891327, 
			 "electric_quadrupole_moment_norm": 16.1542197243, 
			 "total_energy": -1037.00444617, 
			 "HOMO_LUMO_gap": 0.19049, 
			 "cosmo_polarized_energy": -12.64, 
			 "cosmo_cavitation_energy": 47.39, 
			 "cosmo_dispersion_energy": -30.78, 
			 "cosmo_repulsion_energy": 2.4, 
			 "cosmo_total_nonelectrostatic_energy": 19.0, 
			 "SMD_solvation_energy": 9.04 
		},
		"coords": [
			{
				"x": -2.4522947782,
				"y": -3.1377043586,
				"z": 2.5963632587,
				"element": "C" 
			},
			{
				"x": -2.1764736148,
				"y": -2.6925256649,
				"z": 1.1572099365,
				"element": "C" 
			},
			{
				"x": -2.0140019757,
				"y": -1.172707234,
				"z": 1.024428207,
				"element": "C" 
			},
			{
				"x": -1.7417124136,
				"y": -0.6998813369,
				"z": -0.3946017601,
				"element": "C" 
			},
			{
				"x": -0.461317474,
				"y": -1.2419556415,
				"z": -0.8058298302,
				"element": "O" 
			},
			{
				"x": -0.1083330552,
				"y": -1.0197485977,
				"z": -2.0847368598,
				"element": "C" 
			},
			{
				"x": -0.8188727639,
				"y": -0.4750768622,
				"z": -2.9056874103,
				"element": "O" 
			},
			{
				"x": 1.231857213,
				"y": -1.6142720298,
				"z": -2.4043029143,
				"element": "C" 
			},
			{
				"x": 1.2997416843,
				"y": -2.4151261158,
				"z": -3.5495173357,
				"element": "C" 
			},
			{
				"x": 2.4754500333,
				"y": -3.0878000342,
				"z": -3.8798157996,
				"element": "C" 
			},
			{
				"x": 3.601131583,
				"y": -2.9631343302,
				"z": -3.0641964587,
				"element": "C" 
			},
			{
				"x": 3.5522961051,
				"y": -2.1453920079,
				"z": -1.9372743353,
				"element": "C" 
			},
			{
				"x": 2.381228342,
				"y": -1.4531186872,
				"z": -1.6051261129,
				"element": "C" 
			},
			{
				"x": 2.4788837972,
				"y": -0.5136992754,
				"z": -0.4448933676,
				"element": "C" 
			},
			{
				"x": 3.2322788204,
				"y": -0.6665897985,
				"z": 0.4951611621,
				"element": "O" 
			},
			{
				"x": 1.6938829634,
				"y": 0.5744070416,
				"z": -0.5998335051,
				"element": "O" 
			},
			{
				"x": 1.7530632995,
				"y": 1.5444390443,
				"z": 0.4605083702,
				"element": "C" 
			},
			{
				"x": 0.7415872091,
				"y": 2.6381224263,
				"z": 0.2101451612,
				"element": "C" 
			},
			{
				"x": 0.0743804107,
				"y": 2.7841328456,
				"z": -1.0111137122,
				"element": "C" 
			},
			{
				"x": -0.8349692708,
				"y": 3.8300597372,
				"z": -1.1938870268,
				"element": "C" 
			},
			{
				"x": -1.0809737424,
				"y": 4.7412769001,
				"z": -0.1672751414,
				"element": "C" 
			},
			{
				"x": -0.4154434714,
				"y": 4.6003876472,
				"z": 1.0531379032,
				"element": "C" 
			},
			{
				"x": 0.4861456859,
				"y": 3.5540675003,
				"z": 1.2400673474,
				"element": "C" 
			},
			{
				"x": -3.3710872703,
				"y": -2.6834720025,
				"z": 2.985202147,
				"element": "H" 
			},
			{
				"x": -1.6328542248,
				"y": -2.8485008123,
				"z": 3.2641332747,
				"element": "H" 
			},
			{
				"x": -2.5654842744,
				"y": -4.2245352537,
				"z": 2.6622184241,
				"element": "H" 
			},
			{
				"x": -2.9961609795,
				"y": -3.0241525807,
				"z": 0.5050451668,
				"element": "H" 
			},
			{
				"x": -1.2693889833,
				"y": -3.1818368447,
				"z": 0.7846242994,
				"element": "H" 
			},
			{
				"x": -2.927353467,
				"y": -0.6688169631,
				"z": 1.3684117293,
				"element": "H" 
			},
			{
				"x": -1.2034990896,
				"y": -0.8250174123,
				"z": 1.6779608342,
				"element": "H" 
			},
			{
				"x": -1.6900423543,
				"y": 0.3913375682,
				"z": -0.4587711722,
				"element": "H" 
			},
			{
				"x": -2.5082796713,
				"y": -1.0436512151,
				"z": -1.0967028771,
				"element": "H" 
			},
			{
				"x": 0.4135400583,
				"y": -2.5120637894,
				"z": -4.1680150919,
				"element": "H" 
			},
			{
				"x": 2.5091099302,
				"y": -3.7117359862,
				"z": -4.7679538602,
				"element": "H" 
			},
			{
				"x": 4.5176878651,
				"y": -3.4904050535,
				"z": -3.3108738567,
				"element": "H" 
			},
			{
				"x": 4.4221201556,
				"y": -2.0157876463,
				"z": -1.302238,
				"element": "H" 
			},
			{
				"x": 1.5701306095,
				"y": 1.0423849809,
				"z": 1.4165308507,
				"element": "H" 
			},
			{
				"x": 2.7726154691,
				"y": 1.9466776221,
				"z": 0.5053009792,
				"element": "H" 
			},
			{
				"x": 0.2558616497,
				"y": 2.0786606649,
				"z": -1.8137867238,
				"element": "H" 
			},
			{
				"x": -1.3498133201,
				"y": 3.9284061216,
				"z": -2.14531721,
				"element": "H" 
			},
			{
				"x": -1.7870967867,
				"y": 5.5535251264,
				"z": -0.3136085307,
				"element": "H" 
			},
			{
				"x": -0.6022978213,
				"y": 5.3019758613,
				"z": 1.861228749,
				"element": "H" 
			},
			{
				"x": 0.9959579182,
				"y": 3.4467464464,
				"z": 2.1951810919,
				"element": "H" 
			}
		],
		 "valence_orbital": [ 
			{
				"type": "occ",
				"energy": -0.28097,
				"method": "rhf"
			},
			{
				"type": "occ",
				"energy": -0.26358,
				"method": "rhf"
			},
			{
				"type": "occ",
				"energy": -0.25878,
				"method": "rhf"
			},
			{
				"type": "occ",
				"energy": -0.25093,
				"method": "rhf"
			},
			{
				"type": "occ",
				"energy": -0.24472,
				"method": "rhf"
			},
			{
				"type": "unocc",
				"energy": -0.05423,
				"method": "rhf"
			},
			{
				"type": "unocc",
				"energy": -0.02658,
				"method": "rhf"
			},
			{
				"type": "unocc",
				"energy": -0.00541,
				"method": "rhf"
			},
			{
				"type": "unocc",
				"energy": -0.00153,
				"method": "rhf"
			},
			{
				"type": "unocc",
				"energy": 0.02819,
				"method": "rhf"
			}
		],
		"cosmo_sigma_profile": { 
			"-0.025": 0.0,
			"-0.024": 0.0,
			"-0.023": 0.0,
			"-0.022": 0.0,
			"-0.021": 0.0,
			"-0.02": 0.0,
			"-0.019": 0.0,
			"-0.018": 0.0,
			"-0.017": 0.0,
			"-0.016": 0.0,
			"-0.015": 0.0,
			"-0.014": 0.0,
			"-0.013": 0.0,
			"-0.012": 0.0,
			"-0.011": 0.0,
			"-0.01": 0.0,
			"-0.009": 0.0,
			"-0.008": 0.190027882784,
			"-0.007": 7.39933776288,
			"-0.006": 19.6476793699,
			"-0.005": 23.4307767949,
			"-0.004": 25.8917273177,
			"-0.003": 35.5062410935,
			"-0.002": 35.6561625346,
			"-0.001": 34.2563281581,
			"0.0": 37.6349679847,
			"0.001": 38.9083938076,
			"0.002": 34.8922329491,
			"0.003": 21.5205619204,
			"0.004": 13.4822034264,
			"0.005": 12.8748502495,
			"0.006": 8.31733098872,
			"0.007": 3.37357222196,
			"0.008": 2.67175251962,
			"0.009": 2.92814426567,
			"0.01": 3.65647087729,
			"0.011": 7.02337110877,
			"0.012": 5.99594500578,
			"0.013": 0.434142773264,
			"0.014": 0.0,
			"0.015": 0.0,
			"0.016": 0.0,
			"0.017": 0.0,
			"0.018": 0.0,
			"0.019": 0.0,
			"0.02": 0.0,
			"0.021": 0.0,
			"0.022": 0.0,
			"0.023": 0.0,
			"0.024": 0.0,
			"0.025": 0.0
		}
	}
}
