{
	 "smiles": "COC(=O)C1=CC=C(C=C1)C1=NC(C)=NO1", 
	 "Tm": 435.15, 
	 "num_atms": 26, 
	 "gaussian": { 
		 "optdone": 1, 
		 "sigma_profile": "yes", 
		 "theory": "DFT", 
		 "functional": "B3LYP", 
		 "basiset": "6-31G**", 
		 "properties": { 
			 "R2extent": 6026.3222, 
			 "electric_dipole_moment_norm": 1.03604598354, 
			 "electric_quadrupole_moment_norm": 22.6586697712, 
			 "total_energy": -760.355830599, 
			 "HOMO_LUMO_gap": 0.17524, 
			 "cosmo_polarized_energy": -10.53, 
			 "cosmo_cavitation_energy": 31.81, 
			 "cosmo_dispersion_energy": -23.39, 
			 "cosmo_repulsion_energy": 1.81, 
			 "cosmo_total_nonelectrostatic_energy": 10.23, 
			 "SMD_solvation_energy": 5.39 
		},
		"coords": [
			{
				"x": -4.2490389445,
				"y": -1.8565230206,
				"z": 3.7326692636,
				"element": "C" 
			},
			{
				"x": -3.2118346687,
				"y": -1.1946954644,
				"z": 2.9907951024,
				"element": "O" 
			},
			{
				"x": -3.4590594675,
				"y": -1.0367900121,
				"z": 1.6717308635,
				"element": "C" 
			},
			{
				"x": -4.4793294308,
				"y": -1.4202207282,
				"z": 1.1337088113,
				"element": "O" 
			},
			{
				"x": -2.3440913032,
				"y": -0.3437627892,
				"z": 0.9620021327,
				"element": "C" 
			},
			{
				"x": -1.1829525425,
				"y": 0.0824610467,
				"z": 1.6220289599,
				"element": "C" 
			},
			{
				"x": -0.1733675258,
				"y": 0.7240734126,
				"z": 0.9126250292,
				"element": "C" 
			},
			{
				"x": -0.3165659317,
				"y": 0.9455324118,
				"z": -0.4664555707,
				"element": "C" 
			},
			{
				"x": -1.4800341073,
				"y": 0.5184888465,
				"z": -1.1279897501,
				"element": "C" 
			},
			{
				"x": -2.4851603539,
				"y": -0.1215934663,
				"z": -0.4154519887,
				"element": "C" 
			},
			{
				"x": 0.7304034483,
				"y": 1.6172607323,
				"z": -1.2330843647,
				"element": "C" 
			},
			{
				"x": 0.742906141,
				"y": 1.8927765001,
				"z": -2.5112461056,
				"element": "N" 
			},
			{
				"x": 1.9580466021,
				"y": 2.5185699273,
				"z": -2.6720039616,
				"element": "C" 
			},
			{
				"x": 2.4428794525,
				"y": 3.0327337233,
				"z": -3.9911695842,
				"element": "C" 
			},
			{
				"x": 2.6633863498,
				"y": 2.6297721208,
				"z": -1.5696683247,
				"element": "N" 
			},
			{
				"x": 1.844744099,
				"y": 2.0266556896,
				"z": -0.5995736042,
				"element": "O" 
			},
			{
				"x": -3.8925653809,
				"y": -1.8996879481,
				"z": 4.7615652498,
				"element": "H" 
			},
			{
				"x": -5.1835390677,
				"y": -1.2932262962,
				"z": 3.6722348055,
				"element": "H" 
			},
			{
				"x": -4.4186875133,
				"y": -2.8626936333,
				"z": 3.3414059405,
				"element": "H" 
			},
			{
				"x": -1.0779842155,
				"y": -0.0912141106,
				"z": 2.6863895806,
				"element": "H" 
			},
			{
				"x": 0.7264768701,
				"y": 1.0553415808,
				"z": 1.4193678259,
				"element": "H" 
			},
			{
				"x": -1.5754590993,
				"y": 0.6969484169,
				"z": -2.1933903134,
				"element": "H" 
			},
			{
				"x": -3.3918398561,
				"y": -0.4598757824,
				"z": -0.9049603761,
				"element": "H" 
			},
			{
				"x": 3.3821077299,
				"y": 2.5500162773,
				"z": -4.275374342,
				"element": "H" 
			},
			{
				"x": 1.6927652228,
				"y": 2.828795302,
				"z": -4.7559921743,
				"element": "H" 
			},
			{
				"x": 2.6223934932,
				"y": 4.1105572633,
				"z": -3.9463631044,
				"element": "H" 
			}
		],
		 "valence_orbital": [ 
			{
				"type": "occ",
				"energy": -0.30554,
				"method": "rhf"
			},
			{
				"type": "occ",
				"energy": -0.29734,
				"method": "rhf"
			},
			{
				"type": "occ",
				"energy": -0.2816,
				"method": "rhf"
			},
			{
				"type": "occ",
				"energy": -0.27211,
				"method": "rhf"
			},
			{
				"type": "occ",
				"energy": -0.25405,
				"method": "rhf"
			},
			{
				"type": "unocc",
				"energy": -0.07881,
				"method": "rhf"
			},
			{
				"type": "unocc",
				"energy": -0.02078,
				"method": "rhf"
			},
			{
				"type": "unocc",
				"energy": -0.00887,
				"method": "rhf"
			},
			{
				"type": "unocc",
				"energy": 0.03093,
				"method": "rhf"
			},
			{
				"type": "unocc",
				"energy": 0.08094,
				"method": "rhf"
			}
		],
		"cosmo_sigma_profile": { 
			"-0.025": 0.0,
			"-0.024": 0.0,
			"-0.023": 0.0,
			"-0.022": 0.0,
			"-0.021": 0.0,
			"-0.02": 0.0,
			"-0.019": 0.0,
			"-0.018": 0.0,
			"-0.017": 0.0,
			"-0.016": 0.0,
			"-0.015": 0.0,
			"-0.014": 0.0,
			"-0.013": 0.0,
			"-0.012": 0.0,
			"-0.011": 0.0,
			"-0.01": 0.0,
			"-0.009": 0.0,
			"-0.008": 0.300377622224,
			"-0.007": 5.53478312338,
			"-0.006": 16.8135445358,
			"-0.005": 17.3691842468,
			"-0.004": 22.7870745413,
			"-0.003": 26.88351146,
			"-0.002": 25.39932694,
			"-0.001": 21.7486485703,
			"0.0": 20.4839048351,
			"0.001": 21.5743552608,
			"0.002": 17.6733955503,
			"0.003": 8.71042766608,
			"0.004": 7.3989791451,
			"0.005": 6.4725296241,
			"0.006": 6.81603755728,
			"0.007": 4.4939102076,
			"0.008": 3.59000946777,
			"0.009": 5.0910757176,
			"0.01": 4.0269915737,
			"0.011": 5.65632412978,
			"0.012": 5.0246389653,
			"0.013": 1.34915782951,
			"0.014": 0.0543701992367,
			"0.015": 0.0,
			"0.016": 0.0,
			"0.017": 0.0,
			"0.018": 0.0,
			"0.019": 0.0,
			"0.02": 0.0,
			"0.021": 0.0,
			"0.022": 0.0,
			"0.023": 0.0,
			"0.024": 0.0,
			"0.025": 0.0
		}
	}
}
