{
	 "smiles": "COC1=CC=CC=C1N1CCN(CC1)C(=O)C1=CC=C(N)C=C1", 
	 "Tm": 486.15, 
	 "num_atms": 44, 
	 "gaussian": { 
		 "optdone": 1, 
		 "sigma_profile": "yes", 
		 "theory": "DFT", 
		 "functional": "B3LYP", 
		 "basiset": "6-31G**", 
		 "properties": { 
			 "R2extent": 10672.5806, 
			 "electric_dipole_moment_norm": 3.93264929787, 
			 "electric_quadrupole_moment_norm": 29.9462296181, 
			 "total_energy": -1013.26394416, 
			 "HOMO_LUMO_gap": 0.1769, 
			 "cosmo_polarized_energy": -19.01, 
			 "cosmo_cavitation_energy": 45.16, 
			 "cosmo_dispersion_energy": -31.81, 
			 "cosmo_repulsion_energy": 2.41, 
			 "cosmo_total_nonelectrostatic_energy": 15.75, 
			 "SMD_solvation_energy": 7.61 
		},
		"coords": [
			{
				"x": 1.8348036133,
				"y": -4.1006597282,
				"z": -2.0732951337,
				"element": "C" 
			},
			{
				"x": 2.1086987335,
				"y": -3.3605846275,
				"z": -0.8796428731,
				"element": "O" 
			},
			{
				"x": 1.160614856,
				"y": -3.5245655065,
				"z": 0.1167719484,
				"element": "C" 
			},
			{
				"x": 1.4922044405,
				"y": -4.3377678181,
				"z": 1.1972293807,
				"element": "C" 
			},
			{
				"x": 0.5825626962,
				"y": -4.5648253707,
				"z": 2.2311928188,
				"element": "C" 
			},
			{
				"x": -0.6725105812,
				"y": -3.9645689201,
				"z": 2.1652220054,
				"element": "C" 
			},
			{
				"x": -1.0003141562,
				"y": -3.1229758147,
				"z": 1.1010629956,
				"element": "C" 
			},
			{
				"x": -0.0961174122,
				"y": -2.8672017912,
				"z": 0.0531278234,
				"element": "C" 
			},
			{
				"x": -0.4129496808,
				"y": -2.0537925489,
				"z": -1.0579260131,
				"element": "N" 
			},
			{
				"x": 0.4928116585,
				"y": -0.9462609754,
				"z": -1.401300369,
				"element": "C" 
			},
			{
				"x": 0.0927371463,
				"y": 0.3542179554,
				"z": -0.6937615487,
				"element": "C" 
			},
			{
				"x": -1.3003090274,
				"y": 0.6937525521,
				"z": -1.0065245122,
				"element": "N" 
			},
			{
				"x": -2.2374095355,
				"y": -0.3706736712,
				"z": -0.6395702896,
				"element": "C" 
			},
			{
				"x": -1.8055032173,
				"y": -1.6824590615,
				"z": -1.3142817136,
				"element": "C" 
			},
			{
				"x": -1.7998917912,
				"y": 1.9875620941,
				"z": -1.0514255917,
				"element": "C" 
			},
			{
				"x": -2.9681688889,
				"y": 2.2287561439,
				"z": -0.7501851261,
				"element": "O" 
			},
			{
				"x": -0.9021616465,
				"y": 3.0829689104,
				"z": -1.5369884339,
				"element": "C" 
			},
			{
				"x": 0.0069486777,
				"y": 2.9343668974,
				"z": -2.5953755679,
				"element": "C" 
			},
			{
				"x": 0.7489695193,
				"y": 4.0131261596,
				"z": -3.0634734504,
				"element": "C" 
			},
			{
				"x": 0.6078530813,
				"y": 5.2852293637,
				"z": -2.4791919248,
				"element": "C" 
			},
			{
				"x": 1.3166071187,
				"y": 6.3755356026,
				"z": -2.9693956633,
				"element": "N" 
			},
			{
				"x": -0.3174604641,
				"y": 5.4410829723,
				"z": -1.4290692377,
				"element": "C" 
			},
			{
				"x": -1.0660936913,
				"y": 4.3614813243,
				"z": -0.9825188946,
				"element": "C" 
			},
			{
				"x": 1.8193675608,
				"y": -5.1783867083,
				"z": -1.8667621091,
				"element": "H" 
			},
			{
				"x": 0.8783548963,
				"y": -3.8024002257,
				"z": -2.5161240585,
				"element": "H" 
			},
			{
				"x": 2.6474092173,
				"y": -3.8786881582,
				"z": -2.7687700273,
				"element": "H" 
			},
			{
				"x": 2.4745364143,
				"y": -4.800471984,
				"z": 1.1952303699,
				"element": "H" 
			},
			{
				"x": 0.8493683918,
				"y": -5.206988325,
				"z": 3.0647313944,
				"element": "H" 
			},
			{
				"x": -1.4012917451,
				"y": -4.1287605854,
				"z": 2.9538224491,
				"element": "H" 
			},
			{
				"x": -1.972862502,
				"y": -2.6448993195,
				"z": 1.0982222837,
				"element": "H" 
			},
			{
				"x": 1.5148152319,
				"y": -1.2236002904,
				"z": -1.1472303277,
				"element": "H" 
			},
			{
				"x": 0.4438762178,
				"y": -0.7896598274,
				"z": -2.4879001427,
				"element": "H" 
			},
			{
				"x": 0.750998831,
				"y": 1.1697561813,
				"z": -0.9908508082,
				"element": "H" 
			},
			{
				"x": 0.20139509,
				"y": 0.2172576343,
				"z": 0.3944840798,
				"element": "H" 
			},
			{
				"x": -3.234687341,
				"y": -0.0724161823,
				"z": -0.9653041319,
				"element": "H" 
			},
			{
				"x": -2.2693421945,
				"y": -0.483710217,
				"z": 0.4543650868,
				"element": "H" 
			},
			{
				"x": -1.9129926977,
				"y": -1.554458464,
				"z": -2.3999673731,
				"element": "H" 
			},
			{
				"x": -2.4630515767,
				"y": -2.503094219,
				"z": -1.0175974946,
				"element": "H" 
			},
			{
				"x": 0.114930235,
				"y": 1.969274708,
				"z": -3.0816250944,
				"element": "H" 
			},
			{
				"x": 1.4337178971,
				"y": 3.8800294844,
				"z": -3.8974339525,
				"element": "H" 
			},
			{
				"x": 2.1681896529,
				"y": 6.1640263234,
				"z": -3.4692727128,
				"element": "H" 
			},
			{
				"x": 1.4168758906,
				"y": 7.158389241,
				"z": -2.3393581145,
				"element": "H" 
			},
			{
				"x": -0.4529214418,
				"y": 6.4207649913,
				"z": -0.9773094243,
				"element": "H" 
			},
			{
				"x": -1.7987074766,
				"y": 4.4932918005,
				"z": -0.192930521,
				"element": "H" 
			}
		],
		 "valence_orbital": [ 
			{
				"type": "occ",
				"energy": -0.24812,
				"method": "rhf"
			},
			{
				"type": "occ",
				"energy": -0.23723,
				"method": "rhf"
			},
			{
				"type": "occ",
				"energy": -0.22948,
				"method": "rhf"
			},
			{
				"type": "occ",
				"energy": -0.2062,
				"method": "rhf"
			},
			{
				"type": "occ",
				"energy": -0.19203,
				"method": "rhf"
			},
			{
				"type": "unocc",
				"energy": -0.01513,
				"method": "rhf"
			},
			{
				"type": "unocc",
				"energy": -0.00185,
				"method": "rhf"
			},
			{
				"type": "unocc",
				"energy": 0.00525,
				"method": "rhf"
			},
			{
				"type": "unocc",
				"energy": 0.00997,
				"method": "rhf"
			},
			{
				"type": "unocc",
				"energy": 0.0575,
				"method": "rhf"
			}
		],
		"cosmo_sigma_profile": { 
			"-0.025": 0.0,
			"-0.024": 0.0,
			"-0.023": 0.0,
			"-0.022": 0.0,
			"-0.021": 0.0,
			"-0.02": 0.0,
			"-0.019": 0.0,
			"-0.018": 0.0,
			"-0.017": 0.0,
			"-0.016": 0.0,
			"-0.015": 0.0,
			"-0.014": 0.0,
			"-0.013": 1.01465947582,
			"-0.012": 3.32312859322,
			"-0.011": 2.40557551354,
			"-0.01": 3.20632584125,
			"-0.009": 3.57434010245,
			"-0.008": 2.44587065648,
			"-0.007": 3.74139135934,
			"-0.006": 9.81595978592,
			"-0.005": 23.5068730377,
			"-0.004": 36.330219041,
			"-0.003": 41.9094506813,
			"-0.002": 33.9286761695,
			"-0.001": 26.788190488,
			"0.0": 20.1699329103,
			"0.001": 19.7312799212,
			"0.002": 17.6707365086,
			"0.003": 18.3962847953,
			"0.004": 17.686958584,
			"0.005": 23.4275553152,
			"0.006": 15.2586024243,
			"0.007": 6.27298040069,
			"0.008": 3.87946925318,
			"0.009": 3.15638086434,
			"0.01": 2.63263388839,
			"0.011": 3.45323147806,
			"0.012": 3.58216348088,
			"0.013": 3.37226983535,
			"0.014": 4.76722298607,
			"0.015": 1.35173567511,
			"0.016": 0.00346285140497,
			"0.017": 0.0,
			"0.018": 0.0,
			"0.019": 0.0,
			"0.02": 0.0,
			"0.021": 0.0,
			"0.022": 0.0,
			"0.023": 0.0,
			"0.024": 0.0,
			"0.025": 0.0
		}
	}
}
