{
	 "smiles": "NC1=C(C=C(Br)C=C1)[N+]([O-])=O", 
	 "Tm": 385.15, 
	 "num_atms": 16, 
	 "gaussian": { 
		 "optdone": 1, 
		 "sigma_profile": "yes", 
		 "theory": "DFT", 
		 "functional": "B3LYP", 
		 "basiset": "6-31G**", 
		 "properties": { 
			 "R2extent": 4066.6871, 
			 "electric_dipole_moment_norm": 4.89261131095, 
			 "electric_quadrupole_moment_norm": 4.71981423681, 
			 "total_energy": -3062.91257518, 
			 "HOMO_LUMO_gap": 0.13543, 
			 "cosmo_polarized_energy": -11.54, 
			 "cosmo_cavitation_energy": 23.07, 
			 "cosmo_dispersion_energy": -17.91, 
			 "cosmo_repulsion_energy": 1.44, 
			 "cosmo_total_nonelectrostatic_energy": 6.6, 
			 "SMD_solvation_energy": 4.82 
		},
		"coords": [
			{
				"x": 0.0585444117,
				"y": 1.6095332918,
				"z": 0.5011540982,
				"element": "N" 
			},
			{
				"x": -0.135363343,
				"y": 0.2719486412,
				"z": 0.5910929412,
				"element": "C" 
			},
			{
				"x": -0.4731863503,
				"y": -0.5622437316,
				"z": -0.511765526,
				"element": "C" 
			},
			{
				"x": -0.6619769484,
				"y": -1.945942142,
				"z": -0.3570837788,
				"element": "C" 
			},
			{
				"x": -0.5207465713,
				"y": -2.526496699,
				"z": 0.8849014374,
				"element": "C" 
			},
			{
				"x": -0.7747345289,
				"y": -4.4040036021,
				"z": 1.1059335959,
				"element": "Br" 
			},
			{
				"x": -0.1879351701,
				"y": -1.7346863134,
				"z": 1.9968118701,
				"element": "C" 
			},
			{
				"x": -0.0019792015,
				"y": -0.3758803142,
				"z": 1.8477805104,
				"element": "C" 
			},
			{
				"x": -0.6405968874,
				"y": -0.0310311769,
				"z": -1.8511345897,
				"element": "N" 
			},
			{
				"x": -0.4829948584,
				"y": 1.1910982338,
				"z": -2.0338411955,
				"element": "O" 
			},
			{
				"x": -0.932619476,
				"y": -0.8078481627,
				"z": -2.7596597038,
				"element": "O" 
			},
			{
				"x": -0.0419901394,
				"y": 2.0517049979,
				"z": -0.4008823534,
				"element": "H" 
			},
			{
				"x": 0.2945955727,
				"y": 2.1381197534,
				"z": 1.3237629668,
				"element": "H" 
			},
			{
				"x": -0.9173671215,
				"y": -2.5263668322,
				"z": -1.233025784,
				"element": "H" 
			},
			{
				"x": -0.0771471765,
				"y": -2.1926976517,
				"z": 2.9734094711,
				"element": "H" 
			},
			{
				"x": 0.2551977884,
				"y": 0.2289917077,
				"z": 2.7127460403,
				"element": "H" 
			}
		],
		 "valence_orbital": [ 
			{
				"type": "occ",
				"energy": -0.29574,
				"method": "rhf"
			},
			{
				"type": "occ",
				"energy": -0.29442,
				"method": "rhf"
			},
			{
				"type": "occ",
				"energy": -0.29184,
				"method": "rhf"
			},
			{
				"type": "occ",
				"energy": -0.28741,
				"method": "rhf"
			},
			{
				"type": "occ",
				"energy": -0.22533,
				"method": "rhf"
			},
			{
				"type": "unocc",
				"energy": -0.0899,
				"method": "rhf"
			},
			{
				"type": "unocc",
				"energy": -0.01797,
				"method": "rhf"
			},
			{
				"type": "unocc",
				"energy": -0.00153,
				"method": "rhf"
			},
			{
				"type": "unocc",
				"energy": -0.00145,
				"method": "rhf"
			},
			{
				"type": "unocc",
				"energy": 0.07075,
				"method": "rhf"
			}
		],
		"cosmo_sigma_profile": { 
			"-0.025": 0.0,
			"-0.024": 0.0,
			"-0.023": 0.0,
			"-0.022": 0.0,
			"-0.021": 0.0,
			"-0.02": 0.0,
			"-0.019": 0.0,
			"-0.018": 0.0,
			"-0.017": 0.0,
			"-0.016": 0.0,
			"-0.015": 1.03047075521,
			"-0.014": 1.7589257505,
			"-0.013": 1.58584516156,
			"-0.012": 1.25203682459,
			"-0.011": 2.00863958622,
			"-0.01": 2.81332244517,
			"-0.009": 2.41804022286,
			"-0.008": 4.2372145309,
			"-0.007": 5.09461257538,
			"-0.006": 6.21789615273,
			"-0.005": 7.0465390509,
			"-0.004": 9.36132107536,
			"-0.003": 8.73893930908,
			"-0.002": 10.0821765086,
			"-0.001": 13.0743609736,
			"0.0": 17.6102043835,
			"0.001": 19.4112749726,
			"0.002": 17.78903358,
			"0.003": 12.3580146404,
			"0.004": 13.7304442841,
			"0.005": 7.15505037018,
			"0.006": 2.30120800769,
			"0.007": 4.67445819234,
			"0.008": 6.43661603072,
			"0.009": 4.31058269837,
			"0.01": 4.13480853968,
			"0.011": 1.94304794381,
			"0.012": 0.0,
			"0.013": 0.0,
			"0.014": 0.0,
			"0.015": 0.0,
			"0.016": 0.0,
			"0.017": 0.0,
			"0.018": 0.0,
			"0.019": 0.0,
			"0.02": 0.0,
			"0.021": 0.0,
			"0.022": 0.0,
			"0.023": 0.0,
			"0.024": 0.0,
			"0.025": 0.0
		}
	}
}
