{
	 "smiles": "CCCCCCCCCC(=O)CCCCCCCCC", 
	 "Tm": 338.65, 
	 "num_atms": 58, 
	 "gaussian": { 
		 "optdone": 1, 
		 "sigma_profile": "yes", 
		 "theory": "DFT", 
		 "functional": "B3LYP", 
		 "basiset": "6-31G**", 
		 "properties": { 
			 "R2extent": 16910.7583, 
			 "electric_dipole_moment_norm": 2.42261023279, 
			 "electric_quadrupole_moment_norm": 11.3133689832, 
			 "total_energy": -822.200747962, 
			 "HOMO_LUMO_gap": 0.22653, 
			 "cosmo_polarized_energy": -7.28, 
			 "cosmo_cavitation_energy": 56.34, 
			 "cosmo_dispersion_energy": -38.25, 
			 "cosmo_repulsion_energy": 3.09, 
			 "cosmo_total_nonelectrostatic_energy": 21.19, 
			 "SMD_solvation_energy": 7.94 
		},
		"coords": [
			{
				"x": 7.6398117366,
				"y": -1.8600950292,
				"z": -1.8536589554,
				"element": "C" 
			},
			{
				"x": 6.3657861094,
				"y": -1.6131917186,
				"z": -1.0388251215,
				"element": "C" 
			},
			{
				"x": 6.6492001864,
				"y": -1.3355584302,
				"z": 0.4444540425,
				"element": "C" 
			},
			{
				"x": 5.3984290784,
				"y": -1.1514543801,
				"z": 1.3195396948,
				"element": "C" 
			},
			{
				"x": 4.5689419555,
				"y": 0.1019665825,
				"z": 1.0044950965,
				"element": "C" 
			},
			{
				"x": 3.3742503279,
				"y": 0.2819547654,
				"z": 1.9526036451,
				"element": "C" 
			},
			{
				"x": 2.5584401314,
				"y": 1.5667385686,
				"z": 1.7342902099,
				"element": "C" 
			},
			{
				"x": 1.8306904511,
				"y": 1.6293540598,
				"z": 0.3836399449,
				"element": "C" 
			},
			{
				"x": 0.9227974092,
				"y": 2.8737270062,
				"z": 0.2193358827,
				"element": "C" 
			},
			{
				"x": -0.2942167475,
				"y": 2.8184882512,
				"z": 1.1358511133,
				"element": "C" 
			},
			{
				"x": -0.2387617761,
				"y": 3.2085984723,
				"z": 2.2893904534,
				"element": "O" 
			},
			{
				"x": -1.5693838924,
				"y": 2.2274186069,
				"z": 0.5468244851,
				"element": "C" 
			},
			{
				"x": -2.6866398702,
				"y": 2.0123263884,
				"z": 1.5699686529,
				"element": "C" 
			},
			{
				"x": -3.9624620012,
				"y": 1.3815885817,
				"z": 0.9892242055,
				"element": "C" 
			},
			{
				"x": -4.724159293,
				"y": 2.2852506969,
				"z": 0.0044712896,
				"element": "C" 
			},
			{
				"x": -6.0844048947,
				"y": 1.7421808714,
				"z": -0.4865366861,
				"element": "C" 
			},
			{
				"x": -6.0554279828,
				"y": 0.858688603,
				"z": -1.7495012,
				"element": "C" 
			},
			{
				"x": -5.3580949643,
				"y": -0.5101854998,
				"z": -1.6462126105,
				"element": "C" 
			},
			{
				"x": -5.9514855619,
				"y": -1.4905918958,
				"z": -0.6193604944,
				"element": "C" 
			},
			{
				"x": -7.4029263885,
				"y": -1.8978608196,
				"z": -0.9003136044,
				"element": "C" 
			},
			{
				"x": 8.1973027113,
				"y": -2.7207438054,
				"z": -1.4663821569,
				"element": "H" 
			},
			{
				"x": 8.3081691228,
				"y": -0.9921000179,
				"z": -1.8162849129,
				"element": "H" 
			},
			{
				"x": 7.4117067894,
				"y": -2.0580614908,
				"z": -2.9062319665,
				"element": "H" 
			},
			{
				"x": 5.8149616213,
				"y": -0.7721812653,
				"z": -1.4784213973,
				"element": "H" 
			},
			{
				"x": 5.7035983691,
				"y": -2.4864707652,
				"z": -1.1206024718,
				"element": "H" 
			},
			{
				"x": 7.2420545333,
				"y": -2.1677787004,
				"z": 0.8483192157,
				"element": "H" 
			},
			{
				"x": 7.2862537451,
				"y": -0.4431756061,
				"z": 0.5298501399,
				"element": "H" 
			},
			{
				"x": 4.7589669171,
				"y": -2.0415121454,
				"z": 1.2283262235,
				"element": "H" 
			},
			{
				"x": 5.7082251538,
				"y": -1.1107414906,
				"z": 2.3727263141,
				"element": "H" 
			},
			{
				"x": 4.215379332,
				"y": 0.0580690883,
				"z": -0.0328890771,
				"element": "H" 
			},
			{
				"x": 5.2168937338,
				"y": 0.9886806135,
				"z": 1.0690544799,
				"element": "H" 
			},
			{
				"x": 2.7088640437,
				"y": -0.5896012478,
				"z": 1.8664855708,
				"element": "H" 
			},
			{
				"x": 3.7427779762,
				"y": 0.276077179,
				"z": 2.9872455095,
				"element": "H" 
			},
			{
				"x": 3.2214616128,
				"y": 2.4391094639,
				"z": 1.8215910374,
				"element": "H" 
			},
			{
				"x": 1.825371511,
				"y": 1.6682810208,
				"z": 2.5418342465,
				"element": "H" 
			},
			{
				"x": 1.2309338432,
				"y": 0.7181341057,
				"z": 0.2454947325,
				"element": "H" 
			},
			{
				"x": 2.5587517854,
				"y": 1.637452476,
				"z": -0.4356017775,
				"element": "H" 
			},
			{
				"x": 0.5989246843,
				"y": 2.9490459527,
				"z": -0.8253415502,
				"element": "H" 
			},
			{
				"x": 1.4923854672,
				"y": 3.7754561323,
				"z": 0.4684213601,
				"element": "H" 
			},
			{
				"x": -1.3107765602,
				"y": 1.2865006226,
				"z": 0.037889097,
				"element": "H" 
			},
			{
				"x": -1.8882916899,
				"y": 2.9032190413,
				"z": -0.260330499,
				"element": "H" 
			},
			{
				"x": -2.9247121898,
				"y": 2.9728190427,
				"z": 2.042212353,
				"element": "H" 
			},
			{
				"x": -2.3004614812,
				"y": 1.3775520088,
				"z": 2.3756952588,
				"element": "H" 
			},
			{
				"x": -3.7097523068,
				"y": 0.424437561,
				"z": 0.5160400419,
				"element": "H" 
			},
			{
				"x": -4.6351068426,
				"y": 1.1367935624,
				"z": 1.8222160418,
				"element": "H" 
			},
			{
				"x": -4.0967768374,
				"y": 2.5121903104,
				"z": -0.8687053332,
				"element": "H" 
			},
			{
				"x": -4.8941924121,
				"y": 3.2477398523,
				"z": 0.5061655933,
				"element": "H" 
			},
			{
				"x": -6.5835930658,
				"y": 1.2130110255,
				"z": 0.3365358499,
				"element": "H" 
			},
			{
				"x": -6.7301273873,
				"y": 2.5993348408,
				"z": -0.7156556064,
				"element": "H" 
			},
			{
				"x": -5.5731246367,
				"y": 1.4285797779,
				"z": -2.5558405082,
				"element": "H" 
			},
			{
				"x": -7.0908715436,
				"y": 0.7043970252,
				"z": -2.0796024426,
				"element": "H" 
			},
			{
				"x": -4.2933817422,
				"y": -0.3640076697,
				"z": -1.4257434698,
				"element": "H" 
			},
			{
				"x": -5.3917325487,
				"y": -0.9827008102,
				"z": -2.6380560276,
				"element": "H" 
			},
			{
				"x": -5.3256773933,
				"y": -2.3923160609,
				"z": -0.6037464943,
				"element": "H" 
			},
			{
				"x": -5.8821345899,
				"y": -1.0629195749,
				"z": 0.38874977,
				"element": "H" 
			},
			{
				"x": -7.7485836343,
				"y": -2.6456796988,
				"z": -0.1789620824,
				"element": "H" 
			},
			{
				"x": -7.5049004789,
				"y": -2.3312531363,
				"z": -1.9023104195,
				"element": "H" 
			},
			{
				"x": -8.0867696253,
				"y": -1.0448808983,
				"z": -0.8393246862,
				"element": "H" 
			}
		],
		 "valence_orbital": [ 
			{
				"type": "occ",
				"energy": -0.30482,
				"method": "rhf"
			},
			{
				"type": "occ",
				"energy": -0.30374,
				"method": "rhf"
			},
			{
				"type": "occ",
				"energy": -0.30265,
				"method": "rhf"
			},
			{
				"type": "occ",
				"energy": -0.30002,
				"method": "rhf"
			},
			{
				"type": "occ",
				"energy": -0.23663,
				"method": "rhf"
			},
			{
				"type": "unocc",
				"energy": -0.0101,
				"method": "rhf"
			},
			{
				"type": "unocc",
				"energy": 0.07517,
				"method": "rhf"
			},
			{
				"type": "unocc",
				"energy": 0.08286,
				"method": "rhf"
			},
			{
				"type": "unocc",
				"energy": 0.09141,
				"method": "rhf"
			},
			{
				"type": "unocc",
				"energy": 0.1014,
				"method": "rhf"
			}
		],
		"cosmo_sigma_profile": { 
			"-0.025": 0.0,
			"-0.024": 0.0,
			"-0.023": 0.0,
			"-0.022": 0.0,
			"-0.021": 0.0,
			"-0.02": 0.0,
			"-0.019": 0.0,
			"-0.018": 0.0,
			"-0.017": 0.0,
			"-0.016": 0.0,
			"-0.015": 0.0,
			"-0.014": 0.0,
			"-0.013": 0.0,
			"-0.012": 0.0,
			"-0.011": 0.0,
			"-0.01": 0.0,
			"-0.009": 0.0,
			"-0.008": 0.0,
			"-0.007": 0.0,
			"-0.006": 0.347312079839,
			"-0.005": 5.30090492363,
			"-0.004": 12.5961290403,
			"-0.003": 19.316094112,
			"-0.002": 62.2713936824,
			"-0.001": 98.4916627414,
			"0.0": 96.4609732111,
			"0.001": 77.268996905,
			"0.002": 33.1748899619,
			"0.003": 2.40395573519,
			"0.004": 2.27150843992,
			"0.005": 2.21249366091,
			"0.006": 2.28927286443,
			"0.007": 1.54742055109,
			"0.008": 2.03886427624,
			"0.009": 1.55607150212,
			"0.01": 1.83917083934,
			"0.011": 2.31181282202,
			"0.012": 3.51810528416,
			"0.013": 3.08953463061,
			"0.014": 0.648098819373,
			"0.015": 0.0,
			"0.016": 0.0,
			"0.017": 0.0,
			"0.018": 0.0,
			"0.019": 0.0,
			"0.02": 0.0,
			"0.021": 0.0,
			"0.022": 0.0,
			"0.023": 0.0,
			"0.024": 0.0,
			"0.025": 0.0
		}
	}
}
