{
	 "smiles": "OC(=O)C1CCCN1C(=O)C1=C(O)C=CC=C1", 
	 "Tm": 408.15, 
	 "num_atms": 30, 
	 "gaussian": { 
		 "optdone": 1, 
		 "sigma_profile": "yes", 
		 "theory": "DFT", 
		 "functional": "B3LYP", 
		 "basiset": "6-31G**", 
		 "properties": { 
			 "R2extent": 6243.5159, 
			 "electric_dipole_moment_norm": 7.03305553085, 
			 "electric_quadrupole_moment_norm": 26.2060375133, 
			 "total_energy": -820.786555436, 
			 "HOMO_LUMO_gap": 0.1739, 
			 "cosmo_polarized_energy": -19.69, 
			 "cosmo_cavitation_energy": 32.33, 
			 "cosmo_dispersion_energy": -23.65, 
			 "cosmo_repulsion_energy": 1.81, 
			 "cosmo_total_nonelectrostatic_energy": 10.49, 
			 "SMD_solvation_energy": 6.6 
		},
		"coords": [
			{
				"x": -0.0101134245,
				"y": 4.23940338,
				"z": 0.5796994551,
				"element": "O" 
			},
			{
				"x": 0.9186130211,
				"y": 3.9484536844,
				"z": -0.353323713,
				"element": "C" 
			},
			{
				"x": 1.467223617,
				"y": 4.8103800762,
				"z": -0.9934558872,
				"element": "O" 
			},
			{
				"x": 1.1905456455,
				"y": 2.456826863,
				"z": -0.6370508851,
				"element": "C" 
			},
			{
				"x": 0.5733622945,
				"y": 2.052425912,
				"z": -1.9916565378,
				"element": "C" 
			},
			{
				"x": -0.8195576729,
				"y": 1.5427699648,
				"z": -1.5969738174,
				"element": "C" 
			},
			{
				"x": -0.5337488864,
				"y": 0.7538310397,
				"z": -0.3132879021,
				"element": "C" 
			},
			{
				"x": 0.5549737797,
				"y": 1.5256369102,
				"z": 0.3230897805,
				"element": "N" 
			},
			{
				"x": 1.1426335539,
				"y": 1.3898322686,
				"z": 1.5616286713,
				"element": "C" 
			},
			{
				"x": 2.0538004289,
				"y": 2.2039900474,
				"z": 1.8368537526,
				"element": "O" 
			},
			{
				"x": 0.6972424769,
				"y": 0.4032134927,
				"z": 2.5776073095,
				"element": "C" 
			},
			{
				"x": 1.0809201731,
				"y": 0.652251077,
				"z": 3.9319622152,
				"element": "C" 
			},
			{
				"x": 1.8442128072,
				"y": 1.687512648,
				"z": 4.2987413407,
				"element": "O" 
			},
			{
				"x": 0.6442907678,
				"y": -0.2144218154,
				"z": 4.9502788532,
				"element": "C" 
			},
			{
				"x": -0.1054245943,
				"y": -1.3387155651,
				"z": 4.6486240276,
				"element": "C" 
			},
			{
				"x": -0.4381624223,
				"y": -1.6333069813,
				"z": 3.3189232045,
				"element": "C" 
			},
			{
				"x": -0.0423419986,
				"y": -0.7691752478,
				"z": 2.3092539165,
				"element": "C" 
			},
			{
				"x": -0.2751739046,
				"y": 3.4147895245,
				"z": 1.0165811726,
				"element": "H" 
			},
			{
				"x": 2.2754625574,
				"y": 2.342555843,
				"z": -0.6140449805,
				"element": "H" 
			},
			{
				"x": 0.5633281086,
				"y": 2.8903723281,
				"z": -2.6902915664,
				"element": "H" 
			},
			{
				"x": 1.1627457385,
				"y": 1.2437107804,
				"z": -2.4369690931,
				"element": "H" 
			},
			{
				"x": -1.4886781494,
				"y": 2.3844284011,
				"z": -1.3861605805,
				"element": "H" 
			},
			{
				"x": -1.2909780919,
				"y": 0.9206773936,
				"z": -2.3616766034,
				"element": "H" 
			},
			{
				"x": -1.3972223859,
				"y": 0.671800527,
				"z": 0.3512457807,
				"element": "H" 
			},
			{
				"x": -0.1956958836,
				"y": -0.2583670928,
				"z": -0.5685596594,
				"element": "H" 
			},
			{
				"x": 2.1479217884,
				"y": 2.1183832938,
				"z": 3.4555152919,
				"element": "H" 
			},
			{
				"x": 0.9367449951,
				"y": 0.0209841103,
				"z": 5.9679588778,
				"element": "H" 
			},
			{
				"x": -0.4214896427,
				"y": -2.0028180762,
				"z": 5.4481844507,
				"element": "H" 
			},
			{
				"x": -0.9976612761,
				"y": -2.5307110777,
				"z": 3.0763271207,
				"element": "H" 
			},
			{
				"x": -0.2882734202,
				"y": -1.0322137095,
				"z": 1.2908760046,
				"element": "H" 
			}
		],
		 "valence_orbital": [ 
			{
				"type": "occ",
				"energy": -0.29294,
				"method": "rhf"
			},
			{
				"type": "occ",
				"energy": -0.28162,
				"method": "rhf"
			},
			{
				"type": "occ",
				"energy": -0.26992,
				"method": "rhf"
			},
			{
				"type": "occ",
				"energy": -0.25676,
				"method": "rhf"
			},
			{
				"type": "occ",
				"energy": -0.2286,
				"method": "rhf"
			},
			{
				"type": "unocc",
				"energy": -0.0547,
				"method": "rhf"
			},
			{
				"type": "unocc",
				"energy": -0.00293,
				"method": "rhf"
			},
			{
				"type": "unocc",
				"energy": 0.00848,
				"method": "rhf"
			},
			{
				"type": "unocc",
				"energy": 0.03417,
				"method": "rhf"
			},
			{
				"type": "unocc",
				"energy": 0.05357,
				"method": "rhf"
			}
		],
		"cosmo_sigma_profile": { 
			"-0.025": 0.0,
			"-0.024": 0.0,
			"-0.023": 0.0,
			"-0.022": 0.0,
			"-0.021": 0.0,
			"-0.02": 0.0,
			"-0.019": 0.0,
			"-0.018": 0.0,
			"-0.017": 0.0497837103249,
			"-0.016": 0.408590267564,
			"-0.015": 0.654206790613,
			"-0.014": 1.19828724087,
			"-0.013": 0.876591487207,
			"-0.012": 0.866901903005,
			"-0.011": 1.29160242159,
			"-0.01": 1.23224091736,
			"-0.009": 1.02996442418,
			"-0.008": 2.57255108611,
			"-0.007": 6.52594427376,
			"-0.006": 16.7919292036,
			"-0.005": 28.7909041401,
			"-0.004": 25.1839119412,
			"-0.003": 19.9478393082,
			"-0.002": 17.0873706761,
			"-0.001": 13.067533303,
			"0.0": 11.2691331808,
			"0.001": 11.7445779113,
			"0.002": 11.4427934238,
			"0.003": 14.2621469131,
			"0.004": 14.4628758843,
			"0.005": 10.5378466677,
			"0.006": 5.85704319384,
			"0.007": 4.3101645121,
			"0.008": 6.23806310067,
			"0.009": 5.72932187226,
			"0.01": 8.89619412744,
			"0.011": 6.07609059534,
			"0.012": 6.37524820306,
			"0.013": 1.68180137589,
			"0.014": 0.00308233563228,
			"0.015": 0.0,
			"0.016": 0.0,
			"0.017": 0.0,
			"0.018": 0.0,
			"0.019": 0.0,
			"0.02": 0.0,
			"0.021": 0.0,
			"0.022": 0.0,
			"0.023": 0.0,
			"0.024": 0.0,
			"0.025": 0.0
		}
	}
}
