{
	 "smiles": "COC1=CC=C(C=C1N)C(N)=O", 
	 "Tm": 431.15, 
	 "num_atms": 22, 
	 "gaussian": { 
		 "optdone": 1, 
		 "sigma_profile": "yes", 
		 "theory": "DFT", 
		 "functional": "B3LYP", 
		 "basiset": "6-31G**", 
		 "properties": { 
			 "R2extent": 3043.0259, 
			 "electric_dipole_moment_norm": 4.90284488537, 
			 "electric_quadrupole_moment_norm": 19.6234575055, 
			 "total_energy": -570.839086449, 
			 "HOMO_LUMO_gap": 0.17585, 
			 "cosmo_polarized_energy": -18.28, 
			 "cosmo_cavitation_energy": 25.92, 
			 "cosmo_dispersion_energy": -19.35, 
			 "cosmo_repulsion_energy": 1.56, 
			 "cosmo_total_nonelectrostatic_energy": 8.13, 
			 "SMD_solvation_energy": 5.91 
		},
		"coords": [
			{
				"x": 2.8621378743,
				"y": -1.3319494894,
				"z": -3.5950548377,
				"element": "C" 
			},
			{
				"x": 2.0752272356,
				"y": -0.3612769807,
				"z": -2.9224550075,
				"element": "O" 
			},
			{
				"x": 1.1757533325,
				"y": -0.7929653936,
				"z": -1.9832328615,
				"element": "C" 
			},
			{
				"x": 0.9734185098,
				"y": -2.1217847586,
				"z": -1.6157654577,
				"element": "C" 
			},
			{
				"x": 0.0330084085,
				"y": -2.443409222,
				"z": -0.6349296124,
				"element": "C" 
			},
			{
				"x": -0.6995094876,
				"y": -1.4355218681,
				"z": -0.0068480913,
				"element": "C" 
			},
			{
				"x": -0.5009863228,
				"y": -0.0977835372,
				"z": -0.3893027351,
				"element": "C" 
			},
			{
				"x": 0.4253863888,
				"y": 0.2448607521,
				"z": -1.3752970461,
				"element": "C" 
			},
			{
				"x": 0.5923477962,
				"y": 1.553235228,
				"z": -1.8248432846,
				"element": "N" 
			},
			{
				"x": -1.6803751655,
				"y": -1.8465317815,
				"z": 1.0477223046,
				"element": "C" 
			},
			{
				"x": -2.1281724853,
				"y": -0.8487011798,
				"z": 1.8895882952,
				"element": "N" 
			},
			{
				"x": -2.0853216019,
				"y": -2.9985266768,
				"z": 1.1554109344,
				"element": "O" 
			},
			{
				"x": 3.4949934066,
				"y": -0.7796827017,
				"z": -4.2914768856,
				"element": "H" 
			},
			{
				"x": 3.4956591708,
				"y": -1.8922012122,
				"z": -2.8956559705,
				"element": "H" 
			},
			{
				"x": 2.2359302283,
				"y": -2.0368018523,
				"z": -4.1558679886,
				"element": "H" 
			},
			{
				"x": 1.54576727,
				"y": -2.9125739707,
				"z": -2.0866067547,
				"element": "H" 
			},
			{
				"x": -0.1418060066,
				"y": -3.4727543658,
				"z": -0.3442807427,
				"element": "H" 
			},
			{
				"x": -1.1070480071,
				"y": 0.6939479935,
				"z": 0.0433972262,
				"element": "H" 
			},
			{
				"x": 1.4640164445,
				"y": 1.7129137129,
				"z": -2.31022107,
				"element": "H" 
			},
			{
				"x": 0.3763288896,
				"y": 2.2721048668,
				"z": -1.1491834849,
				"element": "H" 
			},
			{
				"x": -2.6757883876,
				"y": -1.1751101919,
				"z": 2.6731657288,
				"element": "H" 
			},
			{
				"x": -1.5512674913,
				"y": -0.037987371,
				"z": 2.0525373416,
				"element": "H" 
			}
		],
		 "valence_orbital": [ 
			{
				"type": "occ",
				"energy": -0.3055,
				"method": "rhf"
			},
			{
				"type": "occ",
				"energy": -0.26257,
				"method": "rhf"
			},
			{
				"type": "occ",
				"energy": -0.2395,
				"method": "rhf"
			},
			{
				"type": "occ",
				"energy": -0.23525,
				"method": "rhf"
			},
			{
				"type": "occ",
				"energy": -0.19524,
				"method": "rhf"
			},
			{
				"type": "unocc",
				"energy": -0.01939,
				"method": "rhf"
			},
			{
				"type": "unocc",
				"energy": 0.01035,
				"method": "rhf"
			},
			{
				"type": "unocc",
				"energy": 0.07247,
				"method": "rhf"
			},
			{
				"type": "unocc",
				"energy": 0.08126,
				"method": "rhf"
			},
			{
				"type": "unocc",
				"energy": 0.09258,
				"method": "rhf"
			}
		],
		"cosmo_sigma_profile": { 
			"-0.025": 0.0,
			"-0.024": 0.0,
			"-0.023": 0.0,
			"-0.022": 0.0,
			"-0.021": 0.0,
			"-0.02": 0.0,
			"-0.019": 0.0,
			"-0.018": 0.0,
			"-0.017": 0.0,
			"-0.016": 0.0,
			"-0.015": 0.0,
			"-0.014": 0.612448635595,
			"-0.013": 2.32333062227,
			"-0.012": 3.50730475189,
			"-0.011": 3.93346480795,
			"-0.01": 5.46274654168,
			"-0.009": 5.08162963986,
			"-0.008": 4.96157101412,
			"-0.007": 4.91324561846,
			"-0.006": 10.2278051465,
			"-0.005": 15.2812827852,
			"-0.004": 13.6042202615,
			"-0.003": 13.7429715938,
			"-0.002": 8.93800187761,
			"-0.001": 9.1212051494,
			"0.0": 7.40283001394,
			"0.001": 8.83758297159,
			"0.002": 11.4590226867,
			"0.003": 11.8525318769,
			"0.004": 11.4193082305,
			"0.005": 14.4088599864,
			"0.006": 8.52506964039,
			"0.007": 4.60506292509,
			"0.008": 3.77048352984,
			"0.009": 2.96913150115,
			"0.01": 1.92044539441,
			"0.011": 2.56447943561,
			"0.012": 2.37224766446,
			"0.013": 4.0812572836,
			"0.014": 6.08235451068,
			"0.015": 1.12690295401,
			"0.016": 0.0,
			"0.017": 0.0,
			"0.018": 0.0,
			"0.019": 0.0,
			"0.02": 0.0,
			"0.021": 0.0,
			"0.022": 0.0,
			"0.023": 0.0,
			"0.024": 0.0,
			"0.025": 0.0
		}
	}
}
