{
	 "smiles": "CC(C)(C(O)=O)C1=C(Cl)C=CC=C1", 
	 "Tm": 385.15, 
	 "num_atms": 24, 
	 "gaussian": { 
		 "optdone": 1, 
		 "sigma_profile": "yes", 
		 "theory": "DFT", 
		 "functional": "B3LYP", 
		 "basiset": "6-31G**", 
		 "properties": { 
			 "R2extent": 3280.1254, 
			 "electric_dipole_moment_norm": 2.90617136109, 
			 "electric_quadrupole_moment_norm": 3.96810716211, 
			 "total_energy": -998.351890951, 
			 "HOMO_LUMO_gap": 0.2291, 
			 "cosmo_polarized_energy": -10.56, 
			 "cosmo_cavitation_energy": 28.09, 
			 "cosmo_dispersion_energy": -20.06, 
			 "cosmo_repulsion_energy": 1.57, 
			 "cosmo_total_nonelectrostatic_energy": 9.61, 
			 "SMD_solvation_energy": 5.74 
		},
		"coords": [
			{
				"x": 0.8299776412,
				"y": -1.0195929656,
				"z": 0.1720998287,
				"element": "C" 
			},
			{
				"x": -0.3573287436,
				"y": -0.873585401,
				"z": -0.8047080643,
				"element": "C" 
			},
			{
				"x": -1.546857047,
				"y": -1.7004518974,
				"z": -0.2472489056,
				"element": "C" 
			},
			{
				"x": -0.0167269266,
				"y": -1.5720684831,
				"z": -2.131925937,
				"element": "C" 
			},
			{
				"x": -0.8512885364,
				"y": -1.2032155891,
				"z": -3.1324773403,
				"element": "O" 
			},
			{
				"x": 0.8223455064,
				"y": -2.4335840365,
				"z": -2.2704699877,
				"element": "O" 
			},
			{
				"x": -0.7131774627,
				"y": 0.6098897566,
				"z": -1.0010145163,
				"element": "C" 
			},
			{
				"x": 0.112246426,
				"y": 1.516896314,
				"z": -1.6938284815,
				"element": "C" 
			},
			{
				"x": 1.6049703325,
				"y": 0.9905921966,
				"z": -2.4780998214,
				"element": "Cl" 
			},
			{
				"x": -0.1992737583,
				"y": 2.8708035893,
				"z": -1.8154150053,
				"element": "C" 
			},
			{
				"x": -1.361554906,
				"y": 3.371637361,
				"z": -1.2338033148,
				"element": "C" 
			},
			{
				"x": -2.2021937833,
				"y": 2.5060320056,
				"z": -0.5393199546,
				"element": "C" 
			},
			{
				"x": -1.8757374846,
				"y": 1.1547083355,
				"z": -0.4323095716,
				"element": "C" 
			},
			{
				"x": 0.54737859,
				"y": -0.6227922906,
				"z": 1.1515869544,
				"element": "H" 
			},
			{
				"x": 1.0981233895,
				"y": -2.0732237553,
				"z": 0.2773883697,
				"element": "H" 
			},
			{
				"x": 1.7124623,
				"y": -0.4830221647,
				"z": -0.1783437093,
				"element": "H" 
			},
			{
				"x": -2.4354364005,
				"y": -1.6107438394,
				"z": -0.8772229248,
				"element": "H" 
			},
			{
				"x": -1.259584257,
				"y": -2.7546067871,
				"z": -0.2032326791,
				"element": "H" 
			},
			{
				"x": -1.7973579782,
				"y": -1.3861222403,
				"z": 0.769746906,
				"element": "H" 
			},
			{
				"x": -0.588965469,
				"y": -1.7304103984,
				"z": -3.9057745004,
				"element": "H" 
			},
			{
				"x": 0.472237142,
				"y": 3.5203049232,
				"z": -2.3658859207,
				"element": "H" 
			},
			{
				"x": -1.6022160451,
				"y": 4.4261005377,
				"z": -1.3282912335,
				"element": "H" 
			},
			{
				"x": -3.1144286903,
				"y": 2.8750939173,
				"z": -0.0804425342,
				"element": "H" 
			},
			{
				"x": -2.5520138389,
				"y": 0.5058609117,
				"z": 0.1101923436,
				"element": "H" 
			}
		],
		 "valence_orbital": [ 
			{
				"type": "occ",
				"energy": -0.31725,
				"method": "rhf"
			},
			{
				"type": "occ",
				"energy": -0.30676,
				"method": "rhf"
			},
			{
				"type": "occ",
				"energy": -0.27554,
				"method": "rhf"
			},
			{
				"type": "occ",
				"energy": -0.25594,
				"method": "rhf"
			},
			{
				"type": "occ",
				"energy": -0.24485,
				"method": "rhf"
			},
			{
				"type": "unocc",
				"energy": -0.01575,
				"method": "rhf"
			},
			{
				"type": "unocc",
				"energy": -0.0132,
				"method": "rhf"
			},
			{
				"type": "unocc",
				"energy": 0.01041,
				"method": "rhf"
			},
			{
				"type": "unocc",
				"energy": 0.0329,
				"method": "rhf"
			},
			{
				"type": "unocc",
				"energy": 0.07873,
				"method": "rhf"
			}
		],
		"cosmo_sigma_profile": { 
			"-0.025": 0.0,
			"-0.024": 0.0,
			"-0.023": 0.0,
			"-0.022": 0.0,
			"-0.021": 0.0,
			"-0.02": 0.0,
			"-0.019": 0.0473390340161,
			"-0.018": 0.600654034453,
			"-0.017": 0.796094863654,
			"-0.016": 0.94802858319,
			"-0.015": 0.89530026115,
			"-0.014": 1.05868650649,
			"-0.013": 0.377207599639,
			"-0.012": 0.356615579317,
			"-0.011": 0.867899412563,
			"-0.01": 0.802767579205,
			"-0.009": 0.318594727275,
			"-0.008": 0.393417546395,
			"-0.007": 3.62100937072,
			"-0.006": 10.197021844,
			"-0.005": 12.5212312556,
			"-0.004": 17.2586591799,
			"-0.003": 16.3515258458,
			"-0.002": 18.5518544794,
			"-0.001": 20.4418465631,
			"0.0": 19.3418309958,
			"0.001": 15.9735331921,
			"0.002": 15.146888086,
			"0.003": 15.4135002797,
			"0.004": 18.7241440275,
			"0.005": 9.26333147912,
			"0.006": 3.94085650612,
			"0.007": 3.84340286998,
			"0.008": 2.57100393765,
			"0.009": 2.71078514287,
			"0.01": 2.49015825942,
			"0.011": 3.45278091551,
			"0.012": 4.3532854012,
			"0.013": 0.181392828304,
			"0.014": 0.0,
			"0.015": 0.0,
			"0.016": 0.0,
			"0.017": 0.0,
			"0.018": 0.0,
			"0.019": 0.0,
			"0.02": 0.0,
			"0.021": 0.0,
			"0.022": 0.0,
			"0.023": 0.0,
			"0.024": 0.0,
			"0.025": 0.0
		}
	}
}
