{
	 "smiles": "CCC1=C(N)C2=C(C=CC=C2)N=C1C", 
	 "Tm": 422.15, 
	 "num_atms": 28, 
	 "gaussian": { 
		 "optdone": 1, 
		 "sigma_profile": "yes", 
		 "theory": "DFT", 
		 "functional": "B3LYP", 
		 "basiset": "6-31G**", 
		 "properties": { 
			 "R2extent": 3324.8182, 
			 "electric_dipole_moment_norm": 3.39029378226, 
			 "electric_quadrupole_moment_norm": 8.7722830147, 
			 "total_energy": -575.247634275, 
			 "HOMO_LUMO_gap": 0.1699, 
			 "cosmo_polarized_energy": -12.25, 
			 "cosmo_cavitation_energy": 29.73, 
			 "cosmo_dispersion_energy": -22.0, 
			 "cosmo_repulsion_energy": 1.7, 
			 "cosmo_total_nonelectrostatic_energy": 9.43, 
			 "SMD_solvation_energy": 3.26 
		},
		"coords": [
			{
				"x": -0.0718826172,
				"y": -2.9707376739,
				"z": 2.0918393257,
				"element": "C" 
			},
			{
				"x": 0.652052615,
				"y": -1.6137704757,
				"z": 1.9729089921,
				"element": "C" 
			},
			{
				"x": -0.0437841532,
				"y": -0.6256096948,
				"z": 1.0570314522,
				"element": "C" 
			},
			{
				"x": -1.0823646837,
				"y": 0.1732067125,
				"z": 1.5363038706,
				"element": "C" 
			},
			{
				"x": -1.4860903595,
				"y": 0.1169017517,
				"z": 2.8634128052,
				"element": "N" 
			},
			{
				"x": -1.7080082961,
				"y": 1.1123954798,
				"z": 0.6486958777,
				"element": "C" 
			},
			{
				"x": -1.2612038855,
				"y": 1.1257356961,
				"z": -0.706139628,
				"element": "C" 
			},
			{
				"x": -1.875626779,
				"y": 2.0200570783,
				"z": -1.6228328666,
				"element": "C" 
			},
			{
				"x": -2.8757015389,
				"y": 2.8747426077,
				"z": -1.2162576639,
				"element": "C" 
			},
			{
				"x": -3.3020737079,
				"y": 2.8781297638,
				"z": 0.132101163,
				"element": "C" 
			},
			{
				"x": -2.7289463808,
				"y": 2.0160810432,
				"z": 1.0431786778,
				"element": "C" 
			},
			{
				"x": -0.2643149235,
				"y": 0.3208107685,
				"z": -1.1704224116,
				"element": "N" 
			},
			{
				"x": 0.3208508007,
				"y": -0.5045967825,
				"z": -0.3179805603,
				"element": "C" 
			},
			{
				"x": 1.4348846869,
				"y": -1.3484230118,
				"z": -0.8982548971,
				"element": "C" 
			},
			{
				"x": 0.4591152967,
				"y": -3.642312941,
				"z": 2.774828048,
				"element": "H" 
			},
			{
				"x": -1.0961465332,
				"y": -2.8539334955,
				"z": 2.4633846964,
				"element": "H" 
			},
			{
				"x": -0.1403767579,
				"y": -3.4639029459,
				"z": 1.1173456034,
				"element": "H" 
			},
			{
				"x": 0.7696037201,
				"y": -1.1722601975,
				"z": 2.9713484329,
				"element": "H" 
			},
			{
				"x": 1.671195951,
				"y": -1.7898313856,
				"z": 1.6185659854,
				"element": "H" 
			},
			{
				"x": -2.4324205591,
				"y": 0.4117688116,
				"z": 3.0506735482,
				"element": "H" 
			},
			{
				"x": -1.2406312088,
				"y": -0.7209409093,
				"z": 3.3674538398,
				"element": "H" 
			},
			{
				"x": -1.5179917254,
				"y": 2.0015853628,
				"z": -2.6472957754,
				"element": "H" 
			},
			{
				"x": -3.3350015166,
				"y": 3.5553751829,
				"z": -1.9275281849,
				"element": "H" 
			},
			{
				"x": -4.0780528281,
				"y": 3.5672313225,
				"z": 0.4523422206,
				"element": "H" 
			},
			{
				"x": -3.0510143372,
				"y": 2.0616360415,
				"z": 2.0798116524,
				"element": "H" 
			},
			{
				"x": 1.2693059382,
				"y": -2.4198909963,
				"z": -0.7391354995,
				"element": "H" 
			},
			{
				"x": 1.4935577184,
				"y": -1.1564919697,
				"z": -1.9701493077,
				"element": "H" 
			},
			{
				"x": 2.4044660646,
				"y": -1.1015551432,
				"z": -0.4485293965,
				"element": "H" 
			}
		],
		 "valence_orbital": [ 
			{
				"type": "occ",
				"energy": -0.3176,
				"method": "rhf"
			},
			{
				"type": "occ",
				"energy": -0.25268,
				"method": "rhf"
			},
			{
				"type": "occ",
				"energy": -0.23663,
				"method": "rhf"
			},
			{
				"type": "occ",
				"energy": -0.23203,
				"method": "rhf"
			},
			{
				"type": "occ",
				"energy": -0.20187,
				"method": "rhf"
			},
			{
				"type": "unocc",
				"energy": -0.03197,
				"method": "rhf"
			},
			{
				"type": "unocc",
				"energy": -0.00402,
				"method": "rhf"
			},
			{
				"type": "unocc",
				"energy": 0.04114,
				"method": "rhf"
			},
			{
				"type": "unocc",
				"energy": 0.05929,
				"method": "rhf"
			},
			{
				"type": "unocc",
				"energy": 0.09091,
				"method": "rhf"
			}
		],
		"cosmo_sigma_profile": { 
			"-0.025": 0.0,
			"-0.024": 0.0,
			"-0.023": 0.0,
			"-0.022": 0.0,
			"-0.021": 0.0,
			"-0.02": 0.0,
			"-0.019": 0.0,
			"-0.018": 0.0,
			"-0.017": 0.0,
			"-0.016": 0.0,
			"-0.015": 0.0,
			"-0.014": 0.200516635459,
			"-0.013": 1.18889776244,
			"-0.012": 1.93076843375,
			"-0.011": 2.25253790383,
			"-0.01": 3.59246466944,
			"-0.009": 2.48832769709,
			"-0.008": 2.470419671,
			"-0.007": 3.30264559941,
			"-0.006": 5.0241718436,
			"-0.005": 9.45594112892,
			"-0.004": 17.347978539,
			"-0.003": 21.2048863108,
			"-0.002": 21.3297166509,
			"-0.001": 21.480245494,
			"0.0": 21.2030098816,
			"0.001": 19.7803528904,
			"0.002": 10.5140536444,
			"0.003": 16.703490873,
			"0.004": 18.1547752621,
			"0.005": 13.3946540871,
			"0.006": 5.63923883258,
			"0.007": 2.76474353565,
			"0.008": 2.16642545711,
			"0.009": 2.34022021745,
			"0.01": 1.9803977353,
			"0.011": 1.83726245143,
			"0.012": 1.48190809469,
			"0.013": 1.00305126371,
			"0.014": 0.907114700347,
			"0.015": 1.01141357548,
			"0.016": 0.914622263172,
			"0.017": 0.171344442876,
			"0.018": 0.0,
			"0.019": 0.0,
			"0.02": 0.0,
			"0.021": 0.0,
			"0.022": 0.0,
			"0.023": 0.0,
			"0.024": 0.0,
			"0.025": 0.0
		}
	}
}
