{
	 "smiles": "CC(=O)NC1=CC=C(C=C1)C1=CC=C(F)C=C1", 
	 "Tm": 479.15, 
	 "num_atms": 29, 
	 "gaussian": { 
		 "optdone": 1, 
		 "sigma_profile": "yes", 
		 "theory": "DFT", 
		 "functional": "B3LYP", 
		 "basiset": "6-31G**", 
		 "properties": { 
			 "R2extent": 6777.9642, 
			 "electric_dipole_moment_norm": 1.9162315883, 
			 "electric_quadrupole_moment_norm": 29.2456211951, 
			 "total_energy": -770.556638013, 
			 "HOMO_LUMO_gap": 0.17998, 
			 "cosmo_polarized_energy": -12.96, 
			 "cosmo_cavitation_energy": 33.92, 
			 "cosmo_dispersion_energy": -24.39, 
			 "cosmo_repulsion_energy": 1.85, 
			 "cosmo_total_nonelectrostatic_energy": 11.38, 
			 "SMD_solvation_energy": 6.91 
		},
		"coords": [
			{
				"x": -1.5233828296,
				"y": 4.1517036451,
				"z": -1.3954613644,
				"element": "C" 
			},
			{
				"x": -2.3743459662,
				"y": 3.8671439602,
				"z": -0.1727322125,
				"element": "C" 
			},
			{
				"x": -3.2901077024,
				"y": 4.6036844278,
				"z": 0.1636336274,
				"element": "O" 
			},
			{
				"x": -2.0908867747,
				"y": 2.7471083226,
				"z": 0.5948240074,
				"element": "N" 
			},
			{
				"x": -1.1059056116,
				"y": 1.7438929878,
				"z": 0.4784022841,
				"element": "C" 
			},
			{
				"x": -0.508243119,
				"y": 1.25201777,
				"z": 1.6497369923,
				"element": "C" 
			},
			{
				"x": 0.4401941717,
				"y": 0.2376301493,
				"z": 1.592222281,
				"element": "C" 
			},
			{
				"x": 0.8405794889,
				"y": -0.3204867377,
				"z": 0.3658076247,
				"element": "C" 
			},
			{
				"x": 0.2290971446,
				"y": 0.1729752337,
				"z": -0.7979494444,
				"element": "C" 
			},
			{
				"x": -0.7366011351,
				"y": 1.1750450121,
				"z": -0.7491271663,
				"element": "C" 
			},
			{
				"x": 1.861568265,
				"y": -1.3947739069,
				"z": 0.3038414659,
				"element": "C" 
			},
			{
				"x": 1.9199659613,
				"y": -2.3973567987,
				"z": 1.28803719,
				"element": "C" 
			},
			{
				"x": 2.8771661354,
				"y": -3.4086156904,
				"z": 1.2378894846,
				"element": "C" 
			},
			{
				"x": 3.7856337898,
				"y": -3.418305447,
				"z": 0.1856864225,
				"element": "C" 
			},
			{
				"x": 4.7145415415,
				"y": -4.3951465589,
				"z": 0.1287028207,
				"element": "F" 
			},
			{
				"x": 3.7620443803,
				"y": -2.4477987111,
				"z": -0.8092987404,
				"element": "C" 
			},
			{
				"x": 2.8008036838,
				"y": -1.4413689064,
				"z": -0.7415558437,
				"element": "C" 
			},
			{
				"x": -0.484059324,
				"y": 3.8379061274,
				"z": -1.2769048465,
				"element": "H" 
			},
			{
				"x": -1.574227167,
				"y": 5.2253006115,
				"z": -1.5801038192,
				"element": "H" 
			},
			{
				"x": -1.9365846933,
				"y": 3.6414133376,
				"z": -2.2720535398,
				"element": "H" 
			},
			{
				"x": -2.6461811315,
				"y": 2.7379196955,
				"z": 1.4420990805,
				"element": "H" 
			},
			{
				"x": -0.7782871941,
				"y": 1.6874749229,
				"z": 2.6081420937,
				"element": "H" 
			},
			{
				"x": 0.9052053155,
				"y": -0.1018661551,
				"z": 2.5129110929,
				"element": "H" 
			},
			{
				"x": 0.4779688683,
				"y": -0.2668131166,
				"z": -1.7591655816,
				"element": "H" 
			},
			{
				"x": -1.2273366835,
				"y": 1.4870981271,
				"z": -1.6632101396,
				"element": "H" 
			},
			{
				"x": 1.1897642414,
				"y": -2.4017269641,
				"z": 2.091423415,
				"element": "H" 
			},
			{
				"x": 2.9197054677,
				"y": -4.1887281409,
				"z": 1.9903083681,
				"element": "H" 
			},
			{
				"x": 4.4937395356,
				"y": -2.4820326841,
				"z": -1.6092812179,
				"element": "H" 
			},
			{
				"x": 2.7959713414,
				"y": -0.6643945125,
				"z": -1.4998243343,
				"element": "H" 
			}
		],
		 "valence_orbital": [ 
			{
				"type": "occ",
				"energy": -0.26599,
				"method": "rhf"
			},
			{
				"type": "occ",
				"energy": -0.26512,
				"method": "rhf"
			},
			{
				"type": "occ",
				"energy": -0.25678,
				"method": "rhf"
			},
			{
				"type": "occ",
				"energy": -0.25393,
				"method": "rhf"
			},
			{
				"type": "occ",
				"energy": -0.21662,
				"method": "rhf"
			},
			{
				"type": "unocc",
				"energy": -0.03664,
				"method": "rhf"
			},
			{
				"type": "unocc",
				"energy": -0.01911,
				"method": "rhf"
			},
			{
				"type": "unocc",
				"energy": -0.01497,
				"method": "rhf"
			},
			{
				"type": "unocc",
				"energy": 0.01115,
				"method": "rhf"
			},
			{
				"type": "unocc",
				"energy": 0.03877,
				"method": "rhf"
			}
		],
		"cosmo_sigma_profile": { 
			"-0.025": 0.0,
			"-0.024": 0.0,
			"-0.023": 0.0,
			"-0.022": 0.0,
			"-0.021": 0.0,
			"-0.02": 0.0,
			"-0.019": 0.0,
			"-0.018": 0.0,
			"-0.017": 0.0,
			"-0.016": 0.0,
			"-0.015": 0.0156687843228,
			"-0.014": 0.601283834712,
			"-0.013": 0.987072824979,
			"-0.012": 1.11664705368,
			"-0.011": 1.09080481394,
			"-0.01": 1.08392254497,
			"-0.009": 1.33018589104,
			"-0.008": 2.53488941429,
			"-0.007": 8.77062396553,
			"-0.006": 16.5410136816,
			"-0.005": 20.3913695058,
			"-0.004": 20.2336604761,
			"-0.003": 18.2736067155,
			"-0.002": 19.4103007901,
			"-0.001": 15.6425428844,
			"0.0": 16.8406613029,
			"0.001": 20.0828048731,
			"0.002": 21.4203870114,
			"0.003": 22.2951483072,
			"0.004": 30.4586228571,
			"0.005": 12.6258186064,
			"0.006": 0.926773158392,
			"0.007": 1.48866929082,
			"0.008": 1.28512105527,
			"0.009": 0.921052320981,
			"0.01": 1.6407506862,
			"0.011": 1.4350949188,
			"0.012": 2.45841186095,
			"0.013": 4.97866044694,
			"0.014": 3.89264461817,
			"0.015": 0.582545015477,
			"0.016": 0.0,
			"0.017": 0.0,
			"0.018": 0.0,
			"0.019": 0.0,
			"0.02": 0.0,
			"0.021": 0.0,
			"0.022": 0.0,
			"0.023": 0.0,
			"0.024": 0.0,
			"0.025": 0.0
		}
	}
}
