{
	 "smiles": "CC(C)N1C=CC(=N1)C(O)=O", 
	 "Tm": 351.15, 
	 "num_atms": 21, 
	 "gaussian": { 
		 "optdone": 1, 
		 "sigma_profile": "yes", 
		 "theory": "DFT", 
		 "functional": "B3LYP", 
		 "basiset": "6-31G**", 
		 "properties": { 
			 "R2extent": 2044.7738, 
			 "electric_dipole_moment_norm": 7.11535578661, 
			 "electric_quadrupole_moment_norm": 12.90660776, 
			 "total_energy": -532.727507913, 
			 "HOMO_LUMO_gap": 0.23372, 
			 "cosmo_polarized_energy": -13.91, 
			 "cosmo_cavitation_energy": 25.12, 
			 "cosmo_dispersion_energy": -17.85, 
			 "cosmo_repulsion_energy": 1.46, 
			 "cosmo_total_nonelectrostatic_energy": 8.72, 
			 "SMD_solvation_energy": 5.71 
		},
		"coords": [
			{
				"x": 2.1278319877,
				"y": 0.2491343521,
				"z": -1.8888196089,
				"element": "C" 
			},
			{
				"x": 0.8850870136,
				"y": -0.6343415008,
				"z": -1.7378747315,
				"element": "C" 
			},
			{
				"x": 1.2246145518,
				"y": -2.063980222,
				"z": -1.303590359,
				"element": "C" 
			},
			{
				"x": -0.0654044583,
				"y": -0.0241072421,
				"z": -0.7930656372,
				"element": "N" 
			},
			{
				"x": -1.3349258569,
				"y": 0.4073629315,
				"z": -1.0469000417,
				"element": "C" 
			},
			{
				"x": -1.8428728873,
				"y": 0.9053535687,
				"z": 0.1360416822,
				"element": "C" 
			},
			{
				"x": -0.7935202224,
				"y": 0.7298605077,
				"z": 1.060763168,
				"element": "C" 
			},
			{
				"x": 0.2792765296,
				"y": 0.1661129163,
				"z": 0.4884868202,
				"element": "N" 
			},
			{
				"x": -0.7630695731,
				"y": 1.0830410499,
				"z": 2.5022040795,
				"element": "C" 
			},
			{
				"x": 0.4015973958,
				"y": 0.7858338467,
				"z": 3.1236832453,
				"element": "O" 
			},
			{
				"x": -1.6913832197,
				"y": 1.5934221843,
				"z": 3.0854212918,
				"element": "O" 
			},
			{
				"x": 2.6558747468,
				"y": 0.3293419344,
				"z": -0.9351557376,
				"element": "H" 
			},
			{
				"x": 1.8560802753,
				"y": 1.2559527848,
				"z": -2.2183732718,
				"element": "H" 
			},
			{
				"x": 2.8076401278,
				"y": -0.1853878864,
				"z": -2.6276810964,
				"element": "H" 
			},
			{
				"x": 0.3474477429,
				"y": -0.6657503188,
				"z": -2.6917611032,
				"element": "H" 
			},
			{
				"x": 1.7235883051,
				"y": -2.0579540468,
				"z": -0.3311019859,
				"element": "H" 
			},
			{
				"x": 1.8930688075,
				"y": -2.5278153248,
				"z": -2.0349553274,
				"element": "H" 
			},
			{
				"x": 0.3211362807,
				"y": -2.6751389824,
				"z": -1.2239221708,
				"element": "H" 
			},
			{
				"x": -1.7651107342,
				"y": 0.3251479875,
				"z": -2.0344923995,
				"element": "H" 
			},
			{
				"x": -2.8153380199,
				"y": 1.3323768848,
				"z": 0.3230451266,
				"element": "H" 
			},
			{
				"x": 0.9975812071,
				"y": 0.3863345753,
				"z": 2.4654480573,
				"element": "H" 
			}
		],
		 "valence_orbital": [ 
			{
				"type": "occ",
				"energy": -0.31915,
				"method": "rhf"
			},
			{
				"type": "occ",
				"energy": -0.30273,
				"method": "rhf"
			},
			{
				"type": "occ",
				"energy": -0.26947,
				"method": "rhf"
			},
			{
				"type": "occ",
				"energy": -0.26305,
				"method": "rhf"
			},
			{
				"type": "occ",
				"energy": -0.26274,
				"method": "rhf"
			},
			{
				"type": "unocc",
				"energy": -0.02902,
				"method": "rhf"
			},
			{
				"type": "unocc",
				"energy": 0.0186,
				"method": "rhf"
			},
			{
				"type": "unocc",
				"energy": 0.06849,
				"method": "rhf"
			},
			{
				"type": "unocc",
				"energy": 0.09903,
				"method": "rhf"
			},
			{
				"type": "unocc",
				"energy": 0.10244,
				"method": "rhf"
			}
		],
		"cosmo_sigma_profile": { 
			"-0.025": 0.0,
			"-0.024": 0.0,
			"-0.023": 0.0,
			"-0.022": 0.0,
			"-0.021": 0.0,
			"-0.02": 0.0,
			"-0.019": 0.0,
			"-0.018": 0.0,
			"-0.017": 0.0,
			"-0.016": 0.0,
			"-0.015": 0.0,
			"-0.014": 0.452789515726,
			"-0.013": 0.375460608879,
			"-0.012": 0.377905398774,
			"-0.011": 0.828469431392,
			"-0.01": 2.25739612206,
			"-0.009": 3.46140308446,
			"-0.008": 4.14478594198,
			"-0.007": 4.86194860977,
			"-0.006": 5.64666615817,
			"-0.005": 8.5599040935,
			"-0.004": 19.0688373873,
			"-0.003": 18.7972944883,
			"-0.002": 17.9091724704,
			"-0.001": 17.1415291967,
			"0.0": 19.6325813532,
			"0.001": 12.4496266385,
			"0.002": 11.0431562607,
			"0.003": 9.67624683775,
			"0.004": 7.15063845041,
			"0.005": 5.35897867697,
			"0.006": 2.60378031284,
			"0.007": 2.72279453632,
			"0.008": 2.4490566924,
			"0.009": 3.39191522754,
			"0.01": 4.96033586923,
			"0.011": 5.13483504686,
			"0.012": 5.67736915926,
			"0.013": 2.28741144676,
			"0.014": 0.20524009785,
			"0.015": 0.0,
			"0.016": 0.0,
			"0.017": 0.0,
			"0.018": 0.0,
			"0.019": 0.0,
			"0.02": 0.0,
			"0.021": 0.0,
			"0.022": 0.0,
			"0.023": 0.0,
			"0.024": 0.0,
			"0.025": 0.0
		}
	}
}
