{
	 "smiles": "FC1=C(F)C=C(C=C1)C(=O)CC#N", 
	 "Tm": 341.15, 
	 "num_atms": 18, 
	 "gaussian": { 
		 "optdone": 1, 
		 "sigma_profile": "yes", 
		 "theory": "DFT", 
		 "functional": "B3LYP", 
		 "basiset": "6-31G**", 
		 "properties": { 
			 "R2extent": 2593.6439, 
			 "electric_dipole_moment_norm": 3.17618554559, 
			 "electric_quadrupole_moment_norm": 14.9525928658, 
			 "total_energy": -675.582253005, 
			 "HOMO_LUMO_gap": 0.18436, 
			 "cosmo_polarized_energy": -12.4, 
			 "cosmo_cavitation_energy": 25.29, 
			 "cosmo_dispersion_energy": -17.29, 
			 "cosmo_repulsion_energy": 1.32, 
			 "cosmo_total_nonelectrostatic_energy": 9.33, 
			 "SMD_solvation_energy": 7.27 
		},
		"coords": [
			{
				"x": -1.636743643,
				"y": -2.9419091849,
				"z": 0.9650872894,
				"element": "F" 
			},
			{
				"x": -0.8609576631,
				"y": -1.8807276228,
				"z": 0.7173527421,
				"element": "C" 
			},
			{
				"x": -1.2604621561,
				"y": -0.9666610991,
				"z": -0.260269955,
				"element": "C" 
			},
			{
				"x": -2.4082122136,
				"y": -1.1820072115,
				"z": -0.9192139934,
				"element": "F" 
			},
			{
				"x": -0.4831078939,
				"y": 0.1436577241,
				"z": -0.5447076744,
				"element": "C" 
			},
			{
				"x": 0.7169054647,
				"y": 0.3464196868,
				"z": 0.1588235515,
				"element": "C" 
			},
			{
				"x": 1.1095645203,
				"y": -0.5790397114,
				"z": 1.1399114801,
				"element": "C" 
			},
			{
				"x": 0.3231513277,
				"y": -1.6907906068,
				"z": 1.4214872421,
				"element": "C" 
			},
			{
				"x": 1.6198785152,
				"y": 1.5023204453,
				"z": -0.099622009,
				"element": "C" 
			},
			{
				"x": 2.6760226082,
				"y": 1.640195393,
				"z": 0.4887990371,
				"element": "O" 
			},
			{
				"x": 1.238168545,
				"y": 2.5447125527,
				"z": -1.1812568998,
				"element": "C" 
			},
			{
				"x": 0.0113336644,
				"y": 3.2843609425,
				"z": -0.8874332057,
				"element": "C" 
			},
			{
				"x": -0.9643246667,
				"y": 3.8641707187,
				"z": -0.643678454,
				"element": "N" 
			},
			{
				"x": -0.8430888268,
				"y": 0.8336023316,
				"z": -1.2988068012,
				"element": "H" 
			},
			{
				"x": 2.0389636036,
				"y": -0.4059134073,
				"z": 1.6700264108,
				"element": "H" 
			},
			{
				"x": 0.6069279272,
				"y": -2.4169478835,
				"z": 2.1753856262,
				"element": "H" 
			},
			{
				"x": 1.1302096778,
				"y": 2.0481846402,
				"z": -2.1536053874,
				"element": "H" 
			},
			{
				"x": 2.0777712091,
				"y": 3.2411722925,
				"z": -1.2473789994,
				"element": "H" 
			}
		],
		 "valence_orbital": [ 
			{
				"type": "occ",
				"energy": -0.34901,
				"method": "rhf"
			},
			{
				"type": "occ",
				"energy": -0.33896,
				"method": "rhf"
			},
			{
				"type": "occ",
				"energy": -0.28735,
				"method": "rhf"
			},
			{
				"type": "occ",
				"energy": -0.28078,
				"method": "rhf"
			},
			{
				"type": "occ",
				"energy": -0.26916,
				"method": "rhf"
			},
			{
				"type": "unocc",
				"energy": -0.0848,
				"method": "rhf"
			},
			{
				"type": "unocc",
				"energy": -0.03394,
				"method": "rhf"
			},
			{
				"type": "unocc",
				"energy": 0.00898,
				"method": "rhf"
			},
			{
				"type": "unocc",
				"energy": 0.02132,
				"method": "rhf"
			},
			{
				"type": "unocc",
				"energy": 0.03312,
				"method": "rhf"
			}
		],
		"cosmo_sigma_profile": { 
			"-0.025": 0.0,
			"-0.024": 0.0,
			"-0.023": 0.0,
			"-0.022": 0.0,
			"-0.021": 0.0,
			"-0.02": 0.0,
			"-0.019": 0.0,
			"-0.018": 0.0,
			"-0.017": 0.0,
			"-0.016": 0.0,
			"-0.015": 0.0,
			"-0.014": 0.0,
			"-0.013": 0.00472674675916,
			"-0.012": 0.551273767089,
			"-0.011": 2.74840663405,
			"-0.01": 4.46768421931,
			"-0.009": 6.25659416648,
			"-0.008": 7.28267289518,
			"-0.007": 7.88540333666,
			"-0.006": 9.03980397216,
			"-0.005": 7.62719421482,
			"-0.004": 7.0163182822,
			"-0.003": 10.369552289,
			"-0.002": 15.4126155823,
			"-0.001": 17.6254206625,
			"0.0": 16.9744377631,
			"0.001": 13.3459742572,
			"0.002": 12.0459868068,
			"0.003": 23.4025469805,
			"0.004": 6.4496041874,
			"0.005": 4.02808772653,
			"0.006": 3.55159422206,
			"0.007": 4.163234713,
			"0.008": 4.66444507254,
			"0.009": 5.77594014101,
			"0.01": 6.75346077782,
			"0.011": 4.33938461411,
			"0.012": 2.51718337641,
			"0.013": 0.791598670049,
			"0.014": 0.0,
			"0.015": 0.0,
			"0.016": 0.0,
			"0.017": 0.0,
			"0.018": 0.0,
			"0.019": 0.0,
			"0.02": 0.0,
			"0.021": 0.0,
			"0.022": 0.0,
			"0.023": 0.0,
			"0.024": 0.0,
			"0.025": 0.0
		}
	}
}
