{
	 "smiles": "CC1=C(C)C(=O)OC1O", 
	 "Tm": 355.15, 
	 "num_atms": 17, 
	 "gaussian": { 
		 "optdone": 1, 
		 "sigma_profile": "yes", 
		 "theory": "DFT", 
		 "functional": "B3LYP", 
		 "basiset": "6-31G**", 
		 "properties": { 
			 "R2extent": 1476.0091, 
			 "electric_dipole_moment_norm": 4.21176840888, 
			 "electric_quadrupole_moment_norm": 13.3761787182, 
			 "total_energy": -459.133037737, 
			 "HOMO_LUMO_gap": 0.22591, 
			 "cosmo_polarized_energy": -13.34, 
			 "cosmo_cavitation_energy": 20.89, 
			 "cosmo_dispersion_energy": -15.38, 
			 "cosmo_repulsion_energy": 1.29, 
			 "cosmo_total_nonelectrostatic_energy": 6.8, 
			 "SMD_solvation_energy": 5.04 
		},
		"coords": [
			{
				"x": -1.2864922915,
				"y": -1.6861470223,
				"z": 0.1782964523,
				"element": "C" 
			},
			{
				"x": 0.0382574956,
				"y": -1.0154382407,
				"z": 0.0377546651,
				"element": "C" 
			},
			{
				"x": 0.5935908181,
				"y": -0.0132250112,
				"z": 0.7354963735,
				"element": "C" 
			},
			{
				"x": 0.0818023295,
				"y": 0.7979020368,
				"z": 1.8802963742,
				"element": "C" 
			},
			{
				"x": 1.9590472527,
				"y": 0.2315899303,
				"z": 0.1947349307,
				"element": "C" 
			},
			{
				"x": 2.7750155408,
				"y": 1.0470705665,
				"z": 0.5433563025,
				"element": "O" 
			},
			{
				"x": 2.1818912435,
				"y": -0.6479955591,
				"z": -0.8424268915,
				"element": "O" 
			},
			{
				"x": 1.0262902567,
				"y": -1.4777553683,
				"z": -1.011440081,
				"element": "C" 
			},
			{
				"x": 1.3237633599,
				"y": -2.825891217,
				"z": -0.8044064585,
				"element": "O" 
			},
			{
				"x": -1.8686909208,
				"y": -1.6041411225,
				"z": -0.7481931453,
				"element": "H" 
			},
			{
				"x": -1.1443980245,
				"y": -2.7556628857,
				"z": 0.3696011508,
				"element": "H" 
			},
			{
				"x": -1.8769378667,
				"y": -1.2590303133,
				"z": 0.9916663474,
				"element": "H" 
			},
			{
				"x": -0.946088994,
				"y": 0.535742601,
				"z": 2.1408166383,
				"element": "H" 
			},
			{
				"x": 0.7123398055,
				"y": 0.6533219488,
				"z": 2.7643365978,
				"element": "H" 
			},
			{
				"x": 0.1222378422,
				"y": 1.8656692852,
				"z": 1.6401542248,
				"element": "H" 
			},
			{
				"x": 0.6633667539,
				"y": -1.3021403773,
				"z": -2.0360831126,
				"element": "H" 
			},
			{
				"x": 1.941505399,
				"y": -3.1075692513,
				"z": -1.4928603686,
				"element": "H" 
			}
		],
		 "valence_orbital": [ 
			{
				"type": "occ",
				"energy": -0.347,
				"method": "rhf"
			},
			{
				"type": "occ",
				"energy": -0.31462,
				"method": "rhf"
			},
			{
				"type": "occ",
				"energy": -0.29897,
				"method": "rhf"
			},
			{
				"type": "occ",
				"energy": -0.26993,
				"method": "rhf"
			},
			{
				"type": "occ",
				"energy": -0.26577,
				"method": "rhf"
			},
			{
				"type": "unocc",
				"energy": -0.03986,
				"method": "rhf"
			},
			{
				"type": "unocc",
				"energy": 0.06861,
				"method": "rhf"
			},
			{
				"type": "unocc",
				"energy": 0.08103,
				"method": "rhf"
			},
			{
				"type": "unocc",
				"energy": 0.09241,
				"method": "rhf"
			},
			{
				"type": "unocc",
				"energy": 0.11885,
				"method": "rhf"
			}
		],
		"cosmo_sigma_profile": { 
			"-0.025": 0.0,
			"-0.024": 0.0,
			"-0.023": 0.0,
			"-0.022": 0.0,
			"-0.021": 0.0,
			"-0.02": 0.0,
			"-0.019": 0.0,
			"-0.018": 0.287162873863,
			"-0.017": 1.0581066287,
			"-0.016": 1.22100530332,
			"-0.015": 0.71673091003,
			"-0.014": 1.07528672224,
			"-0.013": 0.447962749822,
			"-0.012": 1.04350640852,
			"-0.011": 1.5298277965,
			"-0.01": 0.33716691707,
			"-0.009": 0.721253170082,
			"-0.008": 2.45325687198,
			"-0.007": 4.82178283212,
			"-0.006": 6.4636577027,
			"-0.005": 11.7744784772,
			"-0.004": 11.7902631466,
			"-0.003": 14.1950768037,
			"-0.002": 15.9357906734,
			"-0.001": 19.7420628827,
			"0.0": 11.3874396525,
			"0.001": 6.06781643507,
			"0.002": 3.05437429369,
			"0.003": 4.58785548847,
			"0.004": 3.81208785379,
			"0.005": 3.61770668993,
			"0.006": 4.35482700516,
			"0.007": 3.91571222199,
			"0.008": 3.83912856992,
			"0.009": 4.81407341222,
			"0.01": 6.35213761268,
			"0.011": 5.26155584144,
			"0.012": 6.11304837582,
			"0.013": 1.71054661809,
			"0.014": 0.049492642738,
			"0.015": 0.0,
			"0.016": 0.0,
			"0.017": 0.0,
			"0.018": 0.0,
			"0.019": 0.0,
			"0.02": 0.0,
			"0.021": 0.0,
			"0.022": 0.0,
			"0.023": 0.0,
			"0.024": 0.0,
			"0.025": 0.0
		}
	}
}
