{
	 "smiles": "COC(=O)C1=C(C=C(OC)C(SC(=O)N(C)C)=C1)[N+]([O-])=O", 
	 "Tm": 413.15, 
	 "num_atms": 35, 
	 "gaussian": { 
		 "optdone": 1, 
		 "sigma_profile": "yes", 
		 "theory": "DFT", 
		 "functional": "B3LYP", 
		 "basiset": "6-31G**", 
		 "properties": { 
			 "R2extent": 7830.826, 
			 "electric_dipole_moment_norm": 4.3684843264, 
			 "electric_quadrupole_moment_norm": 35.4784721397, 
			 "total_energy": -1424.62670339, 
			 "HOMO_LUMO_gap": 0.15065, 
			 "cosmo_polarized_energy": -18.77, 
			 "cosmo_cavitation_energy": 41.69, 
			 "cosmo_dispersion_energy": -28.05, 
			 "cosmo_repulsion_energy": 2.14, 
			 "cosmo_total_nonelectrostatic_energy": 15.78, 
			 "SMD_solvation_energy": 11.97 
		},
		"coords": [
			{
				"x": 4.4317512172,
				"y": -1.6143778748,
				"z": 0.3619482319,
				"element": "C" 
			},
			{
				"x": 3.1513689368,
				"y": -0.991892753,
				"z": 0.5835574077,
				"element": "O" 
			},
			{
				"x": 2.1396255732,
				"y": -1.5011168992,
				"z": -0.1455112162,
				"element": "C" 
			},
			{
				"x": 2.2559806734,
				"y": -2.3958078763,
				"z": -0.9507714181,
				"element": "O" 
			},
			{
				"x": 0.8634024457,
				"y": -0.7470200378,
				"z": 0.1003505381,
				"element": "C" 
			},
			{
				"x": -0.375475802,
				"y": -1.3778411691,
				"z": 0.2725415894,
				"element": "C" 
			},
			{
				"x": -1.5610974678,
				"y": -0.6545999462,
				"z": 0.3193768933,
				"element": "C" 
			},
			{
				"x": -1.5380526771,
				"y": 0.7365727969,
				"z": 0.2110593489,
				"element": "C" 
			},
			{
				"x": -2.7165076981,
				"y": 1.4221764605,
				"z": 0.3118377801,
				"element": "O" 
			},
			{
				"x": -3.3322442286,
				"y": 1.7868076551,
				"z": -0.9379624748,
				"element": "C" 
			},
			{
				"x": -0.3025089382,
				"y": 1.4058307732,
				"z": 0.0844197396,
				"element": "C" 
			},
			{
				"x": -0.1750602289,
				"y": 3.1721949513,
				"z": -0.1193413184,
				"element": "S" 
			},
			{
				"x": -1.4817419271,
				"y": 3.8848483212,
				"z": 1.0130709945,
				"element": "C" 
			},
			{
				"x": -2.2743003723,
				"y": 4.6589433994,
				"z": 0.5153163092,
				"element": "O" 
			},
			{
				"x": -1.4282055907,
				"y": 3.5571824637,
				"z": 2.3321015406,
				"element": "N" 
			},
			{
				"x": -2.5271512887,
				"y": 4.0047603403,
				"z": 3.187073603,
				"element": "C" 
			},
			{
				"x": -0.4012882245,
				"y": 2.766493056,
				"z": 2.9941379692,
				"element": "C" 
			},
			{
				"x": 0.8757803624,
				"y": 0.6478218459,
				"z": 0.028236387,
				"element": "C" 
			},
			{
				"x": -0.4660825266,
				"y": -2.8281976415,
				"z": 0.5095052453,
				"element": "N" 
			},
			{
				"x": 0.4778357577,
				"y": -3.3657841388,
				"z": 1.0827736891,
				"element": "O" 
			},
			{
				"x": -1.5005768522,
				"y": -3.3924667179,
				"z": 0.158105455,
				"element": "O" 
			},
			{
				"x": 5.1265442738,
				"y": -1.0950773808,
				"z": 1.0211760661,
				"element": "H" 
			},
			{
				"x": 4.7346008561,
				"y": -1.5066928945,
				"z": -0.6823115219,
				"element": "H" 
			},
			{
				"x": 4.3830950236,
				"y": -2.6768164944,
				"z": 0.6103882752,
				"element": "H" 
			},
			{
				"x": -2.5043509749,
				"y": -1.1697261808,
				"z": 0.4528162074,
				"element": "H" 
			},
			{
				"x": -3.5807352887,
				"y": 0.8902177437,
				"z": -1.5174038623,
				"element": "H" 
			},
			{
				"x": -4.243113976,
				"y": 2.3244540577,
				"z": -0.6750064176,
				"element": "H" 
			},
			{
				"x": -2.6811004796,
				"y": 2.4440065073,
				"z": -1.5213472481,
				"element": "H" 
			},
			{
				"x": -3.2531792867,
				"y": 4.5381553344,
				"z": 2.577523897,
				"element": "H" 
			},
			{
				"x": -2.1507226456,
				"y": 4.6732098834,
				"z": 3.9702315954,
				"element": "H" 
			},
			{
				"x": -3.005775977,
				"y": 3.1409075746,
				"z": 3.6625966229,
				"element": "H" 
			},
			{
				"x": -0.7500267292,
				"y": 1.7477538351,
				"z": 3.204410316,
				"element": "H" 
			},
			{
				"x": -0.1469032503,
				"y": 3.2463791814,
				"z": 3.9452953276,
				"element": "H" 
			},
			{
				"x": 0.4988177379,
				"y": 2.716729105,
				"z": 2.3848975495,
				"element": "H" 
			},
			{
				"x": 1.828399573,
				"y": 1.1546727193,
				"z": -0.0803931013,
				"element": "H" 
			}
		],
		 "valence_orbital": [ 
			{
				"type": "occ",
				"energy": -0.29063,
				"method": "rhf"
			},
			{
				"type": "occ",
				"energy": -0.27645,
				"method": "rhf"
			},
			{
				"type": "occ",
				"energy": -0.26806,
				"method": "rhf"
			},
			{
				"type": "occ",
				"energy": -0.25959,
				"method": "rhf"
			},
			{
				"type": "occ",
				"energy": -0.24475,
				"method": "rhf"
			},
			{
				"type": "unocc",
				"energy": -0.0941,
				"method": "rhf"
			},
			{
				"type": "unocc",
				"energy": -0.04948,
				"method": "rhf"
			},
			{
				"type": "unocc",
				"energy": -0.0268,
				"method": "rhf"
			},
			{
				"type": "unocc",
				"energy": -0.00851,
				"method": "rhf"
			},
			{
				"type": "unocc",
				"energy": 0.00987,
				"method": "rhf"
			}
		],
		"cosmo_sigma_profile": { 
			"-0.025": 0.0,
			"-0.024": 0.0,
			"-0.023": 0.0,
			"-0.022": 0.0,
			"-0.021": 0.0,
			"-0.02": 0.0,
			"-0.019": 0.0,
			"-0.018": 0.0,
			"-0.017": 0.0,
			"-0.016": 0.0,
			"-0.015": 0.0,
			"-0.014": 0.0,
			"-0.013": 0.0,
			"-0.012": 0.0,
			"-0.011": 0.0,
			"-0.01": 0.0,
			"-0.009": 0.477238991441,
			"-0.008": 2.77083330541,
			"-0.007": 6.88143412767,
			"-0.006": 19.9631399092,
			"-0.005": 31.9047846614,
			"-0.004": 38.075834314,
			"-0.003": 39.411782722,
			"-0.002": 32.3338409154,
			"-0.001": 22.1397742296,
			"0.0": 14.5950040253,
			"0.001": 13.4170542188,
			"0.002": 11.4208989725,
			"0.003": 13.1791798778,
			"0.004": 12.2805553766,
			"0.005": 10.4294103436,
			"0.006": 12.5400570467,
			"0.007": 14.3118888234,
			"0.008": 11.0942064715,
			"0.009": 7.58661077914,
			"0.01": 5.36473579702,
			"0.011": 6.90129785753,
			"0.012": 4.74596450529,
			"0.013": 1.18422395257,
			"0.014": 0.00873474595718,
			"0.015": 0.0,
			"0.016": 0.0,
			"0.017": 0.0,
			"0.018": 0.0,
			"0.019": 0.0,
			"0.02": 0.0,
			"0.021": 0.0,
			"0.022": 0.0,
			"0.023": 0.0,
			"0.024": 0.0,
			"0.025": 0.0
		}
	}
}
