{
	 "smiles": "CC(=O)NC1=CC=C(OCC2CO2)C=C1", 
	 "Tm": 391.15, 
	 "num_atms": 28, 
	 "gaussian": { 
		 "optdone": 1, 
		 "sigma_profile": "yes", 
		 "theory": "DFT", 
		 "functional": "B3LYP", 
		 "basiset": "6-31G**", 
		 "properties": { 
			 "R2extent": 5684.6156, 
			 "electric_dipole_moment_norm": 4.7670428538, 
			 "electric_quadrupole_moment_norm": 18.8267324257, 
			 "total_energy": -707.382843396, 
			 "HOMO_LUMO_gap": 0.19868, 
			 "cosmo_polarized_energy": -17.41, 
			 "cosmo_cavitation_energy": 32.57, 
			 "cosmo_dispersion_energy": -23.47, 
			 "cosmo_repulsion_energy": 1.86, 
			 "cosmo_total_nonelectrostatic_energy": 10.97, 
			 "SMD_solvation_energy": 6.62 
		},
		"coords": [
			{
				"x": 0.4502646197,
				"y": 3.7098817385,
				"z": -1.0530044496,
				"element": "C" 
			},
			{
				"x": -0.979375062,
				"y": 3.6995174781,
				"z": -0.5422823676,
				"element": "C" 
			},
			{
				"x": -1.714411202,
				"y": 4.6709234054,
				"z": -0.6532245571,
				"element": "O" 
			},
			{
				"x": -1.4474018645,
				"y": 2.5515494337,
				"z": 0.0714729474,
				"element": "N" 
			},
			{
				"x": -0.8050845848,
				"y": 1.3157424129,
				"z": 0.3375032014,
				"element": "C" 
			},
			{
				"x": -0.1238915786,
				"y": 0.6019288908,
				"z": -0.6518451299,
				"element": "C" 
			},
			{
				"x": 0.4894860833,
				"y": -0.6208919265,
				"z": -0.3646074712,
				"element": "C" 
			},
			{
				"x": 0.3915224964,
				"y": -1.1655911058,
				"z": 0.9199320604,
				"element": "C" 
			},
			{
				"x": 0.9373212757,
				"y": -2.3560429857,
				"z": 1.3071776642,
				"element": "O" 
			},
			{
				"x": 1.6457595951,
				"y": -3.1255567544,
				"z": 0.3428337018,
				"element": "C" 
			},
			{
				"x": 2.1240669043,
				"y": -4.3796662891,
				"z": 1.0217070068,
				"element": "C" 
			},
			{
				"x": 3.3071335759,
				"y": -5.0973194549,
				"z": 0.5262096818,
				"element": "C" 
			},
			{
				"x": 3.3731989843,
				"y": -4.3023587251,
				"z": 1.7137126558,
				"element": "O" 
			},
			{
				"x": -0.3161302376,
				"y": -0.468667884,
				"z": 1.9110957932,
				"element": "C" 
			},
			{
				"x": -0.8958326478,
				"y": 0.7585594827,
				"z": 1.6245812072,
				"element": "C" 
			},
			{
				"x": 0.4843127553,
				"y": 3.3486100456,
				"z": -2.0863823041,
				"element": "H" 
			},
			{
				"x": 1.1241257762,
				"y": 3.0924840115,
				"z": -0.4553243285,
				"element": "H" 
			},
			{
				"x": 0.7874157626,
				"y": 4.7471189566,
				"z": -1.0518967657,
				"element": "H" 
			},
			{
				"x": -2.3725135515,
				"y": 2.6862699031,
				"z": 0.4613455683,
				"element": "H" 
			},
			{
				"x": -0.0803555496,
				"y": 0.9914741769,
				"z": -1.6630327983,
				"element": "H" 
			},
			{
				"x": 1.0180246513,
				"y": -1.1404297145,
				"z": -1.1548747135,
				"element": "H" 
			},
			{
				"x": 2.5075155064,
				"y": -2.5672184879,
				"z": -0.0473842919,
				"element": "H" 
			},
			{
				"x": 0.983719867,
				"y": -3.3831987978,
				"z": -0.4980894615,
				"element": "H" 
			},
			{
				"x": 1.348305125,
				"y": -4.9409212703,
				"z": 1.5448849355,
				"element": "H" 
			},
			{
				"x": 3.3793868244,
				"y": -6.1748735014,
				"z": 0.67062621,
				"element": "H" 
			},
			{
				"x": 3.8586177312,
				"y": -4.7074999463,
				"z": -0.3302059823,
				"element": "H" 
			},
			{
				"x": -0.3842911997,
				"y": -0.9035792499,
				"z": 2.9026671099,
				"element": "H" 
			},
			{
				"x": -1.4217900558,
				"y": 1.3025561578,
				"z": 2.4042048774,
				"element": "H" 
			}
		],
		 "valence_orbital": [ 
			{
				"type": "occ",
				"energy": -0.27893,
				"method": "rhf"
			},
			{
				"type": "occ",
				"energy": -0.27334,
				"method": "rhf"
			},
			{
				"type": "occ",
				"energy": -0.2632,
				"method": "rhf"
			},
			{
				"type": "occ",
				"energy": -0.24625,
				"method": "rhf"
			},
			{
				"type": "occ",
				"energy": -0.21351,
				"method": "rhf"
			},
			{
				"type": "unocc",
				"energy": -0.01483,
				"method": "rhf"
			},
			{
				"type": "unocc",
				"energy": -0.00597,
				"method": "rhf"
			},
			{
				"type": "unocc",
				"energy": 0.03821,
				"method": "rhf"
			},
			{
				"type": "unocc",
				"energy": 0.07415,
				"method": "rhf"
			},
			{
				"type": "unocc",
				"energy": 0.08523,
				"method": "rhf"
			}
		],
		"cosmo_sigma_profile": { 
			"-0.025": 0.0,
			"-0.024": 0.0,
			"-0.023": 0.0,
			"-0.022": 0.0,
			"-0.021": 0.0,
			"-0.02": 0.0,
			"-0.019": 0.0,
			"-0.018": 0.0,
			"-0.017": 0.0,
			"-0.016": 0.0,
			"-0.015": 0.0,
			"-0.014": 0.398216957422,
			"-0.013": 0.88294685248,
			"-0.012": 1.28282042182,
			"-0.011": 0.502144416274,
			"-0.01": 1.40731885141,
			"-0.009": 1.32393341057,
			"-0.008": 1.09968049026,
			"-0.007": 11.3819131066,
			"-0.006": 25.2630273213,
			"-0.005": 23.8996847731,
			"-0.004": 21.3899982513,
			"-0.003": 17.6489589724,
			"-0.002": 18.4806998109,
			"-0.001": 17.5155012346,
			"0.0": 12.9838814129,
			"0.001": 11.1185976949,
			"0.002": 10.3237959227,
			"0.003": 14.5701630574,
			"0.004": 14.0888086459,
			"0.005": 10.2082237729,
			"0.006": 4.20483391304,
			"0.007": 5.25658172342,
			"0.008": 4.19023500133,
			"0.009": 5.15101170056,
			"0.01": 3.26254970911,
			"0.011": 4.93867409463,
			"0.012": 4.3064493383,
			"0.013": 4.10125739011,
			"0.014": 5.29185805991,
			"0.015": 1.46081255778,
			"0.016": 0.052637379625,
			"0.017": 0.0,
			"0.018": 0.0,
			"0.019": 0.0,
			"0.02": 0.0,
			"0.021": 0.0,
			"0.022": 0.0,
			"0.023": 0.0,
			"0.024": 0.0,
			"0.025": 0.0
		}
	}
}
