{
	 "smiles": "CCCCCCC(=O)CCCC", 
	 "Tm": 275.15, 
	 "num_atms": 34, 
	 "gaussian": { 
		 "optdone": 1, 
		 "sigma_profile": "yes", 
		 "theory": "DFT", 
		 "functional": "B3LYP", 
		 "basiset": "6-31G**", 
		 "properties": { 
			 "R2extent": 3806.849, 
			 "electric_dipole_moment_norm": 2.59191267021, 
			 "electric_quadrupole_moment_norm": 6.65323823938, 
			 "total_energy": -507.681752118, 
			 "HOMO_LUMO_gap": 0.22699, 
			 "cosmo_polarized_energy": -6.83, 
			 "cosmo_cavitation_energy": 34.61, 
			 "cosmo_dispersion_energy": -23.46, 
			 "cosmo_repulsion_energy": 1.94, 
			 "cosmo_total_nonelectrostatic_energy": 13.09, 
			 "SMD_solvation_energy": 5.6 
		},
		"coords": [
			{
				"x": -3.0250022856,
				"y": 2.97866511,
				"z": -0.1662412147,
				"element": "C" 
			},
			{
				"x": -3.0217114811,
				"y": 2.3584322989,
				"z": -1.5684523928,
				"element": "C" 
			},
			{
				"x": -3.4679092373,
				"y": 0.8858171161,
				"z": -1.6117607387,
				"element": "C" 
			},
			{
				"x": -2.5724668845,
				"y": -0.113282614,
				"z": -0.8585106435,
				"element": "C" 
			},
			{
				"x": -1.15593531,
				"y": -0.2499414669,
				"z": -1.4354238631,
				"element": "C" 
			},
			{
				"x": -0.3183641952,
				"y": -1.3483961686,
				"z": -0.7456544938,
				"element": "C" 
			},
			{
				"x": -0.0616926667,
				"y": -1.1028783356,
				"z": 0.7383389811,
				"element": "C" 
			},
			{
				"x": -0.4957185548,
				"y": -1.8629356081,
				"z": 1.5861239009,
				"element": "O" 
			},
			{
				"x": 0.7457306315,
				"y": 0.1390939586,
				"z": 1.1139536756,
				"element": "C" 
			},
			{
				"x": 1.2045380404,
				"y": 0.1692830108,
				"z": 2.5772364059,
				"element": "C" 
			},
			{
				"x": 2.3102707825,
				"y": -0.8406047161,
				"z": 2.930097786,
				"element": "C" 
			},
			{
				"x": 3.6587234419,
				"y": -0.5699367286,
				"z": 2.2520385975,
				"element": "C" 
			},
			{
				"x": -4.0155868407,
				"y": 2.9016956689,
				"z": 0.2969089579,
				"element": "H" 
			},
			{
				"x": -2.7574141082,
				"y": 4.0397447397,
				"z": -0.2036844237,
				"element": "H" 
			},
			{
				"x": -2.3119683285,
				"y": 2.4858562005,
				"z": 0.5034639411,
				"element": "H" 
			},
			{
				"x": -2.0228814189,
				"y": 2.4608882446,
				"z": -2.0122181787,
				"element": "H" 
			},
			{
				"x": -3.6928651843,
				"y": 2.9383901865,
				"z": -2.2146231901,
				"element": "H" 
			},
			{
				"x": -4.4856461646,
				"y": 0.8171390659,
				"z": -1.2043105506,
				"element": "H" 
			},
			{
				"x": -3.5405931995,
				"y": 0.5698185185,
				"z": -2.6616190204,
				"element": "H" 
			},
			{
				"x": -3.0543247243,
				"y": -1.099439321,
				"z": -0.8810747064,
				"element": "H" 
			},
			{
				"x": -2.516803529,
				"y": 0.1595186935,
				"z": 0.2033361122,
				"element": "H" 
			},
			{
				"x": -1.2237697222,
				"y": -0.4927947672,
				"z": -2.5038335904,
				"element": "H" 
			},
			{
				"x": -0.6243763705,
				"y": 0.707631259,
				"z": -1.3784376902,
				"element": "H" 
			},
			{
				"x": -0.8216663263,
				"y": -2.3167414481,
				"z": -0.8279755108,
				"element": "H" 
			},
			{
				"x": 0.6530030762,
				"y": -1.4282334571,
				"z": -1.2525771654,
				"element": "H" 
			},
			{
				"x": 1.5873379906,
				"y": 0.2419910652,
				"z": 0.4168186974,
				"element": "H" 
			},
			{
				"x": 0.1028397155,
				"y": 1.0076475028,
				"z": 0.9081069852,
				"element": "H" 
			},
			{
				"x": 1.5521055968,
				"y": 1.1831245021,
				"z": 2.8151671747,
				"element": "H" 
			},
			{
				"x": 0.3322812113,
				"y": -0.0266589481,
				"z": 3.2092689453,
				"element": "H" 
			},
			{
				"x": 1.9628841843,
				"y": -1.8509007886,
				"z": 2.6864805952,
				"element": "H" 
			},
			{
				"x": 2.4523826917,
				"y": -0.8242358885,
				"z": 4.0180174031,
				"element": "H" 
			},
			{
				"x": 3.5952229212,
				"y": -0.6415050837,
				"z": 1.1605061554,
				"element": "H" 
			},
			{
				"x": 4.4142670559,
				"y": -1.292243304,
				"z": 2.5782997792,
				"element": "H" 
			},
			{
				"x": 4.031709192,
				"y": 0.4321915024,
				"z": 2.4950332797,
				"element": "H" 
			}
		],
		 "valence_orbital": [ 
			{
				"type": "occ",
				"energy": -0.32077,
				"method": "rhf"
			},
			{
				"type": "occ",
				"energy": -0.31822,
				"method": "rhf"
			},
			{
				"type": "occ",
				"energy": -0.31615,
				"method": "rhf"
			},
			{
				"type": "occ",
				"energy": -0.31312,
				"method": "rhf"
			},
			{
				"type": "occ",
				"energy": -0.23753,
				"method": "rhf"
			},
			{
				"type": "unocc",
				"energy": -0.01054,
				"method": "rhf"
			},
			{
				"type": "unocc",
				"energy": 0.05875,
				"method": "rhf"
			},
			{
				"type": "unocc",
				"energy": 0.08962,
				"method": "rhf"
			},
			{
				"type": "unocc",
				"energy": 0.10732,
				"method": "rhf"
			},
			{
				"type": "unocc",
				"energy": 0.11211,
				"method": "rhf"
			}
		],
		"cosmo_sigma_profile": { 
			"-0.025": 0.0,
			"-0.024": 0.0,
			"-0.023": 0.0,
			"-0.022": 0.0,
			"-0.021": 0.0,
			"-0.02": 0.0,
			"-0.019": 0.0,
			"-0.018": 0.0,
			"-0.017": 0.0,
			"-0.016": 0.0,
			"-0.015": 0.0,
			"-0.014": 0.0,
			"-0.013": 0.0,
			"-0.012": 0.0,
			"-0.011": 0.0,
			"-0.01": 0.0,
			"-0.009": 0.0,
			"-0.008": 0.0,
			"-0.007": 0.0,
			"-0.006": 0.440958773445,
			"-0.005": 5.57687116762,
			"-0.004": 12.7056750778,
			"-0.003": 23.3934155975,
			"-0.002": 43.2090166102,
			"-0.001": 48.7314859368,
			"0.0": 49.4116294684,
			"0.001": 40.5460388831,
			"0.002": 16.6859245981,
			"0.003": 3.53109184365,
			"0.004": 1.90986465252,
			"0.005": 1.57580613423,
			"0.006": 1.8101357043,
			"0.007": 1.91344607373,
			"0.008": 1.99212721175,
			"0.009": 1.08983640463,
			"0.01": 1.90711271474,
			"0.011": 2.45573965297,
			"0.012": 3.63022153633,
			"0.013": 2.91259179866,
			"0.014": 0.577999547564,
			"0.015": 0.0,
			"0.016": 0.0,
			"0.017": 0.0,
			"0.018": 0.0,
			"0.019": 0.0,
			"0.02": 0.0,
			"0.021": 0.0,
			"0.022": 0.0,
			"0.023": 0.0,
			"0.024": 0.0,
			"0.025": 0.0
		}
	}
}
