{
	 "smiles": "BrC1=NC(=CC=C1)N1CCOCC1", 
	 "Tm": 323.65, 
	 "num_atms": 24, 
	 "gaussian": { 
		 "optdone": 1, 
		 "sigma_profile": "yes", 
		 "theory": "DFT", 
		 "functional": "B3LYP", 
		 "basiset": "6-31G**", 
		 "properties": { 
			 "R2extent": 5414.371, 
			 "electric_dipole_moment_norm": 3.18914356685, 
			 "electric_quadrupole_moment_norm": 11.5983461571, 
			 "total_energy": -3105.69771685, 
			 "HOMO_LUMO_gap": 0.18349, 
			 "cosmo_polarized_energy": -9.31, 
			 "cosmo_cavitation_energy": 28.59, 
			 "cosmo_dispersion_energy": -21.94, 
			 "cosmo_repulsion_energy": 1.75, 
			 "cosmo_total_nonelectrostatic_energy": 8.4, 
			 "SMD_solvation_energy": 1.94 
		},
		"coords": [
			{
				"x": -0.2985459508,
				"y": -1.1034532646,
				"z": -4.749789606,
				"element": "Br" 
			},
			{
				"x": -0.2412597182,
				"y": -0.0903230973,
				"z": -3.106926863,
				"element": "C" 
			},
			{
				"x": -0.2355740971,
				"y": -0.7918506919,
				"z": -1.9953161473,
				"element": "N" 
			},
			{
				"x": -0.1925537212,
				"y": -0.1327758069,
				"z": -0.8170580324,
				"element": "C" 
			},
			{
				"x": -0.1589565289,
				"y": 1.2828058791,
				"z": -0.773169523,
				"element": "C" 
			},
			{
				"x": -0.1698285942,
				"y": 1.9789216003,
				"z": -1.9737904579,
				"element": "C" 
			},
			{
				"x": -0.2123042771,
				"y": 1.2983083173,
				"z": -3.1940040308,
				"element": "C" 
			},
			{
				"x": -0.1815516157,
				"y": -0.896143523,
				"z": 0.3239294362,
				"element": "N" 
			},
			{
				"x": -0.2064838607,
				"y": -2.3552337165,
				"z": 0.2812528395,
				"element": "C" 
			},
			{
				"x": 0.8462502213,
				"y": -2.9294837361,
				"z": 1.2311455313,
				"element": "C" 
			},
			{
				"x": 0.8483311918,
				"y": -2.3099230716,
				"z": 2.5246404311,
				"element": "O" 
			},
			{
				"x": -0.1870512465,
				"y": -1.3662721422,
				"z": 2.7194650535,
				"element": "C" 
			},
			{
				"x": -0.1618850562,
				"y": -0.2767459344,
				"z": 1.646371256,
				"element": "C" 
			},
			{
				"x": -0.1219769452,
				"y": 1.8159463552,
				"z": 0.1677278754,
				"element": "H" 
			},
			{
				"x": -0.1439163206,
				"y": 3.0651138451,
				"z": -1.9639718814,
				"element": "H" 
			},
			{
				"x": -0.2236563209,
				"y": 1.8081824866,
				"z": -4.1477573823,
				"element": "H" 
			},
			{
				"x": -0.0013798333,
				"y": -2.6711836224,
				"z": -0.7413258248,
				"element": "H" 
			},
			{
				"x": -1.2067717836,
				"y": -2.7304727284,
				"z": 0.5403988544,
				"element": "H" 
			},
			{
				"x": 0.6767453634,
				"y": -4.0088350069,
				"z": 1.350473452,
				"element": "H" 
			},
			{
				"x": 1.8465474259,
				"y": -2.7886551338,
				"z": 0.803566398,
				"element": "H" 
			},
			{
				"x": -0.0145135354,
				"y": -0.9151037466,
				"z": 3.7004261262,
				"element": "H" 
			},
			{
				"x": -1.1765305508,
				"y": -1.8489255089,
				"z": 2.749153286,
				"element": "H" 
			},
			{
				"x": 0.7487294642,
				"y": 0.326900724,
				"z": 1.7695392822,
				"element": "H" 
			},
			{
				"x": -1.0252637101,
				"y": 0.392501524,
				"z": 1.7836199273,
				"element": "H" 
			}
		],
		 "valence_orbital": [ 
			{
				"type": "occ",
				"energy": -0.27943,
				"method": "rhf"
			},
			{
				"type": "occ",
				"energy": -0.26692,
				"method": "rhf"
			},
			{
				"type": "occ",
				"energy": -0.25981,
				"method": "rhf"
			},
			{
				"type": "occ",
				"energy": -0.25681,
				"method": "rhf"
			},
			{
				"type": "occ",
				"energy": -0.20709,
				"method": "rhf"
			},
			{
				"type": "unocc",
				"energy": -0.0236,
				"method": "rhf"
			},
			{
				"type": "unocc",
				"energy": 0.00066,
				"method": "rhf"
			},
			{
				"type": "unocc",
				"energy": 0.01625,
				"method": "rhf"
			},
			{
				"type": "unocc",
				"energy": 0.07938,
				"method": "rhf"
			},
			{
				"type": "unocc",
				"energy": 0.10032,
				"method": "rhf"
			}
		],
		"cosmo_sigma_profile": { 
			"-0.025": 0.0,
			"-0.024": 0.0,
			"-0.023": 0.0,
			"-0.022": 0.0,
			"-0.021": 0.0,
			"-0.02": 0.0,
			"-0.019": 0.0,
			"-0.018": 0.0,
			"-0.017": 0.0,
			"-0.016": 0.0,
			"-0.015": 0.0,
			"-0.014": 0.0,
			"-0.013": 0.0,
			"-0.012": 0.0,
			"-0.011": 0.0,
			"-0.01": 0.0,
			"-0.009": 0.0,
			"-0.008": 0.274508150323,
			"-0.007": 3.78224907173,
			"-0.006": 9.11882126658,
			"-0.005": 24.5628302452,
			"-0.004": 30.5292122745,
			"-0.003": 19.1224325592,
			"-0.002": 16.2308649962,
			"-0.001": 11.3029669158,
			"0.0": 10.6821331841,
			"0.001": 15.059130284,
			"0.002": 21.8452686383,
			"0.003": 16.30367013,
			"0.004": 14.5759899863,
			"0.005": 14.2082472602,
			"0.006": 5.10083810251,
			"0.007": 3.75714988926,
			"0.008": 3.48246711992,
			"0.009": 2.64925293348,
			"0.01": 2.51075821328,
			"0.011": 0.841882453059,
			"0.012": 1.81759207244,
			"0.013": 1.64379800651,
			"0.014": 0.41869321705,
			"0.015": 0.0,
			"0.016": 0.0,
			"0.017": 0.0,
			"0.018": 0.0,
			"0.019": 0.0,
			"0.02": 0.0,
			"0.021": 0.0,
			"0.022": 0.0,
			"0.023": 0.0,
			"0.024": 0.0,
			"0.025": 0.0
		}
	}
}
