{
	 "smiles": "CC(=O)C1(O)CCC2C3CCC4CC(O)CCC4(C)C3CCC12C", 
	 "Tm": 538.15, 
	 "num_atms": 58, 
	 "gaussian": { 
		 "optdone": 1, 
		 "sigma_profile": "yes", 
		 "theory": "DFT", 
		 "functional": "B3LYP", 
		 "basiset": "6-31G**", 
		 "properties": { 
			 "R2extent": 9758.8793, 
			 "electric_dipole_moment_norm": 3.04788774236, 
			 "electric_quadrupole_moment_norm": 13.1141527633, 
			 "total_energy": -1046.38753106, 
			 "HOMO_LUMO_gap": 0.21622, 
			 "cosmo_polarized_energy": -14.68, 
			 "cosmo_cavitation_energy": 47.91, 
			 "cosmo_dispersion_energy": -33.75, 
			 "cosmo_repulsion_energy": 2.45, 
			 "cosmo_total_nonelectrostatic_energy": 16.61, 
			 "SMD_solvation_energy": 6.94 
		},
		"coords": [
			{
				"x": -1.7203851502,
				"y": 5.141117873,
				"z": -1.1581725659,
				"element": "C" 
			},
			{
				"x": -1.0876499464,
				"y": 3.991747051,
				"z": -0.3937760759,
				"element": "C" 
			},
			{
				"x": -1.6181045622,
				"y": 3.5439782577,
				"z": 0.6089753796,
				"element": "O" 
			},
			{
				"x": 0.2755676513,
				"y": 3.4676268849,
				"z": -0.8987334775,
				"element": "C" 
			},
			{
				"x": 0.5714634591,
				"y": 4.0516845552,
				"z": -2.1675547221,
				"element": "O" 
			},
			{
				"x": 1.3513819577,
				"y": 3.9493936955,
				"z": 0.1029821027,
				"element": "C" 
			},
			{
				"x": 1.3316196897,
				"y": 2.914143206,
				"z": 1.2358850007,
				"element": "C" 
			},
			{
				"x": 0.9079704511,
				"y": 1.5548958267,
				"z": 0.5992766592,
				"element": "C" 
			},
			{
				"x": -0.1337695266,
				"y": 0.8125233244,
				"z": 1.4845312645,
				"element": "C" 
			},
			{
				"x": 0.5114762724,
				"y": 0.413768684,
				"z": 2.824367971,
				"element": "C" 
			},
			{
				"x": 1.4995150436,
				"y": -0.7538476564,
				"z": 2.6896199082,
				"element": "C" 
			},
			{
				"x": 1.0040359736,
				"y": -1.9146221255,
				"z": 1.7724053006,
				"element": "C" 
			},
			{
				"x": 1.3680815462,
				"y": -3.2971486742,
				"z": 2.3761552595,
				"element": "C" 
			},
			{
				"x": 0.3174524806,
				"y": -3.8633604493,
				"z": 3.3711327749,
				"element": "C" 
			},
			{
				"x": 0.9301060663,
				"y": -4.4242837206,
				"z": 4.5346047854,
				"element": "O" 
			},
			{
				"x": -0.6524777605,
				"y": -2.7892018033,
				"z": 3.8573897669,
				"element": "C" 
			},
			{
				"x": -1.3867535315,
				"y": -2.0840937565,
				"z": 2.6993192508,
				"element": "C" 
			},
			{
				"x": -0.5107932776,
				"y": -1.8226404431,
				"z": 1.4207756581,
				"element": "C" 
			},
			{
				"x": -0.86085613,
				"y": -2.9426103912,
				"z": 0.4091217939,
				"element": "C" 
			},
			{
				"x": -0.8553751823,
				"y": -0.413710935,
				"z": 0.7988556026,
				"element": "C" 
			},
			{
				"x": -0.7070930048,
				"y": -0.3522793786,
				"z": -0.739301981,
				"element": "C" 
			},
			{
				"x": -0.8122319958,
				"y": 1.0893315172,
				"z": -1.2541794015,
				"element": "C" 
			},
			{
				"x": 0.4458299832,
				"y": 1.8945591017,
				"z": -0.8661224622,
				"element": "C" 
			},
			{
				"x": 1.5908593109,
				"y": 1.524263872,
				"z": -1.8394422775,
				"element": "C" 
			},
			{
				"x": -0.9957074308,
				"y": 5.9366648251,
				"z": -1.3498274493,
				"element": "H" 
			},
			{
				"x": -2.5722905222,
				"y": 5.5156236965,
				"z": -0.5890109925,
				"element": "H" 
			},
			{
				"x": -2.0696564316,
				"y": 4.7984816152,
				"z": -2.139785664,
				"element": "H" 
			},
			{
				"x": 0.0113918437,
				"y": 3.6333555003,
				"z": -2.8349460417,
				"element": "H" 
			},
			{
				"x": 1.1764036204,
				"y": 4.9723279246,
				"z": 0.4529398999,
				"element": "H" 
			},
			{
				"x": 2.3043949177,
				"y": 3.9555247502,
				"z": -0.4353039975,
				"element": "H" 
			},
			{
				"x": 0.5911478829,
				"y": 3.2100979683,
				"z": 1.9849702048,
				"element": "H" 
			},
			{
				"x": 2.2993554715,
				"y": 2.85943555,
				"z": 1.7440066391,
				"element": "H" 
			},
			{
				"x": 1.7940883361,
				"y": 0.9147989817,
				"z": 0.5123645876,
				"element": "H" 
			},
			{
				"x": -0.909753792,
				"y": 1.5525664598,
				"z": 1.6948753693,
				"element": "H" 
			},
			{
				"x": -0.2740162662,
				"y": 0.150660675,
				"z": 3.5392401443,
				"element": "H" 
			},
			{
				"x": 1.0243158301,
				"y": 1.2758264505,
				"z": 3.2656942405,
				"element": "H" 
			},
			{
				"x": 2.4535036441,
				"y": -0.3854509444,
				"z": 2.2923635215,
				"element": "H" 
			},
			{
				"x": 1.7344694073,
				"y": -1.1352762314,
				"z": 3.6887028799,
				"element": "H" 
			},
			{
				"x": 1.5446593312,
				"y": -1.8273426394,
				"z": 0.8205506729,
				"element": "H" 
			},
			{
				"x": 1.540741497,
				"y": -4.0260828908,
				"z": 1.5755208988,
				"element": "H" 
			},
			{
				"x": 2.3153661048,
				"y": -3.2012160956,
				"z": 2.9196164885,
				"element": "H" 
			},
			{
				"x": -0.2700008541,
				"y": -4.646731649,
				"z": 2.8638944148,
				"element": "H" 
			},
			{
				"x": 1.5237219674,
				"y": -5.1286646522,
				"z": 4.2438361828,
				"element": "H" 
			},
			{
				"x": -0.0870497942,
				"y": -2.0676096373,
				"z": 4.4561672737,
				"element": "H" 
			},
			{
				"x": -1.3756851955,
				"y": -3.2489128118,
				"z": 4.5395371939,
				"element": "H" 
			},
			{
				"x": -1.8123450175,
				"y": -1.1489984691,
				"z": 3.0743354239,
				"element": "H" 
			},
			{
				"x": -2.249354318,
				"y": -2.6931910113,
				"z": 2.4006170346,
				"element": "H" 
			},
			{
				"x": -1.8951428755,
				"y": -2.8409198625,
				"z": 0.0624200648,
				"element": "H" 
			},
			{
				"x": -0.2088552337,
				"y": -2.9360088575,
				"z": -0.4693720251,
				"element": "H" 
			},
			{
				"x": -0.7789581749,
				"y": -3.930996282,
				"z": 0.8686774001,
				"element": "H" 
			},
			{
				"x": -1.9288667666,
				"y": -0.2723944184,
				"z": 0.9877390536,
				"element": "H" 
			},
			{
				"x": 0.2503213073,
				"y": -0.7832611208,
				"z": -1.0562178848,
				"element": "H" 
			},
			{
				"x": -1.4823020578,
				"y": -0.9629583397,
				"z": -1.2111997952,
				"element": "H" 
			},
			{
				"x": -1.7140265161,
				"y": 1.5427936256,
				"z": -0.8310008961,
				"element": "H" 
			},
			{
				"x": -0.9350749102,
				"y": 1.0900743542,
				"z": -2.3464636529,
				"element": "H" 
			},
			{
				"x": 1.3449760352,
				"y": 1.7661706123,
				"z": -2.8773447236,
				"element": "H" 
			},
			{
				"x": 2.5203293584,
				"y": 2.0451337161,
				"z": -1.5945536756,
				"element": "H" 
			},
			{
				"x": 1.7941297839,
				"y": 0.4508446918,
				"z": -1.7875583061,
				"element": "H" 
			}
		],
		 "valence_orbital": [ 
			{
				"type": "occ",
				"energy": -0.27094,
				"method": "rhf"
			},
			{
				"type": "occ",
				"energy": -0.27057,
				"method": "rhf"
			},
			{
				"type": "occ",
				"energy": -0.26535,
				"method": "rhf"
			},
			{
				"type": "occ",
				"energy": -0.25152,
				"method": "rhf"
			},
			{
				"type": "occ",
				"energy": -0.23601,
				"method": "rhf"
			},
			{
				"type": "unocc",
				"energy": -0.01979,
				"method": "rhf"
			},
			{
				"type": "unocc",
				"energy": 0.05286,
				"method": "rhf"
			},
			{
				"type": "unocc",
				"energy": 0.06541,
				"method": "rhf"
			},
			{
				"type": "unocc",
				"energy": 0.08032,
				"method": "rhf"
			},
			{
				"type": "unocc",
				"energy": 0.08746,
				"method": "rhf"
			}
		],
		"cosmo_sigma_profile": { 
			"-0.025": 0.0,
			"-0.024": 0.0,
			"-0.023": 0.0,
			"-0.022": 0.0,
			"-0.021": 0.0,
			"-0.02": 0.0,
			"-0.019": 0.0,
			"-0.018": 0.0,
			"-0.017": 0.0,
			"-0.016": 0.0,
			"-0.015": 0.665922562876,
			"-0.014": 2.01915332302,
			"-0.013": 1.74336797854,
			"-0.012": 2.31683489414,
			"-0.011": 1.82365194792,
			"-0.01": 2.6948275473,
			"-0.009": 2.10828084984,
			"-0.008": 2.51900562279,
			"-0.007": 3.1529402992,
			"-0.006": 3.86114497944,
			"-0.005": 5.45155496284,
			"-0.004": 11.7737756524,
			"-0.003": 21.5195703247,
			"-0.002": 51.4902927867,
			"-0.001": 69.9388059024,
			"0.0": 61.0451068763,
			"0.001": 44.7448637386,
			"0.002": 22.8412468677,
			"0.003": 5.82781620426,
			"0.004": 5.63224314896,
			"0.005": 4.88065221945,
			"0.006": 4.8268850164,
			"0.007": 4.1350294576,
			"0.008": 4.18649999517,
			"0.009": 3.71920065983,
			"0.01": 3.08936327427,
			"0.011": 4.52820835855,
			"0.012": 4.21074053318,
			"0.013": 4.14872709796,
			"0.014": 2.72666482461,
			"0.015": 1.81605542494,
			"0.016": 0.00554088319242,
			"0.017": 0.0,
			"0.018": 0.0,
			"0.019": 0.0,
			"0.02": 0.0,
			"0.021": 0.0,
			"0.022": 0.0,
			"0.023": 0.0,
			"0.024": 0.0,
			"0.025": 0.0
		}
	}
}
