{
	 "smiles": "OC(=O)C1=NC=C(C=C1)C#N", 
	 "Tm": 485.15, 
	 "num_atms": 15, 
	 "gaussian": { 
		 "optdone": 1, 
		 "sigma_profile": "yes", 
		 "theory": "DFT", 
		 "functional": "B3LYP", 
		 "basiset": "6-31G**", 
		 "properties": { 
			 "R2extent": 2995.5691, 
			 "electric_dipole_moment_norm": 1.15736544358, 
			 "electric_quadrupole_moment_norm": 22.9578111391, 
			 "total_energy": -529.095664662, 
			 "HOMO_LUMO_gap": 0.18192, 
			 "cosmo_polarized_energy": -14.68, 
			 "cosmo_cavitation_energy": 21.68, 
			 "cosmo_dispersion_energy": -15.58, 
			 "cosmo_repulsion_energy": 1.25, 
			 "cosmo_total_nonelectrostatic_energy": 7.36, 
			 "SMD_solvation_energy": 5.83 
		},
		"coords": [
			{
				"x": -2.4835146194,
				"y": -1.3776456852,
				"z": 1.2603283774,
				"element": "O" 
			},
			{
				"x": -1.2263471144,
				"y": -1.4171679571,
				"z": 1.7197450597,
				"element": "C" 
			},
			{
				"x": -0.9291863345,
				"y": -1.2267988848,
				"z": 2.8766487692,
				"element": "O" 
			},
			{
				"x": -0.1962100423,
				"y": -1.7230206532,
				"z": 0.6563600299,
				"element": "C" 
			},
			{
				"x": -0.6714420453,
				"y": -1.9112660797,
				"z": -0.584736002,
				"element": "N" 
			},
			{
				"x": 0.1926560088,
				"y": -2.1836721252,
				"z": -1.5598073219,
				"element": "C" 
			},
			{
				"x": 1.5780470954,
				"y": -2.2799170389,
				"z": -1.332976426,
				"element": "C" 
			},
			{
				"x": 2.0647627878,
				"y": -2.081114682,
				"z": -0.0304377844,
				"element": "C" 
			},
			{
				"x": 1.1584362274,
				"y": -1.797013448,
				"z": 0.9838050725,
				"element": "C" 
			},
			{
				"x": 2.4631411463,
				"y": -2.5755431037,
				"z": -2.4190546748,
				"element": "C" 
			},
			{
				"x": 3.1775240919,
				"y": -2.8158131453,
				"z": -3.3044607197,
				"element": "N" 
			},
			{
				"x": -2.4414931045,
				"y": -1.5646131576,
				"z": 0.2998116846,
				"element": "H" 
			},
			{
				"x": -0.2107108229,
				"y": -2.332880779,
				"z": -2.5576467829,
				"element": "H" 
			},
			{
				"x": 3.1291586071,
				"y": -2.1505203445,
				"z": 0.1676163787,
				"element": "H" 
			},
			{
				"x": 1.4641781187,
				"y": -1.6325129158,
				"z": 2.0103043398,
				"element": "H" 
			}
		],
		 "valence_orbital": [ 
			{
				"type": "occ",
				"energy": -0.33601,
				"method": "rhf"
			},
			{
				"type": "occ",
				"energy": -0.3255,
				"method": "rhf"
			},
			{
				"type": "occ",
				"energy": -0.32458,
				"method": "rhf"
			},
			{
				"type": "occ",
				"energy": -0.30071,
				"method": "rhf"
			},
			{
				"type": "occ",
				"energy": -0.28633,
				"method": "rhf"
			},
			{
				"type": "unocc",
				"energy": -0.10441,
				"method": "rhf"
			},
			{
				"type": "unocc",
				"energy": -0.07096,
				"method": "rhf"
			},
			{
				"type": "unocc",
				"energy": -0.0004,
				"method": "rhf"
			},
			{
				"type": "unocc",
				"energy": 0.0069,
				"method": "rhf"
			},
			{
				"type": "unocc",
				"energy": 0.06726,
				"method": "rhf"
			}
		],
		"cosmo_sigma_profile": { 
			"-0.025": 0.0,
			"-0.024": 0.0,
			"-0.023": 0.0,
			"-0.022": 0.0,
			"-0.021": 0.0,
			"-0.02": 0.0,
			"-0.019": 0.0,
			"-0.018": 0.0,
			"-0.017": 0.0,
			"-0.016": 0.0,
			"-0.015": 0.0,
			"-0.014": 0.164415301366,
			"-0.013": 0.379936692008,
			"-0.012": 0.733768247102,
			"-0.011": 1.11372760341,
			"-0.01": 4.2417954837,
			"-0.009": 6.38358202691,
			"-0.008": 7.13070320005,
			"-0.007": 6.87410714289,
			"-0.006": 8.93668418131,
			"-0.005": 10.3806996154,
			"-0.004": 14.3535710842,
			"-0.003": 17.0648750733,
			"-0.002": 13.5549389948,
			"-0.001": 8.339363901,
			"0.0": 6.22169483421,
			"0.001": 4.61723575562,
			"0.002": 5.39920848225,
			"0.003": 6.13330921474,
			"0.004": 5.63624852239,
			"0.005": 4.07100313771,
			"0.006": 5.7531969379,
			"0.007": 6.32204952162,
			"0.008": 5.94511187251,
			"0.009": 7.55043736707,
			"0.01": 7.67973225015,
			"0.011": 7.3669659806,
			"0.012": 3.72333182472,
			"0.013": 0.496451132074,
			"0.014": 0.0,
			"0.015": 0.0,
			"0.016": 0.0,
			"0.017": 0.0,
			"0.018": 0.0,
			"0.019": 0.0,
			"0.02": 0.0,
			"0.021": 0.0,
			"0.022": 0.0,
			"0.023": 0.0,
			"0.024": 0.0,
			"0.025": 0.0
		}
	}
}
