{
	 "smiles": "ONC1=CC=CC=C1", 
	 "Tm": 356.65, 
	 "num_atms": 15, 
	 "gaussian": { 
		 "optdone": 1, 
		 "sigma_profile": "yes", 
		 "theory": "DFT", 
		 "functional": "B3LYP", 
		 "basiset": "6-31G**", 
		 "properties": { 
			 "R2extent": 1093.8088, 
			 "electric_dipole_moment_norm": 1.03604429925, 
			 "electric_quadrupole_moment_norm": 9.1854582221, 
			 "total_energy": -362.769148935, 
			 "HOMO_LUMO_gap": 0.21114, 
			 "cosmo_polarized_energy": -8.72, 
			 "cosmo_cavitation_energy": 18.78, 
			 "cosmo_dispersion_energy": -14.19, 
			 "cosmo_repulsion_energy": 1.18, 
			 "cosmo_total_nonelectrostatic_energy": 5.77, 
			 "SMD_solvation_energy": 4.07 
		},
		"coords": [
			{
				"x": -1.9224155422,
				"y": -1.9813715409,
				"z": 2.0982369915,
				"element": "O" 
			},
			{
				"x": -0.815626262,
				"y": -1.0997994198,
				"z": 2.2927446572,
				"element": "N" 
			},
			{
				"x": -0.2918801664,
				"y": -0.6007114056,
				"z": 1.0748228411,
				"element": "C" 
			},
			{
				"x": 0.4272319783,
				"y": 0.6043741892,
				"z": 1.1011082887,
				"element": "C" 
			},
			{
				"x": 1.0345981753,
				"y": 1.0804112093,
				"z": -0.0581952979,
				"element": "C" 
			},
			{
				"x": 0.9293262101,
				"y": 0.371165297,
				"z": -1.257520456,
				"element": "C" 
			},
			{
				"x": 0.2068063711,
				"y": -0.8226224164,
				"z": -1.2796960328,
				"element": "C" 
			},
			{
				"x": -0.4023220567,
				"y": -1.3136757864,
				"z": -0.1245573511,
				"element": "C" 
			},
			{
				"x": -1.6048780618,
				"y": -2.8088757314,
				"z": 2.4860368927,
				"element": "H" 
			},
			{
				"x": -1.1651068669,
				"y": -0.3434863486,
				"z": 2.8768136896,
				"element": "H" 
			},
			{
				"x": 0.5153226154,
				"y": 1.1603589557,
				"z": 2.0318134468,
				"element": "H" 
			},
			{
				"x": 1.5878206063,
				"y": 2.0148683873,
				"z": -0.0237968005,
				"element": "H" 
			},
			{
				"x": 1.4002068256,
				"y": 0.7467519398,
				"z": -2.1607411737,
				"element": "H" 
			},
			{
				"x": 0.1098270468,
				"y": -1.3810362897,
				"z": -2.2068235398,
				"element": "H" 
			},
			{
				"x": -0.9767108728,
				"y": -2.2316510395,
				"z": -0.1427461555,
				"element": "H" 
			}
		],
		 "valence_orbital": [ 
			{
				"type": "occ",
				"energy": -0.33754,
				"method": "rhf"
			},
			{
				"type": "occ",
				"energy": -0.30477,
				"method": "rhf"
			},
			{
				"type": "occ",
				"energy": -0.2929,
				"method": "rhf"
			},
			{
				"type": "occ",
				"energy": -0.24461,
				"method": "rhf"
			},
			{
				"type": "occ",
				"energy": -0.20706,
				"method": "rhf"
			},
			{
				"type": "unocc",
				"energy": 0.00408,
				"method": "rhf"
			},
			{
				"type": "unocc",
				"energy": 0.01376,
				"method": "rhf"
			},
			{
				"type": "unocc",
				"energy": 0.07016,
				"method": "rhf"
			},
			{
				"type": "unocc",
				"energy": 0.09519,
				"method": "rhf"
			},
			{
				"type": "unocc",
				"energy": 0.1031,
				"method": "rhf"
			}
		],
		"cosmo_sigma_profile": { 
			"-0.025": 0.0,
			"-0.024": 0.0,
			"-0.023": 0.0,
			"-0.022": 0.0,
			"-0.021": 0.0,
			"-0.02": 0.0,
			"-0.019": 0.0,
			"-0.018": 0.0,
			"-0.017": 0.257914984923,
			"-0.016": 1.11396674503,
			"-0.015": 0.875142507154,
			"-0.014": 0.837534858894,
			"-0.013": 1.7747699833,
			"-0.012": 2.52697595241,
			"-0.011": 1.37747476719,
			"-0.01": 1.76556112877,
			"-0.009": 1.85654312809,
			"-0.008": 1.80086968462,
			"-0.007": 2.42485996934,
			"-0.006": 3.8577148209,
			"-0.005": 10.0336071743,
			"-0.004": 10.5584585389,
			"-0.003": 12.0184746564,
			"-0.002": 8.78279185783,
			"-0.001": 8.33989663431,
			"0.0": 7.97312383129,
			"0.001": 6.55440458181,
			"0.002": 7.09876182884,
			"0.003": 7.91401178296,
			"0.004": 9.31899859633,
			"0.005": 11.0421922449,
			"0.006": 12.2290856307,
			"0.007": 7.01372499326,
			"0.008": 1.50461533222,
			"0.009": 1.79496612327,
			"0.01": 2.13271538672,
			"0.011": 2.22266732134,
			"0.012": 1.86230732238,
			"0.013": 0.152746636681,
			"0.014": 0.0,
			"0.015": 0.0,
			"0.016": 0.0,
			"0.017": 0.0,
			"0.018": 0.0,
			"0.019": 0.0,
			"0.02": 0.0,
			"0.021": 0.0,
			"0.022": 0.0,
			"0.023": 0.0,
			"0.024": 0.0,
			"0.025": 0.0
		}
	}
}
