{
	 "smiles": "CN1C(=O)N(C)C2=C(C=C(C=N2)S(Cl)(=O)=O)C1=O", 
	 "Tm": 445.15, 
	 "num_atms": 26, 
	 "gaussian": { 
		 "optdone": 1, 
		 "sigma_profile": "yes", 
		 "theory": "DFT", 
		 "functional": "B3LYP", 
		 "basiset": "6-31G**", 
		 "properties": { 
			 "R2extent": 7740.1128, 
			 "electric_dipole_moment_norm": 4.36751219117, 
			 "electric_quadrupole_moment_norm": 22.0830247204, 
			 "total_energy": -1671.28778076, 
			 "HOMO_LUMO_gap": 0.17182, 
			 "cosmo_polarized_energy": -15.03, 
			 "cosmo_cavitation_energy": 34.13, 
			 "cosmo_dispersion_energy": -25.47, 
			 "cosmo_repulsion_energy": 1.89, 
			 "cosmo_total_nonelectrostatic_energy": 10.55, 
			 "SMD_solvation_energy": 4.99 
		},
		"coords": [
			{
				"x": 0.6407516561,
				"y": -3.2210410198,
				"z": 1.4926878617,
				"element": "C" 
			},
			{
				"x": 0.4651958296,
				"y": -1.903157174,
				"z": 0.8660740764,
				"element": "N" 
			},
			{
				"x": -0.7476435568,
				"y": -1.7084861173,
				"z": 0.1959570507,
				"element": "C" 
			},
			{
				"x": -1.587765722,
				"y": -2.588999059,
				"z": 0.1496653464,
				"element": "O" 
			},
			{
				"x": -0.9432877347,
				"y": -0.4589829131,
				"z": -0.414779497,
				"element": "N" 
			},
			{
				"x": -2.2090133684,
				"y": -0.231329115,
				"z": -1.1283185141,
				"element": "C" 
			},
			{
				"x": 0.0002742281,
				"y": 0.5411019578,
				"z": -0.3660807268,
				"element": "C" 
			},
			{
				"x": 1.2152939548,
				"y": 0.3250152362,
				"z": 0.3198577571,
				"element": "C" 
			},
			{
				"x": 2.1492250882,
				"y": 1.3530860138,
				"z": 0.3575790645,
				"element": "C" 
			},
			{
				"x": 1.8297760959,
				"y": 2.5435672111,
				"z": -0.2886444567,
				"element": "C" 
			},
			{
				"x": 0.6013872074,
				"y": 2.671997528,
				"z": -0.951607201,
				"element": "C" 
			},
			{
				"x": -0.2969120502,
				"y": 1.6932445202,
				"z": -0.9929213491,
				"element": "N" 
			},
			{
				"x": 2.984652872,
				"y": 3.894901685,
				"z": -0.3005830372,
				"element": "S" 
			},
			{
				"x": 2.4525321106,
				"y": 4.9215882572,
				"z": 1.4886773532,
				"element": "Cl" 
			},
			{
				"x": 4.3287257701,
				"y": 3.3759668335,
				"z": -0.0890366316,
				"element": "O" 
			},
			{
				"x": 2.6482590193,
				"y": 4.7904022509,
				"z": -1.3997327283,
				"element": "O" 
			},
			{
				"x": 1.494434849,
				"y": -0.9621561903,
				"z": 0.9810902967,
				"element": "C" 
			},
			{
				"x": 2.5321921268,
				"y": -1.194011686,
				"z": 1.5810822861,
				"element": "O" 
			},
			{
				"x": -0.148759681,
				"y": -3.3890518271,
				"z": 2.2272815424,
				"element": "H" 
			},
			{
				"x": 1.617337095,
				"y": -3.2243546744,
				"z": 1.9705825807,
				"element": "H" 
			},
			{
				"x": 0.5806226683,
				"y": -4.0024839972,
				"z": 0.7331083679,
				"element": "H" 
			},
			{
				"x": -2.0077379591,
				"y": 0.0001607733,
				"z": -2.175646173,
				"element": "H" 
			},
			{
				"x": -2.7950232965,
				"y": -1.1424686335,
				"z": -1.0431443478,
				"element": "H" 
			},
			{
				"x": -2.7408996789,
				"y": 0.6104230154,
				"z": -0.6814637337,
				"element": "H" 
			},
			{
				"x": 3.0912468984,
				"y": 1.2023287017,
				"z": 0.8741853673,
				"element": "H" 
			},
			{
				"x": 0.3519355779,
				"y": 3.5939384226,
				"z": -1.4699705547,
				"element": "H" 
			}
		],
		 "valence_orbital": [ 
			{
				"type": "occ",
				"energy": -0.31901,
				"method": "rhf"
			},
			{
				"type": "occ",
				"energy": -0.31479,
				"method": "rhf"
			},
			{
				"type": "occ",
				"energy": -0.29747,
				"method": "rhf"
			},
			{
				"type": "occ",
				"energy": -0.28688,
				"method": "rhf"
			},
			{
				"type": "occ",
				"energy": -0.27228,
				"method": "rhf"
			},
			{
				"type": "unocc",
				"energy": -0.10046,
				"method": "rhf"
			},
			{
				"type": "unocc",
				"energy": -0.09259,
				"method": "rhf"
			},
			{
				"type": "unocc",
				"energy": -0.06157,
				"method": "rhf"
			},
			{
				"type": "unocc",
				"energy": -0.01052,
				"method": "rhf"
			},
			{
				"type": "unocc",
				"energy": 0.01852,
				"method": "rhf"
			}
		],
		"cosmo_sigma_profile": { 
			"-0.025": 0.0,
			"-0.024": 0.0,
			"-0.023": 0.0,
			"-0.022": 0.0,
			"-0.021": 0.0,
			"-0.02": 0.0,
			"-0.019": 0.0,
			"-0.018": 0.0,
			"-0.017": 0.0,
			"-0.016": 0.0,
			"-0.015": 0.0,
			"-0.014": 0.0,
			"-0.013": 0.0,
			"-0.012": 0.0,
			"-0.011": 0.0,
			"-0.01": 0.619611990589,
			"-0.009": 2.47905829024,
			"-0.008": 5.57603475819,
			"-0.007": 6.66298900557,
			"-0.006": 15.4110731029,
			"-0.005": 26.3611064662,
			"-0.004": 29.1790268965,
			"-0.003": 32.9450295297,
			"-0.002": 17.4350449957,
			"-0.001": 13.4718652727,
			"0.0": 14.3022475277,
			"0.001": 11.2934818252,
			"0.002": 14.9495066521,
			"0.003": 17.579627737,
			"0.004": 9.10687317203,
			"0.005": 7.54853571183,
			"0.006": 6.62812238561,
			"0.007": 11.7224662149,
			"0.008": 12.1688369107,
			"0.009": 6.13723522322,
			"0.01": 4.64567993661,
			"0.011": 8.37938271494,
			"0.012": 2.31854985979,
			"0.013": 0.0,
			"0.014": 0.0,
			"0.015": 0.0,
			"0.016": 0.0,
			"0.017": 0.0,
			"0.018": 0.0,
			"0.019": 0.0,
			"0.02": 0.0,
			"0.021": 0.0,
			"0.022": 0.0,
			"0.023": 0.0,
			"0.024": 0.0,
			"0.025": 0.0
		}
	}
}
