{
	 "smiles": "COC1=C(C=CC=C1)N1C=C(C=N1)S(N)(=O)=O", 
	 "Tm": 417.15, 
	 "num_atms": 28, 
	 "gaussian": { 
		 "optdone": 1, 
		 "sigma_profile": "yes", 
		 "theory": "DFT", 
		 "functional": "B3LYP", 
		 "basiset": "6-31G**", 
		 "properties": { 
			 "R2extent": 6527.1367, 
			 "electric_dipole_moment_norm": 6.62222618838, 
			 "electric_quadrupole_moment_norm": 33.6376029244, 
			 "total_energy": -1175.68883493, 
			 "HOMO_LUMO_gap": 0.21298, 
			 "cosmo_polarized_energy": -22.46, 
			 "cosmo_cavitation_energy": 34.4, 
			 "cosmo_dispersion_energy": -24.89, 
			 "cosmo_repulsion_energy": 1.9, 
			 "cosmo_total_nonelectrostatic_energy": 11.4, 
			 "SMD_solvation_energy": 6.28 
		},
		"coords": [
			{
				"x": 2.7019013004,
				"y": -1.8777951763,
				"z": 0.2058435766,
				"element": "C" 
			},
			{
				"x": 2.0237321451,
				"y": -0.8877326598,
				"z": 0.9901464128,
				"element": "O" 
			},
			{
				"x": 1.5875256196,
				"y": 0.2128898493,
				"z": 0.3062172665,
				"element": "C" 
			},
			{
				"x": 0.219040381,
				"y": 0.3767250252,
				"z": 0.0250893216,
				"element": "C" 
			},
			{
				"x": -0.243000467,
				"y": 1.5480415771,
				"z": -0.5814765769,
				"element": "C" 
			},
			{
				"x": 0.6518453725,
				"y": 2.5609790826,
				"z": -0.92069075,
				"element": "C" 
			},
			{
				"x": 2.0139807622,
				"y": 2.3973004723,
				"z": -0.6610295046,
				"element": "C" 
			},
			{
				"x": 2.4763572693,
				"y": 1.2309074784,
				"z": -0.0531601897,
				"element": "C" 
			},
			{
				"x": -0.7137561266,
				"y": -0.6414880237,
				"z": 0.3786454299,
				"element": "N" 
			},
			{
				"x": -1.8553468519,
				"y": -0.4820408181,
				"z": 1.095002742,
				"element": "C" 
			},
			{
				"x": -2.4607431955,
				"y": -1.7249302203,
				"z": 1.1403372349,
				"element": "C" 
			},
			{
				"x": -1.6024400075,
				"y": -2.5816921582,
				"z": 0.4087301217,
				"element": "C" 
			},
			{
				"x": -0.5467774946,
				"y": -1.9241516841,
				"z": -0.0511433315,
				"element": "N" 
			},
			{
				"x": -3.9798123188,
				"y": -2.1138134015,
				"z": 1.949507258,
				"element": "S" 
			},
			{
				"x": -3.5973305114,
				"y": -2.7446011318,
				"z": 3.4602187512,
				"element": "N" 
			},
			{
				"x": -4.6557877062,
				"y": -0.8446952367,
				"z": 2.2120188134,
				"element": "O" 
			},
			{
				"x": -4.5934109905,
				"y": -3.2157379109,
				"z": 1.2130759725,
				"element": "O" 
			},
			{
				"x": 3.0632080864,
				"y": -2.6278043761,
				"z": 0.9117279018,
				"element": "H" 
			},
			{
				"x": 3.5558939608,
				"y": -1.4451734887,
				"z": -0.3298999495,
				"element": "H" 
			},
			{
				"x": 2.0074468438,
				"y": -2.3392464503,
				"z": -0.5026386679,
				"element": "H" 
			},
			{
				"x": -1.3014324554,
				"y": 1.6459890758,
				"z": -0.8018015191,
				"element": "H" 
			},
			{
				"x": 0.2867999321,
				"y": 3.4667632784,
				"z": -1.3938417412,
				"element": "H" 
			},
			{
				"x": 2.717240067,
				"y": 3.1815999419,
				"z": -0.9242980789,
				"element": "H" 
			},
			{
				"x": 3.5284224219,
				"y": 1.1033916664,
				"z": 0.1818926386,
				"element": "H" 
			},
			{
				"x": -2.1544759704,
				"y": 0.4673061158,
				"z": 1.5116171035,
				"element": "H" 
			},
			{
				"x": -1.7344136052,
				"y": -3.6321385325,
				"z": 0.1896909952,
				"element": "H" 
			},
			{
				"x": -3.111277608,
				"y": -3.6338561595,
				"z": 3.400646927,
				"element": "H" 
			},
			{
				"x": -3.124288853,
				"y": -2.0736961344,
				"z": 4.0574718425,
				"element": "H" 
			}
		],
		 "valence_orbital": [ 
			{
				"type": "occ",
				"energy": -0.29394,
				"method": "rhf"
			},
			{
				"type": "occ",
				"energy": -0.28872,
				"method": "rhf"
			},
			{
				"type": "occ",
				"energy": -0.27034,
				"method": "rhf"
			},
			{
				"type": "occ",
				"energy": -0.26124,
				"method": "rhf"
			},
			{
				"type": "occ",
				"energy": -0.24911,
				"method": "rhf"
			},
			{
				"type": "unocc",
				"energy": -0.03613,
				"method": "rhf"
			},
			{
				"type": "unocc",
				"energy": -0.02092,
				"method": "rhf"
			},
			{
				"type": "unocc",
				"energy": 0.00017,
				"method": "rhf"
			},
			{
				"type": "unocc",
				"energy": 0.01542,
				"method": "rhf"
			},
			{
				"type": "unocc",
				"energy": 0.0585,
				"method": "rhf"
			}
		],
		"cosmo_sigma_profile": { 
			"-0.025": 0.0,
			"-0.024": 0.0,
			"-0.023": 0.0,
			"-0.022": 0.0,
			"-0.021": 0.0,
			"-0.02": 0.0,
			"-0.019": 0.0,
			"-0.018": 0.0,
			"-0.017": 0.0,
			"-0.016": 0.207280443537,
			"-0.015": 2.16794348259,
			"-0.014": 3.41909120515,
			"-0.013": 2.6455715378,
			"-0.012": 2.8710875162,
			"-0.011": 2.51828156809,
			"-0.01": 3.49296680568,
			"-0.009": 4.25927214696,
			"-0.008": 6.02468606853,
			"-0.007": 10.3783571308,
			"-0.006": 14.5240162055,
			"-0.005": 18.2520563584,
			"-0.004": 16.6795070387,
			"-0.003": 18.4738624004,
			"-0.002": 15.0844818595,
			"-0.001": 13.4362200431,
			"0.0": 14.8087600995,
			"0.001": 14.2992720373,
			"0.002": 16.7261991712,
			"0.003": 16.595539287,
			"0.004": 13.2358459025,
			"0.005": 6.3393392384,
			"0.006": 7.38816136202,
			"0.007": 7.63869798069,
			"0.008": 7.79358583472,
			"0.009": 5.96001327042,
			"0.01": 10.759243528,
			"0.011": 13.4287630222,
			"0.012": 5.24966213677,
			"0.013": 0.26282897112,
			"0.014": 0.0,
			"0.015": 0.0,
			"0.016": 0.0,
			"0.017": 0.0,
			"0.018": 0.0,
			"0.019": 0.0,
			"0.02": 0.0,
			"0.021": 0.0,
			"0.022": 0.0,
			"0.023": 0.0,
			"0.024": 0.0,
			"0.025": 0.0
		}
	}
}
