{
	 "smiles": "NC1=C(C=NN1)C(=O)OCC1=CC=CC=C1", 
	 "Tm": 395.15, 
	 "num_atms": 27, 
	 "gaussian": { 
		 "optdone": 1, 
		 "sigma_profile": "yes", 
		 "theory": "DFT", 
		 "functional": "B3LYP", 
		 "basiset": "6-31G**", 
		 "properties": { 
			 "R2extent": 5245.0639, 
			 "electric_dipole_moment_norm": 2.26809848331, 
			 "electric_quadrupole_moment_norm": 20.2490601918, 
			 "total_energy": -740.501716106, 
			 "HOMO_LUMO_gap": 0.20454, 
			 "cosmo_polarized_energy": -16.98, 
			 "cosmo_cavitation_energy": 31.85, 
			 "cosmo_dispersion_energy": -23.25, 
			 "cosmo_repulsion_energy": 1.83, 
			 "cosmo_total_nonelectrostatic_energy": 10.43, 
			 "SMD_solvation_energy": 5.23 
		},
		"coords": [
			{
				"x": 2.1560769743,
				"y": 3.3678359614,
				"z": -2.1259614605,
				"element": "N" 
			},
			{
				"x": 2.5373083351,
				"y": 3.2567020409,
				"z": -0.8143389956,
				"element": "C" 
			},
			{
				"x": 1.94078148,
				"y": 2.5209510386,
				"z": 0.2207233768,
				"element": "C" 
			},
			{
				"x": 2.7121618646,
				"y": 2.8419190655,
				"z": 1.373952947,
				"element": "C" 
			},
			{
				"x": 3.6929037182,
				"y": 3.6823603811,
				"z": 1.1065413879,
				"element": "N" 
			},
			{
				"x": 3.5670088319,
				"y": 3.9240151778,
				"z": -0.2446594757,
				"element": "N" 
			},
			{
				"x": 0.8249732213,
				"y": 1.6225128203,
				"z": 0.0150767693,
				"element": "C" 
			},
			{
				"x": 0.2902343062,
				"y": 1.4351117615,
				"z": -1.0780456418,
				"element": "O" 
			},
			{
				"x": 0.4302771845,
				"y": 1.0094694676,
				"z": 1.1542418524,
				"element": "O" 
			},
			{
				"x": -0.683493935,
				"y": 0.0820654596,
				"z": 1.050908171,
				"element": "C" 
			},
			{
				"x": -0.2175912156,
				"y": -1.3362285727,
				"z": 0.8284926017,
				"element": "C" 
			},
			{
				"x": -0.0132300745,
				"y": -2.1932119418,
				"z": 1.9167560961,
				"element": "C" 
			},
			{
				"x": 0.4242933608,
				"y": -3.5034597917,
				"z": 1.718403946,
				"element": "C" 
			},
			{
				"x": 0.6626750701,
				"y": -3.9700302306,
				"z": 0.4244930203,
				"element": "C" 
			},
			{
				"x": 0.4621388028,
				"y": -3.1220957397,
				"z": -0.6674357931,
				"element": "C" 
			},
			{
				"x": 0.0243870861,
				"y": -1.8128432904,
				"z": -0.4677662993,
				"element": "C" 
			},
			{
				"x": 2.8899602612,
				"y": 3.4715500942,
				"z": -2.8129711005,
				"element": "H" 
			},
			{
				"x": 1.4430547718,
				"y": 2.681745104,
				"z": -2.358958012,
				"element": "H" 
			},
			{
				"x": 2.5739497512,
				"y": 2.4707588167,
				"z": 2.3800071619,
				"element": "H" 
			},
			{
				"x": 4.1842220137,
				"y": 4.5914736478,
				"z": -0.6793794621,
				"element": "H" 
			},
			{
				"x": -1.3386162981,
				"y": 0.4155001613,
				"z": 0.2441866917,
				"element": "H" 
			},
			{
				"x": -1.2011394121,
				"y": 0.176154875,
				"z": 2.0080443825,
				"element": "H" 
			},
			{
				"x": -0.2004859949,
				"y": -1.8318155224,
				"z": 2.9251170062,
				"element": "H" 
			},
			{
				"x": 0.5762532205,
				"y": -4.1588576866,
				"z": 2.5713332026,
				"element": "H" 
			},
			{
				"x": 1.0007606609,
				"y": -4.9904529956,
				"z": 0.2673072608,
				"element": "H" 
			},
			{
				"x": 0.6441726252,
				"y": -3.4825504387,
				"z": -1.6760658476,
				"element": "H" 
			},
			{
				"x": -0.1243366101,
				"y": -1.1451796632,
				"z": -1.3108037862,
				"element": "H" 
			}
		],
		 "valence_orbital": [ 
			{
				"type": "occ",
				"energy": -0.27045,
				"method": "rhf"
			},
			{
				"type": "occ",
				"energy": -0.26146,
				"method": "rhf"
			},
			{
				"type": "occ",
				"energy": -0.24902,
				"method": "rhf"
			},
			{
				"type": "occ",
				"energy": -0.24615,
				"method": "rhf"
			},
			{
				"type": "occ",
				"energy": -0.21566,
				"method": "rhf"
			},
			{
				"type": "unocc",
				"energy": -0.01112,
				"method": "rhf"
			},
			{
				"type": "unocc",
				"energy": -0.00461,
				"method": "rhf"
			},
			{
				"type": "unocc",
				"energy": 2e-05,
				"method": "rhf"
			},
			{
				"type": "unocc",
				"energy": 0.02951,
				"method": "rhf"
			},
			{
				"type": "unocc",
				"energy": 0.0689,
				"method": "rhf"
			}
		],
		"cosmo_sigma_profile": { 
			"-0.025": 0.0,
			"-0.024": 0.0,
			"-0.023": 0.0,
			"-0.022": 0.0,
			"-0.021": 0.0,
			"-0.02": 0.0,
			"-0.019": 0.0,
			"-0.018": 0.0,
			"-0.017": 0.623165797445,
			"-0.016": 2.82949972927,
			"-0.015": 2.34615889802,
			"-0.014": 2.95137906725,
			"-0.013": 1.86952626558,
			"-0.012": 1.75200378228,
			"-0.011": 2.41784083695,
			"-0.01": 2.78396861488,
			"-0.009": 2.05818277851,
			"-0.008": 2.04804669385,
			"-0.007": 3.99217741632,
			"-0.006": 11.8930923638,
			"-0.005": 15.1147943053,
			"-0.004": 16.5402627683,
			"-0.003": 17.2660262662,
			"-0.002": 13.1073185954,
			"-0.001": 13.5749241195,
			"0.0": 13.0489049915,
			"0.001": 16.7728325004,
			"0.002": 20.2435473662,
			"0.003": 20.0889074323,
			"0.004": 17.126203375,
			"0.005": 16.8329769926,
			"0.006": 10.3151164247,
			"0.007": 5.11130783399,
			"0.008": 5.01047019323,
			"0.009": 3.60702459505,
			"0.01": 2.89681742966,
			"0.011": 3.47373630394,
			"0.012": 2.66926896995,
			"0.013": 1.00676283491,
			"0.014": 1.33109220441,
			"0.015": 0.972328336746,
			"0.016": 0.748370345398,
			"0.017": 0.0,
			"0.018": 0.0,
			"0.019": 0.0,
			"0.02": 0.0,
			"0.021": 0.0,
			"0.022": 0.0,
			"0.023": 0.0,
			"0.024": 0.0,
			"0.025": 0.0
		}
	}
}
