{
	 "smiles": "O=C1OC(=O)C2CCCCC12", 
	 "Tm": 305.15, 
	 "num_atms": 21, 
	 "gaussian": { 
		 "optdone": 1, 
		 "sigma_profile": "yes", 
		 "theory": "DFT", 
		 "functional": "B3LYP", 
		 "basiset": "6-31G**", 
		 "properties": { 
			 "R2extent": 1601.1699, 
			 "electric_dipole_moment_norm": 4.65668048507, 
			 "electric_quadrupole_moment_norm": 11.5777309444, 
			 "total_energy": -536.575880374, 
			 "HOMO_LUMO_gap": 0.24969, 
			 "cosmo_polarized_energy": -11.54, 
			 "cosmo_cavitation_energy": 22.94, 
			 "cosmo_dispersion_energy": -17.2, 
			 "cosmo_repulsion_energy": 1.38, 
			 "cosmo_total_nonelectrostatic_energy": 7.11, 
			 "SMD_solvation_energy": 4.91 
		},
		"coords": [
			{
				"x": -0.3447452317,
				"y": 3.3383877435,
				"z": -0.3829350071,
				"element": "O" 
			},
			{
				"x": -0.4456400441,
				"y": 2.1667032064,
				"z": -0.6103554767,
				"element": "C" 
			},
			{
				"x": 0.3548771882,
				"y": 1.542803206,
				"z": -1.5606486445,
				"element": "O" 
			},
			{
				"x": 0.0748460512,
				"y": 0.1839868581,
				"z": -1.641626752,
				"element": "C" 
			},
			{
				"x": 0.7092940428,
				"y": -0.5438514877,
				"z": -2.3507846607,
				"element": "O" 
			},
			{
				"x": -1.0987670354,
				"y": -0.1590907222,
				"z": -0.7311081514,
				"element": "C" 
			},
			{
				"x": -0.8006170851,
				"y": -1.3718563927,
				"z": 0.1674013457,
				"element": "C" 
			},
			{
				"x": 0.324623082,
				"y": -1.0984317287,
				"z": 1.1853334704,
				"element": "C" 
			},
			{
				"x": 0.2595952364,
				"y": 0.3241135307,
				"z": 1.8137885211,
				"element": "C" 
			},
			{
				"x": -1.0779309839,
				"y": 1.0330881942,
				"z": 1.5561883407,
				"element": "C" 
			},
			{
				"x": -1.372104597,
				"y": 1.14746574,
				"z": 0.0437280864,
				"element": "C" 
			},
			{
				"x": -1.9349236913,
				"y": -0.4045396943,
				"z": -1.3967668326,
				"element": "H" 
			},
			{
				"x": -1.7276283521,
				"y": -1.6337268159,
				"z": 0.6900911143,
				"element": "H" 
			},
			{
				"x": -0.5410380573,
				"y": -2.2271994782,
				"z": -0.4631971484,
				"element": "H" 
			},
			{
				"x": 1.2937360687,
				"y": -1.2341625419,
				"z": 0.6933593692,
				"element": "H" 
			},
			{
				"x": 0.2735117954,
				"y": -1.8620405634,
				"z": 1.9684006254,
				"element": "H" 
			},
			{
				"x": 1.0673117981,
				"y": 0.9459623751,
				"z": 1.407689531,
				"element": "H" 
			},
			{
				"x": 0.4421149992,
				"y": 0.2715942307,
				"z": 2.891666854,
				"element": "H" 
			},
			{
				"x": -1.0744693608,
				"y": 2.0378681048,
				"z": 1.9897683945,
				"element": "H" 
			},
			{
				"x": -1.8988335518,
				"y": 0.4828551499,
				"z": 2.0305795418,
				"element": "H" 
			},
			{
				"x": -2.3957122718,
				"y": 1.5086710856,
				"z": -0.0984725211,
				"element": "H" 
			}
		],
		 "valence_orbital": [ 
			{
				"type": "occ",
				"energy": -0.33555,
				"method": "rhf"
			},
			{
				"type": "occ",
				"energy": -0.32989,
				"method": "rhf"
			},
			{
				"type": "occ",
				"energy": -0.3247,
				"method": "rhf"
			},
			{
				"type": "occ",
				"energy": -0.30178,
				"method": "rhf"
			},
			{
				"type": "occ",
				"energy": -0.27743,
				"method": "rhf"
			},
			{
				"type": "unocc",
				"energy": -0.02774,
				"method": "rhf"
			},
			{
				"type": "unocc",
				"energy": -0.00818,
				"method": "rhf"
			},
			{
				"type": "unocc",
				"energy": 0.0655,
				"method": "rhf"
			},
			{
				"type": "unocc",
				"energy": 0.09218,
				"method": "rhf"
			},
			{
				"type": "unocc",
				"energy": 0.10959,
				"method": "rhf"
			}
		],
		"cosmo_sigma_profile": { 
			"-0.025": 0.0,
			"-0.024": 0.0,
			"-0.023": 0.0,
			"-0.022": 0.0,
			"-0.021": 0.0,
			"-0.02": 0.0,
			"-0.019": 0.0,
			"-0.018": 0.0,
			"-0.017": 0.0,
			"-0.016": 0.0,
			"-0.015": 0.0,
			"-0.014": 0.0,
			"-0.013": 0.0,
			"-0.012": 0.000561884680957,
			"-0.011": 0.468038294245,
			"-0.01": 0.812594240187,
			"-0.009": 1.74180175422,
			"-0.008": 5.50403797278,
			"-0.007": 7.52197195554,
			"-0.006": 5.28507269764,
			"-0.005": 10.1122453228,
			"-0.004": 16.5963188723,
			"-0.003": 20.2678938824,
			"-0.002": 21.856070949,
			"-0.001": 18.6166668354,
			"0.0": 12.6989800257,
			"0.001": 4.67635624945,
			"0.002": 3.33134546561,
			"0.003": 3.57179121255,
			"0.004": 3.49463269508,
			"0.005": 4.22049524256,
			"0.006": 3.94410004576,
			"0.007": 6.2613406829,
			"0.008": 6.54919687133,
			"0.009": 5.12434950589,
			"0.01": 10.8712333225,
			"0.011": 5.66268686772,
			"0.012": 0.195865551765,
			"0.013": 0.0,
			"0.014": 0.0,
			"0.015": 0.0,
			"0.016": 0.0,
			"0.017": 0.0,
			"0.018": 0.0,
			"0.019": 0.0,
			"0.02": 0.0,
			"0.021": 0.0,
			"0.022": 0.0,
			"0.023": 0.0,
			"0.024": 0.0,
			"0.025": 0.0
		}
	}
}
