{
	 "smiles": "OCCNC1=NC=CN=C1Cl", 
	 "Tm": 329.15, 
	 "num_atms": 19, 
	 "gaussian": { 
		 "optdone": 1, 
		 "sigma_profile": "yes", 
		 "theory": "DFT", 
		 "functional": "B3LYP", 
		 "basiset": "6-31G**", 
		 "properties": { 
			 "R2extent": 2904.6286, 
			 "electric_dipole_moment_norm": 1.66864525889, 
			 "electric_quadrupole_moment_norm": 11.4342501298, 
			 "total_energy": -933.115843199, 
			 "HOMO_LUMO_gap": 0.1772, 
			 "cosmo_polarized_energy": -11.25, 
			 "cosmo_cavitation_energy": 24.76, 
			 "cosmo_dispersion_energy": -18.4, 
			 "cosmo_repulsion_energy": 1.51, 
			 "cosmo_total_nonelectrostatic_energy": 7.86, 
			 "SMD_solvation_energy": 1.76 
		},
		"coords": [
			{
				"x": 1.47718772,
				"y": 1.208951295,
				"z": 1.8864625133,
				"element": "O" 
			},
			{
				"x": 1.8202251597,
				"y": 1.8760520797,
				"z": 0.6833615945,
				"element": "C" 
			},
			{
				"x": 2.4028731299,
				"y": 0.9172041341,
				"z": -0.3590595845,
				"element": "C" 
			},
			{
				"x": 1.4626482148,
				"y": -0.1470670051,
				"z": -0.7110515167,
				"element": "N" 
			},
			{
				"x": 0.5469332005,
				"y": -0.0210845623,
				"z": -1.7154299622,
				"element": "C" 
			},
			{
				"x": 0.3662603575,
				"y": 1.1774874164,
				"z": -2.2839338494,
				"element": "N" 
			},
			{
				"x": -0.5490765618,
				"y": 1.2753240025,
				"z": -3.2578633369,
				"element": "C" 
			},
			{
				"x": -1.3019911936,
				"y": 0.1905593763,
				"z": -3.6836437247,
				"element": "C" 
			},
			{
				"x": -1.1276733474,
				"y": -1.0213115597,
				"z": -3.119432254,
				"element": "N" 
			},
			{
				"x": -0.2382511694,
				"y": -1.1217797064,
				"z": -2.1728919754,
				"element": "C" 
			},
			{
				"x": 0.0016693333,
				"y": -2.7117449044,
				"z": -1.4278606393,
				"element": "Cl" 
			},
			{
				"x": 0.788218945,
				"y": 0.569199843,
				"z": 1.6604395936,
				"element": "H" 
			},
			{
				"x": 2.5760697318,
				"y": 2.6241033418,
				"z": 0.9450457512,
				"element": "H" 
			},
			{
				"x": 0.9597478787,
				"y": 2.4042395456,
				"z": 0.2486037993,
				"element": "H" 
			},
			{
				"x": 3.295330995,
				"y": 0.4373016693,
				"z": 0.0529448848,
				"element": "H" 
			},
			{
				"x": 2.685123641,
				"y": 1.4710807135,
				"z": -1.2606789039,
				"element": "H" 
			},
			{
				"x": 1.6726547257,
				"y": -1.0885671375,
				"z": -0.4172907301,
				"element": "H" 
			},
			{
				"x": -0.678359662,
				"y": 2.2580608816,
				"z": -3.7056125189,
				"element": "H" 
			},
			{
				"x": -2.0455910988,
				"y": 0.2715905766,
				"z": -4.4701091406,
				"element": "H" 
			}
		],
		 "valence_orbital": [ 
			{
				"type": "occ",
				"energy": -0.31172,
				"method": "rhf"
			},
			{
				"type": "occ",
				"energy": -0.30393,
				"method": "rhf"
			},
			{
				"type": "occ",
				"energy": -0.2721,
				"method": "rhf"
			},
			{
				"type": "occ",
				"energy": -0.26526,
				"method": "rhf"
			},
			{
				"type": "occ",
				"energy": -0.22869,
				"method": "rhf"
			},
			{
				"type": "unocc",
				"energy": -0.05149,
				"method": "rhf"
			},
			{
				"type": "unocc",
				"energy": -0.01694,
				"method": "rhf"
			},
			{
				"type": "unocc",
				"energy": 0.0243,
				"method": "rhf"
			},
			{
				"type": "unocc",
				"energy": 0.07283,
				"method": "rhf"
			},
			{
				"type": "unocc",
				"energy": 0.09896,
				"method": "rhf"
			}
		],
		"cosmo_sigma_profile": { 
			"-0.025": 0.0,
			"-0.024": 0.0,
			"-0.023": 0.0,
			"-0.022": 0.0,
			"-0.021": 0.0,
			"-0.02": 0.0,
			"-0.019": 0.0,
			"-0.018": 0.0,
			"-0.017": 0.0,
			"-0.016": 0.0,
			"-0.015": 0.0,
			"-0.014": 0.435116106322,
			"-0.013": 1.49168817811,
			"-0.012": 1.49784051928,
			"-0.011": 2.01153545198,
			"-0.01": 1.98200135039,
			"-0.009": 1.03048556042,
			"-0.008": 3.82520860657,
			"-0.007": 7.17382607117,
			"-0.006": 8.17826472719,
			"-0.005": 11.2413113481,
			"-0.004": 12.4313389037,
			"-0.003": 14.8226363198,
			"-0.002": 19.5505650708,
			"-0.001": 15.9670548795,
			"0.0": 13.7328132616,
			"0.001": 14.3865665978,
			"0.002": 11.4626919062,
			"0.003": 10.483277072,
			"0.004": 10.9342260327,
			"0.005": 7.19852941133,
			"0.006": 4.12462079823,
			"0.007": 5.09571575453,
			"0.008": 2.87779058912,
			"0.009": 2.57695407207,
			"0.01": 3.03182697684,
			"0.011": 3.41354500564,
			"0.012": 2.00231447747,
			"0.013": 2.53164387616,
			"0.014": 2.74854042671,
			"0.015": 0.754675409224,
			"0.016": 0.0,
			"0.017": 0.0,
			"0.018": 0.0,
			"0.019": 0.0,
			"0.02": 0.0,
			"0.021": 0.0,
			"0.022": 0.0,
			"0.023": 0.0,
			"0.024": 0.0,
			"0.025": 0.0
		}
	}
}
