{
	 "smiles": "CC1=CCC(CC1O)C(C)(C)O", 
	 "Tm": 403.15, 
	 "num_atms": 30, 
	 "gaussian": { 
		 "optdone": 1, 
		 "sigma_profile": "yes", 
		 "theory": "DFT", 
		 "functional": "B3LYP", 
		 "basiset": "6-31G**", 
		 "properties": { 
			 "R2extent": 2589.3913, 
			 "electric_dipole_moment_norm": 2.67564001316, 
			 "electric_quadrupole_moment_norm": 9.98526503304, 
			 "total_energy": -542.348411677, 
			 "HOMO_LUMO_gap": 0.25617, 
			 "cosmo_polarized_energy": -11.7, 
			 "cosmo_cavitation_energy": 29.57, 
			 "cosmo_dispersion_energy": -21.34, 
			 "cosmo_repulsion_energy": 1.68, 
			 "cosmo_total_nonelectrostatic_energy": 9.91, 
			 "SMD_solvation_energy": 4.71 
		},
		"coords": [
			{
				"x": -2.0740843433,
				"y": 1.8776964823,
				"z": 2.2836321169,
				"element": "C" 
			},
			{
				"x": -1.338620357,
				"y": 1.0902591274,
				"z": 1.2308971349,
				"element": "C" 
			},
			{
				"x": -1.5854944051,
				"y": 1.2337627872,
				"z": -0.0768486974,
				"element": "C" 
			},
			{
				"x": -0.870942887,
				"y": 0.4918023226,
				"z": -1.1775654907,
				"element": "C" 
			},
			{
				"x": 0.4077038344,
				"y": -0.2288046185,
				"z": -0.6990455223,
				"element": "C" 
			},
			{
				"x": 0.1235843694,
				"y": -0.8943175949,
				"z": 0.6568667214,
				"element": "C" 
			},
			{
				"x": -0.2696538923,
				"y": 0.126086476,
				"z": 1.7225650655,
				"element": "C" 
			},
			{
				"x": -0.7052478675,
				"y": -0.6258400687,
				"z": 2.8625863994,
				"element": "O" 
			},
			{
				"x": 0.9796562883,
				"y": -1.2263340862,
				"z": -1.7575220544,
				"element": "C" 
			},
			{
				"x": 2.3204265577,
				"y": -1.817059806,
				"z": -1.3032805782,
				"element": "C" 
			},
			{
				"x": 1.1681063264,
				"y": -0.5466150482,
				"z": -3.125553623,
				"element": "C" 
			},
			{
				"x": 0.113245978,
				"y": -2.3624795577,
				"z": -1.904077889,
				"element": "O" 
			},
			{
				"x": -2.6266113476,
				"y": 1.2111720646,
				"z": 2.9562788228,
				"element": "H" 
			},
			{
				"x": -2.7866263333,
				"y": 2.5766949559,
				"z": 1.8379147518,
				"element": "H" 
			},
			{
				"x": -1.3800568193,
				"y": 2.4607340114,
				"z": 2.9064086606,
				"element": "H" 
			},
			{
				"x": -2.3561058805,
				"y": 1.9365225796,
				"z": -0.3944346377,
				"element": "H" 
			},
			{
				"x": -1.5722413653,
				"y": -0.236710555,
				"z": -1.6190877739,
				"element": "H" 
			},
			{
				"x": -0.6360995399,
				"y": 1.196353163,
				"z": -1.9847414631,
				"element": "H" 
			},
			{
				"x": 1.177968444,
				"y": 0.5431030778,
				"z": -0.5495991971,
				"element": "H" 
			},
			{
				"x": 0.9867585817,
				"y": -1.4548555682,
				"z": 1.0238593342,
				"element": "H" 
			},
			{
				"x": -0.6961165059,
				"y": -1.6127263565,
				"z": 0.5479998257,
				"element": "H" 
			},
			{
				"x": 0.6229212239,
				"y": 0.7168277711,
				"z": 2.0010207844,
				"element": "H" 
			},
			{
				"x": -0.7197188528,
				"y": -0.0345999407,
				"z": 3.6250775427,
				"element": "H" 
			},
			{
				"x": 2.2012980354,
				"y": -2.4253067771,
				"z": -0.404557238,
				"element": "H" 
			},
			{
				"x": 3.047765214,
				"y": -1.0251796259,
				"z": -1.0982731145,
				"element": "H" 
			},
			{
				"x": 2.7226717388,
				"y": -2.4631464846,
				"z": -2.0886483307,
				"element": "H" 
			},
			{
				"x": 0.2153142455,
				"y": -0.2108121264,
				"z": -3.5479595806,
				"element": "H" 
			},
			{
				"x": 1.6124333119,
				"y": -1.2555721901,
				"z": -3.8300160146,
				"element": "H" 
			},
			{
				"x": 1.8260362881,
				"y": 0.3264150813,
				"z": -3.0535192849,
				"element": "H" 
			},
			{
				"x": -0.7089700409,
				"y": -2.0610694957,
				"z": -2.3122766704,
				"element": "H" 
			}
		],
		 "valence_orbital": [ 
			{
				"type": "occ",
				"energy": -0.3127,
				"method": "rhf"
			},
			{
				"type": "occ",
				"energy": -0.29926,
				"method": "rhf"
			},
			{
				"type": "occ",
				"energy": -0.26569,
				"method": "rhf"
			},
			{
				"type": "occ",
				"energy": -0.25582,
				"method": "rhf"
			},
			{
				"type": "occ",
				"energy": -0.23354,
				"method": "rhf"
			},
			{
				"type": "unocc",
				"energy": 0.02263,
				"method": "rhf"
			},
			{
				"type": "unocc",
				"energy": 0.06764,
				"method": "rhf"
			},
			{
				"type": "unocc",
				"energy": 0.0775,
				"method": "rhf"
			},
			{
				"type": "unocc",
				"energy": 0.09849,
				"method": "rhf"
			},
			{
				"type": "unocc",
				"energy": 0.11507,
				"method": "rhf"
			}
		],
		"cosmo_sigma_profile": { 
			"-0.025": 0.0,
			"-0.024": 0.0,
			"-0.023": 0.0,
			"-0.022": 0.0,
			"-0.021": 0.0,
			"-0.02": 0.0,
			"-0.019": 0.0,
			"-0.018": 0.0,
			"-0.017": 0.0,
			"-0.016": 0.0,
			"-0.015": 0.352574433532,
			"-0.014": 1.18432654427,
			"-0.013": 1.40143090703,
			"-0.012": 2.42028611169,
			"-0.011": 2.16373156352,
			"-0.01": 1.58520671279,
			"-0.009": 2.07180613132,
			"-0.008": 2.00439712027,
			"-0.007": 2.17000004071,
			"-0.006": 3.09129406339,
			"-0.005": 3.41785393673,
			"-0.004": 9.70603443249,
			"-0.003": 31.6641100803,
			"-0.002": 29.9188873577,
			"-0.001": 28.7113086432,
			"0.0": 23.7548587549,
			"0.001": 22.7589468894,
			"0.002": 10.9433661071,
			"0.003": 6.46029349292,
			"0.004": 6.67941098582,
			"0.005": 5.06489435864,
			"0.006": 4.72173945045,
			"0.007": 3.43652488584,
			"0.008": 3.68413368117,
			"0.009": 2.41591417097,
			"0.01": 2.26657357439,
			"0.011": 2.9291631741,
			"0.012": 1.82465874902,
			"0.013": 3.18094855328,
			"0.014": 3.688594014,
			"0.015": 1.64600339712,
			"0.016": 0.0,
			"0.017": 0.0,
			"0.018": 0.0,
			"0.019": 0.0,
			"0.02": 0.0,
			"0.021": 0.0,
			"0.022": 0.0,
			"0.023": 0.0,
			"0.024": 0.0,
			"0.025": 0.0
		}
	}
}
