{
	 "smiles": "ClC1=NC(Cl)=C2C=CC=CC2=C1", 
	 "Tm": 374.15, 
	 "num_atms": 17, 
	 "gaussian": { 
		 "optdone": 1, 
		 "sigma_profile": "yes", 
		 "theory": "DFT", 
		 "functional": "B3LYP", 
		 "basiset": "6-31G**", 
		 "properties": { 
			 "R2extent": 3527.9274, 
			 "electric_dipole_moment_norm": 4.69016045035, 
			 "electric_quadrupole_moment_norm": 8.61078899463, 
			 "total_energy": -1321.11500136, 
			 "HOMO_LUMO_gap": 0.1661, 
			 "cosmo_polarized_energy": -7.35, 
			 "cosmo_cavitation_energy": 24.92, 
			 "cosmo_dispersion_energy": -19.05, 
			 "cosmo_repulsion_energy": 1.5, 
			 "cosmo_total_nonelectrostatic_energy": 7.37, 
			 "SMD_solvation_energy": 2.15 
		},
		"coords": [
			{
				"x": -1.1485238042,
				"y": 0.9347000334,
				"z": 4.3614371704,
				"element": "Cl" 
			},
			{
				"x": -1.1528621391,
				"y": 0.4922842534,
				"z": 2.6618764774,
				"element": "C" 
			},
			{
				"x": -0.9290686293,
				"y": -0.8057614593,
				"z": 2.3953715663,
				"element": "N" 
			},
			{
				"x": -0.9225971573,
				"y": -1.1835170413,
				"z": 1.1484614961,
				"element": "C" 
			},
			{
				"x": -0.6233365712,
				"y": -2.897877556,
				"z": 0.8674114995,
				"element": "Cl" 
			},
			{
				"x": -1.1360137888,
				"y": -0.3223134268,
				"z": 0.0297753772,
				"element": "C" 
			},
			{
				"x": -1.1283688334,
				"y": -0.7362591749,
				"z": -1.326526424,
				"element": "C" 
			},
			{
				"x": -1.3460452359,
				"y": 0.1796862375,
				"z": -2.3310772728,
				"element": "C" 
			},
			{
				"x": -1.5796319649,
				"y": 1.5426661552,
				"z": -2.023516394,
				"element": "C" 
			},
			{
				"x": -1.5927266783,
				"y": 1.9728149327,
				"z": -0.7167053398,
				"element": "C" 
			},
			{
				"x": -1.3718814271,
				"y": 1.0553155295,
				"z": 0.3453853088,
				"element": "C" 
			},
			{
				"x": -1.3764084958,
				"y": 1.4535330069,
				"z": 1.7063710147,
				"element": "C" 
			},
			{
				"x": -0.9494041036,
				"y": -1.7795363943,
				"z": -1.5582257773,
				"element": "H" 
			},
			{
				"x": -1.3391665206,
				"y": -0.1423802959,
				"z": -3.3676991558,
				"element": "H" 
			},
			{
				"x": -1.7494506686,
				"y": 2.2513393718,
				"z": -2.8287034616,
				"element": "H" 
			},
			{
				"x": -1.7715125047,
				"y": 3.0171038172,
				"z": -0.4774854055,
				"element": "H" 
			},
			{
				"x": -1.5515014773,
				"y": 2.4871020107,
				"z": 1.9809493205,
				"element": "H" 
			}
		],
		 "valence_orbital": [ 
			{
				"type": "occ",
				"energy": -0.31755,
				"method": "rhf"
			},
			{
				"type": "occ",
				"energy": -0.3015,
				"method": "rhf"
			},
			{
				"type": "occ",
				"energy": -0.29205,
				"method": "rhf"
			},
			{
				"type": "occ",
				"energy": -0.28004,
				"method": "rhf"
			},
			{
				"type": "occ",
				"energy": -0.23922,
				"method": "rhf"
			},
			{
				"type": "unocc",
				"energy": -0.07312,
				"method": "rhf"
			},
			{
				"type": "unocc",
				"energy": -0.04273,
				"method": "rhf"
			},
			{
				"type": "unocc",
				"energy": 0.00514,
				"method": "rhf"
			},
			{
				"type": "unocc",
				"energy": 0.01825,
				"method": "rhf"
			},
			{
				"type": "unocc",
				"energy": 0.04152,
				"method": "rhf"
			}
		],
		"cosmo_sigma_profile": { 
			"-0.025": 0.0,
			"-0.024": 0.0,
			"-0.023": 0.0,
			"-0.022": 0.0,
			"-0.021": 0.0,
			"-0.02": 0.0,
			"-0.019": 0.0,
			"-0.018": 0.0,
			"-0.017": 0.0,
			"-0.016": 0.0,
			"-0.015": 0.0,
			"-0.014": 0.0,
			"-0.013": 0.0,
			"-0.012": 0.0,
			"-0.011": 0.0,
			"-0.01": 0.0,
			"-0.009": 1.43410618951,
			"-0.008": 3.47268440479,
			"-0.007": 7.87944231462,
			"-0.006": 10.2816206539,
			"-0.005": 9.82172120691,
			"-0.004": 7.20647491223,
			"-0.003": 9.42883796231,
			"-0.002": 16.4976633568,
			"-0.001": 19.2341486693,
			"0.0": 24.5126473533,
			"0.001": 22.2195396913,
			"0.002": 20.4237591324,
			"0.003": 19.2781857085,
			"0.004": 16.6227954554,
			"0.005": 6.71639886248,
			"0.006": 2.97566296387,
			"0.007": 1.94278385956,
			"0.008": 1.53480493634,
			"0.009": 1.58237675778,
			"0.01": 0.875297454354,
			"0.011": 1.20425974242,
			"0.012": 0.775886486906,
			"0.013": 0.27915175203,
			"0.014": 0.0,
			"0.015": 0.0,
			"0.016": 0.0,
			"0.017": 0.0,
			"0.018": 0.0,
			"0.019": 0.0,
			"0.02": 0.0,
			"0.021": 0.0,
			"0.022": 0.0,
			"0.023": 0.0,
			"0.024": 0.0,
			"0.025": 0.0
		}
	}
}
