{
	 "smiles": "CC1=NON=C1N", 
	 "Tm": 330.15, 
	 "num_atms": 12, 
	 "gaussian": { 
		 "optdone": 1, 
		 "sigma_profile": "yes", 
		 "theory": "DFT", 
		 "functional": "B3LYP", 
		 "basiset": "6-31G**", 
		 "properties": { 
			 "R2extent": 1560.7352, 
			 "electric_dipole_moment_norm": 4.79831540647, 
			 "electric_quadrupole_moment_norm": 14.1354657451, 
			 "total_energy": -356.729480453, 
			 "HOMO_LUMO_gap": 0.21957, 
			 "cosmo_polarized_energy": -13.48, 
			 "cosmo_cavitation_energy": 16.49, 
			 "cosmo_dispersion_energy": -12.39, 
			 "cosmo_repulsion_energy": 1.07, 
			 "cosmo_total_nonelectrostatic_energy": 5.16, 
			 "SMD_solvation_energy": 2.64 
		},
		"coords": [
			{
				"x": 1.7675254424,
				"y": 1.8132232532,
				"z": -0.6181613486,
				"element": "C" 
			},
			{
				"x": 2.2470076494,
				"y": 0.7257252139,
				"z": 0.2861068777,
				"element": "C" 
			},
			{
				"x": 3.3557854617,
				"y": 0.8012974242,
				"z": 0.9726861955,
				"element": "N" 
			},
			{
				"x": 3.4663253842,
				"y": -0.3762516773,
				"z": 1.661708296,
				"element": "O" 
			},
			{
				"x": 2.3874431752,
				"y": -1.209820514,
				"z": 1.410066132,
				"element": "N" 
			},
			{
				"x": 1.6391227986,
				"y": -0.5480660538,
				"z": 0.5622662177,
				"element": "C" 
			},
			{
				"x": 0.4934236893,
				"y": -1.0640057318,
				"z": -0.0149699875,
				"element": "N" 
			},
			{
				"x": 2.4890103892,
				"y": 2.6318621815,
				"z": -0.6329110207,
				"element": "H" 
			},
			{
				"x": 0.8023835275,
				"y": 2.2135558821,
				"z": -0.2855044183,
				"element": "H" 
			},
			{
				"x": 1.6372209715,
				"y": 1.440397999,
				"z": -1.6398865349,
				"element": "H" 
			},
			{
				"x": -0.2494675024,
				"y": -0.3923988725,
				"z": -0.1557542202,
				"element": "H" 
			},
			{
				"x": 0.1630190133,
				"y": -1.9098191046,
				"z": 0.4321538114,
				"element": "H" 
			}
		],
		 "valence_orbital": [ 
			{
				"type": "occ",
				"energy": -0.36423,
				"method": "rhf"
			},
			{
				"type": "occ",
				"energy": -0.33115,
				"method": "rhf"
			},
			{
				"type": "occ",
				"energy": -0.30242,
				"method": "rhf"
			},
			{
				"type": "occ",
				"energy": -0.29402,
				"method": "rhf"
			},
			{
				"type": "occ",
				"energy": -0.24636,
				"method": "rhf"
			},
			{
				"type": "unocc",
				"energy": -0.02679,
				"method": "rhf"
			},
			{
				"type": "unocc",
				"energy": 0.04656,
				"method": "rhf"
			},
			{
				"type": "unocc",
				"energy": 0.06328,
				"method": "rhf"
			},
			{
				"type": "unocc",
				"energy": 0.10601,
				"method": "rhf"
			},
			{
				"type": "unocc",
				"energy": 0.11567,
				"method": "rhf"
			}
		],
		"cosmo_sigma_profile": { 
			"-0.025": 0.0,
			"-0.024": 0.0,
			"-0.023": 0.0,
			"-0.022": 0.0,
			"-0.021": 0.0,
			"-0.02": 0.0,
			"-0.019": 0.0,
			"-0.018": 0.0,
			"-0.017": 0.0,
			"-0.016": 0.0,
			"-0.015": 0.02323165176,
			"-0.014": 1.56804191452,
			"-0.013": 2.91106659766,
			"-0.012": 3.5182191178,
			"-0.011": 2.99852952664,
			"-0.01": 2.42624189977,
			"-0.009": 2.5298333342,
			"-0.008": 2.49723270733,
			"-0.007": 3.13223804042,
			"-0.006": 5.99780262122,
			"-0.005": 7.48311812263,
			"-0.004": 7.91600228657,
			"-0.003": 8.55476008981,
			"-0.002": 10.6743178333,
			"-0.001": 7.86656736236,
			"0.0": 3.98666112891,
			"0.001": 3.03679100087,
			"0.002": 4.71908667651,
			"0.003": 3.34874652632,
			"0.004": 3.952842099,
			"0.005": 3.8049461832,
			"0.006": 6.35607075608,
			"0.007": 10.4825027366,
			"0.008": 5.57213706474,
			"0.009": 4.3135407517,
			"0.01": 3.12731272124,
			"0.011": 3.3655725344,
			"0.012": 2.66887583865,
			"0.013": 1.94775591203,
			"0.014": 0.159636655783,
			"0.015": 0.0,
			"0.016": 0.0,
			"0.017": 0.0,
			"0.018": 0.0,
			"0.019": 0.0,
			"0.02": 0.0,
			"0.021": 0.0,
			"0.022": 0.0,
			"0.023": 0.0,
			"0.024": 0.0,
			"0.025": 0.0
		}
	}
}
