{
	 "smiles": "CC(=O)C1=CC=C2CCCCC2=C1", 
	 "Tm": 428.15, 
	 "num_atms": 27, 
	 "gaussian": { 
		 "optdone": 1, 
		 "sigma_profile": "yes", 
		 "theory": "DFT", 
		 "functional": "B3LYP", 
		 "basiset": "6-31G**", 
		 "properties": { 
			 "R2extent": 3379.2582, 
			 "electric_dipole_moment_norm": 3.34714243796, 
			 "electric_quadrupole_moment_norm": 13.917654455, 
			 "total_energy": -540.960548598, 
			 "HOMO_LUMO_gap": 0.19338, 
			 "cosmo_polarized_energy": -8.03, 
			 "cosmo_cavitation_energy": 28.77, 
			 "cosmo_dispersion_energy": -21.24, 
			 "cosmo_repulsion_energy": 1.68, 
			 "cosmo_total_nonelectrostatic_energy": 9.21, 
			 "SMD_solvation_energy": 4.75 
		},
		"coords": [
			{
				"x": 1.8081653945,
				"y": 3.5663005073,
				"z": 2.4809041432,
				"element": "C" 
			},
			{
				"x": 1.7721300321,
				"y": 2.0578164137,
				"z": 2.290290395,
				"element": "C" 
			},
			{
				"x": 2.1269937095,
				"y": 1.3135276629,
				"z": 3.1933941423,
				"element": "O" 
			},
			{
				"x": 1.2963871997,
				"y": 1.5052607624,
				"z": 0.9826909558,
				"element": "C" 
			},
			{
				"x": 0.8853037729,
				"y": 2.3190258158,
				"z": -0.0829235525,
				"element": "C" 
			},
			{
				"x": 0.4574637729,
				"y": 1.7459797391,
				"z": -1.2803584461,
				"element": "C" 
			},
			{
				"x": 0.4237733787,
				"y": 0.3577759891,
				"z": -1.4317876596,
				"element": "C" 
			},
			{
				"x": -0.0249334067,
				"y": -0.332218732,
				"z": -2.6949513676,
				"element": "C" 
			},
			{
				"x": 0.9837934049,
				"y": -1.4235501425,
				"z": -3.1266434143,
				"element": "C" 
			},
			{
				"x": 1.4463339336,
				"y": -2.3308308326,
				"z": -1.9489451762,
				"element": "C" 
			},
			{
				"x": 0.7871734947,
				"y": -1.9589136342,
				"z": -0.6002123406,
				"element": "C" 
			},
			{
				"x": 0.8352510796,
				"y": -0.4687707897,
				"z": -0.3651362566,
				"element": "C" 
			},
			{
				"x": 1.2691973219,
				"y": 0.109734934,
				"z": 0.8230714179,
				"element": "C" 
			},
			{
				"x": 0.8112638855,
				"y": 4.0032294818,
				"z": 2.3561467767,
				"element": "H" 
			},
			{
				"x": 2.46640925,
				"y": 4.0405025739,
				"z": 1.7445598249,
				"element": "H" 
			},
			{
				"x": 2.1746031754,
				"y": 3.7814443209,
				"z": 3.4850269521,
				"element": "H" 
			},
			{
				"x": 0.9009109916,
				"y": 3.3999886643,
				"z": 0.0123421376,
				"element": "H" 
			},
			{
				"x": 0.1465476573,
				"y": 2.3833490635,
				"z": -2.1045694907,
				"element": "H" 
			},
			{
				"x": -0.1757833461,
				"y": 0.3898517613,
				"z": -3.5041864799,
				"element": "H" 
			},
			{
				"x": -1.0022839668,
				"y": -0.8039643288,
				"z": -2.5149388502,
				"element": "H" 
			},
			{
				"x": 1.8553756888,
				"y": -0.929751384,
				"z": -3.5690483158,
				"element": "H" 
			},
			{
				"x": 0.5341610703,
				"y": -2.0264008118,
				"z": -3.9227171845,
				"element": "H" 
			},
			{
				"x": 1.2377916977,
				"y": -3.3827508312,
				"z": -2.1709524173,
				"element": "H" 
			},
			{
				"x": 2.5322175337,
				"y": -2.2493111208,
				"z": -1.8333462276,
				"element": "H" 
			},
			{
				"x": -0.2621832768,
				"y": -2.2886249075,
				"z": -0.61315754,
				"element": "H" 
			},
			{
				"x": 1.269489496,
				"y": -2.4978278146,
				"z": 0.2214232524,
				"element": "H" 
			},
			{
				"x": 1.5974470552,
				"y": -0.5043723605,
				"z": 1.6564247214,
				"element": "H" 
			}
		],
		 "valence_orbital": [ 
			{
				"type": "occ",
				"energy": -0.31887,
				"method": "rhf"
			},
			{
				"type": "occ",
				"energy": -0.31145,
				"method": "rhf"
			},
			{
				"type": "occ",
				"energy": -0.24767,
				"method": "rhf"
			},
			{
				"type": "occ",
				"energy": -0.24226,
				"method": "rhf"
			},
			{
				"type": "occ",
				"energy": -0.24086,
				"method": "rhf"
			},
			{
				"type": "unocc",
				"energy": -0.04748,
				"method": "rhf"
			},
			{
				"type": "unocc",
				"energy": -0.00224,
				"method": "rhf"
			},
			{
				"type": "unocc",
				"energy": 0.04523,
				"method": "rhf"
			},
			{
				"type": "unocc",
				"energy": 0.08246,
				"method": "rhf"
			},
			{
				"type": "unocc",
				"energy": 0.09825,
				"method": "rhf"
			}
		],
		"cosmo_sigma_profile": { 
			"-0.025": 0.0,
			"-0.024": 0.0,
			"-0.023": 0.0,
			"-0.022": 0.0,
			"-0.021": 0.0,
			"-0.02": 0.0,
			"-0.019": 0.0,
			"-0.018": 0.0,
			"-0.017": 0.0,
			"-0.016": 0.0,
			"-0.015": 0.0,
			"-0.014": 0.0,
			"-0.013": 0.0,
			"-0.012": 0.0,
			"-0.011": 0.0,
			"-0.01": 0.0,
			"-0.009": 0.0,
			"-0.008": 0.0,
			"-0.007": 0.112021566773,
			"-0.006": 6.05909506571,
			"-0.005": 12.039004685,
			"-0.004": 18.6409168565,
			"-0.003": 25.4615101372,
			"-0.002": 31.0606125143,
			"-0.001": 32.7576125795,
			"0.0": 25.5540094175,
			"0.001": 16.8877043736,
			"0.002": 9.06480432811,
			"0.003": 10.3247586246,
			"0.004": 9.96003977187,
			"0.005": 9.06965731151,
			"0.006": 2.43054294838,
			"0.007": 1.58490730906,
			"0.008": 1.91998194552,
			"0.009": 1.22145658665,
			"0.01": 1.97024157269,
			"0.011": 2.5900238838,
			"0.012": 4.1089928921,
			"0.013": 2.64739501969,
			"0.014": 0.533181392062,
			"0.015": 0.0,
			"0.016": 0.0,
			"0.017": 0.0,
			"0.018": 0.0,
			"0.019": 0.0,
			"0.02": 0.0,
			"0.021": 0.0,
			"0.022": 0.0,
			"0.023": 0.0,
			"0.024": 0.0,
			"0.025": 0.0
		}
	}
}
