{
	 "smiles": "O=CC1=CN2N=CC(C#N)=C2N=C1", 
	 "Tm": 496.15, 
	 "num_atms": 17, 
	 "gaussian": { 
		 "optdone": 1, 
		 "sigma_profile": "yes", 
		 "theory": "DFT", 
		 "functional": "B3LYP", 
		 "basiset": "6-31G**", 
		 "properties": { 
			 "R2extent": 2579.4241, 
			 "electric_dipole_moment_norm": 5.31531643743, 
			 "electric_quadrupole_moment_norm": 12.2150380986, 
			 "total_energy": -601.426368432, 
			 "HOMO_LUMO_gap": 0.158, 
			 "cosmo_polarized_energy": -18.12, 
			 "cosmo_cavitation_energy": 24.33, 
			 "cosmo_dispersion_energy": -17.22, 
			 "cosmo_repulsion_energy": 1.33, 
			 "cosmo_total_nonelectrostatic_energy": 8.45, 
			 "SMD_solvation_energy": 4.75 
		},
		"coords": [
			{
				"x": 1.0686043233,
				"y": 1.7829547188,
				"z": 3.8475812388,
				"element": "O" 
			},
			{
				"x": 1.4649811798,
				"y": 1.9364262399,
				"z": 2.7101028534,
				"element": "C" 
			},
			{
				"x": 1.0306745271,
				"y": 1.0997959869,
				"z": 1.5716875693,
				"element": "C" 
			},
			{
				"x": 1.5227881324,
				"y": 1.3316080394,
				"z": 0.3079021051,
				"element": "C" 
			},
			{
				"x": 1.0895221465,
				"y": 0.5342928479,
				"z": -0.6943593849,
				"element": "N" 
			},
			{
				"x": 1.4693581878,
				"y": 0.6216772457,
				"z": -1.9958320322,
				"element": "N" 
			},
			{
				"x": 0.7905206614,
				"y": -0.354468982,
				"z": -2.5925651367,
				"element": "C" 
			},
			{
				"x": -0.0366326935,
				"y": -1.0913340139,
				"z": -1.7065509683,
				"element": "C" 
			},
			{
				"x": -0.8812604943,
				"y": -2.1845298283,
				"z": -2.0161074453,
				"element": "C" 
			},
			{
				"x": -1.5681601056,
				"y": -3.0813529562,
				"z": -2.2954518052,
				"element": "N" 
			},
			{
				"x": 0.1662608257,
				"y": -0.4983538203,
				"z": -0.4545798637,
				"element": "C" 
			},
			{
				"x": -0.3287348438,
				"y": -0.7430654317,
				"z": 0.7751447734,
				"element": "N" 
			},
			{
				"x": 0.0919413363,
				"y": 0.0315709921,
				"z": 1.7501709336,
				"element": "C" 
			},
			{
				"x": 2.1950022162,
				"y": 2.7342504483,
				"z": 2.4525606043,
				"element": "H" 
			},
			{
				"x": 2.2349898471,
				"y": 2.1050847381,
				"z": 0.0404210772,
				"element": "H" 
			},
			{
				"x": 0.9070257389,
				"y": -0.5140062658,
				"z": -3.6559395173,
				"element": "H" 
			},
			{
				"x": -0.2971809853,
				"y": -0.1519499588,
				"z": 2.7483149985,
				"element": "H" 
			}
		],
		 "valence_orbital": [ 
			{
				"type": "occ",
				"energy": -0.33403,
				"method": "rhf"
			},
			{
				"type": "occ",
				"energy": -0.30783,
				"method": "rhf"
			},
			{
				"type": "occ",
				"energy": -0.30242,
				"method": "rhf"
			},
			{
				"type": "occ",
				"energy": -0.28505,
				"method": "rhf"
			},
			{
				"type": "occ",
				"energy": -0.2594,
				"method": "rhf"
			},
			{
				"type": "unocc",
				"energy": -0.1014,
				"method": "rhf"
			},
			{
				"type": "unocc",
				"energy": -0.08586,
				"method": "rhf"
			},
			{
				"type": "unocc",
				"energy": -0.01418,
				"method": "rhf"
			},
			{
				"type": "unocc",
				"energy": -0.00806,
				"method": "rhf"
			},
			{
				"type": "unocc",
				"energy": 0.02156,
				"method": "rhf"
			}
		],
		"cosmo_sigma_profile": { 
			"-0.025": 0.0,
			"-0.024": 0.0,
			"-0.023": 0.0,
			"-0.022": 0.0,
			"-0.021": 0.0,
			"-0.02": 0.0,
			"-0.019": 0.0,
			"-0.018": 0.0,
			"-0.017": 0.0,
			"-0.016": 0.0,
			"-0.015": 0.0,
			"-0.014": 0.0,
			"-0.013": 1.28654864374,
			"-0.012": 3.32514235248,
			"-0.011": 2.63249125721,
			"-0.01": 4.63000271646,
			"-0.009": 4.91668957652,
			"-0.008": 8.31983556428,
			"-0.007": 8.88845138465,
			"-0.006": 11.092856605,
			"-0.005": 11.9980194828,
			"-0.004": 14.6254749141,
			"-0.003": 10.8523584534,
			"-0.002": 12.3122346852,
			"-0.001": 13.7303387534,
			"0.0": 6.76607501741,
			"0.001": 7.20438187258,
			"0.002": 7.08253144367,
			"0.003": 5.77976039021,
			"0.004": 6.76614881884,
			"0.005": 6.39332369639,
			"0.006": 5.93844935547,
			"0.007": 6.83383131349,
			"0.008": 7.55207326957,
			"0.009": 7.76379399618,
			"0.01": 8.63622597314,
			"0.011": 7.20198298008,
			"0.012": 4.92522401981,
			"0.013": 1.63590980768,
			"0.014": 0.0159744363466,
			"0.015": 0.0,
			"0.016": 0.0,
			"0.017": 0.0,
			"0.018": 0.0,
			"0.019": 0.0,
			"0.02": 0.0,
			"0.021": 0.0,
			"0.022": 0.0,
			"0.023": 0.0,
			"0.024": 0.0,
			"0.025": 0.0
		}
	}
}
