{
	 "smiles": "FC1=C(Br)C=CC(CBr)=C1", 
	 "Tm": 312.15, 
	 "num_atms": 15, 
	 "gaussian": { 
		 "optdone": 1, 
		 "sigma_profile": "yes", 
		 "theory": "DFT", 
		 "functional": "B3LYP", 
		 "basiset": "6-31G**", 
		 "properties": { 
			 "R2extent": 5567.4956, 
			 "electric_dipole_moment_norm": 2.24118403305, 
			 "electric_quadrupole_moment_norm": 9.37301201002, 
			 "total_energy": -5512.40217845, 
			 "HOMO_LUMO_gap": 0.19589, 
			 "cosmo_polarized_energy": -6.81, 
			 "cosmo_cavitation_energy": 24.52, 
			 "cosmo_dispersion_energy": -18.51, 
			 "cosmo_repulsion_energy": 1.49, 
			 "cosmo_total_nonelectrostatic_energy": 7.51, 
			 "SMD_solvation_energy": 2.3 
		},
		"coords": [
			{
				"x": -3.8509205358,
				"y": 0.1815097921,
				"z": 1.7029786027,
				"element": "F" 
			},
			{
				"x": -2.5672229051,
				"y": 0.21845731,
				"z": 1.3164841952,
				"element": "C" 
			},
			{
				"x": -2.2482517568,
				"y": 0.4977313611,
				"z": -0.0129356183,
				"element": "C" 
			},
			{
				"x": -3.6336612694,
				"y": 0.8233774568,
				"z": -1.2679211425,
				"element": "Br" 
			},
			{
				"x": -0.9084045374,
				"y": 0.5360547056,
				"z": -0.3979920976,
				"element": "C" 
			},
			{
				"x": 0.0932399893,
				"y": 0.2979141054,
				"z": 0.5406556628,
				"element": "C" 
			},
			{
				"x": -0.2272203694,
				"y": 0.0197146993,
				"z": 1.8763530737,
				"element": "C" 
			},
			{
				"x": 0.8482526502,
				"y": -0.2223640282,
				"z": 2.8851277585,
				"element": "C" 
			},
			{
				"x": 1.3200038808,
				"y": -2.1644185218,
				"z": 3.0339716919,
				"element": "Br" 
			},
			{
				"x": -1.5741267343,
				"y": -0.0193996557,
				"z": 2.2568287071,
				"element": "C" 
			},
			{
				"x": -0.6581461468,
				"y": 0.7540636648,
				"z": -1.4299401617,
				"element": "H" 
			},
			{
				"x": 1.1332415416,
				"y": 0.3254750172,
				"z": 0.2295930185,
				"element": "H" 
			},
			{
				"x": 1.7851844896,
				"y": 0.264240883,
				"z": 2.6212192981,
				"element": "H" 
			},
			{
				"x": 0.5516507461,
				"y": 0.0612119387,
				"z": 3.893087956,
				"element": "H" 
			},
			{
				"x": -1.8681190426,
				"y": -0.2381687281,
				"z": 3.2783890559,
				"element": "H" 
			}
		],
		 "valence_orbital": [ 
			{
				"type": "occ",
				"energy": -0.2968,
				"method": "rhf"
			},
			{
				"type": "occ",
				"energy": -0.28067,
				"method": "rhf"
			},
			{
				"type": "occ",
				"energy": -0.27916,
				"method": "rhf"
			},
			{
				"type": "occ",
				"energy": -0.26898,
				"method": "rhf"
			},
			{
				"type": "occ",
				"energy": -0.24933,
				"method": "rhf"
			},
			{
				"type": "unocc",
				"energy": -0.05344,
				"method": "rhf"
			},
			{
				"type": "unocc",
				"energy": -0.02275,
				"method": "rhf"
			},
			{
				"type": "unocc",
				"energy": -0.00556,
				"method": "rhf"
			},
			{
				"type": "unocc",
				"energy": 0.01618,
				"method": "rhf"
			},
			{
				"type": "unocc",
				"energy": 0.09048,
				"method": "rhf"
			}
		],
		"cosmo_sigma_profile": { 
			"-0.025": 0.0,
			"-0.024": 0.0,
			"-0.023": 0.0,
			"-0.022": 0.0,
			"-0.021": 0.0,
			"-0.02": 0.0,
			"-0.019": 0.0,
			"-0.018": 0.0,
			"-0.017": 0.0,
			"-0.016": 0.0,
			"-0.015": 0.0,
			"-0.014": 0.0,
			"-0.013": 0.0,
			"-0.012": 0.0,
			"-0.011": 0.0,
			"-0.01": 0.0,
			"-0.009": 1.24551257269,
			"-0.008": 9.30113273496,
			"-0.007": 9.93126787934,
			"-0.006": 8.9711590462,
			"-0.005": 9.22605878495,
			"-0.004": 9.06817119307,
			"-0.003": 8.60289554797,
			"-0.002": 8.41977040574,
			"-0.001": 15.3994004343,
			"0.0": 15.8623502142,
			"0.001": 20.9783057201,
			"0.002": 18.0268693782,
			"0.003": 22.3463640406,
			"0.004": 22.2948597022,
			"0.005": 10.1223148487,
			"0.006": 11.8137064544,
			"0.007": 1.82080288533,
			"0.008": 0.0,
			"0.009": 0.0,
			"0.01": 0.0,
			"0.011": 0.0,
			"0.012": 0.0,
			"0.013": 0.0,
			"0.014": 0.0,
			"0.015": 0.0,
			"0.016": 0.0,
			"0.017": 0.0,
			"0.018": 0.0,
			"0.019": 0.0,
			"0.02": 0.0,
			"0.021": 0.0,
			"0.022": 0.0,
			"0.023": 0.0,
			"0.024": 0.0,
			"0.025": 0.0
		}
	}
}
