{
	 "smiles": "NC1CCN(CC1)C1=CC=C(C=C1)C#N", 
	 "Tm": 358.15, 
	 "num_atms": 30, 
	 "gaussian": { 
		 "optdone": 1, 
		 "sigma_profile": "yes", 
		 "theory": "DFT", 
		 "functional": "B3LYP", 
		 "basiset": "6-31G**", 
		 "properties": { 
			 "R2extent": 5209.2252, 
			 "electric_dipole_moment_norm": 7.72894585632, 
			 "electric_quadrupole_moment_norm": 37.1787480156, 
			 "total_energy": -630.55068927, 
			 "HOMO_LUMO_gap": 0.17726, 
			 "cosmo_polarized_energy": -16.02, 
			 "cosmo_cavitation_energy": 32.45, 
			 "cosmo_dispersion_energy": -23.24, 
			 "cosmo_repulsion_energy": 1.81, 
			 "cosmo_total_nonelectrostatic_energy": 11.01, 
			 "SMD_solvation_energy": 4.66 
		},
		"coords": [
			{
				"x": -2.1911669162,
				"y": -3.2797890047,
				"z": -1.3144353812,
				"element": "N" 
			},
			{
				"x": -1.6888747192,
				"y": -1.9481394011,
				"z": -0.9675597559,
				"element": "C" 
			},
			{
				"x": -0.4754774432,
				"y": -1.4517488054,
				"z": -1.8047592675,
				"element": "C" 
			},
			{
				"x": -0.466621315,
				"y": 0.0839320361,
				"z": -1.9398012318,
				"element": "C" 
			},
			{
				"x": -0.9763994666,
				"y": 0.7204030445,
				"z": -0.7263163609,
				"element": "N" 
			},
			{
				"x": -2.3812424167,
				"y": 0.4235324176,
				"z": -0.4297427549,
				"element": "C" 
			},
			{
				"x": -2.8152473064,
				"y": -0.9123658768,
				"z": -1.0577001855,
				"element": "C" 
			},
			{
				"x": -0.3343081161,
				"y": 1.7599418465,
				"z": -0.0801417898,
				"element": "C" 
			},
			{
				"x": -1.041083626,
				"y": 2.6113044104,
				"z": 0.8063906195,
				"element": "C" 
			},
			{
				"x": -0.4005789309,
				"y": 3.6368830282,
				"z": 1.4861422498,
				"element": "C" 
			},
			{
				"x": 0.9731996709,
				"y": 3.8713765374,
				"z": 1.3143702085,
				"element": "C" 
			},
			{
				"x": 1.6864183837,
				"y": 3.0330378182,
				"z": 0.4373519816,
				"element": "C" 
			},
			{
				"x": 1.0538272743,
				"y": 2.005002917,
				"z": -0.2398391419,
				"element": "C" 
			},
			{
				"x": 1.6306726771,
				"y": 4.9310605153,
				"z": 2.0117493118,
				"element": "C" 
			},
			{
				"x": 2.167702416,
				"y": 5.7947565072,
				"z": 2.5795565529,
				"element": "N" 
			},
			{
				"x": -2.4407455627,
				"y": -3.3065810174,
				"z": -2.3020862226,
				"element": "H" 
			},
			{
				"x": -1.4545396266,
				"y": -3.9714765196,
				"z": -1.1920724414,
				"element": "H" 
			},
			{
				"x": -1.3792299165,
				"y": -2.0000894581,
				"z": 0.0843116632,
				"element": "H" 
			},
			{
				"x": 0.4582256766,
				"y": -1.802098594,
				"z": -1.3498314582,
				"element": "H" 
			},
			{
				"x": -0.525653518,
				"y": -1.8899827253,
				"z": -2.8101451257,
				"element": "H" 
			},
			{
				"x": -1.0955237592,
				"y": 0.3851351643,
				"z": -2.7917079093,
				"element": "H" 
			},
			{
				"x": 0.5327723202,
				"y": 0.4510932157,
				"z": -2.1641901596,
				"element": "H" 
			},
			{
				"x": -2.4914717679,
				"y": 0.3552315143,
				"z": 0.6591177941,
				"element": "H" 
			},
			{
				"x": -3.0448092562,
				"y": 1.2348901904,
				"z": -0.7712843285,
				"element": "H" 
			},
			{
				"x": -3.1018789876,
				"y": -0.7719452679,
				"z": -2.1087391877,
				"element": "H" 
			},
			{
				"x": -3.7027699246,
				"y": -1.2836548104,
				"z": -0.5381300589,
				"element": "H" 
			},
			{
				"x": -2.1055302138,
				"y": 2.4837169456,
				"z": 0.9539909552,
				"element": "H" 
			},
			{
				"x": -0.9719393224,
				"y": 4.2745313895,
				"z": 2.1531697204,
				"element": "H" 
			},
			{
				"x": 2.7512644448,
				"y": 3.1897237651,
				"z": 0.2979290411,
				"element": "H" 
			},
			{
				"x": 1.6543092483,
				"y": 1.3692182175,
				"z": -0.8788973369,
				"element": "H" 
			}
		],
		 "valence_orbital": [ 
			{
				"type": "occ",
				"energy": -0.31152,
				"method": "rhf"
			},
			{
				"type": "occ",
				"energy": -0.28306,
				"method": "rhf"
			},
			{
				"type": "occ",
				"energy": -0.26396,
				"method": "rhf"
			},
			{
				"type": "occ",
				"energy": -0.24576,
				"method": "rhf"
			},
			{
				"type": "occ",
				"energy": -0.20317,
				"method": "rhf"
			},
			{
				"type": "unocc",
				"energy": -0.02591,
				"method": "rhf"
			},
			{
				"type": "unocc",
				"energy": -0.01173,
				"method": "rhf"
			},
			{
				"type": "unocc",
				"energy": 0.05232,
				"method": "rhf"
			},
			{
				"type": "unocc",
				"energy": 0.06261,
				"method": "rhf"
			},
			{
				"type": "unocc",
				"energy": 0.07496,
				"method": "rhf"
			}
		],
		"cosmo_sigma_profile": { 
			"-0.025": 0.0,
			"-0.024": 0.0,
			"-0.023": 0.0,
			"-0.022": 0.0,
			"-0.021": 0.0,
			"-0.02": 0.0,
			"-0.019": 0.0,
			"-0.018": 0.0,
			"-0.017": 0.0,
			"-0.016": 0.0,
			"-0.015": 0.0,
			"-0.014": 0.0,
			"-0.013": 0.0,
			"-0.012": 0.0,
			"-0.011": 0.0,
			"-0.01": 0.242339208287,
			"-0.009": 2.68907599915,
			"-0.008": 3.76930255366,
			"-0.007": 8.31640446011,
			"-0.006": 12.3793079558,
			"-0.005": 16.0870074989,
			"-0.004": 24.9481002712,
			"-0.003": 32.183798641,
			"-0.002": 27.6750791541,
			"-0.001": 17.1765679977,
			"0.0": 15.7205660379,
			"0.001": 13.7451830385,
			"0.002": 10.8307136441,
			"0.003": 12.7555834121,
			"0.004": 16.0770360766,
			"0.005": 6.63175897631,
			"0.006": 3.03611744631,
			"0.007": 3.21373153789,
			"0.008": 3.12763974878,
			"0.009": 4.28511026235,
			"0.01": 4.92578465554,
			"0.011": 3.95103145154,
			"0.012": 3.84735929078,
			"0.013": 2.84895631978,
			"0.014": 2.41784355565,
			"0.015": 0.59401796501,
			"0.016": 0.170272165832,
			"0.017": 0.460490797978,
			"0.018": 1.13634883631,
			"0.019": 0.332196074631,
			"0.02": 0.235855469336,
			"0.021": 0.0,
			"0.022": 0.0,
			"0.023": 0.0,
			"0.024": 0.0,
			"0.025": 0.0
		}
	}
}
