{
	 "smiles": "NC(=O)NCC1CC1", 
	 "Tm": 391.15, 
	 "num_atms": 18, 
	 "gaussian": { 
		 "optdone": 1, 
		 "sigma_profile": "yes", 
		 "theory": "DFT", 
		 "functional": "B3LYP", 
		 "basiset": "6-31G**", 
		 "properties": { 
			 "R2extent": 1386.4168, 
			 "electric_dipole_moment_norm": 4.12528859233, 
			 "electric_quadrupole_moment_norm": 16.7463716369, 
			 "total_energy": -381.278431145, 
			 "HOMO_LUMO_gap": 0.2925, 
			 "cosmo_polarized_energy": -14.71, 
			 "cosmo_cavitation_energy": 21.38, 
			 "cosmo_dispersion_energy": -15.55, 
			 "cosmo_repulsion_energy": 1.33, 
			 "cosmo_total_nonelectrostatic_energy": 7.16, 
			 "SMD_solvation_energy": 3.74 
		},
		"coords": [
			{
				"x": -1.8555155643,
				"y": 1.082883906,
				"z": -1.54542275,
				"element": "N" 
			},
			{
				"x": -2.199742083,
				"y": 0.5601906989,
				"z": -0.2993066443,
				"element": "C" 
			},
			{
				"x": -3.3558468644,
				"y": 0.5493960645,
				"z": 0.1056920134,
				"element": "O" 
			},
			{
				"x": -1.1525664573,
				"y": 0.1060429951,
				"z": 0.4687666795,
				"element": "N" 
			},
			{
				"x": 0.269256122,
				"y": 0.1576505926,
				"z": 0.1688536309,
				"element": "C" 
			},
			{
				"x": 0.8357185199,
				"y": -1.1314892514,
				"z": -0.4020534672,
				"element": "C" 
			},
			{
				"x": 2.3080155329,
				"y": -1.4288754118,
				"z": -0.2598746271,
				"element": "C" 
			},
			{
				"x": 1.2961694108,
				"y": -2.2302010617,
				"z": 0.5240081477,
				"element": "C" 
			},
			{
				"x": -2.6763409883,
				"y": 1.2464816933,
				"z": -2.1111429984,
				"element": "H" 
			},
			{
				"x": -1.089271952,
				"y": 0.6596810913,
				"z": -2.0496856445,
				"element": "H" 
			},
			{
				"x": -1.4546672578,
				"y": -0.2958161757,
				"z": 1.343322505,
				"element": "H" 
			},
			{
				"x": 0.4428662603,
				"y": 0.9939230609,
				"z": -0.5172335884,
				"element": "H" 
			},
			{
				"x": 0.8101458143,
				"y": 0.4083420252,
				"z": 1.0906264338,
				"element": "H" 
			},
			{
				"x": 0.3637084572,
				"y": -1.4575014994,
				"z": -1.3279001889,
				"element": "H" 
			},
			{
				"x": 2.8210027303,
				"y": -1.9088492412,
				"z": -1.0874944392,
				"element": "H" 
			},
			{
				"x": 2.9205006108,
				"y": -0.714007596,
				"z": 0.2835882566,
				"element": "H" 
			},
			{
				"x": 1.2305637893,
				"y": -2.0538688187,
				"z": 1.5948153747,
				"element": "H" 
			},
			{
				"x": 1.1153039192,
				"y": -3.2606830721,
				"z": 0.2346413065,
				"element": "H" 
			}
		],
		 "valence_orbital": [ 
			{
				"type": "occ",
				"energy": -0.30603,
				"method": "rhf"
			},
			{
				"type": "occ",
				"energy": -0.29662,
				"method": "rhf"
			},
			{
				"type": "occ",
				"energy": -0.26683,
				"method": "rhf"
			},
			{
				"type": "occ",
				"energy": -0.24373,
				"method": "rhf"
			},
			{
				"type": "occ",
				"energy": -0.23809,
				"method": "rhf"
			},
			{
				"type": "unocc",
				"energy": 0.05441,
				"method": "rhf"
			},
			{
				"type": "unocc",
				"energy": 0.07773,
				"method": "rhf"
			},
			{
				"type": "unocc",
				"energy": 0.08607,
				"method": "rhf"
			},
			{
				"type": "unocc",
				"energy": 0.10167,
				"method": "rhf"
			},
			{
				"type": "unocc",
				"energy": 0.11865,
				"method": "rhf"
			}
		],
		"cosmo_sigma_profile": { 
			"-0.025": 0.0,
			"-0.024": 0.0,
			"-0.023": 0.0,
			"-0.022": 0.0,
			"-0.021": 0.0,
			"-0.02": 0.0,
			"-0.019": 0.0,
			"-0.018": 0.0,
			"-0.017": 0.0,
			"-0.016": 0.0,
			"-0.015": 0.0,
			"-0.014": 0.00812594169333,
			"-0.013": 1.14659841392,
			"-0.012": 3.17216276082,
			"-0.011": 3.23724829786,
			"-0.01": 3.90904560418,
			"-0.009": 4.05253405766,
			"-0.008": 3.25608488331,
			"-0.007": 2.90137117928,
			"-0.006": 4.40068561795,
			"-0.005": 11.2922674474,
			"-0.004": 14.7850671104,
			"-0.003": 12.5496886913,
			"-0.002": 13.6250291065,
			"-0.001": 12.4131340721,
			"0.0": 9.64513795695,
			"0.001": 9.03489266214,
			"0.002": 7.46418751968,
			"0.003": 8.29559663294,
			"0.004": 7.98508654511,
			"0.005": 6.39661119751,
			"0.006": 2.916913029,
			"0.007": 1.9687967294,
			"0.008": 1.36519537368,
			"0.009": 1.64047406905,
			"0.01": 3.0721158846,
			"0.011": 1.46932940186,
			"0.012": 1.47304812071,
			"0.013": 1.87754942249,
			"0.014": 3.46941073456,
			"0.015": 6.83318716791,
			"0.016": 1.17915100896,
			"0.017": 0.0,
			"0.018": 0.0,
			"0.019": 0.0,
			"0.02": 0.0,
			"0.021": 0.0,
			"0.022": 0.0,
			"0.023": 0.0,
			"0.024": 0.0,
			"0.025": 0.0
		}
	}
}
