{
	 "smiles": "CN(C)CCCO", 
	 "Tm": 238.15, 
	 "num_atms": 20, 
	 "gaussian": { 
		 "optdone": 1, 
		 "sigma_profile": "yes", 
		 "theory": "DFT", 
		 "functional": "B3LYP", 
		 "basiset": "6-31G**", 
		 "properties": { 
			 "R2extent": 1307.374, 
			 "electric_dipole_moment_norm": 1.98775820713, 
			 "electric_quadrupole_moment_norm": 8.49080450546, 
			 "total_energy": -328.320143332, 
			 "HOMO_LUMO_gap": 0.27076, 
			 "cosmo_polarized_energy": -7.55, 
			 "cosmo_cavitation_energy": 21.65, 
			 "cosmo_dispersion_energy": -15.67, 
			 "cosmo_repulsion_energy": 1.34, 
			 "cosmo_total_nonelectrostatic_energy": 7.32, 
			 "SMD_solvation_energy": 1.47 
		},
		"coords": [
			{
				"x": -1.4363788822,
				"y": -0.7492543476,
				"z": 0.756995254,
				"element": "C" 
			},
			{
				"x": -1.4743505587,
				"y": 0.465720956,
				"z": -0.0397705363,
				"element": "N" 
			},
			{
				"x": -1.6012933661,
				"y": 1.6624049125,
				"z": 0.7750182725,
				"element": "C" 
			},
			{
				"x": -0.437827923,
				"y": 0.5440319799,
				"z": -1.0667951422,
				"element": "C" 
			},
			{
				"x": 1.031348968,
				"y": 0.5913515079,
				"z": -0.5968077032,
				"element": "C" 
			},
			{
				"x": 2.0062738616,
				"y": 0.7698022295,
				"z": -1.7637048929,
				"element": "C" 
			},
			{
				"x": 1.7902387478,
				"y": 1.9718387304,
				"z": -2.496863037,
				"element": "O" 
			},
			{
				"x": -0.5785978114,
				"y": -0.8146905211,
				"z": 1.4534271659,
				"element": "H" 
			},
			{
				"x": -2.3501612406,
				"y": -0.8209951635,
				"z": 1.3577732267,
				"element": "H" 
			},
			{
				"x": -1.3999796969,
				"y": -1.6226580466,
				"z": 0.0968469898,
				"element": "H" 
			},
			{
				"x": -1.6864306179,
				"y": 2.5418834049,
				"z": 0.1278596308,
				"element": "H" 
			},
			{
				"x": -2.5151002925,
				"y": 1.5990744519,
				"z": 1.3767352493,
				"element": "H" 
			},
			{
				"x": -0.7601546346,
				"y": 1.8346924666,
				"z": 1.4739938208,
				"element": "H" 
			},
			{
				"x": -0.6313361501,
				"y": 1.4328090807,
				"z": -1.6772184645,
				"element": "H" 
			},
			{
				"x": -0.5622738515,
				"y": -0.3220824051,
				"z": -1.7316529776,
				"element": "H" 
			},
			{
				"x": 1.1759569518,
				"y": 1.4150301138,
				"z": 0.1171222841,
				"element": "H" 
			},
			{
				"x": 1.2957149204,
				"y": -0.3293637181,
				"z": -0.0606279652,
				"element": "H" 
			},
			{
				"x": 1.8741377118,
				"y": -0.0398377332,
				"z": -2.490935688,
				"element": "H" 
			},
			{
				"x": 3.0442231573,
				"y": 0.7091364719,
				"z": -1.3997076324,
				"element": "H" 
			},
			{
				"x": 1.9539907067,
				"y": 2.7120056294,
				"z": -1.8977878545,
				"element": "H" 
			}
		],
		 "valence_orbital": [ 
			{
				"type": "occ",
				"energy": -0.35354,
				"method": "rhf"
			},
			{
				"type": "occ",
				"energy": -0.33355,
				"method": "rhf"
			},
			{
				"type": "occ",
				"energy": -0.31815,
				"method": "rhf"
			},
			{
				"type": "occ",
				"energy": -0.26789,
				"method": "rhf"
			},
			{
				"type": "occ",
				"energy": -0.19898,
				"method": "rhf"
			},
			{
				"type": "unocc",
				"energy": 0.07178,
				"method": "rhf"
			},
			{
				"type": "unocc",
				"energy": 0.09114,
				"method": "rhf"
			},
			{
				"type": "unocc",
				"energy": 0.11483,
				"method": "rhf"
			},
			{
				"type": "unocc",
				"energy": 0.12314,
				"method": "rhf"
			},
			{
				"type": "unocc",
				"energy": 0.13841,
				"method": "rhf"
			}
		],
		"cosmo_sigma_profile": { 
			"-0.025": 0.0,
			"-0.024": 0.0,
			"-0.023": 0.0,
			"-0.022": 0.0,
			"-0.021": 0.0,
			"-0.02": 0.0,
			"-0.019": 0.0,
			"-0.018": 0.0,
			"-0.017": 0.0,
			"-0.016": 0.0,
			"-0.015": 0.642819583153,
			"-0.014": 1.03068867608,
			"-0.013": 1.06629351573,
			"-0.012": 0.836248619623,
			"-0.011": 0.485188574576,
			"-0.01": 1.32352777185,
			"-0.009": 0.728920403593,
			"-0.008": 1.2074022439,
			"-0.007": 0.877094127398,
			"-0.006": 0.901198061346,
			"-0.005": 1.44534035376,
			"-0.004": 4.77921426283,
			"-0.003": 22.716097255,
			"-0.002": 29.1419371561,
			"-0.001": 27.7771463363,
			"0.0": 25.5299245335,
			"0.001": 13.0569325968,
			"0.002": 3.78844637519,
			"0.003": 3.01480235221,
			"0.004": 2.30392117573,
			"0.005": 2.71943786884,
			"0.006": 2.25132669399,
			"0.007": 2.06201903017,
			"0.008": 2.13298280792,
			"0.009": 1.50188192092,
			"0.01": 2.7750758722,
			"0.011": 1.36172297411,
			"0.012": 1.64984290894,
			"0.013": 2.37035101919,
			"0.014": 2.08819878851,
			"0.015": 1.8674968331,
			"0.016": 0.602490004523,
			"0.017": 0.17864070887,
			"0.018": 0.0,
			"0.019": 0.0,
			"0.02": 0.0,
			"0.021": 0.0,
			"0.022": 0.0,
			"0.023": 0.0,
			"0.024": 0.0,
			"0.025": 0.0
		}
	}
}
