{
	 "smiles": "C(CN=CC1=CC=CC=C1)N=CC1=CC=CC=C1", 
	 "Tm": 326.15, 
	 "num_atms": 34, 
	 "gaussian": { 
		 "optdone": 1, 
		 "sigma_profile": "yes", 
		 "theory": "DFT", 
		 "functional": "B3LYP", 
		 "basiset": "6-31G**", 
		 "properties": { 
			 "R2extent": 8585.2612, 
			 "electric_dipole_moment_norm": 2.10620240955, 
			 "electric_quadrupole_moment_norm": 12.7054638699, 
			 "total_energy": -728.8166117, 
			 "HOMO_LUMO_gap": 0.18598, 
			 "cosmo_polarized_energy": -11.3, 
			 "cosmo_cavitation_energy": 38.58, 
			 "cosmo_dispersion_energy": -27.63, 
			 "cosmo_repulsion_energy": 2.15, 
			 "cosmo_total_nonelectrostatic_energy": 13.1, 
			 "SMD_solvation_energy": 1.96 
		},
		"coords": [
			{
				"x": -1.6484541845,
				"y": 0.3981664053,
				"z": 0.6505847313,
				"element": "C" 
			},
			{
				"x": -1.1398258741,
				"y": 0.7817647607,
				"z": -0.7494214816,
				"element": "C" 
			},
			{
				"x": 0.3108015923,
				"y": 0.8672619641,
				"z": -0.7342701151,
				"element": "N" 
			},
			{
				"x": 0.976435301,
				"y": 1.5657326211,
				"z": -1.5692955388,
				"element": "C" 
			},
			{
				"x": 0.5689316895,
				"y": 2.395932568,
				"z": -2.7317258884,
				"element": "C" 
			},
			{
				"x": 1.4346146498,
				"y": 3.4409452344,
				"z": -3.1030757891,
				"element": "C" 
			},
			{
				"x": 1.1389243921,
				"y": 4.2744451275,
				"z": -4.1784038973,
				"element": "C" 
			},
			{
				"x": -0.0228662758,
				"y": 4.0622601965,
				"z": -4.9244441137,
				"element": "C" 
			},
			{
				"x": -0.8780562328,
				"y": 3.0113200368,
				"z": -4.5882633149,
				"element": "C" 
			},
			{
				"x": -0.5895760341,
				"y": 2.1858277258,
				"z": -3.5015986209,
				"element": "C" 
			},
			{
				"x": -1.3384839867,
				"y": -0.9868930263,
				"z": 0.9435725213,
				"element": "N" 
			},
			{
				"x": -0.4399220215,
				"y": -1.2275803442,
				"z": 1.8145914599,
				"element": "C" 
			},
			{
				"x": -0.018078946,
				"y": -2.5942397728,
				"z": 2.1702940141,
				"element": "C" 
			},
			{
				"x": 0.9699398318,
				"y": -2.7795447196,
				"z": 3.1477230278,
				"element": "C" 
			},
			{
				"x": 1.384886476,
				"y": -4.0631200879,
				"z": 3.5036445402,
				"element": "C" 
			},
			{
				"x": 0.8134561254,
				"y": -5.1753746862,
				"z": 2.8840553818,
				"element": "C" 
			},
			{
				"x": -0.1735858522,
				"y": -4.9993613086,
				"z": 1.9070880885,
				"element": "C" 
			},
			{
				"x": -0.587426739,
				"y": -3.7199436853,
				"z": 1.5514306022,
				"element": "C" 
			},
			{
				"x": -2.7396898541,
				"y": 0.5167227363,
				"z": 0.6627852172,
				"element": "H" 
			},
			{
				"x": -1.2206496468,
				"y": 1.0994325603,
				"z": 1.3863821748,
				"element": "H" 
			},
			{
				"x": -1.6192056745,
				"y": 1.7202940018,
				"z": -1.0651308552,
				"element": "H" 
			},
			{
				"x": -1.4576328585,
				"y": -0.0055940632,
				"z": -1.4466751655,
				"element": "H" 
			},
			{
				"x": 2.059031893,
				"y": 1.5867624133,
				"z": -1.393143571,
				"element": "H" 
			},
			{
				"x": 2.3456736957,
				"y": 3.5986663021,
				"z": -2.5309808338,
				"element": "H" 
			},
			{
				"x": 1.8159559687,
				"y": 5.0824410155,
				"z": -4.4402248614,
				"element": "H" 
			},
			{
				"x": -0.2543879487,
				"y": 4.7049711239,
				"z": -5.768882315,
				"element": "H" 
			},
			{
				"x": -1.7723726031,
				"y": 2.8290143131,
				"z": -5.1772097271,
				"element": "H" 
			},
			{
				"x": -1.2521667564,
				"y": 1.3599586588,
				"z": -3.2753554363,
				"element": "H" 
			},
			{
				"x": 0.0738430066,
				"y": -0.4176617102,
				"z": 2.3571283584,
				"element": "H" 
			},
			{
				"x": 1.4143727682,
				"y": -1.9108662287,
				"z": 3.6279790718,
				"element": "H" 
			},
			{
				"x": 2.1516277229,
				"y": -4.1946984275,
				"z": 4.2617888072,
				"element": "H" 
			},
			{
				"x": 1.1343546172,
				"y": -6.1762338437,
				"z": 3.1590508009,
				"element": "H" 
			},
			{
				"x": -0.6180647742,
				"y": -5.8652725695,
				"z": 1.4242554274,
				"element": "H" 
			},
			{
				"x": -1.3503034672,
				"y": -3.5622352918,
				"z": 0.7962473001,
				"element": "H" 
			}
		],
		 "valence_orbital": [ 
			{
				"type": "occ",
				"energy": -0.24779,
				"method": "rhf"
			},
			{
				"type": "occ",
				"energy": -0.24717,
				"method": "rhf"
			},
			{
				"type": "occ",
				"energy": -0.24353,
				"method": "rhf"
			},
			{
				"type": "occ",
				"energy": -0.23782,
				"method": "rhf"
			},
			{
				"type": "occ",
				"energy": -0.23004,
				"method": "rhf"
			},
			{
				"type": "unocc",
				"energy": -0.04406,
				"method": "rhf"
			},
			{
				"type": "unocc",
				"energy": -0.0343,
				"method": "rhf"
			},
			{
				"type": "unocc",
				"energy": -0.01023,
				"method": "rhf"
			},
			{
				"type": "unocc",
				"energy": 0.00381,
				"method": "rhf"
			},
			{
				"type": "unocc",
				"energy": 0.04225,
				"method": "rhf"
			}
		],
		"cosmo_sigma_profile": { 
			"-0.025": 0.0,
			"-0.024": 0.0,
			"-0.023": 0.0,
			"-0.022": 0.0,
			"-0.021": 0.0,
			"-0.02": 0.0,
			"-0.019": 0.0,
			"-0.018": 0.0,
			"-0.017": 0.0,
			"-0.016": 0.0,
			"-0.015": 0.0,
			"-0.014": 0.0,
			"-0.013": 0.0,
			"-0.012": 0.0,
			"-0.011": 0.0,
			"-0.01": 0.0,
			"-0.009": 0.0,
			"-0.008": 0.00918185400741,
			"-0.007": 2.12697450199,
			"-0.006": 20.4391053268,
			"-0.005": 25.0800599741,
			"-0.004": 34.0676766074,
			"-0.003": 28.6688684757,
			"-0.002": 24.9963535655,
			"-0.001": 19.3045992279,
			"0.0": 20.6678539138,
			"0.001": 18.5386651679,
			"0.002": 20.6343885435,
			"0.003": 22.8533686978,
			"0.004": 24.7332448281,
			"0.005": 21.5277096469,
			"0.006": 4.46566853391,
			"0.007": 3.84113516166,
			"0.008": 2.72425592137,
			"0.009": 3.79887709944,
			"0.01": 2.66559846703,
			"0.011": 1.71419365147,
			"0.012": 2.01964984424,
			"0.013": 2.03369860923,
			"0.014": 1.00791119321,
			"0.015": 0.0,
			"0.016": 0.0,
			"0.017": 0.0,
			"0.018": 0.0,
			"0.019": 0.0,
			"0.02": 0.0,
			"0.021": 0.0,
			"0.022": 0.0,
			"0.023": 0.0,
			"0.024": 0.0,
			"0.025": 0.0
		}
	}
}
