{
	 "smiles": "CC(N)C1=CC=C(C=C1)N1C=CN=C1", 
	 "Tm": 324.15, 
	 "num_atms": 27, 
	 "gaussian": { 
		 "optdone": 1, 
		 "sigma_profile": "yes", 
		 "theory": "DFT", 
		 "functional": "B3LYP", 
		 "basiset": "6-31G**", 
		 "properties": { 
			 "R2extent": 4036.7368, 
			 "electric_dipole_moment_norm": 5.0912152891, 
			 "electric_quadrupole_moment_norm": 11.0472771523, 
			 "total_energy": -591.253019649, 
			 "HOMO_LUMO_gap": 0.20131, 
			 "cosmo_polarized_energy": -12.95, 
			 "cosmo_cavitation_energy": 30.47, 
			 "cosmo_dispersion_energy": -21.9, 
			 "cosmo_repulsion_energy": 1.71, 
			 "cosmo_total_nonelectrostatic_energy": 10.28, 
			 "SMD_solvation_energy": 3.67 
		},
		"coords": [
			{
				"x": -4.3829716163,
				"y": -0.7027482109,
				"z": -1.1030800537,
				"element": "C" 
			},
			{
				"x": -3.2361107425,
				"y": 0.2417172464,
				"z": -1.4994394348,
				"element": "C" 
			},
			{
				"x": -3.0157997012,
				"y": 0.1277932447,
				"z": -2.9468410685,
				"element": "N" 
			},
			{
				"x": -1.9580471152,
				"y": -0.1034674967,
				"z": -0.7472968479,
				"element": "C" 
			},
			{
				"x": -1.6494417095,
				"y": 0.5345066349,
				"z": 0.4599774572,
				"element": "C" 
			},
			{
				"x": -0.5028918624,
				"y": 0.2055684399,
				"z": 1.1801460762,
				"element": "C" 
			},
			{
				"x": 0.355940996,
				"y": -0.7894758231,
				"z": 0.7012470429,
				"element": "C" 
			},
			{
				"x": 0.0584251224,
				"y": -1.4403205348,
				"z": -0.501574456,
				"element": "C" 
			},
			{
				"x": -1.0826349684,
				"y": -1.0897725397,
				"z": -1.2199303335,
				"element": "C" 
			},
			{
				"x": 1.5297643159,
				"y": -1.1305446918,
				"z": 1.4252569029,
				"element": "N" 
			},
			{
				"x": 1.6689703051,
				"y": -1.2149797336,
				"z": 2.8028077918,
				"element": "C" 
			},
			{
				"x": 2.9777348371,
				"y": -1.5589681233,
				"z": 3.0221035781,
				"element": "C" 
			},
			{
				"x": 3.658402121,
				"y": -1.680599812,
				"z": 1.8297819346,
				"element": "N" 
			},
			{
				"x": 2.7682558506,
				"y": -1.4214379946,
				"z": 0.8995920555,
				"element": "C" 
			},
			{
				"x": -4.5681533324,
				"y": -0.6605243715,
				"z": -0.0261218655,
				"element": "H" 
			},
			{
				"x": -5.3100987655,
				"y": -0.4232197581,
				"z": -1.6176674085,
				"element": "H" 
			},
			{
				"x": -4.1350418499,
				"y": -1.7327035273,
				"z": -1.3756811589,
				"element": "H" 
			},
			{
				"x": -3.5278470936,
				"y": 1.2619669354,
				"z": -1.1906565587,
				"element": "H" 
			},
			{
				"x": -3.8799142429,
				"y": 0.3301034766,
				"z": -3.4434559206,
				"element": "H" 
			},
			{
				"x": -2.3313635415,
				"y": 0.8157496169,
				"z": -3.252232208,
				"element": "H" 
			},
			{
				"x": -2.3065809579,
				"y": 1.3144868576,
				"z": 0.8375395412,
				"element": "H" 
			},
			{
				"x": -0.2573635378,
				"y": 0.7350846218,
				"z": 2.0950129572,
				"element": "H" 
			},
			{
				"x": 0.7096759802,
				"y": -2.2310239367,
				"z": -0.8603495326,
				"element": "H" 
			},
			{
				"x": -1.3106280255,
				"y": -1.5831521677,
				"z": -2.1589298861,
				"element": "H" 
			},
			{
				"x": 0.8317875371,
				"y": -1.0652854034,
				"z": 3.4660658944,
				"element": "H" 
			},
			{
				"x": 3.467061927,
				"y": -1.7311313324,
				"z": 3.9709019935,
				"element": "H" 
			},
			{
				"x": 2.9515700702,
				"y": -1.3922216164,
				"z": -0.1653764919,
				"element": "H" 
			}
		],
		 "valence_orbital": [ 
			{
				"type": "occ",
				"energy": -0.26282,
				"method": "rhf"
			},
			{
				"type": "occ",
				"energy": -0.25993,
				"method": "rhf"
			},
			{
				"type": "occ",
				"energy": -0.24847,
				"method": "rhf"
			},
			{
				"type": "occ",
				"energy": -0.23498,
				"method": "rhf"
			},
			{
				"type": "occ",
				"energy": -0.22079,
				"method": "rhf"
			},
			{
				"type": "unocc",
				"energy": -0.01948,
				"method": "rhf"
			},
			{
				"type": "unocc",
				"energy": -0.01356,
				"method": "rhf"
			},
			{
				"type": "unocc",
				"energy": 0.04119,
				"method": "rhf"
			},
			{
				"type": "unocc",
				"energy": 0.07031,
				"method": "rhf"
			},
			{
				"type": "unocc",
				"energy": 0.075,
				"method": "rhf"
			}
		],
		"cosmo_sigma_profile": { 
			"-0.025": 0.0,
			"-0.024": 0.0,
			"-0.023": 0.0,
			"-0.022": 0.0,
			"-0.021": 0.0,
			"-0.02": 0.0,
			"-0.019": 0.0,
			"-0.018": 0.0,
			"-0.017": 0.0,
			"-0.016": 0.0,
			"-0.015": 0.0,
			"-0.014": 0.0,
			"-0.013": 0.0,
			"-0.012": 0.0,
			"-0.011": 0.0,
			"-0.01": 0.908511009791,
			"-0.009": 3.75640391829,
			"-0.008": 6.13902521818,
			"-0.007": 9.42570929562,
			"-0.006": 14.0077578891,
			"-0.005": 13.9189240711,
			"-0.004": 16.2617124521,
			"-0.003": 19.7288910637,
			"-0.002": 20.5411163305,
			"-0.001": 18.0035218737,
			"0.0": 19.0558928717,
			"0.001": 18.678127783,
			"0.002": 13.7062394222,
			"0.003": 13.6602737521,
			"0.004": 14.2667083293,
			"0.005": 12.1074912495,
			"0.006": 4.95522290669,
			"0.007": 2.68315066941,
			"0.008": 2.67908762993,
			"0.009": 2.58975979742,
			"0.01": 2.47782240021,
			"0.011": 1.34976211458,
			"0.012": 1.03123138126,
			"0.013": 2.9623671226,
			"0.014": 1.54427537497,
			"0.015": 1.49170609616,
			"0.016": 1.51601044625,
			"0.017": 1.47453907146,
			"0.018": 0.618727701193,
			"0.019": 0.0,
			"0.02": 0.0,
			"0.021": 0.0,
			"0.022": 0.0,
			"0.023": 0.0,
			"0.024": 0.0,
			"0.025": 0.0
		}
	}
}
