{
	 "smiles": "CC(C)(O)C1=CC=C(O)C=C1", 
	 "Tm": 378.15, 
	 "num_atms": 23, 
	 "gaussian": { 
		 "optdone": 1, 
		 "sigma_profile": "yes", 
		 "theory": "DFT", 
		 "functional": "B3LYP", 
		 "basiset": "6-31G**", 
		 "properties": { 
			 "R2extent": 2336.4271, 
			 "electric_dipole_moment_norm": 1.11681953779, 
			 "electric_quadrupole_moment_norm": 10.989591881, 
			 "total_energy": -500.637636949, 
			 "HOMO_LUMO_gap": 0.21367, 
			 "cosmo_polarized_energy": -11.44, 
			 "cosmo_cavitation_energy": 25.61, 
			 "cosmo_dispersion_energy": -18.53, 
			 "cosmo_repulsion_energy": 1.48, 
			 "cosmo_total_nonelectrostatic_energy": 8.57, 
			 "SMD_solvation_energy": 4.91 
		},
		"coords": [
			{
				"x": 0.7797286194,
				"y": -0.7253163543,
				"z": -1.5650259417,
				"element": "C" 
			},
			{
				"x": -0.4206987736,
				"y": -0.586371206,
				"z": -0.6123576375,
				"element": "C" 
			},
			{
				"x": -0.9086296791,
				"y": -1.9683031867,
				"z": -0.1530584855,
				"element": "C" 
			},
			{
				"x": -1.5264475266,
				"y": -0.0388896559,
				"z": -1.3478374501,
				"element": "O" 
			},
			{
				"x": -0.1009368544,
				"y": 0.2950797778,
				"z": 0.6041271794,
				"element": "C" 
			},
			{
				"x": 1.1305378121,
				"y": 0.2284307895,
				"z": 1.2750560731,
				"element": "C" 
			},
			{
				"x": 1.3927956296,
				"y": 1.0088440391,
				"z": 2.3973927241,
				"element": "C" 
			},
			{
				"x": 0.4149830148,
				"y": 1.8845856143,
				"z": 2.8808910915,
				"element": "C" 
			},
			{
				"x": 0.7240767373,
				"y": 2.6329167524,
				"z": 3.9828505527,
				"element": "O" 
			},
			{
				"x": -0.8199887082,
				"y": 1.961634468,
				"z": 2.2317822161,
				"element": "C" 
			},
			{
				"x": -1.068940342,
				"y": 1.1709917376,
				"z": 1.1095194657,
				"element": "C" 
			},
			{
				"x": 0.4701434782,
				"y": -1.288125978,
				"z": -2.4501503178,
				"element": "H" 
			},
			{
				"x": 1.6202866653,
				"y": -1.2518271418,
				"z": -1.1041286904,
				"element": "H" 
			},
			{
				"x": 1.1391189071,
				"y": 0.2589989605,
				"z": -1.8861856485,
				"element": "H" 
			},
			{
				"x": -0.1374325958,
				"y": -2.4760259496,
				"z": 0.4329540945,
				"element": "H" 
			},
			{
				"x": -1.1601193963,
				"y": -2.5862086587,
				"z": -1.0207993071,
				"element": "H" 
			},
			{
				"x": -1.801571515,
				"y": -1.8616491777,
				"z": 0.4684967743,
				"element": "H" 
			},
			{
				"x": -1.2551524825,
				"y": 0.8326834501,
				"z": -1.6683973065,
				"element": "H" 
			},
			{
				"x": 1.9069478727,
				"y": -0.4444537304,
				"z": 0.9237855725,
				"element": "H" 
			},
			{
				"x": 2.3480798886,
				"y": 0.9545655678,
				"z": 2.9093470522,
				"element": "H" 
			},
			{
				"x": -0.0357228738,
				"y": 3.1836189979,
				"z": 4.211869968,
				"element": "H" 
			},
			{
				"x": -1.5888731587,
				"y": 2.6373976029,
				"z": 2.6022706567,
				"element": "H" 
			},
			{
				"x": -2.0321847191,
				"y": 1.2287232812,
				"z": 0.6140973644,
				"element": "H" 
			}
		],
		 "valence_orbital": [ 
			{
				"type": "occ",
				"energy": -0.32643,
				"method": "rhf"
			},
			{
				"type": "occ",
				"energy": -0.31335,
				"method": "rhf"
			},
			{
				"type": "occ",
				"energy": -0.2689,
				"method": "rhf"
			},
			{
				"type": "occ",
				"energy": -0.24948,
				"method": "rhf"
			},
			{
				"type": "occ",
				"energy": -0.21533,
				"method": "rhf"
			},
			{
				"type": "unocc",
				"energy": -0.00166,
				"method": "rhf"
			},
			{
				"type": "unocc",
				"energy": 0.01392,
				"method": "rhf"
			},
			{
				"type": "unocc",
				"energy": 0.07117,
				"method": "rhf"
			},
			{
				"type": "unocc",
				"energy": 0.07884,
				"method": "rhf"
			},
			{
				"type": "unocc",
				"energy": 0.10524,
				"method": "rhf"
			}
		],
		"cosmo_sigma_profile": { 
			"-0.025": 0.0,
			"-0.024": 0.0,
			"-0.023": 0.0,
			"-0.022": 0.0,
			"-0.021": 0.0,
			"-0.02": 0.0,
			"-0.019": 0.0,
			"-0.018": 0.158923310442,
			"-0.017": 1.09945691926,
			"-0.016": 1.3246499021,
			"-0.015": 0.965260242714,
			"-0.014": 1.50158697867,
			"-0.013": 2.21935637989,
			"-0.012": 1.64646132493,
			"-0.011": 1.37172061697,
			"-0.01": 2.23956425731,
			"-0.009": 1.79132500868,
			"-0.008": 2.05029779427,
			"-0.007": 2.00593202989,
			"-0.006": 4.7807178523,
			"-0.005": 9.53764734918,
			"-0.004": 10.9786849212,
			"-0.003": 17.5280969889,
			"-0.002": 15.5718312692,
			"-0.001": 15.2154605653,
			"0.0": 17.9912546311,
			"0.001": 18.7255410617,
			"0.002": 10.426333856,
			"0.003": 9.18028982301,
			"0.004": 11.5699954122,
			"0.005": 10.7114088735,
			"0.006": 10.0276696407,
			"0.007": 3.91747790264,
			"0.008": 2.83262615742,
			"0.009": 1.6971372099,
			"0.01": 3.46777066375,
			"0.011": 2.28889858427,
			"0.012": 2.38343809398,
			"0.013": 1.67739156847,
			"0.014": 1.50961659551,
			"0.015": 0.265096001675,
			"0.016": 0.0,
			"0.017": 0.0,
			"0.018": 0.0,
			"0.019": 0.0,
			"0.02": 0.0,
			"0.021": 0.0,
			"0.022": 0.0,
			"0.023": 0.0,
			"0.024": 0.0,
			"0.025": 0.0
		}
	}
}
