{
	 "smiles": "CC1(C)[C@@]2(C)CC[C@@]1(OC2=O)C(Cl)=O", 
	 "Tm": 339.15, 
	 "num_atms": 27, 
	 "gaussian": { 
		 "optdone": 1, 
		 "sigma_profile": "yes", 
		 "theory": "DFT", 
		 "functional": "B3LYP", 
		 "basiset": "6-31G**", 
		 "properties": { 
			 "R2extent": 3186.2124, 
			 "electric_dipole_moment_norm": 4.2627027072, 
			 "electric_quadrupole_moment_norm": 14.5663554412, 
			 "total_energy": -1074.77779283, 
			 "HOMO_LUMO_gap": 0.21637, 
			 "cosmo_polarized_energy": -11.44, 
			 "cosmo_cavitation_energy": 29.57, 
			 "cosmo_dispersion_energy": -20.75, 
			 "cosmo_repulsion_energy": 1.6, 
			 "cosmo_total_nonelectrostatic_energy": 10.42, 
			 "SMD_solvation_energy": 6.17 
		},
		"coords": [
			{
				"x": -2.4060912634,
				"y": 0.7340580834,
				"z": -0.7893325702,
				"element": "C" 
			},
			{
				"x": -1.6013463001,
				"y": 0.3375130944,
				"z": 0.4539702518,
				"element": "C" 
			},
			{
				"x": -2.4600419875,
				"y": 0.5967832866,
				"z": 1.7035477178,
				"element": "C" 
			},
			{
				"x": -0.9643536487,
				"y": -1.0973085414,
				"z": 0.4130110014,
				"element": "C" 
			},
			{
				"x": -1.8653071481,
				"y": -2.3182465971,
				"z": 0.422447117,
				"element": "C" 
			},
			{
				"x": 0.0280554558,
				"y": -0.9950642374,
				"z": -0.7940798069,
				"element": "C" 
			},
			{
				"x": 0.5616680413,
				"y": 0.4637007157,
				"z": -0.7136606691,
				"element": "C" 
			},
			{
				"x": -0.1696972441,
				"y": 0.986911269,
				"z": 0.5450928705,
				"element": "C" 
			},
			{
				"x": 0.4246938597,
				"y": 0.3029203731,
				"z": 1.6671181098,
				"element": "O" 
			},
			{
				"x": -0.0411941785,
				"y": -0.9960457814,
				"z": 1.6267815431,
				"element": "C" 
			},
			{
				"x": 0.3006577664,
				"y": -1.832377544,
				"z": 2.4178724192,
				"element": "O" 
			},
			{
				"x": -0.1525641339,
				"y": 2.4903248364,
				"z": 0.6983849123,
				"element": "C" 
			},
			{
				"x": 0.247832062,
				"y": 3.1161692269,
				"z": 2.3369736574,
				"element": "Cl" 
			},
			{
				"x": -0.4233314636,
				"y": 3.2373514737,
				"z": -0.1936546942,
				"element": "O" 
			},
			{
				"x": -2.6403621659,
				"y": 1.802255878,
				"z": -0.7664143296,
				"element": "H" 
			},
			{
				"x": -3.3541418155,
				"y": 0.1869391314,
				"z": -0.8007512008,
				"element": "H" 
			},
			{
				"x": -1.8940729606,
				"y": 0.5306511989,
				"z": -1.7310801714,
				"element": "H" 
			},
			{
				"x": -2.7974719917,
				"y": 1.6378302193,
				"z": 1.7289715425,
				"element": "H" 
			},
			{
				"x": -1.9292417807,
				"y": 0.3956053904,
				"z": 2.6366467179,
				"element": "H" 
			},
			{
				"x": -3.3540948794,
				"y": -0.0336543249,
				"z": 1.678514045,
				"element": "H" 
			},
			{
				"x": -1.262108826,
				"y": -3.2291205493,
				"z": 0.4756616528,
				"element": "H" 
			},
			{
				"x": -2.5306758007,
				"y": -2.3188073428,
				"z": 1.2902588918,
				"element": "H" 
			},
			{
				"x": -2.4762400736,
				"y": -2.362001068,
				"z": -0.4844838713,
				"element": "H" 
			},
			{
				"x": -0.5025929567,
				"y": -1.1858593135,
				"z": -1.7307098467,
				"element": "H" 
			},
			{
				"x": 0.8238162477,
				"y": -1.7403405632,
				"z": -0.7136309989,
				"element": "H" 
			},
			{
				"x": 0.3109321095,
				"y": 1.0627471993,
				"z": -1.5902932701,
				"element": "H" 
			},
			{
				"x": 1.6411750763,
				"y": 0.5177644865,
				"z": -0.556761021,
				"element": "H" 
			}
		],
		 "valence_orbital": [ 
			{
				"type": "occ",
				"energy": -0.32898,
				"method": "rhf"
			},
			{
				"type": "occ",
				"energy": -0.32168,
				"method": "rhf"
			},
			{
				"type": "occ",
				"energy": -0.30584,
				"method": "rhf"
			},
			{
				"type": "occ",
				"energy": -0.3005,
				"method": "rhf"
			},
			{
				"type": "occ",
				"energy": -0.27155,
				"method": "rhf"
			},
			{
				"type": "unocc",
				"energy": -0.05518,
				"method": "rhf"
			},
			{
				"type": "unocc",
				"energy": 0.0,
				"method": "rhf"
			},
			{
				"type": "unocc",
				"energy": 0.01352,
				"method": "rhf"
			},
			{
				"type": "unocc",
				"energy": 0.06142,
				"method": "rhf"
			},
			{
				"type": "unocc",
				"energy": 0.08857,
				"method": "rhf"
			}
		],
		"cosmo_sigma_profile": { 
			"-0.025": 0.0,
			"-0.024": 0.0,
			"-0.023": 0.0,
			"-0.022": 0.0,
			"-0.021": 0.0,
			"-0.02": 0.0,
			"-0.019": 0.0,
			"-0.018": 0.0,
			"-0.017": 0.0,
			"-0.016": 0.0,
			"-0.015": 0.0,
			"-0.014": 0.0,
			"-0.013": 0.0,
			"-0.012": 0.0,
			"-0.011": 0.0,
			"-0.01": 0.0,
			"-0.009": 0.0,
			"-0.008": 0.259220456942,
			"-0.007": 2.23626235319,
			"-0.006": 8.83157077427,
			"-0.005": 17.759460049,
			"-0.004": 30.8156349234,
			"-0.003": 25.6510378586,
			"-0.002": 25.2675598913,
			"-0.001": 23.1303607357,
			"0.0": 19.6143087091,
			"0.001": 9.95400084657,
			"0.002": 8.11942219843,
			"0.003": 11.753890598,
			"0.004": 8.87399651222,
			"0.005": 5.85544823891,
			"0.006": 4.91232833004,
			"0.007": 5.30257900251,
			"0.008": 8.27018510759,
			"0.009": 5.10162273702,
			"0.01": 3.6341797936,
			"0.011": 5.61355169749,
			"0.012": 2.49906147866,
			"0.013": 0.0749062584666,
			"0.014": 0.0,
			"0.015": 0.0,
			"0.016": 0.0,
			"0.017": 0.0,
			"0.018": 0.0,
			"0.019": 0.0,
			"0.02": 0.0,
			"0.021": 0.0,
			"0.022": 0.0,
			"0.023": 0.0,
			"0.024": 0.0,
			"0.025": 0.0
		}
	}
}
