{
	 "smiles": "O=CC1=CC2=CC=CC=C2C2=C1C=CC=C2", 
	 "Tm": 375.15, 
	 "num_atms": 26, 
	 "gaussian": { 
		 "optdone": 1, 
		 "sigma_profile": "yes", 
		 "theory": "DFT", 
		 "functional": "B3LYP", 
		 "basiset": "6-31G**", 
		 "properties": { 
			 "R2extent": 3758.5053, 
			 "electric_dipole_moment_norm": 3.5086122456, 
			 "electric_quadrupole_moment_norm": 12.243384704, 
			 "total_energy": -652.859540705, 
			 "HOMO_LUMO_gap": 0.14996, 
			 "cosmo_polarized_energy": -9.32, 
			 "cosmo_cavitation_energy": 29.49, 
			 "cosmo_dispersion_energy": -22.02, 
			 "cosmo_repulsion_energy": 1.63, 
			 "cosmo_total_nonelectrostatic_energy": 9.1, 
			 "SMD_solvation_energy": 5.5 
		},
		"coords": [
			{
				"x": -3.2419431708,
				"y": -0.824333806,
				"z": 0.7645739849,
				"element": "O" 
			},
			{
				"x": -2.2184808821,
				"y": -0.2694971836,
				"z": 1.1271171083,
				"element": "C" 
			},
			{
				"x": -0.8961105865,
				"y": -0.4712622174,
				"z": 0.4805817757,
				"element": "C" 
			},
			{
				"x": -0.8558882179,
				"y": -1.3362290516,
				"z": -0.5814766228,
				"element": "C" 
			},
			{
				"x": 0.3455214958,
				"y": -1.6199469787,
				"z": -1.2908282679,
				"element": "C" 
			},
			{
				"x": 0.3400093077,
				"y": -2.5215181773,
				"z": -2.3833312972,
				"element": "C" 
			},
			{
				"x": 1.4997113229,
				"y": -2.8016609002,
				"z": -3.0756494585,
				"element": "C" 
			},
			{
				"x": 2.7030652516,
				"y": -2.1809160511,
				"z": -2.6879093801,
				"element": "C" 
			},
			{
				"x": 2.731488457,
				"y": -1.296954373,
				"z": -1.6237514581,
				"element": "C" 
			},
			{
				"x": 1.5608384919,
				"y": -0.9874910109,
				"z": -0.8924988131,
				"element": "C" 
			},
			{
				"x": 1.5420503709,
				"y": -0.0630058304,
				"z": 0.2352430564,
				"element": "C" 
			},
			{
				"x": 0.3142946371,
				"y": 0.1970411299,
				"z": 0.9239816143,
				"element": "C" 
			},
			{
				"x": 0.3275553849,
				"y": 1.0999003805,
				"z": 2.015863588,
				"element": "C" 
			},
			{
				"x": 1.4906442725,
				"y": 1.7254142211,
				"z": 2.4216192711,
				"element": "C" 
			},
			{
				"x": 2.6957128069,
				"y": 1.4707415587,
				"z": 1.7462173192,
				"element": "C" 
			},
			{
				"x": 2.7137342464,
				"y": 0.5950346996,
				"z": 0.6778272504,
				"element": "C" 
			},
			{
				"x": -2.2538938754,
				"y": 0.4286447104,
				"z": 1.9851186215,
				"element": "H" 
			},
			{
				"x": -1.7830940087,
				"y": -1.8161169473,
				"z": -0.8822776845,
				"element": "H" 
			},
			{
				"x": -0.5996033494,
				"y": -2.9889594718,
				"z": -2.6651745207,
				"element": "H" 
			},
			{
				"x": 1.4880056463,
				"y": -3.4937962881,
				"z": -3.9120669046,
				"element": "H" 
			},
			{
				"x": 3.619994229,
				"y": -2.3969142765,
				"z": -3.2286408722,
				"element": "H" 
			},
			{
				"x": 3.6773989748,
				"y": -0.8402778275,
				"z": -1.3568722774,
				"element": "H" 
			},
			{
				"x": -0.5888457101,
				"y": 1.312942551,
				"z": 2.5530232612,
				"element": "H" 
			},
			{
				"x": 1.4703904035,
				"y": 2.4127849231,
				"z": 3.2621077949,
				"element": "H" 
			},
			{
				"x": 3.6124919825,
				"y": 1.9599925833,
				"z": 2.0614286445,
				"element": "H" 
			},
			{
				"x": 3.655252519,
				"y": 0.4143836341,
				"z": 0.1723742667,
				"element": "H" 
			}
		],
		 "valence_orbital": [ 
			{
				"type": "occ",
				"energy": -0.29237,
				"method": "rhf"
			},
			{
				"type": "occ",
				"energy": -0.27176,
				"method": "rhf"
			},
			{
				"type": "occ",
				"energy": -0.25112,
				"method": "rhf"
			},
			{
				"type": "occ",
				"energy": -0.23353,
				"method": "rhf"
			},
			{
				"type": "occ",
				"energy": -0.22373,
				"method": "rhf"
			},
			{
				"type": "unocc",
				"energy": -0.07377,
				"method": "rhf"
			},
			{
				"type": "unocc",
				"energy": -0.04215,
				"method": "rhf"
			},
			{
				"type": "unocc",
				"energy": -0.01669,
				"method": "rhf"
			},
			{
				"type": "unocc",
				"energy": 0.00798,
				"method": "rhf"
			},
			{
				"type": "unocc",
				"energy": 0.03109,
				"method": "rhf"
			}
		],
		"cosmo_sigma_profile": { 
			"-0.025": 0.0,
			"-0.024": 0.0,
			"-0.023": 0.0,
			"-0.022": 0.0,
			"-0.021": 0.0,
			"-0.02": 0.0,
			"-0.019": 0.0,
			"-0.018": 0.0,
			"-0.017": 0.0,
			"-0.016": 0.0,
			"-0.015": 0.0,
			"-0.014": 0.0,
			"-0.013": 0.0,
			"-0.012": 0.0,
			"-0.011": 0.0,
			"-0.01": 0.0,
			"-0.009": 1.33079298185,
			"-0.008": 4.3868181596,
			"-0.007": 6.90262136046,
			"-0.006": 17.1537671999,
			"-0.005": 18.080489194,
			"-0.004": 19.1959551976,
			"-0.003": 14.715983107,
			"-0.002": 12.9668007768,
			"-0.001": 11.2626579724,
			"0.0": 14.0513490964,
			"0.001": 19.9150056687,
			"0.002": 26.5391491521,
			"0.003": 24.8908451178,
			"0.004": 21.4856269347,
			"0.005": 8.15806902788,
			"0.006": 1.50457845105,
			"0.007": 1.34383620506,
			"0.008": 1.96699991409,
			"0.009": 2.26814371196,
			"0.01": 2.22900908326,
			"0.011": 3.85462116097,
			"0.012": 3.10275676548,
			"0.013": 1.02320950847,
			"0.014": 0.0284038773202,
			"0.015": 0.0,
			"0.016": 0.0,
			"0.017": 0.0,
			"0.018": 0.0,
			"0.019": 0.0,
			"0.02": 0.0,
			"0.021": 0.0,
			"0.022": 0.0,
			"0.023": 0.0,
			"0.024": 0.0,
			"0.025": 0.0
		}
	}
}
