{
	 "smiles": "OC1CCCCCC1", 
	 "Tm": 275.15, 
	 "num_atms": 22, 
	 "gaussian": { 
		 "optdone": 1, 
		 "sigma_profile": "yes", 
		 "theory": "DFT", 
		 "functional": "B3LYP", 
		 "basiset": "6-31G**", 
		 "properties": { 
			 "R2extent": 1368.8685, 
			 "electric_dipole_moment_norm": 1.39184064102, 
			 "electric_quadrupole_moment_norm": 6.49971909393, 
			 "total_energy": -350.410789235, 
			 "HOMO_LUMO_gap": 0.33062, 
			 "cosmo_polarized_energy": -5.53, 
			 "cosmo_cavitation_energy": 21.81, 
			 "cosmo_dispersion_energy": -16.63, 
			 "cosmo_repulsion_energy": 1.39, 
			 "cosmo_total_nonelectrostatic_energy": 6.56, 
			 "SMD_solvation_energy": 2.75 
		},
		"coords": [
			{
				"x": -1.7141549884,
				"y": 0.3421744339,
				"z": 2.2790783677,
				"element": "O" 
			},
			{
				"x": -1.3021454751,
				"y": -0.9341361769,
				"z": 1.7760304576,
				"element": "C" 
			},
			{
				"x": 0.2214991967,
				"y": -1.115603924,
				"z": 1.8991306616,
				"element": "C" 
			},
			{
				"x": 1.0805875354,
				"y": -0.360539253,
				"z": 0.8702489304,
				"element": "C" 
			},
			{
				"x": 1.2983848525,
				"y": -1.1446590972,
				"z": -0.4354286981,
				"element": "C" 
			},
			{
				"x": 0.0592215907,
				"y": -1.3413752108,
				"z": -1.3221875269,
				"element": "C" 
			},
			{
				"x": -1.1807118395,
				"y": -1.9483041203,
				"z": -0.6394212244,
				"element": "C" 
			},
			{
				"x": -1.8734911121,
				"y": -0.9944378056,
				"z": 0.349627918,
				"element": "C" 
			},
			{
				"x": -1.4690156214,
				"y": 0.3850901325,
				"z": 3.2125417806,
				"element": "H" 
			},
			{
				"x": -1.7710236062,
				"y": -1.732881529,
				"z": 2.3759615858,
				"element": "H" 
			},
			{
				"x": 0.4584182672,
				"y": -2.1870996197,
				"z": 1.8483548466,
				"element": "H" 
			},
			{
				"x": 0.4969547732,
				"y": -0.8058696315,
				"z": 2.917256344,
				"element": "H" 
			},
			{
				"x": 0.6325769813,
				"y": 0.6206834169,
				"z": 0.6670123701,
				"element": "H" 
			},
			{
				"x": 2.0642767489,
				"y": -0.1589128738,
				"z": 1.3117500777,
				"element": "H" 
			},
			{
				"x": 2.0698950315,
				"y": -0.6406424477,
				"z": -1.0319366106,
				"element": "H" 
			},
			{
				"x": 1.7139169749,
				"y": -2.1295442087,
				"z": -0.1765350885,
				"element": "H" 
			},
			{
				"x": 0.3444025367,
				"y": -1.9753676638,
				"z": -2.1719118918,
				"element": "H" 
			},
			{
				"x": -0.2316422437,
				"y": -0.3726619349,
				"z": -1.7526785364,
				"element": "H" 
			},
			{
				"x": -1.9015521532,
				"y": -2.2079789749,
				"z": -1.42418038,
				"element": "H" 
			},
			{
				"x": -0.9212933889,
				"y": -2.8975093969,
				"z": -0.1499116009,
				"element": "H" 
			},
			{
				"x": -2.938211764,
				"y": -1.2405549945,
				"z": 0.4290337437,
				"element": "H" 
			},
			{
				"x": -1.8331922965,
				"y": 0.0251308798,
				"z": -0.0527355264,
				"element": "H" 
			}
		],
		 "valence_orbital": [ 
			{
				"type": "occ",
				"energy": -0.31751,
				"method": "rhf"
			},
			{
				"type": "occ",
				"energy": -0.31092,
				"method": "rhf"
			},
			{
				"type": "occ",
				"energy": -0.30335,
				"method": "rhf"
			},
			{
				"type": "occ",
				"energy": -0.29778,
				"method": "rhf"
			},
			{
				"type": "occ",
				"energy": -0.25665,
				"method": "rhf"
			},
			{
				"type": "unocc",
				"energy": 0.07397,
				"method": "rhf"
			},
			{
				"type": "unocc",
				"energy": 0.09228,
				"method": "rhf"
			},
			{
				"type": "unocc",
				"energy": 0.11019,
				"method": "rhf"
			},
			{
				"type": "unocc",
				"energy": 0.12936,
				"method": "rhf"
			},
			{
				"type": "unocc",
				"energy": 0.13718,
				"method": "rhf"
			}
		],
		"cosmo_sigma_profile": { 
			"-0.025": 0.0,
			"-0.024": 0.0,
			"-0.023": 0.0,
			"-0.022": 0.0,
			"-0.021": 0.0,
			"-0.02": 0.0,
			"-0.019": 0.0,
			"-0.018": 0.0,
			"-0.017": 0.0,
			"-0.016": 0.0,
			"-0.015": 0.33030431081,
			"-0.014": 1.0973269256,
			"-0.013": 0.648995462042,
			"-0.012": 1.02741896989,
			"-0.011": 0.967236869082,
			"-0.01": 0.658141396124,
			"-0.009": 1.30323623014,
			"-0.008": 0.764776637657,
			"-0.007": 0.989366779942,
			"-0.006": 0.851375612413,
			"-0.005": 1.83279800072,
			"-0.004": 1.50944659041,
			"-0.003": 4.72401164736,
			"-0.002": 28.4207179512,
			"-0.001": 33.6316180941,
			"0.0": 33.5785161346,
			"0.001": 26.7932633004,
			"0.002": 8.02921828137,
			"0.003": 1.76305187632,
			"0.004": 1.49938616328,
			"0.005": 1.92154886739,
			"0.006": 1.81514651796,
			"0.007": 1.27003710003,
			"0.008": 1.3006969103,
			"0.009": 1.26098527784,
			"0.01": 1.37494083763,
			"0.011": 1.33475952258,
			"0.012": 1.32066134955,
			"0.013": 1.07814559544,
			"0.014": 1.78541091057,
			"0.015": 1.31588345487,
			"0.016": 0.0440332814243,
			"0.017": 0.0,
			"0.018": 0.0,
			"0.019": 0.0,
			"0.02": 0.0,
			"0.021": 0.0,
			"0.022": 0.0,
			"0.023": 0.0,
			"0.024": 0.0,
			"0.025": 0.0
		}
	}
}
