{
	 "smiles": "CC1=C(C=C(C=C1)S(=O)(=O)NC1CC1)C(O)=O", 
	 "Tm": 527.15, 
	 "num_atms": 30, 
	 "gaussian": { 
		 "optdone": 1, 
		 "sigma_profile": "yes", 
		 "theory": "DFT", 
		 "functional": "B3LYP", 
		 "basiset": "6-31G**", 
		 "properties": { 
			 "R2extent": 5562.9777, 
			 "electric_dipole_moment_norm": 5.1889862613, 
			 "electric_quadrupole_moment_norm": 21.7832278292, 
			 "total_energy": -1180.75900934, 
			 "HOMO_LUMO_gap": 0.19624, 
			 "cosmo_polarized_energy": -18.31, 
			 "cosmo_cavitation_energy": 35.26, 
			 "cosmo_dispersion_energy": -24.96, 
			 "cosmo_repulsion_energy": 1.91, 
			 "cosmo_total_nonelectrostatic_energy": 12.2, 
			 "SMD_solvation_energy": 5.63 
		},
		"coords": [
			{
				"x": -1.9874525794,
				"y": -1.1004777941,
				"z": -2.6993698656,
				"element": "C" 
			},
			{
				"x": -1.6609528963,
				"y": -0.7888497814,
				"z": -1.2575819591,
				"element": "C" 
			},
			{
				"x": -1.0069470677,
				"y": -1.6799851745,
				"z": -0.3713486946,
				"element": "C" 
			},
			{
				"x": -0.7490203208,
				"y": -1.2937840579,
				"z": 0.9539585086,
				"element": "C" 
			},
			{
				"x": -1.1262330857,
				"y": -0.0365018469,
				"z": 1.4034102761,
				"element": "C" 
			},
			{
				"x": -1.7777988609,
				"y": 0.8578046431,
				"z": 0.5528593521,
				"element": "C" 
			},
			{
				"x": -2.0327316586,
				"y": 0.4708520383,
				"z": -0.7577976511,
				"element": "C" 
			},
			{
				"x": -0.8015534616,
				"y": 0.4413458062,
				"z": 3.1007676927,
				"element": "S" 
			},
			{
				"x": -0.5580549203,
				"y": -0.7862476225,
				"z": 3.8649446464,
				"element": "O" 
			},
			{
				"x": -1.8242737805,
				"y": 1.4109303044,
				"z": 3.5087173535,
				"element": "O" 
			},
			{
				"x": 0.6238483029,
				"y": 1.3608960434,
				"z": 2.9774460352,
				"element": "N" 
			},
			{
				"x": 1.8841810815,
				"y": 0.6616116059,
				"z": 3.1053267997,
				"element": "C" 
			},
			{
				"x": 2.5462326683,
				"y": 0.1680875118,
				"z": 1.8424019324,
				"element": "C" 
			},
			{
				"x": 3.0974265242,
				"y": 1.3718846866,
				"z": 2.5620708637,
				"element": "C" 
			},
			{
				"x": -0.5358905742,
				"y": -3.0591529311,
				"z": -0.7056117725,
				"element": "C" 
			},
			{
				"x": -0.8523340381,
				"y": -3.4813567387,
				"z": -1.9537383807,
				"element": "O" 
			},
			{
				"x": 0.0822235328,
				"y": -3.7695486063,
				"z": 0.0626261711,
				"element": "O" 
			},
			{
				"x": -2.4630800747,
				"y": -0.237182932,
				"z": -3.1708706558,
				"element": "H" 
			},
			{
				"x": -1.0912987571,
				"y": -1.3589539421,
				"z": -3.2692626102,
				"element": "H" 
			},
			{
				"x": -2.661828905,
				"y": -1.9569323723,
				"z": -2.7813212327,
				"element": "H" 
			},
			{
				"x": -0.2629306303,
				"y": -1.9973369102,
				"z": 1.6193974151,
				"element": "H" 
			},
			{
				"x": -2.089923073,
				"y": 1.829339278,
				"z": 0.9204884954,
				"element": "H" 
			},
			{
				"x": -2.5420882522,
				"y": 1.1631064985,
				"z": -1.4217483157,
				"element": "H" 
			},
			{
				"x": 0.513438209,
				"y": 2.1419416114,
				"z": 3.6224480947,
				"element": "H" 
			},
			{
				"x": 2.0098040816,
				"y": 0.0568632486,
				"z": 4.0009425713,
				"element": "H" 
			},
			{
				"x": 2.0237457503,
				"y": 0.3430334274,
				"z": 0.9085157194,
				"element": "H" 
			},
			{
				"x": 3.0896421526,
				"y": -0.7696228622,
				"z": 1.8951391049,
				"element": "H" 
			},
			{
				"x": 4.0247883579,
				"y": 1.2745031519,
				"z": 3.1174461358,
				"element": "H" 
			},
			{
				"x": 2.9394298825,
				"y": 2.3431713644,
				"z": 2.1043909358,
				"element": "H" 
			},
			{
				"x": -0.4888676072,
				"y": -4.3807376477,
				"z": -2.0187469659,
				"element": "H" 
			}
		],
		 "valence_orbital": [ 
			{
				"type": "occ",
				"energy": -0.29158,
				"method": "rhf"
			},
			{
				"type": "occ",
				"energy": -0.28709,
				"method": "rhf"
			},
			{
				"type": "occ",
				"energy": -0.28082,
				"method": "rhf"
			},
			{
				"type": "occ",
				"energy": -0.27538,
				"method": "rhf"
			},
			{
				"type": "occ",
				"energy": -0.26067,
				"method": "rhf"
			},
			{
				"type": "unocc",
				"energy": -0.06443,
				"method": "rhf"
			},
			{
				"type": "unocc",
				"energy": -0.03564,
				"method": "rhf"
			},
			{
				"type": "unocc",
				"energy": 0.03342,
				"method": "rhf"
			},
			{
				"type": "unocc",
				"energy": 0.05825,
				"method": "rhf"
			},
			{
				"type": "unocc",
				"energy": 0.0724,
				"method": "rhf"
			}
		],
		"cosmo_sigma_profile": { 
			"-0.025": 0.0,
			"-0.024": 0.0,
			"-0.023": 0.0,
			"-0.022": 0.0,
			"-0.021": 0.0,
			"-0.02": 0.0,
			"-0.019": 0.0964853285649,
			"-0.018": 0.847520223982,
			"-0.017": 1.03510646358,
			"-0.016": 0.527277114486,
			"-0.015": 0.777341208136,
			"-0.014": 1.64677561895,
			"-0.013": 1.76665524293,
			"-0.012": 1.52571401122,
			"-0.011": 1.83273844237,
			"-0.01": 1.70837954865,
			"-0.009": 1.27020605784,
			"-0.008": 2.60303557683,
			"-0.007": 7.02740556293,
			"-0.006": 8.77040290533,
			"-0.005": 15.6858057617,
			"-0.004": 19.0147448547,
			"-0.003": 22.1473807145,
			"-0.002": 25.3784361643,
			"-0.001": 29.0585758522,
			"0.0": 26.4647376599,
			"0.001": 23.5610126881,
			"0.002": 15.046008159,
			"0.003": 9.56063639175,
			"0.004": 8.73978483748,
			"0.005": 7.27360440335,
			"0.006": 4.50046930605,
			"0.007": 4.09322145577,
			"0.008": 4.90622893391,
			"0.009": 5.7726720224,
			"0.01": 9.70063046956,
			"0.011": 12.5334309586,
			"0.012": 4.70447052801,
			"0.013": 0.0,
			"0.014": 0.0,
			"0.015": 0.0,
			"0.016": 0.0,
			"0.017": 0.0,
			"0.018": 0.0,
			"0.019": 0.0,
			"0.02": 0.0,
			"0.021": 0.0,
			"0.022": 0.0,
			"0.023": 0.0,
			"0.024": 0.0,
			"0.025": 0.0
		}
	}
}
