{
	 "smiles": "CC1=CC=CC2=C1C=C1C=CC=CC1=C2", 
	 "Tm": 358.65, 
	 "num_atms": 27, 
	 "gaussian": { 
		 "optdone": 1, 
		 "sigma_profile": "yes", 
		 "theory": "DFT", 
		 "functional": "B3LYP", 
		 "basiset": "6-31G**", 
		 "properties": { 
			 "R2extent": 5154.51, 
			 "electric_dipole_moment_norm": 0.310763768802, 
			 "electric_quadrupole_moment_norm": 9.35934214942, 
			 "total_energy": -578.853865781, 
			 "HOMO_LUMO_gap": 0.13151, 
			 "cosmo_polarized_energy": -5.7, 
			 "cosmo_cavitation_energy": 29.73, 
			 "cosmo_dispersion_energy": -22.1, 
			 "cosmo_repulsion_energy": 1.67, 
			 "cosmo_total_nonelectrostatic_energy": 9.3, 
			 "SMD_solvation_energy": 4.43 
		},
		"coords": [
			{
				"x": 2.9530109591,
				"y": -0.4713856176,
				"z": 2.0080016373,
				"element": "C" 
			},
			{
				"x": 1.7214204452,
				"y": -0.1752990639,
				"z": 1.1885181414,
				"element": "C" 
			},
			{
				"x": 1.6618272922,
				"y": 0.9458732024,
				"z": 0.3959065618,
				"element": "C" 
			},
			{
				"x": 0.5142286522,
				"y": 1.2544404927,
				"z": -0.3897856044,
				"element": "C" 
			},
			{
				"x": -0.576317567,
				"y": 0.4294138968,
				"z": -0.3756361119,
				"element": "C" 
			},
			{
				"x": -0.5800079778,
				"y": -0.7535181044,
				"z": 0.4272373167,
				"element": "C" 
			},
			{
				"x": 0.586142039,
				"y": -1.0668174436,
				"z": 1.2253401154,
				"element": "C" 
			},
			{
				"x": 0.5666092604,
				"y": -2.2300055905,
				"z": 2.0067003179,
				"element": "C" 
			},
			{
				"x": -0.5401092815,
				"y": -3.0907883019,
				"z": 2.0370413093,
				"element": "C" 
			},
			{
				"x": -0.5606152106,
				"y": -4.2775139895,
				"z": 2.8339506068,
				"element": "C" 
			},
			{
				"x": -1.6562015176,
				"y": -5.1008416047,
				"z": 2.8444493459,
				"element": "C" 
			},
			{
				"x": -2.8026796932,
				"y": -4.787678018,
				"z": 2.05639505,
				"element": "C" 
			},
			{
				"x": -2.8229197795,
				"y": -3.6594967449,
				"z": 1.2788657066,
				"element": "C" 
			},
			{
				"x": -1.700655505,
				"y": -2.7745128479,
				"z": 1.2398169703,
				"element": "C" 
			},
			{
				"x": -1.6848913467,
				"y": -1.6131084992,
				"z": 0.4577140429,
				"element": "C" 
			},
			{
				"x": 2.7249525296,
				"y": -0.518923876,
				"z": 3.0796977571,
				"element": "H" 
			},
			{
				"x": 3.7111844246,
				"y": 0.3021926519,
				"z": 1.8624564966,
				"element": "H" 
			},
			{
				"x": 3.4005566289,
				"y": -1.4343163394,
				"z": 1.73366023,
				"element": "H" 
			},
			{
				"x": 2.5144036385,
				"y": 1.6196280274,
				"z": 0.3653211805,
				"element": "H" 
			},
			{
				"x": 0.515393429,
				"y": 2.1528409996,
				"z": -1.0003778103,
				"element": "H" 
			},
			{
				"x": -1.4562036322,
				"y": 0.6568205562,
				"z": -0.9717911124,
				"element": "H" 
			},
			{
				"x": 1.4300549312,
				"y": -2.4851827001,
				"z": 2.6133836776,
				"element": "H" 
			},
			{
				"x": 0.3143704615,
				"y": -4.5145656957,
				"z": 3.4341017748,
				"element": "H" 
			},
			{
				"x": -1.6576700951,
				"y": -5.9993162173,
				"z": 3.4548407622,
				"element": "H" 
			},
			{
				"x": -3.6619701741,
				"y": -5.4517770024,
				"z": 2.0771078447,
				"element": "H" 
			},
			{
				"x": -3.6953561502,
				"y": -3.4179217534,
				"z": 0.676933105,
				"element": "H" 
			},
			{
				"x": -2.5571567611,
				"y": -1.3698404168,
				"z": -0.1453493117,
				"element": "H" 
			}
		],
		 "valence_orbital": [ 
			{
				"type": "occ",
				"energy": -0.29872,
				"method": "rhf"
			},
			{
				"type": "occ",
				"energy": -0.29005,
				"method": "rhf"
			},
			{
				"type": "occ",
				"energy": -0.2477,
				"method": "rhf"
			},
			{
				"type": "occ",
				"energy": -0.23592,
				"method": "rhf"
			},
			{
				"type": "occ",
				"energy": -0.19048,
				"method": "rhf"
			},
			{
				"type": "unocc",
				"energy": -0.05897,
				"method": "rhf"
			},
			{
				"type": "unocc",
				"energy": -0.00983,
				"method": "rhf"
			},
			{
				"type": "unocc",
				"energy": 0.00929,
				"method": "rhf"
			},
			{
				"type": "unocc",
				"energy": 0.04789,
				"method": "rhf"
			},
			{
				"type": "unocc",
				"energy": 0.06885,
				"method": "rhf"
			}
		],
		"cosmo_sigma_profile": { 
			"-0.025": 0.0,
			"-0.024": 0.0,
			"-0.023": 0.0,
			"-0.022": 0.0,
			"-0.021": 0.0,
			"-0.02": 0.0,
			"-0.019": 0.0,
			"-0.018": 0.0,
			"-0.017": 0.0,
			"-0.016": 0.0,
			"-0.015": 0.0,
			"-0.014": 0.0,
			"-0.013": 0.0,
			"-0.012": 0.0,
			"-0.011": 0.0,
			"-0.01": 0.0,
			"-0.009": 0.0,
			"-0.008": 0.0,
			"-0.007": 0.0,
			"-0.006": 8.44835891545,
			"-0.005": 23.5333288632,
			"-0.004": 24.2094218472,
			"-0.003": 22.1198117446,
			"-0.002": 17.3775463604,
			"-0.001": 16.3003651191,
			"0.0": 16.9022112483,
			"0.001": 13.4490116542,
			"0.002": 14.0914644485,
			"0.003": 17.1173290604,
			"0.004": 38.6315689859,
			"0.005": 21.1359724054,
			"0.006": 4.55427985236,
			"0.007": 0.0,
			"0.008": 0.0,
			"0.009": 0.0,
			"0.01": 0.0,
			"0.011": 0.0,
			"0.012": 0.0,
			"0.013": 0.0,
			"0.014": 0.0,
			"0.015": 0.0,
			"0.016": 0.0,
			"0.017": 0.0,
			"0.018": 0.0,
			"0.019": 0.0,
			"0.02": 0.0,
			"0.021": 0.0,
			"0.022": 0.0,
			"0.023": 0.0,
			"0.024": 0.0,
			"0.025": 0.0
		}
	}
}
