{
	 "smiles": "CCOC(=O)C1=C(NC(=O)CCl)SC(CC)=C1", 
	 "Tm": 348.15, 
	 "num_atms": 31, 
	 "gaussian": { 
		 "optdone": 1, 
		 "sigma_profile": "yes", 
		 "theory": "DFT", 
		 "functional": "B3LYP", 
		 "basiset": "6-31G**", 
		 "properties": { 
			 "R2extent": 6758.3763, 
			 "electric_dipole_moment_norm": 3.42219860032, 
			 "electric_quadrupole_moment_norm": 20.8713246666, 
			 "total_energy": -1566.43315196, 
			 "HOMO_LUMO_gap": 0.16701, 
			 "cosmo_polarized_energy": -14.87, 
			 "cosmo_cavitation_energy": 38.21, 
			 "cosmo_dispersion_energy": -27.48, 
			 "cosmo_repulsion_energy": 2.16, 
			 "cosmo_total_nonelectrostatic_energy": 12.88, 
			 "SMD_solvation_energy": 7.67 
		},
		"coords": [
			{
				"x": -2.2095597339,
				"y": 4.6064296564,
				"z": 0.6765508089,
				"element": "C" 
			},
			{
				"x": -1.0872688955,
				"y": 4.1661413576,
				"z": 1.6027419387,
				"element": "C" 
			},
			{
				"x": -0.6518831123,
				"y": 2.8142194622,
				"z": 1.2986709067,
				"element": "O" 
			},
			{
				"x": 0.2846612513,
				"y": 2.6763099081,
				"z": 0.313722564,
				"element": "C" 
			},
			{
				"x": 0.7537672619,
				"y": 3.6239186132,
				"z": -0.2868420155,
				"element": "O" 
			},
			{
				"x": 0.662846164,
				"y": 1.2758017085,
				"z": 0.0640496243,
				"element": "C" 
			},
			{
				"x": 0.182723401,
				"y": 0.1327940798,
				"z": 0.6961182016,
				"element": "C" 
			},
			{
				"x": -0.7689980921,
				"y": 0.1196852171,
				"z": 1.7011659519,
				"element": "N" 
			},
			{
				"x": -1.3840417699,
				"y": -0.856567673,
				"z": 2.4790900489,
				"element": "C" 
			},
			{
				"x": -2.2086942306,
				"y": -0.5197453547,
				"z": 3.3055134353,
				"element": "O" 
			},
			{
				"x": -0.9717448908,
				"y": -2.30706754,
				"z": 2.2345636464,
				"element": "C" 
			},
			{
				"x": -1.8332244099,
				"y": -3.4452268224,
				"z": 3.3107248403,
				"element": "Cl" 
			},
			{
				"x": 0.9484371217,
				"y": -1.2975112926,
				"z": 0.0342840743,
				"element": "S" 
			},
			{
				"x": 1.918515725,
				"y": -0.3465347266,
				"z": -1.0927972589,
				"element": "C" 
			},
			{
				"x": 2.8683162543,
				"y": -1.0221635715,
				"z": -2.0409308952,
				"element": "C" 
			},
			{
				"x": 2.1841388953,
				"y": -1.8785009558,
				"z": -3.1211021932,
				"element": "C" 
			},
			{
				"x": 1.6419787482,
				"y": 0.9743354714,
				"z": -0.9421690981,
				"element": "C" 
			},
			{
				"x": -1.8558115665,
				"y": 4.6631795307,
				"z": -0.3555857415,
				"element": "H" 
			},
			{
				"x": -2.5634902448,
				"y": 5.5992662929,
				"z": 0.9733952166,
				"element": "H" 
			},
			{
				"x": -3.0540914197,
				"y": 3.9129307105,
				"z": 0.7269505641,
				"element": "H" 
			},
			{
				"x": -1.4177546068,
				"y": 4.1140582455,
				"z": 2.6424584871,
				"element": "H" 
			},
			{
				"x": -0.2240128455,
				"y": 4.8299474779,
				"z": 1.526060344,
				"element": "H" 
			},
			{
				"x": -1.0997578483,
				"y": 1.0542131027,
				"z": 1.9362444903,
				"element": "H" 
			},
			{
				"x": -1.1895439559,
				"y": -2.5962401683,
				"z": 1.2038385427,
				"element": "H" 
			},
			{
				"x": 0.0995136177,
				"y": -2.4333548376,
				"z": 2.4071798764,
				"element": "H" 
			},
			{
				"x": 3.4601184648,
				"y": -0.2325511847,
				"z": -2.5174788436,
				"element": "H" 
			},
			{
				"x": 3.5806968484,
				"y": -1.6429343147,
				"z": -1.4817295255,
				"element": "H" 
			},
			{
				"x": 2.9293537202,
				"y": -2.3190465745,
				"z": -3.7908188474,
				"element": "H" 
			},
			{
				"x": 1.4973330521,
				"y": -1.2740381808,
				"z": -3.7209438496,
				"element": "H" 
			},
			{
				"x": 1.6087482905,
				"y": -2.6974298426,
				"z": -2.6771235313,
				"element": "H" 
			},
			{
				"x": 2.113928806,
				"y": 1.7586822052,
				"z": -1.5216017626,
				"element": "H" 
			}
		],
		 "valence_orbital": [ 
			{
				"type": "occ",
				"energy": -0.30322,
				"method": "rhf"
			},
			{
				"type": "occ",
				"energy": -0.28376,
				"method": "rhf"
			},
			{
				"type": "occ",
				"energy": -0.27903,
				"method": "rhf"
			},
			{
				"type": "occ",
				"energy": -0.27128,
				"method": "rhf"
			},
			{
				"type": "occ",
				"energy": -0.22068,
				"method": "rhf"
			},
			{
				"type": "unocc",
				"energy": -0.05367,
				"method": "rhf"
			},
			{
				"type": "unocc",
				"energy": -0.01141,
				"method": "rhf"
			},
			{
				"type": "unocc",
				"energy": -0.0001,
				"method": "rhf"
			},
			{
				"type": "unocc",
				"energy": 0.01343,
				"method": "rhf"
			},
			{
				"type": "unocc",
				"energy": 0.033,
				"method": "rhf"
			}
		],
		"cosmo_sigma_profile": { 
			"-0.025": 0.0,
			"-0.024": 0.0,
			"-0.023": 0.0,
			"-0.022": 0.0,
			"-0.021": 0.0,
			"-0.02": 0.0,
			"-0.019": 0.0,
			"-0.018": 0.0,
			"-0.017": 0.0,
			"-0.016": 0.0,
			"-0.015": 0.0,
			"-0.014": 0.0,
			"-0.013": 0.0,
			"-0.012": 0.0,
			"-0.011": 0.336627077742,
			"-0.01": 2.91173114995,
			"-0.009": 3.85309539861,
			"-0.008": 3.57357159066,
			"-0.007": 3.81367805772,
			"-0.006": 9.74823205105,
			"-0.005": 16.7585621332,
			"-0.004": 26.8382205517,
			"-0.003": 30.3712594725,
			"-0.002": 31.4111351667,
			"-0.001": 33.7635065252,
			"0.0": 31.2177788034,
			"0.001": 22.6486997954,
			"0.002": 17.2135402717,
			"0.003": 12.9691995729,
			"0.004": 9.1232464346,
			"0.005": 11.9696944104,
			"0.006": 6.60657042403,
			"0.007": 3.23423113325,
			"0.008": 3.27199880594,
			"0.009": 3.40593639538,
			"0.01": 4.24915164289,
			"0.011": 6.59785488916,
			"0.012": 8.72886123648,
			"0.013": 1.89829146717,
			"0.014": 0.153266342241,
			"0.015": 0.0,
			"0.016": 0.0,
			"0.017": 0.0,
			"0.018": 0.0,
			"0.019": 0.0,
			"0.02": 0.0,
			"0.021": 0.0,
			"0.022": 0.0,
			"0.023": 0.0,
			"0.024": 0.0,
			"0.025": 0.0
		}
	}
}
