{
	 "smiles": "CNC(=O)OC1=CC2=C(C=C1)N(C)[C@@H]1N(C)CC[C@]21C", 
	 "Tm": 379.15, 
	 "num_atms": 41, 
	 "gaussian": { 
		 "optdone": 1, 
		 "sigma_profile": "yes", 
		 "theory": "DFT", 
		 "functional": "B3LYP", 
		 "basiset": "6-31G**", 
		 "properties": { 
			 "R2extent": 7322.905, 
			 "electric_dipole_moment_norm": 1.66410550447, 
			 "electric_quadrupole_moment_norm": 21.2991180266, 
			 "total_energy": -898.966667299, 
			 "HOMO_LUMO_gap": 0.1826, 
			 "cosmo_polarized_energy": -14.18, 
			 "cosmo_cavitation_energy": 41.88, 
			 "cosmo_dispersion_energy": -28.68, 
			 "cosmo_repulsion_energy": 2.21, 
			 "cosmo_total_nonelectrostatic_energy": 15.41, 
			 "SMD_solvation_energy": 5.17 
		},
		"coords": [
			{
				"x": 2.1902326434,
				"y": 4.9606038342,
				"z": -1.6835066483,
				"element": "C" 
			},
			{
				"x": 0.8059481383,
				"y": 4.6923802468,
				"z": -2.0383047375,
				"element": "N" 
			},
			{
				"x": -0.0139883813,
				"y": 3.7856976737,
				"z": -1.430107632,
				"element": "C" 
			},
			{
				"x": -1.2056659065,
				"y": 3.6822000142,
				"z": -1.6456009827,
				"element": "O" 
			},
			{
				"x": 0.7131369713,
				"y": 3.0037455511,
				"z": -0.5709551689,
				"element": "O" 
			},
			{
				"x": 0.0774134273,
				"y": 1.9931238696,
				"z": 0.1598065376,
				"element": "C" 
			},
			{
				"x": -0.7804767091,
				"y": 1.0593888967,
				"z": -0.4370181084,
				"element": "C" 
			},
			{
				"x": -1.2955553103,
				"y": 0.0442109554,
				"z": 0.352243514,
				"element": "C" 
			},
			{
				"x": -0.9677243145,
				"y": -0.0539750525,
				"z": 1.7171358848,
				"element": "C" 
			},
			{
				"x": -0.0911574141,
				"y": 0.8647531734,
				"z": 2.3008183828,
				"element": "C" 
			},
			{
				"x": 0.4201588939,
				"y": 1.8964877609,
				"z": 1.5047929346,
				"element": "C" 
			},
			{
				"x": -1.6457349141,
				"y": -1.1139021116,
				"z": 2.309926183,
				"element": "N" 
			},
			{
				"x": -1.2317142617,
				"y": -1.6923658112,
				"z": 3.568911656,
				"element": "C" 
			},
			{
				"x": -2.2311845452,
				"y": -1.9749506244,
				"z": 1.2780050514,
				"element": "C" 
			},
			{
				"x": -1.4387384656,
				"y": -3.1846055315,
				"z": 0.9904057157,
				"element": "N" 
			},
			{
				"x": -2.2117840223,
				"y": -4.4237790695,
				"z": 1.0011926096,
				"element": "C" 
			},
			{
				"x": -0.7321754708,
				"y": -2.9412217028,
				"z": -0.2836051022,
				"element": "C" 
			},
			{
				"x": -1.6578897496,
				"y": -2.0262898135,
				"z": -1.0988402468,
				"element": "C" 
			},
			{
				"x": -2.2469514248,
				"y": -1.0822009541,
				"z": -0.0246882936,
				"element": "C" 
			},
			{
				"x": -3.644099686,
				"y": -0.5494798609,
				"z": -0.3767957611,
				"element": "C" 
			},
			{
				"x": 2.2885486918,
				"y": 5.4920836739,
				"z": -0.7280424943,
				"element": "H" 
			},
			{
				"x": 2.6383431375,
				"y": 5.5727515929,
				"z": -2.4697548194,
				"element": "H" 
			},
			{
				"x": 2.7476413602,
				"y": 4.0250357154,
				"z": -1.61342656,
				"element": "H" 
			},
			{
				"x": 0.3046821882,
				"y": 5.3617571521,
				"z": -2.6013784166,
				"element": "H" 
			},
			{
				"x": -1.0368490115,
				"y": 1.1488749371,
				"z": -1.4858155685,
				"element": "H" 
			},
			{
				"x": 0.1951108966,
				"y": 0.792773656,
				"z": 3.3446293622,
				"element": "H" 
			},
			{
				"x": 1.1019976512,
				"y": 2.6294141775,
				"z": 1.9241045104,
				"element": "H" 
			},
			{
				"x": -2.0142064301,
				"y": -2.3673662681,
				"z": 3.929214885,
				"element": "H" 
			},
			{
				"x": -0.2965147233,
				"y": -2.2657387936,
				"z": 3.4932177112,
				"element": "H" 
			},
			{
				"x": -1.105733788,
				"y": -0.9040225278,
				"z": 4.317518363,
				"element": "H" 
			},
			{
				"x": -3.2358572799,
				"y": -2.2781252297,
				"z": 1.5980686882,
				"element": "H" 
			},
			{
				"x": -2.7267532155,
				"y": -4.527872422,
				"z": 1.961121351,
				"element": "H" 
			},
			{
				"x": -2.972201008,
				"y": -4.500580924,
				"z": 0.2018788582,
				"element": "H" 
			},
			{
				"x": -1.534114742,
				"y": -5.2773770928,
				"z": 0.900487716,
				"element": "H" 
			},
			{
				"x": -0.5033412363,
				"y": -3.8882070199,
				"z": -0.7811447064,
				"element": "H" 
			},
			{
				"x": 0.2200978938,
				"y": -2.4346567724,
				"z": -0.0841134844,
				"element": "H" 
			},
			{
				"x": -1.140030649,
				"y": -1.4826470606,
				"z": -1.8948910904,
				"element": "H" 
			},
			{
				"x": -2.4613522673,
				"y": -2.6118990325,
				"z": -1.5628687879,
				"element": "H" 
			},
			{
				"x": -4.3396120727,
				"y": -1.3731930571,
				"z": -0.5755860231,
				"element": "H" 
			},
			{
				"x": -3.6048771166,
				"y": 0.0845415733,
				"z": -1.2684846758,
				"element": "H" 
			},
			{
				"x": -4.0492277773,
				"y": 0.0552322784,
				"z": 0.4404493934,
				"element": "H" 
			}
		],
		 "valence_orbital": [ 
			{
				"type": "occ",
				"energy": -0.26416,
				"method": "rhf"
			},
			{
				"type": "occ",
				"energy": -0.24924,
				"method": "rhf"
			},
			{
				"type": "occ",
				"energy": -0.23525,
				"method": "rhf"
			},
			{
				"type": "occ",
				"energy": -0.21107,
				"method": "rhf"
			},
			{
				"type": "occ",
				"energy": -0.1759,
				"method": "rhf"
			},
			{
				"type": "unocc",
				"energy": 0.0067,
				"method": "rhf"
			},
			{
				"type": "unocc",
				"energy": 0.02573,
				"method": "rhf"
			},
			{
				"type": "unocc",
				"energy": 0.06378,
				"method": "rhf"
			},
			{
				"type": "unocc",
				"energy": 0.07744,
				"method": "rhf"
			},
			{
				"type": "unocc",
				"energy": 0.08632,
				"method": "rhf"
			}
		],
		"cosmo_sigma_profile": { 
			"-0.025": 0.0,
			"-0.024": 0.0,
			"-0.023": 0.0,
			"-0.022": 0.0,
			"-0.021": 0.0,
			"-0.02": 0.0,
			"-0.019": 0.0,
			"-0.018": 0.0,
			"-0.017": 0.0,
			"-0.016": 0.0,
			"-0.015": 0.0215477359686,
			"-0.014": 0.897879571314,
			"-0.013": 1.41806258676,
			"-0.012": 0.879783646765,
			"-0.011": 0.870007669016,
			"-0.01": 0.941960218995,
			"-0.009": 1.09149539338,
			"-0.008": 1.18153349646,
			"-0.007": 1.52997645792,
			"-0.006": 5.12521975071,
			"-0.005": 12.5170630926,
			"-0.004": 27.0972878804,
			"-0.003": 43.5249969218,
			"-0.002": 43.779937479,
			"-0.001": 42.5459054358,
			"0.0": 33.4823458385,
			"0.001": 20.2372928992,
			"0.002": 13.264805271,
			"0.003": 12.4571954636,
			"0.004": 12.5307813337,
			"0.005": 13.2247130571,
			"0.006": 12.0495154867,
			"0.007": 5.10276904005,
			"0.008": 3.66876955482,
			"0.009": 2.21499306303,
			"0.01": 2.22995704295,
			"0.011": 3.01113732409,
			"0.012": 2.58849211622,
			"0.013": 5.74019400138,
			"0.014": 2.4581477799,
			"0.015": 0.0,
			"0.016": 0.0,
			"0.017": 0.0,
			"0.018": 0.0,
			"0.019": 0.0,
			"0.02": 0.0,
			"0.021": 0.0,
			"0.022": 0.0,
			"0.023": 0.0,
			"0.024": 0.0,
			"0.025": 0.0
		}
	}
}
