{
	 "smiles": "CC(C)(C)OC(=O)N1CC2=C(CC1C(O)=O)C1=C(N2)C=CC=C1", 
	 "Tm": 561.15, 
	 "num_atms": 43, 
	 "gaussian": { 
		 "optdone": 1, 
		 "sigma_profile": "yes", 
		 "theory": "DFT", 
		 "functional": "B3LYP", 
		 "basiset": "6-31G**", 
		 "properties": { 
			 "R2extent": 8308.8866, 
			 "electric_dipole_moment_norm": 1.65534865814, 
			 "electric_quadrupole_moment_norm": 14.6697095278, 
			 "total_energy": -1070.31685705, 
			 "HOMO_LUMO_gap": 0.19071, 
			 "cosmo_polarized_energy": -19.79, 
			 "cosmo_cavitation_energy": 44.76, 
			 "cosmo_dispersion_energy": -30.21, 
			 "cosmo_repulsion_energy": 2.27, 
			 "cosmo_total_nonelectrostatic_energy": 16.83, 
			 "SMD_solvation_energy": 7.68 
		},
		"coords": [
			{
				"x": -4.3837116288,
				"y": -0.2886797693,
				"z": -1.5508447432,
				"element": "C" 
			},
			{
				"x": -2.939684432,
				"y": -0.0646794728,
				"z": -2.0091778122,
				"element": "C" 
			},
			{
				"x": -2.7185144361,
				"y": 1.3367910906,
				"z": -2.5861315359,
				"element": "C" 
			},
			{
				"x": -2.5078429294,
				"y": -1.1396350835,
				"z": -3.0093496802,
				"element": "C" 
			},
			{
				"x": -2.0179578111,
				"y": -0.2901255917,
				"z": -0.8776936234,
				"element": "O" 
			},
			{
				"x": -2.0995552085,
				"y": 0.4422409379,
				"z": 0.2523030373,
				"element": "C" 
			},
			{
				"x": -2.8316281038,
				"y": 1.4030148663,
				"z": 0.4294783594,
				"element": "O" 
			},
			{
				"x": -1.2439432814,
				"y": -0.0558595534,
				"z": 1.2216716235,
				"element": "N" 
			},
			{
				"x": -0.8664033791,
				"y": 0.8734630565,
				"z": 2.2920304192,
				"element": "C" 
			},
			{
				"x": 0.5315685537,
				"y": 1.3576215772,
				"z": 2.0254606296,
				"element": "C" 
			},
			{
				"x": 1.398049475,
				"y": 0.8055072749,
				"z": 1.1137630204,
				"element": "C" 
			},
			{
				"x": 1.0362001463,
				"y": -0.3970269251,
				"z": 0.2847034778,
				"element": "C" 
			},
			{
				"x": -0.2004046401,
				"y": -1.0502422892,
				"z": 0.9244248406,
				"element": "C" 
			},
			{
				"x": -0.6982388959,
				"y": -2.2771976402,
				"z": 0.1701743915,
				"element": "C" 
			},
			{
				"x": -1.8319100213,
				"y": -2.7798236697,
				"z": 0.707704861,
				"element": "O" 
			},
			{
				"x": -0.1003171542,
				"y": -2.8166129731,
				"z": -0.7330416101,
				"element": "O" 
			},
			{
				"x": 2.6172918717,
				"y": 1.5690055963,
				"z": 1.1799452045,
				"element": "C" 
			},
			{
				"x": 2.4210306981,
				"y": 2.5753448943,
				"z": 2.1683841294,
				"element": "C" 
			},
			{
				"x": 1.1433526589,
				"y": 2.4138664544,
				"z": 2.6764113191,
				"element": "N" 
			},
			{
				"x": 3.4113491296,
				"y": 3.5070927428,
				"z": 2.4909983611,
				"element": "C" 
			},
			{
				"x": 4.6217628753,
				"y": 3.4211141019,
				"z": 1.809949147,
				"element": "C" 
			},
			{
				"x": 4.8406439982,
				"y": 2.4297870379,
				"z": 0.8325110754,
				"element": "C" 
			},
			{
				"x": 3.8524611744,
				"y": 1.5058811696,
				"z": 0.5128635377,
				"element": "C" 
			},
			{
				"x": -4.4846917899,
				"y": -1.27534905,
				"z": -1.0880088047,
				"element": "H" 
			},
			{
				"x": -4.6901463737,
				"y": 0.4716469447,
				"z": -0.8319209658,
				"element": "H" 
			},
			{
				"x": -5.052778353,
				"y": -0.2470012477,
				"z": -2.4163365719,
				"element": "H" 
			},
			{
				"x": -2.9982551922,
				"y": 2.1054225011,
				"z": -1.8657849259,
				"element": "H" 
			},
			{
				"x": -1.6680768077,
				"y": 1.4727488434,
				"z": -2.861790217,
				"element": "H" 
			},
			{
				"x": -3.3247062276,
				"y": 1.458690405,
				"z": -3.4897244606,
				"element": "H" 
			},
			{
				"x": -1.4556122685,
				"y": -1.0173032603,
				"z": -3.2795685133,
				"element": "H" 
			},
			{
				"x": -3.1130139727,
				"y": -1.0665917871,
				"z": -3.9178358245,
				"element": "H" 
			},
			{
				"x": -2.6348815664,
				"y": -2.1401196781,
				"z": -2.5869179867,
				"element": "H" 
			},
			{
				"x": -1.5970870665,
				"y": 1.6856098964,
				"z": 2.2903078839,
				"element": "H" 
			},
			{
				"x": -0.9382826177,
				"y": 0.3600033788,
				"z": 3.2621063754,
				"element": "H" 
			},
			{
				"x": 0.8130714845,
				"y": -0.1344752871,
				"z": -0.7565466899,
				"element": "H" 
			},
			{
				"x": 1.8528671163,
				"y": -1.126278079,
				"z": 0.251565399,
				"element": "H" 
			},
			{
				"x": 0.098857155,
				"y": -1.4431411681,
				"z": 1.9072841151,
				"element": "H" 
			},
			{
				"x": -2.0330165624,
				"y": -3.5821481667,
				"z": 0.1977496403,
				"element": "H" 
			},
			{
				"x": 0.6983937013,
				"y": 3.028961569,
				"z": 3.3382685577,
				"element": "H" 
			},
			{
				"x": 3.2446157018,
				"y": 4.2707505581,
				"z": 3.245778977,
				"element": "H" 
			},
			{
				"x": 5.4119956532,
				"y": 4.1306188081,
				"z": 2.0373024386,
				"element": "H" 
			},
			{
				"x": 5.7983107513,
				"y": 2.3906093782,
				"z": 0.321633945,
				"element": "H" 
			},
			{
				"x": 4.0314385752,
				"y": 0.7469976086,
				"z": -0.2439008013,
				"element": "H" 
			}
		],
		 "valence_orbital": [ 
			{
				"type": "occ",
				"energy": -0.26947,
				"method": "rhf"
			},
			{
				"type": "occ",
				"energy": -0.26653,
				"method": "rhf"
			},
			{
				"type": "occ",
				"energy": -0.24919,
				"method": "rhf"
			},
			{
				"type": "occ",
				"energy": -0.21704,
				"method": "rhf"
			},
			{
				"type": "occ",
				"energy": -0.19741,
				"method": "rhf"
			},
			{
				"type": "unocc",
				"energy": -0.0067,
				"method": "rhf"
			},
			{
				"type": "unocc",
				"energy": 0.00526,
				"method": "rhf"
			},
			{
				"type": "unocc",
				"energy": 0.02868,
				"method": "rhf"
			},
			{
				"type": "unocc",
				"energy": 0.04378,
				"method": "rhf"
			},
			{
				"type": "unocc",
				"energy": 0.06121,
				"method": "rhf"
			}
		],
		"cosmo_sigma_profile": { 
			"-0.025": 0.0,
			"-0.024": 0.0,
			"-0.023": 0.0,
			"-0.022": 0.0,
			"-0.021": 0.0,
			"-0.02": 0.0,
			"-0.019": 0.00177405595578,
			"-0.018": 0.605916728914,
			"-0.017": 1.29635757974,
			"-0.016": 0.429148004184,
			"-0.015": 2.32750779803,
			"-0.014": 2.60378922565,
			"-0.013": 1.53447583739,
			"-0.012": 2.07057545108,
			"-0.011": 2.13670637651,
			"-0.01": 1.85402145942,
			"-0.009": 2.33610447241,
			"-0.008": 5.53567645607,
			"-0.007": 6.25922094845,
			"-0.006": 9.25576620243,
			"-0.005": 14.8690985792,
			"-0.004": 28.264057263,
			"-0.003": 30.2623785764,
			"-0.002": 28.7933759713,
			"-0.001": 29.5072441581,
			"0.0": 34.842167612,
			"0.001": 25.8503949251,
			"0.002": 13.97807607,
			"0.003": 15.4245719981,
			"0.004": 17.1034546716,
			"0.005": 17.8742118701,
			"0.006": 16.7664438078,
			"0.007": 12.0860403882,
			"0.008": 6.19618414877,
			"0.009": 5.09253336965,
			"0.01": 3.85634941118,
			"0.011": 5.5086432069,
			"0.012": 5.62372103714,
			"0.013": 1.83363575316,
			"0.014": 0.0,
			"0.015": 0.0,
			"0.016": 0.0,
			"0.017": 0.0,
			"0.018": 0.0,
			"0.019": 0.0,
			"0.02": 0.0,
			"0.021": 0.0,
			"0.022": 0.0,
			"0.023": 0.0,
			"0.024": 0.0,
			"0.025": 0.0
		}
	}
}
