{
	 "smiles": "OC(=O)C1CCSCC1", 
	 "Tm": 383.15, 
	 "num_atms": 19, 
	 "gaussian": { 
		 "optdone": 1, 
		 "sigma_profile": "yes", 
		 "theory": "DFT", 
		 "functional": "B3LYP", 
		 "basiset": "6-31G**", 
		 "properties": { 
			 "R2extent": 2011.3049, 
			 "electric_dipole_moment_norm": 2.73974918925, 
			 "electric_quadrupole_moment_norm": 8.80125068328, 
			 "total_energy": -783.317268074, 
			 "HOMO_LUMO_gap": 0.22449, 
			 "cosmo_polarized_energy": -11.23, 
			 "cosmo_cavitation_energy": 22.02, 
			 "cosmo_dispersion_energy": -17.12, 
			 "cosmo_repulsion_energy": 1.36, 
			 "cosmo_total_nonelectrostatic_energy": 6.26, 
			 "SMD_solvation_energy": 3.95 
		},
		"coords": [
			{
				"x": -2.3069634974,
				"y": -2.6055007707,
				"z": -1.9017988778,
				"element": "O" 
			},
			{
				"x": -2.3037653762,
				"y": -1.6296238894,
				"z": -0.9569533094,
				"element": "C" 
			},
			{
				"x": -3.0205137114,
				"y": -1.6815814793,
				"z": 0.0175755591,
				"element": "O" 
			},
			{
				"x": -1.3877261279,
				"y": -0.4650119429,
				"z": -1.3258653342,
				"element": "C" 
			},
			{
				"x": -0.1881568199,
				"y": -0.8676407329,
				"z": -2.2070237609,
				"element": "C" 
			},
			{
				"x": 0.7329108933,
				"y": -1.927752172,
				"z": -1.5764866743,
				"element": "C" 
			},
			{
				"x": 0.8832714133,
				"y": -1.7690810031,
				"z": 0.2601619366,
				"element": "S" 
			},
			{
				"x": 0.4722768557,
				"y": 0.012854683,
				"z": 0.4030893681,
				"element": "C" 
			},
			{
				"x": -0.9580199407,
				"y": 0.3307654512,
				"z": -0.0661857834,
				"element": "C" 
			},
			{
				"x": -2.9488844931,
				"y": -3.2673804377,
				"z": -1.5937148133,
				"element": "H" 
			},
			{
				"x": -2.0359442713,
				"y": 0.183946731,
				"z": -1.9318508553,
				"element": "H" 
			},
			{
				"x": -0.5395909058,
				"y": -1.2448448282,
				"z": -3.1718884626,
				"element": "H" 
			},
			{
				"x": 0.3855799085,
				"y": 0.041976026,
				"z": -2.4173097661,
				"element": "H" 
			},
			{
				"x": 1.7275164238,
				"y": -1.8792963382,
				"z": -2.0291857192,
				"element": "H" 
			},
			{
				"x": 0.3298055285,
				"y": -2.9278620205,
				"z": -1.7491965698,
				"element": "H" 
			},
			{
				"x": 0.5971785858,
				"y": 0.2637204646,
				"z": 1.4595149826,
				"element": "H" 
			},
			{
				"x": 1.2176183573,
				"y": 0.5908392655,
				"z": -0.1526149509,
				"element": "H" 
			},
			{
				"x": -1.671764479,
				"y": 0.1145745411,
				"z": 0.7320870515,
				"element": "H" 
			},
			{
				"x": -1.0187283435,
				"y": 1.4054984527,
				"z": -0.2768540208,
				"element": "H" 
			}
		],
		 "valence_orbital": [ 
			{
				"type": "occ",
				"energy": -0.32114,
				"method": "rhf"
			},
			{
				"type": "occ",
				"energy": -0.31716,
				"method": "rhf"
			},
			{
				"type": "occ",
				"energy": -0.29651,
				"method": "rhf"
			},
			{
				"type": "occ",
				"energy": -0.27295,
				"method": "rhf"
			},
			{
				"type": "occ",
				"energy": -0.21638,
				"method": "rhf"
			},
			{
				"type": "unocc",
				"energy": 0.00811,
				"method": "rhf"
			},
			{
				"type": "unocc",
				"energy": 0.04036,
				"method": "rhf"
			},
			{
				"type": "unocc",
				"energy": 0.0686,
				"method": "rhf"
			},
			{
				"type": "unocc",
				"energy": 0.08075,
				"method": "rhf"
			},
			{
				"type": "unocc",
				"energy": 0.08703,
				"method": "rhf"
			}
		],
		"cosmo_sigma_profile": { 
			"-0.025": 0.0,
			"-0.024": 0.0,
			"-0.023": 0.0,
			"-0.022": 0.0,
			"-0.021": 0.0,
			"-0.02": 0.0,
			"-0.019": 0.0,
			"-0.018": 0.418781603081,
			"-0.017": 1.19807710894,
			"-0.016": 0.498071688936,
			"-0.015": 1.02264014198,
			"-0.014": 0.545135104546,
			"-0.013": 0.896642038535,
			"-0.012": 0.591380777266,
			"-0.011": 0.637309526033,
			"-0.01": 0.525031577958,
			"-0.009": 0.89582094492,
			"-0.008": 0.571368008698,
			"-0.007": 1.83137664578,
			"-0.006": 5.70503293063,
			"-0.005": 10.519852688,
			"-0.004": 21.0317751359,
			"-0.003": 19.1141262459,
			"-0.002": 19.7644306698,
			"-0.001": 15.7960114038,
			"0.0": 8.1108123431,
			"0.001": 6.08637489538,
			"0.002": 5.57236207473,
			"0.003": 5.58433089501,
			"0.004": 4.92392788859,
			"0.005": 5.79573200628,
			"0.006": 5.72185097649,
			"0.007": 5.17431787724,
			"0.008": 5.73973559591,
			"0.009": 5.64469921064,
			"0.01": 3.49166529839,
			"0.011": 4.99268003249,
			"0.012": 4.6953703905,
			"0.013": 0.273509399606,
			"0.014": 0.0,
			"0.015": 0.0,
			"0.016": 0.0,
			"0.017": 0.0,
			"0.018": 0.0,
			"0.019": 0.0,
			"0.02": 0.0,
			"0.021": 0.0,
			"0.022": 0.0,
			"0.023": 0.0,
			"0.024": 0.0,
			"0.025": 0.0
		}
	}
}
