{
	 "smiles": "CCCCCC1=NOC(N)=C1", 
	 "Tm": 314.15, 
	 "num_atms": 25, 
	 "gaussian": { 
		 "optdone": 1, 
		 "sigma_profile": "yes", 
		 "theory": "DFT", 
		 "functional": "B3LYP", 
		 "basiset": "6-31G**", 
		 "properties": { 
			 "R2extent": 2241.4781, 
			 "electric_dipole_moment_norm": 3.56512659383, 
			 "electric_quadrupole_moment_norm": 14.0988555376, 
			 "total_energy": -497.979667034, 
			 "HOMO_LUMO_gap": 0.22857, 
			 "cosmo_polarized_energy": -11.95, 
			 "cosmo_cavitation_energy": 27.05, 
			 "cosmo_dispersion_energy": -19.48, 
			 "cosmo_repulsion_energy": 1.61, 
			 "cosmo_total_nonelectrostatic_energy": 9.18, 
			 "SMD_solvation_energy": 4.65 
		},
		"coords": [
			{
				"x": -2.0269749516,
				"y": -1.451142081,
				"z": -1.0048134938,
				"element": "C" 
			},
			{
				"x": -0.7975338525,
				"y": -1.8763219588,
				"z": -0.1938277909,
				"element": "C" 
			},
			{
				"x": 0.5025205617,
				"y": -1.9623951562,
				"z": -1.0126490851,
				"element": "C" 
			},
			{
				"x": 1.0467690696,
				"y": -0.6501955412,
				"z": -1.606455055,
				"element": "C" 
			},
			{
				"x": 1.5445715304,
				"y": 0.3815492405,
				"z": -0.5721738443,
				"element": "C" 
			},
			{
				"x": 0.4822219338,
				"y": 1.2442853924,
				"z": 0.0611676904,
				"element": "C" 
			},
			{
				"x": -0.5112165012,
				"y": 1.7147793664,
				"z": -0.662968723,
				"element": "N" 
			},
			{
				"x": -1.2733908284,
				"y": 2.5140245971,
				"z": 0.233551174,
				"element": "O" 
			},
			{
				"x": -0.6910145052,
				"y": 2.4840818533,
				"z": 1.4424274973,
				"element": "C" 
			},
			{
				"x": -1.2767460997,
				"y": 3.2596112186,
				"z": 2.4146385182,
				"element": "N" 
			},
			{
				"x": 0.4296824073,
				"y": 1.6949879685,
				"z": 1.4113458245,
				"element": "C" 
			},
			{
				"x": -2.1781373749,
				"y": -2.1126296829,
				"z": -1.8666012284,
				"element": "H" 
			},
			{
				"x": -2.9337340611,
				"y": -1.4965058933,
				"z": -0.3916729575,
				"element": "H" 
			},
			{
				"x": -1.9280473666,
				"y": -0.4257608196,
				"z": -1.3716344195,
				"element": "H" 
			},
			{
				"x": -0.9818673116,
				"y": -2.8646679014,
				"z": 0.2482258008,
				"element": "H" 
			},
			{
				"x": -0.6622536274,
				"y": -1.1899018114,
				"z": 0.651455396,
				"element": "H" 
			},
			{
				"x": 1.2874596082,
				"y": -2.4078986474,
				"z": -0.3846335894,
				"element": "H" 
			},
			{
				"x": 0.3439953774,
				"y": -2.6689987125,
				"z": -1.8393612373,
				"element": "H" 
			},
			{
				"x": 0.3002120503,
				"y": -0.1769751097,
				"z": -2.2523009478,
				"element": "H" 
			},
			{
				"x": 1.894705117,
				"y": -0.9055638736,
				"z": -2.2537228726,
				"element": "H" 
			},
			{
				"x": 2.2619479983,
				"y": 1.0543815661,
				"z": -1.0599797524,
				"element": "H" 
			},
			{
				"x": 2.1021777872,
				"y": -0.1259066682,
				"z": 0.2244120753,
				"element": "H" 
			},
			{
				"x": -1.098085108,
				"y": 2.9651882315,
				"z": 3.3637495759,
				"element": "H" 
			},
			{
				"x": -2.2470703953,
				"y": 3.4850855034,
				"z": 2.2399898544,
				"element": "H" 
			},
			{
				"x": 1.1148085422,
				"y": 1.4742889193,
				"z": 2.2149315902,
				"element": "H" 
			}
		],
		 "valence_orbital": [ 
			{
				"type": "occ",
				"energy": -0.30901,
				"method": "rhf"
			},
			{
				"type": "occ",
				"energy": -0.30604,
				"method": "rhf"
			},
			{
				"type": "occ",
				"energy": -0.28758,
				"method": "rhf"
			},
			{
				"type": "occ",
				"energy": -0.26992,
				"method": "rhf"
			},
			{
				"type": "occ",
				"energy": -0.21496,
				"method": "rhf"
			},
			{
				"type": "unocc",
				"energy": 0.01361,
				"method": "rhf"
			},
			{
				"type": "unocc",
				"energy": 0.0587,
				"method": "rhf"
			},
			{
				"type": "unocc",
				"energy": 0.08092,
				"method": "rhf"
			},
			{
				"type": "unocc",
				"energy": 0.09359,
				"method": "rhf"
			},
			{
				"type": "unocc",
				"energy": 0.11054,
				"method": "rhf"
			}
		],
		"cosmo_sigma_profile": { 
			"-0.025": 0.0,
			"-0.024": 0.0,
			"-0.023": 0.0,
			"-0.022": 0.0,
			"-0.021": 0.0,
			"-0.02": 0.0,
			"-0.019": 0.0,
			"-0.018": 0.0,
			"-0.017": 0.0,
			"-0.016": 0.0,
			"-0.015": 0.290208959137,
			"-0.014": 2.45130234682,
			"-0.013": 2.382415039,
			"-0.012": 3.23938880087,
			"-0.011": 2.35381529271,
			"-0.01": 2.38320645012,
			"-0.009": 2.03263507735,
			"-0.008": 1.54085792022,
			"-0.007": 3.96159899922,
			"-0.006": 3.63209614494,
			"-0.005": 4.00157658914,
			"-0.004": 7.21763990361,
			"-0.003": 10.3458068391,
			"-0.002": 20.4135590161,
			"-0.001": 25.4592565939,
			"0.0": 26.616217996,
			"0.001": 26.8154254036,
			"0.002": 17.9082758194,
			"0.003": 8.68787696341,
			"0.004": 8.59079523613,
			"0.005": 4.62611076311,
			"0.006": 3.75622810939,
			"0.007": 4.13738122547,
			"0.008": 3.57282281122,
			"0.009": 4.41730284043,
			"0.01": 3.44810288978,
			"0.011": 2.03156910829,
			"0.012": 1.37734297279,
			"0.013": 1.25530549897,
			"0.014": 0.964054993295,
			"0.015": 0.658639819163,
			"0.016": 0.184856036362,
			"0.017": 0.0,
			"0.018": 0.0,
			"0.019": 0.0,
			"0.02": 0.0,
			"0.021": 0.0,
			"0.022": 0.0,
			"0.023": 0.0,
			"0.024": 0.0,
			"0.025": 0.0
		}
	}
}
