{
	 "smiles": "CCNCC1=CC(NC(=O)C2=CC(Cl)=CN2)=CC=C1", 
	 "Tm": 400.15, 
	 "num_atms": 35, 
	 "gaussian": { 
		 "optdone": 1, 
		 "sigma_profile": "yes", 
		 "theory": "DFT", 
		 "functional": "B3LYP", 
		 "basiset": "6-31G**", 
		 "properties": { 
			 "R2extent": 7658.2337, 
			 "electric_dipole_moment_norm": 6.380821252, 
			 "electric_quadrupole_moment_norm": 20.1390898744, 
			 "total_energy": -1242.80212207, 
			 "HOMO_LUMO_gap": 0.18576, 
			 "cosmo_polarized_energy": -17.44, 
			 "cosmo_cavitation_energy": 40.5, 
			 "cosmo_dispersion_energy": -27.54, 
			 "cosmo_repulsion_energy": 2.2, 
			 "cosmo_total_nonelectrostatic_energy": 15.16, 
			 "SMD_solvation_energy": 6.01 
		},
		"coords": [
			{
				"x": 0.8580897037,
				"y": -0.1655034593,
				"z": -3.3570043325,
				"element": "C" 
			},
			{
				"x": 2.2487737934,
				"y": -0.1747572714,
				"z": -2.7213945349,
				"element": "C" 
			},
			{
				"x": 2.2226426573,
				"y": -0.0375175962,
				"z": -1.2605627304,
				"element": "N" 
			},
			{
				"x": 1.808320027,
				"y": -1.2304252352,
				"z": -0.5236316442,
				"element": "C" 
			},
			{
				"x": 0.3188977715,
				"y": -1.2859911076,
				"z": -0.2097036416,
				"element": "C" 
			},
			{
				"x": -0.3914963049,
				"y": -0.1080946888,
				"z": 0.0424780397,
				"element": "C" 
			},
			{
				"x": -1.7475274519,
				"y": -0.1537725571,
				"z": 0.3947556691,
				"element": "C" 
			},
			{
				"x": -2.4986795943,
				"y": 1.0287308505,
				"z": 0.6308679065,
				"element": "N" 
			},
			{
				"x": -2.118788512,
				"y": 2.2375423558,
				"z": 1.2055082001,
				"element": "C" 
			},
			{
				"x": -2.7233181104,
				"y": 3.2652841565,
				"z": 0.9168511779,
				"element": "O" 
			},
			{
				"x": -1.0556725433,
				"y": 2.2524709817,
				"z": 2.2267599575,
				"element": "C" 
			},
			{
				"x": -0.4668805892,
				"y": 3.3881227664,
				"z": 2.7667571829,
				"element": "C" 
			},
			{
				"x": 0.4269071227,
				"y": 2.9478233031,
				"z": 3.7650470654,
				"element": "C" 
			},
			{
				"x": 1.4381924958,
				"y": 3.9527528128,
				"z": 4.7608168715,
				"element": "Cl" 
			},
			{
				"x": 0.3673693391,
				"y": 1.5660822796,
				"z": 3.8318682148,
				"element": "C" 
			},
			{
				"x": -0.5378028432,
				"y": 1.1588877849,
				"z": 2.8941754572,
				"element": "N" 
			},
			{
				"x": -2.4035705931,
				"y": -1.3921706409,
				"z": 0.4716322476,
				"element": "C" 
			},
			{
				"x": -1.7027643761,
				"y": -2.5643422126,
				"z": 0.1940566941,
				"element": "C" 
			},
			{
				"x": -0.3475351565,
				"y": -2.5150453038,
				"z": -0.137327907,
				"element": "C" 
			},
			{
				"x": 0.9443582347,
				"y": -0.2142767646,
				"z": -4.44772979,
				"element": "H" 
			},
			{
				"x": 0.2569868085,
				"y": -1.0195740472,
				"z": -3.0318530343,
				"element": "H" 
			},
			{
				"x": 0.3178932571,
				"y": 0.7475049398,
				"z": -3.0905274807,
				"element": "H" 
			},
			{
				"x": 2.8243475669,
				"y": 0.6725698495,
				"z": -3.1115014029,
				"element": "H" 
			},
			{
				"x": 2.7817456195,
				"y": -1.0924551886,
				"z": -3.0359475092,
				"element": "H" 
			},
			{
				"x": 3.1435920735,
				"y": 0.2433681493,
				"z": -0.9431635648,
				"element": "H" 
			},
			{
				"x": 2.3494469991,
				"y": -1.2329557167,
				"z": 0.4322179858,
				"element": "H" 
			},
			{
				"x": 2.0981140587,
				"y": -2.1640564183,
				"z": -1.0386125154,
				"element": "H" 
			},
			{
				"x": 0.1198402094,
				"y": 0.8418407731,
				"z": -0.0672591501,
				"element": "H" 
			},
			{
				"x": -3.3454939122,
				"y": 1.1410520827,
				"z": 0.0859315695,
				"element": "H" 
			},
			{
				"x": -0.681420473,
				"y": 4.4024890081,
				"z": 2.4687184476,
				"element": "H" 
			},
			{
				"x": 0.8935844365,
				"y": 0.8707796768,
				"z": 4.4672624479,
				"element": "H" 
			},
			{
				"x": -0.7701869029,
				"y": 0.1990394318,
				"z": 2.6921469565,
				"element": "H" 
			},
			{
				"x": -3.4542472742,
				"y": -1.423924463,
				"z": 0.7452279005,
				"element": "H" 
			},
			{
				"x": -2.2156594229,
				"y": -3.5206760155,
				"z": 0.2414915928,
				"element": "H" 
			},
			{
				"x": 0.1925418856,
				"y": -3.4343025158,
				"z": -0.3500523468,
				"element": "H" 
			}
		],
		 "valence_orbital": [ 
			{
				"type": "occ",
				"energy": -0.25674,
				"method": "rhf"
			},
			{
				"type": "occ",
				"energy": -0.246,
				"method": "rhf"
			},
			{
				"type": "occ",
				"energy": -0.23444,
				"method": "rhf"
			},
			{
				"type": "occ",
				"energy": -0.23183,
				"method": "rhf"
			},
			{
				"type": "occ",
				"energy": -0.21984,
				"method": "rhf"
			},
			{
				"type": "unocc",
				"energy": -0.03408,
				"method": "rhf"
			},
			{
				"type": "unocc",
				"energy": -0.01622,
				"method": "rhf"
			},
			{
				"type": "unocc",
				"energy": -0.00534,
				"method": "rhf"
			},
			{
				"type": "unocc",
				"energy": 0.04249,
				"method": "rhf"
			},
			{
				"type": "unocc",
				"energy": 0.05374,
				"method": "rhf"
			}
		],
		"cosmo_sigma_profile": { 
			"-0.025": 0.0,
			"-0.024": 0.0,
			"-0.023": 0.0,
			"-0.022": 0.0,
			"-0.021": 0.0,
			"-0.02": 0.0,
			"-0.019": 0.0,
			"-0.018": 0.0,
			"-0.017": 0.0,
			"-0.016": 0.0361555936731,
			"-0.015": 0.414805951914,
			"-0.014": 1.35478915427,
			"-0.013": 1.84804602447,
			"-0.012": 1.67628644789,
			"-0.011": 2.02254262189,
			"-0.01": 3.21178603024,
			"-0.009": 6.6185666747,
			"-0.008": 5.27862675689,
			"-0.007": 6.80441710337,
			"-0.006": 10.1899844429,
			"-0.005": 14.3629699133,
			"-0.004": 15.9450863068,
			"-0.003": 20.9649050445,
			"-0.002": 24.450832004,
			"-0.001": 33.6884880882,
			"0.0": 29.8923221944,
			"0.001": 26.1985774949,
			"0.002": 23.4729441069,
			"0.003": 24.0869134785,
			"0.004": 24.7902871497,
			"0.005": 19.4779495243,
			"0.006": 3.46267720082,
			"0.007": 2.31114715682,
			"0.008": 2.01682136675,
			"0.009": 2.20337133481,
			"0.01": 2.09156709572,
			"0.011": 2.78016332373,
			"0.012": 2.20652536323,
			"0.013": 5.97529825198,
			"0.014": 2.94469835167,
			"0.015": 0.0238733027401,
			"0.016": 0.0,
			"0.017": 0.0,
			"0.018": 0.0,
			"0.019": 0.0,
			"0.02": 0.0,
			"0.021": 0.0,
			"0.022": 0.0,
			"0.023": 0.0,
			"0.024": 0.0,
			"0.025": 0.0
		}
	}
}
