{
	 "smiles": "CC(C)C1CCC(C)CC1OC(=O)C(=CC1=CC=CC=C1)C(C)=O", 
	 "Tm": 406.15, 
	 "num_atms": 52, 
	 "gaussian": { 
		 "optdone": 1, 
		 "sigma_profile": "yes", 
		 "theory": "DFT", 
		 "functional": "B3LYP", 
		 "basiset": "6-31G**", 
		 "properties": { 
			 "R2extent": 8399.7305, 
			 "electric_dipole_moment_norm": 3.70298247903, 
			 "electric_quadrupole_moment_norm": 18.8528187778, 
			 "total_energy": -1042.80336403, 
			 "HOMO_LUMO_gap": 0.16469, 
			 "cosmo_polarized_energy": -11.78, 
			 "cosmo_cavitation_energy": 51.95, 
			 "cosmo_dispersion_energy": -32.13, 
			 "cosmo_repulsion_energy": 2.43, 
			 "cosmo_total_nonelectrostatic_energy": 22.24, 
			 "SMD_solvation_energy": 8.96 
		},
		"coords": [
			{
				"x": 2.7987286174,
				"y": -0.4525129771,
				"z": -2.8014047425,
				"element": "C" 
			},
			{
				"x": 2.2556474799,
				"y": -0.283600413,
				"z": -1.3718214749,
				"element": "C" 
			},
			{
				"x": 3.2330577044,
				"y": -0.9368983925,
				"z": -0.3800032541,
				"element": "C" 
			},
			{
				"x": 1.9808276344,
				"y": 1.2050515196,
				"z": -1.0364847682,
				"element": "C" 
			},
			{
				"x": 1.1011949634,
				"y": 1.9115394496,
				"z": -2.105296754,
				"element": "C" 
			},
			{
				"x": 0.3991243114,
				"y": 3.1879104136,
				"z": -1.5877292838,
				"element": "C" 
			},
			{
				"x": 1.2149289232,
				"y": 3.8799209737,
				"z": -0.4858091913,
				"element": "C" 
			},
			{
				"x": 0.6177340809,
				"y": 5.2286484515,
				"z": -0.071025342,
				"element": "C" 
			},
			{
				"x": 1.3591808004,
				"y": 2.9318436516,
				"z": 0.7281783388,
				"element": "C" 
			},
			{
				"x": 1.3900189244,
				"y": 1.4346631322,
				"z": 0.3603321988,
				"element": "C" 
			},
			{
				"x": 0.0275974828,
				"y": 0.8853238032,
				"z": 0.3300556424,
				"element": "O" 
			},
			{
				"x": -0.5234223939,
				"y": 0.5294786951,
				"z": 1.5050458665,
				"element": "C" 
			},
			{
				"x": 0.0330538964,
				"y": 0.6296132025,
				"z": 2.5828493852,
				"element": "O" 
			},
			{
				"x": -1.9353230904,
				"y": 0.0479957995,
				"z": 1.3274261386,
				"element": "C" 
			},
			{
				"x": -2.277572197,
				"y": -1.1627434285,
				"z": 0.8354851362,
				"element": "C" 
			},
			{
				"x": -1.4365282638,
				"y": -2.2873899903,
				"z": 0.4252673193,
				"element": "C" 
			},
			{
				"x": -1.9665547427,
				"y": -3.2135843643,
				"z": -0.494036092,
				"element": "C" 
			},
			{
				"x": -1.2183390268,
				"y": -4.3070048279,
				"z": -0.9219885215,
				"element": "C" 
			},
			{
				"x": 0.0670468771,
				"y": -4.5137789357,
				"z": -0.4161320466,
				"element": "C" 
			},
			{
				"x": 0.5948942649,
				"y": -3.6218304211,
				"z": 0.521343412,
				"element": "C" 
			},
			{
				"x": -0.1452522587,
				"y": -2.5180959312,
				"z": 0.9389819268,
				"element": "C" 
			},
			{
				"x": -3.0534752361,
				"y": 0.9721282422,
				"z": 1.7420847525,
				"element": "C" 
			},
			{
				"x": -2.6785435008,
				"y": 2.3023502057,
				"z": 2.362616292,
				"element": "C" 
			},
			{
				"x": -4.2211398254,
				"y": 0.6537661466,
				"z": 1.5806984806,
				"element": "O" 
			},
			{
				"x": 3.7393443923,
				"y": 0.0977874108,
				"z": -2.9323820082,
				"element": "H" 
			},
			{
				"x": 3.0039746291,
				"y": -1.5077128102,
				"z": -3.0102333165,
				"element": "H" 
			},
			{
				"x": 2.0957452089,
				"y": -0.0988525583,
				"z": -3.5599875012,
				"element": "H" 
			},
			{
				"x": 1.2974248726,
				"y": -0.8162080349,
				"z": -1.3070304021,
				"element": "H" 
			},
			{
				"x": 4.1973313055,
				"y": -0.413078845,
				"z": -0.3749058379,
				"element": "H" 
			},
			{
				"x": 3.4256326587,
				"y": -1.9768837781,
				"z": -0.6634624273,
				"element": "H" 
			},
			{
				"x": 2.8535949771,
				"y": -0.9477935722,
				"z": 0.6456522956,
				"element": "H" 
			},
			{
				"x": 2.9577930101,
				"y": 1.7129980971,
				"z": -1.0118967725,
				"element": "H" 
			},
			{
				"x": 0.3459195871,
				"y": 1.2087394237,
				"z": -2.4738728874,
				"element": "H" 
			},
			{
				"x": 1.7337793382,
				"y": 2.1653136622,
				"z": -2.9624244807,
				"element": "H" 
			},
			{
				"x": 0.2226055878,
				"y": 3.8792766327,
				"z": -2.4201952511,
				"element": "H" 
			},
			{
				"x": -0.5872371504,
				"y": 2.9300556909,
				"z": -1.183080117,
				"element": "H" 
			},
			{
				"x": 2.2197691624,
				"y": 4.0726030103,
				"z": -0.8903235369,
				"element": "H" 
			},
			{
				"x": 0.5914028085,
				"y": 5.9280468129,
				"z": -0.913661719,
				"element": "H" 
			},
			{
				"x": 1.1993371208,
				"y": 5.694304282,
				"z": 0.7325721677,
				"element": "H" 
			},
			{
				"x": -0.410195832,
				"y": 5.1064837678,
				"z": 0.2920749423,
				"element": "H" 
			},
			{
				"x": 2.2786138897,
				"y": 3.1691280742,
				"z": 1.2769145456,
				"element": "H" 
			},
			{
				"x": 0.5406792511,
				"y": 3.094378992,
				"z": 1.437837803,
				"element": "H" 
			},
			{
				"x": 1.9305464779,
				"y": 0.8881011699,
				"z": 1.1331900901,
				"element": "H" 
			},
			{
				"x": -3.3526876814,
				"y": -1.3146284238,
				"z": 0.7413310989,
				"element": "H" 
			},
			{
				"x": -2.9711156403,
				"y": -3.059628009,
				"z": -0.8788809949,
				"element": "H" 
			},
			{
				"x": -1.6406084378,
				"y": -5.0030586844,
				"z": -1.6407945761,
				"element": "H" 
			},
			{
				"x": 0.6482635023,
				"y": -5.3729123668,
				"z": -0.738223444,
				"element": "H" 
			},
			{
				"x": 1.5830372613,
				"y": -3.7929506188,
				"z": 0.9380062903,
				"element": "H" 
			},
			{
				"x": 0.2598459572,
				"y": -1.8583357082,
				"z": 1.6985029988,
				"element": "H" 
			},
			{
				"x": -3.5876607789,
				"y": 2.8442281456,
				"z": 2.6239158915,
				"element": "H" 
			},
			{
				"x": -2.0878540813,
				"y": 2.8986304754,
				"z": 1.6564546926,
				"element": "H" 
			},
			{
				"x": -2.0567668216,
				"y": 2.1499737574,
				"z": 3.2501690379,
				"element": "H" 
			}
		],
		 "valence_orbital": [ 
			{
				"type": "occ",
				"energy": -0.28933,
				"method": "rhf"
			},
			{
				"type": "occ",
				"energy": -0.27922,
				"method": "rhf"
			},
			{
				"type": "occ",
				"energy": -0.26134,
				"method": "rhf"
			},
			{
				"type": "occ",
				"energy": -0.24916,
				"method": "rhf"
			},
			{
				"type": "occ",
				"energy": -0.23699,
				"method": "rhf"
			},
			{
				"type": "unocc",
				"energy": -0.0723,
				"method": "rhf"
			},
			{
				"type": "unocc",
				"energy": -0.0141,
				"method": "rhf"
			},
			{
				"type": "unocc",
				"energy": -0.00032,
				"method": "rhf"
			},
			{
				"type": "unocc",
				"energy": 0.00497,
				"method": "rhf"
			},
			{
				"type": "unocc",
				"energy": 0.05816,
				"method": "rhf"
			}
		],
		"cosmo_sigma_profile": { 
			"-0.025": 0.0,
			"-0.024": 0.0,
			"-0.023": 0.0,
			"-0.022": 0.0,
			"-0.021": 0.0,
			"-0.02": 0.0,
			"-0.019": 0.0,
			"-0.018": 0.0,
			"-0.017": 0.0,
			"-0.016": 0.0,
			"-0.015": 0.0,
			"-0.014": 0.0,
			"-0.013": 0.0,
			"-0.012": 0.0,
			"-0.011": 0.0,
			"-0.01": 0.0,
			"-0.009": 0.0,
			"-0.008": 0.210431907463,
			"-0.007": 3.12025663741,
			"-0.006": 9.88335098935,
			"-0.005": 16.9079464958,
			"-0.004": 26.9024950218,
			"-0.003": 35.6393483562,
			"-0.002": 57.9104682694,
			"-0.001": 58.3449573088,
			"0.0": 49.1950628672,
			"0.001": 43.2346764694,
			"0.002": 32.8960980278,
			"0.003": 17.6865659999,
			"0.004": 15.6917511284,
			"0.005": 6.25362912906,
			"0.006": 5.47874155714,
			"0.007": 3.26742261198,
			"0.008": 2.02523964484,
			"0.009": 3.54215519623,
			"0.01": 3.84444520261,
			"0.011": 6.31231496905,
			"0.012": 6.05517268602,
			"0.013": 1.14591301902,
			"0.014": 0.0,
			"0.015": 0.0,
			"0.016": 0.0,
			"0.017": 0.0,
			"0.018": 0.0,
			"0.019": 0.0,
			"0.02": 0.0,
			"0.021": 0.0,
			"0.022": 0.0,
			"0.023": 0.0,
			"0.024": 0.0,
			"0.025": 0.0
		}
	}
}
