{
	 "smiles": "NC(=O)C1OCCC2=C1C=CC=C2", 
	 "Tm": 443.15, 
	 "num_atms": 24, 
	 "gaussian": { 
		 "optdone": 1, 
		 "sigma_profile": "yes", 
		 "theory": "DFT", 
		 "functional": "B3LYP", 
		 "basiset": "6-31G**", 
		 "properties": { 
			 "R2extent": 3316.3079, 
			 "electric_dipole_moment_norm": 2.99503176277, 
			 "electric_quadrupole_moment_norm": 13.0041501568, 
			 "total_energy": -592.904636932, 
			 "HOMO_LUMO_gap": 0.22843, 
			 "cosmo_polarized_energy": -12.84, 
			 "cosmo_cavitation_energy": 26.27, 
			 "cosmo_dispersion_energy": -19.79, 
			 "cosmo_repulsion_energy": 1.57, 
			 "cosmo_total_nonelectrostatic_energy": 8.05, 
			 "SMD_solvation_energy": 4.76 
		},
		"coords": [
			{
				"x": 1.4281467397,
				"y": 0.5011146134,
				"z": 4.3996544622,
				"element": "N" 
			},
			{
				"x": 0.4919560456,
				"y": -0.1758976248,
				"z": 3.6819172105,
				"element": "C" 
			},
			{
				"x": 0.3806640701,
				"y": -1.3930233706,
				"z": 3.6852348932,
				"element": "O" 
			},
			{
				"x": -0.480828239,
				"y": 0.7470164373,
				"z": 2.891891721,
				"element": "C" 
			},
			{
				"x": -0.0622290919,
				"y": 2.1104359193,
				"z": 2.9479396554,
				"element": "O" 
			},
			{
				"x": 0.823715186,
				"y": 2.4888954996,
				"z": 1.888694712,
				"element": "C" 
			},
			{
				"x": 0.0944381835,
				"y": 2.4219933153,
				"z": 0.5554944911,
				"element": "C" 
			},
			{
				"x": -0.519515073,
				"y": 1.0521422539,
				"z": 0.3678101084,
				"element": "C" 
			},
			{
				"x": -0.7795995695,
				"y": 0.2430039682,
				"z": 1.4856703326,
				"element": "C" 
			},
			{
				"x": -1.3524078211,
				"y": -1.0244613883,
				"z": 1.3052411177,
				"element": "C" 
			},
			{
				"x": -1.6614835704,
				"y": -1.4859993724,
				"z": 0.0282798317,
				"element": "C" 
			},
			{
				"x": -1.4033750434,
				"y": -0.6841273428,
				"z": -1.0861208743,
				"element": "C" 
			},
			{
				"x": -0.8343373487,
				"y": 0.5741944211,
				"z": -0.9107664071,
				"element": "C" 
			},
			{
				"x": 1.3603681276,
				"y": 1.5043860685,
				"z": 4.4727760684,
				"element": "H" 
			},
			{
				"x": 2.0029897401,
				"y": -0.0232340906,
				"z": 5.0412592854,
				"element": "H" 
			},
			{
				"x": -1.4130376417,
				"y": 0.7206222135,
				"z": 3.4719997326,
				"element": "H" 
			},
			{
				"x": 1.7090910384,
				"y": 1.8358446276,
				"z": 1.8795901483,
				"element": "H" 
			},
			{
				"x": 1.1482116298,
				"y": 3.5062484263,
				"z": 2.1243426765,
				"element": "H" 
			},
			{
				"x": -0.686346119,
				"y": 3.1942509121,
				"z": 0.5396905446,
				"element": "H" 
			},
			{
				"x": 0.7853679361,
				"y": 2.6497989058,
				"z": -0.2651307723,
				"element": "H" 
			},
			{
				"x": -1.5314591225,
				"y": -1.6503806193,
				"z": 2.1713006747,
				"element": "H" 
			},
			{
				"x": -2.1029927752,
				"y": -2.4705175384,
				"z": -0.0962602257,
				"element": "H" 
			},
			{
				"x": -1.6414255063,
				"y": -1.0391808379,
				"z": -2.0848253781,
				"element": "H" 
			},
			{
				"x": -0.6252117752,
				"y": 1.2014746032,
				"z": -1.7743840089,
				"element": "H" 
			}
		],
		 "valence_orbital": [ 
			{
				"type": "occ",
				"energy": -0.2917,
				"method": "rhf"
			},
			{
				"type": "occ",
				"energy": -0.26816,
				"method": "rhf"
			},
			{
				"type": "occ",
				"energy": -0.24572,
				"method": "rhf"
			},
			{
				"type": "occ",
				"energy": -0.2391,
				"method": "rhf"
			},
			{
				"type": "occ",
				"energy": -0.23004,
				"method": "rhf"
			},
			{
				"type": "unocc",
				"energy": -0.00161,
				"method": "rhf"
			},
			{
				"type": "unocc",
				"energy": 0.00383,
				"method": "rhf"
			},
			{
				"type": "unocc",
				"energy": 0.03046,
				"method": "rhf"
			},
			{
				"type": "unocc",
				"energy": 0.08553,
				"method": "rhf"
			},
			{
				"type": "unocc",
				"energy": 0.10398,
				"method": "rhf"
			}
		],
		"cosmo_sigma_profile": { 
			"-0.025": 0.0,
			"-0.024": 0.0,
			"-0.023": 0.0,
			"-0.022": 0.0,
			"-0.021": 0.0,
			"-0.02": 0.0,
			"-0.019": 0.0,
			"-0.018": 0.0,
			"-0.017": 0.0,
			"-0.016": 0.0,
			"-0.015": 0.0,
			"-0.014": 0.679349311505,
			"-0.013": 1.60719672118,
			"-0.012": 1.54754028781,
			"-0.011": 1.74570044258,
			"-0.01": 1.88051901838,
			"-0.009": 2.81525214705,
			"-0.008": 1.66271352284,
			"-0.007": 3.32973951669,
			"-0.006": 5.84258916637,
			"-0.005": 14.549073844,
			"-0.004": 21.7306066999,
			"-0.003": 26.2218307844,
			"-0.002": 17.4803864737,
			"-0.001": 12.6796820126,
			"0.0": 9.66482005594,
			"0.001": 10.9657381897,
			"0.002": 9.73131627968,
			"0.003": 9.42174040283,
			"0.004": 8.43438277556,
			"0.005": 10.6119492777,
			"0.006": 10.8384749588,
			"0.007": 3.4733407016,
			"0.008": 2.472513373,
			"0.009": 2.48105361212,
			"0.01": 2.21559584527,
			"0.011": 3.08897929705,
			"0.012": 2.77720000903,
			"0.013": 4.03220241326,
			"0.014": 3.1898141575,
			"0.015": 0.389077259996,
			"0.016": 0.0,
			"0.017": 0.0,
			"0.018": 0.0,
			"0.019": 0.0,
			"0.02": 0.0,
			"0.021": 0.0,
			"0.022": 0.0,
			"0.023": 0.0,
			"0.024": 0.0,
			"0.025": 0.0
		}
	}
}
