{
	 "smiles": "COC1=CC=C(C=CC)C=C1", 
	 "Tm": 295.15, 
	 "num_atms": 23, 
	 "gaussian": { 
		 "optdone": 1, 
		 "sigma_profile": "yes", 
		 "theory": "DFT", 
		 "functional": "B3LYP", 
		 "basiset": "6-31G**", 
		 "properties": { 
			 "R2extent": 2860.0805, 
			 "electric_dipole_moment_norm": 1.40784396152, 
			 "electric_quadrupole_moment_norm": 8.46295380467, 
			 "total_energy": -463.499123311, 
			 "HOMO_LUMO_gap": 0.17891, 
			 "cosmo_polarized_energy": -6.18, 
			 "cosmo_cavitation_energy": 26.5, 
			 "cosmo_dispersion_energy": -19.53, 
			 "cosmo_repulsion_energy": 1.57, 
			 "cosmo_total_nonelectrostatic_energy": 8.55, 
			 "SMD_solvation_energy": 5.54 
		},
		"coords": [
			{
				"x": 3.0111573604,
				"y": -2.7000570801,
				"z": -1.5539137634,
				"element": "C" 
			},
			{
				"x": 2.2028173755,
				"y": -1.854147679,
				"z": -2.3549736602,
				"element": "O" 
			},
			{
				"x": 1.1748485222,
				"y": -1.1848479009,
				"z": -1.7548205302,
				"element": "C" 
			},
			{
				"x": 0.853022082,
				"y": -1.2697605096,
				"z": -0.3933020484,
				"element": "C" 
			},
			{
				"x": -0.221482051,
				"y": -0.5399841313,
				"z": 0.1127085681,
				"element": "C" 
			},
			{
				"x": -1.0051167759,
				"y": 0.2899989647,
				"z": -0.7050515015,
				"element": "C" 
			},
			{
				"x": -2.146404804,
				"y": 1.0777957924,
				"z": -0.2175876212,
				"element": "C" 
			},
			{
				"x": -2.6262250867,
				"y": 1.149944395,
				"z": 1.0332115541,
				"element": "C" 
			},
			{
				"x": -3.8030348818,
				"y": 1.9846085372,
				"z": 1.4448092891,
				"element": "C" 
			},
			{
				"x": -0.6591394093,
				"y": 0.3562284838,
				"z": -2.0693252176,
				"element": "C" 
			},
			{
				"x": 0.406981767,
				"y": -0.3629515829,
				"z": -2.5908814449,
				"element": "C" 
			},
			{
				"x": 3.7581212911,
				"y": -3.1277619328,
				"z": -2.2246233475,
				"element": "H" 
			},
			{
				"x": 2.4264521673,
				"y": -3.5119126889,
				"z": -1.1018864044,
				"element": "H" 
			},
			{
				"x": 3.5202666557,
				"y": -2.1410108063,
				"z": -0.757923002,
				"element": "H" 
			},
			{
				"x": 1.4288258444,
				"y": -1.8971161838,
				"z": 0.2770631367,
				"element": "H" 
			},
			{
				"x": -0.4478773905,
				"y": -0.6253322204,
				"z": 1.1713249993,
				"element": "H" 
			},
			{
				"x": -2.6487280975,
				"y": 1.6680458161,
				"z": -0.9855215664,
				"element": "H" 
			},
			{
				"x": -2.1518775635,
				"y": 0.5755248522,
				"z": 1.8287451202,
				"element": "H" 
			},
			{
				"x": -3.5245476023,
				"y": 2.7172633967,
				"z": 2.2139115153,
				"element": "H" 
			},
			{
				"x": -4.2254628698,
				"y": 2.5306470608,
				"z": 0.5956417915,
				"element": "H" 
			},
			{
				"x": -4.5994457963,
				"y": 1.3663785087,
				"z": 1.8799648186,
				"element": "H" 
			},
			{
				"x": -1.2443419116,
				"y": 0.9890302272,
				"z": -2.7321538796,
				"element": "H" 
			},
			{
				"x": 0.6660911747,
				"y": -0.3056833189,
				"z": -3.6431168054,
				"element": "H" 
			}
		],
		 "valence_orbital": [ 
			{
				"type": "occ",
				"energy": -0.32769,
				"method": "rhf"
			},
			{
				"type": "occ",
				"energy": -0.31981,
				"method": "rhf"
			},
			{
				"type": "occ",
				"energy": -0.264,
				"method": "rhf"
			},
			{
				"type": "occ",
				"energy": -0.24714,
				"method": "rhf"
			},
			{
				"type": "occ",
				"energy": -0.19555,
				"method": "rhf"
			},
			{
				"type": "unocc",
				"energy": -0.01664,
				"method": "rhf"
			},
			{
				"type": "unocc",
				"energy": 0.005,
				"method": "rhf"
			},
			{
				"type": "unocc",
				"energy": 0.07518,
				"method": "rhf"
			},
			{
				"type": "unocc",
				"energy": 0.09553,
				"method": "rhf"
			},
			{
				"type": "unocc",
				"energy": 0.1072,
				"method": "rhf"
			}
		],
		"cosmo_sigma_profile": { 
			"-0.025": 0.0,
			"-0.024": 0.0,
			"-0.023": 0.0,
			"-0.022": 0.0,
			"-0.021": 0.0,
			"-0.02": 0.0,
			"-0.019": 0.0,
			"-0.018": 0.0,
			"-0.017": 0.0,
			"-0.016": 0.0,
			"-0.015": 0.0,
			"-0.014": 0.0,
			"-0.013": 0.0,
			"-0.012": 0.0,
			"-0.011": 0.0,
			"-0.01": 0.0,
			"-0.009": 0.0,
			"-0.008": 0.0,
			"-0.007": 0.367922208449,
			"-0.006": 7.69961247618,
			"-0.005": 19.4967184,
			"-0.004": 21.3438217834,
			"-0.003": 24.0255294884,
			"-0.002": 18.5518236549,
			"-0.001": 16.1146589658,
			"0.0": 16.0966775533,
			"0.001": 12.9774005812,
			"0.002": 9.98625917618,
			"0.003": 12.1162964549,
			"0.004": 13.5039753606,
			"0.005": 16.2435342837,
			"0.006": 13.1009650429,
			"0.007": 3.41884590577,
			"0.008": 1.39907769203,
			"0.009": 1.76752973324,
			"0.01": 1.20805785703,
			"0.011": 0.680655808806,
			"0.012": 0.0,
			"0.013": 0.0,
			"0.014": 0.0,
			"0.015": 0.0,
			"0.016": 0.0,
			"0.017": 0.0,
			"0.018": 0.0,
			"0.019": 0.0,
			"0.02": 0.0,
			"0.021": 0.0,
			"0.022": 0.0,
			"0.023": 0.0,
			"0.024": 0.0,
			"0.025": 0.0
		}
	}
}
