{
	 "smiles": "CC(C)CNC(=O)C(C)NC1=CC(Br)=CC=C1", 
	 "Tm": 366.15, 
	 "num_atms": 36, 
	 "gaussian": { 
		 "optdone": 1, 
		 "sigma_profile": "yes", 
		 "theory": "DFT", 
		 "functional": "B3LYP", 
		 "basiset": "6-31G**", 
		 "properties": { 
			 "R2extent": 6756.6315, 
			 "electric_dipole_moment_norm": 4.60374392207, 
			 "electric_quadrupole_moment_norm": 7.5829751615, 
			 "total_energy": -3263.00484217, 
			 "HOMO_LUMO_gap": 0.19927, 
			 "cosmo_polarized_energy": -14.71, 
			 "cosmo_cavitation_energy": 40.91, 
			 "cosmo_dispersion_energy": -27.01, 
			 "cosmo_repulsion_energy": 2.14, 
			 "cosmo_total_nonelectrostatic_energy": 16.04, 
			 "SMD_solvation_energy": 5.52 
		},
		"coords": [
			{
				"x": 0.776679585,
				"y": 3.4973376729,
				"z": 1.5867319611,
				"element": "C" 
			},
			{
				"x": -0.1716984077,
				"y": 2.8682373113,
				"z": 2.6156400188,
				"element": "C" 
			},
			{
				"x": -0.2858611013,
				"y": 3.7369934643,
				"z": 3.8756097703,
				"element": "C" 
			},
			{
				"x": -1.575767769,
				"y": 2.617047819,
				"z": 2.0302022291,
				"element": "C" 
			},
			{
				"x": -1.6001448627,
				"y": 1.7096056065,
				"z": 0.8919642519,
				"element": "N" 
			},
			{
				"x": -1.7993038379,
				"y": 0.3744291264,
				"z": 1.0313136187,
				"element": "C" 
			},
			{
				"x": -2.012589423,
				"y": -0.1888101333,
				"z": 2.1006215328,
				"element": "O" 
			},
			{
				"x": -1.8116431054,
				"y": -0.4373249194,
				"z": -0.2837418456,
				"element": "C" 
			},
			{
				"x": -3.2595831132,
				"y": -0.8307933854,
				"z": -0.6024441152,
				"element": "C" 
			},
			{
				"x": -1.2223092243,
				"y": 0.2754933605,
				"z": -1.4176543284,
				"element": "N" 
			},
			{
				"x": 0.1467922874,
				"y": 0.2152950062,
				"z": -1.6994357237,
				"element": "C" 
			},
			{
				"x": 1.0918146321,
				"y": -0.1030440206,
				"z": -0.7072753671,
				"element": "C" 
			},
			{
				"x": 2.4461922295,
				"y": -0.113506601,
				"z": -1.0360846309,
				"element": "C" 
			},
			{
				"x": 3.7130617002,
				"y": -0.5532223297,
				"z": 0.3300431495,
				"element": "Br" 
			},
			{
				"x": 2.9071255576,
				"y": 0.1829927286,
				"z": -2.3148245543,
				"element": "C" 
			},
			{
				"x": 1.9593506584,
				"y": 0.5012898884,
				"z": -3.2917875376,
				"element": "C" 
			},
			{
				"x": 0.6013259023,
				"y": 0.519207191,
				"z": -2.9973555034,
				"element": "C" 
			},
			{
				"x": 0.8944675093,
				"y": 2.8611115935,
				"z": 0.7037796291,
				"element": "H" 
			},
			{
				"x": 1.7730569299,
				"y": 3.6498418359,
				"z": 2.0141782345,
				"element": "H" 
			},
			{
				"x": 0.4053999306,
				"y": 4.4762803584,
				"z": 1.2562274137,
				"element": "H" 
			},
			{
				"x": 0.2299124886,
				"y": 1.8882755811,
				"z": 2.9059876732,
				"element": "H" 
			},
			{
				"x": -0.7020847608,
				"y": 4.7242055086,
				"z": 3.6381288543,
				"element": "H" 
			},
			{
				"x": -0.9343503,
				"y": 3.2721410222,
				"z": 4.6260878329,
				"element": "H" 
			},
			{
				"x": 0.6959121906,
				"y": 3.8953417957,
				"z": 4.3333828729,
				"element": "H" 
			},
			{
				"x": -2.0240889794,
				"y": 3.5700150175,
				"z": 1.7201158964,
				"element": "H" 
			},
			{
				"x": -2.2170933482,
				"y": 2.175204414,
				"z": 2.7976554004,
				"element": "H" 
			},
			{
				"x": -1.384420638,
				"y": 2.0396550914,
				"z": -0.0386229078,
				"element": "H" 
			},
			{
				"x": -1.2438187481,
				"y": -1.3517875366,
				"z": -0.066599388,
				"element": "H" 
			},
			{
				"x": -3.7046669738,
				"y": -1.3087193746,
				"z": 0.2718887138,
				"element": "H" 
			},
			{
				"x": -3.8555004512,
				"y": 0.0542983562,
				"z": -0.8519606416,
				"element": "H" 
			},
			{
				"x": -3.2975620032,
				"y": -1.5305249318,
				"z": -1.4437428754,
				"element": "H" 
			},
			{
				"x": -1.7974138623,
				"y": 0.2570860765,
				"z": -2.2496043701,
				"element": "H" 
			},
			{
				"x": 0.7854816473,
				"y": -0.3336033584,
				"z": 0.3048544027,
				"element": "H" 
			},
			{
				"x": 3.9661048926,
				"y": 0.1662041905,
				"z": -2.5407240974,
				"element": "H" 
			},
			{
				"x": 2.2902521449,
				"y": 0.7343344638,
				"z": -4.2997892178,
				"element": "H" 
			},
			{
				"x": -0.1204293767,
				"y": 0.7674121102,
				"z": -3.7716663521,
				"element": "H" 
			}
		],
		 "valence_orbital": [ 
			{
				"type": "occ",
				"energy": -0.28314,
				"method": "rhf"
			},
			{
				"type": "occ",
				"energy": -0.2494,
				"method": "rhf"
			},
			{
				"type": "occ",
				"energy": -0.24756,
				"method": "rhf"
			},
			{
				"type": "occ",
				"energy": -0.24255,
				"method": "rhf"
			},
			{
				"type": "occ",
				"energy": -0.21381,
				"method": "rhf"
			},
			{
				"type": "unocc",
				"energy": -0.01454,
				"method": "rhf"
			},
			{
				"type": "unocc",
				"energy": -0.0,
				"method": "rhf"
			},
			{
				"type": "unocc",
				"energy": 0.00964,
				"method": "rhf"
			},
			{
				"type": "unocc",
				"energy": 0.0279,
				"method": "rhf"
			},
			{
				"type": "unocc",
				"energy": 0.07197,
				"method": "rhf"
			}
		],
		"cosmo_sigma_profile": { 
			"-0.025": 0.0,
			"-0.024": 0.0,
			"-0.023": 0.0,
			"-0.022": 0.0,
			"-0.021": 0.0,
			"-0.02": 0.0,
			"-0.019": 0.0,
			"-0.018": 0.0,
			"-0.017": 0.0,
			"-0.016": 0.0,
			"-0.015": 0.0,
			"-0.014": 0.0323637668024,
			"-0.013": 0.650138338839,
			"-0.012": 1.17334801305,
			"-0.011": 2.25510190357,
			"-0.01": 1.33519703468,
			"-0.009": 2.10440595754,
			"-0.008": 3.21168698659,
			"-0.007": 3.7867106684,
			"-0.006": 9.33222712823,
			"-0.005": 14.5815045005,
			"-0.004": 21.1046626224,
			"-0.003": 30.111815759,
			"-0.002": 33.6304802363,
			"-0.001": 35.2464294575,
			"0.0": 34.034966502,
			"0.001": 32.4103294508,
			"0.002": 21.1379609884,
			"0.003": 18.2753656277,
			"0.004": 20.3508746169,
			"0.005": 19.0526315808,
			"0.006": 2.83986596152,
			"0.007": 0.947433156172,
			"0.008": 1.69575397266,
			"0.009": 1.46152150177,
			"0.01": 1.12821381805,
			"0.011": 0.865527180611,
			"0.012": 1.79136874109,
			"0.013": 1.94785951352,
			"0.014": 4.81932201702,
			"0.015": 2.66715702524,
			"0.016": 0.123444613401,
			"0.017": 0.0,
			"0.018": 0.0,
			"0.019": 0.0,
			"0.02": 0.0,
			"0.021": 0.0,
			"0.022": 0.0,
			"0.023": 0.0,
			"0.024": 0.0,
			"0.025": 0.0
		}
	}
}
