{
	 "smiles": "CCCN1C(=O)N(C)C(=O)C2=C1N=C(N=C2S)C(C)C", 
	 "Tm": 478.15, 
	 "num_atms": 38, 
	 "gaussian": { 
		 "optdone": 1, 
		 "sigma_profile": "yes", 
		 "theory": "DFT", 
		 "functional": "B3LYP", 
		 "basiset": "6-31G**", 
		 "properties": { 
			 "R2extent": 6461.419, 
			 "electric_dipole_moment_norm": 2.05539457039, 
			 "electric_quadrupole_moment_norm": 12.7850366405, 
			 "total_energy": -1273.95743841, 
			 "HOMO_LUMO_gap": 0.18185, 
			 "cosmo_polarized_energy": -10.48, 
			 "cosmo_cavitation_energy": 41.21, 
			 "cosmo_dispersion_energy": -28.94, 
			 "cosmo_repulsion_energy": 2.19, 
			 "cosmo_total_nonelectrostatic_energy": 14.46, 
			 "SMD_solvation_energy": 5.77 
		},
		"coords": [
			{
				"x": -0.8723478445,
				"y": -2.6704454373,
				"z": 2.7773584023,
				"element": "C" 
			},
			{
				"x": -1.2772631641,
				"y": -3.5629477474,
				"z": 1.6005356071,
				"element": "C" 
			},
			{
				"x": -1.8026132181,
				"y": -2.8091784336,
				"z": 0.3719155981,
				"element": "C" 
			},
			{
				"x": -0.7953664579,
				"y": -1.913747976,
				"z": -0.2481180065,
				"element": "N" 
			},
			{
				"x": 0.16322232,
				"y": -2.5319173381,
				"z": -1.0493117201,
				"element": "C" 
			},
			{
				"x": 0.1766600378,
				"y": -3.7389623401,
				"z": -1.2292042454,
				"element": "O" 
			},
			{
				"x": 1.1178636236,
				"y": -1.7029791557,
				"z": -1.6436436174,
				"element": "N" 
			},
			{
				"x": 2.1196300232,
				"y": -2.3895072296,
				"z": -2.4712804539,
				"element": "C" 
			},
			{
				"x": 1.1786849274,
				"y": -0.3129922396,
				"z": -1.5163026864,
				"element": "C" 
			},
			{
				"x": 2.0726337601,
				"y": 0.3148900853,
				"z": -2.0905979582,
				"element": "O" 
			},
			{
				"x": 0.1335305823,
				"y": 0.284107106,
				"z": -0.6829063975,
				"element": "C" 
			},
			{
				"x": -0.8348131038,
				"y": -0.542578621,
				"z": -0.0670547311,
				"element": "C" 
			},
			{
				"x": -1.8193888428,
				"y": -0.0598738846,
				"z": 0.701423765,
				"element": "N" 
			},
			{
				"x": -1.8567329639,
				"y": 1.2655138815,
				"z": 0.8720312168,
				"element": "C" 
			},
			{
				"x": -0.9947190482,
				"y": 2.1446268125,
				"z": 0.3480224379,
				"element": "N" 
			},
			{
				"x": -0.0077445844,
				"y": 1.6755721986,
				"z": -0.4209536527,
				"element": "C" 
			},
			{
				"x": 1.0435318369,
				"y": 2.9435615411,
				"z": -1.0384146198,
				"element": "S" 
			},
			{
				"x": -2.9678656524,
				"y": 1.8271572612,
				"z": 1.7358698562,
				"element": "C" 
			},
			{
				"x": -2.3835620299,
				"y": 2.5318617148,
				"z": 2.9742873113,
				"element": "C" 
			},
			{
				"x": -3.8577958935,
				"y": 2.7821954065,
				"z": 0.9192967551,
				"element": "C" 
			},
			{
				"x": -1.7041511368,
				"y": -2.0410446647,
				"z": 3.1086372646,
				"element": "H" 
			},
			{
				"x": -0.0420261596,
				"y": -2.0071199542,
				"z": 2.5132045429,
				"element": "H" 
			},
			{
				"x": -0.5465270676,
				"y": -3.278781462,
				"z": 3.6270076707,
				"element": "H" 
			},
			{
				"x": -2.0788876866,
				"y": -4.2442826728,
				"z": 1.9135558755,
				"element": "H" 
			},
			{
				"x": -0.4387487146,
				"y": -4.1958425936,
				"z": 1.2926348535,
				"element": "H" 
			},
			{
				"x": -2.0976293245,
				"y": -3.5223093736,
				"z": -0.3995788003,
				"element": "H" 
			},
			{
				"x": -2.6519846769,
				"y": -2.1802688959,
				"z": 0.6321527949,
				"element": "H" 
			},
			{
				"x": 1.6251692621,
				"y": -2.9074883169,
				"z": -3.2952842634,
				"element": "H" 
			},
			{
				"x": 2.80595515,
				"y": -1.636525241,
				"z": -2.8487274082,
				"element": "H" 
			},
			{
				"x": 2.6493842911,
				"y": -3.1286095969,
				"z": -1.8678166777,
				"element": "H" 
			},
			{
				"x": 1.8502275515,
				"y": 2.087969973,
				"z": -1.7195126649,
				"element": "H" 
			},
			{
				"x": -3.5659541596,
				"y": 0.9697872208,
				"z": 2.0610393416,
				"element": "H" 
			},
			{
				"x": -3.1911992689,
				"y": 2.9212637047,
				"z": 3.6024480999,
				"element": "H" 
			},
			{
				"x": -1.7444615219,
				"y": 3.366662935,
				"z": 2.6730018275,
				"element": "H" 
			},
			{
				"x": -1.7849804878,
				"y": 1.8441477736,
				"z": 3.580478914,
				"element": "H" 
			},
			{
				"x": -4.3105666727,
				"y": 2.2726921503,
				"z": 0.0624725054,
				"element": "H" 
			},
			{
				"x": -3.2704194729,
				"y": 3.6249716337,
				"z": 0.5441792082,
				"element": "H" 
			},
			{
				"x": -4.6658442122,
				"y": 3.172821776,
				"z": 1.5461540549,
				"element": "H" 
			}
		],
		 "valence_orbital": [ 
			{
				"type": "occ",
				"energy": -0.28825,
				"method": "rhf"
			},
			{
				"type": "occ",
				"energy": -0.27833,
				"method": "rhf"
			},
			{
				"type": "occ",
				"energy": -0.26455,
				"method": "rhf"
			},
			{
				"type": "occ",
				"energy": -0.26027,
				"method": "rhf"
			},
			{
				"type": "occ",
				"energy": -0.25007,
				"method": "rhf"
			},
			{
				"type": "unocc",
				"energy": -0.06822,
				"method": "rhf"
			},
			{
				"type": "unocc",
				"energy": -0.04363,
				"method": "rhf"
			},
			{
				"type": "unocc",
				"energy": 0.0021,
				"method": "rhf"
			},
			{
				"type": "unocc",
				"energy": 0.03261,
				"method": "rhf"
			},
			{
				"type": "unocc",
				"energy": 0.04987,
				"method": "rhf"
			}
		],
		"cosmo_sigma_profile": { 
			"-0.025": 0.0,
			"-0.024": 0.0,
			"-0.023": 0.0,
			"-0.022": 0.0,
			"-0.021": 0.0,
			"-0.02": 0.0,
			"-0.019": 0.0,
			"-0.018": 0.0,
			"-0.017": 0.0,
			"-0.016": 0.0,
			"-0.015": 0.0,
			"-0.014": 0.0,
			"-0.013": 0.0,
			"-0.012": 0.0,
			"-0.011": 0.0,
			"-0.01": 0.0,
			"-0.009": 0.0805253294385,
			"-0.008": 1.35596258913,
			"-0.007": 2.70558302855,
			"-0.006": 6.20174630195,
			"-0.005": 12.645243912,
			"-0.004": 26.8756865944,
			"-0.003": 46.5494674165,
			"-0.002": 42.739024441,
			"-0.001": 38.285320311,
			"0.0": 33.232953587,
			"0.001": 28.7453960464,
			"0.002": 15.3060241079,
			"0.003": 11.4452060991,
			"0.004": 12.8973761463,
			"0.005": 11.2691636343,
			"0.006": 10.8551247327,
			"0.007": 7.31840163005,
			"0.008": 4.05973745219,
			"0.009": 3.7744169364,
			"0.01": 4.39083282594,
			"0.011": 3.47111686912,
			"0.012": 3.45926641783,
			"0.013": 0.127862119966,
			"0.014": 0.0,
			"0.015": 0.0,
			"0.016": 0.0,
			"0.017": 0.0,
			"0.018": 0.0,
			"0.019": 0.0,
			"0.02": 0.0,
			"0.021": 0.0,
			"0.022": 0.0,
			"0.023": 0.0,
			"0.024": 0.0,
			"0.025": 0.0
		}
	}
}
