{
	 "smiles": "ON=C1CC(CC2=CC=NC=C12)C1=CC=CC=C1", 
	 "Tm": 500.15, 
	 "num_atms": 32, 
	 "gaussian": { 
		 "optdone": 1, 
		 "sigma_profile": "yes", 
		 "theory": "DFT", 
		 "functional": "B3LYP", 
		 "basiset": "6-31G**", 
		 "properties": { 
			 "R2extent": 5601.2842, 
			 "electric_dipole_moment_norm": 2.95646749179, 
			 "electric_quadrupole_moment_norm": 15.9417725771, 
			 "total_energy": -764.714937325, 
			 "HOMO_LUMO_gap": 0.18357, 
			 "cosmo_polarized_energy": -12.83, 
			 "cosmo_cavitation_energy": 35.04, 
			 "cosmo_dispersion_energy": -25.39, 
			 "cosmo_repulsion_energy": 1.95, 
			 "cosmo_total_nonelectrostatic_energy": 11.59, 
			 "SMD_solvation_energy": 4.05 
		},
		"coords": [
			{
				"x": -3.3695656669,
				"y": 0.2048976652,
				"z": -2.5130601972,
				"element": "O" 
			},
			{
				"x": -2.1150531456,
				"y": 0.2382200107,
				"z": -3.1380378106,
				"element": "N" 
			},
			{
				"x": -1.1541284699,
				"y": 0.0784482595,
				"z": -2.2947346708,
				"element": "C" 
			},
			{
				"x": -1.3699256762,
				"y": -0.1151883006,
				"z": -0.8098039363,
				"element": "C" 
			},
			{
				"x": -0.1612688462,
				"y": -0.7599663315,
				"z": -0.1025790038,
				"element": "C" 
			},
			{
				"x": 1.1230942416,
				"y": 0.0144074977,
				"z": -0.4610753327,
				"element": "C" 
			},
			{
				"x": 1.3261177714,
				"y": 0.087979637,
				"z": -1.9560722683,
				"element": "C" 
			},
			{
				"x": 2.6045952245,
				"y": 0.1302293356,
				"z": -2.5211070814,
				"element": "C" 
			},
			{
				"x": 2.7412775673,
				"y": 0.2024381277,
				"z": -3.9035922533,
				"element": "C" 
			},
			{
				"x": 1.6999634415,
				"y": 0.2250070912,
				"z": -4.7508085205,
				"element": "N" 
			},
			{
				"x": 0.481203431,
				"y": 0.1783532973,
				"z": -4.2138568197,
				"element": "C" 
			},
			{
				"x": 0.2239527427,
				"y": 0.1138986727,
				"z": -2.830689143,
				"element": "C" 
			},
			{
				"x": -0.3709533573,
				"y": -0.8827068544,
				"z": 1.3977115976,
				"element": "C" 
			},
			{
				"x": -0.3973670173,
				"y": -2.1437182052,
				"z": 2.0071441712,
				"element": "C" 
			},
			{
				"x": -0.5856550907,
				"y": -2.2754038703,
				"z": 3.3843125015,
				"element": "C" 
			},
			{
				"x": -0.7507345953,
				"y": -1.1409936888,
				"z": 4.1792383283,
				"element": "C" 
			},
			{
				"x": -0.7265276004,
				"y": 0.1231431266,
				"z": 3.5861103404,
				"element": "C" 
			},
			{
				"x": -0.5389116702,
				"y": 0.2493358165,
				"z": 2.2097025518,
				"element": "C" 
			},
			{
				"x": -3.9706806261,
				"y": 0.3114975868,
				"z": -3.2621224598,
				"element": "H" 
			},
			{
				"x": -2.2719233252,
				"y": -0.7139234602,
				"z": -0.6574727752,
				"element": "H" 
			},
			{
				"x": -1.5869552143,
				"y": 0.8648428839,
				"z": -0.3620400824,
				"element": "H" 
			},
			{
				"x": -0.0473927554,
				"y": -1.7753371287,
				"z": -0.5042479467,
				"element": "H" 
			},
			{
				"x": 1.0594139122,
				"y": 1.0327323112,
				"z": -0.0513150767,
				"element": "H" 
			},
			{
				"x": 1.9937011306,
				"y": -0.4511472433,
				"z": 0.0130220702,
				"element": "H" 
			},
			{
				"x": 3.4854149374,
				"y": 0.1047040859,
				"z": -1.8852029138,
				"element": "H" 
			},
			{
				"x": 3.7302925404,
				"y": 0.2379689348,
				"z": -4.3571954684,
				"element": "H" 
			},
			{
				"x": -0.3573340599,
				"y": 0.191576209,
				"z": -4.9046787724,
				"element": "H" 
			},
			{
				"x": -0.2695047345,
				"y": -3.0330974059,
				"z": 1.394584812,
				"element": "H" 
			},
			{
				"x": -0.6032594987,
				"y": -3.264245339,
				"z": 3.8339701849,
				"element": "H" 
			},
			{
				"x": -0.8974465136,
				"y": -1.2395227979,
				"z": 5.2509175532,
				"element": "H" 
			},
			{
				"x": -0.8545898452,
				"y": 1.0131013053,
				"z": 4.1959977791,
				"element": "H" 
			},
			{
				"x": -0.5244492318,
				"y": 1.2419687711,
				"z": 1.7666806428,
				"element": "H" 
			}
		],
		 "valence_orbital": [ 
			{
				"type": "occ",
				"energy": -0.26964,
				"method": "rhf"
			},
			{
				"type": "occ",
				"energy": -0.25349,
				"method": "rhf"
			},
			{
				"type": "occ",
				"energy": -0.24636,
				"method": "rhf"
			},
			{
				"type": "occ",
				"energy": -0.2461,
				"method": "rhf"
			},
			{
				"type": "occ",
				"energy": -0.2278,
				"method": "rhf"
			},
			{
				"type": "unocc",
				"energy": -0.04423,
				"method": "rhf"
			},
			{
				"type": "unocc",
				"energy": -0.0194,
				"method": "rhf"
			},
			{
				"type": "unocc",
				"energy": -0.00522,
				"method": "rhf"
			},
			{
				"type": "unocc",
				"energy": -0.00342,
				"method": "rhf"
			},
			{
				"type": "unocc",
				"energy": 0.04349,
				"method": "rhf"
			}
		],
		"cosmo_sigma_profile": { 
			"-0.025": 0.0,
			"-0.024": 0.0,
			"-0.023": 0.0,
			"-0.022": 0.0,
			"-0.021": 0.0,
			"-0.02": 0.0,
			"-0.019": 0.0,
			"-0.018": 0.115635224908,
			"-0.017": 1.17318738677,
			"-0.016": 0.653921939659,
			"-0.015": 1.09329881843,
			"-0.014": 0.886743869293,
			"-0.013": 0.694817572034,
			"-0.012": 0.254903463907,
			"-0.011": 0.502797933723,
			"-0.01": 0.725622657931,
			"-0.009": 0.911058746494,
			"-0.008": 0.781667630984,
			"-0.007": 2.89038230209,
			"-0.006": 12.6134687206,
			"-0.005": 24.4963789646,
			"-0.004": 26.4427545818,
			"-0.003": 24.7501336679,
			"-0.002": 19.720356747,
			"-0.001": 17.0679997417,
			"0.0": 17.2474397084,
			"0.001": 19.7219276279,
			"0.002": 23.1552288419,
			"0.003": 16.9743696895,
			"0.004": 14.3498356208,
			"0.005": 13.2853678,
			"0.006": 14.5916129053,
			"0.007": 5.66014642749,
			"0.008": 4.90612001577,
			"0.009": 4.65984981149,
			"0.01": 2.21835099511,
			"0.011": 0.922936340126,
			"0.012": 1.06776287473,
			"0.013": 0.957490581069,
			"0.014": 0.902088247305,
			"0.015": 0.978350465409,
			"0.016": 0.843175881086,
			"0.017": 0.41967617979,
			"0.018": 0.0,
			"0.019": 0.0,
			"0.02": 0.0,
			"0.021": 0.0,
			"0.022": 0.0,
			"0.023": 0.0,
			"0.024": 0.0,
			"0.025": 0.0
		}
	}
}
