{
	 "smiles": "CC(C)NC(=O)CNS(=O)(=O)CCC(O)=O", 
	 "Tm": 399.15, 
	 "num_atms": 32, 
	 "gaussian": { 
		 "optdone": 1, 
		 "sigma_profile": "yes", 
		 "theory": "DFT", 
		 "functional": "B3LYP", 
		 "basiset": "6-31G**", 
		 "properties": { 
			 "R2extent": 5112.9321, 
			 "electric_dipole_moment_norm": 6.35756626627, 
			 "electric_quadrupole_moment_norm": 21.8518520076, 
			 "total_energy": -1198.28231716, 
			 "HOMO_LUMO_gap": 0.2547, 
			 "cosmo_polarized_energy": -24.1, 
			 "cosmo_cavitation_energy": 35.43, 
			 "cosmo_dispersion_energy": -25.05, 
			 "cosmo_repulsion_energy": 1.93, 
			 "cosmo_total_nonelectrostatic_energy": 12.31, 
			 "SMD_solvation_energy": 5.57 
		},
		"coords": [
			{
				"x": 2.6642722046,
				"y": 1.9591678663,
				"z": 1.994115926,
				"element": "C" 
			},
			{
				"x": 1.7310883793,
				"y": 0.975164191,
				"z": 1.2768582164,
				"element": "C" 
			},
			{
				"x": 2.0719733454,
				"y": -0.4871796466,
				"z": 1.5977780315,
				"element": "C" 
			},
			{
				"x": 1.77500817,
				"y": 1.2150264901,
				"z": -0.170313765,
				"element": "N" 
			},
			{
				"x": 0.7511809301,
				"y": 1.3713084786,
				"z": -1.0467631643,
				"element": "C" 
			},
			{
				"x": 0.9411693057,
				"y": 1.4431528085,
				"z": -2.2622597145,
				"element": "O" 
			},
			{
				"x": -0.6669271983,
				"y": 1.5248320233,
				"z": -0.4746818785,
				"element": "C" 
			},
			{
				"x": -1.6401103931,
				"y": 1.7669488846,
				"z": -1.533445845,
				"element": "N" 
			},
			{
				"x": -2.6093646214,
				"y": 0.4989718595,
				"z": -2.066955147,
				"element": "S" 
			},
			{
				"x": -3.0950625482,
				"y": -0.1871245105,
				"z": -0.8623792827,
				"element": "O" 
			},
			{
				"x": -3.5306737125,
				"y": 1.0897739834,
				"z": -3.0382814584,
				"element": "O" 
			},
			{
				"x": -1.5402659695,
				"y": -0.6885228862,
				"z": -2.9885189836,
				"element": "C" 
			},
			{
				"x": -1.7592061661,
				"y": -2.1233167964,
				"z": -2.5253339544,
				"element": "C" 
			},
			{
				"x": -1.1280955788,
				"y": -2.4148215187,
				"z": -1.1806961761,
				"element": "C" 
			},
			{
				"x": -1.5846896182,
				"y": -3.5686044209,
				"z": -0.6589241446,
				"element": "O" 
			},
			{
				"x": -0.2765705296,
				"y": -1.7384921234,
				"z": -0.6387938853,
				"element": "O" 
			},
			{
				"x": 2.3879863198,
				"y": 2.9946927303,
				"z": 1.7761454889,
				"element": "H" 
			},
			{
				"x": 3.703066394,
				"y": 1.8101057096,
				"z": 1.6765406695,
				"element": "H" 
			},
			{
				"x": 2.6235877144,
				"y": 1.8084590194,
				"z": 3.0772431523,
				"element": "H" 
			},
			{
				"x": 0.7065782695,
				"y": 1.1723560458,
				"z": 1.6038720326,
				"element": "H" 
			},
			{
				"x": 3.0939063297,
				"y": -0.7221271467,
				"z": 1.2767497097,
				"element": "H" 
			},
			{
				"x": 1.3849083973,
				"y": -1.1646659996,
				"z": 1.0857090298,
				"element": "H" 
			},
			{
				"x": 2.013011436,
				"y": -0.666123439,
				"z": 2.6766024897,
				"element": "H" 
			},
			{
				"x": 2.6735881367,
				"y": 1.1045905111,
				"z": -0.6268706001,
				"element": "H" 
			},
			{
				"x": -0.9608307541,
				"y": 0.6343082035,
				"z": 0.0857754196,
				"element": "H" 
			},
			{
				"x": -0.69061515,
				"y": 2.3712976558,
				"z": 0.223331993,
				"element": "H" 
			},
			{
				"x": -1.2156427958,
				"y": 2.2342605472,
				"z": -2.334107611,
				"element": "H" 
			},
			{
				"x": -1.8246082023,
				"y": -0.5595909064,
				"z": -4.0341044198,
				"element": "H" 
			},
			{
				"x": -0.505256326,
				"y": -0.3680744878,
				"z": -2.8522085044,
				"element": "H" 
			},
			{
				"x": -1.294873047,
				"y": -2.8055909186,
				"z": -3.2497462447,
				"element": "H" 
			},
			{
				"x": -2.8180045715,
				"y": -2.389376683,
				"z": -2.4829239603,
				"element": "H" 
			},
			{
				"x": -1.1238281501,
				"y": -3.6943055243,
				"z": 0.1874865808,
				"element": "H" 
			}
		],
		 "valence_orbital": [ 
			{
				"type": "occ",
				"energy": -0.29269,
				"method": "rhf"
			},
			{
				"type": "occ",
				"energy": -0.29117,
				"method": "rhf"
			},
			{
				"type": "occ",
				"energy": -0.27706,
				"method": "rhf"
			},
			{
				"type": "occ",
				"energy": -0.26372,
				"method": "rhf"
			},
			{
				"type": "occ",
				"energy": -0.25898,
				"method": "rhf"
			},
			{
				"type": "unocc",
				"energy": -0.00428,
				"method": "rhf"
			},
			{
				"type": "unocc",
				"energy": 0.01701,
				"method": "rhf"
			},
			{
				"type": "unocc",
				"energy": 0.05713,
				"method": "rhf"
			},
			{
				"type": "unocc",
				"energy": 0.06475,
				"method": "rhf"
			},
			{
				"type": "unocc",
				"energy": 0.07157,
				"method": "rhf"
			}
		],
		"cosmo_sigma_profile": { 
			"-0.025": 0.0,
			"-0.024": 0.0,
			"-0.023": 0.0,
			"-0.022": 0.0,
			"-0.021": 0.0,
			"-0.02": 0.0,
			"-0.019": 0.111302575316,
			"-0.018": 1.13781250299,
			"-0.017": 0.773458737694,
			"-0.016": 0.642153152315,
			"-0.015": 1.23879588802,
			"-0.014": 0.545059805275,
			"-0.013": 1.26484453353,
			"-0.012": 2.77399168291,
			"-0.011": 2.91485723172,
			"-0.01": 2.45755349865,
			"-0.009": 2.69112152807,
			"-0.008": 9.67538142402,
			"-0.007": 15.4747197267,
			"-0.006": 17.042205354,
			"-0.005": 13.1218516546,
			"-0.004": 18.044754644,
			"-0.003": 21.1706530522,
			"-0.002": 16.3818893091,
			"-0.001": 15.1817766948,
			"0.0": 18.5839204642,
			"0.001": 16.9369538889,
			"0.002": 9.14380486268,
			"0.003": 8.22307356649,
			"0.004": 9.32287141638,
			"0.005": 9.41944306667,
			"0.006": 8.93804642148,
			"0.007": 8.26789932985,
			"0.008": 7.68681453322,
			"0.009": 7.23556934307,
			"0.01": 7.26374153996,
			"0.011": 10.7453617966,
			"0.012": 8.1731678109,
			"0.013": 3.02155163479,
			"0.014": 1.60877066815,
			"0.015": 0.0818828368545,
			"0.016": 0.0,
			"0.017": 0.0,
			"0.018": 0.0,
			"0.019": 0.0,
			"0.02": 0.0,
			"0.021": 0.0,
			"0.022": 0.0,
			"0.023": 0.0,
			"0.024": 0.0,
			"0.025": 0.0
		}
	}
}
