{
	 "smiles": "CCCCCC", 
	 "Tm": 177.95, 
	 "num_atms": 20, 
	 "gaussian": { 
		 "optdone": 1, 
		 "sigma_profile": "yes", 
		 "theory": "DFT", 
		 "functional": "B3LYP", 
		 "basiset": "6-31G**", 
		 "properties": { 
			 "R2extent": 1127.4046, 
			 "electric_dipole_moment_norm": 0.0587396799447, 
			 "electric_quadrupole_moment_norm": 0.281306523209, 
			 "total_energy": -237.097924812, 
			 "HOMO_LUMO_gap": 0.38731, 
			 "cosmo_polarized_energy": -0.53, 
			 "cosmo_cavitation_energy": 21.0, 
			 "cosmo_dispersion_energy": -15.3, 
			 "cosmo_repulsion_energy": 1.34, 
			 "cosmo_total_nonelectrostatic_energy": 7.04, 
			 "SMD_solvation_energy": 3.43 
		},
		"coords": [
			{
				"x": 0.4733032367,
				"y": 1.299955801,
				"z": -3.167402166,
				"element": "C" 
			},
			{
				"x": 0.2007091969,
				"y": -0.1725668536,
				"z": -2.8385435977,
				"element": "C" 
			},
			{
				"x": 0.8365476218,
				"y": -0.6569220538,
				"z": -1.5230863109,
				"element": "C" 
			},
			{
				"x": 0.3385820056,
				"y": 0.0324929684,
				"z": -0.2407207118,
				"element": "C" 
			},
			{
				"x": -1.1478683272,
				"y": -0.1890540179,
				"z": 0.0719567099,
				"element": "C" 
			},
			{
				"x": -1.5784799254,
				"y": 0.4402935901,
				"z": 1.4010619976,
				"element": "C" 
			},
			{
				"x": 0.0350386201,
				"y": 1.9735166424,
				"z": -2.423486489,
				"element": "H" 
			},
			{
				"x": 0.0525291047,
				"y": 1.5709055559,
				"z": -4.1414170951,
				"element": "H" 
			},
			{
				"x": 1.5500462259,
				"y": 1.503911745,
				"z": -3.2025299633,
				"element": "H" 
			},
			{
				"x": -0.8825424824,
				"y": -0.347168558,
				"z": -2.8157120739,
				"element": "H" 
			},
			{
				"x": 0.5849485286,
				"y": -0.7968226904,
				"z": -3.6555124594,
				"element": "H" 
			},
			{
				"x": 0.6683054567,
				"y": -1.7386665811,
				"z": -1.4285064677,
				"element": "H" 
			},
			{
				"x": 1.9252895752,
				"y": -0.5253125407,
				"z": -1.5920721764,
				"element": "H" 
			},
			{
				"x": 0.9340312846,
				"y": -0.3390812086,
				"z": 0.6046357164,
				"element": "H" 
			},
			{
				"x": 0.5399329321,
				"y": 1.1111605636,
				"z": -0.2924291077,
				"element": "H" 
			},
			{
				"x": -1.7655474984,
				"y": 0.2211103089,
				"z": -0.7371281592,
				"element": "H" 
			},
			{
				"x": -1.3545250175,
				"y": -1.2682296929,
				"z": 0.0933029433,
				"element": "H" 
			},
			{
				"x": -1.0096141251,
				"y": 0.0228708204,
				"z": 2.2399305684,
				"element": "H" 
			},
			{
				"x": -2.6411803553,
				"y": 0.2685176825,
				"z": 1.6017461925,
				"element": "H" 
			},
			{
				"x": -1.4121060574,
				"y": 1.5237885189,
				"z": 1.3986126498,
				"element": "H" 
			}
		],
		 "valence_orbital": [ 
			{
				"type": "occ",
				"energy": -0.3408,
				"method": "rhf"
			},
			{
				"type": "occ",
				"energy": -0.3303,
				"method": "rhf"
			},
			{
				"type": "occ",
				"energy": -0.31232,
				"method": "rhf"
			},
			{
				"type": "occ",
				"energy": -0.30926,
				"method": "rhf"
			},
			{
				"type": "occ",
				"energy": -0.30443,
				"method": "rhf"
			},
			{
				"type": "unocc",
				"energy": 0.08288,
				"method": "rhf"
			},
			{
				"type": "unocc",
				"energy": 0.11387,
				"method": "rhf"
			},
			{
				"type": "unocc",
				"energy": 0.12264,
				"method": "rhf"
			},
			{
				"type": "unocc",
				"energy": 0.12801,
				"method": "rhf"
			},
			{
				"type": "unocc",
				"energy": 0.15231,
				"method": "rhf"
			}
		],
		"cosmo_sigma_profile": { 
			"-0.025": 0.0,
			"-0.024": 0.0,
			"-0.023": 0.0,
			"-0.022": 0.0,
			"-0.021": 0.0,
			"-0.02": 0.0,
			"-0.019": 0.0,
			"-0.018": 0.0,
			"-0.017": 0.0,
			"-0.016": 0.0,
			"-0.015": 0.0,
			"-0.014": 0.0,
			"-0.013": 0.0,
			"-0.012": 0.0,
			"-0.011": 0.0,
			"-0.01": 0.0,
			"-0.009": 0.0,
			"-0.008": 0.0,
			"-0.007": 0.0,
			"-0.006": 0.0,
			"-0.005": 0.0,
			"-0.004": 0.0,
			"-0.003": 2.47770591539,
			"-0.002": 21.9103186812,
			"-0.001": 32.6437909322,
			"0.0": 41.2560099405,
			"0.001": 41.4638333085,
			"0.002": 20.2763289967,
			"0.003": 0.864486347494,
			"0.004": 0.0,
			"0.005": 0.0,
			"0.006": 0.0,
			"0.007": 0.0,
			"0.008": 0.0,
			"0.009": 0.0,
			"0.01": 0.0,
			"0.011": 0.0,
			"0.012": 0.0,
			"0.013": 0.0,
			"0.014": 0.0,
			"0.015": 0.0,
			"0.016": 0.0,
			"0.017": 0.0,
			"0.018": 0.0,
			"0.019": 0.0,
			"0.02": 0.0,
			"0.021": 0.0,
			"0.022": 0.0,
			"0.023": 0.0,
			"0.024": 0.0,
			"0.025": 0.0
		}
	}
}
