{
	 "smiles": "NC(CCC(=O)NC(CCC(O)=O)C(O)=O)C(O)=O", 
	 "Tm": 453.15, 
	 "num_atms": 35, 
	 "gaussian": { 
		 "optdone": 1, 
		 "sigma_profile": "yes", 
		 "theory": "DFT", 
		 "functional": "B3LYP", 
		 "basiset": "6-31G**", 
		 "properties": { 
			 "R2extent": 8080.3737, 
			 "electric_dipole_moment_norm": 5.1535780357, 
			 "electric_quadrupole_moment_norm": 17.1783417599, 
			 "total_energy": -1026.84713692, 
			 "HOMO_LUMO_gap": 0.22087, 
			 "cosmo_polarized_energy": -29.21, 
			 "cosmo_cavitation_energy": 39.36, 
			 "cosmo_dispersion_energy": -26.72, 
			 "cosmo_repulsion_energy": 2.14, 
			 "cosmo_total_nonelectrostatic_energy": 14.78, 
			 "SMD_solvation_energy": 9.67 
		},
		"coords": [
			{
				"x": -0.0355583086,
				"y": 3.8832399283,
				"z": -0.5039413531,
				"element": "N" 
			},
			{
				"x": -1.3231903571,
				"y": 4.0530532649,
				"z": -1.1825848309,
				"element": "C" 
			},
			{
				"x": -1.9617587122,
				"y": 2.6986476859,
				"z": -1.580967099,
				"element": "C" 
			},
			{
				"x": -2.5294733709,
				"y": 1.8553277161,
				"z": -0.4152872115,
				"element": "C" 
			},
			{
				"x": -1.6243097682,
				"y": 0.8076821523,
				"z": 0.2427774424,
				"element": "C" 
			},
			{
				"x": -2.0555916906,
				"y": -0.3118159287,
				"z": 0.5173902381,
				"element": "O" 
			},
			{
				"x": -0.3569022833,
				"y": 1.1952997983,
				"z": 0.5332579928,
				"element": "N" 
			},
			{
				"x": 0.5675170879,
				"y": 0.2944039539,
				"z": 1.2031999137,
				"element": "C" 
			},
			{
				"x": 1.086795377,
				"y": -0.8140524706,
				"z": 0.2622351767,
				"element": "C" 
			},
			{
				"x": 2.3143143942,
				"y": -1.5808915422,
				"z": 0.7643084827,
				"element": "C" 
			},
			{
				"x": 3.5677814781,
				"y": -0.7427543918,
				"z": 0.857346615,
				"element": "C" 
			},
			{
				"x": 4.6518776156,
				"y": -1.4961067634,
				"z": 1.1605372881,
				"element": "O" 
			},
			{
				"x": 3.6473636431,
				"y": 0.4594831438,
				"z": 0.6956010269,
				"element": "O" 
			},
			{
				"x": -0.0316840928,
				"y": -0.2809608698,
				"z": 2.4906878379,
				"element": "C" 
			},
			{
				"x": -0.7366362546,
				"y": 0.6402908337,
				"z": 3.1847521467,
				"element": "O" 
			},
			{
				"x": 0.1624576234,
				"y": -1.4002796463,
				"z": 2.9154569348,
				"element": "O" 
			},
			{
				"x": -1.1734866397,
				"y": 4.9306891457,
				"z": -2.4280201434,
				"element": "C" 
			},
			{
				"x": -2.3609869458,
				"y": 5.3894025567,
				"z": -2.8783158155,
				"element": "O" 
			},
			{
				"x": -0.1183892639,
				"y": 5.1772047428,
				"z": -2.9713969717,
				"element": "O" 
			},
			{
				"x": 0.1978150071,
				"y": 4.7247704177,
				"z": 0.0175534143,
				"element": "H" 
			},
			{
				"x": 0.6885358703,
				"y": 3.7955947508,
				"z": -1.2174817963,
				"element": "H" 
			},
			{
				"x": -2.0161302606,
				"y": 4.5630224939,
				"z": -0.5035280358,
				"element": "H" 
			},
			{
				"x": -2.7857679082,
				"y": 2.9215626066,
				"z": -2.2656828334,
				"element": "H" 
			},
			{
				"x": -1.2289912887,
				"y": 2.1177317667,
				"z": -2.1545528152,
				"element": "H" 
			},
			{
				"x": -3.3916105704,
				"y": 1.2858776505,
				"z": -0.76929362,
				"element": "H" 
			},
			{
				"x": -2.9027032806,
				"y": 2.5190927324,
				"z": 0.376651559,
				"element": "H" 
			},
			{
				"x": -0.0809027174,
				"y": 2.1629549781,
				"z": 0.3383967665,
				"element": "H" 
			},
			{
				"x": 1.4209708122,
				"y": 0.9078206522,
				"z": 1.5125298279,
				"element": "H" 
			},
			{
				"x": 0.2712363859,
				"y": -1.5175963034,
				"z": 0.0803869612,
				"element": "H" 
			},
			{
				"x": 1.3281117688,
				"y": -0.3306968391,
				"z": -0.689572782,
				"element": "H" 
			},
			{
				"x": 2.1189235456,
				"y": -2.019208874,
				"z": 1.7482318944,
				"element": "H" 
			},
			{
				"x": 2.5342672014,
				"y": -2.425151353,
				"z": 0.1004194245,
				"element": "H" 
			},
			{
				"x": 5.4014095833,
				"y": -0.8795311382,
				"z": 1.2139831561,
				"element": "H" 
			},
			{
				"x": -1.0569778686,
				"y": 0.1774332704,
				"z": 3.9768792961,
				"element": "H" 
			},
			{
				"x": -2.1763258115,
				"y": 5.9025598788,
				"z": -3.6835580879,
				"element": "H" 
			}
		],
		 "valence_orbital": [ 
			{
				"type": "occ",
				"energy": -0.28471,
				"method": "rhf"
			},
			{
				"type": "occ",
				"energy": -0.27779,
				"method": "rhf"
			},
			{
				"type": "occ",
				"energy": -0.26478,
				"method": "rhf"
			},
			{
				"type": "occ",
				"energy": -0.23707,
				"method": "rhf"
			},
			{
				"type": "occ",
				"energy": -0.23466,
				"method": "rhf"
			},
			{
				"type": "unocc",
				"energy": -0.01379,
				"method": "rhf"
			},
			{
				"type": "unocc",
				"energy": 0.01072,
				"method": "rhf"
			},
			{
				"type": "unocc",
				"energy": 0.02114,
				"method": "rhf"
			},
			{
				"type": "unocc",
				"energy": 0.03869,
				"method": "rhf"
			},
			{
				"type": "unocc",
				"energy": 0.05745,
				"method": "rhf"
			}
		],
		"cosmo_sigma_profile": { 
			"-0.025": 0.0,
			"-0.024": 0.0,
			"-0.023": 0.0,
			"-0.022": 0.0,
			"-0.021": 0.0,
			"-0.02": 0.0,
			"-0.019": 0.171768235049,
			"-0.018": 2.24593020799,
			"-0.017": 2.65083412763,
			"-0.016": 2.58499134442,
			"-0.015": 2.58202199496,
			"-0.014": 2.30203436152,
			"-0.013": 1.11800412578,
			"-0.012": 2.48779392206,
			"-0.011": 4.49733579347,
			"-0.01": 4.30267287181,
			"-0.009": 4.14833355692,
			"-0.008": 6.06277979838,
			"-0.007": 9.45232934651,
			"-0.006": 14.689943083,
			"-0.005": 15.9955918278,
			"-0.004": 23.516478148,
			"-0.003": 25.5257552783,
			"-0.002": 22.0510022556,
			"-0.001": 17.8421482509,
			"0.0": 14.9992112027,
			"0.001": 12.2082950279,
			"0.002": 10.8277437705,
			"0.003": 8.57427110648,
			"0.004": 9.78620548017,
			"0.005": 7.95678102323,
			"0.006": 9.1010494177,
			"0.007": 10.249585336,
			"0.008": 9.25777263819,
			"0.009": 12.3934573008,
			"0.01": 8.56930970933,
			"0.011": 12.89518056,
			"0.012": 8.74162485585,
			"0.013": 2.03510925804,
			"0.014": 3.51169683107,
			"0.015": 1.88593711769,
			"0.016": 0.174777798276,
			"0.017": 0.0,
			"0.018": 0.0,
			"0.019": 0.0,
			"0.02": 0.0,
			"0.021": 0.0,
			"0.022": 0.0,
			"0.023": 0.0,
			"0.024": 0.0,
			"0.025": 0.0
		}
	}
}
