{
	 "smiles": "C1=CN(C=N1)C(C1=CC=CC=C1)(C1=CC=CC=C1)C1=CC=CC=C1", 
	 "Tm": 495.15, 
	 "num_atms": 42, 
	 "gaussian": { 
		 "optdone": 1, 
		 "sigma_profile": "yes", 
		 "theory": "DFT", 
		 "functional": "B3LYP", 
		 "basiset": "6-31G**", 
		 "properties": { 
			 "R2extent": 7144.6574, 
			 "electric_dipole_moment_norm": 4.13754731816, 
			 "electric_quadrupole_moment_norm": 20.9584182032, 
			 "total_energy": -958.667886273, 
			 "HOMO_LUMO_gap": 0.19295, 
			 "cosmo_polarized_energy": -12.1, 
			 "cosmo_cavitation_energy": 43.31, 
			 "cosmo_dispersion_energy": -29.21, 
			 "cosmo_repulsion_energy": 2.21, 
			 "cosmo_total_nonelectrostatic_energy": 16.31, 
			 "SMD_solvation_energy": 6.41 
		},
		"coords": [
			{
				"x": -0.7858989367,
				"y": -2.7326126125,
				"z": -3.140515192,
				"element": "C" 
			},
			{
				"x": -0.4230533987,
				"y": -1.5381896549,
				"z": -2.5744346626,
				"element": "C" 
			},
			{
				"x": 0.0985429552,
				"y": -1.8498313558,
				"z": -1.3261827506,
				"element": "N" 
			},
			{
				"x": 0.0239185666,
				"y": -3.2196227071,
				"z": -1.2223415767,
				"element": "C" 
			},
			{
				"x": -0.501618102,
				"y": -3.7778795828,
				"z": -2.2921980833,
				"element": "N" 
			},
			{
				"x": 0.6132805039,
				"y": -0.8455931003,
				"z": -0.3474119076,
				"element": "C" 
			},
			{
				"x": 1.3705120469,
				"y": -1.5919286489,
				"z": 0.787529455,
				"element": "C" 
			},
			{
				"x": 0.6261596162,
				"y": -2.3330286844,
				"z": 1.7233190951,
				"element": "C" 
			},
			{
				"x": 1.2529043499,
				"y": -3.0244569416,
				"z": 2.7569357862,
				"element": "C" 
			},
			{
				"x": 2.6425172168,
				"y": -2.9739245255,
				"z": 2.894438014,
				"element": "C" 
			},
			{
				"x": 3.3893752637,
				"y": -2.2261038299,
				"z": 1.987980235,
				"element": "C" 
			},
			{
				"x": 2.7599552877,
				"y": -1.5418885391,
				"z": 0.9428189511,
				"element": "C" 
			},
			{
				"x": 1.5517090556,
				"y": 0.0936368528,
				"z": -1.1527808859,
				"element": "C" 
			},
			{
				"x": 2.4953815557,
				"y": -0.4817916125,
				"z": -2.0233592884,
				"element": "C" 
			},
			{
				"x": 3.3695839015,
				"y": 0.310213165,
				"z": -2.7636331143,
				"element": "C" 
			},
			{
				"x": 3.3146383366,
				"y": 1.702718122,
				"z": -2.6614634869,
				"element": "C" 
			},
			{
				"x": 2.3748068217,
				"y": 2.2855336471,
				"z": -1.8154364057,
				"element": "C" 
			},
			{
				"x": 1.5001965065,
				"y": 1.4891417009,
				"z": -1.0686741691,
				"element": "C" 
			},
			{
				"x": -0.5646105932,
				"y": -0.0768220452,
				"z": 0.3052768719,
				"element": "C" 
			},
			{
				"x": -0.3055712016,
				"y": 0.7495429729,
				"z": 1.4131205121,
				"element": "C" 
			},
			{
				"x": -1.3281287054,
				"y": 1.4639806334,
				"z": 2.0332416586,
				"element": "C" 
			},
			{
				"x": -2.6418011364,
				"y": 1.3554836719,
				"z": 1.5701998091,
				"element": "C" 
			},
			{
				"x": -2.9141225353,
				"y": 0.5242266396,
				"z": 0.4864946774,
				"element": "C" 
			},
			{
				"x": -1.8856544472,
				"y": -0.185776211,
				"z": -0.141933733,
				"element": "C" 
			},
			{
				"x": -1.2291841813,
				"y": -2.8970794371,
				"z": -4.1134609194,
				"element": "H" 
			},
			{
				"x": -0.4668040814,
				"y": -0.52247094,
				"z": -2.9326428099,
				"element": "H" 
			},
			{
				"x": 0.3777659837,
				"y": -3.752645721,
				"z": -0.3550906746,
				"element": "H" 
			},
			{
				"x": -0.4556234649,
				"y": -2.3637205397,
				"z": 1.6423034092,
				"element": "H" 
			},
			{
				"x": 0.6538727002,
				"y": -3.5952812447,
				"z": 3.4605777714,
				"element": "H" 
			},
			{
				"x": 3.1330517604,
				"y": -3.5059915928,
				"z": 3.7043188761,
				"element": "H" 
			},
			{
				"x": 4.4693980697,
				"y": -2.1666912579,
				"z": 2.0878244868,
				"element": "H" 
			},
			{
				"x": 3.3645558803,
				"y": -0.9623553215,
				"z": 0.2567246364,
				"element": "H" 
			},
			{
				"x": 2.537105009,
				"y": -1.5612857464,
				"z": -2.1268198629,
				"element": "H" 
			},
			{
				"x": 4.0885372168,
				"y": -0.1617180334,
				"z": -3.4271991746,
				"element": "H" 
			},
			{
				"x": 3.9915319672,
				"y": 2.3226801196,
				"z": -3.2421004894,
				"element": "H" 
			},
			{
				"x": 2.3091692046,
				"y": 3.366814801,
				"z": -1.7342808991,
				"element": "H" 
			},
			{
				"x": 0.7709179846,
				"y": 1.970712088,
				"z": -0.4296358195,
				"element": "H" 
			},
			{
				"x": 0.7059616263,
				"y": 0.8240938167,
				"z": 1.800116949,
				"element": "H" 
			},
			{
				"x": -1.0990682332,
				"y": 2.0971892801,
				"z": 2.8856957877,
				"element": "H" 
			},
			{
				"x": -3.4420626186,
				"y": 1.9059252851,
				"z": 2.0562315544,
				"element": "H" 
			},
			{
				"x": -3.9320919897,
				"y": 0.4174541108,
				"z": 0.1226479351,
				"element": "H" 
			},
			{
				"x": -2.1261557617,
				"y": -0.831457021,
				"z": -0.9779005665,
				"element": "H" 
			}
		],
		 "valence_orbital": [ 
			{
				"type": "occ",
				"energy": -0.25527,
				"method": "rhf"
			},
			{
				"type": "occ",
				"energy": -0.25273,
				"method": "rhf"
			},
			{
				"type": "occ",
				"energy": -0.24523,
				"method": "rhf"
			},
			{
				"type": "occ",
				"energy": -0.24248,
				"method": "rhf"
			},
			{
				"type": "occ",
				"energy": -0.21732,
				"method": "rhf"
			},
			{
				"type": "unocc",
				"energy": -0.02437,
				"method": "rhf"
			},
			{
				"type": "unocc",
				"energy": -0.01577,
				"method": "rhf"
			},
			{
				"type": "unocc",
				"energy": -0.01193,
				"method": "rhf"
			},
			{
				"type": "unocc",
				"energy": -0.00923,
				"method": "rhf"
			},
			{
				"type": "unocc",
				"energy": -0.0016,
				"method": "rhf"
			}
		],
		"cosmo_sigma_profile": { 
			"-0.025": 0.0,
			"-0.024": 0.0,
			"-0.023": 0.0,
			"-0.022": 0.0,
			"-0.021": 0.0,
			"-0.02": 0.0,
			"-0.019": 0.0,
			"-0.018": 0.0,
			"-0.017": 0.0,
			"-0.016": 0.0,
			"-0.015": 0.0,
			"-0.014": 0.0,
			"-0.013": 0.0,
			"-0.012": 0.0,
			"-0.011": 0.0,
			"-0.01": 0.0,
			"-0.009": 0.0,
			"-0.008": 0.3332234613,
			"-0.007": 2.10693960327,
			"-0.006": 16.45971677,
			"-0.005": 29.3197746855,
			"-0.004": 36.2738810715,
			"-0.003": 35.0806430951,
			"-0.002": 29.3416183377,
			"-0.001": 26.8600370261,
			"0.0": 25.2489749468,
			"0.001": 24.7228872052,
			"0.002": 24.4605543563,
			"0.003": 25.6688346445,
			"0.004": 27.1980756568,
			"0.005": 23.023800151,
			"0.006": 4.84788249317,
			"0.007": 2.41007821621,
			"0.008": 1.19034303488,
			"0.009": 1.76761234588,
			"0.01": 1.99413445052,
			"0.011": 0.847113369641,
			"0.012": 1.58965013572,
			"0.013": 1.1704525632,
			"0.014": 1.21168129118,
			"0.015": 0.908444499402,
			"0.016": 1.42655879979,
			"0.017": 1.07521041376,
			"0.018": 0.887994849908,
			"0.019": 0.102211025378,
			"0.02": 0.0,
			"0.021": 0.0,
			"0.022": 0.0,
			"0.023": 0.0,
			"0.024": 0.0,
			"0.025": 0.0
		}
	}
}
