{
	 "smiles": "NC1=CC(C(O)=O)=C(C=C1)N1CCSCC1", 
	 "Tm": 537.15, 
	 "num_atms": 30, 
	 "gaussian": { 
		 "optdone": 1, 
		 "sigma_profile": "yes", 
		 "theory": "DFT", 
		 "functional": "B3LYP", 
		 "basiset": "6-31G**", 
		 "properties": { 
			 "R2extent": 5228.7963, 
			 "electric_dipole_moment_norm": 6.02245458347, 
			 "electric_quadrupole_moment_norm": 14.3004847411, 
			 "total_energy": -1085.73939585, 
			 "HOMO_LUMO_gap": 0.14797, 
			 "cosmo_polarized_energy": -21.55, 
			 "cosmo_cavitation_energy": 33.21, 
			 "cosmo_dispersion_energy": -24.74, 
			 "cosmo_repulsion_energy": 1.87, 
			 "cosmo_total_nonelectrostatic_energy": 10.35, 
			 "SMD_solvation_energy": 4.88 
		},
		"coords": [
			{
				"x": 2.4761171105,
				"y": -0.7373479784,
				"z": 3.8862519118,
				"element": "N" 
			},
			{
				"x": 2.0733253574,
				"y": -0.4085899253,
				"z": 2.5843837701,
				"element": "C" 
			},
			{
				"x": 1.4726675437,
				"y": -1.3501276289,
				"z": 1.7460253649,
				"element": "C" 
			},
			{
				"x": 1.1494922395,
				"y": -1.0697914652,
				"z": 0.4042589596,
				"element": "C" 
			},
			{
				"x": 0.7271074079,
				"y": -2.2295133318,
				"z": -0.4441165894,
				"element": "C" 
			},
			{
				"x": -0.1113523899,
				"y": -3.1255196431,
				"z": 0.1605861124,
				"element": "O" 
			},
			{
				"x": 1.1043114866,
				"y": -2.4420094577,
				"z": -1.5728273562,
				"element": "O" 
			},
			{
				"x": 1.3830072827,
				"y": 0.2255073352,
				"z": -0.1306352708,
				"element": "C" 
			},
			{
				"x": 1.9926400751,
				"y": 1.1646193916,
				"z": 0.7320380122,
				"element": "C" 
			},
			{
				"x": 2.3368549909,
				"y": 0.8588301849,
				"z": 2.0405451097,
				"element": "C" 
			},
			{
				"x": 1.0264232075,
				"y": 0.5935436601,
				"z": -1.4267041306,
				"element": "N" 
			},
			{
				"x": 1.7169416568,
				"y": 1.7153466001,
				"z": -2.0590369437,
				"element": "C" 
			},
			{
				"x": 1.6050023662,
				"y": 1.6567300609,
				"z": -3.5815653589,
				"element": "C" 
			},
			{
				"x": -0.1166587056,
				"y": 1.953475065,
				"z": -4.1657356493,
				"element": "S" 
			},
			{
				"x": -1.0026092687,
				"y": 1.2202753404,
				"z": -2.7254381426,
				"element": "C" 
			},
			{
				"x": -0.2014669518,
				"y": 0.1007513237,
				"z": -2.0565092978,
				"element": "C" 
			},
			{
				"x": 1.9566942577,
				"y": -1.4939233149,
				"z": 4.3109035145,
				"element": "H" 
			},
			{
				"x": 2.5463174208,
				"y": 0.0522446453,
				"z": 4.5143898855,
				"element": "H" 
			},
			{
				"x": 1.3324175957,
				"y": -2.3625095532,
				"z": 2.1183787752,
				"element": "H" 
			},
			{
				"x": -0.422759646,
				"y": -2.7504615584,
				"z": 0.9965946706,
				"element": "H" 
			},
			{
				"x": 2.172844393,
				"y": 2.1728560206,
				"z": 0.3782768818,
				"element": "H" 
			},
			{
				"x": 2.8072089188,
				"y": 1.6206179521,
				"z": 2.6579657085,
				"element": "H" 
			},
			{
				"x": 1.34476249,
				"y": 2.6952461482,
				"z": -1.7140549239,
				"element": "H" 
			},
			{
				"x": 2.7767997132,
				"y": 1.6576369658,
				"z": -1.78499134,
				"element": "H" 
			},
			{
				"x": 1.963126129,
				"y": 0.6909012382,
				"z": -3.9481450987,
				"element": "H" 
			},
			{
				"x": 2.2198156752,
				"y": 2.4438000834,
				"z": -4.0253136697,
				"element": "H" 
			},
			{
				"x": -1.9390765086,
				"y": 0.8122680261,
				"z": -3.1149529771,
				"element": "H" 
			},
			{
				"x": -1.2468237849,
				"y": 2.0054216455,
				"z": -2.003484908,
				"element": "H" 
			},
			{
				"x": -0.8268961398,
				"y": -0.3407371382,
				"z": -1.2724767614,
				"element": "H" 
			},
			{
				"x": 0.0075660769,
				"y": -0.6963406921,
				"z": -2.7789102588,
				"element": "H" 
			}
		],
		 "valence_orbital": [ 
			{
				"type": "occ",
				"energy": -0.26929,
				"method": "rhf"
			},
			{
				"type": "occ",
				"energy": -0.25856,
				"method": "rhf"
			},
			{
				"type": "occ",
				"energy": -0.24861,
				"method": "rhf"
			},
			{
				"type": "occ",
				"energy": -0.21856,
				"method": "rhf"
			},
			{
				"type": "occ",
				"energy": -0.18332,
				"method": "rhf"
			},
			{
				"type": "unocc",
				"energy": -0.03535,
				"method": "rhf"
			},
			{
				"type": "unocc",
				"energy": 0.00549,
				"method": "rhf"
			},
			{
				"type": "unocc",
				"energy": 0.0354,
				"method": "rhf"
			},
			{
				"type": "unocc",
				"energy": 0.04726,
				"method": "rhf"
			},
			{
				"type": "unocc",
				"energy": 0.0615,
				"method": "rhf"
			}
		],
		"cosmo_sigma_profile": { 
			"-0.025": 0.0,
			"-0.024": 0.0,
			"-0.023": 0.0,
			"-0.022": 0.0,
			"-0.021": 0.0,
			"-0.02": 0.0,
			"-0.019": 0.0,
			"-0.018": 0.19378963256,
			"-0.017": 0.789595636937,
			"-0.016": 0.832784672174,
			"-0.015": 0.710834696508,
			"-0.014": 0.429222402669,
			"-0.013": 0.843644530782,
			"-0.012": 3.73065376665,
			"-0.011": 4.04160942442,
			"-0.01": 4.37320417102,
			"-0.009": 5.21922672645,
			"-0.008": 4.25793972384,
			"-0.007": 5.0326633454,
			"-0.006": 12.234565148,
			"-0.005": 21.0438952131,
			"-0.004": 23.9642575531,
			"-0.003": 22.9531668058,
			"-0.002": 19.0693127046,
			"-0.001": 11.9403515964,
			"0.0": 9.74645652479,
			"0.001": 10.9237837633,
			"0.002": 9.94904439946,
			"0.003": 9.16296608436,
			"0.004": 11.7175809599,
			"0.005": 15.481560084,
			"0.006": 9.80567921395,
			"0.007": 5.92912367604,
			"0.008": 6.15418781074,
			"0.009": 6.33603167945,
			"0.01": 6.61859584531,
			"0.011": 7.48541179095,
			"0.012": 6.66386205011,
			"0.013": 3.68223232283,
			"0.014": 1.44509872793,
			"0.015": 0.497515076803,
			"0.016": 0.0397761237982,
			"0.017": 0.0,
			"0.018": 0.0,
			"0.019": 0.0,
			"0.02": 0.0,
			"0.021": 0.0,
			"0.022": 0.0,
			"0.023": 0.0,
			"0.024": 0.0,
			"0.025": 0.0
		}
	}
}
