{
	 "smiles": "ON=C1CCN(CC2=CC=CC=C2)CC1", 
	 "Tm": 400.15, 
	 "num_atms": 31, 
	 "gaussian": { 
		 "optdone": 1, 
		 "sigma_profile": "yes", 
		 "theory": "DFT", 
		 "functional": "B3LYP", 
		 "basiset": "6-31G**", 
		 "properties": { 
			 "R2extent": 4265.7396, 
			 "electric_dipole_moment_norm": 1.08906167869, 
			 "electric_quadrupole_moment_norm": 5.17130654284, 
			 "total_energy": -651.57903795, 
			 "HOMO_LUMO_gap": 0.21328, 
			 "cosmo_polarized_energy": -10.2, 
			 "cosmo_cavitation_energy": 32.92, 
			 "cosmo_dispersion_energy": -23.47, 
			 "cosmo_repulsion_energy": 1.86, 
			 "cosmo_total_nonelectrostatic_energy": 11.31, 
			 "SMD_solvation_energy": 4.01 
		},
		"coords": [
			{
				"x": -1.9859065869,
				"y": -3.7119895022,
				"z": 0.9263643921,
				"element": "O" 
			},
			{
				"x": -1.234376254,
				"y": -3.0841119612,
				"z": -0.0955272588,
				"element": "N" 
			},
			{
				"x": -0.2514926197,
				"y": -2.4092250335,
				"z": 0.3681090642,
				"element": "C" 
			},
			{
				"x": 0.6484225749,
				"y": -1.7104091247,
				"z": -0.6278182904,
				"element": "C" 
			},
			{
				"x": 1.2982589763,
				"y": -0.4726962507,
				"z": 0.0220144635,
				"element": "C" 
			},
			{
				"x": 0.3541987659,
				"y": 0.1245971318,
				"z": 0.9661931223,
				"element": "N" 
			},
			{
				"x": 0.6564151003,
				"y": 1.5101698497,
				"z": 1.3116202654,
				"element": "C" 
			},
			{
				"x": 0.4724412204,
				"y": 2.4741893586,
				"z": 0.1537970198,
				"element": "C" 
			},
			{
				"x": -0.6503482468,
				"y": 2.3780018139,
				"z": -0.6803836926,
				"element": "C" 
			},
			{
				"x": -0.8449287046,
				"y": 3.2919496446,
				"z": -1.7153734871,
				"element": "C" 
			},
			{
				"x": 0.0782286118,
				"y": 4.3189430961,
				"z": -1.9307993675,
				"element": "C" 
			},
			{
				"x": 1.1996795302,
				"y": 4.4212351013,
				"z": -1.1072528653,
				"element": "C" 
			},
			{
				"x": 1.3952748275,
				"y": 3.5008662097,
				"z": -0.0747393653,
				"element": "C" 
			},
			{
				"x": 0.1906027308,
				"y": -0.7052237358,
				"z": 2.1641418461,
				"element": "C" 
			},
			{
				"x": 0.1145975534,
				"y": -2.2149837995,
				"z": 1.815684831,
				"element": "C" 
			},
			{
				"x": -2.6876473819,
				"y": -4.1364352903,
				"z": 0.4167343209,
				"element": "H" 
			},
			{
				"x": 1.4305133402,
				"y": -2.3999593854,
				"z": -0.9744008946,
				"element": "H" 
			},
			{
				"x": 0.0570846953,
				"y": -1.4266789555,
				"z": -1.5023895124,
				"element": "H" 
			},
			{
				"x": 1.5423164889,
				"y": 0.2646977894,
				"z": -0.7464497628,
				"element": "H" 
			},
			{
				"x": 2.2522328556,
				"y": -0.7428786059,
				"z": 0.5166881728,
				"element": "H" 
			},
			{
				"x": 1.6777747913,
				"y": 1.6229325838,
				"z": 1.7261284718,
				"element": "H" 
			},
			{
				"x": -0.0296199661,
				"y": 1.7937573844,
				"z": 2.1218273045,
				"element": "H" 
			},
			{
				"x": -1.3575203544,
				"y": 1.5710668705,
				"z": -0.5137124892,
				"element": "H" 
			},
			{
				"x": -1.7188563388,
				"y": 3.2040663461,
				"z": -2.3551694218,
				"element": "H" 
			},
			{
				"x": -0.0744323752,
				"y": 5.0307681014,
				"z": -2.7371416265,
				"element": "H" 
			},
			{
				"x": 1.926651828,
				"y": 5.2119621273,
				"z": -1.2709837977,
				"element": "H" 
			},
			{
				"x": 2.2744654753,
				"y": 3.5807475948,
				"z": 0.5606704018,
				"element": "H" 
			},
			{
				"x": -0.7325213247,
				"y": -0.3917809325,
				"z": 2.6651515259,
				"element": "H" 
			},
			{
				"x": 1.0177128795,
				"y": -0.5475649897,
				"z": 2.8833200814,
				"element": "H" 
			},
			{
				"x": -0.5912303497,
				"y": -2.7290686435,
				"z": 2.4671040779,
				"element": "H" 
			},
			{
				"x": 1.0995082572,
				"y": -2.6743447933,
				"z": 1.9730924703,
				"element": "H" 
			}
		],
		 "valence_orbital": [ 
			{
				"type": "occ",
				"energy": -0.25967,
				"method": "rhf"
			},
			{
				"type": "occ",
				"energy": -0.24631,
				"method": "rhf"
			},
			{
				"type": "occ",
				"energy": -0.24088,
				"method": "rhf"
			},
			{
				"type": "occ",
				"energy": -0.23666,
				"method": "rhf"
			},
			{
				"type": "occ",
				"energy": -0.21396,
				"method": "rhf"
			},
			{
				"type": "unocc",
				"energy": -0.00068,
				"method": "rhf"
			},
			{
				"type": "unocc",
				"energy": 0.00271,
				"method": "rhf"
			},
			{
				"type": "unocc",
				"energy": 0.01548,
				"method": "rhf"
			},
			{
				"type": "unocc",
				"energy": 0.08095,
				"method": "rhf"
			},
			{
				"type": "unocc",
				"energy": 0.09373,
				"method": "rhf"
			}
		],
		"cosmo_sigma_profile": { 
			"-0.025": 0.0,
			"-0.024": 0.0,
			"-0.023": 0.0,
			"-0.022": 0.0,
			"-0.021": 0.0,
			"-0.02": 0.0,
			"-0.019": 0.0,
			"-0.018": 0.0,
			"-0.017": 0.282606045434,
			"-0.016": 1.02394097324,
			"-0.015": 0.828706910399,
			"-0.014": 1.04425853731,
			"-0.013": 0.450754199948,
			"-0.012": 0.344800319637,
			"-0.011": 0.784133394923,
			"-0.01": 0.751469311174,
			"-0.009": 0.863088083442,
			"-0.008": 0.571869813324,
			"-0.007": 0.474037663194,
			"-0.006": 2.18668146464,
			"-0.005": 13.203072708,
			"-0.004": 26.4945937644,
			"-0.003": 31.5845270699,
			"-0.002": 37.5644000329,
			"-0.001": 28.6559595868,
			"0.0": 15.7741736664,
			"0.001": 11.9964037061,
			"0.002": 10.7012284491,
			"0.003": 11.1960846021,
			"0.004": 12.3034159649,
			"0.005": 11.0160718924,
			"0.006": 13.3826371688,
			"0.007": 6.70443253566,
			"0.008": 4.98731694204,
			"0.009": 4.75783955708,
			"0.01": 3.10206389667,
			"0.011": 2.05415416267,
			"0.012": 1.46551581743,
			"0.013": 0.480890656584,
			"0.014": 0.851165344361,
			"0.015": 0.211355746095,
			"0.016": 0.0,
			"0.017": 0.0,
			"0.018": 0.0,
			"0.019": 0.0,
			"0.02": 0.0,
			"0.021": 0.0,
			"0.022": 0.0,
			"0.023": 0.0,
			"0.024": 0.0,
			"0.025": 0.0
		}
	}
}
