{
	 "smiles": "NC(=O)C1=C(F)C(F)=C(F)C(F)=C1F", 
	 "Tm": 421.15, 
	 "num_atms": 16, 
	 "gaussian": { 
		 "optdone": 1, 
		 "sigma_profile": "yes", 
		 "theory": "DFT", 
		 "functional": "B3LYP", 
		 "basiset": "6-31G**", 
		 "properties": { 
			 "R2extent": 4347.9852, 
			 "electric_dipole_moment_norm": 3.12968922738, 
			 "electric_quadrupole_moment_norm": 12.0987816151, 
			 "total_energy": -897.070673593, 
			 "HOMO_LUMO_gap": 0.20372, 
			 "cosmo_polarized_energy": -11.04, 
			 "cosmo_cavitation_energy": 23.73, 
			 "cosmo_dispersion_energy": -17.16, 
			 "cosmo_repulsion_energy": 1.24, 
			 "cosmo_total_nonelectrostatic_energy": 7.82, 
			 "SMD_solvation_energy": 7.15 
		},
		"coords": [
			{
				"x": -3.0699278562,
				"y": -0.5366716402,
				"z": 0.5742454589,
				"element": "N" 
			},
			{
				"x": -2.680731447,
				"y": 0.629573272,
				"z": -0.0145290562,
				"element": "C" 
			},
			{
				"x": -3.2612440808,
				"y": 1.0831799122,
				"z": -0.9887402295,
				"element": "O" 
			},
			{
				"x": -1.4872840859,
				"y": 1.3444439548,
				"z": 0.5977695685,
				"element": "C" 
			},
			{
				"x": -0.7621094775,
				"y": 0.8932370386,
				"z": 1.712777704,
				"element": "C" 
			},
			{
				"x": -1.0856336108,
				"y": -0.2561117511,
				"z": 2.3487546304,
				"element": "F" 
			},
			{
				"x": 0.3253714279,
				"y": 1.5782963542,
				"z": 2.2421045139,
				"element": "C" 
			},
			{
				"x": 0.9749151405,
				"y": 1.0960016454,
				"z": 3.3063248709,
				"element": "F" 
			},
			{
				"x": 0.7343932434,
				"y": 2.771976186,
				"z": 1.6557524386,
				"element": "C" 
			},
			{
				"x": 1.7745004817,
				"y": 3.440903228,
				"z": 2.1505720353,
				"element": "F" 
			},
			{
				"x": 0.0463940245,
				"y": 3.2576079879,
				"z": 0.5497020668,
				"element": "C" 
			},
			{
				"x": 0.4325709449,
				"y": 4.402797524,
				"z": -0.0190128412,
				"element": "F" 
			},
			{
				"x": -1.0432732501,
				"y": 2.5561748388,
				"z": 0.0318132533,
				"element": "C" 
			},
			{
				"x": -1.6322757927,
				"y": 3.10418124,
				"z": -1.025835298,
				"element": "F" 
			},
			{
				"x": -3.8630747895,
				"y": -0.9975900269,
				"z": 0.1557683988,
				"element": "H" 
			},
			{
				"x": -2.6149908725,
				"y": -0.9371997636,
				"z": 1.3758324853,
				"element": "H" 
			}
		],
		 "valence_orbital": [ 
			{
				"type": "occ",
				"energy": -0.36099,
				"method": "rhf"
			},
			{
				"type": "occ",
				"energy": -0.28092,
				"method": "rhf"
			},
			{
				"type": "occ",
				"energy": -0.27717,
				"method": "rhf"
			},
			{
				"type": "occ",
				"energy": -0.26633,
				"method": "rhf"
			},
			{
				"type": "occ",
				"energy": -0.26563,
				"method": "rhf"
			},
			{
				"type": "unocc",
				"energy": -0.06191,
				"method": "rhf"
			},
			{
				"type": "unocc",
				"energy": -0.0276,
				"method": "rhf"
			},
			{
				"type": "unocc",
				"energy": 0.00109,
				"method": "rhf"
			},
			{
				"type": "unocc",
				"energy": 0.04811,
				"method": "rhf"
			},
			{
				"type": "unocc",
				"energy": 0.08174,
				"method": "rhf"
			}
		],
		"cosmo_sigma_profile": { 
			"-0.025": 0.0,
			"-0.024": 0.0,
			"-0.023": 0.0,
			"-0.022": 0.0,
			"-0.021": 0.0,
			"-0.02": 0.0,
			"-0.019": 0.0,
			"-0.018": 0.0,
			"-0.017": 0.0,
			"-0.016": 0.0,
			"-0.015": 0.217126604934,
			"-0.014": 1.39329664262,
			"-0.013": 1.42322967812,
			"-0.012": 1.61771221904,
			"-0.011": 2.00786866904,
			"-0.01": 1.81622986879,
			"-0.009": 1.42485602915,
			"-0.008": 1.78967985514,
			"-0.007": 2.54057105416,
			"-0.006": 2.92001137895,
			"-0.005": 9.99038977223,
			"-0.004": 21.2537344395,
			"-0.003": 16.1226644835,
			"-0.002": 10.5122307128,
			"-0.001": 10.8545562535,
			"0.0": 9.57462422735,
			"0.001": 15.9198398282,
			"0.002": 39.262926282,
			"0.003": 17.233856913,
			"0.004": 3.05616309298,
			"0.005": 2.05449220975,
			"0.006": 1.54137988685,
			"0.007": 1.43712391259,
			"0.008": 1.29678943426,
			"0.009": 1.78204220195,
			"0.01": 1.87080526346,
			"0.011": 1.85764113876,
			"0.012": 3.32007779053,
			"0.013": 5.53847417862,
			"0.014": 1.00207023726,
			"0.015": 0.0,
			"0.016": 0.0,
			"0.017": 0.0,
			"0.018": 0.0,
			"0.019": 0.0,
			"0.02": 0.0,
			"0.021": 0.0,
			"0.022": 0.0,
			"0.023": 0.0,
			"0.024": 0.0,
			"0.025": 0.0
		}
	}
}
