{
	 "smiles": "COC(=O)C1=CC=C(C(=O)OC)C(F)=C1", 
	 "Tm": 355.15, 
	 "num_atms": 24, 
	 "gaussian": { 
		 "optdone": 1, 
		 "sigma_profile": "yes", 
		 "theory": "DFT", 
		 "functional": "B3LYP", 
		 "basiset": "6-31G**", 
		 "properties": { 
			 "R2extent": 4583.8522, 
			 "electric_dipole_moment_norm": 2.39691954183, 
			 "electric_quadrupole_moment_norm": 10.4876123746, 
			 "total_energy": -787.234510536, 
			 "HOMO_LUMO_gap": 0.1852, 
			 "cosmo_polarized_energy": -10.12, 
			 "cosmo_cavitation_energy": 30.01, 
			 "cosmo_dispersion_energy": -21.71, 
			 "cosmo_repulsion_energy": 1.68, 
			 "cosmo_total_nonelectrostatic_energy": 9.98, 
			 "SMD_solvation_energy": 8.87 
		},
		"coords": [
			{
				"x": -2.492540406,
				"y": -0.1182609346,
				"z": 4.0812991269,
				"element": "C" 
			},
			{
				"x": -1.7111545684,
				"y": -0.5014674802,
				"z": 2.9374556496,
				"element": "O" 
			},
			{
				"x": -1.1683138199,
				"y": 0.5208040869,
				"z": 2.2426631354,
				"element": "C" 
			},
			{
				"x": -1.3160955184,
				"y": 1.6883118617,
				"z": 2.5438843929,
				"element": "O" 
			},
			{
				"x": -0.3706757817,
				"y": 0.0527541516,
				"z": 1.0689572599,
				"element": "C" 
			},
			{
				"x": 0.2473590075,
				"y": 1.0197187933,
				"z": 0.2636973743,
				"element": "C" 
			},
			{
				"x": 0.9962765252,
				"y": 0.6235755548,
				"z": -0.8348492316,
				"element": "C" 
			},
			{
				"x": 1.1539809761,
				"y": -0.7334590985,
				"z": -1.1658692678,
				"element": "C" 
			},
			{
				"x": 1.9843003191,
				"y": -1.0364294453,
				"z": -2.3728743512,
				"element": "C" 
			},
			{
				"x": 2.5062999243,
				"y": -0.1711934264,
				"z": -3.0499240254,
				"element": "O" 
			},
			{
				"x": 2.0975793645,
				"y": -2.350089343,
				"z": -2.6359089369,
				"element": "O" 
			},
			{
				"x": 2.8906448689,
				"y": -2.6737423578,
				"z": -3.7904703778,
				"element": "C" 
			},
			{
				"x": 0.5244918433,
				"y": -1.6794401663,
				"z": -0.34279427,
				"element": "C" 
			},
			{
				"x": 0.6274846605,
				"y": -2.9941104973,
				"z": -0.5927644011,
				"element": "F" 
			},
			{
				"x": -0.2302688973,
				"y": -1.3034205133,
				"z": 0.7625224815,
				"element": "C" 
			},
			{
				"x": -2.8498835941,
				"y": -1.05039632,
				"z": 4.5181851167,
				"element": "H" 
			},
			{
				"x": -3.3320537263,
				"y": 0.5120182258,
				"z": 3.7780723119,
				"element": "H" 
			},
			{
				"x": -1.8783269414,
				"y": 0.4326029246,
				"z": 4.7977352253,
				"element": "H" 
			},
			{
				"x": 0.1270167278,
				"y": 2.0665738555,
				"z": 0.5172760095,
				"element": "H" 
			},
			{
				"x": 1.4845525688,
				"y": 1.3507661121,
				"z": -1.4739201254,
				"element": "H" 
			},
			{
				"x": 3.9112959289,
				"y": -2.3018758419,
				"z": -3.6722240881,
				"element": "H" 
			},
			{
				"x": 2.8817278692,
				"y": -3.7615369344,
				"z": -3.8527629105,
				"element": "H" 
			},
			{
				"x": 2.4566124681,
				"y": -2.2319936934,
				"z": -4.6908025948,
				"element": "H" 
			},
			{
				"x": -0.6976097984,
				"y": -2.0692095141,
				"z": 1.3686164967,
				"element": "H" 
			}
		],
		 "valence_orbital": [ 
			{
				"type": "occ",
				"energy": -0.30672,
				"method": "rhf"
			},
			{
				"type": "occ",
				"energy": -0.28399,
				"method": "rhf"
			},
			{
				"type": "occ",
				"energy": -0.28274,
				"method": "rhf"
			},
			{
				"type": "occ",
				"energy": -0.2753,
				"method": "rhf"
			},
			{
				"type": "occ",
				"energy": -0.2607,
				"method": "rhf"
			},
			{
				"type": "unocc",
				"energy": -0.0755,
				"method": "rhf"
			},
			{
				"type": "unocc",
				"energy": -0.01459,
				"method": "rhf"
			},
			{
				"type": "unocc",
				"energy": 0.00715,
				"method": "rhf"
			},
			{
				"type": "unocc",
				"energy": 0.07811,
				"method": "rhf"
			},
			{
				"type": "unocc",
				"energy": 0.09062,
				"method": "rhf"
			}
		],
		"cosmo_sigma_profile": { 
			"-0.025": 0.0,
			"-0.024": 0.0,
			"-0.023": 0.0,
			"-0.022": 0.0,
			"-0.021": 0.0,
			"-0.02": 0.0,
			"-0.019": 0.0,
			"-0.018": 0.0,
			"-0.017": 0.0,
			"-0.016": 0.0,
			"-0.015": 0.0,
			"-0.014": 0.0,
			"-0.013": 0.0,
			"-0.012": 0.0,
			"-0.011": 0.0,
			"-0.01": 0.0,
			"-0.009": 0.0,
			"-0.008": 0.515311272377,
			"-0.007": 5.77058126838,
			"-0.006": 14.0275168386,
			"-0.005": 18.4976730319,
			"-0.004": 25.177584483,
			"-0.003": 23.4445312828,
			"-0.002": 18.1338277396,
			"-0.001": 21.7215855587,
			"0.0": 22.5356163755,
			"0.001": 16.2462564869,
			"0.002": 13.1104900135,
			"0.003": 10.2549474308,
			"0.004": 10.6362117945,
			"0.005": 6.3555322106,
			"0.006": 5.01515184848,
			"0.007": 4.82503222412,
			"0.008": 4.25030497914,
			"0.009": 3.8367052846,
			"0.01": 4.09632212052,
			"0.011": 8.08760000291,
			"0.012": 3.68234635815,
			"0.013": 0.0,
			"0.014": 0.0,
			"0.015": 0.0,
			"0.016": 0.0,
			"0.017": 0.0,
			"0.018": 0.0,
			"0.019": 0.0,
			"0.02": 0.0,
			"0.021": 0.0,
			"0.022": 0.0,
			"0.023": 0.0,
			"0.024": 0.0,
			"0.025": 0.0
		}
	}
}
