{
	 "smiles": "CC1=CC2=C(N=CC=C2)C2=C1C=CC=N2", 
	 "Tm": 386.15, 
	 "num_atms": 25, 
	 "gaussian": { 
		 "optdone": 1, 
		 "sigma_profile": "yes", 
		 "theory": "DFT", 
		 "functional": "B3LYP", 
		 "basiset": "6-31G**", 
		 "properties": { 
			 "R2extent": 2965.6982, 
			 "electric_dipole_moment_norm": 3.55853860594, 
			 "electric_quadrupole_moment_norm": 14.7757887685, 
			 "total_energy": -610.929536453, 
			 "HOMO_LUMO_gap": 0.17507, 
			 "cosmo_polarized_energy": -13.92, 
			 "cosmo_cavitation_energy": 28.43, 
			 "cosmo_dispersion_energy": -21.34, 
			 "cosmo_repulsion_energy": 1.61, 
			 "cosmo_total_nonelectrostatic_energy": 8.71, 
			 "SMD_solvation_energy": 1.98 
		},
		"coords": [
			{
				"x": -0.7146703794,
				"y": 1.1659142113,
				"z": 3.1518458303,
				"element": "C" 
			},
			{
				"x": -0.1926169817,
				"y": 0.5163331806,
				"z": 1.8941554254,
				"element": "C" 
			},
			{
				"x": 1.083416416,
				"y": 0.0353386871,
				"z": 1.8341816516,
				"element": "C" 
			},
			{
				"x": 1.6161102633,
				"y": -0.5877656653,
				"z": 0.658842452,
				"element": "C" 
			},
			{
				"x": 0.8111627064,
				"y": -0.7256375092,
				"z": -0.5054564735,
				"element": "C" 
			},
			{
				"x": 1.2658405493,
				"y": -1.3053673995,
				"z": -1.63929538,
				"element": "N" 
			},
			{
				"x": 2.5095555902,
				"y": -1.7575624057,
				"z": -1.65255587,
				"element": "C" 
			},
			{
				"x": 3.3925322677,
				"y": -1.6727818791,
				"z": -0.556327245,
				"element": "C" 
			},
			{
				"x": 2.9378178395,
				"y": -1.0830418927,
				"z": 0.6047129079,
				"element": "C" 
			},
			{
				"x": -0.5568965187,
				"y": -0.2196968236,
				"z": -0.4676648063,
				"element": "C" 
			},
			{
				"x": -1.0420730861,
				"y": 0.3933077398,
				"z": 0.7268643782,
				"element": "C" 
			},
			{
				"x": -2.3743557625,
				"y": 0.8662000319,
				"z": 0.7097709099,
				"element": "C" 
			},
			{
				"x": -3.13987137,
				"y": 0.7232520918,
				"z": -0.4296486712,
				"element": "C" 
			},
			{
				"x": -2.5580774096,
				"y": 0.1023636969,
				"z": -1.5510286513,
				"element": "C" 
			},
			{
				"x": -1.3167958681,
				"y": -0.353968256,
				"z": -1.5779955913,
				"element": "N" 
			},
			{
				"x": -1.587287253,
				"y": 0.6347017101,
				"z": 3.550398224,
				"element": "H" 
			},
			{
				"x": 0.0529273301,
				"y": 1.175461573,
				"z": 3.9293998574,
				"element": "H" 
			},
			{
				"x": -1.0233532223,
				"y": 2.2030953742,
				"z": 2.974444422,
				"element": "H" 
			},
			{
				"x": 1.7326636093,
				"y": 0.1208008266,
				"z": 2.7029552044,
				"element": "H" 
			},
			{
				"x": 2.8435717605,
				"y": -2.2187009287,
				"z": -2.5815212056,
				"element": "H" 
			},
			{
				"x": 4.401801907,
				"y": -2.0647218132,
				"z": -0.6350765689,
				"element": "H" 
			},
			{
				"x": 3.5788134208,
				"y": -0.9929146449,
				"z": 1.4782923462,
				"element": "H" 
			},
			{
				"x": -2.7923560524,
				"y": 1.3403215677,
				"z": 1.5916549219,
				"element": "H" 
			},
			{
				"x": -4.165209677,
				"y": 1.077785535,
				"z": -0.4684582079,
				"element": "H" 
			},
			{
				"x": -3.1379500796,
				"y": -0.0245170081,
				"z": -2.4647898599,
				"element": "H" 
			}
		],
		 "valence_orbital": [ 
			{
				"type": "occ",
				"energy": -0.28802,
				"method": "rhf"
			},
			{
				"type": "occ",
				"energy": -0.25265,
				"method": "rhf"
			},
			{
				"type": "occ",
				"energy": -0.24085,
				"method": "rhf"
			},
			{
				"type": "occ",
				"energy": -0.23676,
				"method": "rhf"
			},
			{
				"type": "occ",
				"energy": -0.22507,
				"method": "rhf"
			},
			{
				"type": "unocc",
				"energy": -0.05,
				"method": "rhf"
			},
			{
				"type": "unocc",
				"energy": -0.04741,
				"method": "rhf"
			},
			{
				"type": "unocc",
				"energy": -0.00409,
				"method": "rhf"
			},
			{
				"type": "unocc",
				"energy": 0.02505,
				"method": "rhf"
			},
			{
				"type": "unocc",
				"energy": 0.06616,
				"method": "rhf"
			}
		],
		"cosmo_sigma_profile": { 
			"-0.025": 0.0,
			"-0.024": 0.0,
			"-0.023": 0.0,
			"-0.022": 0.0,
			"-0.021": 0.0,
			"-0.02": 0.0,
			"-0.019": 0.0,
			"-0.018": 0.0,
			"-0.017": 0.0,
			"-0.016": 0.0,
			"-0.015": 0.0,
			"-0.014": 0.0,
			"-0.013": 0.0,
			"-0.012": 0.0,
			"-0.011": 0.0,
			"-0.01": 0.0,
			"-0.009": 0.0,
			"-0.008": 0.162716463149,
			"-0.007": 8.03125252385,
			"-0.006": 17.5752827152,
			"-0.005": 22.0904410807,
			"-0.004": 17.3623308511,
			"-0.003": 15.8491627451,
			"-0.002": 12.7720119587,
			"-0.001": 15.6227432255,
			"0.0": 17.2604739506,
			"0.001": 26.5480807443,
			"0.002": 30.5686820996,
			"0.003": 16.0670555614,
			"0.004": 4.08704682103,
			"0.005": 3.29912675073,
			"0.006": 1.86806811912,
			"0.007": 2.03503124743,
			"0.008": 2.07744542984,
			"0.009": 1.54644491455,
			"0.01": 1.79187680222,
			"0.011": 1.06352533528,
			"0.012": 1.466277604,
			"0.013": 1.36639095865,
			"0.014": 1.21306967275,
			"0.015": 1.0498571972,
			"0.016": 0.953735897024,
			"0.017": 0.79250885436,
			"0.018": 1.23449408818,
			"0.019": 0.823675065889,
			"0.02": 0.83003161115,
			"0.021": 0.630700725493,
			"0.022": 0.587581259906,
			"0.023": 0.0,
			"0.024": 0.0,
			"0.025": 0.0
		}
	}
}
