{
	 "smiles": "COC1=CC=CC2=C1OC(=C2)C(=NO)C1=CC2=C(O1)C(OC)=CC=C2", 
	 "Tm": 487.15, 
	 "num_atms": 40, 
	 "gaussian": { 
		 "optdone": 1, 
		 "sigma_profile": "yes", 
		 "theory": "DFT", 
		 "functional": "B3LYP", 
		 "basiset": "6-31G**", 
		 "properties": { 
			 "R2extent": 8884.4883, 
			 "electric_dipole_moment_norm": 2.47552089266, 
			 "electric_quadrupole_moment_norm": 9.84319362402, 
			 "total_energy": -1163.81920744, 
			 "HOMO_LUMO_gap": 0.1363, 
			 "cosmo_polarized_energy": -12.76, 
			 "cosmo_cavitation_energy": 45.38, 
			 "cosmo_dispersion_energy": -30.62, 
			 "cosmo_repulsion_energy": 2.3, 
			 "cosmo_total_nonelectrostatic_energy": 17.06, 
			 "SMD_solvation_energy": 9.27 
		},
		"coords": [
			{
				"x": -1.6083386821,
				"y": -0.7814887003,
				"z": 3.0387072338,
				"element": "C" 
			},
			{
				"x": -0.6061786434,
				"y": -1.1943139908,
				"z": 3.9697307646,
				"element": "O" 
			},
			{
				"x": 0.6787445385,
				"y": -0.7744500743,
				"z": 3.8249786926,
				"element": "C" 
			},
			{
				"x": 1.5884096534,
				"y": -1.1815508815,
				"z": 4.8081742197,
				"element": "C" 
			},
			{
				"x": 2.9442507666,
				"y": -0.8216816766,
				"z": 4.7634932174,
				"element": "C" 
			},
			{
				"x": 3.4595839982,
				"y": -0.0391485465,
				"z": 3.7364874377,
				"element": "C" 
			},
			{
				"x": 2.570007616,
				"y": 0.3860293371,
				"z": 2.7372356399,
				"element": "C" 
			},
			{
				"x": 1.2085411068,
				"y": 0.0200264363,
				"z": 2.7969431441,
				"element": "C" 
			},
			{
				"x": 0.5331245559,
				"y": 0.5368107664,
				"z": 1.7195048587,
				"element": "O" 
			},
			{
				"x": 1.4604923043,
				"y": 1.2228421096,
				"z": 0.9686391239,
				"element": "C" 
			},
			{
				"x": 2.6983055485,
				"y": 1.1660076188,
				"z": 1.5355353747,
				"element": "C" 
			},
			{
				"x": 0.9861166682,
				"y": 1.9082010692,
				"z": -0.2420333351,
				"element": "C" 
			},
			{
				"x": 1.6315749868,
				"y": 3.0059492125,
				"z": -0.5003145772,
				"element": "N" 
			},
			{
				"x": 1.2342609447,
				"y": 3.6026999161,
				"z": -1.6947456312,
				"element": "O" 
			},
			{
				"x": -0.0924245043,
				"y": 1.3336304333,
				"z": -1.0409045487,
				"element": "C" 
			},
			{
				"x": -0.879651804,
				"y": 1.813519113,
				"z": -2.0537604268,
				"element": "C" 
			},
			{
				"x": -1.7832662257,
				"y": 0.7578717857,
				"z": -2.4173550113,
				"element": "C" 
			},
			{
				"x": -1.4490571898,
				"y": -0.3202097313,
				"z": -1.5766733944,
				"element": "C" 
			},
			{
				"x": -0.427018215,
				"y": 0.0227744565,
				"z": -0.7421942818,
				"element": "O" 
			},
			{
				"x": -2.1189780137,
				"y": -1.5507707884,
				"z": -1.6051839651,
				"element": "C" 
			},
			{
				"x": -1.8590104098,
				"y": -2.596819686,
				"z": -0.7644018586,
				"element": "O" 
			},
			{
				"x": -0.4899687676,
				"y": -2.9992804094,
				"z": -0.6288618879,
				"element": "C" 
			},
			{
				"x": -3.1635036564,
				"y": -1.6576857932,
				"z": -2.5233195661,
				"element": "C" 
			},
			{
				"x": -3.5186526009,
				"y": -0.5880426174,
				"z": -3.3679831152,
				"element": "C" 
			},
			{
				"x": -2.839458602,
				"y": 0.6230573644,
				"z": -3.3362351613,
				"element": "C" 
			},
			{
				"x": -1.4091233063,
				"y": -1.1547790952,
				"z": 2.0297093157,
				"element": "H" 
			},
			{
				"x": -2.5393323875,
				"y": -1.2147163436,
				"z": 3.4079578871,
				"element": "H" 
			},
			{
				"x": -1.7007438832,
				"y": 0.3084024588,
				"z": 3.0051978294,
				"element": "H" 
			},
			{
				"x": 1.2046031644,
				"y": -1.7951437367,
				"z": 5.6164841895,
				"element": "H" 
			},
			{
				"x": 3.599850269,
				"y": -1.1694440051,
				"z": 5.556462391,
				"element": "H" 
			},
			{
				"x": 4.5090333632,
				"y": 0.2341396355,
				"z": 3.7055092581,
				"element": "H" 
			},
			{
				"x": 3.5915729913,
				"y": 1.620222004,
				"z": 1.134107441,
				"element": "H" 
			},
			{
				"x": 1.8026070626,
				"y": 4.3837426627,
				"z": -1.7295970244,
				"element": "H" 
			},
			{
				"x": -0.8180589721,
				"y": 2.8018437555,
				"z": -2.476745896,
				"element": "H" 
			},
			{
				"x": 0.1129300067,
				"y": -2.2342505561,
				"z": -0.1327819285,
				"element": "H" 
			},
			{
				"x": -0.0538974335,
				"y": -3.2289643808,
				"z": -1.6087435905,
				"element": "H" 
			},
			{
				"x": -0.5057139054,
				"y": -3.9046985224,
				"z": -0.0198071599,
				"element": "H" 
			},
			{
				"x": -3.7033966133,
				"y": -2.5979812999,
				"z": -2.5642723265,
				"element": "H" 
			},
			{
				"x": -4.3413387319,
				"y": -0.7251527164,
				"z": -4.0633562434,
				"element": "H" 
			},
			{
				"x": -3.1181969973,
				"y": 1.4418034165,
				"z": -3.9914870888,
				"element": "H" 
			}
		],
		 "valence_orbital": [ 
			{
				"type": "occ",
				"energy": -0.26666,
				"method": "rhf"
			},
			{
				"type": "occ",
				"energy": -0.23479,
				"method": "rhf"
			},
			{
				"type": "occ",
				"energy": -0.22385,
				"method": "rhf"
			},
			{
				"type": "occ",
				"energy": -0.21441,
				"method": "rhf"
			},
			{
				"type": "occ",
				"energy": -0.20053,
				"method": "rhf"
			},
			{
				"type": "unocc",
				"energy": -0.06423,
				"method": "rhf"
			},
			{
				"type": "unocc",
				"energy": -0.01724,
				"method": "rhf"
			},
			{
				"type": "unocc",
				"energy": 0.00845,
				"method": "rhf"
			},
			{
				"type": "unocc",
				"energy": 0.01875,
				"method": "rhf"
			},
			{
				"type": "unocc",
				"energy": 0.02338,
				"method": "rhf"
			}
		],
		"cosmo_sigma_profile": { 
			"-0.025": 0.0,
			"-0.024": 0.0,
			"-0.023": 0.0,
			"-0.022": 0.0,
			"-0.021": 0.0,
			"-0.02": 0.0,
			"-0.019": 0.100234255292,
			"-0.018": 0.921993392816,
			"-0.017": 1.17217828037,
			"-0.016": 0.932933864532,
			"-0.015": 0.45042094156,
			"-0.014": 0.893215353084,
			"-0.013": 0.960505995052,
			"-0.012": 0.583945086838,
			"-0.011": 0.239955538289,
			"-0.01": 0.707222310134,
			"-0.009": 1.0958385369,
			"-0.008": 1.10886391061,
			"-0.007": 3.37606474534,
			"-0.006": 16.066439855,
			"-0.005": 24.2656304995,
			"-0.004": 26.1691511658,
			"-0.003": 30.7783737116,
			"-0.002": 24.1494671784,
			"-0.001": 24.585720613,
			"0.0": 30.7173966422,
			"0.001": 32.2313514706,
			"0.002": 32.4279922091,
			"0.003": 32.8502907409,
			"0.004": 29.1218437803,
			"0.005": 21.1388989945,
			"0.006": 9.51302511275,
			"0.007": 4.08573593601,
			"0.008": 3.74254949251,
			"0.009": 4.68772422914,
			"0.01": 2.80388324178,
			"0.011": 1.75120436241,
			"0.012": 0.454763928671,
			"0.013": 0.0,
			"0.014": 0.0,
			"0.015": 0.0,
			"0.016": 0.0,
			"0.017": 0.0,
			"0.018": 0.0,
			"0.019": 0.0,
			"0.02": 0.0,
			"0.021": 0.0,
			"0.022": 0.0,
			"0.023": 0.0,
			"0.024": 0.0,
			"0.025": 0.0
		}
	}
}
