{
	 "smiles": "CC1=C(C)C=C(S1)C(Cl)=O", 
	 "Tm": 333.15, 
	 "num_atms": 17, 
	 "gaussian": { 
		 "optdone": 1, 
		 "sigma_profile": "yes", 
		 "theory": "DFT", 
		 "functional": "B3LYP", 
		 "basiset": "6-31G**", 
		 "properties": { 
			 "R2extent": 3299.2545, 
			 "electric_dipole_moment_norm": 5.70194632209, 
			 "electric_quadrupole_moment_norm": 14.0032587657, 
			 "total_energy": -1204.5754941, 
			 "HOMO_LUMO_gap": 0.17, 
			 "cosmo_polarized_energy": -7.44, 
			 "cosmo_cavitation_energy": 24.56, 
			 "cosmo_dispersion_energy": -18.46, 
			 "cosmo_repulsion_energy": 1.46, 
			 "cosmo_total_nonelectrostatic_energy": 7.56, 
			 "SMD_solvation_energy": 4.69 
		},
		"coords": [
			{
				"x": 0.8662256237,
				"y": 1.2483579741,
				"z": 0.9793113108,
				"element": "C" 
			},
			{
				"x": -0.1495668984,
				"y": 0.3869595446,
				"z": 0.2890717841,
				"element": "C" 
			},
			{
				"x": -0.8628965307,
				"y": 0.6740124192,
				"z": -0.8639604349,
				"element": "C" 
			},
			{
				"x": -0.7353482071,
				"y": 1.9529128395,
				"z": -1.6544510846,
				"element": "C" 
			},
			{
				"x": -1.7390778145,
				"y": -0.3837320629,
				"z": -1.2234700015,
				"element": "C" 
			},
			{
				"x": -1.6959653681,
				"y": -1.4588185603,
				"z": -0.3612470671,
				"element": "C" 
			},
			{
				"x": -0.5517656291,
				"y": -1.1751648409,
				"z": 0.9307911769,
				"element": "S" 
			},
			{
				"x": -2.4185979185,
				"y": -2.7150574231,
				"z": -0.3702569724,
				"element": "C" 
			},
			{
				"x": -3.5831910071,
				"y": -2.8748141944,
				"z": -1.7816881355,
				"element": "Cl" 
			},
			{
				"x": -2.3255894235,
				"y": -3.6084909763,
				"z": 0.4214455545,
				"element": "O" 
			},
			{
				"x": 0.5641620099,
				"y": 1.4844867877,
				"z": 2.0056928572,
				"element": "H" 
			},
			{
				"x": 0.9940312662,
				"y": 2.1909712639,
				"z": 0.4426570454,
				"element": "H" 
			},
			{
				"x": 1.8437834539,
				"y": 0.7562712232,
				"z": 1.0313501255,
				"element": "H" 
			},
			{
				"x": -0.9969407818,
				"y": 2.8307954572,
				"z": -1.0535666619,
				"element": "H" 
			},
			{
				"x": -1.4017549047,
				"y": 1.9374532727,
				"z": -2.5204120663,
				"element": "H" 
			},
			{
				"x": 0.2842665958,
				"y": 2.1016714431,
				"z": -2.0264978153,
				"element": "H" 
			},
			{
				"x": -2.3861744659,
				"y": -0.3605141674,
				"z": -2.0917696149,
				"element": "H" 
			}
		],
		 "valence_orbital": [ 
			{
				"type": "occ",
				"energy": -0.3153,
				"method": "rhf"
			},
			{
				"type": "occ",
				"energy": -0.31399,
				"method": "rhf"
			},
			{
				"type": "occ",
				"energy": -0.28944,
				"method": "rhf"
			},
			{
				"type": "occ",
				"energy": -0.26771,
				"method": "rhf"
			},
			{
				"type": "occ",
				"energy": -0.24808,
				"method": "rhf"
			},
			{
				"type": "unocc",
				"energy": -0.07808,
				"method": "rhf"
			},
			{
				"type": "unocc",
				"energy": 0.00215,
				"method": "rhf"
			},
			{
				"type": "unocc",
				"energy": 0.01238,
				"method": "rhf"
			},
			{
				"type": "unocc",
				"energy": 0.02732,
				"method": "rhf"
			},
			{
				"type": "unocc",
				"energy": 0.07621,
				"method": "rhf"
			}
		],
		"cosmo_sigma_profile": { 
			"-0.025": 0.0,
			"-0.024": 0.0,
			"-0.023": 0.0,
			"-0.022": 0.0,
			"-0.021": 0.0,
			"-0.02": 0.0,
			"-0.019": 0.0,
			"-0.018": 0.0,
			"-0.017": 0.0,
			"-0.016": 0.0,
			"-0.015": 0.0,
			"-0.014": 0.0,
			"-0.013": 0.0,
			"-0.012": 0.0,
			"-0.011": 0.0,
			"-0.01": 0.0,
			"-0.009": 0.0,
			"-0.008": 0.534078386539,
			"-0.007": 1.85503799791,
			"-0.006": 5.06806602344,
			"-0.005": 14.6971176477,
			"-0.004": 17.3681750171,
			"-0.003": 16.8573889926,
			"-0.002": 18.8007058965,
			"-0.001": 22.5144864962,
			"0.0": 17.5353665603,
			"0.001": 20.7266625486,
			"0.002": 19.8275492865,
			"0.003": 11.1694585219,
			"0.004": 9.11035496194,
			"0.005": 8.38965883796,
			"0.006": 3.50899729906,
			"0.007": 2.4272358967,
			"0.008": 3.11221214507,
			"0.009": 4.93609949498,
			"0.01": 1.82655395586,
			"0.011": 0.0260838041577,
			"0.012": 0.0,
			"0.013": 0.0,
			"0.014": 0.0,
			"0.015": 0.0,
			"0.016": 0.0,
			"0.017": 0.0,
			"0.018": 0.0,
			"0.019": 0.0,
			"0.02": 0.0,
			"0.021": 0.0,
			"0.022": 0.0,
			"0.023": 0.0,
			"0.024": 0.0,
			"0.025": 0.0
		}
	}
}
