{
	 "smiles": "OC(=O)C1=C(NC(=O)C2=COC=C2)C=C(F)C=C1", 
	 "Tm": 527.15, 
	 "num_atms": 26, 
	 "gaussian": { 
		 "optdone": 1, 
		 "sigma_profile": "yes", 
		 "theory": "DFT", 
		 "functional": "B3LYP", 
		 "basiset": "6-31G**", 
		 "properties": { 
			 "R2extent": 4926.67, 
			 "electric_dipole_moment_norm": 3.81409224587, 
			 "electric_quadrupole_moment_norm": 14.6950848514, 
			 "total_energy": -917.580035808, 
			 "HOMO_LUMO_gap": 0.17367, 
			 "cosmo_polarized_energy": -14.43, 
			 "cosmo_cavitation_energy": 32.13, 
			 "cosmo_dispersion_energy": -22.79, 
			 "cosmo_repulsion_energy": 1.72, 
			 "cosmo_total_nonelectrostatic_energy": 11.05, 
			 "SMD_solvation_energy": 9.06 
		},
		"coords": [
			{
				"x": -3.2602806936,
				"y": -1.7389484538,
				"z": -2.1052757096,
				"element": "O" 
			},
			{
				"x": -1.9545449798,
				"y": -1.6015484529,
				"z": -1.7739597568,
				"element": "C" 
			},
			{
				"x": -1.1046504446,
				"y": -2.3203718544,
				"z": -2.2861807033,
				"element": "O" 
			},
			{
				"x": -1.7049241246,
				"y": -0.5299356817,
				"z": -0.7913989083,
				"element": "C" 
			},
			{
				"x": -0.4083146114,
				"y": -0.3358446823,
				"z": -0.224152778,
				"element": "C" 
			},
			{
				"x": 0.6303643606,
				"y": -1.1875588256,
				"z": -0.5752201271,
				"element": "N" 
			},
			{
				"x": 1.9070490323,
				"y": -1.3850267971,
				"z": -0.0434844435,
				"element": "C" 
			},
			{
				"x": 2.7887220646,
				"y": -1.8200649509,
				"z": -0.7728757896,
				"element": "O" 
			},
			{
				"x": 2.1537240127,
				"y": -1.1683815943,
				"z": 1.400893376,
				"element": "C" 
			},
			{
				"x": 3.4117603406,
				"y": -0.9763488772,
				"z": 1.9059189436,
				"element": "C" 
			},
			{
				"x": 3.3818655359,
				"y": -0.9117132247,
				"z": 3.255548004,
				"element": "O" 
			},
			{
				"x": 2.0778928203,
				"y": -1.0876513588,
				"z": 3.6364965038,
				"element": "C" 
			},
			{
				"x": 1.2820871137,
				"y": -1.247214621,
				"z": 2.548632835,
				"element": "C" 
			},
			{
				"x": -0.2140914902,
				"y": 0.7575163787,
				"z": 0.6389028514,
				"element": "C" 
			},
			{
				"x": -1.2827403626,
				"y": 1.5772455003,
				"z": 0.958496057,
				"element": "C" 
			},
			{
				"x": -1.0617408013,
				"y": 2.6115289522,
				"z": 1.7888267678,
				"element": "F" 
			},
			{
				"x": -2.5653226574,
				"y": 1.3922846364,
				"z": 0.4456690583,
				"element": "C" 
			},
			{
				"x": -2.7524467154,
				"y": 0.3391002704,
				"z": -0.435269367,
				"element": "C" 
			},
			{
				"x": -3.2881850088,
				"y": -2.4479451152,
				"z": -2.7685822347,
				"element": "H" 
			},
			{
				"x": 0.4700638749,
				"y": -1.7100638568,
				"z": -1.4363911274,
				"element": "H" 
			},
			{
				"x": 4.3745623379,
				"y": -0.8759339059,
				"z": 1.4307220618,
				"element": "H" 
			},
			{
				"x": 1.8945344263,
				"y": -1.077696856,
				"z": 4.6993141942,
				"element": "H" 
			},
			{
				"x": 0.215549142,
				"y": -1.4120434621,
				"z": 2.5521386071,
				"element": "H" 
			},
			{
				"x": 0.7597696044,
				"y": 0.9826214136,
				"z": 1.0500845809,
				"element": "H" 
			},
			{
				"x": -3.3674624696,
				"y": 2.0654700882,
				"z": 0.7232058811,
				"element": "H" 
			},
			{
				"x": -3.7286403067,
				"y": 0.1722253307,
				"z": -0.8737587764,
				"element": "H" 
			}
		],
		 "valence_orbital": [ 
			{
				"type": "occ",
				"energy": -0.29008,
				"method": "rhf"
			},
			{
				"type": "occ",
				"energy": -0.26768,
				"method": "rhf"
			},
			{
				"type": "occ",
				"energy": -0.26563,
				"method": "rhf"
			},
			{
				"type": "occ",
				"energy": -0.24238,
				"method": "rhf"
			},
			{
				"type": "occ",
				"energy": -0.2338,
				"method": "rhf"
			},
			{
				"type": "unocc",
				"energy": -0.06013,
				"method": "rhf"
			},
			{
				"type": "unocc",
				"energy": -0.0404,
				"method": "rhf"
			},
			{
				"type": "unocc",
				"energy": -0.00957,
				"method": "rhf"
			},
			{
				"type": "unocc",
				"energy": 0.01935,
				"method": "rhf"
			},
			{
				"type": "unocc",
				"energy": 0.04705,
				"method": "rhf"
			}
		],
		"cosmo_sigma_profile": { 
			"-0.025": 0.0,
			"-0.024": 0.0,
			"-0.023": 0.0,
			"-0.022": 0.0,
			"-0.021": 0.0,
			"-0.02": 0.0,
			"-0.019": 0.242898559078,
			"-0.018": 0.738339026822,
			"-0.017": 1.10232100832,
			"-0.016": 0.911901742388,
			"-0.015": 0.816272047064,
			"-0.014": 0.272058732325,
			"-0.013": 0.139349812523,
			"-0.012": 0.92980806507,
			"-0.011": 1.08697993067,
			"-0.01": 1.85559076273,
			"-0.009": 3.80200921024,
			"-0.008": 5.80221552107,
			"-0.007": 8.63561759727,
			"-0.006": 10.6047309081,
			"-0.005": 12.7260188082,
			"-0.004": 12.0321256066,
			"-0.003": 13.1492896906,
			"-0.002": 18.302967341,
			"-0.001": 21.5737683226,
			"0.0": 26.7600173181,
			"0.001": 26.4231058647,
			"0.002": 19.7378177552,
			"0.003": 18.2678748101,
			"0.004": 13.5162837682,
			"0.005": 4.14214760011,
			"0.006": 6.59957170107,
			"0.007": 6.13476496669,
			"0.008": 3.51510167057,
			"0.009": 2.51795555157,
			"0.01": 3.95499510971,
			"0.011": 4.21320059719,
			"0.012": 5.48988654856,
			"0.013": 2.99863003834,
			"0.014": 0.12614796619,
			"0.015": 0.0,
			"0.016": 0.0,
			"0.017": 0.0,
			"0.018": 0.0,
			"0.019": 0.0,
			"0.02": 0.0,
			"0.021": 0.0,
			"0.022": 0.0,
			"0.023": 0.0,
			"0.024": 0.0,
			"0.025": 0.0
		}
	}
}
