{
	 "smiles": "CC(C)(C)OC(=O)NC(CO)CO", 
	 "Tm": 357.15, 
	 "num_atms": 30, 
	 "gaussian": { 
		 "optdone": 1, 
		 "sigma_profile": "yes", 
		 "theory": "DFT", 
		 "functional": "B3LYP", 
		 "basiset": "6-31G**", 
		 "properties": { 
			 "R2extent": 2967.717, 
			 "electric_dipole_moment_norm": 3.17853990851, 
			 "electric_quadrupole_moment_norm": 12.2894174215, 
			 "total_energy": -670.758340522, 
			 "HOMO_LUMO_gap": 0.29693, 
			 "cosmo_polarized_energy": -15.88, 
			 "cosmo_cavitation_energy": 31.79, 
			 "cosmo_dispersion_energy": -21.49, 
			 "cosmo_repulsion_energy": 1.75, 
			 "cosmo_total_nonelectrostatic_energy": 12.04, 
			 "SMD_solvation_energy": 6.62 
		},
		"coords": [
			{
				"x": -1.8492991011,
				"y": -1.4114313739,
				"z": -1.6985775546,
				"element": "C" 
			},
			{
				"x": -1.8686037072,
				"y": -0.1117651962,
				"z": -0.887354245,
				"element": "C" 
			},
			{
				"x": -2.5626855193,
				"y": -0.3249980287,
				"z": 0.4602671766,
				"element": "C" 
			},
			{
				"x": -2.5165594661,
				"y": 1.0447545323,
				"z": -1.6555877778,
				"element": "C" 
			},
			{
				"x": -0.4953154078,
				"y": 0.253480719,
				"z": -0.4891270029,
				"element": "O" 
			},
			{
				"x": 0.4481671862,
				"y": 0.5153331231,
				"z": -1.4247733979,
				"element": "C" 
			},
			{
				"x": 0.2833482284,
				"y": 0.5060306581,
				"z": -2.6337765281,
				"element": "O" 
			},
			{
				"x": 1.670163076,
				"y": 0.7800545421,
				"z": -0.8505097188,
				"element": "N" 
			},
			{
				"x": 2.011540777,
				"y": 1.0062308237,
				"z": 0.561893375,
				"element": "C" 
			},
			{
				"x": 1.9406457979,
				"y": -0.2914663548,
				"z": 1.3809635455,
				"element": "C" 
			},
			{
				"x": 2.7956810487,
				"y": -1.2908469352,
				"z": 0.8539844806,
				"element": "O" 
			},
			{
				"x": 1.2152620429,
				"y": 2.1556486968,
				"z": 1.192470175,
				"element": "C" 
			},
			{
				"x": 1.8449351021,
				"y": 2.4596517465,
				"z": 2.4318425269,
				"element": "O" 
			},
			{
				"x": -1.3442365196,
				"y": -2.2032505079,
				"z": -1.136163973,
				"element": "H" 
			},
			{
				"x": -2.8765169226,
				"y": -1.7367628825,
				"z": -1.8924152014,
				"element": "H" 
			},
			{
				"x": -1.3384738054,
				"y": -1.2702567777,
				"z": -2.6510886551,
				"element": "H" 
			},
			{
				"x": -2.5433623359,
				"y": 0.5916111213,
				"z": 1.057376371,
				"element": "H" 
			},
			{
				"x": -3.6069814825,
				"y": -0.6096236881,
				"z": 0.3012885982,
				"element": "H" 
			},
			{
				"x": -2.0711444956,
				"y": -1.1194344791,
				"z": 1.0292567744,
				"element": "H" 
			},
			{
				"x": -2.4758978462,
				"y": 1.9648549949,
				"z": -1.0636679762,
				"element": "H" 
			},
			{
				"x": -2.0124987937,
				"y": 1.2126809801,
				"z": -2.6072399209,
				"element": "H" 
			},
			{
				"x": -3.5691023024,
				"y": 0.8122619463,
				"z": -1.8473323552,
				"element": "H" 
			},
			{
				"x": 2.3450804676,
				"y": 1.0667270451,
				"z": -1.5438891455,
				"element": "H" 
			},
			{
				"x": 3.0623633266,
				"y": 1.3147610255,
				"z": 0.552610889,
				"element": "H" 
			},
			{
				"x": 2.2847053616,
				"y": -0.0766706688,
				"z": 2.3950016822,
				"element": "H" 
			},
			{
				"x": 0.8980905515,
				"y": -0.6350200359,
				"z": 1.436784533,
				"element": "H" 
			},
			{
				"x": 2.5397994932,
				"y": -1.4096141291,
				"z": -0.0713812066,
				"element": "H" 
			},
			{
				"x": 0.1687313715,
				"y": 1.8555783777,
				"z": 1.3303746224,
				"element": "H" 
			},
			{
				"x": 1.2328311198,
				"y": 3.0165452088,
				"z": 0.5058093409,
				"element": "H" 
			},
			{
				"x": 1.2777327542,
				"y": 3.0691355167,
				"z": 2.9185605684,
				"element": "H" 
			}
		],
		 "valence_orbital": [ 
			{
				"type": "occ",
				"energy": -0.29592,
				"method": "rhf"
			},
			{
				"type": "occ",
				"energy": -0.27521,
				"method": "rhf"
			},
			{
				"type": "occ",
				"energy": -0.26998,
				"method": "rhf"
			},
			{
				"type": "occ",
				"energy": -0.26777,
				"method": "rhf"
			},
			{
				"type": "occ",
				"energy": -0.25088,
				"method": "rhf"
			},
			{
				"type": "unocc",
				"energy": 0.04605,
				"method": "rhf"
			},
			{
				"type": "unocc",
				"energy": 0.06169,
				"method": "rhf"
			},
			{
				"type": "unocc",
				"energy": 0.06729,
				"method": "rhf"
			},
			{
				"type": "unocc",
				"energy": 0.08,
				"method": "rhf"
			},
			{
				"type": "unocc",
				"energy": 0.101,
				"method": "rhf"
			}
		],
		"cosmo_sigma_profile": { 
			"-0.025": 0.0,
			"-0.024": 0.0,
			"-0.023": 0.0,
			"-0.022": 0.0,
			"-0.021": 0.0,
			"-0.02": 0.0,
			"-0.019": 0.0,
			"-0.018": 0.0,
			"-0.017": 0.0,
			"-0.016": 0.570779366815,
			"-0.015": 1.21425802896,
			"-0.014": 1.66042432351,
			"-0.013": 2.73106445775,
			"-0.012": 2.61937781813,
			"-0.011": 2.52423728039,
			"-0.01": 2.44030625964,
			"-0.009": 2.54267144639,
			"-0.008": 2.8025673713,
			"-0.007": 3.65672874113,
			"-0.006": 4.2008766441,
			"-0.005": 5.15556578923,
			"-0.004": 17.3959019416,
			"-0.003": 25.3125007963,
			"-0.002": 25.8106839763,
			"-0.001": 27.199142926,
			"0.0": 30.8001626562,
			"0.001": 21.8851645354,
			"0.002": 9.19422732745,
			"0.003": 6.53105490132,
			"0.004": 5.22022204316,
			"0.005": 5.14139978832,
			"0.006": 3.72658955856,
			"0.007": 3.24009921523,
			"0.008": 4.33105201321,
			"0.009": 3.05066490607,
			"0.01": 4.6100036126,
			"0.011": 3.66907136877,
			"0.012": 4.07421301844,
			"0.013": 6.22420360653,
			"0.014": 5.00011963887,
			"0.015": 1.03157744036,
			"0.016": 0.0,
			"0.017": 0.0,
			"0.018": 0.0,
			"0.019": 0.0,
			"0.02": 0.0,
			"0.021": 0.0,
			"0.022": 0.0,
			"0.023": 0.0,
			"0.024": 0.0,
			"0.025": 0.0
		}
	}
}
