{
	 "smiles": "NC1=C(F)C=C2N=CNC(=O)C2=C1", 
	 "Tm": 593.15, 
	 "num_atms": 19, 
	 "gaussian": { 
		 "optdone": 1, 
		 "sigma_profile": "yes", 
		 "theory": "DFT", 
		 "functional": "B3LYP", 
		 "basiset": "6-31G**", 
		 "properties": { 
			 "R2extent": 2441.0543, 
			 "electric_dipole_moment_norm": 0.985539948455, 
			 "electric_quadrupole_moment_norm": 19.4658995197, 
			 "total_energy": -647.809141927, 
			 "HOMO_LUMO_gap": 0.1687, 
			 "cosmo_polarized_energy": -16.52, 
			 "cosmo_cavitation_energy": 24.1, 
			 "cosmo_dispersion_energy": -18.21, 
			 "cosmo_repulsion_energy": 1.4, 
			 "cosmo_total_nonelectrostatic_energy": 7.28, 
			 "SMD_solvation_energy": 3.92 
		},
		"coords": [
			{
				"x": 1.3787499015,
				"y": -2.9107442973,
				"z": -0.762099075,
				"element": "N" 
			},
			{
				"x": 1.1366532771,
				"y": -1.6033992916,
				"z": -0.3694953022,
				"element": "C" 
			},
			{
				"x": 2.1456265286,
				"y": -0.6277444903,
				"z": -0.5508748077,
				"element": "C" 
			},
			{
				"x": 3.2761261876,
				"y": -1.0375135088,
				"z": -1.1768017269,
				"element": "F" 
			},
			{
				"x": 2.0248325212,
				"y": 0.6797093078,
				"z": -0.1443980563,
				"element": "C" 
			},
			{
				"x": 0.8381321531,
				"y": 1.0955964785,
				"z": 0.4920725749,
				"element": "C" 
			},
			{
				"x": 0.7275530155,
				"y": 2.4199166891,
				"z": 0.8998487866,
				"element": "N" 
			},
			{
				"x": -0.3768820092,
				"y": 2.7565863696,
				"z": 1.4739402688,
				"element": "C" 
			},
			{
				"x": -1.4302867836,
				"y": 1.9028210913,
				"z": 1.7006531966,
				"element": "N" 
			},
			{
				"x": -1.4385110347,
				"y": 0.5496002827,
				"z": 1.334256568,
				"element": "C" 
			},
			{
				"x": -2.4113670139,
				"y": -0.1580703358,
				"z": 1.5617307434,
				"element": "O" 
			},
			{
				"x": -0.1900232984,
				"y": 0.1399533824,
				"z": 0.6811372993,
				"element": "C" 
			},
			{
				"x": -0.0369184432,
				"y": -1.1867646037,
				"z": 0.2552880751,
				"element": "C" 
			},
			{
				"x": 2.1109213859,
				"y": -3.0237962839,
				"z": -1.4482059797,
				"element": "H" 
			},
			{
				"x": 0.5622289634,
				"y": -3.4767366085,
				"z": -0.9406710157,
				"element": "H" 
			},
			{
				"x": 2.8286685145,
				"y": 1.3867357689,
				"z": -0.3118798658,
				"element": "H" 
			},
			{
				"x": -0.5214692211,
				"y": 3.7792549038,
				"z": 1.81587316,
				"element": "H" 
			},
			{
				"x": -2.271065924,
				"y": 2.2344878442,
				"z": 2.1573967525,
				"element": "H" 
			},
			{
				"x": -0.8537687202,
				"y": -1.8803926985,
				"z": 0.4282284041,
				"element": "H" 
			}
		],
		 "valence_orbital": [ 
			{
				"type": "occ",
				"energy": -0.27825,
				"method": "rhf"
			},
			{
				"type": "occ",
				"energy": -0.26922,
				"method": "rhf"
			},
			{
				"type": "occ",
				"energy": -0.26218,
				"method": "rhf"
			},
			{
				"type": "occ",
				"energy": -0.25699,
				"method": "rhf"
			},
			{
				"type": "occ",
				"energy": -0.20641,
				"method": "rhf"
			},
			{
				"type": "unocc",
				"energy": -0.03771,
				"method": "rhf"
			},
			{
				"type": "unocc",
				"energy": -0.02991,
				"method": "rhf"
			},
			{
				"type": "unocc",
				"energy": 0.02806,
				"method": "rhf"
			},
			{
				"type": "unocc",
				"energy": 0.07038,
				"method": "rhf"
			},
			{
				"type": "unocc",
				"energy": 0.07635,
				"method": "rhf"
			}
		],
		"cosmo_sigma_profile": { 
			"-0.025": 0.0,
			"-0.024": 0.0,
			"-0.023": 0.0,
			"-0.022": 0.0,
			"-0.021": 0.0,
			"-0.02": 0.0,
			"-0.019": 0.0,
			"-0.018": 0.0,
			"-0.017": 0.304625984481,
			"-0.016": 1.68263036175,
			"-0.015": 1.46991404754,
			"-0.014": 1.32083325172,
			"-0.013": 2.79429568406,
			"-0.012": 4.05466901814,
			"-0.011": 2.92185801229,
			"-0.01": 5.1871240895,
			"-0.009": 5.51138579699,
			"-0.008": 5.12698416669,
			"-0.007": 5.90772347283,
			"-0.006": 5.30309730816,
			"-0.005": 5.92854377301,
			"-0.004": 5.73986352892,
			"-0.003": 8.11012633417,
			"-0.002": 10.4931558717,
			"-0.001": 10.7714823507,
			"0.0": 13.0808315333,
			"0.001": 15.1018602565,
			"0.002": 17.5909959421,
			"0.003": 16.8887802933,
			"0.004": 10.7405699801,
			"0.005": 3.15956501796,
			"0.006": 4.08584381072,
			"0.007": 4.28941928059,
			"0.008": 2.51271547551,
			"0.009": 2.62181211878,
			"0.01": 2.58305260953,
			"0.011": 4.60468686985,
			"0.012": 3.38433637751,
			"0.013": 7.59610760028,
			"0.014": 1.64613259743,
			"0.015": 0.731516209202,
			"0.016": 0.239878677689,
			"0.017": 0.0,
			"0.018": 0.0,
			"0.019": 0.0,
			"0.02": 0.0,
			"0.021": 0.0,
			"0.022": 0.0,
			"0.023": 0.0,
			"0.024": 0.0,
			"0.025": 0.0
		}
	}
}
