{
	 "smiles": "NC1=NC(=CS1)C1=CC=C(OCC2=CC=CC=C2)C=C1", 
	 "Tm": 434.15, 
	 "num_atms": 34, 
	 "gaussian": { 
		 "optdone": 1, 
		 "sigma_profile": "yes", 
		 "theory": "DFT", 
		 "functional": "B3LYP", 
		 "basiset": "6-31G**", 
		 "properties": { 
			 "R2extent": 9757.6761, 
			 "electric_dipole_moment_norm": 2.05140009262, 
			 "electric_quadrupole_moment_norm": 15.5775708597, 
			 "total_energy": -1201.04781039, 
			 "HOMO_LUMO_gap": 0.16981, 
			 "cosmo_polarized_energy": -15.03, 
			 "cosmo_cavitation_energy": 40.07, 
			 "cosmo_dispersion_energy": -29.48, 
			 "cosmo_repulsion_energy": 2.22, 
			 "cosmo_total_nonelectrostatic_energy": 12.81, 
			 "SMD_solvation_energy": 5.4 
		},
		"coords": [
			{
				"x": -0.2705244865,
				"y": -0.2424423324,
				"z": -6.3817215122,
				"element": "N" 
			},
			{
				"x": 0.5824503033,
				"y": -0.6112062445,
				"z": -5.3637854574,
				"element": "C" 
			},
			{
				"x": 0.2440268211,
				"y": -0.6539411501,
				"z": -4.1116219808,
				"element": "N" 
			},
			{
				"x": 1.2794076093,
				"y": -1.1370163073,
				"z": -3.3187148069,
				"element": "C" 
			},
			{
				"x": 2.4250076392,
				"y": -1.4534854576,
				"z": -3.9985471676,
				"element": "C" 
			},
			{
				"x": 2.2260743529,
				"y": -1.1680574451,
				"z": -5.709346495,
				"element": "S" 
			},
			{
				"x": 1.062321676,
				"y": -1.249460636,
				"z": -1.8650716537,
				"element": "C" 
			},
			{
				"x": -0.1573202192,
				"y": -0.8475926519,
				"z": -1.303611208,
				"element": "C" 
			},
			{
				"x": -0.3978230334,
				"y": -0.9371593689,
				"z": 0.0679960676,
				"element": "C" 
			},
			{
				"x": 0.5945569678,
				"y": -1.4445944986,
				"z": 0.9127012053,
				"element": "C" 
			},
			{
				"x": 0.4750917674,
				"y": -1.5953075094,
				"z": 2.2695878114,
				"element": "O" 
			},
			{
				"x": -0.7886533488,
				"y": -1.3638810381,
				"z": 2.8857268992,
				"element": "C" 
			},
			{
				"x": -1.1165194837,
				"y": 0.1008997313,
				"z": 3.1080331906,
				"element": "C" 
			},
			{
				"x": -0.100292417,
				"y": 1.0392374921,
				"z": 3.3210155053,
				"element": "C" 
			},
			{
				"x": -0.4155614263,
				"y": 2.3734917471,
				"z": 3.5790217539,
				"element": "C" 
			},
			{
				"x": -1.7494072812,
				"y": 2.783745127,
				"z": 3.6354608432,
				"element": "C" 
			},
			{
				"x": -2.7678381508,
				"y": 1.8523715885,
				"z": 3.4263793069,
				"element": "C" 
			},
			{
				"x": -2.4513131506,
				"y": 0.5192161327,
				"z": 3.1598000296,
				"element": "C" 
			},
			{
				"x": 1.8232170074,
				"y": -1.8486218341,
				"z": 0.3686431427,
				"element": "C" 
			},
			{
				"x": 2.0492766864,
				"y": -1.7512906276,
				"z": -0.9958477287,
				"element": "C" 
			},
			{
				"x": 0.1494615452,
				"y": 0.2036896775,
				"z": -7.1848757611,
				"element": "H" 
			},
			{
				"x": -1.0992048942,
				"y": 0.2289228166,
				"z": -6.0424611051,
				"element": "H" 
			},
			{
				"x": 3.365926157,
				"y": -1.8216419399,
				"z": -3.6194456713,
				"element": "H" 
			},
			{
				"x": -0.9243458315,
				"y": -0.4533107404,
				"z": -1.9603193399,
				"element": "H" 
			},
			{
				"x": -1.3444643895,
				"y": -0.5903449806,
				"z": 0.464150708,
				"element": "H" 
			},
			{
				"x": -1.5889085326,
				"y": -1.8563711044,
				"z": 2.3174719671,
				"element": "H" 
			},
			{
				"x": -0.710659963,
				"y": -1.8773523834,
				"z": 3.8507499682,
				"element": "H" 
			},
			{
				"x": 0.9354500394,
				"y": 0.7181495261,
				"z": 3.2726042462,
				"element": "H" 
			},
			{
				"x": 0.3818726147,
				"y": 3.0943568355,
				"z": 3.7364057538,
				"element": "H" 
			},
			{
				"x": -1.9931643419,
				"y": 3.8229607677,
				"z": 3.8365978238,
				"element": "H" 
			},
			{
				"x": -3.8080148966,
				"y": 2.1638417707,
				"z": 3.4618926821,
				"element": "H" 
			},
			{
				"x": -3.2488152377,
				"y": -0.2010019876,
				"z": 2.9892001229,
				"element": "H" 
			},
			{
				"x": 2.5817291575,
				"y": -2.2432010123,
				"z": 1.0369322745,
				"element": "H" 
			},
			{
				"x": 3.00726074,
				"y": -2.0784019625,
				"z": -1.3888014146,
				"element": "H" 
			}
		],
		 "valence_orbital": [ 
			{
				"type": "occ",
				"energy": -0.25088,
				"method": "rhf"
			},
			{
				"type": "occ",
				"energy": -0.24812,
				"method": "rhf"
			},
			{
				"type": "occ",
				"energy": -0.24179,
				"method": "rhf"
			},
			{
				"type": "occ",
				"energy": -0.22878,
				"method": "rhf"
			},
			{
				"type": "occ",
				"energy": -0.18863,
				"method": "rhf"
			},
			{
				"type": "unocc",
				"energy": -0.01882,
				"method": "rhf"
			},
			{
				"type": "unocc",
				"energy": -0.00602,
				"method": "rhf"
			},
			{
				"type": "unocc",
				"energy": -0.00328,
				"method": "rhf"
			},
			{
				"type": "unocc",
				"energy": 0.00731,
				"method": "rhf"
			},
			{
				"type": "unocc",
				"energy": 0.01399,
				"method": "rhf"
			}
		],
		"cosmo_sigma_profile": { 
			"-0.025": 0.0,
			"-0.024": 0.0,
			"-0.023": 0.0,
			"-0.022": 0.0,
			"-0.021": 0.0,
			"-0.02": 0.0,
			"-0.019": 0.0,
			"-0.018": 0.0,
			"-0.017": 0.0,
			"-0.016": 0.0,
			"-0.015": 0.377813820536,
			"-0.014": 1.89059437636,
			"-0.013": 2.84893392198,
			"-0.012": 1.89516524471,
			"-0.011": 2.79998579137,
			"-0.01": 2.40687430403,
			"-0.009": 2.7856448745,
			"-0.008": 4.75618464531,
			"-0.007": 4.94336615276,
			"-0.006": 16.6063810954,
			"-0.005": 21.9290474262,
			"-0.004": 23.6739741273,
			"-0.003": 21.9347373079,
			"-0.002": 16.9057161638,
			"-0.001": 16.1908946589,
			"0.0": 17.4170000212,
			"0.001": 19.337619697,
			"0.002": 22.6114238405,
			"0.003": 27.2939594695,
			"0.004": 34.2790151606,
			"0.005": 30.2934055013,
			"0.006": 13.5942600692,
			"0.007": 3.96497702059,
			"0.008": 3.4678694406,
			"0.009": 3.0559437286,
			"0.01": 2.67050689673,
			"0.011": 2.35951837023,
			"0.012": 0.696439978937,
			"0.013": 0.0,
			"0.014": 0.0,
			"0.015": 0.0,
			"0.016": 0.0,
			"0.017": 0.0,
			"0.018": 0.0,
			"0.019": 0.0,
			"0.02": 0.0,
			"0.021": 0.0,
			"0.022": 0.0,
			"0.023": 0.0,
			"0.024": 0.0,
			"0.025": 0.0
		}
	}
}
