{
	 "smiles": "COC1=C(C)C=CC(=C1)[N+]([O-])=O", 
	 "Tm": 344.65, 
	 "num_atms": 21, 
	 "gaussian": { 
		 "optdone": 1, 
		 "sigma_profile": "yes", 
		 "theory": "DFT", 
		 "functional": "B3LYP", 
		 "basiset": "6-31G**", 
		 "properties": { 
			 "R2extent": 2486.1675, 
			 "electric_dipole_moment_norm": 4.69297403573, 
			 "electric_quadrupole_moment_norm": 14.2489167953, 
			 "total_energy": -590.595703782, 
			 "HOMO_LUMO_gap": 0.15651, 
			 "cosmo_polarized_energy": -8.81, 
			 "cosmo_cavitation_energy": 25.43, 
			 "cosmo_dispersion_energy": -18.57, 
			 "cosmo_repulsion_energy": 1.48, 
			 "cosmo_total_nonelectrostatic_energy": 8.35, 
			 "SMD_solvation_energy": 7.53 
		},
		"coords": [
			{
				"x": 1.122032954,
				"y": -1.7699141052,
				"z": -1.2018705271,
				"element": "C" 
			},
			{
				"x": -0.2487490767,
				"y": -1.4009117557,
				"z": -1.1200966359,
				"element": "O" 
			},
			{
				"x": -0.5869053854,
				"y": -0.3346480916,
				"z": -0.3434759951,
				"element": "C" 
			},
			{
				"x": -1.9685033498,
				"y": -0.0254791627,
				"z": -0.3099110019,
				"element": "C" 
			},
			{
				"x": -2.9377048098,
				"y": -0.8599264169,
				"z": -1.101862796,
				"element": "C" 
			},
			{
				"x": -2.3849934253,
				"y": 1.0562737621,
				"z": 0.4670504406,
				"element": "C" 
			},
			{
				"x": -1.4857109027,
				"y": 1.8306128409,
				"z": 1.2019711816,
				"element": "C" 
			},
			{
				"x": -0.1402438636,
				"y": 1.4931153138,
				"z": 1.1410663375,
				"element": "C" 
			},
			{
				"x": 0.3329138095,
				"y": 0.4217121061,
				"z": 0.3805901516,
				"element": "C" 
			},
			{
				"x": 0.8330822252,
				"y": 2.2878951411,
				"z": 1.9029053369,
				"element": "N" 
			},
			{
				"x": 2.0201889441,
				"y": 1.9656982819,
				"z": 1.828005805,
				"element": "O" 
			},
			{
				"x": 0.406820854,
				"y": 3.2314718953,
				"z": 2.5686467657,
				"element": "O" 
			},
			{
				"x": 1.5222966505,
				"y": -2.0482568825,
				"z": -0.2191754453,
				"element": "H" 
			},
			{
				"x": 1.1599721391,
				"y": -2.6337021057,
				"z": -1.8663335972,
				"element": "H" 
			},
			{
				"x": 1.7315134561,
				"y": -0.9601840432,
				"z": -1.6216926967,
				"element": "H" 
			},
			{
				"x": -3.9609480815,
				"y": -0.4990229047,
				"z": -0.9746341687,
				"element": "H" 
			},
			{
				"x": -2.8954305145,
				"y": -1.9100592837,
				"z": -0.7930558918,
				"element": "H" 
			},
			{
				"x": -2.6901049926,
				"y": -0.842911976,
				"z": -2.1687890439,
				"element": "H" 
			},
			{
				"x": -3.4434365641,
				"y": 1.2992519145,
				"z": 0.4975329313,
				"element": "H" 
			},
			{
				"x": -1.8049163078,
				"y": 2.6699233781,
				"z": 1.8054059573,
				"element": "H" 
			},
			{
				"x": 1.3935262412,
				"y": 0.215162094,
				"z": 0.378722892,
				"element": "H" 
			}
		],
		 "valence_orbital": [ 
			{
				"type": "occ",
				"energy": -0.30386,
				"method": "rhf"
			},
			{
				"type": "occ",
				"energy": -0.30142,
				"method": "rhf"
			},
			{
				"type": "occ",
				"energy": -0.28469,
				"method": "rhf"
			},
			{
				"type": "occ",
				"energy": -0.26983,
				"method": "rhf"
			},
			{
				"type": "occ",
				"energy": -0.23935,
				"method": "rhf"
			},
			{
				"type": "unocc",
				"energy": -0.08284,
				"method": "rhf"
			},
			{
				"type": "unocc",
				"energy": -0.01097,
				"method": "rhf"
			},
			{
				"type": "unocc",
				"energy": 0.0103,
				"method": "rhf"
			},
			{
				"type": "unocc",
				"energy": 0.08494,
				"method": "rhf"
			},
			{
				"type": "unocc",
				"energy": 0.09471,
				"method": "rhf"
			}
		],
		"cosmo_sigma_profile": { 
			"-0.025": 0.0,
			"-0.024": 0.0,
			"-0.023": 0.0,
			"-0.022": 0.0,
			"-0.021": 0.0,
			"-0.02": 0.0,
			"-0.019": 0.0,
			"-0.018": 0.0,
			"-0.017": 0.0,
			"-0.016": 0.0,
			"-0.015": 0.0,
			"-0.014": 0.0,
			"-0.013": 0.0,
			"-0.012": 0.0,
			"-0.011": 0.0,
			"-0.01": 0.0,
			"-0.009": 0.0,
			"-0.008": 0.113491725712,
			"-0.007": 4.70868818233,
			"-0.006": 13.6008442679,
			"-0.005": 17.1578771903,
			"-0.004": 18.5614801033,
			"-0.003": 15.8604162161,
			"-0.002": 13.8940669658,
			"-0.001": 17.7665182993,
			"0.0": 18.6502074872,
			"0.001": 17.2471537739,
			"0.002": 14.7656048114,
			"0.003": 8.05626699079,
			"0.004": 4.78816978881,
			"0.005": 5.25214341906,
			"0.006": 4.72799086482,
			"0.007": 7.578405437,
			"0.008": 10.6499514886,
			"0.009": 5.13367435797,
			"0.01": 3.13124218514,
			"0.011": 0.65732164369,
			"0.012": 0.0,
			"0.013": 0.0,
			"0.014": 0.0,
			"0.015": 0.0,
			"0.016": 0.0,
			"0.017": 0.0,
			"0.018": 0.0,
			"0.019": 0.0,
			"0.02": 0.0,
			"0.021": 0.0,
			"0.022": 0.0,
			"0.023": 0.0,
			"0.024": 0.0,
			"0.025": 0.0
		}
	}
}
