{
	 "smiles": "OC(=O)[C@@H]1CC2=C(CN1)NC1=CC=CC=C21", 
	 "Tm": 569.15, 
	 "num_atms": 28, 
	 "gaussian": { 
		 "optdone": 1, 
		 "sigma_profile": "yes", 
		 "theory": "DFT", 
		 "functional": "B3LYP", 
		 "basiset": "6-31G**", 
		 "properties": { 
			 "R2extent": 4111.0253, 
			 "electric_dipole_moment_norm": 3.01695617966, 
			 "electric_quadrupole_moment_norm": 6.91066246463, 
			 "total_energy": -724.472278303, 
			 "HOMO_LUMO_gap": 0.19008, 
			 "cosmo_polarized_energy": -18.11, 
			 "cosmo_cavitation_energy": 30.73, 
			 "cosmo_dispersion_energy": -22.73, 
			 "cosmo_repulsion_energy": 1.77, 
			 "cosmo_total_nonelectrostatic_energy": 9.76, 
			 "SMD_solvation_energy": 3.4 
		},
		"coords": [
			{
				"x": -1.0966151485,
				"y": -1.9451179941,
				"z": 3.7243876393,
				"element": "O" 
			},
			{
				"x": -1.8966986247,
				"y": -1.00548788,
				"z": 3.1739355722,
				"element": "C" 
			},
			{
				"x": -3.0292068061,
				"y": -1.2487691689,
				"z": 2.8167793056,
				"element": "O" 
			},
			{
				"x": -1.2644776238,
				"y": 0.3883359628,
				"z": 3.102604951,
				"element": "C" 
			},
			{
				"x": -1.7140397532,
				"y": 1.1088827884,
				"z": 1.8038930372,
				"element": "C" 
			},
			{
				"x": -0.810359303,
				"y": 0.7130741794,
				"z": 0.6724229627,
				"element": "C" 
			},
			{
				"x": 0.4018902045,
				"y": 0.1061190019,
				"z": 0.8825022512,
				"element": "C" 
			},
			{
				"x": 0.9593418331,
				"y": -0.2488980803,
				"z": 2.2298889053,
				"element": "C" 
			},
			{
				"x": 0.186388572,
				"y": 0.3670059167,
				"z": 3.3202590659,
				"element": "N" 
			},
			{
				"x": 1.0074141913,
				"y": -0.1615097127,
				"z": -0.3338812171,
				"element": "N" 
			},
			{
				"x": 0.1875112116,
				"y": 0.2862798618,
				"z": -1.355278412,
				"element": "C" 
			},
			{
				"x": 0.3641257282,
				"y": 0.2481674927,
				"z": -2.7409192314,
				"element": "C" 
			},
			{
				"x": -0.647173294,
				"y": 0.7827657705,
				"z": -3.533824023,
				"element": "C" 
			},
			{
				"x": -1.8062801656,
				"y": 1.3413105448,
				"z": -2.9595399046,
				"element": "C" 
			},
			{
				"x": -1.9777013689,
				"y": 1.3785026521,
				"z": -1.580271513,
				"element": "C" 
			},
			{
				"x": -0.9741951345,
				"y": 0.8480735464,
				"z": -0.7524858676,
				"element": "C" 
			},
			{
				"x": -1.6282931154,
				"y": -2.7595578469,
				"z": 3.7357512194,
				"element": "H" 
			},
			{
				"x": -1.6994399163,
				"y": 0.9182834409,
				"z": 3.960975622,
				"element": "H" 
			},
			{
				"x": -1.6853014379,
				"y": 2.1951117623,
				"z": 1.9724026488,
				"element": "H" 
			},
			{
				"x": -2.7571440602,
				"y": 0.8495660041,
				"z": 1.5973044463,
				"element": "H" 
			},
			{
				"x": 0.9616326856,
				"y": -1.3377184379,
				"z": 2.3756753142,
				"element": "H" 
			},
			{
				"x": 2.0017454505,
				"y": 0.0789989539,
				"z": 2.3325001171,
				"element": "H" 
			},
			{
				"x": 0.491646097,
				"y": 1.3299366199,
				"z": 3.4318053614,
				"element": "H" 
			},
			{
				"x": 1.9023842579,
				"y": -0.6061920621,
				"z": -0.4575346509,
				"element": "H" 
			},
			{
				"x": 1.2568236661,
				"y": -0.1836682308,
				"z": -3.1853647225,
				"element": "H" 
			},
			{
				"x": -0.5407258951,
				"y": 0.7672506958,
				"z": -4.6146185425,
				"element": "H" 
			},
			{
				"x": -2.5768331188,
				"y": 1.748005977,
				"z": -3.6080645233,
				"element": "H" 
			},
			{
				"x": -2.8764191317,
				"y": 1.8099482423,
				"z": -1.1481058116,
				"element": "H" 
			}
		],
		 "valence_orbital": [ 
			{
				"type": "occ",
				"energy": -0.27643,
				"method": "rhf"
			},
			{
				"type": "occ",
				"energy": -0.26441,
				"method": "rhf"
			},
			{
				"type": "occ",
				"energy": -0.23268,
				"method": "rhf"
			},
			{
				"type": "occ",
				"energy": -0.21349,
				"method": "rhf"
			},
			{
				"type": "occ",
				"energy": -0.19379,
				"method": "rhf"
			},
			{
				"type": "unocc",
				"energy": -0.00371,
				"method": "rhf"
			},
			{
				"type": "unocc",
				"energy": 0.00664,
				"method": "rhf"
			},
			{
				"type": "unocc",
				"energy": 0.03262,
				"method": "rhf"
			},
			{
				"type": "unocc",
				"energy": 0.06645,
				"method": "rhf"
			},
			{
				"type": "unocc",
				"energy": 0.07688,
				"method": "rhf"
			}
		],
		"cosmo_sigma_profile": { 
			"-0.025": 0.0,
			"-0.024": 0.0,
			"-0.023": 0.0,
			"-0.022": 0.0,
			"-0.021": 0.0,
			"-0.02": 0.0,
			"-0.019": 0.0631454126839,
			"-0.018": 0.609604106252,
			"-0.017": 1.14822178456,
			"-0.016": 0.771664481877,
			"-0.015": 1.64946399985,
			"-0.014": 2.26056169099,
			"-0.013": 1.2844555358,
			"-0.012": 2.09851057175,
			"-0.011": 4.27039086969,
			"-0.01": 3.31580618317,
			"-0.009": 3.20991346087,
			"-0.008": 4.00465959342,
			"-0.007": 6.68020112544,
			"-0.006": 10.3193148682,
			"-0.005": 13.238092783,
			"-0.004": 15.9332298917,
			"-0.003": 16.8654280493,
			"-0.002": 17.9166138551,
			"-0.001": 17.3187757955,
			"0.0": 11.9630164197,
			"0.001": 9.37053960955,
			"0.002": 10.0881450066,
			"0.003": 10.8817332277,
			"0.004": 12.3515802034,
			"0.005": 14.2531417417,
			"0.006": 14.3455854355,
			"0.007": 11.6981096669,
			"0.008": 5.74126373251,
			"0.009": 2.08882087567,
			"0.01": 3.65381157164,
			"0.011": 4.22411102346,
			"0.012": 5.21942333027,
			"0.013": 1.01881417416,
			"0.014": 0.790204839148,
			"0.015": 1.13338021125,
			"0.016": 0.489412119891,
			"0.017": 0.551847677739,
			"0.018": 0.25239206106,
			"0.019": 0.0,
			"0.02": 0.0,
			"0.021": 0.0,
			"0.022": 0.0,
			"0.023": 0.0,
			"0.024": 0.0,
			"0.025": 0.0
		}
	}
}
