{
	 "smiles": "COC1=CC(O)=C(C=C1)C(O)=O", 
	 "Tm": 431.15, 
	 "num_atms": 20, 
	 "gaussian": { 
		 "optdone": 1, 
		 "sigma_profile": "yes", 
		 "theory": "DFT", 
		 "functional": "B3LYP", 
		 "basiset": "6-31G**", 
		 "properties": { 
			 "R2extent": 3054.3237, 
			 "electric_dipole_moment_norm": 8.06092960954, 
			 "electric_quadrupole_moment_norm": 21.7700061674, 
			 "total_energy": -610.566973307, 
			 "HOMO_LUMO_gap": 0.19944, 
			 "cosmo_polarized_energy": -19.91, 
			 "cosmo_cavitation_energy": 24.27, 
			 "cosmo_dispersion_energy": -18.41, 
			 "cosmo_repulsion_energy": 1.46, 
			 "cosmo_total_nonelectrostatic_energy": 7.32, 
			 "SMD_solvation_energy": 6.47 
		},
		"coords": [
			{
				"x": 2.4623683001,
				"y": -3.0079209918,
				"z": -1.2311169516,
				"element": "C" 
			},
			{
				"x": 1.2618166858,
				"y": -2.4745255164,
				"z": -1.7716315605,
				"element": "O" 
			},
			{
				"x": 0.9655129535,
				"y": -1.1695333755,
				"z": -1.5466688976,
				"element": "C" 
			},
			{
				"x": 1.7714654162,
				"y": -0.2964114468,
				"z": -0.807867745,
				"element": "C" 
			},
			{
				"x": 1.37120585,
				"y": 1.0323297517,
				"z": -0.6365606186,
				"element": "C" 
			},
			{
				"x": 2.1576690278,
				"y": 1.8981986135,
				"z": 0.0886181001,
				"element": "O" 
			},
			{
				"x": 0.1757510028,
				"y": 1.521344863,
				"z": -1.1875287287,
				"element": "C" 
			},
			{
				"x": -0.6075254008,
				"y": 0.6133292734,
				"z": -1.9237513905,
				"element": "C" 
			},
			{
				"x": -0.2357902122,
				"y": -0.7050894799,
				"z": -2.1086192187,
				"element": "C" 
			},
			{
				"x": -0.3471545826,
				"y": 2.9238240155,
				"z": -1.0654843857,
				"element": "C" 
			},
			{
				"x": 0.3827426361,
				"y": 3.8171649231,
				"z": -0.3648285557,
				"element": "O" 
			},
			{
				"x": -1.3942969512,
				"y": 3.2607819212,
				"z": -1.5762219887,
				"element": "O" 
			},
			{
				"x": 3.3464977632,
				"y": -2.4939409835,
				"z": -1.6290054585,
				"element": "H" 
			},
			{
				"x": 2.4712093515,
				"y": -2.9503296262,
				"z": -0.1353145944,
				"element": "H" 
			},
			{
				"x": 2.4892555685,
				"y": -4.054840469,
				"z": -1.5352461197,
				"element": "H" 
			},
			{
				"x": 2.7032478178,
				"y": -0.6310906165,
				"z": -0.3641770362,
				"element": "H" 
			},
			{
				"x": 2.9482969195,
				"y": 1.4511645264,
				"z": 0.4151496374,
				"element": "H" 
			},
			{
				"x": -1.5295210124,
				"y": 0.9967866743,
				"z": -2.3468491269,
				"element": "H" 
			},
			{
				"x": -0.8469118896,
				"y": -1.3963221223,
				"z": -2.6777883915,
				"element": "H" 
			},
			{
				"x": 1.190460756,
				"y": 3.3993800659,
				"z": -0.0192069693,
				"element": "H" 
			}
		],
		 "valence_orbital": [ 
			{
				"type": "occ",
				"energy": -0.32465,
				"method": "rhf"
			},
			{
				"type": "occ",
				"energy": -0.29174,
				"method": "rhf"
			},
			{
				"type": "occ",
				"energy": -0.25827,
				"method": "rhf"
			},
			{
				"type": "occ",
				"energy": -0.25717,
				"method": "rhf"
			},
			{
				"type": "occ",
				"energy": -0.23324,
				"method": "rhf"
			},
			{
				"type": "unocc",
				"energy": -0.0338,
				"method": "rhf"
			},
			{
				"type": "unocc",
				"energy": -0.00924,
				"method": "rhf"
			},
			{
				"type": "unocc",
				"energy": 0.03576,
				"method": "rhf"
			},
			{
				"type": "unocc",
				"energy": 0.06807,
				"method": "rhf"
			},
			{
				"type": "unocc",
				"energy": 0.07738,
				"method": "rhf"
			}
		],
		"cosmo_sigma_profile": { 
			"-0.025": 0.0,
			"-0.024": 0.0,
			"-0.023": 0.0,
			"-0.022": 0.0,
			"-0.021": 0.0,
			"-0.02": 0.188870051619,
			"-0.019": 1.42734102099,
			"-0.018": 0.690935948387,
			"-0.017": 1.30080602293,
			"-0.016": 0.931414189638,
			"-0.015": 1.21113346608,
			"-0.014": 1.02719901808,
			"-0.013": 1.02427196342,
			"-0.012": 0.837670406896,
			"-0.011": 1.25014683176,
			"-0.01": 1.00703303671,
			"-0.009": 1.54174944399,
			"-0.008": 2.71775211223,
			"-0.007": 5.01371166756,
			"-0.006": 11.2449380742,
			"-0.005": 13.8153839529,
			"-0.004": 15.2448552223,
			"-0.003": 12.0060580437,
			"-0.002": 10.6866928791,
			"-0.001": 8.90080631969,
			"0.0": 10.3420714606,
			"0.001": 13.082813137,
			"0.002": 16.1536308438,
			"0.003": 14.4121203937,
			"0.004": 8.34311052038,
			"0.005": 4.55984023638,
			"0.006": 3.93786771668,
			"0.007": 3.16193832632,
			"0.008": 3.41830174229,
			"0.009": 3.99819187826,
			"0.01": 4.08465232253,
			"0.011": 4.09315340027,
			"0.012": 6.42074068346,
			"0.013": 3.83060847791,
			"0.014": 1.64766623037,
			"0.015": 0.0529088997232,
			"0.016": 0.0,
			"0.017": 0.0,
			"0.018": 0.0,
			"0.019": 0.0,
			"0.02": 0.0,
			"0.021": 0.0,
			"0.022": 0.0,
			"0.023": 0.0,
			"0.024": 0.0,
			"0.025": 0.0
		}
	}
}
