{
	 "smiles": "O=C(C1CCCCC1)C1=CC=CC=C1", 
	 "Tm": 328.65, 
	 "num_atms": 30, 
	 "gaussian": { 
		 "optdone": 1, 
		 "sigma_profile": "yes", 
		 "theory": "DFT", 
		 "functional": "B3LYP", 
		 "basiset": "6-31G**", 
		 "properties": { 
			 "R2extent": 4067.7572, 
			 "electric_dipole_moment_norm": 2.66783937672, 
			 "electric_quadrupole_moment_norm": 10.1462692597, 
			 "total_energy": -580.269156656, 
			 "HOMO_LUMO_gap": 0.18632, 
			 "cosmo_polarized_energy": -6.96, 
			 "cosmo_cavitation_energy": 30.56, 
			 "cosmo_dispersion_energy": -22.48, 
			 "cosmo_repulsion_energy": 1.76, 
			 "cosmo_total_nonelectrostatic_energy": 9.84, 
			 "SMD_solvation_energy": 4.68 
		},
		"coords": [
			{
				"x": 2.1003047162,
				"y": 1.165642414,
				"z": -0.9813700266,
				"element": "O" 
			},
			{
				"x": 1.7395350609,
				"y": 0.9646748682,
				"z": 0.1712840971,
				"element": "C" 
			},
			{
				"x": 1.9277992787,
				"y": -0.3999732194,
				"z": 0.8383018186,
				"element": "C" 
			},
			{
				"x": 0.5745949371,
				"y": -1.1616468663,
				"z": 0.9330929476,
				"element": "C" 
			},
			{
				"x": 0.1189202703,
				"y": -1.7203952004,
				"z": -0.4228294726,
				"element": "C" 
			},
			{
				"x": 1.1906986149,
				"y": -2.6334951445,
				"z": -1.0352646048,
				"element": "C" 
			},
			{
				"x": 2.5251676847,
				"y": -1.8905723271,
				"z": -1.1913364843,
				"element": "C" 
			},
			{
				"x": 2.9945102128,
				"y": -1.2674970308,
				"z": 0.1346271417,
				"element": "C" 
			},
			{
				"x": 1.0864105821,
				"y": 2.0810249505,
				"z": 0.9450072992,
				"element": "C" 
			},
			{
				"x": 0.7526263645,
				"y": 1.9966919561,
				"z": 2.3063272697,
				"element": "C" 
			},
			{
				"x": 0.1606950711,
				"y": 3.0787503391,
				"z": 2.9586579105,
				"element": "C" 
			},
			{
				"x": -0.1065629662,
				"y": 4.257025635,
				"z": 2.2598747561,
				"element": "C" 
			},
			{
				"x": 0.2223112398,
				"y": 4.3523950553,
				"z": 0.9042708217,
				"element": "C" 
			},
			{
				"x": 0.8145937067,
				"y": 3.2741127321,
				"z": 0.2545897378,
				"element": "C" 
			},
			{
				"x": 2.2720659095,
				"y": -0.2090095004,
				"z": 1.8628139748,
				"element": "H" 
			},
			{
				"x": 0.7094160135,
				"y": -1.9950242571,
				"z": 1.6359539392,
				"element": "H" 
			},
			{
				"x": -0.1992282971,
				"y": -0.5143527934,
				"z": 1.3597436471,
				"element": "H" 
			},
			{
				"x": -0.0911713109,
				"y": -0.8922303916,
				"z": -1.1126627895,
				"element": "H" 
			},
			{
				"x": -0.8232429669,
				"y": -2.2665589049,
				"z": -0.2932556544,
				"element": "H" 
			},
			{
				"x": 1.3280888303,
				"y": -3.5106136436,
				"z": -0.3854403276,
				"element": "H" 
			},
			{
				"x": 0.854268873,
				"y": -3.0154766747,
				"z": -2.0065356204,
				"element": "H" 
			},
			{
				"x": 2.4159610356,
				"y": -1.09591172,
				"z": -1.9350424985,
				"element": "H" 
			},
			{
				"x": 3.2976284487,
				"y": -2.5759059542,
				"z": -1.5615194688,
				"element": "H" 
			},
			{
				"x": 3.8978566697,
				"y": -0.6715149472,
				"z": -0.0336491661,
				"element": "H" 
			},
			{
				"x": 3.270656069,
				"y": -2.0724370892,
				"z": 0.8299198223,
				"element": "H" 
			},
			{
				"x": 0.9544351019,
				"y": 1.0913630916,
				"z": 2.8685148703,
				"element": "H" 
			},
			{
				"x": -0.0900607557,
				"y": 3.0014584798,
				"z": 4.0126018702,
				"element": "H" 
			},
			{
				"x": -0.5678606715,
				"y": 5.0983754307,
				"z": 2.7693276131,
				"element": "H" 
			},
			{
				"x": 0.0166457812,
				"y": 5.2683159005,
				"z": 0.3577441912,
				"element": "H" 
			},
			{
				"x": 1.083136496,
				"y": 3.326684812,
				"z": -0.7950476145,
				"element": "H" 
			}
		],
		 "valence_orbital": [ 
			{
				"type": "occ",
				"energy": -0.29798,
				"method": "rhf"
			},
			{
				"type": "occ",
				"energy": -0.295,
				"method": "rhf"
			},
			{
				"type": "occ",
				"energy": -0.25963,
				"method": "rhf"
			},
			{
				"type": "occ",
				"energy": -0.25678,
				"method": "rhf"
			},
			{
				"type": "occ",
				"energy": -0.2405,
				"method": "rhf"
			},
			{
				"type": "unocc",
				"energy": -0.05418,
				"method": "rhf"
			},
			{
				"type": "unocc",
				"energy": -0.00901,
				"method": "rhf"
			},
			{
				"type": "unocc",
				"energy": 0.03874,
				"method": "rhf"
			},
			{
				"type": "unocc",
				"energy": 0.08126,
				"method": "rhf"
			},
			{
				"type": "unocc",
				"energy": 0.09509,
				"method": "rhf"
			}
		],
		"cosmo_sigma_profile": { 
			"-0.025": 0.0,
			"-0.024": 0.0,
			"-0.023": 0.0,
			"-0.022": 0.0,
			"-0.021": 0.0,
			"-0.02": 0.0,
			"-0.019": 0.0,
			"-0.018": 0.0,
			"-0.017": 0.0,
			"-0.016": 0.0,
			"-0.015": 0.0,
			"-0.014": 0.0,
			"-0.013": 0.0,
			"-0.012": 0.0,
			"-0.011": 0.0,
			"-0.01": 0.0,
			"-0.009": 0.0,
			"-0.008": 0.0266192626453,
			"-0.007": 2.06032726166,
			"-0.006": 8.46872392476,
			"-0.005": 11.9388870546,
			"-0.004": 13.2994263335,
			"-0.003": 15.8664178373,
			"-0.002": 34.2936568426,
			"-0.001": 30.9831009674,
			"0.0": 31.3355641904,
			"0.001": 27.3490184081,
			"0.002": 16.1555547757,
			"0.003": 12.7600757569,
			"0.004": 13.5686207353,
			"0.005": 6.401262531,
			"0.006": 1.94067276683,
			"0.007": 2.09676430091,
			"0.008": 1.38409890572,
			"0.009": 1.67293626891,
			"0.01": 2.20250134131,
			"0.011": 2.39175881363,
			"0.012": 2.98776993101,
			"0.013": 0.411859805744,
			"0.014": 0.0,
			"0.015": 0.0,
			"0.016": 0.0,
			"0.017": 0.0,
			"0.018": 0.0,
			"0.019": 0.0,
			"0.02": 0.0,
			"0.021": 0.0,
			"0.022": 0.0,
			"0.023": 0.0,
			"0.024": 0.0,
			"0.025": 0.0
		}
	}
}
