{
	 "smiles": "NC1=NC(=CS1)C1=CC2=C(NC(=O)C2)C=C1", 
	 "Tm": 523.15, 
	 "num_atms": 25, 
	 "gaussian": { 
		 "optdone": 1, 
		 "sigma_profile": "yes", 
		 "theory": "DFT", 
		 "functional": "B3LYP", 
		 "basiset": "6-31G**", 
		 "properties": { 
			 "R2extent": 6198.9288, 
			 "electric_dipole_moment_norm": 3.95370322103, 
			 "electric_quadrupole_moment_norm": 30.066924077, 
			 "total_energy": -1062.28373362, 
			 "HOMO_LUMO_gap": 0.16289, 
			 "cosmo_polarized_energy": -18.91, 
			 "cosmo_cavitation_energy": 31.3, 
			 "cosmo_dispersion_energy": -24.05, 
			 "cosmo_repulsion_energy": 1.82, 
			 "cosmo_total_nonelectrostatic_energy": 9.08, 
			 "SMD_solvation_energy": 4.28 
		},
		"coords": [
			{
				"x": -0.1310675282,
				"y": 3.6681142936,
				"z": 3.8466030238,
				"element": "N" 
			},
			{
				"x": -0.1824653839,
				"y": 2.3907200203,
				"z": 3.3350224358,
				"element": "C" 
			},
			{
				"x": -0.5375963798,
				"y": 2.1083071613,
				"z": 2.1184993489,
				"element": "N" 
			},
			{
				"x": -0.5738892454,
				"y": 0.7352715429,
				"z": 1.9027633145,
				"element": "C" 
			},
			{
				"x": -0.2267253137,
				"y": -0.0270441446,
				"z": 2.9858934815,
				"element": "C" 
			},
			{
				"x": 0.14708213,
				"y": 0.9851066738,
				"z": 4.3576139166,
				"element": "S" 
			},
			{
				"x": -0.9602690055,
				"y": 0.2437697012,
				"z": 0.5665589738,
				"element": "C" 
			},
			{
				"x": -1.282120634,
				"y": 1.1730213008,
				"z": -0.4461882922,
				"element": "C" 
			},
			{
				"x": -1.6460932854,
				"y": 0.7245076588,
				"z": -1.7033799615,
				"element": "C" 
			},
			{
				"x": -1.6953289805,
				"y": -0.6547177068,
				"z": -1.9718368236,
				"element": "C" 
			},
			{
				"x": -2.0861721236,
				"y": -0.8528151407,
				"z": -3.3008345889,
				"element": "N" 
			},
			{
				"x": -2.3132259382,
				"y": 0.340354521,
				"z": -3.9748877194,
				"element": "C" 
			},
			{
				"x": -2.6599958516,
				"y": 0.4420522411,
				"z": -5.1345411116,
				"element": "O" 
			},
			{
				"x": -2.0366160522,
				"y": 1.4638470143,
				"z": -2.9592203678,
				"element": "C" 
			},
			{
				"x": -1.3845669582,
				"y": -1.595304148,
				"z": -0.9953211543,
				"element": "C" 
			},
			{
				"x": -1.0191046679,
				"y": -1.1280779137,
				"z": 0.2688326512,
				"element": "C" 
			},
			{
				"x": -0.1502161303,
				"y": 4.3799556843,
				"z": 3.1278889059,
				"element": "H" 
			},
			{
				"x": 0.5473175456,
				"y": 3.8409559735,
				"z": 4.5746197956,
				"element": "H" 
			},
			{
				"x": -0.1587526351,
				"y": -1.1003783974,
				"z": 3.0750077255,
				"element": "H" 
			},
			{
				"x": -1.237271673,
				"y": 2.2312322452,
				"z": -0.2141039914,
				"element": "H" 
			},
			{
				"x": -2.2013932702,
				"y": -1.7475110749,
				"z": -3.7535035393,
				"element": "H" 
			},
			{
				"x": -2.9366429534,
				"y": 2.0790038797,
				"z": -2.8482804626,
				"element": "H" 
			},
			{
				"x": -1.2493059937,
				"y": 2.1178097106,
				"z": -3.3506738149,
				"element": "H" 
			},
			{
				"x": -1.4232078504,
				"y": -2.6606254608,
				"z": -1.2013777721,
				"element": "H" 
			},
			{
				"x": -0.7768718213,
				"y": -1.8566556356,
				"z": 1.0361460267,
				"element": "H" 
			}
		],
		 "valence_orbital": [ 
			{
				"type": "occ",
				"energy": -0.27494,
				"method": "rhf"
			},
			{
				"type": "occ",
				"energy": -0.25381,
				"method": "rhf"
			},
			{
				"type": "occ",
				"energy": -0.2514,
				"method": "rhf"
			},
			{
				"type": "occ",
				"energy": -0.23188,
				"method": "rhf"
			},
			{
				"type": "occ",
				"energy": -0.19332,
				"method": "rhf"
			},
			{
				"type": "unocc",
				"energy": -0.03043,
				"method": "rhf"
			},
			{
				"type": "unocc",
				"energy": -0.00643,
				"method": "rhf"
			},
			{
				"type": "unocc",
				"energy": 0.00595,
				"method": "rhf"
			},
			{
				"type": "unocc",
				"energy": 0.0111,
				"method": "rhf"
			},
			{
				"type": "unocc",
				"energy": 0.03226,
				"method": "rhf"
			}
		],
		"cosmo_sigma_profile": { 
			"-0.025": 0.0,
			"-0.024": 0.0,
			"-0.023": 0.0,
			"-0.022": 0.0,
			"-0.021": 0.0,
			"-0.02": 0.0,
			"-0.019": 0.0,
			"-0.018": 0.0,
			"-0.017": 0.0,
			"-0.016": 0.324414972258,
			"-0.015": 1.82196138147,
			"-0.014": 3.20392422233,
			"-0.013": 3.53604261674,
			"-0.012": 3.85260809661,
			"-0.011": 3.49087837442,
			"-0.01": 3.87719352527,
			"-0.009": 4.05398863775,
			"-0.008": 5.34291855122,
			"-0.007": 10.0777087045,
			"-0.006": 12.4521933206,
			"-0.005": 10.6721765439,
			"-0.004": 12.5782038047,
			"-0.003": 14.2206609232,
			"-0.002": 11.1223092532,
			"-0.001": 12.3907675073,
			"0.0": 11.6292184702,
			"0.001": 15.1888470283,
			"0.002": 15.2758141711,
			"0.003": 17.9474584545,
			"0.004": 25.0994657153,
			"0.005": 18.9490013563,
			"0.006": 4.98214831335,
			"0.007": 4.46495349953,
			"0.008": 3.1791674019,
			"0.009": 3.5532239995,
			"0.01": 4.13303343198,
			"0.011": 3.37255430883,
			"0.012": 4.07964493158,
			"0.013": 5.9195180665,
			"0.014": 2.17349288045,
			"0.015": 0.00505017010058,
			"0.016": 0.0,
			"0.017": 0.0,
			"0.018": 0.0,
			"0.019": 0.0,
			"0.02": 0.0,
			"0.021": 0.0,
			"0.022": 0.0,
			"0.023": 0.0,
			"0.024": 0.0,
			"0.025": 0.0
		}
	}
}
