{
	 "smiles": "CCOC(=O)C1=C(C)C2=C(S1)N=C(CSC1=CC=CC=C1)N=C2Cl", 
	 "Tm": 326.15, 
	 "num_atms": 39, 
	 "gaussian": { 
		 "optdone": 1, 
		 "sigma_profile": "yes", 
		 "theory": "DFT", 
		 "functional": "B3LYP", 
		 "basiset": "6-31G**", 
		 "properties": { 
			 "R2extent": 14099.4347, 
			 "electric_dipole_moment_norm": 4.43059481898, 
			 "electric_quadrupole_moment_norm": 21.6443298261, 
			 "total_energy": -2173.38703155, 
			 "HOMO_LUMO_gap": 0.14534, 
			 "cosmo_polarized_energy": -13.73, 
			 "cosmo_cavitation_energy": 48.93, 
			 "cosmo_dispersion_energy": -34.24, 
			 "cosmo_repulsion_energy": 2.55, 
			 "cosmo_total_nonelectrostatic_energy": 17.24, 
			 "SMD_solvation_energy": 5.37 
		},
		"coords": [
			{
				"x": -0.2090135655,
				"y": 2.4601886791,
				"z": -6.0668734421,
				"element": "C" 
			},
			{
				"x": -0.6397999392,
				"y": 1.0366225296,
				"z": -5.7727179204,
				"element": "C" 
			},
			{
				"x": -0.313500173,
				"y": 0.7600760044,
				"z": -4.3860523884,
				"element": "O" 
			},
			{
				"x": -0.6344838648,
				"y": -0.4735878121,
				"z": -3.9514018431,
				"element": "C" 
			},
			{
				"x": -1.1623974883,
				"y": -1.3145715519,
				"z": -4.657270089,
				"element": "O" 
			},
			{
				"x": -0.2974725524,
				"y": -0.7443639986,
				"z": -2.5344315209,
				"element": "C" 
			},
			{
				"x": 0.2907216315,
				"y": 0.0154192627,
				"z": -1.5461514505,
				"element": "C" 
			},
			{
				"x": 0.7719026355,
				"y": 1.4331833815,
				"z": -1.6946954085,
				"element": "C" 
			},
			{
				"x": 0.3868790692,
				"y": -0.7447704045,
				"z": -0.3163519824,
				"element": "C" 
			},
			{
				"x": -0.1432917487,
				"y": -2.0599174443,
				"z": -0.4370378397,
				"element": "C" 
			},
			{
				"x": -0.7516177667,
				"y": -2.375638541,
				"z": -2.0342569047,
				"element": "S" 
			},
			{
				"x": -0.1831901426,
				"y": -2.9725337906,
				"z": 0.5326251315,
				"element": "N" 
			},
			{
				"x": 0.3232300925,
				"y": -2.5795053984,
				"z": 1.7008932184,
				"element": "C" 
			},
			{
				"x": 0.2754257633,
				"y": -3.5484779152,
				"z": 2.8453741384,
				"element": "C" 
			},
			{
				"x": -1.2954647147,
				"y": -3.4254518934,
				"z": 3.827171124,
				"element": "S" 
			},
			{
				"x": -0.991549593,
				"y": -1.9843653369,
				"z": 4.853914911,
				"element": "C" 
			},
			{
				"x": -1.6715489512,
				"y": -0.788505816,
				"z": 4.5922688974,
				"element": "C" 
			},
			{
				"x": -1.4871871431,
				"y": 0.3176352124,
				"z": 5.4240115601,
				"element": "C" 
			},
			{
				"x": -0.6176451572,
				"y": 0.2392319361,
				"z": 6.5125454535,
				"element": "C" 
			},
			{
				"x": 0.0616267255,
				"y": -0.9527650009,
				"z": 6.7766971611,
				"element": "C" 
			},
			{
				"x": -0.1313036488,
				"y": -2.0648910398,
				"z": 5.9579858069,
				"element": "C" 
			},
			{
				"x": 0.8657541462,
				"y": -1.3656347056,
				"z": 1.949561189,
				"element": "N" 
			},
			{
				"x": 0.8931251915,
				"y": -0.4858005467,
				"z": 0.975315432,
				"element": "C" 
			},
			{
				"x": 1.6240654163,
				"y": 1.0616327308,
				"z": 1.3880165942,
				"element": "Cl" 
			},
			{
				"x": -0.7343733246,
				"y": 3.1711900045,
				"z": -5.4227794519,
				"element": "H" 
			},
			{
				"x": -0.4400132961,
				"y": 2.7057464566,
				"z": -7.1079600572,
				"element": "H" 
			},
			{
				"x": 0.8672142044,
				"y": 2.5846234867,
				"z": -5.9164631383,
				"element": "H" 
			},
			{
				"x": -1.7149548156,
				"y": 0.8914680369,
				"z": -5.9131850116,
				"element": "H" 
			},
			{
				"x": -0.122587211,
				"y": 0.3082137795,
				"z": -6.4041596027,
				"element": "H" 
			},
			{
				"x": 0.2687090232,
				"y": 2.0863373772,
				"z": -0.975482152,
				"element": "H" 
			},
			{
				"x": 0.5877159077,
				"y": 1.8050739971,
				"z": -2.6982353446,
				"element": "H" 
			},
			{
				"x": 1.8433616937,
				"y": 1.499135853,
				"z": -1.4827554636,
				"element": "H" 
			},
			{
				"x": 0.2795339822,
				"y": -4.5702835185,
				"z": 2.462144486,
				"element": "H" 
			},
			{
				"x": 1.1208012975,
				"y": -3.3944275294,
				"z": 3.5169867392,
				"element": "H" 
			},
			{
				"x": -2.340859075,
				"y": -0.7309152817,
				"z": 3.7399997494,
				"element": "H" 
			},
			{
				"x": -2.018460593,
				"y": 1.2419660896,
				"z": 5.21590672,
				"element": "H" 
			},
			{
				"x": -0.4717422604,
				"y": 1.1020594134,
				"z": 7.1559924568,
				"element": "H" 
			},
			{
				"x": 0.7330715256,
				"y": -1.0203432179,
				"z": 7.6279580127,
				"element": "H" 
			},
			{
				"x": 0.3775187189,
				"y": -2.9993534879,
				"z": 6.17489223,
				"element": "H" 
			}
		],
		 "valence_orbital": [ 
			{
				"type": "occ",
				"energy": -0.26998,
				"method": "rhf"
			},
			{
				"type": "occ",
				"energy": -0.2562,
				"method": "rhf"
			},
			{
				"type": "occ",
				"energy": -0.25404,
				"method": "rhf"
			},
			{
				"type": "occ",
				"energy": -0.24592,
				"method": "rhf"
			},
			{
				"type": "occ",
				"energy": -0.22609,
				"method": "rhf"
			},
			{
				"type": "unocc",
				"energy": -0.08075,
				"method": "rhf"
			},
			{
				"type": "unocc",
				"energy": -0.04599,
				"method": "rhf"
			},
			{
				"type": "unocc",
				"energy": -0.02511,
				"method": "rhf"
			},
			{
				"type": "unocc",
				"energy": -0.00668,
				"method": "rhf"
			},
			{
				"type": "unocc",
				"energy": -0.00499,
				"method": "rhf"
			}
		],
		"cosmo_sigma_profile": { 
			"-0.025": 0.0,
			"-0.024": 0.0,
			"-0.023": 0.0,
			"-0.022": 0.0,
			"-0.021": 0.0,
			"-0.02": 0.0,
			"-0.019": 0.0,
			"-0.018": 0.0,
			"-0.017": 0.0,
			"-0.016": 0.0,
			"-0.015": 0.0,
			"-0.014": 0.0,
			"-0.013": 0.0,
			"-0.012": 0.0,
			"-0.011": 0.0,
			"-0.01": 0.0,
			"-0.009": 0.0,
			"-0.008": 0.545660072914,
			"-0.007": 2.97031486898,
			"-0.006": 15.2792528857,
			"-0.005": 27.9949075206,
			"-0.004": 37.9519482722,
			"-0.003": 41.1006261006,
			"-0.002": 36.9590143341,
			"-0.001": 39.8683417009,
			"0.0": 38.105711321,
			"0.001": 29.6103876245,
			"0.002": 25.7239694576,
			"0.003": 26.5253920556,
			"0.004": 19.6456901926,
			"0.005": 15.9947765906,
			"0.006": 8.63547912664,
			"0.007": 7.46493583053,
			"0.008": 6.40505919886,
			"0.009": 5.21496644099,
			"0.01": 3.84549675916,
			"0.011": 5.80792167241,
			"0.012": 1.90403143945,
			"0.013": 0.0918479698949,
			"0.014": 0.0,
			"0.015": 0.0,
			"0.016": 0.0,
			"0.017": 0.0,
			"0.018": 0.0,
			"0.019": 0.0,
			"0.02": 0.0,
			"0.021": 0.0,
			"0.022": 0.0,
			"0.023": 0.0,
			"0.024": 0.0,
			"0.025": 0.0
		}
	}
}
