{
	 "smiles": "CNCCCC1=NNC(N)=C1C#N", 
	 "Tm": 453.15, 
	 "num_atms": 26, 
	 "gaussian": { 
		 "optdone": 1, 
		 "sigma_profile": "yes", 
		 "theory": "DFT", 
		 "functional": "B3LYP", 
		 "basiset": "6-31G**", 
		 "properties": { 
			 "R2extent": 2869.4198, 
			 "electric_dipole_moment_norm": 4.63834466162, 
			 "electric_quadrupole_moment_norm": 28.9379306238, 
			 "total_energy": -586.407075512, 
			 "HOMO_LUMO_gap": 0.2063, 
			 "cosmo_polarized_energy": -21.82, 
			 "cosmo_cavitation_energy": 30.23, 
			 "cosmo_dispersion_energy": -20.41, 
			 "cosmo_repulsion_energy": 1.68, 
			 "cosmo_total_nonelectrostatic_energy": 11.5, 
			 "SMD_solvation_energy": 2.97 
		},
		"coords": [
			{
				"x": 1.7197870921,
				"y": -1.8317110065,
				"z": -1.6819847809,
				"element": "C" 
			},
			{
				"x": 0.8049338137,
				"y": -0.7447668416,
				"z": -1.354259717,
				"element": "N" 
			},
			{
				"x": 1.497495673,
				"y": 0.5061550621,
				"z": -1.0588389993,
				"element": "C" 
			},
			{
				"x": 0.5472354739,
				"y": 1.6709181069,
				"z": -0.7563120654,
				"element": "C" 
			},
			{
				"x": -0.1426169577,
				"y": 1.6403099079,
				"z": 0.6277719322,
				"element": "C" 
			},
			{
				"x": -1.2590551042,
				"y": 0.6430444112,
				"z": 0.7706448019,
				"element": "C" 
			},
			{
				"x": -2.3975256163,
				"y": 0.7825420564,
				"z": 0.1141869765,
				"element": "N" 
			},
			{
				"x": -3.1596669939,
				"y": -0.2938420991,
				"z": 0.4927338457,
				"element": "N" 
			},
			{
				"x": -2.5399449112,
				"y": -1.1090238019,
				"z": 1.3735432749,
				"element": "C" 
			},
			{
				"x": -3.083683162,
				"y": -2.2824537757,
				"z": 1.8496633251,
				"element": "N" 
			},
			{
				"x": -1.2818598348,
				"y": -0.533214641,
				"z": 1.5945557777,
				"element": "C" 
			},
			{
				"x": -0.303424133,
				"y": -1.0270774668,
				"z": 2.4855990981,
				"element": "C" 
			},
			{
				"x": 0.4853146872,
				"y": -1.4571418573,
				"z": 3.2297318897,
				"element": "N" 
			},
			{
				"x": 2.2413358932,
				"y": -1.601207266,
				"z": -2.6187967209,
				"element": "H" 
			},
			{
				"x": 1.1530895187,
				"y": -2.7549792169,
				"z": -1.8378910335,
				"element": "H" 
			},
			{
				"x": 2.491181132,
				"y": -2.0287038122,
				"z": -0.9146309604,
				"element": "H" 
			},
			{
				"x": 0.2399832533,
				"y": -1.0186554347,
				"z": -0.5554788453,
				"element": "H" 
			},
			{
				"x": 2.22985356,
				"y": 0.4094203569,
				"z": -0.2310245913,
				"element": "H" 
			},
			{
				"x": 2.0849640159,
				"y": 0.7666599423,
				"z": -1.9498726893,
				"element": "H" 
			},
			{
				"x": -0.2159346007,
				"y": 1.72536645,
				"z": -1.5399219981,
				"element": "H" 
			},
			{
				"x": 1.1310725664,
				"y": 2.5980708028,
				"z": -0.8067909596,
				"element": "H" 
			},
			{
				"x": 0.6037002778,
				"y": 1.4498907963,
				"z": 1.4078843459,
				"element": "H" 
			},
			{
				"x": -0.5585784526,
				"y": 2.6345934207,
				"z": 0.8258581516,
				"element": "H" 
			},
			{
				"x": -4.0578684438,
				"y": -0.4327302827,
				"z": 0.0567144362,
				"element": "H" 
			},
			{
				"x": -2.5480260595,
				"y": -2.6989546043,
				"z": 2.6005087362,
				"element": "H" 
			},
			{
				"x": -4.0741626876,
				"y": -2.2614092067,
				"z": 2.0551067691,
				"element": "H" 
			}
		],
		 "valence_orbital": [ 
			{
				"type": "occ",
				"energy": -0.32683,
				"method": "rhf"
			},
			{
				"type": "occ",
				"energy": -0.29479,
				"method": "rhf"
			},
			{
				"type": "occ",
				"energy": -0.25842,
				"method": "rhf"
			},
			{
				"type": "occ",
				"energy": -0.22937,
				"method": "rhf"
			},
			{
				"type": "occ",
				"energy": -0.20864,
				"method": "rhf"
			},
			{
				"type": "unocc",
				"energy": -0.00234,
				"method": "rhf"
			},
			{
				"type": "unocc",
				"energy": 0.01281,
				"method": "rhf"
			},
			{
				"type": "unocc",
				"energy": 0.02352,
				"method": "rhf"
			},
			{
				"type": "unocc",
				"energy": 0.04985,
				"method": "rhf"
			},
			{
				"type": "unocc",
				"energy": 0.08136,
				"method": "rhf"
			}
		],
		"cosmo_sigma_profile": { 
			"-0.025": 0.0,
			"-0.024": 0.0,
			"-0.023": 0.0,
			"-0.022": 0.0,
			"-0.021": 0.0,
			"-0.02": 0.0,
			"-0.019": 0.0,
			"-0.018": 0.0164776634951,
			"-0.017": 1.87088648392,
			"-0.016": 2.3196696658,
			"-0.015": 3.21708014294,
			"-0.014": 3.71423085195,
			"-0.013": 2.9698673618,
			"-0.012": 3.31495557559,
			"-0.011": 2.73883309503,
			"-0.01": 2.88236366373,
			"-0.009": 2.89556213127,
			"-0.008": 2.55950452551,
			"-0.007": 2.05991808291,
			"-0.006": 2.73245109332,
			"-0.005": 4.40292560581,
			"-0.004": 10.7839929059,
			"-0.003": 21.3589488501,
			"-0.002": 26.9720180177,
			"-0.001": 27.722035486,
			"0.0": 25.3158148845,
			"0.001": 15.165044197,
			"0.002": 7.74979925552,
			"0.003": 5.28661841559,
			"0.004": 5.85771732299,
			"0.005": 4.89525811976,
			"0.006": 5.24981341757,
			"0.007": 5.6393600617,
			"0.008": 5.90379751008,
			"0.009": 5.37055234587,
			"0.01": 6.36631877034,
			"0.011": 6.55249045766,
			"0.012": 4.39672849954,
			"0.013": 3.35334373684,
			"0.014": 2.66306190941,
			"0.015": 1.63016298823,
			"0.016": 0.993432754044,
			"0.017": 0.258128737695,
			"0.018": 0.5982255386,
			"0.019": 0.148926843211,
			"0.02": 0.0,
			"0.021": 0.0,
			"0.022": 0.0,
			"0.023": 0.0,
			"0.024": 0.0,
			"0.025": 0.0
		}
	}
}
