{
	 "smiles": "ClC1=C(Br)C=CC=N1", 
	 "Tm": 328.15, 
	 "num_atms": 11, 
	 "gaussian": { 
		 "optdone": 1, 
		 "sigma_profile": "yes", 
		 "theory": "DFT", 
		 "functional": "B3LYP", 
		 "basiset": "6-31G**", 
		 "properties": { 
			 "R2extent": 3888.9743, 
			 "electric_dipole_moment_norm": 3.35706380339, 
			 "electric_quadrupole_moment_norm": 8.83485242661, 
			 "total_energy": -3278.67607099, 
			 "HOMO_LUMO_gap": 0.21069, 
			 "cosmo_polarized_energy": -6.4, 
			 "cosmo_cavitation_energy": 19.44, 
			 "cosmo_dispersion_energy": -15.24, 
			 "cosmo_repulsion_energy": 1.26, 
			 "cosmo_total_nonelectrostatic_energy": 5.46, 
			 "SMD_solvation_energy": 0.79 
		},
		"coords": [
			{
				"x": -1.3913519648,
				"y": -4.0642699914,
				"z": 1.6273442939,
				"element": "Cl" 
			},
			{
				"x": -0.6293426509,
				"y": -2.5995154192,
				"z": 1.0436742873,
				"element": "C" 
			},
			{
				"x": -1.1517373042,
				"y": -1.3365343152,
				"z": 1.3706920419,
				"element": "C" 
			},
			{
				"x": -2.6956615973,
				"y": -1.1085520412,
				"z": 2.4500131474,
				"element": "Br" 
			},
			{
				"x": -0.4968065794,
				"y": -0.2110287662,
				"z": 0.8736199211,
				"element": "C" 
			},
			{
				"x": 0.637177993,
				"y": -0.3785582743,
				"z": 0.0810335327,
				"element": "C" 
			},
			{
				"x": 1.0700394526,
				"y": -1.6759657943,
				"z": -0.1817996603,
				"element": "C" 
			},
			{
				"x": 0.4456933644,
				"y": -2.7600458542,
				"z": 0.2924110246,
				"element": "N" 
			},
			{
				"x": -0.8771593182,
				"y": 0.7765526312,
				"z": 1.1095553015,
				"element": "H" 
			},
			{
				"x": 1.1683623751,
				"y": 0.4779206292,
				"z": -0.3203059899,
				"element": "H" 
			},
			{
				"x": 1.9488862297,
				"y": -1.8621028044,
				"z": -0.7942379002,
				"element": "H" 
			}
		],
		 "valence_orbital": [ 
			{
				"type": "occ",
				"energy": -0.32743,
				"method": "rhf"
			},
			{
				"type": "occ",
				"energy": -0.30014,
				"method": "rhf"
			},
			{
				"type": "occ",
				"energy": -0.29171,
				"method": "rhf"
			},
			{
				"type": "occ",
				"energy": -0.2798,
				"method": "rhf"
			},
			{
				"type": "occ",
				"energy": -0.25925,
				"method": "rhf"
			},
			{
				"type": "unocc",
				"energy": -0.04856,
				"method": "rhf"
			},
			{
				"type": "unocc",
				"energy": -0.03701,
				"method": "rhf"
			},
			{
				"type": "unocc",
				"energy": -0.01421,
				"method": "rhf"
			},
			{
				"type": "unocc",
				"energy": 0.04596,
				"method": "rhf"
			},
			{
				"type": "unocc",
				"energy": 0.09852,
				"method": "rhf"
			}
		],
		"cosmo_sigma_profile": { 
			"-0.025": 0.0,
			"-0.024": 0.0,
			"-0.023": 0.0,
			"-0.022": 0.0,
			"-0.021": 0.0,
			"-0.02": 0.0,
			"-0.019": 0.0,
			"-0.018": 0.0,
			"-0.017": 0.0,
			"-0.016": 0.0,
			"-0.015": 0.0,
			"-0.014": 0.0,
			"-0.013": 0.0,
			"-0.012": 0.0,
			"-0.011": 0.0,
			"-0.01": 0.0022122377163,
			"-0.009": 1.37387417931,
			"-0.008": 5.83154481503,
			"-0.007": 8.29402189304,
			"-0.006": 6.03785173809,
			"-0.005": 6.16690121052,
			"-0.004": 6.05245570204,
			"-0.003": 6.48295319171,
			"-0.002": 12.9185552096,
			"-0.001": 17.1309615658,
			"0.0": 18.7153210053,
			"0.001": 14.0405870044,
			"0.002": 11.3148103741,
			"0.003": 15.6982611375,
			"0.004": 16.190046266,
			"0.005": 6.12116718753,
			"0.006": 2.24241329262,
			"0.007": 1.59970815648,
			"0.008": 1.56951423921,
			"0.009": 0.948826933173,
			"0.01": 1.03619537024,
			"0.011": 0.762371746041,
			"0.012": 0.907240324572,
			"0.013": 0.855093508891,
			"0.014": 0.341317641106,
			"0.015": 0.0,
			"0.016": 0.0,
			"0.017": 0.0,
			"0.018": 0.0,
			"0.019": 0.0,
			"0.02": 0.0,
			"0.021": 0.0,
			"0.022": 0.0,
			"0.023": 0.0,
			"0.024": 0.0,
			"0.025": 0.0
		}
	}
}
