{
	 "smiles": "CN1C=C(C(O)=O)C(=N1)C1=CC=CS1", 
	 "Tm": 453.15, 
	 "num_atms": 22, 
	 "gaussian": { 
		 "optdone": 1, 
		 "sigma_profile": "yes", 
		 "theory": "DFT", 
		 "functional": "B3LYP", 
		 "basiset": "6-31G**", 
		 "properties": { 
			 "R2extent": 3420.7316, 
			 "electric_dipole_moment_norm": 5.45298213274, 
			 "electric_quadrupole_moment_norm": 18.6989360601, 
			 "total_energy": -1005.89307571, 
			 "HOMO_LUMO_gap": 0.17401, 
			 "cosmo_polarized_energy": -19.95, 
			 "cosmo_cavitation_energy": 28.28, 
			 "cosmo_dispersion_energy": -21.45, 
			 "cosmo_repulsion_energy": 1.63, 
			 "cosmo_total_nonelectrostatic_energy": 8.47, 
			 "SMD_solvation_energy": 5.4 
		},
		"coords": [
			{
				"x": 0.0343441138,
				"y": 0.0057474359,
				"z": -3.6749603396,
				"element": "C" 
			},
			{
				"x": -0.0489574307,
				"y": -0.1386039014,
				"z": -2.2325237977,
				"element": "N" 
			},
			{
				"x": 0.0539328878,
				"y": -1.2615545475,
				"z": -1.495633624,
				"element": "C" 
			},
			{
				"x": -0.1482291055,
				"y": -0.9050264234,
				"z": -0.1644486924,
				"element": "C" 
			},
			{
				"x": -0.138293804,
				"y": -1.8493276708,
				"z": 0.9697323151,
				"element": "C" 
			},
			{
				"x": 0.594945156,
				"y": -2.9863997117,
				"z": 0.7693740602,
				"element": "O" 
			},
			{
				"x": -0.7333941366,
				"y": -1.7120691887,
				"z": 2.0145070101,
				"element": "O" 
			},
			{
				"x": -0.3844705934,
				"y": 0.5124789286,
				"z": -0.2111675502,
				"element": "C" 
			},
			{
				"x": -0.3080814131,
				"y": 0.9476866536,
				"z": -1.475583334,
				"element": "N" 
			},
			{
				"x": -0.622287981,
				"y": 1.4884110836,
				"z": 0.8440022775,
				"element": "C" 
			},
			{
				"x": -0.9634878397,
				"y": 1.3122909364,
				"z": 2.1665505692,
				"element": "C" 
			},
			{
				"x": -1.1170032527,
				"y": 2.5408154235,
				"z": 2.8705976581,
				"element": "C" 
			},
			{
				"x": -0.895872971,
				"y": 3.637850079,
				"z": 2.0828205452,
				"element": "C" 
			},
			{
				"x": -0.4956892958,
				"y": 3.197431243,
				"z": 0.4572490433,
				"element": "S" 
			},
			{
				"x": 0.3113818626,
				"y": -0.9543226764,
				"z": -4.1127956406,
				"element": "H" 
			},
			{
				"x": 0.7902141463,
				"y": 0.7538027092,
				"z": -3.9240450435,
				"element": "H" 
			},
			{
				"x": -0.9302259033,
				"y": 0.3266075532,
				"z": -4.0766832353,
				"element": "H" 
			},
			{
				"x": 0.2099868693,
				"y": -2.2273473539,
				"z": -1.9562406223,
				"element": "H" 
			},
			{
				"x": 1.1833913981,
				"y": -2.8658618786,
				"z": 0.0116778274,
				"element": "H" 
			},
			{
				"x": -1.1064660392,
				"y": 0.3312205702,
				"z": 2.5987095282,
				"element": "H" 
			},
			{
				"x": -1.3851456583,
				"y": 2.600736183,
				"z": 3.9192738547,
				"element": "H" 
			},
			{
				"x": -0.9482910096,
				"y": 4.6820345531,
				"z": 2.3598871906,
				"element": "H" 
			}
		],
		 "valence_orbital": [ 
			{
				"type": "occ",
				"energy": -0.29285,
				"method": "rhf"
			},
			{
				"type": "occ",
				"energy": -0.27776,
				"method": "rhf"
			},
			{
				"type": "occ",
				"energy": -0.26656,
				"method": "rhf"
			},
			{
				"type": "occ",
				"energy": -0.24184,
				"method": "rhf"
			},
			{
				"type": "occ",
				"energy": -0.21196,
				"method": "rhf"
			},
			{
				"type": "unocc",
				"energy": -0.03795,
				"method": "rhf"
			},
			{
				"type": "unocc",
				"energy": -0.02621,
				"method": "rhf"
			},
			{
				"type": "unocc",
				"energy": 0.03027,
				"method": "rhf"
			},
			{
				"type": "unocc",
				"energy": 0.04529,
				"method": "rhf"
			},
			{
				"type": "unocc",
				"energy": 0.06236,
				"method": "rhf"
			}
		],
		"cosmo_sigma_profile": { 
			"-0.025": 0.0,
			"-0.024": 0.0,
			"-0.023": 0.0,
			"-0.022": 0.0,
			"-0.021": 0.0,
			"-0.02": 0.0,
			"-0.019": 0.20987793593,
			"-0.018": 0.718231528342,
			"-0.017": 1.344967403,
			"-0.016": 1.07809582014,
			"-0.015": 1.34745168801,
			"-0.014": 0.812011646387,
			"-0.013": 0.690222774582,
			"-0.012": 2.10147664946,
			"-0.011": 3.5813062256,
			"-0.01": 2.62510974684,
			"-0.009": 3.26292245263,
			"-0.008": 5.22384141219,
			"-0.007": 8.51396701104,
			"-0.006": 11.9231908724,
			"-0.005": 12.9025572843,
			"-0.004": 15.0303508459,
			"-0.003": 12.8854044377,
			"-0.002": 10.5750368616,
			"-0.001": 8.75491605463,
			"0.0": 10.6005875015,
			"0.001": 11.9205320422,
			"0.002": 14.3299008762,
			"0.003": 16.5719798361,
			"0.004": 20.8872094979,
			"0.005": 15.1546212591,
			"0.006": 6.33742004269,
			"0.007": 4.50773930423,
			"0.008": 4.0313922311,
			"0.009": 4.51316710303,
			"0.01": 6.21811009517,
			"0.011": 5.59342486723,
			"0.012": 3.32299672979,
			"0.013": 1.7873230176,
			"0.014": 0.0866787594499,
			"0.015": 0.0,
			"0.016": 0.0,
			"0.017": 0.0,
			"0.018": 0.0,
			"0.019": 0.0,
			"0.02": 0.0,
			"0.021": 0.0,
			"0.022": 0.0,
			"0.023": 0.0,
			"0.024": 0.0,
			"0.025": 0.0
		}
	}
}
