{
	 "smiles": "NC1=CC(Cl)=NC(N)=N1", 
	 "Tm": 474.15, 
	 "num_atms": 14, 
	 "gaussian": { 
		 "optdone": 1, 
		 "sigma_profile": "yes", 
		 "theory": "DFT", 
		 "functional": "B3LYP", 
		 "basiset": "6-31G**", 
		 "properties": { 
			 "R2extent": 2094.9405, 
			 "electric_dipole_moment_norm": 3.77254750666, 
			 "electric_quadrupole_moment_norm": 15.6740914461, 
			 "total_energy": -834.666178407, 
			 "HOMO_LUMO_gap": 0.2082, 
			 "cosmo_polarized_energy": -13.9, 
			 "cosmo_cavitation_energy": 20.41, 
			 "cosmo_dispersion_energy": -15.84, 
			 "cosmo_repulsion_energy": 1.34, 
			 "cosmo_total_nonelectrostatic_energy": 5.91, 
			 "SMD_solvation_energy": 0.47 
		},
		"coords": [
			{
				"x": -0.5434545447,
				"y": 2.3189302666,
				"z": 0.5337026446,
				"element": "N" 
			},
			{
				"x": 0.2996216629,
				"y": 1.3821503254,
				"z": 0.0046411187,
				"element": "C" 
			},
			{
				"x": 1.6464696023,
				"y": 1.2880168175,
				"z": 0.4185872808,
				"element": "C" 
			},
			{
				"x": 2.3670168891,
				"y": 0.2717907564,
				"z": -0.1860530006,
				"element": "C" 
			},
			{
				"x": 4.0662426299,
				"y": 0.0766204345,
				"z": 0.2456141091,
				"element": "Cl" 
			},
			{
				"x": 1.8910532749,
				"y": -0.5796156547,
				"z": -1.0767809829,
				"element": "N" 
			},
			{
				"x": 0.5889473317,
				"y": -0.3978967425,
				"z": -1.3857340232,
				"element": "C" 
			},
			{
				"x": 0.0532612441,
				"y": -1.2834406996,
				"z": -2.2717236439,
				"element": "N" 
			},
			{
				"x": -0.2303466302,
				"y": 0.5473237767,
				"z": -0.9008663286,
				"element": "N" 
			},
			{
				"x": -0.1572416629,
				"y": 3.1206156801,
				"z": 1.0051665863,
				"element": "H" 
			},
			{
				"x": -1.4266074422,
				"y": 2.4402880272,
				"z": 0.0617694028,
				"element": "H" 
			},
			{
				"x": 2.0831403177,
				"y": 1.9549685556,
				"z": 1.1495858285,
				"element": "H" 
			},
			{
				"x": -0.8467476697,
				"y": -1.0659200077,
				"z": -2.666632516,
				"element": "H" 
			},
			{
				"x": 0.6897449972,
				"y": -1.8695315355,
				"z": -2.7866764754,
				"element": "H" 
			}
		],
		 "valence_orbital": [ 
			{
				"type": "occ",
				"energy": -0.30629,
				"method": "rhf"
			},
			{
				"type": "occ",
				"energy": -0.28538,
				"method": "rhf"
			},
			{
				"type": "occ",
				"energy": -0.25656,
				"method": "rhf"
			},
			{
				"type": "occ",
				"energy": -0.25402,
				"method": "rhf"
			},
			{
				"type": "occ",
				"energy": -0.22133,
				"method": "rhf"
			},
			{
				"type": "unocc",
				"energy": -0.01313,
				"method": "rhf"
			},
			{
				"type": "unocc",
				"energy": 0.0092,
				"method": "rhf"
			},
			{
				"type": "unocc",
				"energy": 0.04055,
				"method": "rhf"
			},
			{
				"type": "unocc",
				"energy": 0.07657,
				"method": "rhf"
			},
			{
				"type": "unocc",
				"energy": 0.09274,
				"method": "rhf"
			}
		],
		"cosmo_sigma_profile": { 
			"-0.025": 0.0,
			"-0.024": 0.0,
			"-0.023": 0.0,
			"-0.022": 0.0,
			"-0.021": 0.0,
			"-0.02": 0.0,
			"-0.019": 0.0,
			"-0.018": 0.0,
			"-0.017": 0.0,
			"-0.016": 0.0,
			"-0.015": 0.255472723633,
			"-0.014": 2.56712280043,
			"-0.013": 4.36765575768,
			"-0.012": 4.90967979334,
			"-0.011": 3.77125995706,
			"-0.01": 5.04926700834,
			"-0.009": 4.89038225551,
			"-0.008": 4.25536227379,
			"-0.007": 4.1068515418,
			"-0.006": 3.35561137096,
			"-0.005": 3.73407651799,
			"-0.004": 3.22685851186,
			"-0.003": 3.8769398852,
			"-0.002": 5.9781149288,
			"-0.001": 6.43338037212,
			"0.0": 9.50682107098,
			"0.001": 16.3210181914,
			"0.002": 13.6375926204,
			"0.003": 12.0658203415,
			"0.004": 14.2318699254,
			"0.005": 10.4302354763,
			"0.006": 6.99775789174,
			"0.007": 4.03289030791,
			"0.008": 3.82560574486,
			"0.009": 3.0756349179,
			"0.01": 3.31718839641,
			"0.011": 2.04862114743,
			"0.012": 1.77532944174,
			"0.013": 1.75400266442,
			"0.014": 0.891059296571,
			"0.015": 0.0941660964849,
			"0.016": 0.0,
			"0.017": 0.0,
			"0.018": 0.0,
			"0.019": 0.0,
			"0.02": 0.0,
			"0.021": 0.0,
			"0.022": 0.0,
			"0.023": 0.0,
			"0.024": 0.0,
			"0.025": 0.0
		}
	}
}
