{
	 "smiles": "CC1=NN(C(=C1)C(O)=O)C(C)(C)C", 
	 "Tm": 424.15, 
	 "num_atms": 27, 
	 "gaussian": { 
		 "optdone": 1, 
		 "sigma_profile": "yes", 
		 "theory": "DFT", 
		 "functional": "B3LYP", 
		 "basiset": "6-31G**", 
		 "properties": { 
			 "R2extent": 3624.4227, 
			 "electric_dipole_moment_norm": 0.855981454238, 
			 "electric_quadrupole_moment_norm": 6.25536402218, 
			 "total_energy": -611.360300717, 
			 "HOMO_LUMO_gap": 0.19943, 
			 "cosmo_polarized_energy": -8.54, 
			 "cosmo_cavitation_energy": 29.01, 
			 "cosmo_dispersion_energy": -20.8, 
			 "cosmo_repulsion_energy": 1.65, 
			 "cosmo_total_nonelectrostatic_energy": 9.86, 
			 "SMD_solvation_energy": 5.73 
		},
		"coords": [
			{
				"x": 0.5518691484,
				"y": -2.8040576445,
				"z": -4.2290191377,
				"element": "C" 
			},
			{
				"x": 0.6729495245,
				"y": -1.6175993945,
				"z": -3.3194061585,
				"element": "C" 
			},
			{
				"x": -0.0833617935,
				"y": -1.5203734516,
				"z": -2.2166161224,
				"element": "N" 
			},
			{
				"x": 0.2400974364,
				"y": -0.3687678744,
				"z": -1.6102477628,
				"element": "N" 
			},
			{
				"x": 1.2198442499,
				"y": 0.2955245824,
				"z": -2.3242995569,
				"element": "C" 
			},
			{
				"x": 1.5082388221,
				"y": -0.5008089868,
				"z": -3.4311844504,
				"element": "C" 
			},
			{
				"x": 1.8569540056,
				"y": 1.5810148182,
				"z": -2.0168924918,
				"element": "C" 
			},
			{
				"x": 2.7759992332,
				"y": 1.8977006015,
				"z": -2.9662676843,
				"element": "O" 
			},
			{
				"x": 1.6520203541,
				"y": 2.3234125051,
				"z": -1.0710749585,
				"element": "O" 
			},
			{
				"x": -0.4748867194,
				"y": -0.0157991944,
				"z": -0.3325631079,
				"element": "C" 
			},
			{
				"x": 0.5538228994,
				"y": 0.087909744,
				"z": 0.8080889136,
				"element": "C" 
			},
			{
				"x": -1.2470785315,
				"y": 1.3006281073,
				"z": -0.5348140464,
				"element": "C" 
			},
			{
				"x": -1.474023818,
				"y": -1.1370721496,
				"z": -0.0054329435,
				"element": "C" 
			},
			{
				"x": 0.7811104438,
				"y": -3.734584308,
				"z": -3.6995301547,
				"element": "H" 
			},
			{
				"x": 1.2410022599,
				"y": -2.7136912281,
				"z": -5.0723555213,
				"element": "H" 
			},
			{
				"x": -0.463911036,
				"y": -2.8963928377,
				"z": -4.6270832744,
				"element": "H" 
			},
			{
				"x": 2.2319965477,
				"y": -0.2761946757,
				"z": -4.199383424,
				"element": "H" 
			},
			{
				"x": 3.145231874,
				"y": 2.7523598143,
				"z": -2.6898185431,
				"element": "H" 
			},
			{
				"x": 1.089035652,
				"y": -0.8598599636,
				"z": 0.923641288,
				"element": "H" 
			},
			{
				"x": 0.0300341749,
				"y": 0.2981464196,
				"z": 1.7459067594,
				"element": "H" 
			},
			{
				"x": 1.2701754889,
				"y": 0.8895552249,
				"z": 0.6315365097,
				"element": "H" 
			},
			{
				"x": -1.8053884148,
				"y": 1.5332002142,
				"z": 0.377475126,
				"element": "H" 
			},
			{
				"x": -0.5753923526,
				"y": 2.1325323043,
				"z": -0.7438882943,
				"element": "H" 
			},
			{
				"x": -1.9648749869,
				"y": 1.1972491308,
				"z": -1.3546694989,
				"element": "H" 
			},
			{
				"x": -2.2200873623,
				"y": -1.2586837178,
				"z": -0.7926048346,
				"element": "H" 
			},
			{
				"x": -0.9750008312,
				"y": -2.097270481,
				"z": 0.136120725,
				"element": "H" 
			},
			{
				"x": -1.9848762684,
				"y": -0.8664775589,
				"z": 0.9237826446,
				"element": "H" 
			}
		],
		 "valence_orbital": [ 
			{
				"type": "occ",
				"energy": -0.32079,
				"method": "rhf"
			},
			{
				"type": "occ",
				"energy": -0.28346,
				"method": "rhf"
			},
			{
				"type": "occ",
				"energy": -0.28066,
				"method": "rhf"
			},
			{
				"type": "occ",
				"energy": -0.25407,
				"method": "rhf"
			},
			{
				"type": "occ",
				"energy": -0.24165,
				"method": "rhf"
			},
			{
				"type": "unocc",
				"energy": -0.04222,
				"method": "rhf"
			},
			{
				"type": "unocc",
				"energy": 0.04807,
				"method": "rhf"
			},
			{
				"type": "unocc",
				"energy": 0.0779,
				"method": "rhf"
			},
			{
				"type": "unocc",
				"energy": 0.09491,
				"method": "rhf"
			},
			{
				"type": "unocc",
				"energy": 0.1074,
				"method": "rhf"
			}
		],
		"cosmo_sigma_profile": { 
			"-0.025": 0.0,
			"-0.024": 0.0,
			"-0.023": 0.0,
			"-0.022": 0.0,
			"-0.021": 0.0,
			"-0.02": 0.0,
			"-0.019": 0.0697759264571,
			"-0.018": 0.712893206691,
			"-0.017": 0.889609979365,
			"-0.016": 0.870765484795,
			"-0.015": 0.867222467197,
			"-0.014": 0.921189615263,
			"-0.013": 0.271615811192,
			"-0.012": 0.615408078169,
			"-0.011": 0.959760297396,
			"-0.01": 0.652196591868,
			"-0.009": 0.352906198029,
			"-0.008": 0.699376359056,
			"-0.007": 1.92056394667,
			"-0.006": 2.05671485404,
			"-0.005": 4.58885224715,
			"-0.004": 16.3529971326,
			"-0.003": 21.8443651039,
			"-0.002": 22.7923175213,
			"-0.001": 27.5713736843,
			"0.0": 35.2386684702,
			"0.001": 24.3088606292,
			"0.002": 11.9292731592,
			"0.003": 10.9670542307,
			"0.004": 9.15900150129,
			"0.005": 5.8172019881,
			"0.006": 5.71948037324,
			"0.007": 4.52517492509,
			"0.008": 3.57286122901,
			"0.009": 3.12269691652,
			"0.01": 2.39751235489,
			"0.011": 3.3403996376,
			"0.012": 1.93625138944,
			"0.013": 0.398086789545,
			"0.014": 0.0454323255347,
			"0.015": 0.0,
			"0.016": 0.0,
			"0.017": 0.0,
			"0.018": 0.0,
			"0.019": 0.0,
			"0.02": 0.0,
			"0.021": 0.0,
			"0.022": 0.0,
			"0.023": 0.0,
			"0.024": 0.0,
			"0.025": 0.0
		}
	}
}
