{
	 "smiles": "CC1C(NC1=O)C1=CC=CC=C1", 
	 "Tm": 366.15, 
	 "num_atms": 23, 
	 "gaussian": { 
		 "optdone": 1, 
		 "sigma_profile": "yes", 
		 "theory": "DFT", 
		 "functional": "B3LYP", 
		 "basiset": "6-31G**", 
		 "properties": { 
			 "R2extent": 2441.0871, 
			 "electric_dipole_moment_norm": 3.690985913, 
			 "electric_quadrupole_moment_norm": 18.8794536891, 
			 "total_energy": -517.663956536, 
			 "HOMO_LUMO_gap": 0.22668, 
			 "cosmo_polarized_energy": -11.59, 
			 "cosmo_cavitation_energy": 26.3, 
			 "cosmo_dispersion_energy": -18.82, 
			 "cosmo_repulsion_energy": 1.53, 
			 "cosmo_total_nonelectrostatic_energy": 9.01, 
			 "SMD_solvation_energy": 4.71 
		},
		"coords": [
			{
				"x": -1.8838819195,
				"y": -0.5999937093,
				"z": -2.4772954111,
				"element": "C" 
			},
			{
				"x": -0.9163863946,
				"y": 0.5681435935,
				"z": -2.3512180765,
				"element": "C" 
			},
			{
				"x": -0.0768103999,
				"y": 0.7581886374,
				"z": -1.0194649184,
				"element": "C" 
			},
			{
				"x": 1.1191804406,
				"y": 0.5494188541,
				"z": -1.8456821731,
				"element": "N" 
			},
			{
				"x": 0.4579209809,
				"y": 0.4202291356,
				"z": -3.0470556645,
				"element": "C" 
			},
			{
				"x": 0.8429307096,
				"y": 0.2639189922,
				"z": -4.1826750936,
				"element": "O" 
			},
			{
				"x": -0.2874546093,
				"y": -0.203714849,
				"z": 0.1258666521,
				"element": "C" 
			},
			{
				"x": 0.3121880984,
				"y": -1.469430465,
				"z": 0.1510633635,
				"element": "C" 
			},
			{
				"x": 0.0761502325,
				"y": -2.3456840584,
				"z": 1.2115850736,
				"element": "C" 
			},
			{
				"x": -0.7645397085,
				"y": -1.9701555198,
				"z": 2.2609069887,
				"element": "C" 
			},
			{
				"x": -1.3646787745,
				"y": -0.7093070495,
				"z": 2.2462357268,
				"element": "C" 
			},
			{
				"x": -1.1228906132,
				"y": 0.1670490498,
				"z": 1.1884140552,
				"element": "C" 
			},
			{
				"x": -2.7723602318,
				"y": -0.4463291211,
				"z": -1.856676891,
				"element": "H" 
			},
			{
				"x": -1.4215967735,
				"y": -1.543360111,
				"z": -2.174947633,
				"element": "H" 
			},
			{
				"x": -2.2055761695,
				"y": -0.6981562532,
				"z": -3.5185252085,
				"element": "H" 
			},
			{
				"x": -1.4020011201,
				"y": 1.5039812673,
				"z": -2.6492567509,
				"element": "H" 
			},
			{
				"x": -0.1560309178,
				"y": 1.7869464422,
				"z": -0.6451781391,
				"element": "H" 
			},
			{
				"x": 2.1033314364,
				"y": 0.6657638553,
				"z": -1.6377793228,
				"element": "H" 
			},
			{
				"x": 0.972097094,
				"y": -1.7605830074,
				"z": -0.6606056226,
				"element": "H" 
			},
			{
				"x": 0.5518626887,
				"y": -3.3223907942,
				"z": 1.2184851002,
				"element": "H" 
			},
			{
				"x": -0.9460293562,
				"y": -2.6518366988,
				"z": 3.0867862147,
				"element": "H" 
			},
			{
				"x": -2.0143237527,
				"y": -0.4050354114,
				"z": 3.06204693,
				"element": "H" 
			},
			{
				"x": -1.5840009403,
				"y": 1.1523372208,
				"z": 1.1877708002,
				"element": "H" 
			}
		],
		 "valence_orbital": [ 
			{
				"type": "occ",
				"energy": -0.33694,
				"method": "rhf"
			},
			{
				"type": "occ",
				"energy": -0.26199,
				"method": "rhf"
			},
			{
				"type": "occ",
				"energy": -0.25662,
				"method": "rhf"
			},
			{
				"type": "occ",
				"energy": -0.2559,
				"method": "rhf"
			},
			{
				"type": "occ",
				"energy": -0.23811,
				"method": "rhf"
			},
			{
				"type": "unocc",
				"energy": -0.01143,
				"method": "rhf"
			},
			{
				"type": "unocc",
				"energy": -0.0086,
				"method": "rhf"
			},
			{
				"type": "unocc",
				"energy": 0.03321,
				"method": "rhf"
			},
			{
				"type": "unocc",
				"energy": 0.0844,
				"method": "rhf"
			},
			{
				"type": "unocc",
				"energy": 0.09445,
				"method": "rhf"
			}
		],
		"cosmo_sigma_profile": { 
			"-0.025": 0.0,
			"-0.024": 0.0,
			"-0.023": 0.0,
			"-0.022": 0.0,
			"-0.021": 0.0,
			"-0.02": 0.0,
			"-0.019": 0.0,
			"-0.018": 0.0,
			"-0.017": 0.0,
			"-0.016": 0.0,
			"-0.015": 0.11952226756,
			"-0.014": 1.13764734449,
			"-0.013": 1.577349765,
			"-0.012": 0.740650484595,
			"-0.011": 0.921964344391,
			"-0.01": 1.1189111022,
			"-0.009": 1.21871144714,
			"-0.008": 1.02114659469,
			"-0.007": 0.815341221676,
			"-0.006": 6.81668168987,
			"-0.005": 19.0119972305,
			"-0.004": 19.5203072072,
			"-0.003": 22.7792051985,
			"-0.002": 20.3845037179,
			"-0.001": 16.2220965669,
			"0.0": 16.3061042239,
			"0.001": 12.619419763,
			"0.002": 9.10087426506,
			"0.003": 9.90138085334,
			"0.004": 8.8116497873,
			"0.005": 9.58342543196,
			"0.006": 7.55128083235,
			"0.007": 1.62348137983,
			"0.008": 1.33736875176,
			"0.009": 1.78921978006,
			"0.01": 1.46611677287,
			"0.011": 1.30157350247,
			"0.012": 2.81828634317,
			"0.013": 6.52913031756,
			"0.014": 3.78714596193,
			"0.015": 0.343281497842,
			"0.016": 0.0,
			"0.017": 0.0,
			"0.018": 0.0,
			"0.019": 0.0,
			"0.02": 0.0,
			"0.021": 0.0,
			"0.022": 0.0,
			"0.023": 0.0,
			"0.024": 0.0,
			"0.025": 0.0
		}
	}
}
