{
	 "smiles": "N#CCC1=NN(N=C1)C1=CC=CC=C1", 
	 "Tm": 339.15, 
	 "num_atms": 22, 
	 "gaussian": { 
		 "optdone": 1, 
		 "sigma_profile": "yes", 
		 "theory": "DFT", 
		 "functional": "B3LYP", 
		 "basiset": "6-31G**", 
		 "properties": { 
			 "R2extent": 4165.8321, 
			 "electric_dipole_moment_norm": 3.91466801402, 
			 "electric_quadrupole_moment_norm": 17.2880386377, 
			 "total_energy": -604.839981079, 
			 "HOMO_LUMO_gap": 0.18948, 
			 "cosmo_polarized_energy": -11.37, 
			 "cosmo_cavitation_energy": 28.08, 
			 "cosmo_dispersion_energy": -20.21, 
			 "cosmo_repulsion_energy": 1.58, 
			 "cosmo_total_nonelectrostatic_energy": 9.45, 
			 "SMD_solvation_energy": 4.82 
		},
		"coords": [
			{
				"x": -4.7907060996,
				"y": 3.8579862293,
				"z": -1.4722214895,
				"element": "N" 
			},
			{
				"x": -3.8697477503,
				"y": 3.4758088783,
				"z": -0.8794514955,
				"element": "C" 
			},
			{
				"x": -2.7133115363,
				"y": 2.9799241481,
				"z": -0.1278574664,
				"element": "C" 
			},
			{
				"x": -2.1245473317,
				"y": 1.7291530727,
				"z": -0.726736308,
				"element": "C" 
			},
			{
				"x": -0.9025346648,
				"y": 1.3213710616,
				"z": -0.3816591017,
				"element": "N" 
			},
			{
				"x": -0.7344180758,
				"y": 0.1923182331,
				"z": -1.0770080863,
				"element": "N" 
			},
			{
				"x": -1.7643639439,
				"y": -0.1566427684,
				"z": -1.8522489067,
				"element": "N" 
			},
			{
				"x": -2.6609790743,
				"y": 0.8067810519,
				"z": -1.6446799009,
				"element": "C" 
			},
			{
				"x": 0.4609362139,
				"y": -0.5791272081,
				"z": -1.0018458673,
				"element": "C" 
			},
			{
				"x": 0.5727702616,
				"y": -1.7457523501,
				"z": -1.7634281545,
				"element": "C" 
			},
			{
				"x": 1.7451152418,
				"y": -2.4949100886,
				"z": -1.6834658156,
				"element": "C" 
			},
			{
				"x": 2.7939937796,
				"y": -2.0882971828,
				"z": -0.8559034179,
				"element": "C" 
			},
			{
				"x": 2.6653605077,
				"y": -0.9199393688,
				"z": -0.1020740929,
				"element": "C" 
			},
			{
				"x": 1.5005409965,
				"y": -0.157503176,
				"z": -0.1684635043,
				"element": "C" 
			},
			{
				"x": -3.0295719794,
				"y": 2.7982579349,
				"z": 0.9075737477,
				"element": "H" 
			},
			{
				"x": -1.9505959551,
				"y": 3.7654927509,
				"z": -0.0873472521,
				"element": "H" 
			},
			{
				"x": -3.6164764279,
				"y": 0.806827517,
				"z": -2.1478392465,
				"element": "H" 
			},
			{
				"x": -0.2488657835,
				"y": -2.0478169599,
				"z": -2.400837358,
				"element": "H" 
			},
			{
				"x": 1.8360815601,
				"y": -3.4018214657,
				"z": -2.2736035229,
				"element": "H" 
			},
			{
				"x": 3.7043186061,
				"y": -2.6771541887,
				"z": -0.7990936751,
				"element": "H" 
			},
			{
				"x": 3.4755454154,
				"y": -0.5956869595,
				"z": 0.5441012662,
				"element": "H" 
			},
			{
				"x": 1.3867560401,
				"y": 0.7506308387,
				"z": 0.4102896482,
				"element": "H" 
			}
		],
		 "valence_orbital": [ 
			{
				"type": "occ",
				"energy": -0.3091,
				"method": "rhf"
			},
			{
				"type": "occ",
				"energy": -0.30665,
				"method": "rhf"
			},
			{
				"type": "occ",
				"energy": -0.30129,
				"method": "rhf"
			},
			{
				"type": "occ",
				"energy": -0.26432,
				"method": "rhf"
			},
			{
				"type": "occ",
				"energy": -0.23928,
				"method": "rhf"
			},
			{
				"type": "unocc",
				"energy": -0.0498,
				"method": "rhf"
			},
			{
				"type": "unocc",
				"energy": -0.01488,
				"method": "rhf"
			},
			{
				"type": "unocc",
				"energy": 0.01832,
				"method": "rhf"
			},
			{
				"type": "unocc",
				"energy": 0.02548,
				"method": "rhf"
			},
			{
				"type": "unocc",
				"energy": 0.03164,
				"method": "rhf"
			}
		],
		"cosmo_sigma_profile": { 
			"-0.025": 0.0,
			"-0.024": 0.0,
			"-0.023": 0.0,
			"-0.022": 0.0,
			"-0.021": 0.0,
			"-0.02": 0.0,
			"-0.019": 0.0,
			"-0.018": 0.0,
			"-0.017": 0.0,
			"-0.016": 0.0,
			"-0.015": 0.0,
			"-0.014": 0.0,
			"-0.013": 0.0,
			"-0.012": 0.0,
			"-0.011": 0.0,
			"-0.01": 3.57550468475,
			"-0.009": 6.73656643057,
			"-0.008": 5.76397499189,
			"-0.007": 6.60402726058,
			"-0.006": 14.5481837543,
			"-0.005": 15.2329420841,
			"-0.004": 14.4388327071,
			"-0.003": 11.3636257084,
			"-0.002": 13.2543990057,
			"-0.001": 14.3107098701,
			"0.0": 15.54956709,
			"0.001": 17.0267825803,
			"0.002": 16.0706763284,
			"0.003": 16.651187591,
			"0.004": 15.2580864035,
			"0.005": 9.5766344495,
			"0.006": 4.01408395145,
			"0.007": 5.09210519553,
			"0.008": 6.0163551679,
			"0.009": 5.53087795878,
			"0.01": 4.21713684887,
			"0.011": 3.11864650807,
			"0.012": 2.21918462542,
			"0.013": 1.14055433291,
			"0.014": 0.0,
			"0.015": 0.0,
			"0.016": 0.0,
			"0.017": 0.0,
			"0.018": 0.0,
			"0.019": 0.0,
			"0.02": 0.0,
			"0.021": 0.0,
			"0.022": 0.0,
			"0.023": 0.0,
			"0.024": 0.0,
			"0.025": 0.0
		}
	}
}
