{
	 "smiles": "FC(F)OC1=CC2=C(C=C1)C=C(CC2)S(Cl)(=O)=O", 
	 "Tm": 346.15, 
	 "num_atms": 27, 
	 "gaussian": { 
		 "optdone": 1, 
		 "sigma_profile": "yes", 
		 "theory": "DFT", 
		 "functional": "B3LYP", 
		 "basiset": "6-31G**", 
		 "properties": { 
			 "R2extent": 9734.7798, 
			 "electric_dipole_moment_norm": 4.69522658665, 
			 "electric_quadrupole_moment_norm": 33.4752391434, 
			 "total_energy": -1708.2537135, 
			 "HOMO_LUMO_gap": 0.15392, 
			 "cosmo_polarized_energy": -12.94, 
			 "cosmo_cavitation_energy": 35.34, 
			 "cosmo_dispersion_energy": -26.06, 
			 "cosmo_repulsion_energy": 1.92, 
			 "cosmo_total_nonelectrostatic_energy": 11.2, 
			 "SMD_solvation_energy": 5.38 
		},
		"coords": [
			{
				"x": 1.3340329573,
				"y": 2.675393237,
				"z": 4.1428738243,
				"element": "F" 
			},
			{
				"x": 2.0292369634,
				"y": 1.6511807591,
				"z": 3.5725173246,
				"element": "C" 
			},
			{
				"x": 3.3359058659,
				"y": 1.8840210223,
				"z": 3.7676125949,
				"element": "F" 
			},
			{
				"x": 1.8342735732,
				"y": 1.629794533,
				"z": 2.2090453752,
				"element": "O" 
			},
			{
				"x": 0.6560718115,
				"y": 1.1063119809,
				"z": 1.7173098549,
				"element": "C" 
			},
			{
				"x": 0.715798222,
				"y": 0.6316811625,
				"z": 0.4010058736,
				"element": "C" 
			},
			{
				"x": -0.4139976366,
				"y": 0.0989905687,
				"z": -0.2049919854,
				"element": "C" 
			},
			{
				"x": -1.6265140347,
				"y": 0.0355670452,
				"z": 0.5250729201,
				"element": "C" 
			},
			{
				"x": -1.6631834963,
				"y": 0.5049242653,
				"z": 1.8442587334,
				"element": "C" 
			},
			{
				"x": -0.5340901613,
				"y": 1.0545255757,
				"z": 2.4482674506,
				"element": "C" 
			},
			{
				"x": -2.8198258495,
				"y": -0.4986342384,
				"z": -0.1192734685,
				"element": "C" 
			},
			{
				"x": -2.8439394512,
				"y": -0.7067776879,
				"z": -1.4487798173,
				"element": "C" 
			},
			{
				"x": -1.6924598757,
				"y": -0.3627330823,
				"z": -2.3591520067,
				"element": "C" 
			},
			{
				"x": -0.3661639365,
				"y": -0.5096147659,
				"z": -1.592021759,
				"element": "C" 
			},
			{
				"x": -4.3313225098,
				"y": -1.3578122127,
				"z": -2.1617677715,
				"element": "S" 
			},
			{
				"x": -5.082983804,
				"y": 0.378415566,
				"z": -3.1749215467,
				"element": "Cl" 
			},
			{
				"x": -5.3020266106,
				"y": -1.6768644735,
				"z": -1.1208256064,
				"element": "O" 
			},
			{
				"x": -3.9897326852,
				"y": -2.3081599192,
				"z": -3.2153361658,
				"element": "O" 
			},
			{
				"x": 1.7288732666,
				"y": 0.7148365357,
				"z": 4.0578674912,
				"element": "H" 
			},
			{
				"x": 1.6637491828,
				"y": 0.6835086993,
				"z": -0.1253446239,
				"element": "H" 
			},
			{
				"x": -2.5960905436,
				"y": 0.4633029871,
				"z": 2.3995181361,
				"element": "H" 
			},
			{
				"x": -0.5913947635,
				"y": 1.4644986923,
				"z": 3.4486541585,
				"element": "H" 
			},
			{
				"x": -3.6984347912,
				"y": -0.7052556418,
				"z": 0.4846029629,
				"element": "H" 
			},
			{
				"x": -1.8211231199,
				"y": 0.6674364091,
				"z": -2.7189606676,
				"element": "H" 
			},
			{
				"x": -1.691103933,
				"y": -1.0118226237,
				"z": -3.2382765525,
				"element": "H" 
			},
			{
				"x": 0.4508839688,
				"y": -0.0730403067,
				"z": -2.1740968288,
				"element": "H" 
			},
			{
				"x": -0.1394386088,
				"y": -1.5802740874,
				"z": -1.4862578998,
				"element": "H" 
			}
		],
		 "valence_orbital": [ 
			{
				"type": "occ",
				"energy": -0.32711,
				"method": "rhf"
			},
			{
				"type": "occ",
				"energy": -0.31407,
				"method": "rhf"
			},
			{
				"type": "occ",
				"energy": -0.30944,
				"method": "rhf"
			},
			{
				"type": "occ",
				"energy": -0.2795,
				"method": "rhf"
			},
			{
				"type": "occ",
				"energy": -0.24728,
				"method": "rhf"
			},
			{
				"type": "unocc",
				"energy": -0.09336,
				"method": "rhf"
			},
			{
				"type": "unocc",
				"energy": -0.05928,
				"method": "rhf"
			},
			{
				"type": "unocc",
				"energy": -0.0355,
				"method": "rhf"
			},
			{
				"type": "unocc",
				"energy": 0.01468,
				"method": "rhf"
			},
			{
				"type": "unocc",
				"energy": 0.05774,
				"method": "rhf"
			}
		],
		"cosmo_sigma_profile": { 
			"-0.025": 0.0,
			"-0.024": 0.0,
			"-0.023": 0.0,
			"-0.022": 0.0,
			"-0.021": 0.0,
			"-0.02": 0.0,
			"-0.019": 0.0,
			"-0.018": 0.0,
			"-0.017": 0.0,
			"-0.016": 0.0,
			"-0.015": 0.0,
			"-0.014": 0.0,
			"-0.013": 0.0,
			"-0.012": 0.0,
			"-0.011": 0.776090651341,
			"-0.01": 3.2329380234,
			"-0.009": 4.22451982491,
			"-0.008": 5.16421846395,
			"-0.007": 7.98784533982,
			"-0.006": 12.4001776168,
			"-0.005": 17.9804628883,
			"-0.004": 19.2272579589,
			"-0.003": 20.357075992,
			"-0.002": 17.1998379484,
			"-0.001": 17.2484593954,
			"0.0": 18.9644014919,
			"0.001": 20.5647975005,
			"0.002": 27.0466809929,
			"0.003": 34.0654607793,
			"0.004": 23.4409997101,
			"0.005": 6.69173363039,
			"0.006": 5.33452272237,
			"0.007": 5.40512972019,
			"0.008": 10.0313121681,
			"0.009": 7.38700758094,
			"0.01": 0.591796733105,
			"0.011": 0.0,
			"0.012": 0.0,
			"0.013": 0.0,
			"0.014": 0.0,
			"0.015": 0.0,
			"0.016": 0.0,
			"0.017": 0.0,
			"0.018": 0.0,
			"0.019": 0.0,
			"0.02": 0.0,
			"0.021": 0.0,
			"0.022": 0.0,
			"0.023": 0.0,
			"0.024": 0.0,
			"0.025": 0.0
		}
	}
}
