{
	 "smiles": "OC1=C(C=CC=C1)C1CCCC1", 
	 "Tm": 307.65, 
	 "num_atms": 26, 
	 "gaussian": { 
		 "optdone": 1, 
		 "sigma_profile": "yes", 
		 "theory": "DFT", 
		 "functional": "B3LYP", 
		 "basiset": "6-31G**", 
		 "properties": { 
			 "R2extent": 2490.4864, 
			 "electric_dipole_moment_norm": 1.33101738907, 
			 "electric_quadrupole_moment_norm": 8.56765204242, 
			 "total_energy": -502.838312705, 
			 "HOMO_LUMO_gap": 0.21887, 
			 "cosmo_polarized_energy": -7.06, 
			 "cosmo_cavitation_energy": 27.01, 
			 "cosmo_dispersion_energy": -20.11, 
			 "cosmo_repulsion_energy": 1.61, 
			 "cosmo_total_nonelectrostatic_energy": 8.52, 
			 "SMD_solvation_energy": 4.21 
		},
		"coords": [
			{
				"x": -1.7312521552,
				"y": -1.8815302204,
				"z": -0.2369512304,
				"element": "O" 
			},
			{
				"x": -1.4316030977,
				"y": -1.3152774281,
				"z": 0.9783373399,
				"element": "C" 
			},
			{
				"x": -0.6960501702,
				"y": -0.1119699657,
				"z": 0.9769359868,
				"element": "C" 
			},
			{
				"x": -0.3967179867,
				"y": 0.4506620329,
				"z": 2.2229675754,
				"element": "C" 
			},
			{
				"x": -0.7981585565,
				"y": -0.1340300101,
				"z": 3.4265264584,
				"element": "C" 
			},
			{
				"x": -1.5239318931,
				"y": -1.3225403988,
				"z": 3.3991863333,
				"element": "C" 
			},
			{
				"x": -1.8392062662,
				"y": -1.9114149399,
				"z": 2.1741163615,
				"element": "C" 
			},
			{
				"x": -0.2484509604,
				"y": 0.563515239,
				"z": -0.3032771194,
				"element": "C" 
			},
			{
				"x": -1.3988144934,
				"y": 1.0756434135,
				"z": -1.2144806893,
				"element": "C" 
			},
			{
				"x": -0.7508709061,
				"y": 1.1712286516,
				"z": -2.6030818465,
				"element": "C" 
			},
			{
				"x": 0.0983406149,
				"y": -0.1102329407,
				"z": -2.6783869414,
				"element": "C" 
			},
			{
				"x": 0.660567308,
				"y": -0.3001563671,
				"z": -1.2477658828,
				"element": "C" 
			},
			{
				"x": -2.2314539875,
				"y": -2.694268805,
				"z": -0.0878524048,
				"element": "H" 
			},
			{
				"x": 0.1708073904,
				"y": 1.3780232212,
				"z": 2.2438493834,
				"element": "H" 
			},
			{
				"x": -0.5445276352,
				"y": 0.3354681042,
				"z": 4.3719736993,
				"element": "H" 
			},
			{
				"x": -1.8464906194,
				"y": -1.7959504697,
				"z": 4.3219334725,
				"element": "H" 
			},
			{
				"x": -2.4058471244,
				"y": -2.8407143131,
				"z": 2.1423542071,
				"element": "H" 
			},
			{
				"x": 0.3342091756,
				"y": 1.4419648147,
				"z": -0.0008812201,
				"element": "H" 
			},
			{
				"x": -1.8122230195,
				"y": 2.0239598471,
				"z": -0.8555582036,
				"element": "H" 
			},
			{
				"x": -2.2120619951,
				"y": 0.3437048412,
				"z": -1.2363887335,
				"element": "H" 
			},
			{
				"x": -0.1051304681,
				"y": 2.0582103094,
				"z": -2.6568159823,
				"element": "H" 
			},
			{
				"x": -1.4816959625,
				"y": 1.2513537212,
				"z": -3.4148558287,
				"element": "H" 
			},
			{
				"x": 0.8837993771,
				"y": -0.0607415959,
				"z": -3.4396101253,
				"element": "H" 
			},
			{
				"x": -0.5491366382,
				"y": -0.9570219337,
				"z": -2.932845218,
				"element": "H" 
			},
			{
				"x": 0.6585599773,
				"y": -1.3525302636,
				"z": -0.9571988298,
				"element": "H" 
			},
			{
				"x": 1.6961400918,
				"y": 0.049645456,
				"z": -1.1793305615,
				"element": "H" 
			}
		],
		 "valence_orbital": [ 
			{
				"type": "occ",
				"energy": -0.31403,
				"method": "rhf"
			},
			{
				"type": "occ",
				"energy": -0.30918,
				"method": "rhf"
			},
			{
				"type": "occ",
				"energy": -0.30157,
				"method": "rhf"
			},
			{
				"type": "occ",
				"energy": -0.23913,
				"method": "rhf"
			},
			{
				"type": "occ",
				"energy": -0.21444,
				"method": "rhf"
			},
			{
				"type": "unocc",
				"energy": 0.00443,
				"method": "rhf"
			},
			{
				"type": "unocc",
				"energy": 0.01652,
				"method": "rhf"
			},
			{
				"type": "unocc",
				"energy": 0.06665,
				"method": "rhf"
			},
			{
				"type": "unocc",
				"energy": 0.09037,
				"method": "rhf"
			},
			{
				"type": "unocc",
				"energy": 0.09693,
				"method": "rhf"
			}
		],
		"cosmo_sigma_profile": { 
			"-0.025": 0.0,
			"-0.024": 0.0,
			"-0.023": 0.0,
			"-0.022": 0.0,
			"-0.021": 0.0,
			"-0.02": 0.0,
			"-0.019": 0.0,
			"-0.018": 0.174853078019,
			"-0.017": 0.924330704643,
			"-0.016": 0.908989787303,
			"-0.015": 1.03937576873,
			"-0.014": 1.05119334164,
			"-0.013": 1.22826416542,
			"-0.012": 0.5582110521,
			"-0.011": 0.529466029635,
			"-0.01": 1.22453274296,
			"-0.009": 1.51842262885,
			"-0.008": 1.26810691286,
			"-0.007": 0.891108019367,
			"-0.006": 2.83351014669,
			"-0.005": 6.19781400969,
			"-0.004": 9.26635237147,
			"-0.003": 11.9064969743,
			"-0.002": 20.501269395,
			"-0.001": 25.2489720176,
			"0.0": 25.866314935,
			"0.001": 25.216452426,
			"0.002": 21.7016922484,
			"0.003": 11.296145659,
			"0.004": 9.84485397108,
			"0.005": 10.6005164855,
			"0.006": 10.5264594667,
			"0.007": 8.15521433674,
			"0.008": 0.94494254628,
			"0.009": 0.0,
			"0.01": 0.0,
			"0.011": 0.0,
			"0.012": 0.0,
			"0.013": 0.0,
			"0.014": 0.0,
			"0.015": 0.0,
			"0.016": 0.0,
			"0.017": 0.0,
			"0.018": 0.0,
			"0.019": 0.0,
			"0.02": 0.0,
			"0.021": 0.0,
			"0.022": 0.0,
			"0.023": 0.0,
			"0.024": 0.0,
			"0.025": 0.0
		}
	}
}
