{
	 "smiles": "NC(=S)C1CN2CCCC2CO1", 
	 "Tm": 420.15, 
	 "num_atms": 26, 
	 "gaussian": { 
		 "optdone": 1, 
		 "sigma_profile": "yes", 
		 "theory": "DFT", 
		 "functional": "B3LYP", 
		 "basiset": "6-31G**", 
		 "properties": { 
			 "R2extent": 3575.8598, 
			 "electric_dipole_moment_norm": 5.00012111853, 
			 "electric_quadrupole_moment_norm": 29.3929967533, 
			 "total_energy": -896.174094692, 
			 "HOMO_LUMO_gap": 0.17405, 
			 "cosmo_polarized_energy": -20.47, 
			 "cosmo_cavitation_energy": 27.78, 
			 "cosmo_dispersion_energy": -21.09, 
			 "cosmo_repulsion_energy": 1.64, 
			 "cosmo_total_nonelectrostatic_energy": 8.33, 
			 "SMD_solvation_energy": 0.83 
		},
		"coords": [
			{
				"x": 3.0983191389,
				"y": -2.1458136708,
				"z": 2.3908953106,
				"element": "N" 
			},
			{
				"x": 1.9897500331,
				"y": -1.4518020791,
				"z": 2.7242325351,
				"element": "C" 
			},
			{
				"x": 1.113102151,
				"y": -1.7883751902,
				"z": 4.0884164994,
				"element": "S" 
			},
			{
				"x": 1.6849643627,
				"y": -0.3074855513,
				"z": 1.7283856518,
				"element": "C" 
			},
			{
				"x": 1.266839639,
				"y": -0.8365741125,
				"z": 0.3461068622,
				"element": "C" 
			},
			{
				"x": -0.0082187953,
				"y": -1.5287080201,
				"z": 0.4365714369,
				"element": "N" 
			},
			{
				"x": -0.6266474502,
				"y": -1.8568778922,
				"z": -0.8606481656,
				"element": "C" 
			},
			{
				"x": -1.8538225807,
				"y": -0.9410829773,
				"z": -0.9828076278,
				"element": "C" 
			},
			{
				"x": -2.3252991986,
				"y": -0.8364925416,
				"z": 0.476456331,
				"element": "C" 
			},
			{
				"x": -1.014152654,
				"y": -0.8451244263,
				"z": 1.2979838433,
				"element": "C" 
			},
			{
				"x": -0.5563149815,
				"y": 0.5684006915,
				"z": 1.6663848051,
				"element": "C" 
			},
			{
				"x": 0.7491250963,
				"y": 0.6091593883,
				"z": 2.2437230004,
				"element": "O" 
			},
			{
				"x": 3.6584452675,
				"y": -1.9146976005,
				"z": 1.5831603793,
				"element": "H" 
			},
			{
				"x": 3.3883835474,
				"y": -2.9138924605,
				"z": 2.9776909775,
				"element": "H" 
			},
			{
				"x": 2.6310443329,
				"y": 0.242899337,
				"z": 1.6032400903,
				"element": "H" 
			},
			{
				"x": 2.0308500882,
				"y": -1.5274874451,
				"z": -0.0323147411,
				"element": "H" 
			},
			{
				"x": 1.2580533306,
				"y": 0.0277621267,
				"z": -0.3470108171,
				"element": "H" 
			},
			{
				"x": 0.0915695797,
				"y": -1.7213477911,
				"z": -1.677177902,
				"element": "H" 
			},
			{
				"x": -0.9353920216,
				"y": -2.91197242,
				"z": -0.8729062789,
				"element": "H" 
			},
			{
				"x": -2.6205307505,
				"y": -1.3361824293,
				"z": -1.6561730062,
				"element": "H" 
			},
			{
				"x": -1.5552565926,
				"y": 0.0439335791,
				"z": -1.3609199505,
				"element": "H" 
			},
			{
				"x": -2.9299058534,
				"y": 0.0556638247,
				"z": 0.6710269478,
				"element": "H" 
			},
			{
				"x": -2.9363841355,
				"y": -1.7061284005,
				"z": 0.7403854503,
				"element": "H" 
			},
			{
				"x": -1.1332634235,
				"y": -1.4097268118,
				"z": 2.228547386,
				"element": "H" 
			},
			{
				"x": -1.2263086993,
				"y": 0.9929837218,
				"z": 2.4196880535,
				"element": "H" 
			},
			{
				"x": -0.5929494304,
				"y": 1.2218691513,
				"z": 0.7791629286,
				"element": "H" 
			}
		],
		 "valence_orbital": [ 
			{
				"type": "occ",
				"energy": -0.29526,
				"method": "rhf"
			},
			{
				"type": "occ",
				"energy": -0.2543,
				"method": "rhf"
			},
			{
				"type": "occ",
				"energy": -0.2252,
				"method": "rhf"
			},
			{
				"type": "occ",
				"energy": -0.20564,
				"method": "rhf"
			},
			{
				"type": "occ",
				"energy": -0.19948,
				"method": "rhf"
			},
			{
				"type": "unocc",
				"energy": -0.02543,
				"method": "rhf"
			},
			{
				"type": "unocc",
				"energy": 0.05568,
				"method": "rhf"
			},
			{
				"type": "unocc",
				"energy": 0.07735,
				"method": "rhf"
			},
			{
				"type": "unocc",
				"energy": 0.0887,
				"method": "rhf"
			},
			{
				"type": "unocc",
				"energy": 0.10761,
				"method": "rhf"
			}
		],
		"cosmo_sigma_profile": { 
			"-0.025": 0.0,
			"-0.024": 0.0,
			"-0.023": 0.0,
			"-0.022": 0.0,
			"-0.021": 0.0,
			"-0.02": 0.0,
			"-0.019": 0.0,
			"-0.018": 0.0,
			"-0.017": 0.0,
			"-0.016": 0.295599944374,
			"-0.015": 2.17744231718,
			"-0.014": 3.3891608503,
			"-0.013": 2.82190133566,
			"-0.012": 2.74915676671,
			"-0.011": 2.19476985535,
			"-0.01": 2.14532715576,
			"-0.009": 2.75421827564,
			"-0.008": 2.16440252178,
			"-0.007": 3.22768161594,
			"-0.006": 3.54948202735,
			"-0.005": 5.04250162239,
			"-0.004": 17.8001964085,
			"-0.003": 28.5945524639,
			"-0.002": 23.8253655212,
			"-0.001": 22.1885662682,
			"0.0": 15.82061126,
			"0.001": 9.48358812404,
			"0.002": 4.6247844296,
			"0.003": 5.10427757101,
			"0.004": 4.54489319236,
			"0.005": 5.35605188202,
			"0.006": 5.48761948001,
			"0.007": 6.51278347154,
			"0.008": 7.14043633593,
			"0.009": 7.61611768788,
			"0.01": 6.12314888982,
			"0.011": 5.16392336785,
			"0.012": 4.28580189226,
			"0.013": 2.45490449329,
			"0.014": 1.74179624095,
			"0.015": 1.3812218184,
			"0.016": 0.459218224154,
			"0.017": 0.00100019855889,
			"0.018": 0.0,
			"0.019": 0.0,
			"0.02": 0.0,
			"0.021": 0.0,
			"0.022": 0.0,
			"0.023": 0.0,
			"0.024": 0.0,
			"0.025": 0.0
		}
	}
}
