{
	 "smiles": "CN1C=C(Br)C(=N1)C(O)=O", 
	 "Tm": 485.15, 
	 "num_atms": 15, 
	 "gaussian": { 
		 "optdone": 1, 
		 "sigma_profile": "yes", 
		 "theory": "DFT", 
		 "functional": "B3LYP", 
		 "basiset": "6-31G**", 
		 "properties": { 
			 "R2extent": 2299.178, 
			 "electric_dipole_moment_norm": 7.51281083018, 
			 "electric_quadrupole_moment_norm": 5.29849698594, 
			 "total_energy": -3024.88217591, 
			 "HOMO_LUMO_gap": 0.20993, 
			 "cosmo_polarized_energy": -16.11, 
			 "cosmo_cavitation_energy": 22.35, 
			 "cosmo_dispersion_energy": -17.02, 
			 "cosmo_repulsion_energy": 1.4, 
			 "cosmo_total_nonelectrostatic_energy": 6.73, 
			 "SMD_solvation_energy": 3.87 
		},
		"coords": [
			{
				"x": -1.7657841835,
				"y": 2.3987909316,
				"z": 2.0666324453,
				"element": "C" 
			},
			{
				"x": -1.2822339365,
				"y": 1.3335066436,
				"z": 1.2028131705,
				"element": "N" 
			},
			{
				"x": -1.9603746726,
				"y": 0.2365746029,
				"z": 0.767265046,
				"element": "C" 
			},
			{
				"x": -1.0846678897,
				"y": -0.4800325257,
				"z": -0.0261823414,
				"element": "C" 
			},
			{
				"x": -1.4723528253,
				"y": -2.0920210735,
				"z": -0.9011589885,
				"element": "Br" 
			},
			{
				"x": 0.1150681209,
				"y": 0.2672168679,
				"z": -0.0141809706,
				"element": "C" 
			},
			{
				"x": -0.0268680709,
				"y": 1.3669769077,
				"z": 0.7395719953,
				"element": "N" 
			},
			{
				"x": 1.420963793,
				"y": 0.0115808383,
				"z": -0.6805602171,
				"element": "C" 
			},
			{
				"x": 2.3533572055,
				"y": 0.9604473786,
				"z": -0.4380418667,
				"element": "O" 
			},
			{
				"x": 1.6455282583,
				"y": -0.9481486599,
				"z": -1.3780001619,
				"element": "O" 
			},
			{
				"x": -2.8020806176,
				"y": 2.1901036187,
				"z": 2.3340656079,
				"element": "H" 
			},
			{
				"x": -1.1581806803,
				"y": 2.4472479258,
				"z": 2.9732956272,
				"element": "H" 
			},
			{
				"x": -1.7102414665,
				"y": 3.3562066406,
				"z": 1.5433331322,
				"element": "H" 
			},
			{
				"x": -2.9863463632,
				"y": 0.0432954471,
				"z": 1.0403428491,
				"element": "H" 
			},
			{
				"x": 1.9592133285,
				"y": 1.635154456,
				"z": 0.1431046728,
				"element": "H" 
			}
		],
		 "valence_orbital": [ 
			{
				"type": "occ",
				"energy": -0.3074,
				"method": "rhf"
			},
			{
				"type": "occ",
				"energy": -0.29559,
				"method": "rhf"
			},
			{
				"type": "occ",
				"energy": -0.28379,
				"method": "rhf"
			},
			{
				"type": "occ",
				"energy": -0.26353,
				"method": "rhf"
			},
			{
				"type": "occ",
				"energy": -0.25091,
				"method": "rhf"
			},
			{
				"type": "unocc",
				"energy": -0.04098,
				"method": "rhf"
			},
			{
				"type": "unocc",
				"energy": 0.00345,
				"method": "rhf"
			},
			{
				"type": "unocc",
				"energy": 0.00832,
				"method": "rhf"
			},
			{
				"type": "unocc",
				"energy": 0.07485,
				"method": "rhf"
			},
			{
				"type": "unocc",
				"energy": 0.0963,
				"method": "rhf"
			}
		],
		"cosmo_sigma_profile": { 
			"-0.025": 0.0,
			"-0.024": 0.0,
			"-0.023": 0.0,
			"-0.022": 0.0,
			"-0.021": 0.0,
			"-0.02": 0.0,
			"-0.019": 0.0,
			"-0.018": 0.0,
			"-0.017": 0.0,
			"-0.016": 0.0,
			"-0.015": 0.0,
			"-0.014": 0.571454612126,
			"-0.013": 0.802237493455,
			"-0.012": 0.41579420499,
			"-0.011": 2.37322976182,
			"-0.01": 4.33762124327,
			"-0.009": 2.89002423756,
			"-0.008": 4.16231329831,
			"-0.007": 8.14648399449,
			"-0.006": 9.67419624871,
			"-0.005": 11.8139653035,
			"-0.004": 15.083628377,
			"-0.003": 9.48216066687,
			"-0.002": 7.72158300706,
			"-0.001": 11.2001019015,
			"0.0": 11.5837376137,
			"0.001": 13.2048893366,
			"0.002": 10.0688362518,
			"0.003": 10.2144814608,
			"0.004": 11.3209928999,
			"0.005": 4.2878708193,
			"0.006": 4.82955878852,
			"0.007": 3.74274434861,
			"0.008": 3.15019870139,
			"0.009": 4.06651785473,
			"0.01": 5.80603653102,
			"0.011": 5.62605682593,
			"0.012": 4.83680237727,
			"0.013": 1.16330239562,
			"0.014": 0.0,
			"0.015": 0.0,
			"0.016": 0.0,
			"0.017": 0.0,
			"0.018": 0.0,
			"0.019": 0.0,
			"0.02": 0.0,
			"0.021": 0.0,
			"0.022": 0.0,
			"0.023": 0.0,
			"0.024": 0.0,
			"0.025": 0.0
		}
	}
}
