{
	 "smiles": "[O-][N+](=O)C1=CC(Cl)=C(Cl)C=C1", 
	 "Tm": 314.15, 
	 "num_atms": 14, 
	 "gaussian": { 
		 "optdone": 1, 
		 "sigma_profile": "yes", 
		 "theory": "DFT", 
		 "functional": "B3LYP", 
		 "basiset": "6-31G**", 
		 "properties": { 
			 "R2extent": 5159.6068, 
			 "electric_dipole_moment_norm": 2.66106353739, 
			 "electric_quadrupole_moment_norm": 5.59532006055, 
			 "total_energy": -1355.9226247, 
			 "HOMO_LUMO_gap": 0.17307, 
			 "cosmo_polarized_energy": -7.16, 
			 "cosmo_cavitation_energy": 23.07, 
			 "cosmo_dispersion_energy": -17.36, 
			 "cosmo_repulsion_energy": 1.39, 
			 "cosmo_total_nonelectrostatic_energy": 7.1, 
			 "SMD_solvation_energy": 5.78 
		},
		"coords": [
			{
				"x": -0.1283482106,
				"y": 1.1243489112,
				"z": 1.3918039629,
				"element": "O" 
			},
			{
				"x": 0.8497299991,
				"y": 0.3962957536,
				"z": 1.550477629,
				"element": "N" 
			},
			{
				"x": 1.9164595877,
				"y": 0.7442593197,
				"z": 2.0529698079,
				"element": "O" 
			},
			{
				"x": 0.7315112404,
				"y": -1.0014736217,
				"z": 1.1028539624,
				"element": "C" 
			},
			{
				"x": 1.8224066088,
				"y": -1.8476030186,
				"z": 1.2702890272,
				"element": "C" 
			},
			{
				"x": 1.7187432205,
				"y": -3.171797727,
				"z": 0.8493897246,
				"element": "C" 
			},
			{
				"x": 3.0878694976,
				"y": -4.2264895836,
				"z": 1.0616426123,
				"element": "Cl" 
			},
			{
				"x": 0.5232703301,
				"y": -3.6279355364,
				"z": 0.267039901,
				"element": "C" 
			},
			{
				"x": 0.3518097638,
				"y": -5.2720727201,
				"z": -0.2716938011,
				"element": "Cl" 
			},
			{
				"x": -0.5579880369,
				"y": -2.7534780105,
				"z": 0.1114160929,
				"element": "C" 
			},
			{
				"x": -0.4620487688,
				"y": -1.4314508326,
				"z": 0.5287714258,
				"element": "C" 
			},
			{
				"x": 2.7325739423,
				"y": -1.4744571659,
				"z": 1.7211528072,
				"element": "H" 
			},
			{
				"x": -1.4717506894,
				"y": -3.1227576048,
				"z": -0.3396451216,
				"element": "H" 
			},
			{
				"x": -1.2860384846,
				"y": -0.7384881633,
				"z": 0.4178319695,
				"element": "H" 
			}
		],
		 "valence_orbital": [ 
			{
				"type": "occ",
				"energy": -0.32314,
				"method": "rhf"
			},
			{
				"type": "occ",
				"energy": -0.31979,
				"method": "rhf"
			},
			{
				"type": "occ",
				"energy": -0.30503,
				"method": "rhf"
			},
			{
				"type": "occ",
				"energy": -0.29211,
				"method": "rhf"
			},
			{
				"type": "occ",
				"energy": -0.2782,
				"method": "rhf"
			},
			{
				"type": "unocc",
				"energy": -0.10513,
				"method": "rhf"
			},
			{
				"type": "unocc",
				"energy": -0.05124,
				"method": "rhf"
			},
			{
				"type": "unocc",
				"energy": -0.02123,
				"method": "rhf"
			},
			{
				"type": "unocc",
				"energy": -0.01741,
				"method": "rhf"
			},
			{
				"type": "unocc",
				"energy": 0.04066,
				"method": "rhf"
			}
		],
		"cosmo_sigma_profile": { 
			"-0.025": 0.0,
			"-0.024": 0.0,
			"-0.023": 0.0,
			"-0.022": 0.0,
			"-0.021": 0.0,
			"-0.02": 0.0,
			"-0.019": 0.0,
			"-0.018": 0.0,
			"-0.017": 0.0,
			"-0.016": 0.0,
			"-0.015": 0.0,
			"-0.014": 0.0,
			"-0.013": 0.0,
			"-0.012": 0.0,
			"-0.011": 0.0,
			"-0.01": 0.131986502939,
			"-0.009": 3.05846490638,
			"-0.008": 5.6731739778,
			"-0.007": 5.91112436001,
			"-0.006": 5.51607579138,
			"-0.005": 6.75255882741,
			"-0.004": 8.86678891324,
			"-0.003": 12.8150622397,
			"-0.002": 24.1780254998,
			"-0.001": 22.5719956517,
			"0.0": 14.3170270677,
			"0.001": 11.997045934,
			"0.002": 14.1692699368,
			"0.003": 18.5542392225,
			"0.004": 8.70197459688,
			"0.005": 3.32777731096,
			"0.006": 5.24123078481,
			"0.007": 9.26481645688,
			"0.008": 5.03478940839,
			"0.009": 3.79051083379,
			"0.01": 0.949572445752,
			"0.011": 0.0,
			"0.012": 0.0,
			"0.013": 0.0,
			"0.014": 0.0,
			"0.015": 0.0,
			"0.016": 0.0,
			"0.017": 0.0,
			"0.018": 0.0,
			"0.019": 0.0,
			"0.02": 0.0,
			"0.021": 0.0,
			"0.022": 0.0,
			"0.023": 0.0,
			"0.024": 0.0,
			"0.025": 0.0
		}
	}
}
