{
	 "smiles": "COC1=CC2=C(NC(C)=C2C(=O)CCl)C=C1", 
	 "Tm": 498.15, 
	 "num_atms": 28, 
	 "gaussian": { 
		 "optdone": 1, 
		 "sigma_profile": "yes", 
		 "theory": "DFT", 
		 "functional": "B3LYP", 
		 "basiset": "6-31G**", 
		 "properties": { 
			 "R2extent": 5108.9113, 
			 "electric_dipole_moment_norm": 4.90556433655, 
			 "electric_quadrupole_moment_norm": 26.7877486994, 
			 "total_energy": -1129.90364026, 
			 "HOMO_LUMO_gap": 0.17619, 
			 "cosmo_polarized_energy": -18.64, 
			 "cosmo_cavitation_energy": 33.26, 
			 "cosmo_dispersion_energy": -24.17, 
			 "cosmo_repulsion_energy": 1.88, 
			 "cosmo_total_nonelectrostatic_energy": 10.97, 
			 "SMD_solvation_energy": 6.11 
		},
		"coords": [
			{
				"x": -2.0317039089,
				"y": 1.5675422632,
				"z": 3.9600502846,
				"element": "C" 
			},
			{
				"x": -2.8167941798,
				"y": 1.4290312332,
				"z": 2.788639002,
				"element": "O" 
			},
			{
				"x": -2.2511648839,
				"y": 0.8349347355,
				"z": 1.6938200641,
				"element": "C" 
			},
			{
				"x": -0.9438889541,
				"y": 0.3510022665,
				"z": 1.6518694419,
				"element": "C" 
			},
			{
				"x": -0.4728674569,
				"y": -0.24331016,
				"z": 0.4618373296,
				"element": "C" 
			},
			{
				"x": -1.3541383267,
				"y": -0.3224099441,
				"z": -0.6435903199,
				"element": "C" 
			},
			{
				"x": -0.6671442367,
				"y": -0.9399107494,
				"z": -1.6804660677,
				"element": "N" 
			},
			{
				"x": 0.6008581893,
				"y": -1.2569716329,
				"z": -1.2946173706,
				"element": "C" 
			},
			{
				"x": 1.5437590518,
				"y": -1.9318762347,
				"z": -2.2348264151,
				"element": "C" 
			},
			{
				"x": 0.7797486863,
				"y": -0.8465648006,
				"z": 0.0321737015,
				"element": "C" 
			},
			{
				"x": 2.0500495696,
				"y": -1.0528181351,
				"z": 0.7292070161,
				"element": "C" 
			},
			{
				"x": 3.0140148956,
				"y": -1.5890929002,
				"z": 0.1985434246,
				"element": "O" 
			},
			{
				"x": 2.115605892,
				"y": -0.5562192045,
				"z": 2.1807474301,
				"element": "C" 
			},
			{
				"x": 3.702741554,
				"y": -0.8449433085,
				"z": 2.9616863722,
				"element": "Cl" 
			},
			{
				"x": -2.6638733534,
				"y": 0.1610429162,
				"z": -0.605173891,
				"element": "C" 
			},
			{
				"x": -3.1058252622,
				"y": 0.7405457868,
				"z": 0.5722648357,
				"element": "C" 
			},
			{
				"x": -1.7142450577,
				"y": 0.5929556001,
				"z": 4.3542668477,
				"element": "H" 
			},
			{
				"x": -1.142678336,
				"y": 2.1873582074,
				"z": 3.7826887271,
				"element": "H" 
			},
			{
				"x": -2.6697743851,
				"y": 2.0599326041,
				"z": 4.6955593665,
				"element": "H" 
			},
			{
				"x": -0.3082114449,
				"y": 0.4338828345,
				"z": 2.521715156,
				"element": "H" 
			},
			{
				"x": -1.0455695461,
				"y": -1.1314013739,
				"z": -2.5954934595,
				"element": "H" 
			},
			{
				"x": 1.0687856344,
				"y": -2.1086395649,
				"z": -3.2054145616,
				"element": "H" 
			},
			{
				"x": 2.4444050489,
				"y": -1.329482317,
				"z": -2.3803648773,
				"element": "H" 
			},
			{
				"x": 1.8856777662,
				"y": -2.8854296811,
				"z": -1.8236563412,
				"element": "H" 
			},
			{
				"x": 1.9213841852,
				"y": 0.5188053422,
				"z": 2.2147357118,
				"element": "H" 
			},
			{
				"x": 1.3552518798,
				"y": -1.0619093198,
				"z": 2.7813075896,
				"element": "H" 
			},
			{
				"x": -3.3194997946,
				"y": 0.087624328,
				"z": -1.4680984735,
				"element": "H" 
			},
			{
				"x": -4.1122032261,
				"y": 1.133921209,
				"z": 0.6630894764,
				"element": "H" 
			}
		],
		 "valence_orbital": [ 
			{
				"type": "occ",
				"energy": -0.28897,
				"method": "rhf"
			},
			{
				"type": "occ",
				"energy": -0.28309,
				"method": "rhf"
			},
			{
				"type": "occ",
				"energy": -0.24597,
				"method": "rhf"
			},
			{
				"type": "occ",
				"energy": -0.21711,
				"method": "rhf"
			},
			{
				"type": "occ",
				"energy": -0.2122,
				"method": "rhf"
			},
			{
				"type": "unocc",
				"energy": -0.03601,
				"method": "rhf"
			},
			{
				"type": "unocc",
				"energy": -0.01151,
				"method": "rhf"
			},
			{
				"type": "unocc",
				"energy": 0.02608,
				"method": "rhf"
			},
			{
				"type": "unocc",
				"energy": 0.03522,
				"method": "rhf"
			},
			{
				"type": "unocc",
				"energy": 0.06535,
				"method": "rhf"
			}
		],
		"cosmo_sigma_profile": { 
			"-0.025": 0.0,
			"-0.024": 0.0,
			"-0.023": 0.0,
			"-0.022": 0.0,
			"-0.021": 0.0,
			"-0.02": 0.0,
			"-0.019": 0.0,
			"-0.018": 0.0,
			"-0.017": 0.0667240696124,
			"-0.016": 1.15002502135,
			"-0.015": 1.66629983432,
			"-0.014": 1.31188954945,
			"-0.013": 1.60674690718,
			"-0.012": 1.43661341716,
			"-0.011": 1.34540908965,
			"-0.01": 1.30444788493,
			"-0.009": 2.23278841036,
			"-0.008": 7.50634178146,
			"-0.007": 8.67735866855,
			"-0.006": 10.9003856279,
			"-0.005": 19.6620794325,
			"-0.004": 18.0853849244,
			"-0.003": 20.5498806625,
			"-0.002": 16.5615345133,
			"-0.001": 17.4969545012,
			"0.0": 11.8517502457,
			"0.001": 13.054387411,
			"0.002": 14.9422713593,
			"0.003": 16.3825777187,
			"0.004": 18.6090562509,
			"0.005": 18.9441348891,
			"0.006": 14.6243465487,
			"0.007": 4.90371457238,
			"0.008": 3.56983300889,
			"0.009": 3.70073892893,
			"0.01": 4.12710709099,
			"0.011": 2.44125806376,
			"0.012": 3.03125350838,
			"0.013": 2.75732181205,
			"0.014": 1.86180087578,
			"0.015": 0.324931935689,
			"0.016": 0.0,
			"0.017": 0.0,
			"0.018": 0.0,
			"0.019": 0.0,
			"0.02": 0.0,
			"0.021": 0.0,
			"0.022": 0.0,
			"0.023": 0.0,
			"0.024": 0.0,
			"0.025": 0.0
		}
	}
}
