{
	 "smiles": "CN1CCC(=O)NC2=C1C=CC(F)=C2", 
	 "Tm": 417.15, 
	 "num_atms": 25, 
	 "gaussian": { 
		 "optdone": 1, 
		 "sigma_profile": "yes", 
		 "theory": "DFT", 
		 "functional": "B3LYP", 
		 "basiset": "6-31G**", 
		 "properties": { 
			 "R2extent": 2994.657, 
			 "electric_dipole_moment_norm": 3.84393661498, 
			 "electric_quadrupole_moment_norm": 14.2805452525, 
			 "total_energy": -672.258229818, 
			 "HOMO_LUMO_gap": 0.17868, 
			 "cosmo_polarized_energy": -12.21, 
			 "cosmo_cavitation_energy": 27.89, 
			 "cosmo_dispersion_energy": -20.6, 
			 "cosmo_repulsion_energy": 1.57, 
			 "cosmo_total_nonelectrostatic_energy": 8.86, 
			 "SMD_solvation_energy": 4.9 
		},
		"coords": [
			{
				"x": -1.4408099383,
				"y": -1.3867125134,
				"z": -2.7799324251,
				"element": "C" 
			},
			{
				"x": -1.0456067692,
				"y": -0.4671954747,
				"z": -1.7256224476,
				"element": "N" 
			},
			{
				"x": -2.1455590592,
				"y": 0.2198021337,
				"z": -1.0411575499,
				"element": "C" 
			},
			{
				"x": -1.9885273943,
				"y": 1.7341009668,
				"z": -1.1004939813,
				"element": "C" 
			},
			{
				"x": -0.7762103194,
				"y": 2.3224571326,
				"z": -0.4069595826,
				"element": "C" 
			},
			{
				"x": -0.7112273084,
				"y": 3.5241909716,
				"z": -0.1801634715,
				"element": "O" 
			},
			{
				"x": 0.274455103,
				"y": 1.5201077605,
				"z": 0.0073752661,
				"element": "N" 
			},
			{
				"x": 0.6552448769,
				"y": 0.1640092001,
				"z": -0.0770770749,
				"element": "C" 
			},
			{
				"x": 0.0605408962,
				"y": -0.8063107655,
				"z": -0.9261117323,
				"element": "C" 
			},
			{
				"x": 0.6277264933,
				"y": -2.0920945396,
				"z": -0.9526553382,
				"element": "C" 
			},
			{
				"x": 1.741694578,
				"y": -2.4394274009,
				"z": -0.1902343123,
				"element": "C" 
			},
			{
				"x": 2.2855832383,
				"y": -1.4762219321,
				"z": 0.6441201492,
				"element": "C" 
			},
			{
				"x": 3.3570661348,
				"y": -1.7781232312,
				"z": 1.4097634222,
				"element": "F" 
			},
			{
				"x": 1.7567760043,
				"y": -0.1973611043,
				"z": 0.7135530503,
				"element": "C" 
			},
			{
				"x": -1.9109172569,
				"y": -2.3157785725,
				"z": -2.4133756877,
				"element": "H" 
			},
			{
				"x": -2.1563091893,
				"y": -0.8844779746,
				"z": -3.4367882239,
				"element": "H" 
			},
			{
				"x": -0.5704524555,
				"y": -1.6580942795,
				"z": -3.3833354755,
				"element": "H" 
			},
			{
				"x": -3.0843554256,
				"y": -0.0541505342,
				"z": -1.5313308621,
				"element": "H" 
			},
			{
				"x": -2.2283774021,
				"y": -0.1219335141,
				"z": 0.0002592181,
				"element": "H" 
			},
			{
				"x": -2.8545507801,
				"y": 2.2359302123,
				"z": -0.6552270413,
				"element": "H" 
			},
			{
				"x": -1.9455682782,
				"y": 2.0554018013,
				"z": -2.1474478259,
				"element": "H" 
			},
			{
				"x": 0.9503319021,
				"y": 2.1032565101,
				"z": 0.4877320259,
				"element": "H" 
			},
			{
				"x": 0.183355433,
				"y": -2.8489534345,
				"z": -1.5872841961,
				"element": "H" 
			},
			{
				"x": 2.1684609987,
				"y": -3.434999953,
				"z": -0.2299305206,
				"element": "H" 
			},
			{
				"x": 2.220535918,
				"y": 0.528978535,
				"z": 1.373624617,
				"element": "H" 
			}
		],
		 "valence_orbital": [ 
			{
				"type": "occ",
				"energy": -0.30393,
				"method": "rhf"
			},
			{
				"type": "occ",
				"energy": -0.27931,
				"method": "rhf"
			},
			{
				"type": "occ",
				"energy": -0.25362,
				"method": "rhf"
			},
			{
				"type": "occ",
				"energy": -0.23505,
				"method": "rhf"
			},
			{
				"type": "occ",
				"energy": -0.19757,
				"method": "rhf"
			},
			{
				"type": "unocc",
				"energy": -0.01889,
				"method": "rhf"
			},
			{
				"type": "unocc",
				"energy": 0.00239,
				"method": "rhf"
			},
			{
				"type": "unocc",
				"energy": 0.03878,
				"method": "rhf"
			},
			{
				"type": "unocc",
				"energy": 0.07426,
				"method": "rhf"
			},
			{
				"type": "unocc",
				"energy": 0.08936,
				"method": "rhf"
			}
		],
		"cosmo_sigma_profile": { 
			"-0.025": 0.0,
			"-0.024": 0.0,
			"-0.023": 0.0,
			"-0.022": 0.0,
			"-0.021": 0.0,
			"-0.02": 0.0,
			"-0.019": 0.0,
			"-0.018": 0.0,
			"-0.017": 0.0,
			"-0.016": 0.0,
			"-0.015": 0.102721334316,
			"-0.014": 1.14047273046,
			"-0.013": 1.26038300104,
			"-0.012": 0.665538479203,
			"-0.011": 1.09456132999,
			"-0.01": 1.27667416149,
			"-0.009": 1.35728283025,
			"-0.008": 1.55971240273,
			"-0.007": 2.43612215084,
			"-0.006": 8.58961698169,
			"-0.005": 19.5771509706,
			"-0.004": 23.8686000169,
			"-0.003": 19.7871369678,
			"-0.002": 20.1340976951,
			"-0.001": 13.326058405,
			"0.0": 9.64107864771,
			"0.001": 11.5005323602,
			"0.002": 15.5088336162,
			"0.003": 14.849034027,
			"0.004": 18.344751304,
			"0.005": 13.0633838956,
			"0.006": 2.38494645771,
			"0.007": 2.02740002999,
			"0.008": 1.52329411241,
			"0.009": 1.00402616685,
			"0.01": 1.46877437614,
			"0.011": 1.76845287132,
			"0.012": 1.89453856294,
			"0.013": 4.83176009919,
			"0.014": 4.22328403395,
			"0.015": 0.636522060319,
			"0.016": 0.0,
			"0.017": 0.0,
			"0.018": 0.0,
			"0.019": 0.0,
			"0.02": 0.0,
			"0.021": 0.0,
			"0.022": 0.0,
			"0.023": 0.0,
			"0.024": 0.0,
			"0.025": 0.0
		}
	}
}
