{
	 "smiles": "CN1C(SCC(O)=O)=NN=C1C1=CC2=CC=CN=C2C=C1", 
	 "Tm": 511.15, 
	 "num_atms": 33, 
	 "gaussian": { 
		 "optdone": 1, 
		 "sigma_profile": "yes", 
		 "theory": "DFT", 
		 "functional": "B3LYP", 
		 "basiset": "6-31G**", 
		 "properties": { 
			 "R2extent": 11904.5163, 
			 "electric_dipole_moment_norm": 7.29958609101, 
			 "electric_quadrupole_moment_norm": 54.7877965286, 
			 "total_energy": -1308.36494604, 
			 "HOMO_LUMO_gap": 0.16079, 
			 "cosmo_polarized_energy": -23.37, 
			 "cosmo_cavitation_energy": 39.17, 
			 "cosmo_dispersion_energy": -29.05, 
			 "cosmo_repulsion_energy": 2.13, 
			 "cosmo_total_nonelectrostatic_energy": 12.25, 
			 "SMD_solvation_energy": 4.36 
		},
		"coords": [
			{
				"x": 2.6381933145,
				"y": 0.784834299,
				"z": -1.8646214022,
				"element": "C" 
			},
			{
				"x": 1.410460354,
				"y": 1.5681660829,
				"z": -1.96248779,
				"element": "N" 
			},
			{
				"x": 0.9145569197,
				"y": 2.1439169354,
				"z": -3.0997638011,
				"element": "C" 
			},
			{
				"x": 1.7591601747,
				"y": 2.1399343881,
				"z": -4.6427043788,
				"element": "S" 
			},
			{
				"x": 0.8471684406,
				"y": 3.4964526868,
				"z": -5.5010496044,
				"element": "C" 
			},
			{
				"x": -0.5084983952,
				"y": 3.1071102877,
				"z": -6.1160251759,
				"element": "C" 
			},
			{
				"x": -1.4991270005,
				"y": 2.8551745334,
				"z": -5.2629739413,
				"element": "O" 
			},
			{
				"x": -0.6505308088,
				"y": 3.0725089535,
				"z": -7.3172703015,
				"element": "O" 
			},
			{
				"x": -0.2635274934,
				"y": 2.6830037253,
				"z": -2.8591077539,
				"element": "N" 
			},
			{
				"x": -0.562576468,
				"y": 2.4791572766,
				"z": -1.5350434176,
				"element": "N" 
			},
			{
				"x": 0.4381044934,
				"y": 1.8104219223,
				"z": -1.0012898918,
				"element": "C" 
			},
			{
				"x": 0.4839674305,
				"y": 1.3776012684,
				"z": 0.4023543903,
				"element": "C" 
			},
			{
				"x": -0.6914627802,
				"y": 0.9580086213,
				"z": 1.0036774835,
				"element": "C" 
			},
			{
				"x": -0.7114644581,
				"y": 0.5661644055,
				"z": 2.3633974379,
				"element": "C" 
			},
			{
				"x": -1.88812506,
				"y": 0.1244549833,
				"z": 3.0247992303,
				"element": "C" 
			},
			{
				"x": -1.8135696717,
				"y": -0.2454738924,
				"z": 4.3456390273,
				"element": "C" 
			},
			{
				"x": -0.5590192918,
				"y": -0.1741108959,
				"z": 5.0060489435,
				"element": "C" 
			},
			{
				"x": 0.5590568363,
				"y": 0.2287507011,
				"z": 4.4361408068,
				"element": "N" 
			},
			{
				"x": 0.5006259541,
				"y": 0.6005062819,
				"z": 3.1242703632,
				"element": "C" 
			},
			{
				"x": 1.6903929671,
				"y": 1.0489155992,
				"z": 2.4926503532,
				"element": "C" 
			},
			{
				"x": 1.6829129766,
				"y": 1.4322043995,
				"z": 1.1721393912,
				"element": "C" 
			},
			{
				"x": 3.513039585,
				"y": 1.4349659531,
				"z": -1.7709990999,
				"element": "H" 
			},
			{
				"x": 2.7483130325,
				"y": 0.1661319748,
				"z": -2.7579241533,
				"element": "H" 
			},
			{
				"x": 2.575543378,
				"y": 0.1325647418,
				"z": -0.9945481618,
				"element": "H" 
			},
			{
				"x": 1.5075197326,
				"y": 3.7880949121,
				"z": -6.3177117047,
				"element": "H" 
			},
			{
				"x": 0.7438683101,
				"y": 4.3238058722,
				"z": -4.7937705416,
				"element": "H" 
			},
			{
				"x": -1.1931209604,
				"y": 2.9073666497,
				"z": -4.3144897319,
				"element": "H" 
			},
			{
				"x": -1.6076322684,
				"y": 0.9336583015,
				"z": 0.4219122863,
				"element": "H" 
			},
			{
				"x": -2.827137133,
				"y": 0.0867720901,
				"z": 2.4788992206,
				"element": "H" 
			},
			{
				"x": -2.6893295872,
				"y": -0.5876179251,
				"z": 4.8876105833,
				"element": "H" 
			},
			{
				"x": -0.4889372661,
				"y": -0.465612981,
				"z": 6.0534494856,
				"element": "H" 
			},
			{
				"x": 2.5937372166,
				"y": 1.0922775338,
				"z": 3.0918688057,
				"element": "H" 
			},
			{
				"x": 2.5941375265,
				"y": 1.8129903139,
				"z": 0.722023043,
				"element": "H" 
			}
		],
		 "valence_orbital": [ 
			{
				"type": "occ",
				"energy": -0.27741,
				"method": "rhf"
			},
			{
				"type": "occ",
				"energy": -0.26871,
				"method": "rhf"
			},
			{
				"type": "occ",
				"energy": -0.25995,
				"method": "rhf"
			},
			{
				"type": "occ",
				"energy": -0.25142,
				"method": "rhf"
			},
			{
				"type": "occ",
				"energy": -0.23532,
				"method": "rhf"
			},
			{
				"type": "unocc",
				"energy": -0.07453,
				"method": "rhf"
			},
			{
				"type": "unocc",
				"energy": -0.04599,
				"method": "rhf"
			},
			{
				"type": "unocc",
				"energy": -0.02424,
				"method": "rhf"
			},
			{
				"type": "unocc",
				"energy": -0.00349,
				"method": "rhf"
			},
			{
				"type": "unocc",
				"energy": 0.00392,
				"method": "rhf"
			}
		],
		"cosmo_sigma_profile": { 
			"-0.025": 0.0,
			"-0.024": 0.0,
			"-0.023": 0.0,
			"-0.022": 0.0,
			"-0.021": 0.0,
			"-0.02": 0.0,
			"-0.019": 0.0,
			"-0.018": 0.0,
			"-0.017": 0.0,
			"-0.016": 0.0,
			"-0.015": 0.0,
			"-0.014": 0.0,
			"-0.013": 0.0,
			"-0.012": 0.0,
			"-0.011": 0.0,
			"-0.01": 0.212192495051,
			"-0.009": 3.2784339831,
			"-0.008": 11.7761493358,
			"-0.007": 23.0632343233,
			"-0.006": 24.5249073921,
			"-0.005": 25.6791007642,
			"-0.004": 19.7644863119,
			"-0.003": 16.509519321,
			"-0.002": 16.5360094323,
			"-0.001": 17.6332032639,
			"0.0": 20.5921497381,
			"0.001": 27.3915136649,
			"0.002": 25.6499868934,
			"0.003": 14.349095706,
			"0.004": 7.892268759,
			"0.005": 8.06635074211,
			"0.006": 5.63471456221,
			"0.007": 5.51754301316,
			"0.008": 5.65356388102,
			"0.009": 5.63109157856,
			"0.01": 6.26708441706,
			"0.011": 8.29039102354,
			"0.012": 8.35857062158,
			"0.013": 4.34562516723,
			"0.014": 2.20895772911,
			"0.015": 1.55191581903,
			"0.016": 0.59817508132,
			"0.017": 0.0,
			"0.018": 0.0,
			"0.019": 0.0,
			"0.02": 0.0,
			"0.021": 0.0,
			"0.022": 0.0,
			"0.023": 0.0,
			"0.024": 0.0,
			"0.025": 0.0
		}
	}
}
