{
	 "smiles": "NCC1=CN=C(C=C1)C1=CC=CC=C1", 
	 "Tm": 312.15, 
	 "num_atms": 26, 
	 "gaussian": { 
		 "optdone": 1, 
		 "sigma_profile": "yes", 
		 "theory": "DFT", 
		 "functional": "B3LYP", 
		 "basiset": "6-31G**", 
		 "properties": { 
			 "R2extent": 4215.736, 
			 "electric_dipole_moment_norm": 1.64306983418, 
			 "electric_quadrupole_moment_norm": 3.67351780178, 
			 "total_energy": -574.012547968, 
			 "HOMO_LUMO_gap": 0.17989, 
			 "cosmo_polarized_energy": -11.24, 
			 "cosmo_cavitation_energy": 29.77, 
			 "cosmo_dispersion_energy": -21.83, 
			 "cosmo_repulsion_energy": 1.71, 
			 "cosmo_total_nonelectrostatic_energy": 9.65, 
			 "SMD_solvation_energy": 2.44 
		},
		"coords": [
			{
				"x": 0.9762282968,
				"y": 2.1282064403,
				"z": 3.5125502861,
				"element": "N" 
			},
			{
				"x": 0.2316364497,
				"y": 2.6817632217,
				"z": 2.3695582558,
				"element": "C" 
			},
			{
				"x": 0.2021849946,
				"y": 1.8154329893,
				"z": 1.1254514197,
				"element": "C" 
			},
			{
				"x": 1.1516447689,
				"y": 1.9658956232,
				"z": 0.1062941101,
				"element": "C" 
			},
			{
				"x": 1.2247848945,
				"y": 1.2015431066,
				"z": -0.9835069904,
				"element": "N" 
			},
			{
				"x": 0.3264707047,
				"y": 0.2099607474,
				"z": -1.1408780703,
				"element": "C" 
			},
			{
				"x": -0.6881213645,
				"y": -0.0039657701,
				"z": -0.1910681146,
				"element": "C" 
			},
			{
				"x": -0.7423412466,
				"y": 0.7991644529,
				"z": 0.9423900487,
				"element": "C" 
			},
			{
				"x": 0.4527653905,
				"y": -0.6177550135,
				"z": -2.3703178549,
				"element": "C" 
			},
			{
				"x": -0.1462666613,
				"y": -1.8837439313,
				"z": -2.4792414504,
				"element": "C" 
			},
			{
				"x": -0.0179044568,
				"y": -2.6363795196,
				"z": -3.645838585,
				"element": "C" 
			},
			{
				"x": 0.7134280984,
				"y": -2.1392899228,
				"z": -4.7258999056,
				"element": "C" 
			},
			{
				"x": 1.3219397453,
				"y": -0.8857392355,
				"z": -4.6257982513,
				"element": "C" 
			},
			{
				"x": 1.1963380905,
				"y": -0.1341132936,
				"z": -3.4601452814,
				"element": "C" 
			},
			{
				"x": 1.9362782215,
				"y": 1.9409089451,
				"z": 3.2294909178,
				"element": "H" 
			},
			{
				"x": 0.5838976108,
				"y": 1.223393286,
				"z": 3.7660328934,
				"element": "H" 
			},
			{
				"x": 0.6732230097,
				"y": 3.6550235394,
				"z": 2.1270334968,
				"element": "H" 
			},
			{
				"x": -0.7931253522,
				"y": 2.8783300091,
				"z": 2.7055193736,
				"element": "H" 
			},
			{
				"x": 1.8972415481,
				"y": 2.7591745967,
				"z": 0.1794502931,
				"element": "H" 
			},
			{
				"x": -1.4400843452,
				"y": -0.7689878483,
				"z": -0.3491131733,
				"element": "H" 
			},
			{
				"x": -1.5287618337,
				"y": 0.6467113992,
				"z": 1.6790846879,
				"element": "H" 
			},
			{
				"x": -0.6971404615,
				"y": -2.3009768399,
				"z": -1.6420139728,
				"element": "H" 
			},
			{
				"x": -0.4837359546,
				"y": -3.6158734987,
				"z": -3.7072479682,
				"element": "H" 
			},
			{
				"x": 0.8125567701,
				"y": -2.7256051773,
				"z": -5.6349547114,
				"element": "H" 
			},
			{
				"x": 1.89574431,
				"y": -0.491745096,
				"z": -5.4600237255,
				"element": "H" 
			},
			{
				"x": 1.6696187721,
				"y": 0.8369667899,
				"z": -3.3700077278,
				"element": "H" 
			}
		],
		 "valence_orbital": [ 
			{
				"type": "occ",
				"energy": -0.27945,
				"method": "rhf"
			},
			{
				"type": "occ",
				"energy": -0.25763,
				"method": "rhf"
			},
			{
				"type": "occ",
				"energy": -0.24814,
				"method": "rhf"
			},
			{
				"type": "occ",
				"energy": -0.24224,
				"method": "rhf"
			},
			{
				"type": "occ",
				"energy": -0.22202,
				"method": "rhf"
			},
			{
				"type": "unocc",
				"energy": -0.04213,
				"method": "rhf"
			},
			{
				"type": "unocc",
				"energy": -0.02275,
				"method": "rhf"
			},
			{
				"type": "unocc",
				"energy": 0.00377,
				"method": "rhf"
			},
			{
				"type": "unocc",
				"energy": 0.03019,
				"method": "rhf"
			},
			{
				"type": "unocc",
				"energy": 0.08433,
				"method": "rhf"
			}
		],
		"cosmo_sigma_profile": { 
			"-0.025": 0.0,
			"-0.024": 0.0,
			"-0.023": 0.0,
			"-0.022": 0.0,
			"-0.021": 0.0,
			"-0.02": 0.0,
			"-0.019": 0.0,
			"-0.018": 0.0,
			"-0.017": 0.0,
			"-0.016": 0.0,
			"-0.015": 0.0,
			"-0.014": 0.0,
			"-0.013": 0.0,
			"-0.012": 0.0,
			"-0.011": 0.0,
			"-0.01": 0.786339149171,
			"-0.009": 2.37600308429,
			"-0.008": 3.7906090867,
			"-0.007": 7.46727835328,
			"-0.006": 15.3898082332,
			"-0.005": 20.3211066748,
			"-0.004": 21.009245802,
			"-0.003": 17.2842655945,
			"-0.002": 14.6031520831,
			"-0.001": 15.3507449933,
			"0.0": 11.898214233,
			"0.001": 14.0659892024,
			"0.002": 20.2180462137,
			"0.003": 20.2157239249,
			"0.004": 12.3676204188,
			"0.005": 14.0404387915,
			"0.006": 7.99722593523,
			"0.007": 2.51766495101,
			"0.008": 2.08769320062,
			"0.009": 2.59229490011,
			"0.01": 2.30650813595,
			"0.011": 1.0653221119,
			"0.012": 1.15609326692,
			"0.013": 1.83923335442,
			"0.014": 0.942798300546,
			"0.015": 0.561507263593,
			"0.016": 0.940317582324,
			"0.017": 0.618100515106,
			"0.018": 0.155785932816,
			"0.019": 1.0513257414,
			"0.02": 0.12404472455,
			"0.021": 0.0,
			"0.022": 0.0,
			"0.023": 0.0,
			"0.024": 0.0,
			"0.025": 0.0
		}
	}
}
