{
	 "smiles": "OC(=O)C1=CSC(=N1)C1=C(Cl)C=CC=C1", 
	 "Tm": 466.15, 
	 "num_atms": 21, 
	 "gaussian": { 
		 "optdone": 1, 
		 "sigma_profile": "yes", 
		 "theory": "DFT", 
		 "functional": "B3LYP", 
		 "basiset": "6-31G**", 
		 "properties": { 
			 "R2extent": 4711.123, 
			 "electric_dipole_moment_norm": 6.90116425612, 
			 "electric_quadrupole_moment_norm": 11.2594889174, 
			 "total_energy": -1448.2638316, 
			 "HOMO_LUMO_gap": 0.17839, 
			 "cosmo_polarized_energy": -13.17, 
			 "cosmo_cavitation_energy": 29.8, 
			 "cosmo_dispersion_energy": -22.17, 
			 "cosmo_repulsion_energy": 1.68, 
			 "cosmo_total_nonelectrostatic_energy": 9.31, 
			 "SMD_solvation_energy": 5.27 
		},
		"coords": [
			{
				"x": -1.1910361445,
				"y": 0.4934150393,
				"z": 3.5541427469,
				"element": "O" 
			},
			{
				"x": -2.2152443524,
				"y": 0.5315740875,
				"z": 2.6799005623,
				"element": "C" 
			},
			{
				"x": -3.309605139,
				"y": 0.9568632785,
				"z": 2.9695231237,
				"element": "O" 
			},
			{
				"x": -1.8710369192,
				"y": 0.0011233406,
				"z": 1.3272816345,
				"element": "C" 
			},
			{
				"x": -2.7382270533,
				"y": -0.0771646178,
				"z": 0.2718021194,
				"element": "C" 
			},
			{
				"x": -1.9332257801,
				"y": -0.7527418008,
				"z": -1.091533834,
				"element": "S" 
			},
			{
				"x": -0.4459633285,
				"y": -0.8734438612,
				"z": -0.1336765763,
				"element": "C" 
			},
			{
				"x": -0.5931556014,
				"y": -0.446006296,
				"z": 1.0894128164,
				"element": "N" 
			},
			{
				"x": 0.7930903547,
				"y": -1.3949905899,
				"z": -0.7354615317,
				"element": "C" 
			},
			{
				"x": 1.6836124835,
				"y": -2.2569252951,
				"z": -0.062511427,
				"element": "C" 
			},
			{
				"x": 1.3635002297,
				"y": -2.8420059976,
				"z": 1.5579981691,
				"element": "Cl" 
			},
			{
				"x": 2.8460484312,
				"y": -2.7133322559,
				"z": -0.6854389727,
				"element": "C" 
			},
			{
				"x": 3.1421340124,
				"y": -2.3256346368,
				"z": -1.9907202648,
				"element": "C" 
			},
			{
				"x": 2.2721671403,
				"y": -1.4808539818,
				"z": -2.6803258012,
				"element": "C" 
			},
			{
				"x": 1.1167922548,
				"y": -1.024979067,
				"z": -2.0547353226,
				"element": "C" 
			},
			{
				"x": -0.4203957683,
				"y": 0.1098209786,
				"z": 3.0944540228,
				"element": "H" 
			},
			{
				"x": -3.7762607709,
				"y": 0.2211633222,
				"z": 0.2534923074,
				"element": "H" 
			},
			{
				"x": 3.5073564872,
				"y": -3.3784399598,
				"z": -0.1415964976,
				"element": "H" 
			},
			{
				"x": 4.0502357419,
				"y": -2.6866133462,
				"z": -2.4635342466,
				"element": "H" 
			},
			{
				"x": 2.4951426017,
				"y": -1.1699159879,
				"z": -3.6958111678,
				"element": "H" 
			},
			{
				"x": 0.4533711202,
				"y": -0.3456123529,
				"z": -2.58106186,
				"element": "H" 
			}
		],
		 "valence_orbital": [ 
			{
				"type": "occ",
				"energy": -0.30152,
				"method": "rhf"
			},
			{
				"type": "occ",
				"energy": -0.29636,
				"method": "rhf"
			},
			{
				"type": "occ",
				"energy": -0.27101,
				"method": "rhf"
			},
			{
				"type": "occ",
				"energy": -0.26896,
				"method": "rhf"
			},
			{
				"type": "occ",
				"energy": -0.25223,
				"method": "rhf"
			},
			{
				"type": "unocc",
				"energy": -0.07384,
				"method": "rhf"
			},
			{
				"type": "unocc",
				"energy": -0.04167,
				"method": "rhf"
			},
			{
				"type": "unocc",
				"energy": -0.0358,
				"method": "rhf"
			},
			{
				"type": "unocc",
				"energy": -0.00428,
				"method": "rhf"
			},
			{
				"type": "unocc",
				"energy": 0.00574,
				"method": "rhf"
			}
		],
		"cosmo_sigma_profile": { 
			"-0.025": 0.0,
			"-0.024": 0.0,
			"-0.023": 0.0,
			"-0.022": 0.0,
			"-0.021": 0.0,
			"-0.02": 0.0,
			"-0.019": 0.0,
			"-0.018": 0.0,
			"-0.017": 0.0,
			"-0.016": 0.0,
			"-0.015": 0.0,
			"-0.014": 0.0786493376695,
			"-0.013": 0.548817730986,
			"-0.012": 0.280299300656,
			"-0.011": 1.43126089102,
			"-0.01": 2.51587016133,
			"-0.009": 2.06216166318,
			"-0.008": 3.44525012328,
			"-0.007": 10.8867809508,
			"-0.006": 12.9606058711,
			"-0.005": 13.2467630754,
			"-0.004": 12.2413912812,
			"-0.003": 14.9108905197,
			"-0.002": 17.1868810388,
			"-0.001": 22.4103407821,
			"0.0": 22.9338413495,
			"0.001": 23.1008114974,
			"0.002": 21.5422645454,
			"0.003": 17.181986807,
			"0.004": 10.4650348547,
			"0.005": 6.56639765491,
			"0.006": 3.74835298815,
			"0.007": 2.81879826669,
			"0.008": 2.92736448419,
			"0.009": 3.67621659626,
			"0.01": 5.03945791198,
			"0.011": 5.05511382305,
			"0.012": 4.56971030763,
			"0.013": 1.22136468899,
			"0.014": 0.0204451180132,
			"0.015": 0.0,
			"0.016": 0.0,
			"0.017": 0.0,
			"0.018": 0.0,
			"0.019": 0.0,
			"0.02": 0.0,
			"0.021": 0.0,
			"0.022": 0.0,
			"0.023": 0.0,
			"0.024": 0.0,
			"0.025": 0.0
		}
	}
}
