{
	 "smiles": "OC(=O)C1=CC(NC(=O)C2=CC=CS2)=C(Cl)C=C1", 
	 "Tm": 440.15, 
	 "num_atms": 26, 
	 "gaussian": { 
		 "optdone": 1, 
		 "sigma_profile": "yes", 
		 "theory": "DFT", 
		 "functional": "B3LYP", 
		 "basiset": "6-31G**", 
		 "properties": { 
			 "R2extent": 5953.7408, 
			 "electric_dipole_moment_norm": 2.36899123468, 
			 "electric_quadrupole_moment_norm": 19.0735857987, 
			 "total_energy": -1600.91330066, 
			 "HOMO_LUMO_gap": 0.1756, 
			 "cosmo_polarized_energy": -15.8, 
			 "cosmo_cavitation_energy": 35.1, 
			 "cosmo_dispersion_energy": -24.76, 
			 "cosmo_repulsion_energy": 1.89, 
			 "cosmo_total_nonelectrostatic_energy": 12.22, 
			 "SMD_solvation_energy": 7.64 
		},
		"coords": [
			{
				"x": 2.264394733,
				"y": -1.2965600672,
				"z": -0.431091246,
				"element": "O" 
			},
			{
				"x": 2.2752584326,
				"y": -1.3251062435,
				"z": 0.9237532502,
				"element": "C" 
			},
			{
				"x": 2.9173372316,
				"y": -2.1434736908,
				"z": 1.5511525844,
				"element": "O" 
			},
			{
				"x": 1.4303495054,
				"y": -0.264388792,
				"z": 1.5362923207,
				"element": "C" 
			},
			{
				"x": 0.7199639533,
				"y": 0.651621726,
				"z": 0.7566943973,
				"element": "C" 
			},
			{
				"x": -0.080300003,
				"y": 1.6346963135,
				"z": 1.3549064594,
				"element": "C" 
			},
			{
				"x": -0.796994528,
				"y": 2.5794808055,
				"z": 0.5997358012,
				"element": "N" 
			},
			{
				"x": -1.3212096621,
				"y": 2.5002608062,
				"z": -0.6873809577,
				"element": "C" 
			},
			{
				"x": -1.4467527053,
				"y": 3.5231603633,
				"z": -1.3487829895,
				"element": "O" 
			},
			{
				"x": -1.7984701347,
				"y": 1.1987939913,
				"z": -1.2132253324,
				"element": "C" 
			},
			{
				"x": -1.9932682539,
				"y": 0.9589291473,
				"z": -2.5552661384,
				"element": "C" 
			},
			{
				"x": -2.578162852,
				"y": -0.307160933,
				"z": -2.8228159062,
				"element": "C" 
			},
			{
				"x": -2.8478730072,
				"y": -1.0115293856,
				"z": -1.6776361498,
				"element": "C" 
			},
			{
				"x": -2.3756733015,
				"y": -0.1486162083,
				"z": -0.2571976693,
				"element": "S" 
			},
			{
				"x": -0.1008594124,
				"y": 1.699659107,
				"z": 2.7619178325,
				"element": "C" 
			},
			{
				"x": -1.0464843766,
				"y": 2.9443510107,
				"z": 3.5557523168,
				"element": "Cl" 
			},
			{
				"x": 0.6266651596,
				"y": 0.8032247464,
				"z": 3.5448709692,
				"element": "C" 
			},
			{
				"x": 1.3835696366,
				"y": -0.188855384,
				"z": 2.9340416554,
				"element": "C" 
			},
			{
				"x": 2.8434376065,
				"y": -2.0217213951,
				"z": -0.7177050481,
				"element": "H" 
			},
			{
				"x": 0.7890752499,
				"y": 0.6055183895,
				"z": -0.3225650063,
				"element": "H" 
			},
			{
				"x": -0.7457058075,
				"y": 3.5404715127,
				"z": 0.9183417094,
				"element": "H" 
			},
			{
				"x": -1.7277853763,
				"y": 1.6927734157,
				"z": -3.3063120414,
				"element": "H" 
			},
			{
				"x": -2.79718607,
				"y": -0.6769502398,
				"z": -3.8176051326,
				"element": "H" 
			},
			{
				"x": -3.2977681525,
				"y": -1.9908521739,
				"z": -1.584760165,
				"element": "H" 
			},
			{
				"x": 0.585225001,
				"y": 0.8876236044,
				"z": 4.6248878794,
				"element": "H" 
			},
			{
				"x": 1.9493171334,
				"y": -0.9041504262,
				"z": 3.5198966069,
				"element": "H" 
			}
		],
		 "valence_orbital": [ 
			{
				"type": "occ",
				"energy": -0.27411,
				"method": "rhf"
			},
			{
				"type": "occ",
				"energy": -0.27283,
				"method": "rhf"
			},
			{
				"type": "occ",
				"energy": -0.2619,
				"method": "rhf"
			},
			{
				"type": "occ",
				"energy": -0.24728,
				"method": "rhf"
			},
			{
				"type": "occ",
				"energy": -0.23971,
				"method": "rhf"
			},
			{
				"type": "unocc",
				"energy": -0.06411,
				"method": "rhf"
			},
			{
				"type": "unocc",
				"energy": -0.0582,
				"method": "rhf"
			},
			{
				"type": "unocc",
				"energy": -0.02378,
				"method": "rhf"
			},
			{
				"type": "unocc",
				"energy": 0.01488,
				"method": "rhf"
			},
			{
				"type": "unocc",
				"energy": 0.0186,
				"method": "rhf"
			}
		],
		"cosmo_sigma_profile": { 
			"-0.025": 0.0,
			"-0.024": 0.0,
			"-0.023": 0.0,
			"-0.022": 0.0,
			"-0.021": 0.0,
			"-0.02": 0.0,
			"-0.019": 0.160857448465,
			"-0.018": 1.01384042639,
			"-0.017": 0.856219220701,
			"-0.016": 1.11118781383,
			"-0.015": 0.479804777029,
			"-0.014": 0.826769431696,
			"-0.013": 1.37251887929,
			"-0.012": 1.12136664868,
			"-0.011": 2.32434392471,
			"-0.01": 1.85543556575,
			"-0.009": 3.18130525492,
			"-0.008": 6.48873741933,
			"-0.007": 9.94022286649,
			"-0.006": 12.3468835368,
			"-0.005": 12.2134465567,
			"-0.004": 11.6315987788,
			"-0.003": 14.4335771327,
			"-0.002": 19.4913931102,
			"-0.001": 22.3641702522,
			"0.0": 27.1010511669,
			"0.001": 30.4850858629,
			"0.002": 29.800683105,
			"0.003": 21.9772657379,
			"0.004": 13.1443376619,
			"0.005": 5.59689849589,
			"0.006": 4.27105698922,
			"0.007": 3.00345159241,
			"0.008": 3.44848257436,
			"0.009": 2.9465849926,
			"0.01": 3.72734384812,
			"0.011": 7.20665237263,
			"0.012": 6.97134639519,
			"0.013": 3.35900403213,
			"0.014": 0.0724954152848,
			"0.015": 0.0,
			"0.016": 0.0,
			"0.017": 0.0,
			"0.018": 0.0,
			"0.019": 0.0,
			"0.02": 0.0,
			"0.021": 0.0,
			"0.022": 0.0,
			"0.023": 0.0,
			"0.024": 0.0,
			"0.0": 0.0
		}
	}
}
