{
	 "smiles": "CCOC(=O)CS", 
	 "Tm": 193.15, 
	 "num_atms": 15, 
	 "gaussian": { 
		 "optdone": 1, 
		 "sigma_profile": "yes", 
		 "theory": "DFT", 
		 "functional": "B3LYP", 
		 "basiset": "6-31G**", 
		 "properties": { 
			 "R2extent": 1977.7387, 
			 "electric_dipole_moment_norm": 3.01626242559, 
			 "electric_quadrupole_moment_norm": 6.92431330458, 
			 "total_energy": -705.892005231, 
			 "HOMO_LUMO_gap": 0.23549, 
			 "cosmo_polarized_energy": -7.66, 
			 "cosmo_cavitation_energy": 20.49, 
			 "cosmo_dispersion_energy": -15.72, 
			 "cosmo_repulsion_energy": 1.32, 
			 "cosmo_total_nonelectrostatic_energy": 6.09, 
			 "SMD_solvation_energy": 4.24 
		},
		"coords": [
			{
				"x": 2.2081210134,
				"y": -1.0919681528,
				"z": 1.5291790035,
				"element": "C" 
			},
			{
				"x": 0.7163075151,
				"y": -1.355556379,
				"z": 1.5919715386,
				"element": "C" 
			},
			{
				"x": 0.0445575571,
				"y": -0.1787556793,
				"z": 1.0736078229,
				"element": "O" 
			},
			{
				"x": -1.2993029826,
				"y": -0.2269545193,
				"z": 1.0614629681,
				"element": "C" 
			},
			{
				"x": -1.9526772012,
				"y": -1.1661203348,
				"z": 1.4608301039,
				"element": "O" 
			},
			{
				"x": -1.8707094902,
				"y": 1.0305949988,
				"z": 0.4240024949,
				"element": "C" 
			},
			{
				"x": -3.5353803532,
				"y": 1.4656491742,
				"z": 1.0541457638,
				"element": "S" 
			},
			{
				"x": 2.4775423146,
				"y": -0.2214200176,
				"z": 2.1338740541,
				"element": "H" 
			},
			{
				"x": 2.7528180961,
				"y": -1.9598097113,
				"z": 1.9135970757,
				"element": "H" 
			},
			{
				"x": 2.5316081457,
				"y": -0.9111491658,
				"z": 0.5001499009,
				"element": "H" 
			},
			{
				"x": 0.4227356228,
				"y": -2.220205743,
				"z": 0.9886375335,
				"element": "H" 
			},
			{
				"x": 0.3693775626,
				"y": -1.5325852109,
				"z": 2.6143981001,
				"element": "H" 
			},
			{
				"x": -1.904085564,
				"y": 0.8693406121,
				"z": -0.6591844099,
				"element": "H" 
			},
			{
				"x": -1.2086997595,
				"y": 1.8770284202,
				"z": 0.6117912252,
				"element": "H" 
			},
			{
				"x": -3.9430124769,
				"y": 0.1865117084,
				"z": 1.1803368248,
				"element": "H" 
			}
		],
		 "valence_orbital": [ 
			{
				"type": "occ",
				"energy": -0.36152,
				"method": "rhf"
			},
			{
				"type": "occ",
				"energy": -0.33591,
				"method": "rhf"
			},
			{
				"type": "occ",
				"energy": -0.31064,
				"method": "rhf"
			},
			{
				"type": "occ",
				"energy": -0.28556,
				"method": "rhf"
			},
			{
				"type": "occ",
				"energy": -0.23915,
				"method": "rhf"
			},
			{
				"type": "unocc",
				"energy": -0.00366,
				"method": "rhf"
			},
			{
				"type": "unocc",
				"energy": 0.03341,
				"method": "rhf"
			},
			{
				"type": "unocc",
				"energy": 0.07529,
				"method": "rhf"
			},
			{
				"type": "unocc",
				"energy": 0.09496,
				"method": "rhf"
			},
			{
				"type": "unocc",
				"energy": 0.11539,
				"method": "rhf"
			}
		],
		"cosmo_sigma_profile": { 
			"-0.025": 0.0,
			"-0.024": 0.0,
			"-0.023": 0.0,
			"-0.022": 0.0,
			"-0.021": 0.0,
			"-0.02": 0.0,
			"-0.019": 0.0,
			"-0.018": 0.0,
			"-0.017": 0.0,
			"-0.016": 0.0,
			"-0.015": 0.0,
			"-0.014": 0.0,
			"-0.013": 0.0,
			"-0.012": 0.0,
			"-0.011": 0.0,
			"-0.01": 0.0,
			"-0.009": 0.619261210997,
			"-0.008": 5.20476888168,
			"-0.007": 4.5200964975,
			"-0.006": 6.43185627392,
			"-0.005": 10.8522055817,
			"-0.004": 19.4132114455,
			"-0.003": 17.3695159626,
			"-0.002": 13.008509128,
			"-0.001": 12.5737749478,
			"0.0": 12.4266828723,
			"0.001": 6.96357487947,
			"0.002": 5.96708052447,
			"0.003": 6.46605813239,
			"0.004": 5.93190637938,
			"0.005": 7.1978792163,
			"0.006": 5.74432026353,
			"0.007": 4.99800156492,
			"0.008": 4.55229156412,
			"0.009": 4.08453577334,
			"0.01": 3.88283994216,
			"0.011": 3.95744255234,
			"0.012": 1.41035503655,
			"0.013": 0.0,
			"0.014": 0.0,
			"0.015": 0.0,
			"0.016": 0.0,
			"0.017": 0.0,
			"0.018": 0.0,
			"0.019": 0.0,
			"0.02": 0.0,
			"0.021": 0.0,
			"0.022": 0.0,
			"0.023": 0.0,
			"0.024": 0.0,
			"0.025": 0.0
		}
	}
}
