{
	 "smiles": "OC(=O)C1=CN(N=N1)C1=CC=CC=C1", 
	 "Tm": 412.15, 
	 "num_atms": 21, 
	 "gaussian": { 
		 "optdone": 1, 
		 "sigma_profile": "yes", 
		 "theory": "DFT", 
		 "functional": "B3LYP", 
		 "basiset": "6-31G**", 
		 "properties": { 
			 "R2extent": 3936.7257, 
			 "electric_dipole_moment_norm": 8.51105217585, 
			 "electric_quadrupole_moment_norm": 26.3712162325, 
			 "total_energy": -661.832445074, 
			 "HOMO_LUMO_gap": 0.19446, 
			 "cosmo_polarized_energy": -25.84, 
			 "cosmo_cavitation_energy": 26.69, 
			 "cosmo_dispersion_energy": -19.85, 
			 "cosmo_repulsion_energy": 1.53, 
			 "cosmo_total_nonelectrostatic_energy": 8.37, 
			 "SMD_solvation_energy": 4.74 
		},
		"coords": [
			{
				"x": -1.9638117456,
				"y": 3.5616003485,
				"z": 2.7203532352,
				"element": "O" 
			},
			{
				"x": -2.8164469348,
				"y": 2.5360602095,
				"z": 2.4316867934,
				"element": "C" 
			},
			{
				"x": -3.944587667,
				"y": 2.5507125787,
				"z": 2.849016861,
				"element": "O" 
			},
			{
				"x": -2.2605914022,
				"y": 1.4414903139,
				"z": 1.5924827855,
				"element": "C" 
			},
			{
				"x": -1.0076263791,
				"y": 1.2653277379,
				"z": 1.0340472249,
				"element": "C" 
			},
			{
				"x": -1.0835065155,
				"y": 0.0833051816,
				"z": 0.3736434141,
				"element": "N" 
			},
			{
				"x": -2.3377535644,
				"y": -0.4468829999,
				"z": 0.5213851495,
				"element": "N" 
			},
			{
				"x": -3.0330128554,
				"y": 0.3637785074,
				"z": 1.2461855951,
				"element": "N" 
			},
			{
				"x": -0.0939140204,
				"y": -0.6073754684,
				"z": -0.3886392795,
				"element": "C" 
			},
			{
				"x": -0.4265489952,
				"y": -1.8312402383,
				"z": -0.9799599377,
				"element": "C" 
			},
			{
				"x": 0.534452815,
				"y": -2.5103789745,
				"z": -1.7252856683,
				"element": "C" 
			},
			{
				"x": 1.8173202685,
				"y": -1.9825365865,
				"z": -1.8852063519,
				"element": "C" 
			},
			{
				"x": 2.137784201,
				"y": -0.7616298297,
				"z": -1.2911160781,
				"element": "C" 
			},
			{
				"x": 1.1873327277,
				"y": -0.069068994,
				"z": -0.5417970667,
				"element": "C" 
			},
			{
				"x": -1.093697438,
				"y": 3.4214674866,
				"z": 2.3244266314,
				"element": "H" 
			},
			{
				"x": -0.1072312549,
				"y": 1.8577697577,
				"z": 1.051076128,
				"element": "H" 
			},
			{
				"x": -1.4239703723,
				"y": -2.2307586988,
				"z": -0.849342359,
				"element": "H" 
			},
			{
				"x": 0.2746136598,
				"y": -3.459716458,
				"z": -2.1833162693,
				"element": "H" 
			},
			{
				"x": 2.5607028539,
				"y": -2.5177352975,
				"z": -2.4675243509,
				"element": "H" 
			},
			{
				"x": 3.1314413282,
				"y": -0.3402705642,
				"z": -1.407650121,
				"element": "H" 
			},
			{
				"x": 1.4554512907,
				"y": 0.878481988,
				"z": -0.0877663358,
				"element": "H" 
			}
		],
		 "valence_orbital": [ 
			{
				"type": "occ",
				"energy": -0.29426,
				"method": "rhf"
			},
			{
				"type": "occ",
				"energy": -0.287,
				"method": "rhf"
			},
			{
				"type": "occ",
				"energy": -0.27993,
				"method": "rhf"
			},
			{
				"type": "occ",
				"energy": -0.27758,
				"method": "rhf"
			},
			{
				"type": "occ",
				"energy": -0.25881,
				"method": "rhf"
			},
			{
				"type": "unocc",
				"energy": -0.06435,
				"method": "rhf"
			},
			{
				"type": "unocc",
				"energy": -0.03637,
				"method": "rhf"
			},
			{
				"type": "unocc",
				"energy": -0.02532,
				"method": "rhf"
			},
			{
				"type": "unocc",
				"energy": 0.00885,
				"method": "rhf"
			},
			{
				"type": "unocc",
				"energy": 0.03334,
				"method": "rhf"
			}
		],
		"cosmo_sigma_profile": { 
			"-0.025": 0.0,
			"-0.024": 0.0,
			"-0.023": 0.0,
			"-0.022": 0.0,
			"-0.021": 0.299343474367,
			"-0.02": 1.11731870792,
			"-0.019": 1.36862915664,
			"-0.018": 1.28825575434,
			"-0.017": 1.15220553175,
			"-0.016": 0.79304264451,
			"-0.015": 0.770735381707,
			"-0.014": 2.37461215771,
			"-0.013": 2.69938650303,
			"-0.012": 1.99679952237,
			"-0.011": 2.48686331138,
			"-0.01": 1.63316070054,
			"-0.009": 2.11141607894,
			"-0.008": 2.06059550342,
			"-0.007": 5.79745222168,
			"-0.006": 11.3512102596,
			"-0.005": 13.7920071117,
			"-0.004": 13.6285136603,
			"-0.003": 14.479669498,
			"-0.002": 12.2946809354,
			"-0.001": 10.6664696255,
			"0.0": 11.6443059343,
			"0.001": 11.5836729477,
			"0.002": 11.7685745182,
			"0.003": 14.0805344398,
			"0.004": 11.8529134679,
			"0.005": 4.73381328833,
			"0.006": 3.16555956346,
			"0.007": 3.2455933805,
			"0.008": 6.63257216833,
			"0.009": 7.11364177699,
			"0.01": 7.38569225144,
			"0.011": 7.69967908997,
			"0.012": 5.09541966823,
			"0.013": 3.23377259593,
			"0.014": 1.85989051405,
			"0.015": 0.360497416202,
			"0.016": 0.0,
			"0.017": 0.0,
			"0.018": 0.0,
			"0.019": 0.0,
			"0.02": 0.0,
			"0.021": 0.0,
			"0.022": 0.0,
			"0.023": 0.0,
			"0.024": 0.0,
			"0.025": 0.0
		}
	}
}
