{
	 "smiles": "CC(C)CCC[C@H](C)C1CCC2[C@@H]3C[C@@H](O)C4=CC(=O)CC[C@]4(C)C3CC[C@]12C", 
	 "Tm": 464.15, 
	 "num_atms": 73, 
	 "gaussian": { 
		 "optdone": 1, 
		 "sigma_profile": "yes", 
		 "theory": "DFT", 
		 "functional": "B3LYP", 
		 "basiset": "6-31G**", 
		 "properties": { 
			 "R2extent": 16019.6526, 
			 "electric_dipole_moment_norm": 3.08518561192, 
			 "electric_quadrupole_moment_norm": 20.9794654079, 
			 "total_energy": -1205.8473529, 
			 "HOMO_LUMO_gap": 0.18258, 
			 "cosmo_polarized_energy": -12.3, 
			 "cosmo_cavitation_energy": 61.63, 
			 "cosmo_dispersion_energy": -41.31, 
			 "cosmo_repulsion_energy": 3.06, 
			 "cosmo_total_nonelectrostatic_energy": 23.38, 
			 "SMD_solvation_energy": 9.34 
		},
		"coords": [
			{
				"x": -4.1166491413,
				"y": 0.4052757934,
				"z": 4.5747130592,
				"element": "C" 
			},
			{
				"x": -3.4935690571,
				"y": -0.9647849743,
				"z": 4.879968133,
				"element": "C" 
			},
			{
				"x": -2.8643523751,
				"y": -0.968558766,
				"z": 6.2812745068,
				"element": "C" 
			},
			{
				"x": -2.4600833154,
				"y": -1.414672337,
				"z": 3.8254711419,
				"element": "C" 
			},
			{
				"x": -2.9929191854,
				"y": -1.5817644329,
				"z": 2.3804179216,
				"element": "C" 
			},
			{
				"x": -2.6734300958,
				"y": -0.3865596594,
				"z": 1.4618470295,
				"element": "C" 
			},
			{
				"x": -3.1689943407,
				"y": -0.4572890349,
				"z": -0.0098137452,
				"element": "C" 
			},
			{
				"x": -4.6373074419,
				"y": -0.9184581267,
				"z": -0.0838322049,
				"element": "C" 
			},
			{
				"x": -2.2936027938,
				"y": -1.2632716706,
				"z": -1.0166275717,
				"element": "C" 
			},
			{
				"x": -1.5779242051,
				"y": -2.5356243023,
				"z": -0.5320409239,
				"element": "C" 
			},
			{
				"x": -0.7655009702,
				"y": -2.9496716971,
				"z": -1.76647377,
				"element": "C" 
			},
			{
				"x": -0.2554214791,
				"y": -1.6192266184,
				"z": -2.3889281539,
				"element": "C" 
			},
			{
				"x": 1.2805581364,
				"y": -1.3785645126,
				"z": -2.2651320119,
				"element": "C" 
			},
			{
				"x": 1.9802236847,
				"y": -1.7977666592,
				"z": -0.9545406874,
				"element": "C" 
			},
			{
				"x": 3.501134804,
				"y": -1.5800361424,
				"z": -1.0312187596,
				"element": "C" 
			},
			{
				"x": 4.0219943374,
				"y": -2.5783320975,
				"z": -1.9170394313,
				"element": "O" 
			},
			{
				"x": 3.8129733185,
				"y": -0.154665328,
				"z": -1.4694773083,
				"element": "C" 
			},
			{
				"x": 4.5804604023,
				"y": 0.6177265136,
				"z": -0.6728242222,
				"element": "C" 
			},
			{
				"x": 4.7700020186,
				"y": 2.0721551301,
				"z": -0.8527191536,
				"element": "C" 
			},
			{
				"x": 5.5915262779,
				"y": 2.6989056488,
				"z": -0.1984721665,
				"element": "O" 
			},
			{
				"x": 3.8084069231,
				"y": 2.7417352079,
				"z": -1.8196771755,
				"element": "C" 
			},
			{
				"x": 3.4870930997,
				"y": 1.8494384157,
				"z": -3.0265731455,
				"element": "C" 
			},
			{
				"x": 3.1431579896,
				"y": 0.3519720962,
				"z": -2.7418238266,
				"element": "C" 
			},
			{
				"x": 3.6693173601,
				"y": -0.4243780772,
				"z": -3.9830333336,
				"element": "C" 
			},
			{
				"x": 1.5974852134,
				"y": 0.0990092246,
				"z": -2.5971087312,
				"element": "C" 
			},
			{
				"x": 0.9119804245,
				"y": 1.0442427396,
				"z": -1.572288627,
				"element": "C" 
			},
			{
				"x": -0.3539787736,
				"y": 0.4605304841,
				"z": -0.9010255015,
				"element": "C" 
			},
			{
				"x": -1.1812595916,
				"y": -0.4757900991,
				"z": -1.8047818912,
				"element": "C" 
			},
			{
				"x": -1.8295285228,
				"y": 0.348884209,
				"z": -2.9337501766,
				"element": "C" 
			},
			{
				"x": -4.8375760282,
				"y": 0.6871557309,
				"z": 5.3502857493,
				"element": "H" 
			},
			{
				"x": -4.6466512405,
				"y": 0.4112581805,
				"z": 3.6173466083,
				"element": "H" 
			},
			{
				"x": -3.347853787,
				"y": 1.1871071292,
				"z": 4.5378822154,
				"element": "H" 
			},
			{
				"x": -4.3058068838,
				"y": -1.7078958448,
				"z": 4.8759724122,
				"element": "H" 
			},
			{
				"x": -2.4541017072,
				"y": -1.9525635023,
				"z": 6.5340280644,
				"element": "H" 
			},
			{
				"x": -3.6000213789,
				"y": -0.7047669231,
				"z": 7.0489897261,
				"element": "H" 
			},
			{
				"x": -2.0452793346,
				"y": -0.2414216993,
				"z": 6.3445049042,
				"element": "H" 
			},
			{
				"x": -2.0428479902,
				"y": -2.3714155271,
				"z": 4.1644863602,
				"element": "H" 
			},
			{
				"x": -1.6174744572,
				"y": -0.7073993831,
				"z": 3.8298308788,
				"element": "H" 
			},
			{
				"x": -2.5692193793,
				"y": -2.4940177466,
				"z": 1.9499792706,
				"element": "H" 
			},
			{
				"x": -4.0766867246,
				"y": -1.7482518513,
				"z": 2.4160191263,
				"element": "H" 
			},
			{
				"x": -1.5910335449,
				"y": -0.2189144135,
				"z": 1.47919832,
				"element": "H" 
			},
			{
				"x": -3.1123676671,
				"y": 0.5145025076,
				"z": 1.9086242426,
				"element": "H" 
			},
			{
				"x": -3.1634762453,
				"y": 0.5814577529,
				"z": -0.3685333321,
				"element": "H" 
			},
			{
				"x": -4.7425442396,
				"y": -1.9835771729,
				"z": 0.1493747587,
				"element": "H" 
			},
			{
				"x": -5.0425389862,
				"y": -0.7614455155,
				"z": -1.089127029,
				"element": "H" 
			},
			{
				"x": -5.2677270955,
				"y": -0.361653105,
				"z": 0.6189604529,
				"element": "H" 
			},
			{
				"x": -2.9881939917,
				"y": -1.6056070317,
				"z": -1.7988736023,
				"element": "H" 
			},
			{
				"x": -0.9103581287,
				"y": -2.316067546,
				"z": 0.3102551137,
				"element": "H" 
			},
			{
				"x": -2.2693819974,
				"y": -3.3182653173,
				"z": -0.2028565331,
				"element": "H" 
			},
			{
				"x": 0.0381760971,
				"y": -3.6560257003,
				"z": -1.5397428673,
				"element": "H" 
			},
			{
				"x": -1.4298549496,
				"y": -3.4554534989,
				"z": -2.4770263324,
				"element": "H" 
			},
			{
				"x": -0.434442825,
				"y": -1.6561180878,
				"z": -3.4703323441,
				"element": "H" 
			},
			{
				"x": 1.7262204008,
				"y": -2.0101364585,
				"z": -3.0398571852,
				"element": "H" 
			},
			{
				"x": 1.8179062993,
				"y": -2.8589292402,
				"z": -0.7422576041,
				"element": "H" 
			},
			{
				"x": 1.6078592168,
				"y": -1.2372075126,
				"z": -0.0924207493,
				"element": "H" 
			},
			{
				"x": 3.9267315161,
				"y": -1.7289242596,
				"z": -0.0273049256,
				"element": "H" 
			},
			{
				"x": 4.9718851915,
				"y": -2.4252083305,
				"z": -2.0071443294,
				"element": "H" 
			},
			{
				"x": 5.0653943566,
				"y": 0.1969333177,
				"z": 0.2065543915,
				"element": "H" 
			},
			{
				"x": 2.9040024382,
				"y": 2.9849761001,
				"z": -1.2487168199,
				"element": "H" 
			},
			{
				"x": 4.2435480336,
				"y": 3.6935812735,
				"z": -2.1380246882,
				"element": "H" 
			},
			{
				"x": 2.6767077785,
				"y": 2.291198844,
				"z": -3.6183981174,
				"element": "H" 
			},
			{
				"x": 4.3696319494,
				"y": 1.865395688,
				"z": -3.6764199902,
				"element": "H" 
			},
			{
				"x": 3.2149831585,
				"y": -0.0035018516,
				"z": -4.8876915425,
				"element": "H" 
			},
			{
				"x": 3.4611446377,
				"y": -1.4913840943,
				"z": -3.9453128141,
				"element": "H" 
			},
			{
				"x": 4.7541309077,
				"y": -0.3013481949,
				"z": -4.0712233375,
				"element": "H" 
			},
			{
				"x": 1.1673710859,
				"y": 0.3045847845,
				"z": -3.5874162638,
				"element": "H" 
			},
			{
				"x": 1.6156390354,
				"y": 1.2968154972,
				"z": -0.7727217073,
				"element": "H" 
			},
			{
				"x": 0.6676734422,
				"y": 1.9897917243,
				"z": -2.0686741363,
				"element": "H" 
			},
			{
				"x": -0.0550908397,
				"y": -0.0866187789,
				"z": -0.0026386144,
				"element": "H" 
			},
			{
				"x": -0.9786195626,
				"y": 1.2890815776,
				"z": -0.5475583598,
				"element": "H" 
			},
			{
				"x": -2.5428428112,
				"y": 1.0782189624,
				"z": -2.5313313597,
				"element": "H" 
			},
			{
				"x": -2.373830066,
				"y": -0.2991243198,
				"z": -3.630014458,
				"element": "H" 
			},
			{
				"x": -1.0890763846,
				"y": 0.9074229097,
				"z": -3.515562825,
				"element": "H" 
			}
		],
		 "valence_orbital": [ 
			{
				"type": "occ",
				"energy": -0.28262,
				"method": "rhf"
			},
			{
				"type": "occ",
				"energy": -0.2771,
				"method": "rhf"
			},
			{
				"type": "occ",
				"energy": -0.27316,
				"method": "rhf"
			},
			{
				"type": "occ",
				"energy": -0.26096,
				"method": "rhf"
			},
			{
				"type": "occ",
				"energy": -0.23358,
				"method": "rhf"
			},
			{
				"type": "unocc",
				"energy": -0.051,
				"method": "rhf"
			},
			{
				"type": "unocc",
				"energy": 0.05425,
				"method": "rhf"
			},
			{
				"type": "unocc",
				"energy": 0.06155,
				"method": "rhf"
			},
			{
				"type": "unocc",
				"energy": 0.07045,
				"method": "rhf"
			},
			{
				"type": "unocc",
				"energy": 0.07623,
				"method": "rhf"
			}
		],
		"cosmo_sigma_profile": { 
			"-0.025": 0.0,
			"-0.024": 0.0,
			"-0.023": 0.0,
			"-0.022": 0.0,
			"-0.021": 0.0,
			"-0.02": 0.0,
			"-0.019": 0.0,
			"-0.018": 0.0,
			"-0.017": 0.0,
			"-0.016": 0.16229923173,
			"-0.015": 0.789358387386,
			"-0.014": 1.0969780851,
			"-0.013": 0.112457215171,
			"-0.012": 0.74450359457,
			"-0.011": 1.43718871232,
			"-0.01": 0.764844553832,
			"-0.009": 0.862452224701,
			"-0.008": 0.800107761125,
			"-0.007": 1.1784493431,
			"-0.006": 1.45254189482,
			"-0.005": 6.15017340124,
			"-0.004": 13.8505983593,
			"-0.003": 34.3152759729,
			"-0.002": 69.3519114326,
			"-0.001": 96.96462276,
			"0.0": 89.4623356531,
			"0.001": 64.9777430962,
			"0.002": 43.230707882,
			"0.003": 7.65652442193,
			"0.004": 3.12481643787,
			"0.005": 2.23471294245,
			"0.006": 2.7155409947,
			"0.007": 2.90890699171,
			"0.008": 2.61687307911,
			"0.009": 2.76051570287,
			"0.01": 2.46204181493,
			"0.011": 3.1691327618,
			"0.012": 4.80970102426,
			"0.013": 5.6088033654,
			"0.014": 3.31352148143,
			"0.015": 0.164067705386,
			"0.016": 0.0,
			"0.017": 0.0,
			"0.018": 0.0,
			"0.019": 0.0,
			"0.02": 0.0,
			"0.021": 0.0,
			"0.022": 0.0,
			"0.023": 0.0,
			"0.024": 0.0,
			"0.025": 0.0
		}
	}
}
