{
	 "smiles": "NC1=CC(Cl)=C(OC(F)F)C(Cl)=C1", 
	 "Tm": 356.15, 
	 "num_atms": 18, 
	 "gaussian": { 
		 "optdone": 1, 
		 "sigma_profile": "yes", 
		 "theory": "DFT", 
		 "functional": "B3LYP", 
		 "basiset": "6-31G**", 
		 "properties": { 
			 "R2extent": 3330.6945, 
			 "electric_dipole_moment_norm": 5.55755015362, 
			 "electric_quadrupole_moment_norm": 10.1232911368, 
			 "total_energy": -1519.78399208, 
			 "HOMO_LUMO_gap": 0.19584, 
			 "cosmo_polarized_energy": -12.01, 
			 "cosmo_cavitation_energy": 26.95, 
			 "cosmo_dispersion_energy": -19.6, 
			 "cosmo_repulsion_energy": 1.53, 
			 "cosmo_total_nonelectrostatic_energy": 8.88, 
			 "SMD_solvation_energy": 5.28 
		},
		"coords": [
			{
				"x": 2.2710489845,
				"y": 1.1915601481,
				"z": 2.8953827443,
				"element": "N" 
			},
			{
				"x": 1.60674184,
				"y": 0.8257842769,
				"z": 1.7322573761,
				"element": "C" 
			},
			{
				"x": 1.132513352,
				"y": 1.8038485593,
				"z": 0.8424450541,
				"element": "C" 
			},
			{
				"x": 0.4192296286,
				"y": 1.4252667921,
				"z": -0.2888972149,
				"element": "C" 
			},
			{
				"x": -0.1862047839,
				"y": 2.6771559281,
				"z": -1.3566647441,
				"element": "Cl" 
			},
			{
				"x": 0.1634972967,
				"y": 0.0802633163,
				"z": -0.5922179521,
				"element": "C" 
			},
			{
				"x": -0.6029671343,
				"y": -0.2852172892,
				"z": -1.6803450516,
				"element": "O" 
			},
			{
				"x": 0.0489898779,
				"y": -0.3400273335,
				"z": -2.9021653171,
				"element": "C" 
			},
			{
				"x": 0.9232142581,
				"y": -1.3794617371,
				"z": -2.9313585421,
				"element": "F" 
			},
			{
				"x": -0.9026212787,
				"y": -0.563852843,
				"z": -3.8219228564,
				"element": "F" 
			},
			{
				"x": 0.6305906557,
				"y": -0.8827291145,
				"z": 0.315266616,
				"element": "C" 
			},
			{
				"x": 0.3003298413,
				"y": -2.5723186255,
				"z": 0.0274902994,
				"element": "Cl" 
			},
			{
				"x": 1.3397389106,
				"y": -0.525606221,
				"z": 1.4568765199,
				"element": "C" 
			},
			{
				"x": 2.8505680943,
				"y": 0.481133314,
				"z": 3.3184902019,
				"element": "H" 
			},
			{
				"x": 2.7080094759,
				"y": 2.1017986921,
				"z": 2.8912525477,
				"element": "H" 
			},
			{
				"x": 1.3047472288,
				"y": 2.8568108838,
				"z": 1.0365756822,
				"element": "H" 
			},
			{
				"x": 0.5960926739,
				"y": 0.5789582732,
				"z": -3.1365435088,
				"element": "H" 
			},
			{
				"x": 1.6773810785,
				"y": -1.3014670201,
				"z": 2.1352781455,
				"element": "H" 
			}
		],
		 "valence_orbital": [ 
			{
				"type": "occ",
				"energy": -0.32457,
				"method": "rhf"
			},
			{
				"type": "occ",
				"energy": -0.3146,
				"method": "rhf"
			},
			{
				"type": "occ",
				"energy": -0.29763,
				"method": "rhf"
			},
			{
				"type": "occ",
				"energy": -0.2563,
				"method": "rhf"
			},
			{
				"type": "occ",
				"energy": -0.2255,
				"method": "rhf"
			},
			{
				"type": "unocc",
				"energy": -0.02966,
				"method": "rhf"
			},
			{
				"type": "unocc",
				"energy": -0.0116,
				"method": "rhf"
			},
			{
				"type": "unocc",
				"energy": -0.00022,
				"method": "rhf"
			},
			{
				"type": "unocc",
				"energy": 0.04614,
				"method": "rhf"
			},
			{
				"type": "unocc",
				"energy": 0.0615,
				"method": "rhf"
			}
		],
		"cosmo_sigma_profile": { 
			"-0.025": 0.0,
			"-0.024": 0.0,
			"-0.023": 0.0,
			"-0.022": 0.0,
			"-0.021": 0.0,
			"-0.02": 0.0,
			"-0.019": 0.0,
			"-0.018": 0.0,
			"-0.017": 0.0,
			"-0.016": 0.0,
			"-0.015": 0.0,
			"-0.014": 0.463241608613,
			"-0.013": 3.09933560489,
			"-0.012": 3.76249845756,
			"-0.011": 3.41425822005,
			"-0.01": 3.84165946829,
			"-0.009": 5.90581887369,
			"-0.008": 5.29511542762,
			"-0.007": 6.01391991448,
			"-0.006": 5.63528435169,
			"-0.005": 4.77142313171,
			"-0.004": 4.79812878578,
			"-0.003": 7.63144495674,
			"-0.002": 8.98285186341,
			"-0.001": 10.2118533847,
			"0.0": 15.1431926564,
			"0.001": 23.1686997811,
			"0.002": 24.6933034419,
			"0.003": 31.8535349666,
			"0.004": 28.9775844344,
			"0.005": 9.83333869969,
			"0.006": 4.60321350962,
			"0.007": 2.84956306827,
			"0.008": 1.91964930792,
			"0.009": 0.673577400475,
			"0.01": 1.24862533253,
			"0.011": 0.368061504565,
			"0.012": 0.649849853581,
			"0.013": 0.176175021725,
			"0.014": 0.0,
			"0.015": 0.0,
			"0.016": 0.0,
			"0.017": 0.0,
			"0.018": 0.0,
			"0.019": 0.0,
			"0.02": 0.0,
			"0.021": 0.0,
			"0.022": 0.0,
			"0.023": 0.0,
			"0.024": 0.0,
			"0.025": 0.0
		}
	}
}
