{
	 "smiles": "SC1=NC(=CC=N1)C1=CC=C(Cl)C=C1", 
	 "Tm": 485.15, 
	 "num_atms": 21, 
	 "gaussian": { 
		 "optdone": 1, 
		 "sigma_profile": "yes", 
		 "theory": "DFT", 
		 "functional": "B3LYP", 
		 "basiset": "6-31G**", 
		 "properties": { 
			 "R2extent": 5179.2947, 
			 "electric_dipole_moment_norm": 2.07995494663, 
			 "electric_quadrupole_moment_norm": 22.1168456365, 
			 "total_energy": -1353.16818866, 
			 "HOMO_LUMO_gap": 0.16922, 
			 "cosmo_polarized_energy": -9.52, 
			 "cosmo_cavitation_energy": 29.45, 
			 "cosmo_dispersion_energy": -22.46, 
			 "cosmo_repulsion_energy": 1.7, 
			 "cosmo_total_nonelectrostatic_energy": 8.69, 
			 "SMD_solvation_energy": 1.78 
		},
		"coords": [
			{
				"x": -2.1310491733,
				"y": 0.681928939,
				"z": -4.1982054598,
				"element": "S" 
			},
			{
				"x": -0.790872293,
				"y": 0.3852262314,
				"z": -3.06616588,
				"element": "C" 
			},
			{
				"x": -1.0376589144,
				"y": 0.450095724,
				"z": -1.7576204003,
				"element": "N" 
			},
			{
				"x": -0.004532084,
				"y": 0.2207521076,
				"z": -0.9231089096,
				"element": "C" 
			},
			{
				"x": 1.2636727137,
				"y": -0.0849514916,
				"z": -1.4393320038,
				"element": "C" 
			},
			{
				"x": 1.3943039807,
				"y": -0.1183785862,
				"z": -2.8240739259,
				"element": "C" 
			},
			{
				"x": 0.3792218267,
				"y": 0.1178747685,
				"z": -3.660088422,
				"element": "N" 
			},
			{
				"x": -0.2922900309,
				"y": 0.297281334,
				"z": 0.5305338433,
				"element": "C" 
			},
			{
				"x": 0.7327663795,
				"y": 0.3662602677,
				"z": 1.487759383,
				"element": "C" 
			},
			{
				"x": 0.4436806825,
				"y": 0.4334392358,
				"z": 2.8481486271,
				"element": "C" 
			},
			{
				"x": -0.8886268864,
				"y": 0.4305324592,
				"z": 3.2612209217,
				"element": "C" 
			},
			{
				"x": -1.2612846725,
				"y": 0.5108503218,
				"z": 4.9736336976,
				"element": "Cl" 
			},
			{
				"x": -1.9282477827,
				"y": 0.3691594572,
				"z": 2.3323060693,
				"element": "C" 
			},
			{
				"x": -1.624312037,
				"y": 0.3071098665,
				"z": 0.9762393402,
				"element": "C" 
			},
			{
				"x": -3.0472381596,
				"y": 0.9063815627,
				"z": -3.2371989086,
				"element": "H" 
			},
			{
				"x": 2.1108488412,
				"y": -0.3071854696,
				"z": -0.80315571,
				"element": "H" 
			},
			{
				"x": 2.3527921476,
				"y": -0.3482912014,
				"z": -3.286022754,
				"element": "H" 
			},
			{
				"x": 1.7727834873,
				"y": 0.3897080091,
				"z": 1.1801344437,
				"element": "H" 
			},
			{
				"x": 1.2404813365,
				"y": 0.4933168504,
				"z": 3.5809100729,
				"element": "H" 
			},
			{
				"x": -2.9588027418,
				"y": 0.3695038475,
				"z": 2.6695091925,
				"element": "H" 
			},
			{
				"x": -2.4180366198,
				"y": 0.2635857666,
				"z": 0.2397767828,
				"element": "H" 
			}
		],
		 "valence_orbital": [ 
			{
				"type": "occ",
				"energy": -0.30964,
				"method": "rhf"
			},
			{
				"type": "occ",
				"energy": -0.27558,
				"method": "rhf"
			},
			{
				"type": "occ",
				"energy": -0.2637,
				"method": "rhf"
			},
			{
				"type": "occ",
				"energy": -0.25477,
				"method": "rhf"
			},
			{
				"type": "occ",
				"energy": -0.24086,
				"method": "rhf"
			},
			{
				"type": "unocc",
				"energy": -0.07164,
				"method": "rhf"
			},
			{
				"type": "unocc",
				"energy": -0.03847,
				"method": "rhf"
			},
			{
				"type": "unocc",
				"energy": -0.02026,
				"method": "rhf"
			},
			{
				"type": "unocc",
				"energy": 0.0066,
				"method": "rhf"
			},
			{
				"type": "unocc",
				"energy": 0.01949,
				"method": "rhf"
			}
		],
		"cosmo_sigma_profile": { 
			"-0.025": 0.0,
			"-0.024": 0.0,
			"-0.023": 0.0,
			"-0.022": 0.0,
			"-0.021": 0.0,
			"-0.02": 0.0,
			"-0.019": 0.0,
			"-0.018": 0.0,
			"-0.017": 0.0,
			"-0.016": 0.0,
			"-0.015": 0.0,
			"-0.014": 0.0,
			"-0.013": 0.0,
			"-0.012": 0.0,
			"-0.011": 0.675607925867,
			"-0.01": 2.17636434799,
			"-0.009": 3.34751811323,
			"-0.008": 7.05276939935,
			"-0.007": 10.7256787573,
			"-0.006": 11.6017727375,
			"-0.005": 10.3778221298,
			"-0.004": 8.07319213036,
			"-0.003": 10.9287021001,
			"-0.002": 13.5879101356,
			"-0.001": 20.1767592654,
			"0.0": 22.1965275219,
			"0.001": 23.366109363,
			"0.002": 26.7604509067,
			"0.003": 24.9092091768,
			"0.004": 18.0388973135,
			"0.005": 10.8838684163,
			"0.006": 5.72317814712,
			"0.007": 4.75968330366,
			"0.008": 2.38854952747,
			"0.009": 0.818628432869,
			"0.01": 1.01422671957,
			"0.011": 0.958699095254,
			"0.012": 0.93949157508,
			"0.013": 0.623086044163,
			"0.014": 0.720660755839,
			"0.015": 0.00913782729274,
			"0.016": 0.0,
			"0.017": 0.0,
			"0.018": 0.0,
			"0.019": 0.0,
			"0.02": 0.0,
			"0.021": 0.0,
			"0.022": 0.0,
			"0.023": 0.0,
			"0.024": 0.0,
			"0.025": 0.0
		}
	}
}
