{
	 "smiles": "NC1=NN2C(N=C(C=C2C(F)(F)F)C2=CC=CS2)=C1N=NC1=CC=C(C=C1)C(O)=O", 
	 "Tm": 457.15, 
	 "num_atms": 41, 
	 "gaussian": { 
		 "optdone": 1, 
		 "sigma_profile": "yes", 
		 "theory": "DFT", 
		 "functional": "B3LYP", 
		 "basiset": "6-31G**", 
		 "properties": { 
			 "R2extent": 19135.475, 
			 "electric_dipole_moment_norm": 3.99966230325, 
			 "electric_quadrupole_moment_norm": 20.2834481773, 
			 "total_energy": -1869.15952391, 
			 "HOMO_LUMO_gap": 0.11766, 
			 "cosmo_polarized_energy": -23.84, 
			 "cosmo_cavitation_energy": 51.87, 
			 "cosmo_dispersion_energy": -36.48, 
			 "cosmo_repulsion_energy": 2.61, 
			 "cosmo_total_nonelectrostatic_energy": 18.0, 
			 "SMD_solvation_energy": 8.05 
		},
		"coords": [
			{
				"x": -0.2913817258,
				"y": 4.6024011289,
				"z": -1.5173528877,
				"element": "N" 
			},
			{
				"x": -0.4366764797,
				"y": 3.831224816,
				"z": -0.4106945893,
				"element": "C" 
			},
			{
				"x": -0.6633348003,
				"y": 4.3704858739,
				"z": 0.7941025028,
				"element": "N" 
			},
			{
				"x": -0.7923715164,
				"y": 3.2885772758,
				"z": 1.6130582293,
				"element": "N" 
			},
			{
				"x": -0.6484925515,
				"y": 2.051742979,
				"z": 0.9525413833,
				"element": "C" 
			},
			{
				"x": -0.741147296,
				"y": 0.893646289,
				"z": 1.603332456,
				"element": "N" 
			},
			{
				"x": -0.9784546332,
				"y": 0.9159521995,
				"z": 2.9180058568,
				"element": "C" 
			},
			{
				"x": -1.1323731752,
				"y": 2.1403982643,
				"z": 3.6303525053,
				"element": "C" 
			},
			{
				"x": -1.0330848707,
				"y": 3.3267665064,
				"z": 2.9461606303,
				"element": "C" 
			},
			{
				"x": -1.1793221219,
				"y": 4.6779729793,
				"z": 3.6147894023,
				"element": "C" 
			},
			{
				"x": -1.4138684802,
				"y": 4.5123862301,
				"z": 4.933958419,
				"element": "F" 
			},
			{
				"x": -2.2050467906,
				"y": 5.3726453587,
				"z": 3.100440567,
				"element": "F" 
			},
			{
				"x": -0.0630959674,
				"y": 5.411910098,
				"z": 3.4867524079,
				"element": "F" 
			},
			{
				"x": -1.0729374893,
				"y": -0.3694113926,
				"z": 3.5926667414,
				"element": "C" 
			},
			{
				"x": -1.3072145409,
				"y": -0.6477259453,
				"z": 4.9251953695,
				"element": "C" 
			},
			{
				"x": -1.3293107787,
				"y": -2.0383325788,
				"z": 5.2097715153,
				"element": "C" 
			},
			{
				"x": -1.1116972729,
				"y": -2.8029582893,
				"z": 4.0912037364,
				"element": "C" 
			},
			{
				"x": -0.8764857704,
				"y": -1.8444050809,
				"z": 2.6732946899,
				"element": "S" 
			},
			{
				"x": -0.4069010313,
				"y": 2.4005253385,
				"z": -0.3968639301,
				"element": "C" 
			},
			{
				"x": -0.1585566135,
				"y": 1.6900190138,
				"z": -1.5413757086,
				"element": "N" 
			},
			{
				"x": -0.1524731748,
				"y": 0.4220927869,
				"z": -1.4361291579,
				"element": "N" 
			},
			{
				"x": 0.1099208799,
				"y": -0.2596841625,
				"z": -2.645779425,
				"element": "C" 
			},
			{
				"x": 0.2994533961,
				"y": 0.3486871613,
				"z": -3.9020451936,
				"element": "C" 
			},
			{
				"x": 0.5478630457,
				"y": -0.4339478503,
				"z": -5.0180242156,
				"element": "C" 
			},
			{
				"x": 0.6127782902,
				"y": -1.8343010092,
				"z": -4.9093844582,
				"element": "C" 
			},
			{
				"x": 0.4221308616,
				"y": -2.4426088115,
				"z": -3.6603386138,
				"element": "C" 
			},
			{
				"x": 0.17135073,
				"y": -1.6585678255,
				"z": -2.5400822655,
				"element": "C" 
			},
			{
				"x": 0.8825043793,
				"y": -2.6164709669,
				"z": -6.1406087876,
				"element": "C" 
			},
			{
				"x": 0.9223011302,
				"y": -3.9572481834,
				"z": -5.9248889612,
				"element": "O" 
			},
			{
				"x": 1.0556989133,
				"y": -2.1401816857,
				"z": -7.2465590928,
				"element": "O" 
			},
			{
				"x": 0.0808053866,
				"y": 4.1442591839,
				"z": -2.3348730655,
				"element": "H" 
			},
			{
				"x": -0.0886830455,
				"y": 5.5812794319,
				"z": -1.3878008537,
				"element": "H" 
			},
			{
				"x": -1.3246420283,
				"y": 2.1629659348,
				"z": 4.6928547725,
				"element": "H" 
			},
			{
				"x": -1.4592480776,
				"y": 0.1162029028,
				"z": 5.6790109776,
				"element": "H" 
			},
			{
				"x": -1.4987079394,
				"y": -2.4511903816,
				"z": 6.1973281782,
				"element": "H" 
			},
			{
				"x": -1.0769566457,
				"y": -3.8819639834,
				"z": 4.0231770906,
				"element": "H" 
			},
			{
				"x": 0.2449305287,
				"y": 1.4281312861,
				"z": -3.9767519866,
				"element": "H" 
			},
			{
				"x": 0.6957647731,
				"y": 0.0139814299,
				"z": -5.9951285957,
				"element": "H" 
			},
			{
				"x": 0.4706083626,
				"y": -3.5221859784,
				"z": -3.5761020661,
				"element": "H" 
			},
			{
				"x": 0.0186108324,
				"y": -2.1016029036,
				"z": -1.5614428804,
				"element": "H" 
			},
			{
				"x": 1.1032433074,
				"y": -4.35456744,
				"z": -6.7922706965,
				"element": "H" 
			}
		],
		 "valence_orbital": [ 
			{
				"type": "occ",
				"energy": -0.26215,
				"method": "rhf"
			},
			{
				"type": "occ",
				"energy": -0.25659,
				"method": "rhf"
			},
			{
				"type": "occ",
				"energy": -0.22483,
				"method": "rhf"
			},
			{
				"type": "occ",
				"energy": -0.22342,
				"method": "rhf"
			},
			{
				"type": "occ",
				"energy": -0.21094,
				"method": "rhf"
			},
			{
				"type": "unocc",
				"energy": -0.09328,
				"method": "rhf"
			},
			{
				"type": "unocc",
				"energy": -0.07534,
				"method": "rhf"
			},
			{
				"type": "unocc",
				"energy": -0.03899,
				"method": "rhf"
			},
			{
				"type": "unocc",
				"energy": -0.01398,
				"method": "rhf"
			},
			{
				"type": "unocc",
				"energy": -0.00262,
				"method": "rhf"
			}
		],
		"cosmo_sigma_profile": { 
			"-0.025": 0.0,
			"-0.024": 0.0,
			"-0.023": 0.0,
			"-0.022": 0.0,
			"-0.021": 0.0,
			"-0.02": 0.0,
			"-0.019": 0.0301850430182,
			"-0.018": 0.724116199335,
			"-0.017": 0.966328087818,
			"-0.016": 0.622686683226,
			"-0.015": 1.5187959114,
			"-0.014": 1.82529643481,
			"-0.013": 2.29076529095,
			"-0.012": 2.55831793625,
			"-0.011": 4.18686155237,
			"-0.01": 4.66021567273,
			"-0.009": 6.42940836973,
			"-0.008": 6.84648513386,
			"-0.007": 8.52602411564,
			"-0.006": 16.7697428879,
			"-0.005": 21.5993225556,
			"-0.004": 21.3660679361,
			"-0.003": 19.8866721298,
			"-0.002": 25.7552010334,
			"-0.001": 23.4632007173,
			"0.0": 29.3017482476,
			"0.001": 42.2203381375,
			"0.002": 61.3285296645,
			"0.003": 41.1926289488,
			"0.004": 20.3267415652,
			"0.005": 10.4958630305,
			"0.006": 7.5209348915,
			"0.007": 7.62296696333,
			"0.008": 5.54937688618,
			"0.009": 5.78909827961,
			"0.01": 4.67124510607,
			"0.011": 5.96428725769,
			"0.012": 6.00731136044,
			"0.013": 0.648903479986,
			"0.014": 0.844200969519,
			"0.015": 0.967640664734,
			"0.016": 0.483551230099,
			"0.017": 0.0471053494586,
			"0.018": 0.0,
			"0.019": 0.0,
			"0.02": 0.0,
			"0.021": 0.0,
			"0.022": 0.0,
			"0.023": 0.0,
			"0.024": 0.0,
			"0.025": 0.0
		}
	}
}
