{
	 "smiles": "OC(=O)CC1CCCC1", 
	 "Tm": 285.15, 
	 "num_atms": 21, 
	 "gaussian": { 
		 "optdone": 1, 
		 "sigma_profile": "yes", 
		 "theory": "DFT", 
		 "functional": "B3LYP", 
		 "basiset": "6-31G**", 
		 "properties": { 
			 "R2extent": 1525.9693, 
			 "electric_dipole_moment_norm": 1.47495579256, 
			 "electric_quadrupole_moment_norm": 8.86926695393, 
			 "total_energy": -424.449536501, 
			 "HOMO_LUMO_gap": 0.27517, 
			 "cosmo_polarized_energy": -7.59, 
			 "cosmo_cavitation_energy": 22.59, 
			 "cosmo_dispersion_energy": -16.75, 
			 "cosmo_repulsion_energy": 1.4, 
			 "cosmo_total_nonelectrostatic_energy": 7.24, 
			 "SMD_solvation_energy": 4.29 
		},
		"coords": [
			{
				"x": 3.1202683772,
				"y": -0.2474841017,
				"z": 0.3070271684,
				"element": "O" 
			},
			{
				"x": 2.1994056454,
				"y": -0.9230885325,
				"z": 1.0408501518,
				"element": "C" 
			},
			{
				"x": 2.2343031229,
				"y": -0.9421831609,
				"z": 2.2535586841,
				"element": "O" 
			},
			{
				"x": 1.1570148577,
				"y": -1.5934159418,
				"z": 0.1737058799,
				"element": "C" 
			},
			{
				"x": -0.1667362812,
				"y": -0.7973936835,
				"z": 0.0803318522,
				"element": "C" 
			},
			{
				"x": -0.0526996663,
				"y": 0.6400436346,
				"z": -0.4623524275,
				"element": "C" 
			},
			{
				"x": -1.4286297915,
				"y": 1.2407554634,
				"z": -0.1355717334,
				"element": "C" 
			},
			{
				"x": -1.7755179735,
				"y": 0.671082891,
				"z": 1.2637697369,
				"element": "C" 
			},
			{
				"x": -0.9356823733,
				"y": -0.6315688081,
				"z": 1.4161145195,
				"element": "C" 
			},
			{
				"x": 3.7240347353,
				"y": 0.1632167897,
				"z": 0.9495370798,
				"element": "H" 
			},
			{
				"x": 1.5693954854,
				"y": -1.7416055408,
				"z": -0.8282596143,
				"element": "H" 
			},
			{
				"x": 0.9559923445,
				"y": -2.5750958489,
				"z": 0.6141511235,
				"element": "H" 
			},
			{
				"x": -0.8042651776,
				"y": -1.359632106,
				"z": -0.6161196952,
				"element": "H" 
			},
			{
				"x": 0.7344392652,
				"y": 1.1862980878,
				"z": 0.0734250553,
				"element": "H" 
			},
			{
				"x": 0.1977495174,
				"y": 0.6753573154,
				"z": -1.528089126,
				"element": "H" 
			},
			{
				"x": -1.4370391769,
				"y": 2.3348609958,
				"z": -0.1628165965,
				"element": "H" 
			},
			{
				"x": -2.1615972721,
				"y": 0.8963051222,
				"z": -0.875823783,
				"element": "H" 
			},
			{
				"x": -1.5032640308,
				"y": 1.3884822971,
				"z": 2.0449960217,
				"element": "H" 
			},
			{
				"x": -2.8491340403,
				"y": 0.4874243738,
				"z": 1.3691848838,
				"element": "H" 
			},
			{
				"x": -0.2278805075,
				"y": -0.5408584533,
				"z": 2.2447107076,
				"element": "H" 
			},
			{
				"x": -1.5570570598,
				"y": -1.5083007933,
				"z": 1.6260701114,
				"element": "H" 
			}
		],
		 "valence_orbital": [ 
			{
				"type": "occ",
				"energy": -0.32372,
				"method": "rhf"
			},
			{
				"type": "occ",
				"energy": -0.3203,
				"method": "rhf"
			},
			{
				"type": "occ",
				"energy": -0.31584,
				"method": "rhf"
			},
			{
				"type": "occ",
				"energy": -0.30807,
				"method": "rhf"
			},
			{
				"type": "occ",
				"energy": -0.2682,
				"method": "rhf"
			},
			{
				"type": "unocc",
				"energy": 0.00697,
				"method": "rhf"
			},
			{
				"type": "unocc",
				"energy": 0.07706,
				"method": "rhf"
			},
			{
				"type": "unocc",
				"energy": 0.08571,
				"method": "rhf"
			},
			{
				"type": "unocc",
				"energy": 0.1036,
				"method": "rhf"
			},
			{
				"type": "unocc",
				"energy": 0.12833,
				"method": "rhf"
			}
		],
		"cosmo_sigma_profile": { 
			"-0.025": 0.0,
			"-0.024": 0.0,
			"-0.023": 0.0,
			"-0.022": 0.0,
			"-0.021": 0.0,
			"-0.02": 0.0,
			"-0.019": 0.0,
			"-0.018": 0.310045272016,
			"-0.017": 1.15176479056,
			"-0.016": 0.874050166321,
			"-0.015": 0.525443463583,
			"-0.014": 0.72201532289,
			"-0.013": 0.540445262465,
			"-0.012": 0.715151322263,
			"-0.011": 1.03697306834,
			"-0.01": 1.00916752221,
			"-0.009": 0.626623107026,
			"-0.008": 0.43773043132,
			"-0.007": 0.546297775374,
			"-0.006": 1.14651162573,
			"-0.005": 3.79096929436,
			"-0.004": 5.37623790675,
			"-0.003": 15.7444864445,
			"-0.002": 29.8786847219,
			"-0.001": 27.4372984027,
			"0.0": 21.983510742,
			"0.001": 17.3955173179,
			"0.002": 11.2196599694,
			"0.003": 4.04239435595,
			"0.004": 2.86705311348,
			"0.005": 2.8385791186,
			"0.006": 3.55902427637,
			"0.007": 2.42894730116,
			"0.008": 2.25903507344,
			"0.009": 3.23116870694,
			"0.01": 2.49139857444,
			"0.011": 2.75879852664,
			"0.012": 4.75676762206,
			"0.013": 1.1420960904,
			"0.014": 0.0,
			"0.015": 0.0,
			"0.016": 0.0,
			"0.017": 0.0,
			"0.018": 0.0,
			"0.019": 0.0,
			"0.02": 0.0,
			"0.021": 0.0,
			"0.022": 0.0,
			"0.023": 0.0,
			"0.024": 0.0,
			"0.025": 0.0
		}
	}
}
