{
	 "smiles": "O=CC1=CN(CC2=CC=CC=C2)N=C1C1=CC=CS1", 
	 "Tm": 363.65, 
	 "num_atms": 31, 
	 "gaussian": { 
		 "optdone": 1, 
		 "sigma_profile": "yes", 
		 "theory": "DFT", 
		 "functional": "B3LYP", 
		 "basiset": "6-31G**", 
		 "properties": { 
			 "R2extent": 7259.7587, 
			 "electric_dipole_moment_norm": 2.80759849694, 
			 "electric_quadrupole_moment_norm": 20.7745070806, 
			 "total_energy": -1161.70489861, 
			 "HOMO_LUMO_gap": 0.16968, 
			 "cosmo_polarized_energy": -14.15, 
			 "cosmo_cavitation_energy": 37.98, 
			 "cosmo_dispersion_energy": -27.01, 
			 "cosmo_repulsion_energy": 2.03, 
			 "cosmo_total_nonelectrostatic_energy": 13.01, 
			 "SMD_solvation_energy": 6.63 
		},
		"coords": [
			{
				"x": 2.9577932786,
				"y": 3.1454116777,
				"z": 0.0709669773,
				"element": "O" 
			},
			{
				"x": 3.0821339301,
				"y": 1.9401023204,
				"z": -0.0835803546,
				"element": "C" 
			},
			{
				"x": 2.1505871618,
				"y": 0.9538294896,
				"z": 0.4566788146,
				"element": "C" 
			},
			{
				"x": 1.1012797211,
				"y": 1.2516855276,
				"z": 1.3213029002,
				"element": "C" 
			},
			{
				"x": 0.5471930604,
				"y": 0.0830619288,
				"z": 1.6908577934,
				"element": "N" 
			},
			{
				"x": -0.6307493732,
				"y": -0.1329878298,
				"z": 2.5323685723,
				"element": "C" 
			},
			{
				"x": -1.9394043948,
				"y": -0.0985698354,
				"z": 1.7646623153,
				"element": "C" 
			},
			{
				"x": -2.1735686392,
				"y": -1.0025902315,
				"z": 0.7192396938,
				"element": "C" 
			},
			{
				"x": -3.3822757222,
				"y": -0.9746172758,
				"z": 0.0257399881,
				"element": "C" 
			},
			{
				"x": -4.371671814,
				"y": -0.0496812704,
				"z": 0.371670162,
				"element": "C" 
			},
			{
				"x": -4.1453859944,
				"y": 0.8501929317,
				"z": 1.4128102021,
				"element": "C" 
			},
			{
				"x": -2.9316296847,
				"y": 0.8264488259,
				"z": 2.1038900391,
				"element": "C" 
			},
			{
				"x": 1.1465557412,
				"y": -0.9855535371,
				"z": 1.106137475,
				"element": "N" 
			},
			{
				"x": 2.1254854355,
				"y": -0.4756053826,
				"z": 0.3510049878,
				"element": "C" 
			},
			{
				"x": 2.9875045113,
				"y": -1.3661321952,
				"z": -0.4154109923,
				"element": "C" 
			},
			{
				"x": 3.6869951619,
				"y": -1.1217344914,
				"z": -1.5765449452,
				"element": "C" 
			},
			{
				"x": 4.4154612178,
				"y": -2.2531152908,
				"z": -2.0446126963,
				"element": "C" 
			},
			{
				"x": 4.2602585053,
				"y": -3.3494825896,
				"z": -1.2403750665,
				"element": "C" 
			},
			{
				"x": 3.2194048734,
				"y": -3.0214336661,
				"z": 0.1042891774,
				"element": "S" 
			},
			{
				"x": 3.9469555334,
				"y": 1.5274875661,
				"z": -0.6412536985,
				"element": "H" 
			},
			{
				"x": 0.7549657133,
				"y": 2.207287249,
				"z": 1.6858946527,
				"element": "H" 
			},
			{
				"x": -0.4779123166,
				"y": -1.1044406214,
				"z": 3.009565244,
				"element": "H" 
			},
			{
				"x": -0.6255359715,
				"y": 0.6326863957,
				"z": 3.3127206806,
				"element": "H" 
			},
			{
				"x": -1.4006911881,
				"y": -1.7164741032,
				"z": 0.4493635376,
				"element": "H" 
			},
			{
				"x": -3.5543457012,
				"y": -1.6772135823,
				"z": -0.7845525027,
				"element": "H" 
			},
			{
				"x": -5.3134780149,
				"y": -0.0316871478,
				"z": -0.1690650999,
				"element": "H" 
			},
			{
				"x": -4.9084887369,
				"y": 1.5731622736,
				"z": 1.6861156059,
				"element": "H" 
			},
			{
				"x": -2.7577807799,
				"y": 1.5313809255,
				"z": 2.9136361457,
				"element": "H" 
			},
			{
				"x": 3.6548185735,
				"y": -0.1732338485,
				"z": -2.0989039092,
				"element": "H" 
			},
			{
				"x": 5.0199676508,
				"y": -2.2498811124,
				"z": -2.944304719,
				"element": "H" 
			},
			{
				"x": 4.6924582624,
				"y": -4.3334031003,
				"z": -1.3605109807,
				"element": "H" 
			}
		],
		 "valence_orbital": [ 
			{
				"type": "occ",
				"energy": -0.25879,
				"method": "rhf"
			},
			{
				"type": "occ",
				"energy": -0.25599,
				"method": "rhf"
			},
			{
				"type": "occ",
				"energy": -0.25374,
				"method": "rhf"
			},
			{
				"type": "occ",
				"energy": -0.24541,
				"method": "rhf"
			},
			{
				"type": "occ",
				"energy": -0.21951,
				"method": "rhf"
			},
			{
				"type": "unocc",
				"energy": -0.04983,
				"method": "rhf"
			},
			{
				"type": "unocc",
				"energy": -0.03021,
				"method": "rhf"
			},
			{
				"type": "unocc",
				"energy": -0.01489,
				"method": "rhf"
			},
			{
				"type": "unocc",
				"energy": -0.00928,
				"method": "rhf"
			},
			{
				"type": "unocc",
				"energy": 0.02179,
				"method": "rhf"
			}
		],
		"cosmo_sigma_profile": { 
			"-0.025": 0.0,
			"-0.024": 0.0,
			"-0.023": 0.0,
			"-0.022": 0.0,
			"-0.021": 0.0,
			"-0.02": 0.0,
			"-0.019": 0.0,
			"-0.018": 0.0,
			"-0.017": 0.0,
			"-0.016": 0.0,
			"-0.015": 0.0,
			"-0.014": 0.0,
			"-0.013": 0.0,
			"-0.012": 0.0,
			"-0.011": 0.107753060453,
			"-0.01": 2.48542352291,
			"-0.009": 3.3916970405,
			"-0.008": 7.62888193764,
			"-0.007": 11.8043064995,
			"-0.006": 17.8857402849,
			"-0.005": 20.3899494766,
			"-0.004": 23.7326243228,
			"-0.003": 20.6667202756,
			"-0.002": 16.7633743386,
			"-0.001": 16.8588698917,
			"0.0": 18.2734636694,
			"0.001": 25.7541494505,
			"0.002": 22.2558721434,
			"0.003": 24.1989845512,
			"0.004": 26.7851603611,
			"0.005": 19.2680695474,
			"0.006": 7.02771134809,
			"0.007": 2.57724112945,
			"0.008": 3.31954908248,
			"0.009": 2.61057564451,
			"0.01": 3.21910133792,
			"0.011": 3.6707384036,
			"0.012": 4.89160277516,
			"0.013": 1.93863008944,
			"0.014": 0.256370175151,
			"0.015": 0.0,
			"0.016": 0.0,
			"0.017": 0.0,
			"0.018": 0.0,
			"0.019": 0.0,
			"0.02": 0.0,
			"0.021": 0.0,
			"0.022": 0.0,
			"0.023": 0.0,
			"0.024": 0.0,
			"0.025": 0.0
		}
	}
}
