{
	 "smiles": "CC(C)(C)C(O)C(=CC1=CC=C(Cl)C=C1Cl)N1C=NC=N1", 
	 "Tm": 421.15, 
	 "num_atms": 38, 
	 "gaussian": { 
		 "optdone": 1, 
		 "sigma_profile": "yes", 
		 "theory": "DFT", 
		 "functional": "B3LYP", 
		 "basiset": "6-31G**", 
		 "properties": { 
			 "R2extent": 8680.0582, 
			 "electric_dipole_moment_norm": 1.33994295774, 
			 "electric_quadrupole_moment_norm": 13.398302691, 
			 "total_energy": -1741.66709049, 
			 "HOMO_LUMO_gap": 0.2124, 
			 "cosmo_polarized_energy": -13.51, 
			 "cosmo_cavitation_energy": 43.0, 
			 "cosmo_dispersion_energy": -29.05, 
			 "cosmo_repulsion_energy": 2.21, 
			 "cosmo_total_nonelectrostatic_energy": 16.16, 
			 "SMD_solvation_energy": 5.02 
		},
		"coords": [
			{
				"x": -2.8551510772,
				"y": 0.2338491664,
				"z": 1.0086297415,
				"element": "C" 
			},
			{
				"x": -1.8147482125,
				"y": 1.1253774256,
				"z": 0.3044952074,
				"element": "C" 
			},
			{
				"x": -0.6817300839,
				"y": 1.4697492355,
				"z": 1.2863453098,
				"element": "C" 
			},
			{
				"x": -2.5093213336,
				"y": 2.4254307998,
				"z": -0.1538939213,
				"element": "C" 
			},
			{
				"x": -1.251856704,
				"y": 0.4294234918,
				"z": -0.979732338,
				"element": "C" 
			},
			{
				"x": -0.3407958827,
				"y": 1.3338366395,
				"z": -1.5829028606,
				"element": "O" 
			},
			{
				"x": -0.6040883523,
				"y": -0.9412366611,
				"z": -0.7877704016,
				"element": "C" 
			},
			{
				"x": 0.7017409645,
				"y": -1.2592937827,
				"z": -0.7809684233,
				"element": "C" 
			},
			{
				"x": 1.8877507525,
				"y": -0.3606747587,
				"z": -0.7918820041,
				"element": "C" 
			},
			{
				"x": 2.4896912229,
				"y": 0.0413945749,
				"z": 0.4094344407,
				"element": "C" 
			},
			{
				"x": 3.6633864857,
				"y": 0.7920027985,
				"z": 0.4371223205,
				"element": "C" 
			},
			{
				"x": 4.2667751103,
				"y": 1.1442144513,
				"z": -0.767737592,
				"element": "C" 
			},
			{
				"x": 5.7455920907,
				"y": 2.0872390335,
				"z": -0.7604045732,
				"element": "Cl" 
			},
			{
				"x": 3.7158229963,
				"y": 0.7555807048,
				"z": -1.987162895,
				"element": "C" 
			},
			{
				"x": 2.5423815467,
				"y": 0.0052213831,
				"z": -1.978512236,
				"element": "C" 
			},
			{
				"x": 1.864329488,
				"y": -0.4658110914,
				"z": -3.5353399632,
				"element": "Cl" 
			},
			{
				"x": -1.5313602666,
				"y": -2.0251855905,
				"z": -0.6876167685,
				"element": "N" 
			},
			{
				"x": -1.4761832707,
				"y": -3.1316909038,
				"z": 0.1023673381,
				"element": "C" 
			},
			{
				"x": -2.5159701584,
				"y": -3.913244993,
				"z": -0.1171574936,
				"element": "N" 
			},
			{
				"x": -3.2018236993,
				"y": -3.2286228087,
				"z": -1.0765097691,
				"element": "C" 
			},
			{
				"x": -2.6583080153,
				"y": -2.0828556159,
				"z": -1.4557819714,
				"element": "N" 
			},
			{
				"x": -2.4058753115,
				"y": -0.6625147328,
				"z": 1.4462434016,
				"element": "H" 
			},
			{
				"x": -3.3219726578,
				"y": 0.7945569557,
				"z": 1.8253978045,
				"element": "H" 
			},
			{
				"x": -3.6474856587,
				"y": -0.0845505493,
				"z": 0.3242460724,
				"element": "H" 
			},
			{
				"x": 0.0946447325,
				"y": 2.0666679412,
				"z": 0.8020523064,
				"element": "H" 
			},
			{
				"x": -1.0792694951,
				"y": 2.041449896,
				"z": 2.1318075214,
				"element": "H" 
			},
			{
				"x": -0.2187244275,
				"y": 0.5640277916,
				"z": 1.6918409239,
				"element": "H" 
			},
			{
				"x": -3.3348412676,
				"y": 2.2089375528,
				"z": -0.8418477297,
				"element": "H" 
			},
			{
				"x": -1.807727803,
				"y": 3.0893149145,
				"z": -0.6626274324,
				"element": "H" 
			},
			{
				"x": -2.9259927229,
				"y": 2.9534993704,
				"z": 0.7103956352,
				"element": "H" 
			},
			{
				"x": -2.1125569173,
				"y": 0.2506473993,
				"z": -1.6398559531,
				"element": "H" 
			},
			{
				"x": -0.1303728726,
				"y": 1.0078944877,
				"z": -2.4684435507,
				"element": "H" 
			},
			{
				"x": 0.9438621715,
				"y": -2.3216726086,
				"z": -0.780813377,
				"element": "H" 
			},
			{
				"x": 2.0234098331,
				"y": -0.2444809887,
				"z": 1.3461739648,
				"element": "H" 
			},
			{
				"x": 4.1047778668,
				"y": 1.0957626689,
				"z": 1.3793269778,
				"element": "H" 
			},
			{
				"x": 4.186980912,
				"y": 1.0297529427,
				"z": -2.9228154495,
				"element": "H" 
			},
			{
				"x": -0.6869249118,
				"y": -3.2967694915,
				"z": 0.8214734677,
				"element": "H" 
			},
			{
				"x": -4.1277650712,
				"y": -3.5831270491,
				"z": -1.5081757306,
				"element": "H" 
			}
		],
		 "valence_orbital": [ 
			{
				"type": "occ",
				"energy": -0.28381,
				"method": "rhf"
			},
			{
				"type": "occ",
				"energy": -0.2772,
				"method": "rhf"
			},
			{
				"type": "occ",
				"energy": -0.27089,
				"method": "rhf"
			},
			{
				"type": "occ",
				"energy": -0.25757,
				"method": "rhf"
			},
			{
				"type": "occ",
				"energy": -0.25214,
				"method": "rhf"
			},
			{
				"type": "unocc",
				"energy": -0.03974,
				"method": "rhf"
			},
			{
				"type": "unocc",
				"energy": -0.03223,
				"method": "rhf"
			},
			{
				"type": "unocc",
				"energy": -0.02899,
				"method": "rhf"
			},
			{
				"type": "unocc",
				"energy": -0.00161,
				"method": "rhf"
			},
			{
				"type": "unocc",
				"energy": 0.01563,
				"method": "rhf"
			}
		],
		"cosmo_sigma_profile": { 
			"-0.025": 0.0,
			"-0.024": 0.0,
			"-0.023": 0.0,
			"-0.022": 0.0,
			"-0.021": 0.0,
			"-0.02": 0.0,
			"-0.019": 0.0,
			"-0.018": 0.0,
			"-0.017": 0.0,
			"-0.016": 0.0,
			"-0.015": 0.0,
			"-0.014": 0.0,
			"-0.013": 0.0103049300996,
			"-0.012": 0.505029286661,
			"-0.011": 1.25786229312,
			"-0.01": 2.87912773429,
			"-0.009": 3.51922841648,
			"-0.008": 9.74681058947,
			"-0.007": 10.4771182109,
			"-0.006": 11.9042203782,
			"-0.005": 11.5381720847,
			"-0.004": 14.9541396919,
			"-0.003": 24.3154712925,
			"-0.002": 28.6771670671,
			"-0.001": 30.6678305484,
			"0.0": 34.7702784513,
			"0.001": 45.8240868733,
			"0.002": 33.9329736638,
			"0.003": 21.2856343884,
			"0.004": 21.849138511,
			"0.005": 6.4489349284,
			"0.006": 4.66447220108,
			"0.007": 4.42356546509,
			"0.008": 4.69933105675,
			"0.009": 3.81312553593,
			"0.01": 2.92048253691,
			"0.011": 3.11161801209,
			"0.012": 2.44330116978,
			"0.013": 0.966907306264,
			"0.014": 1.19045987877,
			"0.015": 1.17425159965,
			"0.016": 0.760763748841,
			"0.017": 0.0840986948304,
			"0.018": 0.0,
			"0.019": 0.0,
			"0.02": 0.0,
			"0.021": 0.0,
			"0.022": 0.0,
			"0.023": 0.0,
			"0.024": 0.0,
			"0.025": 0.0
		}
	}
}
