{
	 "smiles": "CC1=CC=C(SCCNC(=O)CCl)C=C1", 
	 "Tm": 388.15, 
	 "num_atms": 29, 
	 "gaussian": { 
		 "optdone": 1, 
		 "sigma_profile": "yes", 
		 "theory": "DFT", 
		 "functional": "B3LYP", 
		 "basiset": "6-31G**", 
		 "properties": { 
			 "R2extent": 6106.2296, 
			 "electric_dipole_moment_norm": 3.19820365049, 
			 "electric_quadrupole_moment_norm": 15.4188994364, 
			 "total_energy": -1415.99107419, 
			 "HOMO_LUMO_gap": 0.20826, 
			 "cosmo_polarized_energy": -12.02, 
			 "cosmo_cavitation_energy": 36.24, 
			 "cosmo_dispersion_energy": -25.52, 
			 "cosmo_repulsion_energy": 2.01, 
			 "cosmo_total_nonelectrostatic_energy": 12.73, 
			 "SMD_solvation_energy": 5.5 
		},
		"coords": [
			{
				"x": 1.2082071891,
				"y": -0.629930182,
				"z": 5.6465384533,
				"element": "C" 
			},
			{
				"x": 1.1035805576,
				"y": -0.0667340178,
				"z": 4.2492351581,
				"element": "C" 
			},
			{
				"x": 2.2402431952,
				"y": 0.4142515004,
				"z": 3.5817976902,
				"element": "C" 
			},
			{
				"x": 2.1480989844,
				"y": 0.9675031761,
				"z": 2.3070081367,
				"element": "C" 
			},
			{
				"x": 0.9095444594,
				"y": 1.0350000511,
				"z": 1.6525551819,
				"element": "C" 
			},
			{
				"x": 0.7748166624,
				"y": 1.7807051901,
				"z": 0.0234229461,
				"element": "S" 
			},
			{
				"x": 1.5018385357,
				"y": 0.4567305847,
				"z": -1.0409120888,
				"element": "C" 
			},
			{
				"x": 0.6201860153,
				"y": -0.7837361427,
				"z": -1.1928950949,
				"element": "C" 
			},
			{
				"x": -0.6574674808,
				"y": -0.4861827206,
				"z": -1.8183219594,
				"element": "N" 
			},
			{
				"x": -1.0501606986,
				"y": -1.0741820823,
				"z": -2.9714802906,
				"element": "C" 
			},
			{
				"x": -0.4080318791,
				"y": -1.9165515473,
				"z": -3.5892955992,
				"element": "O" 
			},
			{
				"x": -2.4037492328,
				"y": -0.6712456956,
				"z": -3.5628292786,
				"element": "C" 
			},
			{
				"x": -3.3719672267,
				"y": 0.5631002173,
				"z": -2.6462177866,
				"element": "Cl" 
			},
			{
				"x": -0.2305877163,
				"y": 0.5571907021,
				"z": 2.309185032,
				"element": "C" 
			},
			{
				"x": -0.1297498,
				"y": 0.0165749487,
				"z": 3.5923757798,
				"element": "C" 
			},
			{
				"x": 0.3517434813,
				"y": -1.2658865307,
				"z": 5.8873523222,
				"element": "H" 
			},
			{
				"x": 1.2410681676,
				"y": 0.1727482917,
				"z": 6.3937511721,
				"element": "H" 
			},
			{
				"x": 2.1187077171,
				"y": -1.2243688067,
				"z": 5.7717621251,
				"element": "H" 
			},
			{
				"x": 3.2093986304,
				"y": 0.3640488038,
				"z": 4.0723904631,
				"element": "H" 
			},
			{
				"x": 3.0365852871,
				"y": 1.3540691462,
				"z": 1.8164660197,
				"element": "H" 
			},
			{
				"x": 2.4786352827,
				"y": 0.1781469218,
				"z": -0.6353326581,
				"element": "H" 
			},
			{
				"x": 1.660324593,
				"y": 0.9350743822,
				"z": -2.0120829328,
				"element": "H" 
			},
			{
				"x": 1.1171540343,
				"y": -1.5187652306,
				"z": -1.8320212346,
				"element": "H" 
			},
			{
				"x": 0.4580246838,
				"y": -1.2438867387,
				"z": -0.2105805814,
				"element": "H" 
			},
			{
				"x": -1.2440875851,
				"y": 0.2237021843,
				"z": -1.3996328471,
				"element": "H" 
			},
			{
				"x": -3.0199264746,
				"y": -1.5667228876,
				"z": -3.6442752294,
				"element": "H" 
			},
			{
				"x": -2.2347351185,
				"y": -0.2689208757,
				"z": -4.5618327323,
				"element": "H" 
			},
			{
				"x": -1.1960779686,
				"y": 0.610476157,
				"z": 1.8157025222,
				"element": "H" 
			},
			{
				"x": -1.0253162955,
				"y": -0.3512087993,
				"z": 4.0869673112,
				"element": "H" 
			}
		],
		 "valence_orbital": [ 
			{
				"type": "occ",
				"energy": -0.26162,
				"method": "rhf"
			},
			{
				"type": "occ",
				"energy": -0.26049,
				"method": "rhf"
			},
			{
				"type": "occ",
				"energy": -0.25749,
				"method": "rhf"
			},
			{
				"type": "occ",
				"energy": -0.25508,
				"method": "rhf"
			},
			{
				"type": "occ",
				"energy": -0.23128,
				"method": "rhf"
			},
			{
				"type": "unocc",
				"energy": -0.02302,
				"method": "rhf"
			},
			{
				"type": "unocc",
				"energy": -0.01329,
				"method": "rhf"
			},
			{
				"type": "unocc",
				"energy": 0.01764,
				"method": "rhf"
			},
			{
				"type": "unocc",
				"energy": 0.02057,
				"method": "rhf"
			},
			{
				"type": "unocc",
				"energy": 0.04509,
				"method": "rhf"
			}
		],
		"cosmo_sigma_profile": { 
			"-0.025": 0.0,
			"-0.024": 0.0,
			"-0.023": 0.0,
			"-0.022": 0.0,
			"-0.021": 0.0,
			"-0.02": 0.0,
			"-0.019": 0.0,
			"-0.018": 0.0,
			"-0.017": 0.0,
			"-0.016": 0.0,
			"-0.015": 0.0,
			"-0.014": 0.0,
			"-0.013": 0.0,
			"-0.012": 0.0,
			"-0.011": 0.0,
			"-0.01": 0.0112939235204,
			"-0.009": 2.51960657611,
			"-0.008": 4.1789335907,
			"-0.007": 4.25003302539,
			"-0.006": 11.700285659,
			"-0.005": 22.6489650544,
			"-0.004": 31.2394787103,
			"-0.003": 28.5687586374,
			"-0.002": 23.9377871623,
			"-0.001": 22.976740703,
			"0.0": 22.0290979981,
			"0.001": 19.4653103788,
			"0.002": 14.914184232,
			"0.003": 15.3158051479,
			"0.004": 17.0406187068,
			"0.005": 18.9380403222,
			"0.006": 9.12670608553,
			"0.007": 4.13890852323,
			"0.008": 2.03492482284,
			"0.009": 2.42544886917,
			"0.01": 2.19325674233,
			"0.011": 1.10641820209,
			"0.012": 2.51095002498,
			"0.013": 5.35573392359,
			"0.014": 2.27150569995,
			"0.015": 0.0680513461627,
			"0.016": 0.0,
			"0.017": 0.0,
			"0.018": 0.0,
			"0.019": 0.0,
			"0.02": 0.0,
			"0.021": 0.0,
			"0.022": 0.0,
			"0.023": 0.0,
			"0.024": 0.0,
			"0.025": 0.0
		}
	}
}
