{
	 "smiles": "CN1C(Cl)=NC2=C1C=CC=C2", 
	 "Tm": 385.15, 
	 "num_atms": 18, 
	 "gaussian": { 
		 "optdone": 1, 
		 "sigma_profile": "yes", 
		 "theory": "DFT", 
		 "functional": "B3LYP", 
		 "basiset": "6-31G**", 
		 "properties": { 
			 "R2extent": 3182.2872, 
			 "electric_dipole_moment_norm": 3.76814629493, 
			 "electric_quadrupole_moment_norm": 12.3102271165, 
			 "total_energy": -878.76989916, 
			 "HOMO_LUMO_gap": 0.20728, 
			 "cosmo_polarized_energy": -9.29, 
			 "cosmo_cavitation_energy": 23.52, 
			 "cosmo_dispersion_energy": -17.81, 
			 "cosmo_repulsion_energy": 1.41, 
			 "cosmo_total_nonelectrostatic_energy": 7.12, 
			 "SMD_solvation_energy": 1.8 
		},
		"coords": [
			{
				"x": 1.1973365297,
				"y": 0.8862213663,
				"z": -1.9819754171,
				"element": "C" 
			},
			{
				"x": 1.4021024167,
				"y": 1.1818944674,
				"z": -0.5738922177,
				"element": "N" 
			},
			{
				"x": 1.6172644803,
				"y": 2.4171154632,
				"z": -0.0013337024,
				"element": "C" 
			},
			{
				"x": 1.6643079368,
				"y": 3.83076377,
				"z": -0.9967022837,
				"element": "Cl" 
			},
			{
				"x": 1.773232458,
				"y": 2.419016678,
				"z": 1.2888341084,
				"element": "N" 
			},
			{
				"x": 1.6569773835,
				"y": 1.0792084911,
				"z": 1.638783215,
				"element": "C" 
			},
			{
				"x": 1.4243239794,
				"y": 0.2844594433,
				"z": 0.4900707773,
				"element": "C" 
			},
			{
				"x": 1.2686841339,
				"y": -1.1013372205,
				"z": 0.5594422439,
				"element": "C" 
			},
			{
				"x": 1.3529235626,
				"y": -1.6789314427,
				"z": 1.8243629544,
				"element": "C" 
			},
			{
				"x": 1.5839831212,
				"y": -0.9019194422,
				"z": 2.9770966301,
				"element": "C" 
			},
			{
				"x": 1.738119126,
				"y": 0.4782448349,
				"z": 2.9006123325,
				"element": "C" 
			},
			{
				"x": 0.3093915932,
				"y": 1.3985828671,
				"z": -2.3624228655,
				"element": "H" 
			},
			{
				"x": 1.0573114878,
				"y": -0.1891092683,
				"z": -2.0936742787,
				"element": "H" 
			},
			{
				"x": 2.0642046219,
				"y": 1.1920357784,
				"z": -2.5741804631,
				"element": "H" 
			},
			{
				"x": 1.0903511982,
				"y": -1.7097889554,
				"z": -0.3218242114,
				"element": "H" 
			},
			{
				"x": 1.2375788167,
				"y": -2.7541100398,
				"z": 1.9232144949,
				"element": "H" 
			},
			{
				"x": 1.6420986292,
				"y": -1.3952313189,
				"z": 3.9426762063,
				"element": "H" 
			},
			{
				"x": 1.9163085247,
				"y": 1.084984528,
				"z": 3.782212477,
				"element": "H" 
			}
		],
		 "valence_orbital": [ 
			{
				"type": "occ",
				"energy": -0.32426,
				"method": "rhf"
			},
			{
				"type": "occ",
				"energy": -0.30357,
				"method": "rhf"
			},
			{
				"type": "occ",
				"energy": -0.28324,
				"method": "rhf"
			},
			{
				"type": "occ",
				"energy": -0.22971,
				"method": "rhf"
			},
			{
				"type": "occ",
				"energy": -0.22646,
				"method": "rhf"
			},
			{
				"type": "unocc",
				"energy": -0.01918,
				"method": "rhf"
			},
			{
				"type": "unocc",
				"energy": 0.01664,
				"method": "rhf"
			},
			{
				"type": "unocc",
				"energy": 0.03102,
				"method": "rhf"
			},
			{
				"type": "unocc",
				"energy": 0.04386,
				"method": "rhf"
			},
			{
				"type": "unocc",
				"energy": 0.08092,
				"method": "rhf"
			}
		],
		"cosmo_sigma_profile": { 
			"-0.025": 0.0,
			"-0.024": 0.0,
			"-0.023": 0.0,
			"-0.022": 0.0,
			"-0.021": 0.0,
			"-0.02": 0.0,
			"-0.019": 0.0,
			"-0.018": 0.0,
			"-0.017": 0.0,
			"-0.016": 0.0,
			"-0.015": 0.0,
			"-0.014": 0.0,
			"-0.013": 0.0,
			"-0.012": 0.0,
			"-0.011": 0.0,
			"-0.01": 0.000868047492088,
			"-0.009": 0.842189136039,
			"-0.008": 2.68330594342,
			"-0.007": 5.0553006379,
			"-0.006": 10.5425145589,
			"-0.005": 15.657641346,
			"-0.004": 18.9305375562,
			"-0.003": 17.5914639921,
			"-0.002": 10.3076262258,
			"-0.001": 13.6403536555,
			"0.0": 10.6370776827,
			"0.001": 12.9628809213,
			"0.002": 13.1599955532,
			"0.003": 16.6357613682,
			"0.004": 12.6572612293,
			"0.005": 11.279724405,
			"0.006": 6.42736653251,
			"0.007": 2.51730355462,
			"0.008": 1.39947578781,
			"0.009": 0.993810382238,
			"0.01": 1.00114332259,
			"0.011": 1.19729373979,
			"0.012": 1.26077305156,
			"0.013": 1.07564278981,
			"0.014": 0.933395734811,
			"0.015": 1.01776175292,
			"0.016": 0.747900034099,
			"0.017": 0.0833942381816,
			"0.018": 0.0,
			"0.019": 0.0,
			"0.02": 0.0,
			"0.021": 0.0,
			"0.022": 0.0,
			"0.023": 0.0,
			"0.024": 0.0,
			"0.025": 0.0
		}
	}
}
