{
	 "smiles": "CC(=O)NC(=O)NC(C)=O", 
	 "Tm": 427.15, 
	 "num_atms": 18, 
	 "gaussian": { 
		 "optdone": 1, 
		 "sigma_profile": "yes", 
		 "theory": "DFT", 
		 "functional": "B3LYP", 
		 "basiset": "6-31G**", 
		 "properties": { 
			 "R2extent": 2827.6819, 
			 "electric_dipole_moment_norm": 0.718158722011, 
			 "electric_quadrupole_moment_norm": 11.7318069674, 
			 "total_energy": -530.579598763, 
			 "HOMO_LUMO_gap": 0.23341, 
			 "cosmo_polarized_energy": -17.25, 
			 "cosmo_cavitation_energy": 23.01, 
			 "cosmo_dispersion_energy": -16.78, 
			 "cosmo_repulsion_energy": 1.38, 
			 "cosmo_total_nonelectrostatic_energy": 7.62, 
			 "SMD_solvation_energy": 6.62 
		},
		"coords": [
			{
				"x": 1.5166555078,
				"y": -0.7826542625,
				"z": -2.7551819715,
				"element": "C" 
			},
			{
				"x": 1.477315871,
				"y": -1.4770921293,
				"z": -1.4185002628,
				"element": "C" 
			},
			{
				"x": 1.3750639729,
				"y": -2.6814155868,
				"z": -1.2826948943,
				"element": "O" 
			},
			{
				"x": 1.5628688306,
				"y": -0.6981690709,
				"z": -0.2448994615,
				"element": "N" 
			},
			{
				"x": 1.6844207592,
				"y": 0.6843528204,
				"z": -0.1087383534,
				"element": "C" 
			},
			{
				"x": 1.7361320793,
				"y": 1.4602209851,
				"z": -1.0461249231,
				"element": "O" 
			},
			{
				"x": 1.7396860556,
				"y": 1.0717178673,
				"z": 1.2297616586,
				"element": "N" 
			},
			{
				"x": 1.8602243795,
				"y": 2.3646145788,
				"z": 1.7822773676,
				"element": "C" 
			},
			{
				"x": 1.9466740882,
				"y": 3.5465825745,
				"z": 0.8516909677,
				"element": "C" 
			},
			{
				"x": 1.8882204214,
				"y": 2.4528084516,
				"z": 2.9950140151,
				"element": "O" 
			},
			{
				"x": 1.4389259081,
				"y": -1.5507607897,
				"z": -3.524479016,
				"element": "H" 
			},
			{
				"x": 0.6998004918,
				"y": -0.0627077918,
				"z": -2.8455601452,
				"element": "H" 
			},
			{
				"x": 2.4411804252,
				"y": -0.2122817314,
				"z": -2.8720195657,
				"element": "H" 
			},
			{
				"x": 1.5252496756,
				"y": -1.2819930398,
				"z": 0.5823228333,
				"element": "H" 
			},
			{
				"x": 1.6913680503,
				"y": 0.3685059845,
				"z": 1.9575815184,
				"element": "H" 
			},
			{
				"x": 2.0339173481,
				"y": 4.4413865279,
				"z": 1.4677758314,
				"element": "H" 
			},
			{
				"x": 1.0637455369,
				"y": 3.6045532116,
				"z": 0.2107492497,
				"element": "H" 
			},
			{
				"x": 2.8050505984,
				"y": 3.4545314003,
				"z": 0.1820251518,
				"element": "H" 
			}
		],
		 "valence_orbital": [ 
			{
				"type": "occ",
				"energy": -0.30249,
				"method": "rhf"
			},
			{
				"type": "occ",
				"energy": -0.3006,
				"method": "rhf"
			},
			{
				"type": "occ",
				"energy": -0.29658,
				"method": "rhf"
			},
			{
				"type": "occ",
				"energy": -0.28315,
				"method": "rhf"
			},
			{
				"type": "occ",
				"energy": -0.27178,
				"method": "rhf"
			},
			{
				"type": "unocc",
				"energy": -0.03837,
				"method": "rhf"
			},
			{
				"type": "unocc",
				"energy": 0.00332,
				"method": "rhf"
			},
			{
				"type": "unocc",
				"energy": 0.04162,
				"method": "rhf"
			},
			{
				"type": "unocc",
				"energy": 0.05381,
				"method": "rhf"
			},
			{
				"type": "unocc",
				"energy": 0.1154,
				"method": "rhf"
			}
		],
		"cosmo_sigma_profile": { 
			"-0.025": 0.0,
			"-0.024": 0.0,
			"-0.023": 0.0,
			"-0.022": 0.0,
			"-0.021": 0.0758093853786,
			"-0.02": 0.794582978303,
			"-0.019": 1.2809609146,
			"-0.018": 1.20792549603,
			"-0.017": 1.09764236307,
			"-0.016": 1.71599797359,
			"-0.015": 1.14721501652,
			"-0.014": 1.24032983119,
			"-0.013": 0.896914488131,
			"-0.012": 1.16186110774,
			"-0.011": 1.06719599978,
			"-0.01": 1.5730830798,
			"-0.009": 0.960586082501,
			"-0.008": 0.778620961398,
			"-0.007": 1.0207914277,
			"-0.006": 7.56846786792,
			"-0.005": 14.4829196656,
			"-0.004": 14.4236438396,
			"-0.003": 18.4013403672,
			"-0.002": 20.6209967947,
			"-0.001": 17.2080871075,
			"0.0": 6.46819410367,
			"0.001": 4.80931880747,
			"0.002": 5.17428667034,
			"0.003": 4.22695966954,
			"0.004": 3.84303016341,
			"0.005": 4.60202128144,
			"0.006": 4.66932687472,
			"0.007": 2.4767754826,
			"0.008": 4.14325254748,
			"0.009": 4.93142776383,
			"0.01": 5.23279237019,
			"0.011": 9.22608077463,
			"0.012": 10.3300887976,
			"0.013": 2.86608999432,
			"0.014": 0.186055673545,
			"0.015": 0.0,
			"0.016": 0.0,
			"0.017": 0.0,
			"0.018": 0.0,
			"0.019": 0.0,
			"0.02": 0.0,
			"0.021": 0.0,
			"0.022": 0.0,
			"0.023": 0.0,
			"0.024": 0.0,
			"0.025": 0.0
		}
	}
}
