{
	 "smiles": "NNC=O", 
	 "Tm": 329.15, 
	 "num_atms": 8, 
	 "gaussian": { 
		 "optdone": 1, 
		 "sigma_profile": "yes", 
		 "theory": "DFT", 
		 "functional": "B3LYP", 
		 "basiset": "6-31G**", 
		 "properties": { 
			 "R2extent": 745.0145, 
			 "electric_dipole_moment_norm": 2.33495892897, 
			 "electric_quadrupole_moment_norm": 10.6360618704, 
			 "total_energy": -225.212162367, 
			 "HOMO_LUMO_gap": 0.28192, 
			 "cosmo_polarized_energy": -11.7, 
			 "cosmo_cavitation_energy": 12.04, 
			 "cosmo_dispersion_energy": -8.96, 
			 "cosmo_repulsion_energy": 0.85, 
			 "cosmo_total_nonelectrostatic_energy": 3.93, 
			 "SMD_solvation_energy": 4.42 
		},
		"coords": [
			{
				"x": 1.3748525451,
				"y": 1.0869230359,
				"z": -0.0920527455,
				"element": "N" 
			},
			{
				"x": 1.0061018143,
				"y": 1.8376520406,
				"z": -1.2237091565,
				"element": "N" 
			},
			{
				"x": -0.2229051719,
				"y": 2.4071409082,
				"z": -1.3596698542,
				"element": "C" 
			},
			{
				"x": -1.112536069,
				"y": 2.3256884531,
				"z": -0.5304263877,
				"element": "O" 
			},
			{
				"x": 1.2431253212,
				"y": 1.6810731167,
				"z": 0.7264197208,
				"element": "H" 
			},
			{
				"x": 0.6972125281,
				"y": 0.3313668061,
				"z": 0.0089669301,
				"element": "H" 
			},
			{
				"x": 1.7120185475,
				"y": 1.9322457473,
				"z": -1.9389732007,
				"element": "H" 
			},
			{
				"x": -0.3184695153,
				"y": 2.954909892,
				"z": -2.3184553063,
				"element": "H" 
			}
		],
		 "valence_orbital": [ 
			{
				"type": "occ",
				"energy": -0.41394,
				"method": "rhf"
			},
			{
				"type": "occ",
				"energy": -0.39164,
				"method": "rhf"
			},
			{
				"type": "occ",
				"energy": -0.28505,
				"method": "rhf"
			},
			{
				"type": "occ",
				"energy": -0.26765,
				"method": "rhf"
			},
			{
				"type": "occ",
				"energy": -0.25964,
				"method": "rhf"
			},
			{
				"type": "unocc",
				"energy": 0.02228,
				"method": "rhf"
			},
			{
				"type": "unocc",
				"energy": 0.07862,
				"method": "rhf"
			},
			{
				"type": "unocc",
				"energy": 0.08943,
				"method": "rhf"
			},
			{
				"type": "unocc",
				"energy": 0.13361,
				"method": "rhf"
			},
			{
				"type": "unocc",
				"energy": 0.15669,
				"method": "rhf"
			}
		],
		"cosmo_sigma_profile": { 
			"-0.025": 0.0,
			"-0.024": 0.0,
			"-0.023": 0.0,
			"-0.022": 0.0,
			"-0.021": 0.0,
			"-0.02": 0.0,
			"-0.019": 0.0,
			"-0.018": 0.0,
			"-0.017": 0.0,
			"-0.016": 0.0,
			"-0.015": 0.793948506046,
			"-0.014": 1.71662884196,
			"-0.013": 1.25330518041,
			"-0.012": 1.55089349805,
			"-0.011": 4.39189306133,
			"-0.01": 3.07627686582,
			"-0.009": 3.56147739495,
			"-0.008": 3.96588149528,
			"-0.007": 5.34893282254,
			"-0.006": 4.03619459214,
			"-0.005": 3.69554063071,
			"-0.004": 3.51028956955,
			"-0.003": 4.34620566523,
			"-0.002": 4.01120838255,
			"-0.001": 5.47447429026,
			"0.0": 3.92686938642,
			"0.001": 4.59035832362,
			"0.002": 3.1991779585,
			"0.003": 1.55153057217,
			"0.004": 1.92978791314,
			"0.005": 1.81126747939,
			"0.006": 1.96819154129,
			"0.007": 1.68659115943,
			"0.008": 1.53693760979,
			"0.009": 2.52482317333,
			"0.01": 2.23240423779,
			"0.011": 1.71020202955,
			"0.012": 3.04545359776,
			"0.013": 5.61494167548,
			"0.014": 3.93133341278,
			"0.015": 1.77349219988,
			"0.016": 0.476820705661,
			"0.017": 0.138546269207,
			"0.018": 0.0,
			"0.019": 0.0,
			"0.02": 0.0,
			"0.021": 0.0,
			"0.022": 0.0,
			"0.023": 0.0,
			"0.024": 0.0,
			"0.025": 0.0
		}
	}
}
