{
	 "smiles": "CS(=O)(=O)C1=CC=C(OCCCCC(O)=O)C=C1", 
	 "Tm": 399.15, 
	 "num_atms": 34, 
	 "gaussian": { 
		 "optdone": 1, 
		 "sigma_profile": "yes", 
		 "theory": "DFT", 
		 "functional": "B3LYP", 
		 "basiset": "6-31G**", 
		 "properties": { 
			 "R2extent": 10714.9925, 
			 "electric_dipole_moment_norm": 6.33286880095, 
			 "electric_quadrupole_moment_norm": 32.4889588898, 
			 "total_energy": -1241.16822186, 
			 "HOMO_LUMO_gap": 0.21436, 
			 "cosmo_polarized_energy": -28.87, 
			 "cosmo_cavitation_energy": 39.72, 
			 "cosmo_dispersion_energy": -28.2, 
			 "cosmo_repulsion_energy": 2.18, 
			 "cosmo_total_nonelectrostatic_energy": 13.7, 
			 "SMD_solvation_energy": 7.55 
		},
		"coords": [
			{
				"x": -0.0523205189,
				"y": -5.8134168814,
				"z": -2.8070980141,
				"element": "C" 
			},
			{
				"x": 0.9936061805,
				"y": -5.4154982796,
				"z": -1.3849450159,
				"element": "S" 
			},
			{
				"x": 0.3931174793,
				"y": -6.0615764407,
				"z": -0.2066082051,
				"element": "O" 
			},
			{
				"x": 2.385503211,
				"y": -5.6871753152,
				"z": -1.777886525,
				"element": "O" 
			},
			{
				"x": 0.8100741603,
				"y": -3.6426281303,
				"z": -1.1940177422,
				"element": "C" 
			},
			{
				"x": -0.1671995838,
				"y": -3.1402889769,
				"z": -0.3367864726,
				"element": "C" 
			},
			{
				"x": -0.3129405331,
				"y": -1.7624163824,
				"z": -0.1745900961,
				"element": "C" 
			},
			{
				"x": 0.5287033339,
				"y": -0.8878757999,
				"z": -0.8791872884,
				"element": "C" 
			},
			{
				"x": 0.4761709457,
				"y": 0.4700868056,
				"z": -0.8170147377,
				"element": "O" 
			},
			{
				"x": -0.4568615093,
				"y": 1.1216626894,
				"z": 0.0548776456,
				"element": "C" 
			},
			{
				"x": 0.0361801854,
				"y": 1.1916534047,
				"z": 1.5010502708,
				"element": "C" 
			},
			{
				"x": 1.3581751077,
				"y": 1.9556530858,
				"z": 1.6468427782,
				"element": "C" 
			},
			{
				"x": 1.8575862153,
				"y": 1.9902592862,
				"z": 3.1038307059,
				"element": "C" 
			},
			{
				"x": 3.1312138939,
				"y": 2.8073589129,
				"z": 3.282426521,
				"element": "C" 
			},
			{
				"x": 4.228155124,
				"y": 2.3427283955,
				"z": 2.6208269954,
				"element": "O" 
			},
			{
				"x": 3.2078844129,
				"y": 3.8119899707,
				"z": 3.942693507,
				"element": "O" 
			},
			{
				"x": 1.5188534293,
				"y": -1.4057597479,
				"z": -1.7335239722,
				"element": "C" 
			},
			{
				"x": 1.6626572521,
				"y": -2.7763808219,
				"z": -1.8891391136,
				"element": "C" 
			},
			{
				"x": 0.0358478429,
				"y": -6.8911433002,
				"z": -2.9594167952,
				"element": "H" 
			},
			{
				"x": -1.0849424507,
				"y": -5.5448689781,
				"z": -2.5802921311,
				"element": "H" 
			},
			{
				"x": 0.311779357,
				"y": -5.2753744029,
				"z": -3.6833860516,
				"element": "H" 
			},
			{
				"x": -0.7956162595,
				"y": -3.8274943354,
				"z": 0.220108651,
				"element": "H" 
			},
			{
				"x": -1.0699114522,
				"y": -1.3894908488,
				"z": 0.5041200857,
				"element": "H" 
			},
			{
				"x": -0.5542191195,
				"y": 2.1288973629,
				"z": -0.3609382693,
				"element": "H" 
			},
			{
				"x": -1.4398022806,
				"y": 0.640782087,
				"z": -0.0105572173,
				"element": "H" 
			},
			{
				"x": 0.1468649214,
				"y": 0.1778995371,
				"z": 1.9050474825,
				"element": "H" 
			},
			{
				"x": -0.7448437091,
				"y": 1.6812390522,
				"z": 2.0976099259,
				"element": "H" 
			},
			{
				"x": 1.2296492297,
				"y": 2.9838431009,
				"z": 1.2856661882,
				"element": "H" 
			},
			{
				"x": 2.106541054,
				"y": 1.4929688012,
				"z": 0.9918817446,
				"element": "H" 
			},
			{
				"x": 2.0361892296,
				"y": 0.9658202502,
				"z": 3.4595209963,
				"element": "H" 
			},
			{
				"x": 1.1045482405,
				"y": 2.4376405976,
				"z": 3.7566331724,
				"element": "H" 
			},
			{
				"x": 4.0193514872,
				"y": 1.5218784056,
				"z": 2.1531546805,
				"element": "H" 
			},
			{
				"x": 2.1638813702,
				"y": -0.7084031919,
				"z": -2.2574920323,
				"element": "H" 
			},
			{
				"x": 2.4413237526,
				"y": -3.1824699116,
				"z": -2.5263116711,
				"element": "H" 
			}
		],
		 "valence_orbital": [ 
			{
				"type": "occ",
				"energy": -0.2949,
				"method": "rhf"
			},
			{
				"type": "occ",
				"energy": -0.28768,
				"method": "rhf"
			},
			{
				"type": "occ",
				"energy": -0.28023,
				"method": "rhf"
			},
			{
				"type": "occ",
				"energy": -0.2709,
				"method": "rhf"
			},
			{
				"type": "occ",
				"energy": -0.24965,
				"method": "rhf"
			},
			{
				"type": "unocc",
				"energy": -0.03529,
				"method": "rhf"
			},
			{
				"type": "unocc",
				"energy": -0.03037,
				"method": "rhf"
			},
			{
				"type": "unocc",
				"energy": 0.00513,
				"method": "rhf"
			},
			{
				"type": "unocc",
				"energy": 0.04177,
				"method": "rhf"
			},
			{
				"type": "unocc",
				"energy": 0.05924,
				"method": "rhf"
			}
		],
		"cosmo_sigma_profile": { 
			"-0.025": 0.0,
			"-0.024": 0.0,
			"-0.023": 0.0,
			"-0.022": 0.0,
			"-0.021": 0.0,
			"-0.02": 0.0,
			"-0.019": 0.0969585071737,
			"-0.018": 0.69964604647,
			"-0.017": 0.915822775177,
			"-0.016": 1.26843062563,
			"-0.015": 1.25056994367,
			"-0.014": 0.649055652313,
			"-0.013": 1.24937647256,
			"-0.012": 1.35149620728,
			"-0.011": 0.974911905116,
			"-0.01": 1.02254102148,
			"-0.009": 1.89623220717,
			"-0.008": 8.83416843531,
			"-0.007": 14.9147822432,
			"-0.006": 20.3480178401,
			"-0.005": 26.076205553,
			"-0.004": 35.3946428959,
			"-0.003": 26.732144057,
			"-0.002": 16.9979667443,
			"-0.001": 13.6078125368,
			"0.0": 11.3172229425,
			"0.001": 11.8952218228,
			"0.002": 18.8687160741,
			"0.003": 15.8713832069,
			"0.004": 7.352787485,
			"0.005": 5.73523684598,
			"0.006": 5.92540997358,
			"0.007": 5.19912504586,
			"0.008": 5.70116292633,
			"0.009": 8.02097027184,
			"0.01": 8.58488249201,
			"0.011": 13.7521388247,
			"0.012": 15.2931348201,
			"0.013": 5.60386095191,
			"0.014": 0.206329063706,
			"0.015": 0.0,
			"0.016": 0.0,
			"0.017": 0.0,
			"0.018": 0.0,
			"0.019": 0.0,
			"0.02": 0.0,
			"0.021": 0.0,
			"0.022": 0.0,
			"0.023": 0.0,
			"0.024": 0.0,
			"0.025": 0.0
		}
	}
}
