{
	 "smiles": "CC1=C(C)SC(=O)N1", 
	 "Tm": 420.15, 
	 "num_atms": 15, 
	 "gaussian": { 
		 "optdone": 1, 
		 "sigma_profile": "yes", 
		 "theory": "DFT", 
		 "functional": "B3LYP", 
		 "basiset": "6-31G**", 
		 "properties": { 
			 "R2extent": 1693.5796, 
			 "electric_dipole_moment_norm": 4.9527558258, 
			 "electric_quadrupole_moment_norm": 12.5484812738, 
			 "total_energy": -722.930607314, 
			 "HOMO_LUMO_gap": 0.21827, 
			 "cosmo_polarized_energy": -11.47, 
			 "cosmo_cavitation_energy": 20.19, 
			 "cosmo_dispersion_energy": -15.64, 
			 "cosmo_repulsion_energy": 1.26, 
			 "cosmo_total_nonelectrostatic_energy": 5.82, 
			 "SMD_solvation_energy": 4.42 
		},
		"coords": [
			{
				"x": -0.9336963138,
				"y": -0.2921817516,
				"z": -0.53583609,
				"element": "C" 
			},
			{
				"x": 0.3333491953,
				"y": 0.2371988019,
				"z": 0.0622160733,
				"element": "C" 
			},
			{
				"x": 1.6120433133,
				"y": 0.0476752904,
				"z": -0.3347733305,
				"element": "C" 
			},
			{
				"x": 2.1402031053,
				"y": -0.7466579166,
				"z": -1.4886010741,
				"element": "C" 
			},
			{
				"x": 2.7440318909,
				"y": 0.9065526028,
				"z": 0.7335025409,
				"element": "S" 
			},
			{
				"x": 1.3874299971,
				"y": 1.5428459301,
				"z": 1.7555250645,
				"element": "C" 
			},
			{
				"x": 1.4843869296,
				"y": 2.2552878416,
				"z": 2.731040848,
				"element": "O" 
			},
			{
				"x": 0.2264229172,
				"y": 1.050430809,
				"z": 1.1976785558,
				"element": "N" 
			},
			{
				"x": -1.5954262481,
				"y": 0.5247338299,
				"z": -0.8492584005,
				"element": "H" 
			},
			{
				"x": -1.4863206756,
				"y": -0.9061277998,
				"z": 0.1860694409,
				"element": "H" 
			},
			{
				"x": -0.7290489842,
				"y": -0.9097513173,
				"z": -1.4109004403,
				"element": "H" 
			},
			{
				"x": 2.7044169664,
				"y": -0.1154481789,
				"z": -2.1851015763,
				"element": "H" 
			},
			{
				"x": 1.3267720175,
				"y": -1.2142211857,
				"z": -2.0489035094,
				"element": "H" 
			},
			{
				"x": 2.8136459807,
				"y": -1.5435401474,
				"z": -1.1519602726,
				"element": "H" 
			},
			{
				"x": -0.6542100916,
				"y": 1.2948031917,
				"z": 1.6287021702,
				"element": "H" 
			}
		],
		 "valence_orbital": [ 
			{
				"type": "occ",
				"energy": -0.34515,
				"method": "rhf"
			},
			{
				"type": "occ",
				"energy": -0.32685,
				"method": "rhf"
			},
			{
				"type": "occ",
				"energy": -0.2837,
				"method": "rhf"
			},
			{
				"type": "occ",
				"energy": -0.26249,
				"method": "rhf"
			},
			{
				"type": "occ",
				"energy": -0.20717,
				"method": "rhf"
			},
			{
				"type": "unocc",
				"energy": 0.0111,
				"method": "rhf"
			},
			{
				"type": "unocc",
				"energy": 0.01533,
				"method": "rhf"
			},
			{
				"type": "unocc",
				"energy": 0.04247,
				"method": "rhf"
			},
			{
				"type": "unocc",
				"energy": 0.06731,
				"method": "rhf"
			},
			{
				"type": "unocc",
				"energy": 0.09386,
				"method": "rhf"
			}
		],
		"cosmo_sigma_profile": { 
			"-0.025": 0.0,
			"-0.024": 0.0,
			"-0.023": 0.0,
			"-0.022": 0.0,
			"-0.021": 0.0,
			"-0.02": 0.0,
			"-0.019": 0.0,
			"-0.018": 0.0,
			"-0.017": 0.0,
			"-0.016": 0.693089308531,
			"-0.015": 1.37809872237,
			"-0.014": 0.890630773309,
			"-0.013": 1.1250893963,
			"-0.012": 1.03640871472,
			"-0.011": 1.31496290431,
			"-0.01": 0.843674509652,
			"-0.009": 0.98127663477,
			"-0.008": 0.9856653491,
			"-0.007": 2.40885568196,
			"-0.006": 5.53799062672,
			"-0.005": 9.71604758383,
			"-0.004": 11.9115689831,
			"-0.003": 13.7724620087,
			"-0.002": 14.4599772414,
			"-0.001": 16.0523897052,
			"0.0": 13.7531659917,
			"0.001": 11.1407077895,
			"0.002": 10.3044180021,
			"0.003": 9.53226908817,
			"0.004": 8.10668757654,
			"0.005": 4.63520402799,
			"0.006": 3.53327649663,
			"0.007": 1.51241580748,
			"0.008": 0.979794587571,
			"0.009": 1.37681705213,
			"0.01": 1.78102759454,
			"0.011": 1.83988513047,
			"0.012": 5.30075857209,
			"0.013": 4.99272773819,
			"0.014": 0.349822812,
			"0.015": 0.0,
			"0.016": 0.0,
			"0.017": 0.0,
			"0.018": 0.0,
			"0.019": 0.0,
			"0.02": 0.0,
			"0.021": 0.0,
			"0.022": 0.0,
			"0.023": 0.0,
			"0.024": 0.0,
			"0.025": 0.0
		}
	}
}
