{
	 "smiles": "CN(C=C)C(C)=O", 
	 "Tm": 237.15, 
	 "num_atms": 16, 
	 "gaussian": { 
		 "optdone": 1, 
		 "sigma_profile": "yes", 
		 "theory": "DFT", 
		 "functional": "B3LYP", 
		 "basiset": "6-31G**", 
		 "properties": { 
			 "R2extent": 1586.4559, 
			 "electric_dipole_moment_norm": 3.52825728937, 
			 "electric_quadrupole_moment_norm": 11.8247922142, 
			 "total_energy": -325.923277084, 
			 "HOMO_LUMO_gap": 0.21883, 
			 "cosmo_polarized_energy": -8.97, 
			 "cosmo_cavitation_energy": 19.16, 
			 "cosmo_dispersion_energy": -13.95, 
			 "cosmo_repulsion_energy": 1.16, 
			 "cosmo_total_nonelectrostatic_energy": 6.37, 
			 "SMD_solvation_energy": 5.27 
		},
		"coords": [
			{
				"x": -0.2260386669,
				"y": -1.6659758756,
				"z": -0.0825259136,
				"element": "C" 
			},
			{
				"x": -0.1280103325,
				"y": -1.2947213442,
				"z": 1.3215118414,
				"element": "N" 
			},
			{
				"x": -1.3098877821,
				"y": -1.2734594531,
				"z": 2.0763466397,
				"element": "C" 
			},
			{
				"x": -2.5344102221,
				"y": -1.5657078338,
				"z": 1.6217975033,
				"element": "C" 
			},
			{
				"x": 1.0665037711,
				"y": -0.9592136106,
				"z": 1.9623508996,
				"element": "C" 
			},
			{
				"x": 2.3444392771,
				"y": -0.9845151825,
				"z": 1.1376400954,
				"element": "C" 
			},
			{
				"x": 1.0896388102,
				"y": -0.6549107212,
				"z": 3.1462002142,
				"element": "O" 
			},
			{
				"x": 0.7505218844,
				"y": -1.645737965,
				"z": -0.5584054802,
				"element": "H" 
			},
			{
				"x": -0.8877795316,
				"y": -0.9722583997,
				"z": -0.6142971904,
				"element": "H" 
			},
			{
				"x": -0.6414023372,
				"y": -2.6757750303,
				"z": -0.1810646144,
				"element": "H" 
			},
			{
				"x": -1.1309589204,
				"y": -0.9862479844,
				"z": 3.1050101923,
				"element": "H" 
			},
			{
				"x": -2.7479383858,
				"y": -1.8562725912,
				"z": 0.5997014895,
				"element": "H" 
			},
			{
				"x": -3.3754316062,
				"y": -1.514023348,
				"z": 2.3027320753,
				"element": "H" 
			},
			{
				"x": 3.1573123234,
				"y": -0.6977178594,
				"z": 1.8037185177,
				"element": "H" 
			},
			{
				"x": 2.3070141844,
				"y": -0.2803619647,
				"z": 0.3000311497,
				"element": "H" 
			},
			{
				"x": 2.5524275341,
				"y": -1.9802008363,
				"z": 0.7324525804,
				"element": "H" 
			}
		],
		 "valence_orbital": [ 
			{
				"type": "occ",
				"energy": -0.37126,
				"method": "rhf"
			},
			{
				"type": "occ",
				"energy": -0.36765,
				"method": "rhf"
			},
			{
				"type": "occ",
				"energy": -0.30805,
				"method": "rhf"
			},
			{
				"type": "occ",
				"energy": -0.25383,
				"method": "rhf"
			},
			{
				"type": "occ",
				"energy": -0.21978,
				"method": "rhf"
			},
			{
				"type": "unocc",
				"energy": -0.00095,
				"method": "rhf"
			},
			{
				"type": "unocc",
				"energy": 0.06077,
				"method": "rhf"
			},
			{
				"type": "unocc",
				"energy": 0.08542,
				"method": "rhf"
			},
			{
				"type": "unocc",
				"energy": 0.11563,
				"method": "rhf"
			},
			{
				"type": "unocc",
				"energy": 0.13314,
				"method": "rhf"
			}
		],
		"cosmo_sigma_profile": { 
			"-0.025": 0.0,
			"-0.024": 0.0,
			"-0.023": 0.0,
			"-0.022": 0.0,
			"-0.021": 0.0,
			"-0.02": 0.0,
			"-0.019": 0.0,
			"-0.018": 0.0,
			"-0.017": 0.0,
			"-0.016": 0.0,
			"-0.015": 0.0,
			"-0.014": 0.0,
			"-0.013": 0.0,
			"-0.012": 0.0,
			"-0.011": 0.0,
			"-0.01": 0.0,
			"-0.009": 0.0,
			"-0.008": 0.0,
			"-0.007": 2.91253123841,
			"-0.006": 9.05700675113,
			"-0.005": 15.1504347524,
			"-0.004": 16.8842785001,
			"-0.003": 17.6792488964,
			"-0.002": 15.7661141066,
			"-0.001": 12.3273021162,
			"0.0": 7.89460834343,
			"0.001": 7.33361964404,
			"0.002": 7.43268776013,
			"0.003": 5.3815068395,
			"0.004": 5.11795579916,
			"0.005": 4.841480071,
			"0.006": 3.65792895779,
			"0.007": 3.98418232901,
			"0.008": 1.87632167872,
			"0.009": 1.24352369733,
			"0.01": 1.51602755206,
			"0.011": 1.61950453073,
			"0.012": 2.84475397217,
			"0.013": 4.46573004623,
			"0.014": 1.91124761287,
			"0.015": 0.216865180606,
			"0.016": 0.0,
			"0.017": 0.0,
			"0.018": 0.0,
			"0.019": 0.0,
			"0.02": 0.0,
			"0.021": 0.0,
			"0.022": 0.0,
			"0.023": 0.0,
			"0.024": 0.0,
			"0.025": 0.0
		}
	}
}
