{
	 "smiles": "OC1COC(=O)C1O", 
	 "Tm": 373.15, 
	 "num_atms": 14, 
	 "gaussian": { 
		 "optdone": 1, 
		 "sigma_profile": "yes", 
		 "theory": "DFT", 
		 "functional": "B3LYP", 
		 "basiset": "6-31G**", 
		 "properties": { 
			 "R2extent": 1424.7148, 
			 "electric_dipole_moment_norm": 1.69346145217, 
			 "electric_quadrupole_moment_norm": 12.2354289389, 
			 "total_energy": -456.911648205, 
			 "HOMO_LUMO_gap": 0.24997, 
			 "cosmo_polarized_energy": -14.51, 
			 "cosmo_cavitation_energy": 17.77, 
			 "cosmo_dispersion_energy": -13.46, 
			 "cosmo_repulsion_energy": 1.15, 
			 "cosmo_total_nonelectrostatic_energy": 5.45, 
			 "SMD_solvation_energy": 4.16 
		},
		"coords": [
			{
				"x": -2.6848209873,
				"y": -1.8160930174,
				"z": -0.9294999964,
				"element": "O" 
			},
			{
				"x": -1.3828735345,
				"y": -1.4035022381,
				"z": -0.5502024776,
				"element": "C" 
			},
			{
				"x": -0.8693060007,
				"y": -2.1468018114,
				"z": 0.6910463873,
				"element": "C" 
			},
			{
				"x": -1.3868706285,
				"y": -1.3938742693,
				"z": 1.8180493961,
				"element": "O" 
			},
			{
				"x": -1.6266398981,
				"y": -0.1042737699,
				"z": 1.448331964,
				"element": "C" 
			},
			{
				"x": -1.9418548948,
				"y": 0.7578159866,
				"z": 2.2280714616,
				"element": "O" 
			},
			{
				"x": -1.3604124625,
				"y": 0.0466232206,
				"z": -0.0598205021,
				"element": "C" 
			},
			{
				"x": -0.0489687846,
				"y": 0.567820622,
				"z": -0.2334532788,
				"element": "O" 
			},
			{
				"x": -3.2560866192,
				"y": -1.7995721537,
				"z": -0.1486876771,
				"element": "H" 
			},
			{
				"x": -0.7407427564,
				"y": -1.5437956406,
				"z": -1.4217128411,
				"element": "H" 
			},
			{
				"x": -1.2523669579,
				"y": -3.1663974734,
				"z": 0.7595254771,
				"element": "H" 
			},
			{
				"x": 0.2233573777,
				"y": -2.1500580173,
				"z": 0.7461043905,
				"element": "H" 
			},
			{
				"x": -2.1283274943,
				"y": 0.6594253909,
				"z": -0.5458272136,
				"element": "H" 
			},
			{
				"x": -0.001586359,
				"y": 1.4087831709,
				"z": 0.2431749099,
				"element": "H" 
			}
		],
		 "valence_orbital": [ 
			{
				"type": "occ",
				"energy": -0.3528,
				"method": "rhf"
			},
			{
				"type": "occ",
				"energy": -0.32029,
				"method": "rhf"
			},
			{
				"type": "occ",
				"energy": -0.31087,
				"method": "rhf"
			},
			{
				"type": "occ",
				"energy": -0.2932,
				"method": "rhf"
			},
			{
				"type": "occ",
				"energy": -0.26734,
				"method": "rhf"
			},
			{
				"type": "unocc",
				"energy": -0.01737,
				"method": "rhf"
			},
			{
				"type": "unocc",
				"energy": 0.06449,
				"method": "rhf"
			},
			{
				"type": "unocc",
				"energy": 0.07262,
				"method": "rhf"
			},
			{
				"type": "unocc",
				"energy": 0.10759,
				"method": "rhf"
			},
			{
				"type": "unocc",
				"energy": 0.10961,
				"method": "rhf"
			}
		],
		"cosmo_sigma_profile": { 
			"-0.025": 0.0,
			"-0.024": 0.0,
			"-0.023": 0.0,
			"-0.022": 0.0,
			"-0.021": 0.0,
			"-0.02": 0.0,
			"-0.019": 0.0,
			"-0.018": 0.0,
			"-0.017": 0.517625733247,
			"-0.016": 2.2268343744,
			"-0.015": 1.90761513981,
			"-0.014": 1.35055954125,
			"-0.013": 2.45734521395,
			"-0.012": 1.87316846176,
			"-0.011": 1.59684185526,
			"-0.01": 1.58994783914,
			"-0.009": 2.48200391026,
			"-0.008": 2.4675807106,
			"-0.007": 10.7461505964,
			"-0.006": 11.019697046,
			"-0.005": 8.94386015895,
			"-0.004": 6.64211216919,
			"-0.003": 6.82502219208,
			"-0.002": 5.22323988983,
			"-0.001": 4.6260389152,
			"0.0": 4.93568810265,
			"0.001": 3.78860507658,
			"0.002": 3.50393770049,
			"0.003": 3.92293452632,
			"0.004": 3.96639754117,
			"0.005": 3.63402484722,
			"0.006": 4.2380069963,
			"0.007": 4.76332049857,
			"0.008": 4.94967369323,
			"0.009": 6.22435201878,
			"0.01": 6.43923305808,
			"0.011": 8.67502233038,
			"0.012": 5.45178640007,
			"0.013": 2.12370708536,
			"0.014": 0.175171798489,
			"0.015": 0.0,
			"0.016": 0.0,
			"0.017": 0.0,
			"0.018": 0.0,
			"0.019": 0.0,
			"0.02": 0.0,
			"0.021": 0.0,
			"0.022": 0.0,
			"0.023": 0.0,
			"0.024": 0.0,
			"0.025": 0.0
		}
	}
}
