{
	 "smiles": "CC1=CC=C2C3=CC=CC=C3C3=CC=CC=C3C2=C1", 
	 "Tm": 373.15, 
	 "num_atms": 33, 
	 "gaussian": { 
		 "optdone": 1, 
		 "sigma_profile": "yes", 
		 "theory": "DFT", 
		 "functional": "B3LYP", 
		 "basiset": "6-31G**", 
		 "properties": { 
			 "R2extent": 4939.6875, 
			 "electric_dipole_moment_norm": 0.504418962768, 
			 "electric_quadrupole_moment_norm": 13.6872768084, 
			 "total_energy": -732.505435356, 
			 "HOMO_LUMO_gap": 0.17701, 
			 "cosmo_polarized_energy": -7.49, 
			 "cosmo_cavitation_energy": 34.74, 
			 "cosmo_dispersion_energy": -26.16, 
			 "cosmo_repulsion_energy": 1.91, 
			 "cosmo_total_nonelectrostatic_energy": 10.49, 
			 "SMD_solvation_energy": 5.09 
		},
		"coords": [
			{
				"x": -0.1364152693,
				"y": 4.8383050881,
				"z": -0.4494031155,
				"element": "C" 
			},
			{
				"x": -0.3426815375,
				"y": 3.3945566036,
				"z": -0.0598080521,
				"element": "C" 
			},
			{
				"x": -1.2130590934,
				"y": 3.0531054946,
				"z": 0.9927976683,
				"element": "C" 
			},
			{
				"x": -1.4018257199,
				"y": 1.7323559814,
				"z": 1.3490117931,
				"element": "C" 
			},
			{
				"x": -0.7400534738,
				"y": 0.6749443922,
				"z": 0.6838704438,
				"element": "C" 
			},
			{
				"x": -0.9445420685,
				"y": -0.7250353296,
				"z": 1.0661652422,
				"element": "C" 
			},
			{
				"x": -1.8145892124,
				"y": -1.0851241192,
				"z": 2.1203649139,
				"element": "C" 
			},
			{
				"x": -2.0130195227,
				"y": -2.4043259463,
				"z": 2.4864128094,
				"element": "C" 
			},
			{
				"x": -1.3380464582,
				"y": -3.4227080117,
				"z": 1.8002103752,
				"element": "C" 
			},
			{
				"x": -0.4805608434,
				"y": -3.0971287981,
				"z": 0.7645345454,
				"element": "C" 
			},
			{
				"x": -0.2593385086,
				"y": -1.7580209545,
				"z": 0.3702047979,
				"element": "C" 
			},
			{
				"x": 0.6518935316,
				"y": -1.420482175,
				"z": -0.7287426441,
				"element": "C" 
			},
			{
				"x": 1.3508759514,
				"y": -2.4203450451,
				"z": -1.4425859337,
				"element": "C" 
			},
			{
				"x": 2.2122371833,
				"y": -2.112226973,
				"z": -2.4802456082,
				"element": "C" 
			},
			{
				"x": 2.4063868085,
				"y": -0.7731878103,
				"z": -2.8442931344,
				"element": "C" 
			},
			{
				"x": 1.7345715003,
				"y": 0.225069713,
				"z": -2.1617940895,
				"element": "C" 
			},
			{
				"x": 0.848983272,
				"y": -0.0615061409,
				"z": -1.0980449334,
				"element": "C" 
			},
			{
				"x": 0.1406595469,
				"y": 1.003527395,
				"z": -0.3794318814,
				"element": "C" 
			},
			{
				"x": 0.31181649,
				"y": 2.3650974316,
				"z": -0.719310998,
				"element": "C" 
			},
			{
				"x": 0.2566461573,
				"y": 5.4248228413,
				"z": 0.3893986972,
				"element": "H" 
			},
			{
				"x": -1.0797979448,
				"y": 5.3074956901,
				"z": -0.7527026666,
				"element": "H" 
			},
			{
				"x": 0.5664675917,
				"y": 4.9330265081,
				"z": -1.2816305137,
				"element": "H" 
			},
			{
				"x": -1.7422094911,
				"y": 3.8357830668,
				"z": 1.5309962659,
				"element": "H" 
			},
			{
				"x": -2.0810953837,
				"y": 1.517209048,
				"z": 2.1649992171,
				"element": "H" 
			},
			{
				"x": -2.3480550999,
				"y": -0.3165479709,
				"z": 2.6662823765,
				"element": "H" 
			},
			{
				"x": -2.6891146939,
				"y": -2.645002692,
				"z": 3.3016268261,
				"element": "H" 
			},
			{
				"x": -1.4843037369,
				"y": -4.4627959547,
				"z": 2.0765226688,
				"element": "H" 
			},
			{
				"x": 0.0288359175,
				"y": -3.9029289402,
				"z": 0.2503399556,
				"element": "H" 
			},
			{
				"x": 1.2184996256,
				"y": -3.4629601302,
				"z": -1.1807589172,
				"element": "H" 
			},
			{
				"x": 2.7329527326,
				"y": -2.9066474372,
				"z": -3.0068474926,
				"element": "H" 
			},
			{
				"x": 3.0795429715,
				"y": -0.5160290064,
				"z": -3.6568865633,
				"element": "H" 
			},
			{
				"x": 1.9023310634,
				"y": 1.2518496352,
				"z": -2.4627651401,
				"element": "H" 
			},
			{
				"x": 0.9804077144,
				"y": 2.6344545462,
				"z": -1.5286869126,
				"element": "H" 
			}
		],
		 "valence_orbital": [ 
			{
				"type": "occ",
				"energy": -0.27614,
				"method": "rhf"
			},
			{
				"type": "occ",
				"energy": -0.27268,
				"method": "rhf"
			},
			{
				"type": "occ",
				"energy": -0.23248,
				"method": "rhf"
			},
			{
				"type": "occ",
				"energy": -0.21365,
				"method": "rhf"
			},
			{
				"type": "occ",
				"energy": -0.2106,
				"method": "rhf"
			},
			{
				"type": "unocc",
				"energy": -0.03359,
				"method": "rhf"
			},
			{
				"type": "unocc",
				"energy": -0.03233,
				"method": "rhf"
			},
			{
				"type": "unocc",
				"energy": -0.02331,
				"method": "rhf"
			},
			{
				"type": "unocc",
				"energy": 0.03248,
				"method": "rhf"
			},
			{
				"type": "unocc",
				"energy": 0.03449,
				"method": "rhf"
			}
		],
		"cosmo_sigma_profile": { 
			"-0.025": 0.0,
			"-0.024": 0.0,
			"-0.023": 0.0,
			"-0.022": 0.0,
			"-0.021": 0.0,
			"-0.02": 0.0,
			"-0.019": 0.0,
			"-0.018": 0.0,
			"-0.017": 0.0,
			"-0.016": 0.0,
			"-0.015": 0.0,
			"-0.014": 0.0,
			"-0.013": 0.0,
			"-0.012": 0.0,
			"-0.011": 0.0,
			"-0.01": 0.0,
			"-0.009": 0.140990187051,
			"-0.008": 3.59578669804,
			"-0.007": 4.82249445888,
			"-0.006": 11.6304373441,
			"-0.005": 18.4132983502,
			"-0.004": 27.0381947848,
			"-0.003": 21.7282674838,
			"-0.002": 21.0018720526,
			"-0.001": 17.6722197353,
			"0.0": 20.3253619221,
			"0.001": 16.9434123933,
			"0.002": 20.2161525227,
			"0.003": 29.4504092081,
			"0.004": 30.1654137404,
			"0.005": 29.7779445782,
			"0.006": 6.66498675947,
			"0.007": 0.0,
			"0.008": 0.0,
			"0.009": 0.0,
			"0.01": 0.0,
			"0.011": 0.0,
			"0.012": 0.0,
			"0.013": 0.0,
			"0.014": 0.0,
			"0.015": 0.0,
			"0.016": 0.0,
			"0.017": 0.0,
			"0.018": 0.0,
			"0.019": 0.0,
			"0.02": 0.0,
			"0.021": 0.0,
			"0.022": 0.0,
			"0.023": 0.0,
			"0.024": 0.0,
			"0.025": 0.0
		}
	}
}
