{
	 "smiles": "CC1=CC=C(C=C1)C(=O)C1=C(Cl)C=CC=C1", 
	 "Tm": 364.15, 
	 "num_atms": 27, 
	 "gaussian": { 
		 "optdone": 1, 
		 "sigma_profile": "yes", 
		 "theory": "DFT", 
		 "functional": "B3LYP", 
		 "basiset": "6-31G**", 
		 "properties": { 
			 "R2extent": 4476.7782, 
			 "electric_dipole_moment_norm": 3.18637365041, 
			 "electric_quadrupole_moment_norm": 16.5656634718, 
			 "total_energy": -1075.54065121, 
			 "HOMO_LUMO_gap": 0.18449, 
			 "cosmo_polarized_energy": -9.47, 
			 "cosmo_cavitation_energy": 32.96, 
			 "cosmo_dispersion_energy": -23.37, 
			 "cosmo_repulsion_energy": 1.82, 
			 "cosmo_total_nonelectrostatic_energy": 11.41, 
			 "SMD_solvation_energy": 5.84 
		},
		"coords": [
			{
				"x": -2.952621724,
				"y": 3.315031503,
				"z": -1.5568985702,
				"element": "C" 
			},
			{
				"x": -2.228084063,
				"y": 2.1430031345,
				"z": -0.9413571049,
				"element": "C" 
			},
			{
				"x": -1.0001151346,
				"y": 1.7027849363,
				"z": -1.4525012733,
				"element": "C" 
			},
			{
				"x": -0.3152575959,
				"y": 0.6421740087,
				"z": -0.8635359997,
				"element": "C" 
			},
			{
				"x": -0.8514059369,
				"y": -0.0144093972,
				"z": 0.2527216405,
				"element": "C" 
			},
			{
				"x": -2.0904295876,
				"y": 0.4112396325,
				"z": 0.7597205122,
				"element": "C" 
			},
			{
				"x": -2.7620214282,
				"y": 1.4761836474,
				"z": 0.1743841556,
				"element": "C" 
			},
			{
				"x": -0.1963758476,
				"y": -1.1929399084,
				"z": 0.8868658058,
				"element": "C" 
			},
			{
				"x": -0.8013378927,
				"y": -1.9148695266,
				"z": 1.6681879121,
				"element": "O" 
			},
			{
				"x": 1.2172108334,
				"y": -1.5760327346,
				"z": 0.500086736,
				"element": "C" 
			},
			{
				"x": 2.3528138069,
				"y": -0.7828533181,
				"z": 0.7125207042,
				"element": "C" 
			},
			{
				"x": 2.2215367475,
				"y": 0.7931386859,
				"z": 1.4877624566,
				"element": "Cl" 
			},
			{
				"x": 3.6287511106,
				"y": -1.2336170896,
				"z": 0.3694768651,
				"element": "C" 
			},
			{
				"x": 3.7831159836,
				"y": -2.4966361331,
				"z": -0.1994236752,
				"element": "C" 
			},
			{
				"x": 2.6692325153,
				"y": -3.3136295534,
				"z": -0.4023819196,
				"element": "C" 
			},
			{
				"x": 1.4046357083,
				"y": -2.8575897201,
				"z": -0.0412674469,
				"element": "C" 
			},
			{
				"x": -4.0337430056,
				"y": 3.1461045357,
				"z": -1.5861913218,
				"element": "H" 
			},
			{
				"x": -2.6093723271,
				"y": 3.5090941225,
				"z": -2.576837639,
				"element": "H" 
			},
			{
				"x": -2.7849159168,
				"y": 4.2292049202,
				"z": -0.9737562381,
				"element": "H" 
			},
			{
				"x": -0.5759833572,
				"y": 2.1969964679,
				"z": -2.3226767448,
				"element": "H" 
			},
			{
				"x": 0.6322909977,
				"y": 0.3169793799,
				"z": -1.2808253652,
				"element": "H" 
			},
			{
				"x": -2.506029526,
				"y": -0.1141747633,
				"z": 1.6131132885,
				"element": "H" 
			},
			{
				"x": -3.7176565388,
				"y": 1.7982274358,
				"z": 0.5808420022,
				"element": "H" 
			},
			{
				"x": 4.4873853758,
				"y": -0.5990311532,
				"z": 0.5592168866,
				"element": "H" 
			},
			{
				"x": 4.7758799874,
				"y": -2.8430115529,
				"z": -0.4706700334,
				"element": "H" 
			},
			{
				"x": 2.7865680707,
				"y": -4.3040289858,
				"z": -0.8310723578,
				"element": "H" 
			},
			{
				"x": 0.5328287447,
				"y": -3.4908385738,
				"z": -0.1723032757,
				"element": "H" 
			}
		],
		 "valence_orbital": [ 
			{
				"type": "occ",
				"energy": -0.27111,
				"method": "rhf"
			},
			{
				"type": "occ",
				"energy": -0.25734,
				"method": "rhf"
			},
			{
				"type": "occ",
				"energy": -0.25322,
				"method": "rhf"
			},
			{
				"type": "occ",
				"energy": -0.24817,
				"method": "rhf"
			},
			{
				"type": "occ",
				"energy": -0.24567,
				"method": "rhf"
			},
			{
				"type": "unocc",
				"energy": -0.06118,
				"method": "rhf"
			},
			{
				"type": "unocc",
				"energy": -0.01941,
				"method": "rhf"
			},
			{
				"type": "unocc",
				"energy": -0.01781,
				"method": "rhf"
			},
			{
				"type": "unocc",
				"energy": -0.00575,
				"method": "rhf"
			},
			{
				"type": "unocc",
				"energy": 0.02728,
				"method": "rhf"
			}
		],
		"cosmo_sigma_profile": { 
			"-0.025": 0.0,
			"-0.024": 0.0,
			"-0.023": 0.0,
			"-0.022": 0.0,
			"-0.021": 0.0,
			"-0.02": 0.0,
			"-0.019": 0.0,
			"-0.018": 0.0,
			"-0.017": 0.0,
			"-0.016": 0.0,
			"-0.015": 0.0,
			"-0.014": 0.0,
			"-0.013": 0.0,
			"-0.012": 0.0,
			"-0.011": 0.0,
			"-0.01": 0.0,
			"-0.009": 0.0,
			"-0.008": 0.510654091966,
			"-0.007": 6.38385779381,
			"-0.006": 13.2996674618,
			"-0.005": 20.5593927137,
			"-0.004": 22.7800905651,
			"-0.003": 18.5488862207,
			"-0.002": 21.1963293351,
			"-0.001": 21.1378197294,
			"0.0": 24.0147622124,
			"0.001": 20.4264227512,
			"0.002": 21.5912751871,
			"0.003": 27.1871807023,
			"0.004": 23.2331635598,
			"0.005": 8.04120750021,
			"0.006": 1.81277617775,
			"0.007": 2.31225642696,
			"0.008": 1.601007348,
			"0.009": 1.7778782661,
			"0.01": 2.48346528644,
			"0.011": 3.685169818,
			"0.012": 2.94741451844,
			"0.013": 0.474397076629,
			"0.014": 0.0,
			"0.015": 0.0,
			"0.016": 0.0,
			"0.017": 0.0,
			"0.018": 0.0,
			"0.019": 0.0,
			"0.02": 0.0,
			"0.021": 0.0,
			"0.022": 0.0,
			"0.023": 0.0,
			"0.024": 0.0,
			"0.025": 0.0
		}
	}
}
