{
	 "smiles": "CS(=O)(=O)C1=CC(=CC=C1)C(N)C1=CC=C(Cl)C=C1", 
	 "Tm": 368.15, 
	 "num_atms": 33, 
	 "gaussian": { 
		 "optdone": 1, 
		 "sigma_profile": "yes", 
		 "theory": "DFT", 
		 "functional": "B3LYP", 
		 "basiset": "6-31G**", 
		 "properties": { 
			 "R2extent": 9137.594, 
			 "electric_dipole_moment_norm": 5.791913941, 
			 "electric_quadrupole_moment_norm": 19.498508414, 
			 "total_energy": -1605.44317457, 
			 "HOMO_LUMO_gap": 0.19354, 
			 "cosmo_polarized_energy": -20.36, 
			 "cosmo_cavitation_energy": 40.13, 
			 "cosmo_dispersion_energy": -28.52, 
			 "cosmo_repulsion_energy": 2.18, 
			 "cosmo_total_nonelectrostatic_energy": 13.79, 
			 "SMD_solvation_energy": 5.35 
		},
		"coords": [
			{
				"x": 4.2575054646,
				"y": -1.8300355641,
				"z": 1.6538590017,
				"element": "C" 
			},
			{
				"x": 3.4126431498,
				"y": -1.737073799,
				"z": 0.0562856634,
				"element": "S" 
			},
			{
				"x": 2.6265803076,
				"y": -2.971132973,
				"z": -0.0982762725,
				"element": "O" 
			},
			{
				"x": 4.4114258356,
				"y": -1.3365933214,
				"z": -0.9465910826,
				"element": "O" 
			},
			{
				"x": 2.2580469364,
				"y": -0.369119641,
				"z": 0.2658589073,
				"element": "C" 
			},
			{
				"x": 0.9646355876,
				"y": -0.6362243941,
				"z": 0.7217191012,
				"element": "C" 
			},
			{
				"x": 0.053684442,
				"y": 0.4114042573,
				"z": 0.8874711559,
				"element": "C" 
			},
			{
				"x": 0.4716080645,
				"y": 1.7164760813,
				"z": 0.5791310372,
				"element": "C" 
			},
			{
				"x": 1.7613003018,
				"y": 1.9722085561,
				"z": 0.1163362548,
				"element": "C" 
			},
			{
				"x": 2.6709394676,
				"y": 0.9246645559,
				"z": -0.047699809,
				"element": "C" 
			},
			{
				"x": -1.3443744703,
				"y": 0.1425256263,
				"z": 1.4494075786,
				"element": "C" 
			},
			{
				"x": -1.5039143978,
				"y": 0.6133554747,
				"z": 2.8354889157,
				"element": "N" 
			},
			{
				"x": -2.4641094895,
				"y": 0.6930289479,
				"z": 0.5631677521,
				"element": "C" 
			},
			{
				"x": -2.3699250536,
				"y": 0.6238506811,
				"z": -0.8342893479,
				"element": "C" 
			},
			{
				"x": -3.4046762949,
				"y": 1.0757873397,
				"z": -1.6512670621,
				"element": "C" 
			},
			{
				"x": -4.5508927186,
				"y": 1.6093840452,
				"z": -1.0627580296,
				"element": "C" 
			},
			{
				"x": -5.8581013121,
				"y": 2.1927906185,
				"z": -2.0850525858,
				"element": "Cl" 
			},
			{
				"x": -4.6739139912,
				"y": 1.6852019299,
				"z": 0.3224715643,
				"element": "C" 
			},
			{
				"x": -3.6314087499,
				"y": 1.2216574811,
				"z": 1.1266976915,
				"element": "C" 
			},
			{
				"x": 4.777374612,
				"y": -0.8896067116,
				"z": 1.8414472083,
				"element": "H" 
			},
			{
				"x": 4.9735584688,
				"y": -2.6504178679,
				"z": 1.5718802666,
				"element": "H" 
			},
			{
				"x": 3.5267989906,
				"y": -2.0410481997,
				"z": 2.4358000712,
				"element": "H" 
			},
			{
				"x": 0.6718826203,
				"y": -1.663479063,
				"z": 0.9197572366,
				"element": "H" 
			},
			{
				"x": -0.2319860931,
				"y": 2.5387186331,
				"z": 0.6826321044,
				"element": "H" 
			},
			{
				"x": 2.0567209408,
				"y": 2.9872893272,
				"z": -0.1317453688,
				"element": "H" 
			},
			{
				"x": 3.6696304265,
				"y": 1.096831307,
				"z": -0.4345517326,
				"element": "H" 
			},
			{
				"x": -1.4686282984,
				"y": -0.9483365297,
				"z": 1.4893577468,
				"element": "H" 
			},
			{
				"x": -1.2985631015,
				"y": 1.6097558172,
				"z": 2.8863917835,
				"element": "H" 
			},
			{
				"x": -0.820959184,
				"y": 0.1494592739,
				"z": 3.4292553975,
				"element": "H" 
			},
			{
				"x": -1.4778650835,
				"y": 0.213397618,
				"z": -1.297776975,
				"element": "H" 
			},
			{
				"x": -3.3228679255,
				"y": 1.0177304913,
				"z": -2.7310212252,
				"element": "H" 
			},
			{
				"x": -5.5733626161,
				"y": 2.0971532223,
				"z": 0.7670105241,
				"element": "H" 
			},
			{
				"x": -3.7232868365,
				"y": 1.2583967792,
				"z": 2.2063025279,
				"element": "H" 
			}
		],
		 "valence_orbital": [ 
			{
				"type": "occ",
				"energy": -0.28314,
				"method": "rhf"
			},
			{
				"type": "occ",
				"energy": -0.28089,
				"method": "rhf"
			},
			{
				"type": "occ",
				"energy": -0.26325,
				"method": "rhf"
			},
			{
				"type": "occ",
				"energy": -0.25251,
				"method": "rhf"
			},
			{
				"type": "occ",
				"energy": -0.24284,
				"method": "rhf"
			},
			{
				"type": "unocc",
				"energy": -0.0493,
				"method": "rhf"
			},
			{
				"type": "unocc",
				"energy": -0.03046,
				"method": "rhf"
			},
			{
				"type": "unocc",
				"energy": -0.0176,
				"method": "rhf"
			},
			{
				"type": "unocc",
				"energy": -0.01205,
				"method": "rhf"
			},
			{
				"type": "unocc",
				"energy": 0.03128,
				"method": "rhf"
			}
		],
		"cosmo_sigma_profile": { 
			"-0.025": 0.0,
			"-0.024": 0.0,
			"-0.023": 0.0,
			"-0.022": 0.0,
			"-0.021": 0.0,
			"-0.02": 0.0,
			"-0.019": 0.0,
			"-0.018": 0.0,
			"-0.017": 0.0,
			"-0.016": 0.0,
			"-0.015": 0.0,
			"-0.014": 0.0,
			"-0.013": 0.0,
			"-0.012": 0.0,
			"-0.011": 0.248597677846,
			"-0.01": 2.19240108859,
			"-0.009": 5.04387813445,
			"-0.008": 9.64477987094,
			"-0.007": 17.8011740267,
			"-0.006": 23.4340688925,
			"-0.005": 22.1311088047,
			"-0.004": 24.614668655,
			"-0.003": 18.2258128117,
			"-0.002": 16.9373925613,
			"-0.001": 15.8759894833,
			"0.0": 16.4905091195,
			"0.001": 19.979557569,
			"0.002": 27.3647968975,
			"0.003": 24.9498936376,
			"0.004": 22.3883973473,
			"0.005": 12.7848657219,
			"0.006": 4.14091940072,
			"0.007": 2.84389684932,
			"0.008": 3.16298884065,
			"0.009": 3.70995342058,
			"0.01": 5.52046790287,
			"0.011": 9.66766390742,
			"0.012": 9.53409986645,
			"0.013": 1.71137609415,
			"0.014": 0.73220070188,
			"0.015": 0.231885475265,
			"0.016": 0.425024672735,
			"0.017": 0.0,
			"0.018": 0.0,
			"0.019": 0.0,
			"0.02": 0.0,
			"0.021": 0.0,
			"0.022": 0.0,
			"0.023": 0.0,
			"0.024": 0.0,
			"0.025": 0.0
		}
	}
}
