{
	 "smiles": "CC(=O)OC1CCC2(C)C(CCC3C4CC[C@@](O)(C#CC5=CC=CC=C5)C4(C)CCC23)C1", 
	 "Tm": 443.15, 
	 "num_atms": 70, 
	 "gaussian": { 
		 "optdone": 1, 
		 "sigma_profile": "yes", 
		 "theory": "DFT", 
		 "functional": "B3LYP", 
		 "basiset": "6-31G**", 
		 "properties": { 
			 "R2extent": 22744.8478, 
			 "electric_dipole_moment_norm": 1.78318003858, 
			 "electric_quadrupole_moment_norm": 24.2901431348, 
			 "total_energy": -1353.64698922, 
			 "HOMO_LUMO_gap": 0.19479, 
			 "cosmo_polarized_energy": -14.27, 
			 "cosmo_cavitation_energy": 63.47, 
			 "cosmo_dispersion_energy": -43.05, 
			 "cosmo_repulsion_energy": 3.19, 
			 "cosmo_total_nonelectrostatic_energy": 23.62, 
			 "SMD_solvation_energy": 10.3 
		},
		"coords": [
			{
				"x": -0.0502436363,
				"y": -5.7672841832,
				"z": 6.3132625046,
				"element": "C" 
			},
			{
				"x": 0.289973094,
				"y": -4.6731297827,
				"z": 5.3269271454,
				"element": "C" 
			},
			{
				"x": 1.3929603687,
				"y": -4.1939115627,
				"z": 5.1703537271,
				"element": "O" 
			},
			{
				"x": -0.809960889,
				"y": -4.2963306418,
				"z": 4.6361589576,
				"element": "O" 
			},
			{
				"x": -0.6467116535,
				"y": -3.2469423742,
				"z": 3.6408889091,
				"element": "C" 
			},
			{
				"x": -1.9857364508,
				"y": -2.5212811162,
				"z": 3.5442703337,
				"element": "C" 
			},
			{
				"x": -1.9913268385,
				"y": -1.4989131657,
				"z": 2.3926339209,
				"element": "C" 
			},
			{
				"x": -1.575051499,
				"y": -2.0884034788,
				"z": 1.012872709,
				"element": "C" 
			},
			{
				"x": -2.6641460215,
				"y": -3.0931614371,
				"z": 0.5714834434,
				"element": "C" 
			},
			{
				"x": -0.2012684853,
				"y": -2.8204137308,
				"z": 1.1601917748,
				"element": "C" 
			},
			{
				"x": 0.9825553249,
				"y": -1.8458508003,
				"z": 1.3365644185,
				"element": "C" 
			},
			{
				"x": 1.0341695101,
				"y": -0.7837320051,
				"z": 0.2369135739,
				"element": "C" 
			},
			{
				"x": -0.2789929836,
				"y": 0.0181382077,
				"z": 0.1821831809,
				"element": "C" 
			},
			{
				"x": -0.2383403487,
				"y": 1.1928247357,
				"z": -0.8253746044,
				"element": "C" 
			},
			{
				"x": -1.2833012619,
				"y": 2.3074635587,
				"z": -0.5002499146,
				"element": "C" 
			},
			{
				"x": -1.795843604,
				"y": 2.8539464836,
				"z": -1.8518826505,
				"element": "C" 
			},
			{
				"x": -0.8599228783,
				"y": 2.235137177,
				"z": -2.9259779588,
				"element": "C" 
			},
			{
				"x": -1.5068245415,
				"y": 2.0247662669,
				"z": -4.1850775328,
				"element": "O" 
			},
			{
				"x": 0.3138630871,
				"y": 3.1086737188,
				"z": -3.1124078587,
				"element": "C" 
			},
			{
				"x": 1.2334211204,
				"y": 3.8820932512,
				"z": -3.2893546571,
				"element": "C" 
			},
			{
				"x": 2.3292787654,
				"y": 4.7758672197,
				"z": -3.4997951666,
				"element": "C" 
			},
			{
				"x": 3.3438924805,
				"y": 4.4583542637,
				"z": -4.4241178796,
				"element": "C" 
			},
			{
				"x": 4.4095220375,
				"y": 5.3315795256,
				"z": -4.6275300908,
				"element": "C" 
			},
			{
				"x": 4.4836402353,
				"y": 6.5309537713,
				"z": -3.9148418449,
				"element": "C" 
			},
			{
				"x": 3.4831472453,
				"y": 6.8549331636,
				"z": -2.9951829773,
				"element": "C" 
			},
			{
				"x": 2.4129646265,
				"y": 5.9882209071,
				"z": -2.7874867218,
				"element": "C" 
			},
			{
				"x": -0.4659370383,
				"y": 0.8369941309,
				"z": -2.3241700865,
				"element": "C" 
			},
			{
				"x": 0.7607937034,
				"y": 0.2652763777,
				"z": -3.0537681131,
				"element": "C" 
			},
			{
				"x": -1.6542458877,
				"y": -0.1469352209,
				"z": -2.4624417001,
				"element": "C" 
			},
			{
				"x": -1.5495465175,
				"y": -1.3577860889,
				"z": -1.5199745655,
				"element": "C" 
			},
			{
				"x": -1.4974251533,
				"y": -0.9193943362,
				"z": -0.0392354413,
				"element": "C" 
			},
			{
				"x": -0.2280789679,
				"y": -3.862582937,
				"z": 2.3025125531,
				"element": "C" 
			},
			{
				"x": -0.8479658358,
				"y": -5.4363660739,
				"z": 6.9844641918,
				"element": "H" 
			},
			{
				"x": -0.4191865436,
				"y": -6.6484987539,
				"z": 5.7796355178,
				"element": "H" 
			},
			{
				"x": 0.8384900436,
				"y": -6.0279043979,
				"z": 6.8871644979,
				"element": "H" 
			},
			{
				"x": 0.1348518639,
				"y": -2.5745654366,
				"z": 4.0039692002,
				"element": "H" 
			},
			{
				"x": -2.2000596641,
				"y": -2.016756243,
				"z": 4.4934153821,
				"element": "H" 
			},
			{
				"x": -2.7761262856,
				"y": -3.2677271539,
				"z": 3.4069990332,
				"element": "H" 
			},
			{
				"x": -2.9943237318,
				"y": -1.0622136936,
				"z": 2.3060220098,
				"element": "H" 
			},
			{
				"x": -1.3258782963,
				"y": -0.6713396821,
				"z": 2.6614011099,
				"element": "H" 
			},
			{
				"x": -2.9000206964,
				"y": -3.8177584127,
				"z": 1.3535542,
				"element": "H" 
			},
			{
				"x": -3.5954023143,
				"y": -2.569262209,
				"z": 0.3256988864,
				"element": "H" 
			},
			{
				"x": -2.3585430074,
				"y": -3.6638336837,
				"z": -0.3100622239,
				"element": "H" 
			},
			{
				"x": -0.0217758741,
				"y": -3.3703739217,
				"z": 0.2250226155,
				"element": "H" 
			},
			{
				"x": 0.9261917767,
				"y": -1.3439018989,
				"z": 2.3106342235,
				"element": "H" 
			},
			{
				"x": 1.9150047719,
				"y": -2.4236218893,
				"z": 1.3517738933,
				"element": "H" 
			},
			{
				"x": 1.2372404808,
				"y": -1.2682965722,
				"z": -0.7244553133,
				"element": "H" 
			},
			{
				"x": 1.8726225483,
				"y": -0.0987235823,
				"z": 0.4151858461,
				"element": "H" 
			},
			{
				"x": -0.3867088482,
				"y": 0.486343346,
				"z": 1.171474198,
				"element": "H" 
			},
			{
				"x": 0.7578096489,
				"y": 1.6475926568,
				"z": -0.7495709729,
				"element": "H" 
			},
			{
				"x": -2.113861029,
				"y": 1.9112891631,
				"z": 0.0927002786,
				"element": "H" 
			},
			{
				"x": -0.8185540448,
				"y": 3.0921110432,
				"z": 0.1044782502,
				"element": "H" 
			},
			{
				"x": -1.7995101116,
				"y": 3.9461690651,
				"z": -1.9025556644,
				"element": "H" 
			},
			{
				"x": -2.8131150147,
				"y": 2.5144046476,
				"z": -2.0661601609,
				"element": "H" 
			},
			{
				"x": -1.5296730937,
				"y": 2.8735326204,
				"z": -4.6460907076,
				"element": "H" 
			},
			{
				"x": 3.2832709288,
				"y": 3.5248098269,
				"z": -4.9742297254,
				"element": "H" 
			},
			{
				"x": 5.185260043,
				"y": 5.0751376091,
				"z": -5.3432846358,
				"element": "H" 
			},
			{
				"x": 5.3166220808,
				"y": 7.209248697,
				"z": -4.0750465973,
				"element": "H" 
			},
			{
				"x": 3.5365611341,
				"y": 7.7861181763,
				"z": -2.4384955198,
				"element": "H" 
			},
			{
				"x": 1.6334983537,
				"y": 6.2369180166,
				"z": -2.0743433142,
				"element": "H" 
			},
			{
				"x": 0.5934199951,
				"y": 0.3133568883,
				"z": -4.1349732307,
				"element": "H" 
			},
			{
				"x": 0.9418620968,
				"y": -0.7806283458,
				"z": -2.7947575817,
				"element": "H" 
			},
			{
				"x": 1.6674286092,
				"y": 0.8319451592,
				"z": -2.8248780131,
				"element": "H" 
			},
			{
				"x": -1.7262021766,
				"y": -0.4798354278,
				"z": -3.5024869834,
				"element": "H" 
			},
			{
				"x": -2.5991471726,
				"y": 0.3649382162,
				"z": -2.2474730494,
				"element": "H" 
			},
			{
				"x": -0.6755452631,
				"y": -1.969151172,
				"z": -1.7759424185,
				"element": "H" 
			},
			{
				"x": -2.4220890274,
				"y": -1.9917355484,
				"z": -1.6985070743,
				"element": "H" 
			},
			{
				"x": -2.4090716076,
				"y": -0.3234245661,
				"z": 0.1252394432,
				"element": "H" 
			},
			{
				"x": 0.7638126404,
				"y": -4.3141225806,
				"z": 2.4128601772,
				"element": "H" 
			},
			{
				"x": -0.9249643197,
				"y": -4.6746437844,
				"z": 2.0660728447,
				"element": "H" 
			}
		],
		 "valence_orbital": [ 
			{
				"type": "occ",
				"energy": -0.26962,
				"method": "rhf"
			},
			{
				"type": "occ",
				"energy": -0.26166,
				"method": "rhf"
			},
			{
				"type": "occ",
				"energy": -0.25669,
				"method": "rhf"
			},
			{
				"type": "occ",
				"energy": -0.25484,
				"method": "rhf"
			},
			{
				"type": "occ",
				"energy": -0.22665,
				"method": "rhf"
			},
			{
				"type": "unocc",
				"energy": -0.03186,
				"method": "rhf"
			},
			{
				"type": "unocc",
				"energy": -0.00561,
				"method": "rhf"
			},
			{
				"type": "unocc",
				"energy": 0.01955,
				"method": "rhf"
			},
			{
				"type": "unocc",
				"energy": 0.04891,
				"method": "rhf"
			},
			{
				"type": "unocc",
				"energy": 0.06836,
				"method": "rhf"
			}
		],
		"cosmo_sigma_profile": { 
			"-0.025": 0.0,
			"-0.024": 0.0,
			"-0.023": 0.0,
			"-0.022": 0.0,
			"-0.021": 0.0,
			"-0.02": 0.0,
			"-0.019": 0.0,
			"-0.018": 0.0,
			"-0.017": 0.0,
			"-0.016": 0.135360677239,
			"-0.015": 0.482674931707,
			"-0.014": 1.35008068928,
			"-0.013": 0.439348139284,
			"-0.012": 0.486186277178,
			"-0.011": 0.575842552005,
			"-0.01": 0.646662667055,
			"-0.009": 0.944929729684,
			"-0.008": 0.508373528122,
			"-0.007": 1.98932674725,
			"-0.006": 13.757171326,
			"-0.005": 18.1763325896,
			"-0.004": 25.9649192008,
			"-0.003": 38.7959647636,
			"-0.002": 66.6302242613,
			"-0.001": 75.3852391374,
			"0.0": 66.958868921,
			"0.001": 49.0460235113,
			"0.002": 30.4870602667,
			"0.003": 24.0262399919,
			"0.004": 23.5382113712,
			"0.005": 17.6645222337,
			"0.006": 6.40578554042,
			"0.007": 3.71482382228,
			"0.008": 4.49379859373,
			"0.009": 4.87025520455,
			"0.01": 2.68611672534,
			"0.011": 3.25911464031,
			"0.012": 6.09117171146,
			"0.013": 3.03747834536,
			"0.014": 0.124062110211,
			"0.015": 0.0,
			"0.016": 0.0,
			"0.017": 0.0,
			"0.018": 0.0,
			"0.019": 0.0,
			"0.02": 0.0,
			"0.021": 0.0,
			"0.022": 0.0,
			"0.023": 0.0,
			"0.024": 0.0,
			"0.025": 0.0
		}
	}
}
