{
	 "smiles": "CC(=O)N1CC(C)=CC1=O", 
	 "Tm": 362.65, 
	 "num_atms": 19, 
	 "gaussian": { 
		 "optdone": 1, 
		 "sigma_profile": "yes", 
		 "theory": "DFT", 
		 "functional": "B3LYP", 
		 "basiset": "6-31G**", 
		 "properties": { 
			 "R2extent": 1800.6813, 
			 "electric_dipole_moment_norm": 3.72988138551, 
			 "electric_quadrupole_moment_norm": 11.7258355067, 
			 "total_energy": -477.390139339, 
			 "HOMO_LUMO_gap": 0.2062, 
			 "cosmo_polarized_energy": -11.68, 
			 "cosmo_cavitation_energy": 22.86, 
			 "cosmo_dispersion_energy": -16.69, 
			 "cosmo_repulsion_energy": 1.36, 
			 "cosmo_total_nonelectrostatic_energy": 7.54, 
			 "SMD_solvation_energy": 5.24 
		},
		"coords": [
			{
				"x": -0.375831005,
				"y": -2.2274047247,
				"z": 2.7050405416,
				"element": "C" 
			},
			{
				"x": -0.5392203225,
				"y": -2.3209209961,
				"z": 1.2070895457,
				"element": "C" 
			},
			{
				"x": -0.6625544107,
				"y": -3.3788041241,
				"z": 0.6100515766,
				"element": "O" 
			},
			{
				"x": -0.5479131772,
				"y": -1.1279483677,
				"z": 0.4755343633,
				"element": "N" 
			},
			{
				"x": -0.7030001279,
				"y": -1.1718447904,
				"z": -0.9754126793,
				"element": "C" 
			},
			{
				"x": -0.661360161,
				"y": 0.2818071986,
				"z": -1.3755711337,
				"element": "C" 
			},
			{
				"x": -0.7869270118,
				"y": 0.7048281092,
				"z": -2.8026477118,
				"element": "C" 
			},
			{
				"x": -0.5026581522,
				"y": 1.046284555,
				"z": -0.2835488198,
				"element": "C" 
			},
			{
				"x": -0.4230595109,
				"y": 0.2073512216,
				"z": 0.9318974757,
				"element": "C" 
			},
			{
				"x": -0.2813552159,
				"y": 0.5597082895,
				"z": 2.0887367229,
				"element": "O" 
			},
			{
				"x": 0.5591812688,
				"y": -1.7257843759,
				"z": 2.9667920861,
				"element": "H" 
			},
			{
				"x": -1.1737192908,
				"y": -1.6273408694,
				"z": 3.1496559099,
				"element": "H" 
			},
			{
				"x": -0.3916538517,
				"y": -3.2425463352,
				"z": 3.1018479867,
				"element": "H" 
			},
			{
				"x": -1.6463162886,
				"y": -1.6576832371,
				"z": -1.253961851,
				"element": "H" 
			},
			{
				"x": 0.1006420076,
				"y": -1.7583437732,
				"z": -1.4376314532,
				"element": "H" 
			},
			{
				"x": -1.7375686102,
				"y": 0.3625355118,
				"z": -3.2296438861,
				"element": "H" 
			},
			{
				"x": -0.7350078141,
				"y": 1.7911615864,
				"z": -2.9040831419,
				"element": "H" 
			},
			{
				"x": 0.0095068773,
				"y": 0.2618963998,
				"z": -3.4131492487,
				"element": "H" 
			},
			{
				"x": -0.4352852034,
				"y": 2.1255487219,
				"z": -0.232996283,
				"element": "H" 
			}
		],
		 "valence_orbital": [ 
			{
				"type": "occ",
				"energy": -0.35869,
				"method": "rhf"
			},
			{
				"type": "occ",
				"energy": -0.27809,
				"method": "rhf"
			},
			{
				"type": "occ",
				"energy": -0.27124,
				"method": "rhf"
			},
			{
				"type": "occ",
				"energy": -0.26958,
				"method": "rhf"
			},
			{
				"type": "occ",
				"energy": -0.25533,
				"method": "rhf"
			},
			{
				"type": "unocc",
				"energy": -0.04913,
				"method": "rhf"
			},
			{
				"type": "unocc",
				"energy": 0.01099,
				"method": "rhf"
			},
			{
				"type": "unocc",
				"energy": 0.08312,
				"method": "rhf"
			},
			{
				"type": "unocc",
				"energy": 0.088,
				"method": "rhf"
			},
			{
				"type": "unocc",
				"energy": 0.11319,
				"method": "rhf"
			}
		],
		"cosmo_sigma_profile": { 
			"-0.025": 0.0,
			"-0.024": 0.0,
			"-0.023": 0.0,
			"-0.022": 0.0,
			"-0.021": 0.0,
			"-0.02": 0.0,
			"-0.019": 0.0,
			"-0.018": 0.0,
			"-0.017": 0.0,
			"-0.016": 0.0,
			"-0.015": 0.0,
			"-0.014": 0.0,
			"-0.013": 0.0,
			"-0.012": 0.0,
			"-0.011": 0.0,
			"-0.01": 0.0,
			"-0.009": 0.0,
			"-0.008": 0.583320688625,
			"-0.007": 6.22029730507,
			"-0.006": 12.437576442,
			"-0.005": 18.8001678156,
			"-0.004": 17.929010134,
			"-0.003": 18.5052244515,
			"-0.002": 20.9553727463,
			"-0.001": 18.2894355637,
			"0.0": 10.0608222141,
			"0.001": 7.66636522449,
			"0.002": 6.33397668311,
			"0.003": 3.61817270688,
			"0.004": 2.96741813019,
			"0.005": 2.70750428758,
			"0.006": 2.8237915092,
			"0.007": 3.81520216493,
			"0.008": 2.01723474194,
			"0.009": 2.88551942449,
			"0.01": 3.06970428773,
			"0.011": 5.14047671541,
			"0.012": 7.76320985215,
			"0.013": 5.27172247075,
			"0.014": 1.0090897963,
			"0.015": 0.0,
			"0.016": 0.0,
			"0.017": 0.0,
			"0.018": 0.0,
			"0.019": 0.0,
			"0.02": 0.0,
			"0.021": 0.0,
			"0.022": 0.0,
			"0.023": 0.0,
			"0.024": 0.0,
			"0.025": 0.0
		}
	}
}
