{
	 "smiles": "CC(C)=CCCC(C)=O", 
	 "Tm": 206.15, 
	 "num_atms": 23, 
	 "gaussian": { 
		 "optdone": 1, 
		 "sigma_profile": "yes", 
		 "theory": "DFT", 
		 "functional": "B3LYP", 
		 "basiset": "6-31G**", 
		 "properties": { 
			 "R2extent": 2153.0392, 
			 "electric_dipole_moment_norm": 2.26872464173, 
			 "electric_quadrupole_moment_norm": 9.46792829081, 
			 "total_energy": -388.509436377, 
			 "HOMO_LUMO_gap": 0.21502, 
			 "cosmo_polarized_energy": -6.9, 
			 "cosmo_cavitation_energy": 25.34, 
			 "cosmo_dispersion_energy": -17.86, 
			 "cosmo_repulsion_energy": 1.51, 
			 "cosmo_total_nonelectrostatic_energy": 9.0, 
			 "SMD_solvation_energy": 5.15 
		},
		"coords": [
			{
				"x": -0.6881790563,
				"y": 1.79926685,
				"z": 1.4193851408,
				"element": "C" 
			},
			{
				"x": -0.2489021101,
				"y": 0.3771204311,
				"z": 1.6770545229,
				"element": "C" 
			},
			{
				"x": 0.7955078459,
				"y": 0.2246454392,
				"z": 2.7562212533,
				"element": "C" 
			},
			{
				"x": -0.7850422249,
				"y": -0.6388469534,
				"z": 0.9828061722,
				"element": "C" 
			},
			{
				"x": -0.5043201772,
				"y": -2.1143588779,
				"z": 1.1122063648,
				"element": "C" 
			},
			{
				"x": 0.1943556363,
				"y": -2.7019203177,
				"z": -0.1262525661,
				"element": "C" 
			},
			{
				"x": 1.685543308,
				"y": -2.3837453813,
				"z": -0.2026454429,
				"element": "C" 
			},
			{
				"x": 2.3310606258,
				"y": -2.4942098813,
				"z": -1.5723706992,
				"element": "C" 
			},
			{
				"x": 2.3328249342,
				"y": -2.0818292009,
				"z": 0.7828282616,
				"element": "O" 
			},
			{
				"x": -1.0848297441,
				"y": 2.2599715604,
				"z": 2.3341772454,
				"element": "H" 
			},
			{
				"x": -1.4620783118,
				"y": 1.85789488,
				"z": 0.6486553089,
				"element": "H" 
			},
			{
				"x": 0.1587886547,
				"y": 2.4225205432,
				"z": 1.1029543989,
				"element": "H" 
			},
			{
				"x": 1.6015043953,
				"y": 0.9539880511,
				"z": 2.6073895424,
				"element": "H" 
			},
			{
				"x": 1.2514107527,
				"y": -0.7653123939,
				"z": 2.7695431345,
				"element": "H" 
			},
			{
				"x": 0.3666889946,
				"y": 0.4340189947,
				"z": 3.7458148689,
				"element": "H" 
			},
			{
				"x": -1.5280274495,
				"y": -0.3872997068,
				"z": 0.2229018334,
				"element": "H" 
			},
			{
				"x": 0.1071052528,
				"y": -2.3311924198,
				"z": 1.9907712401,
				"element": "H" 
			},
			{
				"x": -1.4572047767,
				"y": -2.6431061247,
				"z": 1.2490792901,
				"element": "H" 
			},
			{
				"x": -0.2970435551,
				"y": -2.3781843301,
				"z": -1.0528098806,
				"element": "H" 
			},
			{
				"x": 0.1196167281,
				"y": -3.8005462917,
				"z": -0.1228304549,
				"element": "H" 
			},
			{
				"x": 1.98345792,
				"y": -1.6683214628,
				"z": -2.2052738281,
				"element": "H" 
			},
			{
				"x": 2.0391325045,
				"y": -3.4236402695,
				"z": -2.0740605362,
				"element": "H" 
			},
			{
				"x": 3.4168298531,
				"y": -2.4422131377,
				"z": -1.4797451701,
				"element": "H" 
			}
		],
		 "valence_orbital": [ 
			{
				"type": "occ",
				"energy": -0.34444,
				"method": "rhf"
			},
			{
				"type": "occ",
				"energy": -0.33832,
				"method": "rhf"
			},
			{
				"type": "occ",
				"energy": -0.31569,
				"method": "rhf"
			},
			{
				"type": "occ",
				"energy": -0.24456,
				"method": "rhf"
			},
			{
				"type": "occ",
				"energy": -0.22489,
				"method": "rhf"
			},
			{
				"type": "unocc",
				"energy": -0.00987,
				"method": "rhf"
			},
			{
				"type": "unocc",
				"energy": 0.03348,
				"method": "rhf"
			},
			{
				"type": "unocc",
				"energy": 0.09422,
				"method": "rhf"
			},
			{
				"type": "unocc",
				"energy": 0.10744,
				"method": "rhf"
			},
			{
				"type": "unocc",
				"energy": 0.12684,
				"method": "rhf"
			}
		],
		"cosmo_sigma_profile": { 
			"-0.025": 0.0,
			"-0.024": 0.0,
			"-0.023": 0.0,
			"-0.022": 0.0,
			"-0.021": 0.0,
			"-0.02": 0.0,
			"-0.019": 0.0,
			"-0.018": 0.0,
			"-0.017": 0.0,
			"-0.016": 0.0,
			"-0.015": 0.0,
			"-0.014": 0.0,
			"-0.013": 0.0,
			"-0.012": 0.0,
			"-0.011": 0.0,
			"-0.01": 0.0,
			"-0.009": 0.0,
			"-0.008": 0.0,
			"-0.007": 0.00858963544708,
			"-0.006": 5.7801441182,
			"-0.005": 10.5835698637,
			"-0.004": 12.1373121503,
			"-0.003": 24.9378487757,
			"-0.002": 28.5712404074,
			"-0.001": 27.8006043192,
			"0.0": 21.4078393946,
			"0.001": 18.9250795685,
			"0.002": 9.43999749043,
			"0.003": 5.44016467992,
			"0.004": 5.10460706012,
			"0.005": 5.23006659777,
			"0.006": 4.87958373881,
			"0.007": 4.21127851521,
			"0.008": 2.16536970088,
			"0.009": 2.17181518205,
			"0.01": 1.74958635188,
			"0.011": 2.72956647057,
			"0.012": 2.00480040498,
			"0.013": 1.84107535363,
			"0.014": 0.283788609626,
			"0.015": 0.0,
			"0.016": 0.0,
			"0.017": 0.0,
			"0.018": 0.0,
			"0.019": 0.0,
			"0.02": 0.0,
			"0.021": 0.0,
			"0.022": 0.0,
			"0.023": 0.0,
			"0.024": 0.0,
			"0.025": 0.0
		}
	}
}
