{
	 "smiles": "COC(=O)C1=C(C=CC=C1)S(=O)(=O)NC(=O)NC1=NC(C)=CC(C)=N1", 
	 "Tm": 477.15, 
	 "num_atms": 41, 
	 "gaussian": { 
		 "optdone": 1, 
		 "sigma_profile": "yes", 
		 "theory": "DFT", 
		 "functional": "B3LYP", 
		 "basiset": "6-31G**", 
		 "properties": { 
			 "R2extent": 10242.6781, 
			 "electric_dipole_moment_norm": 7.09748303203, 
			 "electric_quadrupole_moment_norm": 29.7839323038, 
			 "total_energy": -1574.53630687, 
			 "HOMO_LUMO_gap": 0.19906, 
			 "cosmo_polarized_energy": -23.49, 
			 "cosmo_cavitation_energy": 47.68, 
			 "cosmo_dispersion_energy": -32.05, 
			 "cosmo_repulsion_energy": 2.37, 
			 "cosmo_total_nonelectrostatic_energy": 17.99, 
			 "SMD_solvation_energy": 7.74 
		},
		"coords": [
			{
				"x": 1.8848852814,
				"y": 1.4736027917,
				"z": -0.5185524662,
				"element": "C" 
			},
			{
				"x": 1.5794692036,
				"y": 0.3725543146,
				"z": 0.3520971873,
				"element": "O" 
			},
			{
				"x": 2.4284792896,
				"y": 0.2066765697,
				"z": 1.3832856886,
				"element": "C" 
			},
			{
				"x": 3.4561496581,
				"y": 0.8342624329,
				"z": 1.5230489827,
				"element": "O" 
			},
			{
				"x": 2.0187115722,
				"y": -0.9237967787,
				"z": 2.2813999417,
				"element": "C" 
			},
			{
				"x": 0.7208020419,
				"y": -1.1739780785,
				"z": 2.7650196327,
				"element": "C" 
			},
			{
				"x": 0.4590082291,
				"y": -2.2858040317,
				"z": 3.5674615491,
				"element": "C" 
			},
			{
				"x": 1.4901376279,
				"y": -3.1657837122,
				"z": 3.8946766768,
				"element": "C" 
			},
			{
				"x": 2.7867069341,
				"y": -2.9150278752,
				"z": 3.4480235427,
				"element": "C" 
			},
			{
				"x": 3.0466244762,
				"y": -1.7974353874,
				"z": 2.6572436046,
				"element": "C" 
			},
			{
				"x": -0.6499861421,
				"y": -0.0138692833,
				"z": 2.5649967018,
				"element": "S" 
			},
			{
				"x": -0.1288697047,
				"y": 1.3482061854,
				"z": 2.4479725475,
				"element": "O" 
			},
			{
				"x": -1.6445234469,
				"y": -0.349754067,
				"z": 3.5779091637,
				"element": "O" 
			},
			{
				"x": -1.2967038127,
				"y": -0.3269435917,
				"z": 1.0288037357,
				"element": "N" 
			},
			{
				"x": -1.8606013487,
				"y": -1.5310343408,
				"z": 0.6669777974,
				"element": "C" 
			},
			{
				"x": -1.8669298865,
				"y": -2.5358532186,
				"z": 1.3559672787,
				"element": "O" 
			},
			{
				"x": -2.436401412,
				"y": -1.5527845157,
				"z": -0.6121458897,
				"element": "N" 
			},
			{
				"x": -2.638425391,
				"y": -0.5686125331,
				"z": -1.5659980426,
				"element": "C" 
			},
			{
				"x": -3.3319090149,
				"y": -0.9793000389,
				"z": -2.6382211344,
				"element": "N" 
			},
			{
				"x": -3.5686250806,
				"y": -0.0616771563,
				"z": -3.5829542519,
				"element": "C" 
			},
			{
				"x": -4.3431080487,
				"y": -0.5206083288,
				"z": -4.7881241141,
				"element": "C" 
			},
			{
				"x": -3.1185995729,
				"y": 1.2578920793,
				"z": -3.4442502741,
				"element": "C" 
			},
			{
				"x": -2.3995156912,
				"y": 1.5853303691,
				"z": -2.2962409549,
				"element": "C" 
			},
			{
				"x": -1.8713293512,
				"y": 2.9700061222,
				"z": -2.0421574259,
				"element": "C" 
			},
			{
				"x": -2.1470134336,
				"y": 0.6601602482,
				"z": -1.3527029123,
				"element": "N" 
			},
			{
				"x": 1.1521891961,
				"y": 1.4166637345,
				"z": -1.3234786946,
				"element": "H" 
			},
			{
				"x": 1.7900314721,
				"y": 2.4174256407,
				"z": 0.0241785354,
				"element": "H" 
			},
			{
				"x": 2.8998869192,
				"y": 1.3842328618,
				"z": -0.9119770713,
				"element": "H" 
			},
			{
				"x": -0.5483262416,
				"y": -2.4429889155,
				"z": 3.9314857338,
				"element": "H" 
			},
			{
				"x": 1.2785360084,
				"y": -4.0340957828,
				"z": 4.5107163233,
				"element": "H" 
			},
			{
				"x": 3.5979266068,
				"y": -3.5847514515,
				"z": 3.7169730658,
				"element": "H" 
			},
			{
				"x": 4.0522846162,
				"y": -1.5821042379,
				"z": 2.3125608443,
				"element": "H" 
			},
			{
				"x": -1.3099687871,
				"y": 0.4462688348,
				"z": 0.3542734425,
				"element": "H" 
			},
			{
				"x": -2.8407740239,
				"y": -2.4507262777,
				"z": -0.8440208386,
				"element": "H" 
			},
			{
				"x": -4.4869382739,
				"y": 0.2859721624,
				"z": -5.510259732,
				"element": "H" 
			},
			{
				"x": -3.8185491363,
				"y": -1.3473714111,
				"z": -5.2775025537,
				"element": "H" 
			},
			{
				"x": -5.3222291029,
				"y": -0.9015422348,
				"z": -4.4808174568,
				"element": "H" 
			},
			{
				"x": -3.3220311242,
				"y": 2.0015930876,
				"z": -4.2058492572,
				"element": "H" 
			},
			{
				"x": -2.1664675746,
				"y": 3.6644502396,
				"z": -2.8314440755,
				"element": "H" 
			},
			{
				"x": -0.7781706982,
				"y": 2.9557809124,
				"z": -1.9794579051,
				"element": "H" 
			},
			{
				"x": -2.2407328325,
				"y": 3.3438646622,
				"z": -1.0821169253,
				"element": "H" 
			}
		],
		 "valence_orbital": [ 
			{
				"type": "occ",
				"energy": -0.28071,
				"method": "rhf"
			},
			{
				"type": "occ",
				"energy": -0.27395,
				"method": "rhf"
			},
			{
				"type": "occ",
				"energy": -0.26869,
				"method": "rhf"
			},
			{
				"type": "occ",
				"energy": -0.26254,
				"method": "rhf"
			},
			{
				"type": "occ",
				"energy": -0.25534,
				"method": "rhf"
			},
			{
				"type": "unocc",
				"energy": -0.05628,
				"method": "rhf"
			},
			{
				"type": "unocc",
				"energy": -0.05403,
				"method": "rhf"
			},
			{
				"type": "unocc",
				"energy": -0.03334,
				"method": "rhf"
			},
			{
				"type": "unocc",
				"energy": -0.02584,
				"method": "rhf"
			},
			{
				"type": "unocc",
				"energy": 0.03157,
				"method": "rhf"
			}
		],
		"cosmo_sigma_profile": { 
			"-0.025": 0.0,
			"-0.024": 0.0,
			"-0.023": 0.0,
			"-0.022": 0.0,
			"-0.021": 0.0,
			"-0.02": 0.0,
			"-0.019": 0.0,
			"-0.018": 0.0,
			"-0.017": 0.0,
			"-0.016": 0.0,
			"-0.015": 0.283068129014,
			"-0.014": 0.859378727869,
			"-0.013": 0.71087239095,
			"-0.012": 0.359727575805,
			"-0.011": 0.726263857874,
			"-0.01": 0.635495106698,
			"-0.009": 1.07249151991,
			"-0.008": 3.60210141671,
			"-0.007": 12.2167526587,
			"-0.006": 20.8475131566,
			"-0.005": 27.8455487308,
			"-0.004": 29.4818806158,
			"-0.003": 31.0771181431,
			"-0.002": 39.1460916276,
			"-0.001": 44.7816980514,
			"0.0": 31.718954613,
			"0.001": 25.4581421023,
			"0.002": 17.3503392227,
			"0.003": 9.88886160855,
			"0.004": 9.57481557243,
			"0.005": 6.89560619271,
			"0.006": 9.30113900077,
			"0.007": 7.52572973098,
			"0.008": 7.64867277644,
			"0.009": 10.528967076,
			"0.01": 13.5035446082,
			"0.011": 11.8906147223,
			"0.012": 4.85440539061,
			"0.013": 1.03092869738,
			"0.014": 0.0,
			"0.015": 0.0,
			"0.016": 0.0,
			"0.017": 0.0,
			"0.018": 0.0,
			"0.019": 0.0,
			"0.02": 0.0,
			"0.021": 0.0,
			"0.022": 0.0,
			"0.023": 0.0,
			"0.024": 0.0,
			"0.025": 0.0
		}
	}
}
