{
	 "smiles": "COC1=CC=C(CBr)C=C1F", 
	 "Tm": 318.15, 
	 "num_atms": 19, 
	 "gaussian": { 
		 "optdone": 1, 
		 "sigma_profile": "yes", 
		 "theory": "DFT", 
		 "functional": "B3LYP", 
		 "basiset": "6-31G**", 
		 "properties": { 
			 "R2extent": 4370.0325, 
			 "electric_dipole_moment_norm": 2.1052934926, 
			 "electric_quadrupole_moment_norm": 12.6036425985, 
			 "total_energy": -3056.12155381, 
			 "HOMO_LUMO_gap": 0.1895, 
			 "cosmo_polarized_energy": -7.16, 
			 "cosmo_cavitation_energy": 25.71, 
			 "cosmo_dispersion_energy": -19.05, 
			 "cosmo_repulsion_energy": 1.53, 
			 "cosmo_total_nonelectrostatic_energy": 8.19, 
			 "SMD_solvation_energy": 4.36 
		},
		"coords": [
			{
				"x": 2.1837092593,
				"y": -2.1829774296,
				"z": -0.9713416751,
				"element": "C" 
			},
			{
				"x": 2.2050081706,
				"y": -1.4282807372,
				"z": 0.2440279288,
				"element": "O" 
			},
			{
				"x": 1.3278937082,
				"y": -0.4099495133,
				"z": 0.4407421855,
				"element": "C" 
			},
			{
				"x": 1.6966845691,
				"y": 0.5549885036,
				"z": 1.3900213645,
				"element": "C" 
			},
			{
				"x": 0.8639270408,
				"y": 1.6244956852,
				"z": 1.6945934515,
				"element": "C" 
			},
			{
				"x": -0.3745560105,
				"y": 1.7768029998,
				"z": 1.0544388079,
				"element": "C" 
			},
			{
				"x": -1.2737049676,
				"y": 2.919557099,
				"z": 1.3791652921,
				"element": "C" 
			},
			{
				"x": -0.9629097634,
				"y": 4.5140274412,
				"z": 0.1867338667,
				"element": "Br" 
			},
			{
				"x": -0.752716707,
				"y": 0.8183898081,
				"z": 0.1069837479,
				"element": "C" 
			},
			{
				"x": 0.0787413635,
				"y": -0.2529878488,
				"z": -0.1814250862,
				"element": "C" 
			},
			{
				"x": -0.3542807458,
				"y": -1.1696137048,
				"z": -1.0830983942,
				"element": "F" 
			},
			{
				"x": 3.1122259461,
				"y": -2.7563921743,
				"z": -0.9686289067,
				"element": "H" 
			},
			{
				"x": 1.3302798589,
				"y": -2.8637047823,
				"z": -1.0112299502,
				"element": "H" 
			},
			{
				"x": 2.1639450819,
				"y": -1.5263480937,
				"z": -1.8473260055,
				"element": "H" 
			},
			{
				"x": 2.6581760854,
				"y": 0.433476763,
				"z": 1.8776564864,
				"element": "H" 
			},
			{
				"x": 1.1833270193,
				"y": 2.357319056,
				"z": 2.4299612973,
				"element": "H" 
			},
			{
				"x": -2.3266920752,
				"y": 2.6874126395,
				"z": 1.2323099247,
				"element": "H" 
			},
			{
				"x": -1.1131338943,
				"y": 3.3092360041,
				"z": 2.3823927656,
				"element": "H" 
			},
			{
				"x": -1.7011239394,
				"y": 0.8847482844,
				"z": -0.4170771008,
				"element": "H" 
			}
		],
		 "valence_orbital": [ 
			{
				"type": "occ",
				"energy": -0.31597,
				"method": "rhf"
			},
			{
				"type": "occ",
				"energy": -0.26994,
				"method": "rhf"
			},
			{
				"type": "occ",
				"energy": -0.26892,
				"method": "rhf"
			},
			{
				"type": "occ",
				"energy": -0.25693,
				"method": "rhf"
			},
			{
				"type": "occ",
				"energy": -0.2265,
				"method": "rhf"
			},
			{
				"type": "unocc",
				"energy": -0.037,
				"method": "rhf"
			},
			{
				"type": "unocc",
				"energy": -0.00953,
				"method": "rhf"
			},
			{
				"type": "unocc",
				"energy": 0.03194,
				"method": "rhf"
			},
			{
				"type": "unocc",
				"energy": 0.06941,
				"method": "rhf"
			},
			{
				"type": "unocc",
				"energy": 0.10456,
				"method": "rhf"
			}
		],
		"cosmo_sigma_profile": { 
			"-0.025": 0.0,
			"-0.024": 0.0,
			"-0.023": 0.0,
			"-0.022": 0.0,
			"-0.021": 0.0,
			"-0.02": 0.0,
			"-0.019": 0.0,
			"-0.018": 0.0,
			"-0.017": 0.0,
			"-0.016": 0.0,
			"-0.015": 0.0,
			"-0.014": 0.0,
			"-0.013": 0.0,
			"-0.012": 0.0,
			"-0.011": 0.0,
			"-0.01": 0.0,
			"-0.009": 0.0,
			"-0.008": 4.07040032434,
			"-0.007": 9.49007093018,
			"-0.006": 11.472241014,
			"-0.005": 14.7111632002,
			"-0.004": 16.0979218772,
			"-0.003": 15.5424202097,
			"-0.002": 11.4944741332,
			"-0.001": 12.2949667474,
			"0.0": 12.3880450936,
			"0.001": 14.3255634317,
			"0.002": 16.5994491508,
			"0.003": 17.488611539,
			"0.004": 18.5773924867,
			"0.005": 9.84353993609,
			"0.006": 11.9480970347,
			"0.007": 7.98042263332,
			"0.008": 1.54498245201,
			"0.009": 1.46780591175,
			"0.01": 0.870948645338,
			"0.011": 0.0496565718238,
			"0.012": 0.0,
			"0.013": 0.0,
			"0.014": 0.0,
			"0.015": 0.0,
			"0.016": 0.0,
			"0.017": 0.0,
			"0.018": 0.0,
			"0.019": 0.0,
			"0.02": 0.0,
			"0.021": 0.0,
			"0.022": 0.0,
			"0.023": 0.0,
			"0.024": 0.0,
			"0.025": 0.0
		}
	}
}
