{
	 "smiles": "CC(O)C1=NC2=C(C=CC=C2)N1C", 
	 "Tm": 385.15, 
	 "num_atms": 25, 
	 "gaussian": { 
		 "optdone": 1, 
		 "sigma_profile": "yes", 
		 "theory": "DFT", 
		 "functional": "B3LYP", 
		 "basiset": "6-31G**", 
		 "properties": { 
			 "R2extent": 2832.9922, 
			 "electric_dipole_moment_norm": 4.0286536138, 
			 "electric_quadrupole_moment_norm": 6.1608726265, 
			 "total_energy": -573.035199837, 
			 "HOMO_LUMO_gap": 0.20706, 
			 "cosmo_polarized_energy": -11.64, 
			 "cosmo_cavitation_energy": 27.66, 
			 "cosmo_dispersion_energy": -20.34, 
			 "cosmo_repulsion_energy": 1.6, 
			 "cosmo_total_nonelectrostatic_energy": 8.91, 
			 "SMD_solvation_energy": 3.0 
		},
		"coords": [
			{
				"x": 0.5854637595,
				"y": -0.7903947166,
				"z": 2.9951948472,
				"element": "C" 
			},
			{
				"x": 0.7833637939,
				"y": 0.2932196471,
				"z": 1.9212785709,
				"element": "C" 
			},
			{
				"x": 0.6445283508,
				"y": 1.5774049327,
				"z": 2.4914267202,
				"element": "O" 
			},
			{
				"x": -0.2090481461,
				"y": 0.1478493398,
				"z": 0.7895958158,
				"element": "C" 
			},
			{
				"x": -1.2333864778,
				"y": 0.9616901318,
				"z": 0.6819576472,
				"element": "N" 
			},
			{
				"x": -1.9400376571,
				"y": 0.5217212872,
				"z": -0.4274257031,
				"element": "C" 
			},
			{
				"x": -1.2936450289,
				"y": -0.6040187795,
				"z": -0.9893836993,
				"element": "C" 
			},
			{
				"x": -1.7808031193,
				"y": -1.2621694539,
				"z": -2.1202337405,
				"element": "C" 
			},
			{
				"x": -2.9494367144,
				"y": -0.7544107406,
				"z": -2.6853276624,
				"element": "C" 
			},
			{
				"x": -3.6045803462,
				"y": 0.3666375452,
				"z": -2.1388437977,
				"element": "C" 
			},
			{
				"x": -3.1122906242,
				"y": 1.0162774618,
				"z": -1.0102700006,
				"element": "C" 
			},
			{
				"x": -0.177261939,
				"y": -0.8225280014,
				"z": -0.1898859623,
				"element": "N" 
			},
			{
				"x": 0.809102221,
				"y": -1.8682340833,
				"z": -0.3907323066,
				"element": "C" 
			},
			{
				"x": 1.2850071254,
				"y": -0.612136846,
				"z": 3.8161917246,
				"element": "H" 
			},
			{
				"x": -0.4333874026,
				"y": -0.7382002963,
				"z": 3.3895537056,
				"element": "H" 
			},
			{
				"x": 0.758098114,
				"y": -1.7987664423,
				"z": 2.6030346115,
				"element": "H" 
			},
			{
				"x": 1.8055776208,
				"y": 0.208627338,
				"z": 1.5189794258,
				"element": "H" 
			},
			{
				"x": -0.2082524295,
				"y": 1.9189483086,
				"z": 2.1680939907,
				"element": "H" 
			},
			{
				"x": -1.2831086395,
				"y": -2.1295818258,
				"z": -2.5429632247,
				"element": "H" 
			},
			{
				"x": -3.3651408067,
				"y": -1.2358921684,
				"z": -3.5654656162,
				"element": "H" 
			},
			{
				"x": -4.5132948565,
				"y": 0.7285388494,
				"z": -2.6105666572,
				"element": "H" 
			},
			{
				"x": -3.6130627508,
				"y": 1.8802802454,
				"z": -0.5855701845,
				"element": "H" 
			},
			{
				"x": 1.7042188976,
				"y": -1.6485234617,
				"z": 0.1919715916,
				"element": "H" 
			},
			{
				"x": 1.0897813283,
				"y": -1.912877419,
				"z": -1.4471220241,
				"element": "H" 
			},
			{
				"x": 0.4219957275,
				"y": -2.8473608521,
				"z": -0.087388072,
				"element": "H" 
			}
		],
		 "valence_orbital": [ 
			{
				"type": "occ",
				"energy": -0.29929,
				"method": "rhf"
			},
			{
				"type": "occ",
				"energy": -0.28083,
				"method": "rhf"
			},
			{
				"type": "occ",
				"energy": -0.2616,
				"method": "rhf"
			},
			{
				"type": "occ",
				"energy": -0.22742,
				"method": "rhf"
			},
			{
				"type": "occ",
				"energy": -0.224,
				"method": "rhf"
			},
			{
				"type": "unocc",
				"energy": -0.01694,
				"method": "rhf"
			},
			{
				"type": "unocc",
				"energy": 0.0181,
				"method": "rhf"
			},
			{
				"type": "unocc",
				"energy": 0.05016,
				"method": "rhf"
			},
			{
				"type": "unocc",
				"energy": 0.07045,
				"method": "rhf"
			},
			{
				"type": "unocc",
				"energy": 0.0994,
				"method": "rhf"
			}
		],
		"cosmo_sigma_profile": { 
			"-0.025": 0.0,
			"-0.024": 0.0,
			"-0.023": 0.0,
			"-0.022": 0.0,
			"-0.021": 0.0,
			"-0.02": 0.0,
			"-0.019": 0.0,
			"-0.018": 0.0,
			"-0.017": 0.0,
			"-0.016": 0.0,
			"-0.015": 0.0,
			"-0.014": 0.0,
			"-0.013": 0.0,
			"-0.012": 0.0,
			"-0.011": 0.0,
			"-0.01": 0.0,
			"-0.009": 0.230876805517,
			"-0.008": 2.72122299848,
			"-0.007": 4.97391023625,
			"-0.006": 13.9194919515,
			"-0.005": 19.7547922078,
			"-0.004": 22.1772757504,
			"-0.003": 22.6669402743,
			"-0.002": 15.7669294367,
			"-0.001": 14.5029728675,
			"0.0": 15.958783696,
			"0.001": 11.8411699702,
			"0.002": 8.8950297803,
			"0.003": 9.29261162632,
			"0.004": 13.9937924848,
			"0.005": 12.033271361,
			"0.006": 10.2376261527,
			"0.007": 3.29745554801,
			"0.008": 2.9382789445,
			"0.009": 2.75385622488,
			"0.01": 1.71266705311,
			"0.011": 2.82520003355,
			"0.012": 2.33918923804,
			"0.013": 1.80877688885,
			"0.014": 2.06822366019,
			"0.015": 0.466011218215,
			"0.016": 0.0,
			"0.017": 0.0,
			"0.018": 0.0,
			"0.019": 0.0,
			"0.02": 0.0,
			"0.021": 0.0,
			"0.022": 0.0,
			"0.023": 0.0,
			"0.024": 0.0,
			"0.025": 0.0
		}
	}
}
