{
	 "smiles": "O=C1CCCC2=C1C=CS2", 
	 "Tm": 312.15, 
	 "num_atms": 18, 
	 "gaussian": { 
		 "optdone": 1, 
		 "sigma_profile": "yes", 
		 "theory": "DFT", 
		 "functional": "B3LYP", 
		 "basiset": "6-31G**", 
		 "properties": { 
			 "R2extent": 3328.7104, 
			 "electric_dipole_moment_norm": 2.97320510392, 
			 "electric_quadrupole_moment_norm": 9.4849452418, 
			 "total_energy": -783.083017859, 
			 "HOMO_LUMO_gap": 0.19319, 
			 "cosmo_polarized_energy": -8.51, 
			 "cosmo_cavitation_energy": 22.41, 
			 "cosmo_dispersion_energy": -17.46, 
			 "cosmo_repulsion_energy": 1.36, 
			 "cosmo_total_nonelectrostatic_energy": 6.31, 
			 "SMD_solvation_energy": 3.77 
		},
		"coords": [
			{
				"x": 1.3310563714,
				"y": -0.7243950132,
				"z": -3.0080688645,
				"element": "O" 
			},
			{
				"x": 1.1507777294,
				"y": 0.0437481438,
				"z": -2.074394136,
				"element": "C" 
			},
			{
				"x": 1.3380008173,
				"y": -0.388956454,
				"z": -0.6205673335,
				"element": "C" 
			},
			{
				"x": 1.753902062,
				"y": 0.7627415871,
				"z": 0.3081865298,
				"element": "C" 
			},
			{
				"x": 0.7664739112,
				"y": 1.9420088569,
				"z": 0.2295806412,
				"element": "C" 
			},
			{
				"x": 0.5245690069,
				"y": 2.2985738946,
				"z": -1.2093919185,
				"element": "C" 
			},
			{
				"x": 0.701121393,
				"y": 1.4366566502,
				"z": -2.2728925215,
				"element": "C" 
			},
			{
				"x": 0.3957544877,
				"y": 2.030935983,
				"z": -3.5425092084,
				"element": "C" 
			},
			{
				"x": -0.0106071245,
				"y": 3.3243411964,
				"z": -3.4265452047,
				"element": "C" 
			},
			{
				"x": -0.024921507,
				"y": 3.8499482919,
				"z": -1.7602764983,
				"element": "S" 
			},
			{
				"x": 2.0597828368,
				"y": -1.2102373091,
				"z": -0.6046334299,
				"element": "H" 
			},
			{
				"x": 0.3764078702,
				"y": -0.8063184836,
				"z": -0.2853462443,
				"element": "H" 
			},
			{
				"x": 2.7522105791,
				"y": 1.1160805139,
				"z": 0.022883365,
				"element": "H" 
			},
			{
				"x": 1.8246415256,
				"y": 0.4068128519,
				"z": 1.3415163476,
				"element": "H" 
			},
			{
				"x": -0.1848912078,
				"y": 1.6619086773,
				"z": 0.7058041374,
				"element": "H" 
			},
			{
				"x": 1.1494113845,
				"y": 2.8027284512,
				"z": 0.7887882263,
				"element": "H" 
			},
			{
				"x": 0.4846889676,
				"y": 1.4921463266,
				"z": -4.4776525514,
				"element": "H" 
			},
			{
				"x": -0.3023791035,
				"y": 4.0141758351,
				"z": -4.2062813365,
				"element": "H" 
			}
		],
		 "valence_orbital": [ 
			{
				"type": "occ",
				"energy": -0.34465,
				"method": "rhf"
			},
			{
				"type": "occ",
				"energy": -0.33982,
				"method": "rhf"
			},
			{
				"type": "occ",
				"energy": -0.25796,
				"method": "rhf"
			},
			{
				"type": "occ",
				"energy": -0.241,
				"method": "rhf"
			},
			{
				"type": "occ",
				"energy": -0.23788,
				"method": "rhf"
			},
			{
				"type": "unocc",
				"energy": -0.04469,
				"method": "rhf"
			},
			{
				"type": "unocc",
				"energy": -0.0021,
				"method": "rhf"
			},
			{
				"type": "unocc",
				"energy": 0.01911,
				"method": "rhf"
			},
			{
				"type": "unocc",
				"energy": 0.07893,
				"method": "rhf"
			},
			{
				"type": "unocc",
				"energy": 0.09479,
				"method": "rhf"
			}
		],
		"cosmo_sigma_profile": { 
			"-0.025": 0.0,
			"-0.024": 0.0,
			"-0.023": 0.0,
			"-0.022": 0.0,
			"-0.021": 0.0,
			"-0.02": 0.0,
			"-0.019": 0.0,
			"-0.018": 0.0,
			"-0.017": 0.0,
			"-0.016": 0.0,
			"-0.015": 0.0,
			"-0.014": 0.0,
			"-0.013": 0.0,
			"-0.012": 0.0,
			"-0.011": 0.0,
			"-0.01": 0.0,
			"-0.009": 0.762101652715,
			"-0.008": 2.3825063554,
			"-0.007": 2.02633928854,
			"-0.006": 5.20308944389,
			"-0.005": 14.3637770226,
			"-0.004": 19.1411027196,
			"-0.003": 22.5198615883,
			"-0.002": 19.7938733941,
			"-0.001": 13.5124641984,
			"0.0": 10.0161803789,
			"0.001": 9.350880254,
			"0.002": 13.5733035676,
			"0.003": 15.1881025551,
			"0.004": 8.71766314453,
			"0.005": 3.88361144921,
			"0.006": 2.28183808651,
			"0.007": 1.58350247863,
			"0.008": 1.44012180708,
			"0.009": 1.25332353617,
			"0.01": 1.91502428248,
			"0.011": 2.61692139693,
			"0.012": 4.16807804478,
			"0.013": 3.49133614382,
			"0.014": 0.878954661632,
			"0.015": 0.0,
			"0.016": 0.0,
			"0.017": 0.0,
			"0.018": 0.0,
			"0.019": 0.0,
			"0.02": 0.0,
			"0.021": 0.0,
			"0.022": 0.0,
			"0.023": 0.0,
			"0.024": 0.0,
			"0.025": 0.0
		}
	}
}
