{
	 "smiles": "CC1=CC=C(CNC(=O)N2C=CN=C2)C=C1", 
	 "Tm": 406.15, 
	 "num_atms": 29, 
	 "gaussian": { 
		 "optdone": 1, 
		 "sigma_profile": "yes", 
		 "theory": "DFT", 
		 "functional": "B3LYP", 
		 "basiset": "6-31G**", 
		 "properties": { 
			 "R2extent": 5992.859, 
			 "electric_dipole_moment_norm": 4.76580969616, 
			 "electric_quadrupole_moment_norm": 12.8092421439, 
			 "total_energy": -704.598656115, 
			 "HOMO_LUMO_gap": 0.21173, 
			 "cosmo_polarized_energy": -15.03, 
			 "cosmo_cavitation_energy": 33.52, 
			 "cosmo_dispersion_energy": -23.75, 
			 "cosmo_repulsion_energy": 1.83, 
			 "cosmo_total_nonelectrostatic_energy": 11.61, 
			 "SMD_solvation_energy": 5.03 
		},
		"coords": [
			{
				"x": -3.4059762748,
				"y": -2.3388747227,
				"z": 2.2521752552,
				"element": "C" 
			},
			{
				"x": -2.4052242562,
				"y": -1.4162216667,
				"z": 1.5977782247,
				"element": "C" 
			},
			{
				"x": -1.4659681037,
				"y": -0.7075482932,
				"z": 2.3537875399,
				"element": "C" 
			},
			{
				"x": -0.5563427137,
				"y": 0.1594649268,
				"z": 1.7441169223,
				"element": "C" 
			},
			{
				"x": -0.5558441461,
				"y": 0.3355803539,
				"z": 0.3583253303,
				"element": "C" 
			},
			{
				"x": 0.4429595357,
				"y": 1.263052923,
				"z": -0.304015976,
				"element": "C" 
			},
			{
				"x": -0.2311049873,
				"y": 2.3288596873,
				"z": -1.0617893131,
				"element": "N" 
			},
			{
				"x": -0.0634994193,
				"y": 2.6829942615,
				"z": -2.3729856976,
				"element": "C" 
			},
			{
				"x": -0.9428716596,
				"y": 3.1777837683,
				"z": -3.0557194607,
				"element": "O" 
			},
			{
				"x": 1.2389971715,
				"y": 2.4689797141,
				"z": -2.9165896207,
				"element": "N" 
			},
			{
				"x": 1.4867580113,
				"y": 2.370026124,
				"z": -4.2809440863,
				"element": "C" 
			},
			{
				"x": 2.8450948382,
				"y": 2.3098986044,
				"z": -4.4035097512,
				"element": "C" 
			},
			{
				"x": 3.4584066184,
				"y": 2.3987326685,
				"z": -3.1642879095,
				"element": "N" 
			},
			{
				"x": 2.4813906801,
				"y": 2.4958924844,
				"z": -2.3013015743,
				"element": "C" 
			},
			{
				"x": -1.495006192,
				"y": -0.3735074645,
				"z": -0.4055506934,
				"element": "C" 
			},
			{
				"x": -2.4023579769,
				"y": -1.2333224301,
				"z": 0.2055916057,
				"element": "C" 
			},
			{
				"x": -3.4554045873,
				"y": -3.3040985724,
				"z": 1.7370993364,
				"element": "H" 
			},
			{
				"x": -4.415131222,
				"y": -1.9099750417,
				"z": 2.2285878085,
				"element": "H" 
			},
			{
				"x": -3.1518308278,
				"y": -2.5275155501,
				"z": 3.2987302142,
				"element": "H" 
			},
			{
				"x": -1.4457222949,
				"y": -0.8303881551,
				"z": 3.4336501592,
				"element": "H" 
			},
			{
				"x": 0.1618378289,
				"y": 0.7008650225,
				"z": 2.3552915432,
				"element": "H" 
			},
			{
				"x": 1.0805412714,
				"y": 0.704011309,
				"z": -0.9947895287,
				"element": "H" 
			},
			{
				"x": 1.0992250828,
				"y": 1.6946551009,
				"z": 0.4618526478,
				"element": "H" 
			},
			{
				"x": -1.1627722974,
				"y": 2.563767559,
				"z": -0.7432929755,
				"element": "H" 
			},
			{
				"x": 0.6744778485,
				"y": 2.3590634247,
				"z": -4.988734117,
				"element": "H" 
			},
			{
				"x": 3.426167671,
				"y": 2.2110749417,
				"z": -5.3095932629,
				"element": "H" 
			},
			{
				"x": 2.5923992735,
				"y": 2.6290998563,
				"z": -1.2356220334,
				"element": "H" 
			},
			{
				"x": -1.5146122591,
				"y": -0.2504154062,
				"z": -1.4855894964,
				"element": "H" 
			},
			{
				"x": -3.1189866134,
				"y": -1.7762354276,
				"z": -0.4059710906,
				"element": "H" 
			}
		],
		 "valence_orbital": [ 
			{
				"type": "occ",
				"energy": -0.27416,
				"method": "rhf"
			},
			{
				"type": "occ",
				"energy": -0.26344,
				"method": "rhf"
			},
			{
				"type": "occ",
				"energy": -0.26136,
				"method": "rhf"
			},
			{
				"type": "occ",
				"energy": -0.24827,
				"method": "rhf"
			},
			{
				"type": "occ",
				"energy": -0.2349,
				"method": "rhf"
			},
			{
				"type": "unocc",
				"energy": -0.02317,
				"method": "rhf"
			},
			{
				"type": "unocc",
				"energy": -0.01571,
				"method": "rhf"
			},
			{
				"type": "unocc",
				"energy": -0.01008,
				"method": "rhf"
			},
			{
				"type": "unocc",
				"energy": 0.05662,
				"method": "rhf"
			},
			{
				"type": "unocc",
				"energy": 0.06602,
				"method": "rhf"
			}
		],
		"cosmo_sigma_profile": { 
			"-0.025": 0.0,
			"-0.024": 0.0,
			"-0.023": 0.0,
			"-0.022": 0.0,
			"-0.021": 0.0,
			"-0.02": 0.0,
			"-0.019": 0.0,
			"-0.018": 0.0,
			"-0.017": 0.0,
			"-0.016": 0.0,
			"-0.015": 0.0,
			"-0.014": 0.33667595106,
			"-0.013": 0.76550613656,
			"-0.012": 0.85549426913,
			"-0.011": 0.789328000259,
			"-0.01": 1.04626423852,
			"-0.009": 3.27960749771,
			"-0.008": 4.11032538156,
			"-0.007": 6.953177417,
			"-0.006": 15.8889735568,
			"-0.005": 19.3779566833,
			"-0.004": 25.144027338,
			"-0.003": 23.5423509426,
			"-0.002": 20.5009001267,
			"-0.001": 19.042693461,
			"0.0": 19.5691379589,
			"0.001": 14.6162208818,
			"0.002": 13.4285258516,
			"0.003": 14.1758379935,
			"0.004": 13.7812554437,
			"0.005": 12.6543086888,
			"0.006": 8.60352370994,
			"0.007": 2.85128447665,
			"0.008": 3.25117684467,
			"0.009": 2.09455701614,
			"0.01": 2.52494106219,
			"0.011": 3.46287101801,
			"0.012": 6.65193309978,
			"0.013": 3.55112036616,
			"0.014": 1.20593091247,
			"0.015": 1.24232373646,
			"0.016": 1.0661797454,
			"0.017": 0.786277559609,
			"0.018": 0.0105980559533,
			"0.019": 0.0,
			"0.02": 0.0,
			"0.021": 0.0,
			"0.022": 0.0,
			"0.023": 0.0,
			"0.024": 0.0,
			"0.025": 0.0
		}
	}
}
