{
	 "smiles": "NC1=C(C=C(Cl)C=C1)S(N)(=O)=O", 
	 "Tm": 422.15, 
	 "num_atms": 19, 
	 "gaussian": { 
		 "optdone": 1, 
		 "sigma_profile": "yes", 
		 "theory": "DFT", 
		 "functional": "B3LYP", 
		 "basiset": "6-31G**", 
		 "properties": { 
			 "R2extent": 3130.6621, 
			 "electric_dipole_moment_norm": 5.81383707632, 
			 "electric_quadrupole_moment_norm": 15.4397647803, 
			 "total_energy": -1351.1260987, 
			 "HOMO_LUMO_gap": 0.18604, 
			 "cosmo_polarized_energy": -18.42, 
			 "cosmo_cavitation_energy": 25.83, 
			 "cosmo_dispersion_energy": -20.09, 
			 "cosmo_repulsion_energy": 1.56, 
			 "cosmo_total_nonelectrostatic_energy": 7.3, 
			 "SMD_solvation_energy": 3.75 
		},
		"coords": [
			{
				"x": -2.0588605494,
				"y": 1.2201322197,
				"z": -1.2309127532,
				"element": "N" 
			},
			{
				"x": -0.7592605589,
				"y": 0.7226041022,
				"z": -1.1810487132,
				"element": "C" 
			},
			{
				"x": -0.4986050329,
				"y": -0.6020519293,
				"z": -0.7613835072,
				"element": "C" 
			},
			{
				"x": 0.7997416518,
				"y": -1.1049094704,
				"z": -0.6697223949,
				"element": "C" 
			},
			{
				"x": 1.8719680927,
				"y": -0.27474473,
				"z": -0.9780253799,
				"element": "C" 
			},
			{
				"x": 3.5127548251,
				"y": -0.8892390889,
				"z": -0.8672433933,
				"element": "Cl" 
			},
			{
				"x": 1.6501930682,
				"y": 1.0467172137,
				"z": -1.3710020145,
				"element": "C" 
			},
			{
				"x": 0.35144924,
				"y": 1.5334924843,
				"z": -1.4723872397,
				"element": "C" 
			},
			{
				"x": -1.8580423854,
				"y": -1.6696986353,
				"z": -0.2843585539,
				"element": "S" 
			},
			{
				"x": -2.5001159867,
				"y": -0.9980864287,
				"z": 1.114690145,
				"element": "N" 
			},
			{
				"x": -2.9035558674,
				"y": -1.5268692466,
				"z": -1.3062385766,
				"element": "O" 
			},
			{
				"x": -1.3114145695,
				"y": -2.970263528,
				"z": 0.0909522468,
				"element": "O" 
			},
			{
				"x": -2.7467513157,
				"y": 0.5483084829,
				"z": -1.5615272327,
				"element": "H" 
			},
			{
				"x": -2.1428502534,
				"y": 2.120375563,
				"z": -1.6838472022,
				"element": "H" 
			},
			{
				"x": 0.9505978448,
				"y": -2.1315468407,
				"z": -0.3569249142,
				"element": "H" 
			},
			{
				"x": 2.4916116621,
				"y": 1.68889933,
				"z": -1.6072058038,
				"element": "H" 
			},
			{
				"x": 0.1881719919,
				"y": 2.5592001684,
				"z": -1.7923877773,
				"element": "H" 
			},
			{
				"x": -2.7936021215,
				"y": -0.0347865992,
				"z": 0.9626882619,
				"element": "H" 
			},
			{
				"x": -1.8617297356,
				"y": -1.0906330671,
				"z": 1.8997848029,
				"element": "H" 
			}
		],
		 "valence_orbital": [ 
			{
				"type": "occ",
				"energy": -0.31382,
				"method": "rhf"
			},
			{
				"type": "occ",
				"energy": -0.31307,
				"method": "rhf"
			},
			{
				"type": "occ",
				"energy": -0.30562,
				"method": "rhf"
			},
			{
				"type": "occ",
				"energy": -0.27976,
				"method": "rhf"
			},
			{
				"type": "occ",
				"energy": -0.23193,
				"method": "rhf"
			},
			{
				"type": "unocc",
				"energy": -0.04589,
				"method": "rhf"
			},
			{
				"type": "unocc",
				"energy": -0.02029,
				"method": "rhf"
			},
			{
				"type": "unocc",
				"energy": 0.01738,
				"method": "rhf"
			},
			{
				"type": "unocc",
				"energy": 0.0545,
				"method": "rhf"
			},
			{
				"type": "unocc",
				"energy": 0.06805,
				"method": "rhf"
			}
		],
		"cosmo_sigma_profile": { 
			"-0.025": 0.0,
			"-0.024": 0.0,
			"-0.023": 0.0,
			"-0.022": 0.0,
			"-0.021": 0.0,
			"-0.02": 0.0,
			"-0.019": 0.0,
			"-0.018": 0.0,
			"-0.017": 0.0,
			"-0.016": 0.217622608222,
			"-0.015": 1.48128443005,
			"-0.014": 1.83497033383,
			"-0.013": 4.10110795809,
			"-0.012": 4.36469431413,
			"-0.011": 3.85389212725,
			"-0.01": 3.58650514032,
			"-0.009": 4.46895497099,
			"-0.008": 6.37276598551,
			"-0.007": 7.27060552854,
			"-0.006": 7.48219526572,
			"-0.005": 7.71326076531,
			"-0.004": 6.22137102467,
			"-0.003": 8.43159345558,
			"-0.002": 9.4256364225,
			"-0.001": 10.6527247797,
			"0.0": 11.7224087363,
			"0.001": 16.5309664218,
			"0.002": 19.9837243035,
			"0.003": 13.4474822536,
			"0.004": 12.3156934715,
			"0.005": 8.98769606779,
			"0.006": 4.64876386089,
			"0.007": 5.36160457352,
			"0.008": 3.98121483871,
			"0.009": 5.13634275513,
			"0.01": 8.01062883391,
			"0.011": 8.4546082893,
			"0.012": 2.18856111772,
			"0.013": 0.23625526985,
			"0.014": 0.0,
			"0.015": 0.0,
			"0.016": 0.0,
			"0.017": 0.0,
			"0.018": 0.0,
			"0.019": 0.0,
			"0.02": 0.0,
			"0.021": 0.0,
			"0.022": 0.0,
			"0.023": 0.0,
			"0.024": 0.0,
			"0.025": 0.0
		}
	}
}
