{
	 "smiles": "COC1=CC=C2C(=O)OC(CC2=C1)C1=CC=C(C=C1)[N+]([O-])=O", 
	 "Tm": 449.15, 
	 "num_atms": 35, 
	 "gaussian": { 
		 "optdone": 1, 
		 "sigma_profile": "yes", 
		 "theory": "DFT", 
		 "functional": "B3LYP", 
		 "basiset": "6-31G**", 
		 "properties": { 
			 "R2extent": 10210.9175, 
			 "electric_dipole_moment_norm": 7.63160409744, 
			 "electric_quadrupole_moment_norm": 28.8903281184, 
			 "total_energy": -1048.31630332, 
			 "HOMO_LUMO_gap": 0.15154, 
			 "cosmo_polarized_energy": -19.75, 
			 "cosmo_cavitation_energy": 40.26, 
			 "cosmo_dispersion_energy": -28.96, 
			 "cosmo_repulsion_energy": 2.17, 
			 "cosmo_total_nonelectrostatic_energy": 13.47, 
			 "SMD_solvation_energy": 10.34 
		},
		"coords": [
			{
				"x": 3.003828798,
				"y": -2.4998164696,
				"z": -4.6824612102,
				"element": "C" 
			},
			{
				"x": 1.6553156292,
				"y": -2.3099567063,
				"z": -5.0915126605,
				"element": "O" 
			},
			{
				"x": 0.7519163183,
				"y": -1.8680392694,
				"z": -4.1808864323,
				"element": "C" 
			},
			{
				"x": -0.5636133263,
				"y": -1.7141879681,
				"z": -4.6585405416,
				"element": "C" 
			},
			{
				"x": -1.5567893025,
				"y": -1.2680283982,
				"z": -3.8067250274,
				"element": "C" 
			},
			{
				"x": -1.2611931006,
				"y": -0.956384132,
				"z": -2.4683235717,
				"element": "C" 
			},
			{
				"x": -2.3589446208,
				"y": -0.525064267,
				"z": -1.5712550187,
				"element": "C" 
			},
			{
				"x": -3.5352333706,
				"y": -0.5935358386,
				"z": -1.8465900142,
				"element": "O" 
			},
			{
				"x": -2.0036786849,
				"y": -0.0467867915,
				"z": -0.3341564285,
				"element": "O" 
			},
			{
				"x": -0.6371708875,
				"y": 0.3245459066,
				"z": -0.0829342339,
				"element": "C" 
			},
			{
				"x": 0.3107209764,
				"y": -0.7921387207,
				"z": -0.5398027171,
				"element": "C" 
			},
			{
				"x": 0.0478688443,
				"y": -1.1119862028,
				"z": -1.9907481938,
				"element": "C" 
			},
			{
				"x": 1.0547215336,
				"y": -1.5672032748,
				"z": -2.8459304852,
				"element": "C" 
			},
			{
				"x": -0.4975752524,
				"y": 0.6392636628,
				"z": 1.3916503013,
				"element": "C" 
			},
			{
				"x": 0.5678788026,
				"y": 1.4440703369,
				"z": 1.8206550112,
				"element": "C" 
			},
			{
				"x": 0.7598112756,
				"y": 1.7124633573,
				"z": 3.1717632735,
				"element": "C" 
			},
			{
				"x": -0.1350464952,
				"y": 1.1683008757,
				"z": 4.0914582177,
				"element": "C" 
			},
			{
				"x": -1.2083559342,
				"y": 0.374367943,
				"z": 3.6944683983,
				"element": "C" 
			},
			{
				"x": -1.3846782353,
				"y": 0.1111354407,
				"z": 2.3381232124,
				"element": "C" 
			},
			{
				"x": 0.0581500537,
				"y": 1.4474134327,
				"z": 5.5231957998,
				"element": "N" 
			},
			{
				"x": 1.0147498109,
				"y": 2.1532431374,
				"z": 5.8425585459,
				"element": "O" 
			},
			{
				"x": -0.7463434559,
				"y": 0.9568942483,
				"z": 6.3142423475,
				"element": "O" 
			},
			{
				"x": 3.4575492061,
				"y": -1.5602210894,
				"z": -4.3438002083,
				"element": "H" 
			},
			{
				"x": 3.5357769499,
				"y": -2.8587505747,
				"z": -5.5641717716,
				"element": "H" 
			},
			{
				"x": 3.0802850549,
				"y": -3.2478306634,
				"z": -3.883818583,
				"element": "H" 
			},
			{
				"x": -0.7682274579,
				"y": -1.9556783973,
				"z": -5.6959371739,
				"element": "H" 
			},
			{
				"x": -2.5790777642,
				"y": -1.1532642938,
				"z": -4.1507828107,
				"element": "H" 
			},
			{
				"x": -0.4162512441,
				"y": 1.2307277665,
				"z": -0.6649663162,
				"element": "H" 
			},
			{
				"x": 0.139383565,
				"y": -1.6769166028,
				"z": 0.0882155594,
				"element": "H" 
			},
			{
				"x": 1.3492531491,
				"y": -0.4840400964,
				"z": -0.3819148031,
				"element": "H" 
			},
			{
				"x": 2.0626588954,
				"y": -1.6818523983,
				"z": -2.4638824007,
				"element": "H" 
			},
			{
				"x": 1.2507023322,
				"y": 1.8721442027,
				"z": 1.0913475238,
				"element": "H" 
			},
			{
				"x": 1.5743141539,
				"y": 2.3333495035,
				"z": 3.5227434117,
				"element": "H" 
			},
			{
				"x": -1.8841228774,
				"y": -0.0202132349,
				"z": 4.4428918855,
				"element": "H" 
			},
			{
				"x": -2.2215833394,
				"y": -0.490424424,
				"z": 2.0039271145,
				"element": "H" 
			}
		],
		 "valence_orbital": [ 
			{
				"type": "occ",
				"energy": -0.28148,
				"method": "rhf"
			},
			{
				"type": "occ",
				"energy": -0.27938,
				"method": "rhf"
			},
			{
				"type": "occ",
				"energy": -0.27396,
				"method": "rhf"
			},
			{
				"type": "occ",
				"energy": -0.26833,
				"method": "rhf"
			},
			{
				"type": "occ",
				"energy": -0.24225,
				"method": "rhf"
			},
			{
				"type": "unocc",
				"energy": -0.09071,
				"method": "rhf"
			},
			{
				"type": "unocc",
				"energy": -0.04943,
				"method": "rhf"
			},
			{
				"type": "unocc",
				"energy": -0.03217,
				"method": "rhf"
			},
			{
				"type": "unocc",
				"energy": -0.02285,
				"method": "rhf"
			},
			{
				"type": "unocc",
				"energy": -0.00401,
				"method": "rhf"
			}
		],
		"cosmo_sigma_profile": { 
			"-0.025": 0.0,
			"-0.024": 0.0,
			"-0.023": 0.0,
			"-0.022": 0.0,
			"-0.021": 0.0,
			"-0.02": 0.0,
			"-0.019": 0.0,
			"-0.018": 0.0,
			"-0.017": 0.0,
			"-0.016": 0.0,
			"-0.015": 0.0,
			"-0.014": 0.0,
			"-0.013": 0.0,
			"-0.012": 0.0,
			"-0.011": 0.0,
			"-0.01": 0.00136979830211,
			"-0.009": 0.908494817554,
			"-0.008": 4.63059414701,
			"-0.007": 15.3433800203,
			"-0.006": 28.2698235676,
			"-0.005": 25.9392949225,
			"-0.004": 25.1240596602,
			"-0.003": 23.7434952821,
			"-0.002": 20.2816629495,
			"-0.001": 20.185811502,
			"0.0": 19.9953761919,
			"0.001": 23.6384141798,
			"0.002": 25.0274247825,
			"0.003": 18.3815199948,
			"0.004": 8.37163650971,
			"0.005": 6.6035924223,
			"0.006": 7.63682933485,
			"0.007": 10.1582866578,
			"0.008": 12.1637804422,
			"0.009": 7.16941170852,
			"0.01": 5.93054721119,
			"0.011": 4.12948301067,
			"0.012": 5.50951911026,
			"0.013": 2.46730608702,
			"0.014": 0.422938415483,
			"0.015": 0.0,
			"0.016": 0.0,
			"0.017": 0.0,
			"0.018": 0.0,
			"0.019": 0.0,
			"0.02": 0.0,
			"0.021": 0.0,
			"0.022": 0.0,
			"0.023": 0.0,
			"0.024": 0.0,
			"0.025": 0.0
		}
	}
}
