{
	 "smiles": "NC1=CC(C(=O)NC2CC2)=C(Cl)C=C1", 
	 "Tm": 400.15, 
	 "num_atms": 25, 
	 "gaussian": { 
		 "optdone": 1, 
		 "sigma_profile": "yes", 
		 "theory": "DFT", 
		 "functional": "B3LYP", 
		 "basiset": "6-31G**", 
		 "properties": { 
			 "R2extent": 3299.482, 
			 "electric_dipole_moment_norm": 3.73618433833, 
			 "electric_quadrupole_moment_norm": 21.6745990881, 
			 "total_energy": -1032.59163834, 
			 "HOMO_LUMO_gap": 0.19006, 
			 "cosmo_polarized_energy": -16.44, 
			 "cosmo_cavitation_energy": 30.51, 
			 "cosmo_dispersion_energy": -21.39, 
			 "cosmo_repulsion_energy": 1.72, 
			 "cosmo_total_nonelectrostatic_energy": 10.85, 
			 "SMD_solvation_energy": 4.74 
		},
		"coords": [
			{
				"x": -1.5892602285,
				"y": 0.3713546953,
				"z": 2.7934674823,
				"element": "N" 
			},
			{
				"x": -0.9411207695,
				"y": -0.2624298063,
				"z": 1.7341688082,
				"element": "C" 
			},
			{
				"x": 0.0074180743,
				"y": 0.4220905319,
				"z": 0.9604472491,
				"element": "C" 
			},
			{
				"x": 0.6177563604,
				"y": -0.1696245075,
				"z": -0.149592635,
				"element": "C" 
			},
			{
				"x": 1.6728572292,
				"y": 0.6454354103,
				"z": -0.864093655,
				"element": "C" 
			},
			{
				"x": 2.6969163854,
				"y": 0.9823622547,
				"z": -0.2822410681,
				"element": "O" 
			},
			{
				"x": 1.4137027944,
				"y": 1.0426240899,
				"z": -2.1488155594,
				"element": "N" 
			},
			{
				"x": 0.2604199385,
				"y": 0.768455547,
				"z": -2.9592867443,
				"element": "C" 
			},
			{
				"x": -0.3275022877,
				"y": 1.9171099166,
				"z": -3.7424643998,
				"element": "C" 
			},
			{
				"x": -1.0788278198,
				"y": 1.3458885064,
				"z": -2.5691709612,
				"element": "C" 
			},
			{
				"x": 0.2984953715,
				"y": -1.4953164919,
				"z": -0.4635386322,
				"element": "C" 
			},
			{
				"x": 1.1085530883,
				"y": -2.3436865708,
				"z": -1.7817061378,
				"element": "Cl" 
			},
			{
				"x": -0.6345826148,
				"y": -2.19729555,
				"z": 0.299828607,
				"element": "C" 
			},
			{
				"x": -1.2577816443,
				"y": -1.5860187512,
				"z": 1.3816576502,
				"element": "C" 
			},
			{
				"x": -1.9594314887,
				"y": -0.2454003665,
				"z": 3.5034398751,
				"element": "H" 
			},
			{
				"x": -1.0911729393,
				"y": 1.1532199095,
				"z": 3.1964074322,
				"element": "H" 
			},
			{
				"x": 0.2894731925,
				"y": 1.4374337003,
				"z": 1.2251022165,
				"element": "H" 
			},
			{
				"x": 2.195087057,
				"y": 1.5241531157,
				"z": -2.5772753541,
				"element": "H" 
			},
			{
				"x": 0.2512077911,
				"y": -0.2065905204,
				"z": -3.4414870396,
				"element": "H" 
			},
			{
				"x": -0.6836567719,
				"y": 1.7135062424,
				"z": -4.7473029411,
				"element": "H" 
			},
			{
				"x": 0.1327826395,
				"y": 2.8923436182,
				"z": -3.6141453015,
				"element": "H" 
			},
			{
				"x": -1.1178726024,
				"y": 1.9349453217,
				"z": -1.6595205512,
				"element": "H" 
			},
			{
				"x": -1.9589676182,
				"y": 0.7383368207,
				"z": -2.7532431392,
				"element": "H" 
			},
			{
				"x": -0.8637149403,
				"y": -3.2274851571,
				"z": 0.0496350729,
				"element": "H" 
			},
			{
				"x": -1.9886781966,
				"y": -2.140811959,
				"z": 1.964029726,
				"element": "H" 
			}
		],
		 "valence_orbital": [ 
			{
				"type": "occ",
				"energy": -0.29554,
				"method": "rhf"
			},
			{
				"type": "occ",
				"energy": -0.26688,
				"method": "rhf"
			},
			{
				"type": "occ",
				"energy": -0.24583,
				"method": "rhf"
			},
			{
				"type": "occ",
				"energy": -0.23911,
				"method": "rhf"
			},
			{
				"type": "occ",
				"energy": -0.20906,
				"method": "rhf"
			},
			{
				"type": "unocc",
				"energy": -0.019,
				"method": "rhf"
			},
			{
				"type": "unocc",
				"energy": 0.00045,
				"method": "rhf"
			},
			{
				"type": "unocc",
				"energy": 0.03001,
				"method": "rhf"
			},
			{
				"type": "unocc",
				"energy": 0.03805,
				"method": "rhf"
			},
			{
				"type": "unocc",
				"energy": 0.07777,
				"method": "rhf"
			}
		],
		"cosmo_sigma_profile": { 
			"-0.025": 0.0,
			"-0.024": 0.0,
			"-0.023": 0.0,
			"-0.022": 0.0,
			"-0.021": 0.0,
			"-0.02": 0.0,
			"-0.019": 0.0,
			"-0.018": 0.0,
			"-0.017": 0.0,
			"-0.016": 0.0,
			"-0.015": 0.0,
			"-0.014": 0.118835104148,
			"-0.013": 2.28049908953,
			"-0.012": 4.32991906894,
			"-0.011": 3.74638076638,
			"-0.01": 3.6792651107,
			"-0.009": 4.45926648806,
			"-0.008": 4.93267340462,
			"-0.007": 6.33385663859,
			"-0.006": 7.92215372692,
			"-0.005": 13.777738678,
			"-0.004": 15.9263337788,
			"-0.003": 15.3745552019,
			"-0.002": 15.276120619,
			"-0.001": 14.4043450674,
			"0.0": 16.8810384671,
			"0.001": 15.6079104914,
			"0.002": 17.0540963353,
			"0.003": 20.0754947099,
			"0.004": 22.8205053788,
			"0.005": 11.3603644428,
			"0.006": 1.53306616262,
			"0.007": 2.91197556109,
			"0.008": 2.76104930833,
			"0.009": 1.65528510875,
			"0.01": 2.24277758439,
			"0.011": 2.74841070842,
			"0.012": 2.09650425184,
			"0.013": 6.06894082692,
			"0.014": 4.62576122521,
			"0.015": 0.563479209078,
			"0.016": 0.0,
			"0.017": 0.0,
			"0.018": 0.0,
			"0.019": 0.0,
			"0.02": 0.0,
			"0.021": 0.0,
			"0.022": 0.0,
			"0.023": 0.0,
			"0.024": 0.0,
			"0.025": 0.0
		}
	}
}
