{
	 "smiles": "FC(F)(F)COC(=O)NC1=NC=C(Cl)C=C1", 
	 "Tm": 432.15, 
	 "num_atms": 22, 
	 "gaussian": { 
		 "optdone": 1, 
		 "sigma_profile": "yes", 
		 "theory": "DFT", 
		 "functional": "B3LYP", 
		 "basiset": "6-31G**", 
		 "properties": { 
			 "R2extent": 5606.4029, 
			 "electric_dipole_moment_norm": 1.63459824116, 
			 "electric_quadrupole_moment_norm": 8.52216655728, 
			 "total_energy": -1328.15555942, 
			 "HOMO_LUMO_gap": 0.19799, 
			 "cosmo_polarized_energy": -9.91, 
			 "cosmo_cavitation_energy": 31.03, 
			 "cosmo_dispersion_energy": -21.9, 
			 "cosmo_repulsion_energy": 1.66, 
			 "cosmo_total_nonelectrostatic_energy": 10.79, 
			 "SMD_solvation_energy": 6.13 
		},
		"coords": [
			{
				"x": -1.9205183298,
				"y": -0.5680715546,
				"z": -2.269909061,
				"element": "F" 
			},
			{
				"x": -1.9995510864,
				"y": 0.7476164791,
				"z": -2.5644555592,
				"element": "C" 
			},
			{
				"x": -2.5747184412,
				"y": 0.8696177741,
				"z": -3.7763662913,
				"element": "F" 
			},
			{
				"x": -2.8025629433,
				"y": 1.3216392927,
				"z": -1.6512616497,
				"element": "F" 
			},
			{
				"x": -0.6257658375,
				"y": 1.3933244121,
				"z": -2.581328634,
				"element": "C" 
			},
			{
				"x": -0.0143783694,
				"y": 1.1789271566,
				"z": -1.3136515232,
				"element": "O" 
			},
			{
				"x": 0.1526360786,
				"y": 2.2810587821,
				"z": -0.525173105,
				"element": "C" 
			},
			{
				"x": -0.0379346788,
				"y": 3.4226147687,
				"z": -0.8876801324,
				"element": "O" 
			},
			{
				"x": 0.5965886335,
				"y": 1.9499213816,
				"z": 0.7287407859,
				"element": "N" 
			},
			{
				"x": 0.8331000686,
				"y": 0.7269508509,
				"z": 1.38077947,
				"element": "C" 
			},
			{
				"x": 1.4620270852,
				"y": 0.8978273387,
				"z": 2.5514993772,
				"element": "N" 
			},
			{
				"x": 1.7384252988,
				"y": -0.1733564516,
				"z": 3.295721099,
				"element": "C" 
			},
			{
				"x": 1.3994522741,
				"y": -1.4659551601,
				"z": 2.8998621208,
				"element": "C" 
			},
			{
				"x": 1.7981997809,
				"y": -2.8330766832,
				"z": 3.9182199254,
				"element": "Cl" 
			},
			{
				"x": 0.7337245375,
				"y": -1.6447806411,
				"z": 1.68814723,
				"element": "C" 
			},
			{
				"x": 0.435993304,
				"y": -0.5339935675,
				"z": 0.9067066876,
				"element": "C" 
			},
			{
				"x": -0.7202436216,
				"y": 2.4604583285,
				"z": -2.7878262632,
				"element": "H" 
			},
			{
				"x": -0.0133535106,
				"y": 0.9074825161,
				"z": -3.3437284272,
				"element": "H" 
			},
			{
				"x": 0.8410241922,
				"y": 2.7532937948,
				"z": 1.2938705886,
				"element": "H" 
			},
			{
				"x": 2.2476439799,
				"y": 0.0009920263,
				"z": 4.2401096762,
				"element": "H" 
			},
			{
				"x": 0.4451353521,
				"y": -2.6380529816,
				"z": 1.3616613821,
				"element": "H" 
			},
			{
				"x": -0.092623767,
				"y": -0.6421378626,
				"z": -0.0286376968,
				"element": "H" 
			}
		],
		 "valence_orbital": [ 
			{
				"type": "occ",
				"energy": -0.31619,
				"method": "rhf"
			},
			{
				"type": "occ",
				"energy": -0.30621,
				"method": "rhf"
			},
			{
				"type": "occ",
				"energy": -0.30246,
				"method": "rhf"
			},
			{
				"type": "occ",
				"energy": -0.28429,
				"method": "rhf"
			},
			{
				"type": "occ",
				"energy": -0.24189,
				"method": "rhf"
			},
			{
				"type": "unocc",
				"energy": -0.0439,
				"method": "rhf"
			},
			{
				"type": "unocc",
				"energy": -0.0326,
				"method": "rhf"
			},
			{
				"type": "unocc",
				"energy": 0.02146,
				"method": "rhf"
			},
			{
				"type": "unocc",
				"energy": 0.03859,
				"method": "rhf"
			},
			{
				"type": "unocc",
				"energy": 0.0701,
				"method": "rhf"
			}
		],
		"cosmo_sigma_profile": { 
			"-0.025": 0.0,
			"-0.024": 0.0,
			"-0.023": 0.0,
			"-0.022": 0.0,
			"-0.021": 0.0,
			"-0.02": 0.0,
			"-0.019": 0.0,
			"-0.018": 0.0,
			"-0.017": 0.0,
			"-0.016": 0.0,
			"-0.015": 0.291679252519,
			"-0.014": 0.964470127174,
			"-0.013": 0.533331146454,
			"-0.012": 0.655257250682,
			"-0.011": 1.1079035535,
			"-0.01": 1.5684374279,
			"-0.009": 4.87310079685,
			"-0.008": 7.34433795034,
			"-0.007": 8.04539100392,
			"-0.006": 8.31439167499,
			"-0.005": 7.52112978341,
			"-0.004": 9.30449104765,
			"-0.003": 13.6190533308,
			"-0.002": 16.6873840869,
			"-0.001": 21.5087564545,
			"0.0": 26.5920000592,
			"0.001": 26.6013163407,
			"0.002": 35.1231085886,
			"0.003": 24.0652251548,
			"0.004": 12.4367224155,
			"0.005": 4.38245771456,
			"0.006": 2.71177451322,
			"0.007": 1.46825105499,
			"0.008": 2.10311456155,
			"0.009": 2.70993749828,
			"0.01": 2.76866174167,
			"0.011": 4.87891744259,
			"0.012": 3.33798642164,
			"0.013": 0.375809059205,
			"0.014": 0.0,
			"0.015": 0.0,
			"0.016": 0.0,
			"0.017": 0.0,
			"0.018": 0.0,
			"0.019": 0.0,
			"0.02": 0.0,
			"0.021": 0.0,
			"0.022": 0.0,
			"0.023": 0.0,
			"0.024": 0.0,
			"0.025": 0.0
		}
	}
}
