{
	 "smiles": "CCCCCC=CCC=CCC=CCC=CCCCC(O)=O", 
	 "Tm": 223.65, 
	 "num_atms": 54, 
	 "gaussian": { 
		 "optdone": 1, 
		 "sigma_profile": "yes", 
		 "theory": "DFT", 
		 "functional": "B3LYP", 
		 "basiset": "6-31G**", 
		 "properties": { 
			 "R2extent": 18911.3077, 
			 "electric_dipole_moment_norm": 1.66683345299, 
			 "electric_quadrupole_moment_norm": 15.1299574071, 
			 "total_energy": -931.825645291, 
			 "HOMO_LUMO_gap": 0.23865, 
			 "cosmo_polarized_energy": -12.16, 
			 "cosmo_cavitation_energy": 57.32, 
			 "cosmo_dispersion_energy": -37.86, 
			 "cosmo_repulsion_energy": 3.12, 
			 "cosmo_total_nonelectrostatic_energy": 22.57, 
			 "SMD_solvation_energy": 9.84 
		},
		"coords": [
			{
				"x": 2.273506377,
				"y": 0.6474090399,
				"z": -5.3697354491,
				"element": "C" 
			},
			{
				"x": 1.4271625917,
				"y": -0.6308951924,
				"z": -5.3255634029,
				"element": "C" 
			},
			{
				"x": -0.0092518485,
				"y": -0.4275358026,
				"z": -4.8157096318,
				"element": "C" 
			},
			{
				"x": -0.9030605969,
				"y": 0.4033017325,
				"z": -5.7499888759,
				"element": "C" 
			},
			{
				"x": -2.351937892,
				"y": 0.5532670041,
				"z": -5.2597296474,
				"element": "C" 
			},
			{
				"x": -2.5911998552,
				"y": 1.4567078191,
				"z": -4.0726176409,
				"element": "C" 
			},
			{
				"x": -1.7325942234,
				"y": 2.3136945773,
				"z": -3.5146919303,
				"element": "C" 
			},
			{
				"x": -2.0561519256,
				"y": 3.2117157579,
				"z": -2.3426203517,
				"element": "C" 
			},
			{
				"x": -1.1505768958,
				"y": 2.9734262866,
				"z": -1.1574504839,
				"element": "C" 
			},
			{
				"x": -1.5582794001,
				"y": 2.6165322238,
				"z": 0.0625992146,
				"element": "C" 
			},
			{
				"x": -0.6497665136,
				"y": 2.3689701834,
				"z": 1.2438926558,
				"element": "C" 
			},
			{
				"x": -0.7403742391,
				"y": 0.949690938,
				"z": 1.7525568128,
				"element": "C" 
			},
			{
				"x": -1.1417656656,
				"y": 0.5966389245,
				"z": 2.9757183241,
				"element": "C" 
			},
			{
				"x": -1.2362476095,
				"y": -0.8230833263,
				"z": 3.4830493116,
				"element": "C" 
			},
			{
				"x": -0.3637512128,
				"y": -1.0691605428,
				"z": 4.6924175896,
				"element": "C" 
			},
			{
				"x": 0.6053272127,
				"y": -1.9858499184,
				"z": 4.7552748803,
				"element": "C" 
			},
			{
				"x": 1.4950764702,
				"y": -2.30582192,
				"z": 5.9336898592,
				"element": "C" 
			},
			{
				"x": 1.5110764625,
				"y": -1.2966969731,
				"z": 7.0919642225,
				"element": "C" 
			},
			{
				"x": 2.1872984216,
				"y": 0.0436478528,
				"z": 6.7525091321,
				"element": "C" 
			},
			{
				"x": 3.6703709195,
				"y": -0.045388416,
				"z": 6.4561904976,
				"element": "C" 
			},
			{
				"x": 4.3220572004,
				"y": -0.874846981,
				"z": 7.3138434483,
				"element": "O" 
			},
			{
				"x": 4.2529232586,
				"y": 0.5618858758,
				"z": 5.5852563942,
				"element": "O" 
			},
			{
				"x": 1.8598868164,
				"y": 1.3893849105,
				"z": -6.0606464737,
				"element": "H" 
			},
			{
				"x": 2.3336989059,
				"y": 1.1138914729,
				"z": -4.3792893751,
				"element": "H" 
			},
			{
				"x": 3.2964196962,
				"y": 0.4323476978,
				"z": -5.6963075084,
				"element": "H" 
			},
			{
				"x": 1.3955343672,
				"y": -1.0824595299,
				"z": -6.3270452415,
				"element": "H" 
			},
			{
				"x": 1.9274006026,
				"y": -1.3639778858,
				"z": -4.6798040964,
				"element": "H" 
			},
			{
				"x": 0.0193654873,
				"y": 0.0333269885,
				"z": -3.8205053449,
				"element": "H" 
			},
			{
				"x": -0.4774550081,
				"y": -1.411987848,
				"z": -4.6783769332,
				"element": "H" 
			},
			{
				"x": -0.922259068,
				"y": -0.0809948756,
				"z": -6.7355538172,
				"element": "H" 
			},
			{
				"x": -0.4694615566,
				"y": 1.3973279665,
				"z": -5.9151589558,
				"element": "H" 
			},
			{
				"x": -2.7541535083,
				"y": -0.4433613518,
				"z": -5.0236136023,
				"element": "H" 
			},
			{
				"x": -2.976372591,
				"y": 0.9167432188,
				"z": -6.090303885,
				"element": "H" 
			},
			{
				"x": -3.59932366,
				"y": 1.4013583628,
				"z": -3.6564793428,
				"element": "H" 
			},
			{
				"x": -0.7170023169,
				"y": 2.3939759898,
				"z": -3.9018452676,
				"element": "H" 
			},
			{
				"x": -3.1028687476,
				"y": 3.0781571,
				"z": -2.0459058069,
				"element": "H" 
			},
			{
				"x": -1.9498474947,
				"y": 4.2615626511,
				"z": -2.6613071677,
				"element": "H" 
			},
			{
				"x": -0.082007269,
				"y": 3.1070202345,
				"z": -1.3382781417,
				"element": "H" 
			},
			{
				"x": -2.6238369051,
				"y": 2.4696815593,
				"z": 0.2461274302,
				"element": "H" 
			},
			{
				"x": 0.3855387946,
				"y": 2.5922737225,
				"z": 0.951341875,
				"element": "H" 
			},
			{
				"x": -0.903604774,
				"y": 3.0579296559,
				"z": 2.0615091616,
				"element": "H" 
			},
			{
				"x": -0.4649697298,
				"y": 0.1731676291,
				"z": 1.0373722546,
				"element": "H" 
			},
			{
				"x": -1.4184781136,
				"y": 1.3779250337,
				"z": 3.6866986345,
				"element": "H" 
			},
			{
				"x": -2.2837364809,
				"y": -1.0323145374,
				"z": 3.7549784649,
				"element": "H" 
			},
			{
				"x": -0.9730177889,
				"y": -1.524301059,
				"z": 2.6829876246,
				"element": "H" 
			},
			{
				"x": -0.5666895747,
				"y": -0.4311686598,
				"z": 5.5529395107,
				"element": "H" 
			},
			{
				"x": 0.7796388008,
				"y": -2.6051801176,
				"z": 3.8735287879,
				"element": "H" 
			},
			{
				"x": 2.5221716518,
				"y": -2.4509431991,
				"z": 5.5693178865,
				"element": "H" 
			},
			{
				"x": 1.2007976094,
				"y": -3.2895913208,
				"z": 6.3293412526,
				"element": "H" 
			},
			{
				"x": 2.0312617326,
				"y": -1.7465681982,
				"z": 7.9428447175,
				"element": "H" 
			},
			{
				"x": 0.4864717358,
				"y": -1.0975091842,
				"z": 7.4266810086,
				"element": "H" 
			},
			{
				"x": 1.7256503639,
				"y": 0.5243439728,
				"z": 5.8881613484,
				"element": "H" 
			},
			{
				"x": 2.0810384398,
				"y": 0.7290367617,
				"z": 7.6040959271,
				"element": "H" 
			},
			{
				"x": 5.2579685468,
				"y": -0.8393063042,
				"z": 7.0539401469,
				"element": "H" 
			}
		],
		 "valence_orbital": [ 
			{
				"type": "occ",
				"energy": -0.26776,
				"method": "rhf"
			},
			{
				"type": "occ",
				"energy": -0.24757,
				"method": "rhf"
			},
			{
				"type": "occ",
				"energy": -0.23906,
				"method": "rhf"
			},
			{
				"type": "occ",
				"energy": -0.23736,
				"method": "rhf"
			},
			{
				"type": "occ",
				"energy": -0.23035,
				"method": "rhf"
			},
			{
				"type": "unocc",
				"energy": 0.0083,
				"method": "rhf"
			},
			{
				"type": "unocc",
				"energy": 0.01143,
				"method": "rhf"
			},
			{
				"type": "unocc",
				"energy": 0.02413,
				"method": "rhf"
			},
			{
				"type": "unocc",
				"energy": 0.04112,
				"method": "rhf"
			},
			{
				"type": "unocc",
				"energy": 0.05847,
				"method": "rhf"
			}
		],
		"cosmo_sigma_profile": { 
			"-0.025": 0.0,
			"-0.024": 0.0,
			"-0.023": 0.0,
			"-0.022": 0.0,
			"-0.021": 0.0,
			"-0.02": 0.0,
			"-0.019": 0.00617410148555,
			"-0.018": 0.437180413986,
			"-0.017": 0.853876720321,
			"-0.016": 1.05226684222,
			"-0.015": 0.739669823371,
			"-0.014": 0.490533982853,
			"-0.013": 0.679117515696,
			"-0.012": 0.601176267879,
			"-0.011": 0.713055809059,
			"-0.01": 0.466058577563,
			"-0.009": 1.09604476041,
			"-0.008": 0.653665203747,
			"-0.007": 1.02549288304,
			"-0.006": 3.58248576636,
			"-0.005": 4.20545651272,
			"-0.004": 24.2718876131,
			"-0.003": 55.857330976,
			"-0.002": 64.6753047166,
			"-0.001": 65.7073085758,
			"0.0": 60.8403007859,
			"0.001": 44.278320217,
			"0.002": 28.5487618265,
			"0.003": 16.8988587256,
			"0.004": 14.8233049828,
			"0.005": 13.3303699398,
			"0.006": 11.8528622339,
			"0.007": 9.1396462268,
			"0.008": 3.27847698831,
			"0.009": 3.43630664448,
			"0.01": 1.48446581147,
			"0.011": 2.93005660294,
			"0.012": 5.3959316096,
			"0.013": 1.87985709676,
			"0.014": 0.12184140682,
			"0.015": 0.0,
			"0.016": 0.0,
			"0.017": 0.0,
			"0.018": 0.0,
			"0.019": 0.0,
			"0.02": 0.0,
			"0.021": 0.0,
			"0.022": 0.0,
			"0.023": 0.0,
			"0.024": 0.0,
			"0.025": 0.0
		}
	}
}
