{
	 "smiles": "COC(=O)C1=CC2=C(C=CC=C2)C(O)=C1C(=O)OC", 
	 "Tm": 378.15, 
	 "num_atms": 31, 
	 "gaussian": { 
		 "optdone": 1, 
		 "sigma_profile": "yes", 
		 "theory": "DFT", 
		 "functional": "B3LYP", 
		 "basiset": "6-31G**", 
		 "properties": { 
			 "R2extent": 6004.6714, 
			 "electric_dipole_moment_norm": 2.63901664262, 
			 "electric_quadrupole_moment_norm": 21.9901820643, 
			 "total_energy": -916.873869343, 
			 "HOMO_LUMO_gap": 0.15782, 
			 "cosmo_polarized_energy": -11.82, 
			 "cosmo_cavitation_energy": 35.44, 
			 "cosmo_dispersion_energy": -25.52, 
			 "cosmo_repulsion_energy": 1.94, 
			 "cosmo_total_nonelectrostatic_energy": 11.87, 
			 "SMD_solvation_energy": 8.87 
		},
		"coords": [
			{
				"x": -2.891909928,
				"y": 3.0109327749,
				"z": 0.3259240727,
				"element": "C" 
			},
			{
				"x": -1.9586833097,
				"y": 1.9315831119,
				"z": 0.1611216328,
				"element": "O" 
			},
			{
				"x": -1.1975551556,
				"y": 1.6648443601,
				"z": 1.2482171344,
				"element": "C" 
			},
			{
				"x": -1.2678894028,
				"y": 2.2943110089,
				"z": 2.2820470579,
				"element": "O" 
			},
			{
				"x": -0.3435816091,
				"y": 0.4503710054,
				"z": 1.0408114781,
				"element": "C" 
			},
			{
				"x": -0.9374047092,
				"y": -0.6531512137,
				"z": 0.4774629541,
				"element": "C" 
			},
			{
				"x": -0.2854228686,
				"y": -1.9200684675,
				"z": 0.4668047808,
				"element": "C" 
			},
			{
				"x": 0.9935666738,
				"y": -2.0538039442,
				"z": 1.0798924948,
				"element": "C" 
			},
			{
				"x": 1.6353236592,
				"y": -3.3147985691,
				"z": 1.1008209238,
				"element": "C" 
			},
			{
				"x": 1.0281462522,
				"y": -4.4129597962,
				"z": 0.5257135739,
				"element": "C" 
			},
			{
				"x": -0.2400596071,
				"y": -4.2874705912,
				"z": -0.084052176,
				"element": "C" 
			},
			{
				"x": -0.8842301587,
				"y": -3.0674801666,
				"z": -0.1107008814,
				"element": "C" 
			},
			{
				"x": 1.6120817521,
				"y": -0.8916356306,
				"z": 1.6541208599,
				"element": "C" 
			},
			{
				"x": 2.8182208173,
				"y": -1.0675988207,
				"z": 2.2029331339,
				"element": "O" 
			},
			{
				"x": 0.9784859306,
				"y": 0.3598310137,
				"z": 1.5994620089,
				"element": "C" 
			},
			{
				"x": 1.7833771776,
				"y": 1.5218363633,
				"z": 2.0102077738,
				"element": "C" 
			},
			{
				"x": 2.8072124177,
				"y": 1.4314139807,
				"z": 2.6987871692,
				"element": "O" 
			},
			{
				"x": 1.3782375767,
				"y": 2.6918933372,
				"z": 1.5092553006,
				"element": "O" 
			},
			{
				"x": 2.1227102254,
				"y": 3.8495313434,
				"z": 1.9240574761,
				"element": "C" 
			},
			{
				"x": -2.3665401446,
				"y": 3.9404911318,
				"z": 0.5585465447,
				"element": "H" 
			},
			{
				"x": -3.4154747385,
				"y": 3.0948399786,
				"z": -0.6264181338,
				"element": "H" 
			},
			{
				"x": -3.5954197875,
				"y": 2.7947625187,
				"z": 1.1342216232,
				"element": "H" 
			},
			{
				"x": -1.9382874345,
				"y": -0.5720582984,
				"z": 0.0683412807,
				"element": "H" 
			},
			{
				"x": 2.6074299478,
				"y": -3.3963382671,
				"z": 1.5731552703,
				"element": "H" 
			},
			{
				"x": 1.5244939745,
				"y": -5.3785985206,
				"z": 0.5427107366,
				"element": "H" 
			},
			{
				"x": -0.7098893524,
				"y": -5.158261237,
				"z": -0.5322303314,
				"element": "H" 
			},
			{
				"x": -1.8616824969,
				"y": -2.9698749919,
				"z": -0.5751575626,
				"element": "H" 
			},
			{
				"x": 3.0873926421,
				"y": -0.1896955659,
				"z": 2.5845991309,
				"element": "H" 
			},
			{
				"x": 2.0837978602,
				"y": 3.9585707287,
				"z": 3.0101261113,
				"element": "H" 
			},
			{
				"x": 1.6369846117,
				"y": 4.6943511648,
				"z": 1.4371597573,
				"element": "H" 
			},
			{
				"x": 3.1654691842,
				"y": 3.7679302587,
				"z": 1.6087588046,
				"element": "H" 
			}
		],
		 "valence_orbital": [ 
			{
				"type": "occ",
				"energy": -0.28755,
				"method": "rhf"
			},
			{
				"type": "occ",
				"energy": -0.27271,
				"method": "rhf"
			},
			{
				"type": "occ",
				"energy": -0.27093,
				"method": "rhf"
			},
			{
				"type": "occ",
				"energy": -0.25345,
				"method": "rhf"
			},
			{
				"type": "occ",
				"energy": -0.21444,
				"method": "rhf"
			},
			{
				"type": "unocc",
				"energy": -0.05662,
				"method": "rhf"
			},
			{
				"type": "unocc",
				"energy": -0.04738,
				"method": "rhf"
			},
			{
				"type": "unocc",
				"energy": 0.01651,
				"method": "rhf"
			},
			{
				"type": "unocc",
				"energy": 0.02739,
				"method": "rhf"
			},
			{
				"type": "unocc",
				"energy": 0.04274,
				"method": "rhf"
			}
		],
		"cosmo_sigma_profile": { 
			"-0.025": 0.0,
			"-0.024": 0.0,
			"-0.023": 0.0,
			"-0.022": 0.0,
			"-0.021": 0.0,
			"-0.02": 0.0,
			"-0.019": 0.0,
			"-0.018": 0.0,
			"-0.017": 0.0,
			"-0.016": 0.0,
			"-0.015": 0.0,
			"-0.014": 0.0,
			"-0.013": 0.0,
			"-0.012": 0.0,
			"-0.011": 0.0,
			"-0.01": 0.0,
			"-0.009": 0.0,
			"-0.008": 0.131417728236,
			"-0.007": 7.72053117321,
			"-0.006": 19.873707323,
			"-0.005": 23.7397144812,
			"-0.004": 28.1160231756,
			"-0.003": 25.2593273011,
			"-0.002": 17.1665788729,
			"-0.001": 16.470741504,
			"0.0": 18.934884982,
			"0.001": 20.6763325781,
			"0.002": 26.3345220432,
			"0.003": 22.0492336193,
			"0.004": 16.3253050451,
			"0.005": 6.41553762922,
			"0.006": 5.4986139833,
			"0.007": 6.3609906253,
			"0.008": 6.70018333121,
			"0.009": 4.52518545753,
			"0.01": 3.45533647557,
			"0.011": 4.03736936107,
			"0.012": 3.69010272904,
			"0.013": 0.112068501795,
			"0.014": 0.0,
			"0.015": 0.0,
			"0.016": 0.0,
			"0.017": 0.0,
			"0.018": 0.0,
			"0.019": 0.0,
			"0.02": 0.0,
			"0.021": 0.0,
			"0.022": 0.0,
			"0.023": 0.0,
			"0.024": 0.0,
			"0.025": 0.0
		}
	}
}
