{
	 "smiles": "OCCCCCCCCCCCCBr", 
	 "Tm": 307.15, 
	 "num_atms": 39, 
	 "gaussian": { 
		 "optdone": 1, 
		 "sigma_profile": "yes", 
		 "theory": "DFT", 
		 "functional": "B3LYP", 
		 "basiset": "6-31G**", 
		 "properties": { 
			 "R2extent": 13250.8766, 
			 "electric_dipole_moment_norm": 3.37929162695, 
			 "electric_quadrupole_moment_norm": 19.827487365, 
			 "total_energy": -3118.99526196, 
			 "HOMO_LUMO_gap": 0.26697, 
			 "cosmo_polarized_energy": -9.26, 
			 "cosmo_cavitation_energy": 41.47, 
			 "cosmo_dispersion_energy": -29.34, 
			 "cosmo_repulsion_energy": 2.42, 
			 "cosmo_total_nonelectrostatic_energy": 14.55, 
			 "SMD_solvation_energy": 4.34 
		},
		"coords": [
			{
				"x": 2.258661615,
				"y": 4.1812677028,
				"z": -4.654101621,
				"element": "O" 
			},
			{
				"x": 1.6536979356,
				"y": 2.9014781143,
				"z": -4.5014385324,
				"element": "C" 
			},
			{
				"x": 0.8637545078,
				"y": 2.7555617745,
				"z": -3.1975906047,
				"element": "C" 
			},
			{
				"x": 1.7220206214,
				"y": 2.9760349086,
				"z": -1.9452279571,
				"element": "C" 
			},
			{
				"x": 0.9325458078,
				"y": 3.0110456622,
				"z": -0.625771178,
				"element": "C" 
			},
			{
				"x": 0.1857255024,
				"y": 1.7191530591,
				"z": -0.2456063134,
				"element": "C" 
			},
			{
				"x": 1.0992051458,
				"y": 0.511430749,
				"z": 0.0122875661,
				"element": "C" 
			},
			{
				"x": 0.359618162,
				"y": -0.7770427303,
				"z": 0.4119867623,
				"element": "C" 
			},
			{
				"x": -0.3343289842,
				"y": -0.7267551097,
				"z": 1.781011041,
				"element": "C" 
			},
			{
				"x": -1.0111351167,
				"y": -2.0555844754,
				"z": 2.1534969843,
				"element": "C" 
			},
			{
				"x": -1.7592523875,
				"y": -2.0676914698,
				"z": 3.503640341,
				"element": "C" 
			},
			{
				"x": -0.9360303146,
				"y": -2.4706771399,
				"z": 4.7456830422,
				"element": "C" 
			},
			{
				"x": 0.1691606806,
				"y": -1.4906302449,
				"z": 5.1130955151,
				"element": "C" 
			},
			{
				"x": 1.056996597,
				"y": -2.0086749456,
				"z": 6.8129614693,
				"element": "Br" 
			},
			{
				"x": 1.5494524705,
				"y": 4.8366116762,
				"z": -4.6883387212,
				"element": "H" 
			},
			{
				"x": 1.0046103738,
				"y": 2.6659873054,
				"z": -5.3601534475,
				"element": "H" 
			},
			{
				"x": 2.4830812752,
				"y": 2.1852054196,
				"z": -4.5193205564,
				"element": "H" 
			},
			{
				"x": 0.0289357821,
				"y": 3.4742402374,
				"z": -3.2044475452,
				"element": "H" 
			},
			{
				"x": 0.4024122937,
				"y": 1.7591221763,
				"z": -3.186406098,
				"element": "H" 
			},
			{
				"x": 2.2576954546,
				"y": 3.9245402218,
				"z": -2.0638268525,
				"element": "H" 
			},
			{
				"x": 2.4979052635,
				"y": 2.1999497167,
				"z": -1.9019971669,
				"element": "H" 
			},
			{
				"x": 1.6230013295,
				"y": 3.2697477434,
				"z": 0.1886505287,
				"element": "H" 
			},
			{
				"x": 0.2048259148,
				"y": 3.8329900806,
				"z": -0.6748797266,
				"element": "H" 
			},
			{
				"x": -0.5392907907,
				"y": 1.4606501935,
				"z": -1.0299365861,
				"element": "H" 
			},
			{
				"x": -0.4092375535,
				"y": 1.9254181234,
				"z": 0.652782149,
				"element": "H" 
			},
			{
				"x": 1.8271277256,
				"y": 0.7695096306,
				"z": 0.7953871663,
				"element": "H" 
			},
			{
				"x": 1.6892575237,
				"y": 0.303213915,
				"z": -0.888867423,
				"element": "H" 
			},
			{
				"x": -0.3830130302,
				"y": -1.0238842526,
				"z": -0.3606357741,
				"element": "H" 
			},
			{
				"x": 1.0778789479,
				"y": -1.6082484146,
				"z": 0.4146575612,
				"element": "H" 
			},
			{
				"x": 0.4049161539,
				"y": -0.4434179552,
				"z": 2.5417149671,
				"element": "H" 
			},
			{
				"x": -1.0936858561,
				"y": 0.0660472644,
				"z": 1.7891447916,
				"element": "H" 
			},
			{
				"x": -1.7271709843,
				"y": -2.299290692,
				"z": 1.3576699444,
				"element": "H" 
			},
			{
				"x": -0.2683864993,
				"y": -2.8661809196,
				"z": 2.1400724076,
				"element": "H" 
			},
			{
				"x": -2.2273206171,
				"y": -1.0879521333,
				"z": 3.6737893007,
				"element": "H" 
			},
			{
				"x": -2.5872661911,
				"y": -2.7838700516,
				"z": 3.4388985938,
				"element": "H" 
			},
			{
				"x": -1.615015984,
				"y": -2.5634523195,
				"z": 5.6004278145,
				"element": "H" 
			},
			{
				"x": -0.4968376858,
				"y": -3.4628929514,
				"z": 4.5884626047,
				"element": "H" 
			},
			{
				"x": 0.9757680214,
				"y": -1.4593409321,
				"z": 4.3829468368,
				"element": "H" 
			},
			{
				"x": -0.2066831105,
				"y": -0.4812189374,
				"z": 5.2838787165,
				"element": "H" 
			}
		],
		 "valence_orbital": [ 
			{
				"type": "occ",
				"energy": -0.30598,
				"method": "rhf"
			},
			{
				"type": "occ",
				"energy": -0.30385,
				"method": "rhf"
			},
			{
				"type": "occ",
				"energy": -0.26729,
				"method": "rhf"
			},
			{
				"type": "occ",
				"energy": -0.26692,
				"method": "rhf"
			},
			{
				"type": "occ",
				"energy": -0.26412,
				"method": "rhf"
			},
			{
				"type": "unocc",
				"energy": 0.00285,
				"method": "rhf"
			},
			{
				"type": "unocc",
				"energy": 0.0705,
				"method": "rhf"
			},
			{
				"type": "unocc",
				"energy": 0.08404,
				"method": "rhf"
			},
			{
				"type": "unocc",
				"energy": 0.09293,
				"method": "rhf"
			},
			{
				"type": "unocc",
				"energy": 0.09902,
				"method": "rhf"
			}
		],
		"cosmo_sigma_profile": { 
			"-0.025": 0.0,
			"-0.024": 0.0,
			"-0.023": 0.0,
			"-0.022": 0.0,
			"-0.021": 0.0,
			"-0.02": 0.0,
			"-0.019": 0.0,
			"-0.018": 0.0,
			"-0.017": 0.0,
			"-0.016": 0.0,
			"-0.015": 0.574261889901,
			"-0.014": 1.04110595538,
			"-0.013": 0.852260121939,
			"-0.012": 0.970837494808,
			"-0.011": 0.771251703538,
			"-0.01": 1.12184335323,
			"-0.009": 0.565471129061,
			"-0.008": 0.615006405936,
			"-0.007": 1.43304958565,
			"-0.006": 5.51058553659,
			"-0.005": 5.27839944763,
			"-0.004": 9.04779873049,
			"-0.003": 23.8346688047,
			"-0.002": 49.0458004453,
			"-0.001": 61.8559671946,
			"0.0": 52.2332711053,
			"0.001": 39.9221082014,
			"0.002": 15.9213205614,
			"0.003": 6.48083481616,
			"0.004": 5.74620161316,
			"0.005": 7.18948243539,
			"0.006": 10.7504445887,
			"0.007": 9.57330591372,
			"0.008": 1.59002536575,
			"0.009": 1.01716137565,
			"0.01": 1.28206384883,
			"0.011": 1.28133910639,
			"0.012": 1.39274100443,
			"0.013": 0.915572431368,
			"0.014": 2.15163627733,
			"0.015": 1.5564487723,
			"0.016": 0.0,
			"0.017": 0.0,
			"0.018": 0.0,
			"0.019": 0.0,
			"0.02": 0.0,
			"0.021": 0.0,
			"0.022": 0.0,
			"0.023": 0.0,
			"0.024": 0.0,
			"0.025": 0.0
		}
	}
}
