{
	 "smiles": "CCC(CC1=C(Br)C=CC=C1)C(O)=O", 
	 "Tm": 341.15, 
	 "num_atms": 27, 
	 "gaussian": { 
		 "optdone": 1, 
		 "sigma_profile": "yes", 
		 "theory": "DFT", 
		 "functional": "B3LYP", 
		 "basiset": "6-31G**", 
		 "properties": { 
			 "R2extent": 4359.3447, 
			 "electric_dipole_moment_norm": 2.49837133149, 
			 "electric_quadrupole_moment_norm": 14.8709052472, 
			 "total_energy": -3148.87429244, 
			 "HOMO_LUMO_gap": 0.22707, 
			 "cosmo_polarized_energy": -12.63, 
			 "cosmo_cavitation_energy": 30.66, 
			 "cosmo_dispersion_energy": -22.15, 
			 "cosmo_repulsion_energy": 1.73, 
			 "cosmo_total_nonelectrostatic_energy": 10.23, 
			 "SMD_solvation_energy": 4.99 
		},
		"coords": [
			{
				"x": 0.3847883713,
				"y": -1.9387961902,
				"z": 2.0344638351,
				"element": "C" 
			},
			{
				"x": -0.9885468298,
				"y": -2.0067111997,
				"z": 1.350648036,
				"element": "C" 
			},
			{
				"x": -1.0636466773,
				"y": -1.5058479385,
				"z": -0.1197089947,
				"element": "C" 
			},
			{
				"x": -1.2254384953,
				"y": 0.0276645465,
				"z": -0.3042874281,
				"element": "C" 
			},
			{
				"x": -0.2796957197,
				"y": 0.9418954682,
				"z": 0.4502672351,
				"element": "C" 
			},
			{
				"x": -0.6341897477,
				"y": 1.6314201352,
				"z": 1.6204117131,
				"element": "C" 
			},
			{
				"x": -2.3885951787,
				"y": 1.4516531724,
				"z": 2.4000709642,
				"element": "Br" 
			},
			{
				"x": 0.2492094498,
				"y": 2.4866120122,
				"z": 2.2810265142,
				"element": "C" 
			},
			{
				"x": 1.5323270678,
				"y": 2.6755054132,
				"z": 1.7724432486,
				"element": "C" 
			},
			{
				"x": 1.9158895509,
				"y": 2.0134002199,
				"z": 0.6053874235,
				"element": "C" 
			},
			{
				"x": 1.0196496478,
				"y": 1.1662553957,
				"z": -0.0413392317,
				"element": "C" 
			},
			{
				"x": 0.0464389131,
				"y": -2.0789781597,
				"z": -1.0096733007,
				"element": "C" 
			},
			{
				"x": 0.2588358691,
				"y": -3.4173124472,
				"z": -0.8937897142,
				"element": "O" 
			},
			{
				"x": 0.6873604675,
				"y": -1.4500014981,
				"z": -1.8174380527,
				"element": "O" 
			},
			{
				"x": 0.7634142186,
				"y": -0.9168682647,
				"z": 2.0874447593,
				"element": "H" 
			},
			{
				"x": 0.3114332287,
				"y": -2.322120203,
				"z": 3.0571448103,
				"element": "H" 
			},
			{
				"x": 1.1281544874,
				"y": -2.5449893736,
				"z": 1.5064325833,
				"element": "H" 
			},
			{
				"x": -1.3524444348,
				"y": -3.0449530843,
				"z": 1.392069498,
				"element": "H" 
			},
			{
				"x": -1.7181438067,
				"y": -1.4319424053,
				"z": 1.929755396,
				"element": "H" 
			},
			{
				"x": -1.9848175736,
				"y": -1.9375570546,
				"z": -0.5421030993,
				"element": "H" 
			},
			{
				"x": -2.2510581198,
				"y": 0.2782176275,
				"z": -0.0254461431,
				"element": "H" 
			},
			{
				"x": -1.1214717739,
				"y": 0.2329920578,
				"z": -1.3733737873,
				"element": "H" 
			},
			{
				"x": -0.0712789983,
				"y": 2.9983152299,
				"z": 3.1812206571,
				"element": "H" 
			},
			{
				"x": 2.2205180843,
				"y": 3.3411704425,
				"z": 2.2848388306,
				"element": "H" 
			},
			{
				"x": 2.9105820939,
				"y": 2.158967595,
				"z": 0.1948233717,
				"element": "H" 
			},
			{
				"x": 1.3131403669,
				"y": 0.6474764096,
				"z": -0.9476867123,
				"element": "H" 
			},
			{
				"x": -0.3185144617,
				"y": -3.7900679068,
				"z": -0.212302412,
				"element": "H" 
			}
		],
		 "valence_orbital": [ 
			{
				"type": "occ",
				"energy": -0.31232,
				"method": "rhf"
			},
			{
				"type": "occ",
				"energy": -0.28858,
				"method": "rhf"
			},
			{
				"type": "occ",
				"energy": -0.27275,
				"method": "rhf"
			},
			{
				"type": "occ",
				"energy": -0.2531,
				"method": "rhf"
			},
			{
				"type": "occ",
				"energy": -0.24187,
				"method": "rhf"
			},
			{
				"type": "unocc",
				"energy": -0.0148,
				"method": "rhf"
			},
			{
				"type": "unocc",
				"energy": -0.01231,
				"method": "rhf"
			},
			{
				"type": "unocc",
				"energy": 0.00262,
				"method": "rhf"
			},
			{
				"type": "unocc",
				"energy": 0.0061,
				"method": "rhf"
			},
			{
				"type": "unocc",
				"energy": 0.0447,
				"method": "rhf"
			}
		],
		"cosmo_sigma_profile": { 
			"-0.025": 0.0,
			"-0.024": 0.0,
			"-0.023": 0.0,
			"-0.022": 0.0,
			"-0.021": 0.0,
			"-0.02": 0.0,
			"-0.019": 0.0,
			"-0.018": 0.0159417176643,
			"-0.017": 0.887841504119,
			"-0.016": 1.16866403149,
			"-0.015": 1.17063409726,
			"-0.014": 1.36448352642,
			"-0.013": 1.22799967349,
			"-0.012": 0.708426122885,
			"-0.011": 0.759842318959,
			"-0.01": 1.31025202175,
			"-0.009": 1.05682637881,
			"-0.008": 2.22397672985,
			"-0.007": 4.64145177794,
			"-0.006": 9.48208770302,
			"-0.005": 10.3174922151,
			"-0.004": 13.7066563785,
			"-0.003": 17.5739423828,
			"-0.002": 20.8422621496,
			"-0.001": 23.5284712454,
			"0.0": 21.2784836598,
			"0.001": 25.1756361289,
			"0.002": 19.9579180729,
			"0.003": 17.7877431895,
			"0.004": 16.8706935809,
			"0.005": 8.82989774427,
			"0.006": 2.19868114039,
			"0.007": 2.51734971919,
			"0.008": 2.68935827904,
			"0.009": 2.91504811314,
			"0.01": 4.37748782514,
			"0.011": 4.68832499503,
			"0.012": 2.74632954093,
			"0.013": 1.42292720553,
			"0.014": 0.0225095564135,
			"0.015": 0.0,
			"0.016": 0.0,
			"0.017": 0.0,
			"0.018": 0.0,
			"0.019": 0.0,
			"0.02": 0.0,
			"0.021": 0.0,
			"0.022": 0.0,
			"0.023": 0.0,
			"0.024": 0.0,
			"0.025": 0.0
		}
	}
}
