{
	 "smiles": "CC1NC2=CC(=O)NN2C(C)C1CC(O)=O", 
	 "Tm": 509.15, 
	 "num_atms": 31, 
	 "gaussian": { 
		 "optdone": 1, 
		 "sigma_profile": "yes", 
		 "theory": "DFT", 
		 "functional": "B3LYP", 
		 "basiset": "6-31G**", 
		 "properties": { 
			 "R2extent": 4703.4188, 
			 "electric_dipole_moment_norm": 7.53061611955, 
			 "electric_quadrupole_moment_norm": 27.6764135113, 
			 "total_energy": -780.028393023, 
			 "HOMO_LUMO_gap": 0.19121, 
			 "cosmo_polarized_energy": -26.17, 
			 "cosmo_cavitation_energy": 32.83, 
			 "cosmo_dispersion_energy": -23.32, 
			 "cosmo_repulsion_energy": 1.81, 
			 "cosmo_total_nonelectrostatic_energy": 11.31, 
			 "SMD_solvation_energy": 5.85 
		},
		"coords": [
			{
				"x": 2.3377140063,
				"y": -1.9327013334,
				"z": 1.5534601452,
				"element": "C" 
			},
			{
				"x": 1.5000813047,
				"y": -1.7527061082,
				"z": 0.284782281,
				"element": "C" 
			},
			{
				"x": 2.1141652696,
				"y": -0.6994301967,
				"z": -0.5380847795,
				"element": "N" 
			},
			{
				"x": 1.4088048216,
				"y": -0.0272833928,
				"z": -1.5029157377,
				"element": "C" 
			},
			{
				"x": 1.8367015157,
				"y": 0.5994626359,
				"z": -2.6436137793,
				"element": "C" 
			},
			{
				"x": 0.6719271974,
				"y": 1.1367435282,
				"z": -3.3092495922,
				"element": "C" 
			},
			{
				"x": 0.5373479113,
				"y": 1.8569006859,
				"z": -4.2871060351,
				"element": "O" 
			},
			{
				"x": -0.4568047238,
				"y": 0.6512460303,
				"z": -2.5532057846,
				"element": "N" 
			},
			{
				"x": 0.0367574769,
				"y": 0.1088969214,
				"z": -1.3345336942,
				"element": "N" 
			},
			{
				"x": -0.7013725437,
				"y": -1.0335958817,
				"z": -0.7687100489,
				"element": "C" 
			},
			{
				"x": -0.8705403546,
				"y": -2.1919366525,
				"z": -1.762297782,
				"element": "C" 
			},
			{
				"x": 0.0238631656,
				"y": -1.3836084021,
				"z": 0.5534468961,
				"element": "C" 
			},
			{
				"x": -0.7171561291,
				"y": -2.4836832993,
				"z": 1.3297387223,
				"element": "C" 
			},
			{
				"x": -0.5759489898,
				"y": -2.3576006788,
				"z": 2.8352485746,
				"element": "C" 
			},
			{
				"x": -0.7378039347,
				"y": -3.5531806965,
				"z": 3.4490230196,
				"element": "O" 
			},
			{
				"x": -0.3802635148,
				"y": -1.3300768802,
				"z": 3.4456918751,
				"element": "O" 
			},
			{
				"x": 3.3880625334,
				"y": -2.1039691218,
				"z": 1.2918043467,
				"element": "H" 
			},
			{
				"x": 2.2797748396,
				"y": -1.0476903687,
				"z": 2.1918648507,
				"element": "H" 
			},
			{
				"x": 2.0061201122,
				"y": -2.8036208488,
				"z": 2.1261155936,
				"element": "H" 
			},
			{
				"x": 1.5126722024,
				"y": -2.7081713142,
				"z": -0.2670895011,
				"element": "H" 
			},
			{
				"x": 3.0818135919,
				"y": -0.8633488026,
				"z": -0.7799371724,
				"element": "H" 
			},
			{
				"x": 2.8540948681,
				"y": 0.726181438,
				"z": -2.9801218891,
				"element": "H" 
			},
			{
				"x": -1.1516145068,
				"y": 1.3743207307,
				"z": -2.3856205367,
				"element": "H" 
			},
			{
				"x": -1.6968271463,
				"y": -0.655399992,
				"z": -0.5034079959,
				"element": "H" 
			},
			{
				"x": -1.5017888744,
				"y": -2.9812735604,
				"z": -1.3424444868,
				"element": "H" 
			},
			{
				"x": -1.3429448708,
				"y": -1.8224038036,
				"z": -2.6747837531,
				"element": "H" 
			},
			{
				"x": 0.0909493233,
				"y": -2.6333158896,
				"z": -2.0415215247,
				"element": "H" 
			},
			{
				"x": 0.0131795486,
				"y": -0.4781395429,
				"z": 1.1699574043,
				"element": "H" 
			},
			{
				"x": -1.7955878801,
				"y": -2.4158910644,
				"z": 1.1315620123,
				"element": "H" 
			},
			{
				"x": -0.4189751741,
				"y": -3.4908581429,
				"z": 1.0229289499,
				"element": "H" 
			},
			{
				"x": -0.6843010458,
				"y": -3.3792659963,
				"z": 4.4044194217,
				"element": "H" 
			}
		],
		 "valence_orbital": [ 
			{
				"type": "occ",
				"energy": -0.30527,
				"method": "rhf"
			},
			{
				"type": "occ",
				"energy": -0.29284,
				"method": "rhf"
			},
			{
				"type": "occ",
				"energy": -0.23219,
				"method": "rhf"
			},
			{
				"type": "occ",
				"energy": -0.22191,
				"method": "rhf"
			},
			{
				"type": "occ",
				"energy": -0.20013,
				"method": "rhf"
			},
			{
				"type": "unocc",
				"energy": -0.00892,
				"method": "rhf"
			},
			{
				"type": "unocc",
				"energy": 0.01046,
				"method": "rhf"
			},
			{
				"type": "unocc",
				"energy": 0.06004,
				"method": "rhf"
			},
			{
				"type": "unocc",
				"energy": 0.06395,
				"method": "rhf"
			},
			{
				"type": "unocc",
				"energy": 0.0769,
				"method": "rhf"
			}
		],
		"cosmo_sigma_profile": { 
			"-0.025": 0.0,
			"-0.024": 0.0,
			"-0.023": 0.0,
			"-0.022": 0.0,
			"-0.021": 0.0,
			"-0.02": 0.0,
			"-0.019": 0.0323437549132,
			"-0.018": 0.777018273123,
			"-0.017": 0.903952058101,
			"-0.016": 0.565290948683,
			"-0.015": 1.16815435028,
			"-0.014": 1.50706926436,
			"-0.013": 3.74075057065,
			"-0.012": 2.62538883686,
			"-0.011": 3.56635444828,
			"-0.01": 3.14911454377,
			"-0.009": 2.51575652112,
			"-0.008": 4.29023951486,
			"-0.007": 8.64058591364,
			"-0.006": 14.8376322932,
			"-0.005": 17.2401595166,
			"-0.004": 19.5704753408,
			"-0.003": 16.6989393215,
			"-0.002": 19.5548026871,
			"-0.001": 15.6006666824,
			"0.0": 17.0146781723,
			"0.001": 11.150477034,
			"0.002": 8.1193735981,
			"0.003": 8.10728663743,
			"0.004": 10.8783775243,
			"0.005": 10.1364031892,
			"0.006": 7.3492476723,
			"0.007": 6.60223166761,
			"0.008": 6.15699623584,
			"0.009": 4.64699192071,
			"0.01": 4.36936657647,
			"0.011": 4.78938230524,
			"0.012": 4.83327527135,
			"0.013": 1.91873372871,
			"0.014": 3.9211893383,
			"0.015": 6.66420662172,
			"0.016": 2.51746845688,
			"0.017": 0.0269936681768,
			"0.018": 0.0,
			"0.019": 0.0,
			"0.02": 0.0,
			"0.021": 0.0,
			"0.022": 0.0,
			"0.023": 0.0,
			"0.024": 0.0,
			"0.025": 0.0
		}
	}
}
