{
	 "smiles": "COC(=O)C1(CC1)S(=O)(=O)C1=CC=C(Br)C=C1", 
	 "Tm": 397.15, 
	 "num_atms": 28, 
	 "gaussian": { 
		 "optdone": 1, 
		 "sigma_profile": "yes", 
		 "theory": "DFT", 
		 "functional": "B3LYP", 
		 "basiset": "6-31G**", 
		 "properties": { 
			 "R2extent": 7951.7771, 
			 "electric_dipole_moment_norm": 5.13795201515, 
			 "electric_quadrupole_moment_norm": 12.2189160227, 
			 "total_energy": -3696.19437677, 
			 "HOMO_LUMO_gap": 0.21103, 
			 "cosmo_polarized_energy": -15.36, 
			 "cosmo_cavitation_energy": 35.66, 
			 "cosmo_dispersion_energy": -25.8, 
			 "cosmo_repulsion_energy": 1.96, 
			 "cosmo_total_nonelectrostatic_energy": 11.82, 
			 "SMD_solvation_energy": 5.58 
		},
		"coords": [
			{
				"x": -4.4205477372,
				"y": 0.6152407798,
				"z": -0.3009707422,
				"element": "C" 
			},
			{
				"x": -3.1494892868,
				"y": 1.0928467788,
				"z": -0.7807468214,
				"element": "O" 
			},
			{
				"x": -2.0723565494,
				"y": 0.6464576121,
				"z": -0.0990391287,
				"element": "C" 
			},
			{
				"x": -2.147380265,
				"y": -0.1050764805,
				"z": 0.8492357461,
				"element": "O" 
			},
			{
				"x": -0.8011712222,
				"y": 1.1764473363,
				"z": -0.685000123,
				"element": "C" 
			},
			{
				"x": -0.65631777,
				"y": 1.2602055235,
				"z": -2.2017641945,
				"element": "C" 
			},
			{
				"x": -0.7970976391,
				"y": 2.5160977186,
				"z": -1.4152689076,
				"element": "C" 
			},
			{
				"x": 0.7118313198,
				"y": 0.8506535108,
				"z": 0.2775121072,
				"element": "S" 
			},
			{
				"x": 1.8011076608,
				"y": 1.4292262701,
				"z": -0.5324615487,
				"element": "O" 
			},
			{
				"x": 0.488547982,
				"y": 1.2897035118,
				"z": 1.6591254105,
				"element": "O" 
			},
			{
				"x": 0.9495328888,
				"y": -0.9325969528,
				"z": 0.2684469162,
				"element": "C" 
			},
			{
				"x": 0.3818852685,
				"y": -1.7143753576,
				"z": 1.2766906609,
				"element": "C" 
			},
			{
				"x": 0.6114459053,
				"y": -3.0890394297,
				"z": 1.2815444448,
				"element": "C" 
			},
			{
				"x": 1.4053932418,
				"y": -3.6528623854,
				"z": 0.2817543838,
				"element": "C" 
			},
			{
				"x": 1.7144738421,
				"y": -5.5355414389,
				"z": 0.2881012987,
				"element": "Br" 
			},
			{
				"x": 1.9854930598,
				"y": -2.8718488759,
				"z": -0.7182014992,
				"element": "C" 
			},
			{
				"x": 1.7581769087,
				"y": -1.4963757102,
				"z": -0.7208800229,
				"element": "C" 
			},
			{
				"x": -5.1661123581,
				"y": 1.063070072,
				"z": -0.9571617889,
				"element": "H" 
			},
			{
				"x": -4.4643256326,
				"y": -0.4750142744,
				"z": -0.353812922,
				"element": "H" 
			},
			{
				"x": -4.5788749407,
				"y": 0.9278184254,
				"z": 0.7335267156,
				"element": "H" 
			},
			{
				"x": 0.3260244235,
				"y": 1.0306911125,
				"z": -2.5997551721,
				"element": "H" 
			},
			{
				"x": -1.502676764,
				"y": 0.8989860429,
				"z": -2.7752800622,
				"element": "H" 
			},
			{
				"x": 0.0920385702,
				"y": 3.1225147849,
				"z": -1.2826960372,
				"element": "H" 
			},
			{
				"x": -1.7436920163,
				"y": 3.0431102239,
				"z": -1.4255202646,
				"element": "H" 
			},
			{
				"x": -0.2330566339,
				"y": -1.2504848034,
				"z": 2.0373376047,
				"element": "H" 
			},
			{
				"x": 0.1811382528,
				"y": -3.7150555716,
				"z": 2.0544562886,
				"element": "H" 
			},
			{
				"x": 2.6118554681,
				"y": -3.3293032535,
				"z": -1.4751068626,
				"element": "H" 
			},
			{
				"x": 2.2235540233,
				"y": -0.8610951695,
				"z": -1.4660654794,
				"element": "H" 
			}
		],
		 "valence_orbital": [ 
			{
				"type": "occ",
				"energy": -0.29599,
				"method": "rhf"
			},
			{
				"type": "occ",
				"energy": -0.29154,
				"method": "rhf"
			},
			{
				"type": "occ",
				"energy": -0.28959,
				"method": "rhf"
			},
			{
				"type": "occ",
				"energy": -0.27624,
				"method": "rhf"
			},
			{
				"type": "occ",
				"energy": -0.25846,
				"method": "rhf"
			},
			{
				"type": "unocc",
				"energy": -0.04743,
				"method": "rhf"
			},
			{
				"type": "unocc",
				"energy": -0.02735,
				"method": "rhf"
			},
			{
				"type": "unocc",
				"energy": -0.01132,
				"method": "rhf"
			},
			{
				"type": "unocc",
				"energy": -0.00269,
				"method": "rhf"
			},
			{
				"type": "unocc",
				"energy": 0.04753,
				"method": "rhf"
			}
		],
		"cosmo_sigma_profile": { 
			"-0.025": 0.0,
			"-0.024": 0.0,
			"-0.023": 0.0,
			"-0.022": 0.0,
			"-0.021": 0.0,
			"-0.02": 0.0,
			"-0.019": 0.0,
			"-0.018": 0.0,
			"-0.017": 0.0,
			"-0.016": 0.0,
			"-0.015": 0.0,
			"-0.014": 0.0,
			"-0.013": 0.0,
			"-0.012": 0.0,
			"-0.011": 0.0,
			"-0.01": 0.0,
			"-0.009": 0.104489417605,
			"-0.008": 4.30249617982,
			"-0.007": 12.088397162,
			"-0.006": 18.0103165905,
			"-0.005": 21.4787658066,
			"-0.004": 24.7600409054,
			"-0.003": 24.9803375495,
			"-0.002": 20.0560776088,
			"-0.001": 18.6857623599,
			"0.0": 22.9444786595,
			"0.001": 28.291064453,
			"0.002": 17.6177010012,
			"0.003": 13.8777591404,
			"0.004": 16.046130113,
			"0.005": 4.25160171867,
			"0.006": 4.26964087652,
			"0.007": 4.08582592675,
			"0.008": 4.49034799925,
			"0.009": 6.09824711975,
			"0.01": 9.76908601236,
			"0.011": 9.33314515474,
			"0.012": 2.75662097365,
			"0.013": 0.0,
			"0.014": 0.0,
			"0.015": 0.0,
			"0.016": 0.0,
			"0.017": 0.0,
			"0.018": 0.0,
			"0.019": 0.0,
			"0.02": 0.0,
			"0.021": 0.0,
			"0.022": 0.0,
			"0.023": 0.0,
			"0.024": 0.0,
			"0.025": 0.0
		}
	}
}
