{
	 "smiles": "CCC(C)C(N)P(O)(O)=O", 
	 "Tm": 547.15, 
	 "num_atms": 24, 
	 "gaussian": { 
		 "optdone": 1, 
		 "sigma_profile": "yes", 
		 "theory": "DFT", 
		 "functional": "B3LYP", 
		 "basiset": "6-31G**", 
		 "properties": { 
			 "R2extent": 2154.9941, 
			 "electric_dipole_moment_norm": 1.51532676674, 
			 "electric_quadrupole_moment_norm": 11.8337355784, 
			 "total_energy": -820.825494643, 
			 "HOMO_LUMO_gap": 0.27457, 
			 "cosmo_polarized_energy": -15.61, 
			 "cosmo_cavitation_energy": 26.99, 
			 "cosmo_dispersion_energy": -19.66, 
			 "cosmo_repulsion_energy": 1.6, 
			 "cosmo_total_nonelectrostatic_energy": 8.93, 
			 "SMD_solvation_energy": 6.01 
		},
		"coords": [
			{
				"x": -1.9080850764,
				"y": -1.1356224823,
				"z": 2.7780613065,
				"element": "C" 
			},
			{
				"x": -1.6449805787,
				"y": 0.018783993,
				"z": 1.8034883724,
				"element": "C" 
			},
			{
				"x": -0.2015936825,
				"y": 0.0639480634,
				"z": 1.2530034105,
				"element": "C" 
			},
			{
				"x": 0.81547278,
				"y": 0.3729014626,
				"z": 2.3638613239,
				"element": "C" 
			},
			{
				"x": -0.0606901053,
				"y": 1.0948947869,
				"z": 0.1009938779,
				"element": "C" 
			},
			{
				"x": 1.3360599485,
				"y": 1.2624830392,
				"z": -0.312352078,
				"element": "N" 
			},
			{
				"x": -1.1078433464,
				"y": 0.7093008785,
				"z": -1.3720705151,
				"element": "P" 
			},
			{
				"x": -0.346612139,
				"y": -0.6161132474,
				"z": -1.949048208,
				"element": "O" 
			},
			{
				"x": -0.6559186921,
				"y": 1.9143681346,
				"z": -2.3839383514,
				"element": "O" 
			},
			{
				"x": -2.5900783726,
				"y": 0.5638973914,
				"z": -1.3045633842,
				"element": "O" 
			},
			{
				"x": -1.3020235863,
				"y": -1.0630234853,
				"z": 3.6863520228,
				"element": "H" 
			},
			{
				"x": -2.958568216,
				"y": -1.146435105,
				"z": 3.085900656,
				"element": "H" 
			},
			{
				"x": -1.6923908855,
				"y": -2.1036710262,
				"z": 2.3106622218,
				"element": "H" 
			},
			{
				"x": -2.3565296812,
				"y": -0.0511772556,
				"z": 0.9755577376,
				"element": "H" 
			},
			{
				"x": -1.8547676419,
				"y": 0.9747777892,
				"z": 2.3046271222,
				"element": "H" 
			},
			{
				"x": 0.0366732444,
				"y": -0.9256227377,
				"z": 0.8338359461,
				"element": "H" 
			},
			{
				"x": 0.5894718605,
				"y": 1.3385944162,
				"z": 2.8327415167,
				"element": "H" 
			},
			{
				"x": 1.8315507152,
				"y": 0.4276543845,
				"z": 1.9711990379,
				"element": "H" 
			},
			{
				"x": 0.7834064211,
				"y": -0.3931079425,
				"z": 3.1435037141,
				"element": "H" 
			},
			{
				"x": -0.4206577947,
				"y": 2.0681556994,
				"z": 0.4607288677,
				"element": "H" 
			},
			{
				"x": 1.4125441467,
				"y": 1.9969730475,
				"z": -1.0106020527,
				"element": "H" 
			},
			{
				"x": 1.6775600675,
				"y": 0.4052670006,
				"z": -0.7416957751,
				"element": "H" 
			},
			{
				"x": -0.9804546589,
				"y": -1.1794789447,
				"z": -2.4158901567,
				"element": "H" 
			},
			{
				"x": -1.4402447263,
				"y": 2.2345521398,
				"z": -2.8527566129,
				"element": "H" 
			}
		],
		 "valence_orbital": [ 
			{
				"type": "occ",
				"energy": -0.32358,
				"method": "rhf"
			},
			{
				"type": "occ",
				"energy": -0.31755,
				"method": "rhf"
			},
			{
				"type": "occ",
				"energy": -0.29801,
				"method": "rhf"
			},
			{
				"type": "occ",
				"energy": -0.28961,
				"method": "rhf"
			},
			{
				"type": "occ",
				"energy": -0.23644,
				"method": "rhf"
			},
			{
				"type": "unocc",
				"energy": 0.03813,
				"method": "rhf"
			},
			{
				"type": "unocc",
				"energy": 0.07034,
				"method": "rhf"
			},
			{
				"type": "unocc",
				"energy": 0.08212,
				"method": "rhf"
			},
			{
				"type": "unocc",
				"energy": 0.09867,
				"method": "rhf"
			},
			{
				"type": "unocc",
				"energy": 0.1084,
				"method": "rhf"
			}
		],
		"cosmo_sigma_profile": { 
			"-0.025": 0.0,
			"-0.024": 0.0,
			"-0.023": 0.0,
			"-0.022": 0.0,
			"-0.021": 0.0,
			"-0.02": 0.0,
			"-0.019": 0.226909749588,
			"-0.018": 1.78880346816,
			"-0.017": 1.47081911547,
			"-0.016": 1.82720944783,
			"-0.015": 1.83099958853,
			"-0.014": 1.79244249291,
			"-0.013": 0.909883288023,
			"-0.012": 0.9593957567,
			"-0.011": 1.28826145136,
			"-0.01": 1.49189339164,
			"-0.009": 3.84264075747,
			"-0.008": 3.19299357094,
			"-0.007": 4.40205266297,
			"-0.006": 6.13785755154,
			"-0.005": 6.40627823738,
			"-0.004": 6.5359559762,
			"-0.003": 12.0076143906,
			"-0.002": 20.9915191648,
			"-0.001": 20.4220697024,
			"0.0": 21.8867022051,
			"0.001": 23.1114222538,
			"0.002": 13.0287926446,
			"0.003": 5.31956106221,
			"0.004": 4.56062542146,
			"0.005": 3.7916728871,
			"0.006": 3.46618050503,
			"0.007": 5.34745172789,
			"0.008": 5.1314218603,
			"0.009": 3.55577627954,
			"0.01": 2.88168092188,
			"0.011": 2.92579488585,
			"0.012": 1.73444494114,
			"0.013": 2.31951371564,
			"0.014": 4.20220167313,
			"0.015": 4.78799085019,
			"0.016": 0.326586310664,
			"0.017": 0.0,
			"0.018": 0.0,
			"0.019": 0.0,
			"0.02": 0.0,
			"0.021": 0.0,
			"0.022": 0.0,
			"0.023": 0.0,
			"0.024": 0.0,
			"0.025": 0.0
		}
	}
}
