{
	 "smiles": "COC(=O)C1=C(Cl)C=CC(Cl)=N1", 
	 "Tm": 327.15, 
	 "num_atms": 17, 
	 "gaussian": { 
		 "optdone": 1, 
		 "sigma_profile": "yes", 
		 "theory": "DFT", 
		 "functional": "B3LYP", 
		 "basiset": "6-31G**", 
		 "properties": { 
			 "R2extent": 3427.7458, 
			 "electric_dipole_moment_norm": 1.56426632963, 
			 "electric_quadrupole_moment_norm": 16.9514825449, 
			 "total_energy": -1395.33273793, 
			 "HOMO_LUMO_gap": 0.193, 
			 "cosmo_polarized_energy": -10.92, 
			 "cosmo_cavitation_energy": 26.08, 
			 "cosmo_dispersion_energy": -19.37, 
			 "cosmo_repulsion_energy": 1.58, 
			 "cosmo_total_nonelectrostatic_energy": 8.29, 
			 "SMD_solvation_energy": 4.46 
		},
		"coords": [
			{
				"x": -1.3950324975,
				"y": -0.7428789874,
				"z": 3.2730727671,
				"element": "C" 
			},
			{
				"x": -0.5595457398,
				"y": -0.0885983258,
				"z": 2.3023828382,
				"element": "O" 
			},
			{
				"x": -1.1649512423,
				"y": 0.2105021729,
				"z": 1.1437158054,
				"element": "C" 
			},
			{
				"x": -2.3166834408,
				"y": -0.0591503602,
				"z": 0.880514251,
				"element": "O" 
			},
			{
				"x": -0.2319285827,
				"y": 0.9445613197,
				"z": 0.2117067293,
				"element": "C" 
			},
			{
				"x": -0.2926481872,
				"y": 0.8158646902,
				"z": -1.1851871171,
				"element": "C" 
			},
			{
				"x": -1.3751029847,
				"y": -0.2799691042,
				"z": -2.0009567701,
				"element": "Cl" 
			},
			{
				"x": 0.5850954661,
				"y": 1.5748589082,
				"z": -1.967655164,
				"element": "C" 
			},
			{
				"x": 1.4783183113,
				"y": 2.4389156725,
				"z": -1.3518242676,
				"element": "C" 
			},
			{
				"x": 1.4556545511,
				"y": 2.4888525041,
				"z": 0.0462463878,
				"element": "C" 
			},
			{
				"x": 2.5719729864,
				"y": 3.5662566797,
				"z": 0.873073789,
				"element": "Cl" 
			},
			{
				"x": 0.647861907,
				"y": 1.7738052058,
				"z": 0.7975371676,
				"element": "N" 
			},
			{
				"x": -0.7542849772,
				"y": -0.9187927851,
				"z": 4.1362999397,
				"element": "H" 
			},
			{
				"x": -2.2392847972,
				"y": -0.1038927745,
				"z": 3.5433039443,
				"element": "H" 
			},
			{
				"x": -1.7782226491,
				"y": -1.6862387757,
				"z": 2.876161388,
				"element": "H" 
			},
			{
				"x": 0.5587193625,
				"y": 1.4799481464,
				"z": -3.0475993451,
				"element": "H" 
			},
			{
				"x": 2.1686625141,
				"y": 3.0467558135,
				"z": -1.9241923434,
				"element": "H" 
			}
		],
		 "valence_orbital": [ 
			{
				"type": "occ",
				"energy": -0.31514,
				"method": "rhf"
			},
			{
				"type": "occ",
				"energy": -0.30879,
				"method": "rhf"
			},
			{
				"type": "occ",
				"energy": -0.30187,
				"method": "rhf"
			},
			{
				"type": "occ",
				"energy": -0.27315,
				"method": "rhf"
			},
			{
				"type": "occ",
				"energy": -0.26458,
				"method": "rhf"
			},
			{
				"type": "unocc",
				"energy": -0.07158,
				"method": "rhf"
			},
			{
				"type": "unocc",
				"energy": -0.04922,
				"method": "rhf"
			},
			{
				"type": "unocc",
				"energy": 0.01514,
				"method": "rhf"
			},
			{
				"type": "unocc",
				"energy": 0.02048,
				"method": "rhf"
			},
			{
				"type": "unocc",
				"energy": 0.02956,
				"method": "rhf"
			}
		],
		"cosmo_sigma_profile": { 
			"-0.025": 0.0,
			"-0.024": 0.0,
			"-0.023": 0.0,
			"-0.022": 0.0,
			"-0.021": 0.0,
			"-0.02": 0.0,
			"-0.019": 0.0,
			"-0.018": 0.0,
			"-0.017": 0.0,
			"-0.016": 0.0,
			"-0.015": 0.0,
			"-0.014": 0.0,
			"-0.013": 0.0,
			"-0.012": 0.0,
			"-0.011": 0.0,
			"-0.01": 1.52188134982,
			"-0.009": 4.49056651845,
			"-0.008": 4.26959299101,
			"-0.007": 5.49790313541,
			"-0.006": 9.19828869204,
			"-0.005": 11.8377039243,
			"-0.004": 16.293060795,
			"-0.003": 19.9086907074,
			"-0.002": 22.1850663752,
			"-0.001": 18.1147442296,
			"0.0": 11.854003671,
			"0.001": 11.5812403817,
			"0.002": 12.6791506637,
			"0.003": 18.7287862971,
			"0.004": 11.4929226933,
			"0.005": 5.61210627737,
			"0.006": 4.75064033409,
			"0.007": 3.55946976961,
			"0.008": 4.03808366333,
			"0.009": 3.45813758977,
			"0.01": 3.81331288399,
			"0.011": 5.8730550722,
			"0.012": 2.26488312826,
			"0.013": 0.91306897406,
			"0.014": 0.463099127249,
			"0.015": 0.0,
			"0.016": 0.0,
			"0.017": 0.0,
			"0.018": 0.0,
			"0.019": 0.0,
			"0.02": 0.0,
			"0.021": 0.0,
			"0.022": 0.0,
			"0.023": 0.0,
			"0.024": 0.0,
			"0.025": 0.0
		}
	}
}
