{
	 "smiles": "CC1CNCC(C)N1C(=O)OC(C)(C)C", 
	 "Tm": 335.15, 
	 "num_atms": 37, 
	 "gaussian": { 
		 "optdone": 1, 
		 "sigma_profile": "yes", 
		 "theory": "DFT", 
		 "functional": "B3LYP", 
		 "basiset": "6-31G**", 
		 "properties": { 
			 "R2extent": 3746.8006, 
			 "electric_dipole_moment_norm": 1.77234130178, 
			 "electric_quadrupole_moment_norm": 10.685042436, 
			 "total_energy": -692.413835615, 
			 "HOMO_LUMO_gap": 0.27511, 
			 "cosmo_polarized_energy": -9.61, 
			 "cosmo_cavitation_energy": 35.63, 
			 "cosmo_dispersion_energy": -24.57, 
			 "cosmo_repulsion_energy": 1.92, 
			 "cosmo_total_nonelectrostatic_energy": 12.98, 
			 "SMD_solvation_energy": 4.54 
		},
		"coords": [
			{
				"x": -0.6865476071,
				"y": 0.8277852561,
				"z": 2.529512435,
				"element": "C" 
			},
			{
				"x": -0.8294203172,
				"y": -0.3512674984,
				"z": 1.5531270267,
				"element": "C" 
			},
			{
				"x": -1.1741091317,
				"y": -1.672301683,
				"z": 2.2510234572,
				"element": "C" 
			},
			{
				"x": -0.0726919578,
				"y": -2.1475892079,
				"z": 3.0975002708,
				"element": "N" 
			},
			{
				"x": 1.2724691698,
				"y": -1.8121142049,
				"z": 2.6100448192,
				"element": "C" 
			},
			{
				"x": 1.3716307049,
				"y": -1.5781806282,
				"z": 1.0948899457,
				"element": "C" 
			},
			{
				"x": 1.2326400948,
				"y": -2.8643849235,
				"z": 0.2667627614,
				"element": "C" 
			},
			{
				"x": 0.3729323514,
				"y": -0.5558129882,
				"z": 0.7174757024,
				"element": "N" 
			},
			{
				"x": 0.6300320974,
				"y": 0.1793627873,
				"z": -0.4077808181,
				"element": "C" 
			},
			{
				"x": 1.6198842845,
				"y": 0.0165394261,
				"z": -1.1120203429,
				"element": "O" 
			},
			{
				"x": -0.3470819201,
				"y": 1.0982875632,
				"z": -0.6303726865,
				"element": "O" 
			},
			{
				"x": -0.3010646453,
				"y": 1.9760075833,
				"z": -1.8087354032,
				"element": "C" 
			},
			{
				"x": -0.3432317002,
				"y": 1.1404596532,
				"z": -3.0931237355,
				"element": "C" 
			},
			{
				"x": -1.5823468645,
				"y": 2.8012837388,
				"z": -1.6591644627,
				"element": "C" 
			},
			{
				"x": 0.9355756097,
				"y": 2.87926735,
				"z": -1.7445940925,
				"element": "C" 
			},
			{
				"x": -0.4243855296,
				"y": 1.7360621439,
				"z": 1.9818187058,
				"element": "H" 
			},
			{
				"x": 0.0755363827,
				"y": 0.6407539813,
				"z": 3.2896582217,
				"element": "H" 
			},
			{
				"x": -1.6380163411,
				"y": 1.0016476625,
				"z": 3.0441655626,
				"element": "H" 
			},
			{
				"x": -1.6533806726,
				"y": -0.1231181093,
				"z": 0.8724564144,
				"element": "H" 
			},
			{
				"x": -1.4567002638,
				"y": -2.3963266708,
				"z": 1.4695624409,
				"element": "H" 
			},
			{
				"x": -2.0650162592,
				"y": -1.5126410176,
				"z": 2.8721240238,
				"element": "H" 
			},
			{
				"x": -0.159870107,
				"y": -3.1466697061,
				"z": 3.2402589737,
				"element": "H" 
			},
			{
				"x": 1.9623793707,
				"y": -2.6134144333,
				"z": 2.8931541576,
				"element": "H" 
			},
			{
				"x": 1.6275259785,
				"y": -0.9049903382,
				"z": 3.1174549647,
				"element": "H" 
			},
			{
				"x": 2.3544373001,
				"y": -1.148529203,
				"z": 0.8766558404,
				"element": "H" 
			},
			{
				"x": 2.0534741205,
				"y": -3.5519876037,
				"z": 0.5004176748,
				"element": "H" 
			},
			{
				"x": 1.283587553,
				"y": -2.6259945176,
				"z": -0.7979143749,
				"element": "H" 
			},
			{
				"x": 0.2895552363,
				"y": -3.382253472,
				"z": 0.466212013,
				"element": "H" 
			},
			{
				"x": 0.5588464511,
				"y": 0.5373276474,
				"z": -3.1954067668,
				"element": "H" 
			},
			{
				"x": -1.2152677223,
				"y": 0.4784837662,
				"z": -3.0864032214,
				"element": "H" 
			},
			{
				"x": -0.4279902235,
				"y": 1.8036791882,
				"z": -3.9602604995,
				"element": "H" 
			},
			{
				"x": -1.5724630655,
				"y": 3.3644956872,
				"z": -0.721369674,
				"element": "H" 
			},
			{
				"x": -1.6717772157,
				"y": 3.5102815436,
				"z": -2.4876670551,
				"element": "H" 
			},
			{
				"x": -2.4631476792,
				"y": 2.1523419097,
				"z": -1.6625750204,
				"element": "H" 
			},
			{
				"x": 0.9040994726,
				"y": 3.6051047227,
				"z": -2.5638970399,
				"element": "H" 
			},
			{
				"x": 0.9514670155,
				"y": 3.4339693113,
				"z": -0.8008417675,
				"element": "H" 
			},
			{
				"x": 1.85013603,
				"y": 2.2919352838,
				"z": -1.8255484509,
				"element": "H" 
			}
		],
		 "valence_orbital": [ 
			{
				"type": "occ",
				"energy": -0.32463,
				"method": "rhf"
			},
			{
				"type": "occ",
				"energy": -0.28086,
				"method": "rhf"
			},
			{
				"type": "occ",
				"energy": -0.254,
				"method": "rhf"
			},
			{
				"type": "occ",
				"energy": -0.23,
				"method": "rhf"
			},
			{
				"type": "occ",
				"energy": -0.21577,
				"method": "rhf"
			},
			{
				"type": "unocc",
				"energy": 0.05934,
				"method": "rhf"
			},
			{
				"type": "unocc",
				"energy": 0.0655,
				"method": "rhf"
			},
			{
				"type": "unocc",
				"energy": 0.08725,
				"method": "rhf"
			},
			{
				"type": "unocc",
				"energy": 0.10365,
				"method": "rhf"
			},
			{
				"type": "unocc",
				"energy": 0.10574,
				"method": "rhf"
			}
		],
		"cosmo_sigma_profile": { 
			"-0.025": 0.0,
			"-0.024": 0.0,
			"-0.023": 0.0,
			"-0.022": 0.0,
			"-0.021": 0.0,
			"-0.02": 0.0,
			"-0.019": 0.0,
			"-0.018": 0.0,
			"-0.017": 0.0,
			"-0.016": 0.0,
			"-0.015": 0.0,
			"-0.014": 0.0,
			"-0.013": 0.0,
			"-0.012": 0.0,
			"-0.011": 0.0948996215444,
			"-0.01": 1.24783791488,
			"-0.009": 1.05936877148,
			"-0.008": 1.5306183726,
			"-0.007": 1.58682291331,
			"-0.006": 1.1996199218,
			"-0.005": 3.97742932469,
			"-0.004": 20.93362321,
			"-0.003": 40.6278342115,
			"-0.002": 34.5546214113,
			"-0.001": 33.6079425335,
			"0.0": 37.3902746031,
			"0.001": 39.9862841322,
			"0.002": 15.5167051191,
			"0.003": 6.91875213022,
			"0.004": 5.09241372152,
			"0.005": 5.04400888711,
			"0.006": 3.95582288812,
			"0.007": 3.04167668045,
			"0.008": 2.51461364884,
			"0.009": 2.33335262144,
			"0.01": 2.20349001588,
			"0.011": 1.73199175946,
			"0.012": 1.97788842572,
			"0.013": 2.76633404205,
			"0.014": 2.40192306258,
			"0.015": 0.557382129077,
			"0.016": 0.526878832323,
			"0.017": 0.436537524485,
			"0.018": 0.118059099703,
			"0.019": 0.0,
			"0.02": 0.0,
			"0.021": 0.0,
			"0.022": 0.0,
			"0.023": 0.0,
			"0.024": 0.0,
			"0.025": 0.0
		}
	}
}
