{
	 "smiles": "N1C=CC(=N1)C1=CC=CO1", 
	 "Tm": 375.15, 
	 "num_atms": 16, 
	 "gaussian": { 
		 "optdone": 1, 
		 "sigma_profile": "yes", 
		 "theory": "DFT", 
		 "functional": "B3LYP", 
		 "basiset": "6-31G**", 
		 "properties": { 
			 "R2extent": 1961.5454, 
			 "electric_dipole_moment_norm": 2.31611490863, 
			 "electric_quadrupole_moment_norm": 13.384272192, 
			 "total_energy": -455.035598999, 
			 "HOMO_LUMO_gap": 0.19147, 
			 "cosmo_polarized_energy": -12.82, 
			 "cosmo_cavitation_energy": 20.85, 
			 "cosmo_dispersion_energy": -15.74, 
			 "cosmo_repulsion_energy": 1.26, 
			 "cosmo_total_nonelectrostatic_energy": 6.37, 
			 "SMD_solvation_energy": 4.04 
		},
		"coords": [
			{
				"x": 1.4974923484,
				"y": -1.2640883677,
				"z": 1.6141366121,
				"element": "N" 
			},
			{
				"x": 0.8557782951,
				"y": -1.7676888034,
				"z": 0.5267083422,
				"element": "C" 
			},
			{
				"x": 0.1245197914,
				"y": -0.7282167376,
				"z": -0.004225713,
				"element": "C" 
			},
			{
				"x": 0.3960766767,
				"y": 0.3789109718,
				"z": 0.8485318354,
				"element": "C" 
			},
			{
				"x": 1.2369321093,
				"y": 0.0398401552,
				"z": 1.8348121794,
				"element": "N" 
			},
			{
				"x": -0.133691833,
				"y": 1.7250925294,
				"z": 0.7243220097,
				"element": "C" 
			},
			{
				"x": -0.9897815692,
				"y": 2.3003727493,
				"z": -0.1791469235,
				"element": "C" 
			},
			{
				"x": -1.1409287396,
				"y": 3.6665093332,
				"z": 0.2165735387,
				"element": "C" 
			},
			{
				"x": -0.3693358804,
				"y": 3.8241431996,
				"z": 1.3279179713,
				"element": "C" 
			},
			{
				"x": 0.2495786105,
				"y": 2.6544321621,
				"z": 1.6499335008,
				"element": "O" 
			},
			{
				"x": 2.1201467025,
				"y": -1.7456912338,
				"z": 2.2433046849,
				"element": "H" 
			},
			{
				"x": 0.9656685095,
				"y": -2.7982693336,
				"z": 0.2226152107,
				"element": "H" 
			},
			{
				"x": -0.5116896939,
				"y": -0.7565526077,
				"z": -0.8755968607,
				"element": "H" 
			},
			{
				"x": -1.4547054674,
				"y": 1.8101281976,
				"z": -1.0222357538,
				"element": "H" 
			},
			{
				"x": -1.7426746882,
				"y": 4.4250819854,
				"z": -0.2629641091,
				"element": "H" 
			},
			{
				"x": -0.1595851716,
				"y": 4.6591958001,
				"z": 1.9779134748,
				"element": "H" 
			}
		],
		 "valence_orbital": [ 
			{
				"type": "occ",
				"energy": -0.28755,
				"method": "rhf"
			},
			{
				"type": "occ",
				"energy": -0.28693,
				"method": "rhf"
			},
			{
				"type": "occ",
				"energy": -0.26843,
				"method": "rhf"
			},
			{
				"type": "occ",
				"energy": -0.24862,
				"method": "rhf"
			},
			{
				"type": "occ",
				"energy": -0.19946,
				"method": "rhf"
			},
			{
				"type": "unocc",
				"energy": -0.00799,
				"method": "rhf"
			},
			{
				"type": "unocc",
				"energy": 0.03258,
				"method": "rhf"
			},
			{
				"type": "unocc",
				"energy": 0.06464,
				"method": "rhf"
			},
			{
				"type": "unocc",
				"energy": 0.07905,
				"method": "rhf"
			},
			{
				"type": "unocc",
				"energy": 0.1137,
				"method": "rhf"
			}
		],
		"cosmo_sigma_profile": { 
			"-0.025": 0.0,
			"-0.024": 0.0,
			"-0.023": 0.0,
			"-0.022": 0.0,
			"-0.021": 0.0,
			"-0.02": 0.0,
			"-0.019": 0.0,
			"-0.018": 0.0,
			"-0.017": 0.287436955693,
			"-0.016": 1.82434153172,
			"-0.015": 1.53023219257,
			"-0.014": 1.33227284469,
			"-0.013": 0.961926453928,
			"-0.012": 0.429588605971,
			"-0.011": 1.07521302753,
			"-0.01": 1.76015235556,
			"-0.009": 3.81502459339,
			"-0.008": 4.99585699937,
			"-0.007": 7.68443164292,
			"-0.006": 10.3827173061,
			"-0.005": 8.59727558797,
			"-0.004": 7.99540720862,
			"-0.003": 7.58911780248,
			"-0.002": 7.33134010535,
			"-0.001": 7.24449845596,
			"0.0": 6.9889436751,
			"0.001": 7.28235821893,
			"0.002": 10.0748676514,
			"0.003": 15.8811935377,
			"0.004": 16.2996373411,
			"0.005": 13.8271859722,
			"0.006": 5.55701265161,
			"0.007": 2.50484281422,
			"0.008": 1.81907053611,
			"0.009": 2.82218215372,
			"0.01": 1.74674645917,
			"0.011": 1.56647430606,
			"0.012": 1.71744534829,
			"0.013": 1.50208020747,
			"0.014": 1.65562069485,
			"0.015": 1.01071200535,
			"0.016": 0.95368622642,
			"0.017": 0.123339106414,
			"0.018": 0.0,
			"0.019": 0.0,
			"0.02": 0.0,
			"0.021": 0.0,
			"0.022": 0.0,
			"0.023": 0.0,
			"0.024": 0.0,
			"0.025": 0.0
		}
	}
}
