{
	 "smiles": "C[C@@]12O[C@@H](C=C1)[C@@H]1[C@H]2C(=O)OC1=O", 
	 "Tm": 342.65, 
	 "num_atms": 21, 
	 "gaussian": { 
		 "optdone": 1, 
		 "sigma_profile": "yes", 
		 "theory": "DFT", 
		 "functional": "B3LYP", 
		 "basiset": "6-31G**", 
		 "properties": { 
			 "R2extent": 2729.5208, 
			 "electric_dipole_moment_norm": 3.27101481806, 
			 "electric_quadrupole_moment_norm": 15.7082736594, 
			 "total_energy": -648.638600986, 
			 "HOMO_LUMO_gap": 0.23599, 
			 "cosmo_polarized_energy": -13.08, 
			 "cosmo_cavitation_energy": 24.22, 
			 "cosmo_dispersion_energy": -17.82, 
			 "cosmo_repulsion_energy": 1.41, 
			 "cosmo_total_nonelectrostatic_energy": 7.81, 
			 "SMD_solvation_energy": 5.63 
		},
		"coords": [
			{
				"x": -0.9474228969,
				"y": -3.1204401933,
				"z": 0.6563385154,
				"element": "C" 
			},
			{
				"x": -1.0298663022,
				"y": -1.6296794277,
				"z": 0.4364527287,
				"element": "C" 
			},
			{
				"x": -1.1769928554,
				"y": -0.8942553891,
				"z": 1.6682928253,
				"element": "O" 
			},
			{
				"x": -1.133000693,
				"y": 0.4203889518,
				"z": 1.1050271434,
				"element": "C" 
			},
			{
				"x": 0.0994207895,
				"y": 0.3530645442,
				"z": 0.2145672956,
				"element": "C" 
			},
			{
				"x": 0.1587766995,
				"y": -0.9136060778,
				"z": -0.2062340144,
				"element": "C" 
			},
			{
				"x": -2.4118856213,
				"y": 0.3486806706,
				"z": 0.1674736853,
				"element": "C" 
			},
			{
				"x": -2.3386930643,
				"y": -1.1063947029,
				"z": -0.3092476403,
				"element": "C" 
			},
			{
				"x": -2.2350786373,
				"y": -1.0154508326,
				"z": -1.8162034137,
				"element": "C" 
			},
			{
				"x": -2.1430138503,
				"y": -1.899021126,
				"z": -2.6209833314,
				"element": "O" 
			},
			{
				"x": -2.2366820281,
				"y": 0.3224298071,
				"z": -2.2015077856,
				"element": "O" 
			},
			{
				"x": -2.3484970826,
				"y": 1.1730677527,
				"z": -1.1027076639,
				"element": "C" 
			},
			{
				"x": -2.3721552803,
				"y": 2.3631610813,
				"z": -1.2347334892,
				"element": "O" 
			},
			{
				"x": -0.0389138676,
				"y": -3.3759713693,
				"z": 1.2080349338,
				"element": "H" 
			},
			{
				"x": -1.8123526735,
				"y": -3.4708523079,
				"z": 1.2267561573,
				"element": "H" 
			},
			{
				"x": -0.9341908454,
				"y": -3.6374751674,
				"z": -0.3075535622,
				"element": "H" 
			},
			{
				"x": -1.1728899397,
				"y": 1.1869990576,
				"z": 1.8767640415,
				"element": "H" 
			},
			{
				"x": 0.7121277373,
				"y": 1.1964862539,
				"z": -0.078039483,
				"element": "H" 
			},
			{
				"x": 0.8346433484,
				"y": -1.3581295467,
				"z": -0.9265339846,
				"element": "H" 
			},
			{
				"x": -3.308386588,
				"y": 0.6011388265,
				"z": 0.7367757068,
				"element": "H" 
			},
			{
				"x": -3.1916463488,
				"y": -1.726540805,
				"z": -0.0253386648,
				"element": "H" 
			}
		],
		 "valence_orbital": [ 
			{
				"type": "occ",
				"energy": -0.33324,
				"method": "rhf"
			},
			{
				"type": "occ",
				"energy": -0.31111,
				"method": "rhf"
			},
			{
				"type": "occ",
				"energy": -0.28787,
				"method": "rhf"
			},
			{
				"type": "occ",
				"energy": -0.28397,
				"method": "rhf"
			},
			{
				"type": "occ",
				"energy": -0.27392,
				"method": "rhf"
			},
			{
				"type": "unocc",
				"energy": -0.03793,
				"method": "rhf"
			},
			{
				"type": "unocc",
				"energy": -0.01756,
				"method": "rhf"
			},
			{
				"type": "unocc",
				"energy": -0.01074,
				"method": "rhf"
			},
			{
				"type": "unocc",
				"energy": 0.07641,
				"method": "rhf"
			},
			{
				"type": "unocc",
				"energy": 0.09518,
				"method": "rhf"
			}
		],
		"cosmo_sigma_profile": { 
			"-0.025": 0.0,
			"-0.024": 0.0,
			"-0.023": 0.0,
			"-0.022": 0.0,
			"-0.021": 0.0,
			"-0.02": 0.0,
			"-0.019": 0.0,
			"-0.018": 0.0,
			"-0.017": 0.0,
			"-0.016": 0.0,
			"-0.015": 0.0,
			"-0.014": 0.0,
			"-0.013": 0.0,
			"-0.012": 0.00162788596884,
			"-0.011": 0.296466205621,
			"-0.01": 1.13348870574,
			"-0.009": 3.68882767788,
			"-0.008": 12.6493516717,
			"-0.007": 13.1993112449,
			"-0.006": 9.95442260045,
			"-0.005": 12.708548602,
			"-0.004": 13.2654232107,
			"-0.003": 12.4815252708,
			"-0.002": 13.6243711892,
			"-0.001": 13.3460154535,
			"0.0": 10.5214760577,
			"0.001": 5.27795644161,
			"0.002": 5.56477337429,
			"0.003": 5.66459460518,
			"0.004": 5.54463028382,
			"0.005": 5.46297442921,
			"0.006": 6.74763215977,
			"0.007": 8.28047579338,
			"0.008": 6.33617807066,
			"0.009": 9.13179710411,
			"0.01": 10.9462498175,
			"0.011": 5.3579258091,
			"0.012": 1.06131389606,
			"0.013": 0.0,
			"0.014": 0.0,
			"0.015": 0.0,
			"0.016": 0.0,
			"0.017": 0.0,
			"0.018": 0.0,
			"0.019": 0.0,
			"0.02": 0.0,
			"0.021": 0.0,
			"0.022": 0.0,
			"0.023": 0.0,
			"0.024": 0.0,
			"0.025": 0.0
		}
	}
}
