{
	 "smiles": "CC(=O)C1=CC(Cl)=CC(=C1O)[N+]([O-])=O", 
	 "Tm": 406.65, 
	 "num_atms": 20, 
	 "gaussian": { 
		 "optdone": 1, 
		 "sigma_profile": "yes", 
		 "theory": "DFT", 
		 "functional": "B3LYP", 
		 "basiset": "6-31G**", 
		 "properties": { 
			 "R2extent": 3453.1385, 
			 "electric_dipole_moment_norm": 0.947353033457, 
			 "electric_quadrupole_moment_norm": 13.5128295564, 
			 "total_energy": -1124.20879131, 
			 "HOMO_LUMO_gap": 0.13959, 
			 "cosmo_polarized_energy": -9.71, 
			 "cosmo_cavitation_energy": 26.95, 
			 "cosmo_dispersion_energy": -20.2, 
			 "cosmo_repulsion_energy": 1.57, 
			 "cosmo_total_nonelectrostatic_energy": 8.32, 
			 "SMD_solvation_energy": 7.45 
		},
		"coords": [
			{
				"x": 3.1212048973,
				"y": -1.9337167792,
				"z": 0.8691834411,
				"element": "C" 
			},
			{
				"x": 2.5023212689,
				"y": -0.5743764745,
				"z": 0.64010968,
				"element": "C" 
			},
			{
				"x": 3.1752060243,
				"y": 0.4390421317,
				"z": 0.7455444006,
				"element": "O" 
			},
			{
				"x": 1.037272737,
				"y": -0.4306806804,
				"z": 0.274784495,
				"element": "C" 
			},
			{
				"x": 0.5881137377,
				"y": 0.8782998191,
				"z": 0.088072095,
				"element": "C" 
			},
			{
				"x": -0.7356509664,
				"y": 1.1606498182,
				"z": -0.2510975301,
				"element": "C" 
			},
			{
				"x": -1.2451381094,
				"y": 2.8209945294,
				"z": -0.4734854261,
				"element": "Cl" 
			},
			{
				"x": -1.6481453451,
				"y": 0.1331740882,
				"z": -0.4125498741,
				"element": "C" 
			},
			{
				"x": -1.2174080692,
				"y": -1.1851258091,
				"z": -0.2296523924,
				"element": "C" 
			},
			{
				"x": 0.1247295283,
				"y": -1.5050434083,
				"z": 0.1159973272,
				"element": "C" 
			},
			{
				"x": 0.5325908006,
				"y": -2.7615699976,
				"z": 0.2894935337,
				"element": "O" 
			},
			{
				"x": -2.205802445,
				"y": -2.2322208307,
				"z": -0.4083021803,
				"element": "N" 
			},
			{
				"x": -1.8434328472,
				"y": -3.4230259769,
				"z": -0.2495157568,
				"element": "O" 
			},
			{
				"x": -3.3521791024,
				"y": -1.9276809882,
				"z": -0.7054541054,
				"element": "O" 
			},
			{
				"x": 2.6111969433,
				"y": -2.4654562092,
				"z": 1.6776683717,
				"element": "H" 
			},
			{
				"x": 3.0233041438,
				"y": -2.5636282272,
				"z": -0.0197395835,
				"element": "H" 
			},
			{
				"x": 4.1732355148,
				"y": -1.7875535261,
				"z": 1.1161415175,
				"element": "H" 
			},
			{
				"x": 1.3143386798,
				"y": 1.6731471009,
				"z": 0.2180772138,
				"element": "H" 
			},
			{
				"x": -2.6815896061,
				"y": 0.3175388342,
				"z": -0.6751570689,
				"element": "H" 
			},
			{
				"x": -0.2622677852,
				"y": -3.3359674144,
				"z": 0.1299818421,
				"element": "H" 
			}
		],
		 "valence_orbital": [ 
			{
				"type": "occ",
				"energy": -0.33322,
				"method": "rhf"
			},
			{
				"type": "occ",
				"energy": -0.32485,
				"method": "rhf"
			},
			{
				"type": "occ",
				"energy": -0.3021,
				"method": "rhf"
			},
			{
				"type": "occ",
				"energy": -0.2686,
				"method": "rhf"
			},
			{
				"type": "occ",
				"energy": -0.26035,
				"method": "rhf"
			},
			{
				"type": "unocc",
				"energy": -0.12076,
				"method": "rhf"
			},
			{
				"type": "unocc",
				"energy": -0.07344,
				"method": "rhf"
			},
			{
				"type": "unocc",
				"energy": -0.02516,
				"method": "rhf"
			},
			{
				"type": "unocc",
				"energy": 0.00811,
				"method": "rhf"
			},
			{
				"type": "unocc",
				"energy": 0.01535,
				"method": "rhf"
			}
		],
		"cosmo_sigma_profile": { 
			"-0.025": 0.0,
			"-0.024": 0.0,
			"-0.023": 0.0,
			"-0.022": 0.0,
			"-0.021": 0.0,
			"-0.02": 0.0,
			"-0.019": 0.0,
			"-0.018": 0.0,
			"-0.017": 0.0,
			"-0.016": 0.0,
			"-0.015": 0.0,
			"-0.014": 0.0,
			"-0.013": 0.0,
			"-0.012": 0.0,
			"-0.011": 0.0563271854184,
			"-0.01": 0.663420636594,
			"-0.009": 3.18471103729,
			"-0.008": 4.61587275403,
			"-0.007": 5.59845812454,
			"-0.006": 8.91951971298,
			"-0.005": 13.0940766244,
			"-0.004": 15.5035168604,
			"-0.003": 20.5392593001,
			"-0.002": 20.4021637197,
			"-0.001": 26.1161547927,
			"0.0": 13.6993199297,
			"0.001": 10.7451111854,
			"0.002": 10.8354721529,
			"0.003": 13.4247732401,
			"0.004": 13.9789678198,
			"0.005": 6.33862366594,
			"0.006": 7.51019379232,
			"0.007": 5.67100039215,
			"0.008": 5.59564251638,
			"0.009": 4.31975546697,
			"0.01": 2.30781481464,
			"0.011": 3.38153833814,
			"0.012": 2.04611844189,
			"0.013": 0.451580607652,
			"0.014": 0.0,
			"0.015": 0.0,
			"0.016": 0.0,
			"0.017": 0.0,
			"0.018": 0.0,
			"0.019": 0.0,
			"0.02": 0.0,
			"0.021": 0.0,
			"0.022": 0.0,
			"0.023": 0.0,
			"0.024": 0.0,
			"0.025": 0.0
		}
	}
}
