{
	 "smiles": "COC1=C(OC)C=C2C=CC(=O)OC2=C1", 
	 "Tm": 419.15, 
	 "num_atms": 25, 
	 "gaussian": { 
		 "optdone": 1, 
		 "sigma_profile": "yes", 
		 "theory": "DFT", 
		 "functional": "B3LYP", 
		 "basiset": "6-31G**", 
		 "properties": { 
			 "R2extent": 3743.6856, 
			 "electric_dipole_moment_norm": 5.39308932802, 
			 "electric_quadrupole_moment_norm": 21.4755451738, 
			 "total_energy": -726.060268265, 
			 "HOMO_LUMO_gap": 0.16082, 
			 "cosmo_polarized_energy": -12.53, 
			 "cosmo_cavitation_energy": 29.39, 
			 "cosmo_dispersion_energy": -21.43, 
			 "cosmo_repulsion_energy": 1.67, 
			 "cosmo_total_nonelectrostatic_energy": 9.62, 
			 "SMD_solvation_energy": 7.69 
		},
		"coords": [
			{
				"x": 0.428817948,
				"y": -0.8745356755,
				"z": 3.1167410508,
				"element": "C" 
			},
			{
				"x": 1.1708686415,
				"y": -0.4201351749,
				"z": 1.9740063736,
				"element": "O" 
			},
			{
				"x": 0.432532873,
				"y": -0.1981715124,
				"z": 0.8413590466,
				"element": "C" 
			},
			{
				"x": -0.1879844947,
				"y": -1.2647388112,
				"z": 0.1423801244,
				"element": "C" 
			},
			{
				"x": -0.1154790585,
				"y": -2.5584779962,
				"z": 0.6071555522,
				"element": "O" 
			},
			{
				"x": 1.17438416,
				"y": -3.1707407979,
				"z": 0.4707201167,
				"element": "C" 
			},
			{
				"x": -0.9115687448,
				"y": -0.9961913607,
				"z": -1.0092926965,
				"element": "C" 
			},
			{
				"x": -1.027720714,
				"y": 0.3152720445,
				"z": -1.5065813309,
				"element": "C" 
			},
			{
				"x": -1.7610797688,
				"y": 0.66836695,
				"z": -2.694497619,
				"element": "C" 
			},
			{
				"x": -1.8162546338,
				"y": 1.9528751123,
				"z": -3.1158831897,
				"element": "C" 
			},
			{
				"x": -1.1422075148,
				"y": 3.0275275024,
				"z": -2.3942947918,
				"element": "C" 
			},
			{
				"x": -1.1380095137,
				"y": 4.1977341311,
				"z": -2.6948517608,
				"element": "O" 
			},
			{
				"x": -0.4385428167,
				"y": 2.646774528,
				"z": -1.2472118592,
				"element": "O" 
			},
			{
				"x": -0.3773504637,
				"y": 1.3544385614,
				"z": -0.8143076587,
				"element": "C" 
			},
			{
				"x": 0.3425200029,
				"y": 1.1027211252,
				"z": 0.3541036938,
				"element": "C" 
			},
			{
				"x": -0.085199313,
				"y": -1.8169806898,
				"z": 2.9092928314,
				"element": "H" 
			},
			{
				"x": 1.1608484747,
				"y": -1.0162049332,
				"z": 3.9136019159,
				"element": "H" 
			},
			{
				"x": -0.3008139142,
				"y": -0.1161285681,
				"z": 3.4248837106,
				"element": "H" 
			},
			{
				"x": 1.938794668,
				"y": -2.6166741918,
				"z": 1.0244275222,
				"element": "H" 
			},
			{
				"x": 1.4626676389,
				"y": -3.2344156944,
				"z": -0.5858161634,
				"element": "H" 
			},
			{
				"x": 1.0788500639,
				"y": -4.1779927578,
				"z": 0.880665633,
				"element": "H" 
			},
			{
				"x": -1.3892134764,
				"y": -1.822403866,
				"z": -1.5271061037,
				"element": "H" 
			},
			{
				"x": -2.2706747551,
				"y": -0.1171207982,
				"z": -3.2472281797,
				"element": "H" 
			},
			{
				"x": -2.3581461265,
				"y": 2.2545508357,
				"z": -4.0040363648,
				"element": "H" 
			},
			{
				"x": 0.8258608376,
				"y": 1.9142520373,
				"z": 0.8853701469,
				"element": "H" 
			}
		],
		 "valence_orbital": [ 
			{
				"type": "occ",
				"energy": -0.29209,
				"method": "rhf"
			},
			{
				"type": "occ",
				"energy": -0.27851,
				"method": "rhf"
			},
			{
				"type": "occ",
				"energy": -0.27063,
				"method": "rhf"
			},
			{
				"type": "occ",
				"energy": -0.25195,
				"method": "rhf"
			},
			{
				"type": "occ",
				"energy": -0.22699,
				"method": "rhf"
			},
			{
				"type": "unocc",
				"energy": -0.06617,
				"method": "rhf"
			},
			{
				"type": "unocc",
				"energy": -0.01166,
				"method": "rhf"
			},
			{
				"type": "unocc",
				"energy": 0.00288,
				"method": "rhf"
			},
			{
				"type": "unocc",
				"energy": 0.07309,
				"method": "rhf"
			},
			{
				"type": "unocc",
				"energy": 0.08552,
				"method": "rhf"
			}
		],
		"cosmo_sigma_profile": { 
			"-0.025": 0.0,
			"-0.024": 0.0,
			"-0.023": 0.0,
			"-0.022": 0.0,
			"-0.021": 0.0,
			"-0.02": 0.0,
			"-0.019": 0.0,
			"-0.018": 0.0,
			"-0.017": 0.0,
			"-0.016": 0.0,
			"-0.015": 0.0,
			"-0.014": 0.0,
			"-0.013": 0.0,
			"-0.012": 0.0,
			"-0.011": 0.0,
			"-0.01": 0.0,
			"-0.009": 1.15452301284,
			"-0.008": 5.78129227269,
			"-0.007": 7.17585198334,
			"-0.006": 9.57161920584,
			"-0.005": 14.1580743717,
			"-0.004": 19.4835863453,
			"-0.003": 27.0240373737,
			"-0.002": 22.0403353148,
			"-0.001": 19.4242983205,
			"0.0": 21.2547770082,
			"0.001": 22.2146047172,
			"0.002": 14.7504672169,
			"0.003": 5.61598111996,
			"0.004": 4.84156586458,
			"0.005": 4.49101279107,
			"0.006": 4.28006114871,
			"0.007": 3.77434984708,
			"0.008": 4.6224810564,
			"0.009": 3.95507139843,
			"0.01": 4.53943290298,
			"0.011": 5.7188231138,
			"0.012": 6.11429123959,
			"0.013": 2.9607435543,
			"0.014": 0.12113550692,
			"0.015": 0.0,
			"0.016": 0.0,
			"0.017": 0.0,
			"0.018": 0.0,
			"0.019": 0.0,
			"0.02": 0.0,
			"0.021": 0.0,
			"0.022": 0.0,
			"0.023": 0.0,
			"0.024": 0.0,
			"0.025": 0.0
		}
	}
}
