{
	 "smiles": "CCCCCCCC(=O)CCCCCCC", 
	 "Tm": 316.15, 
	 "num_atms": 46, 
	 "gaussian": { 
		 "optdone": 1, 
		 "sigma_profile": "yes", 
		 "theory": "DFT", 
		 "functional": "B3LYP", 
		 "basiset": "6-31G**", 
		 "properties": { 
			 "R2extent": 8324.5567, 
			 "electric_dipole_moment_norm": 2.28156836189, 
			 "electric_quadrupole_moment_norm": 5.56513557068, 
			 "total_energy": -664.935783391, 
			 "HOMO_LUMO_gap": 0.23278, 
			 "cosmo_polarized_energy": -6.9, 
			 "cosmo_cavitation_energy": 45.02, 
			 "cosmo_dispersion_energy": -30.56, 
			 "cosmo_repulsion_energy": 2.49, 
			 "cosmo_total_nonelectrostatic_energy": 16.95, 
			 "SMD_solvation_energy": 6.74 
		},
		"coords": [
			{
				"x": -4.0066500839,
				"y": -2.4203266333,
				"z": 4.5136965796,
				"element": "C" 
			},
			{
				"x": -2.6883589886,
				"y": -1.6670488723,
				"z": 4.2985924243,
				"element": "C" 
			},
			{
				"x": -2.8259686292,
				"y": -0.1342725882,
				"z": 4.3807567113,
				"element": "C" 
			},
			{
				"x": -3.5828290378,
				"y": 0.5434565253,
				"z": 3.214724137,
				"element": "C" 
			},
			{
				"x": -2.7018807235,
				"y": 1.0587400177,
				"z": 2.0620495541,
				"element": "C" 
			},
			{
				"x": -1.9344000386,
				"y": -0.0156057848,
				"z": 1.2809356349,
				"element": "C" 
			},
			{
				"x": -1.163548248,
				"y": 0.5599352272,
				"z": 0.0912047104,
				"element": "C" 
			},
			{
				"x": -0.3294612565,
				"y": -0.4668782738,
				"z": -0.6669993831,
				"element": "C" 
			},
			{
				"x": -0.1471908977,
				"y": -1.5904444333,
				"z": -0.2338821459,
				"element": "O" 
			},
			{
				"x": 0.2527015892,
				"y": -0.0106189912,
				"z": -2.0038527281,
				"element": "C" 
			},
			{
				"x": 1.3148062136,
				"y": -0.9595353689,
				"z": -2.5734779038,
				"element": "C" 
			},
			{
				"x": 2.6743324373,
				"y": -0.9390727954,
				"z": -1.8403001189,
				"element": "C" 
			},
			{
				"x": 3.7448908218,
				"y": 0.0470545738,
				"z": -2.3483959694,
				"element": "C" 
			},
			{
				"x": 3.4520771786,
				"y": 1.5586742186,
				"z": -2.2193443588,
				"element": "C" 
			},
			{
				"x": 2.7764582872,
				"y": 2.2026028458,
				"z": -3.4402444464,
				"element": "C" 
			},
			{
				"x": 2.512302647,
				"y": 3.7007451061,
				"z": -3.2573359901,
				"element": "C" 
			},
			{
				"x": -4.4366422792,
				"y": -2.1892410045,
				"z": 5.495463761,
				"element": "H" 
			},
			{
				"x": -4.755562958,
				"y": -2.1607149368,
				"z": 3.7576612074,
				"element": "H" 
			},
			{
				"x": -3.8547986068,
				"y": -3.5035858427,
				"z": 4.4633305422,
				"element": "H" 
			},
			{
				"x": -1.9690675423,
				"y": -1.9923526409,
				"z": 5.0613687279,
				"element": "H" 
			},
			{
				"x": -2.256327472,
				"y": -1.9577335688,
				"z": 3.3340830391,
				"element": "H" 
			},
			{
				"x": -1.8265642235,
				"y": 0.3146440507,
				"z": 4.4625758128,
				"element": "H" 
			},
			{
				"x": -3.334939897,
				"y": 0.1053542156,
				"z": 5.3240582809,
				"element": "H" 
			},
			{
				"x": -4.341004647,
				"y": -0.1410667813,
				"z": 2.8113999847,
				"element": "H" 
			},
			{
				"x": -4.1419986972,
				"y": 1.4017562062,
				"z": 3.6073358458,
				"element": "H" 
			},
			{
				"x": -3.3411421105,
				"y": 1.6170686537,
				"z": 1.3633023248,
				"element": "H" 
			},
			{
				"x": -1.9861834797,
				"y": 1.7914073264,
				"z": 2.4634372316,
				"element": "H" 
			},
			{
				"x": -2.6301052376,
				"y": -0.7834302409,
				"z": 0.9192504988,
				"element": "H" 
			},
			{
				"x": -1.226314981,
				"y": -0.5375199509,
				"z": 1.9317168166,
				"element": "H" 
			},
			{
				"x": -1.8387714612,
				"y": 1.0589206789,
				"z": -0.6187739523,
				"element": "H" 
			},
			{
				"x": -0.4727105395,
				"y": 1.3499083131,
				"z": 0.4254034185,
				"element": "H" 
			},
			{
				"x": -0.599543564,
				"y": 0.0674687171,
				"z": -2.6964175985,
				"element": "H" 
			},
			{
				"x": 0.6233243102,
				"y": 1.0153322233,
				"z": -1.892511059,
				"element": "H" 
			},
			{
				"x": 1.4641550024,
				"y": -0.74241905,
				"z": -3.6381602842,
				"element": "H" 
			},
			{
				"x": 0.9018407678,
				"y": -1.9714798671,
				"z": -2.5151580807,
				"element": "H" 
			},
			{
				"x": 3.1096077759,
				"y": -1.9435211787,
				"z": -1.908946206,
				"element": "H" 
			},
			{
				"x": 2.5042127157,
				"y": -0.772557617,
				"z": -0.7688111413,
				"element": "H" 
			},
			{
				"x": 4.664471364,
				"y": -0.1736523863,
				"z": -1.7916862491,
				"element": "H" 
			},
			{
				"x": 3.9759764049,
				"y": -0.1827263428,
				"z": -3.3986572823,
				"element": "H" 
			},
			{
				"x": 4.3992417509,
				"y": 2.088327753,
				"z": -2.0497201384,
				"element": "H" 
			},
			{
				"x": 2.85013127,
				"y": 1.7444661516,
				"z": -1.3180374102,
				"element": "H" 
			},
			{
				"x": 3.4195414891,
				"y": 2.0495363882,
				"z": -4.3174598198,
				"element": "H" 
			},
			{
				"x": 1.8334719206,
				"y": 1.6926347876,
				"z": -3.6702410598,
				"element": "H" 
			},
			{
				"x": 3.4425195811,
				"y": 4.2451535795,
				"z": -3.0577707918,
				"element": "H" 
			},
			{
				"x": 1.8377192018,
				"y": 3.885953546,
				"z": -2.4130297882,
				"element": "H" 
			},
			{
				"x": 2.0547828714,
				"y": 4.1404640445,
				"z": -4.1497333376,
				"element": "H" 
			}
		],
		 "valence_orbital": [ 
			{
				"type": "occ",
				"energy": -0.30609,
				"method": "rhf"
			},
			{
				"type": "occ",
				"energy": -0.3035,
				"method": "rhf"
			},
			{
				"type": "occ",
				"energy": -0.30251,
				"method": "rhf"
			},
			{
				"type": "occ",
				"energy": -0.30212,
				"method": "rhf"
			},
			{
				"type": "occ",
				"energy": -0.24074,
				"method": "rhf"
			},
			{
				"type": "unocc",
				"energy": -0.00796,
				"method": "rhf"
			},
			{
				"type": "unocc",
				"energy": 0.06974,
				"method": "rhf"
			},
			{
				"type": "unocc",
				"energy": 0.08689,
				"method": "rhf"
			},
			{
				"type": "unocc",
				"energy": 0.09868,
				"method": "rhf"
			},
			{
				"type": "unocc",
				"energy": 0.10261,
				"method": "rhf"
			}
		],
		"cosmo_sigma_profile": { 
			"-0.025": 0.0,
			"-0.024": 0.0,
			"-0.023": 0.0,
			"-0.022": 0.0,
			"-0.021": 0.0,
			"-0.02": 0.0,
			"-0.019": 0.0,
			"-0.018": 0.0,
			"-0.017": 0.0,
			"-0.016": 0.0,
			"-0.015": 0.0,
			"-0.014": 0.0,
			"-0.013": 0.0,
			"-0.012": 0.0,
			"-0.011": 0.0,
			"-0.01": 0.0,
			"-0.009": 0.0,
			"-0.008": 0.0,
			"-0.007": 0.0,
			"-0.006": 1.11360985579,
			"-0.005": 8.83598619457,
			"-0.004": 9.79998803991,
			"-0.003": 17.4682795846,
			"-0.002": 54.0327756424,
			"-0.001": 72.5374252546,
			"0.0": 68.8100001309,
			"0.001": 59.0376707225,
			"0.002": 28.0547531775,
			"0.003": 3.0639955786,
			"0.004": 1.40830524505,
			"0.005": 2.31616010563,
			"0.006": 2.57038792961,
			"0.007": 1.5122940521,
			"0.008": 1.49762570134,
			"0.009": 2.22007275069,
			"0.01": 2.01713962932,
			"0.011": 2.21679313228,
			"0.012": 3.72524435949,
			"0.013": 2.6770609398,
			"0.014": 0.0964384092434,
			"0.015": 0.0,
			"0.016": 0.0,
			"0.017": 0.0,
			"0.018": 0.0,
			"0.019": 0.0,
			"0.02": 0.0,
			"0.021": 0.0,
			"0.022": 0.0,
			"0.023": 0.0,
			"0.024": 0.0,
			"0.025": 0.0
		}
	}
}
