{
	 "smiles": "CCC(C)(S(=O)(=O)CC)S(=O)(=O)CC", 
	 "Tm": 349.15, 
	 "num_atms": 32, 
	 "gaussian": { 
		 "optdone": 1, 
		 "sigma_profile": "yes", 
		 "theory": "DFT", 
		 "functional": "B3LYP", 
		 "basiset": "6-31G**", 
		 "properties": { 
			 "R2extent": 4037.2005, 
			 "electric_dipole_moment_norm": 0.375338607127, 
			 "electric_quadrupole_moment_norm": 17.9497122983, 
			 "total_energy": -1412.86453773, 
			 "HOMO_LUMO_gap": 0.3013, 
			 "cosmo_polarized_energy": -16.17, 
			 "cosmo_cavitation_energy": 33.84, 
			 "cosmo_dispersion_energy": -24.49, 
			 "cosmo_repulsion_energy": 1.82, 
			 "cosmo_total_nonelectrostatic_energy": 11.18, 
			 "SMD_solvation_energy": 4.91 
		},
		"coords": [
			{
				"x": 1.2907746463,
				"y": 2.4518340154,
				"z": 1.1610356664,
				"element": "C" 
			},
			{
				"x": 0.9664555401,
				"y": 1.2924092164,
				"z": 0.2077762423,
				"element": "C" 
			},
			{
				"x": -0.4082270766,
				"y": 1.3417915832,
				"z": -0.5032824111,
				"element": "C" 
			},
			{
				"x": -0.6388177565,
				"y": 2.6331323654,
				"z": -1.2938002765,
				"element": "C" 
			},
			{
				"x": -1.8448762128,
				"y": 1.201313246,
				"z": 0.6971064934,
				"element": "S" 
			},
			{
				"x": -3.0390875988,
				"y": 0.8213203437,
				"z": -0.0859188371,
				"element": "O" 
			},
			{
				"x": -1.8660943083,
				"y": 2.4647692341,
				"z": 1.4577821763,
				"element": "O" 
			},
			{
				"x": -1.4709877097,
				"y": -0.1545687604,
				"z": 1.8546576489,
				"element": "C" 
			},
			{
				"x": -2.6750194659,
				"y": -0.3808331389,
				"z": 2.7697356282,
				"element": "C" 
			},
			{
				"x": -0.3688236564,
				"y": -0.1268278675,
				"z": -1.6922651518,
				"element": "S" 
			},
			{
				"x": 0.817190091,
				"y": 0.0948389381,
				"z": -2.5415830022,
				"element": "O" 
			},
			{
				"x": -0.4561796504,
				"y": -1.3534191504,
				"z": -0.8722145067,
				"element": "O" 
			},
			{
				"x": -1.8348749478,
				"y": -0.0524826552,
				"z": -2.7739334883,
				"element": "C" 
			},
			{
				"x": -1.8431240377,
				"y": -1.2835363785,
				"z": -3.681386658,
				"element": "C" 
			},
			{
				"x": 2.28320673,
				"y": 2.2849092106,
				"z": 1.5906077492,
				"element": "H" 
			},
			{
				"x": 0.5696570854,
				"y": 2.5432037223,
				"z": 1.9752904472,
				"element": "H" 
			},
			{
				"x": 1.3193019909,
				"y": 3.4106714555,
				"z": 0.6363293568,
				"element": "H" 
			},
			{
				"x": 1.0604550184,
				"y": 0.3352626387,
				"z": 0.7303752745,
				"element": "H" 
			},
			{
				"x": 1.7127732404,
				"y": 1.2666412119,
				"z": -0.5928480533,
				"element": "H" 
			},
			{
				"x": 0.1432166207,
				"y": 2.7326948027,
				"z": -2.0512843372,
				"element": "H" 
			},
			{
				"x": -1.6163258948,
				"y": 2.642059539,
				"z": -1.7811145121,
				"element": "H" 
			},
			{
				"x": -0.5983200381,
				"y": 3.4908109069,
				"z": -0.6208294424,
				"element": "H" 
			},
			{
				"x": -0.5857366765,
				"y": 0.1539058753,
				"z": 2.4156927605,
				"element": "H" 
			},
			{
				"x": -1.233161128,
				"y": -1.0245643861,
				"z": 1.2398052363,
				"element": "H" 
			},
			{
				"x": -2.9047474256,
				"y": 0.5160138233,
				"z": 3.3502327847,
				"element": "H" 
			},
			{
				"x": -2.4432144986,
				"y": -1.1935011238,
				"z": 3.4638656281,
				"element": "H" 
			},
			{
				"x": -3.5572925541,
				"y": -0.6598941622,
				"z": 2.189736805,
				"element": "H" 
			},
			{
				"x": -2.7034952683,
				"y": 0.002131137,
				"z": -2.117284346,
				"element": "H" 
			},
			{
				"x": -1.7453599423,
				"y": 0.8732471199,
				"z": -3.3466611826,
				"element": "H" 
			},
			{
				"x": -2.7200237957,
				"y": -1.233777819,
				"z": -4.3330800763,
				"element": "H" 
			},
			{
				"x": -1.9001752829,
				"y": -2.2013995343,
				"z": -3.0921506821,
				"element": "H" 
			},
			{
				"x": -0.9476660374,
				"y": -1.3210554093,
				"z": -4.3062929341,
				"element": "H" 
			}
		],
		 "valence_orbital": [ 
			{
				"type": "occ",
				"energy": -0.31637,
				"method": "rhf"
			},
			{
				"type": "occ",
				"energy": -0.30751,
				"method": "rhf"
			},
			{
				"type": "occ",
				"energy": -0.3025,
				"method": "rhf"
			},
			{
				"type": "occ",
				"energy": -0.29086,
				"method": "rhf"
			},
			{
				"type": "occ",
				"energy": -0.28169,
				"method": "rhf"
			},
			{
				"type": "unocc",
				"energy": 0.01961,
				"method": "rhf"
			},
			{
				"type": "unocc",
				"energy": 0.02677,
				"method": "rhf"
			},
			{
				"type": "unocc",
				"energy": 0.04749,
				"method": "rhf"
			},
			{
				"type": "unocc",
				"energy": 0.05685,
				"method": "rhf"
			},
			{
				"type": "unocc",
				"energy": 0.06546,
				"method": "rhf"
			}
		],
		"cosmo_sigma_profile": { 
			"-0.025": 0.0,
			"-0.024": 0.0,
			"-0.023": 0.0,
			"-0.022": 0.0,
			"-0.021": 0.0,
			"-0.02": 0.0,
			"-0.019": 0.0,
			"-0.018": 0.0,
			"-0.017": 0.0,
			"-0.016": 0.0,
			"-0.015": 0.0,
			"-0.014": 0.0,
			"-0.013": 0.0,
			"-0.012": 0.0,
			"-0.011": 0.0,
			"-0.01": 0.0,
			"-0.009": 0.249926529363,
			"-0.008": 4.88156962781,
			"-0.007": 7.29856397574,
			"-0.006": 9.61624892746,
			"-0.005": 22.6211436296,
			"-0.004": 33.6171977454,
			"-0.003": 30.3331713108,
			"-0.002": 28.0879338701,
			"-0.001": 24.8752504853,
			"0.0": 17.2091576514,
			"0.001": 9.27442942277,
			"0.002": 7.88159556175,
			"0.003": 6.5406528896,
			"0.004": 4.88228324184,
			"0.005": 5.14199362218,
			"0.006": 4.62263784186,
			"0.007": 5.32213349787,
			"0.008": 6.25571922374,
			"0.009": 7.21579035536,
			"0.01": 9.1402782125,
			"0.011": 13.1172928801,
			"0.012": 5.62387926306,
			"0.013": 0.00396362152348,
			"0.014": 0.0,
			"0.015": 0.0,
			"0.016": 0.0,
			"0.017": 0.0,
			"0.018": 0.0,
			"0.019": 0.0,
			"0.02": 0.0,
			"0.021": 0.0,
			"0.022": 0.0,
			"0.023": 0.0,
			"0.024": 0.0,
			"0.025": 0.0
		}
	}
}
