{
	 "smiles": "CCS(=O)(=O)N1CCCC(C1)C(O)=O", 
	 "Tm": 333.15, 
	 "num_atms": 29, 
	 "gaussian": { 
		 "optdone": 1, 
		 "sigma_profile": "yes", 
		 "theory": "DFT", 
		 "functional": "B3LYP", 
		 "basiset": "6-31G**", 
		 "properties": { 
			 "R2extent": 3825.6211, 
			 "electric_dipole_moment_norm": 2.42808055056, 
			 "electric_quadrupole_moment_norm": 16.2009888751, 
			 "total_energy": -1067.68917266, 
			 "HOMO_LUMO_gap": 0.25291, 
			 "cosmo_polarized_energy": -17.06, 
			 "cosmo_cavitation_energy": 31.88, 
			 "cosmo_dispersion_energy": -23.06, 
			 "cosmo_repulsion_energy": 1.78, 
			 "cosmo_total_nonelectrostatic_energy": 10.6, 
			 "SMD_solvation_energy": 4.64 
		},
		"coords": [
			{
				"x": 2.5141073345,
				"y": 1.9912630871,
				"z": 2.6489749911,
				"element": "C" 
			},
			{
				"x": 1.0731120184,
				"y": 1.5373264928,
				"z": 2.4272612564,
				"element": "C" 
			},
			{
				"x": 1.0137278778,
				"y": -0.138170902,
				"z": 1.7318363723,
				"element": "S" 
			},
			{
				"x": 1.6807263741,
				"y": -0.0947973812,
				"z": 0.420472884,
				"element": "O" 
			},
			{
				"x": 1.4655436514,
				"y": -1.0794327212,
				"z": 2.7653702585,
				"element": "O" 
			},
			{
				"x": -0.6538228239,
				"y": -0.3670958473,
				"z": 1.524617412,
				"element": "N" 
			},
			{
				"x": -1.2590239694,
				"y": -1.5660948492,
				"z": 2.1383967937,
				"element": "C" 
			},
			{
				"x": -1.1990584488,
				"y": -2.7892908609,
				"z": 1.2156852394,
				"element": "C" 
			},
			{
				"x": -1.7937059804,
				"y": -2.4775095058,
				"z": -0.1653549249,
				"element": "C" 
			},
			{
				"x": -1.1307712066,
				"y": -1.2206222103,
				"z": -0.7782889309,
				"element": "C" 
			},
			{
				"x": -1.2028805824,
				"y": -0.0342459962,
				"z": 0.1983594747,
				"element": "C" 
			},
			{
				"x": -1.7680464358,
				"y": -0.8482266643,
				"z": -2.1002272398,
				"element": "C" 
			},
			{
				"x": -1.6039487941,
				"y": -1.8170196368,
				"z": -3.0325909899,
				"element": "O" 
			},
			{
				"x": -2.3662037529,
				"y": 0.1817363568,
				"z": -2.3320085213,
				"element": "O" 
			},
			{
				"x": 3.0659242635,
				"y": 2.0067786428,
				"z": 1.7061327024,
				"element": "H" 
			},
			{
				"x": 3.0290383422,
				"y": 1.323014575,
				"z": 3.3437855848,
				"element": "H" 
			},
			{
				"x": 2.518900968,
				"y": 3.0000045666,
				"z": 3.0720456113,
				"element": "H" 
			},
			{
				"x": 0.5003288915,
				"y": 1.4895968349,
				"z": 3.3565791576,
				"element": "H" 
			},
			{
				"x": 0.5418796826,
				"y": 2.1807082807,
				"z": 1.7202299346,
				"element": "H" 
			},
			{
				"x": -0.7563738775,
				"y": -1.7609379496,
				"z": 3.0855714542,
				"element": "H" 
			},
			{
				"x": -2.3037731609,
				"y": -1.3060849609,
				"z": 2.3556712057,
				"element": "H" 
			},
			{
				"x": -1.7423859329,
				"y": -3.621205949,
				"z": 1.6794810585,
				"element": "H" 
			},
			{
				"x": -0.1537427387,
				"y": -3.1048531188,
				"z": 1.1138844865,
				"element": "H" 
			},
			{
				"x": -2.8739744297,
				"y": -2.2984783339,
				"z": -0.0664595292,
				"element": "H" 
			},
			{
				"x": -1.6720413818,
				"y": -3.3272585136,
				"z": -0.8429602252,
				"element": "H" 
			},
			{
				"x": -0.0746040597,
				"y": -1.4439745561,
				"z": -0.9734018963,
				"element": "H" 
			},
			{
				"x": -2.2469938647,
				"y": 0.2659395732,
				"z": 0.3415696778,
				"element": "H" 
			},
			{
				"x": -0.6759197972,
				"y": 0.8283843415,
				"z": -0.2110631418,
				"element": "H" 
			},
			{
				"x": -2.0448181667,
				"y": -1.4958527942,
				"z": -3.8373701562,
				"element": "H" 
			}
		],
		 "valence_orbital": [ 
			{
				"type": "occ",
				"energy": -0.31258,
				"method": "rhf"
			},
			{
				"type": "occ",
				"energy": -0.29679,
				"method": "rhf"
			},
			{
				"type": "occ",
				"energy": -0.29404,
				"method": "rhf"
			},
			{
				"type": "occ",
				"energy": -0.2781,
				"method": "rhf"
			},
			{
				"type": "occ",
				"energy": -0.24873,
				"method": "rhf"
			},
			{
				"type": "unocc",
				"energy": 0.00418,
				"method": "rhf"
			},
			{
				"type": "unocc",
				"energy": 0.06129,
				"method": "rhf"
			},
			{
				"type": "unocc",
				"energy": 0.06482,
				"method": "rhf"
			},
			{
				"type": "unocc",
				"energy": 0.07372,
				"method": "rhf"
			},
			{
				"type": "unocc",
				"energy": 0.08998,
				"method": "rhf"
			}
		],
		"cosmo_sigma_profile": { 
			"-0.025": 0.0,
			"-0.024": 0.0,
			"-0.023": 0.0,
			"-0.022": 0.0,
			"-0.021": 0.0,
			"-0.02": 0.0,
			"-0.019": 0.0373722084476,
			"-0.018": 0.668272319819,
			"-0.017": 0.831687348075,
			"-0.016": 0.792007893537,
			"-0.015": 1.09437126302,
			"-0.014": 0.891606590828,
			"-0.013": 0.367736564131,
			"-0.012": 0.268357491504,
			"-0.011": 0.934809426267,
			"-0.01": 1.15488297809,
			"-0.009": 1.0210344051,
			"-0.008": 2.78509674225,
			"-0.007": 5.53352257601,
			"-0.006": 7.05592837571,
			"-0.005": 16.9828790857,
			"-0.004": 29.1298193436,
			"-0.003": 30.8757834248,
			"-0.002": 25.2754176037,
			"-0.001": 22.6594375727,
			"0.0": 14.7642671404,
			"0.001": 8.61488151105,
			"0.002": 7.91496909102,
			"0.003": 6.44552666399,
			"0.004": 6.03674071497,
			"0.005": 6.21347326226,
			"0.006": 5.0043886553,
			"0.007": 5.07069048313,
			"0.008": 4.82607117717,
			"0.009": 6.82203492998,
			"0.01": 6.9283061538,
			"0.011": 11.034618303,
			"0.012": 9.38007616689,
			"0.013": 0.716247536708,
			"0.014": 0.0,
			"0.015": 0.0,
			"0.016": 0.0,
			"0.017": 0.0,
			"0.018": 0.0,
			"0.019": 0.0,
			"0.02": 0.0,
			"0.021": 0.0,
			"0.022": 0.0,
			"0.023": 0.0,
			"0.024": 0.0,
			"0.025": 0.0
		}
	}
}
