{
	 "smiles": "OC(=O)C1=CC=C(C=C1)C1=CC=CC=C1F", 
	 "Tm": 508.15, 
	 "num_atms": 25, 
	 "gaussian": { 
		 "optdone": 1, 
		 "sigma_profile": "yes", 
		 "theory": "DFT", 
		 "functional": "B3LYP", 
		 "basiset": "6-31G**", 
		 "properties": { 
			 "R2extent": 5029.8348, 
			 "electric_dipole_moment_norm": 2.43544243414, 
			 "electric_quadrupole_moment_norm": 11.5071990019, 
			 "total_energy": -751.116401567, 
			 "HOMO_LUMO_gap": 0.17711, 
			 "cosmo_polarized_energy": -10.33, 
			 "cosmo_cavitation_energy": 30.3, 
			 "cosmo_dispersion_energy": -22.15, 
			 "cosmo_repulsion_energy": 1.68, 
			 "cosmo_total_nonelectrostatic_energy": 9.83, 
			 "SMD_solvation_energy": 6.63 
		},
		"coords": [
			{
				"x": 4.2094758197,
				"y": 0.3576954684,
				"z": 3.5463511042,
				"element": "O" 
			},
			{
				"x": 3.8332040418,
				"y": -0.6848588119,
				"z": 2.7623963095,
				"element": "C" 
			},
			{
				"x": 4.504043533,
				"y": -1.6947063015,
				"z": 2.6698081112,
				"element": "O" 
			},
			{
				"x": 2.5484226918,
				"y": -0.4495480567,
				"z": 2.0559057551,
				"element": "C" 
			},
			{
				"x": 1.8157991247,
				"y": 0.7365523884,
				"z": 2.2001168506,
				"element": "C" 
			},
			{
				"x": 0.6163283233,
				"y": 0.9071951487,
				"z": 1.5169666587,
				"element": "C" 
			},
			{
				"x": 0.1195312426,
				"y": -0.099031672,
				"z": 0.6683729272,
				"element": "C" 
			},
			{
				"x": 0.8620261831,
				"y": -1.2874941964,
				"z": 0.5375612111,
				"element": "C" 
			},
			{
				"x": 2.0597131346,
				"y": -1.4615744809,
				"z": 1.2196917269,
				"element": "C" 
			},
			{
				"x": -1.1376656534,
				"y": 0.077345617,
				"z": -0.1007942995,
				"element": "C" 
			},
			{
				"x": -1.2549039859,
				"y": -0.4017796762,
				"z": -1.4186564914,
				"element": "C" 
			},
			{
				"x": -2.4305238316,
				"y": -0.2568148986,
				"z": -2.1522756177,
				"element": "C" 
			},
			{
				"x": -3.5356416675,
				"y": 0.3770087499,
				"z": -1.5809502799,
				"element": "C" 
			},
			{
				"x": -3.4551703248,
				"y": 0.8648014299,
				"z": -0.2771481034,
				"element": "C" 
			},
			{
				"x": -2.2706721654,
				"y": 0.7103531562,
				"z": 0.4314507387,
				"element": "C" 
			},
			{
				"x": -2.2334399399,
				"y": 1.1852275393,
				"z": 1.6981225477,
				"element": "F" 
			},
			{
				"x": 5.0511740098,
				"y": 0.0905831756,
				"z": 3.9505710744,
				"element": "H" 
			},
			{
				"x": 2.1910807532,
				"y": 1.5232396418,
				"z": 2.8447108555,
				"element": "H" 
			},
			{
				"x": 0.0613619109,
				"y": 1.8299283409,
				"z": 1.6351989541,
				"element": "H" 
			},
			{
				"x": 0.4820454994,
				"y": -2.0888541131,
				"z": -0.0883697898,
				"element": "H" 
			},
			{
				"x": 2.6301950856,
				"y": -2.3793436598,
				"z": 1.1250443769,
				"element": "H" 
			},
			{
				"x": -0.3917768693,
				"y": -0.8747196572,
				"z": -1.8766287442,
				"element": "H" 
			},
			{
				"x": -2.4803665759,
				"y": -0.6311801109,
				"z": -3.1699413512,
				"element": "H" 
			},
			{
				"x": -4.4555689617,
				"y": 0.4957982393,
				"z": -2.1450743032,
				"element": "H" 
			},
			{
				"x": -4.2925713783,
				"y": 1.3574767398,
				"z": 0.2050697784,
				"element": "H" 
			}
		],
		 "valence_orbital": [ 
			{
				"type": "occ",
				"energy": -0.28618,
				"method": "rhf"
			},
			{
				"type": "occ",
				"energy": -0.27536,
				"method": "rhf"
			},
			{
				"type": "occ",
				"energy": -0.261,
				"method": "rhf"
			},
			{
				"type": "occ",
				"energy": -0.25633,
				"method": "rhf"
			},
			{
				"type": "occ",
				"energy": -0.23621,
				"method": "rhf"
			},
			{
				"type": "unocc",
				"energy": -0.0591,
				"method": "rhf"
			},
			{
				"type": "unocc",
				"energy": -0.01247,
				"method": "rhf"
			},
			{
				"type": "unocc",
				"energy": -0.00905,
				"method": "rhf"
			},
			{
				"type": "unocc",
				"energy": -0.00267,
				"method": "rhf"
			},
			{
				"type": "unocc",
				"energy": 0.06178,
				"method": "rhf"
			}
		],
		"cosmo_sigma_profile": { 
			"-0.025": 0.0,
			"-0.024": 0.0,
			"-0.023": 0.0,
			"-0.022": 0.0,
			"-0.021": 0.0,
			"-0.02": 0.0,
			"-0.019": 0.0447989055315,
			"-0.018": 0.757022533969,
			"-0.017": 0.775281616897,
			"-0.016": 0.827109069955,
			"-0.015": 0.790311166473,
			"-0.014": 1.13984231628,
			"-0.013": 0.636686526404,
			"-0.012": 0.315057297926,
			"-0.011": 0.815895519792,
			"-0.01": 0.488290662744,
			"-0.009": 0.459619685111,
			"-0.008": 0.717231087337,
			"-0.007": 5.35788129567,
			"-0.006": 15.0178273077,
			"-0.005": 17.156794008,
			"-0.004": 14.8707384887,
			"-0.003": 12.857932016,
			"-0.002": 15.4336555921,
			"-0.001": 12.3548633315,
			"0.0": 19.0316100608,
			"0.001": 23.917045622,
			"0.002": 23.3417618437,
			"0.003": 28.6045933476,
			"0.004": 22.3081797952,
			"0.005": 6.22070261676,
			"0.006": 3.24341785517,
			"0.007": 2.77645369347,
			"0.008": 2.08115716353,
			"0.009": 1.1060381451,
			"0.01": 2.30979841771,
			"0.011": 3.46711228806,
			"0.012": 4.37595252449,
			"0.013": 0.124901597419,
			"0.014": 0.0,
			"0.015": 0.0,
			"0.016": 0.0,
			"0.017": 0.0,
			"0.018": 0.0,
			"0.019": 0.0,
			"0.02": 0.0,
			"0.021": 0.0,
			"0.022": 0.0,
			"0.023": 0.0,
			"0.024": 0.0,
			"0.025": 0.0
		}
	}
}
