{
	 "smiles": "CN(C)C1=CC=C(C=C1)C(O)C1=CC=C(C=C1)N(C)C", 
	 "Tm": 374.15, 
	 "num_atms": 42, 
	 "gaussian": { 
		 "optdone": 1, 
		 "sigma_profile": "yes", 
		 "theory": "DFT", 
		 "functional": "B3LYP", 
		 "basiset": "6-31G**", 
		 "properties": { 
			 "R2extent": 8966.4987, 
			 "electric_dipole_moment_norm": 3.36038920662, 
			 "electric_quadrupole_moment_norm": 16.6084095063, 
			 "total_energy": -845.77449228, 
			 "HOMO_LUMO_gap": 0.18211, 
			 "cosmo_polarized_energy": -13.09, 
			 "cosmo_cavitation_energy": 43.25, 
			 "cosmo_dispersion_energy": -30.75, 
			 "cosmo_repulsion_energy": 2.36, 
			 "cosmo_total_nonelectrostatic_energy": 14.86, 
			 "SMD_solvation_energy": 6.21 
		},
		"coords": [
			{
				"x": -4.9876613348,
				"y": -0.9255327169,
				"z": 3.4661541775,
				"element": "C" 
			},
			{
				"x": -4.3261004123,
				"y": -1.5015741659,
				"z": 2.3084941999,
				"element": "N" 
			},
			{
				"x": -5.1331965424,
				"y": -1.7283820612,
				"z": 1.1223846105,
				"element": "C" 
			},
			{
				"x": -2.948439884,
				"y": -1.3239221071,
				"z": 2.1635546282,
				"element": "C" 
			},
			{
				"x": -2.1498254496,
				"y": -0.8429471705,
				"z": 3.2222730759,
				"element": "C" 
			},
			{
				"x": -0.7693762146,
				"y": -0.7056350707,
				"z": 3.0826974176,
				"element": "C" 
			},
			{
				"x": -0.1230767987,
				"y": -1.0235624393,
				"z": 1.8865171468,
				"element": "C" 
			},
			{
				"x": -0.9125886344,
				"y": -1.487866334,
				"z": 0.828341004,
				"element": "C" 
			},
			{
				"x": -2.289666104,
				"y": -1.633599192,
				"z": 0.9515071875,
				"element": "C" 
			},
			{
				"x": 1.3841493165,
				"y": -0.888336567,
				"z": 1.7180125053,
				"element": "C" 
			},
			{
				"x": 1.9325510156,
				"y": -0.4832955098,
				"z": 2.9765104733,
				"element": "O" 
			},
			{
				"x": 1.7819149361,
				"y": 0.078726248,
				"z": 0.6141910794,
				"element": "C" 
			},
			{
				"x": 1.45531898,
				"y": 1.4396803062,
				"z": 0.6966581965,
				"element": "C" 
			},
			{
				"x": 1.8324185207,
				"y": 2.3397980079,
				"z": -0.2910160931,
				"element": "C" 
			},
			{
				"x": 2.5698386651,
				"y": 1.9159843457,
				"z": -1.4236169784,
				"element": "C" 
			},
			{
				"x": 2.8868682974,
				"y": 0.5430655149,
				"z": -1.510139075,
				"element": "C" 
			},
			{
				"x": 2.5049110391,
				"y": -0.3429981093,
				"z": -0.5039658354,
				"element": "C" 
			},
			{
				"x": 2.9750501963,
				"y": 2.819208411,
				"z": -2.4024229013,
				"element": "N" 
			},
			{
				"x": 3.5185008915,
				"y": 2.3114047044,
				"z": -3.6501893699,
				"element": "C" 
			},
			{
				"x": 2.4239946442,
				"y": 4.1637897135,
				"z": -2.3991438501,
				"element": "C" 
			},
			{
				"x": -4.5854348306,
				"y": -1.3444314676,
				"z": 4.395004177,
				"element": "H" 
			},
			{
				"x": -6.0501914512,
				"y": -1.1738554567,
				"z": 3.4308021311,
				"element": "H" 
			},
			{
				"x": -4.8914499707,
				"y": 0.171376079,
				"z": 3.5214187861,
				"element": "H" 
			},
			{
				"x": -4.8239766564,
				"y": -2.6443569037,
				"z": 0.6070277703,
				"element": "H" 
			},
			{
				"x": -6.1754538293,
				"y": -1.8597220938,
				"z": 1.4195525986,
				"element": "H" 
			},
			{
				"x": -5.0838450209,
				"y": -0.8997762716,
				"z": 0.3967562697,
				"element": "H" 
			},
			{
				"x": -2.6000977558,
				"y": -0.5731628173,
				"z": 4.1698876081,
				"element": "H" 
			},
			{
				"x": -0.1815803516,
				"y": -0.3441335279,
				"z": 3.9185442825,
				"element": "H" 
			},
			{
				"x": -0.4453864425,
				"y": -1.7299131865,
				"z": -0.1236404442,
				"element": "H" 
			},
			{
				"x": -2.8511465245,
				"y": -1.9885490368,
				"z": 0.0959359236,
				"element": "H" 
			},
			{
				"x": 1.7851836407,
				"y": -1.8803195627,
				"z": 1.445787071,
				"element": "H" 
			},
			{
				"x": 2.8409207532,
				"y": -0.2037773764,
				"z": 2.8069678826,
				"element": "H" 
			},
			{
				"x": 0.8867579973,
				"y": 1.7954980041,
				"z": 1.5514734601,
				"element": "H" 
			},
			{
				"x": 1.5468089669,
				"y": 3.3789477359,
				"z": -0.1822687781,
				"element": "H" 
			},
			{
				"x": 3.437226388,
				"y": 0.1582233479,
				"z": -2.3598032773,
				"element": "H" 
			},
			{
				"x": 2.7765948924,
				"y": -1.3924150107,
				"z": -0.6003272433,
				"element": "H" 
			},
			{
				"x": 2.8073387691,
				"y": 1.6788900263,
				"z": -4.2054704388,
				"element": "H" 
			},
			{
				"x": 4.4249296508,
				"y": 1.7216422019,
				"z": -3.47265933,
				"element": "H" 
			},
			{
				"x": 3.7967687676,
				"y": 3.1523485322,
				"z": -4.2877197329,
				"element": "H" 
			},
			{
				"x": 2.6718786181,
				"y": 4.6882715129,
				"z": -1.4696031223,
				"element": "H" 
			},
			{
				"x": 2.8643843726,
				"y": 4.7318233946,
				"z": -3.2204260373,
				"element": "H" 
			},
			{
				"x": 1.3286848889,
				"y": 4.1825860691,
				"z": -2.5163411557,
				"element": "H" 
			}
		],
		 "valence_orbital": [ 
			{
				"type": "occ",
				"energy": -0.2543,
				"method": "rhf"
			},
			{
				"type": "occ",
				"energy": -0.23929,
				"method": "rhf"
			},
			{
				"type": "occ",
				"energy": -0.22853,
				"method": "rhf"
			},
			{
				"type": "occ",
				"energy": -0.18712,
				"method": "rhf"
			},
			{
				"type": "occ",
				"energy": -0.17427,
				"method": "rhf"
			},
			{
				"type": "unocc",
				"energy": 0.00784,
				"method": "rhf"
			},
			{
				"type": "unocc",
				"energy": 0.01521,
				"method": "rhf"
			},
			{
				"type": "unocc",
				"energy": 0.01939,
				"method": "rhf"
			},
			{
				"type": "unocc",
				"energy": 0.03537,
				"method": "rhf"
			},
			{
				"type": "unocc",
				"energy": 0.08776,
				"method": "rhf"
			}
		],
		"cosmo_sigma_profile": { 
			"-0.025": 0.0,
			"-0.024": 0.0,
			"-0.023": 0.0,
			"-0.022": 0.0,
			"-0.021": 0.0,
			"-0.02": 0.0,
			"-0.019": 0.0,
			"-0.018": 0.0,
			"-0.017": 0.0,
			"-0.016": 0.0055905176678,
			"-0.015": 0.550133242588,
			"-0.014": 0.503706861284,
			"-0.013": 1.00605713561,
			"-0.012": 0.675948638891,
			"-0.011": 0.473622859961,
			"-0.01": 0.500309760098,
			"-0.009": 0.911026567073,
			"-0.008": 0.513219600261,
			"-0.007": 1.51155308942,
			"-0.006": 7.10197241773,
			"-0.005": 21.9949522205,
			"-0.004": 29.2954743879,
			"-0.003": 42.6800479505,
			"-0.002": 45.7752070717,
			"-0.001": 42.0707195188,
			"0.0": 20.184634882,
			"0.001": 15.5117073446,
			"0.002": 13.9183496826,
			"0.003": 13.8006881727,
			"0.004": 14.0722564172,
			"0.005": 15.0950444153,
			"0.006": 20.5533490606,
			"0.007": 17.7781723982,
			"0.008": 6.60639363344,
			"0.009": 1.94720382675,
			"0.01": 1.77717999454,
			"0.011": 1.60766220321,
			"0.012": 0.526683625605,
			"0.013": 0.882647910257,
			"0.014": 0.587243842812,
			"0.015": 0.0039425173287,
			"0.016": 0.0,
			"0.017": 0.0,
			"0.018": 0.0,
			"0.019": 0.0,
			"0.02": 0.0,
			"0.021": 0.0,
			"0.022": 0.0,
			"0.023": 0.0,
			"0.024": 0.0,
			"0.025": 0.0
		}
	}
}
