{
	 "smiles": "COCC1(O)CCNCC1", 
	 "Tm": 328.15, 
	 "num_atms": 25, 
	 "gaussian": { 
		 "optdone": 1, 
		 "sigma_profile": "yes", 
		 "theory": "DFT", 
		 "functional": "B3LYP", 
		 "basiset": "6-31G**", 
		 "properties": { 
			 "R2extent": 1688.6367, 
			 "electric_dipole_moment_norm": 2.0951454675, 
			 "electric_quadrupole_moment_norm": 7.86482120522, 
			 "total_energy": -480.958887656, 
			 "HOMO_LUMO_gap": 0.28695, 
			 "cosmo_polarized_energy": -11.08, 
			 "cosmo_cavitation_energy": 25.01, 
			 "cosmo_dispersion_energy": -18.53, 
			 "cosmo_repulsion_energy": 1.49, 
			 "cosmo_total_nonelectrostatic_energy": 7.97, 
			 "SMD_solvation_energy": 1.75 
		},
		"coords": [
			{
				"x": -0.1055753694,
				"y": 2.6270161602,
				"z": 1.8362543478,
				"element": "C" 
			},
			{
				"x": 0.9859522231,
				"y": 1.892010038,
				"z": 1.3038114706,
				"element": "O" 
			},
			{
				"x": 0.8754090109,
				"y": 0.4869774126,
				"z": 1.4025360199,
				"element": "C" 
			},
			{
				"x": -0.010122375,
				"y": -0.1848278567,
				"z": 0.328031373,
				"element": "C" 
			},
			{
				"x": -1.3896588327,
				"y": 0.1579119618,
				"z": 0.5505158177,
				"element": "O" 
			},
			{
				"x": 0.1549419197,
				"y": -1.7192689439,
				"z": 0.3839861151,
				"element": "C" 
			},
			{
				"x": 1.478316608,
				"y": -2.2181245371,
				"z": -0.2348095966,
				"element": "C" 
			},
			{
				"x": 1.7425800957,
				"y": -1.6989434685,
				"z": -1.5766025532,
				"element": "N" 
			},
			{
				"x": 1.643173316,
				"y": -0.2366357871,
				"z": -1.6210624562,
				"element": "C" 
			},
			{
				"x": 0.3140104832,
				"y": 0.3247492369,
				"z": -1.0839122388,
				"element": "C" 
			},
			{
				"x": -1.0228202882,
				"y": 2.48819126,
				"z": 1.2552068075,
				"element": "H" 
			},
			{
				"x": 0.1878512099,
				"y": 3.6800226852,
				"z": 1.8171773544,
				"element": "H" 
			},
			{
				"x": -0.3048521596,
				"y": 2.3386156185,
				"z": 2.8811736074,
				"element": "H" 
			},
			{
				"x": 0.4939601251,
				"y": 0.1957058657,
				"z": 2.3985696178,
				"element": "H" 
			},
			{
				"x": 1.8999591931,
				"y": 0.1068840167,
				"z": 1.3282574139,
				"element": "H" 
			},
			{
				"x": -1.6452238692,
				"y": -0.2010939326,
				"z": 1.412144393,
				"element": "H" 
			},
			{
				"x": -0.6895279707,
				"y": -2.1483374793,
				"z": -0.1699174665,
				"element": "H" 
			},
			{
				"x": 0.0656108491,
				"y": -2.0722083679,
				"z": 1.4228218374,
				"element": "H" 
			},
			{
				"x": 1.4798697833,
				"y": -3.3129673155,
				"z": -0.274930555,
				"element": "H" 
			},
			{
				"x": 2.3244987189,
				"y": -1.9336111306,
				"z": 0.4050101199,
				"element": "H" 
			},
			{
				"x": 1.0641863138,
				"y": -2.0955946305,
				"z": -2.2248263559,
				"element": "H" 
			},
			{
				"x": 1.7930279133,
				"y": 0.0901307024,
				"z": -2.6556212365,
				"element": "H" 
			},
			{
				"x": 2.4830439812,
				"y": 0.1731433482,
				"z": -1.0444171911,
				"element": "H" 
			},
			{
				"x": -0.5085717597,
				"y": 0.0140158113,
				"z": -1.7398824451,
				"element": "H" 
			},
			{
				"x": 0.3339608802,
				"y": 1.4188393321,
				"z": -1.0753142003,
				"element": "H" 
			}
		],
		 "valence_orbital": [ 
			{
				"type": "occ",
				"energy": -0.3133,
				"method": "rhf"
			},
			{
				"type": "occ",
				"energy": -0.30861,
				"method": "rhf"
			},
			{
				"type": "occ",
				"energy": -0.28131,
				"method": "rhf"
			},
			{
				"type": "occ",
				"energy": -0.23783,
				"method": "rhf"
			},
			{
				"type": "occ",
				"energy": -0.21694,
				"method": "rhf"
			},
			{
				"type": "unocc",
				"energy": 0.07001,
				"method": "rhf"
			},
			{
				"type": "unocc",
				"energy": 0.07964,
				"method": "rhf"
			},
			{
				"type": "unocc",
				"energy": 0.10435,
				"method": "rhf"
			},
			{
				"type": "unocc",
				"energy": 0.107,
				"method": "rhf"
			},
			{
				"type": "unocc",
				"energy": 0.13126,
				"method": "rhf"
			}
		],
		"cosmo_sigma_profile": { 
			"-0.025": 0.0,
			"-0.024": 0.0,
			"-0.023": 0.0,
			"-0.022": 0.0,
			"-0.021": 0.0,
			"-0.02": 0.0,
			"-0.019": 0.0,
			"-0.018": 0.0,
			"-0.017": 0.0,
			"-0.016": 0.0,
			"-0.015": 0.134946856077,
			"-0.014": 1.14260014188,
			"-0.013": 0.629376426888,
			"-0.012": 0.548637309702,
			"-0.011": 1.36347557043,
			"-0.01": 1.34701076975,
			"-0.009": 2.48680189326,
			"-0.008": 2.52708704061,
			"-0.007": 2.25865833952,
			"-0.006": 3.50717919943,
			"-0.005": 7.42073436532,
			"-0.004": 16.4868838344,
			"-0.003": 24.747942559,
			"-0.002": 25.3410654673,
			"-0.001": 23.8206371257,
			"0.0": 17.5155368348,
			"0.001": 9.24633271309,
			"0.002": 6.72694530538,
			"0.003": 5.81201539883,
			"0.004": 4.97291709684,
			"0.005": 3.87671886631,
			"0.006": 3.99554697955,
			"0.007": 3.22477731521,
			"0.008": 3.85108133387,
			"0.009": 2.65753618527,
			"0.01": 2.10005572258,
			"0.011": 2.18685592705,
			"0.012": 3.2501968356,
			"0.013": 3.54025540093,
			"0.014": 2.45146428694,
			"0.015": 1.23953581359,
			"0.016": 0.148638681024,
			"0.017": 0.22047932905,
			"0.018": 1.06067804555,
			"0.019": 0.187120649401,
			"0.02": 0.0,
			"0.021": 0.0,
			"0.022": 0.0,
			"0.023": 0.0,
			"0.024": 0.0,
			"0.025": 0.0
		}
	}
}
