{
	 "smiles": "OC(=O)CNC(=O)C1=CC=C(C=C1)S(Cl)(=O)=O", 
	 "Tm": 404.15, 
	 "num_atms": 25, 
	 "gaussian": { 
		 "optdone": 1, 
		 "sigma_profile": "yes", 
		 "theory": "DFT", 
		 "functional": "B3LYP", 
		 "basiset": "6-31G**", 
		 "properties": { 
			 "R2extent": 7516.5189, 
			 "electric_dipole_moment_norm": 4.77574140422, 
			 "electric_quadrupole_moment_norm": 18.2243068409, 
			 "total_energy": -1636.97496269, 
			 "HOMO_LUMO_gap": 0.17114, 
			 "cosmo_polarized_energy": -24.84, 
			 "cosmo_cavitation_energy": 33.95, 
			 "cosmo_dispersion_energy": -24.65, 
			 "cosmo_repulsion_energy": 1.89, 
			 "cosmo_total_nonelectrostatic_energy": 11.18, 
			 "SMD_solvation_energy": 6.51 
		},
		"coords": [
			{
				"x": 0.5432016132,
				"y": -2.557692408,
				"z": -2.0879627421,
				"element": "O" 
			},
			{
				"x": -0.0489990446,
				"y": -3.1925154976,
				"z": -1.0548611211,
				"element": "C" 
			},
			{
				"x": -0.8786034745,
				"y": -4.0515371827,
				"z": -1.2055447467,
				"element": "O" 
			},
			{
				"x": 0.3885827663,
				"y": -2.7185602075,
				"z": 0.3404047687,
				"element": "C" 
			},
			{
				"x": 1.5049066602,
				"y": -1.7693631484,
				"z": 0.3211700155,
				"element": "N" 
			},
			{
				"x": 1.4983334841,
				"y": -0.4903684346,
				"z": 0.8825134237,
				"element": "C" 
			},
			{
				"x": 2.5234799126,
				"y": -0.0188840509,
				"z": 1.347299484,
				"element": "O" 
			},
			{
				"x": 0.2248573072,
				"y": 0.3092270935,
				"z": 0.848842027,
				"element": "C" 
			},
			{
				"x": -0.703375665,
				"y": 0.2349547171,
				"z": -0.2002954937,
				"element": "C" 
			},
			{
				"x": -1.8259957819,
				"y": 1.0616693446,
				"z": -0.2059451596,
				"element": "C" 
			},
			{
				"x": -2.0023357663,
				"y": 1.9495039776,
				"z": 0.8538394728,
				"element": "C" 
			},
			{
				"x": -1.09134197,
				"y": 2.050361033,
				"z": 1.9067491143,
				"element": "C" 
			},
			{
				"x": 0.031988289,
				"y": 1.2305613279,
				"z": 1.8892796564,
				"element": "C" 
			},
			{
				"x": -3.4617224378,
				"y": 2.9897778022,
				"z": 0.872990584,
				"element": "S" 
			},
			{
				"x": -2.7481483061,
				"y": 4.7094997476,
				"z": -0.1581474599,
				"element": "Cl" 
			},
			{
				"x": -4.4839521428,
				"y": 2.394252754,
				"z": 0.023017622,
				"element": "O" 
			},
			{
				"x": -3.7275078589,
				"y": 3.4116630632,
				"z": 2.2418629882,
				"element": "O" 
			},
			{
				"x": 1.2087466552,
				"y": -1.9493804376,
				"z": -1.713695849,
				"element": "H" 
			},
			{
				"x": 0.6479251742,
				"y": -3.6064037765,
				"z": 0.9245454251,
				"element": "H" 
			},
			{
				"x": -0.4845096259,
				"y": -2.271500703,
				"z": 0.8206548284,
				"element": "H" 
			},
			{
				"x": 2.420491273,
				"y": -2.1850527576,
				"z": 0.4626519886,
				"element": "H" 
			},
			{
				"x": -0.5489758519,
				"y": -0.4458867271,
				"z": -1.0301045814,
				"element": "H" 
			},
			{
				"x": -2.5513843665,
				"y": 1.0149160183,
				"z": -1.0102060232,
				"element": "H" 
			},
			{
				"x": -1.2640874637,
				"y": 2.7516130612,
				"z": 2.7152419634,
				"element": "H" 
			},
			{
				"x": 0.7758266211,
				"y": 1.2947453912,
				"z": 2.6755998144,
				"element": "H" 
			}
		],
		 "valence_orbital": [ 
			{
				"type": "occ",
				"energy": -0.323,
				"method": "rhf"
			},
			{
				"type": "occ",
				"energy": -0.31232,
				"method": "rhf"
			},
			{
				"type": "occ",
				"energy": -0.30603,
				"method": "rhf"
			},
			{
				"type": "occ",
				"energy": -0.29752,
				"method": "rhf"
			},
			{
				"type": "occ",
				"energy": -0.27876,
				"method": "rhf"
			},
			{
				"type": "unocc",
				"energy": -0.10762,
				"method": "rhf"
			},
			{
				"type": "unocc",
				"energy": -0.07433,
				"method": "rhf"
			},
			{
				"type": "unocc",
				"energy": -0.05552,
				"method": "rhf"
			},
			{
				"type": "unocc",
				"energy": -0.01188,
				"method": "rhf"
			},
			{
				"type": "unocc",
				"energy": -0.00666,
				"method": "rhf"
			}
		],
		"cosmo_sigma_profile": { 
			"-0.025": 0.0,
			"-0.024": 0.0,
			"-0.023": 0.0,
			"-0.022": 0.0,
			"-0.021": 0.0,
			"-0.02": 0.0,
			"-0.019": 0.0,
			"-0.018": 0.0,
			"-0.017": 0.0,
			"-0.016": 0.00191216207589,
			"-0.015": 1.73077655326,
			"-0.014": 2.9443404587,
			"-0.013": 3.56526888327,
			"-0.012": 3.78284189931,
			"-0.011": 2.16340641989,
			"-0.01": 2.82567736764,
			"-0.009": 7.54127288384,
			"-0.008": 13.0027806444,
			"-0.007": 13.4213485551,
			"-0.006": 14.3220872916,
			"-0.005": 11.3941753281,
			"-0.004": 11.3156643689,
			"-0.003": 11.1328848349,
			"-0.002": 13.8266620838,
			"-0.001": 19.7624342551,
			"0.0": 19.466020442,
			"0.001": 11.981693478,
			"0.002": 12.9651003966,
			"0.003": 17.1056747231,
			"0.004": 9.00361930261,
			"0.005": 6.40086440915,
			"0.006": 7.71042203968,
			"0.007": 9.640240594,
			"0.008": 14.1284606787,
			"0.009": 8.19657710215,
			"0.01": 6.6421808675,
			"0.011": 8.5383068454,
			"0.012": 9.04590131166,
			"0.013": 1.28907168164,
			"0.014": 0.0,
			"0.015": 0.0,
			"0.016": 0.0,
			"0.017": 0.0,
			"0.018": 0.0,
			"0.019": 0.0,
			"0.02": 0.0,
			"0.021": 0.0,
			"0.022": 0.0,
			"0.023": 0.0,
			"0.024": 0.0,
			"0.025": 0.0
		}
	}
}
