{
	 "smiles": "CC1=C(C=C(C(O)=O)C(O)=C1)S(Cl)(=O)=O", 
	 "Tm": 436.15, 
	 "num_atms": 22, 
	 "gaussian": { 
		 "optdone": 1, 
		 "sigma_profile": "yes", 
		 "theory": "DFT", 
		 "functional": "B3LYP", 
		 "basiset": "6-31G**", 
		 "properties": { 
			 "R2extent": 4717.6906, 
			 "electric_dipole_moment_norm": 9.02330588476, 
			 "electric_quadrupole_moment_norm": 11.2758200717, 
			 "total_energy": -1543.514243, 
			 "HOMO_LUMO_gap": 0.18672, 
			 "cosmo_polarized_energy": -23.75, 
			 "cosmo_cavitation_energy": 29.63, 
			 "cosmo_dispersion_energy": -22.43, 
			 "cosmo_repulsion_energy": 1.7, 
			 "cosmo_total_nonelectrostatic_energy": 8.89, 
			 "SMD_solvation_energy": 5.43 
		},
		"coords": [
			{
				"x": 0.7480012927,
				"y": 2.9510717654,
				"z": -1.113655812,
				"element": "C" 
			},
			{
				"x": 0.2619038663,
				"y": 1.6859977172,
				"z": -0.4539210439,
				"element": "C" 
			},
			{
				"x": -0.9197973308,
				"y": 1.0008324439,
				"z": -0.8158203649,
				"element": "C" 
			},
			{
				"x": -1.3199749759,
				"y": -0.172182883,
				"z": -0.1839016381,
				"element": "C" 
			},
			{
				"x": -0.5701581016,
				"y": -0.7246986628,
				"z": 0.8573157273,
				"element": "C" 
			},
			{
				"x": -1.1075222939,
				"y": -1.9960277468,
				"z": 1.4720935797,
				"element": "C" 
			},
			{
				"x": -0.4082198373,
				"y": -2.5582786909,
				"z": 2.4741726743,
				"element": "O" 
			},
			{
				"x": -2.135550939,
				"y": -2.4957338462,
				"z": 1.0763106977,
				"element": "O" 
			},
			{
				"x": 0.6058592499,
				"y": -0.0512176883,
				"z": 1.2320464702,
				"element": "C" 
			},
			{
				"x": 1.3559295165,
				"y": -0.574707763,
				"z": 2.2471943725,
				"element": "O" 
			},
			{
				"x": 1.0033913814,
				"y": 1.1227003252,
				"z": 0.5846423807,
				"element": "C" 
			},
			{
				"x": -2.009073542,
				"y": 1.6045480564,
				"z": -2.1020934974,
				"element": "S" 
			},
			{
				"x": -0.8961010776,
				"y": 1.1150146863,
				"z": -3.8660753531,
				"element": "Cl" 
			},
			{
				"x": -2.0774137067,
				"y": 3.0606991131,
				"z": -2.0645684812,
				"element": "O" 
			},
			{
				"x": -3.2092730374,
				"y": 0.7819664321,
				"z": -2.1415642821,
				"element": "O" 
			},
			{
				"x": 0.8407101239,
				"y": 2.8249251601,
				"z": -2.1963924934,
				"element": "H" 
			},
			{
				"x": 1.7239719617,
				"y": 3.2359152695,
				"z": -0.7151037591,
				"element": "H" 
			},
			{
				"x": 0.0444758466,
				"y": 3.7715381974,
				"z": -0.9524009713,
				"element": "H" 
			},
			{
				"x": -2.227908055,
				"y": -0.685193487,
				"z": -0.4802474916,
				"element": "H" 
			},
			{
				"x": 0.389518551,
				"y": -2.0401208426,
				"z": 2.6760261972,
				"element": "H" 
			},
			{
				"x": 2.1386273765,
				"y": -0.0345326851,
				"z": 2.4183133106,
				"element": "H" 
			},
			{
				"x": 1.9211037305,
				"y": 1.6146851287,
				"z": 0.8994297777,
				"element": "H" 
			}
		],
		 "valence_orbital": [ 
			{
				"type": "occ",
				"energy": -0.32087,
				"method": "rhf"
			},
			{
				"type": "occ",
				"energy": -0.31759,
				"method": "rhf"
			},
			{
				"type": "occ",
				"energy": -0.2944,
				"method": "rhf"
			},
			{
				"type": "occ",
				"energy": -0.2834,
				"method": "rhf"
			},
			{
				"type": "occ",
				"energy": -0.28095,
				"method": "rhf"
			},
			{
				"type": "unocc",
				"energy": -0.09423,
				"method": "rhf"
			},
			{
				"type": "unocc",
				"energy": -0.07272,
				"method": "rhf"
			},
			{
				"type": "unocc",
				"energy": -0.04867,
				"method": "rhf"
			},
			{
				"type": "unocc",
				"energy": 0.01432,
				"method": "rhf"
			},
			{
				"type": "unocc",
				"energy": 0.02021,
				"method": "rhf"
			}
		],
		"cosmo_sigma_profile": { 
			"-0.025": 0.0,
			"-0.024": 0.0,
			"-0.023": 0.0,
			"-0.022": 0.0,
			"-0.021": 0.237955310126,
			"-0.02": 1.31297051087,
			"-0.019": 1.32484413394,
			"-0.018": 1.35745628645,
			"-0.017": 1.25051774622,
			"-0.016": 0.899797191987,
			"-0.015": 0.853035523287,
			"-0.014": 1.11583618981,
			"-0.013": 0.929117508416,
			"-0.012": 1.36494235094,
			"-0.011": 0.799766023866,
			"-0.01": 2.17900433383,
			"-0.009": 3.35167648913,
			"-0.008": 3.54256962988,
			"-0.007": 5.39303971785,
			"-0.006": 5.58365569122,
			"-0.005": 9.18913673966,
			"-0.004": 12.7448472408,
			"-0.003": 17.6657983863,
			"-0.002": 27.3659988371,
			"-0.001": 26.2255202605,
			"0.0": 14.0953084547,
			"0.001": 12.7714156233,
			"0.002": 11.1239722077,
			"0.003": 14.4218112765,
			"0.004": 10.2463134274,
			"0.005": 5.53802477741,
			"0.006": 5.74922298504,
			"0.007": 7.97825823715,
			"0.008": 10.8633193556,
			"0.009": 7.03340793109,
			"0.01": 4.50799967377,
			"0.011": 5.74524741271,
			"0.012": 3.77075104912,
			"0.013": 1.40947071035,
			"0.014": 0.0209493599297,
			"0.015": 0.0,
			"0.016": 0.0,
			"0.017": 0.0,
			"0.018": 0.0,
			"0.019": 0.0,
			"0.02": 0.0,
			"0.021": 0.0,
			"0.022": 0.0,
			"0.023": 0.0,
			"0.024": 0.0,
			"0.025": 0.0
		}
	}
}
