{
	 "smiles": "CC(C)C(O)C(C)(C)COC(=O)C(C)C", 
	 "Tm": 223.15, 
	 "num_atms": 39, 
	 "gaussian": { 
		 "optdone": 1, 
		 "sigma_profile": "yes", 
		 "theory": "DFT", 
		 "functional": "B3LYP", 
		 "basiset": "6-31G**", 
		 "properties": { 
			 "R2extent": 4065.6748, 
			 "electric_dipole_moment_norm": 1.43399773361, 
			 "electric_quadrupole_moment_norm": 18.7400540245, 
			 "total_energy": -697.440562308, 
			 "HOMO_LUMO_gap": 0.27561, 
			 "cosmo_polarized_energy": -10.89, 
			 "cosmo_cavitation_energy": 38.44, 
			 "cosmo_dispersion_energy": -24.86, 
			 "cosmo_repulsion_energy": 1.95, 
			 "cosmo_total_nonelectrostatic_energy": 15.53, 
			 "SMD_solvation_energy": 7.63 
		},
		"coords": [
			{
				"x": -2.8675875708,
				"y": -1.2855076027,
				"z": -0.8950939919,
				"element": "C" 
			},
			{
				"x": -1.8923290271,
				"y": -0.2349268542,
				"z": -1.4598037459,
				"element": "C" 
			},
			{
				"x": -2.1272613096,
				"y": 1.1059177937,
				"z": -0.7434316074,
				"element": "C" 
			},
			{
				"x": -0.4450001054,
				"y": -0.7991856278,
				"z": -1.3967454677,
				"element": "C" 
			},
			{
				"x": -0.4223305531,
				"y": -2.0499477183,
				"z": -2.1006802942,
				"element": "O" 
			},
			{
				"x": 0.7544670335,
				"y": 0.0938620353,
				"z": -1.8808149915,
				"element": "C" 
			},
			{
				"x": 2.0188525157,
				"y": -0.7928336481,
				"z": -1.9540350183,
				"element": "C" 
			},
			{
				"x": 0.4843406459,
				"y": 0.7010483333,
				"z": -3.272173893,
				"element": "C" 
			},
			{
				"x": 1.063460141,
				"y": 1.2596883464,
				"z": -0.9246304686,
				"element": "C" 
			},
			{
				"x": 1.2308625839,
				"y": 0.7521761777,
				"z": 0.4189061554,
				"element": "O" 
			},
			{
				"x": 1.6679375159,
				"y": 1.6465146305,
				"z": 1.3393313548,
				"element": "C" 
			},
			{
				"x": 1.9016881188,
				"y": 2.8067173024,
				"z": 1.075580663,
				"element": "O" 
			},
			{
				"x": 1.8211144848,
				"y": 1.0131883695,
				"z": 2.715886414,
				"element": "C" 
			},
			{
				"x": 0.4651321666,
				"y": 0.523661802,
				"z": 3.2549817879,
				"element": "C" 
			},
			{
				"x": 2.8630525443,
				"y": -0.1191076069,
				"z": 2.695066022,
				"element": "C" 
			},
			{
				"x": -2.720846612,
				"y": -2.2597699021,
				"z": -1.3639232062,
				"element": "H" 
			},
			{
				"x": -2.7158669262,
				"y": -1.4080338446,
				"z": 0.1844824611,
				"element": "H" 
			},
			{
				"x": -3.9051339108,
				"y": -0.9714057362,
				"z": -1.0500021968,
				"element": "H" 
			},
			{
				"x": -2.1364496917,
				"y": -0.0924455629,
				"z": -2.5248492789,
				"element": "H" 
			},
			{
				"x": -1.6909181141,
				"y": 1.9559807027,
				"z": -1.2730207333,
				"element": "H" 
			},
			{
				"x": -3.2022142797,
				"y": 1.2990814542,
				"z": -0.6637252343,
				"element": "H" 
			},
			{
				"x": -1.7210402755,
				"y": 1.0917960643,
				"z": 0.2739666179,
				"element": "H" 
			},
			{
				"x": -0.2332930153,
				"y": -1.0731725547,
				"z": -0.3572808495,
				"element": "H" 
			},
			{
				"x": -0.7236595902,
				"y": -1.8812668602,
				"z": -3.0039966341,
				"element": "H" 
			},
			{
				"x": 1.884105887,
				"y": -1.6163241125,
				"z": -2.6557134583,
				"element": "H" 
			},
			{
				"x": 2.2505971399,
				"y": -1.2233760904,
				"z": -0.975592068,
				"element": "H" 
			},
			{
				"x": 2.8797280099,
				"y": -0.1945547174,
				"z": -2.2731233588,
				"element": "H" 
			},
			{
				"x": 1.3577368975,
				"y": 1.2570838645,
				"z": -3.6294841271,
				"element": "H" 
			},
			{
				"x": 0.2856654923,
				"y": -0.0841185598,
				"z": -4.0102547388,
				"element": "H" 
			},
			{
				"x": -0.3688244949,
				"y": 1.3868538392,
				"z": -3.2714153221,
				"element": "H" 
			},
			{
				"x": 0.2871445965,
				"y": 2.0246934565,
				"z": -0.9116869087,
				"element": "H" 
			},
			{
				"x": 1.9926776433,
				"y": 1.7521235173,
				"z": -1.2294885775,
				"element": "H" 
			},
			{
				"x": 2.1862370744,
				"y": 1.8249815014,
				"z": 3.3529092855,
				"element": "H" 
			},
			{
				"x": 0.0665047164,
				"y": -0.2841665049,
				"z": 2.6344631556,
				"element": "H" 
			},
			{
				"x": -0.2717008432,
				"y": 1.3329873592,
				"z": 3.280618955,
				"element": "H" 
			},
			{
				"x": 0.581962689,
				"y": 0.1435441816,
				"z": 4.2749670002,
				"element": "H" 
			},
			{
				"x": 3.8310673869,
				"y": 0.2340299641,
				"z": 2.3257324416,
				"element": "H" 
			},
			{
				"x": 3.0115143488,
				"y": -0.5108150017,
				"z": 3.7065333941,
				"element": "H" 
			},
			{
				"x": 2.5325066872,
				"y": -0.9420721906,
				"z": 2.0550404628,
				"element": "H" 
			}
		],
		 "valence_orbital": [ 
			{
				"type": "occ",
				"energy": -0.32048,
				"method": "rhf"
			},
			{
				"type": "occ",
				"energy": -0.30048,
				"method": "rhf"
			},
			{
				"type": "occ",
				"energy": -0.29476,
				"method": "rhf"
			},
			{
				"type": "occ",
				"energy": -0.26428,
				"method": "rhf"
			},
			{
				"type": "occ",
				"energy": -0.26097,
				"method": "rhf"
			},
			{
				"type": "unocc",
				"energy": 0.01464,
				"method": "rhf"
			},
			{
				"type": "unocc",
				"energy": 0.05914,
				"method": "rhf"
			},
			{
				"type": "unocc",
				"energy": 0.06823,
				"method": "rhf"
			},
			{
				"type": "unocc",
				"energy": 0.0941,
				"method": "rhf"
			},
			{
				"type": "unocc",
				"energy": 0.1085,
				"method": "rhf"
			}
		],
		"cosmo_sigma_profile": { 
			"-0.025": 0.0,
			"-0.024": 0.0,
			"-0.023": 0.0,
			"-0.022": 0.0,
			"-0.021": 0.0,
			"-0.02": 0.0,
			"-0.019": 0.0,
			"-0.018": 0.0,
			"-0.017": 0.0,
			"-0.016": 0.0,
			"-0.015": 0.0,
			"-0.014": 0.464284179673,
			"-0.013": 0.728361027756,
			"-0.012": 0.887756065167,
			"-0.011": 1.41091503058,
			"-0.01": 1.25384090903,
			"-0.009": 0.936853401223,
			"-0.008": 0.831056535529,
			"-0.007": 1.17515814597,
			"-0.006": 2.75929823508,
			"-0.005": 4.83749031484,
			"-0.004": 19.1946109637,
			"-0.003": 31.5903920634,
			"-0.002": 45.188435238,
			"-0.001": 41.3433988757,
			"0.0": 43.2856014964,
			"0.001": 36.5730645459,
			"0.002": 19.9674598114,
			"0.003": 7.2768398557,
			"0.004": 4.46317531121,
			"0.005": 2.92669820351,
			"0.006": 2.80454273732,
			"0.007": 2.65929445654,
			"0.008": 2.54049916372,
			"0.009": 2.42665689583,
			"0.01": 2.83116543832,
			"0.011": 3.88448171096,
			"0.012": 5.02452479997,
			"0.013": 3.95887007464,
			"0.014": 1.29906128361,
			"0.015": 0.964290579402,
			"0.016": 0.01225559302,
			"0.017": 0.0,
			"0.018": 0.0,
			"0.019": 0.0,
			"0.02": 0.0,
			"0.021": 0.0,
			"0.022": 0.0,
			"0.023": 0.0,
			"0.024": 0.0,
			"0.025": 0.0
		}
	}
}
