{
	 "smiles": "CC(=C)COC(=O)OCC(C)=C", 
	 "Tm": 474.45, 
	 "num_atms": 26, 
	 "gaussian": { 
		 "optdone": 1, 
		 "sigma_profile": "yes", 
		 "theory": "DFT", 
		 "functional": "B3LYP", 
		 "basiset": "6-31G**", 
		 "properties": { 
			 "R2extent": 2936.3271, 
			 "electric_dipole_moment_norm": 0.920927825619, 
			 "electric_quadrupole_moment_norm": 7.91701545976, 
			 "total_energy": -577.043307117, 
			 "HOMO_LUMO_gap": 0.2618, 
			 "cosmo_polarized_energy": -8.17, 
			 "cosmo_cavitation_energy": 30.63, 
			 "cosmo_dispersion_energy": -20.33, 
			 "cosmo_repulsion_energy": 1.66, 
			 "cosmo_total_nonelectrostatic_energy": 11.97, 
			 "SMD_solvation_energy": 8.35 
		},
		"coords": [
			{
				"x": -2.4751631511,
				"y": 1.1986514036,
				"z": -1.2275871855,
				"element": "C" 
			},
			{
				"x": -2.2472363311,
				"y": -0.0072476553,
				"z": -0.3531243003,
				"element": "C" 
			},
			{
				"x": -2.6456757624,
				"y": -1.2401301488,
				"z": -0.6788129242,
				"element": "C" 
			},
			{
				"x": -1.5383750167,
				"y": 0.2425626646,
				"z": 0.9550347358,
				"element": "C" 
			},
			{
				"x": -0.2105116782,
				"y": 0.7895989227,
				"z": 0.7348558814,
				"element": "O" 
			},
			{
				"x": 0.784689356,
				"y": -0.1114023335,
				"z": 0.6622500427,
				"element": "C" 
			},
			{
				"x": 0.6850567889,
				"y": -1.3074673598,
				"z": 0.8268472336,
				"element": "O" 
			},
			{
				"x": 1.9163232611,
				"y": 0.5670285606,
				"z": 0.4040865418,
				"element": "O" 
			},
			{
				"x": 3.1092531403,
				"y": -0.244005717,
				"z": 0.2303754579,
				"element": "C" 
			},
			{
				"x": 3.3269361428,
				"y": -0.5855028429,
				"z": -1.2229525157,
				"element": "C" 
			},
			{
				"x": 3.5250930771,
				"y": 0.5794568068,
				"z": -2.15807764,
				"element": "C" 
			},
			{
				"x": 3.3471648278,
				"y": -1.8610627849,
				"z": -1.6196780694,
				"element": "C" 
			},
			{
				"x": -3.0976508711,
				"y": 1.9445871141,
				"z": -0.7159966031,
				"element": "H" 
			},
			{
				"x": -2.9661624692,
				"y": 0.9282199299,
				"z": -2.165784269,
				"element": "H" 
			},
			{
				"x": -1.5249193217,
				"y": 1.691502607,
				"z": -1.4618106853,
				"element": "H" 
			},
			{
				"x": -3.1791312066,
				"y": -1.439473152,
				"z": -1.604372351,
				"element": "H" 
			},
			{
				"x": -2.4462015367,
				"y": -2.0909817849,
				"z": -0.0343242758,
				"element": "H" 
			},
			{
				"x": -1.4566265369,
				"y": -0.6697511392,
				"z": 1.547040385,
				"element": "H" 
			},
			{
				"x": -2.0472452755,
				"y": 1.0181083326,
				"z": 1.5366191677,
				"element": "H" 
			},
			{
				"x": 3.0252602073,
				"y": -1.1412341995,
				"z": 0.8446824274,
				"element": "H" 
			},
			{
				"x": 3.9154019216,
				"y": 0.3918920596,
				"z": 0.6103946681,
				"element": "H" 
			},
			{
				"x": 2.6710269743,
				"y": 1.2642275335,
				"z": -2.1090443087,
				"element": "H" 
			},
			{
				"x": 4.4118063112,
				"y": 1.1633492505,
				"z": -1.8779986791,
				"element": "H" 
			},
			{
				"x": 3.6455834122,
				"y": 0.2487803487,
				"z": -3.192760807,
				"element": "H" 
			},
			{
				"x": 3.1796344289,
				"y": -2.6762030175,
				"z": -0.922129451,
				"element": "H" 
			},
			{
				"x": 3.5257693078,
				"y": -2.1312033989,
				"z": -2.6570324765,
				"element": "H" 
			}
		],
		 "valence_orbital": [ 
			{
				"type": "occ",
				"energy": -0.29879,
				"method": "rhf"
			},
			{
				"type": "occ",
				"energy": -0.29738,
				"method": "rhf"
			},
			{
				"type": "occ",
				"energy": -0.28163,
				"method": "rhf"
			},
			{
				"type": "occ",
				"energy": -0.25811,
				"method": "rhf"
			},
			{
				"type": "occ",
				"energy": -0.25465,
				"method": "rhf"
			},
			{
				"type": "unocc",
				"energy": 0.00715,
				"method": "rhf"
			},
			{
				"type": "unocc",
				"energy": 0.01377,
				"method": "rhf"
			},
			{
				"type": "unocc",
				"energy": 0.04659,
				"method": "rhf"
			},
			{
				"type": "unocc",
				"energy": 0.10026,
				"method": "rhf"
			},
			{
				"type": "unocc",
				"energy": 0.10719,
				"method": "rhf"
			}
		],
		"cosmo_sigma_profile": { 
			"-0.025": 0.0,
			"-0.024": 0.0,
			"-0.023": 0.0,
			"-0.022": 0.0,
			"-0.021": 0.0,
			"-0.02": 0.0,
			"-0.019": 0.0,
			"-0.018": 0.0,
			"-0.017": 0.0,
			"-0.016": 0.0,
			"-0.015": 0.0,
			"-0.014": 0.0,
			"-0.013": 0.0,
			"-0.012": 0.0,
			"-0.011": 0.0,
			"-0.01": 0.0,
			"-0.009": 0.0,
			"-0.008": 0.0,
			"-0.007": 1.27466179192,
			"-0.006": 7.27423131082,
			"-0.005": 17.2816170728,
			"-0.004": 25.7564194941,
			"-0.003": 26.9916458149,
			"-0.002": 23.0874454832,
			"-0.001": 24.6916346004,
			"0.0": 27.5078529928,
			"0.001": 17.1872153707,
			"0.002": 12.6547899626,
			"0.003": 10.7786085287,
			"0.004": 9.15394075142,
			"0.005": 8.97169367819,
			"0.006": 6.86818565839,
			"0.007": 4.55690886157,
			"0.008": 3.86330074443,
			"0.009": 4.27561878829,
			"0.01": 4.15029893241,
			"0.011": 2.93825441167,
			"0.012": 1.81883431882,
			"0.013": 0.0,
			"0.014": 0.0,
			"0.015": 0.0,
			"0.016": 0.0,
			"0.017": 0.0,
			"0.018": 0.0,
			"0.019": 0.0,
			"0.02": 0.0,
			"0.021": 0.0,
			"0.022": 0.0,
			"0.023": 0.0,
			"0.024": 0.0,
			"0.025": 0.0
		}
	}
}
