{
	 "smiles": "OC1CCC2=C(Cl)C=CC=C12", 
	 "Tm": 343.15, 
	 "num_atms": 20, 
	 "gaussian": { 
		 "optdone": 1, 
		 "sigma_profile": "yes", 
		 "theory": "DFT", 
		 "functional": "B3LYP", 
		 "basiset": "6-31G**", 
		 "properties": { 
			 "R2extent": 2205.8221, 
			 "electric_dipole_moment_norm": 0.475364049966, 
			 "electric_quadrupole_moment_norm": 9.87172511773, 
			 "total_energy": -883.798434569, 
			 "HOMO_LUMO_gap": 0.22508, 
			 "cosmo_polarized_energy": -7.52, 
			 "cosmo_cavitation_energy": 24.55, 
			 "cosmo_dispersion_energy": -18.28, 
			 "cosmo_repulsion_energy": 1.48, 
			 "cosmo_total_nonelectrostatic_energy": 7.74, 
			 "SMD_solvation_energy": 3.32 
		},
		"coords": [
			{
				"x": 2.407616265,
				"y": 0.4422056481,
				"z": 2.3715663375,
				"element": "O" 
			},
			{
				"x": 1.6674187906,
				"y": 1.4588603386,
				"z": 1.6917922527,
				"element": "C" 
			},
			{
				"x": 2.4282245349,
				"y": 2.1097500156,
				"z": 0.5063428497,
				"element": "C" 
			},
			{
				"x": 1.9062759182,
				"y": 1.4265928502,
				"z": -0.7840526683,
				"element": "C" 
			},
			{
				"x": 0.5692705902,
				"y": 0.8641151116,
				"z": -0.3584391771,
				"element": "C" 
			},
			{
				"x": -0.4573563013,
				"y": 0.3259658338,
				"z": -1.1321282728,
				"element": "C" 
			},
			{
				"x": -0.2896174936,
				"y": 0.2486474115,
				"z": -2.8841312909,
				"element": "Cl" 
			},
			{
				"x": -1.6230857096,
				"y": -0.1553165015,
				"z": -0.534027322,
				"element": "C" 
			},
			{
				"x": -1.7564272416,
				"y": -0.1067070092,
				"z": 0.8571623574,
				"element": "C" 
			},
			{
				"x": -0.7353421685,
				"y": 0.4180926392,
				"z": 1.6522341549,
				"element": "C" 
			},
			{
				"x": 0.4147162003,
				"y": 0.9070210464,
				"z": 1.0342474497,
				"element": "C" 
			},
			{
				"x": 2.4857444014,
				"y": -0.3137656608,
				"z": 1.7734992245,
				"element": "H" 
			},
			{
				"x": 1.4423462666,
				"y": 2.1920218002,
				"z": 2.4725282054,
				"element": "H" 
			},
			{
				"x": 3.5083532306,
				"y": 2.0185839464,
				"z": 0.6457018887,
				"element": "H" 
			},
			{
				"x": 2.1887943528,
				"y": 3.1780599012,
				"z": 0.47192624,
				"element": "H" 
			},
			{
				"x": 2.5691403189,
				"y": 0.6214400266,
				"z": -1.128061687,
				"element": "H" 
			},
			{
				"x": 1.8155408111,
				"y": 2.1240395237,
				"z": -1.6223996429,
				"element": "H" 
			},
			{
				"x": -2.4155252082,
				"y": -0.5623604395,
				"z": -1.1526178137,
				"element": "H" 
			},
			{
				"x": -2.6664364096,
				"y": -0.483066261,
				"z": 1.3150169478,
				"element": "H" 
			},
			{
				"x": -0.834551148,
				"y": 0.446619779,
				"z": 2.7334399662,
				"element": "H" 
			}
		],
		 "valence_orbital": [ 
			{
				"type": "occ",
				"energy": -0.32887,
				"method": "rhf"
			},
			{
				"type": "occ",
				"energy": -0.30988,
				"method": "rhf"
			},
			{
				"type": "occ",
				"energy": -0.27105,
				"method": "rhf"
			},
			{
				"type": "occ",
				"energy": -0.25231,
				"method": "rhf"
			},
			{
				"type": "occ",
				"energy": -0.24519,
				"method": "rhf"
			},
			{
				"type": "unocc",
				"energy": -0.02011,
				"method": "rhf"
			},
			{
				"type": "unocc",
				"energy": -0.01195,
				"method": "rhf"
			},
			{
				"type": "unocc",
				"energy": 0.03149,
				"method": "rhf"
			},
			{
				"type": "unocc",
				"energy": 0.07847,
				"method": "rhf"
			},
			{
				"type": "unocc",
				"energy": 0.10736,
				"method": "rhf"
			}
		],
		"cosmo_sigma_profile": { 
			"-0.025": 0.0,
			"-0.024": 0.0,
			"-0.023": 0.0,
			"-0.022": 0.0,
			"-0.021": 0.0,
			"-0.02": 0.0,
			"-0.019": 0.0,
			"-0.018": 0.0,
			"-0.017": 0.0,
			"-0.016": 0.0307021181432,
			"-0.015": 0.528864254471,
			"-0.014": 0.766713836407,
			"-0.013": 0.783237268934,
			"-0.012": 0.835305212589,
			"-0.011": 1.02769579335,
			"-0.01": 0.776582432526,
			"-0.009": 0.750757900584,
			"-0.008": 1.0426818084,
			"-0.007": 3.20013786106,
			"-0.006": 6.73933112662,
			"-0.005": 9.97388343281,
			"-0.004": 17.1569631433,
			"-0.003": 17.1220674425,
			"-0.002": 17.1585247701,
			"-0.001": 15.7353168429,
			"0.0": 16.3699797944,
			"0.001": 13.1533897314,
			"0.002": 14.8572016591,
			"0.003": 16.1034900446,
			"0.004": 17.963895845,
			"0.005": 11.356562781,
			"0.006": 1.72720564009,
			"0.007": 0.936225573425,
			"0.008": 0.902969575706,
			"0.009": 1.3597463757,
			"0.01": 1.1991008576,
			"0.011": 1.38986618615,
			"0.012": 1.22755810495,
			"0.013": 1.42487567813,
			"0.014": 2.50616122257,
			"0.015": 0.272440642352,
			"0.016": 0.0,
			"0.017": 0.0,
			"0.018": 0.0,
			"0.019": 0.0,
			"0.02": 0.0,
			"0.021": 0.0,
			"0.022": 0.0,
			"0.023": 0.0,
			"0.024": 0.0,
			"0.025": 0.0
		}
	}
}
