{
	 "smiles": "CSC1=CC=C(OCCCl)C=C1", 
	 "Tm": 337.15, 
	 "num_atms": 23, 
	 "gaussian": { 
		 "optdone": 1, 
		 "sigma_profile": "yes", 
		 "theory": "DFT", 
		 "functional": "B3LYP", 
		 "basiset": "6-31G**", 
		 "properties": { 
			 "R2extent": 5019.4747, 
			 "electric_dipole_moment_norm": 3.64093276785, 
			 "electric_quadrupole_moment_norm": 7.76256054018, 
			 "total_energy": -1283.18413287, 
			 "HOMO_LUMO_gap": 0.21107, 
			 "cosmo_polarized_energy": -10.78, 
			 "cosmo_cavitation_energy": 30.32, 
			 "cosmo_dispersion_energy": -22.4, 
			 "cosmo_repulsion_energy": 1.78, 
			 "cosmo_total_nonelectrostatic_energy": 9.7, 
			 "SMD_solvation_energy": 5.06 
		},
		"coords": [
			{
				"x": -0.4102439897,
				"y": -4.4203561876,
				"z": 3.0987672882,
				"element": "C" 
			},
			{
				"x": -0.1881323521,
				"y": -4.4640861133,
				"z": 1.277544792,
				"element": "S" 
			},
			{
				"x": 0.2308956812,
				"y": -2.7520991829,
				"z": 0.9445572608,
				"element": "C" 
			},
			{
				"x": -0.7527715056,
				"y": -1.8474836769,
				"z": 0.5354019871,
				"element": "C" 
			},
			{
				"x": -0.4353630216,
				"y": -0.5182229017,
				"z": 0.2421224644,
				"element": "C" 
			},
			{
				"x": 0.8900389882,
				"y": -0.0842244215,
				"z": 0.3587909613,
				"element": "C" 
			},
			{
				"x": 1.314693055,
				"y": 1.1892020856,
				"z": 0.1063941912,
				"element": "O" 
			},
			{
				"x": 0.3741578471,
				"y": 2.1411317284,
				"z": -0.3600360443,
				"element": "C" 
			},
			{
				"x": 1.0996661642,
				"y": 3.4493271445,
				"z": -0.5990538437,
				"element": "C" 
			},
			{
				"x": 2.2379826562,
				"y": 3.3645183646,
				"z": -2.0041418609,
				"element": "Cl" 
			},
			{
				"x": 1.8869285924,
				"y": -0.9851996372,
				"z": 0.7624938718,
				"element": "C" 
			},
			{
				"x": 1.5588424547,
				"y": -2.304043731,
				"z": 1.0463851569,
				"element": "C" 
			},
			{
				"x": -1.2243246929,
				"y": -3.7478838065,
				"z": 3.3778695589,
				"element": "H" 
			},
			{
				"x": -0.6638632856,
				"y": -5.4380029769,
				"z": 3.4059369989,
				"element": "H" 
			},
			{
				"x": 0.5115985007,
				"y": -4.1156366693,
				"z": 3.5990131321,
				"element": "H" 
			},
			{
				"x": -1.7803737801,
				"y": -2.1844155857,
				"z": 0.4408375313,
				"element": "H" 
			},
			{
				"x": -1.2222392307,
				"y": 0.1570399583,
				"z": -0.0728019241,
				"element": "H" 
			},
			{
				"x": -0.1121530795,
				"y": 1.7955111513,
				"z": -1.2813449689,
				"element": "H" 
			},
			{
				"x": -0.4055760686,
				"y": 2.3164308448,
				"z": 0.3980611289,
				"element": "H" 
			},
			{
				"x": 0.3816694546,
				"y": 4.2407502165,
				"z": -0.8198489172,
				"element": "H" 
			},
			{
				"x": 1.6927490434,
				"y": 3.724931029,
				"z": 0.2738570443,
				"element": "H" 
			},
			{
				"x": 2.9091819444,
				"y": -0.6287310398,
				"z": 0.8348150775,
				"element": "H" 
			},
			{
				"x": 2.3362366244,
				"y": -3.0009565925,
				"z": 1.3439791135,
				"element": "H" 
			}
		],
		 "valence_orbital": [ 
			{
				"type": "occ",
				"energy": -0.302,
				"method": "rhf"
			},
			{
				"type": "occ",
				"energy": -0.2993,
				"method": "rhf"
			},
			{
				"type": "occ",
				"energy": -0.25926,
				"method": "rhf"
			},
			{
				"type": "occ",
				"energy": -0.22882,
				"method": "rhf"
			},
			{
				"type": "occ",
				"energy": -0.22169,
				"method": "rhf"
			},
			{
				"type": "unocc",
				"energy": -0.01062,
				"method": "rhf"
			},
			{
				"type": "unocc",
				"energy": -0.00796,
				"method": "rhf"
			},
			{
				"type": "unocc",
				"energy": 0.01983,
				"method": "rhf"
			},
			{
				"type": "unocc",
				"energy": 0.05496,
				"method": "rhf"
			},
			{
				"type": "unocc",
				"energy": 0.07495,
				"method": "rhf"
			}
		],
		"cosmo_sigma_profile": { 
			"-0.025": 0.0,
			"-0.024": 0.0,
			"-0.023": 0.0,
			"-0.022": 0.0,
			"-0.021": 0.0,
			"-0.02": 0.0,
			"-0.019": 0.0,
			"-0.018": 0.0,
			"-0.017": 0.0,
			"-0.016": 0.0,
			"-0.015": 0.0,
			"-0.014": 0.0,
			"-0.013": 0.0,
			"-0.012": 0.0,
			"-0.011": 0.0,
			"-0.01": 0.0,
			"-0.009": 0.227449799167,
			"-0.008": 4.57594991104,
			"-0.007": 12.8889383804,
			"-0.006": 18.8338571237,
			"-0.005": 18.6939349266,
			"-0.004": 16.2342197967,
			"-0.003": 14.135469638,
			"-0.002": 15.870625195,
			"-0.001": 16.018253582,
			"0.0": 14.4864031147,
			"0.001": 11.3205242129,
			"0.002": 15.8153007701,
			"0.003": 18.0191841537,
			"0.004": 19.4512399257,
			"0.005": 14.6550741076,
			"0.006": 14.2970436576,
			"0.007": 8.40521724017,
			"0.008": 4.3921826201,
			"0.009": 4.19762938682,
			"0.01": 1.74896522749,
			"0.011": 0.458298876519,
			"0.012": 0.0,
			"0.013": 0.0,
			"0.014": 0.0,
			"0.015": 0.0,
			"0.016": 0.0,
			"0.017": 0.0,
			"0.018": 0.0,
			"0.019": 0.0,
			"0.02": 0.0,
			"0.021": 0.0,
			"0.022": 0.0,
			"0.023": 0.0,
			"0.024": 0.0,
			"0.025": 0.0
		}
	}
}
