{
	 "smiles": "CN1C(CCC1=O)C1=CC=CN=C1", 
	 "Tm": 314.15, 
	 "num_atms": 25, 
	 "gaussian": { 
		 "optdone": 1, 
		 "sigma_profile": "yes", 
		 "theory": "DFT", 
		 "functional": "B3LYP", 
		 "basiset": "6-31G**", 
		 "properties": { 
			 "R2extent": 2938.217, 
			 "electric_dipole_moment_norm": 4.55091870945, 
			 "electric_quadrupole_moment_norm": 11.9731924176, 
			 "total_energy": -573.037867399, 
			 "HOMO_LUMO_gap": 0.2072, 
			 "cosmo_polarized_energy": -13.72, 
			 "cosmo_cavitation_energy": 27.74, 
			 "cosmo_dispersion_energy": -19.92, 
			 "cosmo_repulsion_energy": 1.58, 
			 "cosmo_total_nonelectrostatic_energy": 9.4, 
			 "SMD_solvation_energy": 3.87 
		},
		"coords": [
			{
				"x": -1.0163705897,
				"y": -1.4648258639,
				"z": 2.2230690014,
				"element": "C" 
			},
			{
				"x": 0.0144336297,
				"y": -1.7010690039,
				"z": 1.2303545022,
				"element": "N" 
			},
			{
				"x": 0.2149076723,
				"y": -0.8136216478,
				"z": 0.0846034463,
				"element": "C" 
			},
			{
				"x": 1.4382350185,
				"y": -1.457420403,
				"z": -0.6278305416,
				"element": "C" 
			},
			{
				"x": 1.3723800711,
				"y": -2.937684649,
				"z": -0.2337035988,
				"element": "C" 
			},
			{
				"x": 0.5786763554,
				"y": -2.9502988643,
				"z": 1.0715216165,
				"element": "C" 
			},
			{
				"x": 0.4323536202,
				"y": -3.8927727043,
				"z": 1.8319713827,
				"element": "O" 
			},
			{
				"x": 0.4306895725,
				"y": 0.6378386928,
				"z": 0.465226743,
				"element": "C" 
			},
			{
				"x": -0.2006328041,
				"y": 1.6715109861,
				"z": -0.2301185985,
				"element": "C" 
			},
			{
				"x": 0.0632541843,
				"y": 2.9941704711,
				"z": 0.1230170735,
				"element": "C" 
			},
			{
				"x": 0.9484847814,
				"y": 3.2367471891,
				"z": 1.1730813923,
				"element": "C" 
			},
			{
				"x": 1.5582958231,
				"y": 2.2632580557,
				"z": 1.8629264496,
				"element": "N" 
			},
			{
				"x": 1.2979585954,
				"y": 1.0016814597,
				"z": 1.5062578847,
				"element": "C" 
			},
			{
				"x": -2.0060160387,
				"y": -1.3758020734,
				"z": 1.7541432273,
				"element": "H" 
			},
			{
				"x": -0.8172549501,
				"y": -0.5500621696,
				"z": 2.7889233479,
				"element": "H" 
			},
			{
				"x": -1.0175519928,
				"y": -2.3210370958,
				"z": 2.8993128866,
				"element": "H" 
			},
			{
				"x": -0.6676979217,
				"y": -0.8599740232,
				"z": -0.5762671212,
				"element": "H" 
			},
			{
				"x": 1.4093997338,
				"y": -1.2803712199,
				"z": -1.7055334468,
				"element": "H" 
			},
			{
				"x": 2.3543313617,
				"y": -1.000963693,
				"z": -0.2413698836,
				"element": "H" 
			},
			{
				"x": 2.3464211497,
				"y": -3.4122007243,
				"z": -0.0962884295,
				"element": "H" 
			},
			{
				"x": 0.8171396997,
				"y": -3.5392978275,
				"z": -0.9636280753,
				"element": "H" 
			},
			{
				"x": -0.8910898262,
				"y": 1.442157853,
				"z": -1.0387334402,
				"element": "H" 
			},
			{
				"x": -0.4102573616,
				"y": 3.8197256107,
				"z": -0.3991459061,
				"element": "H" 
			},
			{
				"x": 1.1770802956,
				"y": 4.2563965247,
				"z": 1.4778805244,
				"element": "H" 
			},
			{
				"x": 1.7983299206,
				"y": 0.2262151199,
				"z": 2.084729563,
				"element": "H" 
			}
		],
		 "valence_orbital": [ 
			{
				"type": "occ",
				"energy": -0.29252,
				"method": "rhf"
			},
			{
				"type": "occ",
				"energy": -0.26613,
				"method": "rhf"
			},
			{
				"type": "occ",
				"energy": -0.26074,
				"method": "rhf"
			},
			{
				"type": "occ",
				"energy": -0.24818,
				"method": "rhf"
			},
			{
				"type": "occ",
				"energy": -0.23869,
				"method": "rhf"
			},
			{
				"type": "unocc",
				"energy": -0.03149,
				"method": "rhf"
			},
			{
				"type": "unocc",
				"energy": -0.02311,
				"method": "rhf"
			},
			{
				"type": "unocc",
				"energy": 0.02749,
				"method": "rhf"
			},
			{
				"type": "unocc",
				"energy": 0.07838,
				"method": "rhf"
			},
			{
				"type": "unocc",
				"energy": 0.09341,
				"method": "rhf"
			}
		],
		"cosmo_sigma_profile": { 
			"-0.025": 0.0,
			"-0.024": 0.0,
			"-0.023": 0.0,
			"-0.022": 0.0,
			"-0.021": 0.0,
			"-0.02": 0.0,
			"-0.019": 0.0,
			"-0.018": 0.0,
			"-0.017": 0.0,
			"-0.016": 0.0,
			"-0.015": 0.0,
			"-0.014": 0.0,
			"-0.013": 0.0,
			"-0.012": 0.0,
			"-0.011": 0.0,
			"-0.01": 0.0,
			"-0.009": 0.0,
			"-0.008": 0.00963853079216,
			"-0.007": 4.15994168583,
			"-0.006": 11.1080157386,
			"-0.005": 24.45067918,
			"-0.004": 27.9113240174,
			"-0.003": 24.6753318697,
			"-0.002": 22.0484460997,
			"-0.001": 19.9226476164,
			"0.0": 11.961120203,
			"0.001": 9.88558155753,
			"0.002": 12.6114404678,
			"0.003": 10.1974909756,
			"0.004": 3.70252637787,
			"0.005": 4.10068177021,
			"0.006": 2.86544718684,
			"0.007": 2.17829855859,
			"0.008": 3.50258610181,
			"0.009": 2.91334476896,
			"0.01": 1.92213905456,
			"0.011": 1.88582139445,
			"0.012": 3.19654642649,
			"0.013": 4.730174162,
			"0.014": 6.34786765445,
			"0.015": 2.1947793938,
			"0.016": 0.626011819228,
			"0.017": 0.484825582268,
			"0.018": 0.0,
			"0.019": 0.0,
			"0.02": 0.0,
			"0.021": 0.0,
			"0.022": 0.0,
			"0.023": 0.0,
			"0.024": 0.0,
			"0.025": 0.0
		}
	}
}
