{
	 "smiles": "COC1=C(C=C(C=CC(O)=O)C=C1)S(=O)(=O)N1CCOCC1", 
	 "Tm": 512.15, 
	 "num_atms": 39, 
	 "gaussian": { 
		 "optdone": 1, 
		 "sigma_profile": "yes", 
		 "theory": "DFT", 
		 "functional": "B3LYP", 
		 "basiset": "6-31G**", 
		 "properties": { 
			 "R2extent": 8385.7492, 
			 "electric_dipole_moment_norm": 5.10663328329, 
			 "electric_quadrupole_moment_norm": 19.7447144454, 
			 "total_energy": -1447.8964169, 
			 "HOMO_LUMO_gap": 0.16808, 
			 "cosmo_polarized_energy": -22.03, 
			 "cosmo_cavitation_energy": 42.69, 
			 "cosmo_dispersion_energy": -29.73, 
			 "cosmo_repulsion_energy": 2.24, 
			 "cosmo_total_nonelectrostatic_energy": 15.19, 
			 "SMD_solvation_energy": 7.58 
		},
		"coords": [
			{
				"x": -0.5460435542,
				"y": -3.0297446118,
				"z": 3.0720550103,
				"element": "C" 
			},
			{
				"x": -0.3924013186,
				"y": -1.626670246,
				"z": 2.79588116,
				"element": "O" 
			},
			{
				"x": 0.8270180042,
				"y": -1.2558372866,
				"z": 2.2936240428,
				"element": "C" 
			},
			{
				"x": 0.9648554523,
				"y": -0.8880395921,
				"z": 0.9437935419,
				"element": "C" 
			},
			{
				"x": 2.189384251,
				"y": -0.4417510532,
				"z": 0.4511335146,
				"element": "C" 
			},
			{
				"x": 3.3159185205,
				"y": -0.3602509641,
				"z": 1.286841889,
				"element": "C" 
			},
			{
				"x": 4.633859088,
				"y": 0.1358511939,
				"z": 0.8604455783,
				"element": "C" 
			},
			{
				"x": 5.2934477646,
				"y": 0.1328915548,
				"z": -0.316947623,
				"element": "C" 
			},
			{
				"x": 4.9697109615,
				"y": -0.458684308,
				"z": -1.6337572469,
				"element": "C" 
			},
			{
				"x": 3.9618280481,
				"y": -1.3629593763,
				"z": -1.6308769133,
				"element": "O" 
			},
			{
				"x": 5.5908972213,
				"y": -0.1845456727,
				"z": -2.6425539623,
				"element": "O" 
			},
			{
				"x": 3.1551116372,
				"y": -0.7062568936,
				"z": 2.6416688886,
				"element": "C" 
			},
			{
				"x": 1.9374173696,
				"y": -1.1596750697,
				"z": 3.1365420444,
				"element": "C" 
			},
			{
				"x": -0.4191715842,
				"y": -1.0154668601,
				"z": -0.2184294709,
				"element": "S" 
			},
			{
				"x": -1.0644422005,
				"y": -2.3158550859,
				"z": -0.0182775712,
				"element": "O" 
			},
			{
				"x": 0.1326414111,
				"y": -0.6289533938,
				"z": -1.5201434235,
				"element": "O" 
			},
			{
				"x": -1.5326709483,
				"y": 0.1538597489,
				"z": 0.1810684804,
				"element": "N" 
			},
			{
				"x": -2.6418712323,
				"y": -0.1170918455,
				"z": 1.1118392118,
				"element": "C" 
			},
			{
				"x": -2.656029403,
				"y": 0.919634335,
				"z": 2.2307856682,
				"element": "C" 
			},
			{
				"x": -2.7125038399,
				"y": 2.2669361991,
				"z": 1.7500245601,
				"element": "O" 
			},
			{
				"x": -2.3397056856,
				"y": 2.4360746613,
				"z": 0.3898873764,
				"element": "C" 
			},
			{
				"x": -1.1519366322,
				"y": 1.5649999803,
				"z": -0.0102784111,
				"element": "C" 
			},
			{
				"x": -1.512197961,
				"y": -3.1370642514,
				"z": 3.5675392886,
				"element": "H" 
			},
			{
				"x": 0.2459118906,
				"y": -3.3880911056,
				"z": 3.7394253803,
				"element": "H" 
			},
			{
				"x": -0.5426131556,
				"y": -3.5976086429,
				"z": 2.1375667872,
				"element": "H" 
			},
			{
				"x": 2.252339578,
				"y": -0.1723683907,
				"z": -0.5929599614,
				"element": "H" 
			},
			{
				"x": 5.1854400155,
				"y": 0.6030939715,
				"z": 1.6768743141,
				"element": "H" 
			},
			{
				"x": 6.2541865726,
				"y": 0.6372263554,
				"z": -0.3499691484,
				"element": "H" 
			},
			{
				"x": 3.8588815617,
				"y": -1.6575597041,
				"z": -2.5513658129,
				"element": "H" 
			},
			{
				"x": 4.00270394,
				"y": -0.6191919655,
				"z": 3.3163266822,
				"element": "H" 
			},
			{
				"x": 1.8236994162,
				"y": -1.4166122493,
				"z": 4.1849242421,
				"element": "H" 
			},
			{
				"x": -2.524105146,
				"y": -1.1166189172,
				"z": 1.5276166085,
				"element": "H" 
			},
			{
				"x": -3.5879658672,
				"y": -0.0951605154,
				"z": 0.5569081174,
				"element": "H" 
			},
			{
				"x": -3.535354975,
				"y": 0.7624813208,
				"z": 2.8668396236,
				"element": "H" 
			},
			{
				"x": -1.7612438226,
				"y": 0.7901566107,
				"z": 2.8544666489,
				"element": "H" 
			},
			{
				"x": -2.0740261867,
				"y": 3.4905907216,
				"z": 0.269814313,
				"element": "H" 
			},
			{
				"x": -3.1874189168,
				"y": 2.2268168215,
				"z": -0.2809142953,
				"element": "H" 
			},
			{
				"x": -0.2824830374,
				"y": 1.8327176683,
				"z": 0.6084898587,
				"element": "H" 
			},
			{
				"x": -0.8926672368,
				"y": 1.7328268584,
				"z": -1.0591089912,
				"element": "H" 
			}
		],
		 "valence_orbital": [ 
			{
				"type": "occ",
				"energy": -0.28113,
				"method": "rhf"
			},
			{
				"type": "occ",
				"energy": -0.27531,
				"method": "rhf"
			},
			{
				"type": "occ",
				"energy": -0.2573,
				"method": "rhf"
			},
			{
				"type": "occ",
				"energy": -0.25026,
				"method": "rhf"
			},
			{
				"type": "occ",
				"energy": -0.24219,
				"method": "rhf"
			},
			{
				"type": "unocc",
				"energy": -0.07411,
				"method": "rhf"
			},
			{
				"type": "unocc",
				"energy": -0.03924,
				"method": "rhf"
			},
			{
				"type": "unocc",
				"energy": -0.00334,
				"method": "rhf"
			},
			{
				"type": "unocc",
				"energy": 0.05372,
				"method": "rhf"
			},
			{
				"type": "unocc",
				"energy": 0.06888,
				"method": "rhf"
			}
		],
		"cosmo_sigma_profile": { 
			"-0.025": 0.0,
			"-0.024": 0.0,
			"-0.023": 0.0,
			"-0.022": 0.0,
			"-0.021": 0.0,
			"-0.02": 0.0,
			"-0.019": 0.00190882440217,
			"-0.018": 0.530941334376,
			"-0.017": 1.14781098294,
			"-0.016": 0.773987529152,
			"-0.015": 0.709279265323,
			"-0.014": 0.57375658147,
			"-0.013": 0.70267082272,
			"-0.012": 0.690670470522,
			"-0.011": 0.918018168065,
			"-0.01": 0.820275879104,
			"-0.009": 0.528039571249,
			"-0.008": 4.51698465459,
			"-0.007": 9.93830196279,
			"-0.006": 19.3830590669,
			"-0.005": 31.500165106,
			"-0.004": 33.21632631,
			"-0.003": 33.0034435802,
			"-0.002": 24.173751276,
			"-0.001": 19.0656722182,
			"0.0": 19.3055017758,
			"0.001": 21.9308463364,
			"0.002": 18.8001073998,
			"0.003": 14.0410848925,
			"0.004": 10.4905557405,
			"0.005": 8.30382849969,
			"0.006": 8.64775341122,
			"0.007": 7.90334586442,
			"0.008": 6.76731599067,
			"0.009": 7.87198020687,
			"0.01": 6.94666323824,
			"0.011": 11.2283634297,
			"0.012": 10.2756312726,
			"0.013": 3.04697829583,
			"0.014": 0.267632004775,
			"0.015": 0.0,
			"0.016": 0.0,
			"0.017": 0.0,
			"0.018": 0.0,
			"0.019": 0.0,
			"0.02": 0.0,
			"0.021": 0.0,
			"0.022": 0.0,
			"0.023": 0.0,
			"0.024": 0.0,
			"0.0": 0.0
		}
	}
}
