{
	 "smiles": "CC1=CC(CCC(O)=O)=C(C)S1", 
	 "Tm": 331.15, 
	 "num_atms": 24, 
	 "gaussian": { 
		 "optdone": 1, 
		 "sigma_profile": "yes", 
		 "theory": "DFT", 
		 "functional": "B3LYP", 
		 "basiset": "6-31G**", 
		 "properties": { 
			 "R2extent": 2802.1011, 
			 "electric_dipole_moment_norm": 1.67114722272, 
			 "electric_quadrupole_moment_norm": 13.7410792993, 
			 "total_energy": -898.844529703, 
			 "HOMO_LUMO_gap": 0.20915, 
			 "cosmo_polarized_energy": -10.51, 
			 "cosmo_cavitation_energy": 28.82, 
			 "cosmo_dispersion_energy": -20.63, 
			 "cosmo_repulsion_energy": 1.64, 
			 "cosmo_total_nonelectrostatic_energy": 9.83, 
			 "SMD_solvation_energy": 5.75 
		},
		"coords": [
			{
				"x": -0.5337098943,
				"y": 2.8689310197,
				"z": -2.3790169856,
				"element": "C" 
			},
			{
				"x": -0.0606193849,
				"y": 2.0710407353,
				"z": -1.201140715,
				"element": "C" 
			},
			{
				"x": 0.2151871231,
				"y": 0.735790048,
				"z": -1.1316158437,
				"element": "C" 
			},
			{
				"x": 0.6494964317,
				"y": 0.2800860498,
				"z": 0.1611959818,
				"element": "C" 
			},
			{
				"x": 1.0101255377,
				"y": -1.1621168604,
				"z": 0.4318456832,
				"element": "C" 
			},
			{
				"x": -0.1969976454,
				"y": -2.125601087,
				"z": 0.3869088155,
				"element": "C" 
			},
			{
				"x": -1.2425016861,
				"y": -1.8735963347,
				"z": 1.451983436,
				"element": "C" 
			},
			{
				"x": -0.694168663,
				"y": -1.769102923,
				"z": 2.6933674878,
				"element": "O" 
			},
			{
				"x": -2.4363787133,
				"y": -1.8011755357,
				"z": 1.2701451457,
				"element": "O" 
			},
			{
				"x": 0.696890425,
				"y": 1.295611701,
				"z": 1.0852963082,
				"element": "C" 
			},
			{
				"x": 1.1238781188,
				"y": 1.2617771235,
				"z": 2.525771941,
				"element": "C" 
			},
			{
				"x": 0.2116561691,
				"y": 2.8142624866,
				"z": 0.3582331852,
				"element": "S" 
			},
			{
				"x": 0.1670576882,
				"y": 3.6700221896,
				"z": -2.6411996046,
				"element": "H" 
			},
			{
				"x": -1.5084410631,
				"y": 3.3346791906,
				"z": -2.1933737965,
				"element": "H" 
			},
			{
				"x": -0.6364206893,
				"y": 2.215641157,
				"z": -3.2501414968,
				"element": "H" 
			},
			{
				"x": 0.1151750244,
				"y": 0.0774186359,
				"z": -1.9898412262,
				"element": "H" 
			},
			{
				"x": 1.7319901872,
				"y": -1.5020337753,
				"z": -0.3213810114,
				"element": "H" 
			},
			{
				"x": 1.5066847839,
				"y": -1.2579545784,
				"z": 1.4002083571,
				"element": "H" 
			},
			{
				"x": 0.1607915028,
				"y": -3.1549855715,
				"z": 0.5206618172,
				"element": "H" 
			},
			{
				"x": -0.7107820814,
				"y": -2.0759900618,
				"z": -0.5754367547,
				"element": "H" 
			},
			{
				"x": -1.4397613543,
				"y": -1.6198071114,
				"z": 3.2988330376,
				"element": "H" 
			},
			{
				"x": 2.1915289886,
				"y": 1.4879186186,
				"z": 2.6410417407,
				"element": "H" 
			},
			{
				"x": 0.935327481,
				"y": 0.2769679802,
				"z": 2.9598228853,
				"element": "H" 
			},
			{
				"x": 0.5713917135,
				"y": 1.9950169036,
				"z": 3.1217316119,
				"element": "H" 
			}
		],
		 "valence_orbital": [ 
			{
				"type": "occ",
				"energy": -0.32383,
				"method": "rhf"
			},
			{
				"type": "occ",
				"energy": -0.3162,
				"method": "rhf"
			},
			{
				"type": "occ",
				"energy": -0.27154,
				"method": "rhf"
			},
			{
				"type": "occ",
				"energy": -0.23651,
				"method": "rhf"
			},
			{
				"type": "occ",
				"energy": -0.21122,
				"method": "rhf"
			},
			{
				"type": "unocc",
				"energy": -0.00207,
				"method": "rhf"
			},
			{
				"type": "unocc",
				"energy": 0.00886,
				"method": "rhf"
			},
			{
				"type": "unocc",
				"energy": 0.03285,
				"method": "rhf"
			},
			{
				"type": "unocc",
				"energy": 0.06342,
				"method": "rhf"
			},
			{
				"type": "unocc",
				"energy": 0.07376,
				"method": "rhf"
			}
		],
		"cosmo_sigma_profile": { 
			"-0.025": 0.0,
			"-0.024": 0.0,
			"-0.023": 0.0,
			"-0.022": 0.0,
			"-0.021": 0.0,
			"-0.02": 0.0,
			"-0.019": 0.0,
			"-0.018": 0.429568622113,
			"-0.017": 0.84496727281,
			"-0.016": 1.00878305881,
			"-0.015": 0.833803476327,
			"-0.014": 0.844449197039,
			"-0.013": 0.537832607836,
			"-0.012": 0.17193312533,
			"-0.011": 0.566229610965,
			"-0.01": 1.42689119633,
			"-0.009": 0.407353662216,
			"-0.008": 0.391112319995,
			"-0.007": 1.39625226401,
			"-0.006": 4.65827341054,
			"-0.005": 12.5508968868,
			"-0.004": 23.4787780149,
			"-0.003": 22.2689996077,
			"-0.002": 25.7719981956,
			"-0.001": 23.6817466896,
			"0.0": 19.016848279,
			"0.001": 11.9652796334,
			"0.002": 12.5430657765,
			"0.003": 10.7252816656,
			"0.004": 11.6716451308,
			"0.005": 12.1935184188,
			"0.006": 10.5990935562,
			"0.007": 2.67312950214,
			"0.008": 2.13361828996,
			"0.009": 2.28098390419,
			"0.01": 2.24114020428,
			"0.011": 3.62247231133,
			"0.012": 4.71943164683,
			"0.013": 1.31334028799,
			"0.014": 0.0192168810468,
			"0.015": 0.0,
			"0.016": 0.0,
			"0.017": 0.0,
			"0.018": 0.0,
			"0.019": 0.0,
			"0.02": 0.0,
			"0.021": 0.0,
			"0.022": 0.0,
			"0.023": 0.0,
			"0.024": 0.0,
			"0.025": 0.0
		}
	}
}
