{
	 "smiles": "CC1(C)CCC2(C(O)CC3(C)C(=CCC4C5(C)CCC(O)C(C)(C=O)C5CCC34C)C2C1)C(O)=O", 
	 "Tm": 567.15, 
	 "num_atms": 81, 
	 "gaussian": { 
		 "optdone": 1, 
		 "sigma_profile": "yes", 
		 "theory": "DFT", 
		 "functional": "B3LYP", 
		 "basiset": "6-31G**", 
		 "properties": { 
			 "R2extent": 18426.0404, 
			 "electric_dipole_moment_norm": 2.16530816513, 
			 "electric_quadrupole_moment_norm": 27.8133705714, 
			 "total_energy": -1546.97839978, 
			 "HOMO_LUMO_gap": 0.21622, 
			 "cosmo_polarized_energy": -22.06, 
			 "cosmo_cavitation_energy": 64.28, 
			 "cosmo_dispersion_energy": -42.59, 
			 "cosmo_repulsion_energy": 3.01, 
			 "cosmo_total_nonelectrostatic_energy": 24.7, 
			 "SMD_solvation_energy": 11.06 
		},
		"coords": [
			{
				"x": -1.3908736264,
				"y": 5.2188446123,
				"z": -4.2859620939,
				"element": "C" 
			},
			{
				"x": -0.4551362265,
				"y": 4.0042579265,
				"z": -4.1469993523,
				"element": "C" 
			},
			{
				"x": -0.3154354186,
				"y": 3.3382622664,
				"z": -5.5313152078,
				"element": "C" 
			},
			{
				"x": 0.9112061353,
				"y": 4.4749830323,
				"z": -3.6020468557,
				"element": "C" 
			},
			{
				"x": 1.8864951536,
				"y": 3.3244262186,
				"z": -3.3408482858,
				"element": "C" 
			},
			{
				"x": 1.3388204694,
				"y": 2.2165896036,
				"z": -2.3770210666,
				"element": "C" 
			},
			{
				"x": 1.4772488225,
				"y": 2.5846633504,
				"z": -0.8520175358,
				"element": "C" 
			},
			{
				"x": 2.1891696729,
				"y": 3.8213412088,
				"z": -0.7401610701,
				"element": "O" 
			},
			{
				"x": 0.1314515288,
				"y": 2.7009174757,
				"z": -0.121871232,
				"element": "C" 
			},
			{
				"x": -0.8111723116,
				"y": 1.4513552402,
				"z": -0.2124195072,
				"element": "C" 
			},
			{
				"x": -2.2599763633,
				"y": 2.0113509757,
				"z": -0.0926734683,
				"element": "C" 
			},
			{
				"x": -0.6400709967,
				"y": 0.8997976839,
				"z": -1.6355606676,
				"element": "C" 
			},
			{
				"x": -0.7592487778,
				"y": -0.4058671504,
				"z": -1.9044691813,
				"element": "C" 
			},
			{
				"x": -0.8354102469,
				"y": -1.4490906289,
				"z": -0.8296164186,
				"element": "C" 
			},
			{
				"x": 0.0642076116,
				"y": -1.0014410883,
				"z": 0.3548911132,
				"element": "C" 
			},
			{
				"x": 0.4324704124,
				"y": -2.1438014554,
				"z": 1.4042434198,
				"element": "C" 
			},
			{
				"x": 0.4288232077,
				"y": -3.5237938358,
				"z": 0.6963812197,
				"element": "C" 
			},
			{
				"x": 1.9047788719,
				"y": -1.9384063116,
				"z": 1.8752409861,
				"element": "C" 
			},
			{
				"x": 2.2193067182,
				"y": -2.5986678152,
				"z": 3.2169437363,
				"element": "C" 
			},
			{
				"x": 1.4072245611,
				"y": -1.9331280412,
				"z": 4.3168022698,
				"element": "C" 
			},
			{
				"x": 1.8138281874,
				"y": -2.5196919533,
				"z": 5.5570804995,
				"element": "O" 
			},
			{
				"x": -0.1365168497,
				"y": -2.073877778,
				"z": 4.1228173979,
				"element": "C" 
			},
			{
				"x": -0.851099297,
				"y": -0.96127256,
				"z": 4.9124992007,
				"element": "C" 
			},
			{
				"x": -0.4980495528,
				"y": -3.416912221,
				"z": 4.7855256808,
				"element": "C" 
			},
			{
				"x": -1.3209899915,
				"y": -3.5588421289,
				"z": 5.6616261043,
				"element": "O" 
			},
			{
				"x": -0.6078339434,
				"y": -2.2682685534,
				"z": 2.6047995035,
				"element": "C" 
			},
			{
				"x": -1.9263236751,
				"y": -1.5660377575,
				"z": 2.2245730846,
				"element": "C" 
			},
			{
				"x": -1.8657073865,
				"y": -0.1072511133,
				"z": 1.7130301654,
				"element": "C" 
			},
			{
				"x": -0.5494895844,
				"y": 0.3069242265,
				"z": 0.9612285271,
				"element": "C" 
			},
			{
				"x": 0.3797540123,
				"y": 0.9034288866,
				"z": 2.0368319058,
				"element": "C" 
			},
			{
				"x": -0.1449094915,
				"y": 1.8328435637,
				"z": -2.7376787896,
				"element": "C" 
			},
			{
				"x": -1.0546033369,
				"y": 3.0293305163,
				"z": -3.1072622403,
				"element": "C" 
			},
			{
				"x": 2.2082453869,
				"y": 0.9948520478,
				"z": -2.7317161749,
				"element": "C" 
			},
			{
				"x": 3.271964319,
				"y": 0.8083627127,
				"z": -1.909635444,
				"element": "O" 
			},
			{
				"x": 2.0433279492,
				"y": 0.2841877313,
				"z": -3.7021309034,
				"element": "O" 
			},
			{
				"x": -1.507713694,
				"y": 5.7430832198,
				"z": -3.3304135474,
				"element": "H" 
			},
			{
				"x": -0.9960029393,
				"y": 5.936974062,
				"z": -5.0139084857,
				"element": "H" 
			},
			{
				"x": -2.387756157,
				"y": 4.914418168,
				"z": -4.6257244695,
				"element": "H" 
			},
			{
				"x": 0.1280351277,
				"y": 4.0352797805,
				"z": -6.2519555529,
				"element": "H" 
			},
			{
				"x": 0.3084799995,
				"y": 2.440666285,
				"z": -5.5142321894,
				"element": "H" 
			},
			{
				"x": -1.299308492,
				"y": 3.0463710958,
				"z": -5.9164325373,
				"element": "H" 
			},
			{
				"x": 1.3738862338,
				"y": 5.1718819802,
				"z": -4.3136775839,
				"element": "H" 
			},
			{
				"x": 0.7565081183,
				"y": 5.0349500446,
				"z": -2.6718738077,
				"element": "H" 
			},
			{
				"x": 2.8214849004,
				"y": 3.7107977191,
				"z": -2.9318741763,
				"element": "H" 
			},
			{
				"x": 2.1238242526,
				"y": 2.8399084099,
				"z": -4.2931229608,
				"element": "H" 
			},
			{
				"x": 2.0657135738,
				"y": 1.7971549629,
				"z": -0.3704341854,
				"element": "H" 
			},
			{
				"x": 2.3400078372,
				"y": 3.9831712683,
				"z": 0.1996535327,
				"element": "H" 
			},
			{
				"x": 0.3291382623,
				"y": 2.9792841748,
				"z": 0.9149811911,
				"element": "H" 
			},
			{
				"x": -0.3859163043,
				"y": 3.5644730687,
				"z": -0.5432653968,
				"element": "H" 
			},
			{
				"x": -2.4066820795,
				"y": 2.8466825848,
				"z": -0.7777196588,
				"element": "H" 
			},
			{
				"x": -2.4652950668,
				"y": 2.3797809385,
				"z": 0.9183823901,
				"element": "H" 
			},
			{
				"x": -3.0133176018,
				"y": 1.2642017884,
				"z": -0.3489530597,
				"element": "H" 
			},
			{
				"x": -0.6471020586,
				"y": -0.7478741231,
				"z": -2.9310277066,
				"element": "H" 
			},
			{
				"x": -1.8677615671,
				"y": -1.6293319045,
				"z": -0.5041044658,
				"element": "H" 
			},
			{
				"x": -0.4887930968,
				"y": -2.3932704438,
				"z": -1.251837083,
				"element": "H" 
			},
			{
				"x": 1.0235960528,
				"y": -0.7341695455,
				"z": -0.1089992611,
				"element": "H" 
			},
			{
				"x": 1.0528380622,
				"y": -3.5177819406,
				"z": -0.2036217237,
				"element": "H" 
			},
			{
				"x": -0.5768350147,
				"y": -3.8459732132,
				"z": 0.4103150956,
				"element": "H" 
			},
			{
				"x": 0.8344449182,
				"y": -4.287765006,
				"z": 1.3683174577,
				"element": "H" 
			},
			{
				"x": 2.1519999726,
				"y": -0.8774961573,
				"z": 1.9523599082,
				"element": "H" 
			},
			{
				"x": 2.5688275516,
				"y": -2.3368991036,
				"z": 1.0988923007,
				"element": "H" 
			},
			{
				"x": 3.2819980159,
				"y": -2.4917619385,
				"z": 3.4595952653,
				"element": "H" 
			},
			{
				"x": 2.0131504807,
				"y": -3.6757020088,
				"z": 3.199031281,
				"element": "H" 
			},
			{
				"x": 1.6617552642,
				"y": -0.8613593726,
				"z": 4.3213540496,
				"element": "H" 
			},
			{
				"x": 1.3738123334,
				"y": -2.0525141947,
				"z": 6.2798323121,
				"element": "H" 
			},
			{
				"x": -0.7147829409,
				"y": 0.0205417769,
				"z": 4.4586552194,
				"element": "H" 
			},
			{
				"x": -1.9180273198,
				"y": -1.1596882517,
				"z": 5.018091458,
				"element": "H" 
			},
			{
				"x": -0.4557970659,
				"y": -0.912593569,
				"z": 5.9336067267,
				"element": "H" 
			},
			{
				"x": 0.0334387383,
				"y": -4.2958340488,
				"z": 4.3601609825,
				"element": "H" 
			},
			{
				"x": -0.8804706065,
				"y": -3.3309759133,
				"z": 2.581162445,
				"element": "H" 
			},
			{
				"x": -2.3681242406,
				"y": -2.1790097797,
				"z": 1.4314513307,
				"element": "H" 
			},
			{
				"x": -2.6412090421,
				"y": -1.6259576314,
				"z": 3.0506320766,
				"element": "H" 
			},
			{
				"x": -2.0258010962,
				"y": 0.5862087219,
				"z": 2.5455294133,
				"element": "H" 
			},
			{
				"x": -2.7381222299,
				"y": 0.0075637088,
				"z": 1.0720477771,
				"element": "H" 
			},
			{
				"x": 1.3678590248,
				"y": 1.1695654981,
				"z": 1.6512719674,
				"element": "H" 
			},
			{
				"x": -0.0650055625,
				"y": 1.7979963301,
				"z": 2.4847429619,
				"element": "H" 
			},
			{
				"x": 0.5309191299,
				"y": 0.1994703241,
				"z": 2.8499468681,
				"element": "H" 
			},
			{
				"x": -0.0686069322,
				"y": 1.2223630064,
				"z": -3.6399310636,
				"element": "H" 
			},
			{
				"x": -2.0023299415,
				"y": 2.620590085,
				"z": -3.4825776374,
				"element": "H" 
			},
			{
				"x": -1.3102625607,
				"y": 3.6268159708,
				"z": -2.2296367483,
				"element": "H" 
			},
			{
				"x": 3.7660298168,
				"y": 0.0647942852,
				"z": -2.2946000287,
				"element": "H" 
			}
		],
		 "valence_orbital": [ 
			{
				"type": "occ",
				"energy": -0.27218,
				"method": "rhf"
			},
			{
				"type": "occ",
				"energy": -0.26892,
				"method": "rhf"
			},
			{
				"type": "occ",
				"energy": -0.25975,
				"method": "rhf"
			},
			{
				"type": "occ",
				"energy": -0.24269,
				"method": "rhf"
			},
			{
				"type": "occ",
				"energy": -0.22867,
				"method": "rhf"
			},
			{
				"type": "unocc",
				"energy": -0.01245,
				"method": "rhf"
			},
			{
				"type": "unocc",
				"energy": 0.00846,
				"method": "rhf"
			},
			{
				"type": "unocc",
				"energy": 0.01997,
				"method": "rhf"
			},
			{
				"type": "unocc",
				"energy": 0.05433,
				"method": "rhf"
			},
			{
				"type": "unocc",
				"energy": 0.06146,
				"method": "rhf"
			}
		],
		"cosmo_sigma_profile": { 
			"-0.025": 0.0,
			"-0.024": 0.0,
			"-0.023": 0.0,
			"-0.022": 0.0,
			"-0.021": 0.0,
			"-0.02": 0.0,
			"-0.019": 0.0,
			"-0.018": 0.401929372654,
			"-0.017": 0.926978372683,
			"-0.016": 1.13305456326,
			"-0.015": 1.49732251948,
			"-0.014": 2.38491653962,
			"-0.013": 3.1041931132,
			"-0.012": 2.31710090961,
			"-0.011": 2.56449682072,
			"-0.01": 2.86290440108,
			"-0.009": 2.3349645466,
			"-0.008": 2.1005447341,
			"-0.007": 3.84081590733,
			"-0.006": 5.94321547975,
			"-0.005": 8.86849061732,
			"-0.004": 17.0820521605,
			"-0.003": 44.4438094137,
			"-0.002": 77.2665542971,
			"-0.001": 73.0141854399,
			"0.0": 65.587829001,
			"0.001": 55.1861883737,
			"0.002": 29.599955942,
			"0.003": 10.7793500868,
			"0.004": 9.60827764602,
			"0.005": 9.12373413054,
			"0.006": 8.863733981,
			"0.007": 6.25725453795,
			"0.008": 8.00619847634,
			"0.009": 8.43624909152,
			"0.01": 6.88650912607,
			"0.011": 9.03444224141,
			"0.012": 8.44801921358,
			"0.013": 3.71841486543,
			"0.014": 0.900239017951,
			"0.015": 0.0,
			"0.016": 0.0,
			"0.017": 0.0,
			"0.018": 0.0,
			"0.019": 0.0,
			"0.02": 0.0,
			"0.021": 0.0,
			"0.022": 0.0,
			"0.023": 0.0,
			"0.024": 0.0,
			"0.025": 0.0
		}
	}
}
