{
	 "smiles": "O=S=O", 
	 "Tm": 200.65, 
	 "num_atms": 3, 
	 "gaussian": { 
		 "optdone": 1, 
		 "sigma_profile": "yes", 
		 "theory": "DFT", 
		 "functional": "B3LYP", 
		 "basiset": "6-31G**", 
		 "properties": { 
			 "R2extent": 1901.5056, 
			 "electric_dipole_moment_norm": 1.79335780312, 
			 "electric_quadrupole_moment_norm": 9.24810148679, 
			 "total_energy": -548.581906807, 
			 "HOMO_LUMO_gap": 0.19721, 
			 "cosmo_polarized_energy": -5.07, 
			 "cosmo_cavitation_energy": 9.11, 
			 "cosmo_dispersion_energy": -7.7, 
			 "cosmo_repulsion_energy": 0.7, 
			 "cosmo_total_nonelectrostatic_energy": 2.11, 
			 "SMD_solvation_energy": -0.29 
		},
		"coords": [
			{
				"x": 1.2986693942,
				"y": 1.1805950997,
				"z": -3.2295556266,
				"element": "O" 
			},
			{
				"x": 0.8905127903,
				"y": -0.1763475719,
				"z": -3.5970762225,
				"element": "S" 
			},
			{
				"x": 0.1312178155,
				"y": -0.3775475278,
				"z": -4.8323681509,
				"element": "O" 
			}
		],
		 "valence_orbital": [ 
			{
				"type": "occ",
				"energy": -0.48901,
				"method": "rhf"
			},
			{
				"type": "occ",
				"energy": -0.48668,
				"method": "rhf"
			},
			{
				"type": "occ",
				"energy": -0.36535,
				"method": "rhf"
			},
			{
				"type": "occ",
				"energy": -0.35313,
				"method": "rhf"
			},
			{
				"type": "occ",
				"energy": -0.32977,
				"method": "rhf"
			},
			{
				"type": "unocc",
				"energy": -0.13256,
				"method": "rhf"
			},
			{
				"type": "unocc",
				"energy": 0.04931,
				"method": "rhf"
			},
			{
				"type": "unocc",
				"energy": 0.06961,
				"method": "rhf"
			},
			{
				"type": "unocc",
				"energy": 0.23898,
				"method": "rhf"
			},
			{
				"type": "unocc",
				"energy": 0.28689,
				"method": "rhf"
			}
		],
		"cosmo_sigma_profile": { 
			"-0.025": 0.0,
			"-0.024": 0.0,
			"-0.023": 0.0,
			"-0.022": 0.0,
			"-0.021": 0.0,
			"-0.02": 0.0,
			"-0.019": 0.0,
			"-0.018": 0.0,
			"-0.017": 0.0,
			"-0.016": 0.0,
			"-0.015": 0.0,
			"-0.014": 0.0,
			"-0.013": 0.0,
			"-0.012": 0.0,
			"-0.011": 0.2430664213,
			"-0.01": 2.35729900899,
			"-0.009": 3.47770299543,
			"-0.008": 4.24923044586,
			"-0.007": 4.7751949406,
			"-0.006": 7.45587362261,
			"-0.005": 4.88219581011,
			"-0.004": 2.2970914979,
			"-0.003": 1.59884138747,
			"-0.002": 2.42054948837,
			"-0.001": 2.58486933001,
			"0.0": 2.27418568665,
			"0.001": 1.72285662384,
			"0.002": 2.69833182453,
			"0.003": 3.22285151578,
			"0.004": 3.21441070315,
			"0.005": 2.97422485887,
			"0.006": 4.71940382059,
			"0.007": 10.1207387482,
			"0.008": 7.68652949749,
			"0.009": 1.11108171125,
			"0.01": 0.0,
			"0.011": 0.0,
			"0.012": 0.0,
			"0.013": 0.0,
			"0.014": 0.0,
			"0.015": 0.0,
			"0.016": 0.0,
			"0.017": 0.0,
			"0.018": 0.0,
			"0.019": 0.0,
			"0.02": 0.0,
			"0.021": 0.0,
			"0.022": 0.0,
			"0.023": 0.0,
			"0.024": 0.0,
			"0.025": 0.0
		}
	}
}
