{
	 "smiles": "NNC1=C(Cl)C(=O)N(N=C1)C1=CC=CC=C1", 
	 "Tm": 443.15, 
	 "num_atms": 25, 
	 "gaussian": { 
		 "optdone": 1, 
		 "sigma_profile": "yes", 
		 "theory": "DFT", 
		 "functional": "B3LYP", 
		 "basiset": "6-31G**", 
		 "properties": { 
			 "R2extent": 6051.2616, 
			 "electric_dipole_moment_norm": 4.64646733121, 
			 "electric_quadrupole_moment_norm": 21.5116866324, 
			 "total_energy": -1140.84589444, 
			 "HOMO_LUMO_gap": 0.16034, 
			 "cosmo_polarized_energy": -18.77, 
			 "cosmo_cavitation_energy": 31.27, 
			 "cosmo_dispersion_energy": -23.32, 
			 "cosmo_repulsion_energy": 1.81, 
			 "cosmo_total_nonelectrostatic_energy": 9.76, 
			 "SMD_solvation_energy": 5.62 
		},
		"coords": [
			{
				"x": 3.0394221799,
				"y": -5.2165375488,
				"z": -0.2426679246,
				"element": "N" 
			},
			{
				"x": 2.5456957509,
				"y": -4.4896903416,
				"z": 0.8475006082,
				"element": "N" 
			},
			{
				"x": 1.6954685741,
				"y": -3.42145639,
				"z": 0.7510029662,
				"element": "C" 
			},
			{
				"x": 1.037465863,
				"y": -2.8809576795,
				"z": 1.8362691026,
				"element": "C" 
			},
			{
				"x": 1.245650223,
				"y": -3.5666562675,
				"z": 3.4241553617,
				"element": "Cl" 
			},
			{
				"x": 0.1612764654,
				"y": -1.7332969573,
				"z": 1.7373158983,
				"element": "C" 
			},
			{
				"x": -0.4310626393,
				"y": -1.2111936871,
				"z": 2.6711155932,
				"element": "O" 
			},
			{
				"x": 0.035109044,
				"y": -1.239301555,
				"z": 0.3968587252,
				"element": "N" 
			},
			{
				"x": 0.675553407,
				"y": -1.7472354852,
				"z": -0.6663042226,
				"element": "N" 
			},
			{
				"x": 1.4592434556,
				"y": -2.7743862852,
				"z": -0.5096560955,
				"element": "C" 
			},
			{
				"x": -0.7597688326,
				"y": -0.0704175998,
				"z": 0.1135428155,
				"element": "C" 
			},
			{
				"x": -1.9972482256,
				"y": 0.1298467253,
				"z": 0.7340114947,
				"element": "C" 
			},
			{
				"x": -2.7486739183,
				"y": 1.2582967235,
				"z": 0.4064619696,
				"element": "C" 
			},
			{
				"x": -2.2800538472,
				"y": 2.1806503252,
				"z": -0.5301410124,
				"element": "C" 
			},
			{
				"x": -1.0448345851,
				"y": 1.9703923631,
				"z": -1.145676711,
				"element": "C" 
			},
			{
				"x": -0.2813881489,
				"y": 0.8499237205,
				"z": -0.8247864702,
				"element": "C" 
			},
			{
				"x": 3.738882757,
				"y": -4.6727884979,
				"z": -0.7411202219,
				"element": "H" 
			},
			{
				"x": 2.2924051687,
				"y": -5.4727640333,
				"z": -0.8856963587,
				"element": "H" 
			},
			{
				"x": 2.5796497393,
				"y": -4.9815246208,
				"z": 1.7288274575,
				"element": "H" 
			},
			{
				"x": 1.9412596853,
				"y": -3.1336568282,
				"z": -1.4120089803,
				"element": "H" 
			},
			{
				"x": -2.3565824672,
				"y": -0.5768831297,
				"z": 1.4685827566,
				"element": "H" 
			},
			{
				"x": -3.7091591645,
				"y": 1.4120733272,
				"z": 0.8892653499,
				"element": "H" 
			},
			{
				"x": -2.8715263658,
				"y": 3.0572700829,
				"z": -0.7771822213,
				"element": "H" 
			},
			{
				"x": -0.6681787475,
				"y": 2.6821307313,
				"z": -1.8743930745,
				"element": "H" 
			},
			{
				"x": 0.6764946292,
				"y": 0.6750629078,
				"z": -1.3000768062,
				"element": "H" 
			}
		],
		 "valence_orbital": [ 
			{
				"type": "occ",
				"energy": -0.28056,
				"method": "rhf"
			},
			{
				"type": "occ",
				"energy": -0.25646,
				"method": "rhf"
			},
			{
				"type": "occ",
				"energy": -0.24831,
				"method": "rhf"
			},
			{
				"type": "occ",
				"energy": -0.23413,
				"method": "rhf"
			},
			{
				"type": "occ",
				"energy": -0.22339,
				"method": "rhf"
			},
			{
				"type": "unocc",
				"energy": -0.06305,
				"method": "rhf"
			},
			{
				"type": "unocc",
				"energy": -0.00594,
				"method": "rhf"
			},
			{
				"type": "unocc",
				"energy": -0.00079,
				"method": "rhf"
			},
			{
				"type": "unocc",
				"energy": 0.01065,
				"method": "rhf"
			},
			{
				"type": "unocc",
				"energy": 0.02855,
				"method": "rhf"
			}
		],
		"cosmo_sigma_profile": { 
			"-0.025": 0.0,
			"-0.024": 0.0,
			"-0.023": 0.0,
			"-0.022": 0.0,
			"-0.021": 0.0,
			"-0.02": 0.0,
			"-0.019": 0.0,
			"-0.018": 0.0,
			"-0.017": 0.0,
			"-0.016": 0.0,
			"-0.015": 0.0,
			"-0.014": 0.0,
			"-0.013": 1.06879978441,
			"-0.012": 4.56759661579,
			"-0.011": 7.35053358764,
			"-0.01": 4.71780184489,
			"-0.009": 3.90337865252,
			"-0.008": 3.33133936781,
			"-0.007": 4.12332145314,
			"-0.006": 9.98847482437,
			"-0.005": 12.7324403675,
			"-0.004": 16.6312162098,
			"-0.003": 17.4219325948,
			"-0.002": 18.4840985977,
			"-0.001": 15.4783934214,
			"0.0": 18.4020339681,
			"0.001": 15.2095474777,
			"0.002": 15.1927210498,
			"0.003": 16.0124709044,
			"0.004": 19.7759437506,
			"0.005": 14.7850757319,
			"0.006": 5.163260623,
			"0.007": 3.1681946885,
			"0.008": 3.66819001326,
			"0.009": 3.30184294436,
			"0.01": 3.15108241242,
			"0.011": 3.45042329291,
			"0.012": 3.18406418966,
			"0.013": 5.0937352967,
			"0.014": 2.81000899633,
			"0.015": 0.521196833999,
			"0.016": 0.0867139235732,
			"0.017": 0.0,
			"0.018": 0.0,
			"0.019": 0.0,
			"0.02": 0.0,
			"0.021": 0.0,
			"0.022": 0.0,
			"0.023": 0.0,
			"0.024": 0.0,
			"0.025": 0.0
		}
	}
}
