{
	 "smiles": "ON1C=CC=CC1=O", 
	 "Tm": 421.15, 
	 "num_atms": 13, 
	 "gaussian": { 
		 "optdone": 1, 
		 "sigma_profile": "yes", 
		 "theory": "DFT", 
		 "functional": "B3LYP", 
		 "basiset": "6-31G**", 
		 "properties": { 
			 "R2extent": 909.6813, 
			 "electric_dipole_moment_norm": 3.44856925115, 
			 "electric_quadrupole_moment_norm": 3.31595954891, 
			 "total_energy": -398.689145994, 
			 "HOMO_LUMO_gap": 0.17706, 
			 "cosmo_polarized_energy": -9.11, 
			 "cosmo_cavitation_energy": 17.06, 
			 "cosmo_dispersion_energy": -13.22, 
			 "cosmo_repulsion_energy": 1.09, 
			 "cosmo_total_nonelectrostatic_energy": 4.93, 
			 "SMD_solvation_energy": 5.01 
		},
		"coords": [
			{
				"x": -1.2739891464,
				"y": -1.5130298747,
				"z": -1.4797949583,
				"element": "O" 
			},
			{
				"x": -1.0618298053,
				"y": -0.3584113453,
				"z": -0.762297724,
				"element": "N" 
			},
			{
				"x": -2.0637653632,
				"y": 0.5315962616,
				"z": -0.6246492552,
				"element": "C" 
			},
			{
				"x": -1.8384402847,
				"y": 1.6815109753,
				"z": 0.0949642202,
				"element": "C" 
			},
			{
				"x": -0.5576479624,
				"y": 1.8817015841,
				"z": 0.662682014,
				"element": "C" 
			},
			{
				"x": 0.4509995667,
				"y": 0.9575837709,
				"z": 0.5083940976,
				"element": "C" 
			},
			{
				"x": 0.2426589373,
				"y": -0.2475823846,
				"z": -0.2356714316,
				"element": "C" 
			},
			{
				"x": 1.0171234448,
				"y": -1.1877069805,
				"z": -0.4830110373,
				"element": "O" 
			},
			{
				"x": -0.3676771384,
				"y": -1.9169704383,
				"z": -1.3806145461,
				"element": "H" 
			},
			{
				"x": -2.9979598239,
				"y": 0.2672554045,
				"z": -1.1045858738,
				"element": "H" 
			},
			{
				"x": -2.634596893,
				"y": 2.4051077958,
				"z": 0.2134633077,
				"element": "H" 
			},
			{
				"x": -0.366469463,
				"y": 2.7859971631,
				"z": 1.2334527622,
				"element": "H" 
			},
			{
				"x": 1.4348939315,
				"y": 1.101048068,
				"z": 0.9386684244,
				"element": "H" 
			}
		],
		 "valence_orbital": [ 
			{
				"type": "occ",
				"energy": -0.37056,
				"method": "rhf"
			},
			{
				"type": "occ",
				"energy": -0.34624,
				"method": "rhf"
			},
			{
				"type": "occ",
				"energy": -0.27856,
				"method": "rhf"
			},
			{
				"type": "occ",
				"energy": -0.27644,
				"method": "rhf"
			},
			{
				"type": "occ",
				"energy": -0.22167,
				"method": "rhf"
			},
			{
				"type": "unocc",
				"energy": -0.04461,
				"method": "rhf"
			},
			{
				"type": "unocc",
				"energy": 0.00223,
				"method": "rhf"
			},
			{
				"type": "unocc",
				"energy": 0.06291,
				"method": "rhf"
			},
			{
				"type": "unocc",
				"energy": 0.11303,
				"method": "rhf"
			},
			{
				"type": "unocc",
				"energy": 0.12469,
				"method": "rhf"
			}
		],
		"cosmo_sigma_profile": { 
			"-0.025": 0.0,
			"-0.024": 0.0,
			"-0.023": 0.0,
			"-0.022": 0.0,
			"-0.021": 0.0,
			"-0.02": 0.0,
			"-0.019": 0.0,
			"-0.018": 0.0,
			"-0.017": 0.0,
			"-0.016": 0.0,
			"-0.015": 0.0,
			"-0.014": 0.0,
			"-0.013": 0.0280359894014,
			"-0.012": 0.628662310911,
			"-0.011": 0.369007133516,
			"-0.01": 2.52289360583,
			"-0.009": 1.99968848643,
			"-0.008": 3.66399491918,
			"-0.007": 9.07477178068,
			"-0.006": 8.78163734614,
			"-0.005": 7.52739744336,
			"-0.004": 5.97904369545,
			"-0.003": 7.81007743849,
			"-0.002": 10.5916098065,
			"-0.001": 10.3090642411,
			"0.0": 9.77250885788,
			"0.001": 10.7915811853,
			"0.002": 10.2878537068,
			"0.003": 7.79358268779,
			"0.004": 2.78853812007,
			"0.005": 2.87758769989,
			"0.006": 2.30521372801,
			"0.007": 2.48650855411,
			"0.008": 4.15242740779,
			"0.009": 2.98129062198,
			"0.01": 0.937181324866,
			"0.011": 1.78086897666,
			"0.012": 2.0984097407,
			"0.013": 3.09372922573,
			"0.014": 2.51214835757,
			"0.015": 0.958654008915,
			"0.016": 0.0,
			"0.017": 0.0,
			"0.018": 0.0,
			"0.019": 0.0,
			"0.02": 0.0,
			"0.021": 0.0,
			"0.022": 0.0,
			"0.023": 0.0,
			"0.024": 0.0,
			"0.025": 0.0
		}
	}
}
