{
	 "smiles": "OC(=O)C1=CC=C(C=C1)C1=NOC(=N1)C(F)(F)F", 
	 "Tm": 523.15, 
	 "num_atms": 23, 
	 "gaussian": { 
		 "optdone": 1, 
		 "sigma_profile": "yes", 
		 "theory": "DFT", 
		 "functional": "B3LYP", 
		 "basiset": "6-31G**", 
		 "properties": { 
			 "R2extent": 8146.1325, 
			 "electric_dipole_moment_norm": 3.22576198905, 
			 "electric_quadrupole_moment_norm": 20.1204627323, 
			 "total_energy": -1018.73197974, 
			 "HOMO_LUMO_gap": 0.18309, 
			 "cosmo_polarized_energy": -15.26, 
			 "cosmo_cavitation_energy": 31.45, 
			 "cosmo_dispersion_energy": -22.61, 
			 "cosmo_repulsion_energy": 1.66, 
			 "cosmo_total_nonelectrostatic_energy": 10.51, 
			 "SMD_solvation_energy": 6.37 
		},
		"coords": [
			{
				"x": -4.1825587734,
				"y": 0.4879647403,
				"z": 1.6959836868,
				"element": "O" 
			},
			{
				"x": -3.222913838,
				"y": -0.2211551428,
				"z": 2.3460972453,
				"element": "C" 
			},
			{
				"x": -3.5177570338,
				"y": -0.9248984355,
				"z": 3.282456414,
				"element": "O" 
			},
			{
				"x": -1.8157453048,
				"y": -0.077430602,
				"z": 1.8421115304,
				"element": "C" 
			},
			{
				"x": -1.3804130013,
				"y": 1.0243434892,
				"z": 1.0931799163,
				"element": "C" 
			},
			{
				"x": -0.0574507661,
				"y": 1.1108632528,
				"z": 0.6678170523,
				"element": "C" 
			},
			{
				"x": 0.8472624032,
				"y": 0.0897265078,
				"z": 0.9870140613,
				"element": "C" 
			},
			{
				"x": 0.4185162967,
				"y": -1.0099211236,
				"z": 1.7496474578,
				"element": "C" 
			},
			{
				"x": -0.8991596005,
				"y": -1.0845775015,
				"z": 2.1794081987,
				"element": "C" 
			},
			{
				"x": 2.2375134453,
				"y": 0.1861601239,
				"z": 0.5261604115,
				"element": "C" 
			},
			{
				"x": 3.1463765182,
				"y": -0.7300973988,
				"z": 0.7860643289,
				"element": "N" 
			},
			{
				"x": 4.3006160617,
				"y": -0.2375967907,
				"z": 0.1668352065,
				"element": "O" 
			},
			{
				"x": 3.9483449418,
				"y": 0.9236535338,
				"z": -0.3956900958,
				"element": "C" 
			},
			{
				"x": 2.7104212709,
				"y": 1.2519143827,
				"z": -0.2232245227,
				"element": "N" 
			},
			{
				"x": 5.0146829061,
				"y": 1.6873953817,
				"z": -1.1447907679,
				"element": "C" 
			},
			{
				"x": 4.5092866955,
				"y": 2.8170190827,
				"z": -1.6445266924,
				"element": "F" 
			},
			{
				"x": 6.0330254707,
				"y": 1.9905134996,
				"z": -0.323076876,
				"element": "F" 
			},
			{
				"x": 5.4982972797,
				"y": 0.9422494474,
				"z": -2.1524721399,
				"element": "F" 
			},
			{
				"x": -3.8285081953,
				"y": 0.8660067423,
				"z": 0.8792330464,
				"element": "H" 
			},
			{
				"x": -2.0551172624,
				"y": 1.8459440064,
				"z": 0.8661725292,
				"element": "H" 
			},
			{
				"x": 0.2853336019,
				"y": 1.965426062,
				"z": 0.0953423716,
				"element": "H" 
			},
			{
				"x": 1.1240309725,
				"y": -1.7944866936,
				"z": 2.0013641427,
				"element": "H" 
			},
			{
				"x": -1.2454840884,
				"y": -1.918016564,
				"z": 2.7804934949,
				"element": "H" 
			}
		],
		 "valence_orbital": [ 
			{
				"type": "occ",
				"energy": -0.33185,
				"method": "rhf"
			},
			{
				"type": "occ",
				"energy": -0.32478,
				"method": "rhf"
			},
			{
				"type": "occ",
				"energy": -0.28801,
				"method": "rhf"
			},
			{
				"type": "occ",
				"energy": -0.28477,
				"method": "rhf"
			},
			{
				"type": "occ",
				"energy": -0.27272,
				"method": "rhf"
			},
			{
				"type": "unocc",
				"energy": -0.08963,
				"method": "rhf"
			},
			{
				"type": "unocc",
				"energy": -0.05804,
				"method": "rhf"
			},
			{
				"type": "unocc",
				"energy": -0.03557,
				"method": "rhf"
			},
			{
				"type": "unocc",
				"energy": 0.00216,
				"method": "rhf"
			},
			{
				"type": "unocc",
				"energy": 0.0459,
				"method": "rhf"
			}
		],
		"cosmo_sigma_profile": { 
			"-0.025": 0.0,
			"-0.024": 0.0,
			"-0.023": 0.0,
			"-0.022": 0.0,
			"-0.021": 0.0,
			"-0.02": 0.0034917574173,
			"-0.019": 0.566803709717,
			"-0.018": 0.976209735041,
			"-0.017": 0.994669229642,
			"-0.016": 0.973964649156,
			"-0.015": 0.998199423272,
			"-0.014": 1.1734455987,
			"-0.013": 0.762936094679,
			"-0.012": 1.418795038,
			"-0.011": 1.36161339305,
			"-0.01": 0.979138208788,
			"-0.009": 1.63777215437,
			"-0.008": 2.58244576498,
			"-0.007": 10.589627672,
			"-0.006": 10.7060648181,
			"-0.005": 9.94053720841,
			"-0.004": 10.1588450181,
			"-0.003": 13.5906205423,
			"-0.002": 17.6534336429,
			"-0.001": 20.6898612515,
			"0.0": 23.4092969678,
			"0.001": 44.3319076974,
			"0.002": 21.1307161052,
			"0.003": 7.50008729934,
			"0.004": 8.58450968874,
			"0.005": 6.13127141327,
			"0.006": 4.4848798281,
			"0.007": 4.37961596527,
			"0.008": 5.21067486822,
			"0.009": 6.09009765528,
			"0.01": 5.81527222397,
			"0.011": 5.61628348103,
			"0.012": 3.56544799015,
			"0.013": 0.709518957148,
			"0.014": 0.0,
			"0.015": 0.0,
			"0.016": 0.0,
			"0.017": 0.0,
			"0.018": 0.0,
			"0.019": 0.0,
			"0.02": 0.0,
			"0.021": 0.0,
			"0.022": 0.0,
			"0.023": 0.0,
			"0.024": 0.0,
			"0.025": 0.0
		}
	}
}
