{
	 "smiles": "CC1(C)N(Cl)C(=O)N(Br)C1=O", 
	 "Tm": 437.15, 
	 "num_atms": 17, 
	 "gaussian": { 
		 "optdone": 1, 
		 "sigma_profile": "yes", 
		 "theory": "DFT", 
		 "functional": "B3LYP", 
		 "basiset": "6-31G**", 
		 "properties": { 
			 "R2extent": 4282.9663, 
			 "electric_dipole_moment_norm": 2.8388265375, 
			 "electric_quadrupole_moment_norm": 13.8820635444, 
			 "total_energy": -3485.65069713, 
			 "HOMO_LUMO_gap": 0.17852, 
			 "cosmo_polarized_energy": -11.01, 
			 "cosmo_cavitation_energy": 25.49, 
			 "cosmo_dispersion_energy": -18.3, 
			 "cosmo_repulsion_energy": 1.47, 
			 "cosmo_total_nonelectrostatic_energy": 8.66, 
			 "SMD_solvation_energy": 4.44 
		},
		"coords": [
			{
				"x": -0.6497334599,
				"y": 0.5407205855,
				"z": 2.0307864714,
				"element": "C" 
			},
			{
				"x": 0.0440437788,
				"y": -0.0234853054,
				"z": 0.7838331082,
				"element": "C" 
			},
			{
				"x": -0.7361366678,
				"y": 0.2800155396,
				"z": -0.502147278,
				"element": "C" 
			},
			{
				"x": 0.3591810278,
				"y": -1.4534958491,
				"z": 0.9202672168,
				"element": "N" 
			},
			{
				"x": -0.8348445775,
				"y": -2.6670393799,
				"z": 1.0861269305,
				"element": "Cl" 
			},
			{
				"x": 1.6973312574,
				"y": -1.775717498,
				"z": 0.9080252744,
				"element": "C" 
			},
			{
				"x": 2.2363397452,
				"y": -2.8477483082,
				"z": 0.9999864157,
				"element": "O" 
			},
			{
				"x": 2.3408589362,
				"y": -0.5055083013,
				"z": 0.7552607585,
				"element": "N" 
			},
			{
				"x": 4.1939416581,
				"y": -0.3580565599,
				"z": 0.6766587306,
				"element": "Br" 
			},
			{
				"x": 1.4741209805,
				"y": 0.5677083068,
				"z": 0.6742316387,
				"element": "C" 
			},
			{
				"x": 1.746159172,
				"y": 1.7370893967,
				"z": 0.5441363415,
				"element": "O" 
			},
			{
				"x": -0.0864343441,
				"y": 0.2990902178,
				"z": 2.9359705346,
				"element": "H" 
			},
			{
				"x": -0.7250152467,
				"y": 1.6269953986,
				"z": 1.9427208075,
				"element": "H" 
			},
			{
				"x": -1.6558589144,
				"y": 0.1224513136,
				"z": 2.1226915676,
				"element": "H" 
			},
			{
				"x": -0.8126655693,
				"y": 1.3619865266,
				"z": -0.6321263665,
				"element": "H" 
			},
			{
				"x": -0.2335737668,
				"y": -0.144770867,
				"z": -1.3750939313,
				"element": "H" 
			},
			{
				"x": -1.7433140095,
				"y": -0.1410352163,
				"z": -0.43892822,
				"element": "H" 
			}
		],
		 "valence_orbital": [ 
			{
				"type": "occ",
				"energy": -0.31717,
				"method": "rhf"
			},
			{
				"type": "occ",
				"energy": -0.31219,
				"method": "rhf"
			},
			{
				"type": "occ",
				"energy": -0.2848,
				"method": "rhf"
			},
			{
				"type": "occ",
				"energy": -0.28431,
				"method": "rhf"
			},
			{
				"type": "occ",
				"energy": -0.26209,
				"method": "rhf"
			},
			{
				"type": "unocc",
				"energy": -0.08357,
				"method": "rhf"
			},
			{
				"type": "unocc",
				"energy": -0.04072,
				"method": "rhf"
			},
			{
				"type": "unocc",
				"energy": -0.02642,
				"method": "rhf"
			},
			{
				"type": "unocc",
				"energy": 0.0407,
				"method": "rhf"
			},
			{
				"type": "unocc",
				"energy": 0.07888,
				"method": "rhf"
			}
		],
		"cosmo_sigma_profile": { 
			"-0.025": 0.0,
			"-0.024": 0.0,
			"-0.023": 0.0,
			"-0.022": 0.0,
			"-0.021": 0.0,
			"-0.02": 0.0,
			"-0.019": 0.0,
			"-0.018": 0.0,
			"-0.017": 0.0,
			"-0.016": 0.0,
			"-0.015": 0.0,
			"-0.014": 0.0,
			"-0.013": 0.0,
			"-0.012": 0.0,
			"-0.011": 0.0713544461746,
			"-0.01": 0.948787075516,
			"-0.009": 2.20402289842,
			"-0.008": 3.59410406454,
			"-0.007": 4.74627033363,
			"-0.006": 10.5241177539,
			"-0.005": 17.2608102066,
			"-0.004": 16.5972299589,
			"-0.003": 17.6658844718,
			"-0.002": 22.0603832724,
			"-0.001": 18.8820109358,
			"0.0": 11.1027769672,
			"0.001": 14.8652149906,
			"0.002": 15.3118779108,
			"0.003": 8.93885185903,
			"0.004": 5.54901095627,
			"0.005": 4.42928874012,
			"0.006": 2.76357382181,
			"0.007": 4.57055728443,
			"0.008": 3.96345725412,
			"0.009": 4.24396130032,
			"0.01": 8.16058911012,
			"0.011": 9.37720921917,
			"0.012": 0.484620027198,
			"0.013": 0.0,
			"0.014": 0.0,
			"0.015": 0.0,
			"0.016": 0.0,
			"0.017": 0.0,
			"0.018": 0.0,
			"0.019": 0.0,
			"0.02": 0.0,
			"0.021": 0.0,
			"0.022": 0.0,
			"0.023": 0.0,
			"0.024": 0.0,
			"0.025": 0.0
		}
	}
}
