{
	 "smiles": "COC1=CC=C(C=C1)C1NN2C(S1)=NN=C2C1=CN=CC=C1", 
	 "Tm": 492.15, 
	 "num_atms": 35, 
	 "gaussian": { 
		 "optdone": 1, 
		 "sigma_profile": "yes", 
		 "theory": "DFT", 
		 "functional": "B3LYP", 
		 "basiset": "6-31G**", 
		 "properties": { 
			 "R2extent": 11265.2972, 
			 "electric_dipole_moment_norm": 9.24034764389, 
			 "electric_quadrupole_moment_norm": 41.5341691695, 
			 "total_energy": -1326.50252692, 
			 "HOMO_LUMO_gap": 0.17495, 
			 "cosmo_polarized_energy": -25.45, 
			 "cosmo_cavitation_energy": 41.46, 
			 "cosmo_dispersion_energy": -30.32, 
			 "cosmo_repulsion_energy": 2.23, 
			 "cosmo_total_nonelectrostatic_energy": 13.37, 
			 "SMD_solvation_energy": 3.1 
		},
		"coords": [
			{
				"x": -4.8481568604,
				"y": 1.8302115571,
				"z": 2.3374621942,
				"element": "C" 
			},
			{
				"x": -4.3751871883,
				"y": 0.4938202283,
				"z": 2.2344948417,
				"element": "O" 
			},
			{
				"x": -3.0511927885,
				"y": 0.2892283917,
				"z": 2.0041019895,
				"element": "C" 
			},
			{
				"x": -2.1022670355,
				"y": 1.3100928111,
				"z": 1.8443661438,
				"element": "C" 
			},
			{
				"x": -0.7671924959,
				"y": 0.9827664182,
				"z": 1.6138068654,
				"element": "C" 
			},
			{
				"x": -0.3556015616,
				"y": -0.3518674788,
				"z": 1.530053132,
				"element": "C" 
			},
			{
				"x": -1.3155298464,
				"y": -1.3633649147,
				"z": 1.6877650189,
				"element": "C" 
			},
			{
				"x": -2.6474105146,
				"y": -1.052634002,
				"z": 1.9240883256,
				"element": "C" 
			},
			{
				"x": 1.0802783039,
				"y": -0.7143142203,
				"z": 1.2945526286,
				"element": "C" 
			},
			{
				"x": 1.691584792,
				"y": 0.1121356654,
				"z": 0.2092391373,
				"element": "N" 
			},
			{
				"x": 3.0957012687,
				"y": -0.0063095693,
				"z": 0.3941386365,
				"element": "N" 
			},
			{
				"x": 3.5318445472,
				"y": -0.2347050289,
				"z": 1.6625317547,
				"element": "C" 
			},
			{
				"x": 2.1908622815,
				"y": -0.4261705516,
				"z": 2.7887511427,
				"element": "S" 
			},
			{
				"x": 4.8406512204,
				"y": -0.171068063,
				"z": 1.7319105389,
				"element": "N" 
			},
			{
				"x": 5.2762565524,
				"y": 0.1312355764,
				"z": 0.4573218632,
				"element": "N" 
			},
			{
				"x": 4.226309334,
				"y": 0.2549355222,
				"z": -0.344018192,
				"element": "C" 
			},
			{
				"x": 4.2704790992,
				"y": 0.5633747021,
				"z": -1.7715963593,
				"element": "C" 
			},
			{
				"x": 5.4437606925,
				"y": 0.2893005847,
				"z": -2.500739477,
				"element": "C" 
			},
			{
				"x": 5.5848439213,
				"y": 0.5462873894,
				"z": -3.8014267033,
				"element": "N" 
			},
			{
				"x": 4.543245538,
				"y": 1.0938964324,
				"z": -4.4444341368,
				"element": "C" 
			},
			{
				"x": 3.3373272097,
				"y": 1.4129125182,
				"z": -3.8207830491,
				"element": "C" 
			},
			{
				"x": 3.1987227029,
				"y": 1.1495001241,
				"z": -2.4598442817,
				"element": "C" 
			},
			{
				"x": -4.6839243324,
				"y": 2.3891884806,
				"z": 1.4077416843,
				"element": "H" 
			},
			{
				"x": -4.3710166181,
				"y": 2.363849993,
				"z": 3.1687557928,
				"element": "H" 
			},
			{
				"x": -5.9196514008,
				"y": 1.7547386749,
				"z": 2.526536549,
				"element": "H" 
			},
			{
				"x": -2.390678211,
				"y": 2.3527590688,
				"z": 1.9005490592,
				"element": "H" 
			},
			{
				"x": -0.0337936994,
				"y": 1.7726254214,
				"z": 1.489725493,
				"element": "H" 
			},
			{
				"x": -1.0153470332,
				"y": -2.4065450664,
				"z": 1.6259458457,
				"element": "H" 
			},
			{
				"x": -3.3957987668,
				"y": -1.8280921347,
				"z": 2.0471934031,
				"element": "H" 
			},
			{
				"x": 1.1702717074,
				"y": -1.7841802817,
				"z": 1.0664731554,
				"element": "H" 
			},
			{
				"x": 1.4627638355,
				"y": -0.3318361608,
				"z": -0.6812926688,
				"element": "H" 
			},
			{
				"x": 6.2922914308,
				"y": -0.1550490363,
				"z": -1.9869409797,
				"element": "H" 
			},
			{
				"x": 4.68356157,
				"y": 1.289021173,
				"z": -5.5059494614,
				"element": "H" 
			},
			{
				"x": 2.5302388151,
				"y": 1.8692314677,
				"z": -4.3852054341,
				"element": "H" 
			},
			{
				"x": 2.2880535303,
				"y": 1.4248243078,
				"z": -1.9356744521,
				"element": "H" 
			}
		],
		 "valence_orbital": [ 
			{
				"type": "occ",
				"energy": -0.26169,
				"method": "rhf"
			},
			{
				"type": "occ",
				"energy": -0.25428,
				"method": "rhf"
			},
			{
				"type": "occ",
				"energy": -0.2505,
				"method": "rhf"
			},
			{
				"type": "occ",
				"energy": -0.23824,
				"method": "rhf"
			},
			{
				"type": "occ",
				"energy": -0.22182,
				"method": "rhf"
			},
			{
				"type": "unocc",
				"energy": -0.04687,
				"method": "rhf"
			},
			{
				"type": "unocc",
				"energy": -0.03523,
				"method": "rhf"
			},
			{
				"type": "unocc",
				"energy": -0.02933,
				"method": "rhf"
			},
			{
				"type": "unocc",
				"energy": -0.02156,
				"method": "rhf"
			},
			{
				"type": "unocc",
				"energy": -0.00012,
				"method": "rhf"
			}
		],
		"cosmo_sigma_profile": { 
			"-0.025": 0.0,
			"-0.024": 0.0,
			"-0.023": 0.0,
			"-0.022": 0.0,
			"-0.021": 0.0,
			"-0.02": 0.0,
			"-0.019": 0.0,
			"-0.018": 0.0,
			"-0.017": 0.0,
			"-0.016": 0.513243820258,
			"-0.015": 1.56928980757,
			"-0.014": 1.71145640729,
			"-0.013": 1.82874903429,
			"-0.012": 1.57024773397,
			"-0.011": 1.52057759414,
			"-0.01": 2.23592310004,
			"-0.009": 2.4943852809,
			"-0.008": 5.73135405058,
			"-0.007": 12.0880829875,
			"-0.006": 21.0670648144,
			"-0.005": 23.4863511326,
			"-0.004": 22.678950817,
			"-0.003": 23.5590248892,
			"-0.002": 19.7652331494,
			"-0.001": 18.3757894154,
			"0.0": 23.2237881373,
			"0.001": 29.1697470663,
			"0.002": 25.1652382765,
			"0.003": 19.5538374279,
			"0.004": 20.6983032212,
			"0.005": 11.4693255507,
			"0.006": 6.71796080949,
			"0.007": 5.20854509046,
			"0.008": 3.77481079315,
			"0.009": 4.71489100697,
			"0.01": 4.87477872019,
			"0.011": 2.97587017087,
			"0.012": 3.66503085357,
			"0.013": 4.6477720099,
			"0.014": 3.65809667914,
			"0.015": 3.66568896636,
			"0.016": 1.63731816714,
			"0.017": 0.203948342308,
			"0.018": 0.0,
			"0.019": 0.0,
			"0.02": 0.0,
			"0.021": 0.0,
			"0.022": 0.0,
			"0.023": 0.0,
			"0.024": 0.0,
			"0.025": 0.0
		}
	}
}
