{
	 "smiles": "[O-][N+](=O)O[C@@H]1CO[C@@H]2[C@H](CO[C@H]12)O[N+]([O-])=O", 
	 "Tm": 334.15, 
	 "num_atms": 24, 
	 "gaussian": { 
		 "optdone": 1, 
		 "sigma_profile": "yes", 
		 "theory": "DFT", 
		 "functional": "B3LYP", 
		 "basiset": "6-31G**", 
		 "properties": { 
			 "R2extent": 4069.9576, 
			 "electric_dipole_moment_norm": 4.19777085725, 
			 "electric_quadrupole_moment_norm": 12.9085064624, 
			 "total_energy": -944.426538072, 
			 "HOMO_LUMO_gap": 0.20547, 
			 "cosmo_polarized_energy": -13.93, 
			 "cosmo_cavitation_energy": 29.12, 
			 "cosmo_dispersion_energy": -20.87, 
			 "cosmo_repulsion_energy": 1.66, 
			 "cosmo_total_nonelectrostatic_energy": 9.9, 
			 "SMD_solvation_energy": 10.45 
		},
		"coords": [
			{
				"x": -2.267578322,
				"y": -2.7425607248,
				"z": -0.1158445979,
				"element": "O" 
			},
			{
				"x": -2.1369717205,
				"y": -1.6951487822,
				"z": -0.7063556568,
				"element": "N" 
			},
			{
				"x": -2.526622474,
				"y": -1.358790414,
				"z": -1.79390205,
				"element": "O" 
			},
			{
				"x": -1.4594625228,
				"y": -0.6260156868,
				"z": -0.0256984185,
				"element": "O" 
			},
			{
				"x": -0.7432988804,
				"y": -1.0407464604,
				"z": 1.1496328939,
				"element": "C" 
			},
			{
				"x": -0.3860133136,
				"y": 0.2343867814,
				"z": 1.9059984178,
				"element": "C" 
			},
			{
				"x": 0.7714996717,
				"y": 0.7706280064,
				"z": 1.2629080675,
				"element": "O" 
			},
			{
				"x": 1.5007300207,
				"y": -0.2836483896,
				"z": 0.6518616047,
				"element": "C" 
			},
			{
				"x": 1.6649344198,
				"y": -0.104154309,
				"z": -0.8648060312,
				"element": "C" 
			},
			{
				"x": 1.5681475602,
				"y": -1.5411744526,
				"z": -1.3962837901,
				"element": "C" 
			},
			{
				"x": 0.6631151544,
				"y": -2.2140766022,
				"z": -0.5146379513,
				"element": "O" 
			},
			{
				"x": 0.655794616,
				"y": -1.5782451237,
				"z": 0.7506546683,
				"element": "C" 
			},
			{
				"x": 2.9473593853,
				"y": 0.5120871546,
				"z": -1.0849523927,
				"element": "O" 
			},
			{
				"x": 3.1602786225,
				"y": 0.956497009,
				"z": -2.4214340942,
				"element": "N" 
			},
			{
				"x": 2.2797682101,
				"y": 0.74070242,
				"z": -3.2292788839,
				"element": "O" 
			},
			{
				"x": 4.2244113516,
				"y": 1.5019160365,
				"z": -2.5610558769,
				"element": "O" 
			},
			{
				"x": -1.3456697963,
				"y": -1.744627119,
				"z": 1.723703315,
				"element": "H" 
			},
			{
				"x": -1.183686717,
				"y": 0.9798998531,
				"z": 1.8725103442,
				"element": "H" 
			},
			{
				"x": -0.1717587475,
				"y": -0.010330803,
				"z": 2.9574837524,
				"element": "H" 
			},
			{
				"x": 2.4854113817,
				"y": -0.3820945527,
				"z": 1.1240990303,
				"element": "H" 
			},
			{
				"x": 0.8695497747,
				"y": 0.5343392213,
				"z": -1.2523418937,
				"element": "H" 
			},
			{
				"x": 2.5617802253,
				"y": -2.0125364764,
				"z": -1.3719299702,
				"element": "H" 
			},
			{
				"x": 1.1672755705,
				"y": -1.6022180409,
				"z": -2.408560992,
				"element": "H" 
			},
			{
				"x": 1.0242065294,
				"y": -2.2637885451,
				"z": 1.5232305055,
				"element": "H" 
			}
		],
		 "valence_orbital": [ 
			{
				"type": "occ",
				"energy": -0.32537,
				"method": "rhf"
			},
			{
				"type": "occ",
				"energy": -0.32306,
				"method": "rhf"
			},
			{
				"type": "occ",
				"energy": -0.32085,
				"method": "rhf"
			},
			{
				"type": "occ",
				"energy": -0.29094,
				"method": "rhf"
			},
			{
				"type": "occ",
				"energy": -0.27973,
				"method": "rhf"
			},
			{
				"type": "unocc",
				"energy": -0.07426,
				"method": "rhf"
			},
			{
				"type": "unocc",
				"energy": -0.07166,
				"method": "rhf"
			},
			{
				"type": "unocc",
				"energy": 0.02101,
				"method": "rhf"
			},
			{
				"type": "unocc",
				"energy": 0.03356,
				"method": "rhf"
			},
			{
				"type": "unocc",
				"energy": 0.05036,
				"method": "rhf"
			}
		],
		"cosmo_sigma_profile": { 
			"-0.025": 0.0,
			"-0.024": 0.0,
			"-0.023": 0.0,
			"-0.022": 0.0,
			"-0.021": 0.0,
			"-0.02": 0.0,
			"-0.019": 0.0,
			"-0.018": 0.0,
			"-0.017": 0.0,
			"-0.016": 0.0,
			"-0.015": 0.0,
			"-0.014": 0.0,
			"-0.013": 0.0,
			"-0.012": 0.0,
			"-0.011": 0.0,
			"-0.01": 0.167659073703,
			"-0.009": 4.96175928293,
			"-0.008": 11.3056238389,
			"-0.007": 18.5526937815,
			"-0.006": 17.5290065568,
			"-0.005": 13.6557264473,
			"-0.004": 13.2836478238,
			"-0.003": 11.042739792,
			"-0.002": 9.32465419564,
			"-0.001": 9.88119818634,
			"0.0": 9.45993507806,
			"0.001": 8.53912483782,
			"0.002": 10.3810471442,
			"0.003": 11.797064215,
			"0.004": 12.0360494843,
			"0.005": 20.3492346673,
			"0.006": 24.7009952717,
			"0.007": 12.9588194815,
			"0.008": 2.85704644276,
			"0.009": 2.36351402067,
			"0.01": 1.78711143508,
			"0.011": 2.26989603905,
			"0.012": 0.972038287818,
			"0.013": 0.00742102697511,
			"0.014": 0.0,
			"0.015": 0.0,
			"0.016": 0.0,
			"0.017": 0.0,
			"0.018": 0.0,
			"0.019": 0.0,
			"0.02": 0.0,
			"0.021": 0.0,
			"0.022": 0.0,
			"0.023": 0.0,
			"0.024": 0.0,
			"0.025": 0.0
		}
	}
}
