{
	 "smiles": "NC(=O)C1CCCN1CC1=C(C=CC=C1)C#N", 
	 "Tm": 362.15, 
	 "num_atms": 32, 
	 "gaussian": { 
		 "optdone": 1, 
		 "sigma_profile": "yes", 
		 "theory": "DFT", 
		 "functional": "B3LYP", 
		 "basiset": "6-31G**", 
		 "properties": { 
			 "R2extent": 4254.2199, 
			 "electric_dipole_moment_norm": 3.32568439573, 
			 "electric_quadrupole_moment_norm": 27.4154822987, 
			 "total_energy": -743.901973691, 
			 "HOMO_LUMO_gap": 0.15887, 
			 "cosmo_polarized_energy": -16.99, 
			 "cosmo_cavitation_energy": 34.86, 
			 "cosmo_dispersion_energy": -23.14, 
			 "cosmo_repulsion_energy": 1.8, 
			 "cosmo_total_nonelectrostatic_energy": 13.52, 
			 "SMD_solvation_energy": 7.07 
		},
		"coords": [
			{
				"x": 2.0598882318,
				"y": 1.5214637079,
				"z": 1.6986338798,
				"element": "N" 
			},
			{
				"x": 1.3037650975,
				"y": 2.426685134,
				"z": 1.0245970643,
				"element": "C" 
			},
			{
				"x": 1.6702621973,
				"y": 3.5620295289,
				"z": 0.7465341183,
				"element": "O" 
			},
			{
				"x": -0.12502404,
				"y": 1.959362829,
				"z": 0.6871481258,
				"element": "C" 
			},
			{
				"x": -1.1373891232,
				"y": 2.560989739,
				"z": 1.6973711212,
				"element": "C" 
			},
			{
				"x": -1.3930269475,
				"y": 1.4031569413,
				"z": 2.6738067338,
				"element": "C" 
			},
			{
				"x": -1.3908786207,
				"y": 0.1956540295,
				"z": 1.7361024251,
				"element": "C" 
			},
			{
				"x": -0.3063666516,
				"y": 0.4925153287,
				"z": 0.7806496625,
				"element": "N" 
			},
			{
				"x": -0.4477783766,
				"y": -0.2145142343,
				"z": -0.4899636728,
				"element": "C" 
			},
			{
				"x": 0.8093255028,
				"y": -0.2126914913,
				"z": -1.3381072046,
				"element": "C" 
			},
			{
				"x": 1.9653676023,
				"y": -0.9221555574,
				"z": -0.93983519,
				"element": "C" 
			},
			{
				"x": 3.1171961693,
				"y": -0.9311082677,
				"z": -1.7423358233,
				"element": "C" 
			},
			{
				"x": 3.1326681672,
				"y": -0.2327982229,
				"z": -2.9470998854,
				"element": "C" 
			},
			{
				"x": 1.9989327806,
				"y": 0.4720632937,
				"z": -3.3508619511,
				"element": "C" 
			},
			{
				"x": 0.8534073167,
				"y": 0.4764702071,
				"z": -2.5514274337,
				"element": "C" 
			},
			{
				"x": 1.9808848191,
				"y": -1.6472845215,
				"z": 0.2983064907,
				"element": "C" 
			},
			{
				"x": 2.0113074956,
				"y": -2.2317864052,
				"z": 1.3046012197,
				"element": "N" 
			},
			{
				"x": 3.0135384578,
				"y": 1.7612724361,
				"z": 1.9208750784,
				"element": "H" 
			},
			{
				"x": 1.7300106654,
				"y": 0.5709230048,
				"z": 1.7906278309,
				"element": "H" 
			},
			{
				"x": -0.3251150573,
				"y": 2.3344687647,
				"z": -0.324072232,
				"element": "H" 
			},
			{
				"x": -2.0652810315,
				"y": 2.8196429516,
				"z": 1.1751734736,
				"element": "H" 
			},
			{
				"x": -0.7557516842,
				"y": 3.4710020761,
				"z": 2.1650955241,
				"element": "H" 
			},
			{
				"x": -0.5750541193,
				"y": 1.3235313624,
				"z": 3.3976930043,
				"element": "H" 
			},
			{
				"x": -2.3300969324,
				"y": 1.5035699913,
				"z": 3.2281695475,
				"element": "H" 
			},
			{
				"x": -1.1999810385,
				"y": -0.757332011,
				"z": 2.2417136445,
				"element": "H" 
			},
			{
				"x": -2.3684394298,
				"y": 0.1162822434,
				"z": 1.2263364083,
				"element": "H" 
			},
			{
				"x": -1.2792013127,
				"y": 0.1925769879,
				"z": -1.0948737021,
				"element": "H" 
			},
			{
				"x": -0.7112980121,
				"y": -1.2520664647,
				"z": -0.2520623328,
				"element": "H" 
			},
			{
				"x": 3.9891833327,
				"y": -1.4865641139,
				"z": -1.4131373283,
				"element": "H" 
			},
			{
				"x": 4.0251350608,
				"y": -0.2394885095,
				"z": -3.5646903932,
				"element": "H" 
			},
			{
				"x": 2.0039105183,
				"y": 1.0213074063,
				"z": -4.2874966644,
				"element": "H" 
			},
			{
				"x": -0.025901038,
				"y": 1.0265218358,
				"z": -2.8747715392,
				"element": "H" 
			}
		],
		 "valence_orbital": [ 
			{
				"type": "occ",
				"energy": -0.27454,
				"method": "rhf"
			},
			{
				"type": "occ",
				"energy": -0.26807,
				"method": "rhf"
			},
			{
				"type": "occ",
				"energy": -0.25284,
				"method": "rhf"
			},
			{
				"type": "occ",
				"energy": -0.24782,
				"method": "rhf"
			},
			{
				"type": "occ",
				"energy": -0.21614,
				"method": "rhf"
			},
			{
				"type": "unocc",
				"energy": -0.05727,
				"method": "rhf"
			},
			{
				"type": "unocc",
				"energy": -0.02637,
				"method": "rhf"
			},
			{
				"type": "unocc",
				"energy": 0.03139,
				"method": "rhf"
			},
			{
				"type": "unocc",
				"energy": 0.03806,
				"method": "rhf"
			},
			{
				"type": "unocc",
				"energy": 0.07064,
				"method": "rhf"
			}
		],
		"cosmo_sigma_profile": { 
			"-0.025": 0.0,
			"-0.024": 0.0,
			"-0.023": 0.0,
			"-0.022": 0.0,
			"-0.021": 0.0,
			"-0.02": 0.0,
			"-0.019": 0.0,
			"-0.018": 0.0,
			"-0.017": 0.0,
			"-0.016": 0.0,
			"-0.015": 0.0,
			"-0.014": 0.292938021131,
			"-0.013": 0.953847159016,
			"-0.012": 1.48058855994,
			"-0.011": 0.951558764424,
			"-0.01": 0.607316225289,
			"-0.009": 0.969385656553,
			"-0.008": 2.0513189698,
			"-0.007": 8.06066388544,
			"-0.006": 14.46737941,
			"-0.005": 17.3438601556,
			"-0.004": 21.6802121039,
			"-0.003": 31.1981303942,
			"-0.002": 31.9672762008,
			"-0.001": 25.9166400804,
			"0.0": 22.3141309742,
			"0.001": 13.726614966,
			"0.002": 16.180556911,
			"0.003": 14.3523749031,
			"0.004": 5.09866565777,
			"0.005": 4.66384877731,
			"0.006": 5.18410324952,
			"0.007": 3.21062154382,
			"0.008": 3.80009140371,
			"0.009": 3.72149576106,
			"0.01": 4.01651165738,
			"0.011": 3.54349611628,
			"0.012": 4.02555411727,
			"0.013": 3.200846185,
			"0.014": 5.52204525075,
			"0.015": 4.40969241097,
			"0.016": 0.56119554048,
			"0.017": 0.0,
			"0.018": 0.0,
			"0.019": 0.0,
			"0.02": 0.0,
			"0.021": 0.0,
			"0.022": 0.0,
			"0.023": 0.0,
			"0.024": 0.0,
			"0.025": 0.0
		}
	}
}
