{
	 "smiles": "CC1=CC(N)=C(NS(C)(=O)=O)C=C1", 
	 "Tm": 390.15, 
	 "num_atms": 25, 
	 "gaussian": { 
		 "optdone": 1, 
		 "sigma_profile": "yes", 
		 "theory": "DFT", 
		 "functional": "B3LYP", 
		 "basiset": "6-31G**", 
		 "properties": { 
			 "R2extent": 3260.9874, 
			 "electric_dipole_moment_norm": 5.00554133936, 
			 "electric_quadrupole_moment_norm": 15.1605126952, 
			 "total_energy": -970.168605883, 
			 "HOMO_LUMO_gap": 0.19874, 
			 "cosmo_polarized_energy": -17.6, 
			 "cosmo_cavitation_energy": 29.4, 
			 "cosmo_dispersion_energy": -21.72, 
			 "cosmo_repulsion_energy": 1.68, 
			 "cosmo_total_nonelectrostatic_energy": 9.36, 
			 "SMD_solvation_energy": 4.82 
		},
		"coords": [
			{
				"x": -0.4111047316,
				"y": -1.0621723606,
				"z": -4.1012488395,
				"element": "C" 
			},
			{
				"x": -0.287112206,
				"y": -0.7645186204,
				"z": -2.6253875124,
				"element": "C" 
			},
			{
				"x": 0.249162482,
				"y": 0.4470921359,
				"z": -2.1880892644,
				"element": "C" 
			},
			{
				"x": 0.3538514967,
				"y": 0.758063653,
				"z": -0.8220306021,
				"element": "C" 
			},
			{
				"x": 0.8519237373,
				"y": 1.989137813,
				"z": -0.3967814384,
				"element": "N" 
			},
			{
				"x": -0.099043205,
				"y": -0.1877652746,
				"z": 0.1214687052,
				"element": "C" 
			},
			{
				"x": 0.0485311009,
				"y": 0.1346626237,
				"z": 1.5169541975,
				"element": "N" 
			},
			{
				"x": -1.3540197659,
				"y": 0.5607068379,
				"z": 2.4222414386,
				"element": "S" 
			},
			{
				"x": -1.4340806762,
				"y": 2.3373596082,
				"z": 2.1517315124,
				"element": "C" 
			},
			{
				"x": -0.978687531,
				"y": 0.2933982614,
				"z": 3.8146377934,
				"element": "O" 
			},
			{
				"x": -2.5615421154,
				"y": -0.0324300954,
				"z": 1.8424722744,
				"element": "O" 
			},
			{
				"x": -0.6402455145,
				"y": -1.4001859007,
				"z": -0.3154830682,
				"element": "C" 
			},
			{
				"x": -0.7292928043,
				"y": -1.694968167,
				"z": -1.6712568566,
				"element": "C" 
			},
			{
				"x": 0.2356818763,
				"y": -0.4142804906,
				"z": -4.6996085645,
				"element": "H" 
			},
			{
				"x": -1.4409733047,
				"y": -0.9101024278,
				"z": -4.4470178448,
				"element": "H" 
			},
			{
				"x": -0.1481212294,
				"y": -2.1017651161,
				"z": -4.3213122144,
				"element": "H" 
			},
			{
				"x": 0.6000086396,
				"y": 1.1732945937,
				"z": -2.9183836038,
				"element": "H" 
			},
			{
				"x": 1.475279212,
				"y": 2.4429520606,
				"z": -1.0506331878,
				"element": "H" 
			},
			{
				"x": 1.2214776286,
				"y": 1.9622860837,
				"z": 0.5457226926,
				"element": "H" 
			},
			{
				"x": 0.5030602947,
				"y": -0.5908824373,
				"z": 2.0689231461,
				"element": "H" 
			},
			{
				"x": -0.5817960364,
				"y": 2.8019406682,
				"z": 2.64748548,
				"element": "H" 
			},
			{
				"x": -2.3723208445,
				"y": 2.6792448633,
				"z": 2.5916645412,
				"element": "H" 
			},
			{
				"x": -1.4136969618,
				"y": 2.5328821531,
				"z": 1.0788419528,
				"element": "H" 
			},
			{
				"x": -0.9967879389,
				"y": -2.1092068548,
				"z": 0.4253770691,
				"element": "H" 
			},
			{
				"x": -1.1484516024,
				"y": -2.6439436103,
				"z": -1.9926878063,
				"element": "H" 
			}
		],
		 "valence_orbital": [ 
			{
				"type": "occ",
				"energy": -0.30747,
				"method": "rhf"
			},
			{
				"type": "occ",
				"energy": -0.29722,
				"method": "rhf"
			},
			{
				"type": "occ",
				"energy": -0.279,
				"method": "rhf"
			},
			{
				"type": "occ",
				"energy": -0.24424,
				"method": "rhf"
			},
			{
				"type": "occ",
				"energy": -0.21053,
				"method": "rhf"
			},
			{
				"type": "unocc",
				"energy": -0.01179,
				"method": "rhf"
			},
			{
				"type": "unocc",
				"energy": 0.00781,
				"method": "rhf"
			},
			{
				"type": "unocc",
				"energy": 0.06166,
				"method": "rhf"
			},
			{
				"type": "unocc",
				"energy": 0.07646,
				"method": "rhf"
			},
			{
				"type": "unocc",
				"energy": 0.08662,
				"method": "rhf"
			}
		],
		"cosmo_sigma_profile": { 
			"-0.025": 0.0,
			"-0.024": 0.0,
			"-0.023": 0.0,
			"-0.022": 0.0,
			"-0.021": 0.0,
			"-0.02": 0.0,
			"-0.019": 0.0,
			"-0.018": 0.0,
			"-0.017": 0.0,
			"-0.016": 0.0,
			"-0.015": 0.119256940973,
			"-0.014": 0.779156111681,
			"-0.013": 1.48595647179,
			"-0.012": 2.27220305671,
			"-0.011": 2.08924055424,
			"-0.01": 3.71587239734,
			"-0.009": 5.33446427233,
			"-0.008": 7.34275465719,
			"-0.007": 7.80407017543,
			"-0.006": 10.1135073241,
			"-0.005": 13.7799511321,
			"-0.004": 18.7422787879,
			"-0.003": 18.0189200236,
			"-0.002": 15.1085429384,
			"-0.001": 14.3234296009,
			"0.0": 15.9228815233,
			"0.001": 10.6205224033,
			"0.002": 9.7852525179,
			"0.003": 8.25319488471,
			"0.004": 7.87897079204,
			"0.005": 10.3649507738,
			"0.006": 9.47288938251,
			"0.007": 4.64512747993,
			"0.008": 4.49762596107,
			"0.009": 4.10355988447,
			"0.01": 6.20625515956,
			"0.011": 12.9420602182,
			"0.012": 6.27025821135,
			"0.013": 0.0817857381657,
			"0.014": 0.0,
			"0.015": 0.0,
			"0.016": 0.0,
			"0.017": 0.0,
			"0.018": 0.0,
			"0.019": 0.0,
			"0.02": 0.0,
			"0.021": 0.0,
			"0.022": 0.0,
			"0.023": 0.0,
			"0.024": 0.0,
			"0.025": 0.0
		}
	}
}
