{
	 "smiles": "C(C1=NCCN1)C1=CC=CC=C1", 
	 "Tm": 447.15, 
	 "num_atms": 24, 
	 "gaussian": { 
		 "optdone": 1, 
		 "sigma_profile": "yes", 
		 "theory": "DFT", 
		 "functional": "B3LYP", 
		 "basiset": "6-31G**", 
		 "properties": { 
			 "R2extent": 2655.1174, 
			 "electric_dipole_moment_norm": 2.60478210989, 
			 "electric_quadrupole_moment_norm": 3.24603972249, 
			 "total_energy": -497.794665418, 
			 "HOMO_LUMO_gap": 0.2067, 
			 "cosmo_polarized_energy": -9.76, 
			 "cosmo_cavitation_energy": 27.01, 
			 "cosmo_dispersion_energy": -19.56, 
			 "cosmo_repulsion_energy": 1.58, 
			 "cosmo_total_nonelectrostatic_energy": 9.03, 
			 "SMD_solvation_energy": -0.58 
		},
		"coords": [
			{
				"x": 0.383748298,
				"y": -0.5042706267,
				"z": 0.5858664333,
				"element": "C" 
			},
			{
				"x": -0.7777492131,
				"y": -0.2247668128,
				"z": -0.3327565927,
				"element": "C" 
			},
			{
				"x": -2.0052865693,
				"y": -0.2379217747,
				"z": 0.0419135469,
				"element": "N" 
			},
			{
				"x": -2.8041895471,
				"y": 0.0448807666,
				"z": -1.1652155454,
				"element": "C" 
			},
			{
				"x": -1.7952188517,
				"y": 0.5506396465,
				"z": -2.2328238577,
				"element": "C" 
			},
			{
				"x": -0.5365800389,
				"y": 0.0215676065,
				"z": -1.6863753734,
				"element": "N" 
			},
			{
				"x": 1.3641323735,
				"y": 0.6548832846,
				"z": 0.6640779826,
				"element": "C" 
			},
			{
				"x": 2.6730999266,
				"y": 0.5332797988,
				"z": 0.1828801746,
				"element": "C" 
			},
			{
				"x": 3.5638163245,
				"y": 1.6080250568,
				"z": 0.2531691983,
				"element": "C" 
			},
			{
				"x": 3.1535954483,
				"y": 2.8209122733,
				"z": 0.8061612436,
				"element": "C" 
			},
			{
				"x": 1.8482533187,
				"y": 2.9537047471,
				"z": 1.2882766722,
				"element": "C" 
			},
			{
				"x": 0.9616629923,
				"y": 1.880385547,
				"z": 1.2163995094,
				"element": "C" 
			},
			{
				"x": -0.0362414093,
				"y": -0.7272499413,
				"z": 1.5702394038,
				"element": "H" 
			},
			{
				"x": 0.9043485623,
				"y": -1.4027500785,
				"z": 0.23406121,
				"element": "H" 
			},
			{
				"x": -3.2943223644,
				"y": -0.8819639268,
				"z": -1.4932014927,
				"element": "H" 
			},
			{
				"x": -3.5941977179,
				"y": 0.7707793085,
				"z": -0.9490339227,
				"element": "H" 
			},
			{
				"x": -1.9953356622,
				"y": 0.1614844552,
				"z": -3.2353756454,
				"element": "H" 
			},
			{
				"x": -1.7801706919,
				"y": 1.6492649393,
				"z": -2.2855316106,
				"element": "H" 
			},
			{
				"x": 0.3194670697,
				"y": 0.5144484842,
				"z": -1.9102370959,
				"element": "H" 
			},
			{
				"x": 3.0007754096,
				"y": -0.4124372279,
				"z": -0.2425402795,
				"element": "H" 
			},
			{
				"x": 4.5770959839,
				"y": 1.4942001445,
				"z": -0.121926695,
				"element": "H" 
			},
			{
				"x": 3.8447874227,
				"y": 3.6568246355,
				"z": 0.8639847288,
				"element": "H" 
			},
			{
				"x": 1.5220189432,
				"y": 3.8947065039,
				"z": 1.7224904416,
				"element": "H" 
			},
			{
				"x": -0.0545100075,
				"y": 1.9854731906,
				"z": 1.588197566,
				"element": "H" 
			}
		],
		 "valence_orbital": [ 
			{
				"type": "occ",
				"energy": -0.31485,
				"method": "rhf"
			},
			{
				"type": "occ",
				"energy": -0.25466,
				"method": "rhf"
			},
			{
				"type": "occ",
				"energy": -0.2529,
				"method": "rhf"
			},
			{
				"type": "occ",
				"energy": -0.24551,
				"method": "rhf"
			},
			{
				"type": "occ",
				"energy": -0.21393,
				"method": "rhf"
			},
			{
				"type": "unocc",
				"energy": -0.00723,
				"method": "rhf"
			},
			{
				"type": "unocc",
				"energy": -0.00562,
				"method": "rhf"
			},
			{
				"type": "unocc",
				"energy": 0.03754,
				"method": "rhf"
			},
			{
				"type": "unocc",
				"energy": 0.08807,
				"method": "rhf"
			},
			{
				"type": "unocc",
				"energy": 0.09775,
				"method": "rhf"
			}
		],
		"cosmo_sigma_profile": { 
			"-0.025": 0.0,
			"-0.024": 0.0,
			"-0.023": 0.0,
			"-0.022": 0.0,
			"-0.021": 0.0,
			"-0.02": 0.0,
			"-0.019": 0.0,
			"-0.018": 0.0,
			"-0.017": 0.0,
			"-0.016": 0.0,
			"-0.015": 0.0,
			"-0.014": 0.0,
			"-0.013": 0.0,
			"-0.012": 0.240128140003,
			"-0.011": 0.796303746923,
			"-0.01": 0.769446889905,
			"-0.009": 0.947001008563,
			"-0.008": 1.18263869766,
			"-0.007": 0.924927514297,
			"-0.006": 7.3580635504,
			"-0.005": 15.3700607635,
			"-0.004": 24.0977952604,
			"-0.003": 28.9400849749,
			"-0.002": 22.3274959315,
			"-0.001": 20.2516266319,
			"0.0": 10.7626897207,
			"0.001": 12.241088791,
			"0.002": 9.88964113962,
			"0.003": 10.7979080405,
			"0.004": 10.5449774604,
			"0.005": 10.9685999002,
			"0.006": 8.0252782269,
			"0.007": 2.07798460405,
			"0.008": 1.42809954743,
			"0.009": 2.42190355718,
			"0.01": 1.32523633089,
			"0.011": 2.03090281421,
			"0.012": 1.53034582042,
			"0.013": 1.38586331753,
			"0.014": 0.163935416027,
			"0.015": 0.801621956747,
			"0.016": 1.37357550112,
			"0.017": 1.12599488284,
			"0.018": 0.856002848538,
			"0.019": 0.581866591971,
			"0.02": 0.00978813178641,
			"0.021": 0.0,
			"0.022": 0.0,
			"0.023": 0.0,
			"0.024": 0.0,
			"0.025": 0.0
		}
	}
}
