{
	 "smiles": "CCN1CC(CC1=O)C(O)=O", 
	 "Tm": 366.15, 
	 "num_atms": 22, 
	 "gaussian": { 
		 "optdone": 1, 
		 "sigma_profile": "yes", 
		 "theory": "DFT", 
		 "functional": "B3LYP", 
		 "basiset": "6-31G**", 
		 "properties": { 
			 "R2extent": 2419.3379, 
			 "electric_dipole_moment_norm": 3.25367917902, 
			 "electric_quadrupole_moment_norm": 10.7875520954, 
			 "total_energy": -553.834279857, 
			 "HOMO_LUMO_gap": 0.23244, 
			 "cosmo_polarized_energy": -15.44, 
			 "cosmo_cavitation_energy": 25.18, 
			 "cosmo_dispersion_energy": -17.98, 
			 "cosmo_repulsion_energy": 1.48, 
			 "cosmo_total_nonelectrostatic_energy": 8.68, 
			 "SMD_solvation_energy": 5.87 
		},
		"coords": [
			{
				"x": 1.950659594,
				"y": -2.9668554333,
				"z": -1.1627561334,
				"element": "C" 
			},
			{
				"x": 1.9228242068,
				"y": -1.4619453768,
				"z": -0.8797803718,
				"element": "C" 
			},
			{
				"x": 0.6439390768,
				"y": -0.996437839,
				"z": -0.3662452603,
				"element": "N" 
			},
			{
				"x": -0.5338258886,
				"y": -0.8373228342,
				"z": -1.2077649701,
				"element": "C" 
			},
			{
				"x": -1.6689515711,
				"y": -0.5510845541,
				"z": -0.2016708813,
				"element": "C" 
			},
			{
				"x": -0.9393456764,
				"y": -0.0003758576,
				"z": 1.0455024197,
				"element": "C" 
			},
			{
				"x": 0.4987091803,
				"y": -0.5041722978,
				"z": 0.9056188536,
				"element": "C" 
			},
			{
				"x": 1.3690994596,
				"y": -0.4579454448,
				"z": 1.7612568363,
				"element": "O" 
			},
			{
				"x": -2.4732015358,
				"y": -1.8099694818,
				"z": 0.0990049638,
				"element": "C" 
			},
			{
				"x": -3.3858821715,
				"y": -1.5872730232,
				"z": 1.0736362518,
				"element": "O" 
			},
			{
				"x": -2.3614684512,
				"y": -2.8811090699,
				"z": -0.4551902874,
				"element": "O" 
			},
			{
				"x": 1.7557658702,
				"y": -3.5335299563,
				"z": -0.2479717029,
				"element": "H" 
			},
			{
				"x": 2.9337446956,
				"y": -3.25883445,
				"z": -1.5463775791,
				"element": "H" 
			},
			{
				"x": 1.2019563822,
				"y": -3.2559449673,
				"z": -1.9071835251,
				"element": "H" 
			},
			{
				"x": 2.6629214509,
				"y": -1.2028564271,
				"z": -0.1180083409,
				"element": "H" 
			},
			{
				"x": 2.1662382412,
				"y": -0.8983748109,
				"z": -1.7914760713,
				"element": "H" 
			},
			{
				"x": -0.4046501166,
				"y": -0.0008987883,
				"z": -1.9109386391,
				"element": "H" 
			},
			{
				"x": -0.7407717847,
				"y": -1.7443783985,
				"z": -1.7812254758,
				"element": "H" 
			},
			{
				"x": -2.3823143724,
				"y": 0.1785657215,
				"z": -0.5986072445,
				"element": "H" 
			},
			{
				"x": -1.3747956605,
				"y": -0.3218344079,
				"z": 1.9924395575,
				"element": "H" 
			},
			{
				"x": -0.9219713137,
				"y": 1.0948394923,
				"z": 1.0494812387,
				"element": "H" 
			},
			{
				"x": -3.8617796151,
				"y": -2.425561795,
				"z": 1.1988563614,
				"element": "H" 
			}
		],
		 "valence_orbital": [ 
			{
				"type": "occ",
				"energy": -0.34359,
				"method": "rhf"
			},
			{
				"type": "occ",
				"energy": -0.32998,
				"method": "rhf"
			},
			{
				"type": "occ",
				"energy": -0.28637,
				"method": "rhf"
			},
			{
				"type": "occ",
				"energy": -0.244,
				"method": "rhf"
			},
			{
				"type": "occ",
				"energy": -0.23761,
				"method": "rhf"
			},
			{
				"type": "unocc",
				"energy": -0.00517,
				"method": "rhf"
			},
			{
				"type": "unocc",
				"energy": 0.03198,
				"method": "rhf"
			},
			{
				"type": "unocc",
				"energy": 0.06724,
				"method": "rhf"
			},
			{
				"type": "unocc",
				"energy": 0.0874,
				"method": "rhf"
			},
			{
				"type": "unocc",
				"energy": 0.09762,
				"method": "rhf"
			}
		],
		"cosmo_sigma_profile": { 
			"-0.025": 0.0,
			"-0.024": 0.0,
			"-0.023": 0.0,
			"-0.022": 0.0,
			"-0.021": 0.0,
			"-0.02": 0.0,
			"-0.019": 0.120884641933,
			"-0.018": 0.990868905789,
			"-0.017": 0.97617526771,
			"-0.016": 0.831348645889,
			"-0.015": 0.776051859769,
			"-0.014": 0.432840940202,
			"-0.013": 0.449976726826,
			"-0.012": 0.810084164521,
			"-0.011": 0.72595164661,
			"-0.01": 0.742361697424,
			"-0.009": 0.80518431738,
			"-0.008": 1.32610266924,
			"-0.007": 5.80274336675,
			"-0.006": 9.01347269196,
			"-0.005": 14.9214404015,
			"-0.004": 19.9754498058,
			"-0.003": 21.4788138844,
			"-0.002": 18.8173021575,
			"-0.001": 15.3891286916,
			"0.0": 14.130799715,
			"0.001": 10.4131107152,
			"0.002": 5.22347294738,
			"0.003": 4.96184242754,
			"0.004": 4.68788199139,
			"0.005": 4.15831519156,
			"0.006": 4.58071570446,
			"0.007": 2.24117855995,
			"0.008": 4.76768712629,
			"0.009": 3.9490341584,
			"0.01": 3.49663114607,
			"0.011": 5.744486443,
			"0.012": 3.77757664406,
			"0.013": 3.29458835994,
			"0.014": 5.707736918,
			"0.015": 1.63906509345,
			"0.016": 0.00973565450738,
			"0.017": 0.0,
			"0.018": 0.0,
			"0.019": 0.0,
			"0.02": 0.0,
			"0.021": 0.0,
			"0.022": 0.0,
			"0.023": 0.0,
			"0.024": 0.0,
			"0.025": 0.0
		}
	}
}
