{
	 "smiles": "CCCCC1=C(C)N2N=C(S)N=C2N=C1C", 
	 "Tm": 522.15, 
	 "num_atms": 32, 
	 "gaussian": { 
		 "optdone": 1, 
		 "sigma_profile": "yes", 
		 "theory": "DFT", 
		 "functional": "B3LYP", 
		 "basiset": "6-31G**", 
		 "properties": { 
			 "R2extent": 6346.1695, 
			 "electric_dipole_moment_norm": 6.34031636829, 
			 "electric_quadrupole_moment_norm": 18.7972366395, 
			 "total_energy": -1046.0167884, 
			 "HOMO_LUMO_gap": 0.17821, 
			 "cosmo_polarized_energy": -14.8, 
			 "cosmo_cavitation_energy": 36.11, 
			 "cosmo_dispersion_energy": -26.16, 
			 "cosmo_repulsion_energy": 2.0, 
			 "cosmo_total_nonelectrostatic_energy": 11.95, 
			 "SMD_solvation_energy": 1.05 
		},
		"coords": [
			{
				"x": -3.4712491419,
				"y": 0.174973121,
				"z": 2.7439107911,
				"element": "C" 
			},
			{
				"x": -2.8647838199,
				"y": -1.057575708,
				"z": 2.0623593125,
				"element": "C" 
			},
			{
				"x": -1.9726412999,
				"y": -0.7431659554,
				"z": 0.8506604196,
				"element": "C" 
			},
			{
				"x": -0.6793735994,
				"y": 0.0247229431,
				"z": 1.2013386642,
				"element": "C" 
			},
			{
				"x": 0.2301911826,
				"y": 0.2487685306,
				"z": 0.0092046036,
				"element": "C" 
			},
			{
				"x": 0.0684260519,
				"y": 1.3526771085,
				"z": -0.8156184815,
				"element": "C" 
			},
			{
				"x": -0.9362500928,
				"y": 2.45605936,
				"z": -0.6906307494,
				"element": "C" 
			},
			{
				"x": 0.9277608822,
				"y": 1.4507428209,
				"z": -1.8711786869,
				"element": "N" 
			},
			{
				"x": 0.9612503631,
				"y": 2.4413545682,
				"z": -2.8057055639,
				"element": "N" 
			},
			{
				"x": 1.9772870161,
				"y": 2.0250749909,
				"z": -3.5768737685,
				"element": "C" 
			},
			{
				"x": 2.5112078563,
				"y": 2.9270683536,
				"z": -4.9951891631,
				"element": "S" 
			},
			{
				"x": 2.589721361,
				"y": 0.875445403,
				"z": -3.2289033352,
				"element": "N" 
			},
			{
				"x": 1.9174061448,
				"y": 0.5060028523,
				"z": -2.1351479867,
				"element": "C" 
			},
			{
				"x": 2.0824753729,
				"y": -0.5666892023,
				"z": -1.3525263424,
				"element": "N" 
			},
			{
				"x": 1.2667295383,
				"y": -0.6944673148,
				"z": -0.3135697297,
				"element": "C" 
			},
			{
				"x": 1.5019655373,
				"y": -1.9134562189,
				"z": 0.5454736753,
				"element": "C" 
			},
			{
				"x": -4.0585870938,
				"y": 0.7693742573,
				"z": 2.0340937178,
				"element": "H" 
			},
			{
				"x": -4.1389055463,
				"y": -0.1175989206,
				"z": 3.5605276085,
				"element": "H" 
			},
			{
				"x": -2.7042374222,
				"y": 0.829369529,
				"z": 3.1713999745,
				"element": "H" 
			},
			{
				"x": -3.6767090908,
				"y": -1.7168229349,
				"z": 1.7311583714,
				"element": "H" 
			},
			{
				"x": -2.2866013155,
				"y": -1.6355462072,
				"z": 2.7963436885,
				"element": "H" 
			},
			{
				"x": -2.5456602713,
				"y": -0.1653326865,
				"z": 0.112797438,
				"element": "H" 
			},
			{
				"x": -1.7015496646,
				"y": -1.6812831303,
				"z": 0.3504235955,
				"element": "H" 
			},
			{
				"x": -0.1366592476,
				"y": -0.5313027478,
				"z": 1.972483824,
				"element": "H" 
			},
			{
				"x": -0.9328989791,
				"y": 0.9858743603,
				"z": 1.6582633356,
				"element": "H" 
			},
			{
				"x": -1.5209742564,
				"y": 2.5334201766,
				"z": -1.612847727,
				"element": "H" 
			},
			{
				"x": -1.6117727594,
				"y": 2.2978160947,
				"z": 0.14802964,
				"element": "H" 
			},
			{
				"x": -0.42621503,
				"y": 3.4175116172,
				"z": -0.5682493963,
				"element": "H" 
			},
			{
				"x": 1.5978106931,
				"y": 3.9068492783,
				"z": -4.8505723632,
				"element": "H" 
			},
			{
				"x": 0.5931251762,
				"y": -2.5124131278,
				"z": 0.66511013,
				"element": "H" 
			},
			{
				"x": 2.2730310902,
				"y": -2.5268401875,
				"z": 0.0789244301,
				"element": "H" 
			},
			{
				"x": 1.840380365,
				"y": -1.6338110234,
				"z": 1.5503100735,
				"element": "H" 
			}
		],
		 "valence_orbital": [ 
			{
				"type": "occ",
				"energy": -0.28575,
				"method": "rhf"
			},
			{
				"type": "occ",
				"energy": -0.28035,
				"method": "rhf"
			},
			{
				"type": "occ",
				"energy": -0.26993,
				"method": "rhf"
			},
			{
				"type": "occ",
				"energy": -0.24486,
				"method": "rhf"
			},
			{
				"type": "occ",
				"energy": -0.22839,
				"method": "rhf"
			},
			{
				"type": "unocc",
				"energy": -0.05018,
				"method": "rhf"
			},
			{
				"type": "unocc",
				"energy": -0.01571,
				"method": "rhf"
			},
			{
				"type": "unocc",
				"energy": 0.02493,
				"method": "rhf"
			},
			{
				"type": "unocc",
				"energy": 0.05151,
				"method": "rhf"
			},
			{
				"type": "unocc",
				"energy": 0.06299,
				"method": "rhf"
			}
		],
		"cosmo_sigma_profile": { 
			"-0.025": 0.0,
			"-0.024": 0.0,
			"-0.023": 0.0,
			"-0.022": 0.0,
			"-0.021": 0.0,
			"-0.02": 0.0,
			"-0.019": 0.0,
			"-0.018": 0.0,
			"-0.017": 0.0,
			"-0.016": 0.0,
			"-0.015": 0.0,
			"-0.014": 0.0,
			"-0.013": 0.0,
			"-0.012": 0.293842707786,
			"-0.011": 1.63199170866,
			"-0.01": 1.38143477612,
			"-0.009": 1.70714120598,
			"-0.008": 0.79764953097,
			"-0.007": 1.23501864814,
			"-0.006": 6.11501876301,
			"-0.005": 15.454484376,
			"-0.004": 25.8491060852,
			"-0.003": 31.2177842447,
			"-0.002": 38.6133146161,
			"-0.001": 36.7020683782,
			"0.0": 27.9825588951,
			"0.001": 22.7143827597,
			"0.002": 14.3356210604,
			"0.003": 10.0753859129,
			"0.004": 8.16102622063,
			"0.005": 7.70431277513,
			"0.006": 6.34191872224,
			"0.007": 6.45847336238,
			"0.008": 2.93651374645,
			"0.009": 3.52639386947,
			"0.01": 3.17430366777,
			"0.011": 3.1735656993,
			"0.012": 3.10545383708,
			"0.013": 2.53697859005,
			"0.014": 2.12936341167,
			"0.015": 1.5063261912,
			"0.016": 0.448411984744,
			"0.017": 0.0,
			"0.018": 0.0,
			"0.019": 0.0,
			"0.02": 0.0,
			"0.021": 0.0,
			"0.022": 0.0,
			"0.023": 0.0,
			"0.024": 0.0,
			"0.025": 0.0
		}
	}
}
