{
	 "smiles": "CC1=CC=CC=C1N=O", 
	 "Tm": 346.65, 
	 "num_atms": 16, 
	 "gaussian": { 
		 "optdone": 1, 
		 "sigma_profile": "yes", 
		 "theory": "DFT", 
		 "functional": "B3LYP", 
		 "basiset": "6-31G**", 
		 "properties": { 
			 "R2extent": 1502.3533, 
			 "electric_dipole_moment_norm": 3.51728034993, 
			 "electric_quadrupole_moment_norm": 11.6800006177, 
			 "total_energy": -400.859561942, 
			 "HOMO_LUMO_gap": 0.11657, 
			 "cosmo_polarized_energy": -6.37, 
			 "cosmo_cavitation_energy": 20.23, 
			 "cosmo_dispersion_energy": -14.9, 
			 "cosmo_repulsion_energy": 1.22, 
			 "cosmo_total_nonelectrostatic_energy": 6.55, 
			 "SMD_solvation_energy": 3.98 
		},
		"coords": [
			{
				"x": 0.6539964271,
				"y": 1.9485556026,
				"z": 1.9296948285,
				"element": "C" 
			},
			{
				"x": 0.4342726162,
				"y": 0.6974848929,
				"z": 1.1136769812,
				"element": "C" 
			},
			{
				"x": 0.7282431565,
				"y": 0.6689037057,
				"z": -0.25490186,
				"element": "C" 
			},
			{
				"x": 0.5309584763,
				"y": -0.486034459,
				"z": -1.0129745115,
				"element": "C" 
			},
			{
				"x": 0.0304644457,
				"y": -1.6530182561,
				"z": -0.4208112401,
				"element": "C" 
			},
			{
				"x": -0.2693078599,
				"y": -1.6511720259,
				"z": 0.9335757595,
				"element": "C" 
			},
			{
				"x": -0.0687730186,
				"y": -0.4877159508,
				"z": 1.691098881,
				"element": "C" 
			},
			{
				"x": -0.3637781043,
				"y": -0.4289509852,
				"z": 3.0962610202,
				"element": "N" 
			},
			{
				"x": -0.7921109262,
				"y": -1.4670856313,
				"z": 3.5829612721,
				"element": "O" 
			},
			{
				"x": -0.2639836081,
				"y": 2.2666386264,
				"z": 2.4311926777,
				"element": "H" 
			},
			{
				"x": 1.3975850624,
				"y": 1.7856770499,
				"z": 2.7157438462,
				"element": "H" 
			},
			{
				"x": 1.0022638275,
				"y": 2.7650210253,
				"z": 1.2917981128,
				"element": "H" 
			},
			{
				"x": 1.1164558769,
				"y": 1.5648086104,
				"z": -0.731621894,
				"element": "H" 
			},
			{
				"x": 0.7681706211,
				"y": -0.4770688935,
				"z": -2.0732136624,
				"element": "H" 
			},
			{
				"x": -0.1207829694,
				"y": -2.5478084936,
				"z": -1.0170351438,
				"element": "H" 
			},
			{
				"x": -0.6597740234,
				"y": -2.5265348178,
				"z": 1.4417549327,
				"element": "H" 
			}
		],
		 "valence_orbital": [ 
			{
				"type": "occ",
				"energy": -0.36557,
				"method": "rhf"
			},
			{
				"type": "occ",
				"energy": -0.35317,
				"method": "rhf"
			},
			{
				"type": "occ",
				"energy": -0.2682,
				"method": "rhf"
			},
			{
				"type": "occ",
				"energy": -0.26109,
				"method": "rhf"
			},
			{
				"type": "occ",
				"energy": -0.21391,
				"method": "rhf"
			},
			{
				"type": "unocc",
				"energy": -0.09734,
				"method": "rhf"
			},
			{
				"type": "unocc",
				"energy": -0.0148,
				"method": "rhf"
			},
			{
				"type": "unocc",
				"energy": 0.01501,
				"method": "rhf"
			},
			{
				"type": "unocc",
				"energy": 0.08841,
				"method": "rhf"
			},
			{
				"type": "unocc",
				"energy": 0.1141,
				"method": "rhf"
			}
		],
		"cosmo_sigma_profile": { 
			"-0.025": 0.0,
			"-0.024": 0.0,
			"-0.023": 0.0,
			"-0.022": 0.0,
			"-0.021": 0.0,
			"-0.02": 0.0,
			"-0.019": 0.0,
			"-0.018": 0.0,
			"-0.017": 0.0,
			"-0.016": 0.0,
			"-0.015": 0.0,
			"-0.014": 0.0,
			"-0.013": 0.0,
			"-0.012": 0.0,
			"-0.011": 0.0,
			"-0.01": 0.0,
			"-0.009": 0.0,
			"-0.008": 0.0679318881746,
			"-0.007": 3.66474844947,
			"-0.006": 8.89209246115,
			"-0.005": 13.7514856405,
			"-0.004": 11.2671703745,
			"-0.003": 11.5448293728,
			"-0.002": 13.7540470989,
			"-0.001": 16.9802887494,
			"0.0": 16.2971050479,
			"0.001": 13.067176196,
			"0.002": 13.2990968068,
			"0.003": 12.5741292364,
			"0.004": 3.79612492853,
			"0.005": 2.68606056012,
			"0.006": 3.04216928572,
			"0.007": 3.28690893971,
			"0.008": 5.23709488368,
			"0.009": 3.46884087469,
			"0.01": 2.60320406501,
			"0.011": 2.14936904267,
			"0.012": 0.258155426826,
			"0.013": 0.0,
			"0.014": 0.0,
			"0.015": 0.0,
			"0.016": 0.0,
			"0.017": 0.0,
			"0.018": 0.0,
			"0.019": 0.0,
			"0.02": 0.0,
			"0.021": 0.0,
			"0.022": 0.0,
			"0.023": 0.0,
			"0.024": 0.0,
			"0.025": 0.0
		}
	}
}
