{
	 "smiles": "FC1=CC(F)=C(Br)C=C1S(Cl)(=O)=O", 
	 "Tm": 308.15, 
	 "num_atms": 15, 
	 "gaussian": { 
		 "optdone": 1, 
		 "sigma_profile": "yes", 
		 "theory": "DFT", 
		 "functional": "B3LYP", 
		 "basiset": "6-31G**", 
		 "properties": { 
			 "R2extent": 4615.8712, 
			 "electric_dipole_moment_norm": 3.78986157135, 
			 "electric_quadrupole_moment_norm": 9.30613190214, 
			 "total_energy": -4009.6575882, 
			 "HOMO_LUMO_gap": 0.17732, 
			 "cosmo_polarized_energy": -8.24, 
			 "cosmo_cavitation_energy": 26.83, 
			 "cosmo_dispersion_energy": -20.32, 
			 "cosmo_repulsion_energy": 1.53, 
			 "cosmo_total_nonelectrostatic_energy": 8.03, 
			 "SMD_solvation_energy": 3.16 
		},
		"coords": [
			{
				"x": -0.0188289465,
				"y": -0.619084279,
				"z": -2.3743508757,
				"element": "F" 
			},
			{
				"x": -0.463180201,
				"y": -0.1405564622,
				"z": -1.2124096177,
				"element": "C" 
			},
			{
				"x": -1.4180937335,
				"y": 0.8660949549,
				"z": -1.2185460278,
				"element": "C" 
			},
			{
				"x": -1.8624362769,
				"y": 1.3697068914,
				"z": -0.0006415688,
				"element": "C" 
			},
			{
				"x": -2.7806392707,
				"y": 2.3356062668,
				"z": -0.0093521745,
				"element": "F" 
			},
			{
				"x": -1.3690998251,
				"y": 0.8914272974,
				"z": 1.2181062737,
				"element": "C" 
			},
			{
				"x": -2.0086915449,
				"y": 1.6152105698,
				"z": 2.8453788156,
				"element": "Br" 
			},
			{
				"x": -0.4107495511,
				"y": -0.1163513481,
				"z": 1.2108159158,
				"element": "C" 
			},
			{
				"x": 0.0401839704,
				"y": -0.6360715964,
				"z": -0.0051253132,
				"element": "C" 
			},
			{
				"x": 1.2252626878,
				"y": -1.9718907755,
				"z": 0.0339409728,
				"element": "S" 
			},
			{
				"x": 2.9557619175,
				"y": -1.0076062698,
				"z": -0.71908693,
				"element": "Cl" 
			},
			{
				"x": 0.8569536822,
				"y": -2.9916857406,
				"z": -0.935081274,
				"element": "O" 
			},
			{
				"x": 1.4990460584,
				"y": -2.2874025335,
				"z": 1.4297719758,
				"element": "O" 
			},
			{
				"x": -1.8088110019,
				"y": 1.2530017729,
				"z": -2.1519329597,
				"element": "H" 
			},
			{
				"x": -0.0111779645,
				"y": -0.5067987481,
				"z": 2.1388127878,
				"element": "H" 
			}
		],
		 "valence_orbital": [ 
			{
				"type": "occ",
				"energy": -0.33993,
				"method": "rhf"
			},
			{
				"type": "occ",
				"energy": -0.32363,
				"method": "rhf"
			},
			{
				"type": "occ",
				"energy": -0.31745,
				"method": "rhf"
			},
			{
				"type": "occ",
				"energy": -0.30699,
				"method": "rhf"
			},
			{
				"type": "occ",
				"energy": -0.27636,
				"method": "rhf"
			},
			{
				"type": "unocc",
				"energy": -0.09904,
				"method": "rhf"
			},
			{
				"type": "unocc",
				"energy": -0.06382,
				"method": "rhf"
			},
			{
				"type": "unocc",
				"energy": -0.05581,
				"method": "rhf"
			},
			{
				"type": "unocc",
				"energy": -0.02671,
				"method": "rhf"
			},
			{
				"type": "unocc",
				"energy": 0.03187,
				"method": "rhf"
			}
		],
		"cosmo_sigma_profile": { 
			"-0.025": 0.0,
			"-0.024": 0.0,
			"-0.023": 0.0,
			"-0.022": 0.0,
			"-0.021": 0.0,
			"-0.02": 0.0,
			"-0.019": 0.0,
			"-0.018": 0.0,
			"-0.017": 0.0,
			"-0.016": 0.0,
			"-0.015": 0.0,
			"-0.014": 0.0,
			"-0.013": 0.0,
			"-0.012": 0.00133223968092,
			"-0.011": 1.52570315593,
			"-0.01": 1.50405120098,
			"-0.009": 2.88436696514,
			"-0.008": 3.04987682366,
			"-0.007": 3.36726105694,
			"-0.006": 6.14442687209,
			"-0.005": 8.2664540153,
			"-0.004": 18.3188308962,
			"-0.003": 22.4826172653,
			"-0.002": 18.3862063292,
			"-0.001": 13.3260979889,
			"0.0": 12.951357959,
			"0.001": 17.9139268245,
			"0.002": 34.1793135258,
			"0.003": 27.0718134209,
			"0.004": 5.68028292078,
			"0.005": 3.25905430583,
			"0.006": 4.69531592271,
			"0.007": 9.03302570615,
			"0.008": 8.12461443409,
			"0.009": 1.09613851199,
			"0.01": 0.0,
			"0.011": 0.0,
			"0.012": 0.0,
			"0.013": 0.0,
			"0.014": 0.0,
			"0.015": 0.0,
			"0.016": 0.0,
			"0.017": 0.0,
			"0.018": 0.0,
			"0.019": 0.0,
			"0.02": 0.0,
			"0.021": 0.0,
			"0.022": 0.0,
			"0.023": 0.0,
			"0.024": 0.0,
			"0.025": 0.0
		}
	}
}
