{
	 "smiles": "NC1=CC=C(C=C1)C(O)=O", 
	 "Tm": 461.15, 
	 "num_atms": 17, 
	 "gaussian": { 
		 "optdone": 1, 
		 "sigma_profile": "yes", 
		 "theory": "DFT", 
		 "functional": "B3LYP", 
		 "basiset": "6-31G**", 
		 "properties": { 
			 "R2extent": 1719.6988, 
			 "electric_dipole_moment_norm": 6.60565816251, 
			 "electric_quadrupole_moment_norm": 9.1377761277, 
			 "total_energy": -476.176779796, 
			 "HOMO_LUMO_gap": 0.18739, 
			 "cosmo_polarized_energy": -19.05, 
			 "cosmo_cavitation_energy": 21.42, 
			 "cosmo_dispersion_energy": -16.11, 
			 "cosmo_repulsion_energy": 1.31, 
			 "cosmo_total_nonelectrostatic_energy": 6.62, 
			 "SMD_solvation_energy": 4.83 
		},
		"coords": [
			{
				"x": 1.0206768573,
				"y": 3.3019871518,
				"z": 0.8246890708,
				"element": "N" 
			},
			{
				"x": 0.4319858925,
				"y": 2.0899337158,
				"z": 0.5073004759,
				"element": "C" 
			},
			{
				"x": 0.8260103417,
				"y": 0.9045994035,
				"z": 1.1616529559,
				"element": "C" 
			},
			{
				"x": 0.2018540097,
				"y": -0.2985255245,
				"z": 0.8758984507,
				"element": "C" 
			},
			{
				"x": -0.8475411741,
				"y": -0.3699894495,
				"z": -0.0547043301,
				"element": "C" 
			},
			{
				"x": -1.2286004666,
				"y": 0.8085948886,
				"z": -0.7149939127,
				"element": "C" 
			},
			{
				"x": -0.6036992074,
				"y": 2.0189816931,
				"z": -0.4440859465,
				"element": "C" 
			},
			{
				"x": -1.4625865944,
				"y": -1.7025908361,
				"z": -0.311844135,
				"element": "C" 
			},
			{
				"x": -2.6762885506,
				"y": -1.71212131,
				"z": -0.9356897944,
				"element": "O" 
			},
			{
				"x": -0.9464848272,
				"y": -2.7518238981,
				"z": 0.0018129392,
				"element": "O" 
			},
			{
				"x": 1.9297191003,
				"y": 3.263745447,
				"z": 1.2619698187,
				"element": "H" 
			},
			{
				"x": 0.93323552,
				"y": 4.0427225879,
				"z": 0.1445439699,
				"element": "H" 
			},
			{
				"x": 1.6271664795,
				"y": 0.9410450914,
				"z": 1.8954647676,
				"element": "H" 
			},
			{
				"x": 0.5126447772,
				"y": -1.2139535175,
				"z": 1.3680855202,
				"element": "H" 
			},
			{
				"x": -1.9954618158,
				"y": 0.7913623796,
				"z": -1.486491108,
				"element": "H" 
			},
			{
				"x": -0.9090089297,
				"y": 2.9181170808,
				"z": -0.972781496,
				"element": "H" 
			},
			{
				"x": -3.0423214123,
				"y": -0.8176849039,
				"z": -0.9593272461,
				"element": "H" 
			}
		],
		 "valence_orbital": [ 
			{
				"type": "occ",
				"energy": -0.32646,
				"method": "rhf"
			},
			{
				"type": "occ",
				"energy": -0.30122,
				"method": "rhf"
			},
			{
				"type": "occ",
				"energy": -0.26582,
				"method": "rhf"
			},
			{
				"type": "occ",
				"energy": -0.26058,
				"method": "rhf"
			},
			{
				"type": "occ",
				"energy": -0.22003,
				"method": "rhf"
			},
			{
				"type": "unocc",
				"energy": -0.03264,
				"method": "rhf"
			},
			{
				"type": "unocc",
				"energy": -0.01465,
				"method": "rhf"
			},
			{
				"type": "unocc",
				"energy": 0.058,
				"method": "rhf"
			},
			{
				"type": "unocc",
				"energy": 0.06682,
				"method": "rhf"
			},
			{
				"type": "unocc",
				"energy": 0.07345,
				"method": "rhf"
			}
		],
		"cosmo_sigma_profile": { 
			"-0.025": 0.0,
			"-0.024": 0.0,
			"-0.023": 0.0,
			"-0.022": 0.0,
			"-0.021": 0.0,
			"-0.02": 0.0,
			"-0.019": 0.00154049600944,
			"-0.018": 0.396906313092,
			"-0.017": 1.22631067223,
			"-0.016": 0.777628502963,
			"-0.015": 0.626908672156,
			"-0.014": 1.52370883041,
			"-0.013": 3.20980168618,
			"-0.012": 4.01249036439,
			"-0.011": 4.74737472009,
			"-0.01": 3.85639214898,
			"-0.009": 3.72391485801,
			"-0.008": 4.73141987977,
			"-0.007": 5.47490899501,
			"-0.006": 7.36225379482,
			"-0.005": 8.02135304654,
			"-0.004": 7.14163533709,
			"-0.003": 7.25097389103,
			"-0.002": 6.47468148893,
			"-0.001": 6.98551040393,
			"0.0": 7.41165254383,
			"0.001": 8.28059685216,
			"0.002": 7.87140186354,
			"0.003": 10.5738095012,
			"0.004": 14.9865819845,
			"0.005": 9.15854281484,
			"0.006": 3.51112290339,
			"0.007": 3.08730221755,
			"0.008": 3.29039165231,
			"0.009": 3.41020662849,
			"0.01": 4.30720194302,
			"0.011": 5.74430943553,
			"0.012": 6.2233026279,
			"0.013": 4.12574035525,
			"0.014": 1.09565962487,
			"0.015": 0.0,
			"0.016": 0.0,
			"0.017": 0.0,
			"0.018": 0.0,
			"0.019": 0.0,
			"0.02": 0.0,
			"0.021": 0.0,
			"0.022": 0.0,
			"0.023": 0.0,
			"0.024": 0.0,
			"0.025": 0.0
		}
	}
}
