{
	 "smiles": "CCOCCNC(N)=O", 
	 "Tm": 334.15, 
	 "num_atms": 21, 
	 "gaussian": { 
		 "optdone": 1, 
		 "sigma_profile": "yes", 
		 "theory": "DFT", 
		 "functional": "B3LYP", 
		 "basiset": "6-31G**", 
		 "properties": { 
			 "R2extent": 2313.1487, 
			 "electric_dipole_moment_norm": 3.34336946208, 
			 "electric_quadrupole_moment_norm": 15.7734306931, 
			 "total_energy": -457.731906253, 
			 "HOMO_LUMO_gap": 0.29602, 
			 "cosmo_polarized_energy": -14.67, 
			 "cosmo_cavitation_energy": 24.22, 
			 "cosmo_dispersion_energy": -17.61, 
			 "cosmo_repulsion_energy": 1.5, 
			 "cosmo_total_nonelectrostatic_energy": 8.11, 
			 "SMD_solvation_energy": 4.41 
		},
		"coords": [
			{
				"x": 1.379830112,
				"y": 0.2892214476,
				"z": 2.9182036375,
				"element": "C" 
			},
			{
				"x": 0.445885775,
				"y": -0.7395462316,
				"z": 2.2857625563,
				"element": "C" 
			},
			{
				"x": 0.3266989877,
				"y": -0.5671396759,
				"z": 0.8748300098,
				"element": "O" 
			},
			{
				"x": -0.6487573791,
				"y": 0.3903705961,
				"z": 0.4639513189,
				"element": "C" 
			},
			{
				"x": -2.0177153935,
				"y": -0.2656862034,
				"z": 0.2738895154,
				"element": "C" 
			},
			{
				"x": -1.9471139364,
				"y": -1.3854829931,
				"z": -0.6524229867,
				"element": "N" 
			},
			{
				"x": -2.3930367487,
				"y": -1.2288271313,
				"z": -1.9531190115,
				"element": "C" 
			},
			{
				"x": -2.0298086383,
				"y": -2.2732146034,
				"z": -2.7977486092,
				"element": "N" 
			},
			{
				"x": -3.0414567512,
				"y": -0.2653025712,
				"z": -2.3416714699,
				"element": "O" 
			},
			{
				"x": 1.4908415621,
				"y": 0.096896599,
				"z": 3.9910316436,
				"element": "H" 
			},
			{
				"x": 0.9969524781,
				"y": 1.3079303029,
				"z": 2.7990586936,
				"element": "H" 
			},
			{
				"x": 2.3682722477,
				"y": 0.2408653155,
				"z": 2.4523747971,
				"element": "H" 
			},
			{
				"x": -0.5426430282,
				"y": -0.7117466507,
				"z": 2.7686654219,
				"element": "H" 
			},
			{
				"x": 0.8465977887,
				"y": -1.7487985425,
				"z": 2.4306421311,
				"element": "H" 
			},
			{
				"x": -0.30001542,
				"y": 0.7948481413,
				"z": -0.4920041759,
				"element": "H" 
			},
			{
				"x": -0.7201614087,
				"y": 1.2230093375,
				"z": 1.1782793239,
				"element": "H" 
			},
			{
				"x": -2.4054355699,
				"y": -0.615280508,
				"z": 1.2394907703,
				"element": "H" 
			},
			{
				"x": -2.7294872407,
				"y": 0.4540624559,
				"z": -0.1373521579,
				"element": "H" 
			},
			{
				"x": -1.1385071364,
				"y": -1.9789736171,
				"z": -0.5139361083,
				"element": "H" 
			},
			{
				"x": -2.543637053,
				"y": -2.2606229933,
				"z": -3.6672501162,
				"element": "H" 
			},
			{
				"x": -1.930503247,
				"y": -3.1918824742,
				"z": -2.3878751839,
				"element": "H" 
			}
		],
		 "valence_orbital": [ 
			{
				"type": "occ",
				"energy": -0.31117,
				"method": "rhf"
			},
			{
				"type": "occ",
				"energy": -0.27019,
				"method": "rhf"
			},
			{
				"type": "occ",
				"energy": -0.26386,
				"method": "rhf"
			},
			{
				"type": "occ",
				"energy": -0.25006,
				"method": "rhf"
			},
			{
				"type": "occ",
				"energy": -0.23655,
				"method": "rhf"
			},
			{
				"type": "unocc",
				"energy": 0.05947,
				"method": "rhf"
			},
			{
				"type": "unocc",
				"energy": 0.07432,
				"method": "rhf"
			},
			{
				"type": "unocc",
				"energy": 0.08959,
				"method": "rhf"
			},
			{
				"type": "unocc",
				"energy": 0.11758,
				"method": "rhf"
			},
			{
				"type": "unocc",
				"energy": 0.12318,
				"method": "rhf"
			}
		],
		"cosmo_sigma_profile": { 
			"-0.025": 0.0,
			"-0.024": 0.0,
			"-0.023": 0.0,
			"-0.022": 0.0,
			"-0.021": 0.0,
			"-0.02": 0.0,
			"-0.019": 0.0,
			"-0.018": 0.0,
			"-0.017": 0.0,
			"-0.016": 0.0,
			"-0.015": 0.0,
			"-0.014": 0.420741674297,
			"-0.013": 2.87003076993,
			"-0.012": 3.41849279639,
			"-0.011": 2.53111314521,
			"-0.01": 2.51068880232,
			"-0.009": 2.73401531656,
			"-0.008": 2.45154847791,
			"-0.007": 2.73801668876,
			"-0.006": 1.77789061658,
			"-0.005": 7.79111212547,
			"-0.004": 20.0771095346,
			"-0.003": 19.7779872237,
			"-0.002": 22.6440244787,
			"-0.001": 17.3347915021,
			"0.0": 12.9182107546,
			"0.001": 11.215015098,
			"0.002": 5.73443570892,
			"0.003": 4.09582082298,
			"0.004": 5.00574385178,
			"0.005": 5.09031311206,
			"0.006": 4.37820233907,
			"0.007": 3.33796138878,
			"0.008": 3.65754334601,
			"0.009": 4.04623173387,
			"0.01": 1.83178032593,
			"0.011": 2.48063243128,
			"0.012": 3.30439633802,
			"0.013": 3.13452582775,
			"0.014": 5.50897261443,
			"0.015": 3.3225561057,
			"0.016": 0.0362067623662,
			"0.017": 0.0,
			"0.018": 0.0,
			"0.019": 0.0,
			"0.02": 0.0,
			"0.021": 0.0,
			"0.022": 0.0,
			"0.023": 0.0,
			"0.024": 0.0,
			"0.025": 0.0
		}
	}
}
