{
	 "smiles": "CS(=O)(=O)C1=C(Br)C=CC(=C1)C(O)=O", 
	 "Tm": 510.15, 
	 "num_atms": 21, 
	 "gaussian": { 
		 "optdone": 1, 
		 "sigma_profile": "yes", 
		 "theory": "DFT", 
		 "functional": "B3LYP", 
		 "basiset": "6-31G**", 
		 "properties": { 
			 "R2extent": 7014.217, 
			 "electric_dipole_moment_norm": 3.73916384236, 
			 "electric_quadrupole_moment_norm": 27.0250650086, 
			 "total_energy": -3579.49098276, 
			 "HOMO_LUMO_gap": 0.19728, 
			 "cosmo_polarized_energy": -21.7, 
			 "cosmo_cavitation_energy": 29.11, 
			 "cosmo_dispersion_energy": -21.97, 
			 "cosmo_repulsion_energy": 1.66, 
			 "cosmo_total_nonelectrostatic_energy": 8.8, 
			 "SMD_solvation_energy": 5.09 
		},
		"coords": [
			{
				"x": -3.8436841169,
				"y": -2.7223635069,
				"z": -1.1124877884,
				"element": "C" 
			},
			{
				"x": -2.0479755479,
				"y": -2.8955514271,
				"z": -1.1192815833,
				"element": "S" 
			},
			{
				"x": -1.6550741612,
				"y": -3.7457155487,
				"z": -2.2473558693,
				"element": "O" 
			},
			{
				"x": -1.6368269446,
				"y": -3.2397379909,
				"z": 0.2519235035,
				"element": "O" 
			},
			{
				"x": -1.4286840518,
				"y": -1.2052556163,
				"z": -1.4084186829,
				"element": "C" 
			},
			{
				"x": -1.5708392351,
				"y": -0.4837323932,
				"z": -2.6006461838,
				"element": "C" 
			},
			{
				"x": -2.5121936473,
				"y": -1.1521073609,
				"z": -4.1143789166,
				"element": "Br" 
			},
			{
				"x": -1.0176328804,
				"y": 0.796156839,
				"z": -2.7093955388,
				"element": "C" 
			},
			{
				"x": -0.3152152216,
				"y": 1.3469340205,
				"z": -1.6444939782,
				"element": "C" 
			},
			{
				"x": -0.1414578166,
				"y": 0.6245972894,
				"z": -0.4572213537,
				"element": "C" 
			},
			{
				"x": -0.7139081292,
				"y": -0.6447220769,
				"z": -0.3469699418,
				"element": "C" 
			},
			{
				"x": 0.6232369213,
				"y": 1.283962316,
				"z": 0.6558183149,
				"element": "C" 
			},
			{
				"x": 1.0913642716,
				"y": 0.4856030485,
				"z": 1.6450425409,
				"element": "O" 
			},
			{
				"x": 0.8209642856,
				"y": 2.4754585844,
				"z": 0.6873153327,
				"element": "O" 
			},
			{
				"x": -4.2353865419,
				"y": -3.7268833333,
				"z": -0.9386883662,
				"element": "H" 
			},
			{
				"x": -4.1289536013,
				"y": -2.0563092844,
				"z": -0.2971842886,
				"element": "H" 
			},
			{
				"x": -4.1765009128,
				"y": -2.3444557183,
				"z": -2.0788793081,
				"element": "H" 
			},
			{
				"x": -1.1420753718,
				"y": 1.35039813,
				"z": -3.6324476918,
				"element": "H" 
			},
			{
				"x": 0.1096599739,
				"y": 2.3423630738,
				"z": -1.7143595789,
				"element": "H" 
			},
			{
				"x": -0.6514840246,
				"y": -1.2341942066,
				"z": 0.563002367,
				"element": "H" 
			},
			{
				"x": 0.9947667528,
				"y": -0.449544838,
				"z": 1.4169070115,
				"element": "H" 
			}
		],
		 "valence_orbital": [ 
			{
				"type": "occ",
				"energy": -0.3121,
				"method": "rhf"
			},
			{
				"type": "occ",
				"energy": -0.30712,
				"method": "rhf"
			},
			{
				"type": "occ",
				"energy": -0.29751,
				"method": "rhf"
			},
			{
				"type": "occ",
				"energy": -0.29028,
				"method": "rhf"
			},
			{
				"type": "occ",
				"energy": -0.27835,
				"method": "rhf"
			},
			{
				"type": "unocc",
				"energy": -0.08107,
				"method": "rhf"
			},
			{
				"type": "unocc",
				"energy": -0.06166,
				"method": "rhf"
			},
			{
				"type": "unocc",
				"energy": -0.02861,
				"method": "rhf"
			},
			{
				"type": "unocc",
				"energy": 0.0162,
				"method": "rhf"
			},
			{
				"type": "unocc",
				"energy": 0.05014,
				"method": "rhf"
			}
		],
		"cosmo_sigma_profile": { 
			"-0.025": 0.0,
			"-0.024": 0.0,
			"-0.023": 0.0,
			"-0.022": 0.0,
			"-0.021": 0.0,
			"-0.02": 0.242041302536,
			"-0.019": 0.828396763924,
			"-0.018": 1.04040001284,
			"-0.017": 1.05735070949,
			"-0.016": 1.03281819047,
			"-0.015": 0.868209452166,
			"-0.014": 0.922778864865,
			"-0.013": 0.915633307078,
			"-0.012": 1.22030899829,
			"-0.011": 0.784818320463,
			"-0.01": 1.96382254738,
			"-0.009": 6.42833591855,
			"-0.008": 8.19995521332,
			"-0.007": 10.3011452457,
			"-0.006": 12.8850226056,
			"-0.005": 14.2384315894,
			"-0.004": 15.1323005783,
			"-0.003": 12.9435329929,
			"-0.002": 15.7340471833,
			"-0.001": 20.020942803,
			"0.0": 14.8278584007,
			"0.001": 9.92060500559,
			"0.002": 10.3373144481,
			"0.003": 7.81038697135,
			"0.004": 4.31968193956,
			"0.005": 4.88040197181,
			"0.006": 4.60597392073,
			"0.007": 5.56819167144,
			"0.008": 6.39857183759,
			"0.009": 8.39732357286,
			"0.01": 11.7335861896,
			"0.011": 15.3344547792,
			"0.012": 5.44921912525,
			"0.013": 0.431762002812,
			"0.014": 0.0,
			"0.015": 0.0,
			"0.016": 0.0,
			"0.017": 0.0,
			"0.018": 0.0,
			"0.019": 0.0,
			"0.02": 0.0,
			"0.021": 0.0,
			"0.022": 0.0,
			"0.023": 0.0,
			"0.024": 0.0,
			"0.025": 0.0
		}
	}
}
