{
	 "smiles": "CS(=O)(=O)C1=CN=CC=C1", 
	 "Tm": 328.15, 
	 "num_atms": 17, 
	 "gaussian": { 
		 "optdone": 1, 
		 "sigma_profile": "yes", 
		 "theory": "DFT", 
		 "functional": "B3LYP", 
		 "basiset": "6-31G**", 
		 "properties": { 
			 "R2extent": 1686.2037, 
			 "electric_dipole_moment_norm": 4.59206545467, 
			 "electric_quadrupole_moment_norm": 13.7439746602, 
			 "total_energy": -836.167830531, 
			 "HOMO_LUMO_gap": 0.21553, 
			 "cosmo_polarized_energy": -15.63, 
			 "cosmo_cavitation_energy": 22.58, 
			 "cosmo_dispersion_energy": -17.05, 
			 "cosmo_repulsion_energy": 1.32, 
			 "cosmo_total_nonelectrostatic_energy": 6.86, 
			 "SMD_solvation_energy": 2.34 
		},
		"coords": [
			{
				"x": 1.1073011817,
				"y": -1.7324930986,
				"z": 0.6272250116,
				"element": "C" 
			},
			{
				"x": 0.4655819307,
				"y": -0.8966651907,
				"z": -0.8424058195,
				"element": "S" 
			},
			{
				"x": 1.5873929889,
				"y": -0.1894951773,
				"z": -1.4758964398,
				"element": "O" 
			},
			{
				"x": -0.3483398327,
				"y": -1.8691465626,
				"z": -1.5873982796,
				"element": "O" 
			},
			{
				"x": -0.6555985463,
				"y": 0.341284341,
				"z": -0.1695120791,
				"element": "C" 
			},
			{
				"x": -0.1702499647,
				"y": 1.5929188256,
				"z": 0.2203977339,
				"element": "C" 
			},
			{
				"x": -0.9597696332,
				"y": 2.5461132286,
				"z": 0.726485716,
				"element": "N" 
			},
			{
				"x": -2.265401161,
				"y": 2.2683623282,
				"z": 0.8410350011,
				"element": "C" 
			},
			{
				"x": -2.8428461615,
				"y": 1.0552551368,
				"z": 0.4571443675,
				"element": "C" 
			},
			{
				"x": -2.0175373493,
				"y": 0.0612983085,
				"z": -0.0635531073,
				"element": "C" 
			},
			{
				"x": 1.6399002478,
				"y": -1.0111740321,
				"z": 1.248537444,
				"element": "H" 
			},
			{
				"x": 0.2802732998,
				"y": -2.1902679052,
				"z": 1.1717296934,
				"element": "H" 
			},
			{
				"x": 1.7937225818,
				"y": -2.5001153831,
				"z": 0.2636419009,
				"element": "H" 
			},
			{
				"x": 0.8838923391,
				"y": 1.8325338712,
				"z": 0.1032794046,
				"element": "H" 
			},
			{
				"x": -2.8848772683,
				"y": 3.0612586834,
				"z": 1.2558039517,
				"element": "H" 
			},
			{
				"x": -3.9118320514,
				"y": 0.8993561531,
				"z": 0.5595012385,
				"element": "H" 
			},
			{
				"x": -2.4046126015,
				"y": -0.8960235267,
				"z": -0.3975157379,
				"element": "H" 
			}
		],
		 "valence_orbital": [ 
			{
				"type": "occ",
				"energy": -0.31406,
				"method": "rhf"
			},
			{
				"type": "occ",
				"energy": -0.30346,
				"method": "rhf"
			},
			{
				"type": "occ",
				"energy": -0.30171,
				"method": "rhf"
			},
			{
				"type": "occ",
				"energy": -0.28857,
				"method": "rhf"
			},
			{
				"type": "occ",
				"energy": -0.27222,
				"method": "rhf"
			},
			{
				"type": "unocc",
				"energy": -0.05669,
				"method": "rhf"
			},
			{
				"type": "unocc",
				"energy": -0.0441,
				"method": "rhf"
			},
			{
				"type": "unocc",
				"energy": 0.06017,
				"method": "rhf"
			},
			{
				"type": "unocc",
				"energy": 0.06817,
				"method": "rhf"
			},
			{
				"type": "unocc",
				"energy": 0.08638,
				"method": "rhf"
			}
		],
		"cosmo_sigma_profile": { 
			"-0.025": 0.0,
			"-0.024": 0.0,
			"-0.023": 0.0,
			"-0.022": 0.0,
			"-0.021": 0.0,
			"-0.02": 0.0,
			"-0.019": 0.0,
			"-0.018": 0.0,
			"-0.017": 0.0,
			"-0.016": 0.0,
			"-0.015": 0.0,
			"-0.014": 0.0,
			"-0.013": 0.0,
			"-0.012": 0.0,
			"-0.011": 0.0,
			"-0.01": 0.0805893107367,
			"-0.009": 4.71174672455,
			"-0.008": 12.0080497539,
			"-0.007": 14.5049081386,
			"-0.006": 13.7691533627,
			"-0.005": 11.5099435362,
			"-0.004": 12.4857235025,
			"-0.003": 9.0998080433,
			"-0.002": 8.63514444659,
			"-0.001": 11.9382000079,
			"0.0": 13.997917199,
			"0.001": 10.111653408,
			"0.002": 4.54614558962,
			"0.003": 4.32027596523,
			"0.004": 3.4704831724,
			"0.005": 3.29576848942,
			"0.006": 3.97644761792,
			"0.007": 3.179729175,
			"0.008": 3.93744914393,
			"0.009": 4.32503316792,
			"0.01": 6.2601833918,
			"0.011": 10.7390353183,
			"0.012": 7.45862897331,
			"0.013": 0.823220860685,
			"0.014": 0.874802683772,
			"0.015": 0.89660545738,
			"0.016": 0.0503468652909,
			"0.017": 0.0,
			"0.018": 0.0,
			"0.019": 0.0,
			"0.02": 0.0,
			"0.021": 0.0,
			"0.022": 0.0,
			"0.023": 0.0,
			"0.024": 0.0,
			"0.025": 0.0
		}
	}
}
