{
	 "smiles": "CC(=O)NCC1=CC=C(C=C1)C(=O)N1CCCC1C(O)=O", 
	 "Tm": 470.15, 
	 "num_atms": 39, 
	 "gaussian": { 
		 "optdone": 1, 
		 "sigma_profile": "yes", 
		 "theory": "DFT", 
		 "functional": "B3LYP", 
		 "basiset": "6-31G**", 
		 "properties": { 
			 "R2extent": 9282.7131, 
			 "electric_dipole_moment_norm": 5.61431115276, 
			 "electric_quadrupole_moment_norm": 26.4704290485, 
			 "total_energy": -992.892952348, 
			 "HOMO_LUMO_gap": 0.20675, 
			 "cosmo_polarized_energy": -26.2, 
			 "cosmo_cavitation_energy": 42.92, 
			 "cosmo_dispersion_energy": -29.52, 
			 "cosmo_repulsion_energy": 2.31, 
			 "cosmo_total_nonelectrostatic_energy": 15.71, 
			 "SMD_solvation_energy": 8.47 
		},
		"coords": [
			{
				"x": -5.0200951672,
				"y": 2.832364782,
				"z": 0.8920613017,
				"element": "C" 
			},
			{
				"x": -4.3326646612,
				"y": 2.3011200936,
				"z": -0.3567121982,
				"element": "C" 
			},
			{
				"x": -4.7398727562,
				"y": 1.3051014336,
				"z": -0.9450206042,
				"element": "O" 
			},
			{
				"x": -3.2451907803,
				"y": 3.0167952025,
				"z": -0.7794251657,
				"element": "N" 
			},
			{
				"x": -2.444285955,
				"y": 2.5998302776,
				"z": -1.928629959,
				"element": "C" 
			},
			{
				"x": -1.2253368124,
				"y": 1.7757029935,
				"z": -1.5570963773,
				"element": "C" 
			},
			{
				"x": 0.0650735316,
				"y": 2.3076072038,
				"z": -1.661587291,
				"element": "C" 
			},
			{
				"x": 1.1809535994,
				"y": 1.546385548,
				"z": -1.3175286251,
				"element": "C" 
			},
			{
				"x": 1.0236195503,
				"y": 0.2444655515,
				"z": -0.82887188,
				"element": "C" 
			},
			{
				"x": -0.2666906342,
				"y": -0.2987401166,
				"z": -0.7390405756,
				"element": "C" 
			},
			{
				"x": -1.3783134345,
				"y": 0.4567904063,
				"z": -1.1044925361,
				"element": "C" 
			},
			{
				"x": 2.2617181186,
				"y": -0.5578640213,
				"z": -0.5408141951,
				"element": "C" 
			},
			{
				"x": 3.1961228374,
				"y": -0.5787878905,
				"z": -1.3411100108,
				"element": "O" 
			},
			{
				"x": 2.3184136404,
				"y": -1.264132537,
				"z": 0.6353661308,
				"element": "N" 
			},
			{
				"x": 1.4705461577,
				"y": -1.0938807734,
				"z": 1.8307254182,
				"element": "C" 
			},
			{
				"x": 2.0646839851,
				"y": -2.0945217416,
				"z": 2.8332400411,
				"element": "C" 
			},
			{
				"x": 3.5511410964,
				"y": -2.1495675022,
				"z": 2.449675991,
				"element": "C" 
			},
			{
				"x": 3.5141041625,
				"y": -2.0574066527,
				"z": 0.9071062859,
				"element": "C" 
			},
			{
				"x": 3.39941674,
				"y": -3.4440858978,
				"z": 0.2744917654,
				"element": "C" 
			},
			{
				"x": 4.6176754673,
				"y": -4.0239034276,
				"z": 0.1681486434,
				"element": "O" 
			},
			{
				"x": 2.3728910651,
				"y": -3.9943102632,
				"z": -0.0518991262,
				"element": "O" 
			},
			{
				"x": -6.0777304665,
				"y": 2.9904785688,
				"z": 0.6663090486,
				"element": "H" 
			},
			{
				"x": -4.9652065301,
				"y": 2.0708496768,
				"z": 1.6752771376,
				"element": "H" 
			},
			{
				"x": -4.5930171522,
				"y": 3.7649544506,
				"z": 1.2712174019,
				"element": "H" 
			},
			{
				"x": -2.8825113555,
				"y": 3.7473549231,
				"z": -0.1855568321,
				"element": "H" 
			},
			{
				"x": -3.1153229689,
				"y": 2.0169308438,
				"z": -2.5642266666,
				"element": "H" 
			},
			{
				"x": -2.1396271851,
				"y": 3.4940250077,
				"z": -2.4824247451,
				"element": "H" 
			},
			{
				"x": 0.2003629147,
				"y": 3.3216202285,
				"z": -2.0312935934,
				"element": "H" 
			},
			{
				"x": 2.1827567841,
				"y": 1.9474132767,
				"z": -1.4334957501,
				"element": "H" 
			},
			{
				"x": -0.3965439021,
				"y": -1.3300108669,
				"z": -0.4248013145,
				"element": "H" 
			},
			{
				"x": -2.3754473059,
				"y": 0.0292601408,
				"z": -1.0504533814,
				"element": "H" 
			},
			{
				"x": 0.4212572531,
				"y": -1.3035615535,
				"z": 1.6200309647,
				"element": "H" 
			},
			{
				"x": 1.538124251,
				"y": -0.0631153521,
				"z": 2.2042538487,
				"element": "H" 
			},
			{
				"x": 1.6047846458,
				"y": -3.077033999,
				"z": 2.6877898383,
				"element": "H" 
			},
			{
				"x": 1.8972562812,
				"y": -1.7902874679,
				"z": 3.8697894171,
				"element": "H" 
			},
			{
				"x": 4.0860370341,
				"y": -1.2793983307,
				"z": 2.8447399965,
				"element": "H" 
			},
			{
				"x": 4.0641534754,
				"y": -3.046771475,
				"z": 2.8041085695,
				"element": "H" 
			},
			{
				"x": 4.397511094,
				"y": -1.5703024336,
				"z": 0.4893268926,
				"element": "H" 
			},
			{
				"x": 4.468353382,
				"y": -4.9055683064,
				"z": -0.2129778654,
				"element": "H" 
			}
		],
		 "valence_orbital": [ 
			{
				"type": "occ",
				"energy": -0.25573,
				"method": "rhf"
			},
			{
				"type": "occ",
				"energy": -0.25367,
				"method": "rhf"
			},
			{
				"type": "occ",
				"energy": -0.24724,
				"method": "rhf"
			},
			{
				"type": "occ",
				"energy": -0.24123,
				"method": "rhf"
			},
			{
				"type": "occ",
				"energy": -0.23509,
				"method": "rhf"
			},
			{
				"type": "unocc",
				"energy": -0.02834,
				"method": "rhf"
			},
			{
				"type": "unocc",
				"energy": -0.00636,
				"method": "rhf"
			},
			{
				"type": "unocc",
				"energy": 0.00726,
				"method": "rhf"
			},
			{
				"type": "unocc",
				"energy": 0.02637,
				"method": "rhf"
			},
			{
				"type": "unocc",
				"energy": 0.04388,
				"method": "rhf"
			}
		],
		"cosmo_sigma_profile": { 
			"-0.025": 0.0,
			"-0.024": 0.0,
			"-0.023": 0.0,
			"-0.022": 0.0,
			"-0.021": 0.0,
			"-0.02": 0.0,
			"-0.019": 0.21305786468,
			"-0.018": 0.771038733244,
			"-0.017": 0.679882193611,
			"-0.016": 1.69557057425,
			"-0.015": 0.357466103049,
			"-0.014": 1.20155316346,
			"-0.013": 1.67830673021,
			"-0.012": 2.81519031688,
			"-0.011": 2.01784412989,
			"-0.01": 2.13783419741,
			"-0.009": 2.45995183186,
			"-0.008": 1.76651196704,
			"-0.007": 4.29226617573,
			"-0.006": 15.1532137685,
			"-0.005": 25.982540216,
			"-0.004": 34.8436887134,
			"-0.003": 34.773764574,
			"-0.002": 33.3183381679,
			"-0.001": 27.2809724728,
			"0.0": 15.4756286236,
			"0.001": 15.1222835634,
			"0.002": 15.0363882399,
			"0.003": 14.1075543782,
			"0.004": 16.9236113968,
			"0.005": 10.0144536139,
			"0.006": 6.48126569829,
			"0.007": 5.9966285109,
			"0.008": 7.13218228437,
			"0.009": 4.89838790105,
			"0.01": 3.86418618061,
			"0.011": 7.76805229977,
			"0.012": 6.19444506494,
			"0.013": 6.3555069114,
			"0.014": 6.88875923825,
			"0.015": 2.34991999462,
			"0.016": 0.137652084117,
			"0.017": 0.0,
			"0.018": 0.0,
			"0.019": 0.0,
			"0.02": 0.0,
			"0.021": 0.0,
			"0.022": 0.0,
			"0.023": 0.0,
			"0.024": 0.0,
			"0.025": 0.0
		}
	}
}
