{
	 "smiles": "ClC1=CC2=C(NCCC2)C=C1", 
	 "Tm": 311.15, 
	 "num_atms": 21, 
	 "gaussian": { 
		 "optdone": 1, 
		 "sigma_profile": "yes", 
		 "theory": "DFT", 
		 "functional": "B3LYP", 
		 "basiset": "6-31G**", 
		 "properties": { 
			 "R2extent": 2689.533, 
			 "electric_dipole_moment_norm": 3.94924278945, 
			 "electric_quadrupole_moment_norm": 11.0845719263, 
			 "total_energy": -863.940796947, 
			 "HOMO_LUMO_gap": 0.18737, 
			 "cosmo_polarized_energy": -7.13, 
			 "cosmo_cavitation_energy": 24.9, 
			 "cosmo_dispersion_energy": -19.13, 
			 "cosmo_repulsion_energy": 1.54, 
			 "cosmo_total_nonelectrostatic_energy": 7.3, 
			 "SMD_solvation_energy": 2.4 
		},
		"coords": [
			{
				"x": 2.8619526023,
				"y": 0.9147194976,
				"z": -2.6505576801,
				"element": "Cl" 
			},
			{
				"x": 1.9057581312,
				"y": -0.1016395917,
				"z": -1.5726492738,
				"element": "C" 
			},
			{
				"x": 1.2168532821,
				"y": 0.4760143652,
				"z": -0.5096779337,
				"element": "C" 
			},
			{
				"x": 0.456534867,
				"y": -0.306335884,
				"z": 0.3625955832,
				"element": "C" 
			},
			{
				"x": 0.3806580482,
				"y": -1.7013014438,
				"z": 0.1461604254,
				"element": "C" 
			},
			{
				"x": -0.4164568095,
				"y": -2.5066697627,
				"z": 0.9573546283,
				"element": "N" 
			},
			{
				"x": -0.8769720785,
				"y": -2.0063892015,
				"z": 2.2455113013,
				"element": "C" 
			},
			{
				"x": -1.3889694257,
				"y": -0.5749275613,
				"z": 2.0733520476,
				"element": "C" 
			},
			{
				"x": -0.2666661872,
				"y": 0.3256316714,
				"z": 1.5386410132,
				"element": "C" 
			},
			{
				"x": 1.0816264486,
				"y": -2.2648098154,
				"z": -0.9353700091,
				"element": "C" 
			},
			{
				"x": 1.8429522796,
				"y": -1.4768527604,
				"z": -1.7914695321,
				"element": "C" 
			},
			{
				"x": 1.2742048465,
				"y": 1.5490306817,
				"z": -0.3523454097,
				"element": "H" 
			},
			{
				"x": -0.1860848533,
				"y": -3.4899884481,
				"z": 0.931822736,
				"element": "H" 
			},
			{
				"x": -0.0774366515,
				"y": -2.0194357179,
				"z": 3.0071709722,
				"element": "H" 
			},
			{
				"x": -1.6777057091,
				"y": -2.6626386481,
				"z": 2.6024721135,
				"element": "H" 
			},
			{
				"x": -1.7621560555,
				"y": -0.1950937668,
				"z": 3.0300427415,
				"element": "H" 
			},
			{
				"x": -2.2299337096,
				"y": -0.5851486304,
				"z": 1.3705763738,
				"element": "H" 
			},
			{
				"x": 0.4530015364,
				"y": 0.5227857598,
				"z": 2.3461344734,
				"element": "H" 
			},
			{
				"x": -0.6694122478,
				"y": 1.3024934059,
				"z": 1.2473091329,
				"element": "H" 
			},
			{
				"x": 1.0206159727,
				"y": -3.3368484866,
				"z": -1.1074569724,
				"element": "H" 
			},
			{
				"x": 2.3795357129,
				"y": -1.9247956629,
				"z": -2.6206167315,
				"element": "H" 
			}
		],
		 "valence_orbital": [ 
			{
				"type": "occ",
				"energy": -0.32639,
				"method": "rhf"
			},
			{
				"type": "occ",
				"energy": -0.29856,
				"method": "rhf"
			},
			{
				"type": "occ",
				"energy": -0.2772,
				"method": "rhf"
			},
			{
				"type": "occ",
				"energy": -0.24547,
				"method": "rhf"
			},
			{
				"type": "occ",
				"energy": -0.19176,
				"method": "rhf"
			},
			{
				"type": "unocc",
				"energy": -0.00439,
				"method": "rhf"
			},
			{
				"type": "unocc",
				"energy": 0.01294,
				"method": "rhf"
			},
			{
				"type": "unocc",
				"energy": 0.0422,
				"method": "rhf"
			},
			{
				"type": "unocc",
				"energy": 0.08032,
				"method": "rhf"
			},
			{
				"type": "unocc",
				"energy": 0.10218,
				"method": "rhf"
			}
		],
		"cosmo_sigma_profile": { 
			"-0.025": 0.0,
			"-0.024": 0.0,
			"-0.023": 0.0,
			"-0.022": 0.0,
			"-0.021": 0.0,
			"-0.02": 0.0,
			"-0.019": 0.0,
			"-0.018": 0.0,
			"-0.017": 0.0,
			"-0.016": 0.0,
			"-0.015": 0.0,
			"-0.014": 0.0,
			"-0.013": 0.4504897183,
			"-0.012": 1.0782696719,
			"-0.011": 1.65107798056,
			"-0.01": 0.91153139975,
			"-0.009": 1.84203297846,
			"-0.008": 1.20284766215,
			"-0.007": 2.55064411877,
			"-0.006": 5.08010390446,
			"-0.005": 6.98622420538,
			"-0.004": 13.6768575257,
			"-0.003": 20.6274159477,
			"-0.002": 23.6933117562,
			"-0.001": 20.220573305,
			"0.0": 14.6326855158,
			"0.001": 9.99341447242,
			"0.002": 10.1018649911,
			"0.003": 12.1985582846,
			"0.004": 15.3350684567,
			"0.005": 20.0418006228,
			"0.006": 12.9736083579,
			"0.007": 0.895140906355,
			"0.008": 0.680347869192,
			"0.009": 0.70677882548,
			"0.01": 0.473274928485,
			"0.011": 0.576716289062,
			"0.012": 0.218956300764,
			"0.013": 0.0,
			"0.014": 0.0,
			"0.015": 0.0,
			"0.016": 0.0,
			"0.017": 0.0,
			"0.018": 0.0,
			"0.019": 0.0,
			"0.02": 0.0,
			"0.021": 0.0,
			"0.022": 0.0,
			"0.023": 0.0,
			"0.024": 0.0,
			"0.025": 0.0
		}
	}
}
