{
	 "smiles": "FC(F)(F)C1=NNC(=O)C1=NNC1=CC(=NN1)C1=CC=CC=C1", 
	 "Tm": 544.15, 
	 "num_atms": 32, 
	 "gaussian": { 
		 "optdone": 1, 
		 "sigma_profile": "yes", 
		 "theory": "DFT", 
		 "functional": "B3LYP", 
		 "basiset": "6-31G**", 
		 "properties": { 
			 "R2extent": 11305.2496, 
			 "electric_dipole_moment_norm": 2.33225266642, 
			 "electric_quadrupole_moment_norm": 13.3456665787, 
			 "total_energy": -1203.98298202, 
			 "HOMO_LUMO_gap": 0.10994, 
			 "cosmo_polarized_energy": -20.47, 
			 "cosmo_cavitation_energy": 40.13, 
			 "cosmo_dispersion_energy": -28.72, 
			 "cosmo_repulsion_energy": 2.11, 
			 "cosmo_total_nonelectrostatic_energy": 13.52, 
			 "SMD_solvation_energy": 6.31 
		},
		"coords": [
			{
				"x": 2.4143110831,
				"y": -2.3755226684,
				"z": -1.3454116232,
				"element": "F" 
			},
			{
				"x": 3.4230033699,
				"y": -1.4550246263,
				"z": -1.490862705,
				"element": "C" 
			},
			{
				"x": 2.9017973111,
				"y": -0.4767963412,
				"z": -2.2709626446,
				"element": "F" 
			},
			{
				"x": 4.4176862198,
				"y": -2.0403406275,
				"z": -2.1507186782,
				"element": "F" 
			},
			{
				"x": 3.8332609981,
				"y": -0.91996882,
				"z": -0.1584999201,
				"element": "C" 
			},
			{
				"x": 5.1001858771,
				"y": -0.8760150361,
				"z": 0.1556729959,
				"element": "N" 
			},
			{
				"x": 5.1973146701,
				"y": -0.2926822291,
				"z": 1.37658057,
				"element": "N" 
			},
			{
				"x": 3.9768972192,
				"y": 0.1137925569,
				"z": 1.9274897095,
				"element": "C" 
			},
			{
				"x": 3.8127682003,
				"y": 0.6683416743,
				"z": 2.9965643929,
				"element": "O" 
			},
			{
				"x": 3.0036601892,
				"y": -0.3231493056,
				"z": 0.879665365,
				"element": "C" 
			},
			{
				"x": 1.7289425222,
				"y": -0.1176916468,
				"z": 1.0708004372,
				"element": "N" 
			},
			{
				"x": 0.8113981755,
				"y": -0.5114935428,
				"z": 0.2178109813,
				"element": "N" 
			},
			{
				"x": -0.5242488395,
				"y": -0.2504331194,
				"z": 0.4976899181,
				"element": "C" 
			},
			{
				"x": -1.6695439037,
				"y": -0.57059001,
				"z": -0.2065713621,
				"element": "C" 
			},
			{
				"x": -2.7246351846,
				"y": -0.0322155327,
				"z": 0.5829842747,
				"element": "C" 
			},
			{
				"x": -2.2481892856,
				"y": 0.5680246433,
				"z": 1.6806912283,
				"element": "N" 
			},
			{
				"x": -0.9068329351,
				"y": 0.424449251,
				"z": 1.608044981,
				"element": "N" 
			},
			{
				"x": -4.1732779557,
				"y": -0.074426958,
				"z": 0.3192724594,
				"element": "C" 
			},
			{
				"x": -4.6832259201,
				"y": -0.695364752,
				"z": -0.8310264015,
				"element": "C" 
			},
			{
				"x": -6.0562259338,
				"y": -0.7303456095,
				"z": -1.0718906711,
				"element": "C" 
			},
			{
				"x": -6.9430641701,
				"y": -0.1451920722,
				"z": -0.1670942147,
				"element": "C" 
			},
			{
				"x": -6.4446699828,
				"y": 0.4757427141,
				"z": 0.9814521316,
				"element": "C" 
			},
			{
				"x": -5.0742595973,
				"y": 0.5119573823,
				"z": 1.2242067558,
				"element": "C" 
			},
			{
				"x": 6.1082083348,
				"y": -0.1580638188,
				"z": 1.7886921916,
				"element": "H" 
			},
			{
				"x": 1.0316385846,
				"y": -1.0686917049,
				"z": -0.6045889346,
				"element": "H" 
			},
			{
				"x": -1.7287945956,
				"y": -1.1061983354,
				"z": -1.1411641833,
				"element": "H" 
			},
			{
				"x": -0.3001355589,
				"y": 0.7887527186,
				"z": 2.3275668671,
				"element": "H" 
			},
			{
				"x": -4.0071092887,
				"y": -1.1552207199,
				"z": -1.5456683443,
				"element": "H" 
			},
			{
				"x": -6.4322187865,
				"y": -1.2156263096,
				"z": -1.9681002226,
				"element": "H" 
			},
			{
				"x": -8.0125522424,
				"y": -0.1723374195,
				"z": -0.3545601594,
				"element": "H" 
			},
			{
				"x": -7.1274138053,
				"y": 0.9339465767,
				"z": 1.6914644987,
				"element": "H" 
			},
			{
				"x": -4.6832747695,
				"y": 0.9927836886,
				"z": 2.1142703065,
				"element": "H" 
			}
		],
		 "valence_orbital": [ 
			{
				"type": "occ",
				"energy": -0.27106,
				"method": "rhf"
			},
			{
				"type": "occ",
				"energy": -0.26972,
				"method": "rhf"
			},
			{
				"type": "occ",
				"energy": -0.2505,
				"method": "rhf"
			},
			{
				"type": "occ",
				"energy": -0.23477,
				"method": "rhf"
			},
			{
				"type": "occ",
				"energy": -0.21975,
				"method": "rhf"
			},
			{
				"type": "unocc",
				"energy": -0.10981,
				"method": "rhf"
			},
			{
				"type": "unocc",
				"energy": -0.02624,
				"method": "rhf"
			},
			{
				"type": "unocc",
				"energy": -0.00339,
				"method": "rhf"
			},
			{
				"type": "unocc",
				"energy": 0.00061,
				"method": "rhf"
			},
			{
				"type": "unocc",
				"energy": 0.03958,
				"method": "rhf"
			}
		],
		"cosmo_sigma_profile": { 
			"-0.025": 0.0,
			"-0.024": 0.0,
			"-0.023": 0.0,
			"-0.022": 0.0,
			"-0.021": 0.0,
			"-0.02": 0.0,
			"-0.019": 0.0,
			"-0.018": 0.0644286325135,
			"-0.017": 1.41610847567,
			"-0.016": 2.47288150762,
			"-0.015": 2.50560636821,
			"-0.014": 2.15033584825,
			"-0.013": 2.12916355908,
			"-0.012": 2.73959822276,
			"-0.011": 3.3924011728,
			"-0.01": 2.04938696573,
			"-0.009": 3.32219579353,
			"-0.008": 6.10781277354,
			"-0.007": 5.03560380996,
			"-0.006": 9.55403916071,
			"-0.005": 16.0223705022,
			"-0.004": 20.8971557116,
			"-0.003": 24.1817679749,
			"-0.002": 20.0609045719,
			"-0.001": 20.497621976,
			"0.0": 18.68458446,
			"0.001": 29.0052346175,
			"0.002": 32.1064686441,
			"0.003": 21.8434198481,
			"0.004": 18.6299979962,
			"0.005": 15.8906571653,
			"0.006": 9.69418115098,
			"0.007": 4.3585020356,
			"0.008": 3.39889017457,
			"0.009": 4.32589988632,
			"0.01": 4.78937366143,
			"0.011": 4.69391683284,
			"0.012": 8.06008150717,
			"0.013": 3.75470456149,
			"0.014": 0.229175468478,
			"0.015": 0.0,
			"0.016": 0.0,
			"0.017": 0.0,
			"0.018": 0.0,
			"0.019": 0.0,
			"0.02": 0.0,
			"0.021": 0.0,
			"0.022": 0.0,
			"0.023": 0.0,
			"0.024": 0.0,
			"0.025": 0.0
		}
	}
}
