{
	 "smiles": "NN1C(S)=NN=C1C1=CC=CC=C1", 
	 "Tm": 467.15, 
	 "num_atms": 21, 
	 "gaussian": { 
		 "optdone": 1, 
		 "sigma_profile": "yes", 
		 "theory": "DFT", 
		 "functional": "B3LYP", 
		 "basiset": "6-31G**", 
		 "properties": { 
			 "R2extent": 3492.4427, 
			 "electric_dipole_moment_norm": 4.32067208892, 
			 "electric_quadrupole_moment_norm": 14.0183797145, 
			 "total_energy": -926.805279462, 
			 "HOMO_LUMO_gap": 0.18446, 
			 "cosmo_polarized_energy": -17.93, 
			 "cosmo_cavitation_energy": 27.07, 
			 "cosmo_dispersion_energy": -20.73, 
			 "cosmo_repulsion_energy": 1.58, 
			 "cosmo_total_nonelectrostatic_energy": 7.93, 
			 "SMD_solvation_energy": 2.92 
		},
		"coords": [
			{
				"x": -0.915535106,
				"y": 2.4981768267,
				"z": -0.5302394485,
				"element": "N" 
			},
			{
				"x": -1.4700997488,
				"y": 1.3479195894,
				"z": 0.0422606826,
				"element": "N" 
			},
			{
				"x": -2.80591478,
				"y": 1.0845434385,
				"z": 0.2342433897,
				"element": "C" 
			},
			{
				"x": -4.0423305706,
				"y": 2.2476921794,
				"z": -0.2518911452,
				"element": "S" 
			},
			{
				"x": -2.9765592957,
				"y": -0.0842617268,
				"z": 0.7945295302,
				"element": "N" 
			},
			{
				"x": -1.7173061687,
				"y": -0.6198914966,
				"z": 0.9833636771,
				"element": "N" 
			},
			{
				"x": -0.8121838662,
				"y": 0.2285840533,
				"z": 0.5369218007,
				"element": "C" 
			},
			{
				"x": 0.6348643981,
				"y": -0.0288410201,
				"z": 0.5839992892,
				"element": "C" 
			},
			{
				"x": 1.0482827575,
				"y": -1.2589896802,
				"z": 1.1313818949,
				"element": "C" 
			},
			{
				"x": 2.3993924092,
				"y": -1.5769294924,
				"z": 1.2120906444,
				"element": "C" 
			},
			{
				"x": 3.3651566493,
				"y": -0.6778373203,
				"z": 0.7500386341,
				"element": "C" 
			},
			{
				"x": 2.9631332741,
				"y": 0.5419661576,
				"z": 0.2068984465,
				"element": "C" 
			},
			{
				"x": 1.6095827781,
				"y": 0.8707608131,
				"z": 0.1213495794,
				"element": "C" 
			},
			{
				"x": -1.26238212,
				"y": 2.6008987286,
				"z": -1.4816163038,
				"element": "H" 
			},
			{
				"x": -1.1888788302,
				"y": 3.3113335633,
				"z": 0.0175100895,
				"element": "H" 
			},
			{
				"x": -5.0491469483,
				"y": 1.462954412,
				"z": 0.1746990399,
				"element": "H" 
			},
			{
				"x": 0.2915164037,
				"y": -1.9491011872,
				"z": 1.4868646312,
				"element": "H" 
			},
			{
				"x": 2.700658092,
				"y": -2.530077153,
				"z": 1.6370734752,
				"element": "H" 
			},
			{
				"x": 4.4203635359,
				"y": -0.9276326939,
				"z": 0.8136753767,
				"element": "H" 
			},
			{
				"x": 3.7057121249,
				"y": 1.2476178282,
				"z": -0.1548963802,
				"element": "H" 
			},
			{
				"x": 1.3068750116,
				"y": 1.8195141804,
				"z": -0.3019569034,
				"element": "H" 
			}
		],
		 "valence_orbital": [ 
			{
				"type": "occ",
				"energy": -0.30082,
				"method": "rhf"
			},
			{
				"type": "occ",
				"energy": -0.26972,
				"method": "rhf"
			},
			{
				"type": "occ",
				"energy": -0.25156,
				"method": "rhf"
			},
			{
				"type": "occ",
				"energy": -0.25054,
				"method": "rhf"
			},
			{
				"type": "occ",
				"energy": -0.21772,
				"method": "rhf"
			},
			{
				"type": "unocc",
				"energy": -0.03326,
				"method": "rhf"
			},
			{
				"type": "unocc",
				"energy": -0.00543,
				"method": "rhf"
			},
			{
				"type": "unocc",
				"energy": -0.00045,
				"method": "rhf"
			},
			{
				"type": "unocc",
				"energy": 0.02721,
				"method": "rhf"
			},
			{
				"type": "unocc",
				"energy": 0.04275,
				"method": "rhf"
			}
		],
		"cosmo_sigma_profile": { 
			"-0.025": 0.0,
			"-0.024": 0.0,
			"-0.023": 0.0,
			"-0.022": 0.0,
			"-0.021": 0.0,
			"-0.02": 0.0,
			"-0.019": 0.0,
			"-0.018": 0.0,
			"-0.017": 0.0,
			"-0.016": 0.0,
			"-0.015": 0.022614112497,
			"-0.014": 2.07569577114,
			"-0.013": 3.78267159083,
			"-0.012": 5.26070484204,
			"-0.011": 4.32646507557,
			"-0.01": 3.40548686603,
			"-0.009": 4.17764726926,
			"-0.008": 3.28126702286,
			"-0.007": 3.13193071729,
			"-0.006": 7.81825716091,
			"-0.005": 10.5678207735,
			"-0.004": 12.9277645486,
			"-0.003": 12.6149569839,
			"-0.002": 12.9654285304,
			"-0.001": 12.7398352322,
			"0.0": 11.6709495014,
			"0.001": 15.9163702971,
			"0.002": 17.2402470558,
			"0.003": 16.4013921616,
			"0.004": 16.0439419438,
			"0.005": 15.1990700285,
			"0.006": 5.32770167838,
			"0.007": 2.47056592069,
			"0.008": 1.70219512671,
			"0.009": 1.73618241262,
			"0.01": 1.70892080745,
			"0.011": 2.70715795791,
			"0.012": 2.90892601257,
			"0.013": 3.19738129211,
			"0.014": 3.05416363164,
			"0.015": 2.2816489998,
			"0.016": 0.841020327427,
			"0.017": 0.19599329842,
			"0.018": 0.0,
			"0.019": 0.0,
			"0.02": 0.0,
			"0.021": 0.0,
			"0.022": 0.0,
			"0.023": 0.0,
			"0.024": 0.0,
			"0.025": 0.0
		}
	}
}
