{
	 "smiles": "ClC1=CC=C(C=C1)C1=CC=C(O1)C=CC(=O)C1=CC=CC=C1", 
	 "Tm": 401.15, 
	 "num_atms": 35, 
	 "gaussian": { 
		 "optdone": 1, 
		 "sigma_profile": "yes", 
		 "theory": "DFT", 
		 "functional": "B3LYP", 
		 "basiset": "6-31G**", 
		 "properties": { 
			 "R2extent": 13791.5801, 
			 "electric_dipole_moment_norm": 4.95946386619, 
			 "electric_quadrupole_moment_norm": 8.93580509188, 
			 "total_energy": -1342.47502779, 
			 "HOMO_LUMO_gap": 0.12921, 
			 "cosmo_polarized_energy": -13.84, 
			 "cosmo_cavitation_energy": 43.1, 
			 "cosmo_dispersion_energy": -30.77, 
			 "cosmo_repulsion_energy": 2.32, 
			 "cosmo_total_nonelectrostatic_energy": 14.65, 
			 "SMD_solvation_energy": 7.74 
		},
		"coords": [
			{
				"x": -6.0586326826,
				"y": -1.6621505281,
				"z": -3.0126888554,
				"element": "Cl" 
			},
			{
				"x": -4.7559656653,
				"y": -0.9756674946,
				"z": -2.0576300749,
				"element": "C" 
			},
			{
				"x": -3.4407410305,
				"y": -1.0773931934,
				"z": -2.5109197227,
				"element": "C" 
			},
			{
				"x": -2.41141439,
				"y": -0.5314492294,
				"z": -1.7499929068,
				"element": "C" 
			},
			{
				"x": -2.6804480251,
				"y": 0.1198801688,
				"z": -0.5325959956,
				"element": "C" 
			},
			{
				"x": -4.0162762147,
				"y": 0.2077821269,
				"z": -0.0991586477,
				"element": "C" 
			},
			{
				"x": -5.0509059819,
				"y": -0.3344773652,
				"z": -0.8529866709,
				"element": "C" 
			},
			{
				"x": -1.6053149944,
				"y": 0.6914452147,
				"z": 0.2635976849,
				"element": "C" 
			},
			{
				"x": -1.5747059892,
				"y": 1.3798240455,
				"z": 1.4570415828,
				"element": "C" 
			},
			{
				"x": -0.2143407197,
				"y": 1.6780790414,
				"z": 1.7210004349,
				"element": "C" 
			},
			{
				"x": 0.5206174348,
				"y": 1.158401688,
				"z": 0.6775628967,
				"element": "C" 
			},
			{
				"x": -0.3316028508,
				"y": 0.5557036151,
				"z": -0.211871262,
				"element": "O" 
			},
			{
				"x": 1.9295776886,
				"y": 1.1543313143,
				"z": 0.4121523423,
				"element": "C" 
			},
			{
				"x": 2.5234563363,
				"y": 0.6204705079,
				"z": -0.6805536379,
				"element": "C" 
			},
			{
				"x": 3.9597629255,
				"y": 0.7159374561,
				"z": -1.0169489795,
				"element": "C" 
			},
			{
				"x": 4.3020542005,
				"y": 0.6243707954,
				"z": -2.1944561634,
				"element": "O" 
			},
			{
				"x": 4.9966907154,
				"y": 0.946055317,
				"z": 0.0466210519,
				"element": "C" 
			},
			{
				"x": 4.8877871766,
				"y": 0.4336283385,
				"z": 1.3485619052,
				"element": "C" 
			},
			{
				"x": 5.9147951827,
				"y": 0.6326224997,
				"z": 2.2729715166,
				"element": "C" 
			},
			{
				"x": 7.0541382905,
				"y": 1.3518672605,
				"z": 1.9094872877,
				"element": "C" 
			},
			{
				"x": 7.1754403207,
				"y": 1.8558049975,
				"z": 0.6106151057,
				"element": "C" 
			},
			{
				"x": 6.1601907434,
				"y": 1.6423785613,
				"z": -0.3172205401,
				"element": "C" 
			},
			{
				"x": -3.2263229257,
				"y": -1.5777308133,
				"z": -3.4486754836,
				"element": "H" 
			},
			{
				"x": -1.3882691326,
				"y": -0.607938864,
				"z": -2.0999049457,
				"element": "H" 
			},
			{
				"x": -4.2522987473,
				"y": 0.7040660379,
				"z": 0.836798587,
				"element": "H" 
			},
			{
				"x": -6.0779049151,
				"y": -0.2630009055,
				"z": -0.5127471987,
				"element": "H" 
			},
			{
				"x": -2.425413619,
				"y": 1.6410217148,
				"z": 2.0688733028,
				"element": "H" 
			},
			{
				"x": 0.186305606,
				"y": 2.21092867,
				"z": 2.5717441574,
				"element": "H" 
			},
			{
				"x": 2.5297196944,
				"y": 1.6527467596,
				"z": 1.1682425949,
				"element": "H" 
			},
			{
				"x": 1.917749873,
				"y": 0.1797484442,
				"z": -1.4673724466,
				"element": "H" 
			},
			{
				"x": 4.0163961803,
				"y": -0.1488036659,
				"z": 1.6289690454,
				"element": "H" 
			},
			{
				"x": 5.8271591276,
				"y": 0.2200583842,
				"z": 3.2740083041,
				"element": "H" 
			},
			{
				"x": 7.8495914243,
				"y": 1.5119453583,
				"z": 2.6318498897,
				"element": "H" 
			},
			{
				"x": 8.0654614241,
				"y": 2.4079359522,
				"z": 0.3226368011,
				"element": "H" 
			},
			{
				"x": 6.2461635392,
				"y": 2.0044777896,
				"z": -1.3364109592,
				"element": "H" 
			}
		],
		 "valence_orbital": [ 
			{
				"type": "occ",
				"energy": -0.26659,
				"method": "rhf"
			},
			{
				"type": "occ",
				"energy": -0.25879,
				"method": "rhf"
			},
			{
				"type": "occ",
				"energy": -0.25797,
				"method": "rhf"
			},
			{
				"type": "occ",
				"energy": -0.24121,
				"method": "rhf"
			},
			{
				"type": "occ",
				"energy": -0.20969,
				"method": "rhf"
			},
			{
				"type": "unocc",
				"energy": -0.08048,
				"method": "rhf"
			},
			{
				"type": "unocc",
				"energy": -0.04058,
				"method": "rhf"
			},
			{
				"type": "unocc",
				"energy": -0.0222,
				"method": "rhf"
			},
			{
				"type": "unocc",
				"energy": -0.01532,
				"method": "rhf"
			},
			{
				"type": "unocc",
				"energy": -0.00747,
				"method": "rhf"
			}
		],
		"cosmo_sigma_profile": { 
			"-0.025": 0.0,
			"-0.024": 0.0,
			"-0.023": 0.0,
			"-0.022": 0.0,
			"-0.021": 0.0,
			"-0.02": 0.0,
			"-0.019": 0.0,
			"-0.018": 0.0,
			"-0.017": 0.0,
			"-0.016": 0.0,
			"-0.015": 0.0,
			"-0.014": 0.0,
			"-0.013": 0.0,
			"-0.012": 0.0,
			"-0.011": 0.0,
			"-0.01": 0.0017899594259,
			"-0.009": 1.67975861219,
			"-0.008": 7.06753626889,
			"-0.007": 11.3824238435,
			"-0.006": 19.5243810642,
			"-0.005": 23.7969609969,
			"-0.004": 21.266245443,
			"-0.003": 20.6695273239,
			"-0.002": 20.8814849819,
			"-0.001": 21.0246631035,
			"0.0": 28.7652620892,
			"0.001": 40.3523028415,
			"0.002": 38.8793490797,
			"0.003": 38.4249298916,
			"0.004": 25.6323525334,
			"0.005": 10.9865164267,
			"0.006": 1.54593737894,
			"0.007": 1.66012739179,
			"0.008": 2.31122824037,
			"0.009": 1.53094056178,
			"0.01": 1.4494912646,
			"0.011": 2.40429078756,
			"0.012": 3.51401681625,
			"0.013": 4.14051680115,
			"0.014": 1.02029273888,
			"0.015": 0.0135795011107,
			"0.016": 0.0,
			"0.017": 0.0,
			"0.018": 0.0,
			"0.019": 0.0,
			"0.02": 0.0,
			"0.021": 0.0,
			"0.022": 0.0,
			"0.023": 0.0,
			"0.024": 0.0,
			"0.025": 0.0
		}
	}
}
