{
	 "smiles": "ClC1=NC=C(COC2=CC=C(CC#N)C=C2)C=C1", 
	 "Tm": 373.15, 
	 "num_atms": 29, 
	 "gaussian": { 
		 "optdone": 1, 
		 "sigma_profile": "yes", 
		 "theory": "DFT", 
		 "functional": "B3LYP", 
		 "basiset": "6-31G**", 
		 "properties": { 
			 "R2extent": 10564.65, 
			 "electric_dipole_moment_norm": 2.74354299948, 
			 "electric_quadrupole_moment_norm": 40.8790529279, 
			 "total_energy": -1185.00821481, 
			 "HOMO_LUMO_gap": 0.19256, 
			 "cosmo_polarized_energy": -17.41, 
			 "cosmo_cavitation_energy": 37.24, 
			 "cosmo_dispersion_energy": -26.42, 
			 "cosmo_repulsion_energy": 2.04, 
			 "cosmo_total_nonelectrostatic_energy": 12.86, 
			 "SMD_solvation_energy": 6.0 
		},
		"coords": [
			{
				"x": 4.3619767761,
				"y": -1.2488116021,
				"z": -5.7603666314,
				"element": "Cl" 
			},
			{
				"x": 3.7103570363,
				"y": -0.7709246887,
				"z": -4.1950279761,
				"element": "C" 
			},
			{
				"x": 4.2779981729,
				"y": -1.2989125775,
				"z": -3.127873892,
				"element": "N" 
			},
			{
				"x": 3.787115375,
				"y": -0.9419619937,
				"z": -1.9325985714,
				"element": "C" 
			},
			{
				"x": 2.732188066,
				"y": -0.0457002109,
				"z": -1.7600001345,
				"element": "C" 
			},
			{
				"x": 2.270515893,
				"y": 0.3492572545,
				"z": -0.3814545857,
				"element": "C" 
			},
			{
				"x": 0.8464259309,
				"y": 0.4020123136,
				"z": -0.3799116698,
				"element": "O" 
			},
			{
				"x": 0.2107574538,
				"y": 0.8071127142,
				"z": 0.7603594761,
				"element": "C" 
			},
			{
				"x": 0.8524311985,
				"y": 1.1318288046,
				"z": 1.9590379994,
				"element": "C" 
			},
			{
				"x": 0.0892670032,
				"y": 1.5359670619,
				"z": 3.0596789236,
				"element": "C" 
			},
			{
				"x": -1.3003111025,
				"y": 1.6161976842,
				"z": 2.9899742083,
				"element": "C" 
			},
			{
				"x": -2.1141287307,
				"y": 2.0235871761,
				"z": 4.2104696669,
				"element": "C" 
			},
			{
				"x": -3.0360053792,
				"y": 3.1374459637,
				"z": 3.953182214,
				"element": "C" 
			},
			{
				"x": -3.7716891308,
				"y": 4.0091457675,
				"z": 3.738850129,
				"element": "N" 
			},
			{
				"x": -1.9298266832,
				"y": 1.28596247,
				"z": 1.7796103046,
				"element": "C" 
			},
			{
				"x": -1.1881479622,
				"y": 0.886721015,
				"z": 0.6774598642,
				"element": "C" 
			},
			{
				"x": 2.1488034758,
				"y": 0.4922881198,
				"z": -2.9148805369,
				"element": "C" 
			},
			{
				"x": 2.6372735865,
				"y": 0.1264120563,
				"z": -4.1628752675,
				"element": "C" 
			},
			{
				"x": 4.2661497399,
				"y": -1.4024525435,
				"z": -1.0696952567,
				"element": "H" 
			},
			{
				"x": 2.6326396234,
				"y": -0.3733648146,
				"z": 0.3628089449,
				"element": "H" 
			},
			{
				"x": 2.6751334411,
				"y": 1.3360424142,
				"z": -0.109198819,
				"element": "H" 
			},
			{
				"x": 1.9302580218,
				"y": 1.0789226077,
				"z": 2.0537228788,
				"element": "H" 
			},
			{
				"x": 0.5992359761,
				"y": 1.7899595843,
				"z": 3.9854338815,
				"element": "H" 
			},
			{
				"x": -2.7101365281,
				"y": 1.178521342,
				"z": 4.5805681609,
				"element": "H" 
			},
			{
				"x": -1.447549972,
				"y": 2.313817494,
				"z": 5.0297227386,
				"element": "H" 
			},
			{
				"x": -3.0113401847,
				"y": 1.3525524217,
				"z": 1.6974649354,
				"element": "H" 
			},
			{
				"x": -1.6680036796,
				"y": 0.6322300052,
				"z": -0.2616951428,
				"element": "H" 
			},
			{
				"x": 1.3123433006,
				"y": 1.1785385556,
				"z": -2.8304825096,
				"element": "H" 
			},
			{
				"x": 2.2118692821,
				"y": 0.5151056049,
				"z": -5.0802833328,
				"element": "H" 
			}
		],
		 "valence_orbital": [ 
			{
				"type": "occ",
				"energy": -0.30476,
				"method": "rhf"
			},
			{
				"type": "occ",
				"energy": -0.28173,
				"method": "rhf"
			},
			{
				"type": "occ",
				"energy": -0.26983,
				"method": "rhf"
			},
			{
				"type": "occ",
				"energy": -0.26371,
				"method": "rhf"
			},
			{
				"type": "occ",
				"energy": -0.23746,
				"method": "rhf"
			},
			{
				"type": "unocc",
				"energy": -0.0449,
				"method": "rhf"
			},
			{
				"type": "unocc",
				"energy": -0.034,
				"method": "rhf"
			},
			{
				"type": "unocc",
				"energy": -0.02103,
				"method": "rhf"
			},
			{
				"type": "unocc",
				"energy": -0.01134,
				"method": "rhf"
			},
			{
				"type": "unocc",
				"energy": 0.03049,
				"method": "rhf"
			}
		],
		"cosmo_sigma_profile": { 
			"-0.025": 0.0,
			"-0.024": 0.0,
			"-0.023": 0.0,
			"-0.022": 0.0,
			"-0.021": 0.0,
			"-0.02": 0.0,
			"-0.019": 0.0,
			"-0.018": 0.0,
			"-0.017": 0.0,
			"-0.016": 0.0,
			"-0.015": 0.0,
			"-0.014": 0.0,
			"-0.013": 0.0,
			"-0.012": 0.0,
			"-0.011": 0.0,
			"-0.01": 0.0,
			"-0.009": 2.77830065467,
			"-0.008": 11.1591044657,
			"-0.007": 19.8082131242,
			"-0.006": 24.6957382944,
			"-0.005": 20.2525197384,
			"-0.004": 15.811415664,
			"-0.003": 14.095272433,
			"-0.002": 13.9473286357,
			"-0.001": 16.9951924912,
			"0.0": 23.3931718501,
			"0.001": 22.0608703376,
			"0.002": 17.1018062675,
			"0.003": 19.8949687128,
			"0.004": 25.5221733315,
			"0.005": 15.4522553589,
			"0.006": 7.0829986327,
			"0.007": 5.0694194916,
			"0.008": 5.87433701657,
			"0.009": 4.97698551482,
			"0.01": 4.39139350684,
			"0.011": 3.95759084533,
			"0.012": 3.20096890913,
			"0.013": 2.93634411978,
			"0.014": 1.26273987349,
			"0.015": 0.160821908959,
			"0.016": 0.0,
			"0.017": 0.0,
			"0.018": 0.0,
			"0.019": 0.0,
			"0.02": 0.0,
			"0.021": 0.0,
			"0.022": 0.0,
			"0.023": 0.0,
			"0.024": 0.0,
			"0.025": 0.0
		}
	}
}
