{
	 "smiles": "COC1=CC=C(C=CC(O)=O)C(OC)=C1OC", 
	 "Tm": 447.15, 
	 "num_atms": 31, 
	 "gaussian": { 
		 "optdone": 1, 
		 "sigma_profile": "yes", 
		 "theory": "DFT", 
		 "functional": "B3LYP", 
		 "basiset": "6-31G**", 
		 "properties": { 
			 "R2extent": 6361.6744, 
			 "electric_dipole_moment_norm": 7.34258546699, 
			 "electric_quadrupole_moment_norm": 29.6266134492, 
			 "total_energy": -841.778440903, 
			 "HOMO_LUMO_gap": 0.15752, 
			 "cosmo_polarized_energy": -21.2, 
			 "cosmo_cavitation_energy": 35.78, 
			 "cosmo_dispersion_energy": -24.9, 
			 "cosmo_repulsion_energy": 1.96, 
			 "cosmo_total_nonelectrostatic_energy": 12.84, 
			 "SMD_solvation_energy": 9.8 
		},
		"coords": [
			{
				"x": -1.7724054128,
				"y": 3.1255606526,
				"z": -1.1678087777,
				"element": "C" 
			},
			{
				"x": -1.4834868504,
				"y": 2.4901468555,
				"z": 0.0703142944,
				"element": "O" 
			},
			{
				"x": -0.4628035194,
				"y": 1.5945303747,
				"z": 0.1120279529,
				"element": "C" 
			},
			{
				"x": 0.3238282009,
				"y": 1.2217760192,
				"z": -0.9874756294,
				"element": "C" 
			},
			{
				"x": 1.3312811664,
				"y": 0.2780862267,
				"z": -0.8277586487,
				"element": "C" 
			},
			{
				"x": 1.6060829264,
				"y": -0.3209400212,
				"z": 0.4129179135,
				"element": "C" 
			},
			{
				"x": 2.6573178484,
				"y": -1.3094729032,
				"z": 0.6140398887,
				"element": "C" 
			},
			{
				"x": 3.5531919856,
				"y": -1.7614720654,
				"z": -0.2862440328,
				"element": "C" 
			},
			{
				"x": 4.5557234668,
				"y": -2.7743883815,
				"z": 0.1195884065,
				"element": "C" 
			},
			{
				"x": 5.4130272701,
				"y": -3.1823705304,
				"z": -0.8635802824,
				"element": "O" 
			},
			{
				"x": 4.6595467614,
				"y": -3.2446143675,
				"z": 1.2308713986,
				"element": "O" 
			},
			{
				"x": 0.800186341,
				"y": 0.0606209021,
				"z": 1.5164082987,
				"element": "C" 
			},
			{
				"x": 0.992400173,
				"y": -0.554539783,
				"z": 2.7248346316,
				"element": "O" 
			},
			{
				"x": 1.5196026809,
				"y": 0.268949073,
				"z": 3.7760616602,
				"element": "C" 
			},
			{
				"x": -0.2178708746,
				"y": 1.0098482103,
				"z": 1.3714590563,
				"element": "C" 
			},
			{
				"x": -0.9578171605,
				"y": 1.3928347139,
				"z": 2.4631423126,
				"element": "O" 
			},
			{
				"x": -2.2137882926,
				"y": 0.7171747696,
				"z": 2.5926627599,
				"element": "C" 
			},
			{
				"x": -2.0692483503,
				"y": 2.3997694558,
				"z": -1.9352289954,
				"element": "H" 
			},
			{
				"x": -0.9153682942,
				"y": 3.7056576953,
				"z": -1.5312969643,
				"element": "H" 
			},
			{
				"x": -2.6055020929,
				"y": 3.8008671912,
				"z": -0.9691263402,
				"element": "H" 
			},
			{
				"x": 0.1489856946,
				"y": 1.6568086247,
				"z": -1.9637895303,
				"element": "H" 
			},
			{
				"x": 1.9214412947,
				"y": 0.0006645058,
				"z": -1.6952379516,
				"element": "H" 
			},
			{
				"x": 2.7254308539,
				"y": -1.7317320824,
				"z": 1.6127787467,
				"element": "H" 
			},
			{
				"x": 3.5674375651,
				"y": -1.3991322471,
				"z": -1.312665845,
				"element": "H" 
			},
			{
				"x": 5.2091382526,
				"y": -2.7276265342,
				"z": -1.692182553,
				"element": "H" 
			},
			{
				"x": 0.8454580948,
				"y": 1.0992643062,
				"z": 4.0000318691,
				"element": "H" 
			},
			{
				"x": 1.6129677471,
				"y": -0.381797402,
				"z": 4.6471873448,
				"element": "H" 
			},
			{
				"x": 2.510233829,
				"y": 0.6532067594,
				"z": 3.5042937937,
				"element": "H" 
			},
			{
				"x": -2.862883765,
				"y": 0.9283651743,
				"z": 1.7358343276,
				"element": "H" 
			},
			{
				"x": -2.6779581773,
				"y": 1.1049052901,
				"z": 3.5016960377,
				"element": "H" 
			},
			{
				"x": -2.0672493626,
				"y": -0.3647504822,
				"z": 2.6903448574,
				"element": "H" 
			}
		],
		 "valence_orbital": [ 
			{
				"type": "occ",
				"energy": -0.28194,
				"method": "rhf"
			},
			{
				"type": "occ",
				"energy": -0.27282,
				"method": "rhf"
			},
			{
				"type": "occ",
				"energy": -0.25776,
				"method": "rhf"
			},
			{
				"type": "occ",
				"energy": -0.23997,
				"method": "rhf"
			},
			{
				"type": "occ",
				"energy": -0.21736,
				"method": "rhf"
			},
			{
				"type": "unocc",
				"energy": -0.05984,
				"method": "rhf"
			},
			{
				"type": "unocc",
				"energy": -0.00819,
				"method": "rhf"
			},
			{
				"type": "unocc",
				"energy": 0.02993,
				"method": "rhf"
			},
			{
				"type": "unocc",
				"energy": 0.0637,
				"method": "rhf"
			},
			{
				"type": "unocc",
				"energy": 0.06995,
				"method": "rhf"
			}
		],
		"cosmo_sigma_profile": { 
			"-0.025": 0.0,
			"-0.024": 0.0,
			"-0.023": 0.0,
			"-0.022": 0.0,
			"-0.021": 0.0,
			"-0.02": 0.0,
			"-0.019": 0.369517456223,
			"-0.018": 1.06806715513,
			"-0.017": 1.50179736262,
			"-0.016": 0.777332794636,
			"-0.015": 1.39334997771,
			"-0.014": 0.672707110433,
			"-0.013": 0.819449940092,
			"-0.012": 0.881558451847,
			"-0.011": 1.80314565469,
			"-0.01": 0.807020838869,
			"-0.009": 2.21296858998,
			"-0.008": 2.61852179599,
			"-0.007": 5.23944397908,
			"-0.006": 14.2022737497,
			"-0.005": 20.7041563614,
			"-0.004": 23.4917617401,
			"-0.003": 29.7580145905,
			"-0.002": 22.0158249795,
			"-0.001": 15.4929063109,
			"0.0": 15.1008631857,
			"0.001": 18.824454004,
			"0.002": 19.2412964259,
			"0.003": 19.6636262385,
			"0.004": 12.8479453993,
			"0.005": 7.04860831372,
			"0.006": 5.13513914108,
			"0.007": 4.35133938694,
			"0.008": 4.92605200864,
			"0.009": 5.02189258945,
			"0.01": 6.10066876604,
			"0.011": 7.22261829873,
			"0.012": 6.9031142705,
			"0.013": 4.56302448744,
			"0.014": 1.31646420068,
			"0.015": 0.0,
			"0.016": 0.0,
			"0.017": 0.0,
			"0.018": 0.0,
			"0.019": 0.0,
			"0.02": 0.0,
			"0.021": 0.0,
			"0.022": 0.0,
			"0.023": 0.0,
			"0.024": 0.0,
			"0.025": 0.0
		}
	}
}
