{
	 "smiles": "CC12CCC3C(C1CCC2O)C(=O)CC1CC(O)CCC31C", 
	 "Tm": 471.15, 
	 "num_atms": 52, 
	 "gaussian": { 
		 "optdone": 1, 
		 "sigma_profile": "yes", 
		 "theory": "DFT", 
		 "functional": "B3LYP", 
		 "basiset": "6-31G**", 
		 "properties": { 
			 "R2extent": 7650.8294, 
			 "electric_dipole_moment_norm": 4.79079613739, 
			 "electric_quadrupole_moment_norm": 11.1244570393, 
			 "total_energy": -967.767811331, 
			 "HOMO_LUMO_gap": 0.21914, 
			 "cosmo_polarized_energy": -17.24, 
			 "cosmo_cavitation_energy": 44.37, 
			 "cosmo_dispersion_energy": -31.25, 
			 "cosmo_repulsion_energy": 2.31, 
			 "cosmo_total_nonelectrostatic_energy": 15.43, 
			 "SMD_solvation_energy": 6.4 
		},
		"coords": [
			{
				"x": -3.4142963036,
				"y": -3.4159586687,
				"z": 0.2230711754,
				"element": "C" 
			},
			{
				"x": -2.9837056099,
				"y": -1.9476943357,
				"z": 0.0316847053,
				"element": "C" 
			},
			{
				"x": -2.6188245464,
				"y": -1.3406875673,
				"z": 1.416407536,
				"element": "C" 
			},
			{
				"x": -1.1590956617,
				"y": -0.8731740982,
				"z": 1.516211175,
				"element": "C" 
			},
			{
				"x": -0.8722914588,
				"y": 0.1547031505,
				"z": 0.4054962437,
				"element": "C" 
			},
			{
				"x": -1.0397549758,
				"y": -0.511208248,
				"z": -1.0021146323,
				"element": "C" 
			},
			{
				"x": -1.8261517956,
				"y": -1.8709372641,
				"z": -1.0047503569,
				"element": "C" 
			},
			{
				"x": -2.5274058559,
				"y": -2.0940285765,
				"z": -2.3733723428,
				"element": "C" 
			},
			{
				"x": -3.9868799465,
				"y": -1.5937596601,
				"z": -2.1857512137,
				"element": "C" 
			},
			{
				"x": -4.0983086461,
				"y": -1.1575461546,
				"z": -0.7145250188,
				"element": "C" 
			},
			{
				"x": -5.4205566831,
				"y": -1.3873285065,
				"z": -0.2458329964,
				"element": "O" 
			},
			{
				"x": 0.3037116418,
				"y": -0.8025312629,
				"z": -1.6705152493,
				"element": "C" 
			},
			{
				"x": 0.4341489911,
				"y": -0.8209048146,
				"z": -2.8825649654,
				"element": "O" 
			},
			{
				"x": 1.4428561423,
				"y": -1.0960023027,
				"z": -0.7141314524,
				"element": "C" 
			},
			{
				"x": 1.7355723764,
				"y": 0.1105285986,
				"z": 0.2146620946,
				"element": "C" 
			},
			{
				"x": 2.4307447555,
				"y": -0.3406259369,
				"z": 1.5086861383,
				"element": "C" 
			},
			{
				"x": 2.9510001186,
				"y": 0.8421185858,
				"z": 2.3397125215,
				"element": "C" 
			},
			{
				"x": 4.2851974881,
				"y": 1.1056612698,
				"z": 1.8990855317,
				"element": "O" 
			},
			{
				"x": 2.0476489053,
				"y": 2.0844541545,
				"z": 2.1739119643,
				"element": "C" 
			},
			{
				"x": 0.5953129127,
				"y": 1.6877614661,
				"z": 1.8742017698,
				"element": "C" 
			},
			{
				"x": 0.4565672483,
				"y": 0.9838946893,
				"z": 0.4919798471,
				"element": "C" 
			},
			{
				"x": 0.3858755716,
				"y": 2.097287553,
				"z": -0.5851009399,
				"element": "C" 
			},
			{
				"x": -2.6181946567,
				"y": -3.9829347054,
				"z": 0.7186876546,
				"element": "H" 
			},
			{
				"x": -4.3128412628,
				"y": -3.4698057435,
				"z": 0.843973361,
				"element": "H" 
			},
			{
				"x": -3.643062566,
				"y": -3.9159533698,
				"z": -0.7219350081,
				"element": "H" 
			},
			{
				"x": -2.8217958577,
				"y": -2.0681404536,
				"z": 2.2103762916,
				"element": "H" 
			},
			{
				"x": -3.2647731814,
				"y": -0.4754391567,
				"z": 1.630614847,
				"element": "H" 
			},
			{
				"x": -1.0000897742,
				"y": -0.4406254599,
				"z": 2.5081858699,
				"element": "H" 
			},
			{
				"x": -0.487638002,
				"y": -1.7377448239,
				"z": 1.4465728194,
				"element": "H" 
			},
			{
				"x": -1.6764979416,
				"y": 0.900060229,
				"z": 0.4975736871,
				"element": "H" 
			},
			{
				"x": -1.5653045471,
				"y": 0.1803469173,
				"z": -1.6671469373,
				"element": "H" 
			},
			{
				"x": -1.1121953944,
				"y": -2.679461324,
				"z": -0.8041716433,
				"element": "H" 
			},
			{
				"x": -2.5170210489,
				"y": -3.155980452,
				"z": -2.636133424,
				"element": "H" 
			},
			{
				"x": -1.9939848006,
				"y": -1.5732209764,
				"z": -3.1713292888,
				"element": "H" 
			},
			{
				"x": -4.245164291,
				"y": -0.7761614362,
				"z": -2.8644568628,
				"element": "H" 
			},
			{
				"x": -4.7127215556,
				"y": -2.3931989477,
				"z": -2.3631700217,
				"element": "H" 
			},
			{
				"x": -3.8625845551,
				"y": -0.0833831109,
				"z": -0.6309809537,
				"element": "H" 
			},
			{
				"x": -5.4951196128,
				"y": -1.0054377248,
				"z": 0.6386779733,
				"element": "H" 
			},
			{
				"x": 2.3288852785,
				"y": -1.3840492035,
				"z": -1.2850701512,
				"element": "H" 
			},
			{
				"x": 1.1473446722,
				"y": -1.9581611502,
				"z": -0.1002401147,
				"element": "H" 
			},
			{
				"x": 2.4498002381,
				"y": 0.7514456331,
				"z": -0.3158460412,
				"element": "H" 
			},
			{
				"x": 1.7353671776,
				"y": -0.9339492086,
				"z": 2.1140871929,
				"element": "H" 
			},
			{
				"x": 3.2828855735,
				"y": -0.9893245318,
				"z": 1.2786107521,
				"element": "H" 
			},
			{
				"x": 2.9660804343,
				"y": 0.5421995587,
				"z": 3.4004155124,
				"element": "H" 
			},
			{
				"x": 4.5985188926,
				"y": 1.8964062441,
				"z": 2.3574971817,
				"element": "H" 
			},
			{
				"x": 2.4535410344,
				"y": 2.67732512,
				"z": 1.3455182505,
				"element": "H" 
			},
			{
				"x": 2.0969572791,
				"y": 2.7174191039,
				"z": 3.0682813942,
				"element": "H" 
			},
			{
				"x": -0.0547550298,
				"y": 2.5706661899,
				"z": 1.8960533326,
				"element": "H" 
			},
			{
				"x": 0.2482358616,
				"y": 1.0385599395,
				"z": 2.6843082215,
				"element": "H" 
			},
			{
				"x": 0.4343877993,
				"y": 1.7056852209,
				"z": -1.6048096258,
				"element": "H" 
			},
			{
				"x": 1.2222215437,
				"y": 2.7950025579,
				"z": -0.4748386314,
				"element": "H" 
			},
			{
				"x": -0.5420463755,
				"y": 2.6732329939,
				"z": -0.4914571728,
				"element": "H" 
			}
		],
		 "valence_orbital": [ 
			{
				"type": "occ",
				"energy": -0.29155,
				"method": "rhf"
			},
			{
				"type": "occ",
				"energy": -0.28731,
				"method": "rhf"
			},
			{
				"type": "occ",
				"energy": -0.2642,
				"method": "rhf"
			},
			{
				"type": "occ",
				"energy": -0.25772,
				"method": "rhf"
			},
			{
				"type": "occ",
				"energy": -0.2287,
				"method": "rhf"
			},
			{
				"type": "unocc",
				"energy": -0.00956,
				"method": "rhf"
			},
			{
				"type": "unocc",
				"energy": 0.05873,
				"method": "rhf"
			},
			{
				"type": "unocc",
				"energy": 0.06633,
				"method": "rhf"
			},
			{
				"type": "unocc",
				"energy": 0.07411,
				"method": "rhf"
			},
			{
				"type": "unocc",
				"energy": 0.07691,
				"method": "rhf"
			}
		],
		"cosmo_sigma_profile": { 
			"-0.025": 0.0,
			"-0.024": 0.0,
			"-0.023": 0.0,
			"-0.022": 0.0,
			"-0.021": 0.0,
			"-0.02": 0.0,
			"-0.019": 0.0,
			"-0.018": 0.0,
			"-0.017": 0.0,
			"-0.016": 0.0,
			"-0.015": 0.496709393306,
			"-0.014": 1.99214126533,
			"-0.013": 1.68945595819,
			"-0.012": 1.78034341041,
			"-0.011": 1.16547503586,
			"-0.01": 2.50161774908,
			"-0.009": 2.02576050995,
			"-0.008": 1.97690532651,
			"-0.007": 1.46304092378,
			"-0.006": 4.39121439201,
			"-0.005": 7.25889669898,
			"-0.004": 12.2189390875,
			"-0.003": 41.2020247429,
			"-0.002": 63.4689306168,
			"-0.001": 53.0900685084,
			"0.0": 39.1258949932,
			"0.001": 28.4483410632,
			"0.002": 14.1131806635,
			"0.003": 6.30262586812,
			"0.004": 4.4786657251,
			"0.005": 4.84659220776,
			"0.006": 4.70254596414,
			"0.007": 4.43210869131,
			"0.008": 4.54927810214,
			"0.009": 4.46042518353,
			"0.01": 3.31962149853,
			"0.011": 4.61427273565,
			"0.012": 6.81666547972,
			"0.013": 5.62431620412,
			"0.014": 4.91522926406,
			"0.015": 1.13704130393,
			"0.016": 0.0,
			"0.017": 0.0,
			"0.018": 0.0,
			"0.019": 0.0,
			"0.02": 0.0,
			"0.021": 0.0,
			"0.022": 0.0,
			"0.023": 0.0,
			"0.024": 0.0,
			"0.025": 0.0
		}
	}
}
