{
	 "smiles": "COC(=O)C(C)OC1=CC=C(O)C=C1", 
	 "Tm": 338.65, 
	 "num_atms": 26, 
	 "gaussian": { 
		 "optdone": 1, 
		 "sigma_profile": "yes", 
		 "theory": "DFT", 
		 "functional": "B3LYP", 
		 "basiset": "6-31G**", 
		 "properties": { 
			 "R2extent": 3872.0298, 
			 "electric_dipole_moment_norm": 3.35773312817, 
			 "electric_quadrupole_moment_norm": 15.1470344111, 
			 "total_energy": -689.181386138, 
			 "HOMO_LUMO_gap": 0.20922, 
			 "cosmo_polarized_energy": -14.63, 
			 "cosmo_cavitation_energy": 30.5, 
			 "cosmo_dispersion_energy": -21.56, 
			 "cosmo_repulsion_energy": 1.73, 
			 "cosmo_total_nonelectrostatic_energy": 10.67, 
			 "SMD_solvation_energy": 7.2 
		},
		"coords": [
			{
				"x": 0.0447163206,
				"y": -1.3982916625,
				"z": -4.2720030994,
				"element": "C" 
			},
			{
				"x": 0.9248911258,
				"y": -1.2831768364,
				"z": -3.1403250346,
				"element": "O" 
			},
			{
				"x": 1.0686761337,
				"y": -0.0343475749,
				"z": -2.643399714,
				"element": "C" 
			},
			{
				"x": 0.502351886,
				"y": 0.9385300144,
				"z": -3.0851504278,
				"element": "O" 
			},
			{
				"x": 2.0735088156,
				"y": -0.0466567015,
				"z": -1.4832239289,
				"element": "C" 
			},
			{
				"x": 3.5020831829,
				"y": -0.1198927556,
				"z": -2.0246467181,
				"element": "C" 
			},
			{
				"x": 1.9735941722,
				"y": 1.1368898266,
				"z": -0.7069744156,
				"element": "O" 
			},
			{
				"x": 0.8975537048,
				"y": 1.2147157571,
				"z": 0.1667042066,
				"element": "C" 
			},
			{
				"x": 0.9362984176,
				"y": 0.5446874125,
				"z": 1.3902457481,
				"element": "C" 
			},
			{
				"x": -0.1196285337,
				"y": 0.6762985253,
				"z": 2.2934887666,
				"element": "C" 
			},
			{
				"x": -1.213469225,
				"y": 1.4881800403,
				"z": 1.9760863184,
				"element": "C" 
			},
			{
				"x": -2.2763394209,
				"y": 1.6608725102,
				"z": 2.8209876057,
				"element": "O" 
			},
			{
				"x": -1.2460683569,
				"y": 2.1652550009,
				"z": 0.7513258027,
				"element": "C" 
			},
			{
				"x": -0.1955338519,
				"y": 2.0258731334,
				"z": -0.1512968716,
				"element": "C" 
			},
			{
				"x": -0.9633387368,
				"y": -1.0699854293,
				"z": -4.0073844405,
				"element": "H" 
			},
			{
				"x": 0.4064692914,
				"y": -0.7895876691,
				"z": -5.1045024299,
				"element": "H" 
			},
			{
				"x": 0.0457131115,
				"y": -2.4544687266,
				"z": -4.5406522881,
				"element": "H" 
			},
			{
				"x": 1.8603215324,
				"y": -0.932467816,
				"z": -0.8694861196,
				"element": "H" 
			},
			{
				"x": 3.6348188378,
				"y": -1.0146971483,
				"z": -2.6374937668,
				"element": "H" 
			},
			{
				"x": 4.2077947679,
				"y": -0.1469049205,
				"z": -1.1907944324,
				"element": "H" 
			},
			{
				"x": 3.7155552038,
				"y": 0.7648260396,
				"z": -2.6309421015,
				"element": "H" 
			},
			{
				"x": 1.7993188182,
				"y": -0.0648719723,
				"z": 1.6409743288,
				"element": "H" 
			},
			{
				"x": -0.0853044517,
				"y": 0.1558451324,
				"z": 3.2485429368,
				"element": "H" 
			},
			{
				"x": -2.124689584,
				"y": 1.1506226682,
				"z": 3.6267208395,
				"element": "H" 
			},
			{
				"x": -2.1014344726,
				"y": 2.792492733,
				"z": 0.5228693419,
				"element": "H" 
			},
			{
				"x": -0.2071586888,
				"y": 2.5288604191,
				"z": -1.1110701063,
				"element": "H" 
			}
		],
		 "valence_orbital": [ 
			{
				"type": "occ",
				"energy": -0.30523,
				"method": "rhf"
			},
			{
				"type": "occ",
				"energy": -0.28581,
				"method": "rhf"
			},
			{
				"type": "occ",
				"energy": -0.26484,
				"method": "rhf"
			},
			{
				"type": "occ",
				"energy": -0.24971,
				"method": "rhf"
			},
			{
				"type": "occ",
				"energy": -0.21091,
				"method": "rhf"
			},
			{
				"type": "unocc",
				"energy": -0.00169,
				"method": "rhf"
			},
			{
				"type": "unocc",
				"energy": 0.00666,
				"method": "rhf"
			},
			{
				"type": "unocc",
				"energy": 0.01986,
				"method": "rhf"
			},
			{
				"type": "unocc",
				"energy": 0.07178,
				"method": "rhf"
			},
			{
				"type": "unocc",
				"energy": 0.0981,
				"method": "rhf"
			}
		],
		"cosmo_sigma_profile": { 
			"-0.025": 0.0,
			"-0.024": 0.0,
			"-0.023": 0.0,
			"-0.022": 0.0,
			"-0.021": 0.0,
			"-0.02": 0.0,
			"-0.019": 0.0,
			"-0.018": 0.216445656716,
			"-0.017": 1.06154947366,
			"-0.016": 1.30249959004,
			"-0.015": 0.949476162429,
			"-0.014": 0.962622280751,
			"-0.013": 1.03000370265,
			"-0.012": 1.25346495683,
			"-0.011": 0.64676638543,
			"-0.01": 0.960240726537,
			"-0.009": 1.02219181589,
			"-0.008": 1.32756959941,
			"-0.007": 2.6597893799,
			"-0.006": 12.6655663726,
			"-0.005": 19.5012697957,
			"-0.004": 23.6929301432,
			"-0.003": 23.9200405715,
			"-0.002": 17.7520915979,
			"-0.001": 15.1174841382,
			"0.0": 12.441593476,
			"0.001": 10.5877510042,
			"0.002": 9.94126532674,
			"0.003": 12.0875130773,
			"0.004": 18.2587293286,
			"0.005": 14.9548682875,
			"0.006": 6.07803360531,
			"0.007": 4.84437666092,
			"0.008": 5.09526805822,
			"0.009": 4.59155049735,
			"0.01": 5.72124938534,
			"0.011": 7.03627777359,
			"0.012": 3.44084956847,
			"0.013": 0.0,
			"0.014": 0.0,
			"0.015": 0.0,
			"0.016": 0.0,
			"0.017": 0.0,
			"0.018": 0.0,
			"0.019": 0.0,
			"0.02": 0.0,
			"0.021": 0.0,
			"0.022": 0.0,
			"0.023": 0.0,
			"0.024": 0.0,
			"0.025": 0.0
		}
	}
}
