{
	 "smiles": "ClC(=O)C1COC2=CC=CC=C2O1", 
	 "Tm": 329.65, 
	 "num_atms": 20, 
	 "gaussian": { 
		 "optdone": 1, 
		 "sigma_profile": "yes", 
		 "theory": "DFT", 
		 "functional": "B3LYP", 
		 "basiset": "6-31G**", 
		 "properties": { 
			 "R2extent": 2835.2047, 
			 "electric_dipole_moment_norm": 2.60573500188, 
			 "electric_quadrupole_moment_norm": 11.6084076458, 
			 "total_energy": -1033.01559291, 
			 "HOMO_LUMO_gap": 0.17163, 
			 "cosmo_polarized_energy": -9.19, 
			 "cosmo_cavitation_energy": 25.87, 
			 "cosmo_dispersion_energy": -19.08, 
			 "cosmo_repulsion_energy": 1.52, 
			 "cosmo_total_nonelectrostatic_energy": 8.3, 
			 "SMD_solvation_energy": 5.09 
		},
		"coords": [
			{
				"x": 2.2416791373,
				"y": -1.2966568873,
				"z": -2.3188452397,
				"element": "Cl" 
			},
			{
				"x": 0.6035129669,
				"y": -1.9806398957,
				"z": -2.0311076743,
				"element": "C" 
			},
			{
				"x": 0.3435254823,
				"y": -3.1098330377,
				"z": -2.3062373732,
				"element": "O" 
			},
			{
				"x": -0.4434652392,
				"y": -0.9839847567,
				"z": -1.4882764519,
				"element": "C" 
			},
			{
				"x": -1.2803299227,
				"y": -1.6505590334,
				"z": -0.3907900158,
				"element": "C" 
			},
			{
				"x": -0.486271342,
				"y": -1.8771324724,
				"z": 0.7652091598,
				"element": "O" 
			},
			{
				"x": 0.2374119569,
				"y": -0.7726735208,
				"z": 1.1576858344,
				"element": "C" 
			},
			{
				"x": 0.7109589031,
				"y": -0.7103408971,
				"z": 2.4682780703,
				"element": "C" 
			},
			{
				"x": 1.4521358848,
				"y": 0.3926013184,
				"z": 2.8881824208,
				"element": "C" 
			},
			{
				"x": 1.7140204509,
				"y": 1.4409176436,
				"z": 2.0007815354,
				"element": "C" 
			},
			{
				"x": 1.2497752111,
				"y": 1.3782311329,
				"z": 0.6881321175,
				"element": "C" 
			},
			{
				"x": 0.5180084515,
				"y": 0.2703979115,
				"z": 0.2645598843,
				"element": "C" 
			},
			{
				"x": 0.0833102525,
				"y": 0.244791458,
				"z": -1.050044551,
				"element": "O" 
			},
			{
				"x": -1.0838604971,
				"y": -0.7569291775,
				"z": -2.3499858589,
				"element": "H" 
			},
			{
				"x": -1.6457697911,
				"y": -2.6224404294,
				"z": -0.722964805,
				"element": "H" 
			},
			{
				"x": -2.1279340188,
				"y": -0.9943833031,
				"z": -0.1525187737,
				"element": "H" 
			},
			{
				"x": 0.4838755793,
				"y": -1.5345186732,
				"z": 3.1366815401,
				"element": "H" 
			},
			{
				"x": 1.8182846866,
				"y": 0.4355974639,
				"z": 3.9090479874,
				"element": "H" 
			},
			{
				"x": 2.2858385468,
				"y": 2.3040204164,
				"z": 2.3264250596,
				"element": "H" 
			},
			{
				"x": 1.449093301,
				"y": 2.1696347395,
				"z": -0.0269128658,
				"element": "H" 
			}
		],
		 "valence_orbital": [ 
			{
				"type": "occ",
				"energy": -0.32343,
				"method": "rhf"
			},
			{
				"type": "occ",
				"energy": -0.31746,
				"method": "rhf"
			},
			{
				"type": "occ",
				"energy": -0.30086,
				"method": "rhf"
			},
			{
				"type": "occ",
				"energy": -0.24471,
				"method": "rhf"
			},
			{
				"type": "occ",
				"energy": -0.22415,
				"method": "rhf"
			},
			{
				"type": "unocc",
				"energy": -0.05252,
				"method": "rhf"
			},
			{
				"type": "unocc",
				"energy": -0.00529,
				"method": "rhf"
			},
			{
				"type": "unocc",
				"energy": 0.0046,
				"method": "rhf"
			},
			{
				"type": "unocc",
				"energy": 0.01666,
				"method": "rhf"
			},
			{
				"type": "unocc",
				"energy": 0.07014,
				"method": "rhf"
			}
		],
		"cosmo_sigma_profile": { 
			"-0.025": 0.0,
			"-0.024": 0.0,
			"-0.023": 0.0,
			"-0.022": 0.0,
			"-0.021": 0.0,
			"-0.02": 0.0,
			"-0.019": 0.0,
			"-0.018": 0.0,
			"-0.017": 0.0,
			"-0.016": 0.0,
			"-0.015": 0.0,
			"-0.014": 0.0,
			"-0.013": 0.0,
			"-0.012": 0.396874101215,
			"-0.011": 3.32128772903,
			"-0.01": 3.05061448781,
			"-0.009": 2.25664965687,
			"-0.008": 4.51716243389,
			"-0.007": 8.14243987999,
			"-0.006": 11.2930176324,
			"-0.005": 11.1232015632,
			"-0.004": 12.6377283883,
			"-0.003": 11.3678579051,
			"-0.002": 9.80537092367,
			"-0.001": 12.7809772659,
			"0.0": 10.642353616,
			"0.001": 13.9639598338,
			"0.002": 15.9811555889,
			"0.003": 21.2851354737,
			"0.004": 20.2985923592,
			"0.005": 14.3996719964,
			"0.006": 6.50552176864,
			"0.007": 5.61746849103,
			"0.008": 6.55505286527,
			"0.009": 2.80298846348,
			"0.01": 0.592699795031,
			"0.011": 0.0,
			"0.012": 0.0,
			"0.013": 0.0,
			"0.014": 0.0,
			"0.015": 0.0,
			"0.016": 0.0,
			"0.017": 0.0,
			"0.018": 0.0,
			"0.019": 0.0,
			"0.02": 0.0,
			"0.021": 0.0,
			"0.022": 0.0,
			"0.023": 0.0,
			"0.024": 0.0,
			"0.025": 0.0
		}
	}
}
