{
	 "smiles": "CN(C)C1=CC=C(Br)C=C1", 
	 "Tm": 327.65, 
	 "num_atms": 20, 
	 "gaussian": { 
		 "optdone": 1, 
		 "sigma_profile": "yes", 
		 "theory": "DFT", 
		 "functional": "B3LYP", 
		 "basiset": "6-31G**", 
		 "properties": { 
			 "R2extent": 6272.989, 
			 "electric_dipole_moment_norm": 4.11171621224, 
			 "electric_quadrupole_moment_norm": 11.5287418338, 
			 "total_energy": -2937.02645841, 
			 "HOMO_LUMO_gap": 0.18797, 
			 "cosmo_polarized_energy": -6.05, 
			 "cosmo_cavitation_energy": 24.93, 
			 "cosmo_dispersion_energy": -19.02, 
			 "cosmo_repulsion_energy": 1.52, 
			 "cosmo_total_nonelectrostatic_energy": 7.43, 
			 "SMD_solvation_energy": 2.77 
		},
		"coords": [
			{
				"x": -0.6673217175,
				"y": -0.4250348732,
				"z": -0.9605028579,
				"element": "C" 
			},
			{
				"x": -0.3821106701,
				"y": 0.9885908097,
				"z": -1.1376242652,
				"element": "N" 
			},
			{
				"x": -0.2302031627,
				"y": 1.4960097458,
				"z": -2.4905768736,
				"element": "C" 
			},
			{
				"x": 0.1427367728,
				"y": 1.7149761112,
				"z": -0.0758641257,
				"element": "C" 
			},
			{
				"x": 0.2048196419,
				"y": 1.1723091431,
				"z": 1.2284570273,
				"element": "C" 
			},
			{
				"x": 0.7023289025,
				"y": 1.9128552359,
				"z": 2.2970169493,
				"element": "C" 
			},
			{
				"x": 1.1602763482,
				"y": 3.2116667107,
				"z": 2.093124765,
				"element": "C" 
			},
			{
				"x": 1.8486226722,
				"y": 4.2262691716,
				"z": 3.563245308,
				"element": "Br" 
			},
			{
				"x": 1.1250519867,
				"y": 3.7690597326,
				"z": 0.8178739324,
				"element": "C" 
			},
			{
				"x": 0.6281588398,
				"y": 3.0312597877,
				"z": -0.2528743234,
				"element": "C" 
			},
			{
				"x": -1.0855978624,
				"y": -0.823813953,
				"z": -1.885937228,
				"element": "H" 
			},
			{
				"x": 0.2267009059,
				"y": -1.0155484558,
				"z": -0.7050766179,
				"element": "H" 
			},
			{
				"x": -1.4114852631,
				"y": -0.5811525744,
				"z": -0.1710414447,
				"element": "H" 
			},
			{
				"x": 0.8231957465,
				"y": 1.6056180477,
				"z": -2.793170802,
				"element": "H" 
			},
			{
				"x": -0.7165191232,
				"y": 2.4719132945,
				"z": -2.6024174559,
				"element": "H" 
			},
			{
				"x": -0.7144330611,
				"y": 0.8090382567,
				"z": -3.186275,
				"element": "H" 
			},
			{
				"x": -0.1361827819,
				"y": 0.1628897632,
				"z": 1.4211900075,
				"element": "H" 
			},
			{
				"x": 0.736044333,
				"y": 1.4722897246,
				"z": 3.2873965803,
				"element": "H" 
			},
			{
				"x": 1.4887497172,
				"y": 4.7774384338,
				"z": 0.6535954541,
				"element": "H" 
			},
			{
				"x": 0.6221677754,
				"y": 3.4927658877,
				"z": -1.2323390294,
				"element": "H" 
			}
		],
		 "valence_orbital": [ 
			{
				"type": "occ",
				"energy": -0.31489,
				"method": "rhf"
			},
			{
				"type": "occ",
				"energy": -0.27477,
				"method": "rhf"
			},
			{
				"type": "occ",
				"energy": -0.26283,
				"method": "rhf"
			},
			{
				"type": "occ",
				"energy": -0.2526,
				"method": "rhf"
			},
			{
				"type": "occ",
				"energy": -0.19111,
				"method": "rhf"
			},
			{
				"type": "unocc",
				"energy": -0.00314,
				"method": "rhf"
			},
			{
				"type": "unocc",
				"energy": 0.0113,
				"method": "rhf"
			},
			{
				"type": "unocc",
				"energy": 0.01995,
				"method": "rhf"
			},
			{
				"type": "unocc",
				"energy": 0.08588,
				"method": "rhf"
			},
			{
				"type": "unocc",
				"energy": 0.10338,
				"method": "rhf"
			}
		],
		"cosmo_sigma_profile": { 
			"-0.025": 0.0,
			"-0.024": 0.0,
			"-0.023": 0.0,
			"-0.022": 0.0,
			"-0.021": 0.0,
			"-0.02": 0.0,
			"-0.019": 0.0,
			"-0.018": 0.0,
			"-0.017": 0.0,
			"-0.016": 0.0,
			"-0.015": 0.0,
			"-0.014": 0.0,
			"-0.013": 0.0,
			"-0.012": 0.0,
			"-0.011": 0.0,
			"-0.01": 0.0,
			"-0.009": 0.0,
			"-0.008": 0.0,
			"-0.007": 1.16276832167,
			"-0.006": 9.65709500288,
			"-0.005": 14.4598941327,
			"-0.004": 16.8023670934,
			"-0.003": 19.6489509625,
			"-0.002": 23.3296435537,
			"-0.001": 18.8382473782,
			"0.0": 10.2849611598,
			"0.001": 10.9607488248,
			"0.002": 10.0320280282,
			"0.003": 13.4725218378,
			"0.004": 18.0556677953,
			"0.005": 24.1637626795,
			"0.006": 9.46911789598,
			"0.007": 0.663854151258,
			"0.008": 0.136590555443,
			"0.009": 0.0,
			"0.01": 0.0,
			"0.011": 0.0,
			"0.012": 0.0,
			"0.013": 0.0,
			"0.014": 0.0,
			"0.015": 0.0,
			"0.016": 0.0,
			"0.017": 0.0,
			"0.018": 0.0,
			"0.019": 0.0,
			"0.02": 0.0,
			"0.021": 0.0,
			"0.022": 0.0,
			"0.023": 0.0,
			"0.024": 0.0,
			"0.025": 0.0
		}
	}
}
