{
	 "smiles": "CN(C)C(=O)C1=CSC(=C1)C(=O)CCl", 
	 "Tm": 416.15, 
	 "num_atms": 24, 
	 "gaussian": { 
		 "optdone": 1, 
		 "sigma_profile": "yes", 
		 "theory": "DFT", 
		 "functional": "B3LYP", 
		 "basiset": "6-31G**", 
		 "properties": { 
			 "R2extent": 5474.3228, 
			 "electric_dipole_moment_norm": 5.13700402569, 
			 "electric_quadrupole_moment_norm": 21.5215972456, 
			 "total_energy": -1412.55248988, 
			 "HOMO_LUMO_gap": 0.16705, 
			 "cosmo_polarized_energy": -19.0, 
			 "cosmo_cavitation_energy": 31.79, 
			 "cosmo_dispersion_energy": -23.19, 
			 "cosmo_repulsion_energy": 1.8, 
			 "cosmo_total_nonelectrostatic_energy": 10.41, 
			 "SMD_solvation_energy": 6.09 
		},
		"coords": [
			{
				"x": -2.0058424409,
				"y": 0.9199239441,
				"z": 0.2138246756,
				"element": "C" 
			},
			{
				"x": -1.6661532094,
				"y": 0.9068422296,
				"z": -1.2024809212,
				"element": "N" 
			},
			{
				"x": -2.6328218292,
				"y": 1.5642523333,
				"z": -2.074202027,
				"element": "C" 
			},
			{
				"x": -0.7498645014,
				"y": 0.0612312864,
				"z": -1.7876173887,
				"element": "C" 
			},
			{
				"x": -0.7731458218,
				"y": -0.1982207754,
				"z": -2.9885750905,
				"element": "O" 
			},
			{
				"x": 0.3404464334,
				"y": -0.5149588192,
				"z": -0.9304144117,
				"element": "C" 
			},
			{
				"x": 0.8514363506,
				"y": -1.7655307885,
				"z": -1.2087097358,
				"element": "C" 
			},
			{
				"x": 2.1687005398,
				"y": -2.1957209668,
				"z": -0.1972384399,
				"element": "S" 
			},
			{
				"x": 2.0881292861,
				"y": -0.6547631148,
				"z": 0.6242680656,
				"element": "C" 
			},
			{
				"x": 1.0648750032,
				"y": 0.1212428415,
				"z": 0.1202228431,
				"element": "C" 
			},
			{
				"x": 3.0681861287,
				"y": -0.379528465,
				"z": 1.6888136124,
				"element": "C" 
			},
			{
				"x": 3.8971461046,
				"y": -1.2047062287,
				"z": 2.024504453,
				"element": "O" 
			},
			{
				"x": 2.9688267338,
				"y": 1.0115908409,
				"z": 2.3288394259,
				"element": "C" 
			},
			{
				"x": 4.1551711689,
				"y": 1.2674550039,
				"z": 3.6413001669,
				"element": "Cl" 
			},
			{
				"x": -1.8835723755,
				"y": 1.922446745,
				"z": 0.6438640335,
				"element": "H" 
			},
			{
				"x": -1.3869003025,
				"y": 0.2185320793,
				"z": 0.7705102337,
				"element": "H" 
			},
			{
				"x": -3.0542173248,
				"y": 0.62289559,
				"z": 0.3490214427,
				"element": "H" 
			},
			{
				"x": -2.2360076425,
				"y": 1.5896266016,
				"z": -3.0874057502,
				"element": "H" 
			},
			{
				"x": -3.5906703135,
				"y": 1.0265382079,
				"z": -2.0867486856,
				"element": "H" 
			},
			{
				"x": -2.8122019849,
				"y": 2.5834624999,
				"z": -1.7153703625,
				"element": "H" 
			},
			{
				"x": 0.5027309976,
				"y": -2.4326230367,
				"z": -1.9851669011,
				"element": "H" 
			},
			{
				"x": 0.852616084,
				"y": 1.1254820901,
				"z": 0.4678014057,
				"element": "H" 
			},
			{
				"x": 1.9696389736,
				"y": 1.1583995094,
				"z": 2.7464043444,
				"element": "H" 
			},
			{
				"x": 3.137893942,
				"y": 1.7782303923,
				"z": 1.5681550117,
				"element": "H" 
			}
		],
		 "valence_orbital": [ 
			{
				"type": "occ",
				"energy": -0.28135,
				"method": "rhf"
			},
			{
				"type": "occ",
				"energy": -0.27697,
				"method": "rhf"
			},
			{
				"type": "occ",
				"energy": -0.2695,
				"method": "rhf"
			},
			{
				"type": "occ",
				"energy": -0.25516,
				"method": "rhf"
			},
			{
				"type": "occ",
				"energy": -0.24764,
				"method": "rhf"
			},
			{
				"type": "unocc",
				"energy": -0.08059,
				"method": "rhf"
			},
			{
				"type": "unocc",
				"energy": -0.02852,
				"method": "rhf"
			},
			{
				"type": "unocc",
				"energy": 0.00758,
				"method": "rhf"
			},
			{
				"type": "unocc",
				"energy": 0.02352,
				"method": "rhf"
			},
			{
				"type": "unocc",
				"energy": 0.03907,
				"method": "rhf"
			}
		],
		"cosmo_sigma_profile": { 
			"-0.025": 0.0,
			"-0.024": 0.0,
			"-0.023": 0.0,
			"-0.022": 0.0,
			"-0.021": 0.0,
			"-0.02": 0.0,
			"-0.019": 0.0,
			"-0.018": 0.0,
			"-0.017": 0.0,
			"-0.016": 0.0,
			"-0.015": 0.0,
			"-0.014": 0.0,
			"-0.013": 0.0,
			"-0.012": 0.0,
			"-0.011": 0.00617019284844,
			"-0.01": 4.79936201361,
			"-0.009": 10.2577081514,
			"-0.008": 6.87347339906,
			"-0.007": 6.0832382999,
			"-0.006": 7.01997475219,
			"-0.005": 17.4069978419,
			"-0.004": 21.037186579,
			"-0.003": 21.0006853389,
			"-0.002": 24.9471214393,
			"-0.001": 15.295322879,
			"0.0": 17.4909837758,
			"0.001": 20.5490975201,
			"0.002": 14.6161945815,
			"0.003": 8.22122502144,
			"0.004": 7.1725493652,
			"0.005": 9.49585379839,
			"0.006": 10.0261791578,
			"0.007": 3.83122152547,
			"0.008": 4.02939579003,
			"0.009": 4.68959014963,
			"0.01": 4.86441233208,
			"0.011": 5.55867491262,
			"0.012": 4.19513288064,
			"0.013": 4.45953394227,
			"0.014": 3.36128515302,
			"0.015": 0.172468851711,
			"0.016": 0.0,
			"0.017": 0.0,
			"0.018": 0.0,
			"0.019": 0.0,
			"0.02": 0.0,
			"0.021": 0.0,
			"0.022": 0.0,
			"0.023": 0.0,
			"0.024": 0.0,
			"0.025": 0.0
		}
	}
}
