{
	 "smiles": "CN1N=C2C=CC=CC2=C1C=O", 
	 "Tm": 349.15, 
	 "num_atms": 20, 
	 "gaussian": { 
		 "optdone": 1, 
		 "sigma_profile": "yes", 
		 "theory": "DFT", 
		 "functional": "B3LYP", 
		 "basiset": "6-31G**", 
		 "properties": { 
			 "R2extent": 2065.5002, 
			 "electric_dipole_moment_norm": 1.53120557405, 
			 "electric_quadrupole_moment_norm": 11.5031037373, 
			 "total_energy": -532.480650356, 
			 "HOMO_LUMO_gap": 0.14983, 
			 "cosmo_polarized_energy": -8.82, 
			 "cosmo_cavitation_energy": 24.36, 
			 "cosmo_dispersion_energy": -17.95, 
			 "cosmo_repulsion_energy": 1.4, 
			 "cosmo_total_nonelectrostatic_energy": 7.81, 
			 "SMD_solvation_energy": 3.99 
		},
		"coords": [
			{
				"x": 2.5427743249,
				"y": -1.1936724086,
				"z": -0.5673113204,
				"element": "C" 
			},
			{
				"x": 1.2135294217,
				"y": -0.6112493545,
				"z": -0.4056747447,
				"element": "N" 
			},
			{
				"x": 1.0860423478,
				"y": 0.7121986884,
				"z": -0.4338307369,
				"element": "N" 
			},
			{
				"x": -0.2406991206,
				"y": 0.9421763843,
				"z": -0.2603979035,
				"element": "C" 
			},
			{
				"x": -0.8992439024,
				"y": 2.1925693448,
				"z": -0.2134431249,
				"element": "C" 
			},
			{
				"x": -2.2645515714,
				"y": 2.186328706,
				"z": -0.0265850946,
				"element": "C" 
			},
			{
				"x": -2.9895627462,
				"y": 0.9684687345,
				"z": 0.1144686608,
				"element": "C" 
			},
			{
				"x": -2.3631389559,
				"y": -0.2606415018,
				"z": 0.0711529931,
				"element": "C" 
			},
			{
				"x": -0.962700991,
				"y": -0.2825914326,
				"z": -0.1195291596,
				"element": "C" 
			},
			{
				"x": 0.03049889,
				"y": -1.2848389586,
				"z": -0.2207946427,
				"element": "C" 
			},
			{
				"x": -0.0855720509,
				"y": -2.7272298754,
				"z": -0.1553107475,
				"element": "C" 
			},
			{
				"x": 0.8414804438,
				"y": -3.5218487913,
				"z": -0.2543690621,
				"element": "O" 
			},
			{
				"x": 3.234614577,
				"y": -0.362179691,
				"z": -0.6906592114,
				"element": "H" 
			},
			{
				"x": 2.560706669,
				"y": -1.8494132316,
				"z": -1.4391437472,
				"element": "H" 
			},
			{
				"x": 2.7999535215,
				"y": -1.7889356772,
				"z": 0.3101523893,
				"element": "H" 
			},
			{
				"x": -0.3349495625,
				"y": 3.1126850985,
				"z": -0.3222870748,
				"element": "H" 
			},
			{
				"x": -2.807071985,
				"y": 3.1260268253,
				"z": 0.0151975259,
				"element": "H" 
			},
			{
				"x": -4.0648985921,
				"y": 1.0144404758,
				"z": 0.2598915823,
				"element": "H" 
			},
			{
				"x": -2.9329137041,
				"y": -1.1783443299,
				"z": 0.1806599457,
				"element": "H" 
			},
			{
				"x": -1.1257970137,
				"y": -3.0815490052,
				"z": -0.0004865269,
				"element": "H" 
			}
		],
		 "valence_orbital": [ 
			{
				"type": "occ",
				"energy": -0.30225,
				"method": "rhf"
			},
			{
				"type": "occ",
				"energy": -0.29403,
				"method": "rhf"
			},
			{
				"type": "occ",
				"energy": -0.25922,
				"method": "rhf"
			},
			{
				"type": "occ",
				"energy": -0.2539,
				"method": "rhf"
			},
			{
				"type": "occ",
				"energy": -0.22291,
				"method": "rhf"
			},
			{
				"type": "unocc",
				"energy": -0.07308,
				"method": "rhf"
			},
			{
				"type": "unocc",
				"energy": -0.0184,
				"method": "rhf"
			},
			{
				"type": "unocc",
				"energy": 0.0213,
				"method": "rhf"
			},
			{
				"type": "unocc",
				"energy": 0.07852,
				"method": "rhf"
			},
			{
				"type": "unocc",
				"energy": 0.09078,
				"method": "rhf"
			}
		],
		"cosmo_sigma_profile": { 
			"-0.025": 0.0,
			"-0.024": 0.0,
			"-0.023": 0.0,
			"-0.022": 0.0,
			"-0.021": 0.0,
			"-0.02": 0.0,
			"-0.019": 0.0,
			"-0.018": 0.0,
			"-0.017": 0.0,
			"-0.016": 0.0,
			"-0.015": 0.0,
			"-0.014": 0.0,
			"-0.013": 0.0,
			"-0.012": 0.0,
			"-0.011": 0.0,
			"-0.01": 0.0,
			"-0.009": 0.000123674706117,
			"-0.008": 1.22197779457,
			"-0.007": 7.67268901156,
			"-0.006": 16.0157490706,
			"-0.005": 17.1940874692,
			"-0.004": 17.759447289,
			"-0.003": 16.9955798352,
			"-0.002": 13.6295419357,
			"-0.001": 11.2456803668,
			"0.0": 11.304485725,
			"0.001": 10.3438122165,
			"0.002": 12.5454547296,
			"0.003": 14.1513626499,
			"0.004": 13.0944145343,
			"0.005": 7.56985833572,
			"0.006": 3.79175849508,
			"0.007": 2.54954557729,
			"0.008": 2.7324986606,
			"0.009": 2.75581543351,
			"0.01": 2.74140525523,
			"0.011": 4.09861864255,
			"0.012": 3.51471815016,
			"0.013": 2.20264702271,
			"0.014": 0.447618052488,
			"0.015": 0.0145988101566,
			"0.016": 0.0,
			"0.017": 0.0,
			"0.018": 0.0,
			"0.019": 0.0,
			"0.02": 0.0,
			"0.021": 0.0,
			"0.022": 0.0,
			"0.023": 0.0,
			"0.024": 0.0,
			"0.025": 0.0
		}
	}
}
