{
	 "smiles": "CC1=NOC(C(F)F)=C1C(O)=O", 
	 "Tm": 408.15, 
	 "num_atms": 17, 
	 "gaussian": { 
		 "optdone": 1, 
		 "sigma_profile": "yes", 
		 "theory": "DFT", 
		 "functional": "B3LYP", 
		 "basiset": "6-31G**", 
		 "properties": { 
			 "R2extent": 2284.0669, 
			 "electric_dipole_moment_norm": 4.25269579443, 
			 "electric_quadrupole_moment_norm": 8.6840103587, 
			 "total_energy": -711.710177461, 
			 "HOMO_LUMO_gap": 0.22436, 
			 "cosmo_polarized_energy": -10.94, 
			 "cosmo_cavitation_energy": 23.36, 
			 "cosmo_dispersion_energy": -16.73, 
			 "cosmo_repulsion_energy": 1.31, 
			 "cosmo_total_nonelectrostatic_energy": 7.94, 
			 "SMD_solvation_energy": 6.3 
		},
		"coords": [
			{
				"x": 2.3798623825,
				"y": -2.2504093209,
				"z": -0.1173861828,
				"element": "C" 
			},
			{
				"x": 1.3494110912,
				"y": -1.1660478789,
				"z": -0.1085671606,
				"element": "C" 
			},
			{
				"x": 1.5031310433,
				"y": -0.1341164612,
				"z": 0.6872471208,
				"element": "N" 
			},
			{
				"x": 0.3899418418,
				"y": 0.6973664213,
				"z": 0.4696876492,
				"element": "O" 
			},
			{
				"x": -0.3989104544,
				"y": 0.1423948739,
				"z": -0.4487332396,
				"element": "C" 
			},
			{
				"x": -1.6513100255,
				"y": 0.882727438,
				"z": -0.8239451373,
				"element": "C" 
			},
			{
				"x": -2.4190338456,
				"y": 1.0567082819,
				"z": 0.2897557117,
				"element": "F" 
			},
			{
				"x": -1.3165860354,
				"y": 2.1167350613,
				"z": -1.2986697174,
				"element": "F" 
			},
			{
				"x": 0.1349519924,
				"y": -1.0474087999,
				"z": -0.8725672544,
				"element": "C" 
			},
			{
				"x": -0.4540990737,
				"y": -1.9410353084,
				"z": -1.8782377864,
				"element": "C" 
			},
			{
				"x": 0.2965196368,
				"y": -3.045587728,
				"z": -2.0937522049,
				"element": "O" 
			},
			{
				"x": -1.4988758019,
				"y": -1.7367445327,
				"z": -2.4679956766,
				"element": "O" 
			},
			{
				"x": 3.1697576271,
				"y": -2.0076805417,
				"z": 0.5954258534,
				"element": "H" 
			},
			{
				"x": 2.8136764027,
				"y": -2.3631774315,
				"z": -1.114649505,
				"element": "H" 
			},
			{
				"x": 1.9322165262,
				"y": -3.2112286699,
				"z": 0.1505723772,
				"element": "H" 
			},
			{
				"x": -2.2169753776,
				"y": 0.3365088817,
				"z": -1.5811905528,
				"element": "H" 
			},
			{
				"x": -0.1749779301,
				"y": -3.564204285,
				"z": -2.7674942946,
				"element": "H" 
			}
		],
		 "valence_orbital": [ 
			{
				"type": "occ",
				"energy": -0.34549,
				"method": "rhf"
			},
			{
				"type": "occ",
				"energy": -0.328,
				"method": "rhf"
			},
			{
				"type": "occ",
				"energy": -0.31173,
				"method": "rhf"
			},
			{
				"type": "occ",
				"energy": -0.30105,
				"method": "rhf"
			},
			{
				"type": "occ",
				"energy": -0.29137,
				"method": "rhf"
			},
			{
				"type": "unocc",
				"energy": -0.06701,
				"method": "rhf"
			},
			{
				"type": "unocc",
				"energy": -0.01933,
				"method": "rhf"
			},
			{
				"type": "unocc",
				"energy": 0.058,
				"method": "rhf"
			},
			{
				"type": "unocc",
				"energy": 0.06976,
				"method": "rhf"
			},
			{
				"type": "unocc",
				"energy": 0.07801,
				"method": "rhf"
			}
		],
		"cosmo_sigma_profile": { 
			"-0.025": 0.0,
			"-0.024": 0.0,
			"-0.023": 0.0,
			"-0.022": 0.0,
			"-0.021": 0.0,
			"-0.02": 0.0127725731851,
			"-0.019": 0.621223653579,
			"-0.018": 1.22838509602,
			"-0.017": 0.691441032902,
			"-0.016": 0.619241164704,
			"-0.015": 0.790366744115,
			"-0.014": 0.781597589267,
			"-0.013": 0.596582243133,
			"-0.012": 0.830332010509,
			"-0.011": 0.765442249467,
			"-0.01": 0.436680997285,
			"-0.009": 1.64727025235,
			"-0.008": 1.68131057443,
			"-0.007": 2.08378414398,
			"-0.006": 6.19574750181,
			"-0.005": 11.5744919651,
			"-0.004": 16.8391652352,
			"-0.003": 16.6993496175,
			"-0.002": 15.6272482123,
			"-0.001": 10.5008715022,
			"0.0": 7.55391846109,
			"0.001": 8.89689480402,
			"0.002": 10.5704773833,
			"0.003": 22.8810020859,
			"0.004": 16.1750123767,
			"0.005": 6.44449992368,
			"0.006": 5.39209614542,
			"0.007": 3.69424258591,
			"0.008": 2.5567738702,
			"0.009": 2.67426804681,
			"0.01": 4.60622959703,
			"0.011": 3.29700542424,
			"0.012": 1.43577152211,
			"0.013": 0.590284541536,
			"0.014": 0.0,
			"0.015": 0.0,
			"0.016": 0.0,
			"0.017": 0.0,
			"0.018": 0.0,
			"0.019": 0.0,
			"0.02": 0.0,
			"0.021": 0.0,
			"0.022": 0.0,
			"0.023": 0.0,
			"0.024": 0.0,
			"0.025": 0.0
		}
	}
}
