{
	 "smiles": "CCOC1=CC=C(NC2=CC(=O)NC3=C2C=CC=C3)C=C1", 
	 "Tm": 293.15, 
	 "num_atms": 37, 
	 "gaussian": { 
		 "optdone": 1, 
		 "sigma_profile": "yes", 
		 "theory": "DFT", 
		 "functional": "B3LYP", 
		 "basiset": "6-31G**", 
		 "properties": { 
			 "R2extent": 9343.1499, 
			 "electric_dipole_moment_norm": 4.76915389771, 
			 "electric_quadrupole_moment_norm": 26.6463377634, 
			 "total_energy": -917.424075074, 
			 "HOMO_LUMO_gap": 0.15373, 
			 "cosmo_polarized_energy": -18.31, 
			 "cosmo_cavitation_energy": 40.67, 
			 "cosmo_dispersion_energy": -29.18, 
			 "cosmo_repulsion_energy": 2.24, 
			 "cosmo_total_nonelectrostatic_energy": 13.74, 
			 "SMD_solvation_energy": 7.42 
		},
		"coords": [
			{
				"x": -3.2135127477,
				"y": -4.4141040783,
				"z": -0.8150885204,
				"element": "C" 
			},
			{
				"x": -2.1118265921,
				"y": -3.3689125175,
				"z": -0.8365999008,
				"element": "C" 
			},
			{
				"x": -2.6879591342,
				"y": -2.145263684,
				"z": -1.2897112014,
				"element": "O" 
			},
			{
				"x": -1.8879189814,
				"y": -1.0439996962,
				"z": -1.3939046181,
				"element": "C" 
			},
			{
				"x": -2.5135834884,
				"y": 0.1256385499,
				"z": -1.8529554335,
				"element": "C" 
			},
			{
				"x": -1.7928101027,
				"y": 1.3046658461,
				"z": -1.9786025992,
				"element": "C" 
			},
			{
				"x": -0.4219148158,
				"y": 1.3442449429,
				"z": -1.6750238193,
				"element": "C" 
			},
			{
				"x": 0.2771682999,
				"y": 2.5735384776,
				"z": -1.8551628565,
				"element": "N" 
			},
			{
				"x": 1.5269781537,
				"y": 2.86588713,
				"z": -1.2985963419,
				"element": "C" 
			},
			{
				"x": 2.550941555,
				"y": 3.2887590636,
				"z": -2.1013553737,
				"element": "C" 
			},
			{
				"x": 3.8559675483,
				"y": 3.6731105772,
				"z": -1.5944787269,
				"element": "C" 
			},
			{
				"x": 4.8044660738,
				"y": 4.0563230626,
				"z": -2.2742125154,
				"element": "O" 
			},
			{
				"x": 3.9890931601,
				"y": 3.536417491,
				"z": -0.208517229,
				"element": "N" 
			},
			{
				"x": 2.9896697998,
				"y": 3.1567404601,
				"z": 0.6623987367,
				"element": "C" 
			},
			{
				"x": 1.7093913447,
				"y": 2.8223765221,
				"z": 0.1513333082,
				"element": "C" 
			},
			{
				"x": 0.6810165639,
				"y": 2.5274792473,
				"z": 1.0680623393,
				"element": "C" 
			},
			{
				"x": 0.9182566089,
				"y": 2.5138835192,
				"z": 2.4344631433,
				"element": "C" 
			},
			{
				"x": 2.2011774328,
				"y": 2.8038645236,
				"z": 2.9228767516,
				"element": "C" 
			},
			{
				"x": 3.2267507295,
				"y": 3.1281805938,
				"z": 2.0487453212,
				"element": "C" 
			},
			{
				"x": 0.2019385096,
				"y": 0.1731197867,
				"z": -1.2377977416,
				"element": "C" 
			},
			{
				"x": -0.5245159378,
				"y": -1.0108657534,
				"z": -1.0810679848,
				"element": "C" 
			},
			{
				"x": -3.6348333253,
				"y": -4.5503309191,
				"z": -1.8149714757,
				"element": "H" 
			},
			{
				"x": -2.8151922558,
				"y": -5.3738403865,
				"z": -0.471970699,
				"element": "H" 
			},
			{
				"x": -4.0190034136,
				"y": -4.1110164997,
				"z": -0.1404053988,
				"element": "H" 
			},
			{
				"x": -1.6823360202,
				"y": -3.2322261155,
				"z": 0.1663634022,
				"element": "H" 
			},
			{
				"x": -1.2978538601,
				"y": -3.6721617345,
				"z": -1.5107123622,
				"element": "H" 
			},
			{
				"x": -3.5714238764,
				"y": 0.0882032947,
				"z": -2.0915161861,
				"element": "H" 
			},
			{
				"x": -2.289958383,
				"y": 2.2120385323,
				"z": -2.3105652557,
				"element": "H" 
			},
			{
				"x": 0.1776433515,
				"y": 2.9449412995,
				"z": -2.7919655088,
				"element": "H" 
			},
			{
				"x": 2.4377148564,
				"y": 3.3274806484,
				"z": -3.1795279251,
				"element": "H" 
			},
			{
				"x": 4.8992718495,
				"y": 3.7905048866,
				"z": 0.1537758314,
				"element": "H" 
			},
			{
				"x": -0.3118454145,
				"y": 2.3132627197,
				"z": 0.69279924,
				"element": "H" 
			},
			{
				"x": 0.1111180837,
				"y": 2.2835908686,
				"z": 3.1223594313,
				"element": "H" 
			},
			{
				"x": 2.3938338756,
				"y": 2.7884061618,
				"z": 3.9916320618,
				"element": "H" 
			},
			{
				"x": 4.2162390161,
				"y": 3.3768734164,
				"z": 2.4230283413,
				"element": "H" 
			},
			{
				"x": 1.264384728,
				"y": 0.1772315,
				"z": -1.0183063675,
				"element": "H" 
			},
			{
				"x": -0.0099331919,
				"y": -1.8983417372,
				"z": -0.7328218669,
				"element": "H" 
			}
		],
		 "valence_orbital": [ 
			{
				"type": "occ",
				"energy": -0.25797,
				"method": "rhf"
			},
			{
				"type": "occ",
				"energy": -0.24179,
				"method": "rhf"
			},
			{
				"type": "occ",
				"energy": -0.23647,
				"method": "rhf"
			},
			{
				"type": "occ",
				"energy": -0.21373,
				"method": "rhf"
			},
			{
				"type": "occ",
				"energy": -0.20101,
				"method": "rhf"
			},
			{
				"type": "unocc",
				"energy": -0.04728,
				"method": "rhf"
			},
			{
				"type": "unocc",
				"energy": -0.01159,
				"method": "rhf"
			},
			{
				"type": "unocc",
				"energy": 0.00133,
				"method": "rhf"
			},
			{
				"type": "unocc",
				"energy": 0.00704,
				"method": "rhf"
			},
			{
				"type": "unocc",
				"energy": 0.02728,
				"method": "rhf"
			}
		],
		"cosmo_sigma_profile": { 
			"-0.025": 0.0,
			"-0.024": 0.0,
			"-0.023": 0.0,
			"-0.022": 0.0,
			"-0.021": 0.0,
			"-0.02": 0.0,
			"-0.019": 0.0,
			"-0.018": 0.0,
			"-0.017": 0.0,
			"-0.016": 0.0,
			"-0.015": 0.506294694769,
			"-0.014": 2.0052985552,
			"-0.013": 2.31647145453,
			"-0.012": 2.97285522189,
			"-0.011": 2.00102278884,
			"-0.01": 2.20694501818,
			"-0.009": 2.8118689688,
			"-0.008": 3.29672935524,
			"-0.007": 4.64815026601,
			"-0.006": 14.5130850807,
			"-0.005": 20.4361252235,
			"-0.004": 26.6224061054,
			"-0.003": 26.5836083341,
			"-0.002": 23.0516834134,
			"-0.001": 21.2792550952,
			"0.0": 24.4988191356,
			"0.001": 24.8763370222,
			"0.002": 21.8637059611,
			"0.003": 23.4531579197,
			"0.004": 23.3397640736,
			"0.005": 17.9480373716,
			"0.006": 5.19868650363,
			"0.007": 3.40125977608,
			"0.008": 2.96424655884,
			"0.009": 2.6247021962,
			"0.01": 2.79840579515,
			"0.011": 1.22656000005,
			"0.012": 1.67325405948,
			"0.013": 1.96826039951,
			"0.014": 5.33573803178,
			"0.015": 4.74629528825,
			"0.016": 0.7171838574,
			"0.017": 0.0,
			"0.018": 0.0,
			"0.019": 0.0,
			"0.02": 0.0,
			"0.021": 0.0,
			"0.022": 0.0,
			"0.023": 0.0,
			"0.024": 0.0,
			"0.025": 0.0
		}
	}
}
