{
	 "smiles": "BrC1=CC2=C(C=C1)C1=C(C2)C=C(Br)C=C1", 
	 "Tm": 438.65, 
	 "num_atms": 23, 
	 "gaussian": { 
		 "optdone": 1, 
		 "sigma_profile": "yes", 
		 "theory": "DFT", 
		 "functional": "B3LYP", 
		 "basiset": "6-31G**", 
		 "properties": { 
			 "R2extent": 10289.203, 
			 "electric_dipole_moment_norm": 0.141495300275, 
			 "electric_quadrupole_moment_norm": 18.7660077419, 
			 "total_energy": -5643.03192016, 
			 "HOMO_LUMO_gap": 0.17268, 
			 "cosmo_polarized_energy": -6.4, 
			 "cosmo_cavitation_energy": 31.7, 
			 "cosmo_dispersion_energy": -24.25, 
			 "cosmo_repulsion_energy": 1.87, 
			 "cosmo_total_nonelectrostatic_energy": 9.32, 
			 "SMD_solvation_energy": 2.27 
		},
		"coords": [
			{
				"x": -0.6133868901,
				"y": -0.3142149615,
				"z": 4.4429539367,
				"element": "Br" 
			},
			{
				"x": -0.9601722363,
				"y": -0.133519216,
				"z": 2.5706145425,
				"element": "C" 
			},
			{
				"x": 0.0582835151,
				"y": 0.3311635324,
				"z": 1.7342815302,
				"element": "C" 
			},
			{
				"x": -0.2160464854,
				"y": 0.4546207697,
				"z": 0.3776974747,
				"element": "C" 
			},
			{
				"x": -1.4859625076,
				"y": 0.1201055374,
				"z": -0.1375067704,
				"element": "C" 
			},
			{
				"x": -2.4907064372,
				"y": -0.3426428175,
				"z": 0.7149633604,
				"element": "C" 
			},
			{
				"x": -2.2239861799,
				"y": -0.4697783291,
				"z": 2.078979127,
				"element": "C" 
			},
			{
				"x": -1.4776897685,
				"y": 0.3506226877,
				"z": -1.5867783441,
				"element": "C" 
			},
			{
				"x": -0.202702601,
				"y": 0.8262080135,
				"z": -1.9586093143,
				"element": "C" 
			},
			{
				"x": 0.6922626801,
				"y": 0.9273963311,
				"z": -0.7396613924,
				"element": "C" 
			},
			{
				"x": 0.0869461922,
				"y": 1.129262092,
				"z": -3.2834093588,
				"element": "C" 
			},
			{
				"x": -0.9213340565,
				"y": 0.9488487911,
				"z": -4.2339108264,
				"element": "C" 
			},
			{
				"x": -0.553484668,
				"y": 1.3572636055,
				"z": -6.0660078624,
				"element": "Br" 
			},
			{
				"x": -2.1899562539,
				"y": 0.4789380807,
				"z": -3.8849502569,
				"element": "C" 
			},
			{
				"x": -2.4720778503,
				"y": 0.1770381537,
				"z": -2.5518712429,
				"element": "C" 
			},
			{
				"x": 1.02981489,
				"y": 0.5845078059,
				"z": 2.1449199133,
				"element": "H" 
			},
			{
				"x": -3.4734837358,
				"y": -0.6042204384,
				"z": 0.3333511231,
				"element": "H" 
			},
			{
				"x": -2.9889225135,
				"y": -0.8269364538,
				"z": 2.7588025551,
				"element": "H" 
			},
			{
				"x": 1.5876927121,
				"y": 0.2994282426,
				"z": -0.8344157879,
				"element": "H" 
			},
			{
				"x": 1.0466978106,
				"y": 1.9531694092,
				"z": -0.5744860668,
				"element": "H" 
			},
			{
				"x": 1.0625499843,
				"y": 1.4957666628,
				"z": -3.5843277124,
				"element": "H" 
			},
			{
				"x": -2.9466476051,
				"y": 0.3517409194,
				"z": -4.6505057759,
				"element": "H" 
			},
			{
				"x": -3.4585879953,
				"y": -0.1882684185,
				"z": -2.2812228513,
				"element": "H" 
			}
		],
		 "valence_orbital": [ 
			{
				"type": "occ",
				"energy": -0.28808,
				"method": "rhf"
			},
			{
				"type": "occ",
				"energy": -0.26764,
				"method": "rhf"
			},
			{
				"type": "occ",
				"energy": -0.26424,
				"method": "rhf"
			},
			{
				"type": "occ",
				"energy": -0.25967,
				"method": "rhf"
			},
			{
				"type": "occ",
				"energy": -0.21936,
				"method": "rhf"
			},
			{
				"type": "unocc",
				"energy": -0.04668,
				"method": "rhf"
			},
			{
				"type": "unocc",
				"energy": -0.0278,
				"method": "rhf"
			},
			{
				"type": "unocc",
				"energy": -0.00826,
				"method": "rhf"
			},
			{
				"type": "unocc",
				"energy": 0.00346,
				"method": "rhf"
			},
			{
				"type": "unocc",
				"energy": 0.00754,
				"method": "rhf"
			}
		],
		"cosmo_sigma_profile": { 
			"-0.025": 0.0,
			"-0.024": 0.0,
			"-0.023": 0.0,
			"-0.022": 0.0,
			"-0.021": 0.0,
			"-0.02": 0.0,
			"-0.019": 0.0,
			"-0.018": 0.0,
			"-0.017": 0.0,
			"-0.016": 0.0,
			"-0.015": 0.0,
			"-0.014": 0.0,
			"-0.013": 0.0,
			"-0.012": 0.0,
			"-0.011": 0.0,
			"-0.01": 0.0,
			"-0.009": 0.0,
			"-0.008": 0.133369617818,
			"-0.007": 8.76910066819,
			"-0.006": 15.1309220916,
			"-0.005": 16.9177086187,
			"-0.004": 19.5852414585,
			"-0.003": 17.2151140699,
			"-0.002": 14.0265945855,
			"-0.001": 15.9113261335,
			"0.0": 15.7057173561,
			"0.001": 20.8784301214,
			"0.002": 30.5813386923,
			"0.003": 37.5992829725,
			"0.004": 33.2852779142,
			"0.005": 16.0255359759,
			"0.006": 0.00371335095521,
			"0.007": 0.0,
			"0.008": 0.0,
			"0.009": 0.0,
			"0.01": 0.0,
			"0.011": 0.0,
			"0.012": 0.0,
			"0.013": 0.0,
			"0.014": 0.0,
			"0.015": 0.0,
			"0.016": 0.0,
			"0.017": 0.0,
			"0.018": 0.0,
			"0.019": 0.0,
			"0.02": 0.0,
			"0.021": 0.0,
			"0.022": 0.0,
			"0.023": 0.0,
			"0.024": 0.0,
			"0.025": 0.0
		}
	}
}
