{
	 "smiles": "CNC(C(O)=O)C1=CC(F)=C(F)C(F)=C1", 
	 "Tm": 521.15, 
	 "num_atms": 23, 
	 "gaussian": { 
		 "optdone": 1, 
		 "sigma_profile": "yes", 
		 "theory": "DFT", 
		 "functional": "B3LYP", 
		 "basiset": "6-31G**", 
		 "properties": { 
			 "R2extent": 3868.3229, 
			 "electric_dipole_moment_norm": 4.69950340781, 
			 "electric_quadrupole_moment_norm": 7.50875599817, 
			 "total_energy": -852.467637575, 
			 "HOMO_LUMO_gap": 0.22494, 
			 "cosmo_polarized_energy": -11.54, 
			 "cosmo_cavitation_energy": 29.26, 
			 "cosmo_dispersion_energy": -20.19, 
			 "cosmo_repulsion_energy": 1.55, 
			 "cosmo_total_nonelectrostatic_energy": 10.61, 
			 "SMD_solvation_energy": 6.78 
		},
		"coords": [
			{
				"x": 0.9073171932,
				"y": 0.1619410424,
				"z": 2.2879708138,
				"element": "C" 
			},
			{
				"x": -0.2384111918,
				"y": 0.7746326638,
				"z": 1.6217043017,
				"element": "N" 
			},
			{
				"x": -0.9917037692,
				"y": -0.1500606673,
				"z": 0.7877293698,
				"element": "C" 
			},
			{
				"x": -2.4236030358,
				"y": 0.3469612421,
				"z": 0.5338852763,
				"element": "C" 
			},
			{
				"x": -2.8663984078,
				"y": 1.162145003,
				"z": 1.5222983739,
				"element": "O" 
			},
			{
				"x": -3.1190521869,
				"y": 0.0116697235,
				"z": -0.3946133884,
				"element": "O" 
			},
			{
				"x": -0.2940588034,
				"y": -0.4264981384,
				"z": -0.5408548376,
				"element": "C" 
			},
			{
				"x": -0.4734408284,
				"y": -1.6535102371,
				"z": -1.1859047234,
				"element": "C" 
			},
			{
				"x": 0.1396109304,
				"y": -1.8794046774,
				"z": -2.4108706465,
				"element": "C" 
			},
			{
				"x": -0.0176195931,
				"y": -3.0531066369,
				"z": -3.044356279,
				"element": "F" 
			},
			{
				"x": 0.9368428954,
				"y": -0.9058301685,
				"z": -3.0089095085,
				"element": "C" 
			},
			{
				"x": 1.5325094655,
				"y": -1.1388710071,
				"z": -4.1856309382,
				"element": "F" 
			},
			{
				"x": 1.1087049648,
				"y": 0.3105025027,
				"z": -2.351686296,
				"element": "C" 
			},
			{
				"x": 1.8832691668,
				"y": 1.2428214403,
				"z": -2.9310778944,
				"element": "F" 
			},
			{
				"x": 0.5030190824,
				"y": 0.5607940328,
				"z": -1.127981482,
				"element": "C" 
			},
			{
				"x": 1.3816173215,
				"y": 0.9016602691,
				"z": 2.9384604856,
				"element": "H" 
			},
			{
				"x": 1.6464214345,
				"y": -0.1509419348,
				"z": 1.544325165,
				"element": "H" 
			},
			{
				"x": 0.6488726771,
				"y": -0.722664533,
				"z": 2.8971422102,
				"element": "H" 
			},
			{
				"x": -0.8599270568,
				"y": 1.19773152,
				"z": 2.3016009172,
				"element": "H" 
			},
			{
				"x": -1.1446668067,
				"y": -1.1300937814,
				"z": 1.2873840926,
				"element": "H" 
			},
			{
				"x": -3.7830330231,
				"y": 1.3928105195,
				"z": 1.2948588422,
				"element": "H" 
			},
			{
				"x": -1.0905572864,
				"y": -2.4364362452,
				"z": -0.758930004,
				"element": "H" 
			},
			{
				"x": 0.6562868579,
				"y": 1.5103480679,
				"z": -0.6289438503,
				"element": "H" 
			}
		],
		 "valence_orbital": [ 
			{
				"type": "occ",
				"energy": -0.33569,
				"method": "rhf"
			},
			{
				"type": "occ",
				"energy": -0.29024,
				"method": "rhf"
			},
			{
				"type": "occ",
				"energy": -0.25365,
				"method": "rhf"
			},
			{
				"type": "occ",
				"energy": -0.25028,
				"method": "rhf"
			},
			{
				"type": "occ",
				"energy": -0.24177,
				"method": "rhf"
			},
			{
				"type": "unocc",
				"energy": -0.01683,
				"method": "rhf"
			},
			{
				"type": "unocc",
				"energy": -0.01254,
				"method": "rhf"
			},
			{
				"type": "unocc",
				"energy": -0.00016,
				"method": "rhf"
			},
			{
				"type": "unocc",
				"energy": 0.05677,
				"method": "rhf"
			},
			{
				"type": "unocc",
				"energy": 0.06035,
				"method": "rhf"
			}
		],
		"cosmo_sigma_profile": { 
			"-0.025": 0.0,
			"-0.024": 0.0,
			"-0.023": 0.0,
			"-0.022": 0.0,
			"-0.021": 0.0,
			"-0.02": 0.0,
			"-0.019": 0.49530229367,
			"-0.018": 0.762094665502,
			"-0.017": 1.07576226014,
			"-0.016": 0.876817701266,
			"-0.015": 0.819517823123,
			"-0.014": 0.482433470329,
			"-0.013": 0.62830245654,
			"-0.012": 0.879301841668,
			"-0.011": 0.458655867446,
			"-0.01": 0.858581271994,
			"-0.009": 1.24782388883,
			"-0.008": 5.21037888488,
			"-0.007": 6.57318044351,
			"-0.006": 5.98822287812,
			"-0.005": 7.2582911565,
			"-0.004": 10.9091739768,
			"-0.003": 13.9321525158,
			"-0.002": 20.3650890314,
			"-0.001": 26.0293356075,
			"0.0": 23.0497809727,
			"0.001": 15.4255576933,
			"0.002": 13.4576240649,
			"0.003": 31.8029892286,
			"0.004": 19.1962190298,
			"0.005": 3.82337266236,
			"0.006": 3.26677058934,
			"0.007": 2.53642808588,
			"0.008": 2.28045390063,
			"0.009": 2.48335824486,
			"0.01": 3.72210155753,
			"0.011": 5.62231061643,
			"0.012": 1.54921581404,
			"0.013": 0.0285736216407,
			"0.014": 0.0,
			"0.015": 0.0,
			"0.016": 0.0,
			"0.017": 0.0,
			"0.018": 0.0,
			"0.019": 0.0,
			"0.02": 0.0,
			"0.021": 0.0,
			"0.022": 0.0,
			"0.023": 0.0,
			"0.024": 0.0,
			"0.025": 0.0
		}
	}
}
