{
	 "smiles": "O=C1OC(=O)C2CC3=CC=CC=C3CC12", 
	 "Tm": 461.15, 
	 "num_atms": 25, 
	 "gaussian": { 
		 "optdone": 1, 
		 "sigma_profile": "yes", 
		 "theory": "DFT", 
		 "functional": "B3LYP", 
		 "basiset": "6-31G**", 
		 "properties": { 
			 "R2extent": 3339.5421, 
			 "electric_dipole_moment_norm": 4.73512078093, 
			 "electric_quadrupole_moment_norm": 8.56546273881, 
			 "total_energy": -688.998665644, 
			 "HOMO_LUMO_gap": 0.21781, 
			 "cosmo_polarized_energy": -13.42, 
			 "cosmo_cavitation_energy": 28.38, 
			 "cosmo_dispersion_energy": -20.86, 
			 "cosmo_repulsion_energy": 1.6, 
			 "cosmo_total_nonelectrostatic_energy": 9.12, 
			 "SMD_solvation_energy": 6.06 
		},
		"coords": [
			{
				"x": 2.2477739764,
				"y": -3.1657640898,
				"z": 0.0673989264,
				"element": "O" 
			},
			{
				"x": 1.6267710067,
				"y": -2.2984755814,
				"z": 0.6087813504,
				"element": "C" 
			},
			{
				"x": 1.6511851939,
				"y": -2.1288975217,
				"z": 1.9993041756,
				"element": "O" 
			},
			{
				"x": 1.0242991619,
				"y": -0.9306427974,
				"z": 2.365537248,
				"element": "C" 
			},
			{
				"x": 0.7851638627,
				"y": -0.666446955,
				"z": 3.5074393705,
				"element": "O" 
			},
			{
				"x": 0.7939197283,
				"y": -0.1402542479,
				"z": 1.0945946358,
				"element": "C" 
			},
			{
				"x": -0.3738150873,
				"y": 0.8250157919,
				"z": 0.9846484115,
				"element": "C" 
			},
			{
				"x": -0.5501943309,
				"y": 1.2506941042,
				"z": -0.4731745604,
				"element": "C" 
			},
			{
				"x": -1.3263708886,
				"y": 2.3865731298,
				"z": -0.7466261008,
				"element": "C" 
			},
			{
				"x": -1.543929261,
				"y": 2.8243952012,
				"z": -2.0495514872,
				"element": "C" 
			},
			{
				"x": -0.9770720142,
				"y": 2.1220851758,
				"z": -3.1152212575,
				"element": "C" 
			},
			{
				"x": -0.2041252826,
				"y": 0.993560787,
				"z": -2.8590400157,
				"element": "C" 
			},
			{
				"x": 0.0242495311,
				"y": 0.5408347949,
				"z": -1.5512451069,
				"element": "C" 
			},
			{
				"x": 0.8998295532,
				"y": -0.6968415448,
				"z": -1.3533208128,
				"element": "C" 
			},
			{
				"x": 0.6919925696,
				"y": -1.2480043745,
				"z": 0.0468745776,
				"element": "C" 
			},
			{
				"x": 1.732237625,
				"y": 0.4088028479,
				"z": 0.9144740691,
				"element": "H" 
			},
			{
				"x": -1.2898534798,
				"y": 0.3390412629,
				"z": 1.3477643559,
				"element": "H" 
			},
			{
				"x": -0.2199904045,
				"y": 1.7033807811,
				"z": 1.6192736252,
				"element": "H" 
			},
			{
				"x": -1.765109256,
				"y": 2.9338235822,
				"z": 0.0845923105,
				"element": "H" 
			},
			{
				"x": -2.1492308364,
				"y": 3.7073365429,
				"z": -2.232445342,
				"element": "H" 
			},
			{
				"x": -1.1376518359,
				"y": 2.4503351282,
				"z": -4.1379100732,
				"element": "H" 
			},
			{
				"x": 0.2360785204,
				"y": 0.4440941479,
				"z": -3.6880160513,
				"element": "H" 
			},
			{
				"x": 0.6666229471,
				"y": -1.4504768419,
				"z": -2.1119967841,
				"element": "H" 
			},
			{
				"x": 1.9576398447,
				"y": -0.4352010783,
				"z": -1.4937770402,
				"element": "H" 
			},
			{
				"x": -0.3175208438,
				"y": -1.6845682451,
				"z": 0.1150415755,
				"element": "H" 
			}
		],
		 "valence_orbital": [ 
			{
				"type": "occ",
				"energy": -0.33406,
				"method": "rhf"
			},
			{
				"type": "occ",
				"energy": -0.30132,
				"method": "rhf"
			},
			{
				"type": "occ",
				"energy": -0.28493,
				"method": "rhf"
			},
			{
				"type": "occ",
				"energy": -0.25767,
				"method": "rhf"
			},
			{
				"type": "occ",
				"energy": -0.25334,
				"method": "rhf"
			},
			{
				"type": "unocc",
				"energy": -0.03553,
				"method": "rhf"
			},
			{
				"type": "unocc",
				"energy": -0.02065,
				"method": "rhf"
			},
			{
				"type": "unocc",
				"energy": -0.01278,
				"method": "rhf"
			},
			{
				"type": "unocc",
				"energy": -0.00053,
				"method": "rhf"
			},
			{
				"type": "unocc",
				"energy": 0.08393,
				"method": "rhf"
			}
		],
		"cosmo_sigma_profile": { 
			"-0.025": 0.0,
			"-0.024": 0.0,
			"-0.023": 0.0,
			"-0.022": 0.0,
			"-0.021": 0.0,
			"-0.02": 0.0,
			"-0.019": 0.0,
			"-0.018": 0.0,
			"-0.017": 0.0,
			"-0.016": 0.0,
			"-0.015": 0.0,
			"-0.014": 0.0,
			"-0.013": 0.0,
			"-0.012": 0.347447638843,
			"-0.011": 2.09821273423,
			"-0.01": 3.22398476243,
			"-0.009": 4.45934804376,
			"-0.008": 6.11952651739,
			"-0.007": 6.33144650138,
			"-0.006": 10.032278557,
			"-0.005": 23.5605591277,
			"-0.004": 18.6254571082,
			"-0.003": 20.0415650325,
			"-0.002": 12.7964926693,
			"-0.001": 9.90396123991,
			"0.0": 11.4363240297,
			"0.001": 7.63554400593,
			"0.002": 10.1415768713,
			"0.003": 8.93111711259,
			"0.004": 10.7643636371,
			"0.005": 12.2730503744,
			"0.006": 12.1646454161,
			"0.007": 7.5750807861,
			"0.008": 6.40309585506,
			"0.009": 7.44017824778,
			"0.01": 10.5239445541,
			"0.011": 2.80314937315,
			"0.012": 0.0,
			"0.013": 0.0,
			"0.014": 0.0,
			"0.015": 0.0,
			"0.016": 0.0,
			"0.017": 0.0,
			"0.018": 0.0,
			"0.019": 0.0,
			"0.02": 0.0,
			"0.021": 0.0,
			"0.022": 0.0,
			"0.023": 0.0,
			"0.024": 0.0,
			"0.025": 0.0
		}
	}
}
