{
	 "smiles": "CCC(N1N=NC(=N1)C1=CC=C(Cl)C=C1)C(O)=O", 
	 "Tm": 458.15, 
	 "num_atms": 29, 
	 "gaussian": { 
		 "optdone": 1, 
		 "sigma_profile": "yes", 
		 "theory": "DFT", 
		 "functional": "B3LYP", 
		 "basiset": "6-31G**", 
		 "properties": { 
			 "R2extent": 7758.8054, 
			 "electric_dipole_moment_norm": 2.74065782249, 
			 "electric_quadrupole_moment_norm": 14.0479681371, 
			 "total_energy": -1255.42244232, 
			 "HOMO_LUMO_gap": 0.18608, 
			 "cosmo_polarized_energy": -14.22, 
			 "cosmo_cavitation_energy": 35.78, 
			 "cosmo_dispersion_energy": -25.43, 
			 "cosmo_repulsion_energy": 1.96, 
			 "cosmo_total_nonelectrostatic_energy": 12.31, 
			 "SMD_solvation_energy": 4.97 
		},
		"coords": [
			{
				"x": -2.7519440599,
				"y": -0.9500669377,
				"z": 0.742264525,
				"element": "C" 
			},
			{
				"x": -3.1736164811,
				"y": -0.1739763936,
				"z": -0.5083568765,
				"element": "C" 
			},
			{
				"x": -2.1788994777,
				"y": -0.2400753026,
				"z": -1.692550633,
				"element": "C" 
			},
			{
				"x": -0.912183088,
				"y": 0.4395787748,
				"z": -1.379880493,
				"element": "N" 
			},
			{
				"x": -0.725103322,
				"y": 1.7299414745,
				"z": -1.6246971249,
				"element": "N" 
			},
			{
				"x": 0.4710033391,
				"y": 2.0229701532,
				"z": -1.1791442776,
				"element": "N" 
			},
			{
				"x": 0.9937480987,
				"y": 0.8785322481,
				"z": -0.6632290977,
				"element": "C" 
			},
			{
				"x": 0.1294416888,
				"y": -0.1372076008,
				"z": -0.775560631,
				"element": "N" 
			},
			{
				"x": 2.3281173799,
				"y": 0.78289974,
				"z": -0.0685879147,
				"element": "C" 
			},
			{
				"x": 3.1621173866,
				"y": 1.9111444627,
				"z": -0.0546593247,
				"element": "C" 
			},
			{
				"x": 4.4339692074,
				"y": 1.8418257739,
				"z": 0.505939054,
				"element": "C" 
			},
			{
				"x": 4.8727442996,
				"y": 0.6360777109,
				"z": 1.0551970089,
				"element": "C" 
			},
			{
				"x": 6.4743401431,
				"y": 0.5427108477,
				"z": 1.7625751396,
				"element": "Cl" 
			},
			{
				"x": 4.058026108,
				"y": -0.4975093549,
				"z": 1.0519284492,
				"element": "C" 
			},
			{
				"x": 2.7873648738,
				"y": -0.4191507299,
				"z": 0.4899448792,
				"element": "C" 
			},
			{
				"x": -2.0241870263,
				"y": -1.6990207063,
				"z": -2.1813401793,
				"element": "C" 
			},
			{
				"x": -0.935561327,
				"y": -2.3866784345,
				"z": -1.8232515113,
				"element": "O" 
			},
			{
				"x": -2.9256463983,
				"y": -2.1903210871,
				"z": -2.8159680849,
				"element": "O" 
			},
			{
				"x": -1.8087616264,
				"y": -0.5780417007,
				"z": 1.153344079,
				"element": "H" 
			},
			{
				"x": -3.5157042738,
				"y": -0.8475365266,
				"z": 1.5183571702,
				"element": "H" 
			},
			{
				"x": -2.6326182041,
				"y": -2.0179418254,
				"z": 0.5338357032,
				"element": "H" 
			},
			{
				"x": -4.1202934686,
				"y": -0.5635797423,
				"z": -0.8954460037,
				"element": "H" 
			},
			{
				"x": -3.3296756317,
				"y": 0.8839124034,
				"z": -0.270713153,
				"element": "H" 
			},
			{
				"x": -2.5932157725,
				"y": 0.3213619504,
				"z": -2.5309887977,
				"element": "H" 
			},
			{
				"x": 2.805801049,
				"y": 2.8399976099,
				"z": -0.4864438404,
				"element": "H" 
			},
			{
				"x": 5.0808857042,
				"y": 2.7116906787,
				"z": 0.5175634691,
				"element": "H" 
			},
			{
				"x": 4.4154099216,
				"y": -1.4252270555,
				"z": 1.4842031675,
				"element": "H" 
			},
			{
				"x": 2.1479389285,
				"y": -1.2956080697,
				"z": 0.4877308264,
				"element": "H" 
			},
			{
				"x": -0.3198979709,
				"y": -1.8165023604,
				"z": -1.3101655279,
				"element": "H" 
			}
		],
		 "valence_orbital": [ 
			{
				"type": "occ",
				"energy": -0.31943,
				"method": "rhf"
			},
			{
				"type": "occ",
				"energy": -0.31413,
				"method": "rhf"
			},
			{
				"type": "occ",
				"energy": -0.28259,
				"method": "rhf"
			},
			{
				"type": "occ",
				"energy": -0.28147,
				"method": "rhf"
			},
			{
				"type": "occ",
				"energy": -0.25334,
				"method": "rhf"
			},
			{
				"type": "unocc",
				"energy": -0.06726,
				"method": "rhf"
			},
			{
				"type": "unocc",
				"energy": -0.04654,
				"method": "rhf"
			},
			{
				"type": "unocc",
				"energy": -0.02839,
				"method": "rhf"
			},
			{
				"type": "unocc",
				"energy": -0.00454,
				"method": "rhf"
			},
			{
				"type": "unocc",
				"energy": 0.01806,
				"method": "rhf"
			}
		],
		"cosmo_sigma_profile": { 
			"-0.025": 0.0,
			"-0.024": 0.0,
			"-0.023": 0.0,
			"-0.022": 0.0,
			"-0.021": 0.0,
			"-0.02": 0.0,
			"-0.019": 0.0,
			"-0.018": 0.0,
			"-0.017": 0.0,
			"-0.016": 0.0,
			"-0.015": 0.0,
			"-0.014": 0.0,
			"-0.013": 0.0,
			"-0.012": 0.0,
			"-0.011": 0.0,
			"-0.01": 1.43110573106,
			"-0.009": 4.12672795042,
			"-0.008": 5.32962851923,
			"-0.007": 11.4956722427,
			"-0.006": 14.7575864722,
			"-0.005": 16.7408177328,
			"-0.004": 21.8651184575,
			"-0.003": 20.8780651118,
			"-0.002": 25.1886957806,
			"-0.001": 21.1505199877,
			"0.0": 25.071395041,
			"0.001": 22.3200215041,
			"0.002": 23.9997507271,
			"0.003": 13.1520372231,
			"0.004": 13.9800837483,
			"0.005": 6.43018729264,
			"0.006": 4.72811919361,
			"0.007": 5.17053129103,
			"0.008": 5.26970074114,
			"0.009": 7.08550246597,
			"0.01": 7.26798162486,
			"0.011": 6.72434817759,
			"0.012": 3.96521816616,
			"0.013": 0.3719103873,
			"0.014": 0.0,
			"0.015": 0.0,
			"0.016": 0.0,
			"0.017": 0.0,
			"0.018": 0.0,
			"0.019": 0.0,
			"0.02": 0.0,
			"0.021": 0.0,
			"0.022": 0.0,
			"0.023": 0.0,
			"0.024": 0.0,
			"0.025": 0.0
		}
	}
}
