{
	 "smiles": "NS(=O)(=O)C1CCOC1", 
	 "Tm": 359.15, 
	 "num_atms": 18, 
	 "gaussian": { 
		 "optdone": 1, 
		 "sigma_profile": "yes", 
		 "theory": "DFT", 
		 "functional": "B3LYP", 
		 "basiset": "6-31G**", 
		 "properties": { 
			 "R2extent": 3179.3083, 
			 "electric_dipole_moment_norm": 2.9852773171, 
			 "electric_quadrupole_moment_norm": 18.8556176788, 
			 "total_energy": -836.379050784, 
			 "HOMO_LUMO_gap": 0.30439, 
			 "cosmo_polarized_energy": -16.55, 
			 "cosmo_cavitation_energy": 21.84, 
			 "cosmo_dispersion_energy": -17.01, 
			 "cosmo_repulsion_energy": 1.36, 
			 "cosmo_total_nonelectrostatic_energy": 6.2, 
			 "SMD_solvation_energy": 3.15 
		},
		"coords": [
			{
				"x": 1.2204044527,
				"y": 2.2565273841,
				"z": -4.1186118531,
				"element": "N" 
			},
			{
				"x": -0.0268836915,
				"y": 2.0583327151,
				"z": -2.9814767396,
				"element": "S" 
			},
			{
				"x": 0.2720576511,
				"y": 2.94729482,
				"z": -1.8535886037,
				"element": "O" 
			},
			{
				"x": -1.3069506414,
				"y": 2.1196646144,
				"z": -3.6947061967,
				"element": "O" 
			},
			{
				"x": 0.2217405712,
				"y": 0.3412136048,
				"z": -2.457203124,
				"element": "C" 
			},
			{
				"x": -0.7752940362,
				"y": -0.0604183806,
				"z": -1.3539724147,
				"element": "C" 
			},
			{
				"x": 0.048605532,
				"y": -1.0995896256,
				"z": -0.5873372639,
				"element": "C" 
			},
			{
				"x": 1.368681066,
				"y": -0.5691921543,
				"z": -0.5712356294,
				"element": "O" 
			},
			{
				"x": 1.6118362128,
				"y": 0.0680359322,
				"z": -1.8215326147,
				"element": "C" 
			},
			{
				"x": 0.8135783525,
				"y": 2.408984418,
				"z": -5.0382993598,
				"element": "H" 
			},
			{
				"x": 1.7936407977,
				"y": 3.0496147156,
				"z": -3.8415845919,
				"element": "H" 
			},
			{
				"x": 0.072956541,
				"y": -0.24535279,
				"z": -3.3672785794,
				"element": "H" 
			},
			{
				"x": -0.9807982389,
				"y": 0.796084359,
				"z": -0.705098153,
				"element": "H" 
			},
			{
				"x": -1.7173646333,
				"y": -0.4406534508,
				"z": -1.7532588012,
				"element": "H" 
			},
			{
				"x": -0.2721219842,
				"y": -1.2362890001,
				"z": 0.4485641326,
				"element": "H" 
			},
			{
				"x": 0.0182053685,
				"y": -2.0785760635,
				"z": -1.094704795,
				"element": "H" 
			},
			{
				"x": 2.1771497577,
				"y": 0.9838910964,
				"z": -1.6278652859,
				"element": "H" 
			},
			{
				"x": 2.2054569223,
				"y": -0.5761721947,
				"z": -2.4839101265,
				"element": "H" 
			}
		],
		 "valence_orbital": [ 
			{
				"type": "occ",
				"energy": -0.31857,
				"method": "rhf"
			},
			{
				"type": "occ",
				"energy": -0.31377,
				"method": "rhf"
			},
			{
				"type": "occ",
				"energy": -0.30491,
				"method": "rhf"
			},
			{
				"type": "occ",
				"energy": -0.29683,
				"method": "rhf"
			},
			{
				"type": "occ",
				"energy": -0.26064,
				"method": "rhf"
			},
			{
				"type": "unocc",
				"energy": 0.04375,
				"method": "rhf"
			},
			{
				"type": "unocc",
				"energy": 0.0646,
				"method": "rhf"
			},
			{
				"type": "unocc",
				"energy": 0.07229,
				"method": "rhf"
			},
			{
				"type": "unocc",
				"energy": 0.0826,
				"method": "rhf"
			},
			{
				"type": "unocc",
				"energy": 0.08628,
				"method": "rhf"
			}
		],
		"cosmo_sigma_profile": { 
			"-0.025": 0.0,
			"-0.024": 0.0,
			"-0.023": 0.0,
			"-0.022": 0.0,
			"-0.021": 0.0,
			"-0.02": 0.0,
			"-0.019": 0.0,
			"-0.018": 0.0,
			"-0.017": 0.0,
			"-0.016": 0.0,
			"-0.015": 1.03837977604,
			"-0.014": 2.08736603982,
			"-0.013": 2.73486884054,
			"-0.012": 3.10176075696,
			"-0.011": 1.87834432271,
			"-0.01": 1.72172522657,
			"-0.009": 1.71693644027,
			"-0.008": 5.23326045067,
			"-0.007": 5.10977750215,
			"-0.006": 8.64185693445,
			"-0.005": 16.4485743157,
			"-0.004": 16.1574293958,
			"-0.003": 13.5938484668,
			"-0.002": 11.4057206818,
			"-0.001": 5.6725380294,
			"0.0": 4.85439935698,
			"0.001": 4.90683749238,
			"0.002": 4.94842307166,
			"0.003": 5.5499988453,
			"0.004": 4.36836078005,
			"0.005": 2.89349221944,
			"0.006": 4.63766382711,
			"0.007": 4.70716383209,
			"0.008": 4.08811950967,
			"0.009": 4.64625948052,
			"0.01": 7.43934508789,
			"0.011": 13.1805255423,
			"0.012": 6.03556045885,
			"0.013": 1.73207912977,
			"0.014": 0.1865575984,
			"0.015": 0.0,
			"0.016": 0.0,
			"0.017": 0.0,
			"0.018": 0.0,
			"0.019": 0.0,
			"0.02": 0.0,
			"0.021": 0.0,
			"0.022": 0.0,
			"0.023": 0.0,
			"0.024": 0.0,
			"0.025": 0.0
		}
	}
}
