{
	 "smiles": "C1N(N=C(N1C1=CC=CC=C1)C1=CC=CC=C1)C1=CC=CC=C1", 
	 "Tm": 423.15, 
	 "num_atms": 40, 
	 "gaussian": { 
		 "optdone": 1, 
		 "sigma_profile": "yes", 
		 "theory": "DFT", 
		 "functional": "B3LYP", 
		 "basiset": "6-31G**", 
		 "properties": { 
			 "R2extent": 8704.4986, 
			 "electric_dipole_moment_norm": 2.52300966704, 
			 "electric_quadrupole_moment_norm": 12.197491711, 
			 "total_energy": -936.593838031, 
			 "HOMO_LUMO_gap": 0.13545, 
			 "cosmo_polarized_energy": -10.79, 
			 "cosmo_cavitation_energy": 43.18, 
			 "cosmo_dispersion_energy": -30.59, 
			 "cosmo_repulsion_energy": 2.31, 
			 "cosmo_total_nonelectrostatic_energy": 14.9, 
			 "SMD_solvation_energy": 5.05 
		},
		"coords": [
			{
				"x": -1.3415785825,
				"y": 0.353986228,
				"z": 0.364707273,
				"element": "C" 
			},
			{
				"x": -1.1834261501,
				"y": 0.2036656466,
				"z": -1.0818039306,
				"element": "N" 
			},
			{
				"x": 0.0384835511,
				"y": 0.7052683094,
				"z": -1.4954440208,
				"element": "N" 
			},
			{
				"x": 0.7415481632,
				"y": 0.9317708218,
				"z": -0.4317376169,
				"element": "C" 
			},
			{
				"x": 0.0344209218,
				"y": 0.6743980187,
				"z": 0.7593967058,
				"element": "N" 
			},
			{
				"x": 0.5568658031,
				"y": 0.1625884376,
				"z": 1.9689429287,
				"element": "C" 
			},
			{
				"x": -0.2285834745,
				"y": 0.2520306102,
				"z": 3.1304432964,
				"element": "C" 
			},
			{
				"x": 0.2368619971,
				"y": -0.2650443457,
				"z": 4.3385505669,
				"element": "C" 
			},
			{
				"x": 1.4956735378,
				"y": -0.8623308745,
				"z": 4.4146491328,
				"element": "C" 
			},
			{
				"x": 2.2787186815,
				"y": -0.9495943552,
				"z": 3.2616111112,
				"element": "C" 
			},
			{
				"x": 1.8161215869,
				"y": -0.4555858772,
				"z": 2.0433534833,
				"element": "C" 
			},
			{
				"x": 2.0828149527,
				"y": 1.5275304198,
				"z": -0.4990949223,
				"element": "C" 
			},
			{
				"x": 2.877909492,
				"y": 1.3084810484,
				"z": -1.6374284563,
				"element": "C" 
			},
			{
				"x": 4.129616883,
				"y": 1.9079989893,
				"z": -1.7462263212,
				"element": "C" 
			},
			{
				"x": 4.6090794544,
				"y": 2.729827016,
				"z": -0.7222530965,
				"element": "C" 
			},
			{
				"x": 3.8236577181,
				"y": 2.9524459489,
				"z": 0.41048676,
				"element": "C" 
			},
			{
				"x": 2.5687038749,
				"y": 2.3568884071,
				"z": 0.5255262814,
				"element": "C" 
			},
			{
				"x": -2.2604198355,
				"y": 0.149719594,
				"z": -1.9626796092,
				"element": "C" 
			},
			{
				"x": -3.5459899226,
				"y": -0.1578361518,
				"z": -1.480373103,
				"element": "C" 
			},
			{
				"x": -4.6231006046,
				"y": -0.2357467469,
				"z": -2.3635556733,
				"element": "C" 
			},
			{
				"x": -4.445811461,
				"y": -0.0132877836,
				"z": -3.7284239718,
				"element": "C" 
			},
			{
				"x": -3.1657572785,
				"y": 0.290627747,
				"z": -4.2039178774,
				"element": "C" 
			},
			{
				"x": -2.0788909247,
				"y": 0.3741956654,
				"z": -3.3407013323,
				"element": "C" 
			},
			{
				"x": -2.0608674443,
				"y": 1.1587409834,
				"z": 0.6082010014,
				"element": "H" 
			},
			{
				"x": -1.6783929749,
				"y": -0.570205432,
				"z": 0.8514089251,
				"element": "H" 
			},
			{
				"x": -1.1967935184,
				"y": 0.7417441882,
				"z": 3.0876192774,
				"element": "H" 
			},
			{
				"x": -0.3861732003,
				"y": -0.1886263381,
				"z": 5.2251102794,
				"element": "H" 
			},
			{
				"x": 1.8602011685,
				"y": -1.258267295,
				"z": 5.3574066153,
				"element": "H" 
			},
			{
				"x": 3.2549012865,
				"y": -1.4244956756,
				"z": 3.301847865,
				"element": "H" 
			},
			{
				"x": 2.4234768383,
				"y": -0.5577862907,
				"z": 1.1521574209,
				"element": "H" 
			},
			{
				"x": 2.4977068427,
				"y": 0.6688548271,
				"z": -2.4266362906,
				"element": "H" 
			},
			{
				"x": 4.7352125317,
				"y": 1.7299666311,
				"z": -2.6301859513,
				"element": "H" 
			},
			{
				"x": 5.5879420801,
				"y": 3.1927355293,
				"z": -0.8070065195,
				"element": "H" 
			},
			{
				"x": 4.1863640899,
				"y": 3.595406551,
				"z": 1.2072113844,
				"element": "H" 
			},
			{
				"x": 1.9586680166,
				"y": 2.5431213015,
				"z": 1.402724341,
				"element": "H" 
			},
			{
				"x": -3.7075229992,
				"y": -0.3480145403,
				"z": -0.4242470432,
				"element": "H" 
			},
			{
				"x": -5.6086497637,
				"y": -0.474573342,
				"z": -1.9732293091,
				"element": "H" 
			},
			{
				"x": -5.2874485024,
				"y": -0.0755224382,
				"z": -4.4111050422,
				"element": "H" 
			},
			{
				"x": -3.0101244299,
				"y": 0.4692855985,
				"z": -5.2645141895,
				"element": "H" 
			},
			{
				"x": -1.089118405,
				"y": 0.6166389685,
				"z": -3.7065903727,
				"element": "H" 
			}
		],
		 "valence_orbital": [ 
			{
				"type": "occ",
				"energy": -0.25262,
				"method": "rhf"
			},
			{
				"type": "occ",
				"energy": -0.24658,
				"method": "rhf"
			},
			{
				"type": "occ",
				"energy": -0.24132,
				"method": "rhf"
			},
			{
				"type": "occ",
				"energy": -0.22358,
				"method": "rhf"
			},
			{
				"type": "occ",
				"energy": -0.17408,
				"method": "rhf"
			},
			{
				"type": "unocc",
				"energy": -0.03863,
				"method": "rhf"
			},
			{
				"type": "unocc",
				"energy": -0.01251,
				"method": "rhf"
			},
			{
				"type": "unocc",
				"energy": -0.00221,
				"method": "rhf"
			},
			{
				"type": "unocc",
				"energy": 0.0014,
				"method": "rhf"
			},
			{
				"type": "unocc",
				"energy": 0.00806,
				"method": "rhf"
			}
		],
		"cosmo_sigma_profile": { 
			"-0.025": 0.0,
			"-0.024": 0.0,
			"-0.023": 0.0,
			"-0.022": 0.0,
			"-0.021": 0.0,
			"-0.02": 0.0,
			"-0.019": 0.0,
			"-0.018": 0.0,
			"-0.017": 0.0,
			"-0.016": 0.0,
			"-0.015": 0.0,
			"-0.014": 0.0,
			"-0.013": 0.0,
			"-0.012": 0.0,
			"-0.011": 0.0,
			"-0.01": 0.0,
			"-0.009": 0.0,
			"-0.008": 0.370110531846,
			"-0.007": 4.53988143297,
			"-0.006": 18.8073384032,
			"-0.005": 32.218273323,
			"-0.004": 34.1343060752,
			"-0.003": 30.3057937611,
			"-0.002": 23.708656323,
			"-0.001": 22.6552784318,
			"0.0": 21.6619746539,
			"0.001": 21.9998059684,
			"0.002": 22.1869218777,
			"0.003": 24.2815376227,
			"0.004": 30.1227867533,
			"0.005": 29.0515000175,
			"0.006": 17.4582182786,
			"0.007": 8.38908667747,
			"0.008": 2.21969178131,
			"0.009": 1.32107727653,
			"0.01": 0.622643262318,
			"0.011": 0.206655583059,
			"0.012": 0.0,
			"0.013": 0.0,
			"0.014": 0.0,
			"0.015": 0.0,
			"0.016": 0.0,
			"0.017": 0.0,
			"0.018": 0.0,
			"0.019": 0.0,
			"0.02": 0.0,
			"0.021": 0.0,
			"0.022": 0.0,
			"0.023": 0.0,
			"0.024": 0.0,
			"0.025": 0.0
		}
	}
}
