{
	 "smiles": "COC1=C(OC)C=C(C(O)C#N)C(C)=C1", 
	 "Tm": 353.15, 
	 "num_atms": 28, 
	 "gaussian": { 
		 "optdone": 1, 
		 "sigma_profile": "yes", 
		 "theory": "DFT", 
		 "functional": "B3LYP", 
		 "basiset": "6-31G**", 
		 "properties": { 
			 "R2extent": 3771.8225, 
			 "electric_dipole_moment_norm": 5.15119807909, 
			 "electric_quadrupole_moment_norm": 20.4353987341, 
			 "total_energy": -707.3634072, 
			 "HOMO_LUMO_gap": 0.21253, 
			 "cosmo_polarized_energy": -15.35, 
			 "cosmo_cavitation_energy": 32.25, 
			 "cosmo_dispersion_energy": -22.14, 
			 "cosmo_repulsion_energy": 1.77, 
			 "cosmo_total_nonelectrostatic_energy": 11.88, 
			 "SMD_solvation_energy": 8.4 
		},
		"coords": [
			{
				"x": -1.2389749255,
				"y": 0.411592931,
				"z": 2.916249034,
				"element": "C" 
			},
			{
				"x": -0.6495225205,
				"y": -0.7799409639,
				"z": 2.3764667466,
				"element": "O" 
			},
			{
				"x": -0.2148900138,
				"y": -0.6741150606,
				"z": 1.0761832738,
				"element": "C" 
			},
			{
				"x": -1.1112343866,
				"y": -0.5296735114,
				"z": 0.0026094576,
				"element": "C" 
			},
			{
				"x": -2.4700326003,
				"y": -0.4295751461,
				"z": 0.1975192162,
				"element": "O" 
			},
			{
				"x": -3.1027184074,
				"y": -1.6287580328,
				"z": 0.6611934197,
				"element": "C" 
			},
			{
				"x": -0.607126487,
				"y": -0.439962697,
				"z": -1.2937775836,
				"element": "C" 
			},
			{
				"x": 0.7657106034,
				"y": -0.5153230504,
				"z": -1.5427733489,
				"element": "C" 
			},
			{
				"x": 1.2559747121,
				"y": -0.4184240693,
				"z": -2.9887889474,
				"element": "C" 
			},
			{
				"x": 0.2701792578,
				"y": -0.7601414739,
				"z": -3.9506523761,
				"element": "O" 
			},
			{
				"x": 1.6960571299,
				"y": 0.9591886813,
				"z": -3.2983083553,
				"element": "C" 
			},
			{
				"x": 2.0830534687,
				"y": 2.03427231,
				"z": -3.4994571857,
				"element": "N" 
			},
			{
				"x": 1.673153036,
				"y": -0.6812895205,
				"z": -0.4780549313,
				"element": "C" 
			},
			{
				"x": 3.167681098,
				"y": -0.7495514602,
				"z": -0.6985687633,
				"element": "C" 
			},
			{
				"x": 1.1544829589,
				"y": -0.7540954431,
				"z": 0.8188299073,
				"element": "C" 
			},
			{
				"x": -2.1137150191,
				"y": 0.7220047338,
				"z": 2.3372202376,
				"element": "H" 
			},
			{
				"x": -1.5372014278,
				"y": 0.1669945164,
				"z": 3.9374956915,
				"element": "H" 
			},
			{
				"x": -0.5067503174,
				"y": 1.2279729346,
				"z": 2.9377656485,
				"element": "H" 
			},
			{
				"x": -4.1624062079,
				"y": -1.3911016441,
				"z": 0.7726499908,
				"element": "H" 
			},
			{
				"x": -2.9887899977,
				"y": -2.4358668771,
				"z": -0.0735857264,
				"element": "H" 
			},
			{
				"x": -2.6916724091,
				"y": -1.9520021241,
				"z": 1.6225295573,
				"element": "H" 
			},
			{
				"x": -1.3047230633,
				"y": -0.3068109788,
				"z": -2.113556218,
				"element": "H" 
			},
			{
				"x": 2.1467129251,
				"y": -1.0548100664,
				"z": -3.1081800161,
				"element": "H" 
			},
			{
				"x": -0.0285900782,
				"y": -1.6557460436,
				"z": -3.7395546413,
				"element": "H" 
			},
			{
				"x": 3.5484492211,
				"y": 0.1524647038,
				"z": -1.1908476855,
				"element": "H" 
			},
			{
				"x": 3.6938606553,
				"y": -0.8545972956,
				"z": 0.2531210369,
				"element": "H" 
			},
			{
				"x": 3.4524477537,
				"y": -1.6047340582,
				"z": -1.3245713455,
				"element": "H" 
			},
			{
				"x": 1.8192850417,
				"y": -0.8723712937,
				"z": 1.6694439067,
				"element": "H" 
			}
		],
		 "valence_orbital": [ 
			{
				"type": "occ",
				"energy": -0.30852,
				"method": "rhf"
			},
			{
				"type": "occ",
				"energy": -0.29394,
				"method": "rhf"
			},
			{
				"type": "occ",
				"energy": -0.2723,
				"method": "rhf"
			},
			{
				"type": "occ",
				"energy": -0.2519,
				"method": "rhf"
			},
			{
				"type": "occ",
				"energy": -0.23443,
				"method": "rhf"
			},
			{
				"type": "unocc",
				"energy": -0.0219,
				"method": "rhf"
			},
			{
				"type": "unocc",
				"energy": -0.00997,
				"method": "rhf"
			},
			{
				"type": "unocc",
				"energy": 0.01762,
				"method": "rhf"
			},
			{
				"type": "unocc",
				"energy": 0.0448,
				"method": "rhf"
			},
			{
				"type": "unocc",
				"energy": 0.08075,
				"method": "rhf"
			}
		],
		"cosmo_sigma_profile": { 
			"-0.025": 0.0,
			"-0.024": 0.0,
			"-0.023": 0.0,
			"-0.022": 0.0,
			"-0.021": 0.0,
			"-0.02": 0.0,
			"-0.019": 0.0,
			"-0.018": 0.139174956694,
			"-0.017": 0.85698400607,
			"-0.016": 0.897494033222,
			"-0.015": 0.805036787063,
			"-0.014": 1.11075823291,
			"-0.013": 1.13631410021,
			"-0.012": 0.404537589545,
			"-0.011": 0.684242609829,
			"-0.01": 1.3311763648,
			"-0.009": 3.30480074256,
			"-0.008": 4.50310707378,
			"-0.007": 3.44085444313,
			"-0.006": 7.00012560057,
			"-0.005": 15.5579263377,
			"-0.004": 19.5701600329,
			"-0.003": 27.7740475497,
			"-0.002": 24.9720814095,
			"-0.001": 21.6638374588,
			"0.0": 18.2865529007,
			"0.001": 13.1863288916,
			"0.002": 12.6614373481,
			"0.003": 16.9550267353,
			"0.004": 11.1734653147,
			"0.005": 7.21733030561,
			"0.006": 5.12689096878,
			"0.007": 7.17029974887,
			"0.008": 5.38803781027,
			"0.009": 6.74203836813,
			"0.01": 6.00315922492,
			"0.011": 6.44278740029,
			"0.012": 3.78829726067,
			"0.013": 0.596464293142,
			"0.014": 0.0,
			"0.015": 0.0,
			"0.016": 0.0,
			"0.017": 0.0,
			"0.018": 0.0,
			"0.019": 0.0,
			"0.02": 0.0,
			"0.021": 0.0,
			"0.022": 0.0,
			"0.023": 0.0,
			"0.024": 0.0,
			"0.025": 0.0
		}
	}
}
