{
	 "smiles": "C=CN(=O)=O", 
	 "Tm": 217.65, 
	 "num_atms": 8, 
	 "gaussian": { 
		 "optdone": 1, 
		 "sigma_profile": "yes", 
		 "theory": "DFT", 
		 "functional": "B3LYP", 
		 "basiset": "6-31G**", 
		 "properties": { 
			 "R2extent": 502.9179, 
			 "electric_dipole_moment_norm": 3.88740743427, 
			 "electric_quadrupole_moment_norm": 5.0418282924, 
			 "total_energy": -283.087077423, 
			 "HOMO_LUMO_gap": 0.20005, 
			 "cosmo_polarized_energy": -7.78, 
			 "cosmo_cavitation_energy": 13.01, 
			 "cosmo_dispersion_energy": -9.34, 
			 "cosmo_repulsion_energy": 0.84, 
			 "cosmo_total_nonelectrostatic_energy": 4.51, 
			 "SMD_solvation_energy": 6.01 
		},
		"coords": [
			{
				"x": -1.812896747,
				"y": 0.6278098305,
				"z": -0.4151542943,
				"element": "C" 
			},
			{
				"x": -1.2056809682,
				"y": -0.5418230871,
				"z": -0.2598993606,
				"element": "C" 
			},
			{
				"x": 0.0677105957,
				"y": -0.8219445174,
				"z": -0.9298871175,
				"element": "N" 
			},
			{
				"x": 0.5451640913,
				"y": -1.936950645,
				"z": -0.7183989691,
				"element": "O" 
			},
			{
				"x": 0.5677513094,
				"y": 0.0466380782,
				"z": -1.6412672749,
				"element": "O" 
			},
			{
				"x": -1.3746052296,
				"y": 1.3961987857,
				"z": -1.0420138734,
				"element": "H" 
			},
			{
				"x": -2.754367877,
				"y": 0.8261502274,
				"z": 0.0842190955,
				"element": "H" 
			},
			{
				"x": -1.5421751746,
				"y": -1.3798786723,
				"z": 0.3351017942,
				"element": "H" 
			}
		],
		 "valence_orbital": [ 
			{
				"type": "occ",
				"energy": -0.42945,
				"method": "rhf"
			},
			{
				"type": "occ",
				"energy": -0.32061,
				"method": "rhf"
			},
			{
				"type": "occ",
				"energy": -0.31246,
				"method": "rhf"
			},
			{
				"type": "occ",
				"energy": -0.31031,
				"method": "rhf"
			},
			{
				"type": "occ",
				"energy": -0.29547,
				"method": "rhf"
			},
			{
				"type": "unocc",
				"energy": -0.09542,
				"method": "rhf"
			},
			{
				"type": "unocc",
				"energy": 0.01098,
				"method": "rhf"
			},
			{
				"type": "unocc",
				"energy": 0.0935,
				"method": "rhf"
			},
			{
				"type": "unocc",
				"energy": 0.11448,
				"method": "rhf"
			},
			{
				"type": "unocc",
				"energy": 0.13584,
				"method": "rhf"
			}
		],
		"cosmo_sigma_profile": { 
			"-0.025": 0.0,
			"-0.024": 0.0,
			"-0.023": 0.0,
			"-0.022": 0.0,
			"-0.021": 0.0,
			"-0.02": 0.0,
			"-0.019": 0.0,
			"-0.018": 0.0,
			"-0.017": 0.0,
			"-0.016": 0.0,
			"-0.015": 0.0,
			"-0.014": 0.0,
			"-0.013": 0.0,
			"-0.012": 0.0,
			"-0.011": 0.0,
			"-0.01": 1.40523098444,
			"-0.009": 4.03141966092,
			"-0.008": 5.06575673123,
			"-0.007": 5.25629907333,
			"-0.006": 6.23041078632,
			"-0.005": 6.57248930455,
			"-0.004": 6.39353026664,
			"-0.003": 7.03307263535,
			"-0.002": 6.81969263261,
			"-0.001": 7.41255725782,
			"0.0": 5.9820209605,
			"0.001": 3.99055212977,
			"0.002": 2.27456064356,
			"0.003": 2.00397978911,
			"0.004": 2.03328886931,
			"0.005": 3.2476560713,
			"0.006": 3.6604166847,
			"0.007": 7.07702405315,
			"0.008": 9.80032935067,
			"0.009": 5.20014677379,
			"0.01": 2.66936666095,
			"0.011": 0.225711679987,
			"0.012": 0.0,
			"0.013": 0.0,
			"0.014": 0.0,
			"0.015": 0.0,
			"0.016": 0.0,
			"0.017": 0.0,
			"0.018": 0.0,
			"0.019": 0.0,
			"0.02": 0.0,
			"0.021": 0.0,
			"0.022": 0.0,
			"0.023": 0.0,
			"0.024": 0.0,
			"0.025": 0.0
		}
	}
}
