{
	 "smiles": "COC1=CC(Cl)=C(C=C1)C(O)=O", 
	 "Tm": 483.15, 
	 "num_atms": 19, 
	 "gaussian": { 
		 "optdone": 1, 
		 "sigma_profile": "yes", 
		 "theory": "DFT", 
		 "functional": "B3LYP", 
		 "basiset": "6-31G**", 
		 "properties": { 
			 "R2extent": 3346.3292, 
			 "electric_dipole_moment_norm": 3.42288458029, 
			 "electric_quadrupole_moment_norm": 18.9654181006, 
			 "total_energy": -994.933747148, 
			 "HOMO_LUMO_gap": 0.19364, 
			 "cosmo_polarized_energy": -11.83, 
			 "cosmo_cavitation_energy": 25.32, 
			 "cosmo_dispersion_energy": -19.01, 
			 "cosmo_repulsion_energy": 1.51, 
			 "cosmo_total_nonelectrostatic_energy": 7.82, 
			 "SMD_solvation_energy": 6.14 
		},
		"coords": [
			{
				"x": -1.1969837473,
				"y": 2.3091458937,
				"z": 1.1197492308,
				"element": "C" 
			},
			{
				"x": -1.430071827,
				"y": 0.9074064747,
				"z": 1.0380054973,
				"element": "O" 
			},
			{
				"x": -0.7194979682,
				"y": 0.1797772982,
				"z": 0.14251872,
				"element": "C" 
			},
			{
				"x": 0.2410592504,
				"y": 0.7143652548,
				"z": -0.7221241552,
				"element": "C" 
			},
			{
				"x": 0.922302773,
				"y": -0.1198496408,
				"z": -1.6118999872,
				"element": "C" 
			},
			{
				"x": 2.0983731861,
				"y": 0.6724065206,
				"z": -2.638640129,
				"element": "Cl" 
			},
			{
				"x": 0.6661368111,
				"y": -1.5028388137,
				"z": -1.6639495565,
				"element": "C" 
			},
			{
				"x": -0.3100822785,
				"y": -2.0069874515,
				"z": -0.7762429614,
				"element": "C" 
			},
			{
				"x": -0.9933393985,
				"y": -1.1971417107,
				"z": 0.1099699898,
				"element": "C" 
			},
			{
				"x": 1.3601209998,
				"y": -2.4357366188,
				"z": -2.5894033782,
				"element": "C" 
			},
			{
				"x": 0.927103254,
				"y": -3.7202943853,
				"z": -2.4350452125,
				"element": "O" 
			},
			{
				"x": 2.2139988515,
				"y": -2.158056217,
				"z": -3.405108262,
				"element": "O" 
			},
			{
				"x": -0.1604924275,
				"y": 2.5273599628,
				"z": 1.4038097441,
				"element": "H" 
			},
			{
				"x": -1.8690712363,
				"y": 2.6780845676,
				"z": 1.8951408007,
				"element": "H" 
			},
			{
				"x": -1.4270816976,
				"y": 2.8098663804,
				"z": 0.1716063611,
				"element": "H" 
			},
			{
				"x": 0.4758277386,
				"y": 1.7700477984,
				"z": -0.7226227185,
				"element": "H" 
			},
			{
				"x": -0.5214052815,
				"y": -3.0685691151,
				"z": -0.8010915673,
				"element": "H" 
			},
			{
				"x": -1.740213477,
				"y": -1.5992188523,
				"z": 0.7853704016,
				"element": "H" 
			},
			{
				"x": 1.4390164749,
				"y": -4.235667346,
				"z": -3.0790428176,
				"element": "H" 
			}
		],
		 "valence_orbital": [ 
			{
				"type": "occ",
				"energy": -0.31487,
				"method": "rhf"
			},
			{
				"type": "occ",
				"energy": -0.31403,
				"method": "rhf"
			},
			{
				"type": "occ",
				"energy": -0.26385,
				"method": "rhf"
			},
			{
				"type": "occ",
				"energy": -0.25861,
				"method": "rhf"
			},
			{
				"type": "occ",
				"energy": -0.23977,
				"method": "rhf"
			},
			{
				"type": "unocc",
				"energy": -0.04613,
				"method": "rhf"
			},
			{
				"type": "unocc",
				"energy": -0.01934,
				"method": "rhf"
			},
			{
				"type": "unocc",
				"energy": 0.03047,
				"method": "rhf"
			},
			{
				"type": "unocc",
				"energy": 0.05985,
				"method": "rhf"
			},
			{
				"type": "unocc",
				"energy": 0.08434,
				"method": "rhf"
			}
		],
		"cosmo_sigma_profile": { 
			"-0.025": 0.0,
			"-0.024": 0.0,
			"-0.023": 0.0,
			"-0.022": 0.0,
			"-0.021": 0.0,
			"-0.02": 0.0,
			"-0.019": 0.0,
			"-0.018": 0.630238381453,
			"-0.017": 0.989717321747,
			"-0.016": 0.774711286253,
			"-0.015": 0.630032629499,
			"-0.014": 0.746106758039,
			"-0.013": 0.209104672725,
			"-0.012": 0.834871916439,
			"-0.011": 1.34149703582,
			"-0.01": 0.713625705039,
			"-0.009": 0.181358739227,
			"-0.008": 2.03125316934,
			"-0.007": 7.10295116678,
			"-0.006": 13.4122616117,
			"-0.005": 12.7752135686,
			"-0.004": 12.9034085455,
			"-0.003": 10.4141761614,
			"-0.002": 11.5310915051,
			"-0.001": 12.0263107081,
			"0.0": 15.6318030144,
			"0.001": 21.3982862535,
			"0.002": 19.6088842997,
			"0.003": 13.6203372421,
			"0.004": 10.7446562751,
			"0.005": 6.71456162533,
			"0.006": 5.16553904797,
			"0.007": 4.52122201224,
			"0.008": 2.99350875836,
			"0.009": 3.10523680817,
			"0.01": 2.78285790586,
			"0.011": 3.41370052047,
			"0.012": 5.22047729801,
			"0.013": 0.342712568064,
			"0.014": 0.0,
			"0.015": 0.0,
			"0.016": 0.0,
			"0.017": 0.0,
			"0.018": 0.0,
			"0.019": 0.0,
			"0.02": 0.0,
			"0.021": 0.0,
			"0.022": 0.0,
			"0.023": 0.0,
			"0.024": 0.0,
			"0.025": 0.0
		}
	}
}
