{
	 "smiles": "O1C(=C(C(=C1C1=CC=CC=C1)C1=CC=CC=C1)C1=CC=CC=C1)C1=CC=CC=C1", 
	 "Tm": 448.15, 
	 "num_atms": 49, 
	 "gaussian": { 
		 "optdone": 1, 
		 "sigma_profile": "yes", 
		 "theory": "DFT", 
		 "functional": "B3LYP", 
		 "basiset": "6-31G**", 
		 "properties": { 
			 "R2extent": 11972.0178, 
			 "electric_dipole_moment_norm": 1.1867413998, 
			 "electric_quadrupole_moment_norm": 7.44787599722, 
			 "total_energy": -1154.26315602, 
			 "HOMO_LUMO_gap": 0.14843, 
			 "cosmo_polarized_energy": -9.76, 
			 "cosmo_cavitation_energy": 53.1, 
			 "cosmo_dispersion_energy": -34.96, 
			 "cosmo_repulsion_energy": 2.66, 
			 "cosmo_total_nonelectrostatic_energy": 20.8, 
			 "SMD_solvation_energy": 8.66 
		},
		"coords": [
			{
				"x": 0.8977247484,
				"y": 1.7914304456,
				"z": -0.6264557095,
				"element": "O" 
			},
			{
				"x": 1.3420459383,
				"y": 1.1772689049,
				"z": 0.5128971393,
				"element": "C" 
			},
			{
				"x": 0.3739401848,
				"y": 0.3018054331,
				"z": 0.9597215367,
				"element": "C" 
			},
			{
				"x": -0.7248359606,
				"y": 0.3957751158,
				"z": 0.0282427953,
				"element": "C" 
			},
			{
				"x": -0.3529851355,
				"y": 1.3223183765,
				"z": -0.9239158564,
				"element": "C" 
			},
			{
				"x": -0.9765689948,
				"y": 1.8768405246,
				"z": -2.1238120444,
				"element": "C" 
			},
			{
				"x": -2.0954385508,
				"y": 1.267203089,
				"z": -2.7232017661,
				"element": "C" 
			},
			{
				"x": -2.6721701403,
				"y": 1.81583214,
				"z": -3.8660873463,
				"element": "C" 
			},
			{
				"x": -2.1466594557,
				"y": 2.9749475589,
				"z": -4.4411403837,
				"element": "C" 
			},
			{
				"x": -1.0311872873,
				"y": 3.5820274892,
				"z": -3.86024605,
				"element": "C" 
			},
			{
				"x": -0.4514524182,
				"y": 3.0423868505,
				"z": -2.7151769682,
				"element": "C" 
			},
			{
				"x": -2.026453354,
				"y": -0.3074011828,
				"z": 0.1539839843,
				"element": "C" 
			},
			{
				"x": -2.1461296821,
				"y": -1.6737925903,
				"z": -0.1432702509,
				"element": "C" 
			},
			{
				"x": -3.3715920022,
				"y": -2.3280319015,
				"z": -0.0086916424,
				"element": "C" 
			},
			{
				"x": -4.4970361132,
				"y": -1.6267092673,
				"z": 0.4271106949,
				"element": "C" 
			},
			{
				"x": -4.3904244139,
				"y": -0.2671166467,
				"z": 0.727005424,
				"element": "C" 
			},
			{
				"x": -3.1655558892,
				"y": 0.3864053945,
				"z": 0.5927159882,
				"element": "C" 
			},
			{
				"x": 0.3877964104,
				"y": -0.5139308535,
				"z": 2.2001412274,
				"element": "C" 
			},
			{
				"x": 0.5564746153,
				"y": -1.9063919331,
				"z": 2.1522708772,
				"element": "C" 
			},
			{
				"x": 0.5546871588,
				"y": -2.6654744962,
				"z": 3.3234559844,
				"element": "C" 
			},
			{
				"x": 0.3823064384,
				"y": -2.0444507685,
				"z": 4.5616082992,
				"element": "C" 
			},
			{
				"x": 0.2123254013,
				"y": -0.6598091617,
				"z": 4.6221909659,
				"element": "C" 
			},
			{
				"x": 0.2138352202,
				"y": 0.0985341661,
				"z": 3.4515773183,
				"element": "C" 
			},
			{
				"x": 2.6750012377,
				"y": 1.5638124214,
				"z": 0.9710637212,
				"element": "C" 
			},
			{
				"x": 3.3834006853,
				"y": 0.7938579245,
				"z": 1.9134403801,
				"element": "C" 
			},
			{
				"x": 4.6524651011,
				"y": 1.1835830698,
				"z": 2.3345847059,
				"element": "C" 
			},
			{
				"x": 5.2467737168,
				"y": 2.3398272027,
				"z": 1.8243649448,
				"element": "C" 
			},
			{
				"x": 4.5567696377,
				"y": 3.1054271262,
				"z": 0.8820076253,
				"element": "C" 
			},
			{
				"x": 3.2859469048,
				"y": 2.7250639348,
				"z": 0.4590922023,
				"element": "C" 
			},
			{
				"x": -2.5061038656,
				"y": 0.3587623057,
				"z": -2.2996235489,
				"element": "H" 
			},
			{
				"x": -3.5338965103,
				"y": 1.3287603997,
				"z": -4.31376713,
				"element": "H" 
			},
			{
				"x": -2.5989102187,
				"y": 3.3980631725,
				"z": -5.3333433486,
				"element": "H" 
			},
			{
				"x": -0.6107975447,
				"y": 4.4826738314,
				"z": -4.2989546826,
				"element": "H" 
			},
			{
				"x": 0.4125641834,
				"y": 3.5209209775,
				"z": -2.2680547219,
				"element": "H" 
			},
			{
				"x": -1.2755617343,
				"y": -2.2200415053,
				"z": -0.4935213086,
				"element": "H" 
			},
			{
				"x": -3.4465315015,
				"y": -3.3855008988,
				"z": -0.2461412744,
				"element": "H" 
			},
			{
				"x": -5.450713093,
				"y": -2.1360080574,
				"z": 0.5323209458,
				"element": "H" 
			},
			{
				"x": -5.2612970044,
				"y": 0.2856657508,
				"z": 1.0679325072,
				"element": "H" 
			},
			{
				"x": -3.0828137509,
				"y": 1.4435008871,
				"z": 0.827205247,
				"element": "H" 
			},
			{
				"x": 0.7022598466,
				"y": -2.3916453257,
				"z": 1.1919810632,
				"element": "H" 
			},
			{
				"x": 0.6896652227,
				"y": -3.7420048585,
				"z": 3.2677578003,
				"element": "H" 
			},
			{
				"x": 0.3804353326,
				"y": -2.6352956046,
				"z": 5.4731210776,
				"element": "H" 
			},
			{
				"x": 0.076280633,
				"y": -0.1689220389,
				"z": 5.5817432953,
				"element": "H" 
			},
			{
				"x": 0.0801895553,
				"y": 1.1751746952,
				"z": 3.4990783235,
				"element": "H" 
			},
			{
				"x": 2.9438762403,
				"y": -0.1144358635,
				"z": 2.3073530253,
				"element": "H" 
			},
			{
				"x": 5.1827461062,
				"y": 0.5743225909,
				"z": 3.0611038559,
				"element": "H" 
			},
			{
				"x": 6.2373182322,
				"y": 2.6387430094,
				"z": 2.154604788,
				"element": "H" 
			},
			{
				"x": 5.0086796144,
				"y": 4.0057861892,
				"z": 0.4752074603,
				"element": "H" 
			},
			{
				"x": 2.7549062551,
				"y": 3.3260419767,
				"z": -0.2704811712,
				"element": "H" 
			}
		],
		 "valence_orbital": [ 
			{
				"type": "occ",
				"energy": -0.24721,
				"method": "rhf"
			},
			{
				"type": "occ",
				"energy": -0.24637,
				"method": "rhf"
			},
			{
				"type": "occ",
				"energy": -0.24546,
				"method": "rhf"
			},
			{
				"type": "occ",
				"energy": -0.23796,
				"method": "rhf"
			},
			{
				"type": "occ",
				"energy": -0.18956,
				"method": "rhf"
			},
			{
				"type": "unocc",
				"energy": -0.04113,
				"method": "rhf"
			},
			{
				"type": "unocc",
				"energy": -0.01281,
				"method": "rhf"
			},
			{
				"type": "unocc",
				"energy": -0.00855,
				"method": "rhf"
			},
			{
				"type": "unocc",
				"energy": -0.00381,
				"method": "rhf"
			},
			{
				"type": "unocc",
				"energy": -0.00192,
				"method": "rhf"
			}
		],
		"cosmo_sigma_profile": { 
			"-0.025": 0.0,
			"-0.024": 0.0,
			"-0.023": 0.0,
			"-0.022": 0.0,
			"-0.021": 0.0,
			"-0.02": 0.0,
			"-0.019": 0.0,
			"-0.018": 0.0,
			"-0.017": 0.0,
			"-0.016": 0.0,
			"-0.015": 0.0,
			"-0.014": 0.0,
			"-0.013": 0.0,
			"-0.012": 0.0,
			"-0.011": 0.0,
			"-0.01": 0.0,
			"-0.009": 0.0,
			"-0.008": 0.0,
			"-0.007": 0.0118728623198,
			"-0.006": 16.7115101836,
			"-0.005": 38.2715861637,
			"-0.004": 40.4226293897,
			"-0.003": 39.5622216602,
			"-0.002": 27.7830244678,
			"-0.001": 30.0222347727,
			"0.0": 30.0081704649,
			"0.001": 34.3549952942,
			"0.002": 41.6898128877,
			"0.003": 40.2685804469,
			"0.004": 35.6218908176,
			"0.005": 37.6918971161,
			"0.006": 14.7672749529,
			"0.007": 0.0661420767419,
			"0.008": 0.0,
			"0.009": 0.0,
			"0.01": 0.0,
			"0.011": 0.0,
			"0.012": 0.0,
			"0.013": 0.0,
			"0.014": 0.0,
			"0.015": 0.0,
			"0.016": 0.0,
			"0.017": 0.0,
			"0.018": 0.0,
			"0.019": 0.0,
			"0.02": 0.0,
			"0.021": 0.0,
			"0.022": 0.0,
			"0.023": 0.0,
			"0.024": 0.0,
			"0.025": 0.0
		}
	}
}
