{
	 "smiles": "O=C(OC1=CC(=CC=C1)N=NC1=CC=CC(OC(=O)C2=CC=CC=C2)=C1)C1=CC=CC=C1", 
	 "Tm": 453.15, 
	 "num_atms": 50, 
	 "gaussian": { 
		 "optdone": 1, 
		 "sigma_profile": "yes", 
		 "theory": "DFT", 
		 "functional": "B3LYP", 
		 "basiset": "6-31G**", 
		 "properties": { 
			 "R2extent": 18045.8815, 
			 "electric_dipole_moment_norm": 5.11383282969, 
			 "electric_quadrupole_moment_norm": 27.8340531556, 
			 "total_energy": -1411.9701567, 
			 "HOMO_LUMO_gap": 0.1383, 
			 "cosmo_polarized_energy": -17.67, 
			 "cosmo_cavitation_energy": 57.8, 
			 "cosmo_dispersion_energy": -38.71, 
			 "cosmo_repulsion_energy": 2.92, 
			 "cosmo_total_nonelectrostatic_energy": 22.01, 
			 "SMD_solvation_energy": 9.5 
		},
		"coords": [
			{
				"x": -1.501980977,
				"y": 0.1693269925,
				"z": -5.1478737709,
				"element": "O" 
			},
			{
				"x": -2.0926037015,
				"y": -0.0087871642,
				"z": -4.1062190069,
				"element": "C" 
			},
			{
				"x": -1.5032239237,
				"y": -0.49869169,
				"z": -2.9674229559,
				"element": "O" 
			},
			{
				"x": -0.1513424074,
				"y": -0.8329847845,
				"z": -2.9391991092,
				"element": "C" 
			},
			{
				"x": 0.1574167743,
				"y": -2.0089195496,
				"z": -2.2616772967,
				"element": "C" 
			},
			{
				"x": 1.4994846432,
				"y": -2.3871569797,
				"z": -2.1279397498,
				"element": "C" 
			},
			{
				"x": 2.5097595573,
				"y": -1.6052101884,
				"z": -2.7026717896,
				"element": "C" 
			},
			{
				"x": 2.1781112621,
				"y": -0.4124478284,
				"z": -3.3411542537,
				"element": "C" 
			},
			{
				"x": 0.8466090833,
				"y": -0.0121514142,
				"z": -3.4698282018,
				"element": "C" 
			},
			{
				"x": 1.8969547379,
				"y": -3.6559579079,
				"z": -1.5878118286,
				"element": "N" 
			},
			{
				"x": 1.4702144547,
				"y": -4.1249232708,
				"z": -0.5120974121,
				"element": "N" 
			},
			{
				"x": 0.6807400089,
				"y": -3.3867317751,
				"z": 0.4320256134,
				"element": "C" 
			},
			{
				"x": -0.3895344564,
				"y": -4.0687543194,
				"z": 1.0251034358,
				"element": "C" 
			},
			{
				"x": -1.1301862657,
				"y": -3.4481903062,
				"z": 2.0284410871,
				"element": "C" 
			},
			{
				"x": -0.7857885469,
				"y": -2.1779772642,
				"z": 2.4949522801,
				"element": "C" 
			},
			{
				"x": 0.3189027574,
				"y": -1.5363549913,
				"z": 1.9299977891,
				"element": "C" 
			},
			{
				"x": 0.7123394845,
				"y": -0.2485999636,
				"z": 2.2863598778,
				"element": "O" 
			},
			{
				"x": 0.7843025331,
				"y": 0.1360239696,
				"z": 3.6020984351,
				"element": "C" 
			},
			{
				"x": 0.5170875486,
				"y": -0.5909497549,
				"z": 4.5325179102,
				"element": "O" 
			},
			{
				"x": 1.2326496155,
				"y": 1.5489514945,
				"z": 3.7281911315,
				"element": "C" 
			},
			{
				"x": 1.3698331234,
				"y": 2.0696695484,
				"z": 5.0232542112,
				"element": "C" 
			},
			{
				"x": 1.7849909777,
				"y": 3.3858963565,
				"z": 5.205482256,
				"element": "C" 
			},
			{
				"x": 2.0639283243,
				"y": 4.1896290433,
				"z": 4.0965220602,
				"element": "C" 
			},
			{
				"x": 1.9277198549,
				"y": 3.6744777735,
				"z": 2.8050108961,
				"element": "C" 
			},
			{
				"x": 1.5138186081,
				"y": 2.356995768,
				"z": 2.6167965444,
				"element": "C" 
			},
			{
				"x": 1.0500609468,
				"y": -2.1187338293,
				"z": 0.898766717,
				"element": "C" 
			},
			{
				"x": -3.5384457635,
				"y": 0.2673739803,
				"z": -3.8904483877,
				"element": "C" 
			},
			{
				"x": -4.2721301285,
				"y": 0.7560451743,
				"z": -4.9813421749,
				"element": "C" 
			},
			{
				"x": -5.628923124,
				"y": 1.0342956719,
				"z": -4.8410120877,
				"element": "C" 
			},
			{
				"x": -6.2601837429,
				"y": 0.8277716278,
				"z": -3.6111967622,
				"element": "C" 
			},
			{
				"x": -5.5323353856,
				"y": 0.3417502171,
				"z": -2.5221857863,
				"element": "C" 
			},
			{
				"x": -4.1740566191,
				"y": 0.0601527789,
				"z": -2.6574598392,
				"element": "C" 
			},
			{
				"x": -0.6429692974,
				"y": -2.6152654947,
				"z": -1.8549470857,
				"element": "H" 
			},
			{
				"x": 3.5388129489,
				"y": -1.9422095805,
				"z": -2.6338291316,
				"element": "H" 
			},
			{
				"x": 2.962133314,
				"y": 0.2077915458,
				"z": -3.7647484879,
				"element": "H" 
			},
			{
				"x": 0.5862098903,
				"y": 0.8978392802,
				"z": -3.9928265031,
				"element": "H" 
			},
			{
				"x": -0.627115767,
				"y": -5.0714291962,
				"z": 0.6853130989,
				"element": "H" 
			},
			{
				"x": -1.9760024562,
				"y": -3.9650612607,
				"z": 2.4714545756,
				"element": "H" 
			},
			{
				"x": -1.3411535318,
				"y": -1.7087119552,
				"z": 3.2954551306,
				"element": "H" 
			},
			{
				"x": 1.1469251617,
				"y": 1.4265718878,
				"z": 5.867804956,
				"element": "H" 
			},
			{
				"x": 1.891281941,
				"y": 3.7862940631,
				"z": 6.2092248176,
				"element": "H" 
			},
			{
				"x": 2.3875650074,
				"y": 5.2168143712,
				"z": 4.2387688574,
				"element": "H" 
			},
			{
				"x": 2.1446900659,
				"y": 4.2998323806,
				"z": 1.9441567281,
				"element": "H" 
			},
			{
				"x": 1.4069937073,
				"y": 1.9508929405,
				"z": 1.6178394874,
				"element": "H" 
			},
			{
				"x": 1.8951239201,
				"y": -1.5868050524,
				"z": 0.4784693064,
				"element": "H" 
			},
			{
				"x": -3.759823861,
				"y": 0.9086157618,
				"z": -5.925157704,
				"element": "H" 
			},
			{
				"x": -6.1948347363,
				"y": 1.4116808918,
				"z": -5.6874394234,
				"element": "H" 
			},
			{
				"x": -7.3188637827,
				"y": 1.0452136097,
				"z": -3.5016485801,
				"element": "H" 
			},
			{
				"x": -6.0238050685,
				"y": 0.181692986,
				"z": -1.5671702809,
				"element": "H" 
			},
			{
				"x": -3.6038567097,
				"y": -0.3178945941,
				"z": -1.8170995931,
				"element": "H" 
			}
		],
		 "valence_orbital": [ 
			{
				"type": "occ",
				"energy": -0.2648,
				"method": "rhf"
			},
			{
				"type": "occ",
				"energy": -0.26089,
				"method": "rhf"
			},
			{
				"type": "occ",
				"energy": -0.25012,
				"method": "rhf"
			},
			{
				"type": "occ",
				"energy": -0.24831,
				"method": "rhf"
			},
			{
				"type": "occ",
				"energy": -0.21547,
				"method": "rhf"
			},
			{
				"type": "unocc",
				"energy": -0.07717,
				"method": "rhf"
			},
			{
				"type": "unocc",
				"energy": -0.05732,
				"method": "rhf"
			},
			{
				"type": "unocc",
				"energy": -0.05671,
				"method": "rhf"
			},
			{
				"type": "unocc",
				"energy": -0.01542,
				"method": "rhf"
			},
			{
				"type": "unocc",
				"energy": -0.01419,
				"method": "rhf"
			}
		],
		"cosmo_sigma_profile": { 
			"-0.025": 0.0,
			"-0.024": 0.0,
			"-0.023": 0.0,
			"-0.022": 0.0,
			"-0.021": 0.0,
			"-0.02": 0.0,
			"-0.019": 0.0,
			"-0.018": 0.0,
			"-0.017": 0.0,
			"-0.016": 0.0,
			"-0.015": 0.0,
			"-0.014": 0.0,
			"-0.013": 0.0,
			"-0.012": 0.0,
			"-0.011": 0.0,
			"-0.01": 0.0,
			"-0.009": 0.0,
			"-0.008": 0.0161810737983,
			"-0.007": 13.9982096338,
			"-0.006": 34.3969861164,
			"-0.005": 39.2682281244,
			"-0.004": 35.4228116805,
			"-0.003": 30.9150474774,
			"-0.002": 31.4595909156,
			"-0.001": 29.5636538874,
			"0.0": 34.9210415933,
			"0.001": 44.7881218369,
			"0.002": 47.572472632,
			"0.003": 45.0476537359,
			"0.004": 29.6785016671,
			"0.005": 5.580303416,
			"0.006": 4.77470318633,
			"0.007": 5.42183021258,
			"0.008": 5.79769680932,
			"0.009": 5.7816639409,
			"0.01": 6.95083626734,
			"0.011": 10.3868225668,
			"0.012": 2.94134157035,
			"0.013": 1.6176014449,
			"0.014": 0.237310819007,
			"0.015": 0.0,
			"0.016": 0.0,
			"0.017": 0.0,
			"0.018": 0.0,
			"0.019": 0.0,
			"0.02": 0.0,
			"0.021": 0.0,
			"0.022": 0.0,
			"0.023": 0.0,
			"0.024": 0.0,
			"0.025": 0.0
		}
	}
}
