{
	 "smiles": "CCOC(=O)C1=C(C)NC(=O)NC1C1=CC=CC=C1C(F)(F)F", 
	 "Tm": 476.15, 
	 "num_atms": 38, 
	 "gaussian": { 
		 "optdone": 1, 
		 "sigma_profile": "yes", 
		 "theory": "DFT", 
		 "functional": "B3LYP", 
		 "basiset": "6-31G**", 
		 "properties": { 
			 "R2extent": 7335.2839, 
			 "electric_dipole_moment_norm": 3.99940550332, 
			 "electric_quadrupole_moment_norm": 21.3395112564, 
			 "total_energy": -1215.37194738, 
			 "HOMO_LUMO_gap": 0.18273, 
			 "cosmo_polarized_energy": -17.28, 
			 "cosmo_cavitation_energy": 41.13, 
			 "cosmo_dispersion_energy": -28.32, 
			 "cosmo_repulsion_energy": 2.11, 
			 "cosmo_total_nonelectrostatic_energy": 14.92, 
			 "SMD_solvation_energy": 9.15 
		},
		"coords": [
			{
				"x": -0.5382322007,
				"y": 4.4003717702,
				"z": -0.4118061119,
				"element": "C" 
			},
			{
				"x": -0.3165775608,
				"y": 3.360048445,
				"z": 0.6764770675,
				"element": "C" 
			},
			{
				"x": 0.5597762824,
				"y": 2.2976729079,
				"z": 0.2333013383,
				"element": "O" 
			},
			{
				"x": -0.0250788064,
				"y": 1.2914655718,
				"z": -0.4705221265,
				"element": "C" 
			},
			{
				"x": -1.2265658814,
				"y": 1.2716634035,
				"z": -0.7003773571,
				"element": "O" 
			},
			{
				"x": 0.8958965363,
				"y": 0.2426507141,
				"z": -0.9230616441,
				"element": "C" 
			},
			{
				"x": 2.2506069034,
				"y": 0.3847991449,
				"z": -1.0186763945,
				"element": "C" 
			},
			{
				"x": 3.0746236631,
				"y": 1.553349411,
				"z": -0.5349675142,
				"element": "C" 
			},
			{
				"x": 2.9986705689,
				"y": -0.6012981788,
				"z": -1.6217333982,
				"element": "N" 
			},
			{
				"x": 2.4931631253,
				"y": -1.7592992479,
				"z": -2.2202739603,
				"element": "C" 
			},
			{
				"x": 3.2350733693,
				"y": -2.5656671948,
				"z": -2.7591851497,
				"element": "O" 
			},
			{
				"x": 1.1369865283,
				"y": -1.8669212517,
				"z": -2.1689123603,
				"element": "N" 
			},
			{
				"x": 0.1891533502,
				"y": -0.9985102897,
				"z": -1.4709436204,
				"element": "C" 
			},
			{
				"x": -0.6770788198,
				"y": -1.7793080264,
				"z": -0.451534165,
				"element": "C" 
			},
			{
				"x": -2.0625616245,
				"y": -1.602543674,
				"z": -0.5767194704,
				"element": "C" 
			},
			{
				"x": -2.9768965983,
				"y": -2.2551103887,
				"z": 0.2470485243,
				"element": "C" 
			},
			{
				"x": -2.5182996125,
				"y": -3.1244213691,
				"z": 1.2321165112,
				"element": "C" 
			},
			{
				"x": -1.1484819082,
				"y": -3.3248788972,
				"z": 1.3765658371,
				"element": "C" 
			},
			{
				"x": -0.224329696,
				"y": -2.6665369784,
				"z": 0.5543909211,
				"element": "C" 
			},
			{
				"x": 1.2282774025,
				"y": -3.0213126843,
				"z": 0.7799589933,
				"element": "C" 
			},
			{
				"x": 2.0427986297,
				"y": -1.9422076158,
				"z": 0.7589815267,
				"element": "F" 
			},
			{
				"x": 1.4206097787,
				"y": -3.6166121001,
				"z": 1.9800464144,
				"element": "F" 
			},
			{
				"x": 1.6901794317,
				"y": -3.887243703,
				"z": -0.1524284425,
				"element": "F" 
			},
			{
				"x": -1.0622263817,
				"y": 3.9583422729,
				"z": -1.2623205063,
				"element": "H" 
			},
			{
				"x": -1.1483541195,
				"y": 5.2219775132,
				"z": -0.0215125492,
				"element": "H" 
			},
			{
				"x": 0.4133323853,
				"y": 4.8166145757,
				"z": -0.7568386208,
				"element": "H" 
			},
			{
				"x": 0.1973774687,
				"y": 3.7891099629,
				"z": 1.5403339669,
				"element": "H" 
			},
			{
				"x": -1.2642418761,
				"y": 2.9227587491,
				"z": 0.998414479,
				"element": "H" 
			},
			{
				"x": 2.6810595293,
				"y": 2.4986274326,
				"z": -0.9088359126,
				"element": "H" 
			},
			{
				"x": 3.0566300551,
				"y": 1.6120950075,
				"z": 0.5557371221,
				"element": "H" 
			},
			{
				"x": 4.1121996082,
				"y": 1.4491714925,
				"z": -0.8643940275,
				"element": "H" 
			},
			{
				"x": 4.0035631968,
				"y": -0.5257809929,
				"z": -1.6666154945,
				"element": "H" 
			},
			{
				"x": 0.7857676504,
				"y": -2.7246326214,
				"z": -2.5692807869,
				"element": "H" 
			},
			{
				"x": -0.5356467756,
				"y": -0.6353277027,
				"z": -2.2099792073,
				"element": "H" 
			},
			{
				"x": -2.4242222242,
				"y": -0.9110113223,
				"z": -1.3290339759,
				"element": "H" 
			},
			{
				"x": -4.0408449308,
				"y": -2.0826386996,
				"z": 0.1139643508,
				"element": "H" 
			},
			{
				"x": -3.2138527784,
				"y": -3.6454993681,
				"z": 1.8827753336,
				"element": "H" 
			},
			{
				"x": -0.7811536688,
				"y": -4.0004560678,
				"z": 2.1392404097,
				"element": "H" 
			}
		],
		 "valence_orbital": [ 
			{
				"type": "occ",
				"energy": -0.26964,
				"method": "rhf"
			},
			{
				"type": "occ",
				"energy": -0.26309,
				"method": "rhf"
			},
			{
				"type": "occ",
				"energy": -0.26054,
				"method": "rhf"
			},
			{
				"type": "occ",
				"energy": -0.24663,
				"method": "rhf"
			},
			{
				"type": "occ",
				"energy": -0.22226,
				"method": "rhf"
			},
			{
				"type": "unocc",
				"energy": -0.03953,
				"method": "rhf"
			},
			{
				"type": "unocc",
				"energy": -0.02754,
				"method": "rhf"
			},
			{
				"type": "unocc",
				"energy": -0.00859,
				"method": "rhf"
			},
			{
				"type": "unocc",
				"energy": 0.05879,
				"method": "rhf"
			},
			{
				"type": "unocc",
				"energy": 0.07333,
				"method": "rhf"
			}
		],
		"cosmo_sigma_profile": { 
			"-0.025": 0.0,
			"-0.024": 0.0,
			"-0.023": 0.0,
			"-0.022": 0.0,
			"-0.021": 0.0,
			"-0.02": 0.0,
			"-0.019": 0.0,
			"-0.018": 0.0,
			"-0.017": 0.0,
			"-0.016": 0.139512778091,
			"-0.015": 1.21628524478,
			"-0.014": 1.75121839376,
			"-0.013": 2.04601019035,
			"-0.012": 2.19068532368,
			"-0.011": 1.45328858883,
			"-0.01": 2.2317691259,
			"-0.009": 1.96637176773,
			"-0.008": 2.03777401462,
			"-0.007": 3.79678046874,
			"-0.006": 11.557336708,
			"-0.005": 18.4072316027,
			"-0.004": 24.1987824842,
			"-0.003": 27.0548520492,
			"-0.002": 28.1336700221,
			"-0.001": 27.5221439052,
			"0.0": 30.0986655457,
			"0.001": 25.2077704155,
			"0.002": 26.2393558929,
			"0.003": 34.458245561,
			"0.004": 14.0323896014,
			"0.005": 5.33979658845,
			"0.006": 4.56999555439,
			"0.007": 3.82102317883,
			"0.008": 3.32478577825,
			"0.009": 3.08596932835,
			"0.01": 2.6682472454,
			"0.011": 3.57580913417,
			"0.012": 3.51061524878,
			"0.013": 6.29174650096,
			"0.014": 3.95699653597,
			"0.015": 0.112357079942,
			"0.016": 0.0,
			"0.017": 0.0,
			"0.018": 0.0,
			"0.019": 0.0,
			"0.02": 0.0,
			"0.021": 0.0,
			"0.022": 0.0,
			"0.023": 0.0,
			"0.024": 0.0,
			"0.025": 0.0
		}
	}
}
