{
	 "smiles": "CCOC(=O)CN1C(=O)NC2=C1N=CC(Br)=C2", 
	 "Tm": 480.15, 
	 "num_atms": 27, 
	 "gaussian": { 
		 "optdone": 1, 
		 "sigma_profile": "yes", 
		 "theory": "DFT", 
		 "functional": "B3LYP", 
		 "basiset": "6-31G**", 
		 "properties": { 
			 "R2extent": 10187.4107, 
			 "electric_dipole_moment_norm": 3.08389373034, 
			 "electric_quadrupole_moment_norm": 12.1280331394, 
			 "total_energy": -3348.46417032, 
			 "HOMO_LUMO_gap": 0.18224, 
			 "cosmo_polarized_energy": -17.0, 
			 "cosmo_cavitation_energy": 34.81, 
			 "cosmo_dispersion_energy": -24.66, 
			 "cosmo_repulsion_energy": 1.96, 
			 "cosmo_total_nonelectrostatic_energy": 12.11, 
			 "SMD_solvation_energy": 5.12 
		},
		"coords": [
			{
				"x": -1.1244073219,
				"y": 0.7041771993,
				"z": 2.7857344626,
				"element": "C" 
			},
			{
				"x": -0.1907080923,
				"y": 1.3700591149,
				"z": 1.7875093173,
				"element": "C" 
			},
			{
				"x": -0.0679875124,
				"y": 0.5771079476,
				"z": 0.5771942908,
				"element": "O" 
			},
			{
				"x": 0.856500007,
				"y": -0.3953976336,
				"z": 0.5920737391,
				"element": "C" 
			},
			{
				"x": 1.5883214623,
				"y": -0.6566539982,
				"z": 1.5206075982,
				"element": "O" 
			},
			{
				"x": 0.8898315683,
				"y": -1.1945491986,
				"z": -0.7110826305,
				"element": "C" 
			},
			{
				"x": 0.1213352563,
				"y": -0.6454439727,
				"z": -1.801245684,
				"element": "N" 
			},
			{
				"x": -1.190618084,
				"y": -1.0448711752,
				"z": -2.0879959519,
				"element": "C" 
			},
			{
				"x": -1.8229896561,
				"y": -1.9349914261,
				"z": -1.5540660232,
				"element": "O" 
			},
			{
				"x": -1.6056352407,
				"y": -0.2082471382,
				"z": -3.1304097061,
				"element": "N" 
			},
			{
				"x": -0.6093791239,
				"y": 0.692239448,
				"z": -3.4666052241,
				"element": "C" 
			},
			{
				"x": 0.4842082032,
				"y": 0.4190357771,
				"z": -2.6109423222,
				"element": "C" 
			},
			{
				"x": 1.6367812357,
				"y": 1.0576426022,
				"z": -2.6042018613,
				"element": "N" 
			},
			{
				"x": 1.7539066987,
				"y": 2.0539400238,
				"z": -3.5057892714,
				"element": "C" 
			},
			{
				"x": 0.7327862324,
				"y": 2.3960231526,
				"z": -4.3905769512,
				"element": "C" 
			},
			{
				"x": 1.0062888309,
				"y": 3.8248008077,
				"z": -5.6249735498,
				"element": "Br" 
			},
			{
				"x": -0.49468663,
				"y": 1.7120440182,
				"z": -4.3927869191,
				"element": "C" 
			},
			{
				"x": -1.2633144312,
				"y": 1.3573637502,
				"z": 3.6535943482,
				"element": "H" 
			},
			{
				"x": -0.7038367212,
				"y": -0.2423760142,
				"z": 3.1336709899,
				"element": "H" 
			},
			{
				"x": -2.1036404746,
				"y": 0.5136449388,
				"z": 2.3373062585,
				"element": "H" 
			},
			{
				"x": -0.5849125152,
				"y": 2.3280748708,
				"z": 1.4415169276,
				"element": "H" 
			},
			{
				"x": 0.805785525,
				"y": 1.5163037366,
				"z": 2.2103750522,
				"element": "H" 
			},
			{
				"x": 1.9366307489,
				"y": -1.2929038872,
				"z": -1.006786526,
				"element": "H" 
			},
			{
				"x": 0.4926840249,
				"y": -2.1908224163,
				"z": -0.4969572117,
				"element": "H" 
			},
			{
				"x": -2.5221481965,
				"y": -0.2939533909,
				"z": -3.540534405,
				"element": "H" 
			},
			{
				"x": 2.6947378496,
				"y": 2.5944051539,
				"z": -3.5181915922,
				"element": "H" 
			},
			{
				"x": -1.288633643,
				"y": 1.9790477094,
				"z": -5.0801371549,
				"element": "H" 
			}
		],
		 "valence_orbital": [ 
			{
				"type": "occ",
				"energy": -0.28885,
				"method": "rhf"
			},
			{
				"type": "occ",
				"energy": -0.28355,
				"method": "rhf"
			},
			{
				"type": "occ",
				"energy": -0.27778,
				"method": "rhf"
			},
			{
				"type": "occ",
				"energy": -0.26749,
				"method": "rhf"
			},
			{
				"type": "occ",
				"energy": -0.22426,
				"method": "rhf"
			},
			{
				"type": "unocc",
				"energy": -0.04202,
				"method": "rhf"
			},
			{
				"type": "unocc",
				"energy": -0.01361,
				"method": "rhf"
			},
			{
				"type": "unocc",
				"energy": -0.00306,
				"method": "rhf"
			},
			{
				"type": "unocc",
				"energy": 0.00655,
				"method": "rhf"
			},
			{
				"type": "unocc",
				"energy": 0.04745,
				"method": "rhf"
			}
		],
		"cosmo_sigma_profile": { 
			"-0.025": 0.0,
			"-0.024": 0.0,
			"-0.023": 0.0,
			"-0.022": 0.0,
			"-0.021": 0.0,
			"-0.02": 0.0,
			"-0.019": 0.0,
			"-0.018": 0.0223609343595,
			"-0.017": 1.05859909702,
			"-0.016": 1.82809095875,
			"-0.015": 1.27827603589,
			"-0.014": 1.11400977879,
			"-0.013": 0.834140148222,
			"-0.012": 1.152023679,
			"-0.011": 1.35247796932,
			"-0.01": 1.59415393767,
			"-0.009": 2.99327537057,
			"-0.008": 5.6571204834,
			"-0.007": 6.30601256549,
			"-0.006": 9.76223279229,
			"-0.005": 13.5095926053,
			"-0.004": 20.3748699787,
			"-0.003": 21.2360432562,
			"-0.002": 23.002451952,
			"-0.001": 24.7983490022,
			"0.0": 25.9193037604,
			"0.001": 22.0699817764,
			"0.002": 14.9934268295,
			"0.003": 15.6838443218,
			"0.004": 18.5457607611,
			"0.005": 7.55985960317,
			"0.006": 3.49683357092,
			"0.007": 5.18906717845,
			"0.008": 2.60810141517,
			"0.009": 2.99662578646,
			"0.01": 4.26105182947,
			"0.011": 6.97198265077,
			"0.012": 8.32794881783,
			"0.013": 4.45737729368,
			"0.014": 0.196637640716,
			"0.015": 0.0,
			"0.016": 0.0,
			"0.017": 0.0,
			"0.018": 0.0,
			"0.019": 0.0,
			"0.02": 0.0,
			"0.021": 0.0,
			"0.022": 0.0,
			"0.023": 0.0,
			"0.024": 0.0,
			"0.025": 0.0
		}
	}
}
