{
	 "smiles": "COC1=CC(OC)=NC(NC(=O)NS(=O)(=O)C2=NC=CC=C2C(=O)N(C)C)=N1", 
	 "Tm": 418.15, 
	 "num_atms": 46, 
	 "gaussian": { 
		 "optdone": 1, 
		 "sigma_profile": "yes", 
		 "theory": "DFT", 
		 "functional": "B3LYP", 
		 "basiset": "6-31G**", 
		 "properties": { 
			 "R2extent": 14019.1771, 
			 "electric_dipole_moment_norm": 6.79630703103, 
			 "electric_quadrupole_moment_norm": 20.1327607143, 
			 "total_energy": -1760.44516404, 
			 "HOMO_LUMO_gap": 0.17967, 
			 "cosmo_polarized_energy": -26.43, 
			 "cosmo_cavitation_energy": 52.36, 
			 "cosmo_dispersion_energy": -35.32, 
			 "cosmo_repulsion_energy": 2.63, 
			 "cosmo_total_nonelectrostatic_energy": 19.67, 
			 "SMD_solvation_energy": 8.59 
		},
		"coords": [
			{
				"x": 2.9900208079,
				"y": -1.430250264,
				"z": 2.3626359546,
				"element": "C" 
			},
			{
				"x": 2.1925976975,
				"y": -1.4015064311,
				"z": 3.5590258159,
				"element": "O" 
			},
			{
				"x": 0.9408874569,
				"y": -0.9399397198,
				"z": 3.4782156012,
				"element": "C" 
			},
			{
				"x": 0.1737885058,
				"y": -0.9106532394,
				"z": 4.6410568955,
				"element": "C" 
			},
			{
				"x": -1.124059866,
				"y": -0.4145145657,
				"z": 4.491320265,
				"element": "C" 
			},
			{
				"x": -1.8967837031,
				"y": -0.3685582036,
				"z": 5.5847561709,
				"element": "O" 
			},
			{
				"x": -3.2317722102,
				"y": 0.135409855,
				"z": 5.4406484486,
				"element": "C" 
			},
			{
				"x": -1.6210337501,
				"y": 0.0102230008,
				"z": 3.323642191,
				"element": "N" 
			},
			{
				"x": -0.7885886131,
				"y": -0.0695366789,
				"z": 2.2808046502,
				"element": "C" 
			},
			{
				"x": -1.3237220003,
				"y": 0.3837698803,
				"z": 1.0822256016,
				"element": "N" 
			},
			{
				"x": -0.7861298895,
				"y": 0.47976798,
				"z": -0.2073356231,
				"element": "C" 
			},
			{
				"x": -1.4242994159,
				"y": 1.0121758513,
				"z": -1.100886905,
				"element": "O" 
			},
			{
				"x": 0.4707783058,
				"y": -0.067342362,
				"z": -0.3453845478,
				"element": "N" 
			},
			{
				"x": 1.410690345,
				"y": 0.0365484404,
				"z": -1.7489566586,
				"element": "S" 
			},
			{
				"x": 0.7150125819,
				"y": -0.5980961429,
				"z": -2.8638388832,
				"element": "O" 
			},
			{
				"x": 2.7192119318,
				"y": -0.438286818,
				"z": -1.3000929955,
				"element": "O" 
			},
			{
				"x": 1.469332241,
				"y": 1.828521497,
				"z": -2.0661407704,
				"element": "C" 
			},
			{
				"x": 1.7061823896,
				"y": 2.5438594819,
				"z": -0.973650023,
				"element": "N" 
			},
			{
				"x": 1.7852305863,
				"y": 3.8702368093,
				"z": -1.1000655739,
				"element": "C" 
			},
			{
				"x": 1.6322174394,
				"y": 4.5164045496,
				"z": -2.3282889324,
				"element": "C" 
			},
			{
				"x": 1.3992897122,
				"y": 3.744780185,
				"z": -3.461443207,
				"element": "C" 
			},
			{
				"x": 1.3076519366,
				"y": 2.3489746096,
				"z": -3.3551112484,
				"element": "C" 
			},
			{
				"x": 1.2436923291,
				"y": 1.538317763,
				"z": -4.6387777937,
				"element": "C" 
			},
			{
				"x": 2.3108362967,
				"y": 1.262570083,
				"z": -5.1786254798,
				"element": "O" 
			},
			{
				"x": 0.0198028111,
				"y": 1.2855153984,
				"z": -5.178278615,
				"element": "N" 
			},
			{
				"x": -0.0329648166,
				"y": 0.5167200821,
				"z": -6.4150703736,
				"element": "C" 
			},
			{
				"x": -1.2337951636,
				"y": 1.3918640076,
				"z": -4.4440025258,
				"element": "C" 
			},
			{
				"x": 0.4697184983,
				"y": -0.5233833891,
				"z": 2.2920978589,
				"element": "N" 
			},
			{
				"x": 3.9534832988,
				"y": -1.8325131869,
				"z": 2.6745438291,
				"element": "H" 
			},
			{
				"x": 3.118931671,
				"y": -0.4271382786,
				"z": 1.9484065505,
				"element": "H" 
			},
			{
				"x": 2.5422050371,
				"y": -2.0783616414,
				"z": 1.6050487739,
				"element": "H" 
			},
			{
				"x": 0.5574283438,
				"y": -1.2485294271,
				"z": 5.5930861823,
				"element": "H" 
			},
			{
				"x": -3.8069150687,
				"y": -0.4738757079,
				"z": 4.738734017,
				"element": "H" 
			},
			{
				"x": -3.2241434115,
				"y": 1.1699474809,
				"z": 5.0878112803,
				"element": "H" 
			},
			{
				"x": -3.6669970439,
				"y": 0.0779294184,
				"z": 6.4384973832,
				"element": "H" 
			},
			{
				"x": -2.2616119782,
				"y": 0.7556499816,
				"z": 1.1503654459,
				"element": "H" 
			},
			{
				"x": 0.9578065572,
				"y": -0.3442642319,
				"z": 0.516269226,
				"element": "H" 
			},
			{
				"x": 1.9770440284,
				"y": 4.4322175985,
				"z": -0.1891048263,
				"element": "H" 
			},
			{
				"x": 1.7012526819,
				"y": 5.5974153375,
				"z": -2.3923644986,
				"element": "H" 
			},
			{
				"x": 1.2918847306,
				"y": 4.2106109612,
				"z": -4.4363988372,
				"element": "H" 
			},
			{
				"x": -0.803189764,
				"y": 0.9322306207,
				"z": -7.0735825974,
				"element": "H" 
			},
			{
				"x": -0.2750196306,
				"y": -0.533510466,
				"z": -6.2076445967,
				"element": "H" 
			},
			{
				"x": 0.940073497,
				"y": 0.5659683375,
				"z": -6.9012762106,
				"element": "H" 
			},
			{
				"x": -1.9800513578,
				"y": 1.9073879206,
				"z": -5.059889636,
				"element": "H" 
			},
			{
				"x": -1.0999855969,
				"y": 1.9386809274,
				"z": -3.5129603617,
				"element": "H" 
			},
			{
				"x": -1.6105884387,
				"y": 0.3966626956,
				"z": -4.1834204209,
				"element": "H" 
			}
		],
		 "valence_orbital": [ 
			{
				"type": "occ",
				"energy": -0.28068,
				"method": "rhf"
			},
			{
				"type": "occ",
				"energy": -0.27827,
				"method": "rhf"
			},
			{
				"type": "occ",
				"energy": -0.24528,
				"method": "rhf"
			},
			{
				"type": "occ",
				"energy": -0.24284,
				"method": "rhf"
			},
			{
				"type": "occ",
				"energy": -0.23421,
				"method": "rhf"
			},
			{
				"type": "unocc",
				"energy": -0.05454,
				"method": "rhf"
			},
			{
				"type": "unocc",
				"energy": -0.03965,
				"method": "rhf"
			},
			{
				"type": "unocc",
				"energy": -0.03155,
				"method": "rhf"
			},
			{
				"type": "unocc",
				"energy": -0.02003,
				"method": "rhf"
			},
			{
				"type": "unocc",
				"energy": 0.02617,
				"method": "rhf"
			}
		],
		"cosmo_sigma_profile": { 
			"-0.025": 0.0,
			"-0.024": 0.0,
			"-0.023": 0.0,
			"-0.022": 0.0,
			"-0.021": 0.0,
			"-0.02": 0.0,
			"-0.019": 0.0,
			"-0.018": 0.0,
			"-0.017": 0.0,
			"-0.016": 0.134051893376,
			"-0.015": 0.501922133272,
			"-0.014": 0.673640935994,
			"-0.013": 1.16369675017,
			"-0.012": 0.405043180186,
			"-0.011": 0.386961358072,
			"-0.01": 0.592744727386,
			"-0.009": 4.05645274382,
			"-0.008": 9.73024207249,
			"-0.007": 10.6570049939,
			"-0.006": 17.2013843374,
			"-0.005": 29.2300953199,
			"-0.004": 36.0078009644,
			"-0.003": 40.3623698728,
			"-0.002": 43.9597010435,
			"-0.001": 38.458752774,
			"0.0": 27.7683938985,
			"0.001": 22.9323639105,
			"0.002": 19.295685038,
			"0.003": 13.4361034479,
			"0.004": 12.5835961402,
			"0.005": 12.3747472895,
			"0.006": 12.7992705304,
			"0.007": 11.8071146609,
			"0.008": 12.8275600808,
			"0.009": 11.5156288277,
			"0.01": 10.8070142376,
			"0.011": 5.7916486392,
			"0.012": 3.88130326596,
			"0.013": 5.10122656244,
			"0.014": 1.23059399376,
			"0.015": 0.0,
			"0.016": 0.0,
			"0.017": 0.0,
			"0.018": 0.0,
			"0.019": 0.0,
			"0.02": 0.0,
			"0.021": 0.0,
			"0.022": 0.0,
			"0.023": 0.0,
			"0.024": 0.0,
			"0.025": 0.0
		}
	}
}
