{
	 "smiles": "NC1CCCOC2=C1C=CC=C2", 
	 "Tm": 343.15, 
	 "num_atms": 25, 
	 "gaussian": { 
		 "optdone": 1, 
		 "sigma_profile": "yes", 
		 "theory": "DFT", 
		 "functional": "B3LYP", 
		 "basiset": "6-31G**", 
		 "properties": { 
			 "R2extent": 2152.0672, 
			 "electric_dipole_moment_norm": 2.69224399154, 
			 "electric_quadrupole_moment_norm": 7.84932925287, 
			 "total_energy": -518.857433638, 
			 "HOMO_LUMO_gap": 0.21734, 
			 "cosmo_polarized_energy": -9.88, 
			 "cosmo_cavitation_energy": 25.8, 
			 "cosmo_dispersion_energy": -19.76, 
			 "cosmo_repulsion_energy": 1.56, 
			 "cosmo_total_nonelectrostatic_energy": 7.6, 
			 "SMD_solvation_energy": 3.17 
		},
		"coords": [
			{
				"x": -1.0170333406,
				"y": -3.0548708948,
				"z": 0.1217379129,
				"element": "N" 
			},
			{
				"x": -0.4848382874,
				"y": -1.9810093459,
				"z": -0.7333299624,
				"element": "C" 
			},
			{
				"x": 1.040515547,
				"y": -2.1644330954,
				"z": -0.8714606168,
				"element": "C" 
			},
			{
				"x": 1.6064654179,
				"y": -1.5377147852,
				"z": -2.157887558,
				"element": "C" 
			},
			{
				"x": 0.95770353,
				"y": -0.196056131,
				"z": -2.4913087619,
				"element": "C" 
			},
			{
				"x": 0.9127577887,
				"y": 0.6746474761,
				"z": -1.360322758,
				"element": "O" 
			},
			{
				"x": -0.1618670626,
				"y": 0.5899391772,
				"z": -0.5032242154,
				"element": "C" 
			},
			{
				"x": -0.8409387394,
				"y": -0.6001844939,
				"z": -0.1546781176,
				"element": "C" 
			},
			{
				"x": -1.8711496158,
				"y": -0.4853421717,
				"z": 0.7915715734,
				"element": "C" 
			},
			{
				"x": -2.2321366395,
				"y": 0.7309857983,
				"z": 1.3682372911,
				"element": "C" 
			},
			{
				"x": -1.5469868247,
				"y": 1.8909725846,
				"z": 1.0094947445,
				"element": "C" 
			},
			{
				"x": -0.5194456439,
				"y": 1.8139523644,
				"z": 0.0764510875,
				"element": "C" 
			},
			{
				"x": -2.0287171588,
				"y": -3.105185603,
				"z": 0.0275884584,
				"element": "H" 
			},
			{
				"x": -0.6674574439,
				"y": -3.9450816627,
				"z": -0.2243663243,
				"element": "H" 
			},
			{
				"x": -0.9179889369,
				"y": -2.0428360389,
				"z": -1.7489274646,
				"element": "H" 
			},
			{
				"x": 1.5299329197,
				"y": -1.7371120219,
				"z": 0.0088763529,
				"element": "H" 
			},
			{
				"x": 1.2773696388,
				"y": -3.235461429,
				"z": -0.8678605491,
				"element": "H" 
			},
			{
				"x": 2.6895483058,
				"y": -1.4084504551,
				"z": -2.0547819321,
				"element": "H" 
			},
			{
				"x": 1.4482675337,
				"y": -2.2097358766,
				"z": -3.0122944915,
				"element": "H" 
			},
			{
				"x": 1.5395669067,
				"y": 0.3362348933,
				"z": -3.2504592086,
				"element": "H" 
			},
			{
				"x": -0.0557197662,
				"y": -0.3312956114,
				"z": -2.889661653,
				"element": "H" 
			},
			{
				"x": -2.3793591968,
				"y": -1.3840611838,
				"z": 1.1197931601,
				"element": "H" 
			},
			{
				"x": -3.0327422603,
				"y": 0.7651473103,
				"z": 2.1010128921,
				"element": "H" 
			},
			{
				"x": -1.8087228195,
				"y": 2.8490980265,
				"z": 1.4493191084,
				"element": "H" 
			},
			{
				"x": 0.039676148,
				"y": 2.6933531698,
				"z": -0.2263189679,
				"element": "H" 
			}
		],
		 "valence_orbital": [ 
			{
				"type": "occ",
				"energy": -0.31526,
				"method": "rhf"
			},
			{
				"type": "occ",
				"energy": -0.29041,
				"method": "rhf"
			},
			{
				"type": "occ",
				"energy": -0.24147,
				"method": "rhf"
			},
			{
				"type": "occ",
				"energy": -0.23658,
				"method": "rhf"
			},
			{
				"type": "occ",
				"energy": -0.20961,
				"method": "rhf"
			},
			{
				"type": "unocc",
				"energy": 0.00773,
				"method": "rhf"
			},
			{
				"type": "unocc",
				"energy": 0.01617,
				"method": "rhf"
			},
			{
				"type": "unocc",
				"energy": 0.07737,
				"method": "rhf"
			},
			{
				"type": "unocc",
				"energy": 0.09029,
				"method": "rhf"
			},
			{
				"type": "unocc",
				"energy": 0.1064,
				"method": "rhf"
			}
		],
		"cosmo_sigma_profile": { 
			"-0.025": 0.0,
			"-0.024": 0.0,
			"-0.023": 0.0,
			"-0.022": 0.0,
			"-0.021": 0.0,
			"-0.02": 0.0,
			"-0.019": 0.0,
			"-0.018": 0.0,
			"-0.017": 0.0,
			"-0.016": 0.0,
			"-0.015": 0.0,
			"-0.014": 0.0,
			"-0.013": 0.0,
			"-0.012": 0.0,
			"-0.011": 0.0,
			"-0.01": 1.4953471517,
			"-0.009": 2.8757223498,
			"-0.008": 3.21030218932,
			"-0.007": 3.8399728732,
			"-0.006": 4.93523977233,
			"-0.005": 13.4046603021,
			"-0.004": 18.5643297861,
			"-0.003": 27.5487946107,
			"-0.002": 22.1750771311,
			"-0.001": 15.0351763893,
			"0.0": 12.2848235693,
			"0.001": 9.69105912614,
			"0.002": 8.05440700391,
			"0.003": 8.84756521926,
			"0.004": 9.48856610598,
			"0.005": 10.0083004091,
			"0.006": 11.301686221,
			"0.007": 5.73306971571,
			"0.008": 2.64477482068,
			"0.009": 1.99161645402,
			"0.01": 2.09066624383,
			"0.011": 1.66758134137,
			"0.012": 1.11933200924,
			"0.013": 0.70424703695,
			"0.014": 1.02284677,
			"0.015": 0.428384407448,
			"0.016": 0.674846102019,
			"0.017": 0.155245535472,
			"0.018": 0.764662531265,
			"0.019": 0.398214132735,
			"0.02": 0.0,
			"0.021": 0.0,
			"0.022": 0.0,
			"0.023": 0.0,
			"0.024": 0.0,
			"0.025": 0.0
		}
	}
}
