{
	 "smiles": "OC(=O)CCCC1=CC=C(O)C=C1", 
	 "Tm": 380.15, 
	 "num_atms": 25, 
	 "gaussian": { 
		 "optdone": 1, 
		 "sigma_profile": "yes", 
		 "theory": "DFT", 
		 "functional": "B3LYP", 
		 "basiset": "6-31G**", 
		 "properties": { 
			 "R2extent": 3485.0874, 
			 "electric_dipole_moment_norm": 3.02138895543, 
			 "electric_quadrupole_moment_norm": 20.0671503687, 
			 "total_energy": -613.980717723, 
			 "HOMO_LUMO_gap": 0.21369, 
			 "cosmo_polarized_energy": -18.85, 
			 "cosmo_cavitation_energy": 28.46, 
			 "cosmo_dispersion_energy": -20.38, 
			 "cosmo_repulsion_energy": 1.62, 
			 "cosmo_total_nonelectrostatic_energy": 9.71, 
			 "SMD_solvation_energy": 5.79 
		},
		"coords": [
			{
				"x": -0.8431063194,
				"y": -2.9259088752,
				"z": 1.7251629995,
				"element": "O" 
			},
			{
				"x": -0.7430576451,
				"y": -1.6037084316,
				"z": 1.4121814989,
				"element": "C" 
			},
			{
				"x": -0.6640985171,
				"y": -0.7876945472,
				"z": 2.2992496127,
				"element": "O" 
			},
			{
				"x": -0.6805398124,
				"y": -1.2768241066,
				"z": -0.0719392173,
				"element": "C" 
			},
			{
				"x": 0.7358003627,
				"y": -1.4943214537,
				"z": -0.6524943087,
				"element": "C" 
			},
			{
				"x": 1.8174368326,
				"y": -0.5681035862,
				"z": -0.0518866074,
				"element": "C" 
			},
			{
				"x": 1.6169394397,
				"y": 0.9009065154,
				"z": -0.3650769698,
				"element": "C" 
			},
			{
				"x": 2.1336127715,
				"y": 1.4608771263,
				"z": -1.5436036697,
				"element": "C" 
			},
			{
				"x": 1.9451554159,
				"y": 2.8035104283,
				"z": -1.8584703967,
				"element": "C" 
			},
			{
				"x": 1.2247821499,
				"y": 3.6246307741,
				"z": -0.984037037,
				"element": "C" 
			},
			{
				"x": 1.0688248531,
				"y": 4.9375658171,
				"z": -1.3342593176,
				"element": "O" 
			},
			{
				"x": 0.7016701672,
				"y": 3.0875538434,
				"z": 0.1958982317,
				"element": "C" 
			},
			{
				"x": 0.8988574939,
				"y": 1.7394066506,
				"z": 0.4985318668,
				"element": "C" 
			},
			{
				"x": -0.9108132053,
				"y": -3.4549011356,
				"z": 0.9180429671,
				"element": "H" 
			},
			{
				"x": -0.9755138904,
				"y": -0.2325532737,
				"z": -0.1916446452,
				"element": "H" 
			},
			{
				"x": -1.4023519348,
				"y": -1.8938647636,
				"z": -0.6223199182,
				"element": "H" 
			},
			{
				"x": 0.6857111405,
				"y": -1.3370551573,
				"z": -1.7360876625,
				"element": "H" 
			},
			{
				"x": 1.0372420079,
				"y": -2.5395827562,
				"z": -0.5011701418,
				"element": "H" 
			},
			{
				"x": 1.8551533738,
				"y": -0.7129519197,
				"z": 1.0334709934,
				"element": "H" 
			},
			{
				"x": 2.7889490209,
				"y": -0.8933420108,
				"z": -0.4424916474,
				"element": "H" 
			},
			{
				"x": 2.7041601187,
				"y": 0.8352704578,
				"z": -2.2268419303,
				"element": "H" 
			},
			{
				"x": 2.3525744027,
				"y": 3.2339430006,
				"z": -2.7674870131,
				"element": "H" 
			},
			{
				"x": 0.566268975,
				"y": 5.3888716992,
				"z": -0.6437620621,
				"element": "H" 
			},
			{
				"x": 0.1431795317,
				"y": 3.7217445021,
				"z": 0.8819747071,
				"element": "H" 
			},
			{
				"x": 0.4803632667,
				"y": 1.3295312025,
				"z": 1.413859668,
				"element": "H" 
			}
		],
		 "valence_orbital": [ 
			{
				"type": "occ",
				"energy": -0.32046,
				"method": "rhf"
			},
			{
				"type": "occ",
				"energy": -0.31463,
				"method": "rhf"
			},
			{
				"type": "occ",
				"energy": -0.27008,
				"method": "rhf"
			},
			{
				"type": "occ",
				"energy": -0.2476,
				"method": "rhf"
			},
			{
				"type": "occ",
				"energy": -0.21375,
				"method": "rhf"
			},
			{
				"type": "unocc",
				"energy": -6e-05,
				"method": "rhf"
			},
			{
				"type": "unocc",
				"energy": 0.00471,
				"method": "rhf"
			},
			{
				"type": "unocc",
				"energy": 0.01441,
				"method": "rhf"
			},
			{
				"type": "unocc",
				"energy": 0.04854,
				"method": "rhf"
			},
			{
				"type": "unocc",
				"energy": 0.07369,
				"method": "rhf"
			}
		],
		"cosmo_sigma_profile": { 
			"-0.025": 0.0,
			"-0.024": 0.0,
			"-0.023": 0.0,
			"-0.022": 0.0,
			"-0.021": 0.0,
			"-0.02": 0.0,
			"-0.019": 0.128895359015,
			"-0.018": 1.26026339743,
			"-0.017": 1.93574366298,
			"-0.016": 2.04202600806,
			"-0.015": 2.18608879012,
			"-0.014": 2.96261473319,
			"-0.013": 1.35683365743,
			"-0.012": 1.42103053553,
			"-0.011": 2.49249006131,
			"-0.01": 2.46981676168,
			"-0.009": 2.03579578534,
			"-0.008": 2.88495438274,
			"-0.007": 3.09322700558,
			"-0.006": 5.28887395046,
			"-0.005": 9.38222402334,
			"-0.004": 15.6681068507,
			"-0.003": 21.055504121,
			"-0.002": 20.4926862603,
			"-0.001": 14.3009024921,
			"0.0": 12.2181565476,
			"0.001": 9.8470420257,
			"0.002": 9.65517474077,
			"0.003": 10.5114016936,
			"0.004": 12.3436927805,
			"0.005": 12.1280140452,
			"0.006": 11.1508890552,
			"0.007": 5.18611694059,
			"0.008": 4.25353694235,
			"0.009": 4.71770525495,
			"0.01": 5.06298900226,
			"0.011": 7.96593558977,
			"0.012": 4.50566839604,
			"0.013": 1.93049305942,
			"0.014": 0.176419117817,
			"0.015": 0.0,
			"0.016": 0.0,
			"0.017": 0.0,
			"0.018": 0.0,
			"0.019": 0.0,
			"0.02": 0.0,
			"0.021": 0.0,
			"0.022": 0.0,
			"0.023": 0.0,
			"0.024": 0.0,
			"0.025": 0.0
		}
	}
}
