{
	 "smiles": "CC(=O)N1N=C2OC3=CC=CC=C3C=C2C1=O", 
	 "Tm": 443.15, 
	 "num_atms": 25, 
	 "gaussian": { 
		 "optdone": 1, 
		 "sigma_profile": "yes", 
		 "theory": "DFT", 
		 "functional": "B3LYP", 
		 "basiset": "6-31G**", 
		 "properties": { 
			 "R2extent": 5264.2736, 
			 "electric_dipole_moment_norm": 7.37143945305, 
			 "electric_quadrupole_moment_norm": 22.4080095631, 
			 "total_energy": -797.246427743, 
			 "HOMO_LUMO_gap": 0.11981, 
			 "cosmo_polarized_energy": -18.98, 
			 "cosmo_cavitation_energy": 30.48, 
			 "cosmo_dispersion_energy": -22.66, 
			 "cosmo_repulsion_energy": 1.7, 
			 "cosmo_total_nonelectrostatic_energy": 9.52, 
			 "SMD_solvation_energy": 6.1 
		},
		"coords": [
			{
				"x": 0.4240765209,
				"y": 3.2504576366,
				"z": -1.8051867548,
				"element": "C" 
			},
			{
				"x": 0.6567491666,
				"y": 2.4747612439,
				"z": -0.5286128032,
				"element": "C" 
			},
			{
				"x": 1.0385064242,
				"y": 2.9779996757,
				"z": 0.5036390226,
				"element": "O" 
			},
			{
				"x": 0.3987354645,
				"y": 1.0782057305,
				"z": -0.5935081207,
				"element": "N" 
			},
			{
				"x": 0.6051415268,
				"y": 0.3179832508,
				"z": 0.5831861393,
				"element": "N" 
			},
			{
				"x": 0.3016399616,
				"y": -0.8865597105,
				"z": 0.2441416283,
				"element": "C" 
			},
			{
				"x": 0.369555992,
				"y": -1.9328731614,
				"z": 1.1082085553,
				"element": "O" 
			},
			{
				"x": 0.0212653629,
				"y": -3.1741728678,
				"z": 0.6340128332,
				"element": "C" 
			},
			{
				"x": 0.1009540081,
				"y": -4.2276129837,
				"z": 1.542906354,
				"element": "C" 
			},
			{
				"x": -0.2378176327,
				"y": -5.5123023097,
				"z": 1.1277369574,
				"element": "C" 
			},
			{
				"x": -0.6561328781,
				"y": -5.7557018274,
				"z": -0.188445496,
				"element": "C" 
			},
			{
				"x": -0.7340877994,
				"y": -4.7040884143,
				"z": -1.0901015177,
				"element": "C" 
			},
			{
				"x": -0.398816168,
				"y": -3.3913002831,
				"z": -0.7041014321,
				"element": "C" 
			},
			{
				"x": -0.4653935592,
				"y": -2.2676029738,
				"z": -1.6094566438,
				"element": "C" 
			},
			{
				"x": -0.1183658979,
				"y": -1.0561940913,
				"z": -1.1219964601,
				"element": "C" 
			},
			{
				"x": -0.0490248391,
				"y": 0.3053407255,
				"z": -1.6945788606,
				"element": "C" 
			},
			{
				"x": -0.3069358429,
				"y": 0.6864219686,
				"z": -2.8242088937,
				"element": "O" 
			},
			{
				"x": -0.6107216335,
				"y": 3.1564420519,
				"z": -2.1439791177,
				"element": "H" 
			},
			{
				"x": 1.0482229395,
				"y": 2.8725337949,
				"z": -2.6188489515,
				"element": "H" 
			},
			{
				"x": 0.6626624559,
				"y": 4.2931433,
				"z": -1.5951549195,
				"element": "H" 
			},
			{
				"x": 0.4263745014,
				"y": -4.0208943637,
				"z": 2.5564286411,
				"element": "H" 
			},
			{
				"x": -0.1754851168,
				"y": -6.3324472992,
				"z": 1.8362894397,
				"element": "H" 
			},
			{
				"x": -0.9174521715,
				"y": -6.7615464532,
				"z": -0.4998432029,
				"element": "H" 
			},
			{
				"x": -1.0564408224,
				"y": -4.8772813955,
				"z": -2.1129842122,
				"element": "H" 
			},
			{
				"x": -0.7837099627,
				"y": -2.4049112438,
				"z": -2.6395421844,
				"element": "H" 
			}
		],
		 "valence_orbital": [ 
			{
				"type": "occ",
				"energy": -0.28248,
				"method": "rhf"
			},
			{
				"type": "occ",
				"energy": -0.27636,
				"method": "rhf"
			},
			{
				"type": "occ",
				"energy": -0.27011,
				"method": "rhf"
			},
			{
				"type": "occ",
				"energy": -0.2554,
				"method": "rhf"
			},
			{
				"type": "occ",
				"energy": -0.22545,
				"method": "rhf"
			},
			{
				"type": "unocc",
				"energy": -0.10564,
				"method": "rhf"
			},
			{
				"type": "unocc",
				"energy": -0.03188,
				"method": "rhf"
			},
			{
				"type": "unocc",
				"energy": -0.01789,
				"method": "rhf"
			},
			{
				"type": "unocc",
				"energy": -0.0103,
				"method": "rhf"
			},
			{
				"type": "unocc",
				"energy": 0.06147,
				"method": "rhf"
			}
		],
		"cosmo_sigma_profile": { 
			"-0.025": 0.0,
			"-0.024": 0.0,
			"-0.023": 0.0,
			"-0.022": 0.0,
			"-0.021": 0.0,
			"-0.02": 0.0,
			"-0.019": 0.0,
			"-0.018": 0.0,
			"-0.017": 0.0,
			"-0.016": 0.0,
			"-0.015": 0.0,
			"-0.014": 0.0,
			"-0.013": 0.0,
			"-0.012": 0.0,
			"-0.011": 0.170826264534,
			"-0.01": 2.95603843423,
			"-0.009": 2.82615921477,
			"-0.008": 5.38849706545,
			"-0.007": 10.2650356019,
			"-0.006": 16.915293044,
			"-0.005": 19.3742189166,
			"-0.004": 20.0291759701,
			"-0.003": 18.0752337264,
			"-0.002": 24.1945287296,
			"-0.001": 18.7279038056,
			"0.0": 15.5625696245,
			"0.001": 13.9823742436,
			"0.002": 14.1104024991,
			"0.003": 9.4184165258,
			"0.004": 4.08117475802,
			"0.005": 5.94126070645,
			"0.006": 4.65002391131,
			"0.007": 4.03337550185,
			"0.008": 3.23384809036,
			"0.009": 3.89627846485,
			"0.01": 5.57780223243,
			"0.011": 7.25917598484,
			"0.012": 7.9196554679,
			"0.013": 2.58156438705,
			"0.014": 1.58974643004,
			"0.015": 1.12810306871,
			"0.016": 1.26993565419,
			"0.017": 0.86530074748,
			"0.018": 0.0241156822831,
			"0.019": 0.0,
			"0.02": 0.0,
			"0.021": 0.0,
			"0.022": 0.0,
			"0.023": 0.0,
			"0.024": 0.0,
			"0.025": 0.0
		}
	}
}
