{
	 "smiles": "CN(C)S(=O)(=O)C1=CC(N)=C(Cl)C=C1", 
	 "Tm": 393.15, 
	 "num_atms": 25, 
	 "gaussian": { 
		 "optdone": 1, 
		 "sigma_profile": "yes", 
		 "theory": "DFT", 
		 "functional": "B3LYP", 
		 "basiset": "6-31G**", 
		 "properties": { 
			 "R2extent": 5003.8371, 
			 "electric_dipole_moment_norm": 5.06350332181, 
			 "electric_quadrupole_moment_norm": 8.51760366359, 
			 "total_energy": -1429.74021485, 
			 "HOMO_LUMO_gap": 0.18501, 
			 "cosmo_polarized_energy": -15.9, 
			 "cosmo_cavitation_energy": 31.2, 
			 "cosmo_dispersion_energy": -23.03, 
			 "cosmo_repulsion_energy": 1.77, 
			 "cosmo_total_nonelectrostatic_energy": 9.94, 
			 "SMD_solvation_energy": 3.76 
		},
		"coords": [
			{
				"x": 0.635704168,
				"y": 1.0984187554,
				"z": -3.9607234048,
				"element": "C" 
			},
			{
				"x": 0.8490282205,
				"y": -0.0383307503,
				"z": -3.0518572764,
				"element": "N" 
			},
			{
				"x": 1.659831373,
				"y": -1.1128931316,
				"z": -3.6371503808,
				"element": "C" 
			},
			{
				"x": -0.5768245091,
				"y": -0.5935629399,
				"z": -2.2948517477,
				"element": "S" 
			},
			{
				"x": -1.3443713059,
				"y": 0.6079785971,
				"z": -1.9508392989,
				"element": "O" 
			},
			{
				"x": -1.1969943183,
				"y": -1.6809382222,
				"z": -3.0661002494,
				"element": "O" 
			},
			{
				"x": 0.0825893308,
				"y": -1.3111702098,
				"z": -0.7856820663,
				"element": "C" 
			},
			{
				"x": 0.5291546707,
				"y": -0.4548880104,
				"z": 0.2156644321,
				"element": "C" 
			},
			{
				"x": 1.0305020671,
				"y": -0.9724270794,
				"z": 1.4223359188,
				"element": "C" 
			},
			{
				"x": 1.4257138086,
				"y": -0.1363627228,
				"z": 2.446476247,
				"element": "N" 
			},
			{
				"x": 1.0567561685,
				"y": -2.379301745,
				"z": 1.5539644389,
				"element": "C" 
			},
			{
				"x": 1.6916714143,
				"y": -3.0791701081,
				"z": 3.038879364,
				"element": "Cl" 
			},
			{
				"x": 0.5974053908,
				"y": -3.2263312906,
				"z": 0.551168934,
				"element": "C" 
			},
			{
				"x": 0.0980691308,
				"y": -2.6980986671,
				"z": -0.6392517064,
				"element": "C" 
			},
			{
				"x": 0.0181782691,
				"y": 1.8471701185,
				"z": -3.4661402926,
				"element": "H" 
			},
			{
				"x": 1.6150324781,
				"y": 1.5324941045,
				"z": -4.1824540601,
				"element": "H" 
			},
			{
				"x": 0.1585389278,
				"y": 0.8035534212,
				"z": -4.9064209903,
				"element": "H" 
			},
			{
				"x": 1.1924509019,
				"y": -1.5636275971,
				"z": -4.5227172526,
				"element": "H" 
			},
			{
				"x": 2.6277281108,
				"y": -0.688031448,
				"z": -3.9177174652,
				"element": "H" 
			},
			{
				"x": 1.8366656319,
				"y": -1.8940410649,
				"z": -2.8943892256,
				"element": "H" 
			},
			{
				"x": 0.475031557,
				"y": 0.619498986,
				"z": 0.072577432,
				"element": "H" 
			},
			{
				"x": 1.6550806258,
				"y": 0.8122846217,
				"z": 2.192135333,
				"element": "H" 
			},
			{
				"x": 2.0192604313,
				"y": -0.5360441828,
				"z": 3.1581729305,
				"element": "H" 
			},
			{
				"x": 0.6315955738,
				"y": -4.2987975301,
				"z": 0.7079361829,
				"element": "H" 
			},
			{
				"x": -0.2828981174,
				"y": -3.336281904,
				"z": -1.427115796,
				"element": "H" 
			}
		],
		 "valence_orbital": [ 
			{
				"type": "occ",
				"energy": -0.30606,
				"method": "rhf"
			},
			{
				"type": "occ",
				"energy": -0.29709,
				"method": "rhf"
			},
			{
				"type": "occ",
				"energy": -0.27042,
				"method": "rhf"
			},
			{
				"type": "occ",
				"energy": -0.24841,
				"method": "rhf"
			},
			{
				"type": "occ",
				"energy": -0.22566,
				"method": "rhf"
			},
			{
				"type": "unocc",
				"energy": -0.04065,
				"method": "rhf"
			},
			{
				"type": "unocc",
				"energy": -0.01132,
				"method": "rhf"
			},
			{
				"type": "unocc",
				"energy": 0.01834,
				"method": "rhf"
			},
			{
				"type": "unocc",
				"energy": 0.06563,
				"method": "rhf"
			},
			{
				"type": "unocc",
				"energy": 0.07363,
				"method": "rhf"
			}
		],
		"cosmo_sigma_profile": { 
			"-0.025": 0.0,
			"-0.024": 0.0,
			"-0.023": 0.0,
			"-0.022": 0.0,
			"-0.021": 0.0,
			"-0.02": 0.0,
			"-0.019": 0.0,
			"-0.018": 0.0,
			"-0.017": 0.0,
			"-0.016": 0.0,
			"-0.015": 0.0,
			"-0.014": 0.965708270277,
			"-0.013": 1.76171948263,
			"-0.012": 2.5171008779,
			"-0.011": 3.19122547233,
			"-0.01": 2.5659007723,
			"-0.009": 2.36643542406,
			"-0.008": 3.50723622781,
			"-0.007": 4.54442146885,
			"-0.006": 11.1516662933,
			"-0.005": 12.9144711336,
			"-0.004": 19.7618487803,
			"-0.003": 20.3720477485,
			"-0.002": 22.5058884923,
			"-0.001": 13.7670113251,
			"0.0": 15.6780801955,
			"0.001": 18.6500567307,
			"0.002": 21.7770777096,
			"0.003": 15.6214517093,
			"0.004": 12.623559713,
			"0.005": 6.09402970357,
			"0.006": 3.60674458618,
			"0.007": 4.34127236965,
			"0.008": 5.59105044718,
			"0.009": 3.90091917149,
			"0.01": 7.3827199043,
			"0.011": 8.03969564654,
			"0.012": 4.51979951195,
			"0.013": 0.00665977891105,
			"0.014": 0.0,
			"0.015": 0.0,
			"0.016": 0.0,
			"0.017": 0.0,
			"0.018": 0.0,
			"0.019": 0.0,
			"0.02": 0.0,
			"0.021": 0.0,
			"0.022": 0.0,
			"0.023": 0.0,
			"0.024": 0.0,
			"0.025": 0.0
		}
	}
}
