{
	 "smiles": "CN1C=NC(=C1)S(N)(=O)=O", 
	 "Tm": 496.15, 
	 "num_atms": 17, 
	 "gaussian": { 
		 "optdone": 1, 
		 "sigma_profile": "yes", 
		 "theory": "DFT", 
		 "functional": "B3LYP", 
		 "basiset": "6-31G**", 
		 "properties": { 
			 "R2extent": 2183.4749, 
			 "electric_dipole_moment_norm": 8.20591224606, 
			 "electric_quadrupole_moment_norm": 20.5879990417, 
			 "total_energy": -869.452138805, 
			 "HOMO_LUMO_gap": 0.24718, 
			 "cosmo_polarized_energy": -23.54, 
			 "cosmo_cavitation_energy": 22.96, 
			 "cosmo_dispersion_energy": -17.48, 
			 "cosmo_repulsion_energy": 1.37, 
			 "cosmo_total_nonelectrostatic_energy": 6.86, 
			 "SMD_solvation_energy": 2.95 
		},
		"coords": [
			{
				"x": 1.5851997682,
				"y": -0.0710244023,
				"z": 3.8774831433,
				"element": "C" 
			},
			{
				"x": 1.473692971,
				"y": 0.0838333064,
				"z": 2.43369983,
				"element": "N" 
			},
			{
				"x": 1.7078388996,
				"y": 1.2252733088,
				"z": 1.7116917179,
				"element": "C" 
			},
			{
				"x": 1.5256826758,
				"y": 1.0484589083,
				"z": 0.4210771834,
				"element": "N" 
			},
			{
				"x": 1.1553698626,
				"y": -0.2660894072,
				"z": 0.3072361919,
				"element": "C" 
			},
			{
				"x": 1.111368066,
				"y": -0.8888039532,
				"z": 1.5313896463,
				"element": "C" 
			},
			{
				"x": 0.8550431822,
				"y": -1.0189222074,
				"z": -1.2730468824,
				"element": "S" 
			},
			{
				"x": -0.1245799623,
				"y": 0.0718415077,
				"z": -2.091192721,
				"element": "N" 
			},
			{
				"x": 2.1106244087,
				"y": -1.0758068023,
				"z": -2.0149709756,
				"element": "O" 
			},
			{
				"x": 0.0511840851,
				"y": -2.2138298425,
				"z": -1.0135157931,
				"element": "O" 
			},
			{
				"x": 0.6254814185,
				"y": -0.3703404073,
				"z": 4.3073246962,
				"element": "H" 
			},
			{
				"x": 1.8828192657,
				"y": 0.8843161888,
				"z": 4.3126844454,
				"element": "H" 
			},
			{
				"x": 2.3402778494,
				"y": -0.8215952107,
				"z": 4.1261317419,
				"element": "H" 
			},
			{
				"x": 2.0027106358,
				"y": 2.1508790766,
				"z": 2.1878868018,
				"element": "H" 
			},
			{
				"x": 0.8596161818,
				"y": -1.897765822,
				"z": 1.8166237142,
				"element": "H" 
			},
			{
				"x": -1.0260408546,
				"y": 0.1753171899,
				"z": -1.633515632,
				"element": "H" 
			},
			{
				"x": 0.3473115465,
				"y": 0.9666585684,
				"z": -2.1985871081,
				"element": "H" 
			}
		],
		 "valence_orbital": [ 
			{
				"type": "occ",
				"energy": -0.30875,
				"method": "rhf"
			},
			{
				"type": "occ",
				"energy": -0.29383,
				"method": "rhf"
			},
			{
				"type": "occ",
				"energy": -0.29098,
				"method": "rhf"
			},
			{
				"type": "occ",
				"energy": -0.28952,
				"method": "rhf"
			},
			{
				"type": "occ",
				"energy": -0.25198,
				"method": "rhf"
			},
			{
				"type": "unocc",
				"energy": -0.0048,
				"method": "rhf"
			},
			{
				"type": "unocc",
				"energy": 0.01834,
				"method": "rhf"
			},
			{
				"type": "unocc",
				"energy": 0.06766,
				"method": "rhf"
			},
			{
				"type": "unocc",
				"energy": 0.07039,
				"method": "rhf"
			},
			{
				"type": "unocc",
				"energy": 0.08647,
				"method": "rhf"
			}
		],
		"cosmo_sigma_profile": { 
			"-0.025": 0.0,
			"-0.024": 0.0,
			"-0.023": 0.0,
			"-0.022": 0.0,
			"-0.021": 0.0,
			"-0.02": 0.0,
			"-0.019": 0.0,
			"-0.018": 0.0,
			"-0.017": 0.0,
			"-0.016": 0.128075473367,
			"-0.015": 1.29295116864,
			"-0.014": 2.5411671869,
			"-0.013": 1.88011473076,
			"-0.012": 2.65153344798,
			"-0.011": 2.22743733352,
			"-0.01": 5.67937407973,
			"-0.009": 6.17954568276,
			"-0.008": 6.26728703707,
			"-0.007": 11.7857060029,
			"-0.006": 11.7053302523,
			"-0.005": 10.4163718816,
			"-0.004": 13.0312242811,
			"-0.003": 8.52767213947,
			"-0.002": 5.64593833892,
			"-0.001": 6.48450133053,
			"0.0": 6.81999295245,
			"0.001": 6.45653054973,
			"0.002": 5.83868123085,
			"0.003": 4.01071584181,
			"0.004": 3.68719864293,
			"0.005": 5.32802627666,
			"0.006": 4.67703708866,
			"0.007": 5.12482733025,
			"0.008": 6.42266060014,
			"0.009": 5.69872688123,
			"0.01": 8.46980534817,
			"0.011": 15.4949494593,
			"0.012": 6.4139862831,
			"0.013": 1.10556536455,
			"0.014": 0.77685663644,
			"0.015": 0.107450778207,
			"0.016": 0.0,
			"0.017": 0.0,
			"0.018": 0.0,
			"0.019": 0.0,
			"0.02": 0.0,
			"0.021": 0.0,
			"0.022": 0.0,
			"0.023": 0.0,
			"0.024": 0.0,
			"0.025": 0.0
		}
	}
}
