{
	 "smiles": "COC1=CC(NCCC(O)=O)=CC=C1", 
	 "Tm": 361.15, 
	 "num_atms": 27, 
	 "gaussian": { 
		 "optdone": 1, 
		 "sigma_profile": "yes", 
		 "theory": "DFT", 
		 "functional": "B3LYP", 
		 "basiset": "6-31G**", 
		 "properties": { 
			 "R2extent": 4645.6153, 
			 "electric_dipole_moment_norm": 2.21349518409, 
			 "electric_quadrupole_moment_norm": 19.2756073466, 
			 "total_energy": -669.32530569, 
			 "HOMO_LUMO_gap": 0.19215, 
			 "cosmo_polarized_energy": -14.69, 
			 "cosmo_cavitation_energy": 30.59, 
			 "cosmo_dispersion_energy": -22.07, 
			 "cosmo_repulsion_energy": 1.77, 
			 "cosmo_total_nonelectrostatic_energy": 10.29, 
			 "SMD_solvation_energy": 6.01 
		},
		"coords": [
			{
				"x": -0.7056584601,
				"y": -1.9078609104,
				"z": 1.8511588752,
				"element": "C" 
			},
			{
				"x": -0.967056976,
				"y": -1.9626225797,
				"z": 0.4599568113,
				"element": "O" 
			},
			{
				"x": -0.2931600012,
				"y": -1.1049673016,
				"z": -0.3638556842,
				"element": "C" 
			},
			{
				"x": 0.6351930595,
				"y": -0.1642699944,
				"z": 0.0797024409,
				"element": "C" 
			},
			{
				"x": 1.2900213572,
				"y": 0.6841170987,
				"z": -0.8398369873,
				"element": "C" 
			},
			{
				"x": 2.2522010359,
				"y": 1.5701826469,
				"z": -0.3487143095,
				"element": "N" 
			},
			{
				"x": 2.6793992613,
				"y": 2.7354809016,
				"z": -1.1008941942,
				"element": "C" 
			},
			{
				"x": 1.6189348028,
				"y": 3.8487317268,
				"z": -1.2729107882,
				"element": "C" 
			},
			{
				"x": 1.3386257966,
				"y": 4.679889508,
				"z": -0.0405753543,
				"element": "C" 
			},
			{
				"x": 1.4144277192,
				"y": 3.9592749217,
				"z": 1.1143475987,
				"element": "O" 
			},
			{
				"x": 1.0613946301,
				"y": 5.8575956502,
				"z": -0.036669276,
				"element": "O" 
			},
			{
				"x": 0.9834555976,
				"y": 0.5715260378,
				"z": -2.2058111162,
				"element": "C" 
			},
			{
				"x": 0.0494081913,
				"y": -0.3797277803,
				"z": -2.6285045469,
				"element": "C" 
			},
			{
				"x": -0.5949452666,
				"y": -1.2190548384,
				"z": -1.7309766362,
				"element": "C" 
			},
			{
				"x": 0.3454126432,
				"y": -2.1313785314,
				"z": 2.0769198245,
				"element": "H" 
			},
			{
				"x": -0.9602624311,
				"y": -0.9272931887,
				"z": 2.2749885368,
				"element": "H" 
			},
			{
				"x": -1.3393191639,
				"y": -2.6697481187,
				"z": 2.3084690415,
				"element": "H" 
			},
			{
				"x": 0.8780093389,
				"y": -0.0750664262,
				"z": 1.1328664637,
				"element": "H" 
			},
			{
				"x": 2.1439679438,
				"y": 1.7692342196,
				"z": 0.6367640717,
				"element": "H" 
			},
			{
				"x": 3.0086890906,
				"y": 2.4155564058,
				"z": -2.0936973608,
				"element": "H" 
			},
			{
				"x": 3.5663954447,
				"y": 3.1425699493,
				"z": -0.6050969268,
				"element": "H" 
			},
			{
				"x": 1.911183148,
				"y": 4.5521396587,
				"z": -2.057556955,
				"element": "H" 
			},
			{
				"x": 0.672546232,
				"y": 3.3918093046,
				"z": -1.5896597905,
				"element": "H" 
			},
			{
				"x": 1.2109432232,
				"y": 4.5860552155,
				"z": 1.8294339944,
				"element": "H" 
			},
			{
				"x": 1.4684524952,
				"y": 1.2044863988,
				"z": -2.9397098826,
				"element": "H" 
			},
			{
				"x": -0.1780133747,
				"y": -0.4587347917,
				"z": -3.6881731946,
				"element": "H" 
			},
			{
				"x": -1.3222453374,
				"y": -1.9569251825,
				"z": -2.0500646556,
				"element": "H" 
			}
		],
		 "valence_orbital": [ 
			{
				"type": "occ",
				"energy": -0.32343,
				"method": "rhf"
			},
			{
				"type": "occ",
				"energy": -0.28283,
				"method": "rhf"
			},
			{
				"type": "occ",
				"energy": -0.27578,
				"method": "rhf"
			},
			{
				"type": "occ",
				"energy": -0.22072,
				"method": "rhf"
			},
			{
				"type": "occ",
				"energy": -0.1912,
				"method": "rhf"
			},
			{
				"type": "unocc",
				"energy": 0.00095,
				"method": "rhf"
			},
			{
				"type": "unocc",
				"energy": 0.01516,
				"method": "rhf"
			},
			{
				"type": "unocc",
				"energy": 0.02651,
				"method": "rhf"
			},
			{
				"type": "unocc",
				"energy": 0.06486,
				"method": "rhf"
			},
			{
				"type": "unocc",
				"energy": 0.09493,
				"method": "rhf"
			}
		],
		"cosmo_sigma_profile": { 
			"-0.025": 0.0,
			"-0.024": 0.0,
			"-0.023": 0.0,
			"-0.022": 0.0,
			"-0.021": 0.0,
			"-0.02": 0.0,
			"-0.019": 0.0,
			"-0.018": 0.447892060918,
			"-0.017": 1.12876548598,
			"-0.016": 0.798138979467,
			"-0.015": 0.676070018833,
			"-0.014": 0.803520193352,
			"-0.013": 0.976852213107,
			"-0.012": 0.610526561292,
			"-0.011": 0.201462939595,
			"-0.01": 1.55192268024,
			"-0.009": 1.8676000735,
			"-0.008": 1.57937780546,
			"-0.007": 3.47313129403,
			"-0.006": 11.4230196499,
			"-0.005": 25.0665984231,
			"-0.004": 23.3127096768,
			"-0.003": 25.8026894143,
			"-0.002": 18.2281573842,
			"-0.001": 11.7874033708,
			"0.0": 12.2694419953,
			"0.001": 10.3030543773,
			"0.002": 8.09808828368,
			"0.003": 10.4842548681,
			"0.004": 10.4992945519,
			"0.005": 11.7183305815,
			"0.006": 14.0279039917,
			"0.007": 10.2555949166,
			"0.008": 4.41873738759,
			"0.009": 3.804684505,
			"0.01": 3.98290779784,
			"0.011": 5.35510945992,
			"0.012": 5.58736792856,
			"0.013": 0.968718497135,
			"0.014": 0.0,
			"0.015": 0.0,
			"0.016": 0.0,
			"0.017": 0.0,
			"0.018": 0.0,
			"0.019": 0.0,
			"0.02": 0.0,
			"0.021": 0.0,
			"0.022": 0.0,
			"0.023": 0.0,
			"0.024": 0.0,
			"0.025": 0.0
		}
	}
}
