{
	 "smiles": "BrC1=CC=C(OC2=C(Br)C=C(Br)C=C2Br)C=C1", 
	 "Tm": 408.15, 
	 "num_atms": 23, 
	 "gaussian": { 
		 "optdone": 1, 
		 "sigma_profile": "yes", 
		 "theory": "DFT", 
		 "functional": "B3LYP", 
		 "basiset": "6-31G**", 
		 "properties": { 
			 "R2extent": 14229.2821, 
			 "electric_dipole_moment_norm": 1.45848910178, 
			 "electric_quadrupole_moment_norm": 8.24065780809, 
			 "total_energy": -10821.7131525, 
			 "HOMO_LUMO_gap": 0.18471, 
			 "cosmo_polarized_energy": -6.8, 
			 "cosmo_cavitation_energy": 37.64, 
			 "cosmo_dispersion_energy": -27.68, 
			 "cosmo_repulsion_energy": 2.18, 
			 "cosmo_total_nonelectrostatic_energy": 12.15, 
			 "SMD_solvation_energy": 2.06 
		},
		"coords": [
			{
				"x": -3.4184747361,
				"y": 1.7313693554,
				"z": -4.9336146006,
				"element": "Br" 
			},
			{
				"x": -2.2813291434,
				"y": 1.3431899302,
				"z": -3.4469905819,
				"element": "C" 
			},
			{
				"x": -0.907173204,
				"y": 1.2059033551,
				"z": -3.6484147812,
				"element": "C" 
			},
			{
				"x": -0.0803603174,
				"y": 0.9234467077,
				"z": -2.5652359493,
				"element": "C" 
			},
			{
				"x": -0.6324605032,
				"y": 0.7805657595,
				"z": -1.2907944406,
				"element": "C" 
			},
			{
				"x": 0.27307947,
				"y": 0.5001853192,
				"z": -0.2788090071,
				"element": "O" 
			},
			{
				"x": -0.1590091314,
				"y": 0.3391011605,
				"z": 1.0087932356,
				"element": "C" 
			},
			{
				"x": -0.4801177376,
				"y": -0.933303153,
				"z": 1.5048867601,
				"element": "C" 
			},
			{
				"x": -0.4269417877,
				"y": -2.4345812532,
				"z": 0.343373984,
				"element": "Br" 
			},
			{
				"x": -0.8293536255,
				"y": -1.1235604688,
				"z": 2.8406028278,
				"element": "C" 
			},
			{
				"x": -0.8560605531,
				"y": -0.0217114029,
				"z": 3.6918953491,
				"element": "C" 
			},
			{
				"x": -1.3313950552,
				"y": -0.2676125727,
				"z": 5.5203133667,
				"element": "Br" 
			},
			{
				"x": -0.5375388216,
				"y": 1.2551864043,
				"z": 3.2363147218,
				"element": "C" 
			},
			{
				"x": -0.1908225729,
				"y": 1.4245186828,
				"z": 1.8971227116,
				"element": "C" 
			},
			{
				"x": 0.2591880929,
				"y": 3.1608854518,
				"z": 1.2741791465,
				"element": "Br" 
			},
			{
				"x": -2.0050332614,
				"y": 0.9175128766,
				"z": -1.0886005326,
				"element": "C" 
			},
			{
				"x": -2.8328604011,
				"y": 1.2009262583,
				"z": -2.1769250778,
				"element": "C" 
			},
			{
				"x": -0.4868333052,
				"y": 1.3183994683,
				"z": -4.6411354243,
				"element": "H" 
			},
			{
				"x": 0.9909217824,
				"y": 0.8113823435,
				"z": -2.6920291735,
				"element": "H" 
			},
			{
				"x": -1.0720619345,
				"y": -2.1132487476,
				"z": 3.2045884117,
				"element": "H" 
			},
			{
				"x": -0.5546777079,
				"y": 2.1047626608,
				"z": 3.906246989,
				"element": "H" 
			},
			{
				"x": -2.4338005274,
				"y": 0.8066116456,
				"z": -0.0992054355,
				"element": "H" 
			},
			{
				"x": -3.9013850185,
				"y": 1.3093702186,
				"z": -2.0305624996,
				"element": "H" 
			}
		],
		 "valence_orbital": [ 
			{
				"type": "occ",
				"energy": -0.28781,
				"method": "rhf"
			},
			{
				"type": "occ",
				"energy": -0.2704,
				"method": "rhf"
			},
			{
				"type": "occ",
				"energy": -0.26415,
				"method": "rhf"
			},
			{
				"type": "occ",
				"energy": -0.25846,
				"method": "rhf"
			},
			{
				"type": "occ",
				"energy": -0.23179,
				"method": "rhf"
			},
			{
				"type": "unocc",
				"energy": -0.04708,
				"method": "rhf"
			},
			{
				"type": "unocc",
				"energy": -0.04474,
				"method": "rhf"
			},
			{
				"type": "unocc",
				"energy": -0.04261,
				"method": "rhf"
			},
			{
				"type": "unocc",
				"energy": -0.02032,
				"method": "rhf"
			},
			{
				"type": "unocc",
				"energy": -0.00874,
				"method": "rhf"
			}
		],
		"cosmo_sigma_profile": { 
			"-0.025": 0.0,
			"-0.024": 0.0,
			"-0.023": 0.0,
			"-0.022": 0.0,
			"-0.021": 0.0,
			"-0.02": 0.0,
			"-0.019": 0.0,
			"-0.018": 0.0,
			"-0.017": 0.0,
			"-0.016": 0.0,
			"-0.015": 0.0,
			"-0.014": 0.0,
			"-0.013": 0.0,
			"-0.012": 0.0,
			"-0.011": 0.0,
			"-0.01": 0.0,
			"-0.009": 1.46844796148,
			"-0.008": 4.66923883638,
			"-0.007": 9.69252047252,
			"-0.006": 12.5296004751,
			"-0.005": 15.192345078,
			"-0.004": 14.7878153857,
			"-0.003": 17.3429229971,
			"-0.002": 20.7346413965,
			"-0.001": 28.1483523015,
			"0.0": 33.2067187396,
			"0.001": 28.332047548,
			"0.002": 33.6078285518,
			"0.003": 55.1250330611,
			"0.004": 28.5477864802,
			"0.005": 9.8728293672,
			"0.006": 2.25406350967,
			"0.007": 1.26080984894,
			"0.008": 0.0855546392123,
			"0.009": 0.0,
			"0.01": 0.0,
			"0.011": 0.0,
			"0.012": 0.0,
			"0.013": 0.0,
			"0.014": 0.0,
			"0.015": 0.0,
			"0.016": 0.0,
			"0.017": 0.0,
			"0.018": 0.0,
			"0.019": 0.0,
			"0.02": 0.0,
			"0.021": 0.0,
			"0.022": 0.0,
			"0.023": 0.0,
			"0.024": 0.0,
			"0.025": 0.0
		}
	}
}
