{
	 "smiles": "CC1=CC=C(NN=C2C(=O)NN=C2C(F)(F)F)C=C1", 
	 "Tm": 503.15, 
	 "num_atms": 28, 
	 "gaussian": { 
		 "optdone": 1, 
		 "sigma_profile": "yes", 
		 "theory": "DFT", 
		 "functional": "B3LYP", 
		 "basiset": "6-31G**", 
		 "properties": { 
			 "R2extent": 6569.1811, 
			 "electric_dipole_moment_norm": 3.3602393263, 
			 "electric_quadrupole_moment_norm": 14.2116839016, 
			 "total_energy": -1018.29524357, 
			 "HOMO_LUMO_gap": 0.12007, 
			 "cosmo_polarized_energy": -15.63, 
			 "cosmo_cavitation_energy": 35.08, 
			 "cosmo_dispersion_energy": -24.71, 
			 "cosmo_repulsion_energy": 1.85, 
			 "cosmo_total_nonelectrostatic_energy": 12.22, 
			 "SMD_solvation_energy": 6.44 
		},
		"coords": [
			{
				"x": 0.8706494585,
				"y": -5.0952477816,
				"z": -2.7841595953,
				"element": "C" 
			},
			{
				"x": 0.6600467919,
				"y": -3.7497956046,
				"z": -2.1323357424,
				"element": "C" 
			},
			{
				"x": 1.3960717297,
				"y": -3.3782701763,
				"z": -0.994849055,
				"element": "C" 
			},
			{
				"x": 1.2336176605,
				"y": -2.1387591692,
				"z": -0.38761355,
				"element": "C" 
			},
			{
				"x": 0.3074071563,
				"y": -1.2337054766,
				"z": -0.9223337111,
				"element": "C" 
			},
			{
				"x": 0.1000193172,
				"y": 0.035924672,
				"z": -0.3488410045,
				"element": "N" 
			},
			{
				"x": 0.7441425878,
				"y": 0.4094519958,
				"z": 0.7241784371,
				"element": "N" 
			},
			{
				"x": 0.5792839203,
				"y": 1.584234389,
				"z": 1.2738383793,
				"element": "C" 
			},
			{
				"x": 1.3224809714,
				"y": 1.9155347043,
				"z": 2.5260566147,
				"element": "C" 
			},
			{
				"x": 2.113659393,
				"y": 1.2749040919,
				"z": 3.1916705514,
				"element": "O" 
			},
			{
				"x": 0.8733613999,
				"y": 3.214226542,
				"z": 2.7951738564,
				"element": "N" 
			},
			{
				"x": -0.0015253824,
				"y": 3.7118985447,
				"z": 1.8849374196,
				"element": "N" 
			},
			{
				"x": -0.2014471748,
				"y": 2.781732234,
				"z": 0.989744158,
				"element": "C" 
			},
			{
				"x": -1.0890741126,
				"y": 3.0663311736,
				"z": -0.1759536932,
				"element": "C" 
			},
			{
				"x": -1.7167489581,
				"y": 4.2361914598,
				"z": -0.0871601261,
				"element": "F" 
			},
			{
				"x": -2.0399071227,
				"y": 2.0872562605,
				"z": -0.3070939592,
				"element": "F" 
			},
			{
				"x": -0.3902860179,
				"y": 3.0403478459,
				"z": -1.3400676705,
				"element": "F" 
			},
			{
				"x": -0.4396624021,
				"y": -1.5787412654,
				"z": -2.0529629886,
				"element": "C" 
			},
			{
				"x": -0.2590726724,
				"y": -2.8271335937,
				"z": -2.6451838534,
				"element": "C" 
			},
			{
				"x": 0.0923602878,
				"y": -5.3084077762,
				"z": -3.522031374,
				"element": "H" 
			},
			{
				"x": 0.864309087,
				"y": -5.9031982937,
				"z": -2.0447210231,
				"element": "H" 
			},
			{
				"x": 1.8371629149,
				"y": -5.1402726599,
				"z": -3.3009516028,
				"element": "H" 
			},
			{
				"x": 2.1140268198,
				"y": -4.0775945632,
				"z": -0.5737620608,
				"element": "H" 
			},
			{
				"x": 1.8044530483,
				"y": -1.8607965912,
				"z": 0.4902821119,
				"element": "H" 
			},
			{
				"x": -0.6089119078,
				"y": 0.629148193,
				"z": -0.7750909087,
				"element": "H" 
			},
			{
				"x": 1.1646999891,
				"y": 3.7928981196,
				"z": 3.5681407565,
				"element": "H" 
			},
			{
				"x": -1.1598601136,
				"y": -0.8773001534,
				"z": -2.4672370345,
				"element": "H" 
			},
			{
				"x": -0.8462566692,
				"y": -3.0856571209,
				"z": -3.5221733318,
				"element": "H" 
			}
		],
		 "valence_orbital": [ 
			{
				"type": "occ",
				"energy": -0.30501,
				"method": "rhf"
			},
			{
				"type": "occ",
				"energy": -0.26567,
				"method": "rhf"
			},
			{
				"type": "occ",
				"energy": -0.25792,
				"method": "rhf"
			},
			{
				"type": "occ",
				"energy": -0.25689,
				"method": "rhf"
			},
			{
				"type": "occ",
				"energy": -0.21645,
				"method": "rhf"
			},
			{
				"type": "unocc",
				"energy": -0.09638,
				"method": "rhf"
			},
			{
				"type": "unocc",
				"energy": -0.0165,
				"method": "rhf"
			},
			{
				"type": "unocc",
				"energy": -0.00257,
				"method": "rhf"
			},
			{
				"type": "unocc",
				"energy": 0.01812,
				"method": "rhf"
			},
			{
				"type": "unocc",
				"energy": 0.08305,
				"method": "rhf"
			}
		],
		"cosmo_sigma_profile": { 
			"-0.025": 0.0,
			"-0.024": 0.0,
			"-0.023": 0.0,
			"-0.022": 0.0,
			"-0.021": 0.0,
			"-0.02": 0.0,
			"-0.019": 0.0,
			"-0.018": 0.0,
			"-0.017": 0.661547326151,
			"-0.016": 1.70131789446,
			"-0.015": 0.908791064469,
			"-0.014": 1.22543160214,
			"-0.013": 1.61255794145,
			"-0.012": 1.87987995223,
			"-0.011": 2.08403624592,
			"-0.01": 2.11455788985,
			"-0.009": 1.71488658195,
			"-0.008": 2.9527302966,
			"-0.007": 3.4102250865,
			"-0.006": 8.19429840462,
			"-0.005": 14.0425375215,
			"-0.004": 17.5655179609,
			"-0.003": 21.4991373416,
			"-0.002": 24.722843361,
			"-0.001": 23.6631352041,
			"0.0": 25.4990731807,
			"0.001": 28.1410583961,
			"0.002": 31.4760056259,
			"0.003": 14.4665596089,
			"0.004": 14.51958824,
			"0.005": 7.14974778152,
			"0.006": 2.77468938942,
			"0.007": 2.87301199665,
			"0.008": 2.79338562025,
			"0.009": 3.43514453873,
			"0.01": 2.40080041527,
			"0.011": 3.5054945351,
			"0.012": 6.10718556856,
			"0.013": 5.42360278567,
			"0.014": 1.29142738684,
			"0.015": 0.0,
			"0.016": 0.0,
			"0.017": 0.0,
			"0.018": 0.0,
			"0.019": 0.0,
			"0.02": 0.0,
			"0.021": 0.0,
			"0.022": 0.0,
			"0.023": 0.0,
			"0.024": 0.0,
			"0.025": 0.0
		}
	}
}
