{
	 "smiles": "CC(C)(C)C1=NC=C(N=C1Cl)C(=O)NC1=CC(=CC(=C1)C(F)(F)F)C(F)(F)F", 
	 "Tm": 372.15, 
	 "num_atms": 42, 
	 "gaussian": { 
		 "optdone": 1, 
		 "sigma_profile": "yes", 
		 "theory": "DFT", 
		 "functional": "B3LYP", 
		 "basiset": "6-31G**", 
		 "properties": { 
			 "R2extent": 13300.3588, 
			 "electric_dipole_moment_norm": 1.34433296843, 
			 "electric_quadrupole_moment_norm": 14.7842952057, 
			 "total_energy": -1954.98193663, 
			 "HOMO_LUMO_gap": 0.16994, 
			 "cosmo_polarized_energy": -13.13, 
			 "cosmo_cavitation_energy": 50.9, 
			 "cosmo_dispersion_energy": -32.36, 
			 "cosmo_repulsion_energy": 2.34, 
			 "cosmo_total_nonelectrostatic_energy": 20.88, 
			 "SMD_solvation_energy": 10.04 
		},
		"coords": [
			{
				"x": 1.7873300655,
				"y": -2.691803461,
				"z": 4.274841561,
				"element": "C" 
			},
			{
				"x": 1.4035825554,
				"y": -1.3111827151,
				"z": 3.7041835161,
				"element": "C" 
			},
			{
				"x": 2.5082708912,
				"y": -0.3047964409,
				"z": 4.1126751681,
				"element": "C" 
			},
			{
				"x": 0.0415546176,
				"y": -0.9046802982,
				"z": 4.3200128874,
				"element": "C" 
			},
			{
				"x": 1.2955712363,
				"y": -1.3943443941,
				"z": 2.1715681348,
				"element": "C" 
			},
			{
				"x": 1.5534743349,
				"y": -2.5870375459,
				"z": 1.6165781149,
				"element": "N" 
			},
			{
				"x": 1.4820136995,
				"y": -2.7455944296,
				"z": 0.2939904855,
				"element": "C" 
			},
			{
				"x": 1.11581947,
				"y": -1.6910611882,
				"z": -0.539697966,
				"element": "C" 
			},
			{
				"x": 0.8568621549,
				"y": -0.4844393618,
				"z": -0.0204510915,
				"element": "N" 
			},
			{
				"x": 0.9499169689,
				"y": -0.3347729833,
				"z": 1.2841400252,
				"element": "C" 
			},
			{
				"x": 0.6072934757,
				"y": 1.3077122397,
				"z": 1.8327325998,
				"element": "Cl" 
			},
			{
				"x": 1.1118393968,
				"y": -1.8964808383,
				"z": -2.0286904279,
				"element": "C" 
			},
			{
				"x": 1.7831614336,
				"y": -2.7972143831,
				"z": -2.516952881,
				"element": "O" 
			},
			{
				"x": 0.4149345503,
				"y": -1.0264644739,
				"z": -2.8430076512,
				"element": "N" 
			},
			{
				"x": -0.66437206,
				"y": -0.1499729109,
				"z": -2.5853749133,
				"element": "C" 
			},
			{
				"x": -0.7388621821,
				"y": 1.0455573782,
				"z": -3.306959549,
				"element": "C" 
			},
			{
				"x": -1.8157090783,
				"y": 1.9115600392,
				"z": -3.1168741519,
				"element": "C" 
			},
			{
				"x": -2.8192638235,
				"y": 1.6086553581,
				"z": -2.198348739,
				"element": "C" 
			},
			{
				"x": -2.7421913849,
				"y": 0.4112604089,
				"z": -1.4854536285,
				"element": "C" 
			},
			{
				"x": -1.6867172198,
				"y": -0.4752398469,
				"z": -1.6865249406,
				"element": "C" 
			},
			{
				"x": -3.8569759446,
				"y": 0.0326860583,
				"z": -0.5434878278,
				"element": "C" 
			},
			{
				"x": -4.4268127347,
				"y": 1.119114867,
				"z": 0.0173237797,
				"element": "F" 
			},
			{
				"x": -4.8364285482,
				"y": -0.6423668569,
				"z": -1.1862427052,
				"element": "F" 
			},
			{
				"x": -3.418850191,
				"y": -0.7643463641,
				"z": 0.4553724989,
				"element": "F" 
			},
			{
				"x": -1.9102353785,
				"y": 3.1678575918,
				"z": -3.944905239,
				"element": "C" 
			},
			{
				"x": -2.5482679203,
				"y": 2.9362441175,
				"z": -5.114596658,
				"element": "F" 
			},
			{
				"x": -0.6896060261,
				"y": 3.6569392315,
				"z": -4.2524306217,
				"element": "F" 
			},
			{
				"x": -2.5935991595,
				"y": 4.1389401764,
				"z": -3.3052222233,
				"element": "F" 
			},
			{
				"x": 2.7491056974,
				"y": -3.0372174896,
				"z": 3.8887845504,
				"element": "H" 
			},
			{
				"x": 1.0431379294,
				"y": -3.4530782892,
				"z": 4.0291351012,
				"element": "H" 
			},
			{
				"x": 1.8577517426,
				"y": -2.6146748714,
				"z": 5.3645610464,
				"element": "H" 
			},
			{
				"x": 2.6032897843,
				"y": -0.30026388,
				"z": 5.2034576579,
				"element": "H" 
			},
			{
				"x": 2.2919389264,
				"y": 0.714789441,
				"z": 3.7917225399,
				"element": "H" 
			},
			{
				"x": 3.4764609691,
				"y": -0.6001044943,
				"z": 3.6949840685,
				"element": "H" 
			},
			{
				"x": -0.7378560249,
				"y": -1.624713647,
				"z": 4.0495821118,
				"element": "H" 
			},
			{
				"x": -0.2851235234,
				"y": 0.0880487191,
				"z": 4.0084902147,
				"element": "H" 
			},
			{
				"x": 0.1283263624,
				"y": -0.9020636094,
				"z": 5.4114681503,
				"element": "H" 
			},
			{
				"x": 1.7196505796,
				"y": -3.722055753,
				"z": -0.1163701695,
				"element": "H" 
			},
			{
				"x": 0.6499316429,
				"y": -1.1758763384,
				"z": -3.8175283993,
				"element": "H" 
			},
			{
				"x": 0.0549814138,
				"y": 1.3095860448,
				"z": -3.9974035349,
				"element": "H" 
			},
			{
				"x": -3.6399471825,
				"y": 2.2955848325,
				"z": -2.0331340396,
				"element": "H" 
			},
			{
				"x": -1.6590815159,
				"y": -1.4113896396,
				"z": -1.1428468543,
				"element": "H" 
			}
		],
		 "valence_orbital": [ 
			{
				"type": "occ",
				"energy": -0.29398,
				"method": "rhf"
			},
			{
				"type": "occ",
				"energy": -0.29065,
				"method": "rhf"
			},
			{
				"type": "occ",
				"energy": -0.27542,
				"method": "rhf"
			},
			{
				"type": "occ",
				"energy": -0.266,
				"method": "rhf"
			},
			{
				"type": "occ",
				"energy": -0.25497,
				"method": "rhf"
			},
			{
				"type": "unocc",
				"energy": -0.08503,
				"method": "rhf"
			},
			{
				"type": "unocc",
				"energy": -0.06328,
				"method": "rhf"
			},
			{
				"type": "unocc",
				"energy": -0.04984,
				"method": "rhf"
			},
			{
				"type": "unocc",
				"energy": -0.03921,
				"method": "rhf"
			},
			{
				"type": "unocc",
				"energy": 0.01685,
				"method": "rhf"
			}
		],
		"cosmo_sigma_profile": { 
			"-0.025": 0.0,
			"-0.024": 0.0,
			"-0.023": 0.0,
			"-0.022": 0.0,
			"-0.021": 0.0,
			"-0.02": 0.0,
			"-0.019": 0.0,
			"-0.018": 0.0,
			"-0.017": 0.0,
			"-0.016": 0.251767631348,
			"-0.015": 1.50276764509,
			"-0.014": 0.597373358522,
			"-0.013": 0.907614342904,
			"-0.012": 1.63035065788,
			"-0.011": 1.19951257593,
			"-0.01": 1.61315858543,
			"-0.009": 3.52368184099,
			"-0.008": 5.50970871575,
			"-0.007": 5.61785424995,
			"-0.006": 9.43531371091,
			"-0.005": 9.1319390632,
			"-0.004": 16.3171474738,
			"-0.003": 35.5889615137,
			"-0.002": 33.7882862438,
			"-0.001": 42.884247762,
			"0.0": 52.9236611044,
			"0.001": 44.2039073206,
			"0.002": 52.6668505377,
			"0.003": 49.3070346164,
			"0.004": 7.99702355369,
			"0.005": 4.80921932534,
			"0.006": 4.4133145887,
			"0.007": 4.08587562389,
			"0.008": 3.62028438495,
			"0.009": 2.94141981513,
			"0.01": 2.62177331631,
			"0.011": 3.45726363398,
			"0.012": 4.72397988372,
			"0.013": 0.814681158013,
			"0.014": 0.0,
			"0.015": 0.0,
			"0.016": 0.0,
			"0.017": 0.0,
			"0.018": 0.0,
			"0.019": 0.0,
			"0.02": 0.0,
			"0.021": 0.0,
			"0.022": 0.0,
			"0.023": 0.0,
			"0.024": 0.0,
			"0.025": 0.0
		}
	}
}
