{
	 "smiles": "CC(=O)SC(C(O)=O)C1=CC=CC=C1", 
	 "Tm": 353.15, 
	 "num_atms": 24, 
	 "gaussian": { 
		 "optdone": 1, 
		 "sigma_profile": "yes", 
		 "theory": "DFT", 
		 "functional": "B3LYP", 
		 "basiset": "6-31G**", 
		 "properties": { 
			 "R2extent": 3242.3945, 
			 "electric_dipole_moment_norm": 5.7831365417, 
			 "electric_quadrupole_moment_norm": 11.1129819733, 
			 "total_energy": -1010.96512869, 
			 "HOMO_LUMO_gap": 0.20053, 
			 "cosmo_polarized_energy": -13.56, 
			 "cosmo_cavitation_energy": 29.39, 
			 "cosmo_dispersion_energy": -21.24, 
			 "cosmo_repulsion_energy": 1.64, 
			 "cosmo_total_nonelectrostatic_energy": 9.79, 
			 "SMD_solvation_energy": 6.4 
		},
		"coords": [
			{
				"x": 3.1943796441,
				"y": 1.6269991086,
				"z": 1.4638802957,
				"element": "C" 
			},
			{
				"x": 1.9809968973,
				"y": 1.4830874584,
				"z": 0.5749181739,
				"element": "C" 
			},
			{
				"x": 1.9726443352,
				"y": 1.8663400089,
				"z": -0.5859796678,
				"element": "O" 
			},
			{
				"x": 0.5951014951,
				"y": 0.6930326498,
				"z": 1.371276403,
				"element": "S" 
			},
			{
				"x": -0.5519137196,
				"y": 0.2110741229,
				"z": -0.0357133409,
				"element": "C" 
			},
			{
				"x": -1.306235442,
				"y": 1.403561565,
				"z": -0.6596236155,
				"element": "C" 
			},
			{
				"x": -0.5770401862,
				"y": 2.3695935837,
				"z": -1.231301759,
				"element": "O" 
			},
			{
				"x": -2.5135374038,
				"y": 1.4354152145,
				"z": -0.6441740576,
				"element": "O" 
			},
			{
				"x": 0.0868165547,
				"y": -0.7613533147,
				"z": -1.0155944303,
				"element": "C" 
			},
			{
				"x": 0.3875226472,
				"y": -0.4210712551,
				"z": -2.3405072088,
				"element": "C" 
			},
			{
				"x": 0.9400876509,
				"y": -1.3691906518,
				"z": -3.2049093408,
				"element": "C" 
			},
			{
				"x": 1.2023092439,
				"y": -2.6635390354,
				"z": -2.7598639499,
				"element": "C" 
			},
			{
				"x": 0.9011004336,
				"y": -3.0130743276,
				"z": -1.4406766096,
				"element": "C" 
			},
			{
				"x": 0.3453859583,
				"y": -2.0708595724,
				"z": -0.5795561345,
				"element": "C" 
			},
			{
				"x": 3.848439116,
				"y": 0.7633724547,
				"z": 1.2982619777,
				"element": "H" 
			},
			{
				"x": 3.7364742691,
				"y": 2.5316036197,
				"z": 1.1807311386,
				"element": "H" 
			},
			{
				"x": 2.9308933979,
				"y": 1.6559122163,
				"z": 2.5237087661,
				"element": "H" 
			},
			{
				"x": -1.3210439157,
				"y": -0.3193970351,
				"z": 0.5300290098,
				"element": "H" 
			},
			{
				"x": 0.38936154,
				"y": 2.2016074167,
				"z": -1.119229953,
				"element": "H" 
			},
			{
				"x": 0.1822194475,
				"y": 0.5767331869,
				"z": -2.71006226,
				"element": "H" 
			},
			{
				"x": 1.1633394107,
				"y": -1.0887645965,
				"z": -4.2300115481,
				"element": "H" 
			},
			{
				"x": 1.6320790901,
				"y": -3.3977410609,
				"z": -3.4348983146,
				"element": "H" 
			},
			{
				"x": 1.0914816046,
				"y": -4.0216292372,
				"z": -1.0853597496,
				"element": "H" 
			},
			{
				"x": 0.1100379314,
				"y": -2.3502125192,
				"z": 0.4442561751,
				"element": "H" 
			}
		],
		 "valence_orbital": [ 
			{
				"type": "occ",
				"energy": -0.29596,
				"method": "rhf"
			},
			{
				"type": "occ",
				"energy": -0.28884,
				"method": "rhf"
			},
			{
				"type": "occ",
				"energy": -0.2643,
				"method": "rhf"
			},
			{
				"type": "occ",
				"energy": -0.25847,
				"method": "rhf"
			},
			{
				"type": "occ",
				"energy": -0.25381,
				"method": "rhf"
			},
			{
				"type": "unocc",
				"energy": -0.05328,
				"method": "rhf"
			},
			{
				"type": "unocc",
				"energy": -0.0363,
				"method": "rhf"
			},
			{
				"type": "unocc",
				"energy": -0.01245,
				"method": "rhf"
			},
			{
				"type": "unocc",
				"energy": 0.00428,
				"method": "rhf"
			},
			{
				"type": "unocc",
				"energy": 0.02957,
				"method": "rhf"
			}
		],
		"cosmo_sigma_profile": { 
			"-0.025": 0.0,
			"-0.024": 0.0,
			"-0.023": 0.0,
			"-0.022": 0.0,
			"-0.021": 0.0,
			"-0.02": 0.0,
			"-0.019": 0.0,
			"-0.018": 0.0,
			"-0.017": 0.0,
			"-0.016": 0.0,
			"-0.015": 0.0,
			"-0.014": 0.0,
			"-0.013": 0.0,
			"-0.012": 0.0,
			"-0.011": 0.0,
			"-0.01": 0.470983243032,
			"-0.009": 2.44254814229,
			"-0.008": 3.88956784333,
			"-0.007": 8.55095027183,
			"-0.006": 17.8519313233,
			"-0.005": 20.69888517,
			"-0.004": 22.7508324455,
			"-0.003": 19.0421379746,
			"-0.002": 15.1308604324,
			"-0.001": 13.5670218516,
			"0.0": 11.4654845417,
			"0.001": 11.6188669734,
			"0.002": 14.7907253554,
			"0.003": 14.1321986285,
			"0.004": 14.3076919154,
			"0.005": 11.7615744596,
			"0.006": 4.56136377415,
			"0.007": 3.4521817795,
			"0.008": 4.10546854234,
			"0.009": 4.54967122345,
			"0.01": 5.89897088764,
			"0.011": 6.43061770991,
			"0.012": 4.22410356899,
			"0.013": 0.834786427228,
			"0.014": 0.0,
			"0.015": 0.0,
			"0.016": 0.0,
			"0.017": 0.0,
			"0.018": 0.0,
			"0.019": 0.0,
			"0.02": 0.0,
			"0.021": 0.0,
			"0.022": 0.0,
			"0.023": 0.0,
			"0.024": 0.0,
			"0.025": 0.0
		}
	}
}
