{
	 "smiles": "CCOC(=O)C1=C(N)N(C)N=C1", 
	 "Tm": 375.15, 
	 "num_atms": 23, 
	 "gaussian": { 
		 "optdone": 1, 
		 "sigma_profile": "yes", 
		 "theory": "DFT", 
		 "functional": "B3LYP", 
		 "basiset": "6-31G**", 
		 "properties": { 
			 "R2extent": 2733.7854, 
			 "electric_dipole_moment_norm": 2.05801669818, 
			 "electric_quadrupole_moment_norm": 19.9958480078, 
			 "total_energy": -588.083473563, 
			 "HOMO_LUMO_gap": 0.20803, 
			 "cosmo_polarized_energy": -12.94, 
			 "cosmo_cavitation_energy": 26.9, 
			 "cosmo_dispersion_energy": -19.8, 
			 "cosmo_repulsion_energy": 1.61, 
			 "cosmo_total_nonelectrostatic_energy": 8.71, 
			 "SMD_solvation_energy": 4.86 
		},
		"coords": [
			{
				"x": 2.5396232879,
				"y": 1.5807394641,
				"z": -1.9901188354,
				"element": "C" 
			},
			{
				"x": 1.017814683,
				"y": 1.5883956847,
				"z": -1.9920238676,
				"element": "C" 
			},
			{
				"x": 0.4833348648,
				"y": 0.4209982188,
				"z": -1.3286003028,
				"element": "O" 
			},
			{
				"x": 0.3539892438,
				"y": 0.4939959508,
				"z": 0.0169983904,
				"element": "C" 
			},
			{
				"x": 0.6565532194,
				"y": 1.4921147387,
				"z": 0.6696337118,
				"element": "O" 
			},
			{
				"x": -0.186901452,
				"y": -0.7168702713,
				"z": 0.5970927994,
				"element": "C" 
			},
			{
				"x": -0.4369168513,
				"y": -0.8708696117,
				"z": 1.9695181566,
				"element": "C" 
			},
			{
				"x": -0.1508911762,
				"y": -0.0124499237,
				"z": 3.0039672397,
				"element": "N" 
			},
			{
				"x": -0.9651990819,
				"y": -2.1065927202,
				"z": 2.1280753967,
				"element": "N" 
			},
			{
				"x": -1.3838046584,
				"y": -2.7344655117,
				"z": 3.362579331,
				"element": "C" 
			},
			{
				"x": -1.094514339,
				"y": -2.7791472969,
				"z": 0.9300528901,
				"element": "N" 
			},
			{
				"x": -0.6199925682,
				"y": -1.9435894968,
				"z": 0.0248012249,
				"element": "C" 
			},
			{
				"x": 2.917681252,
				"y": 2.4320611574,
				"z": -2.5663856092,
				"element": "H" 
			},
			{
				"x": 2.9207452934,
				"y": 1.6604739053,
				"z": -0.9691952292,
				"element": "H" 
			},
			{
				"x": 2.9249249409,
				"y": 0.6616402596,
				"z": -2.441475108,
				"element": "H" 
			},
			{
				"x": 0.629274357,
				"y": 2.4843931577,
				"z": -1.5021754898,
				"element": "H" 
			},
			{
				"x": 0.619499978,
				"y": 1.5291840515,
				"z": -3.0080655776,
				"element": "H" 
			},
			{
				"x": -0.8324669032,
				"y": 0.0424744567,
				"z": 3.7489651615,
				"element": "H" 
			},
			{
				"x": 0.1503170087,
				"y": 0.8906010089,
				"z": 2.6454395749,
				"element": "H" 
			},
			{
				"x": -1.4352237315,
				"y": -3.8080150662,
				"z": 3.1830952099,
				"element": "H" 
			},
			{
				"x": -2.3707998314,
				"y": -2.382057737,
				"z": 3.6866375076,
				"element": "H" 
			},
			{
				"x": -0.6514112688,
				"y": -2.5306184295,
				"z": 4.1496229825,
				"element": "H" 
			},
			{
				"x": -0.5961362671,
				"y": -2.2286959894,
				"z": -1.0179395573,
				"element": "H" 
			}
		],
		 "valence_orbital": [ 
			{
				"type": "occ",
				"energy": -0.29149,
				"method": "rhf"
			},
			{
				"type": "occ",
				"energy": -0.28796,
				"method": "rhf"
			},
			{
				"type": "occ",
				"energy": -0.26522,
				"method": "rhf"
			},
			{
				"type": "occ",
				"energy": -0.24888,
				"method": "rhf"
			},
			{
				"type": "occ",
				"energy": -0.21274,
				"method": "rhf"
			},
			{
				"type": "unocc",
				"energy": -0.00471,
				"method": "rhf"
			},
			{
				"type": "unocc",
				"energy": 0.0311,
				"method": "rhf"
			},
			{
				"type": "unocc",
				"energy": 0.07205,
				"method": "rhf"
			},
			{
				"type": "unocc",
				"energy": 0.11311,
				"method": "rhf"
			},
			{
				"type": "unocc",
				"energy": 0.12159,
				"method": "rhf"
			}
		],
		"cosmo_sigma_profile": { 
			"-0.025": 0.0,
			"-0.024": 0.0,
			"-0.023": 0.0,
			"-0.022": 0.0,
			"-0.021": 0.0,
			"-0.02": 0.0,
			"-0.019": 0.0,
			"-0.018": 0.0,
			"-0.017": 0.0,
			"-0.016": 0.0,
			"-0.015": 0.000337495356973,
			"-0.014": 0.842300332344,
			"-0.013": 1.44714738022,
			"-0.012": 0.992295604502,
			"-0.011": 2.0968014074,
			"-0.01": 2.49736719444,
			"-0.009": 1.95834663129,
			"-0.008": 2.18778591009,
			"-0.007": 4.97327180864,
			"-0.006": 9.80347533829,
			"-0.005": 12.5170765713,
			"-0.004": 17.320619803,
			"-0.003": 20.671207527,
			"-0.002": 15.755638608,
			"-0.001": 15.3336540541,
			"0.0": 16.7109724226,
			"0.001": 13.8526343706,
			"0.002": 12.214168991,
			"0.003": 11.5456320031,
			"0.004": 9.63577588256,
			"0.005": 6.96763845213,
			"0.006": 4.71717723477,
			"0.007": 5.93771989698,
			"0.008": 4.67572956089,
			"0.009": 2.85129083203,
			"0.01": 3.53862192811,
			"0.011": 3.65793621182,
			"0.012": 3.78154586297,
			"0.013": 1.92940697692,
			"0.014": 1.09772379681,
			"0.015": 0.69165237519,
			"0.016": 0.488069857555,
			"0.017": 0.0,
			"0.018": 0.0,
			"0.019": 0.0,
			"0.02": 0.0,
			"0.021": 0.0,
			"0.022": 0.0,
			"0.023": 0.0,
			"0.024": 0.0,
			"0.025": 0.0
		}
	}
}
