{
	 "smiles": "CC(C(O)=O)C1=CC(Cl)=CC=C1", 
	 "Tm": 349.15, 
	 "num_atms": 21, 
	 "gaussian": { 
		 "optdone": 1, 
		 "sigma_profile": "yes", 
		 "theory": "DFT", 
		 "functional": "B3LYP", 
		 "basiset": "6-31G**", 
		 "properties": { 
			 "R2extent": 2798.8262, 
			 "electric_dipole_moment_norm": 2.98175368869, 
			 "electric_quadrupole_moment_norm": 3.28600109251, 
			 "total_energy": -959.045152137, 
			 "HOMO_LUMO_gap": 0.22478, 
			 "cosmo_polarized_energy": -10.03, 
			 "cosmo_cavitation_energy": 27.08, 
			 "cosmo_dispersion_energy": -19.28, 
			 "cosmo_repulsion_energy": 1.57, 
			 "cosmo_total_nonelectrostatic_energy": 9.37, 
			 "SMD_solvation_energy": 5.53 
		},
		"coords": [
			{
				"x": 1.7251114239,
				"y": -0.7188472863,
				"z": -2.922328804,
				"element": "C" 
			},
			{
				"x": 0.2330249823,
				"y": -0.7154979845,
				"z": -2.5469243113,
				"element": "C" 
			},
			{
				"x": -0.4004529338,
				"y": 0.6223960986,
				"z": -2.9082248037,
				"element": "C" 
			},
			{
				"x": -1.6839794691,
				"y": 0.4820327909,
				"z": -3.3103253735,
				"element": "O" 
			},
			{
				"x": 0.1469547299,
				"y": 1.701489968,
				"z": -2.8305049574,
				"element": "O" 
			},
			{
				"x": 0.0133170921,
				"y": -0.9996462674,
				"z": -1.0615068899,
				"element": "C" 
			},
			{
				"x": 0.3912853962,
				"y": -0.0566516323,
				"z": -0.0954302306,
				"element": "C" 
			},
			{
				"x": 0.2180154977,
				"y": -0.3507216581,
				"z": 1.2547633745,
				"element": "C" 
			},
			{
				"x": 0.6930396359,
				"y": 0.8409740517,
				"z": 2.4590830847,
				"element": "Cl" 
			},
			{
				"x": -0.3245365658,
				"y": -1.5647264087,
				"z": 1.6759586068,
				"element": "C" 
			},
			{
				"x": -0.701331603,
				"y": -2.4967802664,
				"z": 0.709582256,
				"element": "C" 
			},
			{
				"x": -0.5370947623,
				"y": -2.2177664371,
				"z": -0.6478590594,
				"element": "C" 
			},
			{
				"x": 1.8557113614,
				"y": -0.5826154017,
				"z": -4.000305775,
				"element": "H" 
			},
			{
				"x": 2.2506268924,
				"y": 0.0929005285,
				"z": -2.4146879571,
				"element": "H" 
			},
			{
				"x": 2.1830324469,
				"y": -1.6687668379,
				"z": -2.6340985614,
				"element": "H" 
			},
			{
				"x": -0.2929858635,
				"y": -1.4881348045,
				"z": -3.1156198152,
				"element": "H" 
			},
			{
				"x": -2.0168066867,
				"y": 1.3806347898,
				"z": -3.4768936092,
				"element": "H" 
			},
			{
				"x": 0.8042810496,
				"y": 0.9004192257,
				"z": -0.3952132713,
				"element": "H" 
			},
			{
				"x": -0.4490928798,
				"y": -1.769610052,
				"z": 2.7332681325,
				"element": "H" 
			},
			{
				"x": -1.1284991546,
				"y": -3.445851071,
				"z": 1.0197450636,
				"element": "H" 
			},
			{
				"x": -0.8374205899,
				"y": -2.9512313454,
				"z": -1.3908770994,
				"element": "H" 
			}
		],
		 "valence_orbital": [ 
			{
				"type": "occ",
				"energy": -0.32453,
				"method": "rhf"
			},
			{
				"type": "occ",
				"energy": -0.31091,
				"method": "rhf"
			},
			{
				"type": "occ",
				"energy": -0.28244,
				"method": "rhf"
			},
			{
				"type": "occ",
				"energy": -0.25945,
				"method": "rhf"
			},
			{
				"type": "occ",
				"energy": -0.24748,
				"method": "rhf"
			},
			{
				"type": "unocc",
				"energy": -0.0227,
				"method": "rhf"
			},
			{
				"type": "unocc",
				"energy": -0.01696,
				"method": "rhf"
			},
			{
				"type": "unocc",
				"energy": 0.0105,
				"method": "rhf"
			},
			{
				"type": "unocc",
				"energy": 0.03153,
				"method": "rhf"
			},
			{
				"type": "unocc",
				"energy": 0.07488,
				"method": "rhf"
			}
		],
		"cosmo_sigma_profile": { 
			"-0.025": 0.0,
			"-0.024": 0.0,
			"-0.023": 0.0,
			"-0.022": 0.0,
			"-0.021": 0.0,
			"-0.02": 0.0,
			"-0.019": 0.0162663525778,
			"-0.018": 0.77509014608,
			"-0.017": 1.17719410029,
			"-0.016": 0.631286030029,
			"-0.015": 0.749643729079,
			"-0.014": 0.840854500096,
			"-0.013": 0.655300722303,
			"-0.012": 0.616056814776,
			"-0.011": 0.819101848624,
			"-0.01": 0.75875219901,
			"-0.009": 0.330100408646,
			"-0.008": 0.857460080492,
			"-0.007": 5.87718103601,
			"-0.006": 9.82104596918,
			"-0.005": 12.2728277254,
			"-0.004": 14.8509187873,
			"-0.003": 13.9396807872,
			"-0.002": 15.4316931327,
			"-0.001": 15.5395774288,
			"0.0": 19.212573205,
			"0.001": 16.2041825065,
			"0.002": 18.1669319832,
			"0.003": 19.8263900686,
			"0.004": 17.9650311477,
			"0.005": 9.9881042009,
			"0.006": 2.47822633142,
			"0.007": 2.76326979635,
			"0.008": 2.92437076888,
			"0.009": 2.75625030889,
			"0.01": 2.22361296036,
			"0.011": 3.35602797664,
			"0.012": 3.31674474778,
			"0.013": 0.0320524431107,
			"0.014": 0.0,
			"0.015": 0.0,
			"0.016": 0.0,
			"0.017": 0.0,
			"0.018": 0.0,
			"0.019": 0.0,
			"0.02": 0.0,
			"0.021": 0.0,
			"0.022": 0.0,
			"0.023": 0.0,
			"0.024": 0.0,
			"0.025": 0.0
		}
	}
}
