{
	 "smiles": "N#CC1=CC=CN2C=CN=C12", 
	 "Tm": 443.15, 
	 "num_atms": 16, 
	 "gaussian": { 
		 "optdone": 1, 
		 "sigma_profile": "yes", 
		 "theory": "DFT", 
		 "functional": "B3LYP", 
		 "basiset": "6-31G**", 
		 "properties": { 
			 "R2extent": 1905.8637, 
			 "electric_dipole_moment_norm": 7.18833234833, 
			 "electric_quadrupole_moment_norm": 17.7555003112, 
			 "total_energy": -472.085693179, 
			 "HOMO_LUMO_gap": 0.15738, 
			 "cosmo_polarized_energy": -16.54, 
			 "cosmo_cavitation_energy": 21.7, 
			 "cosmo_dispersion_energy": -15.66, 
			 "cosmo_repulsion_energy": 1.23, 
			 "cosmo_total_nonelectrostatic_energy": 7.27, 
			 "SMD_solvation_energy": 4.26 
		},
		"coords": [
			{
				"x": 1.6090056298,
				"y": -3.1032382073,
				"z": -2.306974828,
				"element": "N" 
			},
			{
				"x": 1.1240106317,
				"y": -2.1826149984,
				"z": -1.7880239808,
				"element": "C" 
			},
			{
				"x": 0.5735487163,
				"y": -1.0391330959,
				"z": -1.1286274567,
				"element": "C" 
			},
			{
				"x": 1.3565108451,
				"y": -0.2384177862,
				"z": -0.3151087331,
				"element": "C" 
			},
			{
				"x": 0.7966103257,
				"y": 0.8924365045,
				"z": 0.332394922,
				"element": "C" 
			},
			{
				"x": -0.5238215125,
				"y": 1.2069364555,
				"z": 0.1618045444,
				"element": "C" 
			},
			{
				"x": -1.306430207,
				"y": 0.4190167943,
				"z": -0.64240103,
				"element": "N" 
			},
			{
				"x": -2.6410225825,
				"y": 0.5032734414,
				"z": -0.9833759849,
				"element": "C" 
			},
			{
				"x": -2.8698456765,
				"y": -0.5661165148,
				"z": -1.8239968966,
				"element": "C" 
			},
			{
				"x": -1.745730208,
				"y": -1.3142986037,
				"z": -2.0253734486,
				"element": "N" 
			},
			{
				"x": -0.8037531998,
				"y": -0.7182574117,
				"z": -1.3117323849,
				"element": "C" 
			},
			{
				"x": 2.4035021449,
				"y": -0.4814454887,
				"z": -0.1752701712,
				"element": "H" 
			},
			{
				"x": 1.4106503733,
				"y": 1.5181647776,
				"z": 0.9688066636,
				"element": "H" 
			},
			{
				"x": -1.0083470735,
				"y": 2.0560310964,
				"z": 0.6286526106,
				"element": "H" 
			},
			{
				"x": -3.2778836287,
				"y": 1.2887850928,
				"z": -0.6082586089,
				"element": "H" 
			},
			{
				"x": -3.8072045782,
				"y": -0.8290220558,
				"z": -2.2959152167,
				"element": "H" 
			}
		],
		 "valence_orbital": [ 
			{
				"type": "occ",
				"energy": -0.33054,
				"method": "rhf"
			},
			{
				"type": "occ",
				"energy": -0.31622,
				"method": "rhf"
			},
			{
				"type": "occ",
				"energy": -0.2848,
				"method": "rhf"
			},
			{
				"type": "occ",
				"energy": -0.26239,
				"method": "rhf"
			},
			{
				"type": "occ",
				"energy": -0.23096,
				"method": "rhf"
			},
			{
				"type": "unocc",
				"energy": -0.07358,
				"method": "rhf"
			},
			{
				"type": "unocc",
				"energy": -0.01683,
				"method": "rhf"
			},
			{
				"type": "unocc",
				"energy": 0.03463,
				"method": "rhf"
			},
			{
				"type": "unocc",
				"energy": 0.04878,
				"method": "rhf"
			},
			{
				"type": "unocc",
				"energy": 0.05996,
				"method": "rhf"
			}
		],
		"cosmo_sigma_profile": { 
			"-0.025": 0.0,
			"-0.024": 0.0,
			"-0.023": 0.0,
			"-0.022": 0.0,
			"-0.021": 0.0,
			"-0.02": 0.0,
			"-0.019": 0.0,
			"-0.018": 0.0,
			"-0.017": 0.0,
			"-0.016": 0.0,
			"-0.015": 0.0,
			"-0.014": 0.0,
			"-0.013": 0.0,
			"-0.012": 0.0810799967286,
			"-0.011": 1.68957305096,
			"-0.01": 4.09142046997,
			"-0.009": 6.11533489483,
			"-0.008": 9.07814140562,
			"-0.007": 10.1672604641,
			"-0.006": 7.68411467652,
			"-0.005": 7.43628424191,
			"-0.004": 7.64707789193,
			"-0.003": 9.09044735461,
			"-0.002": 13.1779207373,
			"-0.001": 15.3814518166,
			"0.0": 13.2252453463,
			"0.001": 11.1578409749,
			"0.002": 7.13301878259,
			"0.003": 7.18385840637,
			"0.004": 5.57904894511,
			"0.005": 3.99587068841,
			"0.006": 5.51967206977,
			"0.007": 4.89759432253,
			"0.008": 5.26022949446,
			"0.009": 5.11843577045,
			"0.01": 4.24981447064,
			"0.011": 3.93676321488,
			"0.012": 3.35999200287,
			"0.013": 1.86401893304,
			"0.014": 0.824852620949,
			"0.015": 1.23631044729,
			"0.016": 0.789258419016,
			"0.017": 0.101150662377,
			"0.018": 0.0,
			"0.019": 0.0,
			"0.02": 0.0,
			"0.021": 0.0,
			"0.022": 0.0,
			"0.023": 0.0,
			"0.024": 0.0,
			"0.025": 0.0
		}
	}
}
