{
	 "smiles": "[O-][N+](=O)C1=CN=C(NC2=NCCN2)S1", 
	 "Tm": 523.15, 
	 "num_atms": 21, 
	 "gaussian": { 
		 "optdone": 1, 
		 "sigma_profile": "yes", 
		 "theory": "DFT", 
		 "functional": "B3LYP", 
		 "basiset": "6-31G**", 
		 "properties": { 
			 "R2extent": 5492.6725, 
			 "electric_dipole_moment_norm": 8.66922464468, 
			 "electric_quadrupole_moment_norm": 24.7268083145, 
			 "total_energy": -1055.12768643, 
			 "HOMO_LUMO_gap": 0.15185, 
			 "cosmo_polarized_energy": -19.81, 
			 "cosmo_cavitation_energy": 27.74, 
			 "cosmo_dispersion_energy": -21.5, 
			 "cosmo_repulsion_energy": 1.67, 
			 "cosmo_total_nonelectrostatic_energy": 7.91, 
			 "SMD_solvation_energy": 1.88 
		},
		"coords": [
			{
				"x": 0.8597763771,
				"y": 0.2554918281,
				"z": 5.9825438579,
				"element": "O" 
			},
			{
				"x": 1.005022526,
				"y": -0.0072398505,
				"z": 4.7849188979,
				"element": "N" 
			},
			{
				"x": 2.0773573031,
				"y": -0.3044093876,
				"z": 4.2431429323,
				"element": "O" 
			},
			{
				"x": -0.1502866774,
				"y": 0.0328595194,
				"z": 3.9547275921,
				"element": "C" 
			},
			{
				"x": -1.4289443494,
				"y": 0.3357238327,
				"z": 4.3396526858,
				"element": "C" 
			},
			{
				"x": -2.3542469653,
				"y": 0.298591193,
				"z": 3.3429360222,
				"element": "N" 
			},
			{
				"x": -1.7771199067,
				"y": -0.03063548,
				"z": 2.2027997368,
				"element": "C" 
			},
			{
				"x": -2.5388232139,
				"y": -0.1339963058,
				"z": 1.0655965876,
				"element": "N" 
			},
			{
				"x": -2.0661118174,
				"y": -0.4472666635,
				"z": -0.1942342959,
				"element": "C" 
			},
			{
				"x": -0.8297506291,
				"y": -0.66596339,
				"z": -0.4492535235,
				"element": "N" 
			},
			{
				"x": -0.7539342873,
				"y": -0.9205385585,
				"z": -1.8951719161,
				"element": "C" 
			},
			{
				"x": -2.2260475035,
				"y": -1.1009686532,
				"z": -2.3686118123,
				"element": "C" 
			},
			{
				"x": -2.9734561994,
				"y": -0.481104286,
				"z": -1.2541546657,
				"element": "N" 
			},
			{
				"x": -0.0476181829,
				"y": -0.3193731564,
				"z": 2.2399909087,
				"element": "S" 
			},
			{
				"x": -1.7180177758,
				"y": 0.588971377,
				"z": 5.3516449417,
				"element": "H" 
			},
			{
				"x": -3.5044996024,
				"y": 0.1396105802,
				"z": 1.1887851919,
				"element": "H" 
			},
			{
				"x": -0.1362498331,
				"y": -1.7985855859,
				"z": -2.1055094879,
				"element": "H" 
			},
			{
				"x": -0.2818549722,
				"y": -0.0616019534,
				"z": -2.3886649082,
				"element": "H" 
			},
			{
				"x": -2.4375559483,
				"y": -0.5936222054,
				"z": -3.3131662262,
				"element": "H" 
			},
			{
				"x": -2.4869777651,
				"y": -2.1619091786,
				"z": -2.4766258599,
				"element": "H" 
			},
			{
				"x": -3.8867605771,
				"y": -0.8737336757,
				"z": -1.0559466591,
				"element": "H" 
			}
		],
		 "valence_orbital": [ 
			{
				"type": "occ",
				"energy": -0.29275,
				"method": "rhf"
			},
			{
				"type": "occ",
				"energy": -0.28576,
				"method": "rhf"
			},
			{
				"type": "occ",
				"energy": -0.278,
				"method": "rhf"
			},
			{
				"type": "occ",
				"energy": -0.25083,
				"method": "rhf"
			},
			{
				"type": "occ",
				"energy": -0.23583,
				"method": "rhf"
			},
			{
				"type": "unocc",
				"energy": -0.08398,
				"method": "rhf"
			},
			{
				"type": "unocc",
				"energy": -0.01438,
				"method": "rhf"
			},
			{
				"type": "unocc",
				"energy": 0.01595,
				"method": "rhf"
			},
			{
				"type": "unocc",
				"energy": 0.03434,
				"method": "rhf"
			},
			{
				"type": "unocc",
				"energy": 0.04311,
				"method": "rhf"
			}
		],
		"cosmo_sigma_profile": { 
			"-0.025": 0.0,
			"-0.024": 0.0,
			"-0.023": 0.0,
			"-0.022": 0.0,
			"-0.021": 0.0,
			"-0.02": 0.0,
			"-0.019": 0.0,
			"-0.018": 0.723357849577,
			"-0.017": 1.57143384196,
			"-0.016": 1.53916423448,
			"-0.015": 1.90712644636,
			"-0.014": 2.17222667582,
			"-0.013": 1.8835706969,
			"-0.012": 2.05087692916,
			"-0.011": 1.86728806987,
			"-0.01": 2.26871743872,
			"-0.009": 2.97655795073,
			"-0.008": 2.48696249402,
			"-0.007": 3.33850768334,
			"-0.006": 3.22767513963,
			"-0.005": 11.7494032369,
			"-0.004": 17.8022107855,
			"-0.003": 20.5113710808,
			"-0.002": 22.7407445446,
			"-0.001": 15.5582009805,
			"0.0": 11.0931092272,
			"0.001": 11.7289781237,
			"0.002": 10.664084004,
			"0.003": 7.01448211631,
			"0.004": 7.92567794462,
			"0.005": 6.96331238976,
			"0.006": 6.90273284625,
			"0.007": 8.22522674821,
			"0.008": 13.7898017457,
			"0.009": 9.01641616625,
			"0.01": 7.79908564914,
			"0.011": 3.74111290148,
			"0.012": 1.45414237248,
			"0.013": 0.574570430656,
			"0.014": 0.0582130052743,
			"0.015": 0.0,
			"0.016": 0.0,
			"0.017": 0.0,
			"0.018": 0.0,
			"0.019": 0.0,
			"0.02": 0.0,
			"0.021": 0.0,
			"0.022": 0.0,
			"0.023": 0.0,
			"0.024": 0.0,
			"0.025": 0.0
		}
	}
}
