{
	 "smiles": "COP(=S)(OC)OC1=CC=C(C=C1)C#N", 
	 "Tm": 287.65, 
	 "num_atms": 25, 
	 "gaussian": { 
		 "optdone": 1, 
		 "sigma_profile": "yes", 
		 "theory": "DFT", 
		 "functional": "B3LYP", 
		 "basiset": "6-31G**", 
		 "properties": { 
			 "R2extent": 5698.2836, 
			 "electric_dipole_moment_norm": 6.89640186184, 
			 "electric_quadrupole_moment_norm": 13.5874669512, 
			 "total_energy": -1368.98307523, 
			 "HOMO_LUMO_gap": 0.19867, 
			 "cosmo_polarized_energy": -15.98, 
			 "cosmo_cavitation_energy": 34.02, 
			 "cosmo_dispersion_energy": -23.61, 
			 "cosmo_repulsion_energy": 1.8, 
			 "cosmo_total_nonelectrostatic_energy": 12.21, 
			 "SMD_solvation_energy": 8.64 
		},
		"coords": [
			{
				"x": -1.6291794818,
				"y": 2.1999503198,
				"z": 0.7531023831,
				"element": "C" 
			},
			{
				"x": -1.1216913557,
				"y": 2.5123090894,
				"z": -0.5631764679,
				"element": "O" 
			},
			{
				"x": -1.4012219339,
				"y": 1.5278233429,
				"z": -1.8156373329,
				"element": "P" 
			},
			{
				"x": -0.5985689279,
				"y": 2.1646186695,
				"z": -3.4447432534,
				"element": "S" 
			},
			{
				"x": -2.986057222,
				"y": 1.2321503941,
				"z": -1.7870426857,
				"element": "O" 
			},
			{
				"x": -3.8970138233,
				"y": 2.0492395761,
				"z": -2.5499174346,
				"element": "C" 
			},
			{
				"x": -0.9850015928,
				"y": 0.0415267192,
				"z": -1.2592340302,
				"element": "O" 
			},
			{
				"x": 0.3096796888,
				"y": -0.4155013201,
				"z": -1.0889972192,
				"element": "C" 
			},
			{
				"x": 0.4962975621,
				"y": -1.7904404664,
				"z": -1.253040413,
				"element": "C" 
			},
			{
				"x": 1.7544488208,
				"y": -2.3420176663,
				"z": -1.0493867456,
				"element": "C" 
			},
			{
				"x": 2.8349414148,
				"y": -1.5184123848,
				"z": -0.686644994,
				"element": "C" 
			},
			{
				"x": 2.6321730769,
				"y": -0.1378315391,
				"z": -0.5290520712,
				"element": "C" 
			},
			{
				"x": 1.3713395675,
				"y": 0.4176337946,
				"z": -0.724103802,
				"element": "C" 
			},
			{
				"x": 4.1342056622,
				"y": -2.085139138,
				"z": -0.4758137594,
				"element": "C" 
			},
			{
				"x": 5.1878225918,
				"y": -2.5467676765,
				"z": -0.3014729123,
				"element": "N" 
			},
			{
				"x": -1.1018514663,
				"y": 1.3379328739,
				"z": 1.1708815082,
				"element": "H" 
			},
			{
				"x": -1.4401886804,
				"y": 3.0825692942,
				"z": 1.3645452746,
				"element": "H" 
			},
			{
				"x": -2.7014447535,
				"y": 1.9929331384,
				"z": 0.715496213,
				"element": "H" 
			},
			{
				"x": -3.9267624612,
				"y": 3.068973393,
				"z": -2.154831824,
				"element": "H" 
			},
			{
				"x": -3.6033887881,
				"y": 2.0705577628,
				"z": -3.6018352162,
				"element": "H" 
			},
			{
				"x": -4.8757882827,
				"y": 1.5815022122,
				"z": -2.4405458416,
				"element": "H" 
			},
			{
				"x": -0.3494280581,
				"y": -2.405763356,
				"z": -1.5386014113,
				"element": "H" 
			},
			{
				"x": 1.9092117891,
				"y": -3.4082507132,
				"z": -1.1738947954,
				"element": "H" 
			},
			{
				"x": 3.4652881598,
				"y": 0.4982425711,
				"z": -0.2502548195,
				"element": "H" 
			},
			{
				"x": 1.2181784939,
				"y": 1.4827611093,
				"z": -0.5968983497,
				"element": "H" 
			}
		],
		 "valence_orbital": [ 
			{
				"type": "occ",
				"energy": -0.32362,
				"method": "rhf"
			},
			{
				"type": "occ",
				"energy": -0.2839,
				"method": "rhf"
			},
			{
				"type": "occ",
				"energy": -0.26309,
				"method": "rhf"
			},
			{
				"type": "occ",
				"energy": -0.2576,
				"method": "rhf"
			},
			{
				"type": "occ",
				"energy": -0.25058,
				"method": "rhf"
			},
			{
				"type": "unocc",
				"energy": -0.05191,
				"method": "rhf"
			},
			{
				"type": "unocc",
				"energy": -0.0323,
				"method": "rhf"
			},
			{
				"type": "unocc",
				"energy": 0.02489,
				"method": "rhf"
			},
			{
				"type": "unocc",
				"energy": 0.03583,
				"method": "rhf"
			},
			{
				"type": "unocc",
				"energy": 0.03761,
				"method": "rhf"
			}
		],
		"cosmo_sigma_profile": { 
			"-0.025": 0.0,
			"-0.024": 0.0,
			"-0.023": 0.0,
			"-0.022": 0.0,
			"-0.021": 0.0,
			"-0.02": 0.0,
			"-0.019": 0.0,
			"-0.018": 0.0,
			"-0.017": 0.0,
			"-0.016": 0.0,
			"-0.015": 0.0,
			"-0.014": 0.0,
			"-0.013": 0.0,
			"-0.012": 0.0,
			"-0.011": 0.0,
			"-0.01": 0.0,
			"-0.009": 1.11898096779,
			"-0.008": 7.18264183579,
			"-0.007": 13.1383628634,
			"-0.006": 20.1091687995,
			"-0.005": 22.6812599278,
			"-0.004": 26.8010016633,
			"-0.003": 16.4949115583,
			"-0.002": 15.5811633156,
			"-0.001": 18.558634036,
			"0.0": 17.0944458209,
			"0.001": 20.4312457891,
			"0.002": 14.1501789154,
			"0.003": 9.45633338026,
			"0.004": 8.91368251446,
			"0.005": 8.43944516591,
			"0.006": 10.8867417115,
			"0.007": 11.7345738908,
			"0.008": 13.059813224,
			"0.009": 7.8675854756,
			"0.01": 3.97073796437,
			"0.011": 2.92836217254,
			"0.012": 2.31231275648,
			"0.013": 1.56201934611,
			"0.014": 0.0359784892382,
			"0.015": 0.0,
			"0.016": 0.0,
			"0.017": 0.0,
			"0.018": 0.0,
			"0.019": 0.0,
			"0.02": 0.0,
			"0.021": 0.0,
			"0.022": 0.0,
			"0.023": 0.0,
			"0.024": 0.0,
			"0.025": 0.0
		}
	}
}
