{
	 "smiles": "[O-][N+](=O)C1=CC(NC(=O)CCCl)=CC=C1", 
	 "Tm": 349.15, 
	 "num_atms": 24, 
	 "gaussian": { 
		 "optdone": 1, 
		 "sigma_profile": "yes", 
		 "theory": "DFT", 
		 "functional": "B3LYP", 
		 "basiset": "6-31G**", 
		 "properties": { 
			 "R2extent": 4483.104, 
			 "electric_dipole_moment_norm": 3.21563608949, 
			 "electric_quadrupole_moment_norm": 27.3061951901, 
			 "total_energy": -1143.66122978, 
			 "HOMO_LUMO_gap": 0.15467, 
			 "cosmo_polarized_energy": -18.72, 
			 "cosmo_cavitation_energy": 30.96, 
			 "cosmo_dispersion_energy": -21.52, 
			 "cosmo_repulsion_energy": 1.71, 
			 "cosmo_total_nonelectrostatic_energy": 11.15, 
			 "SMD_solvation_energy": 7.79 
		},
		"coords": [
			{
				"x": 3.6035842735,
				"y": -3.3159562269,
				"z": 0.4325257814,
				"element": "O" 
			},
			{
				"x": 2.4034244826,
				"y": -3.0619568462,
				"z": 0.3579799146,
				"element": "N" 
			},
			{
				"x": 1.5329099686,
				"y": -3.5591014187,
				"z": 1.0715036133,
				"element": "O" 
			},
			{
				"x": 1.9752433921,
				"y": -2.0834354074,
				"z": -0.6603343987,
				"element": "C" 
			},
			{
				"x": 0.6135761894,
				"y": -1.824488915,
				"z": -0.7911079348,
				"element": "C" 
			},
			{
				"x": 0.19351489,
				"y": -0.8851807731,
				"z": -1.7398614573,
				"element": "C" 
			},
			{
				"x": -1.1690240617,
				"y": -0.5817330108,
				"z": -1.9400102492,
				"element": "N" 
			},
			{
				"x": -2.2094457767,
				"y": -0.3314509363,
				"z": -1.0509388535,
				"element": "C" 
			},
			{
				"x": -3.3402310766,
				"y": -0.1993753661,
				"z": -1.4850621961,
				"element": "O" 
			},
			{
				"x": -1.9068096657,
				"y": -0.1703094923,
				"z": 0.4378188209,
				"element": "C" 
			},
			{
				"x": -0.9443820034,
				"y": 0.9628043179,
				"z": 0.7919880497,
				"element": "C" 
			},
			{
				"x": -1.5333996037,
				"y": 2.5760091119,
				"z": 0.2049473785,
				"element": "Cl" 
			},
			{
				"x": 1.1545500793,
				"y": -0.269579554,
				"z": -2.5619251522,
				"element": "C" 
			},
			{
				"x": 2.5077623653,
				"y": -0.5745094534,
				"z": -2.4294903453,
				"element": "C" 
			},
			{
				"x": 2.9401244254,
				"y": -1.4818295069,
				"z": -1.4626340666,
				"element": "C" 
			},
			{
				"x": -0.0865687711,
				"y": -2.3754144354,
				"z": -0.1786987939,
				"element": "H" 
			},
			{
				"x": -1.476457266,
				"y": -0.4769221847,
				"z": -2.8996837377,
				"element": "H" 
			},
			{
				"x": -2.8768806147,
				"y": 0.0015590561,
				"z": 0.9070990472,
				"element": "H" 
			},
			{
				"x": -1.4970142615,
				"y": -1.0949505362,
				"z": 0.8598588794,
				"element": "H" 
			},
			{
				"x": -0.8458821708,
				"y": 1.0470129599,
				"z": 1.8748373609,
				"element": "H" 
			},
			{
				"x": 0.044809522,
				"y": 0.8222541691,
				"z": 0.3578751546,
				"element": "H" 
			},
			{
				"x": 0.8287275511,
				"y": 0.4580806665,
				"z": -3.2993698019,
				"element": "H" 
			},
			{
				"x": 3.2327603523,
				"y": -0.0885364385,
				"z": -3.074319895,
				"element": "H" 
			},
			{
				"x": 3.9848077803,
				"y": -1.7280897796,
				"z": -1.3247971185,
				"element": "H" 
			}
		],
		 "valence_orbital": [ 
			{
				"type": "occ",
				"energy": -0.30456,
				"method": "rhf"
			},
			{
				"type": "occ",
				"energy": -0.30343,
				"method": "rhf"
			},
			{
				"type": "occ",
				"energy": -0.29761,
				"method": "rhf"
			},
			{
				"type": "occ",
				"energy": -0.2699,
				"method": "rhf"
			},
			{
				"type": "occ",
				"energy": -0.25746,
				"method": "rhf"
			},
			{
				"type": "unocc",
				"energy": -0.10279,
				"method": "rhf"
			},
			{
				"type": "unocc",
				"energy": -0.04779,
				"method": "rhf"
			},
			{
				"type": "unocc",
				"energy": -0.01886,
				"method": "rhf"
			},
			{
				"type": "unocc",
				"energy": 0.00631,
				"method": "rhf"
			},
			{
				"type": "unocc",
				"energy": 0.02019,
				"method": "rhf"
			}
		],
		"cosmo_sigma_profile": { 
			"-0.025": 0.0,
			"-0.024": 0.0,
			"-0.023": 0.0,
			"-0.022": 0.0,
			"-0.021": 0.0,
			"-0.02": 0.0,
			"-0.019": 0.0,
			"-0.018": 0.0,
			"-0.017": 0.0,
			"-0.016": 0.0201613717825,
			"-0.015": 0.659052655934,
			"-0.014": 1.33442163986,
			"-0.013": 0.668660547839,
			"-0.012": 1.06685799877,
			"-0.011": 2.57115858698,
			"-0.01": 2.48111164751,
			"-0.009": 2.59858169668,
			"-0.008": 8.95111007366,
			"-0.007": 13.6015267612,
			"-0.006": 16.6859107369,
			"-0.005": 17.0126542273,
			"-0.004": 15.1335691929,
			"-0.003": 13.0452353799,
			"-0.002": 12.0284569679,
			"-0.001": 15.8059296813,
			"0.0": 16.6226421333,
			"0.001": 15.3485718395,
			"0.002": 10.9660238269,
			"0.003": 8.59931399775,
			"0.004": 6.80005952856,
			"0.005": 11.0964492597,
			"0.006": 14.9805884748,
			"0.007": 12.475360921,
			"0.008": 7.73341446989,
			"0.009": 5.38412666779,
			"0.01": 4.05598768092,
			"0.011": 2.08884417415,
			"0.012": 4.06482043272,
			"0.013": 4.64156252396,
			"0.014": 0.699445426546,
			"0.015": 0.0,
			"0.016": 0.0,
			"0.017": 0.0,
			"0.018": 0.0,
			"0.019": 0.0,
			"0.02": 0.0,
			"0.021": 0.0,
			"0.022": 0.0,
			"0.023": 0.0,
			"0.024": 0.0,
			"0.025": 0.0
		}
	}
}
