{
	 "smiles": "CC1=C2C=CNC2=CC=C1", 
	 "Tm": 278.15, 
	 "num_atms": 19, 
	 "gaussian": { 
		 "optdone": 1, 
		 "sigma_profile": "yes", 
		 "theory": "DFT", 
		 "functional": "B3LYP", 
		 "basiset": "6-31G**", 
		 "properties": { 
			 "R2extent": 1641.1982, 
			 "electric_dipole_moment_norm": 1.87706101393, 
			 "electric_quadrupole_moment_norm": 11.5802935153, 
			 "total_energy": -403.141240917, 
			 "HOMO_LUMO_gap": 0.19322, 
			 "cosmo_polarized_energy": -8.09, 
			 "cosmo_cavitation_energy": 22.0, 
			 "cosmo_dispersion_energy": -16.65, 
			 "cosmo_repulsion_energy": 1.33, 
			 "cosmo_total_nonelectrostatic_energy": 6.68, 
			 "SMD_solvation_energy": 3.81 
		},
		"coords": [
			{
				"x": -2.5598108018,
				"y": -1.6942234951,
				"z": -0.3956803818,
				"element": "C" 
			},
			{
				"x": -1.2636725988,
				"y": -1.1976723475,
				"z": 0.2026025736,
				"element": "C" 
			},
			{
				"x": -0.0230826543,
				"y": -1.4080913474,
				"z": -0.4376734212,
				"element": "C" 
			},
			{
				"x": 0.372062215,
				"y": -2.0526401385,
				"z": -1.6632892897,
				"element": "C" 
			},
			{
				"x": 1.7330031677,
				"y": -1.9410953409,
				"z": -1.7601688428,
				"element": "C" 
			},
			{
				"x": 2.2204684628,
				"y": -1.2595930403,
				"z": -0.6599649979,
				"element": "N" 
			},
			{
				"x": 1.1699879672,
				"y": -0.9192672924,
				"z": 0.1691651707,
				"element": "C" 
			},
			{
				"x": 1.1688170415,
				"y": -0.2314021423,
				"z": 1.386158643,
				"element": "C" 
			},
			{
				"x": -0.0633635974,
				"y": -0.0355063367,
				"z": 1.998882871,
				"element": "C" 
			},
			{
				"x": -1.2534061561,
				"y": -0.5104845135,
				"z": 1.4158789722,
				"element": "C" 
			},
			{
				"x": -3.0671016042,
				"y": -2.3926632014,
				"z": 0.2798868858,
				"element": "H" 
			},
			{
				"x": -2.3997201854,
				"y": -2.2110546789,
				"z": -1.3447904483,
				"element": "H" 
			},
			{
				"x": -3.2536340227,
				"y": -0.8664575793,
				"z": -0.5826668851,
				"element": "H" 
			},
			{
				"x": -0.2695341793,
				"y": -2.5384074312,
				"z": -2.3839554955,
				"element": "H" 
			},
			{
				"x": 2.4060616548,
				"y": -2.2933612868,
				"z": -2.5288538103,
				"element": "H" 
			},
			{
				"x": 3.1889369403,
				"y": -1.0448722368,
				"z": -0.4895965662,
				"element": "H" 
			},
			{
				"x": 2.0884840764,
				"y": 0.134169142,
				"z": 1.8341031981,
				"element": "H" 
			},
			{
				"x": -0.1109766637,
				"y": 0.4941630956,
				"z": 2.9460813557,
				"element": "H" 
			},
			{
				"x": -2.195819062,
				"y": -0.3351398285,
				"z": 1.9296804686,
				"element": "H" 
			}
		],
		 "valence_orbital": [ 
			{
				"type": "occ",
				"energy": -0.32444,
				"method": "rhf"
			},
			{
				"type": "occ",
				"energy": -0.31702,
				"method": "rhf"
			},
			{
				"type": "occ",
				"energy": -0.26443,
				"method": "rhf"
			},
			{
				"type": "occ",
				"energy": -0.21254,
				"method": "rhf"
			},
			{
				"type": "occ",
				"energy": -0.19326,
				"method": "rhf"
			},
			{
				"type": "unocc",
				"energy": -4e-05,
				"method": "rhf"
			},
			{
				"type": "unocc",
				"energy": 0.03353,
				"method": "rhf"
			},
			{
				"type": "unocc",
				"energy": 0.0776,
				"method": "rhf"
			},
			{
				"type": "unocc",
				"energy": 0.08257,
				"method": "rhf"
			},
			{
				"type": "unocc",
				"energy": 0.11535,
				"method": "rhf"
			}
		],
		"cosmo_sigma_profile": { 
			"-0.025": 0.0,
			"-0.024": 0.0,
			"-0.023": 0.0,
			"-0.022": 0.0,
			"-0.021": 0.0,
			"-0.02": 0.0,
			"-0.019": 0.0,
			"-0.018": 0.0,
			"-0.017": 0.0,
			"-0.016": 0.14587004463,
			"-0.015": 1.37832921537,
			"-0.014": 1.45839853017,
			"-0.013": 0.968466371961,
			"-0.012": 1.55974869711,
			"-0.011": 1.38368484029,
			"-0.01": 0.884067912684,
			"-0.009": 1.25709041102,
			"-0.008": 2.68478535687,
			"-0.007": 3.48030078038,
			"-0.006": 3.43982883769,
			"-0.005": 8.5590433653,
			"-0.004": 11.9261349505,
			"-0.003": 13.6114396815,
			"-0.002": 14.6131522304,
			"-0.001": 14.6021484426,
			"0.0": 13.8336095618,
			"0.001": 12.210298763,
			"0.002": 9.11420675002,
			"0.003": 7.22941833884,
			"0.004": 9.48459180915,
			"0.005": 11.2682914587,
			"0.006": 12.9371246956,
			"0.007": 12.3212767218,
			"0.008": 4.951162053,
			"0.009": 0.0176573686675,
			"0.01": 0.0,
			"0.011": 0.0,
			"0.012": 0.0,
			"0.013": 0.0,
			"0.014": 0.0,
			"0.015": 0.0,
			"0.016": 0.0,
			"0.017": 0.0,
			"0.018": 0.0,
			"0.019": 0.0,
			"0.02": 0.0,
			"0.021": 0.0,
			"0.022": 0.0,
			"0.023": 0.0,
			"0.024": 0.0,
			"0.025": 0.0
		}
	}
}
