{
	 "smiles": "COC1=C(O)C(=CC(C)=C1)C(O)=O", 
	 "Tm": 463.15, 
	 "num_atms": 23, 
	 "gaussian": { 
		 "optdone": 1, 
		 "sigma_profile": "yes", 
		 "theory": "DFT", 
		 "functional": "B3LYP", 
		 "basiset": "6-31G**", 
		 "properties": { 
			 "R2extent": 3863.9819, 
			 "electric_dipole_moment_norm": 7.96907812862, 
			 "electric_quadrupole_moment_norm": 30.976443972, 
			 "total_energy": -649.887900982, 
			 "HOMO_LUMO_gap": 0.18493, 
			 "cosmo_polarized_energy": -15.2, 
			 "cosmo_cavitation_energy": 26.76, 
			 "cosmo_dispersion_energy": -20.08, 
			 "cosmo_repulsion_energy": 1.59, 
			 "cosmo_total_nonelectrostatic_energy": 8.27, 
			 "SMD_solvation_energy": 6.84 
		},
		"coords": [
			{
				"x": -1.7530817832,
				"y": 0.8082798737,
				"z": -1.8829584743,
				"element": "C" 
			},
			{
				"x": -0.5135432494,
				"y": 0.116821694,
				"z": -1.962179368,
				"element": "O" 
			},
			{
				"x": 0.4851551488,
				"y": 0.4667693516,
				"z": -1.0853915966,
				"element": "C" 
			},
			{
				"x": 1.6639028364,
				"y": -0.2849694701,
				"z": -1.2599999691,
				"element": "C" 
			},
			{
				"x": 1.6880856878,
				"y": -1.242667116,
				"z": -2.2414218929,
				"element": "O" 
			},
			{
				"x": 2.7741836409,
				"y": -0.0511896481,
				"z": -0.4468258515,
				"element": "C" 
			},
			{
				"x": 2.6804927808,
				"y": 0.9469167823,
				"z": 0.5413900994,
				"element": "C" 
			},
			{
				"x": 1.5259268056,
				"y": 1.6971282196,
				"z": 0.72698273,
				"element": "C" 
			},
			{
				"x": 1.4434635015,
				"y": 2.7649637261,
				"z": 1.7926311643,
				"element": "C" 
			},
			{
				"x": 0.4158939881,
				"y": 1.4456031244,
				"z": -0.1046914675,
				"element": "C" 
			},
			{
				"x": 4.0796029527,
				"y": -0.7954159511,
				"z": -0.5487560026,
				"element": "C" 
			},
			{
				"x": 4.1857677286,
				"y": -1.7545556791,
				"z": -1.4902253214,
				"element": "O" 
			},
			{
				"x": 5.0129507937,
				"y": -0.5509108744,
				"z": 0.184770627,
				"element": "O" 
			},
			{
				"x": -2.390593695,
				"y": 0.3794910777,
				"z": -2.657015735,
				"element": "H" 
			},
			{
				"x": -1.6217838209,
				"y": 1.880583677,
				"z": -2.0715079242,
				"element": "H" 
			},
			{
				"x": -2.2242566277,
				"y": 0.6666093177,
				"z": -0.9028841567,
				"element": "H" 
			},
			{
				"x": 0.8234019589,
				"y": -1.2377289647,
				"z": -2.6821990172,
				"element": "H" 
			},
			{
				"x": 3.5575207217,
				"y": 1.1074325322,
				"z": 1.1588072637,
				"element": "H" 
			},
			{
				"x": 0.6409969988,
				"y": 2.5553826594,
				"z": 2.5096495446,
				"element": "H" 
			},
			{
				"x": 2.3797569622,
				"y": 2.8352407653,
				"z": 2.3515414369,
				"element": "H" 
			},
			{
				"x": 1.238786084,
				"y": 3.7505662568,
				"z": 1.3581694388,
				"element": "H" 
			},
			{
				"x": -0.4931138977,
				"y": 2.0230203024,
				"z": 0.0277730462,
				"element": "H" 
			},
			{
				"x": 3.3579844834,
				"y": -1.8333716567,
				"z": -1.997358574,
				"element": "H" 
			}
		],
		 "valence_orbital": [ 
			{
				"type": "occ",
				"energy": -0.32774,
				"method": "rhf"
			},
			{
				"type": "occ",
				"energy": -0.29363,
				"method": "rhf"
			},
			{
				"type": "occ",
				"energy": -0.25788,
				"method": "rhf"
			},
			{
				"type": "occ",
				"energy": -0.25221,
				"method": "rhf"
			},
			{
				"type": "occ",
				"energy": -0.22437,
				"method": "rhf"
			},
			{
				"type": "unocc",
				"energy": -0.03944,
				"method": "rhf"
			},
			{
				"type": "unocc",
				"energy": 0.00349,
				"method": "rhf"
			},
			{
				"type": "unocc",
				"energy": 0.05315,
				"method": "rhf"
			},
			{
				"type": "unocc",
				"energy": 0.06412,
				"method": "rhf"
			},
			{
				"type": "unocc",
				"energy": 0.08063,
				"method": "rhf"
			}
		],
		"cosmo_sigma_profile": { 
			"-0.025": 0.0,
			"-0.024": 0.0,
			"-0.023": 0.0,
			"-0.022": 0.0,
			"-0.021": 0.0,
			"-0.02": 0.0,
			"-0.019": 0.0,
			"-0.018": 0.0,
			"-0.017": 0.0,
			"-0.016": 0.107280878963,
			"-0.015": 0.752780405694,
			"-0.014": 0.646985367058,
			"-0.013": 0.528620024933,
			"-0.012": 0.396004439686,
			"-0.011": 0.78955341718,
			"-0.01": 0.777995746773,
			"-0.009": 1.09837232354,
			"-0.008": 1.53333296468,
			"-0.007": 4.35257052195,
			"-0.006": 11.4511135156,
			"-0.005": 14.9425161261,
			"-0.004": 21.2295304617,
			"-0.003": 18.6282779548,
			"-0.002": 16.3787719332,
			"-0.001": 15.6678264772,
			"0.0": 18.5861640702,
			"0.001": 15.5780312718,
			"0.002": 13.95534475,
			"0.003": 13.5919883298,
			"0.004": 9.70538461182,
			"0.005": 3.23951727772,
			"0.006": 2.38547880882,
			"0.007": 2.0976054681,
			"0.008": 2.56327953569,
			"0.009": 3.05697777577,
			"0.01": 3.46880409463,
			"0.011": 4.85053741853,
			"0.012": 6.17244918305,
			"0.013": 3.25659710243,
			"0.014": 0.888795224564,
			"0.015": 0.0,
			"0.016": 0.0,
			"0.017": 0.0,
			"0.018": 0.0,
			"0.019": 0.0,
			"0.02": 0.0,
			"0.021": 0.0,
			"0.022": 0.0,
			"0.023": 0.0,
			"0.024": 0.0,
			"0.025": 0.0
		}
	}
}
