{
	 "smiles": "CN1N=CN=C1C1=CC(N)=CC=C1", 
	 "Tm": 367.15, 
	 "num_atms": 23, 
	 "gaussian": { 
		 "optdone": 1, 
		 "sigma_profile": "yes", 
		 "theory": "DFT", 
		 "functional": "B3LYP", 
		 "basiset": "6-31G**", 
		 "properties": { 
			 "R2extent": 3185.9576, 
			 "electric_dipole_moment_norm": 4.34127390175, 
			 "electric_quadrupole_moment_norm": 12.4771904093, 
			 "total_energy": -567.98467454, 
			 "HOMO_LUMO_gap": 0.1803, 
			 "cosmo_polarized_energy": -15.44, 
			 "cosmo_cavitation_energy": 26.9, 
			 "cosmo_dispersion_energy": -19.82, 
			 "cosmo_repulsion_energy": 1.56, 
			 "cosmo_total_nonelectrostatic_energy": 8.64, 
			 "SMD_solvation_energy": 2.29 
		},
		"coords": [
			{
				"x": -0.3870083329,
				"y": -0.3190778057,
				"z": -2.9733042934,
				"element": "C" 
			},
			{
				"x": -0.4064713838,
				"y": 1.1235508392,
				"z": -2.7964573955,
				"element": "N" 
			},
			{
				"x": -0.7068743343,
				"y": 1.9099592039,
				"z": -3.8648012232,
				"element": "N" 
			},
			{
				"x": -0.7219876615,
				"y": 3.1219837835,
				"z": -3.3293149026,
				"element": "C" 
			},
			{
				"x": -0.4573284386,
				"y": 3.1732760256,
				"z": -2.000939,
				"element": "N" 
			},
			{
				"x": -0.2528618435,
				"y": 1.8955604997,
				"z": -1.6808950197,
				"element": "C" 
			},
			{
				"x": 0.0620460554,
				"y": 1.4185746527,
				"z": -0.3248632482,
				"element": "C" 
			},
			{
				"x": 0.9059583981,
				"y": 0.3231062348,
				"z": -0.0957993795,
				"element": "C" 
			},
			{
				"x": 1.19841907,
				"y": -0.1017775146,
				"z": 1.2105162839,
				"element": "C" 
			},
			{
				"x": 1.998980935,
				"y": -1.2257938066,
				"z": 1.4276153758,
				"element": "N" 
			},
			{
				"x": 0.6313757163,
				"y": 0.5955797252,
				"z": 2.290099272,
				"element": "C" 
			},
			{
				"x": -0.1923073651,
				"y": 1.6955977744,
				"z": 2.0597273898,
				"element": "C" 
			},
			{
				"x": -0.4814441317,
				"y": 2.1179851609,
				"z": 0.7647086739,
				"element": "C" 
			},
			{
				"x": 0.6059782684,
				"y": -0.6699389549,
				"z": -3.2733283101,
				"element": "H" 
			},
			{
				"x": -0.6770278821,
				"y": -0.8072375825,
				"z": -2.0422588364,
				"element": "H" 
			},
			{
				"x": -1.100661012,
				"y": -0.5658792236,
				"z": -3.7596407652,
				"element": "H" 
			},
			{
				"x": -0.9333716094,
				"y": 3.9994028917,
				"z": -3.9255568896,
				"element": "H" 
			},
			{
				"x": 1.3746590115,
				"y": -0.1910448339,
				"z": -0.9295197497,
				"element": "H" 
			},
			{
				"x": 2.6444370362,
				"y": -1.4435997616,
				"z": 0.6806153472,
				"element": "H" 
			},
			{
				"x": 2.4511336464,
				"y": -1.2587856601,
				"z": 2.3311325094,
				"element": "H" 
			},
			{
				"x": 0.845043476,
				"y": 0.2746472907,
				"z": 3.3065956567,
				"element": "H" 
			},
			{
				"x": -0.6134384809,
				"y": 2.2303145872,
				"z": 2.9063766274,
				"element": "H" 
			},
			{
				"x": -1.1139491374,
				"y": 2.9775964741,
				"z": 0.577991877,
				"element": "H" 
			}
		],
		 "valence_orbital": [ 
			{
				"type": "occ",
				"energy": -0.2816,
				"method": "rhf"
			},
			{
				"type": "occ",
				"energy": -0.27007,
				"method": "rhf"
			},
			{
				"type": "occ",
				"energy": -0.26414,
				"method": "rhf"
			},
			{
				"type": "occ",
				"energy": -0.23512,
				"method": "rhf"
			},
			{
				"type": "occ",
				"energy": -0.20857,
				"method": "rhf"
			},
			{
				"type": "unocc",
				"energy": -0.02827,
				"method": "rhf"
			},
			{
				"type": "unocc",
				"energy": 0.00638,
				"method": "rhf"
			},
			{
				"type": "unocc",
				"energy": 0.0383,
				"method": "rhf"
			},
			{
				"type": "unocc",
				"energy": 0.07086,
				"method": "rhf"
			},
			{
				"type": "unocc",
				"energy": 0.07174,
				"method": "rhf"
			}
		],
		"cosmo_sigma_profile": { 
			"-0.025": 0.0,
			"-0.024": 0.0,
			"-0.023": 0.0,
			"-0.022": 0.0,
			"-0.021": 0.0,
			"-0.02": 0.0,
			"-0.019": 0.0,
			"-0.018": 0.0,
			"-0.017": 0.0,
			"-0.016": 0.0,
			"-0.015": 0.0,
			"-0.014": 0.0,
			"-0.013": 0.643671473271,
			"-0.012": 2.8239922404,
			"-0.011": 2.9487854084,
			"-0.01": 3.08805755118,
			"-0.009": 3.32142264522,
			"-0.008": 5.08209196449,
			"-0.007": 8.85018544567,
			"-0.006": 13.0805804534,
			"-0.005": 16.2535085816,
			"-0.004": 16.5883993088,
			"-0.003": 15.5749292921,
			"-0.002": 9.0480798026,
			"-0.001": 10.4497172273,
			"0.0": 9.80409707023,
			"0.001": 10.7935805204,
			"0.002": 12.5268337468,
			"0.003": 10.4010772835,
			"0.004": 11.9932451916,
			"0.005": 14.6803882353,
			"0.006": 8.62422055157,
			"0.007": 4.15309539761,
			"0.008": 4.02689962015,
			"0.009": 4.03279591846,
			"0.01": 2.79922167429,
			"0.011": 3.12107205685,
			"0.012": 2.28809908813,
			"0.013": 2.34225883778,
			"0.014": 3.17829527479,
			"0.015": 1.27167410495,
			"0.016": 0.628921956698,
			"0.017": 0.281378547375,
			"0.018": 0.0,
			"0.019": 0.0,
			"0.02": 0.0,
			"0.021": 0.0,
			"0.022": 0.0,
			"0.023": 0.0,
			"0.024": 0.0,
			"0.025": 0.0
		}
	}
}
