{
	 "smiles": "OC1=CC2=C(OC(=CC2=O)C2=CC=CC=C2)C=C1", 
	 "Tm": 508.15, 
	 "num_atms": 28, 
	 "gaussian": { 
		 "optdone": 1, 
		 "sigma_profile": "yes", 
		 "theory": "DFT", 
		 "functional": "B3LYP", 
		 "basiset": "6-31G**", 
		 "properties": { 
			 "R2extent": 6354.1477, 
			 "electric_dipole_moment_norm": 3.08961008705, 
			 "electric_quadrupole_moment_norm": 17.2840914173, 
			 "total_energy": -803.29193452, 
			 "HOMO_LUMO_gap": 0.1562, 
			 "cosmo_polarized_energy": -14.96, 
			 "cosmo_cavitation_energy": 32.95, 
			 "cosmo_dispersion_energy": -24.33, 
			 "cosmo_repulsion_energy": 1.82, 
			 "cosmo_total_nonelectrostatic_energy": 10.45, 
			 "SMD_solvation_energy": 6.63 
		},
		"coords": [
			{
				"x": 0.0708982132,
				"y": 5.7151513341,
				"z": -2.6910716474,
				"element": "O" 
			},
			{
				"x": -0.1120163507,
				"y": 4.487250392,
				"z": -2.1240107482,
				"element": "C" 
			},
			{
				"x": -0.3591567267,
				"y": 3.3358632589,
				"z": -2.8604237152,
				"element": "C" 
			},
			{
				"x": -0.5369149183,
				"y": 2.1066936979,
				"z": -2.2094223361,
				"element": "C" 
			},
			{
				"x": -0.4640996672,
				"y": 2.0568157399,
				"z": -0.8141316052,
				"element": "C" 
			},
			{
				"x": -0.6245653261,
				"y": 0.8831003484,
				"z": -0.1177829822,
				"element": "O" 
			},
			{
				"x": -0.8761781081,
				"y": -0.2748812277,
				"z": -0.7880752003,
				"element": "C" 
			},
			{
				"x": -0.9794168133,
				"y": -0.3126787097,
				"z": -2.1440021155,
				"element": "C" 
			},
			{
				"x": -0.8071395945,
				"y": 0.8686789557,
				"z": -2.9771399233,
				"element": "C" 
			},
			{
				"x": -0.8852099925,
				"y": 0.8560435012,
				"z": -4.2067224591,
				"element": "O" 
			},
			{
				"x": -1.0321874964,
				"y": -1.4240723997,
				"z": 0.124670556,
				"element": "C" 
			},
			{
				"x": -0.89472613,
				"y": -2.7412666388,
				"z": -0.346192662,
				"element": "C" 
			},
			{
				"x": -1.0613069592,
				"y": -3.8213800154,
				"z": 0.5162290237,
				"element": "C" 
			},
			{
				"x": -1.3614144659,
				"y": -3.6068736397,
				"z": 1.8636588131,
				"element": "C" 
			},
			{
				"x": -1.489247551,
				"y": -2.3022013112,
				"z": 2.3432045555,
				"element": "C" 
			},
			{
				"x": -1.3238655471,
				"y": -1.2179838473,
				"z": 1.483861804,
				"element": "C" 
			},
			{
				"x": -0.21428175,
				"y": 3.2117005323,
				"z": -0.0637904735,
				"element": "C" 
			},
			{
				"x": -0.0398651089,
				"y": 4.420387896,
				"z": -0.7180895415,
				"element": "C" 
			},
			{
				"x": -0.0009381907,
				"y": 5.6335178734,
				"z": -3.6511672173,
				"element": "H" 
			},
			{
				"x": -0.4234534193,
				"y": 3.3418738968,
				"z": -3.945523502,
				"element": "H" 
			},
			{
				"x": -1.2158548861,
				"y": -1.2422009365,
				"z": -2.6455558406,
				"element": "H" 
			},
			{
				"x": -0.6353325477,
				"y": -2.9214823246,
				"z": -1.3840254503,
				"element": "H" 
			},
			{
				"x": -0.9469990408,
				"y": -4.8326006788,
				"z": 0.1372958025,
				"element": "H" 
			},
			{
				"x": -1.4889476183,
				"y": -4.4508494495,
				"z": 2.5351129941,
				"element": "H" 
			},
			{
				"x": -1.7205031878,
				"y": -2.1265549574,
				"z": 3.3896992965,
				"element": "H" 
			},
			{
				"x": -1.4266272028,
				"y": -0.2062014172,
				"z": 1.8582470038,
				"element": "H" 
			},
			{
				"x": -0.160054977,
				"y": 3.1436387811,
				"z": 1.0174854245,
				"element": "H" 
			},
			{
				"x": 0.1548053635,
				"y": 5.3319113457,
				"z": -0.1631378541,
				"element": "H" 
			}
		],
		 "valence_orbital": [ 
			{
				"type": "occ",
				"energy": -0.26418,
				"method": "rhf"
			},
			{
				"type": "occ",
				"energy": -0.2641,
				"method": "rhf"
			},
			{
				"type": "occ",
				"energy": -0.23966,
				"method": "rhf"
			},
			{
				"type": "occ",
				"energy": -0.23706,
				"method": "rhf"
			},
			{
				"type": "occ",
				"energy": -0.22178,
				"method": "rhf"
			},
			{
				"type": "unocc",
				"energy": -0.06558,
				"method": "rhf"
			},
			{
				"type": "unocc",
				"energy": -0.0309,
				"method": "rhf"
			},
			{
				"type": "unocc",
				"energy": -0.01351,
				"method": "rhf"
			},
			{
				"type": "unocc",
				"energy": 0.0041,
				"method": "rhf"
			},
			{
				"type": "unocc",
				"energy": 0.02574,
				"method": "rhf"
			}
		],
		"cosmo_sigma_profile": { 
			"-0.025": 0.0,
			"-0.024": 0.0,
			"-0.023": 0.0,
			"-0.022": 0.0,
			"-0.021": 0.0,
			"-0.02": 0.0,
			"-0.019": 0.0909219128341,
			"-0.018": 0.896115977794,
			"-0.017": 1.13294624937,
			"-0.016": 0.610535234697,
			"-0.015": 1.26997890598,
			"-0.014": 1.36737154772,
			"-0.013": 0.788697386639,
			"-0.012": 0.503525418544,
			"-0.011": 1.30307685211,
			"-0.01": 0.976294764129,
			"-0.009": 1.40887676698,
			"-0.008": 3.66632874696,
			"-0.007": 7.82867954704,
			"-0.006": 14.5600496008,
			"-0.005": 17.6890505384,
			"-0.004": 14.9909467415,
			"-0.003": 13.6223417551,
			"-0.002": 15.9252907456,
			"-0.001": 17.5424472523,
			"0.0": 21.2264792152,
			"0.001": 24.8958631529,
			"0.002": 29.7451795607,
			"0.003": 22.2456575584,
			"0.004": 16.574526349,
			"0.005": 5.76756595761,
			"0.006": 2.46959322779,
			"0.007": 3.08958760773,
			"0.008": 3.04846972378,
			"0.009": 3.16401245703,
			"0.01": 2.4650030188,
			"0.011": 3.19320719324,
			"0.012": 2.49832681113,
			"0.013": 4.73589418791,
			"0.014": 3.30694047544,
			"0.015": 0.886350656824,
			"0.016": 0.0,
			"0.017": 0.0,
			"0.018": 0.0,
			"0.019": 0.0,
			"0.02": 0.0,
			"0.021": 0.0,
			"0.022": 0.0,
			"0.023": 0.0,
			"0.024": 0.0,
			"0.025": 0.0
		}
	}
}
