{
	 "smiles": "CC1=C(C)C=C(NC(N)=O)C=C1", 
	 "Tm": 444.15, 
	 "num_atms": 24, 
	 "gaussian": { 
		 "optdone": 1, 
		 "sigma_profile": "yes", 
		 "theory": "DFT", 
		 "functional": "B3LYP", 
		 "basiset": "6-31G**", 
		 "properties": { 
			 "R2extent": 3057.7203, 
			 "electric_dipole_moment_norm": 4.15054331504, 
			 "electric_quadrupole_moment_norm": 20.9172439932, 
			 "total_energy": -534.959093278, 
			 "HOMO_LUMO_gap": 0.20745, 
			 "cosmo_polarized_energy": -13.59, 
			 "cosmo_cavitation_energy": 27.27, 
			 "cosmo_dispersion_energy": -20.02, 
			 "cosmo_repulsion_energy": 1.61, 
			 "cosmo_total_nonelectrostatic_energy": 8.86, 
			 "SMD_solvation_energy": 5.68 
		},
		"coords": [
			{
				"x": 3.0181928598,
				"y": 0.8180117999,
				"z": -0.9799299899,
				"element": "C" 
			},
			{
				"x": 1.523681824,
				"y": 0.6111753288,
				"z": -0.9251602356,
				"element": "C" 
			},
			{
				"x": 0.6670846167,
				"y": 1.2173661062,
				"z": -1.8711992691,
				"element": "C" 
			},
			{
				"x": 1.2247738812,
				"y": 2.0926944883,
				"z": -2.9682818745,
				"element": "C" 
			},
			{
				"x": -0.7100025221,
				"y": 1.0124117809,
				"z": -1.777830442,
				"element": "C" 
			},
			{
				"x": -1.2751259235,
				"y": 0.2031656214,
				"z": -0.7794660653,
				"element": "C" 
			},
			{
				"x": -2.6726570641,
				"y": 0.0125404279,
				"z": -0.7799043029,
				"element": "N" 
			},
			{
				"x": -3.581534081,
				"y": -0.1225779828,
				"z": 0.2636279053,
				"element": "C" 
			},
			{
				"x": -3.0673726532,
				"y": -0.0544012579,
				"z": 1.5447578112,
				"element": "N" 
			},
			{
				"x": -4.7684513989,
				"y": -0.311919709,
				"z": 0.0341342223,
				"element": "O" 
			},
			{
				"x": -0.422289034,
				"y": -0.4187947479,
				"z": 0.1413454515,
				"element": "C" 
			},
			{
				"x": 0.9527537322,
				"y": -0.1945319463,
				"z": 0.0632976928,
				"element": "C" 
			},
			{
				"x": 3.2881678017,
				"y": 1.8760128788,
				"z": -0.8727281897,
				"element": "H" 
			},
			{
				"x": 3.4420030375,
				"y": 0.4813596943,
				"z": -1.9340900281,
				"element": "H" 
			},
			{
				"x": 3.5204182936,
				"y": 0.2658038125,
				"z": -0.1811784512,
				"element": "H" 
			},
			{
				"x": 0.4291760045,
				"y": 2.4850257301,
				"z": -3.6068450157,
				"element": "H" 
			},
			{
				"x": 1.7789432924,
				"y": 2.9468017604,
				"z": -2.5607631362,
				"element": "H" 
			},
			{
				"x": 1.9246178804,
				"y": 1.5401928894,
				"z": -3.6068000934,
				"element": "H" 
			},
			{
				"x": -1.3690819996,
				"y": 1.4976942458,
				"z": -2.4943552637,
				"element": "H" 
			},
			{
				"x": -3.1487271499,
				"y": 0.077443974,
				"z": -1.6684559905,
				"element": "H" 
			},
			{
				"x": -2.2198752325,
				"y": 0.4731917476,
				"z": 1.7008925783,
				"element": "H" 
			},
			{
				"x": -3.7887482928,
				"y": 0.0541435622,
				"z": 2.2426019593,
				"element": "H" 
			},
			{
				"x": -0.8236241426,
				"y": -1.0928956783,
				"z": 0.8893172984,
				"element": "H" 
			},
			{
				"x": 1.6027762701,
				"y": -0.6823145262,
				"z": 0.7857134286,
				"element": "H" 
			}
		],
		 "valence_orbital": [ 
			{
				"type": "occ",
				"energy": -0.29012,
				"method": "rhf"
			},
			{
				"type": "occ",
				"energy": -0.26887,
				"method": "rhf"
			},
			{
				"type": "occ",
				"energy": -0.25252,
				"method": "rhf"
			},
			{
				"type": "occ",
				"energy": -0.24866,
				"method": "rhf"
			},
			{
				"type": "occ",
				"energy": -0.21345,
				"method": "rhf"
			},
			{
				"type": "unocc",
				"energy": -0.006,
				"method": "rhf"
			},
			{
				"type": "unocc",
				"energy": -0.00407,
				"method": "rhf"
			},
			{
				"type": "unocc",
				"energy": 0.06735,
				"method": "rhf"
			},
			{
				"type": "unocc",
				"energy": 0.08834,
				"method": "rhf"
			},
			{
				"type": "unocc",
				"energy": 0.09254,
				"method": "rhf"
			}
		],
		"cosmo_sigma_profile": { 
			"-0.025": 0.0,
			"-0.024": 0.0,
			"-0.023": 0.0,
			"-0.022": 0.0,
			"-0.021": 0.0,
			"-0.02": 0.0,
			"-0.019": 0.0,
			"-0.018": 0.0,
			"-0.017": 0.0,
			"-0.016": 0.0,
			"-0.015": 0.0,
			"-0.014": 0.607273757018,
			"-0.013": 2.04840846456,
			"-0.012": 3.37925713257,
			"-0.011": 2.65673675911,
			"-0.01": 3.0663140956,
			"-0.009": 2.66055858887,
			"-0.008": 3.97641064618,
			"-0.007": 3.22658805994,
			"-0.006": 3.69878992985,
			"-0.005": 8.90580778542,
			"-0.004": 18.2611086732,
			"-0.003": 19.9383534034,
			"-0.002": 16.5789010532,
			"-0.001": 17.5400534835,
			"0.0": 22.2100719564,
			"0.001": 15.725035015,
			"0.002": 10.6223205452,
			"0.003": 10.151596394,
			"0.004": 10.7069086054,
			"0.005": 10.0570479963,
			"0.006": 7.2660532384,
			"0.007": 1.91751632455,
			"0.008": 1.52910153416,
			"0.009": 2.21054298255,
			"0.01": 1.43417756078,
			"0.011": 1.26590312588,
			"0.012": 1.19502475848,
			"0.013": 2.13516887503,
			"0.014": 6.62321003272,
			"0.015": 3.14721408283,
			"0.016": 0.0,
			"0.017": 0.0,
			"0.018": 0.0,
			"0.019": 0.0,
			"0.02": 0.0,
			"0.021": 0.0,
			"0.022": 0.0,
			"0.023": 0.0,
			"0.024": 0.0,
			"0.025": 0.0
		}
	}
}
