{
	 "smiles": "CC1=CC(=NN1C1=CC=C(C)C=C1)C(O)=O", 
	 "Tm": 423.15, 
	 "num_atms": 28, 
	 "gaussian": { 
		 "optdone": 1, 
		 "sigma_profile": "yes", 
		 "theory": "DFT", 
		 "functional": "B3LYP", 
		 "basiset": "6-31G**", 
		 "properties": { 
			 "R2extent": 4678.0141, 
			 "electric_dipole_moment_norm": 7.84782333453, 
			 "electric_quadrupole_moment_norm": 25.3884281867, 
			 "total_energy": -724.469221609, 
			 "HOMO_LUMO_gap": 0.20016, 
			 "cosmo_polarized_energy": -14.2, 
			 "cosmo_cavitation_energy": 32.56, 
			 "cosmo_dispersion_energy": -23.35, 
			 "cosmo_repulsion_energy": 1.83, 
			 "cosmo_total_nonelectrostatic_energy": 11.03, 
			 "SMD_solvation_energy": 6.37 
		},
		"coords": [
			{
				"x": 1.3657401375,
				"y": -1.1380112485,
				"z": 2.2645849769,
				"element": "C" 
			},
			{
				"x": 0.990615659,
				"y": 0.2036409923,
				"z": 1.7182308116,
				"element": "C" 
			},
			{
				"x": 1.0441332701,
				"y": 1.4465440236,
				"z": 2.3187569009,
				"element": "C" 
			},
			{
				"x": 0.5173860034,
				"y": 2.3403463343,
				"z": 1.3653551979,
				"element": "C" 
			},
			{
				"x": 0.1567838121,
				"y": 1.7098615605,
				"z": 0.2462030196,
				"element": "N" 
			},
			{
				"x": 0.4551614024,
				"y": 0.4092201217,
				"z": 0.461325397,
				"element": "N" 
			},
			{
				"x": 0.1397689072,
				"y": -0.5493372778,
				"z": -0.5471634362,
				"element": "C" 
			},
			{
				"x": -1.0925298368,
				"y": -0.4660412222,
				"z": -1.2035546394,
				"element": "C" 
			},
			{
				"x": -1.4047028407,
				"y": -1.3845816106,
				"z": -2.2006916035,
				"element": "C" 
			},
			{
				"x": -0.512777647,
				"y": -2.4070577265,
				"z": -2.5584051196,
				"element": "C" 
			},
			{
				"x": -0.8793156955,
				"y": -3.4192785417,
				"z": -3.6172143722,
				"element": "C" 
			},
			{
				"x": 0.717623955,
				"y": -2.4663737717,
				"z": -1.8935269601,
				"element": "C" 
			},
			{
				"x": 1.0529101513,
				"y": -1.5442926874,
				"z": -0.9019129024,
				"element": "C" 
			},
			{
				"x": 0.3376759227,
				"y": 3.8103648105,
				"z": 1.4717916791,
				"element": "C" 
			},
			{
				"x": -0.1816588383,
				"y": 4.3890853065,
				"z": 0.3652627589,
				"element": "O" 
			},
			{
				"x": 0.6258674188,
				"y": 4.4486825972,
				"z": 2.457893556,
				"element": "O" 
			},
			{
				"x": 2.3599206187,
				"y": -1.4599161794,
				"z": 1.9346010478,
				"element": "H" 
			},
			{
				"x": 0.6519454993,
				"y": -1.9111661203,
				"z": 1.9662663142,
				"element": "H" 
			},
			{
				"x": 1.3826170403,
				"y": -1.0887670062,
				"z": 3.3556547716,
				"element": "H" 
			},
			{
				"x": 1.3997096874,
				"y": 1.6843114571,
				"z": 3.309362183,
				"element": "H" 
			},
			{
				"x": -1.7861885501,
				"y": 0.3208255359,
				"z": -0.9302018861,
				"element": "H" 
			},
			{
				"x": -2.3632144213,
				"y": -1.309585232,
				"z": -2.7076920717,
				"element": "H" 
			},
			{
				"x": -1.5321970335,
				"y": -4.2003512583,
				"z": -3.2082459801,
				"element": "H" 
			},
			{
				"x": -1.4168780706,
				"y": -2.9518406939,
				"z": -4.4480913867,
				"element": "H" 
			},
			{
				"x": 0.0078945583,
				"y": -3.9134208375,
				"z": -4.0228420732,
				"element": "H" 
			},
			{
				"x": 1.4364717256,
				"y": -3.2347904064,
				"z": -2.1650841332,
				"element": "H" 
			},
			{
				"x": 2.0282174438,
				"y": -1.583705133,
				"z": -0.4301661816,
				"element": "H" 
			},
			{
				"x": -0.325380279,
				"y": 3.6901342139,
				"z": -0.2978958687,
				"element": "H" 
			}
		],
		 "valence_orbital": [ 
			{
				"type": "occ",
				"energy": -0.28729,
				"method": "rhf"
			},
			{
				"type": "occ",
				"energy": -0.27014,
				"method": "rhf"
			},
			{
				"type": "occ",
				"energy": -0.2621,
				"method": "rhf"
			},
			{
				"type": "occ",
				"energy": -0.25737,
				"method": "rhf"
			},
			{
				"type": "occ",
				"energy": -0.24157,
				"method": "rhf"
			},
			{
				"type": "unocc",
				"energy": -0.04141,
				"method": "rhf"
			},
			{
				"type": "unocc",
				"energy": -0.02166,
				"method": "rhf"
			},
			{
				"type": "unocc",
				"energy": -0.01044,
				"method": "rhf"
			},
			{
				"type": "unocc",
				"energy": 0.02451,
				"method": "rhf"
			},
			{
				"type": "unocc",
				"energy": 0.07532,
				"method": "rhf"
			}
		],
		"cosmo_sigma_profile": { 
			"-0.025": 0.0,
			"-0.024": 0.0,
			"-0.023": 0.0,
			"-0.022": 0.0,
			"-0.021": 0.0,
			"-0.02": 0.0,
			"-0.019": 0.0,
			"-0.018": 0.0,
			"-0.017": 0.0,
			"-0.016": 0.0,
			"-0.015": 0.12469428236,
			"-0.014": 0.443187265967,
			"-0.013": 0.269372578089,
			"-0.012": 0.489449105781,
			"-0.011": 0.987599094928,
			"-0.01": 0.654809843258,
			"-0.009": 0.492071549076,
			"-0.008": 1.73734799299,
			"-0.007": 5.87916242067,
			"-0.006": 13.1425466809,
			"-0.005": 18.5187816157,
			"-0.004": 23.9467997812,
			"-0.003": 20.6131683081,
			"-0.002": 25.4574028073,
			"-0.001": 23.6939388815,
			"0.0": 20.9037900699,
			"0.001": 15.2046616923,
			"0.002": 17.5147627197,
			"0.003": 15.9873253908,
			"0.004": 15.6472717969,
			"0.005": 6.19587939875,
			"0.006": 3.08434252832,
			"0.007": 3.78861919423,
			"0.008": 3.51774114555,
			"0.009": 3.23368050877,
			"0.01": 5.15694911443,
			"0.011": 5.28881029666,
			"0.012": 5.49484343351,
			"0.013": 2.00439126476,
			"0.014": 0.142095470504,
			"0.015": 0.0,
			"0.016": 0.0,
			"0.017": 0.0,
			"0.018": 0.0,
			"0.019": 0.0,
			"0.02": 0.0,
			"0.021": 0.0,
			"0.022": 0.0,
			"0.023": 0.0,
			"0.024": 0.0,
			"0.025": 0.0
		}
	}
}
