{
	 "smiles": "CC1=CC=C(C=C1)C(=O)NC1=CC=C(O)C=C1", 
	 "Tm": 482.15, 
	 "num_atms": 30, 
	 "gaussian": { 
		 "optdone": 1, 
		 "sigma_profile": "yes", 
		 "theory": "DFT", 
		 "functional": "B3LYP", 
		 "basiset": "6-31G**", 
		 "properties": { 
			 "R2extent": 4978.6775, 
			 "electric_dipole_moment_norm": 3.91986704621, 
			 "electric_quadrupole_moment_norm": 11.2426062699, 
			 "total_energy": -746.540360953, 
			 "HOMO_LUMO_gap": 0.17884, 
			 "cosmo_polarized_energy": -16.24, 
			 "cosmo_cavitation_energy": 34.39, 
			 "cosmo_dispersion_energy": -24.25, 
			 "cosmo_repulsion_energy": 1.9, 
			 "cosmo_total_nonelectrostatic_energy": 12.04, 
			 "SMD_solvation_energy": 6.79 
		},
		"coords": [
			{
				"x": 0.4270042824,
				"y": 4.177151015,
				"z": -1.0999729701,
				"element": "C" 
			},
			{
				"x": 0.4156382428,
				"y": 2.6695169686,
				"z": -1.1834133759,
				"element": "C" 
			},
			{
				"x": -0.6063899915,
				"y": 1.9209611525,
				"z": -0.5842927328,
				"element": "C" 
			},
			{
				"x": -0.6314185224,
				"y": 0.5304512978,
				"z": -0.6743423658,
				"element": "C" 
			},
			{
				"x": 0.3702971623,
				"y": -0.1501552276,
				"z": -1.3798435084,
				"element": "C" 
			},
			{
				"x": 1.3823666551,
				"y": 0.5938475929,
				"z": -2.0024076073,
				"element": "C" 
			},
			{
				"x": 1.411235837,
				"y": 1.9803193774,
				"z": -1.8916267143,
				"element": "C" 
			},
			{
				"x": 0.3686943257,
				"y": -1.6322684536,
				"z": -1.6055294173,
				"element": "C" 
			},
			{
				"x": 0.8230574177,
				"y": -2.1149672196,
				"z": -2.6385386349,
				"element": "O" 
			},
			{
				"x": -0.2110610223,
				"y": -2.4632617405,
				"z": -0.661074239,
				"element": "N" 
			},
			{
				"x": -0.3787818386,
				"y": -2.2825477182,
				"z": 0.7399477433,
				"element": "C" 
			},
			{
				"x": -1.5159894825,
				"y": -2.8177217668,
				"z": 1.3620367147,
				"element": "C" 
			},
			{
				"x": -1.6971353358,
				"y": -2.7089984263,
				"z": 2.7369418523,
				"element": "C" 
			},
			{
				"x": -0.7468291802,
				"y": -2.0376081336,
				"z": 3.5142233847,
				"element": "C" 
			},
			{
				"x": -0.9806429218,
				"y": -1.9460639805,
				"z": 4.8574141979,
				"element": "O" 
			},
			{
				"x": 0.388925057,
				"y": -1.4974683401,
				"z": 2.9019342033,
				"element": "C" 
			},
			{
				"x": 0.5795974471,
				"y": -1.6345202595,
				"z": 1.5281038748,
				"element": "C" 
			},
			{
				"x": 1.4483102919,
				"y": 4.5681601144,
				"z": -1.0585055217,
				"element": "H" 
			},
			{
				"x": -0.1110183196,
				"y": 4.5346393014,
				"z": -0.2171583695,
				"element": "H" 
			},
			{
				"x": -0.0547640811,
				"y": 4.6235909591,
				"z": -1.979022274,
				"element": "H" 
			},
			{
				"x": -1.3953567108,
				"y": 2.4342002589,
				"z": -0.0401227449,
				"element": "H" 
			},
			{
				"x": -1.4378438337,
				"y": -0.0213187506,
				"z": -0.204056806,
				"element": "H" 
			},
			{
				"x": 2.1361656271,
				"y": 0.0643288948,
				"z": -2.5755695712,
				"element": "H" 
			},
			{
				"x": 2.2125141895,
				"y": 2.5398414362,
				"z": -2.3682364392,
				"element": "H" 
			},
			{
				"x": -0.2475894935,
				"y": -3.4184769696,
				"z": -0.998333677,
				"element": "H" 
			},
			{
				"x": -2.2643303021,
				"y": -3.3205940366,
				"z": 0.7560823335,
				"element": "H" 
			},
			{
				"x": -2.5730742634,
				"y": -3.126485622,
				"z": 3.2220016456,
				"element": "H" 
			},
			{
				"x": -0.2529518108,
				"y": -1.4670586454,
				"z": 5.2744470549,
				"element": "H" 
			},
			{
				"x": 1.1386770476,
				"y": -0.9845569512,
				"z": 3.5007113398,
				"element": "H" 
			},
			{
				"x": 1.4759935269,
				"y": -1.2347361275,
				"z": 1.0669026246,
				"element": "H" 
			}
		],
		 "valence_orbital": [ 
			{
				"type": "occ",
				"energy": -0.26294,
				"method": "rhf"
			},
			{
				"type": "occ",
				"energy": -0.25492,
				"method": "rhf"
			},
			{
				"type": "occ",
				"energy": -0.24971,
				"method": "rhf"
			},
			{
				"type": "occ",
				"energy": -0.23749,
				"method": "rhf"
			},
			{
				"type": "occ",
				"energy": -0.21192,
				"method": "rhf"
			},
			{
				"type": "unocc",
				"energy": -0.03308,
				"method": "rhf"
			},
			{
				"type": "unocc",
				"energy": -0.01467,
				"method": "rhf"
			},
			{
				"type": "unocc",
				"energy": -0.00047,
				"method": "rhf"
			},
			{
				"type": "unocc",
				"energy": 0.00698,
				"method": "rhf"
			},
			{
				"type": "unocc",
				"energy": 0.05931,
				"method": "rhf"
			}
		],
		"cosmo_sigma_profile": { 
			"-0.025": 0.0,
			"-0.024": 0.0,
			"-0.023": 0.0,
			"-0.022": 0.0,
			"-0.021": 0.0,
			"-0.02": 0.0,
			"-0.019": 0.0,
			"-0.018": 0.511306200008,
			"-0.017": 1.06977268565,
			"-0.016": 1.02745243061,
			"-0.015": 1.41111712831,
			"-0.014": 1.18503359331,
			"-0.013": 1.71718245054,
			"-0.012": 2.23643229395,
			"-0.011": 1.1535588359,
			"-0.01": 1.64731597211,
			"-0.009": 3.0523203011,
			"-0.008": 1.92358948622,
			"-0.007": 3.27642454461,
			"-0.006": 10.4244984124,
			"-0.005": 18.9544118306,
			"-0.004": 23.3875420749,
			"-0.003": 18.9677293959,
			"-0.002": 18.4557247996,
			"-0.001": 19.9680452437,
			"0.0": 23.0141573715,
			"0.001": 16.525803783,
			"0.002": 15.6051091219,
			"0.003": 17.9929970816,
			"0.004": 22.799975499,
			"0.005": 17.955316056,
			"0.006": 3.05843616772,
			"0.007": 3.0332560459,
			"0.008": 2.27748193532,
			"0.009": 2.50541038309,
			"0.01": 3.46970771344,
			"0.011": 4.21685919603,
			"0.012": 2.32998369658,
			"0.013": 4.64317431535,
			"0.014": 3.66967250769,
			"0.015": 0.179447053316,
			"0.016": 0.0,
			"0.017": 0.0,
			"0.018": 0.0,
			"0.019": 0.0,
			"0.02": 0.0,
			"0.021": 0.0,
			"0.022": 0.0,
			"0.023": 0.0,
			"0.024": 0.0,
			"0.025": 0.0
		}
	}
}
