{
	 "smiles": "CCO[C@H]1OC(=CC[C@H]1Br)C(N)=O", 
	 "Tm": 415.15, 
	 "num_atms": 25, 
	 "gaussian": { 
		 "optdone": 1, 
		 "sigma_profile": "yes", 
		 "theory": "DFT", 
		 "functional": "B3LYP", 
		 "basiset": "6-31G**", 
		 "properties": { 
			 "R2extent": 4156.9034, 
			 "electric_dipole_moment_norm": 3.4061823219, 
			 "electric_quadrupole_moment_norm": 18.5031109903, 
			 "total_energy": -3163.91106202, 
			 "HOMO_LUMO_gap": 0.21158, 
			 "cosmo_polarized_energy": -14.76, 
			 "cosmo_cavitation_energy": 30.46, 
			 "cosmo_dispersion_energy": -21.76, 
			 "cosmo_repulsion_energy": 1.78, 
			 "cosmo_total_nonelectrostatic_energy": 10.49, 
			 "SMD_solvation_energy": 4.97 
		},
		"coords": [
			{
				"x": 1.1301620293,
				"y": 1.7503068339,
				"z": -1.9378002373,
				"element": "C" 
			},
			{
				"x": -0.1334419197,
				"y": 1.3835178449,
				"z": -1.180950969,
				"element": "C" 
			},
			{
				"x": 0.2407629586,
				"y": 0.5577045683,
				"z": -0.0725204449,
				"element": "O" 
			},
			{
				"x": -0.7924511907,
				"y": 0.225970568,
				"z": 0.7872266054,
				"element": "C" 
			},
			{
				"x": -1.7515317464,
				"y": -0.6491086304,
				"z": 0.1609813813,
				"element": "O" 
			},
			{
				"x": -1.3343048087,
				"y": -1.9564646249,
				"z": -0.0332842218,
				"element": "C" 
			},
			{
				"x": -0.2845066689,
				"y": -2.5071845225,
				"z": 0.586045993,
				"element": "C" 
			},
			{
				"x": 0.5564149704,
				"y": -1.7394524739,
				"z": 1.5694534094,
				"element": "C" 
			},
			{
				"x": -0.2113950444,
				"y": -0.4949245131,
				"z": 2.0053274888,
				"element": "C" 
			},
			{
				"x": 0.913513342,
				"y": 0.7350760741,
				"z": 3.0666840442,
				"element": "Br" 
			},
			{
				"x": -2.1760631576,
				"y": -2.727466882,
				"z": -1.0082251967,
				"element": "C" 
			},
			{
				"x": -3.1794564731,
				"y": -2.0057308586,
				"z": -1.5828073154,
				"element": "N" 
			},
			{
				"x": -1.9575517146,
				"y": -3.9060884533,
				"z": -1.2607255374,
				"element": "O" 
			},
			{
				"x": 1.8243920895,
				"y": 2.2918199366,
				"z": -1.2893704392,
				"element": "H" 
			},
			{
				"x": 0.8851369308,
				"y": 2.3849552811,
				"z": -2.7950271035,
				"element": "H" 
			},
			{
				"x": 1.6318617258,
				"y": 0.8509213042,
				"z": -2.3057314967,
				"element": "H" 
			},
			{
				"x": -0.8363041429,
				"y": 0.8411250198,
				"z": -1.8260258894,
				"element": "H" 
			},
			{
				"x": -0.644603905,
				"y": 2.2841716497,
				"z": -0.8069303228,
				"element": "H" 
			},
			{
				"x": -1.3850014854,
				"y": 1.1038930394,
				"z": 1.0739704354,
				"element": "H" 
			},
			{
				"x": -0.0478148327,
				"y": -3.5366394047,
				"z": 0.3431948507,
				"element": "H" 
			},
			{
				"x": 0.8013497104,
				"y": -2.3540441049,
				"z": 2.4417233452,
				"element": "H" 
			},
			{
				"x": 1.5067339786,
				"y": -1.445062872,
				"z": 1.1075906655,
				"element": "H" 
			},
			{
				"x": -1.0355538591,
				"y": -0.7550974765,
				"z": 2.6697614745,
				"element": "H" 
			},
			{
				"x": -3.3665138161,
				"y": -1.0596363164,
				"z": -1.2930070257,
				"element": "H" 
			},
			{
				"x": -3.81243297,
				"y": -2.4859609866,
				"z": -2.2024534937,
				"element": "H" 
			}
		],
		 "valence_orbital": [ 
			{
				"type": "occ",
				"energy": -0.27957,
				"method": "rhf"
			},
			{
				"type": "occ",
				"energy": -0.27556,
				"method": "rhf"
			},
			{
				"type": "occ",
				"energy": -0.26794,
				"method": "rhf"
			},
			{
				"type": "occ",
				"energy": -0.25217,
				"method": "rhf"
			},
			{
				"type": "occ",
				"energy": -0.23716,
				"method": "rhf"
			},
			{
				"type": "unocc",
				"energy": -0.02558,
				"method": "rhf"
			},
			{
				"type": "unocc",
				"energy": -0.00407,
				"method": "rhf"
			},
			{
				"type": "unocc",
				"energy": 0.07768,
				"method": "rhf"
			},
			{
				"type": "unocc",
				"energy": 0.0887,
				"method": "rhf"
			},
			{
				"type": "unocc",
				"energy": 0.09999,
				"method": "rhf"
			}
		],
		"cosmo_sigma_profile": { 
			"-0.025": 0.0,
			"-0.024": 0.0,
			"-0.023": 0.0,
			"-0.022": 0.0,
			"-0.021": 0.0,
			"-0.02": 0.0,
			"-0.019": 0.0,
			"-0.018": 0.0,
			"-0.017": 0.0,
			"-0.016": 0.0,
			"-0.015": 0.0342269302796,
			"-0.014": 0.881460944948,
			"-0.013": 1.99821158176,
			"-0.012": 1.308447713,
			"-0.011": 2.53758827374,
			"-0.01": 1.60340295497,
			"-0.009": 1.8131675689,
			"-0.008": 4.08969725615,
			"-0.007": 7.42114509172,
			"-0.006": 8.94918776424,
			"-0.005": 11.8188667627,
			"-0.004": 19.2485695976,
			"-0.003": 22.9229301413,
			"-0.002": 20.0108140184,
			"-0.001": 20.0758932749,
			"0.0": 19.511641125,
			"0.001": 14.2438041879,
			"0.002": 10.4532976276,
			"0.003": 13.0762967497,
			"0.004": 10.8148024116,
			"0.005": 14.0804230415,
			"0.006": 10.0501177627,
			"0.007": 4.07766004206,
			"0.008": 3.67681830734,
			"0.009": 2.60502472304,
			"0.01": 1.94946360729,
			"0.011": 1.76615418604,
			"0.012": 2.10826801649,
			"0.013": 4.17141774413,
			"0.014": 4.47394701553,
			"0.015": 0.553239017623,
			"0.016": 0.0,
			"0.017": 0.0,
			"0.018": 0.0,
			"0.019": 0.0,
			"0.02": 0.0,
			"0.021": 0.0,
			"0.022": 0.0,
			"0.023": 0.0,
			"0.024": 0.0,
			"0.025": 0.0
		}
	}
}
