{
	 "smiles": "CCN1C(C)=CSC1=NC1=CC=C(Cl)C=C1", 
	 "Tm": 464.15, 
	 "num_atms": 29, 
	 "gaussian": { 
		 "optdone": 1, 
		 "sigma_profile": "yes", 
		 "theory": "DFT", 
		 "functional": "B3LYP", 
		 "basiset": "6-31G**", 
		 "properties": { 
			 "R2extent": 5833.2355, 
			 "electric_dipole_moment_norm": 5.60957807415, 
			 "electric_quadrupole_moment_norm": 9.23892665573, 
			 "total_energy": -1432.98271555, 
			 "HOMO_LUMO_gap": 0.1769, 
			 "cosmo_polarized_energy": -10.41, 
			 "cosmo_cavitation_energy": 35.36, 
			 "cosmo_dispersion_energy": -25.25, 
			 "cosmo_repulsion_energy": 1.94, 
			 "cosmo_total_nonelectrostatic_energy": 12.05, 
			 "SMD_solvation_energy": 3.95 
		},
		"coords": [
			{
				"x": -2.6805738307,
				"y": -0.1879731755,
				"z": -0.085741754,
				"element": "C" 
			},
			{
				"x": -1.4349268695,
				"y": -0.8214685228,
				"z": -0.7101498903,
				"element": "C" 
			},
			{
				"x": -0.5088892375,
				"y": -1.3772245633,
				"z": 0.2912880573,
				"element": "N" 
			},
			{
				"x": -0.6376768881,
				"y": -2.7015913202,
				"z": 0.7613988817,
				"element": "C" 
			},
			{
				"x": -1.4257828472,
				"y": -3.7169769565,
				"z": -0.0088110756,
				"element": "C" 
			},
			{
				"x": 0.0244556314,
				"y": -2.9338790208,
				"z": 1.9105485264,
				"element": "C" 
			},
			{
				"x": 0.855837931,
				"y": -1.5060953964,
				"z": 2.4989679004,
				"element": "S" 
			},
			{
				"x": 0.2608872195,
				"y": -0.546198597,
				"z": 1.1111772634,
				"element": "C" 
			},
			{
				"x": 0.5532957216,
				"y": 0.698158448,
				"z": 1.0496464028,
				"element": "N" 
			},
			{
				"x": 0.5073480953,
				"y": 1.5651011386,
				"z": -0.0348655075,
				"element": "C" 
			},
			{
				"x": -0.0739209098,
				"y": 2.8379963333,
				"z": 0.1303440061,
				"element": "C" 
			},
			{
				"x": -0.0659618163,
				"y": 3.7733131135,
				"z": -0.9004040262,
				"element": "C" 
			},
			{
				"x": 0.5472369246,
				"y": 3.4569374012,
				"z": -2.1131066052,
				"element": "C" 
			},
			{
				"x": 0.5636372882,
				"y": 4.6400238051,
				"z": -3.4185925802,
				"element": "Cl" 
			},
			{
				"x": 1.1555537424,
				"y": 2.2164619076,
				"z": -2.2980150325,
				"element": "C" 
			},
			{
				"x": 1.1351619869,
				"y": 1.2794878809,
				"z": -1.2662398724,
				"element": "C" 
			},
			{
				"x": -2.4078916569,
				"y": 0.6474844313,
				"z": 0.5642534626,
				"element": "H" 
			},
			{
				"x": -3.3369061801,
				"y": 0.1956286616,
				"z": -0.8733410713,
				"element": "H" 
			},
			{
				"x": -3.2436887063,
				"y": -0.9156573036,
				"z": 0.5073250186,
				"element": "H" 
			},
			{
				"x": -0.8971330556,
				"y": -0.0888647139,
				"z": -1.311193729,
				"element": "H" 
			},
			{
				"x": -1.7129547166,
				"y": -1.6357435454,
				"z": -1.3819273906,
				"element": "H" 
			},
			{
				"x": -2.4845740363,
				"y": -3.4470886618,
				"z": -0.0957414663,
				"element": "H" 
			},
			{
				"x": -1.3690831467,
				"y": -4.6800334637,
				"z": 0.5026706883,
				"element": "H" 
			},
			{
				"x": -1.0331904195,
				"y": -3.8517399221,
				"z": -1.0236629393,
				"element": "H" 
			},
			{
				"x": 0.0848573846,
				"y": -3.8743451064,
				"z": 2.4375987362,
				"element": "H" 
			},
			{
				"x": -0.5290827624,
				"y": 3.0803169311,
				"z": 1.0853164006,
				"element": "H" 
			},
			{
				"x": -0.5260155042,
				"y": 4.7460021402,
				"z": -0.7628206507,
				"element": "H" 
			},
			{
				"x": 1.6452454648,
				"y": 1.9862777716,
				"z": -3.2383439319,
				"element": "H" 
			},
			{
				"x": 1.6286351932,
				"y": 0.3211903053,
				"z": -1.4002778215,
				"element": "H" 
			}
		],
		 "valence_orbital": [ 
			{
				"type": "occ",
				"energy": -0.28438,
				"method": "rhf"
			},
			{
				"type": "occ",
				"energy": -0.28042,
				"method": "rhf"
			},
			{
				"type": "occ",
				"energy": -0.25463,
				"method": "rhf"
			},
			{
				"type": "occ",
				"energy": -0.21643,
				"method": "rhf"
			},
			{
				"type": "occ",
				"energy": -0.19029,
				"method": "rhf"
			},
			{
				"type": "unocc",
				"energy": -0.01339,
				"method": "rhf"
			},
			{
				"type": "unocc",
				"energy": -0.00617,
				"method": "rhf"
			},
			{
				"type": "unocc",
				"energy": 0.01408,
				"method": "rhf"
			},
			{
				"type": "unocc",
				"energy": 0.01732,
				"method": "rhf"
			},
			{
				"type": "unocc",
				"energy": 0.03443,
				"method": "rhf"
			}
		],
		"cosmo_sigma_profile": { 
			"-0.025": 0.0,
			"-0.024": 0.0,
			"-0.023": 0.0,
			"-0.022": 0.0,
			"-0.021": 0.0,
			"-0.02": 0.0,
			"-0.019": 0.0,
			"-0.018": 0.0,
			"-0.017": 0.0,
			"-0.016": 0.0,
			"-0.015": 0.0,
			"-0.014": 0.0,
			"-0.013": 0.0,
			"-0.012": 0.0,
			"-0.011": 0.0,
			"-0.01": 0.0,
			"-0.009": 0.343778478029,
			"-0.008": 2.00600295771,
			"-0.007": 4.89369971677,
			"-0.006": 14.3702878288,
			"-0.005": 19.5413283894,
			"-0.004": 22.1706222827,
			"-0.003": 23.3357682059,
			"-0.002": 24.2954181131,
			"-0.001": 25.1683996756,
			"0.0": 22.2211420079,
			"0.001": 21.5940940249,
			"0.002": 20.8572740534,
			"0.003": 21.8109514436,
			"0.004": 26.7339232588,
			"0.005": 21.9370391883,
			"0.006": 6.31350751208,
			"0.007": 1.70309410397,
			"0.008": 1.00356409604,
			"0.009": 1.29723047149,
			"0.01": 1.5143836647,
			"0.011": 1.07723681134,
			"0.012": 0.733449642358,
			"0.013": 0.771254091341,
			"0.014": 0.445840613728,
			"0.015": 0.0,
			"0.016": 0.0,
			"0.017": 0.0,
			"0.018": 0.0,
			"0.019": 0.0,
			"0.02": 0.0,
			"0.021": 0.0,
			"0.022": 0.0,
			"0.023": 0.0,
			"0.024": 0.0,
			"0.025": 0.0
		}
	}
}
