{
	 "smiles": "C1=CC2=CC=C(C=C2C=C1)P(C1=CC=C2C=CC=CC2=C1)C1=CC=C2C=CC=CC2=C1", 
	 "Tm": 501.15, 
	 "num_atms": 52, 
	 "gaussian": { 
		 "optdone": 1, 
		 "sigma_profile": "yes", 
		 "theory": "DFT", 
		 "functional": "B3LYP", 
		 "basiset": "6-31G**", 
		 "properties": { 
			 "R2extent": 15629.6175, 
			 "electric_dipole_moment_norm": 1.63764048863, 
			 "electric_quadrupole_moment_norm": 7.60058977514, 
			 "total_energy": -1497.23762292, 
			 "HOMO_LUMO_gap": 0.16238, 
			 "cosmo_polarized_energy": -11.12, 
			 "cosmo_cavitation_energy": 56.96, 
			 "cosmo_dispersion_energy": -38.93, 
			 "cosmo_repulsion_energy": 2.99, 
			 "cosmo_total_nonelectrostatic_energy": 21.02, 
			 "SMD_solvation_energy": 8.51 
		},
		"coords": [
			{
				"x": 4.3689178447,
				"y": -2.2818955813,
				"z": 1.5487599961,
				"element": "C" 
			},
			{
				"x": 3.1909959963,
				"y": -2.9745163796,
				"z": 1.7219408046,
				"element": "C" 
			},
			{
				"x": 2.0082527325,
				"y": -2.576919697,
				"z": 1.0437509785,
				"element": "C" 
			},
			{
				"x": 0.7732287071,
				"y": -3.2652964809,
				"z": 1.1926336553,
				"element": "C" 
			},
			{
				"x": -0.3496958139,
				"y": -2.8576451372,
				"z": 0.5130737612,
				"element": "C" 
			},
			{
				"x": -0.3179744091,
				"y": -1.7201381917,
				"z": -0.3479836624,
				"element": "C" 
			},
			{
				"x": 0.8741958814,
				"y": -1.0376520795,
				"z": -0.5060171125,
				"element": "C" 
			},
			{
				"x": 2.0572748109,
				"y": -1.442153351,
				"z": 0.1709816261,
				"element": "C" 
			},
			{
				"x": 3.2886408011,
				"y": -0.7496494455,
				"z": 0.0136045438,
				"element": "C" 
			},
			{
				"x": 4.4181501179,
				"y": -1.1586037613,
				"z": 0.6867075806,
				"element": "C" 
			},
			{
				"x": -1.8885521104,
				"y": -1.3032378002,
				"z": -1.2331497285,
				"element": "P" 
			},
			{
				"x": -1.3263671723,
				"y": -0.0807268414,
				"z": -2.5033789097,
				"element": "C" 
			},
			{
				"x": -0.8495825714,
				"y": -0.613049259,
				"z": -3.7385742297,
				"element": "C" 
			},
			{
				"x": -0.4366427151,
				"y": 0.2137458694,
				"z": -4.7558130643,
				"element": "C" 
			},
			{
				"x": -0.4900263645,
				"y": 1.6276144951,
				"z": -4.6163164141,
				"element": "C" 
			},
			{
				"x": -0.0812904506,
				"y": 2.5130424206,
				"z": -5.648714304,
				"element": "C" 
			},
			{
				"x": -0.1509996896,
				"y": 3.8776537263,
				"z": -5.4749080295,
				"element": "C" 
			},
			{
				"x": -0.6348282887,
				"y": 4.4200749552,
				"z": -4.2587651143,
				"element": "C" 
			},
			{
				"x": -1.0404227471,
				"y": 3.5875560965,
				"z": -3.23968294,
				"element": "C" 
			},
			{
				"x": -0.9805118554,
				"y": 2.1749944773,
				"z": -3.3868536999,
				"element": "C" 
			},
			{
				"x": -1.3859578623,
				"y": 1.2920608913,
				"z": -2.3487155197,
				"element": "C" 
			},
			{
				"x": -2.7749454133,
				"y": -0.2372897902,
				"z": -0.0075877123,
				"element": "C" 
			},
			{
				"x": -4.15363445,
				"y": 0.0257618614,
				"z": -0.2652914322,
				"element": "C" 
			},
			{
				"x": -4.9060547846,
				"y": 0.7826101544,
				"z": 0.6007245329,
				"element": "C" 
			},
			{
				"x": -4.3384559831,
				"y": 1.3117054915,
				"z": 1.7920342394,
				"element": "C" 
			},
			{
				"x": -5.0869340584,
				"y": 2.0895726585,
				"z": 2.714863156,
				"element": "C" 
			},
			{
				"x": -4.5001542595,
				"y": 2.5822121545,
				"z": 3.859513465,
				"element": "C" 
			},
			{
				"x": -3.1357155245,
				"y": 2.3177785487,
				"z": 4.1346691098,
				"element": "C" 
			},
			{
				"x": -2.3840748111,
				"y": 1.5650890095,
				"z": 3.2602545077,
				"element": "C" 
			},
			{
				"x": -2.9592531832,
				"y": 1.0427285924,
				"z": 2.0699244309,
				"element": "C" 
			},
			{
				"x": -2.204893458,
				"y": 0.2686350405,
				"z": 1.1461513995,
				"element": "C" 
			},
			{
				"x": 5.2668287577,
				"y": -2.5951586032,
				"z": 2.0736760685,
				"element": "H" 
			},
			{
				"x": 3.1511101884,
				"y": -3.8371022629,
				"z": 2.3823632721,
				"element": "H" 
			},
			{
				"x": 0.7314481463,
				"y": -4.131499836,
				"z": 1.8483954799,
				"element": "H" 
			},
			{
				"x": -1.2790876303,
				"y": -3.4097822314,
				"z": 0.6266678534,
				"element": "H" 
			},
			{
				"x": 0.9250340583,
				"y": -0.1717629346,
				"z": -1.1598995595,
				"element": "H" 
			},
			{
				"x": 3.3229075181,
				"y": 0.1110269021,
				"z": -0.6494987654,
				"element": "H" 
			},
			{
				"x": 5.3532569711,
				"y": -0.6210504048,
				"z": 0.5584477123,
				"element": "H" 
			},
			{
				"x": -0.8182932392,
				"y": -1.691184738,
				"z": -3.8733981592,
				"element": "H" 
			},
			{
				"x": -0.0717353396,
				"y": -0.2076569243,
				"z": -5.6892699535,
				"element": "H" 
			},
			{
				"x": 0.2889267666,
				"y": 2.094672879,
				"z": -6.5812979029,
				"element": "H" 
			},
			{
				"x": 0.1653777239,
				"y": 4.5447514118,
				"z": -6.2716529583,
				"element": "H" 
			},
			{
				"x": -0.6851207274,
				"y": 5.4979458588,
				"z": -4.1342430587,
				"element": "H" 
			},
			{
				"x": -1.4132183371,
				"y": 4.0001200062,
				"z": -2.3056268883,
				"element": "H" 
			},
			{
				"x": -1.7497575658,
				"y": 1.7216045779,
				"z": -1.4197128035,
				"element": "H" 
			},
			{
				"x": -4.6124854713,
				"y": -0.3850824102,
				"z": -1.1609432812,
				"element": "H" 
			},
			{
				"x": -5.9542315586,
				"y": 0.9776367065,
				"z": 0.3877230477,
				"element": "H" 
			},
			{
				"x": -6.133881602,
				"y": 2.2906651344,
				"z": 2.5021022323,
				"element": "H" 
			},
			{
				"x": -5.0828056563,
				"y": 3.1767056293,
				"z": 4.557375503,
				"element": "H" 
			},
			{
				"x": -2.684796053,
				"y": 2.7117531733,
				"z": 5.0409231061,
				"element": "H" 
			},
			{
				"x": -1.3372413879,
				"y": 1.3592202977,
				"z": 3.468590575,
				"element": "H" 
			},
			{
				"x": -1.1586244775,
				"y": 0.0780151208,
				"z": 1.3672425658,
				"element": "H" 
			}
		],
		 "valence_orbital": [ 
			{
				"type": "occ",
				"energy": -0.24513,
				"method": "rhf"
			},
			{
				"type": "occ",
				"energy": -0.22607,
				"method": "rhf"
			},
			{
				"type": "occ",
				"energy": -0.21561,
				"method": "rhf"
			},
			{
				"type": "occ",
				"energy": -0.21559,
				"method": "rhf"
			},
			{
				"type": "occ",
				"energy": -0.20553,
				"method": "rhf"
			},
			{
				"type": "unocc",
				"energy": -0.04315,
				"method": "rhf"
			},
			{
				"type": "unocc",
				"energy": -0.04313,
				"method": "rhf"
			},
			{
				"type": "unocc",
				"energy": -0.03949,
				"method": "rhf"
			},
			{
				"type": "unocc",
				"energy": -0.01482,
				"method": "rhf"
			},
			{
				"type": "unocc",
				"energy": -0.0148,
				"method": "rhf"
			}
		],
		"cosmo_sigma_profile": { 
			"-0.025": 0.0,
			"-0.024": 0.0,
			"-0.023": 0.0,
			"-0.022": 0.0,
			"-0.021": 0.0,
			"-0.02": 0.0,
			"-0.019": 0.0,
			"-0.018": 0.0,
			"-0.017": 0.0,
			"-0.016": 0.0,
			"-0.015": 0.0,
			"-0.014": 0.0,
			"-0.013": 0.0,
			"-0.012": 0.0,
			"-0.011": 0.0,
			"-0.01": 0.0,
			"-0.009": 0.0,
			"-0.008": 0.0,
			"-0.007": 0.124069621738,
			"-0.006": 30.0452650642,
			"-0.005": 41.5979245731,
			"-0.004": 40.3822136731,
			"-0.003": 37.1227106373,
			"-0.002": 27.5326291255,
			"-0.001": 28.8613179806,
			"0.0": 29.8908581374,
			"0.001": 32.7441285883,
			"0.002": 36.182703643,
			"0.003": 47.7253828859,
			"0.004": 63.8555905717,
			"0.005": 34.7724648073,
			"0.006": 2.94641528582,
			"0.007": 0.850658489801,
			"0.008": 0.878476347225,
			"0.009": 0.736922020996,
			"0.01": 0.71978395145,
			"0.011": 0.514315948625,
			"0.012": 0.613659249906,
			"0.013": 0.620646073094,
			"0.014": 0.0,
			"0.015": 0.0,
			"0.016": 0.0,
			"0.017": 0.0,
			"0.018": 0.0,
			"0.019": 0.0,
			"0.02": 0.0,
			"0.021": 0.0,
			"0.022": 0.0,
			"0.023": 0.0,
			"0.024": 0.0,
			"0.025": 0.0
		}
	}
}
