{
	 "smiles": "CC1=CC=C(C=C1)C#C", 
	 "Tm": 294.15, 
	 "num_atms": 17, 
	 "gaussian": { 
		 "optdone": 1, 
		 "sigma_profile": "yes", 
		 "theory": "DFT", 
		 "functional": "B3LYP", 
		 "basiset": "6-31G**", 
		 "properties": { 
			 "R2extent": 1542.2776, 
			 "electric_dipole_moment_norm": 1.12129755195, 
			 "electric_quadrupole_moment_norm": 6.59328401557, 
			 "total_energy": -347.716828793, 
			 "HOMO_LUMO_gap": 0.19821, 
			 "cosmo_polarized_energy": -5.07, 
			 "cosmo_cavitation_energy": 21.79, 
			 "cosmo_dispersion_energy": -15.39, 
			 "cosmo_repulsion_energy": 1.25, 
			 "cosmo_total_nonelectrostatic_energy": 7.65, 
			 "SMD_solvation_energy": 5.19 
		},
		"coords": [
			{
				"x": 2.2835415156,
				"y": -2.3276114196,
				"z": 1.8008782398,
				"element": "C" 
			},
			{
				"x": 1.5148243569,
				"y": -1.5063870711,
				"z": 0.7935839592,
				"element": "C" 
			},
			{
				"x": 2.15248228,
				"y": -0.9586173734,
				"z": -0.3285539027,
				"element": "C" 
			},
			{
				"x": 1.4569000998,
				"y": -0.1762254193,
				"z": -1.2450978448,
				"element": "C" 
			},
			{
				"x": 0.0853750265,
				"y": 0.0827943195,
				"z": -1.0656253186,
				"element": "C" 
			},
			{
				"x": -0.56057726,
				"y": -0.467676865,
				"z": 0.0569226908,
				"element": "C" 
			},
			{
				"x": 0.1474549496,
				"y": -1.248277952,
				"z": 0.9654281188,
				"element": "C" 
			},
			{
				"x": -0.6362717946,
				"y": 0.8829598121,
				"z": -2.0047183392,
				"element": "C" 
			},
			{
				"x": -1.2472769623,
				"y": 1.5611045498,
				"z": -2.7997352279,
				"element": "C" 
			},
			{
				"x": 3.1195815134,
				"y": -2.8559318363,
				"z": 1.3328099677,
				"element": "H" 
			},
			{
				"x": 2.7024473902,
				"y": -1.6925218583,
				"z": 2.5918422148,
				"element": "H" 
			},
			{
				"x": 1.6421031856,
				"y": -3.0691578544,
				"z": 2.2865043873,
				"element": "H" 
			},
			{
				"x": 3.2109088687,
				"y": -1.1499298157,
				"z": -0.4873333503,
				"element": "H" 
			},
			{
				"x": 1.9659732678,
				"y": 0.2381225888,
				"z": -2.1094273983,
				"element": "H" 
			},
			{
				"x": -1.6192841516,
				"y": -0.2798005291,
				"z": 0.20439323,
				"element": "H" 
			},
			{
				"x": -0.3709702949,
				"y": -1.6674106366,
				"z": 1.8242908289,
				"element": "H" 
			},
			{
				"x": -1.7847119906,
				"y": 2.1580673607,
				"z": -3.4991622555,
				"element": "H" 
			}
		],
		 "valence_orbital": [ 
			{
				"type": "occ",
				"energy": -0.34322,
				"method": "rhf"
			},
			{
				"type": "occ",
				"energy": -0.29669,
				"method": "rhf"
			},
			{
				"type": "occ",
				"energy": -0.26865,
				"method": "rhf"
			},
			{
				"type": "occ",
				"energy": -0.25384,
				"method": "rhf"
			},
			{
				"type": "occ",
				"energy": -0.22368,
				"method": "rhf"
			},
			{
				"type": "unocc",
				"energy": -0.02547,
				"method": "rhf"
			},
			{
				"type": "unocc",
				"energy": -0.00359,
				"method": "rhf"
			},
			{
				"type": "unocc",
				"energy": 0.05814,
				"method": "rhf"
			},
			{
				"type": "unocc",
				"energy": 0.08918,
				"method": "rhf"
			},
			{
				"type": "unocc",
				"energy": 0.09841,
				"method": "rhf"
			}
		],
		"cosmo_sigma_profile": { 
			"-0.025": 0.0,
			"-0.024": 0.0,
			"-0.023": 0.0,
			"-0.022": 0.0,
			"-0.021": 0.0,
			"-0.02": 0.0,
			"-0.019": 0.0,
			"-0.018": 0.0,
			"-0.017": 0.0,
			"-0.016": 0.0,
			"-0.015": 0.0,
			"-0.014": 0.0,
			"-0.013": 0.0,
			"-0.012": 0.372614565906,
			"-0.011": 1.23538520201,
			"-0.01": 1.42657082858,
			"-0.009": 1.13914844486,
			"-0.008": 0.917502237906,
			"-0.007": 1.21669458434,
			"-0.006": 5.73661237348,
			"-0.005": 11.4748342507,
			"-0.004": 16.3074557318,
			"-0.003": 13.6530064329,
			"-0.002": 13.1735170765,
			"-0.001": 14.624632188,
			"0.0": 13.9524569256,
			"0.001": 11.3034451328,
			"0.002": 10.7733440402,
			"0.003": 14.9412962963,
			"0.004": 14.8135787539,
			"0.005": 14.8316948531,
			"0.006": 8.53723203249,
			"0.007": 4.79800529886,
			"0.008": 0.0237210667399,
			"0.009": 0.0,
			"0.01": 0.0,
			"0.011": 0.0,
			"0.012": 0.0,
			"0.013": 0.0,
			"0.014": 0.0,
			"0.015": 0.0,
			"0.016": 0.0,
			"0.017": 0.0,
			"0.018": 0.0,
			"0.019": 0.0,
			"0.02": 0.0,
			"0.021": 0.0,
			"0.022": 0.0,
			"0.023": 0.0,
			"0.024": 0.0,
			"0.025": 0.0
		}
	}
}
