{
	 "smiles": "CC1=CC=C(C=C1)S(C)(=O)=O", 
	 "Tm": 361.15, 
	 "num_atms": 21, 
	 "gaussian": { 
		 "optdone": 1, 
		 "sigma_profile": "yes", 
		 "theory": "DFT", 
		 "functional": "B3LYP", 
		 "basiset": "6-31G**", 
		 "properties": { 
			 "R2extent": 2407.3272, 
			 "electric_dipole_moment_norm": 5.52407709667, 
			 "electric_quadrupole_moment_norm": 11.4695607767, 
			 "total_energy": -859.457596026, 
			 "HOMO_LUMO_gap": 0.22735, 
			 "cosmo_polarized_energy": -14.34, 
			 "cosmo_cavitation_energy": 25.94, 
			 "cosmo_dispersion_energy": -19.32, 
			 "cosmo_repulsion_energy": 1.5, 
			 "cosmo_total_nonelectrostatic_energy": 8.12, 
			 "SMD_solvation_energy": 4.31 
		},
		"coords": [
			{
				"x": -0.2147203523,
				"y": 2.0622068777,
				"z": -4.1769963174,
				"element": "C" 
			},
			{
				"x": -0.0405073101,
				"y": 1.4914220688,
				"z": -2.7902749808,
				"element": "C" 
			},
			{
				"x": -1.0194281433,
				"y": 1.6896943433,
				"z": -1.8052995474,
				"element": "C" 
			},
			{
				"x": -0.8529386547,
				"y": 1.1933837879,
				"z": -0.5138426147,
				"element": "C" 
			},
			{
				"x": 0.3075626839,
				"y": 0.4820092812,
				"z": -0.2048320197,
				"element": "C" 
			},
			{
				"x": 1.3024831475,
				"y": 0.2764310575,
				"z": -1.1620240151,
				"element": "C" 
			},
			{
				"x": 1.119052436,
				"y": 0.7798656104,
				"z": -2.4484170392,
				"element": "C" 
			},
			{
				"x": 0.527797516,
				"y": -0.1733178228,
				"z": 1.4546640147,
				"element": "S" 
			},
			{
				"x": -0.2025444876,
				"y": -1.8267388537,
				"z": 1.36284755,
				"element": "C" 
			},
			{
				"x": 1.9706267073,
				"y": -0.3445007363,
				"z": 1.688215307,
				"element": "O" 
			},
			{
				"x": -0.3038302307,
				"y": 0.6222264489,
				"z": 2.3717953489,
				"element": "O" 
			},
			{
				"x": 0.3010088,
				"y": 1.456393942,
				"z": -4.9275822854,
				"element": "H" 
			},
			{
				"x": 0.19928015,
				"y": 3.0764580397,
				"z": -4.2362118617,
				"element": "H" 
			},
			{
				"x": -1.2707728567,
				"y": 2.1255825923,
				"z": -4.4546651785,
				"element": "H" 
			},
			{
				"x": -1.9203396675,
				"y": 2.2455752183,
				"z": -2.0515660857,
				"element": "H" 
			},
			{
				"x": -1.5996401854,
				"y": 1.3665573733,
				"z": 0.2540973853,
				"element": "H" 
			},
			{
				"x": 2.2096085852,
				"y": -0.2538614088,
				"z": -0.891461623,
				"element": "H" 
			},
			{
				"x": 1.8907860462,
				"y": 0.6240725095,
				"z": -3.1977185243,
				"element": "H" 
			},
			{
				"x": 0.3381072085,
				"y": -2.4180713127,
				"z": 0.622626193,
				"element": "H" 
			},
			{
				"x": -0.0901810097,
				"y": -2.2658948033,
				"z": 2.3563340868,
				"element": "H" 
			},
			{
				"x": -1.2584103825,
				"y": -1.7395942132,
				"z": 1.1031122071,
				"element": "H" 
			}
		],
		 "valence_orbital": [ 
			{
				"type": "occ",
				"energy": -0.30735,
				"method": "rhf"
			},
			{
				"type": "occ",
				"energy": -0.29126,
				"method": "rhf"
			},
			{
				"type": "occ",
				"energy": -0.28413,
				"method": "rhf"
			},
			{
				"type": "occ",
				"energy": -0.27028,
				"method": "rhf"
			},
			{
				"type": "occ",
				"energy": -0.26439,
				"method": "rhf"
			},
			{
				"type": "unocc",
				"energy": -0.03704,
				"method": "rhf"
			},
			{
				"type": "unocc",
				"energy": -0.0216,
				"method": "rhf"
			},
			{
				"type": "unocc",
				"energy": 0.06654,
				"method": "rhf"
			},
			{
				"type": "unocc",
				"energy": 0.07921,
				"method": "rhf"
			},
			{
				"type": "unocc",
				"energy": 0.09665,
				"method": "rhf"
			}
		],
		"cosmo_sigma_profile": { 
			"-0.025": 0.0,
			"-0.024": 0.0,
			"-0.023": 0.0,
			"-0.022": 0.0,
			"-0.021": 0.0,
			"-0.02": 0.0,
			"-0.019": 0.0,
			"-0.018": 0.0,
			"-0.017": 0.0,
			"-0.016": 0.0,
			"-0.015": 0.0,
			"-0.014": 0.0,
			"-0.013": 0.0,
			"-0.012": 0.0,
			"-0.011": 0.0,
			"-0.01": 0.0,
			"-0.009": 1.15290585161,
			"-0.008": 5.18646037404,
			"-0.007": 9.12083850399,
			"-0.006": 14.1487303205,
			"-0.005": 18.7665046697,
			"-0.004": 21.5204093402,
			"-0.003": 15.1444399487,
			"-0.002": 14.1838679037,
			"-0.001": 15.9323014088,
			"0.0": 12.2272247793,
			"0.001": 9.49557555545,
			"0.002": 11.3605450214,
			"0.003": 13.6698277745,
			"0.004": 7.2447086948,
			"0.005": 2.32956533367,
			"0.006": 1.84262072012,
			"0.007": 2.83638353056,
			"0.008": 2.85015936587,
			"0.009": 3.22661634928,
			"0.01": 3.61128067308,
			"0.011": 8.96109664001,
			"0.012": 9.28824962895,
			"0.013": 2.01819780285,
			"0.014": 0.0,
			"0.015": 0.0,
			"0.016": 0.0,
			"0.017": 0.0,
			"0.018": 0.0,
			"0.019": 0.0,
			"0.02": 0.0,
			"0.021": 0.0,
			"0.022": 0.0,
			"0.023": 0.0,
			"0.024": 0.0,
			"0.025": 0.0
		}
	}
}
