{
	 "smiles": "COC1=CC=C(C=C1)C(Cl)C(=O)C1=CC=C(OC)C=C1", 
	 "Tm": 343.15, 
	 "num_atms": 35, 
	 "gaussian": { 
		 "optdone": 1, 
		 "sigma_profile": "yes", 
		 "theory": "DFT", 
		 "functional": "B3LYP", 
		 "basiset": "6-31G**", 
		 "properties": { 
			 "R2extent": 8103.017, 
			 "electric_dipole_moment_norm": 4.58419835304, 
			 "electric_quadrupole_moment_norm": 18.3507040249, 
			 "total_energy": -1304.58265342, 
			 "HOMO_LUMO_gap": 0.163, 
			 "cosmo_polarized_energy": -12.43, 
			 "cosmo_cavitation_energy": 40.44, 
			 "cosmo_dispersion_energy": -28.67, 
			 "cosmo_repulsion_energy": 2.21, 
			 "cosmo_total_nonelectrostatic_energy": 13.98, 
			 "SMD_solvation_energy": 8.46 
		},
		"coords": [
			{
				"x": 4.5235112738,
				"y": 0.5204247918,
				"z": 3.7452879831,
				"element": "C" 
			},
			{
				"x": 4.0671862639,
				"y": 1.5551036751,
				"z": 2.8877904682,
				"element": "O" 
			},
			{
				"x": 3.576529253,
				"y": 1.209614342,
				"z": 1.6632526631,
				"element": "C" 
			},
			{
				"x": 3.1461463256,
				"y": 2.2698697688,
				"z": 0.8544287922,
				"element": "C" 
			},
			{
				"x": 2.6276543206,
				"y": 2.0248162256,
				"z": -0.4120708501,
				"element": "C" 
			},
			{
				"x": 2.5212775524,
				"y": 0.7175469716,
				"z": -0.9042592943,
				"element": "C" 
			},
			{
				"x": 2.9607906526,
				"y": -0.3347302397,
				"z": -0.0912319428,
				"element": "C" 
			},
			{
				"x": 3.4833726058,
				"y": -0.102071762,
				"z": 1.1814246715,
				"element": "C" 
			},
			{
				"x": 1.9932371372,
				"y": 0.3583138405,
				"z": -2.2860559725,
				"element": "C" 
			},
			{
				"x": 1.4437370901,
				"y": 1.7940232704,
				"z": -3.2735332093,
				"element": "Cl" 
			},
			{
				"x": 0.896279178,
				"y": -0.7346646098,
				"z": -2.253859806,
				"element": "C" 
			},
			{
				"x": 1.2253923043,
				"y": -1.8395999262,
				"z": -2.6656347353,
				"element": "O" 
			},
			{
				"x": -0.4609057319,
				"y": -0.4802231092,
				"z": -1.7123370627,
				"element": "C" 
			},
			{
				"x": -0.8437775421,
				"y": 0.7034933708,
				"z": -1.0661121612,
				"element": "C" 
			},
			{
				"x": -2.1324596216,
				"y": 0.8642533442,
				"z": -0.5610817107,
				"element": "C" 
			},
			{
				"x": -3.0686832186,
				"y": -0.1694300944,
				"z": -0.7053189793,
				"element": "C" 
			},
			{
				"x": -4.3492693261,
				"y": -0.1173866712,
				"z": -0.258185353,
				"element": "O" 
			},
			{
				"x": -4.7948816101,
				"y": 1.0631532832,
				"z": 0.3968384575,
				"element": "C" 
			},
			{
				"x": -2.6975227756,
				"y": -1.3632677034,
				"z": -1.3505826319,
				"element": "C" 
			},
			{
				"x": -1.4134816899,
				"y": -1.512538184,
				"z": -1.8397159422,
				"element": "C" 
			},
			{
				"x": 5.357328886,
				"y": -0.0371267812,
				"z": 3.299627484,
				"element": "H" 
			},
			{
				"x": 4.8682715045,
				"y": 1.0135660933,
				"z": 4.655368868,
				"element": "H" 
			},
			{
				"x": 3.7181546674,
				"y": -0.1811140224,
				"z": 3.998398907,
				"element": "H" 
			},
			{
				"x": 3.2313302177,
				"y": 3.2815568439,
				"z": 1.2373897778,
				"element": "H" 
			},
			{
				"x": 2.3087646049,
				"y": 2.8593087103,
				"z": -1.0264872347,
				"element": "H" 
			},
			{
				"x": 2.8983699292,
				"y": -1.3569127963,
				"z": -0.4543271818,
				"element": "H" 
			},
			{
				"x": 3.8118488629,
				"y": -0.9437023607,
				"z": 1.779363503,
				"element": "H" 
			},
			{
				"x": 2.7911502964,
				"y": -0.0808489705,
				"z": -2.8860674451,
				"element": "H" 
			},
			{
				"x": -0.1345195735,
				"y": 1.5117202828,
				"z": -0.9403038686,
				"element": "H" 
			},
			{
				"x": -2.3946971691,
				"y": 1.7892452357,
				"z": -0.0622460231,
				"element": "H" 
			},
			{
				"x": -4.2201986745,
				"y": 1.2578504573,
				"z": 1.3107029962,
				"element": "H" 
			},
			{
				"x": -4.7318457981,
				"y": 1.9373108294,
				"z": -0.2627263241,
				"element": "H" 
			},
			{
				"x": -5.8383194866,
				"y": 0.8840411004,
				"z": 0.6590462963,
				"element": "H" 
			},
			{
				"x": -3.4385081855,
				"y": -2.1495714882,
				"z": -1.449453635,
				"element": "H" 
			},
			{
				"x": -1.1123625231,
				"y": -2.4296237179,
				"z": -2.3343295041,
				"element": "H" 
			}
		],
		 "valence_orbital": [ 
			{
				"type": "occ",
				"energy": -0.25993,
				"method": "rhf"
			},
			{
				"type": "occ",
				"energy": -0.25732,
				"method": "rhf"
			},
			{
				"type": "occ",
				"energy": -0.2539,
				"method": "rhf"
			},
			{
				"type": "occ",
				"energy": -0.2311,
				"method": "rhf"
			},
			{
				"type": "occ",
				"energy": -0.21967,
				"method": "rhf"
			},
			{
				"type": "unocc",
				"energy": -0.05667,
				"method": "rhf"
			},
			{
				"type": "unocc",
				"energy": -0.01043,
				"method": "rhf"
			},
			{
				"type": "unocc",
				"energy": -0.00777,
				"method": "rhf"
			},
			{
				"type": "unocc",
				"energy": 0.00421,
				"method": "rhf"
			},
			{
				"type": "unocc",
				"energy": 0.01439,
				"method": "rhf"
			}
		],
		"cosmo_sigma_profile": { 
			"-0.025": 0.0,
			"-0.024": 0.0,
			"-0.023": 0.0,
			"-0.022": 0.0,
			"-0.021": 0.0,
			"-0.02": 0.0,
			"-0.019": 0.0,
			"-0.018": 0.0,
			"-0.017": 0.0,
			"-0.016": 0.0,
			"-0.015": 0.0,
			"-0.014": 0.0,
			"-0.013": 0.0,
			"-0.012": 0.0,
			"-0.011": 0.0,
			"-0.01": 0.0,
			"-0.009": 0.0,
			"-0.008": 0.837770320356,
			"-0.007": 6.07855861925,
			"-0.006": 23.2228464405,
			"-0.005": 30.4578118227,
			"-0.004": 29.2290768068,
			"-0.003": 27.9046045603,
			"-0.002": 18.0431912554,
			"-0.001": 18.9391403275,
			"0.0": 19.3177261516,
			"0.001": 21.1643178456,
			"0.002": 27.9155555529,
			"0.003": 31.5931842655,
			"0.004": 27.3209350724,
			"0.005": 14.8355666813,
			"0.006": 5.83246547035,
			"0.007": 2.86344530546,
			"0.008": 5.11530384057,
			"0.009": 3.92503881507,
			"0.01": 4.2874158448,
			"0.011": 3.83411800794,
			"0.012": 1.76881530405,
			"0.013": 0.103321711669,
			"0.014": 0.0,
			"0.015": 0.0,
			"0.016": 0.0,
			"0.017": 0.0,
			"0.018": 0.0,
			"0.019": 0.0,
			"0.02": 0.0,
			"0.021": 0.0,
			"0.022": 0.0,
			"0.023": 0.0,
			"0.024": 0.0,
			"0.025": 0.0
		}
	}
}
