{
	 "smiles": "CN1C=CN=C1SCC(O)=O", 
	 "Tm": 362.15, 
	 "num_atms": 19, 
	 "gaussian": { 
		 "optdone": 1, 
		 "sigma_profile": "yes", 
		 "theory": "DFT", 
		 "functional": "B3LYP", 
		 "basiset": "6-31G**", 
		 "properties": { 
			 "R2extent": 3157.2677, 
			 "electric_dipole_moment_norm": 8.36676121806, 
			 "electric_quadrupole_moment_norm": 19.6953364792, 
			 "total_energy": -891.604338427, 
			 "HOMO_LUMO_gap": 0.21268, 
			 "cosmo_polarized_energy": -15.88, 
			 "cosmo_cavitation_energy": 24.4, 
			 "cosmo_dispersion_energy": -18.53, 
			 "cosmo_repulsion_energy": 1.44, 
			 "cosmo_total_nonelectrostatic_energy": 7.31, 
			 "SMD_solvation_energy": 5.39 
		},
		"coords": [
			{
				"x": 3.9577079625,
				"y": 1.6950524912,
				"z": 0.8551682381,
				"element": "C" 
			},
			{
				"x": 2.5393481907,
				"y": 1.4003372486,
				"z": 0.7089422669,
				"element": "N" 
			},
			{
				"x": 1.4894906624,
				"y": 2.2544405244,
				"z": 1.0107639037,
				"element": "C" 
			},
			{
				"x": 0.3432989167,
				"y": 1.5715547281,
				"z": 0.7098278285,
				"element": "C" 
			},
			{
				"x": 0.6580034034,
				"y": 0.3267549637,
				"z": 0.211322077,
				"element": "N" 
			},
			{
				"x": 1.9800790254,
				"y": 0.251803489,
				"z": 0.2242257144,
				"element": "C" 
			},
			{
				"x": 2.9304336538,
				"y": -1.1320533138,
				"z": -0.3201551164,
				"element": "S" 
			},
			{
				"x": 1.7489326979,
				"y": -2.49956144,
				"z": 0.058029487,
				"element": "C" 
			},
			{
				"x": 0.6704348333,
				"y": -2.7643422759,
				"z": -1.0067415699,
				"element": "C" 
			},
			{
				"x": -0.2147951501,
				"y": -1.7938105993,
				"z": -1.2184539764,
				"element": "O" 
			},
			{
				"x": 0.629613424,
				"y": -3.8279930339,
				"z": -1.5841830256,
				"element": "O" 
			},
			{
				"x": 4.0932933122,
				"y": 2.3970125433,
				"z": 1.6798414903,
				"element": "H" 
			},
			{
				"x": 4.4962114695,
				"y": 0.7726615105,
				"z": 1.0820951789,
				"element": "H" 
			},
			{
				"x": 4.3689430034,
				"y": 2.1324402418,
				"z": -0.0599860838,
				"element": "H" 
			},
			{
				"x": 1.6630582441,
				"y": 3.2445581307,
				"z": 1.4026999653,
				"element": "H" 
			},
			{
				"x": -0.6820663314,
				"y": 1.8938280715,
				"z": 0.8155480481,
				"element": "H" 
			},
			{
				"x": 1.2965876635,
				"y": -2.2899744083,
				"z": 1.0312556681,
				"element": "H" 
			},
			{
				"x": 2.3673120361,
				"y": -3.3944791214,
				"z": 0.1277943952,
				"element": "H" 
			},
			{
				"x": -0.0281870177,
				"y": -0.9854297499,
				"z": -0.6574944895,
				"element": "H" 
			}
		],
		 "valence_orbital": [ 
			{
				"type": "occ",
				"energy": -0.30204,
				"method": "rhf"
			},
			{
				"type": "occ",
				"energy": -0.29349,
				"method": "rhf"
			},
			{
				"type": "occ",
				"energy": -0.2873,
				"method": "rhf"
			},
			{
				"type": "occ",
				"energy": -0.25053,
				"method": "rhf"
			},
			{
				"type": "occ",
				"energy": -0.22841,
				"method": "rhf"
			},
			{
				"type": "unocc",
				"energy": -0.01573,
				"method": "rhf"
			},
			{
				"type": "unocc",
				"energy": 0.00519,
				"method": "rhf"
			},
			{
				"type": "unocc",
				"energy": 0.03397,
				"method": "rhf"
			},
			{
				"type": "unocc",
				"energy": 0.03777,
				"method": "rhf"
			},
			{
				"type": "unocc",
				"energy": 0.07164,
				"method": "rhf"
			}
		],
		"cosmo_sigma_profile": { 
			"-0.025": 0.0,
			"-0.024": 0.0,
			"-0.023": 0.0,
			"-0.022": 0.0,
			"-0.021": 0.0,
			"-0.02": 0.0,
			"-0.019": 0.0,
			"-0.018": 0.0,
			"-0.017": 0.0,
			"-0.016": 0.0,
			"-0.015": 0.0,
			"-0.014": 0.0,
			"-0.013": 0.0,
			"-0.012": 0.0,
			"-0.011": 0.0,
			"-0.01": 0.174704367309,
			"-0.009": 3.45958880338,
			"-0.008": 8.10800487705,
			"-0.007": 11.1984122213,
			"-0.006": 14.0865565607,
			"-0.005": 15.3014172107,
			"-0.004": 17.7059209104,
			"-0.003": 12.5896482519,
			"-0.002": 8.62077279321,
			"-0.001": 10.4484206041,
			"0.0": 11.8516015985,
			"0.001": 11.4835937752,
			"0.002": 11.0149691596,
			"0.003": 10.433893893,
			"0.004": 10.2913031892,
			"0.005": 7.7401962686,
			"0.006": 4.53130523936,
			"0.007": 2.42898949124,
			"0.008": 2.06900673082,
			"0.009": 2.87882343244,
			"0.01": 3.98908203659,
			"0.011": 4.22034312475,
			"0.012": 7.73775045323,
			"0.013": 3.61951197971,
			"0.014": 0.879915286826,
			"0.015": 0.0,
			"0.016": 0.0,
			"0.017": 0.0,
			"0.018": 0.0,
			"0.019": 0.0,
			"0.02": 0.0,
			"0.021": 0.0,
			"0.022": 0.0,
			"0.023": 0.0,
			"0.024": 0.0,
			"0.025": 0.0
		}
	}
}
