{
	 "smiles": "CC(C)C1=CC=CC=C1Br", 
	 "Tm": 214.15, 
	 "num_atms": 21, 
	 "gaussian": { 
		 "optdone": 1, 
		 "sigma_profile": "yes", 
		 "theory": "DFT", 
		 "functional": "B3LYP", 
		 "basiset": "6-31G**", 
		 "properties": { 
			 "R2extent": 2626.4315, 
			 "electric_dipole_moment_norm": 1.60249334788, 
			 "electric_quadrupole_moment_norm": 4.88834504613, 
			 "total_energy": -2921.00133219, 
			 "HOMO_LUMO_gap": 0.2269, 
			 "cosmo_polarized_energy": -3.39, 
			 "cosmo_cavitation_energy": 25.07, 
			 "cosmo_dispersion_energy": -18.68, 
			 "cosmo_repulsion_energy": 1.5, 
			 "cosmo_total_nonelectrostatic_energy": 7.89, 
			 "SMD_solvation_energy": 3.56 
		},
		"coords": [
			{
				"x": -2.6555983947,
				"y": 0.166083941,
				"z": -2.6254592245,
				"element": "C" 
			},
			{
				"x": -2.0172001103,
				"y": 0.9263332328,
				"z": -1.4461797421,
				"element": "C" 
			},
			{
				"x": -0.9217068332,
				"y": 1.906456677,
				"z": -1.910431972,
				"element": "C" 
			},
			{
				"x": -1.5682951126,
				"y": 0.0110919269,
				"z": -0.3070593567,
				"element": "C" 
			},
			{
				"x": -2.2182334404,
				"y": 0.1483621036,
				"z": 0.9333556288,
				"element": "C" 
			},
			{
				"x": -1.8994110065,
				"y": -0.6263368097,
				"z": 2.0460077362,
				"element": "C" 
			},
			{
				"x": -0.8947927233,
				"y": -1.5871490659,
				"z": 1.9502409232,
				"element": "C" 
			},
			{
				"x": -0.2256839262,
				"y": -1.7560660178,
				"z": 0.7403215497,
				"element": "C" 
			},
			{
				"x": -0.56167491,
				"y": -0.9683054698,
				"z": -0.3625609286,
				"element": "C" 
			},
			{
				"x": 0.458123341,
				"y": -1.3277252535,
				"z": -1.9588268203,
				"element": "Br" 
			},
			{
				"x": -3.0702023514,
				"y": 0.8802438244,
				"z": -3.3453443013,
				"element": "H" 
			},
			{
				"x": -3.4709716514,
				"y": -0.4778134216,
				"z": -2.2806707428,
				"element": "H" 
			},
			{
				"x": -1.9297026649,
				"y": -0.4581276925,
				"z": -3.1504233654,
				"element": "H" 
			},
			{
				"x": -2.8147894572,
				"y": 1.5430052286,
				"z": -1.0130365931,
				"element": "H" 
			},
			{
				"x": -0.0880790702,
				"y": 1.3901953859,
				"z": -2.390753814,
				"element": "H" 
			},
			{
				"x": -1.3411314963,
				"y": 2.6155311208,
				"z": -2.632551209,
				"element": "H" 
			},
			{
				"x": -0.5253647032,
				"y": 2.4791635803,
				"z": -1.0658959725,
				"element": "H" 
			},
			{
				"x": -3.0031967425,
				"y": 0.8956638834,
				"z": 1.0165660855,
				"element": "H" 
			},
			{
				"x": -2.4336255884,
				"y": -0.4782039385,
				"z": 2.9797495412,
				"element": "H" 
			},
			{
				"x": -0.6286219463,
				"y": -2.2029923182,
				"z": 2.8039818682,
				"element": "H" 
			},
			{
				"x": 0.5591587878,
				"y": -2.4975109173,
				"z": 0.6431707094,
				"element": "H" 
			}
		],
		 "valence_orbital": [ 
			{
				"type": "occ",
				"energy": -0.32562,
				"method": "rhf"
			},
			{
				"type": "occ",
				"energy": -0.30802,
				"method": "rhf"
			},
			{
				"type": "occ",
				"energy": -0.27866,
				"method": "rhf"
			},
			{
				"type": "occ",
				"energy": -0.25321,
				"method": "rhf"
			},
			{
				"type": "occ",
				"energy": -0.23891,
				"method": "rhf"
			},
			{
				"type": "unocc",
				"energy": -0.01201,
				"method": "rhf"
			},
			{
				"type": "unocc",
				"energy": -0.00906,
				"method": "rhf"
			},
			{
				"type": "unocc",
				"energy": 0.00798,
				"method": "rhf"
			},
			{
				"type": "unocc",
				"energy": 0.0925,
				"method": "rhf"
			},
			{
				"type": "unocc",
				"energy": 0.10956,
				"method": "rhf"
			}
		],
		"cosmo_sigma_profile": { 
			"-0.025": 0.0,
			"-0.024": 0.0,
			"-0.023": 0.0,
			"-0.022": 0.0,
			"-0.021": 0.0,
			"-0.02": 0.0,
			"-0.019": 0.0,
			"-0.018": 0.0,
			"-0.017": 0.0,
			"-0.016": 0.0,
			"-0.015": 0.0,
			"-0.014": 0.0,
			"-0.013": 0.0,
			"-0.012": 0.0,
			"-0.011": 0.0,
			"-0.01": 0.0,
			"-0.009": 0.0,
			"-0.008": 0.0,
			"-0.007": 0.92610118339,
			"-0.006": 7.53122645733,
			"-0.005": 9.00974425787,
			"-0.004": 11.3511725162,
			"-0.003": 15.9741571212,
			"-0.002": 18.4877879923,
			"-0.001": 21.049323749,
			"0.0": 20.7381293985,
			"0.001": 28.4898624412,
			"0.002": 24.0222982707,
			"0.003": 15.4125282605,
			"0.004": 16.5978239922,
			"0.005": 11.311654122,
			"0.006": 0.260300895507,
			"0.007": 0.0,
			"0.008": 0.0,
			"0.009": 0.0,
			"0.01": 0.0,
			"0.011": 0.0,
			"0.012": 0.0,
			"0.013": 0.0,
			"0.014": 0.0,
			"0.015": 0.0,
			"0.016": 0.0,
			"0.017": 0.0,
			"0.018": 0.0,
			"0.019": 0.0,
			"0.02": 0.0,
			"0.021": 0.0,
			"0.022": 0.0,
			"0.023": 0.0,
			"0.024": 0.0,
			"0.025": 0.0
		}
	}
}
