{
	 "smiles": "C1CCC(CC1)P(C1CCCCC1)C1CCCCC1", 
	 "Tm": 353.15, 
	 "num_atms": 52, 
	 "gaussian": { 
		 "optdone": 1, 
		 "sigma_profile": "yes", 
		 "theory": "DFT", 
		 "functional": "B3LYP", 
		 "basiset": "6-31G**", 
		 "properties": { 
			 "R2extent": 6681.2619, 
			 "electric_dipole_moment_norm": 1.27510715236, 
			 "electric_quadrupole_moment_norm": 3.45800464719, 
			 "total_energy": -1047.17267969, 
			 "HOMO_LUMO_gap": 0.25263, 
			 "cosmo_polarized_energy": -4.04, 
			 "cosmo_cavitation_energy": 45.26, 
			 "cosmo_dispersion_energy": -32.15, 
			 "cosmo_repulsion_energy": 2.54, 
			 "cosmo_total_nonelectrostatic_energy": 15.64, 
			 "SMD_solvation_energy": 4.94 
		},
		"coords": [
			{
				"x": -3.275826683,
				"y": 3.2054176854,
				"z": -0.8057819947,
				"element": "C" 
			},
			{
				"x": -3.3830408754,
				"y": 2.1916049651,
				"z": 0.3394621257,
				"element": "C" 
			},
			{
				"x": -1.9850221984,
				"y": 1.8205446742,
				"z": 0.8816557156,
				"element": "C" 
			},
			{
				"x": -0.9060283385,
				"y": 1.7535768595,
				"z": -0.241843175,
				"element": "C" 
			},
			{
				"x": -1.5456557662,
				"y": 1.470536304,
				"z": -1.6158719788,
				"element": "C" 
			},
			{
				"x": -2.5321940492,
				"y": 2.5958519945,
				"z": -2.0198207818,
				"element": "C" 
			},
			{
				"x": 0.6040663582,
				"y": 0.7493019123,
				"z": 0.3245557897,
				"element": "P" 
			},
			{
				"x": 0.2205146469,
				"y": -1.0709139339,
				"z": -0.0789067533,
				"element": "C" 
			},
			{
				"x": 1.2649856504,
				"y": -1.9816673875,
				"z": 0.6382985881,
				"element": "C" 
			},
			{
				"x": 0.7420892562,
				"y": -3.4100452379,
				"z": 0.9280264551,
				"element": "C" 
			},
			{
				"x": -0.2511775901,
				"y": -3.8629472989,
				"z": -0.1464000557,
				"element": "C" 
			},
			{
				"x": -1.5005079177,
				"y": -2.95226198,
				"z": -0.1386019541,
				"element": "C" 
			},
			{
				"x": -1.1899429564,
				"y": -1.5192508705,
				"z": 0.3602769044,
				"element": "C" 
			},
			{
				"x": 1.8679303094,
				"y": 1.3772565688,
				"z": -0.9820300093,
				"element": "C" 
			},
			{
				"x": 2.0328539688,
				"y": 0.6683576705,
				"z": -2.3503011226,
				"element": "C" 
			},
			{
				"x": 2.9985178468,
				"y": -0.5290157132,
				"z": -2.3528012112,
				"element": "C" 
			},
			{
				"x": 4.3482007328,
				"y": -0.190631492,
				"z": -1.7020540324,
				"element": "C" 
			},
			{
				"x": 4.1589928265,
				"y": 0.406926278,
				"z": -0.3001195504,
				"element": "C" 
			},
			{
				"x": 3.256017177,
				"y": 1.6458508737,
				"z": -0.3496552559,
				"element": "C" 
			},
			{
				"x": -4.2678583697,
				"y": 3.5590681876,
				"z": -1.1083714432,
				"element": "H" 
			},
			{
				"x": -2.7359440649,
				"y": 4.0895799941,
				"z": -0.4417211988,
				"element": "H" 
			},
			{
				"x": -3.8960566328,
				"y": 1.291381725,
				"z": -0.025305085,
				"element": "H" 
			},
			{
				"x": -4.0032344183,
				"y": 2.5852879047,
				"z": 1.1530076549,
				"element": "H" 
			},
			{
				"x": -1.6660231427,
				"y": 2.5662704822,
				"z": 1.6192753883,
				"element": "H" 
			},
			{
				"x": -2.0496708694,
				"y": 0.8748575446,
				"z": 1.4281997396,
				"element": "H" 
			},
			{
				"x": -0.465962845,
				"y": 2.7590718199,
				"z": -0.3101059542,
				"element": "H" 
			},
			{
				"x": -0.778943548,
				"y": 1.3711572062,
				"z": -2.389661272,
				"element": "H" 
			},
			{
				"x": -2.0745940149,
				"y": 0.5114034754,
				"z": -1.5893589794,
				"element": "H" 
			},
			{
				"x": -1.9888399544,
				"y": 3.3879475456,
				"z": -2.549226081,
				"element": "H" 
			},
			{
				"x": -3.2563550535,
				"y": 2.1910401431,
				"z": -2.7373714762,
				"element": "H" 
			},
			{
				"x": 0.2907444717,
				"y": -1.2217392195,
				"z": -1.1637706533,
				"element": "H" 
			},
			{
				"x": 2.1706137618,
				"y": -2.0510848487,
				"z": 0.0288670463,
				"element": "H" 
			},
			{
				"x": 1.5679124174,
				"y": -1.5120189629,
				"z": 1.5820076593,
				"element": "H" 
			},
			{
				"x": 0.2445173298,
				"y": -3.4360763021,
				"z": 1.9061129957,
				"element": "H" 
			},
			{
				"x": 1.5870110767,
				"y": -4.1044242592,
				"z": 0.9990096484,
				"element": "H" 
			},
			{
				"x": 0.2406301373,
				"y": -3.8186730708,
				"z": -1.1269567297,
				"element": "H" 
			},
			{
				"x": -0.5410059708,
				"y": -4.9092001908,
				"z": 0.0023267629,
				"element": "H" 
			},
			{
				"x": -1.9271923727,
				"y": -2.9041389053,
				"z": -1.1478892573,
				"element": "H" 
			},
			{
				"x": -2.2773028374,
				"y": -3.387442968,
				"z": 0.5020748622,
				"element": "H" 
			},
			{
				"x": -1.2481095336,
				"y": -1.4841645794,
				"z": 1.4558555308,
				"element": "H" 
			},
			{
				"x": -1.9649679832,
				"y": -0.8441040809,
				"z": -0.0063114167,
				"element": "H" 
			},
			{
				"x": 1.4384387311,
				"y": 2.364257782,
				"z": -1.196064383,
				"element": "H" 
			},
			{
				"x": 2.4262055387,
				"y": 1.4171940624,
				"z": -3.0544921085,
				"element": "H" 
			},
			{
				"x": 1.062518318,
				"y": 0.360034481,
				"z": -2.7535379359,
				"element": "H" 
			},
			{
				"x": 2.5464979324,
				"y": -1.3752915418,
				"z": -1.8252484368,
				"element": "H" 
			},
			{
				"x": 3.1516310088,
				"y": -0.8632535532,
				"z": -3.3865615332,
				"element": "H" 
			},
			{
				"x": 4.980986209,
				"y": -1.0855063046,
				"z": -1.6589569491,
				"element": "H" 
			},
			{
				"x": 4.8811190712,
				"y": 0.5374398791,
				"z": -2.3308256592,
				"element": "H" 
			},
			{
				"x": 5.1310113448,
				"y": 0.674414621,
				"z": 0.1318887803,
				"element": "H" 
			},
			{
				"x": 3.7204983827,
				"y": -0.3449669546,
				"z": 0.3689216241,
				"element": "H" 
			},
			{
				"x": 3.7622800662,
				"y": 2.4124846756,
				"z": -0.9559759844,
				"element": "H" 
			},
			{
				"x": 3.1333734159,
				"y": 2.0707023404,
				"z": 0.6524771404,
				"element": "H" 
			}
		],
		 "valence_orbital": [ 
			{
				"type": "occ",
				"energy": -0.29315,
				"method": "rhf"
			},
			{
				"type": "occ",
				"energy": -0.28829,
				"method": "rhf"
			},
			{
				"type": "occ",
				"energy": -0.26971,
				"method": "rhf"
			},
			{
				"type": "occ",
				"energy": -0.26527,
				"method": "rhf"
			},
			{
				"type": "occ",
				"energy": -0.20294,
				"method": "rhf"
			},
			{
				"type": "unocc",
				"energy": 0.04969,
				"method": "rhf"
			},
			{
				"type": "unocc",
				"energy": 0.05679,
				"method": "rhf"
			},
			{
				"type": "unocc",
				"energy": 0.07133,
				"method": "rhf"
			},
			{
				"type": "unocc",
				"energy": 0.0796,
				"method": "rhf"
			},
			{
				"type": "unocc",
				"energy": 0.08639,
				"method": "rhf"
			}
		],
		"cosmo_sigma_profile": { 
			"-0.025": 0.0,
			"-0.024": 0.0,
			"-0.023": 0.0,
			"-0.022": 0.0,
			"-0.021": 0.0,
			"-0.02": 0.0,
			"-0.019": 0.0,
			"-0.018": 0.0,
			"-0.017": 0.0,
			"-0.016": 0.0,
			"-0.015": 0.0,
			"-0.014": 0.0,
			"-0.013": 0.0,
			"-0.012": 0.0,
			"-0.011": 0.0,
			"-0.01": 0.0,
			"-0.009": 0.103339610152,
			"-0.008": 0.255461483137,
			"-0.007": 0.0794789535493,
			"-0.006": 0.0155374343599,
			"-0.005": 0.0418289323608,
			"-0.004": 1.94372651814,
			"-0.003": 9.43572982181,
			"-0.002": 57.5213239319,
			"-0.001": 87.5843088425,
			"0.0": 81.0182214944,
			"0.001": 64.2939570244,
			"0.002": 26.6815596224,
			"0.003": 2.30879741543,
			"0.004": 1.99251790624,
			"0.005": 1.59667042806,
			"0.006": 1.96614656853,
			"0.007": 0.933077700437,
			"0.008": 1.08474034144,
			"0.009": 0.772524033824,
			"0.01": 0.671297577185,
			"0.011": 0.906757708136,
			"0.012": 0.741233271258,
			"0.013": 0.2930028077,
			"0.014": 0.74140570758,
			"0.015": 0.516068961413,
			"0.016": 0.636077269367,
			"0.017": 0.460248585513,
			"0.018": 0.237720910696,
			"0.019": 0.0,
			"0.02": 0.0,
			"0.021": 0.0,
			"0.022": 0.0,
			"0.023": 0.0,
			"0.024": 0.0,
			"0.025": 0.0
		}
	}
}
