{
	 "smiles": "CCOC(=O)C1=CC=C(OC2=CC=C(C)N=N2)C=C1", 
	 "Tm": 344.65, 
	 "num_atms": 33, 
	 "gaussian": { 
		 "optdone": 1, 
		 "sigma_profile": "yes", 
		 "theory": "DFT", 
		 "functional": "B3LYP", 
		 "basiset": "6-31G**", 
		 "properties": { 
			 "R2extent": 8970.2302, 
			 "electric_dipole_moment_norm": 5.18688687172, 
			 "electric_quadrupole_moment_norm": 20.9362775593, 
			 "total_energy": -877.07811116, 
			 "HOMO_LUMO_gap": 0.17897, 
			 "cosmo_polarized_energy": -17.42, 
			 "cosmo_cavitation_energy": 38.34, 
			 "cosmo_dispersion_energy": -27.54, 
			 "cosmo_repulsion_energy": 2.14, 
			 "cosmo_total_nonelectrostatic_energy": 12.95, 
			 "SMD_solvation_energy": 6.13 
		},
		"coords": [
			{
				"x": -5.4487442508,
				"y": 1.0469928177,
				"z": 2.2259264111,
				"element": "C" 
			},
			{
				"x": -4.8436499814,
				"y": -0.1512788532,
				"z": 2.9419665614,
				"element": "C" 
			},
			{
				"x": -3.5209681659,
				"y": -0.4539027367,
				"z": 2.43876019,
				"element": "O" 
			},
			{
				"x": -3.4596292213,
				"y": -1.2410653497,
				"z": 1.3391663682,
				"element": "C" 
			},
			{
				"x": -4.4411921527,
				"y": -1.6900210995,
				"z": 0.7766573202,
				"element": "O" 
			},
			{
				"x": -2.0594848852,
				"y": -1.4951456459,
				"z": 0.9033722184,
				"element": "C" 
			},
			{
				"x": -1.8574656611,
				"y": -2.3065371716,
				"z": -0.2227091083,
				"element": "C" 
			},
			{
				"x": -0.5731356648,
				"y": -2.5742182121,
				"z": -0.6792700303,
				"element": "C" 
			},
			{
				"x": 0.5236271778,
				"y": -2.0296483185,
				"z": -0.0039251512,
				"element": "C" 
			},
			{
				"x": 1.7705606242,
				"y": -2.3855818334,
				"z": -0.4703234479,
				"element": "O" 
			},
			{
				"x": 2.8143025392,
				"y": -1.4960358025,
				"z": -0.4309059108,
				"element": "C" 
			},
			{
				"x": 2.6590652391,
				"y": -0.1457007559,
				"z": -0.786843748,
				"element": "C" 
			},
			{
				"x": 3.8055093141,
				"y": 0.6187016087,
				"z": -0.7893335368,
				"element": "C" 
			},
			{
				"x": 5.0242159138,
				"y": -0.0002831482,
				"z": -0.4474233926,
				"element": "C" 
			},
			{
				"x": 6.3251522266,
				"y": 0.7570970881,
				"z": -0.4220959637,
				"element": "C" 
			},
			{
				"x": 5.0851113835,
				"y": -1.2981662322,
				"z": -0.1310226272,
				"element": "N" 
			},
			{
				"x": 3.9776959834,
				"y": -2.0459673874,
				"z": -0.1179350571,
				"element": "N" 
			},
			{
				"x": 0.3414865505,
				"y": -1.2287983093,
				"z": 1.1293050312,
				"element": "C" 
			},
			{
				"x": -0.9502207835,
				"y": -0.9621899707,
				"z": 1.5746365384,
				"element": "C" 
			},
			{
				"x": -5.6132469227,
				"y": 0.8193788035,
				"z": 1.1700423586,
				"element": "H" 
			},
			{
				"x": -6.4139284441,
				"y": 1.30030608,
				"z": 2.6771314753,
				"element": "H" 
			},
			{
				"x": -4.7937920544,
				"y": 1.9199110405,
				"z": 2.303743412,
				"element": "H" 
			},
			{
				"x": -5.4737011162,
				"y": -1.03654394,
				"z": 2.8290736705,
				"element": "H" 
			},
			{
				"x": -4.6891059481,
				"y": 0.0525141949,
				"z": 4.004315914,
				"element": "H" 
			},
			{
				"x": -2.7249897111,
				"y": -2.7150978585,
				"z": -0.7294600272,
				"element": "H" 
			},
			{
				"x": -0.396782022,
				"y": -3.1995171896,
				"z": -1.5477896537,
				"element": "H" 
			},
			{
				"x": 1.6880750323,
				"y": 0.2587232271,
				"z": -1.0502375746,
				"element": "H" 
			},
			{
				"x": 3.7770128564,
				"y": 1.6707198906,
				"z": -1.0586214075,
				"element": "H" 
			},
			{
				"x": 6.5519334688,
				"y": 1.1891153207,
				"z": -1.4033100342,
				"element": "H" 
			},
			{
				"x": 7.1327864672,
				"y": 0.0796027459,
				"z": -0.1410821993,
				"element": "H" 
			},
			{
				"x": 6.2903134593,
				"y": 1.5824680576,
				"z": 0.2979895611,
				"element": "H" 
			},
			{
				"x": 1.1997515997,
				"y": -0.8344665944,
				"z": 1.6624835299,
				"element": "H" 
			},
			{
				"x": -1.1033628506,
				"y": -0.346564466,
				"z": 2.4533183103,
				"element": "H" 
			}
		],
		 "valence_orbital": [ 
			{
				"type": "occ",
				"energy": -0.27642,
				"method": "rhf"
			},
			{
				"type": "occ",
				"energy": -0.27449,
				"method": "rhf"
			},
			{
				"type": "occ",
				"energy": -0.26867,
				"method": "rhf"
			},
			{
				"type": "occ",
				"energy": -0.24332,
				"method": "rhf"
			},
			{
				"type": "occ",
				"energy": -0.23473,
				"method": "rhf"
			},
			{
				"type": "unocc",
				"energy": -0.05576,
				"method": "rhf"
			},
			{
				"type": "unocc",
				"energy": -0.04781,
				"method": "rhf"
			},
			{
				"type": "unocc",
				"energy": -0.02134,
				"method": "rhf"
			},
			{
				"type": "unocc",
				"energy": -0.01659,
				"method": "rhf"
			},
			{
				"type": "unocc",
				"energy": 0.05608,
				"method": "rhf"
			}
		],
		"cosmo_sigma_profile": { 
			"-0.025": 0.0,
			"-0.024": 0.0,
			"-0.023": 0.0,
			"-0.022": 0.0,
			"-0.021": 0.0,
			"-0.02": 0.0,
			"-0.019": 0.0,
			"-0.018": 0.0,
			"-0.017": 0.0,
			"-0.016": 0.0,
			"-0.015": 0.0,
			"-0.014": 0.0,
			"-0.013": 0.0,
			"-0.012": 0.0,
			"-0.011": 0.0,
			"-0.01": 0.00973393212402,
			"-0.009": 1.63515907843,
			"-0.008": 5.85281435031,
			"-0.007": 8.6678594079,
			"-0.006": 13.8793714517,
			"-0.005": 22.6627276352,
			"-0.004": 24.3231992572,
			"-0.003": 26.9472475934,
			"-0.002": 30.9705055124,
			"-0.001": 31.5246953595,
			"0.0": 29.3366794262,
			"0.001": 21.8209521203,
			"0.002": 18.5546975434,
			"0.003": 14.2991725095,
			"0.004": 6.53229724275,
			"0.005": 7.30896363793,
			"0.006": 4.6819563692,
			"0.007": 4.80274813511,
			"0.008": 3.82356016245,
			"0.009": 4.3974478309,
			"0.01": 3.84937895518,
			"0.011": 5.22660427076,
			"0.012": 6.36435103412,
			"0.013": 2.94988647252,
			"0.014": 2.8479961775,
			"0.015": 2.10295432742,
			"0.016": 0.74676378262,
			"0.017": 0.0,
			"0.018": 0.0,
			"0.019": 0.0,
			"0.02": 0.0,
			"0.021": 0.0,
			"0.022": 0.0,
			"0.023": 0.0,
			"0.024": 0.0,
			"0.025": 0.0
		}
	}
}
