{
	 "smiles": "CC1=C(CC(O)=O)C2=CC(F)=CC=C2C1=CC1=CC=C(C=C1)S(C)=O", 
	 "Tm": 457.15, 
	 "num_atms": 42, 
	 "gaussian": { 
		 "optdone": 1, 
		 "sigma_profile": "yes", 
		 "theory": "DFT", 
		 "functional": "B3LYP", 
		 "basiset": "6-31G**", 
		 "properties": { 
			 "R2extent": 13955.5065, 
			 "electric_dipole_moment_norm": 4.3986814979, 
			 "electric_quadrupole_moment_norm": 33.7124661434, 
			 "total_energy": -1496.02528193, 
			 "HOMO_LUMO_gap": 0.13478, 
			 "cosmo_polarized_energy": -21.52, 
			 "cosmo_cavitation_energy": 48.25, 
			 "cosmo_dispersion_energy": -33.52, 
			 "cosmo_repulsion_energy": 2.47, 
			 "cosmo_total_nonelectrostatic_energy": 17.2, 
			 "SMD_solvation_energy": 9.0 
		},
		"coords": [
			{
				"x": 0.4493431369,
				"y": 2.9095776006,
				"z": -2.6557846185,
				"element": "C" 
			},
			{
				"x": -0.0621886285,
				"y": 1.5012179436,
				"z": -2.6450804219,
				"element": "C" 
			},
			{
				"x": -0.308065212,
				"y": 0.6978541243,
				"z": -3.7175539362,
				"element": "C" 
			},
			{
				"x": -0.1720410115,
				"y": 1.0326414935,
				"z": -5.1796117727,
				"element": "C" 
			},
			{
				"x": 0.9594167508,
				"y": 0.2604770571,
				"z": -5.8411474582,
				"element": "C" 
			},
			{
				"x": 2.1632477547,
				"y": 0.8271621358,
				"z": -5.5943480173,
				"element": "O" 
			},
			{
				"x": 0.8320369167,
				"y": -0.7481414188,
				"z": -6.499541559,
				"element": "O" 
			},
			{
				"x": -0.7925487906,
				"y": -0.6063319365,
				"z": -3.2413839543,
				"element": "C" 
			},
			{
				"x": -1.2109599453,
				"y": -1.7192474076,
				"z": -3.9660440147,
				"element": "C" 
			},
			{
				"x": -1.7071955042,
				"y": -2.8008152913,
				"z": -3.23937672,
				"element": "C" 
			},
			{
				"x": -2.118710815,
				"y": -3.8956730793,
				"z": -3.9131695333,
				"element": "F" 
			},
			{
				"x": -1.807373032,
				"y": -2.7949725261,
				"z": -1.8523985614,
				"element": "C" 
			},
			{
				"x": -1.3676020111,
				"y": -1.673806416,
				"z": -1.1374918753,
				"element": "C" 
			},
			{
				"x": -0.8346237829,
				"y": -0.5840748755,
				"z": -1.8237003375,
				"element": "C" 
			},
			{
				"x": -0.3411258947,
				"y": 0.7473870397,
				"z": -1.3967426808,
				"element": "C" 
			},
			{
				"x": -0.1563666433,
				"y": 1.2977856044,
				"z": -0.1697313059,
				"element": "C" 
			},
			{
				"x": -0.2246496976,
				"y": 0.6986531275,
				"z": 1.1698135526,
				"element": "C" 
			},
			{
				"x": -0.739472394,
				"y": 1.4626093999,
				"z": 2.2348952364,
				"element": "C" 
			},
			{
				"x": -0.7874732909,
				"y": 0.9544369375,
				"z": 3.5304842932,
				"element": "C" 
			},
			{
				"x": -0.2811331525,
				"y": -0.3190192156,
				"z": 3.7814700996,
				"element": "C" 
			},
			{
				"x": 0.2494266711,
				"y": -1.0958274894,
				"z": 2.7486920064,
				"element": "C" 
			},
			{
				"x": 0.2857629739,
				"y": -0.5832588191,
				"z": 1.4546369874,
				"element": "C" 
			},
			{
				"x": -0.407323204,
				"y": -0.9664468506,
				"z": 5.4818971324,
				"element": "S" 
			},
			{
				"x": 1.3764440315,
				"y": -0.7999680521,
				"z": 5.8969236789,
				"element": "C" 
			},
			{
				"x": -1.1485106405,
				"y": 0.0706625281,
				"z": 6.2956035905,
				"element": "O" 
			},
			{
				"x": -0.2348292165,
				"y": 3.5901700285,
				"z": -2.1342591947,
				"element": "H" 
			},
			{
				"x": 1.4219967849,
				"y": 2.9849399643,
				"z": -2.1551444662,
				"element": "H" 
			},
			{
				"x": 0.5787670471,
				"y": 3.2865829996,
				"z": -3.6723174654,
				"element": "H" 
			},
			{
				"x": 0.0082614042,
				"y": 2.1015701639,
				"z": -5.314530492,
				"element": "H" 
			},
			{
				"x": -1.0891207732,
				"y": 0.7644694066,
				"z": -5.7132251615,
				"element": "H" 
			},
			{
				"x": 2.8241989714,
				"y": 0.2568140901,
				"z": -6.0223978384,
				"element": "H" 
			},
			{
				"x": -1.1504255065,
				"y": -1.7688203105,
				"z": -5.0476258208,
				"element": "H" 
			},
			{
				"x": -2.2229593665,
				"y": -3.6594483441,
				"z": -1.3466829378,
				"element": "H" 
			},
			{
				"x": -1.4591101546,
				"y": -1.6700582353,
				"z": -0.0581446203,
				"element": "H" 
			},
			{
				"x": 0.0922043182,
				"y": 2.3580716558,
				"z": -0.1570590781,
				"element": "H" 
			},
			{
				"x": -1.119643456,
				"y": 2.4610687326,
				"z": 2.0349368489,
				"element": "H" 
			},
			{
				"x": -1.2089910198,
				"y": 1.5204956775,
				"z": 4.3562005608,
				"element": "H" 
			},
			{
				"x": 0.6415770587,
				"y": -2.0905736247,
				"z": 2.9469848315,
				"element": "H" 
			},
			{
				"x": 0.7292330758,
				"y": -1.1683449928,
				"z": 0.6563727668,
				"element": "H" 
			},
			{
				"x": 1.494906332,
				"y": -1.1400802342,
				"z": 6.9279891776,
				"element": "H" 
			},
			{
				"x": 1.6613201699,
				"y": 0.2508113208,
				"z": 5.8118088184,
				"element": "H" 
			},
			{
				"x": 1.9719997461,
				"y": -1.4219499122,
				"z": 5.2243842607,
				"element": "H" 
			}
		],
		 "valence_orbital": [ 
			{
				"type": "occ",
				"energy": -0.26916,
				"method": "rhf"
			},
			{
				"type": "occ",
				"energy": -0.26757,
				"method": "rhf"
			},
			{
				"type": "occ",
				"energy": -0.23334,
				"method": "rhf"
			},
			{
				"type": "occ",
				"energy": -0.22003,
				"method": "rhf"
			},
			{
				"type": "occ",
				"energy": -0.21474,
				"method": "rhf"
			},
			{
				"type": "unocc",
				"energy": -0.07996,
				"method": "rhf"
			},
			{
				"type": "unocc",
				"energy": -0.02345,
				"method": "rhf"
			},
			{
				"type": "unocc",
				"energy": -0.02251,
				"method": "rhf"
			},
			{
				"type": "unocc",
				"energy": -0.00651,
				"method": "rhf"
			},
			{
				"type": "unocc",
				"energy": 0.00288,
				"method": "rhf"
			}
		],
		"cosmo_sigma_profile": { 
			"-0.025": 0.0,
			"-0.024": 0.0,
			"-0.023": 0.0,
			"-0.022": 0.0,
			"-0.021": 0.0,
			"-0.02": 0.0,
			"-0.019": 0.0218997493033,
			"-0.018": 1.05980029839,
			"-0.017": 0.810156699736,
			"-0.016": 0.774389147869,
			"-0.015": 0.870724315274,
			"-0.014": 0.253662433724,
			"-0.013": 0.76422422525,
			"-0.012": 0.655548113715,
			"-0.011": 1.38475838417,
			"-0.01": 0.882062465943,
			"-0.009": 1.50703094836,
			"-0.008": 4.52466267629,
			"-0.007": 12.4330844083,
			"-0.006": 20.4789837077,
			"-0.005": 25.9309874814,
			"-0.004": 31.1082421727,
			"-0.003": 29.2657421319,
			"-0.002": 28.0444650752,
			"-0.001": 25.5302325665,
			"0.0": 25.1345963723,
			"0.001": 27.8112102783,
			"0.002": 31.041186706,
			"0.003": 36.4288243984,
			"0.004": 28.5086017742,
			"0.005": 12.002685612,
			"0.006": 3.84011114392,
			"0.007": 5.13364138495,
			"0.008": 3.619917931,
			"0.009": 3.28100349122,
			"0.01": 3.46196935748,
			"0.011": 5.16913098591,
			"0.012": 3.6945703044,
			"0.013": 2.85244224637,
			"0.014": 4.11703729167,
			"0.015": 3.56434445547,
			"0.016": 0.565808721652,
			"0.017": 0.0,
			"0.018": 0.0,
			"0.019": 0.0,
			"0.02": 0.0,
			"0.021": 0.0,
			"0.022": 0.0,
			"0.023": 0.0,
			"0.024": 0.0,
			"0.025": 0.0
		}
	}
}
