{
	 "smiles": "CCCC1=C2OC(=CC(=O)C2=CC=C1O)C(O)=O", 
	 "Tm": 539.15, 
	 "num_atms": 30, 
	 "gaussian": { 
		 "optdone": 1, 
		 "sigma_profile": "yes", 
		 "theory": "DFT", 
		 "functional": "B3LYP", 
		 "basiset": "6-31G**", 
		 "properties": { 
			 "R2extent": 4835.6184, 
			 "electric_dipole_moment_norm": 7.26523598516, 
			 "electric_quadrupole_moment_norm": 15.5176703419, 
			 "total_energy": -878.744190512, 
			 "HOMO_LUMO_gap": 0.16322, 
			 "cosmo_polarized_energy": -21.05, 
			 "cosmo_cavitation_energy": 34.36, 
			 "cosmo_dispersion_energy": -23.91, 
			 "cosmo_repulsion_energy": 1.82, 
			 "cosmo_total_nonelectrostatic_energy": 12.27, 
			 "SMD_solvation_energy": 7.94 
		},
		"coords": [
			{
				"x": 0.8983649089,
				"y": -1.0864941209,
				"z": -2.2098331987,
				"element": "C" 
			},
			{
				"x": 1.714370561,
				"y": 0.2091181103,
				"z": -2.2311720906,
				"element": "C" 
			},
			{
				"x": 1.616401533,
				"y": 1.0515667411,
				"z": -0.9387322789,
				"element": "C" 
			},
			{
				"x": 0.2370537165,
				"y": 1.6043355465,
				"z": -0.654166693,
				"element": "C" 
			},
			{
				"x": -0.6638101798,
				"y": 1.0050977332,
				"z": 0.2370204829,
				"element": "C" 
			},
			{
				"x": -0.2322808793,
				"y": -0.150956857,
				"z": 0.8575744861,
				"element": "O" 
			},
			{
				"x": -1.0561933931,
				"y": -0.7991503556,
				"z": 1.7312157292,
				"element": "C" 
			},
			{
				"x": -2.2923154108,
				"y": -0.3757619642,
				"z": 2.0565318662,
				"element": "C" 
			},
			{
				"x": -2.848950217,
				"y": 0.8469400256,
				"z": 1.4670356189,
				"element": "C" 
			},
			{
				"x": -3.9702713006,
				"y": 1.2697514325,
				"z": 1.7381344234,
				"element": "O" 
			},
			{
				"x": -1.9410512611,
				"y": 1.5209631248,
				"z": 0.5143319351,
				"element": "C" 
			},
			{
				"x": -2.3344253646,
				"y": 2.6957095283,
				"z": -0.1425123936,
				"element": "C" 
			},
			{
				"x": -1.4821558977,
				"y": 3.3193293327,
				"z": -1.0345475441,
				"element": "C" 
			},
			{
				"x": -0.2095283975,
				"y": 2.7750045556,
				"z": -1.2871574758,
				"element": "C" 
			},
			{
				"x": 0.6559026282,
				"y": 3.3639188372,
				"z": -2.159271367,
				"element": "O" 
			},
			{
				"x": -0.4381958169,
				"y": -2.0518747244,
				"z": 2.2889343968,
				"element": "C" 
			},
			{
				"x": 0.7974122189,
				"y": -2.337834421,
				"z": 1.8326414292,
				"element": "O" 
			},
			{
				"x": -1.0113064114,
				"y": -2.7527528046,
				"z": 3.085799925,
				"element": "O" 
			},
			{
				"x": 1.0250358417,
				"y": -1.6429670158,
				"z": -3.1437884638,
				"element": "H" 
			},
			{
				"x": -0.171333922,
				"y": -0.888073773,
				"z": -2.087074899,
				"element": "H" 
			},
			{
				"x": 1.2108881979,
				"y": -1.7469882538,
				"z": -1.3919992446,
				"element": "H" 
			},
			{
				"x": 1.4025194737,
				"y": 0.8301749868,
				"z": -3.078539996,
				"element": "H" 
			},
			{
				"x": 2.7725595326,
				"y": -0.0287054944,
				"z": -2.3964906727,
				"element": "H" 
			},
			{
				"x": 2.3089054834,
				"y": 1.8949478194,
				"z": -1.0223395429,
				"element": "H" 
			},
			{
				"x": 1.95220114,
				"y": 0.452679835,
				"z": -0.0858008204,
				"element": "H" 
			},
			{
				"x": -2.8788459487,
				"y": -0.9533819765,
				"z": 2.7598207796,
				"element": "H" 
			},
			{
				"x": -3.3219285789,
				"y": 3.0881800558,
				"z": 0.075086723,
				"element": "H" 
			},
			{
				"x": -1.7871371957,
				"y": 4.2300186446,
				"z": -1.5450481869,
				"element": "H" 
			},
			{
				"x": 0.2561653398,
				"y": 4.1679975749,
				"z": -2.5158717109,
				"element": "H" 
			},
			{
				"x": 1.0761495995,
				"y": -1.6504921233,
				"z": 1.2060187838,
				"element": "H" 
			}
		],
		 "valence_orbital": [ 
			{
				"type": "occ",
				"energy": -0.2924,
				"method": "rhf"
			},
			{
				"type": "occ",
				"energy": -0.29009,
				"method": "rhf"
			},
			{
				"type": "occ",
				"energy": -0.25441,
				"method": "rhf"
			},
			{
				"type": "occ",
				"energy": -0.25351,
				"method": "rhf"
			},
			{
				"type": "occ",
				"energy": -0.24813,
				"method": "rhf"
			},
			{
				"type": "unocc",
				"energy": -0.08491,
				"method": "rhf"
			},
			{
				"type": "unocc",
				"energy": -0.03632,
				"method": "rhf"
			},
			{
				"type": "unocc",
				"energy": -0.02105,
				"method": "rhf"
			},
			{
				"type": "unocc",
				"energy": 0.0364,
				"method": "rhf"
			},
			{
				"type": "unocc",
				"energy": 0.04227,
				"method": "rhf"
			}
		],
		"cosmo_sigma_profile": { 
			"-0.025": 0.0,
			"-0.024": 0.0,
			"-0.023": 0.0,
			"-0.022": 0.0,
			"-0.021": 0.0,
			"-0.02": 0.0,
			"-0.019": 0.485612768321,
			"-0.018": 1.24202261967,
			"-0.017": 0.786576602835,
			"-0.016": 1.24334012739,
			"-0.015": 1.43243396845,
			"-0.014": 0.755215758497,
			"-0.013": 1.15899238832,
			"-0.012": 1.98790115978,
			"-0.011": 2.57790004716,
			"-0.01": 3.36967258328,
			"-0.009": 3.29232485635,
			"-0.008": 5.57731650571,
			"-0.007": 7.13671098071,
			"-0.006": 8.42229505464,
			"-0.005": 10.6703367909,
			"-0.004": 11.746669986,
			"-0.003": 17.0401362891,
			"-0.002": 23.4842586036,
			"-0.001": 30.1007861309,
			"0.0": 28.5602902564,
			"0.001": 26.2586319324,
			"0.002": 15.4253434357,
			"0.003": 10.3005001131,
			"0.004": 6.28354088819,
			"0.005": 5.08735757404,
			"0.006": 6.30441331735,
			"0.007": 5.44443458094,
			"0.008": 6.91107445858,
			"0.009": 8.00928304078,
			"0.01": 5.71830225526,
			"0.011": 6.31340839911,
			"0.012": 4.64362161878,
			"0.013": 4.43883793671,
			"0.014": 0.883631470005,
			"0.015": 0.0,
			"0.016": 0.0,
			"0.017": 0.0,
			"0.018": 0.0,
			"0.019": 0.0,
			"0.02": 0.0,
			"0.021": 0.0,
			"0.022": 0.0,
			"0.023": 0.0,
			"0.024": 0.0,
			"0.025": 0.0
		}
	}
}
