{
	 "smiles": "OCC1=C(N=C(S1)N1CCOCC1)C1=CC=CC=C1", 
	 "Tm": 392.15, 
	 "num_atms": 35, 
	 "gaussian": { 
		 "optdone": 1, 
		 "sigma_profile": "yes", 
		 "theory": "DFT", 
		 "functional": "B3LYP", 
		 "basiset": "6-31G**", 
		 "properties": { 
			 "R2extent": 7402.6834, 
			 "electric_dipole_moment_norm": 1.69254583099, 
			 "electric_quadrupole_moment_norm": 10.1206749587, 
			 "total_energy": -1201.24362507, 
			 "HOMO_LUMO_gap": 0.16989, 
			 "cosmo_polarized_energy": -14.87, 
			 "cosmo_cavitation_energy": 38.34, 
			 "cosmo_dispersion_energy": -28.57, 
			 "cosmo_repulsion_energy": 2.17, 
			 "cosmo_total_nonelectrostatic_energy": 11.94, 
			 "SMD_solvation_energy": 4.05 
		},
		"coords": [
			{
				"x": -1.1922160765,
				"y": 1.9037369065,
				"z": -3.2677862226,
				"element": "O" 
			},
			{
				"x": -1.7297260888,
				"y": 1.3768023131,
				"z": -2.0469011061,
				"element": "C" 
			},
			{
				"x": -0.6589208715,
				"y": 0.6852070203,
				"z": -1.2715159553,
				"element": "C" 
			},
			{
				"x": -0.2658229715,
				"y": -0.6325963038,
				"z": -1.2870560454,
				"element": "C" 
			},
			{
				"x": 0.7075163572,
				"y": -0.9829979653,
				"z": -0.3674194624,
				"element": "N" 
			},
			{
				"x": 1.1105866904,
				"y": 0.0470418377,
				"z": 0.3258587345,
				"element": "C" 
			},
			{
				"x": 0.2835328508,
				"y": 1.5613250912,
				"z": -0.0714460178,
				"element": "S" 
			},
			{
				"x": 2.12697483,
				"y": -0.0017334587,
				"z": 1.2467714106,
				"element": "N" 
			},
			{
				"x": 2.2851154099,
				"y": 1.0575538812,
				"z": 2.2406575084,
				"element": "C" 
			},
			{
				"x": 3.7154161948,
				"y": 1.0405361151,
				"z": 2.7818550223,
				"element": "C" 
			},
			{
				"x": 4.0665348,
				"y": -0.2392113557,
				"z": 3.2822829047,
				"element": "O" 
			},
			{
				"x": 3.9918901328,
				"y": -1.2177594005,
				"z": 2.2520773836,
				"element": "C" 
			},
			{
				"x": 2.5787678624,
				"y": -1.3262466217,
				"z": 1.6881255045,
				"element": "C" 
			},
			{
				"x": -0.8101240639,
				"y": -1.6942498567,
				"z": -2.1600451952,
				"element": "C" 
			},
			{
				"x": -1.2573881265,
				"y": -1.4241569717,
				"z": -3.465573195,
				"element": "C" 
			},
			{
				"x": -1.776943777,
				"y": -2.4484203558,
				"z": -4.2583790915,
				"element": "C" 
			},
			{
				"x": -1.8480704358,
				"y": -3.7539871147,
				"z": -3.7704746601,
				"element": "C" 
			},
			{
				"x": -1.3852377929,
				"y": -4.0344461473,
				"z": -2.4819152936,
				"element": "C" 
			},
			{
				"x": -0.8669560444,
				"y": -3.0164314568,
				"z": -1.6855562941,
				"element": "C" 
			},
			{
				"x": -1.9149101047,
				"y": 2.3444926593,
				"z": -3.7357415425,
				"element": "H" 
			},
			{
				"x": -2.5286861292,
				"y": 0.6506907468,
				"z": -2.2534641702,
				"element": "H" 
			},
			{
				"x": -2.1654605021,
				"y": 2.1851375836,
				"z": -1.4411279153,
				"element": "H" 
			},
			{
				"x": 1.5712458849,
				"y": 0.9271099103,
				"z": 3.0700320465,
				"element": "H" 
			},
			{
				"x": 2.0911085645,
				"y": 2.0287459747,
				"z": 1.7747487239,
				"element": "H" 
			},
			{
				"x": 3.8107808946,
				"y": 1.7439805258,
				"z": 3.613776417,
				"element": "H" 
			},
			{
				"x": 4.4116721605,
				"y": 1.3423003262,
				"z": 1.982438263,
				"element": "H" 
			},
			{
				"x": 4.6973546626,
				"y": -0.969485587,
				"z": 1.4427922967,
				"element": "H" 
			},
			{
				"x": 4.2937025753,
				"y": -2.1685418257,
				"z": 2.7001066993,
				"element": "H" 
			},
			{
				"x": 2.5477505094,
				"y": -2.0010744489,
				"z": 0.8315340519,
				"element": "H" 
			},
			{
				"x": 1.8991734409,
				"y": -1.7229348452,
				"z": 2.4587846524,
				"element": "H" 
			},
			{
				"x": -1.1608957543,
				"y": -0.4198454858,
				"z": -3.8665407709,
				"element": "H" 
			},
			{
				"x": -2.1125178609,
				"y": -2.2263918839,
				"z": -5.2677837688,
				"element": "H" 
			},
			{
				"x": -2.2494175573,
				"y": -4.5493234976,
				"z": -4.3922928978,
				"element": "H" 
			},
			{
				"x": -1.4274985359,
				"y": -5.0500081615,
				"z": -2.0977817859,
				"element": "H" 
			},
			{
				"x": -0.4983311277,
				"y": -3.2281181475,
				"z": -0.6876402291,
				"element": "H" 
			}
		],
		 "valence_orbital": [ 
			{
				"type": "occ",
				"energy": -0.26558,
				"method": "rhf"
			},
			{
				"type": "occ",
				"energy": -0.26344,
				"method": "rhf"
			},
			{
				"type": "occ",
				"energy": -0.24174,
				"method": "rhf"
			},
			{
				"type": "occ",
				"energy": -0.23514,
				"method": "rhf"
			},
			{
				"type": "occ",
				"energy": -0.19453,
				"method": "rhf"
			},
			{
				"type": "unocc",
				"energy": -0.02464,
				"method": "rhf"
			},
			{
				"type": "unocc",
				"energy": 0.00546,
				"method": "rhf"
			},
			{
				"type": "unocc",
				"energy": 0.01468,
				"method": "rhf"
			},
			{
				"type": "unocc",
				"energy": 0.01829,
				"method": "rhf"
			},
			{
				"type": "unocc",
				"energy": 0.06457,
				"method": "rhf"
			}
		],
		"cosmo_sigma_profile": { 
			"-0.025": 0.0,
			"-0.024": 0.0,
			"-0.023": 0.0,
			"-0.022": 0.0,
			"-0.021": 0.0,
			"-0.02": 0.0,
			"-0.019": 0.0,
			"-0.018": 0.0,
			"-0.017": 0.0,
			"-0.016": 0.65022329672,
			"-0.015": 1.05708932595,
			"-0.014": 0.907506547359,
			"-0.013": 1.04320544452,
			"-0.012": 1.31174689007,
			"-0.011": 0.608580950205,
			"-0.01": 0.733195038825,
			"-0.009": 0.513782675119,
			"-0.008": 1.14177257297,
			"-0.007": 2.25074422753,
			"-0.006": 11.6410284568,
			"-0.005": 27.8593758985,
			"-0.004": 39.5692904111,
			"-0.003": 30.0301683206,
			"-0.002": 20.2681986382,
			"-0.001": 17.4663697181,
			"0.0": 14.5236360651,
			"0.001": 16.6952215442,
			"0.002": 18.1911159836,
			"0.003": 22.3725504558,
			"0.004": 18.3698815672,
			"0.005": 18.7515657987,
			"0.006": 12.5295407704,
			"0.007": 4.83776202105,
			"0.008": 4.85633850111,
			"0.009": 3.40662641592,
			"0.01": 3.17085797034,
			"0.011": 3.31080318531,
			"0.012": 3.07203434336,
			"0.013": 2.77213511363,
			"0.014": 1.35660786185,
			"0.015": 0.131652132929,
			"0.016": 0.0,
			"0.017": 0.0,
			"0.018": 0.0,
			"0.019": 0.0,
			"0.02": 0.0,
			"0.021": 0.0,
			"0.022": 0.0,
			"0.023": 0.0,
			"0.024": 0.0,
			"0.025": 0.0
		}
	}
}
