{
	 "smiles": "NC1=CC=C(C=C1)C1=NC2=C(N1)C=CC(F)=C2", 
	 "Tm": 468.15, 
	 "num_atms": 27, 
	 "gaussian": { 
		 "optdone": 1, 
		 "sigma_profile": "yes", 
		 "theory": "DFT", 
		 "functional": "B3LYP", 
		 "basiset": "6-31G**", 
		 "properties": { 
			 "R2extent": 5973.9805, 
			 "electric_dipole_moment_norm": 6.2033994237, 
			 "electric_quadrupole_moment_norm": 18.5477493465, 
			 "total_energy": -765.524469716, 
			 "HOMO_LUMO_gap": 0.15857, 
			 "cosmo_polarized_energy": -18.81, 
			 "cosmo_cavitation_energy": 32.06, 
			 "cosmo_dispersion_energy": -23.91, 
			 "cosmo_repulsion_energy": 1.79, 
			 "cosmo_total_nonelectrostatic_energy": 9.94, 
			 "SMD_solvation_energy": 3.71 
		},
		"coords": [
			{
				"x": 0.123692849,
				"y": -0.0929760302,
				"z": -5.6314981552,
				"element": "N" 
			},
			{
				"x": -0.019572219,
				"y": -0.1635361707,
				"z": -4.2514155419,
				"element": "C" 
			},
			{
				"x": 1.0299861868,
				"y": -0.6300529544,
				"z": -3.4394075824,
				"element": "C" 
			},
			{
				"x": 0.899982673,
				"y": -0.6471144964,
				"z": -2.0562504093,
				"element": "C" 
			},
			{
				"x": -0.2741185516,
				"y": -0.2008411096,
				"z": -1.4282594355,
				"element": "C" 
			},
			{
				"x": -1.3226489651,
				"y": 0.2603502654,
				"z": -2.2449528021,
				"element": "C" 
			},
			{
				"x": -1.2009852196,
				"y": 0.2801394623,
				"z": -3.6251103958,
				"element": "C" 
			},
			{
				"x": -0.4523844335,
				"y": -0.2019962774,
				"z": 0.0226589922,
				"element": "C" 
			},
			{
				"x": -1.5854504819,
				"y": 0.0799417647,
				"z": 0.6411679309,
				"element": "N" 
			},
			{
				"x": -1.3102587865,
				"y": -0.0313974766,
				"z": 1.9889394046,
				"element": "C" 
			},
			{
				"x": 0.0457073511,
				"y": -0.3960813269,
				"z": 2.190012787,
				"element": "C" 
			},
			{
				"x": 0.5654093344,
				"y": -0.5026928695,
				"z": 0.9111590403,
				"element": "N" 
			},
			{
				"x": 0.5943458054,
				"y": -0.5748980014,
				"z": 3.4593216239,
				"element": "C" 
			},
			{
				"x": -0.2511115933,
				"y": -0.3803963002,
				"z": 4.5504036034,
				"element": "C" 
			},
			{
				"x": -1.591936996,
				"y": -0.0221108269,
				"z": 4.3452426735,
				"element": "C" 
			},
			{
				"x": -2.370210588,
				"y": 0.1530552695,
				"z": 5.4400367146,
				"element": "F" 
			},
			{
				"x": -2.1540034775,
				"y": 0.1596586452,
				"z": 3.0924720103,
				"element": "C" 
			},
			{
				"x": -0.7336099837,
				"y": -0.067086088,
				"z": -6.1648359069,
				"element": "H" 
			},
			{
				"x": 0.8188511763,
				"y": -0.7021611275,
				"z": -6.0384896259,
				"element": "H" 
			},
			{
				"x": 1.9497380615,
				"y": -0.9808706872,
				"z": -3.900441956,
				"element": "H" 
			},
			{
				"x": 1.7297522159,
				"y": -1.0345567789,
				"z": -1.4704151682,
				"element": "H" 
			},
			{
				"x": -2.2346462375,
				"y": 0.6003242145,
				"z": -1.7665756622,
				"element": "H" 
			},
			{
				"x": -2.0232408023,
				"y": 0.6463820823,
				"z": -4.2348482902,
				"element": "H" 
			},
			{
				"x": 1.5256949366,
				"y": -0.6922793131,
				"z": 0.6755229316,
				"element": "H" 
			},
			{
				"x": 1.6334525704,
				"y": -0.8533146153,
				"z": 3.6055400895,
				"element": "H" 
			},
			{
				"x": 0.1063128715,
				"y": -0.5014527894,
				"z": 5.5668312973,
				"element": "H" 
			},
			{
				"x": -3.1952476965,
				"y": 0.4368635356,
				"z": 2.9782918325,
				"element": "H" 
			}
		],
		 "valence_orbital": [ 
			{
				"type": "occ",
				"energy": -0.26589,
				"method": "rhf"
			},
			{
				"type": "occ",
				"energy": -0.25723,
				"method": "rhf"
			},
			{
				"type": "occ",
				"energy": -0.23795,
				"method": "rhf"
			},
			{
				"type": "occ",
				"energy": -0.21885,
				"method": "rhf"
			},
			{
				"type": "occ",
				"energy": -0.19374,
				"method": "rhf"
			},
			{
				"type": "unocc",
				"energy": -0.03517,
				"method": "rhf"
			},
			{
				"type": "unocc",
				"energy": -0.0059,
				"method": "rhf"
			},
			{
				"type": "unocc",
				"energy": 0.01606,
				"method": "rhf"
			},
			{
				"type": "unocc",
				"energy": 0.03478,
				"method": "rhf"
			},
			{
				"type": "unocc",
				"energy": 0.06232,
				"method": "rhf"
			}
		],
		"cosmo_sigma_profile": { 
			"-0.025": 0.0,
			"-0.024": 0.0,
			"-0.023": 0.0,
			"-0.022": 0.0,
			"-0.021": 0.0,
			"-0.02": 0.0,
			"-0.019": 0.0,
			"-0.018": 0.0,
			"-0.017": 0.261267377218,
			"-0.016": 1.10451180368,
			"-0.015": 1.49073803766,
			"-0.014": 0.956902468541,
			"-0.013": 3.04971742156,
			"-0.012": 4.02773007673,
			"-0.011": 5.16695013475,
			"-0.01": 4.22782362447,
			"-0.009": 4.23561948292,
			"-0.008": 4.7903967549,
			"-0.007": 8.35465363803,
			"-0.006": 12.1152789843,
			"-0.005": 10.3557768958,
			"-0.004": 13.455505323,
			"-0.003": 10.4385455198,
			"-0.002": 9.30785265993,
			"-0.001": 11.1863228518,
			"0.0": 10.0657043694,
			"0.001": 15.1383308445,
			"0.002": 21.7457383586,
			"0.003": 22.9064383598,
			"0.004": 28.6171931911,
			"0.005": 29.1534552458,
			"0.006": 7.930741514,
			"0.007": 2.52143508134,
			"0.008": 2.19472116521,
			"0.009": 2.80484341181,
			"0.01": 2.02055400825,
			"0.011": 2.10942461219,
			"0.012": 2.00134899714,
			"0.013": 1.22713156658,
			"0.014": 1.06136515755,
			"0.015": 1.07258993609,
			"0.016": 0.286044845648,
			"0.017": 0.0,
			"0.018": 0.0,
			"0.019": 0.0,
			"0.02": 0.0,
			"0.021": 0.0,
			"0.022": 0.0,
			"0.023": 0.0,
			"0.024": 0.0,
			"0.025": 0.0
		}
	}
}
