{
	 "smiles": "CC1=CC(C(=O)CCl)=C(C)N1C1=CC2=C(OCO2)C=C1", 
	 "Tm": 377.15, 
	 "num_atms": 34, 
	 "gaussian": { 
		 "optdone": 1, 
		 "sigma_profile": "yes", 
		 "theory": "DFT", 
		 "functional": "B3LYP", 
		 "basiset": "6-31G**", 
		 "properties": { 
			 "R2extent": 8633.2755, 
			 "electric_dipole_moment_norm": 6.3383355749, 
			 "electric_quadrupole_moment_norm": 19.039454582, 
			 "total_energy": -1320.62756576, 
			 "HOMO_LUMO_gap": 0.16766, 
			 "cosmo_polarized_energy": -13.58, 
			 "cosmo_cavitation_energy": 39.86, 
			 "cosmo_dispersion_energy": -27.83, 
			 "cosmo_repulsion_energy": 2.16, 
			 "cosmo_total_nonelectrostatic_energy": 14.2, 
			 "SMD_solvation_energy": 7.88 
		},
		"coords": [
			{
				"x": 0.1106144869,
				"y": 2.1964880954,
				"z": -1.1799337724,
				"element": "C" 
			},
			{
				"x": 0.9641969843,
				"y": 0.9801172476,
				"z": -1.0236213412,
				"element": "C" 
			},
			{
				"x": 1.988284087,
				"y": 0.5025547436,
				"z": -1.7945618239,
				"element": "C" 
			},
			{
				"x": 2.4822518441,
				"y": -0.7051457364,
				"z": -1.1912335845,
				"element": "C" 
			},
			{
				"x": 3.5553510943,
				"y": -1.5635947493,
				"z": -1.6832977638,
				"element": "C" 
			},
			{
				"x": 3.9127584102,
				"y": -2.6115277334,
				"z": -1.1513242129,
				"element": "O" 
			},
			{
				"x": 4.261975042,
				"y": -1.1563010176,
				"z": -2.9849255916,
				"element": "C" 
			},
			{
				"x": 5.3297832919,
				"y": 0.2994850338,
				"z": -2.761054146,
				"element": "Cl" 
			},
			{
				"x": 1.7216749331,
				"y": -0.9310299121,
				"z": -0.0394712367,
				"element": "C" 
			},
			{
				"x": 1.785679876,
				"y": -2.0271770624,
				"z": 0.9737009672,
				"element": "C" 
			},
			{
				"x": 0.8083549069,
				"y": 0.0939062969,
				"z": 0.0514533224,
				"element": "N" 
			},
			{
				"x": -0.1668327056,
				"y": 0.2367601417,
				"z": 1.0919647436,
				"element": "C" 
			},
			{
				"x": -1.4424747906,
				"y": -0.3395548345,
				"z": 0.915328047,
				"element": "C" 
			},
			{
				"x": -2.3432735324,
				"y": -0.1717745512,
				"z": 1.9470299686,
				"element": "C" 
			},
			{
				"x": -2.0180250365,
				"y": 0.531585963,
				"z": 3.1070994736,
				"element": "C" 
			},
			{
				"x": -3.0982656238,
				"y": 0.5552718985,
				"z": 3.9503563547,
				"element": "O" 
			},
			{
				"x": -4.1025181742,
				"y": -0.2593919105,
				"z": 3.3310784752,
				"element": "C" 
			},
			{
				"x": -3.6385751887,
				"y": -0.6138611355,
				"z": 2.0211541848,
				"element": "O" 
			},
			{
				"x": -0.774027112,
				"y": 1.1020493889,
				"z": 3.2906460653,
				"element": "C" 
			},
			{
				"x": 0.1599616369,
				"y": 0.9414718926,
				"z": 2.2511523759,
				"element": "C" 
			},
			{
				"x": -0.952790622,
				"y": 1.9486912571,
				"z": -1.2813297763,
				"element": "H" 
			},
			{
				"x": 0.4160941594,
				"y": 2.7392760872,
				"z": -2.077375015,
				"element": "H" 
			},
			{
				"x": 0.2015981723,
				"y": 2.878442112,
				"z": -0.326295989,
				"element": "H" 
			},
			{
				"x": 2.3662678974,
				"y": 0.9802385546,
				"z": -2.6869551463,
				"element": "H" 
			},
			{
				"x": 3.5535770264,
				"y": -0.9051863041,
				"z": -3.7765917634,
				"element": "H" 
			},
			{
				"x": 4.9061261883,
				"y": -1.9781668355,
				"z": -3.2917217963,
				"element": "H" 
			},
			{
				"x": 2.5739421685,
				"y": -2.7223064944,
				"z": 0.689699084,
				"element": "H" 
			},
			{
				"x": 0.8355472861,
				"y": -2.5709924856,
				"z": 1.0370995541,
				"element": "H" 
			},
			{
				"x": 1.9972269529,
				"y": -1.6344691158,
				"z": 1.9752305126,
				"element": "H" 
			},
			{
				"x": -1.6932984746,
				"y": -0.8851992384,
				"z": 0.0134747695,
				"element": "H" 
			},
			{
				"x": -5.0333442954,
				"y": 0.3104577847,
				"z": 3.2462238955,
				"element": "H" 
			},
			{
				"x": -4.2535738473,
				"y": -1.1704065582,
				"z": 3.9253273942,
				"element": "H" 
			},
			{
				"x": -0.5312391596,
				"y": 1.6482717391,
				"z": 4.1946218645,
				"element": "H" 
			},
			{
				"x": 1.1531721182,
				"y": 1.3672174383,
				"z": 2.3445519064,
				"element": "H" 
			}
		],
		 "valence_orbital": [ 
			{
				"type": "occ",
				"energy": -0.26731,
				"method": "rhf"
			},
			{
				"type": "occ",
				"energy": -0.24607,
				"method": "rhf"
			},
			{
				"type": "occ",
				"energy": -0.23794,
				"method": "rhf"
			},
			{
				"type": "occ",
				"energy": -0.22603,
				"method": "rhf"
			},
			{
				"type": "occ",
				"energy": -0.2072,
				"method": "rhf"
			},
			{
				"type": "unocc",
				"energy": -0.03954,
				"method": "rhf"
			},
			{
				"type": "unocc",
				"energy": -0.02231,
				"method": "rhf"
			},
			{
				"type": "unocc",
				"energy": -0.01284,
				"method": "rhf"
			},
			{
				"type": "unocc",
				"energy": 0.02991,
				"method": "rhf"
			},
			{
				"type": "unocc",
				"energy": 0.04524,
				"method": "rhf"
			}
		],
		"cosmo_sigma_profile": { 
			"-0.025": 0.0,
			"-0.024": 0.0,
			"-0.023": 0.0,
			"-0.022": 0.0,
			"-0.021": 0.0,
			"-0.02": 0.0,
			"-0.019": 0.0,
			"-0.018": 0.0,
			"-0.017": 0.0,
			"-0.016": 0.0,
			"-0.015": 0.0,
			"-0.014": 0.0,
			"-0.013": 0.0,
			"-0.012": 0.0,
			"-0.011": 0.0,
			"-0.01": 0.0,
			"-0.009": 0.122825144263,
			"-0.008": 8.25814713319,
			"-0.007": 16.079351508,
			"-0.006": 15.9602647896,
			"-0.005": 18.0782104101,
			"-0.004": 21.9341584102,
			"-0.003": 25.6270308781,
			"-0.002": 22.3100152224,
			"-0.001": 26.3817770343,
			"0.0": 26.1701611718,
			"0.001": 22.6496498464,
			"0.002": 25.0237095591,
			"0.003": 19.9725155732,
			"0.004": 14.2489139902,
			"0.005": 14.8687015274,
			"0.006": 16.3937221766,
			"0.007": 7.17029570725,
			"0.008": 4.37447190745,
			"0.009": 4.25458441897,
			"0.01": 2.6592884697,
			"0.011": 2.60436302017,
			"0.012": 2.67266421703,
			"0.013": 1.8718828606,
			"0.014": 0.157407990014,
			"0.015": 0.0,
			"0.016": 0.0,
			"0.017": 0.0,
			"0.018": 0.0,
			"0.019": 0.0,
			"0.02": 0.0,
			"0.021": 0.0,
			"0.022": 0.0,
			"0.023": 0.0,
			"0.024": 0.0,
			"0.025": 0.0
		}
	}
}
