{
	 "smiles": "ClC1=CC=C(Cl)C(C=O)=C1Cl", 
	 "Tm": 360.65, 
	 "num_atms": 14, 
	 "gaussian": { 
		 "optdone": 1, 
		 "sigma_profile": "yes", 
		 "theory": "DFT", 
		 "functional": "B3LYP", 
		 "basiset": "6-31G**", 
		 "properties": { 
			 "R2extent": 2994.8623, 
			 "electric_dipole_moment_norm": 2.87242376052, 
			 "electric_quadrupole_moment_norm": 9.75442727381, 
			 "total_energy": -1724.32438161, 
			 "HOMO_LUMO_gap": 0.17234, 
			 "cosmo_polarized_energy": -7.58, 
			 "cosmo_cavitation_energy": 23.93, 
			 "cosmo_dispersion_energy": -18.21, 
			 "cosmo_repulsion_energy": 1.44, 
			 "cosmo_total_nonelectrostatic_energy": 7.17, 
			 "SMD_solvation_energy": 4.43 
		},
		"coords": [
			{
				"x": -3.0668277198,
				"y": -2.2268488739,
				"z": -1.0913963261,
				"element": "Cl" 
			},
			{
				"x": -2.117788202,
				"y": -0.7818916897,
				"z": -0.8617840206,
				"element": "C" 
			},
			{
				"x": -2.6206117099,
				"y": 0.4249733647,
				"z": -1.3488362259,
				"element": "C" 
			},
			{
				"x": -1.9008688107,
				"y": 1.600011472,
				"z": -1.1859918235,
				"element": "C" 
			},
			{
				"x": -0.6692213973,
				"y": 1.5829085906,
				"z": -0.5314418025,
				"element": "C" 
			},
			{
				"x": 0.1479868185,
				"y": 3.1181790744,
				"z": -0.3937234397,
				"element": "Cl" 
			},
			{
				"x": -0.1247699207,
				"y": 0.3819411789,
				"z": -0.0275025956,
				"element": "C" 
			},
			{
				"x": 1.2040257456,
				"y": 0.3116871922,
				"z": 0.6641331955,
				"element": "C" 
			},
			{
				"x": 1.8756494229,
				"y": 1.2674107827,
				"z": 0.9885204611,
				"element": "O" 
			},
			{
				"x": -0.8800192861,
				"y": -0.8033905429,
				"z": -0.208150767,
				"element": "C" 
			},
			{
				"x": -0.2894796975,
				"y": -2.3359410867,
				"z": 0.4002340638,
				"element": "Cl" 
			},
			{
				"x": -3.5793744404,
				"y": 0.4338338344,
				"z": -1.8548822414,
				"element": "H" 
			},
			{
				"x": -2.2897697093,
				"y": 2.5378581792,
				"z": -1.5648777183,
				"element": "H" 
			},
			{
				"x": 1.5504689066,
				"y": -0.715231476,
				"z": 0.8677992401,
				"element": "H" 
			}
		],
		 "valence_orbital": [ 
			{
				"type": "occ",
				"energy": -0.3295,
				"method": "rhf"
			},
			{
				"type": "occ",
				"energy": -0.32581,
				"method": "rhf"
			},
			{
				"type": "occ",
				"energy": -0.28648,
				"method": "rhf"
			},
			{
				"type": "occ",
				"energy": -0.26284,
				"method": "rhf"
			},
			{
				"type": "occ",
				"energy": -0.26119,
				"method": "rhf"
			},
			{
				"type": "unocc",
				"energy": -0.08885,
				"method": "rhf"
			},
			{
				"type": "unocc",
				"energy": -0.04716,
				"method": "rhf"
			},
			{
				"type": "unocc",
				"energy": -0.02219,
				"method": "rhf"
			},
			{
				"type": "unocc",
				"energy": 0.01087,
				"method": "rhf"
			},
			{
				"type": "unocc",
				"energy": 0.023,
				"method": "rhf"
			}
		],
		"cosmo_sigma_profile": { 
			"-0.025": 0.0,
			"-0.024": 0.0,
			"-0.023": 0.0,
			"-0.022": 0.0,
			"-0.021": 0.0,
			"-0.02": 0.0,
			"-0.019": 0.0,
			"-0.018": 0.0,
			"-0.017": 0.0,
			"-0.016": 0.0,
			"-0.015": 0.0,
			"-0.014": 0.0,
			"-0.013": 0.0,
			"-0.012": 0.0,
			"-0.011": 0.0,
			"-0.01": 0.381419224089,
			"-0.009": 3.37835681987,
			"-0.008": 4.34212683651,
			"-0.007": 4.51203256232,
			"-0.006": 6.53848072222,
			"-0.005": 8.65241037225,
			"-0.004": 9.16651806099,
			"-0.003": 12.777383065,
			"-0.002": 22.3174600105,
			"-0.001": 26.5248101726,
			"0.0": 18.882103318,
			"0.001": 13.5294430853,
			"0.002": 14.9315752575,
			"0.003": 21.2719396616,
			"0.004": 12.6734758916,
			"0.005": 3.08231215258,
			"0.006": 1.88898532711,
			"0.007": 1.34851329919,
			"0.008": 2.69411396993,
			"0.009": 3.19715527874,
			"0.01": 3.78182475876,
			"0.011": 3.69125105461,
			"0.012": 0.583407477859,
			"0.013": 0.0,
			"0.014": 0.0,
			"0.015": 0.0,
			"0.016": 0.0,
			"0.017": 0.0,
			"0.018": 0.0,
			"0.019": 0.0,
			"0.02": 0.0,
			"0.021": 0.0,
			"0.022": 0.0,
			"0.023": 0.0,
			"0.024": 0.0,
			"0.025": 0.0
		}
	}
}
