{
	 "smiles": "CCCOC(=O)C1=CC=C(N)C=C1", 
	 "Tm": 347.65, 
	 "num_atms": 26, 
	 "gaussian": { 
		 "optdone": 1, 
		 "sigma_profile": "yes", 
		 "theory": "DFT", 
		 "functional": "B3LYP", 
		 "basiset": "6-31G**", 
		 "properties": { 
			 "R2extent": 3695.4245, 
			 "electric_dipole_moment_norm": 3.61265214628, 
			 "electric_quadrupole_moment_norm": 19.0577395837, 
			 "total_energy": -594.129117206, 
			 "HOMO_LUMO_gap": 0.1849, 
			 "cosmo_polarized_energy": -13.02, 
			 "cosmo_cavitation_energy": 29.91, 
			 "cosmo_dispersion_energy": -21.56, 
			 "cosmo_repulsion_energy": 1.74, 
			 "cosmo_total_nonelectrostatic_energy": 10.09, 
			 "SMD_solvation_energy": 6.0 
		},
		"coords": [
			{
				"x": 3.2413463619,
				"y": 1.213789788,
				"z": -1.7894140923,
				"element": "C" 
			},
			{
				"x": 2.0700269235,
				"y": 1.7570914925,
				"z": -2.6138862389,
				"element": "C" 
			},
			{
				"x": 0.8084424043,
				"y": 1.9970581772,
				"z": -1.797590889,
				"element": "C" 
			},
			{
				"x": 0.3471891525,
				"y": 0.7216347049,
				"z": -1.3056250173,
				"element": "O" 
			},
			{
				"x": -0.7305617976,
				"y": 0.7617647097,
				"z": -0.4813521771,
				"element": "C" 
			},
			{
				"x": -1.2787487221,
				"y": 1.802945357,
				"z": -0.1651253128,
				"element": "O" 
			},
			{
				"x": -1.1492191376,
				"y": -0.5832560203,
				"z": -0.0250032942,
				"element": "C" 
			},
			{
				"x": -2.2432880729,
				"y": -0.6775789239,
				"z": 0.849198482,
				"element": "C" 
			},
			{
				"x": -2.6846592361,
				"y": -1.9084776497,
				"z": 1.308924006,
				"element": "C" 
			},
			{
				"x": -2.0398799411,
				"y": -3.0946512367,
				"z": 0.9042704757,
				"element": "C" 
			},
			{
				"x": -2.4453490853,
				"y": -4.3242440451,
				"z": 1.4001081254,
				"element": "N" 
			},
			{
				"x": -0.9423209437,
				"y": -3.0002390695,
				"z": 0.0258794647,
				"element": "C" 
			},
			{
				"x": -0.5061695826,
				"y": -1.7637475886,
				"z": -0.428876912,
				"element": "C" 
			},
			{
				"x": 3.519922359,
				"y": 1.9128920575,
				"z": -0.992657919,
				"element": "H" 
			},
			{
				"x": 2.9800640516,
				"y": 0.2611914752,
				"z": -1.3201033896,
				"element": "H" 
			},
			{
				"x": 4.1238706609,
				"y": 1.0529128309,
				"z": -2.4164316603,
				"element": "H" 
			},
			{
				"x": 1.8344546148,
				"y": 1.0690004283,
				"z": -3.4350110315,
				"element": "H" 
			},
			{
				"x": 2.3480037555,
				"y": 2.7122667453,
				"z": -3.0774414044,
				"element": "H" 
			},
			{
				"x": 0.0153413663,
				"y": 2.4514351474,
				"z": -2.4010443362,
				"element": "H" 
			},
			{
				"x": 0.9943950111,
				"y": 2.6609505819,
				"z": -0.9462669849,
				"element": "H" 
			},
			{
				"x": -2.7382726438,
				"y": 0.2379549122,
				"z": 1.1557454556,
				"element": "H" 
			},
			{
				"x": -3.5311144054,
				"y": -1.9655083623,
				"z": 1.988795584,
				"element": "H" 
			},
			{
				"x": -2.1772436971,
				"y": -5.1367671577,
				"z": 0.8641944855,
				"element": "H" 
			},
			{
				"x": -3.3880844992,
				"y": -4.3763760565,
				"z": 1.7576932294,
				"element": "H" 
			},
			{
				"x": -0.4339096958,
				"y": -3.9069561357,
				"z": -0.2925652804,
				"element": "H" 
			},
			{
				"x": 0.337264799,
				"y": -1.7053861619,
				"z": -1.1075133685,
				"element": "H" 
			}
		],
		 "valence_orbital": [ 
			{
				"type": "occ",
				"energy": -0.3091,
				"method": "rhf"
			},
			{
				"type": "occ",
				"energy": -0.28601,
				"method": "rhf"
			},
			{
				"type": "occ",
				"energy": -0.25816,
				"method": "rhf"
			},
			{
				"type": "occ",
				"energy": -0.25223,
				"method": "rhf"
			},
			{
				"type": "occ",
				"energy": -0.20964,
				"method": "rhf"
			},
			{
				"type": "unocc",
				"energy": -0.02474,
				"method": "rhf"
			},
			{
				"type": "unocc",
				"energy": -0.00013,
				"method": "rhf"
			},
			{
				"type": "unocc",
				"energy": 0.06756,
				"method": "rhf"
			},
			{
				"type": "unocc",
				"energy": 0.08222,
				"method": "rhf"
			},
			{
				"type": "unocc",
				"energy": 0.0943,
				"method": "rhf"
			}
		],
		"cosmo_sigma_profile": { 
			"-0.025": 0.0,
			"-0.024": 0.0,
			"-0.023": 0.0,
			"-0.022": 0.0,
			"-0.021": 0.0,
			"-0.02": 0.0,
			"-0.019": 0.0,
			"-0.018": 0.0,
			"-0.017": 0.0,
			"-0.016": 0.0,
			"-0.015": 0.0,
			"-0.014": 0.142186131302,
			"-0.013": 1.95522339502,
			"-0.012": 3.33916860685,
			"-0.011": 2.81194160939,
			"-0.01": 3.0302853838,
			"-0.009": 2.54393448165,
			"-0.008": 3.58562882592,
			"-0.007": 3.21573112842,
			"-0.006": 4.80040077687,
			"-0.005": 8.7501032708,
			"-0.004": 15.978389414,
			"-0.003": 21.5464321701,
			"-0.002": 20.2674057284,
			"-0.001": 20.3254316232,
			"0.0": 20.0782483479,
			"0.001": 17.9608022438,
			"0.002": 16.3816120843,
			"0.003": 14.0007065936,
			"0.004": 15.2041631261,
			"0.005": 15.3923252404,
			"0.006": 4.10299963788,
			"0.007": 2.24798681772,
			"0.008": 2.76208499079,
			"0.009": 2.32824228151,
			"0.01": 2.31344867221,
			"0.011": 2.57182968543,
			"0.012": 4.30095698748,
			"0.013": 3.69827040912,
			"0.014": 0.0554647750493,
			"0.015": 0.0,
			"0.016": 0.0,
			"0.017": 0.0,
			"0.018": 0.0,
			"0.019": 0.0,
			"0.02": 0.0,
			"0.021": 0.0,
			"0.022": 0.0,
			"0.023": 0.0,
			"0.024": 0.0,
			"0.025": 0.0
		}
	}
}
