{
	 "smiles": "OC1OC(=O)C2=C1C=C(Cl)C(Cl)=C2", 
	 "Tm": 453.15, 
	 "num_atms": 17, 
	 "gaussian": { 
		 "optdone": 1, 
		 "sigma_profile": "yes", 
		 "theory": "DFT", 
		 "functional": "B3LYP", 
		 "basiset": "6-31G**", 
		 "properties": { 
			 "R2extent": 3658.3156, 
			 "electric_dipole_moment_norm": 2.83858665712, 
			 "electric_quadrupole_moment_norm": 13.8148512681, 
			 "total_energy": -1453.3160108, 
			 "HOMO_LUMO_gap": 0.19771, 
			 "cosmo_polarized_energy": -13.79, 
			 "cosmo_cavitation_energy": 25.89, 
			 "cosmo_dispersion_energy": -19.36, 
			 "cosmo_repulsion_energy": 1.54, 
			 "cosmo_total_nonelectrostatic_energy": 8.07, 
			 "SMD_solvation_energy": 4.95 
		},
		"coords": [
			{
				"x": 2.605638537,
				"y": 1.0707974035,
				"z": -0.367248122,
				"element": "O" 
			},
			{
				"x": 2.0180164369,
				"y": 0.3769202594,
				"z": 0.6795048014,
				"element": "C" 
			},
			{
				"x": 2.1500540145,
				"y": 1.0924472587,
				"z": 1.9346411863,
				"element": "O" 
			},
			{
				"x": 0.9343370272,
				"y": 1.2702394037,
				"z": 2.5558761441,
				"element": "C" 
			},
			{
				"x": 0.8105941865,
				"y": 1.823301278,
				"z": 3.6171212528,
				"element": "O" 
			},
			{
				"x": -0.1012032681,
				"y": 0.6726338302,
				"z": 1.6747940029,
				"element": "C" 
			},
			{
				"x": 0.5252419828,
				"y": 0.150722172,
				"z": 0.5524934443,
				"element": "C" 
			},
			{
				"x": -0.2092864257,
				"y": -0.4425647509,
				"z": -0.4642847197,
				"element": "C" 
			},
			{
				"x": -1.6001300981,
				"y": -0.5074374483,
				"z": -0.3162728188,
				"element": "C" 
			},
			{
				"x": -2.5297083268,
				"y": -1.2520459997,
				"z": -1.5870905697,
				"element": "Cl" 
			},
			{
				"x": -2.2331985191,
				"y": 0.018679619,
				"z": 0.831589031,
				"element": "C" 
			},
			{
				"x": -3.9636762902,
				"y": -0.0635362995,
				"z": 1.01889874,
				"element": "Cl" 
			},
			{
				"x": -1.4793811223,
				"y": 0.6207536535,
				"z": 1.8410911461,
				"element": "C" 
			},
			{
				"x": 2.1152194258,
				"y": 1.8944921837,
				"z": -0.5059328,
				"element": "H" 
			},
			{
				"x": 2.5860779338,
				"y": -0.5530690652,
				"z": 0.7764098243,
				"element": "H" 
			},
			{
				"x": 0.2584577097,
				"y": -0.8457819462,
				"z": -1.3557079853,
				"element": "H" 
			},
			{
				"x": -1.9580532039,
				"y": 1.0327484483,
				"z": 2.7223174422,
				"element": "H" 
			}
		],
		 "valence_orbital": [ 
			{
				"type": "occ",
				"energy": -0.32776,
				"method": "rhf"
			},
			{
				"type": "occ",
				"energy": -0.31336,
				"method": "rhf"
			},
			{
				"type": "occ",
				"energy": -0.29038,
				"method": "rhf"
			},
			{
				"type": "occ",
				"energy": -0.2873,
				"method": "rhf"
			},
			{
				"type": "occ",
				"energy": -0.2742,
				"method": "rhf"
			},
			{
				"type": "unocc",
				"energy": -0.07649,
				"method": "rhf"
			},
			{
				"type": "unocc",
				"energy": -0.05545,
				"method": "rhf"
			},
			{
				"type": "unocc",
				"energy": -0.01493,
				"method": "rhf"
			},
			{
				"type": "unocc",
				"energy": 0.02644,
				"method": "rhf"
			},
			{
				"type": "unocc",
				"energy": 0.04054,
				"method": "rhf"
			}
		],
		"cosmo_sigma_profile": { 
			"-0.025": 0.0,
			"-0.024": 0.0,
			"-0.023": 0.0,
			"-0.022": 0.0,
			"-0.021": 0.0,
			"-0.02": 0.0,
			"-0.019": 0.0,
			"-0.018": 0.525630959388,
			"-0.017": 1.03590893752,
			"-0.016": 1.46455426252,
			"-0.015": 0.704149427102,
			"-0.014": 1.08476809115,
			"-0.013": 1.17395822816,
			"-0.012": 0.671571044338,
			"-0.011": 0.62996703892,
			"-0.01": 1.01641111521,
			"-0.009": 6.04684414322,
			"-0.008": 7.47948048093,
			"-0.007": 7.24903734651,
			"-0.006": 5.75320492112,
			"-0.005": 6.67079689165,
			"-0.004": 7.07090251827,
			"-0.003": 11.684262178,
			"-0.002": 19.2109369119,
			"-0.001": 25.2938260811,
			"0.0": 14.440689852,
			"0.001": 11.5358433192,
			"0.002": 13.1982713552,
			"0.003": 18.956000789,
			"0.004": 11.5394751147,
			"0.005": 3.82748944094,
			"0.006": 3.38336139709,
			"0.007": 4.29713490088,
			"0.008": 4.76080673332,
			"0.009": 6.04834876432,
			"0.01": 6.33417767922,
			"0.011": 7.28723600693,
			"0.012": 2.29254418402,
			"0.013": 0.0551256651264,
			"0.014": 0.0,
			"0.015": 0.0,
			"0.016": 0.0,
			"0.017": 0.0,
			"0.018": 0.0,
			"0.019": 0.0,
			"0.02": 0.0,
			"0.021": 0.0,
			"0.022": 0.0,
			"0.023": 0.0,
			"0.024": 0.0,
			"0.025": 0.0
		}
	}
}
