{
	 "smiles": "NN1C(S)=NN=C1C1CCCO1", 
	 "Tm": 418.15, 
	 "num_atms": 22, 
	 "gaussian": { 
		 "optdone": 1, 
		 "sigma_profile": "yes", 
		 "theory": "DFT", 
		 "functional": "B3LYP", 
		 "basiset": "6-31G**", 
		 "properties": { 
			 "R2extent": 3109.1994, 
			 "electric_dipole_moment_norm": 5.83160916815, 
			 "electric_quadrupole_moment_norm": 21.9637031079, 
			 "total_energy": -927.011541966, 
			 "HOMO_LUMO_gap": 0.23682, 
			 "cosmo_polarized_energy": -17.87, 
			 "cosmo_cavitation_energy": 26.36, 
			 "cosmo_dispersion_energy": -20.21, 
			 "cosmo_repulsion_energy": 1.58, 
			 "cosmo_total_nonelectrostatic_energy": 7.73, 
			 "SMD_solvation_energy": 2.17 
		},
		"coords": [
			{
				"x": 0.331334644,
				"y": 0.6084210477,
				"z": 1.2177696835,
				"element": "N" 
			},
			{
				"x": 1.3195904837,
				"y": 0.3909622403,
				"z": 0.2458067206,
				"element": "N" 
			},
			{
				"x": 2.5243510248,
				"y": 1.0500630934,
				"z": 0.1694313206,
				"element": "C" 
			},
			{
				"x": 3.0802748419,
				"y": 2.221999922,
				"z": 1.3590715669,
				"element": "S" 
			},
			{
				"x": 3.1882055724,
				"y": 0.6652163975,
				"z": -0.8937818862,
				"element": "N" 
			},
			{
				"x": 2.3910780612,
				"y": -0.2575580894,
				"z": -1.559569269,
				"element": "N" 
			},
			{
				"x": 1.2849360378,
				"y": -0.4100392873,
				"z": -0.8763777509,
				"element": "C" 
			},
			{
				"x": 0.1025455255,
				"y": -1.2733369223,
				"z": -1.2236277671,
				"element": "C" 
			},
			{
				"x": 0.1283548007,
				"y": -1.7373897071,
				"z": -2.6854525112,
				"element": "C" 
			},
			{
				"x": -0.6188132541,
				"y": -0.5965934391,
				"z": -3.3939244944,
				"element": "C" 
			},
			{
				"x": -1.6802059704,
				"y": -0.2092476831,
				"z": -2.3611060498,
				"element": "C" 
			},
			{
				"x": -1.1099851605,
				"y": -0.4993153749,
				"z": -1.0668855945,
				"element": "O" 
			},
			{
				"x": 0.3070306633,
				"y": -0.197150484,
				"z": 1.8420155794,
				"element": "H" 
			},
			{
				"x": -0.5584314974,
				"y": 0.6445388098,
				"z": 0.7200745428,
				"element": "H" 
			},
			{
				"x": 1.8867450651,
				"y": 2.2550460633,
				"z": 1.9918717614,
				"element": "H" 
			},
			{
				"x": 0.0369881034,
				"y": -2.1158719378,
				"z": -0.5224033156,
				"element": "H" 
			},
			{
				"x": 1.148266309,
				"y": -1.872093051,
				"z": -3.0479225063,
				"element": "H" 
			},
			{
				"x": -0.4171508141,
				"y": -2.6815305476,
				"z": -2.7808335195,
				"element": "H" 
			},
			{
				"x": 0.0660419309,
				"y": 0.2365325791,
				"z": -3.5775904184,
				"element": "H" 
			},
			{
				"x": -1.0565968673,
				"y": -0.8985870577,
				"z": -4.3489742061,
				"element": "H" 
			},
			{
				"x": -2.5961893144,
				"y": -0.8040798353,
				"z": -2.4799899291,
				"element": "H" 
			},
			{
				"x": -1.9517701856,
				"y": 0.8508132634,
				"z": -2.391101957,
				"element": "H" 
			}
		],
		 "valence_orbital": [ 
			{
				"type": "occ",
				"energy": -0.30499,
				"method": "rhf"
			},
			{
				"type": "occ",
				"energy": -0.28611,
				"method": "rhf"
			},
			{
				"type": "occ",
				"energy": -0.27099,
				"method": "rhf"
			},
			{
				"type": "occ",
				"energy": -0.24873,
				"method": "rhf"
			},
			{
				"type": "occ",
				"energy": -0.22588,
				"method": "rhf"
			},
			{
				"type": "unocc",
				"energy": 0.01094,
				"method": "rhf"
			},
			{
				"type": "unocc",
				"energy": 0.02309,
				"method": "rhf"
			},
			{
				"type": "unocc",
				"energy": 0.04416,
				"method": "rhf"
			},
			{
				"type": "unocc",
				"energy": 0.05695,
				"method": "rhf"
			},
			{
				"type": "unocc",
				"energy": 0.07462,
				"method": "rhf"
			}
		],
		"cosmo_sigma_profile": { 
			"-0.025": 0.0,
			"-0.024": 0.0,
			"-0.023": 0.0,
			"-0.022": 0.0,
			"-0.021": 0.0,
			"-0.02": 0.0,
			"-0.019": 0.0,
			"-0.018": 0.0,
			"-0.017": 0.0,
			"-0.016": 0.0,
			"-0.015": 0.0,
			"-0.014": 1.04074968826,
			"-0.013": 2.41145026003,
			"-0.012": 1.54936121309,
			"-0.011": 2.57090883158,
			"-0.01": 2.86450359096,
			"-0.009": 2.97084992658,
			"-0.008": 3.39227356825,
			"-0.007": 4.1840343464,
			"-0.006": 6.65872122827,
			"-0.005": 9.04359948657,
			"-0.004": 18.7766381536,
			"-0.003": 22.9712407297,
			"-0.002": 21.1317849482,
			"-0.001": 19.0241214289,
			"0.0": 12.7647048171,
			"0.001": 10.0016074957,
			"0.002": 9.44976874488,
			"0.003": 8.71377605085,
			"0.004": 7.03848590701,
			"0.005": 7.31400932705,
			"0.006": 6.17176854249,
			"0.007": 6.00577979534,
			"0.008": 2.70361956169,
			"0.009": 2.70645176336,
			"0.01": 2.59497126797,
			"0.011": 2.63583601279,
			"0.012": 2.67024443223,
			"0.013": 3.43636605072,
			"0.014": 3.15338451162,
			"0.015": 2.81505394364,
			"0.016": 1.4750583647,
			"0.017": 0.485777019594,
			"0.018": 0.0,
			"0.019": 0.0,
			"0.02": 0.0,
			"0.021": 0.0,
			"0.022": 0.0,
			"0.023": 0.0,
			"0.024": 0.0,
			"0.025": 0.0
		}
	}
}
