{
	 "smiles": "COC(=O)C(=O)CC(=O)C1=CC=NC=C1", 
	 "Tm": 367.15, 
	 "num_atms": 24, 
	 "gaussian": { 
		 "optdone": 1, 
		 "sigma_profile": "yes", 
		 "theory": "DFT", 
		 "functional": "B3LYP", 
		 "basiset": "6-31G**", 
		 "properties": { 
			 "R2extent": 3992.2222, 
			 "electric_dipole_moment_norm": 2.03773501957, 
			 "electric_quadrupole_moment_norm": 15.0206016774, 
			 "total_energy": -742.110032764, 
			 "HOMO_LUMO_gap": 0.16781, 
			 "cosmo_polarized_energy": -14.45, 
			 "cosmo_cavitation_energy": 30.19, 
			 "cosmo_dispersion_energy": -21.26, 
			 "cosmo_repulsion_energy": 1.67, 
			 "cosmo_total_nonelectrostatic_energy": 10.6, 
			 "SMD_solvation_energy": 6.75 
		},
		"coords": [
			{
				"x": 4.3921661941,
				"y": 1.1906017622,
				"z": 1.2061201735,
				"element": "C" 
			},
			{
				"x": 3.0230103557,
				"y": 0.7889122213,
				"z": 1.4101411854,
				"element": "O" 
			},
			{
				"x": 2.1272856669,
				"y": 1.4127447438,
				"z": 0.6448024498,
				"element": "C" 
			},
			{
				"x": 2.3723611847,
				"y": 2.2661868677,
				"z": -0.1804741709,
				"element": "O" 
			},
			{
				"x": 0.690126482,
				"y": 0.9333259188,
				"z": 0.9526889494,
				"element": "C" 
			},
			{
				"x": 0.436016888,
				"y": 0.3354115092,
				"z": 1.9748736768,
				"element": "O" 
			},
			{
				"x": -0.3427677999,
				"y": 1.2879757534,
				"z": -0.1073069208,
				"element": "C" 
			},
			{
				"x": -0.5305659291,
				"y": 0.134668425,
				"z": -1.113672503,
				"element": "C" 
			},
			{
				"x": 0.0823979534,
				"y": 0.1424420133,
				"z": -2.1647741268,
				"element": "O" 
			},
			{
				"x": -1.4822024147,
				"y": -0.9768302688,
				"z": -0.780447648,
				"element": "C" 
			},
			{
				"x": -1.813942129,
				"y": -1.8887952574,
				"z": -1.7916998868,
				"element": "C" 
			},
			{
				"x": -2.7002258001,
				"y": -2.9210622685,
				"z": -1.4979526121,
				"element": "C" 
			},
			{
				"x": -3.2522233555,
				"y": -3.1054642842,
				"z": -0.2894150635,
				"element": "N" 
			},
			{
				"x": -2.9172723354,
				"y": -2.2403199799,
				"z": 0.673988337,
				"element": "C" 
			},
			{
				"x": -2.0497114119,
				"y": -1.161484794,
				"z": 0.4858446968,
				"element": "C" 
			},
			{
				"x": 4.5149665438,
				"y": 2.25019782,
				"z": 1.4425360428,
				"element": "H" 
			},
			{
				"x": 4.6869439041,
				"y": 1.0200084052,
				"z": 0.168040182,
				"element": "H" 
			},
			{
				"x": 4.980476252,
				"y": 0.5729816722,
				"z": 1.8830060449,
				"element": "H" 
			},
			{
				"x": -1.2841189901,
				"y": 1.5122597716,
				"z": 0.398897037,
				"element": "H" 
			},
			{
				"x": 0.0069246796,
				"y": 2.1473052654,
				"z": -0.6793049548,
				"element": "H" 
			},
			{
				"x": -1.3817486253,
				"y": -1.77457405,
				"z": -2.7795516345,
				"element": "H" 
			},
			{
				"x": -2.9829779926,
				"y": -3.6368000511,
				"z": -2.2674015413,
				"element": "H" 
			},
			{
				"x": -3.3646532973,
				"y": -2.4130689232,
				"z": 1.6509095865,
				"element": "H" 
			},
			{
				"x": -1.8012660235,
				"y": -0.515622272,
				"z": 1.3202527007,
				"element": "H" 
			}
		],
		 "valence_orbital": [ 
			{
				"type": "occ",
				"energy": -0.29742,
				"method": "rhf"
			},
			{
				"type": "occ",
				"energy": -0.27853,
				"method": "rhf"
			},
			{
				"type": "occ",
				"energy": -0.27328,
				"method": "rhf"
			},
			{
				"type": "occ",
				"energy": -0.26712,
				"method": "rhf"
			},
			{
				"type": "occ",
				"energy": -0.26325,
				"method": "rhf"
			},
			{
				"type": "unocc",
				"energy": -0.09544,
				"method": "rhf"
			},
			{
				"type": "unocc",
				"energy": -0.07648,
				"method": "rhf"
			},
			{
				"type": "unocc",
				"energy": -0.02223,
				"method": "rhf"
			},
			{
				"type": "unocc",
				"energy": 0.01313,
				"method": "rhf"
			},
			{
				"type": "unocc",
				"energy": 0.04595,
				"method": "rhf"
			}
		],
		"cosmo_sigma_profile": { 
			"-0.025": 0.0,
			"-0.024": 0.0,
			"-0.023": 0.0,
			"-0.022": 0.0,
			"-0.021": 0.0,
			"-0.02": 0.0,
			"-0.019": 0.0,
			"-0.018": 0.0,
			"-0.017": 0.0,
			"-0.016": 0.0,
			"-0.015": 0.0,
			"-0.014": 0.0,
			"-0.013": 0.0,
			"-0.012": 0.0,
			"-0.011": 0.0,
			"-0.01": 0.481805271534,
			"-0.009": 1.90773396025,
			"-0.008": 5.62052118164,
			"-0.007": 15.405812483,
			"-0.006": 23.2726058659,
			"-0.005": 20.7865379041,
			"-0.004": 19.9164914948,
			"-0.003": 14.0169374938,
			"-0.002": 11.2622275403,
			"-0.001": 11.2737370428,
			"0.0": 17.5028312703,
			"0.001": 19.442026509,
			"0.002": 9.62904969325,
			"0.003": 7.2252855358,
			"0.004": 7.62163880479,
			"0.005": 6.04136642123,
			"0.006": 6.21771102165,
			"0.007": 7.47846821336,
			"0.008": 8.55243291223,
			"0.009": 8.62420557077,
			"0.01": 10.6684198631,
			"0.011": 4.92509867508,
			"0.012": 1.0578925679,
			"0.013": 1.3030553052,
			"0.014": 0.73559628852,
			"0.015": 0.677687752145,
			"0.016": 0.501242641535,
			"0.017": 0.0,
			"0.018": 0.0,
			"0.019": 0.0,
			"0.02": 0.0,
			"0.021": 0.0,
			"0.022": 0.0,
			"0.023": 0.0,
			"0.024": 0.0,
			"0.025": 0.0
		}
	}
}
