{
	 "smiles": "CC(=O)C1=CC2=C(OC1=O)C1=C3N(CCCC3=C2)CCC1", 
	 "Tm": 455.15, 
	 "num_atms": 38, 
	 "gaussian": { 
		 "optdone": 1, 
		 "sigma_profile": "yes", 
		 "theory": "DFT", 
		 "functional": "B3LYP", 
		 "basiset": "6-31G**", 
		 "properties": { 
			 "R2extent": 7307.1533, 
			 "electric_dipole_moment_norm": 8.87562788821, 
			 "electric_quadrupole_moment_norm": 5.57759776606, 
			 "total_energy": -938.514302474, 
			 "HOMO_LUMO_gap": 0.12921, 
			 "cosmo_polarized_energy": -16.22, 
			 "cosmo_cavitation_energy": 38.91, 
			 "cosmo_dispersion_energy": -28.88, 
			 "cosmo_repulsion_energy": 2.17, 
			 "cosmo_total_nonelectrostatic_energy": 12.2, 
			 "SMD_solvation_energy": 6.08 
		},
		"coords": [
			{
				"x": -1.1521889153,
				"y": -5.5016443273,
				"z": 0.5395011444,
				"element": "C" 
			},
			{
				"x": -1.143735316,
				"y": -4.3561400972,
				"z": -0.4483028198,
				"element": "C" 
			},
			{
				"x": -1.354949152,
				"y": -4.5572982964,
				"z": -1.6392957489,
				"element": "O" 
			},
			{
				"x": -0.8761809017,
				"y": -2.9587998807,
				"z": 0.0212383035,
				"element": "C" 
			},
			{
				"x": -0.8783162387,
				"y": -1.9563111254,
				"z": -0.9179793234,
				"element": "C" 
			},
			{
				"x": -0.6371954551,
				"y": -0.601352541,
				"z": -0.5887134001,
				"element": "C" 
			},
			{
				"x": -0.3898260676,
				"y": -0.2875295171,
				"z": 0.7657181714,
				"element": "C" 
			},
			{
				"x": -0.3883142936,
				"y": -1.2745921433,
				"z": 1.7048261311,
				"element": "O" 
			},
			{
				"x": -0.6156926281,
				"y": -2.6332461487,
				"z": 1.4195672071,
				"element": "C" 
			},
			{
				"x": -0.5714397038,
				"y": -3.3845649131,
				"z": 2.368715949,
				"element": "O" 
			},
			{
				"x": -0.1514382852,
				"y": 1.0108757018,
				"z": 1.2076265412,
				"element": "C" 
			},
			{
				"x": -0.1497456881,
				"y": 2.0577049803,
				"z": 0.2494938128,
				"element": "C" 
			},
			{
				"x": 0.0729630358,
				"y": 3.356820495,
				"z": 0.6460596991,
				"element": "N" 
			},
			{
				"x": -0.0630639984,
				"y": 4.4998879243,
				"z": -0.2576547274,
				"element": "C" 
			},
			{
				"x": -0.8844079635,
				"y": 4.1726042498,
				"z": -1.5006356889,
				"element": "C" 
			},
			{
				"x": -0.3507228367,
				"y": 2.8898244527,
				"z": -2.1423150758,
				"element": "C" 
			},
			{
				"x": -0.3779552099,
				"y": 1.7627351426,
				"z": -1.1363575281,
				"element": "C" 
			},
			{
				"x": -0.6268613979,
				"y": 0.4622831735,
				"z": -1.5170030967,
				"element": "C" 
			},
			{
				"x": 0.4036658536,
				"y": 3.7063751572,
				"z": 2.0278545597,
				"element": "C" 
			},
			{
				"x": 1.0148377394,
				"y": 2.5358535101,
				"z": 2.7904062845,
				"element": "C" 
			},
			{
				"x": 0.1186412482,
				"y": 1.3020355783,
				"z": 2.665039816,
				"element": "C" 
			},
			{
				"x": -1.8978324896,
				"y": -5.3363838506,
				"z": 1.3225652397,
				"element": "H" 
			},
			{
				"x": -1.3659243684,
				"y": -6.4221712649,
				"z": -0.0056329223,
				"element": "H" 
			},
			{
				"x": -0.1923829513,
				"y": -5.5762167513,
				"z": 1.058803876,
				"element": "H" 
			},
			{
				"x": -1.0746064406,
				"y": -2.243535484,
				"z": -1.9482605261,
				"element": "H" 
			},
			{
				"x": -0.5389855249,
				"y": 5.3153033065,
				"z": 0.3020453033,
				"element": "H" 
			},
			{
				"x": 0.936434825,
				"y": 4.8596091341,
				"z": -0.5510013628,
				"element": "H" 
			},
			{
				"x": -0.8346085672,
				"y": 5.0175580802,
				"z": -2.1948789832,
				"element": "H" 
			},
			{
				"x": -1.9363074584,
				"y": 4.0364513254,
				"z": -1.2232982685,
				"element": "H" 
			},
			{
				"x": 0.677707199,
				"y": 3.0648040818,
				"z": -2.4913591651,
				"element": "H" 
			},
			{
				"x": -0.9373255334,
				"y": 2.6179505662,
				"z": -3.0257459022,
				"element": "H" 
			},
			{
				"x": -0.8161116608,
				"y": 0.2401422974,
				"z": -2.5645639467,
				"element": "H" 
			},
			{
				"x": -0.5003047108,
				"y": 4.0656052279,
				"z": 2.5462528284,
				"element": "H" 
			},
			{
				"x": 1.1072655634,
				"y": 4.5478773439,
				"z": 1.9998745996,
				"element": "H" 
			},
			{
				"x": 1.1483694744,
				"y": 2.8211879006,
				"z": 3.8387134537,
				"element": "H" 
			},
			{
				"x": 2.008203927,
				"y": 2.3138185354,
				"z": 2.3829740068,
				"element": "H" 
			},
			{
				"x": -0.8260825217,
				"y": 1.4747677928,
				"z": 3.2003521068,
				"element": "H" 
			},
			{
				"x": 0.5794174129,
				"y": 0.4308103831,
				"z": 3.136869452,
				"element": "H" 
			}
		],
		 "valence_orbital": [ 
			{
				"type": "occ",
				"energy": -0.2656,
				"method": "rhf"
			},
			{
				"type": "occ",
				"energy": -0.26472,
				"method": "rhf"
			},
			{
				"type": "occ",
				"energy": -0.23515,
				"method": "rhf"
			},
			{
				"type": "occ",
				"energy": -0.23476,
				"method": "rhf"
			},
			{
				"type": "occ",
				"energy": -0.19749,
				"method": "rhf"
			},
			{
				"type": "unocc",
				"energy": -0.06828,
				"method": "rhf"
			},
			{
				"type": "unocc",
				"energy": -0.01032,
				"method": "rhf"
			},
			{
				"type": "unocc",
				"energy": 0.01054,
				"method": "rhf"
			},
			{
				"type": "unocc",
				"energy": 0.02137,
				"method": "rhf"
			},
			{
				"type": "unocc",
				"energy": 0.06783,
				"method": "rhf"
			}
		],
		"cosmo_sigma_profile": { 
			"-0.025": 0.0,
			"-0.024": 0.0,
			"-0.023": 0.0,
			"-0.022": 0.0,
			"-0.021": 0.0,
			"-0.02": 0.0,
			"-0.019": 0.0,
			"-0.018": 0.0,
			"-0.017": 0.0,
			"-0.016": 0.0,
			"-0.015": 0.0,
			"-0.014": 0.0,
			"-0.013": 0.0,
			"-0.012": 0.0,
			"-0.011": 0.0,
			"-0.01": 0.0,
			"-0.009": 0.0,
			"-0.008": 0.201088537203,
			"-0.007": 2.46534583173,
			"-0.006": 3.94568137801,
			"-0.005": 13.7980213007,
			"-0.004": 43.1548640233,
			"-0.003": 43.8831440273,
			"-0.002": 38.9382846721,
			"-0.001": 34.629378447,
			"0.0": 27.1882327931,
			"0.001": 20.459449768,
			"0.002": 16.7387761709,
			"0.003": 11.6741125364,
			"0.004": 7.58996243048,
			"0.005": 4.25220035617,
			"0.006": 3.45789974125,
			"0.007": 3.80131513263,
			"0.008": 3.30554171361,
			"0.009": 3.5073739409,
			"0.01": 4.23680702529,
			"0.011": 4.82983200503,
			"0.012": 7.62994487636,
			"0.013": 5.84737769777,
			"0.014": 1.50955571643,
			"0.015": 0.00403099321956,
			"0.016": 0.0,
			"0.017": 0.0,
			"0.018": 0.0,
			"0.019": 0.0,
			"0.02": 0.0,
			"0.021": 0.0,
			"0.022": 0.0,
			"0.023": 0.0,
			"0.024": 0.0,
			"0.025": 0.0
		}
	}
}
