{
	 "smiles": "CC1=CC=C(C)N1C1=CC(N)=C(C)C=C1", 
	 "Tm": 357.15, 
	 "num_atms": 31, 
	 "gaussian": { 
		 "optdone": 1, 
		 "sigma_profile": "yes", 
		 "theory": "DFT", 
		 "functional": "B3LYP", 
		 "basiset": "6-31G**", 
		 "properties": { 
			 "R2extent": 3668.4719, 
			 "electric_dipole_moment_norm": 3.67922692016, 
			 "electric_quadrupole_moment_norm": 9.06885294511, 
			 "total_energy": -614.541434363, 
			 "HOMO_LUMO_gap": 0.1762, 
			 "cosmo_polarized_energy": -10.21, 
			 "cosmo_cavitation_energy": 33.49, 
			 "cosmo_dispersion_energy": -23.25, 
			 "cosmo_repulsion_energy": 1.84, 
			 "cosmo_total_nonelectrostatic_energy": 12.08, 
			 "SMD_solvation_energy": 5.83 
		},
		"coords": [
			{
				"x": -1.5245752306,
				"y": 2.8591987922,
				"z": -0.1434029247,
				"element": "C" 
			},
			{
				"x": -1.4914499203,
				"y": 1.860834966,
				"z": -1.2565623899,
				"element": "C" 
			},
			{
				"x": -2.1704309546,
				"y": 1.8414569208,
				"z": -2.4549617689,
				"element": "C" 
			},
			{
				"x": -1.8152745012,
				"y": 0.6457405544,
				"z": -3.1428738945,
				"element": "C" 
			},
			{
				"x": -0.9284898542,
				"y": -0.052211573,
				"z": -2.3529658863,
				"element": "C" 
			},
			{
				"x": -0.2226591855,
				"y": -1.3465918402,
				"z": -2.6043400434,
				"element": "C" 
			},
			{
				"x": -0.7292648241,
				"y": 0.6963074837,
				"z": -1.1951551732,
				"element": "N" 
			},
			{
				"x": 0.1251782517,
				"y": 0.3257696138,
				"z": -0.1109592376,
				"element": "C" 
			},
			{
				"x": 1.343604752,
				"y": 0.9847545911,
				"z": 0.0617150972,
				"element": "C" 
			},
			{
				"x": 2.1988259499,
				"y": 0.6472032336,
				"z": 1.1212320964,
				"element": "C" 
			},
			{
				"x": 3.3841131379,
				"y": 1.3589256822,
				"z": 1.3209596796,
				"element": "N" 
			},
			{
				"x": 1.8272793798,
				"y": -0.3835157271,
				"z": 2.0168155648,
				"element": "C" 
			},
			{
				"x": 2.731186909,
				"y": -0.7518932238,
				"z": 3.1665740949,
				"element": "C" 
			},
			{
				"x": 0.6085360068,
				"y": -1.0336783753,
				"z": 1.8129988995,
				"element": "C" 
			},
			{
				"x": -0.2506182135,
				"y": -0.6927863908,
				"z": 0.7676309351,
				"element": "C" 
			},
			{
				"x": -0.5519978268,
				"y": 3.3348199586,
				"z": 0.0319465926,
				"element": "H" 
			},
			{
				"x": -1.8335217557,
				"y": 2.4080776252,
				"z": 0.8076344465,
				"element": "H" 
			},
			{
				"x": -2.2410678181,
				"y": 3.6473994619,
				"z": -0.3882100917,
				"element": "H" 
			},
			{
				"x": -2.8558299551,
				"y": 2.6072236011,
				"z": -2.7928597354,
				"element": "H" 
			},
			{
				"x": -2.1647680932,
				"y": 0.3266040862,
				"z": -4.1156887196,
				"element": "H" 
			},
			{
				"x": -0.4905271742,
				"y": -1.7156456669,
				"z": -3.597627217,
				"element": "H" 
			},
			{
				"x": 0.8685691029,
				"y": -1.2373760524,
				"z": -2.5701549923,
				"element": "H" 
			},
			{
				"x": -0.4871365904,
				"y": -2.1231869405,
				"z": -1.8766108622,
				"element": "H" 
			},
			{
				"x": 1.627830187,
				"y": 1.7634835429,
				"z": -0.6407510792,
				"element": "H" 
			},
			{
				"x": 3.7096712636,
				"y": 1.8774344441,
				"z": 0.5167465106,
				"element": "H" 
			},
			{
				"x": 4.1328308488,
				"y": 0.8465746815,
				"z": 1.7656605906,
				"element": "H" 
			},
			{
				"x": 3.697751511,
				"y": -1.1477583525,
				"z": 2.8225044471,
				"element": "H" 
			},
			{
				"x": 2.2745962868,
				"y": -1.5211603051,
				"z": 3.7941473163,
				"element": "H" 
			},
			{
				"x": 2.9483344391,
				"y": 0.1166888303,
				"z": 3.8007672082,
				"element": "H" 
			},
			{
				"x": 0.3202601267,
				"y": -1.8243517457,
				"z": 2.5013432196,
				"element": "H" 
			},
			{
				"x": -1.2026562557,
				"y": -1.1954418767,
				"z": 0.6364473171,
				"element": "H" 
			}
		],
		 "valence_orbital": [ 
			{
				"type": "occ",
				"energy": -0.31052,
				"method": "rhf"
			},
			{
				"type": "occ",
				"energy": -0.24669,
				"method": "rhf"
			},
			{
				"type": "occ",
				"energy": -0.21736,
				"method": "rhf"
			},
			{
				"type": "occ",
				"energy": -0.20535,
				"method": "rhf"
			},
			{
				"type": "occ",
				"energy": -0.17907,
				"method": "rhf"
			},
			{
				"type": "unocc",
				"energy": -0.00287,
				"method": "rhf"
			},
			{
				"type": "unocc",
				"energy": 0.01021,
				"method": "rhf"
			},
			{
				"type": "unocc",
				"energy": 0.05553,
				"method": "rhf"
			},
			{
				"type": "unocc",
				"energy": 0.07139,
				"method": "rhf"
			},
			{
				"type": "unocc",
				"energy": 0.09848,
				"method": "rhf"
			}
		],
		"cosmo_sigma_profile": { 
			"-0.025": 0.0,
			"-0.024": 0.0,
			"-0.023": 0.0,
			"-0.022": 0.0,
			"-0.021": 0.0,
			"-0.02": 0.0,
			"-0.019": 0.0,
			"-0.018": 0.0,
			"-0.017": 0.0,
			"-0.016": 0.0,
			"-0.015": 0.0,
			"-0.014": 0.0,
			"-0.013": 0.15391178277,
			"-0.012": 1.79399637121,
			"-0.011": 2.57460065221,
			"-0.01": 2.87797604775,
			"-0.009": 3.10647753693,
			"-0.008": 2.77749773199,
			"-0.007": 3.48214016413,
			"-0.006": 4.21908449387,
			"-0.005": 9.27008721533,
			"-0.004": 19.2461398311,
			"-0.003": 24.828382859,
			"-0.002": 26.5824700091,
			"-0.001": 24.9769720362,
			"0.0": 30.9499565538,
			"0.001": 22.930913144,
			"0.002": 14.7289989725,
			"0.003": 12.9880247887,
			"0.004": 12.0511168461,
			"0.005": 12.2862515934,
			"0.006": 10.3870683944,
			"0.007": 5.50133032345,
			"0.008": 5.81703976174,
			"0.009": 4.61980205528,
			"0.01": 2.9751215428,
			"0.011": 1.1513160161,
			"0.012": 0.306582714675,
			"0.013": 0.736981160013,
			"0.014": 0.335265528362,
			"0.015": 0.184778402152,
			"0.016": 0.0,
			"0.017": 0.0,
			"0.018": 0.0,
			"0.019": 0.0,
			"0.02": 0.0,
			"0.021": 0.0,
			"0.022": 0.0,
			"0.023": 0.0,
			"0.024": 0.0,
			"0.025": 0.0
		}
	}
}
