{
	 "smiles": "COC1=NC(NCC2=CC(=CC=C2)C(O)=O)=NC=C1", 
	 "Tm": 493.15, 
	 "num_atms": 32, 
	 "gaussian": { 
		 "optdone": 1, 
		 "sigma_profile": "yes", 
		 "theory": "DFT", 
		 "functional": "B3LYP", 
		 "basiset": "6-31G**", 
		 "properties": { 
			 "R2extent": 7913.0777, 
			 "electric_dipole_moment_norm": 1.54393052305, 
			 "electric_quadrupole_moment_norm": 10.2098825003, 
			 "total_energy": -893.175912147, 
			 "HOMO_LUMO_gap": 0.16686, 
			 "cosmo_polarized_energy": -14.41, 
			 "cosmo_cavitation_energy": 37.38, 
			 "cosmo_dispersion_energy": -26.93, 
			 "cosmo_repulsion_energy": 2.1, 
			 "cosmo_total_nonelectrostatic_energy": 12.55, 
			 "SMD_solvation_energy": 6.25 
		},
		"coords": [
			{
				"x": -2.8650032086,
				"y": 1.5186297558,
				"z": -3.4472912932,
				"element": "C" 
			},
			{
				"x": -1.7775545109,
				"y": 2.4429378283,
				"z": -3.5674608897,
				"element": "O" 
			},
			{
				"x": -0.9406821728,
				"y": 2.5527399039,
				"z": -2.5210948144,
				"element": "C" 
			},
			{
				"x": -1.145499255,
				"y": 1.8170630021,
				"z": -1.4391661514,
				"element": "N" 
			},
			{
				"x": -0.2576537536,
				"y": 1.9813223302,
				"z": -0.4287161833,
				"element": "C" 
			},
			{
				"x": -0.5101085173,
				"y": 1.2421064969,
				"z": 0.6899646789,
				"element": "N" 
			},
			{
				"x": 0.3626306412,
				"y": 1.1732221248,
				"z": 1.8538125709,
				"element": "C" 
			},
			{
				"x": 1.3331662152,
				"y": 0.0029740358,
				"z": 1.8294164932,
				"element": "C" 
			},
			{
				"x": 1.1390725591,
				"y": -1.1028182278,
				"z": 2.6562540779,
				"element": "C" 
			},
			{
				"x": 2.0241414627,
				"y": -2.1901143352,
				"z": 2.6228849482,
				"element": "C" 
			},
			{
				"x": 3.1194170837,
				"y": -2.1721031481,
				"z": 1.750894604,
				"element": "C" 
			},
			{
				"x": 3.3197471077,
				"y": -1.067375783,
				"z": 0.9225338569,
				"element": "C" 
			},
			{
				"x": 2.4366728246,
				"y": 0.011282101,
				"z": 0.960431929,
				"element": "C" 
			},
			{
				"x": 1.7523939821,
				"y": -3.3329312801,
				"z": 3.5331876112,
				"element": "C" 
			},
			{
				"x": 2.6691283201,
				"y": -4.328621942,
				"z": 3.4289116722,
				"element": "O" 
			},
			{
				"x": 0.8144503293,
				"y": -3.4020654655,
				"z": 4.3040100407,
				"element": "O" 
			},
			{
				"x": 0.8079221834,
				"y": 2.7987025894,
				"z": -0.4307996273,
				"element": "N" 
			},
			{
				"x": 0.9690802588,
				"y": 3.5296725599,
				"z": -1.5463168293,
				"element": "C" 
			},
			{
				"x": 0.1278954327,
				"y": 3.4631642238,
				"z": -2.6414759503,
				"element": "C" 
			},
			{
				"x": -3.5164014668,
				"y": 1.7854511038,
				"z": -2.6106333035,
				"element": "H" 
			},
			{
				"x": -3.4085125872,
				"y": 1.5896750247,
				"z": -4.3900980814,
				"element": "H" 
			},
			{
				"x": -2.4992363115,
				"y": 0.4995762464,
				"z": -3.2944475004,
				"element": "H" 
			},
			{
				"x": -1.2416259529,
				"y": 0.5546435008,
				"z": 0.5856969388,
				"element": "H" 
			},
			{
				"x": -0.265254902,
				"y": 1.108446941,
				"z": 2.7489736373,
				"element": "H" 
			},
			{
				"x": 0.9090234916,
				"y": 2.1175518387,
				"z": 1.8936744781,
				"element": "H" 
			},
			{
				"x": 0.3012255282,
				"y": -1.1440898052,
				"z": 3.3462801216,
				"element": "H" 
			},
			{
				"x": 3.8030351138,
				"y": -3.0130297915,
				"z": 1.7280771159,
				"element": "H" 
			},
			{
				"x": 4.1708722992,
				"y": -1.0457094769,
				"z": 0.2482022265,
				"element": "H" 
			},
			{
				"x": 2.593495743,
				"y": 0.8739068514,
				"z": 0.3190535369,
				"element": "H" 
			},
			{
				"x": 2.3892350736,
				"y": -5.0090658976,
				"z": 4.0628107968,
				"element": "H" 
			},
			{
				"x": 1.8275599068,
				"y": 4.1993861974,
				"z": -1.5529035029,
				"element": "H" 
			},
			{
				"x": 0.2695670822,
				"y": 4.052670497,
				"z": -3.537467208,
				"element": "H" 
			}
		],
		 "valence_orbital": [ 
			{
				"type": "occ",
				"energy": -0.2684,
				"method": "rhf"
			},
			{
				"type": "occ",
				"energy": -0.25928,
				"method": "rhf"
			},
			{
				"type": "occ",
				"energy": -0.25676,
				"method": "rhf"
			},
			{
				"type": "occ",
				"energy": -0.25051,
				"method": "rhf"
			},
			{
				"type": "occ",
				"energy": -0.2149,
				"method": "rhf"
			},
			{
				"type": "unocc",
				"energy": -0.04804,
				"method": "rhf"
			},
			{
				"type": "unocc",
				"energy": -0.01506,
				"method": "rhf"
			},
			{
				"type": "unocc",
				"energy": -0.01007,
				"method": "rhf"
			},
			{
				"type": "unocc",
				"energy": 0.01074,
				"method": "rhf"
			},
			{
				"type": "unocc",
				"energy": 0.05504,
				"method": "rhf"
			}
		],
		"cosmo_sigma_profile": { 
			"-0.025": 0.0,
			"-0.024": 0.0,
			"-0.023": 0.0,
			"-0.022": 0.0,
			"-0.021": 0.0,
			"-0.02": 0.0,
			"-0.019": 0.047245874251,
			"-0.018": 0.668875725076,
			"-0.017": 1.05818028563,
			"-0.016": 0.540053219902,
			"-0.015": 1.0499262009,
			"-0.014": 0.842230013902,
			"-0.013": 1.60697928845,
			"-0.012": 1.4174890409,
			"-0.011": 1.6971058685,
			"-0.01": 1.68742623009,
			"-0.009": 1.83448255902,
			"-0.008": 1.07977030557,
			"-0.007": 5.27938849784,
			"-0.006": 16.1873370455,
			"-0.005": 18.8984991578,
			"-0.004": 21.3009639279,
			"-0.003": 20.5244966467,
			"-0.002": 20.5919625806,
			"-0.001": 18.387379333,
			"0.0": 22.1298882314,
			"0.001": 25.4087417228,
			"0.002": 26.4032018013,
			"0.003": 24.6004689209,
			"0.004": 16.6816762204,
			"0.005": 10.2503795354,
			"0.006": 5.92004700151,
			"0.007": 8.13961772762,
			"0.008": 6.30925631535,
			"0.009": 4.54513203677,
			"0.01": 3.25155834204,
			"0.011": 4.74415730323,
			"0.012": 5.0273844708,
			"0.013": 0.222633449866,
			"0.014": 0.0,
			"0.015": 0.0,
			"0.016": 0.0,
			"0.017": 0.0,
			"0.018": 0.0,
			"0.019": 0.0,
			"0.02": 0.0,
			"0.021": 0.0,
			"0.022": 0.0,
			"0.023": 0.0,
			"0.024": 0.0,
			"0.025": 0.0
		}
	}
}
