{
	 "smiles": "NC1=CC=C(OC2=C3N=CC=CC3=CC=C2)C=C1", 
	 "Tm": 477.15, 
	 "num_atms": 30, 
	 "gaussian": { 
		 "optdone": 1, 
		 "sigma_profile": "yes", 
		 "theory": "DFT", 
		 "functional": "B3LYP", 
		 "basiset": "6-31G**", 
		 "properties": { 
			 "R2extent": 5228.4916, 
			 "electric_dipole_moment_norm": 3.00816352115, 
			 "electric_quadrupole_moment_norm": 15.3809665399, 
			 "total_energy": -763.547743425, 
			 "HOMO_LUMO_gap": 0.12945, 
			 "cosmo_polarized_energy": -15.43, 
			 "cosmo_cavitation_energy": 34.37, 
			 "cosmo_dispersion_energy": -24.62, 
			 "cosmo_repulsion_energy": 1.9, 
			 "cosmo_total_nonelectrostatic_energy": 11.65, 
			 "SMD_solvation_energy": 4.83 
		},
		"coords": [
			{
				"x": 0.2025229961,
				"y": -3.8349651182,
				"z": 4.3158399447,
				"element": "N" 
			},
			{
				"x": 0.6772742942,
				"y": -2.8821285984,
				"z": 3.3986333941,
				"element": "C" 
			},
			{
				"x": 0.4522077403,
				"y": -3.0311323145,
				"z": 2.0220172483,
				"element": "C" 
			},
			{
				"x": 0.9762016045,
				"y": -2.1219670822,
				"z": 1.1036169306,
				"element": "C" 
			},
			{
				"x": 1.7260816306,
				"y": -1.0366754044,
				"z": 1.5539961064,
				"element": "C" 
			},
			{
				"x": 2.3364492544,
				"y": -0.1247835952,
				"z": 0.7018290326,
				"element": "O" 
			},
			{
				"x": 1.8105448635,
				"y": 0.1159231441,
				"z": -0.5419624166,
				"element": "C" 
			},
			{
				"x": 0.5282193236,
				"y": 0.7367987318,
				"z": -0.6945863074,
				"element": "C" 
			},
			{
				"x": -0.2008382079,
				"y": 1.0307268545,
				"z": 0.4161405107,
				"element": "N" 
			},
			{
				"x": -1.3752507264,
				"y": 1.6042037828,
				"z": 0.249438794,
				"element": "C" 
			},
			{
				"x": -1.9270414105,
				"y": 1.9332848924,
				"z": -1.0138268423,
				"element": "C" 
			},
			{
				"x": -1.1976102105,
				"y": 1.6498699755,
				"z": -2.1438235286,
				"element": "C" 
			},
			{
				"x": 0.0761845785,
				"y": 1.0367493757,
				"z": -2.0209297472,
				"element": "C" 
			},
			{
				"x": 0.8987758945,
				"y": 0.7350337328,
				"z": -3.1382579037,
				"element": "C" 
			},
			{
				"x": 2.1326508932,
				"y": 0.1563259317,
				"z": -2.9486237026,
				"element": "C" 
			},
			{
				"x": 2.5888489324,
				"y": -0.157934265,
				"z": -1.6469005914,
				"element": "C" 
			},
			{
				"x": 1.9627650873,
				"y": -0.8730817006,
				"z": 2.9181574255,
				"element": "C" 
			},
			{
				"x": 1.4464472407,
				"y": -1.788572222,
				"z": 3.8300608197,
				"element": "C" 
			},
			{
				"x": 0.0639996213,
				"y": -3.4727504431,
				"z": 5.2503503008,
				"element": "H" 
			},
			{
				"x": -0.6197050894,
				"y": -4.3341429403,
				"z": 4.0021997675,
				"element": "H" 
			},
			{
				"x": -0.1318355169,
				"y": -3.8750856736,
				"z": 1.6625529342,
				"element": "H" 
			},
			{
				"x": 0.7976537179,
				"y": -2.2591729217,
				"z": 0.0422831112,
				"element": "H" 
			},
			{
				"x": -1.9352829616,
				"y": 1.8298380304,
				"z": 1.1565056969,
				"element": "H" 
			},
			{
				"x": -2.903952366,
				"y": 2.4027531581,
				"z": -1.0731144154,
				"element": "H" 
			},
			{
				"x": -1.5779027327,
				"y": 1.8901075327,
				"z": -3.1336017228,
				"element": "H" 
			},
			{
				"x": 0.5425274956,
				"y": 0.9741034865,
				"z": -4.1365768027,
				"element": "H" 
			},
			{
				"x": 2.7669116166,
				"y": -0.0707645422,
				"z": -3.8003198066,
				"element": "H" 
			},
			{
				"x": 3.5606452251,
				"y": -0.6152284915,
				"z": -1.4932561874,
				"element": "H" 
			},
			{
				"x": 2.5481399743,
				"y": -0.0227340935,
				"z": 3.2517996197,
				"element": "H" 
			},
			{
				"x": 1.6397672371,
				"y": -1.6542992228,
				"z": 4.8916583377,
				"element": "H" 
			}
		],
		 "valence_orbital": [ 
			{
				"type": "occ",
				"energy": -0.25285,
				"method": "rhf"
			},
			{
				"type": "occ",
				"energy": -0.25228,
				"method": "rhf"
			},
			{
				"type": "occ",
				"energy": -0.23894,
				"method": "rhf"
			},
			{
				"type": "occ",
				"energy": -0.22357,
				"method": "rhf"
			},
			{
				"type": "occ",
				"energy": -0.1812,
				"method": "rhf"
			},
			{
				"type": "unocc",
				"energy": -0.05175,
				"method": "rhf"
			},
			{
				"type": "unocc",
				"energy": -0.01756,
				"method": "rhf"
			},
			{
				"type": "unocc",
				"energy": 0.0097,
				"method": "rhf"
			},
			{
				"type": "unocc",
				"energy": 0.02221,
				"method": "rhf"
			},
			{
				"type": "unocc",
				"energy": 0.03787,
				"method": "rhf"
			}
		],
		"cosmo_sigma_profile": { 
			"-0.025": 0.0,
			"-0.024": 0.0,
			"-0.023": 0.0,
			"-0.022": 0.0,
			"-0.021": 0.0,
			"-0.02": 0.0,
			"-0.019": 0.0,
			"-0.018": 0.0,
			"-0.017": 0.0,
			"-0.016": 0.0,
			"-0.015": 0.0,
			"-0.014": 0.0,
			"-0.013": 0.0372779860965,
			"-0.012": 1.73664487392,
			"-0.011": 2.67374874098,
			"-0.01": 2.84070672416,
			"-0.009": 3.46319766264,
			"-0.008": 3.32979180863,
			"-0.007": 10.6979726403,
			"-0.006": 20.2868011711,
			"-0.005": 19.1655592959,
			"-0.004": 19.1300933672,
			"-0.003": 15.6023857508,
			"-0.002": 14.6940406969,
			"-0.001": 13.4217625472,
			"0.0": 15.8421031498,
			"0.001": 20.619653011,
			"0.002": 25.7411300365,
			"0.003": 19.2419727427,
			"0.004": 14.9083581404,
			"0.005": 11.6721218552,
			"0.006": 11.9127424044,
			"0.007": 6.3720315909,
			"0.008": 4.91090864918,
			"0.009": 4.66433783103,
			"0.01": 2.89426732309,
			"0.011": 2.54933121887,
			"0.012": 2.26037761945,
			"0.013": 2.53975557669,
			"0.014": 1.41891642565,
			"0.015": 0.69440032024,
			"0.016": 0.175424962051,
			"0.017": 0.0,
			"0.018": 0.0,
			"0.019": 0.0,
			"0.02": 0.0,
			"0.021": 0.0,
			"0.022": 0.0,
			"0.023": 0.0,
			"0.024": 0.0,
			"0.025": 0.0
		}
	}
}
