{
	 "smiles": "CN(C)S(=O)(=O)C1=CC(C(O)=O)=C(C=C1)N1CCCCC1", 
	 "Tm": 409.15, 
	 "num_atms": 41, 
	 "gaussian": { 
		 "optdone": 1, 
		 "sigma_profile": "yes", 
		 "theory": "DFT", 
		 "functional": "B3LYP", 
		 "basiset": "6-31G**", 
		 "properties": { 
			 "R2extent": 8163.3087, 
			 "electric_dipole_moment_norm": 7.60714228275, 
			 "electric_quadrupole_moment_norm": 20.9510813024, 
			 "total_energy": -1354.0691976, 
			 "HOMO_LUMO_gap": 0.16238, 
			 "cosmo_polarized_energy": -20.59, 
			 "cosmo_cavitation_energy": 42.7, 
			 "cosmo_dispersion_energy": -30.53, 
			 "cosmo_repulsion_energy": 2.3, 
			 "cosmo_total_nonelectrostatic_energy": 14.47, 
			 "SMD_solvation_energy": 5.3 
		},
		"coords": [
			{
				"x": 2.164950831,
				"y": 0.0789454726,
				"z": -4.0243675264,
				"element": "C" 
			},
			{
				"x": 2.1687245608,
				"y": 1.4206151625,
				"z": -3.439407503,
				"element": "N" 
			},
			{
				"x": 3.2429459133,
				"y": 1.6672367689,
				"z": -2.4758365347,
				"element": "C" 
			},
			{
				"x": 0.6494525854,
				"y": 2.05458173,
				"z": -3.0316800466,
				"element": "S" 
			},
			{
				"x": 0.898488942,
				"y": 3.4191079054,
				"z": -2.5610065136,
				"element": "O" 
			},
			{
				"x": -0.2234398656,
				"y": 1.7694721575,
				"z": -4.1736608915,
				"element": "O" 
			},
			{
				"x": 0.0360867862,
				"y": 1.1059905113,
				"z": -1.6457628549,
				"element": "C" 
			},
			{
				"x": 0.3363039129,
				"y": 1.4940580085,
				"z": -0.3457260712,
				"element": "C" 
			},
			{
				"x": -0.1231545186,
				"y": 0.7597209287,
				"z": 0.7591717659,
				"element": "C" 
			},
			{
				"x": -0.0363101139,
				"y": 1.4250300005,
				"z": 2.0833927463,
				"element": "C" 
			},
			{
				"x": 0.9880607105,
				"y": 2.3189502265,
				"z": 2.1537160017,
				"element": "O" 
			},
			{
				"x": -0.8046690093,
				"y": 1.2775474559,
				"z": 3.0162380746,
				"element": "O" 
			},
			{
				"x": -0.8454891729,
				"y": -0.4623245822,
				"z": 0.5503536719,
				"element": "C" 
			},
			{
				"x": -1.193087422,
				"y": -0.785247213,
				"z": -0.7903960277,
				"element": "C" 
			},
			{
				"x": -0.7641167047,
				"y": -0.0244789379,
				"z": -1.8624750723,
				"element": "C" 
			},
			{
				"x": -1.1872335306,
				"y": -1.320151368,
				"z": 1.5672082365,
				"element": "N" 
			},
			{
				"x": -0.3532992359,
				"y": -1.4871416117,
				"z": 2.7703902618,
				"element": "C" 
			},
			{
				"x": -0.2190792378,
				"y": -2.9714684691,
				"z": 3.126701589,
				"element": "C" 
			},
			{
				"x": -1.5890068633,
				"y": -3.5997654407,
				"z": 3.4627123426,
				"element": "C" 
			},
			{
				"x": -2.7188812688,
				"y": -2.8927890089,
				"z": 2.6836074991,
				"element": "C" 
			},
			{
				"x": -2.2212331112,
				"y": -2.3412738438,
				"z": 1.3454358324,
				"element": "C" 
			},
			{
				"x": 2.0258824652,
				"y": -0.7151741418,
				"z": -3.2735523823,
				"element": "H" 
			},
			{
				"x": 1.3771904247,
				"y": 0.0144394313,
				"z": -4.7745198465,
				"element": "H" 
			},
			{
				"x": 3.12864153,
				"y": -0.0781801461,
				"z": -4.517936429,
				"element": "H" 
			},
			{
				"x": 3.2042879788,
				"y": 2.7063012399,
				"z": -2.1501213086,
				"element": "H" 
			},
			{
				"x": 3.1907560524,
				"y": 1.0040447733,
				"z": -1.5978764306,
				"element": "H" 
			},
			{
				"x": 4.1976259947,
				"y": 1.4963566103,
				"z": -2.9821748138,
				"element": "H" 
			},
			{
				"x": 0.8717090858,
				"y": 2.4195638311,
				"z": -0.1744999208,
				"element": "H" 
			},
			{
				"x": 0.8790750866,
				"y": 2.7680464425,
				"z": 3.0079790682,
				"element": "H" 
			},
			{
				"x": -1.7723717182,
				"y": -1.676558259,
				"z": -0.9924125574,
				"element": "H" 
			},
			{
				"x": -1.0445543416,
				"y": -0.2976139613,
				"z": -2.8741259649,
				"element": "H" 
			},
			{
				"x": -0.7644507389,
				"y": -0.9183789517,
				"z": 3.6107347849,
				"element": "H" 
			},
			{
				"x": 0.6339155233,
				"y": -1.0661226274,
				"z": 2.5579634623,
				"element": "H" 
			},
			{
				"x": 0.4719549797,
				"y": -3.0706634977,
				"z": 3.970508565,
				"element": "H" 
			},
			{
				"x": 0.2425342592,
				"y": -3.4972795377,
				"z": 2.2823017067,
				"element": "H" 
			},
			{
				"x": -1.7879436738,
				"y": -3.5266431533,
				"z": 4.5373081197,
				"element": "H" 
			},
			{
				"x": -1.5707421554,
				"y": -4.6684760277,
				"z": 3.2219001247,
				"element": "H" 
			},
			{
				"x": -3.1193776784,
				"y": -2.0575716982,
				"z": 3.2687101186,
				"element": "H" 
			},
			{
				"x": -3.5539165267,
				"y": -3.5760830673,
				"z": 2.4979544469,
				"element": "H" 
			},
			{
				"x": -3.0520932728,
				"y": -1.8796604888,
				"z": 0.8030936759,
				"element": "H" 
			},
			{
				"x": -1.8448374622,
				"y": -3.1683626234,
				"z": 0.7203566009,
				"element": "H" 
			}
		],
		 "valence_orbital": [ 
			{
				"type": "occ",
				"energy": -0.28974,
				"method": "rhf"
			},
			{
				"type": "occ",
				"energy": -0.27667,
				"method": "rhf"
			},
			{
				"type": "occ",
				"energy": -0.2685,
				"method": "rhf"
			},
			{
				"type": "occ",
				"energy": -0.25299,
				"method": "rhf"
			},
			{
				"type": "occ",
				"energy": -0.21135,
				"method": "rhf"
			},
			{
				"type": "unocc",
				"energy": -0.04897,
				"method": "rhf"
			},
			{
				"type": "unocc",
				"energy": -0.02323,
				"method": "rhf"
			},
			{
				"type": "unocc",
				"energy": 0.03298,
				"method": "rhf"
			},
			{
				"type": "unocc",
				"energy": 0.06405,
				"method": "rhf"
			},
			{
				"type": "unocc",
				"energy": 0.07107,
				"method": "rhf"
			}
		],
		"cosmo_sigma_profile": { 
			"-0.025": 0.0,
			"-0.024": 0.0,
			"-0.023": 0.0,
			"-0.022": 0.0,
			"-0.021": 0.0,
			"-0.02": 0.0,
			"-0.019": 0.0,
			"-0.018": 0.390136509311,
			"-0.017": 1.1933135371,
			"-0.016": 0.770277640796,
			"-0.015": 0.581596616035,
			"-0.014": 0.592628918627,
			"-0.013": 0.755321974544,
			"-0.012": 0.381590515591,
			"-0.011": 0.897577777026,
			"-0.01": 1.02329087761,
			"-0.009": 0.907357999897,
			"-0.008": 0.459801768643,
			"-0.007": 3.32316212522,
			"-0.006": 10.8375050839,
			"-0.005": 15.440857051,
			"-0.004": 29.383707255,
			"-0.003": 49.9694686612,
			"-0.002": 54.0371436345,
			"-0.001": 25.878236975,
			"0.0": 23.9489709847,
			"0.001": 16.3861091706,
			"0.002": 17.2550773409,
			"0.003": 10.3165949121,
			"0.004": 7.44304210327,
			"0.005": 7.25785926864,
			"0.006": 5.69678773171,
			"0.007": 7.24960442401,
			"0.008": 7.56482624417,
			"0.009": 6.77177941367,
			"0.01": 7.81127668976,
			"0.011": 10.6501435684,
			"0.012": 9.31004352811,
			"0.013": 0.633748274096,
			"0.014": 0.0,
			"0.015": 0.0,
			"0.016": 0.0,
			"0.017": 0.0,
			"0.018": 0.0,
			"0.019": 0.0,
			"0.02": 0.0,
			"0.021": 0.0,
			"0.022": 0.0,
			"0.023": 0.0,
			"0.024": 0.0,
			"0.025": 0.0
		}
	}
}
