{
	 "smiles": "COC(=O)C1=CC(C)=NC(Cl)=N1", 
	 "Tm": 383.15, 
	 "num_atms": 19, 
	 "gaussian": { 
		 "optdone": 1, 
		 "sigma_profile": "yes", 
		 "theory": "DFT", 
		 "functional": "B3LYP", 
		 "basiset": "6-31G**", 
		 "properties": { 
			 "R2extent": 3458.2921, 
			 "electric_dipole_moment_norm": 2.55757268518, 
			 "electric_quadrupole_moment_norm": 17.9360645302, 
			 "total_energy": -991.112363724, 
			 "HOMO_LUMO_gap": 0.18848, 
			 "cosmo_polarized_energy": -11.15, 
			 "cosmo_cavitation_energy": 26.3, 
			 "cosmo_dispersion_energy": -19.44, 
			 "cosmo_repulsion_energy": 1.59, 
			 "cosmo_total_nonelectrostatic_energy": 8.44, 
			 "SMD_solvation_energy": 3.51 
		},
		"coords": [
			{
				"x": 2.647275542,
				"y": 0.3047921414,
				"z": 2.0442510352,
				"element": "C" 
			},
			{
				"x": 1.9456178212,
				"y": -0.1262082703,
				"z": 0.8646849684,
				"element": "O" 
			},
			{
				"x": 0.7190447614,
				"y": -0.6101037167,
				"z": 1.0776361987,
				"element": "C" 
			},
			{
				"x": 0.1892638425,
				"y": -0.7008432898,
				"z": 2.1678083943,
				"element": "O" 
			},
			{
				"x": 0.0317262206,
				"y": -1.0458680649,
				"z": -0.1930844888,
				"element": "C" 
			},
			{
				"x": -1.2533373467,
				"y": -1.5687074158,
				"z": -0.1026917644,
				"element": "C" 
			},
			{
				"x": -1.8677893374,
				"y": -1.9652725336,
				"z": -1.2986332758,
				"element": "C" 
			},
			{
				"x": -3.2551641848,
				"y": -2.5448328086,
				"z": -1.3282520562,
				"element": "C" 
			},
			{
				"x": -1.2269338054,
				"y": -1.8379310178,
				"z": -2.4717193683,
				"element": "N" 
			},
			{
				"x": -0.0015184458,
				"y": -1.3232510919,
				"z": -2.4214007697,
				"element": "C" 
			},
			{
				"x": 0.8172103464,
				"y": -1.1658315289,
				"z": -3.9642672194,
				"element": "Cl" 
			},
			{
				"x": 0.6785873558,
				"y": -0.9155925302,
				"z": -1.3620200601,
				"element": "N" 
			},
			{
				"x": 2.7738134056,
				"y": -0.5286745093,
				"z": 2.7395388309,
				"element": "H" 
			},
			{
				"x": 3.6134276234,
				"y": 0.6639578147,
				"z": 1.6923409308,
				"element": "H" 
			},
			{
				"x": 2.0963271184,
				"y": 1.1040946516,
				"z": 2.5459262799,
				"element": "H" 
			},
			{
				"x": -1.7395298477,
				"y": -1.6565339897,
				"z": 0.8612070738,
				"element": "H" 
			},
			{
				"x": -3.3077841662,
				"y": -3.4551785125,
				"z": -0.7211640605,
				"element": "H" 
			},
			{
				"x": -3.5366783003,
				"y": -2.7830389378,
				"z": -2.354419766,
				"element": "H" 
			},
			{
				"x": -3.9799586032,
				"y": -1.8363763898,
				"z": -0.9125408826,
				"element": "H" 
			}
		],
		 "valence_orbital": [ 
			{
				"type": "occ",
				"energy": -0.3196,
				"method": "rhf"
			},
			{
				"type": "occ",
				"energy": -0.31541,
				"method": "rhf"
			},
			{
				"type": "occ",
				"energy": -0.29419,
				"method": "rhf"
			},
			{
				"type": "occ",
				"energy": -0.27917,
				"method": "rhf"
			},
			{
				"type": "occ",
				"energy": -0.27004,
				"method": "rhf"
			},
			{
				"type": "unocc",
				"energy": -0.08156,
				"method": "rhf"
			},
			{
				"type": "unocc",
				"energy": -0.04587,
				"method": "rhf"
			},
			{
				"type": "unocc",
				"energy": 0.03144,
				"method": "rhf"
			},
			{
				"type": "unocc",
				"energy": 0.03704,
				"method": "rhf"
			},
			{
				"type": "unocc",
				"energy": 0.10062,
				"method": "rhf"
			}
		],
		"cosmo_sigma_profile": { 
			"-0.025": 0.0,
			"-0.024": 0.0,
			"-0.023": 0.0,
			"-0.022": 0.0,
			"-0.021": 0.0,
			"-0.02": 0.0,
			"-0.019": 0.0,
			"-0.018": 0.0,
			"-0.017": 0.0,
			"-0.016": 0.0,
			"-0.015": 0.0,
			"-0.014": 0.0,
			"-0.013": 0.0,
			"-0.012": 0.0,
			"-0.011": 0.0,
			"-0.01": 0.0,
			"-0.009": 0.29374798799,
			"-0.008": 1.30974222211,
			"-0.007": 4.9243816805,
			"-0.006": 16.3100288906,
			"-0.005": 18.7612048863,
			"-0.004": 22.6408080352,
			"-0.003": 23.7729741586,
			"-0.002": 18.67187736,
			"-0.001": 14.4702865712,
			"0.0": 9.39779568724,
			"0.001": 8.74389905258,
			"0.002": 9.12548530436,
			"0.003": 11.6885472333,
			"0.004": 12.2705406741,
			"0.005": 6.32624194853,
			"0.006": 5.09755612479,
			"0.007": 5.59048095528,
			"0.008": 4.050336063,
			"0.009": 4.41490759249,
			"0.01": 4.68912340352,
			"0.011": 5.83072882951,
			"0.012": 1.87611746722,
			"0.013": 1.56169612869,
			"0.014": 0.948136100756,
			"0.015": 0.153545124024,
			"0.016": 0.0,
			"0.017": 0.0,
			"0.018": 0.0,
			"0.019": 0.0,
			"0.02": 0.0,
			"0.021": 0.0,
			"0.022": 0.0,
			"0.023": 0.0,
			"0.024": 0.0,
			"0.025": 0.0
		}
	}
}
