{
	 "smiles": "CS(=O)(=O)CC1=CC(N)=C(Cl)C=C1", 
	 "Tm": 411.15, 
	 "num_atms": 23, 
	 "gaussian": { 
		 "optdone": 1, 
		 "sigma_profile": "yes", 
		 "theory": "DFT", 
		 "functional": "B3LYP", 
		 "basiset": "6-31G**", 
		 "properties": { 
			 "R2extent": 4264.3782, 
			 "electric_dipole_moment_norm": 5.23504508577, 
			 "electric_quadrupole_moment_norm": 19.4934818637, 
			 "total_energy": -1374.40570682, 
			 "HOMO_LUMO_gap": 0.19258, 
			 "cosmo_polarized_energy": -20.04, 
			 "cosmo_cavitation_energy": 29.69, 
			 "cosmo_dispersion_energy": -21.91, 
			 "cosmo_repulsion_energy": 1.7, 
			 "cosmo_total_nonelectrostatic_energy": 9.48, 
			 "SMD_solvation_energy": 4.27 
		},
		"coords": [
			{
				"x": -0.459725766,
				"y": -2.0893728028,
				"z": 1.7948981561,
				"element": "C" 
			},
			{
				"x": -0.0749046912,
				"y": -2.8140794137,
				"z": 0.1842663596,
				"element": "S" 
			},
			{
				"x": 0.9987339206,
				"y": -3.8031957296,
				"z": 0.3698096473,
				"element": "O" 
			},
			{
				"x": -1.3453693776,
				"y": -3.2042788656,
				"z": -0.4486297985,
				"element": "O" 
			},
			{
				"x": 0.6478572199,
				"y": -1.4271979683,
				"z": -0.7804554127,
				"element": "C" 
			},
			{
				"x": -0.217477602,
				"y": -0.2015337752,
				"z": -0.8920920756,
				"element": "C" 
			},
			{
				"x": 0.1777260678,
				"y": 0.981335622,
				"z": -0.2629635624,
				"element": "C" 
			},
			{
				"x": -0.5860807636,
				"y": 2.1608816682,
				"z": -0.3441051919,
				"element": "C" 
			},
			{
				"x": -0.142267767,
				"y": 3.3391202974,
				"z": 0.2294580054,
				"element": "N" 
			},
			{
				"x": -1.7853403508,
				"y": 2.0939523298,
				"z": -1.0797874516,
				"element": "C" 
			},
			{
				"x": -2.7939759771,
				"y": 3.5341329833,
				"z": -1.203623661,
				"element": "Cl" 
			},
			{
				"x": -2.1936364805,
				"y": 0.920592738,
				"z": -1.7069698369,
				"element": "C" 
			},
			{
				"x": -1.4152812567,
				"y": -0.230592122,
				"z": -1.6213748592,
				"element": "C" 
			},
			{
				"x": 0.462900497,
				"y": -1.7516908909,
				"z": 2.2693923768,
				"element": "H" 
			},
			{
				"x": -1.164886892,
				"y": -1.268596968,
				"z": 1.6627771925,
				"element": "H" 
			},
			{
				"x": -0.912409282,
				"y": -2.891883458,
				"z": 2.3799363295,
				"element": "H" 
			},
			{
				"x": 0.82932487,
				"y": -1.900872197,
				"z": -1.7507358848,
				"element": "H" 
			},
			{
				"x": 1.6155970898,
				"y": -1.2178834305,
				"z": -0.318405623,
				"element": "H" 
			},
			{
				"x": 1.1137466682,
				"y": 1.0114082633,
				"z": 0.2906485061,
				"element": "H" 
			},
			{
				"x": 0.518615855,
				"y": 3.2457228099,
				"z": 0.9861472655,
				"element": "H" 
			},
			{
				"x": -0.8404409473,
				"y": 4.0531460454,
				"z": 0.3794556141,
				"element": "H" 
			},
			{
				"x": -3.1257848084,
				"y": 0.9154225826,
				"z": -2.2613543694,
				"element": "H" 
			},
			{
				"x": -1.7431202263,
				"y": -1.1486377182,
				"z": -2.095091726,
				"element": "H" 
			}
		],
		 "valence_orbital": [ 
			{
				"type": "occ",
				"energy": -0.31011,
				"method": "rhf"
			},
			{
				"type": "occ",
				"energy": -0.29294,
				"method": "rhf"
			},
			{
				"type": "occ",
				"energy": -0.2895,
				"method": "rhf"
			},
			{
				"type": "occ",
				"energy": -0.25449,
				"method": "rhf"
			},
			{
				"type": "occ",
				"energy": -0.22039,
				"method": "rhf"
			},
			{
				"type": "unocc",
				"energy": -0.02781,
				"method": "rhf"
			},
			{
				"type": "unocc",
				"energy": -0.00845,
				"method": "rhf"
			},
			{
				"type": "unocc",
				"energy": 0.0217,
				"method": "rhf"
			},
			{
				"type": "unocc",
				"energy": 0.06653,
				"method": "rhf"
			},
			{
				"type": "unocc",
				"energy": 0.06833,
				"method": "rhf"
			}
		],
		"cosmo_sigma_profile": { 
			"-0.025": 0.0,
			"-0.024": 0.0,
			"-0.023": 0.0,
			"-0.022": 0.0,
			"-0.021": 0.0,
			"-0.02": 0.0,
			"-0.019": 0.0,
			"-0.018": 0.0,
			"-0.017": 0.0,
			"-0.016": 0.0,
			"-0.015": 0.0,
			"-0.014": 0.0894595973908,
			"-0.013": 1.25762481693,
			"-0.012": 2.33543900159,
			"-0.011": 2.27729886668,
			"-0.01": 4.06844586535,
			"-0.009": 8.53789128273,
			"-0.008": 10.7387813268,
			"-0.007": 11.9507910604,
			"-0.006": 12.8834309411,
			"-0.005": 12.8805492664,
			"-0.004": 16.5080150703,
			"-0.003": 11.4441572407,
			"-0.002": 10.8248221411,
			"-0.001": 10.0628582076,
			"0.0": 9.96785179327,
			"0.001": 12.6740206981,
			"0.002": 13.6051115197,
			"0.003": 16.3997655017,
			"0.004": 18.2726846414,
			"0.005": 10.5151330184,
			"0.006": 3.49359528785,
			"0.007": 2.19187596337,
			"0.008": 3.34423388865,
			"0.009": 3.88817769463,
			"0.01": 4.9038650249,
			"0.011": 8.30297586157,
			"0.012": 11.3854453534,
			"0.013": 2.95981300089,
			"0.014": 0.0,
			"0.015": 0.0,
			"0.016": 0.0,
			"0.017": 0.0,
			"0.018": 0.0,
			"0.019": 0.0,
			"0.02": 0.0,
			"0.021": 0.0,
			"0.022": 0.0,
			"0.023": 0.0,
			"0.024": 0.0,
			"0.025": 0.0
		}
	}
}
