{
	 "smiles": "ClC1=NC=NC2=C1N=CN2", 
	 "Tm": 573.15, 
	 "num_atms": 13, 
	 "gaussian": { 
		 "optdone": 1, 
		 "sigma_profile": "yes", 
		 "theory": "DFT", 
		 "functional": "B3LYP", 
		 "basiset": "6-31G**", 
		 "properties": { 
			 "R2extent": 1571.9267, 
			 "electric_dipole_moment_norm": 4.84648747342, 
			 "electric_quadrupole_moment_norm": 8.71165639072, 
			 "total_energy": -871.537401971, 
			 "HOMO_LUMO_gap": 0.20263, 
			 "cosmo_polarized_energy": -14.95, 
			 "cosmo_cavitation_energy": 19.79, 
			 "cosmo_dispersion_energy": -15.43, 
			 "cosmo_repulsion_energy": 1.24, 
			 "cosmo_total_nonelectrostatic_energy": 5.6, 
			 "SMD_solvation_energy": -1.45 
		},
		"coords": [
			{
				"x": 2.6553520306,
				"y": 0.331330493,
				"z": -1.9354072131,
				"element": "Cl" 
			},
			{
				"x": 1.0600893913,
				"y": 0.0148933572,
				"z": -1.3041900022,
				"element": "C" 
			},
			{
				"x": 0.1532146832,
				"y": -0.4962661973,
				"z": -2.1187229395,
				"element": "N" 
			},
			{
				"x": -1.0788475571,
				"y": -0.7406925088,
				"z": -1.6312018825,
				"element": "C" 
			},
			{
				"x": -1.5215589281,
				"y": -0.5272337772,
				"z": -0.3890775804,
				"element": "N" 
			},
			{
				"x": -0.5787086548,
				"y": -0.013066073,
				"z": 0.3965974682,
				"element": "C" 
			},
			{
				"x": 0.7517035962,
				"y": 0.2959955063,
				"z": 0.0301853508,
				"element": "C" 
			},
			{
				"x": 1.4525539467,
				"y": 0.8155866044,
				"z": 1.100666701,
				"element": "N" 
			},
			{
				"x": 0.581821793,
				"y": 0.8215555957,
				"z": 2.0783399857,
				"element": "C" 
			},
			{
				"x": -0.6614721928,
				"y": 0.336145362,
				"z": 1.7239810937,
				"element": "N" 
			},
			{
				"x": -1.7912058882,
				"y": -1.1604913135,
				"z": -2.3361386692,
				"element": "H" 
			},
			{
				"x": 0.7828560986,
				"y": 1.1677737533,
				"z": 3.083807391,
				"element": "H" 
			},
			{
				"x": -1.4788983186,
				"y": 0.2480691978,
				"z": 2.3096602965,
				"element": "H" 
			}
		],
		 "valence_orbital": [ 
			{
				"type": "occ",
				"energy": -0.31758,
				"method": "rhf"
			},
			{
				"type": "occ",
				"energy": -0.3015,
				"method": "rhf"
			},
			{
				"type": "occ",
				"energy": -0.29166,
				"method": "rhf"
			},
			{
				"type": "occ",
				"energy": -0.26911,
				"method": "rhf"
			},
			{
				"type": "occ",
				"energy": -0.2601,
				"method": "rhf"
			},
			{
				"type": "unocc",
				"energy": -0.05747,
				"method": "rhf"
			},
			{
				"type": "unocc",
				"energy": -0.02029,
				"method": "rhf"
			},
			{
				"type": "unocc",
				"energy": 0.02068,
				"method": "rhf"
			},
			{
				"type": "unocc",
				"energy": 0.03508,
				"method": "rhf"
			},
			{
				"type": "unocc",
				"energy": 0.06351,
				"method": "rhf"
			}
		],
		"cosmo_sigma_profile": { 
			"-0.025": 0.0,
			"-0.024": 0.0,
			"-0.023": 0.0,
			"-0.022": 0.0,
			"-0.021": 0.0,
			"-0.02": 0.0,
			"-0.019": 0.00813928772008,
			"-0.018": 1.35184251846,
			"-0.017": 1.83400941969,
			"-0.016": 1.69461906933,
			"-0.015": 0.82223024261,
			"-0.014": 0.716159596813,
			"-0.013": 1.6725608533,
			"-0.012": 1.73253828585,
			"-0.011": 3.1018373794,
			"-0.01": 2.80997791468,
			"-0.009": 2.37189054202,
			"-0.008": 4.20983089116,
			"-0.007": 3.07863207666,
			"-0.006": 3.70952896185,
			"-0.005": 3.21222471063,
			"-0.004": 6.18790193481,
			"-0.003": 11.2005788675,
			"-0.002": 16.6531569713,
			"-0.001": 11.8781073509,
			"0.0": 8.08268957596,
			"0.001": 8.67340754864,
			"0.002": 9.23415168253,
			"0.003": 12.9335553107,
			"0.004": 9.1840117296,
			"0.005": 5.83495550222,
			"0.006": 4.82185549307,
			"0.007": 5.08769063988,
			"0.008": 3.78986534084,
			"0.009": 2.3039692132,
			"0.01": 3.08480979505,
			"0.011": 3.5028039944,
			"0.012": 2.58077864318,
			"0.013": 2.64860441186,
			"0.014": 2.10507662217,
			"0.015": 0.758505603896,
			"0.016": 0.163738495215,
			"0.017": 0.0,
			"0.018": 0.0,
			"0.019": 0.0,
			"0.02": 0.0,
			"0.021": 0.0,
			"0.022": 0.0,
			"0.023": 0.0,
			"0.024": 0.0,
			"0.025": 0.0
		}
	}
}
