{
	 "smiles": "CCOC(=O)C1=C(C)SC(SC2=C(C=CC=C2)[N+]([O-])=O)=C1OC(C)=O", 
	 "Tm": 403.15, 
	 "num_atms": 40, 
	 "gaussian": { 
		 "optdone": 1, 
		 "sigma_profile": "yes", 
		 "theory": "DFT", 
		 "functional": "B3LYP", 
		 "basiset": "6-31G**", 
		 "properties": { 
			 "R2extent": 12482.399, 
			 "electric_dipole_moment_norm": 6.54492850534, 
			 "electric_quadrupole_moment_norm": 34.5995446143, 
			 "total_energy": -1921.12252772, 
			 "HOMO_LUMO_gap": 0.14898, 
			 "cosmo_polarized_energy": -15.86, 
			 "cosmo_cavitation_energy": 48.22, 
			 "cosmo_dispersion_energy": -33.26, 
			 "cosmo_repulsion_energy": 2.49, 
			 "cosmo_total_nonelectrostatic_energy": 17.45, 
			 "SMD_solvation_energy": 11.53 
		},
		"coords": [
			{
				"x": -3.9743643847,
				"y": -2.4507465644,
				"z": -2.604375503,
				"element": "C" 
			},
			{
				"x": -2.8520121126,
				"y": -3.0508901388,
				"z": -1.7715525775,
				"element": "C" 
			},
			{
				"x": -2.4907960032,
				"y": -2.1840081812,
				"z": -0.6667624616,
				"element": "O" 
			},
			{
				"x": -1.6026886237,
				"y": -1.2000936928,
				"z": -0.939194413,
				"element": "C" 
			},
			{
				"x": -1.1216974762,
				"y": -1.0266097914,
				"z": -2.0446227605,
				"element": "O" 
			},
			{
				"x": -1.2944958544,
				"y": -0.3743953145,
				"z": 0.2516861224,
				"element": "C" 
			},
			{
				"x": -1.766432242,
				"y": -0.5815124809,
				"z": 1.5385616902,
				"element": "C" 
			},
			{
				"x": -2.6685589965,
				"y": -1.650255213,
				"z": 2.0850745594,
				"element": "C" 
			},
			{
				"x": -1.1733391014,
				"y": 0.6336837958,
				"z": 2.6206844161,
				"element": "S" 
			},
			{
				"x": -0.2595904518,
				"y": 1.4403916826,
				"z": 1.364645983,
				"element": "C" 
			},
			{
				"x": 0.5699066628,
				"y": 2.9723414407,
				"z": 1.6533181213,
				"element": "S" 
			},
			{
				"x": 2.1743718362,
				"y": 2.4251849738,
				"z": 2.2563974986,
				"element": "C" 
			},
			{
				"x": 3.0602095016,
				"y": 3.3013833685,
				"z": 2.9195965805,
				"element": "C" 
			},
			{
				"x": 4.2927328446,
				"y": 2.8696419334,
				"z": 3.4214899773,
				"element": "C" 
			},
			{
				"x": 4.6834077766,
				"y": 1.5498214408,
				"z": 3.2562513015,
				"element": "C" 
			},
			{
				"x": 3.8322442388,
				"y": 0.6695371408,
				"z": 2.5811148368,
				"element": "C" 
			},
			{
				"x": 2.6015404136,
				"y": 1.0970953916,
				"z": 2.0931393097,
				"element": "C" 
			},
			{
				"x": 2.7407226684,
				"y": 4.7151865801,
				"z": 3.1010229668,
				"element": "N" 
			},
			{
				"x": 1.7773839034,
				"y": 5.1659220268,
				"z": 2.4715789237,
				"element": "O" 
			},
			{
				"x": 3.4441430317,
				"y": 5.3849124067,
				"z": 3.857090816,
				"element": "O" 
			},
			{
				"x": -0.4406555155,
				"y": 0.7841289608,
				"z": 0.1737959455,
				"element": "C" 
			},
			{
				"x": 0.0957852213,
				"y": 1.2483245015,
				"z": -1.0025105751,
				"element": "O" 
			},
			{
				"x": 1.1715545893,
				"y": 0.553903267,
				"z": -1.5230949465,
				"element": "C" 
			},
			{
				"x": 1.4445022564,
				"y": 1.009893339,
				"z": -2.9264239746,
				"element": "C" 
			},
			{
				"x": 1.7716763485,
				"y": -0.2835510569,
				"z": -0.8980456529,
				"element": "O" 
			},
			{
				"x": -4.8476251035,
				"y": -2.2308865967,
				"z": -1.9831203531,
				"element": "H" 
			},
			{
				"x": -3.6430576826,
				"y": -1.5297613861,
				"z": -3.0896069753,
				"element": "H" 
			},
			{
				"x": -4.276690196,
				"y": -3.1595891938,
				"z": -3.3823786949,
				"element": "H" 
			},
			{
				"x": -1.9628109289,
				"y": -3.234226798,
				"z": -2.3785490919,
				"element": "H" 
			},
			{
				"x": -3.1625551877,
				"y": -3.9814235413,
				"z": -1.2906133804,
				"element": "H" 
			},
			{
				"x": -2.2486408868,
				"y": -2.6431558539,
				"z": 1.9029141982,
				"element": "H" 
			},
			{
				"x": -3.645362214,
				"y": -1.6217881697,
				"z": 1.5948336215,
				"element": "H" 
			},
			{
				"x": -2.8132745688,
				"y": -1.524081123,
				"z": 3.1611374565,
				"element": "H" 
			},
			{
				"x": 4.9164129999,
				"y": 3.5947549323,
				"z": 3.928767318,
				"element": "H" 
			},
			{
				"x": 5.6421077887,
				"y": 1.2134908081,
				"z": 3.6367516053,
				"element": "H" 
			},
			{
				"x": 4.1293156205,
				"y": -0.3626605125,
				"z": 2.4213044995,
				"element": "H" 
			},
			{
				"x": 1.9760164612,
				"y": 0.3996595139,
				"z": 1.5499539622,
				"element": "H" 
			},
			{
				"x": 0.6564764222,
				"y": 0.6058731576,
				"z": -3.5691454552,
				"element": "H" 
			},
			{
				"x": 1.409506052,
				"y": 2.0999384545,
				"z": -2.9923452927,
				"element": "H" 
			},
			{
				"x": 2.4145308927,
				"y": 0.6347664924,
				"z": -3.2509696019,
				"element": "H" 
			}
		],
		 "valence_orbital": [ 
			{
				"type": "occ",
				"energy": -0.28381,
				"method": "rhf"
			},
			{
				"type": "occ",
				"energy": -0.27482,
				"method": "rhf"
			},
			{
				"type": "occ",
				"energy": -0.26774,
				"method": "rhf"
			},
			{
				"type": "occ",
				"energy": -0.24842,
				"method": "rhf"
			},
			{
				"type": "occ",
				"energy": -0.23388,
				"method": "rhf"
			},
			{
				"type": "unocc",
				"energy": -0.0849,
				"method": "rhf"
			},
			{
				"type": "unocc",
				"energy": -0.05543,
				"method": "rhf"
			},
			{
				"type": "unocc",
				"energy": -0.02345,
				"method": "rhf"
			},
			{
				"type": "unocc",
				"energy": -0.02206,
				"method": "rhf"
			},
			{
				"type": "unocc",
				"energy": 0.00098,
				"method": "rhf"
			}
		],
		"cosmo_sigma_profile": { 
			"-0.025": 0.0,
			"-0.024": 0.0,
			"-0.023": 0.0,
			"-0.022": 0.0,
			"-0.021": 0.0,
			"-0.02": 0.0,
			"-0.019": 0.0,
			"-0.018": 0.0,
			"-0.017": 0.0,
			"-0.016": 0.0,
			"-0.015": 0.0,
			"-0.014": 0.0,
			"-0.013": 0.0,
			"-0.012": 0.0,
			"-0.011": 0.0,
			"-0.01": 0.0,
			"-0.009": 0.0,
			"-0.008": 1.78112017768,
			"-0.007": 8.98093685372,
			"-0.006": 18.2071898597,
			"-0.005": 23.5517575456,
			"-0.004": 28.9719273692,
			"-0.003": 37.6982759841,
			"-0.002": 43.090342434,
			"-0.001": 39.4672898639,
			"0.0": 40.2391983852,
			"0.001": 29.4920208978,
			"0.002": 25.4805843427,
			"0.003": 14.590754979,
			"0.004": 9.23516312596,
			"0.005": 11.9630296637,
			"0.006": 11.8418515419,
			"0.007": 15.2693714425,
			"0.008": 10.4727359123,
			"0.009": 9.1198936401,
			"0.01": 5.56909130961,
			"0.011": 2.85787554186,
			"0.012": 0.945745355461,
			"0.013": 0.0,
			"0.014": 0.0,
			"0.015": 0.0,
			"0.016": 0.0,
			"0.017": 0.0,
			"0.018": 0.0,
			"0.019": 0.0,
			"0.02": 0.0,
			"0.021": 0.0,
			"0.022": 0.0,
			"0.023": 0.0,
			"0.024": 0.0,
			"0.025": 0.0
		}
	}
}
