{
	 "smiles": "[O-][N+](=O)C1=CC=C(C=C1)C1=C(C(=NN1C1=CC=CC=C1)C(=O)NC1=CC=CC=C1)S(=O)(=O)C1=CC=CC=C1", 
	 "Tm": 513.15, 
	 "num_atms": 58, 
	 "gaussian": { 
		 "optdone": 1, 
		 "sigma_profile": "yes", 
		 "theory": "DFT", 
		 "functional": "B3LYP", 
		 "basiset": "6-31G**", 
		 "properties": { 
			 "R2extent": 18706.9835, 
			 "electric_dipole_moment_norm": 4.31190071546, 
			 "electric_quadrupole_moment_norm": 36.4395286944, 
			 "total_energy": -2072.16727456, 
			 "HOMO_LUMO_gap": 0.13739, 
			 "cosmo_polarized_energy": -26.15, 
			 "cosmo_cavitation_energy": 65.36, 
			 "cosmo_dispersion_energy": -41.05, 
			 "cosmo_repulsion_energy": 3.09, 
			 "cosmo_total_nonelectrostatic_energy": 27.4, 
			 "SMD_solvation_energy": 12.17 
		},
		"coords": [
			{
				"x": -4.6040369105,
				"y": 4.0835751813,
				"z": -3.329591109,
				"element": "O" 
			},
			{
				"x": -4.5696961012,
				"y": 2.8617082041,
				"z": -3.1875140592,
				"element": "N" 
			},
			{
				"x": -5.4314696702,
				"y": 2.0826472614,
				"z": -3.5915518087,
				"element": "O" 
			},
			{
				"x": -3.4093838363,
				"y": 2.2902089838,
				"z": -2.4828149634,
				"element": "C" 
			},
			{
				"x": -2.4149253583,
				"y": 3.1486050322,
				"z": -2.0177481061,
				"element": "C" 
			},
			{
				"x": -1.3201913408,
				"y": 2.6026212638,
				"z": -1.358011156,
				"element": "C" 
			},
			{
				"x": -1.2202895081,
				"y": 1.212985597,
				"z": -1.1622168977,
				"element": "C" 
			},
			{
				"x": -2.242310114,
				"y": 0.3736513483,
				"z": -1.635962963,
				"element": "C" 
			},
			{
				"x": -3.3414303602,
				"y": 0.9113217248,
				"z": -2.3001695658,
				"element": "C" 
			},
			{
				"x": -0.0440007491,
				"y": 0.6591307105,
				"z": -0.4580149299,
				"element": "C" 
			},
			{
				"x": 0.0644361852,
				"y": -0.1086584444,
				"z": 0.7043924252,
				"element": "C" 
			},
			{
				"x": 1.4545463402,
				"y": -0.2148020713,
				"z": 0.9644453022,
				"element": "C" 
			},
			{
				"x": 2.1605097481,
				"y": 0.415317433,
				"z": 0.0368169701,
				"element": "N" 
			},
			{
				"x": 1.2475382644,
				"y": 0.9401458365,
				"z": -0.8238533288,
				"element": "N" 
			},
			{
				"x": 1.736537116,
				"y": 1.6352622085,
				"z": -1.9762495363,
				"element": "C" 
			},
			{
				"x": 2.7773063973,
				"y": 2.5527039414,
				"z": -1.8075365671,
				"element": "C" 
			},
			{
				"x": 3.2846485617,
				"y": 3.2209108133,
				"z": -2.9205592613,
				"element": "C" 
			},
			{
				"x": 2.7540714636,
				"y": 2.980858369,
				"z": -4.1901605655,
				"element": "C" 
			},
			{
				"x": 1.7195879343,
				"y": 2.0567674378,
				"z": -4.3476265113,
				"element": "C" 
			},
			{
				"x": 1.2112216625,
				"y": 1.3721108903,
				"z": -3.2438728376,
				"element": "C" 
			},
			{
				"x": 2.1362808818,
				"y": -0.7912221451,
				"z": 2.1809234617,
				"element": "C" 
			},
			{
				"x": 2.2113451037,
				"y": -0.1271600141,
				"z": 3.2083498574,
				"element": "O" 
			},
			{
				"x": 2.669694858,
				"y": -2.0433225459,
				"z": 2.0826154034,
				"element": "N" 
			},
			{
				"x": 2.5252993899,
				"y": -2.9892969675,
				"z": 1.0229543662,
				"element": "C" 
			},
			{
				"x": 1.8663696904,
				"y": -4.1977710192,
				"z": 1.2772484498,
				"element": "C" 
			},
			{
				"x": 1.7615164188,
				"y": -5.1563474625,
				"z": 0.2703696591,
				"element": "C" 
			},
			{
				"x": 2.2967814491,
				"y": -4.9077256613,
				"z": -0.9955133155,
				"element": "C" 
			},
			{
				"x": 2.9457196366,
				"y": -3.6977744031,
				"z": -1.2476211744,
				"element": "C" 
			},
			{
				"x": 3.0750575411,
				"y": -2.7417374824,
				"z": -0.2392950903,
				"element": "C" 
			},
			{
				"x": -1.2112333807,
				"y": -0.7960229244,
				"z": 1.7374004429,
				"element": "S" 
			},
			{
				"x": -2.3474689914,
				"y": -1.1912464346,
				"z": 0.8878303894,
				"element": "O" 
			},
			{
				"x": -0.5349026976,
				"y": -1.7888811379,
				"z": 2.5854477626,
				"element": "O" 
			},
			{
				"x": -1.7512155961,
				"y": 0.5757794008,
				"z": 2.7663558511,
				"element": "C" 
			},
			{
				"x": -3.0564943672,
				"y": 1.0472790557,
				"z": 2.6204106245,
				"element": "C" 
			},
			{
				"x": -3.4894927168,
				"y": 2.0910214924,
				"z": 3.4400078012,
				"element": "C" 
			},
			{
				"x": -2.6209464673,
				"y": 2.6470979882,
				"z": 4.3811320169,
				"element": "C" 
			},
			{
				"x": -1.3157141008,
				"y": 2.1631160499,
				"z": 4.5116598092,
				"element": "C" 
			},
			{
				"x": -0.867699961,
				"y": 1.1166447675,
				"z": 3.706217084,
				"element": "C" 
			},
			{
				"x": -2.5130938307,
				"y": 4.2153445228,
				"z": -2.1737426738,
				"element": "H" 
			},
			{
				"x": -0.539313178,
				"y": 3.2566349093,
				"z": -0.9851801259,
				"element": "H" 
			},
			{
				"x": -2.18188194,
				"y": -0.6933396841,
				"z": -1.4649104125,
				"element": "H" 
			},
			{
				"x": -4.1390759743,
				"y": 0.2826484342,
				"z": -2.6751678675,
				"element": "H" 
			},
			{
				"x": 3.1805236542,
				"y": 2.7214694835,
				"z": -0.8156013578,
				"element": "H" 
			},
			{
				"x": 4.093734169,
				"y": 3.9335045213,
				"z": -2.7928729894,
				"element": "H" 
			},
			{
				"x": 3.1491147262,
				"y": 3.5070228964,
				"z": -5.0537483062,
				"element": "H" 
			},
			{
				"x": 1.3123334831,
				"y": 1.855486394,
				"z": -5.3336397432,
				"element": "H" 
			},
			{
				"x": 0.4240861983,
				"y": 0.6369583486,
				"z": -3.3659862703,
				"element": "H" 
			},
			{
				"x": 2.9803376602,
				"y": -2.3962476685,
				"z": 2.9805797726,
				"element": "H" 
			},
			{
				"x": 1.4215997129,
				"y": -4.3664825646,
				"z": 2.2530163294,
				"element": "H" 
			},
			{
				"x": 1.2483610955,
				"y": -6.0918685803,
				"z": 0.4723153496,
				"element": "H" 
			},
			{
				"x": 2.2084533621,
				"y": -5.6531682754,
				"z": -1.7803060779,
				"element": "H" 
			},
			{
				"x": 3.3697133587,
				"y": -3.5006235882,
				"z": -2.2280225618,
				"element": "H" 
			},
			{
				"x": 3.5923195761,
				"y": -1.8064257795,
				"z": -0.4214125584,
				"element": "H" 
			},
			{
				"x": -3.7114400917,
				"y": 0.5929688352,
				"z": 1.885422134,
				"element": "H" 
			},
			{
				"x": -4.5037029795,
				"y": 2.4664892117,
				"z": 3.342996636,
				"element": "H" 
			},
			{
				"x": -2.9614601107,
				"y": 3.459996432,
				"z": 5.0160646533,
				"element": "H" 
			},
			{
				"x": -0.6439193974,
				"y": 2.5982960457,
				"z": 5.2453014093,
				"element": "H" 
			},
			{
				"x": 0.1470440904,
				"y": 0.7382338279,
				"z": 3.7959007303,
				"element": "H" 
			}
		],
		 "valence_orbital": [ 
			{
				"type": "occ",
				"energy": -0.26628,
				"method": "rhf"
			},
			{
				"type": "occ",
				"energy": -0.26073,
				"method": "rhf"
			},
			{
				"type": "occ",
				"energy": -0.25609,
				"method": "rhf"
			},
			{
				"type": "occ",
				"energy": -0.25176,
				"method": "rhf"
			},
			{
				"type": "occ",
				"energy": -0.23649,
				"method": "rhf"
			},
			{
				"type": "unocc",
				"energy": -0.0991,
				"method": "rhf"
			},
			{
				"type": "unocc",
				"energy": -0.0494,
				"method": "rhf"
			},
			{
				"type": "unocc",
				"energy": -0.03945,
				"method": "rhf"
			},
			{
				"type": "unocc",
				"energy": -0.03512,
				"method": "rhf"
			},
			{
				"type": "unocc",
				"energy": -0.02502,
				"method": "rhf"
			}
		],
		"cosmo_sigma_profile": { 
			"-0.025": 0.0,
			"-0.024": 0.0,
			"-0.023": 0.0,
			"-0.022": 0.0,
			"-0.021": 0.0,
			"-0.02": 0.0,
			"-0.019": 0.0,
			"-0.018": 0.0,
			"-0.017": 0.0,
			"-0.016": 0.0194083750632,
			"-0.015": 0.915467976999,
			"-0.014": 0.803406201425,
			"-0.013": 1.26690915997,
			"-0.012": 0.596022054739,
			"-0.011": 1.26518594252,
			"-0.01": 1.05383594654,
			"-0.009": 0.979614766492,
			"-0.008": 4.7658938085,
			"-0.007": 20.3873373406,
			"-0.006": 37.9104938219,
			"-0.005": 39.6740876924,
			"-0.004": 38.3085141408,
			"-0.003": 32.8102580294,
			"-0.002": 34.6264104777,
			"-0.001": 35.4184817358,
			"0.0": 38.8256603585,
			"0.001": 39.9867732634,
			"0.002": 37.9476531768,
			"0.003": 38.9933496721,
			"0.004": 30.1023737487,
			"0.005": 18.9749480281,
			"0.006": 11.0713942451,
			"0.007": 14.7577350439,
			"0.008": 13.3397703749,
			"0.009": 10.292149637,
			"0.01": 7.62465076467,
			"0.011": 7.76690929486,
			"0.012": 5.13318841809,
			"0.013": 1.003611733,
			"0.014": 0.0,
			"0.015": 0.0,
			"0.016": 0.0,
			"0.017": 0.0,
			"0.018": 0.0,
			"0.019": 0.0,
			"0.02": 0.0,
			"0.021": 0.0,
			"0.022": 0.0,
			"0.023": 0.0,
			"0.024": 0.0,
			"0.025": 0.0
		}
	}
}
