{
	 "smiles": "COC1=CC=C(CCC(C)=O)C=C1", 
	 "Tm": 281.15, 
	 "num_atms": 27, 
	 "gaussian": { 
		 "optdone": 1, 
		 "sigma_profile": "yes", 
		 "theory": "DFT", 
		 "functional": "B3LYP", 
		 "basiset": "6-31G**", 
		 "properties": { 
			 "R2extent": 3396.588, 
			 "electric_dipole_moment_norm": 1.63942871452, 
			 "electric_quadrupole_moment_norm": 13.153671381, 
			 "total_energy": -578.052121051, 
			 "HOMO_LUMO_gap": 0.19532, 
			 "cosmo_polarized_energy": -10.12, 
			 "cosmo_cavitation_energy": 30.26, 
			 "cosmo_dispersion_energy": -21.54, 
			 "cosmo_repulsion_energy": 1.73, 
			 "cosmo_total_nonelectrostatic_energy": 10.44, 
			 "SMD_solvation_energy": 6.35 
		},
		"coords": [
			{
				"x": 0.4777393431,
				"y": -4.1847130208,
				"z": -2.0575366161,
				"element": "C" 
			},
			{
				"x": 0.1866056037,
				"y": -3.7896413311,
				"z": -0.7278298777,
				"element": "O" 
			},
			{
				"x": -0.0232320509,
				"y": -2.4608930932,
				"z": -0.4820522676,
				"element": "C" 
			},
			{
				"x": -0.3165881392,
				"y": -2.1258036721,
				"z": 0.8475832692,
				"element": "C" 
			},
			{
				"x": -0.5486753693,
				"y": -0.8006259107,
				"z": 1.1952093339,
				"element": "C" 
			},
			{
				"x": -0.4956855229,
				"y": 0.2293393627,
				"z": 0.2414379732,
				"element": "C" 
			},
			{
				"x": -0.7276889982,
				"y": 1.6714587058,
				"z": 0.6463810809,
				"element": "C" 
			},
			{
				"x": 0.5556610953,
				"y": 2.4087841208,
				"z": 1.069855854,
				"element": "C" 
			},
			{
				"x": 1.4513976389,
				"y": 2.830285716,
				"z": -0.0917251065,
				"element": "C" 
			},
			{
				"x": 2.8805965044,
				"y": 3.2016915511,
				"z": 0.2606708733,
				"element": "C" 
			},
			{
				"x": 1.043403729,
				"y": 2.8870017611,
				"z": -1.2374213065,
				"element": "O" 
			},
			{
				"x": -0.2027904064,
				"y": -0.1234562009,
				"z": -1.0796490564,
				"element": "C" 
			},
			{
				"x": 0.0322718299,
				"y": -1.4513972891,
				"z": -1.4491514685,
				"element": "C" 
			},
			{
				"x": 1.4031605852,
				"y": -3.7227779835,
				"z": -2.4261232913,
				"element": "H" 
			},
			{
				"x": 0.6052601116,
				"y": -5.2682613287,
				"z": -2.030397129,
				"element": "H" 
			},
			{
				"x": -0.3418021326,
				"y": -3.9359642579,
				"z": -2.7445535384,
				"element": "H" 
			},
			{
				"x": -0.3636398134,
				"y": -2.9209261446,
				"z": 1.5848253183,
				"element": "H" 
			},
			{
				"x": -0.7840426488,
				"y": -0.560323255,
				"z": 2.2299660032,
				"element": "H" 
			},
			{
				"x": -1.1812444306,
				"y": 2.2255117551,
				"z": -0.1809355974,
				"element": "H" 
			},
			{
				"x": -1.434775435,
				"y": 1.7026713664,
				"z": 1.4829858929,
				"element": "H" 
			},
			{
				"x": 0.3002193672,
				"y": 3.3368786017,
				"z": 1.6047457306,
				"element": "H" 
			},
			{
				"x": 1.1395516451,
				"y": 1.8109929754,
				"z": 1.7810328147,
				"element": "H" 
			},
			{
				"x": 3.3636648427,
				"y": 3.6791412558,
				"z": -0.5930587594,
				"element": "H" 
			},
			{
				"x": 2.9167350094,
				"y": 3.8626907271,
				"z": 1.1336402613,
				"element": "H" 
			},
			{
				"x": 3.4352943823,
				"y": 2.2930266558,
				"z": 0.5254513674,
				"element": "H" 
			},
			{
				"x": -0.1478069752,
				"y": 0.6555063333,
				"z": -1.8337853061,
				"element": "H" 
			},
			{
				"x": 0.2526102348,
				"y": -1.6814974004,
				"z": -2.4850664518,
				"element": "H" 
			}
		],
		 "valence_orbital": [ 
			{
				"type": "occ",
				"energy": -0.31583,
				"method": "rhf"
			},
			{
				"type": "occ",
				"energy": -0.30521,
				"method": "rhf"
			},
			{
				"type": "occ",
				"energy": -0.24591,
				"method": "rhf"
			},
			{
				"type": "occ",
				"energy": -0.2427,
				"method": "rhf"
			},
			{
				"type": "occ",
				"energy": -0.2077,
				"method": "rhf"
			},
			{
				"type": "unocc",
				"energy": -0.01238,
				"method": "rhf"
			},
			{
				"type": "unocc",
				"energy": 0.006,
				"method": "rhf"
			},
			{
				"type": "unocc",
				"energy": 0.01832,
				"method": "rhf"
			},
			{
				"type": "unocc",
				"energy": 0.09086,
				"method": "rhf"
			},
			{
				"type": "unocc",
				"energy": 0.10101,
				"method": "rhf"
			}
		],
		"cosmo_sigma_profile": { 
			"-0.025": 0.0,
			"-0.024": 0.0,
			"-0.023": 0.0,
			"-0.022": 0.0,
			"-0.021": 0.0,
			"-0.02": 0.0,
			"-0.019": 0.0,
			"-0.018": 0.0,
			"-0.017": 0.0,
			"-0.016": 0.0,
			"-0.015": 0.0,
			"-0.014": 0.0,
			"-0.013": 0.0,
			"-0.012": 0.0,
			"-0.011": 0.0,
			"-0.01": 0.0,
			"-0.009": 0.0,
			"-0.008": 0.0,
			"-0.007": 0.35791665174,
			"-0.006": 10.9491289054,
			"-0.005": 23.6550005467,
			"-0.004": 27.0485172426,
			"-0.003": 30.2760842472,
			"-0.002": 23.4816639139,
			"-0.001": 20.6412903729,
			"0.0": 14.3765902111,
			"0.001": 9.07549630636,
			"0.002": 10.2210490118,
			"0.003": 10.6084738474,
			"0.004": 11.1339401329,
			"0.005": 12.6020297207,
			"0.006": 11.6081556391,
			"0.007": 5.65940190333,
			"0.008": 2.75385133403,
			"0.009": 2.59009762799,
			"0.01": 3.36777996118,
			"0.011": 3.12634421466,
			"0.012": 3.17881216784,
			"0.013": 1.43123201976,
			"0.014": 0.241438494328,
			"0.015": 0.0,
			"0.016": 0.0,
			"0.017": 0.0,
			"0.018": 0.0,
			"0.019": 0.0,
			"0.02": 0.0,
			"0.021": 0.0,
			"0.022": 0.0,
			"0.023": 0.0,
			"0.024": 0.0,
			"0.025": 0.0
		}
	}
}
