{
	 "smiles": "O=C1O[C@@]23C[C@@H](C=CC2=C1)N1CCCC[C@H]31", 
	 "Tm": 415.65, 
	 "num_atms": 31, 
	 "gaussian": { 
		 "optdone": 1, 
		 "sigma_profile": "yes", 
		 "theory": "DFT", 
		 "functional": "B3LYP", 
		 "basiset": "6-31G**", 
		 "properties": { 
			 "R2extent": 4424.7548, 
			 "electric_dipole_moment_norm": 5.25015981471, 
			 "electric_quadrupole_moment_norm": 23.7133366421, 
			 "total_energy": -709.592504088, 
			 "HOMO_LUMO_gap": 0.15042, 
			 "cosmo_polarized_energy": -12.48, 
			 "cosmo_cavitation_energy": 30.86, 
			 "cosmo_dispersion_energy": -22.83, 
			 "cosmo_repulsion_energy": 1.75, 
			 "cosmo_total_nonelectrostatic_energy": 9.78, 
			 "SMD_solvation_energy": 3.12 
		},
		"coords": [
			{
				"x": 2.2317910392,
				"y": -3.8759789631,
				"z": -3.5672688401,
				"element": "O" 
			},
			{
				"x": 1.3747330447,
				"y": -3.1470686731,
				"z": -3.1354621658,
				"element": "C" 
			},
			{
				"x": 1.6842899701,
				"y": -2.0055210073,
				"z": -2.4003863613,
				"element": "O" 
			},
			{
				"x": 0.486821406,
				"y": -1.3606728195,
				"z": -1.9841308952,
				"element": "C" 
			},
			{
				"x": 0.3164045855,
				"y": 0.1121470629,
				"z": -2.380917704,
				"element": "C" 
			},
			{
				"x": -0.9187267951,
				"y": 0.3999193512,
				"z": -1.4982221753,
				"element": "C" 
			},
			{
				"x": -2.1227840231,
				"y": -0.3824680508,
				"z": -2.0047760339,
				"element": "C" 
			},
			{
				"x": -1.9716052891,
				"y": -1.6161531814,
				"z": -2.5265809838,
				"element": "C" 
			},
			{
				"x": -0.6293901831,
				"y": -2.1537178101,
				"z": -2.631188523,
				"element": "C" 
			},
			{
				"x": -0.0940087792,
				"y": -3.2153491693,
				"z": -3.260933574,
				"element": "C" 
			},
			{
				"x": -0.5479890711,
				"y": -0.1381102085,
				"z": -0.1652422186,
				"element": "N" 
			},
			{
				"x": -0.0138276934,
				"y": 0.8618825958,
				"z": 0.7649874336,
				"element": "C" 
			},
			{
				"x": 0.423797579,
				"y": 0.1777118999,
				"z": 2.0624690513,
				"element": "C" 
			},
			{
				"x": 1.4886265476,
				"y": -0.9244665008,
				"z": 1.8023216431,
				"element": "C" 
			},
			{
				"x": 1.6936701002,
				"y": -1.1844316381,
				"z": 0.2998198814,
				"element": "C" 
			},
			{
				"x": 0.3449316405,
				"y": -1.3073075259,
				"z": -0.4193894674,
				"element": "C" 
			},
			{
				"x": 0.1496337249,
				"y": 0.2476619682,
				"z": -3.4523366282,
				"element": "H" 
			},
			{
				"x": 1.1751852366,
				"y": 0.7150158623,
				"z": -2.0711976636,
				"element": "H" 
			},
			{
				"x": -1.157389292,
				"y": 1.4631345664,
				"z": -1.4169417113,
				"element": "H" 
			},
			{
				"x": -3.1102388151,
				"y": 0.0580503361,
				"z": -1.8974654314,
				"element": "H" 
			},
			{
				"x": -2.8163982951,
				"y": -2.19673142,
				"z": -2.8859736965,
				"element": "H" 
			},
			{
				"x": -0.5896532109,
				"y": -3.995549866,
				"z": -3.8225166884,
				"element": "H" 
			},
			{
				"x": -0.81179408,
				"y": 1.5831718614,
				"z": 0.976063816,
				"element": "H" 
			},
			{
				"x": 0.8305193575,
				"y": 1.4407931514,
				"z": 0.3438509189,
				"element": "H" 
			},
			{
				"x": -0.465453077,
				"y": -0.2615134531,
				"z": 2.5269141312,
				"element": "H" 
			},
			{
				"x": 0.804463191,
				"y": 0.9348170555,
				"z": 2.7561649943,
				"element": "H" 
			},
			{
				"x": 1.179699367,
				"y": -1.8561094871,
				"z": 2.2898443599,
				"element": "H" 
			},
			{
				"x": 2.4491645812,
				"y": -0.648565513,
				"z": 2.2503405886,
				"element": "H" 
			},
			{
				"x": 2.270683348,
				"y": -2.0985986658,
				"z": 0.1377496737,
				"element": "H" 
			},
			{
				"x": 2.2792185847,
				"y": -0.3724140657,
				"z": -0.1466530297,
				"element": "H" 
			},
			{
				"x": -0.1505746996,
				"y": -2.2244776925,
				"z": -0.0725427007,
				"element": "H" 
			}
		],
		 "valence_orbital": [ 
			{
				"type": "occ",
				"energy": -0.31568,
				"method": "rhf"
			},
			{
				"type": "occ",
				"energy": -0.28554,
				"method": "rhf"
			},
			{
				"type": "occ",
				"energy": -0.26259,
				"method": "rhf"
			},
			{
				"type": "occ",
				"energy": -0.24698,
				"method": "rhf"
			},
			{
				"type": "occ",
				"energy": -0.21431,
				"method": "rhf"
			},
			{
				"type": "unocc",
				"energy": -0.06389,
				"method": "rhf"
			},
			{
				"type": "unocc",
				"energy": 0.02846,
				"method": "rhf"
			},
			{
				"type": "unocc",
				"energy": 0.07069,
				"method": "rhf"
			},
			{
				"type": "unocc",
				"energy": 0.08472,
				"method": "rhf"
			},
			{
				"type": "unocc",
				"energy": 0.08902,
				"method": "rhf"
			}
		],
		"cosmo_sigma_profile": { 
			"-0.025": 0.0,
			"-0.024": 0.0,
			"-0.023": 0.0,
			"-0.022": 0.0,
			"-0.021": 0.0,
			"-0.02": 0.0,
			"-0.019": 0.0,
			"-0.018": 0.0,
			"-0.017": 0.0,
			"-0.016": 0.0,
			"-0.015": 0.0,
			"-0.014": 0.0,
			"-0.013": 0.0,
			"-0.012": 0.0,
			"-0.011": 0.0,
			"-0.01": 0.0,
			"-0.009": 0.0,
			"-0.008": 1.10459308841,
			"-0.007": 4.83007790104,
			"-0.006": 8.34538445404,
			"-0.005": 14.9426259259,
			"-0.004": 18.9472213739,
			"-0.003": 28.0795614867,
			"-0.002": 35.9191246001,
			"-0.001": 31.3288026782,
			"0.0": 23.4778719275,
			"0.001": 18.9914007364,
			"0.002": 8.54619856758,
			"0.003": 5.72127895713,
			"0.004": 4.07865578696,
			"0.005": 2.44080721631,
			"0.006": 4.07771939103,
			"0.007": 3.28780263743,
			"0.008": 3.18155980125,
			"0.009": 3.10376728018,
			"0.01": 4.45560381269,
			"0.011": 4.73478262981,
			"0.012": 6.69121198928,
			"0.013": 4.21359814892,
			"0.014": 0.699070241287,
			"0.015": 0.479051435142,
			"0.016": 0.00833001472706,
			"0.017": 0.0,
			"0.018": 0.0,
			"0.019": 0.0,
			"0.02": 0.0,
			"0.021": 0.0,
			"0.022": 0.0,
			"0.023": 0.0,
			"0.024": 0.0,
			"0.025": 0.0
		}
	}
}
