{
	 "smiles": "FC1=C(C=CC(Br)=C1)C(=O)NC1CC1", 
	 "Tm": 385.15, 
	 "num_atms": 23, 
	 "gaussian": { 
		 "optdone": 1, 
		 "sigma_profile": "yes", 
		 "theory": "DFT", 
		 "functional": "B3LYP", 
		 "basiset": "6-31G**", 
		 "properties": { 
			 "R2extent": 7042.1066, 
			 "electric_dipole_moment_norm": 2.19375831394, 
			 "electric_quadrupole_moment_norm": 6.55150570861, 
			 "total_energy": -3187.68714192, 
			 "HOMO_LUMO_gap": 0.1977, 
			 "cosmo_polarized_energy": -10.0, 
			 "cosmo_cavitation_energy": 30.13, 
			 "cosmo_dispersion_energy": -22.23, 
			 "cosmo_repulsion_energy": 1.74, 
			 "cosmo_total_nonelectrostatic_energy": 9.64, 
			 "SMD_solvation_energy": 3.99 
		},
		"coords": [
			{
				"x": -0.3619954401,
				"y": -1.1510146186,
				"z": 0.4115689101,
				"element": "F" 
			},
			{
				"x": 0.8999704828,
				"y": -1.1769866402,
				"z": -0.0984299505,
				"element": "C" 
			},
			{
				"x": 1.537644643,
				"y": 0.0082798327,
				"z": -0.4767371803,
				"element": "C" 
			},
			{
				"x": 2.8387305629,
				"y": -0.1206083487,
				"z": -0.9870689389,
				"element": "C" 
			},
			{
				"x": 3.4673746443,
				"y": -1.3540549725,
				"z": -1.1155377526,
				"element": "C" 
			},
			{
				"x": 2.7817278692,
				"y": -2.5042548068,
				"z": -0.7220320241,
				"element": "C" 
			},
			{
				"x": 3.6181976782,
				"y": -4.2086056144,
				"z": -0.8858988734,
				"element": "Br" 
			},
			{
				"x": 1.4902683097,
				"y": -2.4297534298,
				"z": -0.2079353961,
				"element": "C" 
			},
			{
				"x": 0.9860076972,
				"y": 1.4152192946,
				"z": -0.3986511688,
				"element": "C" 
			},
			{
				"x": 1.6739712581,
				"y": 2.3667185995,
				"z": -0.7557681307,
				"element": "O" 
			},
			{
				"x": -0.2863820638,
				"y": 1.5678626638,
				"z": 0.0710241902,
				"element": "N" 
			},
			{
				"x": -0.8604281183,
				"y": 2.8723830131,
				"z": 0.2453754546,
				"element": "C" 
			},
			{
				"x": -2.3549106845,
				"y": 2.9999367079,
				"z": 0.1184642391,
				"element": "C" 
			},
			{
				"x": -1.4531590848,
				"y": 3.5840246398,
				"z": -0.9426612559,
				"element": "C" 
			},
			{
				"x": 3.3386715209,
				"y": 0.7960876128,
				"z": -1.2809768499,
				"element": "H" 
			},
			{
				"x": 4.4724673153,
				"y": -1.4256529016,
				"z": -1.5136018626,
				"element": "H" 
			},
			{
				"x": 0.9431884166,
				"y": -3.3106169109,
				"z": 0.103760197,
				"element": "H" 
			},
			{
				"x": -0.7684610499,
				"y": 0.7663203051,
				"z": 0.4480658328,
				"element": "H" 
			},
			{
				"x": -0.3583309321,
				"y": 3.4919163745,
				"z": 0.9858021842,
				"element": "H" 
			},
			{
				"x": -2.9165728414,
				"y": 2.1056708805,
				"z": -0.1372758453,
				"element": "H" 
			},
			{
				"x": -2.8677254472,
				"y": 3.6692965742,
				"z": 0.8017970497,
				"element": "H" 
			},
			{
				"x": -1.3343573742,
				"y": 4.6613100381,
				"z": -0.995322666,
				"element": "H" 
			},
			{
				"x": -1.4013973618,
				"y": 3.0731217069,
				"z": -1.8980601624,
				"element": "H" 
			}
		],
		 "valence_orbital": [ 
			{
				"type": "occ",
				"energy": -0.29881,
				"method": "rhf"
			},
			{
				"type": "occ",
				"energy": -0.27169,
				"method": "rhf"
			},
			{
				"type": "occ",
				"energy": -0.25826,
				"method": "rhf"
			},
			{
				"type": "occ",
				"energy": -0.25635,
				"method": "rhf"
			},
			{
				"type": "occ",
				"energy": -0.24898,
				"method": "rhf"
			},
			{
				"type": "unocc",
				"energy": -0.05128,
				"method": "rhf"
			},
			{
				"type": "unocc",
				"energy": -0.02185,
				"method": "rhf"
			},
			{
				"type": "unocc",
				"energy": -0.00557,
				"method": "rhf"
			},
			{
				"type": "unocc",
				"energy": 0.04942,
				"method": "rhf"
			},
			{
				"type": "unocc",
				"energy": 0.091,
				"method": "rhf"
			}
		],
		"cosmo_sigma_profile": { 
			"-0.025": 0.0,
			"-0.024": 0.0,
			"-0.023": 0.0,
			"-0.022": 0.0,
			"-0.021": 0.0,
			"-0.02": 0.0,
			"-0.019": 0.0,
			"-0.018": 0.0,
			"-0.017": 0.0,
			"-0.016": 0.0,
			"-0.015": 0.0,
			"-0.014": 0.0,
			"-0.013": 0.0,
			"-0.012": 0.0,
			"-0.011": 0.0682778147786,
			"-0.01": 0.697524365056,
			"-0.009": 1.72260893053,
			"-0.008": 3.96874985732,
			"-0.007": 4.56695440665,
			"-0.006": 8.8929990315,
			"-0.005": 16.3464051131,
			"-0.004": 16.9742593472,
			"-0.003": 18.0878104223,
			"-0.002": 19.5635286588,
			"-0.001": 22.9749996881,
			"0.0": 28.5325784554,
			"0.001": 28.2737992782,
			"0.002": 20.1393802166,
			"0.003": 16.9431622719,
			"0.004": 13.7570048345,
			"0.005": 3.32921623138,
			"0.006": 1.25488256147,
			"0.007": 1.90961562795,
			"0.008": 1.44407994176,
			"0.009": 1.44090071268,
			"0.01": 2.01299842486,
			"0.011": 1.44332149914,
			"0.012": 2.72055574681,
			"0.013": 4.32894687834,
			"0.014": 2.79095774031,
			"0.015": 0.31302152546,
			"0.016": 0.0,
			"0.017": 0.0,
			"0.018": 0.0,
			"0.019": 0.0,
			"0.02": 0.0,
			"0.021": 0.0,
			"0.022": 0.0,
			"0.023": 0.0,
			"0.024": 0.0,
			"0.025": 0.0
		}
	}
}
