{
	 "smiles": "CC1=C(C)N=NC(Cl)=C1", 
	 "Tm": 319.15, 
	 "num_atms": 16, 
	 "gaussian": { 
		 "optdone": 1, 
		 "sigma_profile": "yes", 
		 "theory": "DFT", 
		 "functional": "B3LYP", 
		 "basiset": "6-31G**", 
		 "properties": { 
			 "R2extent": 1626.145, 
			 "electric_dipole_moment_norm": 5.24337499231, 
			 "electric_quadrupole_moment_norm": 4.0361398452, 
			 "total_energy": -802.524039249, 
			 "HOMO_LUMO_gap": 0.18756, 
			 "cosmo_polarized_energy": -11.43, 
			 "cosmo_cavitation_energy": 21.7, 
			 "cosmo_dispersion_energy": -16.21, 
			 "cosmo_repulsion_energy": 1.33, 
			 "cosmo_total_nonelectrostatic_energy": 6.82, 
			 "SMD_solvation_energy": 1.92 
		},
		"coords": [
			{
				"x": -1.6030601661,
				"y": -0.4556178227,
				"z": -2.2100123266,
				"element": "C" 
			},
			{
				"x": -0.6138326437,
				"y": -0.4122221,
				"z": -1.0772220071,
				"element": "C" 
			},
			{
				"x": 0.6542387052,
				"y": 0.2082423945,
				"z": -1.2165674163,
				"element": "C" 
			},
			{
				"x": 1.0859537693,
				"y": 0.8592012731,
				"z": -2.502798865,
				"element": "C" 
			},
			{
				"x": 1.5443570041,
				"y": 0.255417872,
				"z": -0.2203532798,
				"element": "N" 
			},
			{
				"x": 1.2702832016,
				"y": -0.2904163564,
				"z": 0.9695717866,
				"element": "N" 
			},
			{
				"x": 0.1010809964,
				"y": -0.8775153234,
				"z": 1.1404272797,
				"element": "C" 
			},
			{
				"x": -0.1972552804,
				"y": -1.5739471761,
				"z": 2.7236387673,
				"element": "Cl" 
			},
			{
				"x": -0.8896785377,
				"y": -0.974537783,
				"z": 0.1570377533,
				"element": "C" 
			},
			{
				"x": -1.87122359,
				"y": 0.5546125428,
				"z": -2.5395222106,
				"element": "H" 
			},
			{
				"x": -1.1841747273,
				"y": -0.9723777428,
				"z": -3.0809634392,
				"element": "H" 
			},
			{
				"x": -2.5196583176,
				"y": -0.972409146,
				"z": -1.9156932355,
				"element": "H" 
			},
			{
				"x": 1.095830747,
				"y": 0.141573125,
				"z": -3.3316279644,
				"element": "H" 
			},
			{
				"x": 2.0897276861,
				"y": 1.2667046845,
				"z": -2.3773344758,
				"element": "H" 
			},
			{
				"x": 0.4069850925,
				"y": 1.6711700473,
				"z": -2.7887147877,
				"element": "H" 
			},
			{
				"x": -1.8312739395,
				"y": -1.4718784888,
				"z": 0.3637344211,
				"element": "H" 
			}
		],
		 "valence_orbital": [ 
			{
				"type": "occ",
				"energy": -0.32625,
				"method": "rhf"
			},
			{
				"type": "occ",
				"energy": -0.31347,
				"method": "rhf"
			},
			{
				"type": "occ",
				"energy": -0.3021,
				"method": "rhf"
			},
			{
				"type": "occ",
				"energy": -0.27013,
				"method": "rhf"
			},
			{
				"type": "occ",
				"energy": -0.24137,
				"method": "rhf"
			},
			{
				"type": "unocc",
				"energy": -0.05381,
				"method": "rhf"
			},
			{
				"type": "unocc",
				"energy": -0.03242,
				"method": "rhf"
			},
			{
				"type": "unocc",
				"energy": 0.02852,
				"method": "rhf"
			},
			{
				"type": "unocc",
				"energy": 0.07613,
				"method": "rhf"
			},
			{
				"type": "unocc",
				"energy": 0.10904,
				"method": "rhf"
			}
		],
		"cosmo_sigma_profile": { 
			"-0.025": 0.0,
			"-0.024": 0.0,
			"-0.023": 0.0,
			"-0.022": 0.0,
			"-0.021": 0.0,
			"-0.02": 0.0,
			"-0.019": 0.0,
			"-0.018": 0.0,
			"-0.017": 0.0,
			"-0.016": 0.0,
			"-0.015": 0.0,
			"-0.014": 0.0,
			"-0.013": 0.0,
			"-0.012": 0.0,
			"-0.011": 0.0,
			"-0.01": 0.0,
			"-0.009": 1.16760155357,
			"-0.008": 2.69883770556,
			"-0.007": 2.69040267613,
			"-0.006": 10.7182569879,
			"-0.005": 13.0774597065,
			"-0.004": 12.5559942274,
			"-0.003": 14.6153417737,
			"-0.002": 24.9734062141,
			"-0.001": 23.2287200394,
			"0.0": 10.103437701,
			"0.001": 6.63625335327,
			"0.002": 6.66643101818,
			"0.003": 8.5584434287,
			"0.004": 10.361390653,
			"0.005": 4.53170062349,
			"0.006": 2.36986088799,
			"0.007": 2.59179713632,
			"0.008": 2.13530713907,
			"0.009": 1.65963159486,
			"0.01": 2.45296246002,
			"0.011": 1.92486317235,
			"0.012": 2.39112197857,
			"0.013": 2.93932050281,
			"0.014": 2.2302600241,
			"0.015": 1.68365464637,
			"0.016": 0.143952203855,
			"0.017": 0.0,
			"0.018": 0.0,
			"0.019": 0.0,
			"0.02": 0.0,
			"0.021": 0.0,
			"0.022": 0.0,
			"0.023": 0.0,
			"0.024": 0.0,
			"0.025": 0.0
		}
	}
}
