{
	 "smiles": "CC1=NC2=CC=CC=C2N1CCC1=NN=C(SCC2=CC=CC=C2)N1C1=CC=CC=C1", 
	 "Tm": 403.15, 
	 "num_atms": 54, 
	 "gaussian": { 
		 "optdone": 1, 
		 "sigma_profile": "yes", 
		 "theory": "DFT", 
		 "functional": "B3LYP", 
		 "basiset": "6-31G**", 
		 "properties": { 
			 "R2extent": 18873.9956, 
			 "electric_dipole_moment_norm": 5.0723118802, 
			 "electric_quadrupole_moment_norm": 17.6224010716, 
			 "total_energy": -1638.47439841, 
			 "HOMO_LUMO_gap": 0.17946, 
			 "cosmo_polarized_energy": -23.31, 
			 "cosmo_cavitation_energy": 60.02, 
			 "cosmo_dispersion_energy": -40.38, 
			 "cosmo_repulsion_energy": 3.04, 
			 "cosmo_total_nonelectrostatic_energy": 22.67, 
			 "SMD_solvation_energy": 5.68 
		},
		"coords": [
			{
				"x": 2.4475924079,
				"y": 1.7346298047,
				"z": 4.4860473036,
				"element": "C" 
			},
			{
				"x": 2.6456606044,
				"y": 0.294751902,
				"z": 4.1370771459,
				"element": "C" 
			},
			{
				"x": 3.6807821121,
				"y": -0.4207353655,
				"z": 4.5118135461,
				"element": "N" 
			},
			{
				"x": 3.4587872,
				"y": -1.6857416002,
				"z": 3.9877115835,
				"element": "C" 
			},
			{
				"x": 4.2360349509,
				"y": -2.8464963768,
				"z": 4.0800981487,
				"element": "C" 
			},
			{
				"x": 3.7702439229,
				"y": -3.9998534964,
				"z": 3.4546594847,
				"element": "C" 
			},
			{
				"x": 2.551237098,
				"y": -4.0091872187,
				"z": 2.748669101,
				"element": "C" 
			},
			{
				"x": 1.7617545951,
				"y": -2.8648963575,
				"z": 2.6443042296,
				"element": "C" 
			},
			{
				"x": 2.2377566201,
				"y": -1.7121227827,
				"z": 3.27329609,
				"element": "C" 
			},
			{
				"x": 1.7260962231,
				"y": -0.4258277554,
				"z": 3.386242807,
				"element": "N" 
			},
			{
				"x": 0.5082424343,
				"y": 0.0653430636,
				"z": 2.7626225261,
				"element": "C" 
			},
			{
				"x": 0.7169865784,
				"y": 0.4095575538,
				"z": 1.276843691,
				"element": "C" 
			},
			{
				"x": -0.5387762534,
				"y": 0.9417838748,
				"z": 0.6615785799,
				"element": "C" 
			},
			{
				"x": -1.6246952629,
				"y": 1.2750715339,
				"z": 1.3116007912,
				"element": "N" 
			},
			{
				"x": -2.560064461,
				"y": 1.7131201233,
				"z": 0.3891079027,
				"element": "N" 
			},
			{
				"x": -2.0088270232,
				"y": 1.6245301001,
				"z": -0.7988255939,
				"element": "C" 
			},
			{
				"x": -2.7127840692,
				"y": 2.0792276663,
				"z": -2.3492552824,
				"element": "S" 
			},
			{
				"x": -4.4399862488,
				"y": 2.5002585764,
				"z": -1.7952002518,
				"element": "C" 
			},
			{
				"x": -5.3939694646,
				"y": 1.3350323758,
				"z": -1.7669803845,
				"element": "C" 
			},
			{
				"x": -5.5683861341,
				"y": 0.5825897682,
				"z": -0.5965209831,
				"element": "C" 
			},
			{
				"x": -6.4619639137,
				"y": -0.4890139531,
				"z": -0.5754492363,
				"element": "C" 
			},
			{
				"x": -7.1913765948,
				"y": -0.822092649,
				"z": -1.7186322585,
				"element": "C" 
			},
			{
				"x": -7.0242684657,
				"y": -0.0763096329,
				"z": -2.887441393,
				"element": "C" 
			},
			{
				"x": -6.1316001842,
				"y": 0.9950328131,
				"z": -2.9093217201,
				"element": "C" 
			},
			{
				"x": -0.7201236435,
				"y": 1.1386710999,
				"z": -0.6981272058,
				"element": "N" 
			},
			{
				"x": 0.2155855515,
				"y": 0.8883984733,
				"z": -1.7540961003,
				"element": "C" 
			},
			{
				"x": 1.313917054,
				"y": 1.736932227,
				"z": -1.9207966088,
				"element": "C" 
			},
			{
				"x": 2.2337338053,
				"y": 1.4781545813,
				"z": -2.9369839697,
				"element": "C" 
			},
			{
				"x": 2.0501415007,
				"y": 0.3856180449,
				"z": -3.787063735,
				"element": "C" 
			},
			{
				"x": 0.9457867126,
				"y": -0.4528340113,
				"z": -3.6205469126,
				"element": "C" 
			},
			{
				"x": 0.0264032008,
				"y": -0.2082279909,
				"z": -2.6005487195,
				"element": "C" 
			},
			{
				"x": 2.3696640454,
				"y": 2.3698472046,
				"z": 3.596000049,
				"element": "H" 
			},
			{
				"x": 3.3063164459,
				"y": 2.0622819642,
				"z": 5.0725533846,
				"element": "H" 
			},
			{
				"x": 1.5399080736,
				"y": 1.8892964304,
				"z": 5.0809565564,
				"element": "H" 
			},
			{
				"x": 5.1725018747,
				"y": -2.83355337,
				"z": 4.6286376408,
				"element": "H" 
			},
			{
				"x": 4.354608238,
				"y": -4.9135969938,
				"z": 3.5113208252,
				"element": "H" 
			},
			{
				"x": 2.2176785259,
				"y": -4.9281898195,
				"z": 2.275540413,
				"element": "H" 
			},
			{
				"x": 0.8206562024,
				"y": -2.8811132584,
				"z": 2.102333074,
				"element": "H" 
			},
			{
				"x": 0.1575805101,
				"y": 0.9450949475,
				"z": 3.3037682836,
				"element": "H" 
			},
			{
				"x": -0.2736754915,
				"y": -0.6921783961,
				"z": 2.8656549188,
				"element": "H" 
			},
			{
				"x": 1.5284215941,
				"y": 1.1433027519,
				"z": 1.18614487,
				"element": "H" 
			},
			{
				"x": 1.0553411953,
				"y": -0.480467804,
				"z": 0.7331748831,
				"element": "H" 
			},
			{
				"x": -4.3372930605,
				"y": 2.9722559245,
				"z": -0.8173691442,
				"element": "H" 
			},
			{
				"x": -4.7544982651,
				"y": 3.254083783,
				"z": -2.5211917056,
				"element": "H" 
			},
			{
				"x": -4.9911893604,
				"y": 0.8403916738,
				"z": 0.2860367573,
				"element": "H" 
			},
			{
				"x": -6.5908662897,
				"y": -1.0628422525,
				"z": 0.3380689473,
				"element": "H" 
			},
			{
				"x": -7.8886764542,
				"y": -1.6548855155,
				"z": -1.6984795088,
				"element": "H" 
			},
			{
				"x": -7.5919339398,
				"y": -0.3253498657,
				"z": -3.7796468928,
				"element": "H" 
			},
			{
				"x": -6.0077138801,
				"y": 1.5754768638,
				"z": -3.8208800699,
				"element": "H" 
			},
			{
				"x": 1.4344914033,
				"y": 2.5926282962,
				"z": -1.2640036533,
				"element": "H" 
			},
			{
				"x": 3.0890702875,
				"y": 2.1338644892,
				"z": -3.0674189083,
				"element": "H" 
			},
			{
				"x": 2.7661232527,
				"y": 0.1886728072,
				"z": -4.5791932123,
				"element": "H" 
			},
			{
				"x": 0.8009085899,
				"y": -1.3021272978,
				"z": -4.2810321447,
				"element": "H" 
			},
			{
				"x": -0.8334443503,
				"y": -0.8539569553,
				"z": -2.4557579389,
				"element": "H" 
			}
		],
		 "valence_orbital": [ 
			{
				"type": "occ",
				"energy": -0.24853,
				"method": "rhf"
			},
			{
				"type": "occ",
				"energy": -0.24299,
				"method": "rhf"
			},
			{
				"type": "occ",
				"energy": -0.22199,
				"method": "rhf"
			},
			{
				"type": "occ",
				"energy": -0.21765,
				"method": "rhf"
			},
			{
				"type": "occ",
				"energy": -0.21422,
				"method": "rhf"
			},
			{
				"type": "unocc",
				"energy": -0.03476,
				"method": "rhf"
			},
			{
				"type": "unocc",
				"energy": -0.02851,
				"method": "rhf"
			},
			{
				"type": "unocc",
				"energy": -0.01545,
				"method": "rhf"
			},
			{
				"type": "unocc",
				"energy": -0.00817,
				"method": "rhf"
			},
			{
				"type": "unocc",
				"energy": -0.00053,
				"method": "rhf"
			}
		],
		"cosmo_sigma_profile": { 
			"-0.025": 0.0,
			"-0.024": 0.0,
			"-0.023": 0.0,
			"-0.022": 0.0,
			"-0.021": 0.0,
			"-0.02": 0.0,
			"-0.019": 0.0,
			"-0.018": 0.0,
			"-0.017": 0.0,
			"-0.016": 0.0,
			"-0.015": 0.0,
			"-0.014": 0.0,
			"-0.013": 0.0,
			"-0.012": 0.0,
			"-0.011": 0.0,
			"-0.01": 0.0,
			"-0.009": 0.0,
			"-0.008": 1.65854628764,
			"-0.007": 16.7506571602,
			"-0.006": 36.1350704781,
			"-0.005": 45.9104073496,
			"-0.004": 41.7410351585,
			"-0.003": 41.8726157986,
			"-0.002": 33.9085376634,
			"-0.001": 32.5160014805,
			"0.0": 24.3164254732,
			"0.001": 26.6378686792,
			"0.002": 29.7322283197,
			"0.003": 33.8101426399,
			"0.004": 32.3613764136,
			"0.005": 25.1148010559,
			"0.006": 23.7585702677,
			"0.007": 7.20693353379,
			"0.008": 4.32117789029,
			"0.009": 3.00055198353,
			"0.01": 2.95416936452,
			"0.011": 2.72070139526,
			"0.012": 3.3195200599,
			"0.013": 3.79593473598,
			"0.014": 3.23002836638,
			"0.015": 2.15556613806,
			"0.016": 1.06021855435,
			"0.017": 1.04756184221,
			"0.018": 0.50662746252,
			"0.019": 0.0350693655536,
			"0.02": 0.0,
			"0.021": 0.0,
			"0.022": 0.0,
			"0.023": 0.0,
			"0.024": 0.0,
			"0.025": 0.0
		}
	}
}
