{
	 "smiles": "NC(=S)NCC1=CC(=CC=C1)C(F)(F)F", 
	 "Tm": 371.15, 
	 "num_atms": 24, 
	 "gaussian": { 
		 "optdone": 1, 
		 "sigma_profile": "yes", 
		 "theory": "DFT", 
		 "functional": "B3LYP", 
		 "basiset": "6-31G**", 
		 "properties": { 
			 "R2extent": 4873.5597, 
			 "electric_dipole_moment_norm": 4.48760248908, 
			 "electric_quadrupole_moment_norm": 24.570820782, 
			 "total_energy": -1155.6187239, 
			 "HOMO_LUMO_gap": 0.172, 
			 "cosmo_polarized_energy": -19.88, 
			 "cosmo_cavitation_energy": 31.76, 
			 "cosmo_dispersion_energy": -22.58, 
			 "cosmo_repulsion_energy": 1.71, 
			 "cosmo_total_nonelectrostatic_energy": 10.88, 
			 "SMD_solvation_energy": 5.49 
		},
		"coords": [
			{
				"x": -0.2615627688,
				"y": 4.2648268558,
				"z": 1.4226390857,
				"element": "N" 
			},
			{
				"x": 0.5989597361,
				"y": 3.23530568,
				"z": 1.7007586156,
				"element": "C" 
			},
			{
				"x": 1.317558406,
				"y": 3.0760872253,
				"z": 3.2103749345,
				"element": "S" 
			},
			{
				"x": 0.8170339697,
				"y": 2.396044213,
				"z": 0.6493141363,
				"element": "N" 
			},
			{
				"x": 1.7871803782,
				"y": 1.3089082401,
				"z": 0.6579659203,
				"element": "C" 
			},
			{
				"x": 1.3718635424,
				"y": 0.1836989124,
				"z": -0.2667764899,
				"element": "C" 
			},
			{
				"x": 0.0718950716,
				"y": -0.3348662965,
				"z": -0.2220996779,
				"element": "C" 
			},
			{
				"x": -0.2948033256,
				"y": -1.3932890285,
				"z": -1.0537529839,
				"element": "C" 
			},
			{
				"x": 0.6315648808,
				"y": -1.9550307908,
				"z": -1.9377837188,
				"element": "C" 
			},
			{
				"x": 1.9270904992,
				"y": -1.4453291444,
				"z": -1.9835506282,
				"element": "C" 
			},
			{
				"x": 2.2917618584,
				"y": -0.3798876424,
				"z": -1.1581003862,
				"element": "C" 
			},
			{
				"x": -1.7148535386,
				"y": -1.893384308,
				"z": -1.0406086515,
				"element": "C" 
			},
			{
				"x": -1.7919448988,
				"y": -3.2011416651,
				"z": -1.3700270927,
				"element": "F" 
			},
			{
				"x": -2.2933221921,
				"y": -1.7422016242,
				"z": 0.1705486728,
				"element": "F" 
			},
			{
				"x": -2.4848841574,
				"y": -1.219262124,
				"z": -1.9289006467,
				"element": "F" 
			},
			{
				"x": -0.5540076889,
				"y": 4.8023825043,
				"z": 2.2246368259,
				"element": "H" 
			},
			{
				"x": -0.9473969678,
				"y": 4.1583227529,
				"z": 0.6863257277,
				"element": "H" 
			},
			{
				"x": 0.5077841002,
				"y": 2.7028477905,
				"z": -0.2645260811,
				"element": "H" 
			},
			{
				"x": 2.7855731276,
				"y": 1.6741240542,
				"z": 0.381606817,
				"element": "H" 
			},
			{
				"x": 1.858768825,
				"y": 0.9660931373,
				"z": 1.6953277459,
				"element": "H" 
			},
			{
				"x": -0.6518814725,
				"y": 0.0844824181,
				"z": 0.4689569212,
				"element": "H" 
			},
			{
				"x": 0.339219359,
				"y": -2.7831673228,
				"z": -2.5740204479,
				"element": "H" 
			},
			{
				"x": 2.653941481,
				"y": -1.8750911346,
				"z": -2.6660029808,
				"element": "H" 
			},
			{
				"x": 3.3028617751,
				"y": 0.0165272973,
				"z": -1.2039056174,
				"element": "H" 
			}
		],
		 "valence_orbital": [ 
			{
				"type": "occ",
				"energy": -0.28228,
				"method": "rhf"
			},
			{
				"type": "occ",
				"energy": -0.27593,
				"method": "rhf"
			},
			{
				"type": "occ",
				"energy": -0.2646,
				"method": "rhf"
			},
			{
				"type": "occ",
				"energy": -0.22139,
				"method": "rhf"
			},
			{
				"type": "occ",
				"energy": -0.20704,
				"method": "rhf"
			},
			{
				"type": "unocc",
				"energy": -0.03504,
				"method": "rhf"
			},
			{
				"type": "unocc",
				"energy": -0.02773,
				"method": "rhf"
			},
			{
				"type": "unocc",
				"energy": -0.00591,
				"method": "rhf"
			},
			{
				"type": "unocc",
				"energy": 0.05277,
				"method": "rhf"
			},
			{
				"type": "unocc",
				"energy": 0.0849,
				"method": "rhf"
			}
		],
		"cosmo_sigma_profile": { 
			"-0.025": 0.0,
			"-0.024": 0.0,
			"-0.023": 0.0,
			"-0.022": 0.0,
			"-0.021": 0.0,
			"-0.02": 0.0,
			"-0.019": 0.0,
			"-0.018": 0.0,
			"-0.017": 0.752894566689,
			"-0.016": 1.48025542248,
			"-0.015": 2.80780513265,
			"-0.014": 2.54920676225,
			"-0.013": 3.22273501632,
			"-0.012": 3.16624431632,
			"-0.011": 3.33595266528,
			"-0.01": 2.256234565,
			"-0.009": 2.64148243729,
			"-0.008": 1.86764935656,
			"-0.007": 5.39611296369,
			"-0.006": 11.6001565399,
			"-0.005": 13.2261831582,
			"-0.004": 13.8487603924,
			"-0.003": 12.8118015374,
			"-0.002": 13.2902406368,
			"-0.001": 12.6804509109,
			"0.0": 12.5919902129,
			"0.001": 18.0087255112,
			"0.002": 24.9351364721,
			"0.003": 41.2474683447,
			"0.004": 10.8905605643,
			"0.005": 4.43851055921,
			"0.006": 4.72522311093,
			"0.007": 4.09667000506,
			"0.008": 4.39063358652,
			"0.009": 5.32094847577,
			"0.01": 6.08155149842,
			"0.011": 7.53261919673,
			"0.012": 3.83370133305,
			"0.013": 0.588815058012,
			"0.014": 0.0,
			"0.015": 0.0,
			"0.016": 0.0,
			"0.017": 0.0,
			"0.018": 0.0,
			"0.019": 0.0,
			"0.02": 0.0,
			"0.021": 0.0,
			"0.022": 0.0,
			"0.023": 0.0,
			"0.024": 0.0,
			"0.025": 0.0
		}
	}
}
