{
	 "smiles": "COC1=CC(F)=C(CBr)C(F)=C1", 
	 "Tm": 317.65, 
	 "num_atms": 19, 
	 "gaussian": { 
		 "optdone": 1, 
		 "sigma_profile": "yes", 
		 "theory": "DFT", 
		 "functional": "B3LYP", 
		 "basiset": "6-31G**", 
		 "properties": { 
			 "R2extent": 4017.488, 
			 "electric_dipole_moment_norm": 4.23909627279, 
			 "electric_quadrupole_moment_norm": 6.78341144705, 
			 "total_energy": -3155.35955745, 
			 "HOMO_LUMO_gap": 0.1987, 
			 "cosmo_polarized_energy": -7.56, 
			 "cosmo_cavitation_energy": 26.5, 
			 "cosmo_dispersion_energy": -19.29, 
			 "cosmo_repulsion_energy": 1.51, 
			 "cosmo_total_nonelectrostatic_energy": 8.72, 
			 "SMD_solvation_energy": 5.04 
		},
		"coords": [
			{
				"x": 2.8425208396,
				"y": -0.2672163715,
				"z": 2.3194337854,
				"element": "C" 
			},
			{
				"x": 2.6730495309,
				"y": -0.3299882992,
				"z": 0.9085152137,
				"element": "O" 
			},
			{
				"x": 1.4388438858,
				"y": -0.601153988,
				"z": 0.4163862034,
				"element": "C" 
			},
			{
				"x": 0.3087440325,
				"y": -0.8392309981,
				"z": 1.2101164,
				"element": "C" 
			},
			{
				"x": -0.8976466862,
				"y": -1.1026766774,
				"z": 0.5725053407,
				"element": "C" 
			},
			{
				"x": -1.98010476,
				"y": -1.3335274068,
				"z": 1.3412073304,
				"element": "F" 
			},
			{
				"x": -1.0550869967,
				"y": -1.154588397,
				"z": -0.8132631156,
				"element": "C" 
			},
			{
				"x": -2.3608609873,
				"y": -1.4361763802,
				"z": -1.4565260954,
				"element": "C" 
			},
			{
				"x": -3.4217565517,
				"y": 0.2378191949,
				"z": -1.8167006278,
				"element": "Br" 
			},
			{
				"x": 0.1101836983,
				"y": -0.9065872867,
				"z": -1.554153984,
				"element": "C" 
			},
			{
				"x": 0.0176923316,
				"y": -0.9457832335,
				"z": -2.8971358515,
				"element": "F" 
			},
			{
				"x": 1.3398565942,
				"y": -0.6391255335,
				"z": -0.9839680082,
				"element": "C" 
			},
			{
				"x": 3.8950916732,
				"y": -0.0339851158,
				"z": 2.4830885732,
				"element": "H" 
			},
			{
				"x": 2.2227361949,
				"y": 0.5213252611,
				"z": 2.7631895899,
				"element": "H" 
			},
			{
				"x": 2.6055156222,
				"y": -1.2266500687,
				"z": 2.7952934891,
				"element": "H" 
			},
			{
				"x": 0.3344529544,
				"y": -0.8244634407,
				"z": 2.2910537132,
				"element": "H" 
			},
			{
				"x": -3.0128393047,
				"y": -2.0296088709,
				"z": -0.8218700001,
				"element": "H" 
			},
			{
				"x": -2.2471242242,
				"y": -1.8908519755,
				"z": -2.4365465488,
				"element": "H" 
			},
			{
				"x": 2.2113321531,
				"y": -0.4588304127,
				"z": -1.6006254075,
				"element": "H" 
			}
		],
		 "valence_orbital": [ 
			{
				"type": "occ",
				"energy": -0.3199,
				"method": "rhf"
			},
			{
				"type": "occ",
				"energy": -0.26909,
				"method": "rhf"
			},
			{
				"type": "occ",
				"energy": -0.26521,
				"method": "rhf"
			},
			{
				"type": "occ",
				"energy": -0.25716,
				"method": "rhf"
			},
			{
				"type": "occ",
				"energy": -0.2355,
				"method": "rhf"
			},
			{
				"type": "unocc",
				"energy": -0.0368,
				"method": "rhf"
			},
			{
				"type": "unocc",
				"energy": -0.00918,
				"method": "rhf"
			},
			{
				"type": "unocc",
				"energy": 0.02851,
				"method": "rhf"
			},
			{
				"type": "unocc",
				"energy": 0.0735,
				"method": "rhf"
			},
			{
				"type": "unocc",
				"energy": 0.09165,
				"method": "rhf"
			}
		],
		"cosmo_sigma_profile": { 
			"-0.025": 0.0,
			"-0.024": 0.0,
			"-0.023": 0.0,
			"-0.022": 0.0,
			"-0.021": 0.0,
			"-0.02": 0.0,
			"-0.019": 0.0,
			"-0.018": 0.0,
			"-0.017": 0.0,
			"-0.016": 0.0,
			"-0.015": 0.0,
			"-0.014": 0.0,
			"-0.013": 0.0,
			"-0.012": 0.0,
			"-0.011": 0.0,
			"-0.01": 0.0,
			"-0.009": 0.167749835273,
			"-0.008": 4.38951660234,
			"-0.007": 7.44789221282,
			"-0.006": 13.5061223187,
			"-0.005": 14.1413436354,
			"-0.004": 15.6583144997,
			"-0.003": 12.187645169,
			"-0.002": 9.38938498538,
			"-0.001": 11.4293941781,
			"0.0": 17.4311784481,
			"0.001": 23.043869006,
			"0.002": 20.5786760858,
			"0.003": 20.6396146818,
			"0.004": 17.355826091,
			"0.005": 8.91915400076,
			"0.006": 12.0786949133,
			"0.007": 3.37018842162,
			"0.008": 1.86435216083,
			"0.009": 1.60273849824,
			"0.01": 0.11245612482,
			"0.011": 0.0,
			"0.012": 0.0,
			"0.013": 0.0,
			"0.014": 0.0,
			"0.015": 0.0,
			"0.016": 0.0,
			"0.017": 0.0,
			"0.018": 0.0,
			"0.019": 0.0,
			"0.02": 0.0,
			"0.021": 0.0,
			"0.022": 0.0,
			"0.023": 0.0,
			"0.024": 0.0,
			"0.025": 0.0
		}
	}
}
