{
	 "smiles": "COC1=CC=C(C=C1)N1CCC1=O", 
	 "Tm": 377.15, 
	 "num_atms": 24, 
	 "gaussian": { 
		 "optdone": 1, 
		 "sigma_profile": "yes", 
		 "theory": "DFT", 
		 "functional": "B3LYP", 
		 "basiset": "6-31G**", 
		 "properties": { 
			 "R2extent": 3284.856, 
			 "electric_dipole_moment_norm": 2.2776973943, 
			 "electric_quadrupole_moment_norm": 17.4725884745, 
			 "total_energy": -592.872562121, 
			 "HOMO_LUMO_gap": 0.19158, 
			 "cosmo_polarized_energy": -11.61, 
			 "cosmo_cavitation_energy": 27.65, 
			 "cosmo_dispersion_energy": -20.52, 
			 "cosmo_repulsion_energy": 1.62, 
			 "cosmo_total_nonelectrostatic_energy": 8.75, 
			 "SMD_solvation_energy": 5.77 
		},
		"coords": [
			{
				"x": 0.0431950458,
				"y": -1.6588533729,
				"z": 4.2223727555,
				"element": "C" 
			},
			{
				"x": 0.9730064907,
				"y": -0.7638350677,
				"z": 3.635155163,
				"element": "O" 
			},
			{
				"x": 0.8764942437,
				"y": -0.5248886851,
				"z": 2.2923233968,
				"element": "C" 
			},
			{
				"x": 1.8186216693,
				"y": 0.3665207201,
				"z": 1.7614393851,
				"element": "C" 
			},
			{
				"x": 1.8085915337,
				"y": 0.6780646569,
				"z": 0.4079591173,
				"element": "C" 
			},
			{
				"x": 0.8530227932,
				"y": 0.102418257,
				"z": -0.4442474533,
				"element": "C" 
			},
			{
				"x": -0.0902361058,
				"y": -0.7889633989,
				"z": 0.0835036441,
				"element": "C" 
			},
			{
				"x": -0.0775642521,
				"y": -1.0999284282,
				"z": 1.443709969,
				"element": "C" 
			},
			{
				"x": 0.8487885111,
				"y": 0.4213006997,
				"z": -1.8105389135,
				"element": "N" 
			},
			{
				"x": 1.7121584112,
				"y": 1.3101224631,
				"z": -2.6036592952,
				"element": "C" 
			},
			{
				"x": 0.8695967928,
				"y": 0.9186863375,
				"z": -3.8497188472,
				"element": "C" 
			},
			{
				"x": 0.0607025177,
				"y": 0.0330124281,
				"z": -2.881831589,
				"element": "C" 
			},
			{
				"x": -0.8868304877,
				"y": -0.7182338084,
				"z": -2.9632520964,
				"element": "O" 
			},
			{
				"x": 0.1193142685,
				"y": -2.6653951142,
				"z": 3.7903466226,
				"element": "H" 
			},
			{
				"x": 0.2960904443,
				"y": -1.704064375,
				"z": 5.2828166162,
				"element": "H" 
			},
			{
				"x": -0.9893870421,
				"y": -1.3019970436,
				"z": 4.1128953135,
				"element": "H" 
			},
			{
				"x": 2.5523428295,
				"y": 0.8051674537,
				"z": 2.4296457081,
				"element": "H" 
			},
			{
				"x": 2.5451223316,
				"y": 1.3704427692,
				"z": 0.0115622447,
				"element": "H" 
			},
			{
				"x": -0.8265191119,
				"y": -1.2315415892,
				"z": -0.5768039487,
				"element": "H" 
			},
			{
				"x": -0.8181996874,
				"y": -1.7922400526,
				"z": 1.8261290797,
				"element": "H" 
			},
			{
				"x": 1.6501637023,
				"y": 2.3621201089,
				"z": -2.3049148214,
				"element": "H" 
			},
			{
				"x": 2.7611307236,
				"y": 0.9956224092,
				"z": -2.6268324618,
				"element": "H" 
			},
			{
				"x": 1.4037754796,
				"y": 0.3658869921,
				"z": -4.6258479447,
				"element": "H" 
			},
			{
				"x": 0.2955188982,
				"y": 1.7290756404,
				"z": -4.3047116442,
				"element": "H" 
			}
		],
		 "valence_orbital": [ 
			{
				"type": "occ",
				"energy": -0.32582,
				"method": "rhf"
			},
			{
				"type": "occ",
				"energy": -0.27452,
				"method": "rhf"
			},
			{
				"type": "occ",
				"energy": -0.25498,
				"method": "rhf"
			},
			{
				"type": "occ",
				"energy": -0.25261,
				"method": "rhf"
			},
			{
				"type": "occ",
				"energy": -0.1976,
				"method": "rhf"
			},
			{
				"type": "unocc",
				"energy": -0.00602,
				"method": "rhf"
			},
			{
				"type": "unocc",
				"energy": -0.00112,
				"method": "rhf"
			},
			{
				"type": "unocc",
				"energy": 0.05704,
				"method": "rhf"
			},
			{
				"type": "unocc",
				"energy": 0.08926,
				"method": "rhf"
			},
			{
				"type": "unocc",
				"energy": 0.09698,
				"method": "rhf"
			}
		],
		"cosmo_sigma_profile": { 
			"-0.025": 0.0,
			"-0.024": 0.0,
			"-0.023": 0.0,
			"-0.022": 0.0,
			"-0.021": 0.0,
			"-0.02": 0.0,
			"-0.019": 0.0,
			"-0.018": 0.0,
			"-0.017": 0.0,
			"-0.016": 0.0,
			"-0.015": 0.0,
			"-0.014": 0.0,
			"-0.013": 0.0,
			"-0.012": 0.0,
			"-0.011": 0.0,
			"-0.01": 0.0,
			"-0.009": 0.0,
			"-0.008": 0.0,
			"-0.007": 1.45142888043,
			"-0.006": 16.8559371198,
			"-0.005": 29.6346252208,
			"-0.004": 25.6421751997,
			"-0.003": 22.4032821983,
			"-0.002": 15.1884662475,
			"-0.001": 10.7076070587,
			"0.0": 8.48783010438,
			"0.001": 9.84303046174,
			"0.002": 11.7990912838,
			"0.003": 12.1701843477,
			"0.004": 13.4335755988,
			"0.005": 13.9819027846,
			"0.006": 4.75041254733,
			"0.007": 2.80102245625,
			"0.008": 2.85945494269,
			"0.009": 3.39911047242,
			"0.01": 2.8799836151,
			"0.011": 2.85547085952,
			"0.012": 4.30754042047,
			"0.013": 3.58202347025,
			"0.014": 1.08581532374,
			"0.015": 0.0,
			"0.016": 0.0,
			"0.017": 0.0,
			"0.018": 0.0,
			"0.019": 0.0,
			"0.02": 0.0,
			"0.021": 0.0,
			"0.022": 0.0,
			"0.023": 0.0,
			"0.024": 0.0,
			"0.025": 0.0
		}
	}
}
