{
	 "smiles": "CC1=C(C=CC=C1)C1=NOC(N)=C1", 
	 "Tm": 373.15, 
	 "num_atms": 23, 
	 "gaussian": { 
		 "optdone": 1, 
		 "sigma_profile": "yes", 
		 "theory": "DFT", 
		 "functional": "B3LYP", 
		 "basiset": "6-31G**", 
		 "properties": { 
			 "R2extent": 2829.686, 
			 "electric_dipole_moment_norm": 3.81052391411, 
			 "electric_quadrupole_moment_norm": 18.0754131145, 
			 "total_energy": -571.774634145, 
			 "HOMO_LUMO_gap": 0.19421, 
			 "cosmo_polarized_energy": -14.34, 
			 "cosmo_cavitation_energy": 26.89, 
			 "cosmo_dispersion_energy": -19.96, 
			 "cosmo_repulsion_energy": 1.58, 
			 "cosmo_total_nonelectrostatic_energy": 8.51, 
			 "SMD_solvation_energy": 4.65 
		},
		"coords": [
			{
				"x": 1.9363601768,
				"y": 0.0411665633,
				"z": 1.9757385572,
				"element": "C" 
			},
			{
				"x": 1.3338228569,
				"y": -0.808523181,
				"z": 0.8787046582,
				"element": "C" 
			},
			{
				"x": 0.138756831,
				"y": -0.4662676027,
				"z": 0.2056374855,
				"element": "C" 
			},
			{
				"x": -0.338194584,
				"y": -1.2963486482,
				"z": -0.8237076238,
				"element": "C" 
			},
			{
				"x": 0.3382740758,
				"y": -2.4564254508,
				"z": -1.1874958612,
				"element": "C" 
			},
			{
				"x": 1.5123945848,
				"y": -2.8047171295,
				"z": -0.5197936299,
				"element": "C" 
			},
			{
				"x": 1.9970390489,
				"y": -1.9822207298,
				"z": 0.4954417043,
				"element": "C" 
			},
			{
				"x": -0.6438621635,
				"y": 0.7522686519,
				"z": 0.5179774115,
				"element": "C" 
			},
			{
				"x": -1.2435372209,
				"y": 1.3872366356,
				"z": -0.4749306721,
				"element": "N" 
			},
			{
				"x": -1.9487267246,
				"y": 2.4507011398,
				"z": 0.1387684332,
				"element": "O" 
			},
			{
				"x": -1.7421992557,
				"y": 2.4050190776,
				"z": 1.4645106552,
				"element": "C" 
			},
			{
				"x": -2.416257258,
				"y": 3.3392439192,
				"z": 2.2149391993,
				"element": "N" 
			},
			{
				"x": -0.9176314864,
				"y": 1.3580693352,
				"z": 1.7816604293,
				"element": "C" 
			},
			{
				"x": 2.9979614173,
				"y": -0.1913971186,
				"z": 2.0973102738,
				"element": "H" 
			},
			{
				"x": 1.4547278437,
				"y": -0.1430462023,
				"z": 2.9443484035,
				"element": "H" 
			},
			{
				"x": 1.8432007963,
				"y": 1.1100469408,
				"z": 1.7666913882,
				"element": "H" 
			},
			{
				"x": -1.2538810213,
				"y": -1.0117669492,
				"z": -1.3305035235,
				"element": "H" 
			},
			{
				"x": -0.0507618087,
				"y": -3.0842465406,
				"z": -1.9837059789,
				"element": "H" 
			},
			{
				"x": 2.0521248892,
				"y": -3.7081107323,
				"z": -0.7895814124,
				"element": "H" 
			},
			{
				"x": 2.9209668914,
				"y": -2.2476707892,
				"z": 1.0034192202,
				"element": "H" 
			},
			{
				"x": -2.7133557121,
				"y": 4.1549713262,
				"z": 1.6961061961,
				"element": "H" 
			},
			{
				"x": -1.9925934704,
				"y": 3.5624764808,
				"z": 3.1038154965,
				"element": "H" 
			},
			{
				"x": -0.5990287067,
				"y": 1.0440410039,
				"z": 2.7613491898,
				"element": "H" 
			}
		],
		 "valence_orbital": [ 
			{
				"type": "occ",
				"energy": -0.29638,
				"method": "rhf"
			},
			{
				"type": "occ",
				"energy": -0.29156,
				"method": "rhf"
			},
			{
				"type": "occ",
				"energy": -0.24054,
				"method": "rhf"
			},
			{
				"type": "occ",
				"energy": -0.23398,
				"method": "rhf"
			},
			{
				"type": "occ",
				"energy": -0.21561,
				"method": "rhf"
			},
			{
				"type": "unocc",
				"energy": -0.0214,
				"method": "rhf"
			},
			{
				"type": "unocc",
				"energy": 0.00413,
				"method": "rhf"
			},
			{
				"type": "unocc",
				"energy": 0.02908,
				"method": "rhf"
			},
			{
				"type": "unocc",
				"energy": 0.0642,
				"method": "rhf"
			},
			{
				"type": "unocc",
				"energy": 0.08762,
				"method": "rhf"
			}
		],
		"cosmo_sigma_profile": { 
			"-0.025": 0.0,
			"-0.024": 0.0,
			"-0.023": 0.0,
			"-0.022": 0.0,
			"-0.021": 0.0,
			"-0.02": 0.0,
			"-0.019": 0.0,
			"-0.018": 0.0,
			"-0.017": 0.0,
			"-0.016": 0.0,
			"-0.015": 0.358944337499,
			"-0.014": 2.89389537976,
			"-0.013": 2.32671403976,
			"-0.012": 2.86692069802,
			"-0.011": 2.9862806525,
			"-0.01": 2.61864744033,
			"-0.009": 1.69077542342,
			"-0.008": 2.50366787665,
			"-0.007": 3.58268307755,
			"-0.006": 7.37942033664,
			"-0.005": 12.0548296841,
			"-0.004": 15.7626833978,
			"-0.003": 14.0150954768,
			"-0.002": 13.499420861,
			"-0.001": 14.2643778856,
			"0.0": 16.2137308461,
			"0.001": 11.9463279177,
			"0.002": 14.7547068498,
			"0.003": 14.5234688481,
			"0.004": 13.7561844779,
			"0.005": 14.2700560683,
			"0.006": 6.82616744831,
			"0.007": 3.39042590473,
			"0.008": 5.3153563091,
			"0.009": 4.28060792657,
			"0.01": 2.75433130024,
			"0.011": 2.2870124413,
			"0.012": 1.50344137521,
			"0.013": 1.47165832103,
			"0.014": 1.35282543789,
			"0.015": 0.754715494133,
			"0.016": 0.0355912062187,
			"0.017": 0.0,
			"0.018": 0.0,
			"0.019": 0.0,
			"0.02": 0.0,
			"0.021": 0.0,
			"0.022": 0.0,
			"0.023": 0.0,
			"0.024": 0.0,
			"0.025": 0.0
		}
	}
}
