{
	 "smiles": "NC1=CC=C(C=C1)C1(OC(=O)C2=CC=CC=C12)C1=CC=C(N)C=C1", 
	 "Tm": 476.15, 
	 "num_atms": 40, 
	 "gaussian": { 
		 "optdone": 1, 
		 "sigma_profile": "yes", 
		 "theory": "DFT", 
		 "functional": "B3LYP", 
		 "basiset": "6-31G**", 
		 "properties": { 
			 "R2extent": 7811.5028, 
			 "electric_dipole_moment_norm": 5.08709223132, 
			 "electric_quadrupole_moment_norm": 36.3255488882, 
			 "total_energy": -1031.74322836, 
			 "HOMO_LUMO_gap": 0.15762, 
			 "cosmo_polarized_energy": -22.87, 
			 "cosmo_cavitation_energy": 43.87, 
			 "cosmo_dispersion_energy": -30.16, 
			 "cosmo_repulsion_energy": 2.31, 
			 "cosmo_total_nonelectrostatic_energy": 16.02, 
			 "SMD_solvation_energy": 8.05 
		},
		"coords": [
			{
				"x": 0.2908714218,
				"y": -5.3027052794,
				"z": 1.1807484721,
				"element": "N" 
			},
			{
				"x": 0.1626828555,
				"y": -4.0024556373,
				"z": 0.6949661982,
				"element": "C" 
			},
			{
				"x": 1.1421345538,
				"y": -3.451362774,
				"z": -0.1528549843,
				"element": "C" 
			},
			{
				"x": 1.0433877122,
				"y": -2.1369394836,
				"z": -0.5867128391,
				"element": "C" 
			},
			{
				"x": -0.0298514434,
				"y": -1.3175541555,
				"z": -0.2011188705,
				"element": "C" 
			},
			{
				"x": -1.0058849981,
				"y": -1.871487522,
				"z": 0.6336416326,
				"element": "C" 
			},
			{
				"x": -0.9127622377,
				"y": -3.1880248993,
				"z": 1.0814356349,
				"element": "C" 
			},
			{
				"x": -0.117590244,
				"y": 0.0964205983,
				"z": -0.773051707,
				"element": "C" 
			},
			{
				"x": -0.3946810278,
				"y": -0.0446122472,
				"z": -2.2121408584,
				"element": "O" 
			},
			{
				"x": -1.5925454728,
				"y": 0.5190118242,
				"z": -2.5676018891,
				"element": "C" 
			},
			{
				"x": -2.021471439,
				"y": 0.486555776,
				"z": -3.6958133672,
				"element": "O" 
			},
			{
				"x": -2.170002582,
				"y": 1.1376672007,
				"z": -1.3545889061,
				"element": "C" 
			},
			{
				"x": -3.3480225102,
				"y": 1.8707341849,
				"z": -1.2224522033,
				"element": "C" 
			},
			{
				"x": -3.6549599378,
				"y": 2.3820592481,
				"z": 0.037507781,
				"element": "C" 
			},
			{
				"x": -2.7903560471,
				"y": 2.1626328045,
				"z": 1.1213725474,
				"element": "C" 
			},
			{
				"x": -1.6096948843,
				"y": 1.4287045816,
				"z": 0.973640806,
				"element": "C" 
			},
			{
				"x": -1.3130555828,
				"y": 0.9088414492,
				"z": -0.2849735307,
				"element": "C" 
			},
			{
				"x": 1.1825049446,
				"y": 0.8883544917,
				"z": -0.6072152205,
				"element": "C" 
			},
			{
				"x": 1.6604596032,
				"y": 1.7317552163,
				"z": -1.6170104456,
				"element": "C" 
			},
			{
				"x": 2.8032083919,
				"y": 2.5033709557,
				"z": -1.4283259545,
				"element": "C" 
			},
			{
				"x": 3.5061966863,
				"y": 2.4649445526,
				"z": -0.2124878547,
				"element": "C" 
			},
			{
				"x": 4.6827607177,
				"y": 3.195150522,
				"z": -0.0409365959,
				"element": "N" 
			},
			{
				"x": 3.0272079743,
				"y": 1.6193841429,
				"z": 0.802733581,
				"element": "C" 
			},
			{
				"x": 1.8891307664,
				"y": 0.8445041977,
				"z": 0.6022254641,
				"element": "C" 
			},
			{
				"x": 0.8544798795,
				"y": -5.9214919806,
				"z": 0.6143320575,
				"element": "H" 
			},
			{
				"x": -0.5704878243,
				"y": -5.7400960539,
				"z": 1.4775583779,
				"element": "H" 
			},
			{
				"x": 1.9844740864,
				"y": -4.0630271852,
				"z": -0.4669547147,
				"element": "H" 
			},
			{
				"x": 1.8087745164,
				"y": -1.7354876657,
				"z": -1.2434613065,
				"element": "H" 
			},
			{
				"x": -1.8588136584,
				"y": -1.2768996259,
				"z": 0.9427361038,
				"element": "H" 
			},
			{
				"x": -1.6818652015,
				"y": -3.5896755362,
				"z": 1.7367725454,
				"element": "H" 
			},
			{
				"x": -3.9911287872,
				"y": 2.0320426992,
				"z": -2.0819569033,
				"element": "H" 
			},
			{
				"x": -4.5630062156,
				"y": 2.9590680073,
				"z": 0.1845394809,
				"element": "H" 
			},
			{
				"x": -3.041638308,
				"y": 2.5758516463,
				"z": 2.0942119878,
				"element": "H" 
			},
			{
				"x": -0.9434775377,
				"y": 1.2784555227,
				"z": 1.8173748784,
				"element": "H" 
			},
			{
				"x": 1.1424849174,
				"y": 1.7750496122,
				"z": -2.568399704,
				"element": "H" 
			},
			{
				"x": 3.1620937503,
				"y": 3.1388088939,
				"z": -2.2344978622,
				"element": "H" 
			},
			{
				"x": 4.7767046281,
				"y": 4.006523665,
				"z": -0.6360811012,
				"element": "H" 
			},
			{
				"x": 4.9283392245,
				"y": 3.3990042605,
				"z": 0.9179248471,
				"element": "H" 
			},
			{
				"x": 3.5614185584,
				"y": 1.5593897249,
				"z": 1.747963096,
				"element": "H" 
			},
			{
				"x": 1.5547807509,
				"y": 0.1844342674,
				"z": 1.3971513265,
				"element": "H" 
			}
		],
		 "valence_orbital": [ 
			{
				"type": "occ",
				"energy": -0.25799,
				"method": "rhf"
			},
			{
				"type": "occ",
				"energy": -0.24861,
				"method": "rhf"
			},
			{
				"type": "occ",
				"energy": -0.24425,
				"method": "rhf"
			},
			{
				"type": "occ",
				"energy": -0.20459,
				"method": "rhf"
			},
			{
				"type": "occ",
				"energy": -0.19883,
				"method": "rhf"
			},
			{
				"type": "unocc",
				"energy": -0.04121,
				"method": "rhf"
			},
			{
				"type": "unocc",
				"energy": -0.01755,
				"method": "rhf"
			},
			{
				"type": "unocc",
				"energy": -0.00413,
				"method": "rhf"
			},
			{
				"type": "unocc",
				"energy": 0.0082,
				"method": "rhf"
			},
			{
				"type": "unocc",
				"energy": 0.01083,
				"method": "rhf"
			}
		],
		"cosmo_sigma_profile": { 
			"-0.025": 0.0,
			"-0.024": 0.0,
			"-0.023": 0.0,
			"-0.022": 0.0,
			"-0.021": 0.0,
			"-0.02": 0.0,
			"-0.019": 0.0,
			"-0.018": 0.0,
			"-0.017": 0.0,
			"-0.016": 0.0,
			"-0.015": 0.0,
			"-0.014": 0.0,
			"-0.013": 0.771047459969,
			"-0.012": 5.52031765733,
			"-0.011": 4.81856926444,
			"-0.01": 6.39861316864,
			"-0.009": 6.97072653361,
			"-0.008": 5.51506161288,
			"-0.007": 10.3961721208,
			"-0.006": 17.5169501795,
			"-0.005": 24.3793523373,
			"-0.004": 23.5787024047,
			"-0.003": 21.6973407307,
			"-0.002": 20.5845380749,
			"-0.001": 19.3136650869,
			"0.0": 20.2396267238,
			"0.001": 19.6391802534,
			"0.002": 21.4399319972,
			"0.003": 24.9716785548,
			"0.004": 18.8378187954,
			"0.005": 18.8078721816,
			"0.006": 20.8094153666,
			"0.007": 5.67347623375,
			"0.008": 5.01996861557,
			"0.009": 4.35791111288,
			"0.01": 5.57270026567,
			"0.011": 5.81378452902,
			"0.012": 6.80987557124,
			"0.013": 3.27698220592,
			"0.014": 1.27063794646,
			"0.015": 0.140395658923,
			"0.016": 0.0,
			"0.017": 0.0,
			"0.018": 0.0,
			"0.019": 0.0,
			"0.02": 0.0,
			"0.021": 0.0,
			"0.022": 0.0,
			"0.023": 0.0,
			"0.024": 0.0,
			"0.025": 0.0
		}
	}
}
