{
	 "smiles": "CC(C)C1=CC2=C(C=C(N2)C(O)=O)C=C1", 
	 "Tm": 406.15, 
	 "num_atms": 28, 
	 "gaussian": { 
		 "optdone": 1, 
		 "sigma_profile": "yes", 
		 "theory": "DFT", 
		 "functional": "B3LYP", 
		 "basiset": "6-31G**", 
		 "properties": { 
			 "R2extent": 4681.0685, 
			 "electric_dipole_moment_norm": 5.16637951471, 
			 "electric_quadrupole_moment_norm": 27.2076743999, 
			 "total_energy": -670.33515108, 
			 "HOMO_LUMO_gap": 0.16808, 
			 "cosmo_polarized_energy": -17.71, 
			 "cosmo_cavitation_energy": 31.77, 
			 "cosmo_dispersion_energy": -22.78, 
			 "cosmo_repulsion_energy": 1.79, 
			 "cosmo_total_nonelectrostatic_energy": 10.78, 
			 "SMD_solvation_energy": 6.33 
		},
		"coords": [
			{
				"x": 2.011830459,
				"y": -0.1902742336,
				"z": 2.6321781208,
				"element": "C" 
			},
			{
				"x": 0.5074828013,
				"y": -0.5204851751,
				"z": 2.6671875848,
				"element": "C" 
			},
			{
				"x": 0.2756654819,
				"y": -2.0148457066,
				"z": 2.9608436747,
				"element": "C" 
			},
			{
				"x": -0.2037205486,
				"y": -0.0732486504,
				"z": 1.3952076076,
				"element": "C" 
			},
			{
				"x": 0.1344909186,
				"y": -0.6200490381,
				"z": 0.1565338616,
				"element": "C" 
			},
			{
				"x": -0.5476742002,
				"y": -0.1704205353,
				"z": -0.9768448007,
				"element": "C" 
			},
			{
				"x": -1.5816231986,
				"y": 0.8034043184,
				"z": -0.9095232196,
				"element": "C" 
			},
			{
				"x": -2.0804694264,
				"y": 0.9781210061,
				"z": -2.2407434183,
				"element": "C" 
			},
			{
				"x": -1.3574018317,
				"y": 0.1497308935,
				"z": -3.062525299,
				"element": "C" 
			},
			{
				"x": -0.3865606786,
				"y": -0.5241600441,
				"z": -2.3076652359,
				"element": "N" 
			},
			{
				"x": -1.4648248031,
				"y": 0.007464546,
				"z": -4.5251812047,
				"element": "C" 
			},
			{
				"x": -0.3533764572,
				"y": -0.499044483,
				"z": -5.145396807,
				"element": "O" 
			},
			{
				"x": -2.4481083238,
				"y": 0.2961446303,
				"z": -5.164131753,
				"element": "O" 
			},
			{
				"x": -1.9025327504,
				"y": 1.355935133,
				"z": 0.3429577801,
				"element": "C" 
			},
			{
				"x": -1.218268312,
				"y": 0.9138037329,
				"z": 1.4649858109,
				"element": "C" 
			},
			{
				"x": 2.5221786141,
				"y": -0.7429416982,
				"z": 1.8354666019,
				"element": "H" 
			},
			{
				"x": 2.4889278588,
				"y": -0.4605001965,
				"z": 3.580553321,
				"element": "H" 
			},
			{
				"x": 2.1796974453,
				"y": 0.8768878128,
				"z": 2.4574676133,
				"element": "H" 
			},
			{
				"x": 0.066668598,
				"y": 0.0483114094,
				"z": 3.4959150129,
				"element": "H" 
			},
			{
				"x": -0.7922036142,
				"y": -2.2466297936,
				"z": 3.0195040813,
				"element": "H" 
			},
			{
				"x": 0.7116687861,
				"y": -2.6464995497,
				"z": 2.1788194628,
				"element": "H" 
			},
			{
				"x": 0.7396157489,
				"y": -2.2981489113,
				"z": 3.9119097476,
				"element": "H" 
			},
			{
				"x": 0.9138747629,
				"y": -1.372581103,
				"z": 0.0722202294,
				"element": "H" 
			},
			{
				"x": -2.8531227247,
				"y": 1.6549120507,
				"z": -2.5757151718,
				"element": "H" 
			},
			{
				"x": -0.0019674731,
				"y": -1.415332438,
				"z": -2.5881591581,
				"element": "H" 
			},
			{
				"x": 0.4129596828,
				"y": -0.4086714453,
				"z": -4.5596815899,
				"element": "H" 
			},
			{
				"x": -2.6793091717,
				"y": 2.1099452888,
				"z": 0.4308488082,
				"element": "H" 
			},
			{
				"x": -1.4652976436,
				"y": 1.3327721798,
				"z": 2.4368683393,
				"element": "H" 
			}
		],
		 "valence_orbital": [ 
			{
				"type": "occ",
				"energy": -0.31719,
				"method": "rhf"
			},
			{
				"type": "occ",
				"energy": -0.28988,
				"method": "rhf"
			},
			{
				"type": "occ",
				"energy": -0.27476,
				"method": "rhf"
			},
			{
				"type": "occ",
				"energy": -0.23664,
				"method": "rhf"
			},
			{
				"type": "occ",
				"energy": -0.21991,
				"method": "rhf"
			},
			{
				"type": "unocc",
				"energy": -0.05183,
				"method": "rhf"
			},
			{
				"type": "unocc",
				"energy": 0.00382,
				"method": "rhf"
			},
			{
				"type": "unocc",
				"energy": 0.02135,
				"method": "rhf"
			},
			{
				"type": "unocc",
				"energy": 0.046,
				"method": "rhf"
			},
			{
				"type": "unocc",
				"energy": 0.08063,
				"method": "rhf"
			}
		],
		"cosmo_sigma_profile": { 
			"-0.025": 0.0,
			"-0.024": 0.0,
			"-0.023": 0.0,
			"-0.022": 0.0,
			"-0.021": 0.0,
			"-0.02": 0.0,
			"-0.019": 0.0,
			"-0.018": 0.8093699973,
			"-0.017": 2.08240573945,
			"-0.016": 2.21389192845,
			"-0.015": 1.49772727025,
			"-0.014": 2.86785914807,
			"-0.013": 2.10162859434,
			"-0.012": 1.85041754201,
			"-0.011": 1.49193522624,
			"-0.01": 2.08747513727,
			"-0.009": 1.36066716095,
			"-0.008": 1.38636822514,
			"-0.007": 4.11172959942,
			"-0.006": 5.81382654574,
			"-0.005": 9.64410162581,
			"-0.004": 12.0280904606,
			"-0.003": 18.7178589711,
			"-0.002": 21.4924750096,
			"-0.001": 22.0558488663,
			"0.0": 22.6157371596,
			"0.001": 24.3781423712,
			"0.002": 14.6248548617,
			"0.003": 14.1115228058,
			"0.004": 15.658628818,
			"0.005": 12.9948296553,
			"0.006": 6.33173340295,
			"0.007": 2.66015091569,
			"0.008": 3.00322198141,
			"0.009": 3.14014958207,
			"0.01": 4.52872700307,
			"0.011": 5.87725657075,
			"0.012": 5.6560117298,
			"0.013": 1.9303833653,
			"0.014": 0.0525797102637,
			"0.015": 0.0,
			"0.016": 0.0,
			"0.017": 0.0,
			"0.018": 0.0,
			"0.019": 0.0,
			"0.02": 0.0,
			"0.021": 0.0,
			"0.022": 0.0,
			"0.023": 0.0,
			"0.024": 0.0,
			"0.025": 0.0
		}
	}
}
