{
	 "smiles": "[O-][N+](=O)C1=C(Cl)C(C#N)=C(Cl)C=C1", 
	 "Tm": 380.65, 
	 "num_atms": 15, 
	 "gaussian": { 
		 "optdone": 1, 
		 "sigma_profile": "yes", 
		 "theory": "DFT", 
		 "functional": "B3LYP", 
		 "basiset": "6-31G**", 
		 "properties": { 
			 "R2extent": 3782.1926, 
			 "electric_dipole_moment_norm": 4.03592007602, 
			 "electric_quadrupole_moment_norm": 17.7731238267, 
			 "total_energy": -1448.1402662, 
			 "HOMO_LUMO_gap": 0.18003, 
			 "cosmo_polarized_energy": -12.21, 
			 "cosmo_cavitation_energy": 25.42, 
			 "cosmo_dispersion_energy": -18.27, 
			 "cosmo_repulsion_energy": 1.44, 
			 "cosmo_total_nonelectrostatic_energy": 8.59, 
			 "SMD_solvation_energy": 7.34 
		},
		"coords": [
			{
				"x": -2.0908055829,
				"y": -0.4389612878,
				"z": -2.2011999594,
				"element": "O" 
			},
			{
				"x": -0.9802490091,
				"y": 0.0152898328,
				"z": -2.4724560067,
				"element": "N" 
			},
			{
				"x": -0.5861684384,
				"y": 0.3137443111,
				"z": -3.5927343453,
				"element": "O" 
			},
			{
				"x": -0.0766995767,
				"y": 0.2526535823,
				"z": -1.3290766621,
				"element": "C" 
			},
			{
				"x": 1.3165982074,
				"y": 0.1381221436,
				"z": -1.4176209306,
				"element": "C" 
			},
			{
				"x": 2.1335394446,
				"y": -0.3824757594,
				"z": -2.8499246144,
				"element": "Cl" 
			},
			{
				"x": 2.0947712554,
				"y": 0.4069678537,
				"z": -0.2664877441,
				"element": "C" 
			},
			{
				"x": 3.519201925,
				"y": 0.2809212129,
				"z": -0.3148046736,
				"element": "C" 
			},
			{
				"x": 4.6769867087,
				"y": 0.1829420078,
				"z": -0.3404409843,
				"element": "N" 
			},
			{
				"x": 1.45484048,
				"y": 0.7955041327,
				"z": 0.9283793496,
				"element": "C" 
			},
			{
				"x": 2.3986314205,
				"y": 1.1470112422,
				"z": 2.34252129,
				"element": "Cl" 
			},
			{
				"x": 0.0666161514,
				"y": 0.8948090367,
				"z": 0.9979083456,
				"element": "C" 
			},
			{
				"x": -0.691275988,
				"y": 0.6098024708,
				"z": -0.1282928028,
				"element": "C" 
			},
			{
				"x": -0.4081508028,
				"y": 1.1882518774,
				"z": 1.9262181084,
				"element": "H" 
			},
			{
				"x": -1.7729361952,
				"y": 0.660017343,
				"z": -0.1014883704,
				"element": "H" 
			}
		],
		 "valence_orbital": [ 
			{
				"type": "occ",
				"energy": -0.33127,
				"method": "rhf"
			},
			{
				"type": "occ",
				"energy": -0.32853,
				"method": "rhf"
			},
			{
				"type": "occ",
				"energy": -0.31492,
				"method": "rhf"
			},
			{
				"type": "occ",
				"energy": -0.29699,
				"method": "rhf"
			},
			{
				"type": "occ",
				"energy": -0.29392,
				"method": "rhf"
			},
			{
				"type": "unocc",
				"energy": -0.11389,
				"method": "rhf"
			},
			{
				"type": "unocc",
				"energy": -0.09197,
				"method": "rhf"
			},
			{
				"type": "unocc",
				"energy": -0.04886,
				"method": "rhf"
			},
			{
				"type": "unocc",
				"energy": -0.02587,
				"method": "rhf"
			},
			{
				"type": "unocc",
				"energy": 0.00453,
				"method": "rhf"
			}
		],
		"cosmo_sigma_profile": { 
			"-0.025": 0.0,
			"-0.024": 0.0,
			"-0.023": 0.0,
			"-0.022": 0.0,
			"-0.021": 0.0,
			"-0.02": 0.0,
			"-0.019": 0.0,
			"-0.018": 0.0,
			"-0.017": 0.0,
			"-0.016": 0.0,
			"-0.015": 0.0,
			"-0.014": 0.0,
			"-0.013": 0.0,
			"-0.012": 0.0,
			"-0.011": 0.352307347957,
			"-0.01": 4.30244541973,
			"-0.009": 5.01193081428,
			"-0.008": 5.62556148371,
			"-0.007": 4.58889134904,
			"-0.006": 5.18846591165,
			"-0.005": 17.4068856036,
			"-0.004": 17.6681801747,
			"-0.003": 16.8049760676,
			"-0.002": 15.0411433603,
			"-0.001": 12.5216143967,
			"0.0": 10.7412588779,
			"0.001": 16.4316684425,
			"0.002": 16.7056255615,
			"0.003": 8.60024250208,
			"0.004": 5.92668698818,
			"0.005": 7.06854666345,
			"0.006": 11.4693131492,
			"0.007": 12.2620349453,
			"0.008": 7.4093933803,
			"0.009": 4.50804128281,
			"0.01": 2.65883883218,
			"0.011": 2.29747044163,
			"0.012": 0.690444490664,
			"0.013": 0.0,
			"0.014": 0.0,
			"0.015": 0.0,
			"0.016": 0.0,
			"0.017": 0.0,
			"0.018": 0.0,
			"0.019": 0.0,
			"0.02": 0.0,
			"0.021": 0.0,
			"0.022": 0.0,
			"0.023": 0.0,
			"0.024": 0.0,
			"0.025": 0.0
		}
	}
}
