{
	 "smiles": "CC(=O)C1=CC=CO1", 
	 "Tm": 304.15, 
	 "num_atms": 14, 
	 "gaussian": { 
		 "optdone": 1, 
		 "sigma_profile": "yes", 
		 "theory": "DFT", 
		 "functional": "B3LYP", 
		 "basiset": "6-31G**", 
		 "properties": { 
			 "R2extent": 1768.4907, 
			 "electric_dipole_moment_norm": 3.19380766484, 
			 "electric_quadrupole_moment_norm": 10.6719999827, 
			 "total_energy": -382.675671704, 
			 "HOMO_LUMO_gap": 0.18968, 
			 "cosmo_polarized_energy": -7.98, 
			 "cosmo_cavitation_energy": 18.63, 
			 "cosmo_dispersion_energy": -13.66, 
			 "cosmo_repulsion_energy": 1.14, 
			 "cosmo_total_nonelectrostatic_energy": 6.11, 
			 "SMD_solvation_energy": 5.14 
		},
		"coords": [
			{
				"x": 0.6715855104,
				"y": -0.2501897059,
				"z": 2.9382799216,
				"element": "C" 
			},
			{
				"x": -0.4191437641,
				"y": -1.1731075935,
				"z": 2.4306749957,
				"element": "C" 
			},
			{
				"x": -1.4152585341,
				"y": -1.4403470588,
				"z": 3.0889067129,
				"element": "O" 
			},
			{
				"x": -0.2507309077,
				"y": -1.7563117821,
				"z": 1.0925488371,
				"element": "C" 
			},
			{
				"x": -1.0453729162,
				"y": -2.6093205417,
				"z": 0.3697226292,
				"element": "C" 
			},
			{
				"x": -0.3775879405,
				"y": -2.8376845727,
				"z": -0.8673693322,
				"element": "C" 
			},
			{
				"x": 0.7775204461,
				"y": -2.108357189,
				"z": -0.8129980828,
				"element": "C" 
			},
			{
				"x": 0.8738464908,
				"y": -1.4460643954,
				"z": 0.3652348634,
				"element": "O" 
			},
			{
				"x": 0.4026772003,
				"y": 0.0974995551,
				"z": 3.9360791741,
				"element": "H" 
			},
			{
				"x": 1.6343597144,
				"y": -0.7714525332,
				"z": 2.9711577436,
				"element": "H" 
			},
			{
				"x": 0.797682151,
				"y": 0.6053023487,
				"z": 2.2659873919,
				"element": "H" 
			},
			{
				"x": -1.9899134504,
				"y": -3.011567437,
				"z": 0.7042989802,
				"element": "H" 
			},
			{
				"x": -0.7057880857,
				"y": -3.4579584039,
				"z": -1.6888387656,
				"element": "H" 
			},
			{
				"x": 1.5950240857,
				"y": -1.9657406906,
				"z": -1.5034850691,
				"element": "H" 
			}
		],
		 "valence_orbital": [ 
			{
				"type": "occ",
				"energy": -0.38287,
				"method": "rhf"
			},
			{
				"type": "occ",
				"energy": -0.35647,
				"method": "rhf"
			},
			{
				"type": "occ",
				"energy": -0.29253,
				"method": "rhf"
			},
			{
				"type": "occ",
				"energy": -0.24938,
				"method": "rhf"
			},
			{
				"type": "occ",
				"energy": -0.2413,
				"method": "rhf"
			},
			{
				"type": "unocc",
				"energy": -0.05162,
				"method": "rhf"
			},
			{
				"type": "unocc",
				"energy": 0.03386,
				"method": "rhf"
			},
			{
				"type": "unocc",
				"energy": 0.09005,
				"method": "rhf"
			},
			{
				"type": "unocc",
				"energy": 0.10877,
				"method": "rhf"
			},
			{
				"type": "unocc",
				"energy": 0.1213,
				"method": "rhf"
			}
		],
		"cosmo_sigma_profile": { 
			"-0.025": 0.0,
			"-0.024": 0.0,
			"-0.023": 0.0,
			"-0.022": 0.0,
			"-0.021": 0.0,
			"-0.02": 0.0,
			"-0.019": 0.0,
			"-0.018": 0.0,
			"-0.017": 0.0,
			"-0.016": 0.0,
			"-0.015": 0.0,
			"-0.014": 0.0,
			"-0.013": 0.0,
			"-0.012": 0.0,
			"-0.011": 0.0,
			"-0.01": 1.00062655008,
			"-0.009": 2.10073782123,
			"-0.008": 3.70527617802,
			"-0.007": 5.21253197637,
			"-0.006": 7.35705287628,
			"-0.005": 11.0288563429,
			"-0.004": 10.4258479512,
			"-0.003": 11.5997088729,
			"-0.002": 10.0637293834,
			"-0.001": 13.7323960354,
			"0.0": 10.6488183996,
			"0.001": 11.2276951662,
			"0.002": 11.5119776012,
			"0.003": 10.9765608702,
			"0.004": 5.35965561445,
			"0.005": 2.73658449089,
			"0.006": 3.17507218449,
			"0.007": 1.87641799655,
			"0.008": 1.50714466792,
			"0.009": 1.46863400443,
			"0.01": 2.63257150303,
			"0.011": 2.1202696323,
			"0.012": 5.01001924673,
			"0.013": 2.40512141723,
			"0.014": 0.339542278962,
			"0.015": 0.0,
			"0.016": 0.0,
			"0.017": 0.0,
			"0.018": 0.0,
			"0.019": 0.0,
			"0.02": 0.0,
			"0.021": 0.0,
			"0.022": 0.0,
			"0.023": 0.0,
			"0.024": 0.0,
			"0.025": 0.0
		}
	}
}
