{
	 "smiles": "CC1=C(Br)N=C(Br)N=C1", 
	 "Tm": 332.15, 
	 "num_atms": 13, 
	 "gaussian": { 
		 "optdone": 1, 
		 "sigma_profile": "yes", 
		 "theory": "DFT", 
		 "functional": "B3LYP", 
		 "basiset": "6-31G**", 
		 "properties": { 
			 "R2extent": 5485.5477, 
			 "electric_dipole_moment_norm": 3.70007911942, 
			 "electric_quadrupole_moment_norm": 10.1760062136, 
			 "total_energy": -5445.24721608, 
			 "HOMO_LUMO_gap": 0.20482, 
			 "cosmo_polarized_energy": -7.65, 
			 "cosmo_cavitation_energy": 22.21, 
			 "cosmo_dispersion_energy": -17.43, 
			 "cosmo_repulsion_energy": 1.43, 
			 "cosmo_total_nonelectrostatic_energy": 6.21, 
			 "SMD_solvation_energy": -1.22 
		},
		"coords": [
			{
				"x": 2.86391037,
				"y": -2.8619272916,
				"z": 0.6066244526,
				"element": "C" 
			},
			{
				"x": 2.4394314053,
				"y": -1.4424005749,
				"z": 0.369176428,
				"element": "C" 
			},
			{
				"x": 2.6334755169,
				"y": -0.3917947013,
				"z": 1.2797074065,
				"element": "C" 
			},
			{
				"x": 3.4932606898,
				"y": -0.7362521647,
				"z": 2.9542939272,
				"element": "Br" 
			},
			{
				"x": 2.2570042561,
				"y": 0.8560576977,
				"z": 1.0639902535,
				"element": "N" 
			},
			{
				"x": 1.6607523335,
				"y": 1.0871254006,
				"z": -0.1015371449,
				"element": "C" 
			},
			{
				"x": 1.1143577874,
				"y": 2.8870103898,
				"z": -0.418651499,
				"element": "Br" 
			},
			{
				"x": 1.4043614144,
				"y": 0.2127098402,
				"z": -1.0620104773,
				"element": "N" 
			},
			{
				"x": 1.7998801934,
				"y": -1.0410007937,
				"z": -0.8083145958,
				"element": "C" 
			},
			{
				"x": 2.6022726128,
				"y": -3.4897619436,
				"z": -0.2488695333,
				"element": "H" 
			},
			{
				"x": 3.9446735222,
				"y": -2.9290093334,
				"z": 0.7679686609,
				"element": "H" 
			},
			{
				"x": 2.3819090094,
				"y": -3.2739619568,
				"z": 1.4990854151,
				"element": "H" 
			},
			{
				"x": 1.5968108889,
				"y": -1.7733945682,
				"z": -1.5880632934,
				"element": "H" 
			}
		],
		 "valence_orbital": [ 
			{
				"type": "occ",
				"energy": -0.30591,
				"method": "rhf"
			},
			{
				"type": "occ",
				"energy": -0.29682,
				"method": "rhf"
			},
			{
				"type": "occ",
				"energy": -0.29666,
				"method": "rhf"
			},
			{
				"type": "occ",
				"energy": -0.27377,
				"method": "rhf"
			},
			{
				"type": "occ",
				"energy": -0.26869,
				"method": "rhf"
			},
			{
				"type": "unocc",
				"energy": -0.06387,
				"method": "rhf"
			},
			{
				"type": "unocc",
				"energy": -0.04918,
				"method": "rhf"
			},
			{
				"type": "unocc",
				"energy": -0.01534,
				"method": "rhf"
			},
			{
				"type": "unocc",
				"energy": 0.01611,
				"method": "rhf"
			},
			{
				"type": "unocc",
				"energy": 0.09538,
				"method": "rhf"
			}
		],
		"cosmo_sigma_profile": { 
			"-0.025": 0.0,
			"-0.024": 0.0,
			"-0.023": 0.0,
			"-0.022": 0.0,
			"-0.021": 0.0,
			"-0.02": 0.0,
			"-0.019": 0.0,
			"-0.018": 0.0,
			"-0.017": 0.0,
			"-0.016": 0.0,
			"-0.015": 0.0,
			"-0.014": 0.0,
			"-0.013": 0.0,
			"-0.012": 0.0,
			"-0.011": 0.0,
			"-0.01": 0.00368429227677,
			"-0.009": 2.19448316638,
			"-0.008": 3.1718793823,
			"-0.007": 2.71810967307,
			"-0.006": 5.34694647284,
			"-0.005": 12.3268972482,
			"-0.004": 15.9816059039,
			"-0.003": 18.0828733781,
			"-0.002": 20.4719644852,
			"-0.001": 12.7073486199,
			"0.0": 10.294192609,
			"0.001": 12.5639275488,
			"0.002": 13.5496449342,
			"0.003": 18.9739847877,
			"0.004": 13.5819904146,
			"0.005": 6.05809609366,
			"0.006": 3.64591757333,
			"0.007": 3.29271857216,
			"0.008": 2.6032101153,
			"0.009": 2.15366163175,
			"0.01": 2.23604538309,
			"0.011": 1.70266078441,
			"0.012": 0.986414235967,
			"0.013": 0.676017991282,
			"0.014": 0.0353421806602,
			"0.015": 0.0,
			"0.016": 0.0,
			"0.017": 0.0,
			"0.018": 0.0,
			"0.019": 0.0,
			"0.02": 0.0,
			"0.021": 0.0,
			"0.022": 0.0,
			"0.023": 0.0,
			"0.024": 0.0,
			"0.025": 0.0
		}
	}
}
