{
	 "smiles": "CS(=O)(=O)C1=CC(OC2=CC=C(N)C=C2)=CC=C1", 
	 "Tm": 377.15, 
	 "num_atms": 31, 
	 "gaussian": { 
		 "optdone": 1, 
		 "sigma_profile": "yes", 
		 "theory": "DFT", 
		 "functional": "B3LYP", 
		 "basiset": "6-31G**", 
		 "properties": { 
			 "R2extent": 7640.6039, 
			 "electric_dipole_moment_norm": 7.80640095627, 
			 "electric_quadrupole_moment_norm": 25.6335109109, 
			 "total_energy": -1181.75749909, 
			 "HOMO_LUMO_gap": 0.17527, 
			 "cosmo_polarized_energy": -20.94, 
			 "cosmo_cavitation_energy": 37.16, 
			 "cosmo_dispersion_energy": -26.93, 
			 "cosmo_repulsion_energy": 2.05, 
			 "cosmo_total_nonelectrostatic_energy": 12.27, 
			 "SMD_solvation_energy": 6.18 
		},
		"coords": [
			{
				"x": -4.2053665896,
				"y": -2.448997959,
				"z": 1.6051659476,
				"element": "C" 
			},
			{
				"x": -2.8139091038,
				"y": -2.0700805682,
				"z": 2.6985475488,
				"element": "S" 
			},
			{
				"x": -3.3665714148,
				"y": -1.4672321317,
				"z": 3.9217988772,
				"element": "O" 
			},
			{
				"x": -1.9630506669,
				"y": -3.2687450665,
				"z": 2.758485224,
				"element": "O" 
			},
			{
				"x": -1.9182759878,
				"y": -0.7877115265,
				"z": 1.8032287465,
				"element": "C" 
			},
			{
				"x": -0.9255789647,
				"y": -1.1702902198,
				"z": 0.9064724933,
				"element": "C" 
			},
			{
				"x": -0.238035393,
				"y": -0.1767924435,
				"z": 0.1989582652,
				"element": "C" 
			},
			{
				"x": 0.7174146789,
				"y": -0.6250566618,
				"z": -0.6758010892,
				"element": "O" 
			},
			{
				"x": 1.5412324051,
				"y": 0.2915113491,
				"z": -1.3283634871,
				"element": "C" 
			},
			{
				"x": 1.2572036413,
				"y": 0.654593366,
				"z": -2.643410615,
				"element": "C" 
			},
			{
				"x": 2.1186263096,
				"y": 1.5066845568,
				"z": -3.330395115,
				"element": "C" 
			},
			{
				"x": 3.2770022606,
				"y": 2.0099448812,
				"z": -2.7120723416,
				"element": "C" 
			},
			{
				"x": 4.1708371579,
				"y": 2.815351697,
				"z": -3.4184864489,
				"element": "N" 
			},
			{
				"x": 3.5465537439,
				"y": 1.6302713434,
				"z": -1.3844644717,
				"element": "C" 
			},
			{
				"x": 2.6874568598,
				"y": 0.7761122624,
				"z": -0.6987148883,
				"element": "C" 
			},
			{
				"x": -0.5493133625,
				"y": 1.1731717264,
				"z": 0.4005412503,
				"element": "C" 
			},
			{
				"x": -1.5434974684,
				"y": 1.525309529,
				"z": 1.3162082505,
				"element": "C" 
			},
			{
				"x": -2.2411310042,
				"y": 0.5524823362,
				"z": 2.0304920678,
				"element": "C" 
			},
			{
				"x": -4.7854962815,
				"y": -3.2257692721,
				"z": 2.1076542649,
				"element": "H" 
			},
			{
				"x": -4.8092877651,
				"y": -1.5509717323,
				"z": 1.4686277471,
				"element": "H" 
			},
			{
				"x": -3.8226909108,
				"y": -2.8161559358,
				"z": 0.6519992078,
				"element": "H" 
			},
			{
				"x": -0.6642460382,
				"y": -2.2133121358,
				"z": 0.7677674701,
				"element": "H" 
			},
			{
				"x": 0.3673433225,
				"y": 0.2610870597,
				"z": -3.1243164601,
				"element": "H" 
			},
			{
				"x": 1.8982609302,
				"y": 1.7795243777,
				"z": -4.3592284721,
				"element": "H" 
			},
			{
				"x": 3.7760839411,
				"y": 3.3185045155,
				"z": -4.2007768375,
				"element": "H" 
			},
			{
				"x": 4.7657529468,
				"y": 3.4032906405,
				"z": -2.8515816972,
				"element": "H" 
			},
			{
				"x": 4.4432261037,
				"y": 1.9991182653,
				"z": -0.8931117575,
				"element": "H" 
			},
			{
				"x": 2.9043431434,
				"y": 0.4769547633,
				"z": 0.3218604554,
				"element": "H" 
			},
			{
				"x": -0.0130347295,
				"y": 1.9379858012,
				"z": -0.1486875263,
				"element": "H" 
			},
			{
				"x": -1.7691501112,
				"y": 2.5757839213,
				"z": 1.4746873214,
				"element": "H" 
			},
			{
				"x": -2.9972016529,
				"y": 0.8138332611,
				"z": 2.7619160695,
				"element": "H" 
			}
		],
		 "valence_orbital": [ 
			{
				"type": "occ",
				"energy": -0.28237,
				"method": "rhf"
			},
			{
				"type": "occ",
				"energy": -0.27091,
				"method": "rhf"
			},
			{
				"type": "occ",
				"energy": -0.26184,
				"method": "rhf"
			},
			{
				"type": "occ",
				"energy": -0.23714,
				"method": "rhf"
			},
			{
				"type": "occ",
				"energy": -0.21045,
				"method": "rhf"
			},
			{
				"type": "unocc",
				"energy": -0.03518,
				"method": "rhf"
			},
			{
				"type": "unocc",
				"energy": -0.01473,
				"method": "rhf"
			},
			{
				"type": "unocc",
				"energy": -0.00494,
				"method": "rhf"
			},
			{
				"type": "unocc",
				"energy": 0.00674,
				"method": "rhf"
			},
			{
				"type": "unocc",
				"energy": 0.06698,
				"method": "rhf"
			}
		],
		"cosmo_sigma_profile": { 
			"-0.025": 0.0,
			"-0.024": 0.0,
			"-0.023": 0.0,
			"-0.022": 0.0,
			"-0.021": 0.0,
			"-0.02": 0.0,
			"-0.019": 0.0,
			"-0.018": 0.0,
			"-0.017": 0.0,
			"-0.016": 0.0,
			"-0.015": 0.0,
			"-0.014": 0.0,
			"-0.013": 0.489599015901,
			"-0.012": 2.64556090978,
			"-0.011": 2.85413309497,
			"-0.01": 2.72341697348,
			"-0.009": 5.01655084245,
			"-0.008": 9.07108832615,
			"-0.007": 13.6196137486,
			"-0.006": 21.1677732885,
			"-0.005": 20.405647617,
			"-0.004": 20.9462067219,
			"-0.003": 17.5385663111,
			"-0.002": 14.3483199477,
			"-0.001": 13.9466533071,
			"0.0": 15.5184963314,
			"0.001": 19.6283245874,
			"0.002": 20.436378649,
			"0.003": 18.3619587535,
			"0.004": 15.0985125136,
			"0.005": 13.3488031651,
			"0.006": 7.46458138798,
			"0.007": 4.80325248769,
			"0.008": 4.66950614135,
			"0.009": 5.52160814448,
			"0.01": 5.24980644557,
			"0.011": 9.5619190401,
			"0.012": 9.49117039367,
			"0.013": 1.78293099196,
			"0.014": 0.737217254862,
			"0.015": 0.0642193067059,
			"0.016": 0.0,
			"0.017": 0.0,
			"0.018": 0.0,
			"0.019": 0.0,
			"0.02": 0.0,
			"0.021": 0.0,
			"0.022": 0.0,
			"0.023": 0.0,
			"0.024": 0.0,
			"0.025": 0.0
		}
	}
}
