{
	 "smiles": "CC1=C(CCC1)C(O)=O", 
	 "Tm": 404.15, 
	 "num_atms": 19, 
	 "gaussian": { 
		 "optdone": 1, 
		 "sigma_profile": "yes", 
		 "theory": "DFT", 
		 "functional": "B3LYP", 
		 "basiset": "6-31G**", 
		 "properties": { 
			 "R2extent": 1562.0696, 
			 "electric_dipole_moment_norm": 4.94939080494, 
			 "electric_quadrupole_moment_norm": 15.8449547529, 
			 "total_energy": -423.222187185, 
			 "HOMO_LUMO_gap": 0.21744, 
			 "cosmo_polarized_energy": -12.47, 
			 "cosmo_cavitation_energy": 21.61, 
			 "cosmo_dispersion_energy": -16.08, 
			 "cosmo_repulsion_energy": 1.35, 
			 "cosmo_total_nonelectrostatic_energy": 6.87, 
			 "SMD_solvation_energy": 4.46 
		},
		"coords": [
			{
				"x": 2.1456499937,
				"y": 0.367473189,
				"z": 0.3760410926,
				"element": "C" 
			},
			{
				"x": 0.8431444058,
				"y": -0.0702278801,
				"z": -0.2288184387,
				"element": "C" 
			},
			{
				"x": 0.0907982025,
				"y": 0.5218398253,
				"z": -1.1821804368,
				"element": "C" 
			},
			{
				"x": -1.0701148928,
				"y": -0.3550835502,
				"z": -1.6131947277,
				"element": "C" 
			},
			{
				"x": -1.1570096486,
				"y": -1.3988519148,
				"z": -0.4770236568,
				"element": "C" 
			},
			{
				"x": 0.256761321,
				"y": -1.4178563161,
				"z": 0.1465908231,
				"element": "C" 
			},
			{
				"x": 0.3577879311,
				"y": 1.7798991413,
				"z": -1.9261664801,
				"element": "C" 
			},
			{
				"x": 0.9649047243,
				"y": 2.7958181578,
				"z": -1.2428835859,
				"element": "O" 
			},
			{
				"x": 0.052010309,
				"y": 1.9347140782,
				"z": -3.0860678902,
				"element": "O" 
			},
			{
				"x": 2.8803666866,
				"y": -0.4437194024,
				"z": 0.304122698,
				"element": "H" 
			},
			{
				"x": 2.0313450017,
				"y": 0.5801602101,
				"z": 1.4474890966,
				"element": "H" 
			},
			{
				"x": 2.5754462886,
				"y": 1.2448991292,
				"z": -0.111988281,
				"element": "H" 
			},
			{
				"x": -0.8428446002,
				"y": -0.8133399013,
				"z": -2.5846094713,
				"element": "H" 
			},
			{
				"x": -1.9975082679,
				"y": 0.2100831335,
				"z": -1.7505103161,
				"element": "H" 
			},
			{
				"x": -1.4823770936,
				"y": -2.3830652536,
				"z": -0.8242384306,
				"element": "H" 
			},
			{
				"x": -1.880392587,
				"y": -1.0623595647,
				"z": 0.2734763757,
				"element": "H" 
			},
			{
				"x": 0.8838576151,
				"y": -2.2157444826,
				"z": -0.2798691458,
				"element": "H" 
			},
			{
				"x": 0.2503685638,
				"y": -1.5833635739,
				"z": 1.2313016984,
				"element": "H" 
			},
			{
				"x": 0.9869060468,
				"y": 2.5755249751,
				"z": -0.3015709231,
				"element": "H" 
			}
		],
		 "valence_orbital": [ 
			{
				"type": "occ",
				"energy": -0.3479,
				"method": "rhf"
			},
			{
				"type": "occ",
				"energy": -0.34425,
				"method": "rhf"
			},
			{
				"type": "occ",
				"energy": -0.30847,
				"method": "rhf"
			},
			{
				"type": "occ",
				"energy": -0.26759,
				"method": "rhf"
			},
			{
				"type": "occ",
				"energy": -0.25061,
				"method": "rhf"
			},
			{
				"type": "unocc",
				"energy": -0.03317,
				"method": "rhf"
			},
			{
				"type": "unocc",
				"energy": 0.06063,
				"method": "rhf"
			},
			{
				"type": "unocc",
				"energy": 0.06981,
				"method": "rhf"
			},
			{
				"type": "unocc",
				"energy": 0.08979,
				"method": "rhf"
			},
			{
				"type": "unocc",
				"energy": 0.11221,
				"method": "rhf"
			}
		],
		"cosmo_sigma_profile": { 
			"-0.025": 0.0,
			"-0.024": 0.0,
			"-0.023": 0.0,
			"-0.022": 0.0,
			"-0.021": 0.0,
			"-0.02": 0.0,
			"-0.019": 0.0,
			"-0.018": 0.0,
			"-0.017": 0.470167953231,
			"-0.016": 0.717453105912,
			"-0.015": 0.464190445959,
			"-0.014": 1.13158401336,
			"-0.013": 1.07071468243,
			"-0.012": 0.537974861212,
			"-0.011": 1.08721567752,
			"-0.01": 0.856870339637,
			"-0.009": 0.73668945187,
			"-0.008": 1.00826739884,
			"-0.007": 1.56247025464,
			"-0.006": 1.57060188004,
			"-0.005": 5.37556991557,
			"-0.004": 14.7183324338,
			"-0.003": 23.7085503995,
			"-0.002": 24.9814265658,
			"-0.001": 23.606290919,
			"0.0": 15.7528184237,
			"0.001": 9.37787759135,
			"0.002": 4.11909090397,
			"0.003": 2.33054412965,
			"0.004": 2.32732442602,
			"0.005": 1.87663905829,
			"0.006": 2.51102904519,
			"0.007": 2.73590402752,
			"0.008": 1.93074257988,
			"0.009": 3.28075060959,
			"0.01": 3.84218720787,
			"0.011": 5.31098164659,
			"0.012": 6.03056762279,
			"0.013": 3.66261732836,
			"0.014": 0.576385932877,
			"0.015": 0.0,
			"0.016": 0.0,
			"0.017": 0.0,
			"0.018": 0.0,
			"0.019": 0.0,
			"0.02": 0.0,
			"0.021": 0.0,
			"0.022": 0.0,
			"0.023": 0.0,
			"0.024": 0.0,
			"0.025": 0.0
		}
	}
}
