{
	 "smiles": "ClC1=C(CBr)C=C(Br)C=C1", 
	 "Tm": 345.15, 
	 "num_atms": 15, 
	 "gaussian": { 
		 "optdone": 1, 
		 "sigma_profile": "yes", 
		 "theory": "DFT", 
		 "functional": "B3LYP", 
		 "basiset": "6-31G**", 
		 "properties": { 
			 "R2extent": 5310.2091, 
			 "electric_dipole_moment_norm": 1.9682706445, 
			 "electric_quadrupole_moment_norm": 5.9172825748, 
			 "total_energy": -5872.76250482, 
			 "HOMO_LUMO_gap": 0.19435, 
			 "cosmo_polarized_energy": -6.53, 
			 "cosmo_cavitation_energy": 25.6, 
			 "cosmo_dispersion_energy": -19.45, 
			 "cosmo_repulsion_energy": 1.58, 
			 "cosmo_total_nonelectrostatic_energy": 7.74, 
			 "SMD_solvation_energy": 1.72 
		},
		"coords": [
			{
				"x": 1.1208545991,
				"y": -1.5480860121,
				"z": -0.2011352024,
				"element": "Cl" 
			},
			{
				"x": 0.9964395188,
				"y": 0.1337638913,
				"z": 0.2847927774,
				"element": "C" 
			},
			{
				"x": -0.1656304934,
				"y": 0.6112442227,
				"z": 0.9131478801,
				"element": "C" 
			},
			{
				"x": -1.339922049,
				"y": -0.2605208241,
				"z": 1.2175385214,
				"element": "C" 
			},
			{
				"x": -2.6236067394,
				"y": -0.3476588037,
				"z": -0.3128564392,
				"element": "Br" 
			},
			{
				"x": -0.2039798347,
				"y": 1.9659868518,
				"z": 1.2759771043,
				"element": "C" 
			},
			{
				"x": 0.8771371115,
				"y": 2.8019322157,
				"z": 1.0201974368,
				"element": "C" 
			},
			{
				"x": 0.7880714767,
				"y": 4.6371311703,
				"z": 1.5331754748,
				"element": "Br" 
			},
			{
				"x": 2.0256128331,
				"y": 2.3159914677,
				"z": 0.3973850592,
				"element": "C" 
			},
			{
				"x": 2.0805321242,
				"y": 0.9731932163,
				"z": 0.0303236556,
				"element": "C" 
			},
			{
				"x": -1.9278004713,
				"y": 0.1289822884,
				"z": 2.0457598663,
				"element": "H" 
			},
			{
				"x": -1.0622182862,
				"y": -1.2950062314,
				"z": 1.4020107931,
				"element": "H" 
			},
			{
				"x": -1.091848783,
				"y": 2.3616091337,
				"z": 1.7570776154,
				"element": "H" 
			},
			{
				"x": 2.8655555485,
				"y": 2.9722767561,
				"z": 0.2018172944,
				"element": "H" 
			},
			{
				"x": 2.9651034451,
				"y": 0.5749606571,
				"z": -0.4538118374,
				"element": "H" 
			}
		],
		 "valence_orbital": [ 
			{
				"type": "occ",
				"energy": -0.29925,
				"method": "rhf"
			},
			{
				"type": "occ",
				"energy": -0.28575,
				"method": "rhf"
			},
			{
				"type": "occ",
				"energy": -0.2761,
				"method": "rhf"
			},
			{
				"type": "occ",
				"energy": -0.27151,
				"method": "rhf"
			},
			{
				"type": "occ",
				"energy": -0.25023,
				"method": "rhf"
			},
			{
				"type": "unocc",
				"energy": -0.05588,
				"method": "rhf"
			},
			{
				"type": "unocc",
				"energy": -0.03382,
				"method": "rhf"
			},
			{
				"type": "unocc",
				"energy": -0.00747,
				"method": "rhf"
			},
			{
				"type": "unocc",
				"energy": 0.01398,
				"method": "rhf"
			},
			{
				"type": "unocc",
				"energy": 0.02201,
				"method": "rhf"
			}
		],
		"cosmo_sigma_profile": { 
			"-0.025": 0.0,
			"-0.024": 0.0,
			"-0.023": 0.0,
			"-0.022": 0.0,
			"-0.021": 0.0,
			"-0.02": 0.0,
			"-0.019": 0.0,
			"-0.018": 0.0,
			"-0.017": 0.0,
			"-0.016": 0.0,
			"-0.015": 0.0,
			"-0.014": 0.0,
			"-0.013": 0.0,
			"-0.012": 0.0,
			"-0.011": 0.0,
			"-0.01": 0.180134605206,
			"-0.009": 2.9009646325,
			"-0.008": 7.69752430339,
			"-0.007": 8.2686035047,
			"-0.006": 8.33020427389,
			"-0.005": 9.74637662811,
			"-0.004": 9.72120704217,
			"-0.003": 9.10595191774,
			"-0.002": 12.1233477815,
			"-0.001": 12.6669080016,
			"0.0": 18.2457265456,
			"0.001": 27.285691167,
			"0.002": 24.8520990909,
			"0.003": 17.2566954418,
			"0.004": 23.2685259241,
			"0.005": 11.5976840959,
			"0.006": 10.4459458379,
			"0.007": 0.60609357391,
			"0.008": 0.0,
			"0.009": 0.0,
			"0.01": 0.0,
			"0.011": 0.0,
			"0.012": 0.0,
			"0.013": 0.0,
			"0.014": 0.0,
			"0.015": 0.0,
			"0.016": 0.0,
			"0.017": 0.0,
			"0.018": 0.0,
			"0.019": 0.0,
			"0.02": 0.0,
			"0.021": 0.0,
			"0.022": 0.0,
			"0.023": 0.0,
			"0.024": 0.0,
			"0.025": 0.0
		}
	}
}
