{
	 "smiles": "CC1CC1C1=NN(C(N)=C1)C1=CC=CC=C1", 
	 "Tm": 366.15, 
	 "num_atms": 31, 
	 "gaussian": { 
		 "optdone": 1, 
		 "sigma_profile": "yes", 
		 "theory": "DFT", 
		 "functional": "B3LYP", 
		 "basiset": "6-31G**", 
		 "properties": { 
			 "R2extent": 4873.3325, 
			 "electric_dipole_moment_norm": 2.80485310311, 
			 "electric_quadrupole_moment_norm": 8.51372040885, 
			 "total_energy": -668.635104373, 
			 "HOMO_LUMO_gap": 0.18804, 
			 "cosmo_polarized_energy": -12.86, 
			 "cosmo_cavitation_energy": 33.69, 
			 "cosmo_dispersion_energy": -24.53, 
			 "cosmo_repulsion_energy": 1.94, 
			 "cosmo_total_nonelectrostatic_energy": 11.1, 
			 "SMD_solvation_energy": 4.53 
		},
		"coords": [
			{
				"x": -2.7346026595,
				"y": 1.9876600093,
				"z": -1.1904761474,
				"element": "C" 
			},
			{
				"x": -1.5807015235,
				"y": 1.875839557,
				"z": -2.1628382945,
				"element": "C" 
			},
			{
				"x": -1.4529233569,
				"y": 0.7143613488,
				"z": -3.1114641649,
				"element": "C" 
			},
			{
				"x": -0.449544692,
				"y": 0.8636935322,
				"z": -1.9869188151,
				"element": "C" 
			},
			{
				"x": -0.3845903569,
				"y": -0.0963297225,
				"z": -0.8598248481,
				"element": "C" 
			},
			{
				"x": 0.6682337001,
				"y": -0.0599852277,
				"z": -0.0493934402,
				"element": "N" 
			},
			{
				"x": 0.4365907231,
				"y": -1.0413722896,
				"z": 0.887951077,
				"element": "N" 
			},
			{
				"x": -0.7389192697,
				"y": -1.7050338862,
				"z": 0.6374301347,
				"element": "C" 
			},
			{
				"x": -1.2117457411,
				"y": -2.7455688309,
				"z": 1.437444517,
				"element": "N" 
			},
			{
				"x": -1.300444706,
				"y": -1.1147129319,
				"z": -0.4794392568,
				"element": "C" 
			},
			{
				"x": 1.4148715211,
				"y": -1.2929544349,
				"z": 1.8820935181,
				"element": "C" 
			},
			{
				"x": 2.7652780449,
				"y": -1.0803867506,
				"z": 1.5716643531,
				"element": "C" 
			},
			{
				"x": 3.7399795247,
				"y": -1.3129424451,
				"z": 2.5381219007,
				"element": "C" 
			},
			{
				"x": 3.3861325182,
				"y": -1.7653541504,
				"z": 3.8125239849,
				"element": "C" 
			},
			{
				"x": 2.0403837028,
				"y": -1.9653015336,
				"z": 4.1192996984,
				"element": "C" 
			},
			{
				"x": 1.0497715203,
				"y": -1.7214793511,
				"z": 3.1660591033,
				"element": "C" 
			},
			{
				"x": -2.4723836669,
				"y": 2.6299265794,
				"z": -0.3423367663,
				"element": "H" 
			},
			{
				"x": -3.6144570841,
				"y": 2.4208334832,
				"z": -1.6803600994,
				"element": "H" 
			},
			{
				"x": -3.0203397205,
				"y": 1.0133335015,
				"z": -0.785011496,
				"element": "H" 
			},
			{
				"x": -1.245392144,
				"y": 2.8341883086,
				"z": -2.556208366,
				"element": "H" 
			},
			{
				"x": -2.1833204487,
				"y": -0.0860474555,
				"z": -3.0236464845,
				"element": "H" 
			},
			{
				"x": -1.1150052384,
				"y": 0.8900524151,
				"z": -4.1287021501,
				"element": "H" 
			},
			{
				"x": 0.5350130661,
				"y": 1.2325139228,
				"z": -2.2606681133,
				"element": "H" 
			},
			{
				"x": -1.930872163,
				"y": -3.2803996342,
				"z": 0.966768077,
				"element": "H" 
			},
			{
				"x": -0.4814449305,
				"y": -3.3598701606,
				"z": 1.7812645105,
				"element": "H" 
			},
			{
				"x": -2.2208672093,
				"y": -1.4064942127,
				"z": -0.9626285694,
				"element": "H" 
			},
			{
				"x": 3.021627363,
				"y": -0.7242718373,
				"z": 0.5813992483,
				"element": "H" 
			},
			{
				"x": 4.7844485169,
				"y": -1.1452319954,
				"z": 2.2912353403,
				"element": "H" 
			},
			{
				"x": 4.1516090996,
				"y": -1.951198544,
				"z": 4.5598711905,
				"element": "H" 
			},
			{
				"x": 1.7505071409,
				"y": -2.2962278131,
				"z": 5.1125226284,
				"element": "H" 
			},
			{
				"x": 0.0027084694,
				"y": -1.8357394507,
				"z": 3.4224677298,
				"element": "H" 
			}
		],
		 "valence_orbital": [ 
			{
				"type": "occ",
				"energy": -0.27313,
				"method": "rhf"
			},
			{
				"type": "occ",
				"energy": -0.25927,
				"method": "rhf"
			},
			{
				"type": "occ",
				"energy": -0.25233,
				"method": "rhf"
			},
			{
				"type": "occ",
				"energy": -0.21318,
				"method": "rhf"
			},
			{
				"type": "occ",
				"energy": -0.19956,
				"method": "rhf"
			},
			{
				"type": "unocc",
				"energy": -0.01152,
				"method": "rhf"
			},
			{
				"type": "unocc",
				"energy": -0.00451,
				"method": "rhf"
			},
			{
				"type": "unocc",
				"energy": 0.04835,
				"method": "rhf"
			},
			{
				"type": "unocc",
				"energy": 0.0729,
				"method": "rhf"
			},
			{
				"type": "unocc",
				"energy": 0.08575,
				"method": "rhf"
			}
		],
		"cosmo_sigma_profile": { 
			"-0.025": 0.0,
			"-0.024": 0.0,
			"-0.023": 0.0,
			"-0.022": 0.0,
			"-0.021": 0.0,
			"-0.02": 0.0,
			"-0.019": 0.0,
			"-0.018": 0.0,
			"-0.017": 0.0,
			"-0.016": 0.0,
			"-0.015": 0.0,
			"-0.014": 0.103197078874,
			"-0.013": 1.58128497567,
			"-0.012": 2.5768428453,
			"-0.011": 2.66833187032,
			"-0.01": 2.33643142583,
			"-0.009": 2.6165687844,
			"-0.008": 2.74489785457,
			"-0.007": 2.45301054679,
			"-0.006": 10.1118949063,
			"-0.005": 14.3162061816,
			"-0.004": 20.8150781894,
			"-0.003": 23.2525612362,
			"-0.002": 18.7144898854,
			"-0.001": 19.7656915428,
			"0.0": 22.2034802517,
			"0.001": 22.1279354516,
			"0.002": 17.827613191,
			"0.003": 15.1795578064,
			"0.004": 18.4976945474,
			"0.005": 20.8973710055,
			"0.006": 8.56549180661,
			"0.007": 3.84842601163,
			"0.008": 3.01717943234,
			"0.009": 2.51114942955,
			"0.01": 1.43123668337,
			"0.011": 2.34923050596,
			"0.012": 1.63897607686,
			"0.013": 0.924877498859,
			"0.014": 0.931384822386,
			"0.015": 0.533311882346,
			"0.016": 0.629791658912,
			"0.017": 0.0075222720609,
			"0.018": 0.0,
			"0.019": 0.0,
			"0.02": 0.0,
			"0.021": 0.0,
			"0.022": 0.0,
			"0.023": 0.0,
			"0.024": 0.0,
			"0.025": 0.0
		}
	}
}
