{
	 "smiles": "COC1=CC=CC=C1C1=CC=C(O1)C=CC(=O)C1=CC=CO1", 
	 "Tm": 370.15, 
	 "num_atms": 36, 
	 "gaussian": { 
		 "optdone": 1, 
		 "sigma_profile": "yes", 
		 "theory": "DFT", 
		 "functional": "B3LYP", 
		 "basiset": "6-31G**", 
		 "properties": { 
			 "R2extent": 9848.3072, 
			 "electric_dipole_moment_norm": 4.14104351704, 
			 "electric_quadrupole_moment_norm": 24.2491961615, 
			 "total_energy": -995.172138868, 
			 "HOMO_LUMO_gap": 0.12598, 
			 "cosmo_polarized_energy": -15.08, 
			 "cosmo_cavitation_energy": 42.29, 
			 "cosmo_dispersion_energy": -29.26, 
			 "cosmo_repulsion_energy": 2.21, 
			 "cosmo_total_nonelectrostatic_energy": 15.24, 
			 "SMD_solvation_energy": 9.69 
		},
		"coords": [
			{
				"x": 0.857990093,
				"y": -1.0445611745,
				"z": -2.8163903249,
				"element": "C" 
			},
			{
				"x": -0.3161449604,
				"y": -1.6926766242,
				"z": -2.3275199556,
				"element": "O" 
			},
			{
				"x": -0.1644595895,
				"y": -3.0247670817,
				"z": -2.0206636296,
				"element": "C" 
			},
			{
				"x": -0.6301236634,
				"y": -3.9602429832,
				"z": -2.9474646509,
				"element": "C" 
			},
			{
				"x": -0.5335403732,
				"y": -5.3270403084,
				"z": -2.6950202926,
				"element": "C" 
			},
			{
				"x": 0.0398319576,
				"y": -5.7680547762,
				"z": -1.5000966524,
				"element": "C" 
			},
			{
				"x": 0.4936446401,
				"y": -4.8415971161,
				"z": -0.5679761914,
				"element": "C" 
			},
			{
				"x": 0.4070279494,
				"y": -3.4538783402,
				"z": -0.7992345407,
				"element": "C" 
			},
			{
				"x": 0.9082723402,
				"y": -2.5464813103,
				"z": 0.2290637555,
				"element": "C" 
			},
			{
				"x": 1.8303502189,
				"y": -2.7369351934,
				"z": 1.2398693671,
				"element": "C" 
			},
			{
				"x": 1.9106068737,
				"y": -1.5216574993,
				"z": 1.9597387053,
				"element": "C" 
			},
			{
				"x": 1.0365973789,
				"y": -0.641682811,
				"z": 1.355620327,
				"element": "C" 
			},
			{
				"x": 0.4284362878,
				"y": -1.2738361039,
				"z": 0.2977025473,
				"element": "O" 
			},
			{
				"x": 0.6432388285,
				"y": 0.7201924879,
				"z": 1.5804653145,
				"element": "C" 
			},
			{
				"x": 1.1346177495,
				"y": 1.5093947149,
				"z": 2.5652202303,
				"element": "C" 
			},
			{
				"x": 0.7973671007,
				"y": 2.9091294907,
				"z": 2.8722728843,
				"element": "C" 
			},
			{
				"x": 1.370520259,
				"y": 3.4768102338,
				"z": 3.8067121048,
				"element": "O" 
			},
			{
				"x": -0.203542589,
				"y": 3.6903279017,
				"z": 2.1180524915,
				"element": "C" 
			},
			{
				"x": -0.5902274765,
				"y": 4.9915870881,
				"z": 2.3139321842,
				"element": "C" 
			},
			{
				"x": -1.5836100101,
				"y": 5.2787398729,
				"z": 1.3338010399,
				"element": "C" 
			},
			{
				"x": -1.7371546761,
				"y": 4.1341548482,
				"z": 0.6056442473,
				"element": "C" 
			},
			{
				"x": -0.9101054464,
				"y": 3.1601148759,
				"z": 1.0645282655,
				"element": "O" 
			},
			{
				"x": 1.214477952,
				"y": -1.5194048404,
				"z": -3.739920053,
				"element": "H" 
			},
			{
				"x": 1.665202424,
				"y": -1.0501215531,
				"z": -2.0748036865,
				"element": "H" 
			},
			{
				"x": 0.5748453328,
				"y": -0.011419008,
				"z": -3.0264846062,
				"element": "H" 
			},
			{
				"x": -1.0717985642,
				"y": -3.5852560868,
				"z": -3.8652988097,
				"element": "H" 
			},
			{
				"x": -0.9044867902,
				"y": -6.0412510871,
				"z": -3.4240459134,
				"element": "H" 
			},
			{
				"x": 0.1154083948,
				"y": -6.8296350785,
				"z": -1.2857378568,
				"element": "H" 
			},
			{
				"x": 0.901172441,
				"y": -5.1888785575,
				"z": 0.3763002497,
				"element": "H" 
			},
			{
				"x": 2.395961558,
				"y": -3.6383179134,
				"z": 1.42497751,
				"element": "H" 
			},
			{
				"x": 2.5371074739,
				"y": -1.3102058789,
				"z": 2.814234097,
				"element": "H" 
			},
			{
				"x": -0.1018056748,
				"y": 1.0994099063,
				"z": 0.8905150308,
				"element": "H" 
			},
			{
				"x": 1.8838398705,
				"y": 1.1238017269,
				"z": 3.2528297505,
				"element": "H" 
			},
			{
				"x": -0.1943877289,
				"y": 5.6435923825,
				"z": 3.0775485452,
				"element": "H" 
			},
			{
				"x": -2.1149301771,
				"y": 6.2079017561,
				"z": 1.1871361048,
				"element": "H" 
			},
			{
				"x": -2.3643994043,
				"y": 3.8634440402,
				"z": -0.2300075893,
				"element": "H" 
			}
		],
		 "valence_orbital": [ 
			{
				"type": "occ",
				"energy": -0.2658,
				"method": "rhf"
			},
			{
				"type": "occ",
				"energy": -0.248,
				"method": "rhf"
			},
			{
				"type": "occ",
				"energy": -0.24464,
				"method": "rhf"
			},
			{
				"type": "occ",
				"energy": -0.23426,
				"method": "rhf"
			},
			{
				"type": "occ",
				"energy": -0.20338,
				"method": "rhf"
			},
			{
				"type": "unocc",
				"energy": -0.0774,
				"method": "rhf"
			},
			{
				"type": "unocc",
				"energy": -0.0323,
				"method": "rhf"
			},
			{
				"type": "unocc",
				"energy": -0.00829,
				"method": "rhf"
			},
			{
				"type": "unocc",
				"energy": -0.00354,
				"method": "rhf"
			},
			{
				"type": "unocc",
				"energy": 0.04593,
				"method": "rhf"
			}
		],
		"cosmo_sigma_profile": { 
			"-0.025": 0.0,
			"-0.024": 0.0,
			"-0.023": 0.0,
			"-0.022": 0.0,
			"-0.021": 0.0,
			"-0.02": 0.0,
			"-0.019": 0.0,
			"-0.018": 0.0,
			"-0.017": 0.0,
			"-0.016": 0.0,
			"-0.015": 0.0,
			"-0.014": 0.0,
			"-0.013": 0.0,
			"-0.012": 0.0,
			"-0.011": 0.0,
			"-0.01": 0.904869531412,
			"-0.009": 2.05386358639,
			"-0.008": 7.02985180305,
			"-0.007": 12.6246582955,
			"-0.006": 15.6821128006,
			"-0.005": 20.8476433653,
			"-0.004": 25.4194204018,
			"-0.003": 26.2792921017,
			"-0.002": 24.2150036431,
			"-0.001": 23.1245695793,
			"0.0": 26.0222561635,
			"0.001": 33.2841209218,
			"0.002": 33.5610031956,
			"0.003": 31.0276802635,
			"0.004": 19.8283468267,
			"0.005": 7.57248625941,
			"0.006": 3.57928474722,
			"0.007": 3.48444202095,
			"0.008": 2.6112111637,
			"0.009": 3.26357904492,
			"0.01": 2.75740693713,
			"0.011": 3.60534479004,
			"0.012": 4.95127389437,
			"0.013": 5.24307039636,
			"0.014": 1.45461000772,
			"0.015": 0.051101679983,
			"0.016": 0.0,
			"0.017": 0.0,
			"0.018": 0.0,
			"0.019": 0.0,
			"0.02": 0.0,
			"0.021": 0.0,
			"0.022": 0.0,
			"0.023": 0.0,
			"0.024": 0.0,
			"0.025": 0.0
		}
	}
}
