{
	 "smiles": "COC1=CC(C[N+]([O-])=O)=CC=C1OCC1=CC=CC=C1", 
	 "Tm": 426.15, 
	 "num_atms": 35, 
	 "gaussian": { 
		 "optdone": 1, 
		 "sigma_profile": "yes", 
		 "theory": "DFT", 
		 "functional": "B3LYP", 
		 "basiset": "6-31G**", 
		 "properties": { 
			 "R2extent": 6885.2562, 
			 "electric_dipole_moment_norm": 3.76622672844, 
			 "electric_quadrupole_moment_norm": 19.6681740014, 
			 "total_energy": -936.154973511, 
			 "HOMO_LUMO_gap": 0.17358, 
			 "cosmo_polarized_energy": -13.39, 
			 "cosmo_cavitation_energy": 40.37, 
			 "cosmo_dispersion_energy": -26.65, 
			 "cosmo_repulsion_energy": 2.1, 
			 "cosmo_total_nonelectrostatic_energy": 15.82, 
			 "SMD_solvation_energy": 9.56 
		},
		"coords": [
			{
				"x": -0.8604259978,
				"y": 3.4074244658,
				"z": 1.4807239525,
				"element": "C" 
			},
			{
				"x": -1.0463060314,
				"y": 2.7206809545,
				"z": 0.236194606,
				"element": "O" 
			},
			{
				"x": -1.4834101968,
				"y": 1.4207593145,
				"z": 0.3540690473,
				"element": "C" 
			},
			{
				"x": -2.7780573713,
				"y": 1.1070148013,
				"z": -0.0529178109,
				"element": "C" 
			},
			{
				"x": -3.2542097676,
				"y": -0.2077588845,
				"z": 0.029410448,
				"element": "C" 
			},
			{
				"x": -4.6492398093,
				"y": -0.5399355494,
				"z": -0.4305384244,
				"element": "C" 
			},
			{
				"x": -4.6932339003,
				"y": -0.6691765974,
				"z": -1.9472860681,
				"element": "N" 
			},
			{
				"x": -4.686951047,
				"y": -1.8017928766,
				"z": -2.4156172722,
				"element": "O" 
			},
			{
				"x": -4.7088929477,
				"y": 0.3763149408,
				"z": -2.5888621482,
				"element": "O" 
			},
			{
				"x": -2.4158074539,
				"y": -1.2099068918,
				"z": 0.5287234814,
				"element": "C" 
			},
			{
				"x": -1.1149608242,
				"y": -0.9040086574,
				"z": 0.9266149694,
				"element": "C" 
			},
			{
				"x": -0.6341653629,
				"y": 0.4027434225,
				"z": 0.8362785583,
				"element": "C" 
			},
			{
				"x": 0.6387788509,
				"y": 0.6830601192,
				"z": 1.2717844979,
				"element": "O" 
			},
			{
				"x": 1.5868201928,
				"y": 1.0723239576,
				"z": 0.2424018942,
				"element": "C" 
			},
			{
				"x": 2.0203051645,
				"y": -0.0940297293,
				"z": -0.6123643808,
				"element": "C" 
			},
			{
				"x": 1.6767494388,
				"y": -0.1573429542,
				"z": -1.9669675784,
				"element": "C" 
			},
			{
				"x": 2.074431824,
				"y": -1.2423789193,
				"z": -2.7519230832,
				"element": "C" 
			},
			{
				"x": 2.8153067843,
				"y": -2.2790083864,
				"z": -2.1844423723,
				"element": "C" 
			},
			{
				"x": 3.1587846329,
				"y": -2.2278480177,
				"z": -0.8299973132,
				"element": "C" 
			},
			{
				"x": 2.7642748984,
				"y": -1.1419260152,
				"z": -0.0509142608,
				"element": "C" 
			},
			{
				"x": -1.8116149357,
				"y": 3.4926990192,
				"z": 2.0209370983,
				"element": "H" 
			},
			{
				"x": -0.1266281463,
				"y": 2.8969357755,
				"z": 2.1119527257,
				"element": "H" 
			},
			{
				"x": -0.4993763658,
				"y": 4.4060147573,
				"z": 1.2272037249,
				"element": "H" 
			},
			{
				"x": -3.4036537189,
				"y": 1.9040602891,
				"z": -0.441632154,
				"element": "H" 
			},
			{
				"x": -5.3622122806,
				"y": 0.251562181,
				"z": -0.19464686,
				"element": "H" 
			},
			{
				"x": -4.9939690985,
				"y": -1.4982231011,
				"z": -0.0449493648,
				"element": "H" 
			},
			{
				"x": -2.7733917862,
				"y": -2.2333442731,
				"z": 0.5948884533,
				"element": "H" 
			},
			{
				"x": -0.4471536314,
				"y": -1.6712312564,
				"z": 1.3030186902,
				"element": "H" 
			},
			{
				"x": 1.1590154703,
				"y": 1.8728457836,
				"z": -0.3680188951,
				"element": "H" 
			},
			{
				"x": 2.4310897304,
				"y": 1.4772754499,
				"z": 0.8075804788,
				"element": "H" 
			},
			{
				"x": 1.0946282877,
				"y": 0.6468934451,
				"z": -2.4097853155,
				"element": "H" 
			},
			{
				"x": 1.8014655721,
				"y": -1.2783235597,
				"z": -3.8026070314,
				"element": "H" 
			},
			{
				"x": 3.1250917336,
				"y": -3.1239294585,
				"z": -2.7928284268,
				"element": "H" 
			},
			{
				"x": 3.7373514004,
				"y": -3.0325118586,
				"z": -0.38493319,
				"element": "H" 
			},
			{
				"x": 3.0298666926,
				"y": -1.1022316906,
				"z": 1.0025493239,
				"element": "H" 
			}
		],
		 "valence_orbital": [ 
			{
				"type": "occ",
				"energy": -0.27343,
				"method": "rhf"
			},
			{
				"type": "occ",
				"energy": -0.25378,
				"method": "rhf"
			},
			{
				"type": "occ",
				"energy": -0.25285,
				"method": "rhf"
			},
			{
				"type": "occ",
				"energy": -0.2505,
				"method": "rhf"
			},
			{
				"type": "occ",
				"energy": -0.23652,
				"method": "rhf"
			},
			{
				"type": "unocc",
				"energy": -0.06294,
				"method": "rhf"
			},
			{
				"type": "unocc",
				"energy": -0.0179,
				"method": "rhf"
			},
			{
				"type": "unocc",
				"energy": -0.0113,
				"method": "rhf"
			},
			{
				"type": "unocc",
				"energy": -0.00956,
				"method": "rhf"
			},
			{
				"type": "unocc",
				"energy": -0.00216,
				"method": "rhf"
			}
		],
		"cosmo_sigma_profile": { 
			"-0.025": 0.0,
			"-0.024": 0.0,
			"-0.023": 0.0,
			"-0.022": 0.0,
			"-0.021": 0.0,
			"-0.02": 0.0,
			"-0.019": 0.0,
			"-0.018": 0.0,
			"-0.017": 0.0,
			"-0.016": 0.0,
			"-0.015": 0.0,
			"-0.014": 0.0,
			"-0.013": 0.0,
			"-0.012": 0.0,
			"-0.011": 0.0,
			"-0.01": 0.0,
			"-0.009": 1.97567871038,
			"-0.008": 6.89335615274,
			"-0.007": 6.83711929778,
			"-0.006": 18.4220566019,
			"-0.005": 26.533429609,
			"-0.004": 27.2721712999,
			"-0.003": 28.9425615824,
			"-0.002": 24.6423366092,
			"-0.001": 19.8920834902,
			"0.0": 19.2710098971,
			"0.001": 18.1457670248,
			"0.002": 21.435727883,
			"0.003": 21.4346373031,
			"0.004": 18.7822007357,
			"0.005": 16.8116454548,
			"0.006": 10.863845538,
			"0.007": 8.73295677412,
			"0.008": 11.0016482833,
			"0.009": 7.22235337091,
			"0.01": 3.99790914177,
			"0.011": 1.55138025423,
			"0.012": 0.596966424738,
			"0.013": 0.0,
			"0.014": 0.0,
			"0.015": 0.0,
			"0.016": 0.0,
			"0.017": 0.0,
			"0.018": 0.0,
			"0.019": 0.0,
			"0.02": 0.0,
			"0.021": 0.0,
			"0.022": 0.0,
			"0.023": 0.0,
			"0.024": 0.0,
			"0.025": 0.0
		}
	}
}
