{
	 "smiles": "CC1=CC=CC(C)=C1NC(=O)C1=CN=C(C(Cl)=N1)C(C)(C)C", 
	 "Tm": 419.15, 
	 "num_atms": 42, 
	 "gaussian": { 
		 "optdone": 1, 
		 "sigma_profile": "yes", 
		 "theory": "DFT", 
		 "functional": "B3LYP", 
		 "basiset": "6-31G**", 
		 "properties": { 
			 "R2extent": 10796.4626, 
			 "electric_dipole_moment_norm": 2.30393675477, 
			 "electric_quadrupole_moment_norm": 11.6945964458, 
			 "total_energy": -1359.56986547, 
			 "HOMO_LUMO_gap": 0.15265, 
			 "cosmo_polarized_energy": -10.71, 
			 "cosmo_cavitation_energy": 45.55, 
			 "cosmo_dispersion_energy": -31.59, 
			 "cosmo_repulsion_energy": 2.4, 
			 "cosmo_total_nonelectrostatic_energy": 16.36, 
			 "SMD_solvation_energy": 6.67 
		},
		"coords": [
			{
				"x": 1.9689831137,
				"y": -0.9063394573,
				"z": 4.6189100349,
				"element": "C" 
			},
			{
				"x": 0.7211071896,
				"y": -0.1635593548,
				"z": 5.0221167412,
				"element": "C" 
			},
			{
				"x": 0.5340279698,
				"y": 0.2257042392,
				"z": 6.354715766,
				"element": "C" 
			},
			{
				"x": -0.6298194393,
				"y": 0.8684894513,
				"z": 6.7670142142,
				"element": "C" 
			},
			{
				"x": -1.639165079,
				"y": 1.1334478937,
				"z": 5.843192212,
				"element": "C" 
			},
			{
				"x": -1.4909895244,
				"y": 0.7781474498,
				"z": 4.4999122116,
				"element": "C" 
			},
			{
				"x": -2.5830886049,
				"y": 1.0797362216,
				"z": 3.50079709,
				"element": "C" 
			},
			{
				"x": -0.2992743619,
				"y": 0.1392984728,
				"z": 4.099605953,
				"element": "C" 
			},
			{
				"x": -0.1800022355,
				"y": -0.2417627011,
				"z": 2.7306907071,
				"element": "N" 
			},
			{
				"x": 0.7946237837,
				"y": 0.1623509523,
				"z": 1.8647738688,
				"element": "C" 
			},
			{
				"x": 1.7721177348,
				"y": 0.8469111321,
				"z": 2.1470885041,
				"element": "O" 
			},
			{
				"x": 0.5814931068,
				"y": -0.319563978,
				"z": 0.4510832672,
				"element": "C" 
			},
			{
				"x": 1.5107195624,
				"y": -0.0348170698,
				"z": -0.5448834081,
				"element": "C" 
			},
			{
				"x": 1.3277506706,
				"y": -0.4519000416,
				"z": -1.7992712008,
				"element": "N" 
			},
			{
				"x": 0.2347332406,
				"y": -1.1549378024,
				"z": -2.1293325054,
				"element": "C" 
			},
			{
				"x": -0.6969896645,
				"y": -1.4211154261,
				"z": -1.0871285615,
				"element": "C" 
			},
			{
				"x": -2.195732944,
				"y": -2.3213662024,
				"z": -1.3351580321,
				"element": "Cl" 
			},
			{
				"x": -0.5237617506,
				"y": -1.0174593585,
				"z": 0.1554033418,
				"element": "N" 
			},
			{
				"x": 0.1155978982,
				"y": -1.5921759153,
				"z": -3.6005500502,
				"element": "C" 
			},
			{
				"x": 1.3458604366,
				"y": -1.1006337591,
				"z": -4.3904090239,
				"element": "C" 
			},
			{
				"x": 0.072221215,
				"y": -3.1370325268,
				"z": -3.7034892978,
				"element": "C" 
			},
			{
				"x": -1.1448586946,
				"y": -0.9680166354,
				"z": -4.2493032093,
				"element": "C" 
			},
			{
				"x": 2.5027301223,
				"y": -1.2695343739,
				"z": 5.5010059315,
				"element": "H" 
			},
			{
				"x": 1.7287982259,
				"y": -1.7675474348,
				"z": 3.9856394859,
				"element": "H" 
			},
			{
				"x": 2.6371063188,
				"y": -0.2621043625,
				"z": 4.0396447097,
				"element": "H" 
			},
			{
				"x": 1.314137959,
				"y": 0.0026192249,
				"z": 7.0776142721,
				"element": "H" 
			},
			{
				"x": -0.7542467413,
				"y": 1.1555916793,
				"z": 7.8071467684,
				"element": "H" 
			},
			{
				"x": -2.5516733087,
				"y": 1.630958637,
				"z": 6.1606219995,
				"element": "H" 
			},
			{
				"x": -3.0568219943,
				"y": 0.1664540364,
				"z": 3.1165277592,
				"element": "H" 
			},
			{
				"x": -3.370806041,
				"y": 1.6820777426,
				"z": 3.9598618487,
				"element": "H" 
			},
			{
				"x": -2.1972484606,
				"y": 1.6271347075,
				"z": 2.6340219545,
				"element": "H" 
			},
			{
				"x": -0.9648681712,
				"y": -0.7087713664,
				"z": 2.2894774074,
				"element": "H" 
			},
			{
				"x": 2.4059116774,
				"y": 0.5347478837,
				"z": -0.3167848736,
				"element": "H" 
			},
			{
				"x": 2.275365877,
				"y": -1.5117250198,
				"z": -3.9897094117,
				"element": "H" 
			},
			{
				"x": 1.4333658442,
				"y": -0.0119368277,
				"z": -4.3680614097,
				"element": "H" 
			},
			{
				"x": 1.2456262766,
				"y": -1.4200080987,
				"z": -5.4327956893,
				"element": "H" 
			},
			{
				"x": 0.0403703261,
				"y": -3.4262022079,
				"z": -4.7591213354,
				"element": "H" 
			},
			{
				"x": 0.9714615952,
				"y": -3.5807907894,
				"z": -3.263513792,
				"element": "H" 
			},
			{
				"x": -0.7999878251,
				"y": -3.5700839917,
				"z": -3.2122721799,
				"element": "H" 
			},
			{
				"x": -2.0717762316,
				"y": -1.3034061157,
				"z": -3.7824394157,
				"element": "H" 
			},
			{
				"x": -1.1814828013,
				"y": -1.2490929484,
				"z": -5.3069761018,
				"element": "H" 
			},
			{
				"x": -1.1078162704,
				"y": 0.1251140416,
				"z": -4.1961665507,
				"element": "H" 
			}
		],
		 "valence_orbital": [ 
			{
				"type": "occ",
				"energy": -0.28119,
				"method": "rhf"
			},
			{
				"type": "occ",
				"energy": -0.27141,
				"method": "rhf"
			},
			{
				"type": "occ",
				"energy": -0.25545,
				"method": "rhf"
			},
			{
				"type": "occ",
				"energy": -0.23644,
				"method": "rhf"
			},
			{
				"type": "occ",
				"energy": -0.22889,
				"method": "rhf"
			},
			{
				"type": "unocc",
				"energy": -0.07624,
				"method": "rhf"
			},
			{
				"type": "unocc",
				"energy": -0.05459,
				"method": "rhf"
			},
			{
				"type": "unocc",
				"energy": -0.00195,
				"method": "rhf"
			},
			{
				"type": "unocc",
				"energy": 0.00516,
				"method": "rhf"
			},
			{
				"type": "unocc",
				"energy": 0.01772,
				"method": "rhf"
			}
		],
		"cosmo_sigma_profile": { 
			"-0.025": 0.0,
			"-0.024": 0.0,
			"-0.023": 0.0,
			"-0.022": 0.0,
			"-0.021": 0.0,
			"-0.02": 0.0,
			"-0.019": 0.0,
			"-0.018": 0.0,
			"-0.017": 0.0,
			"-0.016": 0.0,
			"-0.015": 0.0,
			"-0.014": 0.0,
			"-0.013": 0.0,
			"-0.012": 0.177736042737,
			"-0.011": 1.09565269246,
			"-0.01": 0.501447483318,
			"-0.009": 1.11735855687,
			"-0.008": 1.04589855961,
			"-0.007": 2.39695352751,
			"-0.006": 4.18964616407,
			"-0.005": 13.1953949418,
			"-0.004": 24.6182831436,
			"-0.003": 45.8547383879,
			"-0.002": 43.1246093859,
			"-0.001": 43.6662334647,
			"0.0": 50.2795664739,
			"0.001": 37.3887365784,
			"0.002": 17.5810342974,
			"0.003": 15.4790731939,
			"0.004": 16.5103347894,
			"0.005": 13.1103091138,
			"0.006": 11.2652383724,
			"0.007": 3.87704159642,
			"0.008": 2.00798018128,
			"0.009": 2.85013430695,
			"0.01": 2.60730408999,
			"0.011": 2.51075662956,
			"0.012": 3.28880599522,
			"0.013": 2.44585663238,
			"0.014": 0.0506038725388,
			"0.015": 0.0,
			"0.016": 0.0,
			"0.017": 0.0,
			"0.018": 0.0,
			"0.019": 0.0,
			"0.02": 0.0,
			"0.021": 0.0,
			"0.022": 0.0,
			"0.023": 0.0,
			"0.024": 0.0,
			"0.025": 0.0
		}
	}
}
