{
	 "smiles": "ClC1=CC=C(C=C1)N(C(=O)C1=CC=CC=C1)C(=O)C1=CC=CC=C1", 
	 "Tm": 418.0, 
	 "num_atms": 38, 
	 "gaussian": { 
		 "optdone": 1, 
		 "sigma_profile": "yes", 
		 "theory": "DFT", 
		 "functional": "B3LYP", 
		 "basiset": "6-31G**", 
		 "properties": { 
			 "R2extent": 9861.7152, 
			 "electric_dipole_moment_norm": 5.26504401596, 
			 "electric_quadrupole_moment_norm": 12.6215093982, 
			 "total_energy": -1435.96748676, 
			 "HOMO_LUMO_gap": 0.16491, 
			 "cosmo_polarized_energy": -15.31, 
			 "cosmo_cavitation_energy": 44.84, 
			 "cosmo_dispersion_energy": -29.81, 
			 "cosmo_repulsion_energy": 2.29, 
			 "cosmo_total_nonelectrostatic_energy": 17.32, 
			 "SMD_solvation_energy": 8.19 
		},
		"coords": [
			{
				"x": 5.4936914663,
				"y": -4.2257501068,
				"z": -0.8616915936,
				"element": "Cl" 
			},
			{
				"x": 4.036679769,
				"y": -3.2548832009,
				"z": -0.7120892568,
				"element": "C" 
			},
			{
				"x": 3.0862909845,
				"y": -3.5871341886,
				"z": 0.2524247628,
				"element": "C" 
			},
			{
				"x": 1.9372969643,
				"y": -2.8090543348,
				"z": 0.3727653856,
				"element": "C" 
			},
			{
				"x": 1.7310039205,
				"y": -1.7182387326,
				"z": -0.4753754189,
				"element": "C" 
			},
			{
				"x": 2.6880838781,
				"y": -1.402729749,
				"z": -1.442999423,
				"element": "C" 
			},
			{
				"x": 3.8486339894,
				"y": -2.1639427904,
				"z": -1.5597803979,
				"element": "C" 
			},
			{
				"x": 0.5383995315,
				"y": -0.9237345447,
				"z": -0.3528137729,
				"element": "N" 
			},
			{
				"x": -0.7131151803,
				"y": -1.6049607884,
				"z": -0.3602263338,
				"element": "C" 
			},
			{
				"x": -0.8519463628,
				"y": -2.6369989144,
				"z": -0.9937880327,
				"element": "O" 
			},
			{
				"x": -1.8025530341,
				"y": -1.0697821098,
				"z": 0.5135785801,
				"element": "C" 
			},
			{
				"x": -3.1244821981,
				"y": -1.4021313996,
				"z": 0.1812106655,
				"element": "C" 
			},
			{
				"x": -4.1756127947,
				"y": -0.9990825274,
				"z": 0.9989987273,
				"element": "C" 
			},
			{
				"x": -3.914694018,
				"y": -0.2822395837,
				"z": 2.1709563647,
				"element": "C" 
			},
			{
				"x": -2.599686321,
				"y": 0.0277774712,
				"z": 2.5216772558,
				"element": "C" 
			},
			{
				"x": -1.5446327684,
				"y": -0.3605022175,
				"z": 1.6959975343,
				"element": "C" 
			},
			{
				"x": 0.6934353001,
				"y": 0.4873682508,
				"z": -0.2323417385,
				"element": "C" 
			},
			{
				"x": 1.6782851109,
				"y": 0.9575034083,
				"z": 0.3107189968,
				"element": "O" 
			},
			{
				"x": -0.332824346,
				"y": 1.3589498309,
				"z": -0.8835120857,
				"element": "C" 
			},
			{
				"x": -0.4784230547,
				"y": 2.6665451796,
				"z": -0.3963049555,
				"element": "C" 
			},
			{
				"x": -1.3614520654,
				"y": 3.5493385687,
				"z": -1.0103345985,
				"element": "C" 
			},
			{
				"x": -2.0887012924,
				"y": 3.1430147336,
				"z": -2.1334620121,
				"element": "C" 
			},
			{
				"x": -1.9278155051,
				"y": 1.8523090691,
				"z": -2.6399693868,
				"element": "C" 
			},
			{
				"x": -1.0557100108,
				"y": 0.9593530264,
				"z": -2.01729095,
				"element": "C" 
			},
			{
				"x": 3.2471265476,
				"y": -4.4365830602,
				"z": 0.9064910975,
				"element": "H" 
			},
			{
				"x": 1.1974791271,
				"y": -3.0560088106,
				"z": 1.1267504058,
				"element": "H" 
			},
			{
				"x": 2.5305982585,
				"y": -0.5577346627,
				"z": -2.1047931939,
				"element": "H" 
			},
			{
				"x": 4.5949729663,
				"y": -1.9191368188,
				"z": -2.306963756,
				"element": "H" 
			},
			{
				"x": -3.3046523146,
				"y": -1.9795397477,
				"z": -0.7192921055,
				"element": "H" 
			},
			{
				"x": -5.1976608898,
				"y": -1.2478122623,
				"z": 0.7291174328,
				"element": "H" 
			},
			{
				"x": -4.7348186494,
				"y": 0.0266854175,
				"z": 2.8126957755,
				"element": "H" 
			},
			{
				"x": -2.3931844741,
				"y": 0.5679491387,
				"z": 3.4407320493,
				"element": "H" 
			},
			{
				"x": -0.524169799,
				"y": -0.130362176,
				"z": 1.9845372501,
				"element": "H" 
			},
			{
				"x": 0.1123852365,
				"y": 2.9706673084,
				"z": 0.4611467433,
				"element": "H" 
			},
			{
				"x": -1.4797166537,
				"y": 4.555812786,
				"z": -0.6200583906,
				"element": "H" 
			},
			{
				"x": -2.7731157194,
				"y": 3.834332109,
				"z": -2.6167040609,
				"element": "H" 
			},
			{
				"x": -2.4772553444,
				"y": 1.5405285264,
				"z": -3.5231460237,
				"element": "H" 
			},
			{
				"x": -0.9237402547,
				"y": -0.0365920978,
				"z": -2.4274615398,
				"element": "H" 
			}
		],
		 "valence_orbital": [ 
			{
				"type": "occ",
				"energy": -0.26392,
				"method": "rhf"
			},
			{
				"type": "occ",
				"energy": -0.26388,
				"method": "rhf"
			},
			{
				"type": "occ",
				"energy": -0.26114,
				"method": "rhf"
			},
			{
				"type": "occ",
				"energy": -0.25458,
				"method": "rhf"
			},
			{
				"type": "occ",
				"energy": -0.23385,
				"method": "rhf"
			},
			{
				"type": "unocc",
				"energy": -0.06894,
				"method": "rhf"
			},
			{
				"type": "unocc",
				"energy": -0.05252,
				"method": "rhf"
			},
			{
				"type": "unocc",
				"energy": -0.01808,
				"method": "rhf"
			},
			{
				"type": "unocc",
				"energy": -0.01398,
				"method": "rhf"
			},
			{
				"type": "unocc",
				"energy": -0.01093,
				"method": "rhf"
			}
		],
		"cosmo_sigma_profile": { 
			"-0.025": 0.0,
			"-0.024": 0.0,
			"-0.023": 0.0,
			"-0.022": 0.0,
			"-0.021": 0.0,
			"-0.02": 0.0,
			"-0.019": 0.0,
			"-0.018": 0.0,
			"-0.017": 0.0,
			"-0.016": 0.0,
			"-0.015": 0.0,
			"-0.014": 0.0,
			"-0.013": 0.0,
			"-0.012": 0.0,
			"-0.011": 0.0,
			"-0.01": 0.0,
			"-0.009": 0.0,
			"-0.008": 4.16587467532,
			"-0.007": 15.0793840624,
			"-0.006": 29.787624141,
			"-0.005": 30.5787985663,
			"-0.004": 28.0151227295,
			"-0.003": 19.8905512804,
			"-0.002": 20.799742908,
			"-0.001": 19.6570724736,
			"0.0": 21.1796512124,
			"0.001": 27.5860234515,
			"0.002": 30.5196443266,
			"0.003": 39.7799391211,
			"0.004": 33.6609436858,
			"0.005": 8.92570032736,
			"0.006": 3.63435233638,
			"0.007": 3.27920769164,
			"0.008": 3.99436124741,
			"0.009": 3.6854145006,
			"0.01": 4.62375229171,
			"0.011": 8.03615688527,
			"0.012": 5.79323975577,
			"0.013": 0.190076080855,
			"0.014": 0.0,
			"0.015": 0.0,
			"0.016": 0.0,
			"0.017": 0.0,
			"0.018": 0.0,
			"0.019": 0.0,
			"0.02": 0.0,
			"0.021": 0.0,
			"0.022": 0.0,
			"0.023": 0.0,
			"0.024": 0.0,
			"0.025": 0.0
		}
	}
}
