{
	 "smiles": "OC(=O)CCCCCC1NC(=O)CS1", 
	 "Tm": 413.15, 
	 "num_atms": 29, 
	 "gaussian": { 
		 "optdone": 1, 
		 "sigma_profile": "yes", 
		 "theory": "DFT", 
		 "functional": "B3LYP", 
		 "basiset": "6-31G**", 
		 "properties": { 
			 "R2extent": 6488.748, 
			 "electric_dipole_moment_norm": 3.85849604898, 
			 "electric_quadrupole_moment_norm": 47.7196018857, 
			 "total_energy": -1030.63749007, 
			 "HOMO_LUMO_gap": 0.24478, 
			 "cosmo_polarized_energy": -24.84, 
			 "cosmo_cavitation_energy": 33.85, 
			 "cosmo_dispersion_energy": -24.56, 
			 "cosmo_repulsion_energy": 1.95, 
			 "cosmo_total_nonelectrostatic_energy": 11.24, 
			 "SMD_solvation_energy": 5.96 
		},
		"coords": [
			{
				"x": 2.5239099671,
				"y": -5.0790723684,
				"z": -2.1349955449,
				"element": "O" 
			},
			{
				"x": 3.0709161853,
				"y": -4.3554302717,
				"z": -1.1168829057,
				"element": "C" 
			},
			{
				"x": 3.715008473,
				"y": -4.9118216461,
				"z": -0.2645571348,
				"element": "O" 
			},
			{
				"x": 2.8029522104,
				"y": -2.8560100963,
				"z": -1.1531194366,
				"element": "C" 
			},
			{
				"x": 1.3075500688,
				"y": -2.4864167705,
				"z": -1.1184747054,
				"element": "C" 
			},
			{
				"x": 1.0750153796,
				"y": -0.9703836575,
				"z": -1.0747433233,
				"element": "C" 
			},
			{
				"x": -0.4155465492,
				"y": -0.6000396524,
				"z": -1.0466442876,
				"element": "C" 
			},
			{
				"x": -0.7070942104,
				"y": 0.9080052716,
				"z": -1.0816809362,
				"element": "C" 
			},
			{
				"x": -0.2613630944,
				"y": 1.6875750737,
				"z": 0.1653660171,
				"element": "C" 
			},
			{
				"x": -0.5264585524,
				"y": 3.1072683572,
				"z": 0.0513172319,
				"element": "N" 
			},
			{
				"x": -1.4677303703,
				"y": 3.7304871902,
				"z": 0.8242787837,
				"element": "C" 
			},
			{
				"x": -1.7919229518,
				"y": 4.8996821692,
				"z": 0.7247659341,
				"element": "O" 
			},
			{
				"x": -2.073792508,
				"y": 2.7560078788,
				"z": 1.8370021457,
				"element": "C" 
			},
			{
				"x": -1.1611921914,
				"y": 1.1732243829,
				"z": 1.717374475,
				"element": "S" 
			},
			{
				"x": 2.048664266,
				"y": -4.496868628,
				"z": -2.7440806814,
				"element": "H" 
			},
			{
				"x": 3.2668513341,
				"y": -2.4375807471,
				"z": -2.0576472538,
				"element": "H" 
			},
			{
				"x": 3.3216060552,
				"y": -2.4269391481,
				"z": -0.2928717116,
				"element": "H" 
			},
			{
				"x": 0.8404709685,
				"y": -2.9550749092,
				"z": -0.243435412,
				"element": "H" 
			},
			{
				"x": 0.7891180577,
				"y": -2.8989867581,
				"z": -1.9962466984,
				"element": "H" 
			},
			{
				"x": 1.5873241938,
				"y": -0.5640984411,
				"z": -0.1929281654,
				"element": "H" 
			},
			{
				"x": 1.5524296264,
				"y": -0.5035647754,
				"z": -1.9483254118,
				"element": "H" 
			},
			{
				"x": -0.9106456399,
				"y": -1.0602839662,
				"z": -1.9113084851,
				"element": "H" 
			},
			{
				"x": -0.8899122816,
				"y": -1.0381468728,
				"z": -0.1590652352,
				"element": "H" 
			},
			{
				"x": -1.7813947415,
				"y": 1.074480898,
				"z": -1.2175821147,
				"element": "H" 
			},
			{
				"x": -0.2040043284,
				"y": 1.3547181749,
				"z": -1.9528053171,
				"element": "H" 
			},
			{
				"x": 0.8043501399,
				"y": 1.5233840109,
				"z": 0.3567545591,
				"element": "H" 
			},
			{
				"x": -0.0929361573,
				"y": 3.6502101665,
				"z": -0.6836352368,
				"element": "H" 
			},
			{
				"x": -3.1375202572,
				"y": 2.6310419555,
				"z": 1.6180154402,
				"element": "H" 
			},
			{
				"x": -1.9743530924,
				"y": 3.1759331794,
				"z": 2.839755411,
				"element": "H" 
			}
		],
		 "valence_orbital": [ 
			{
				"type": "occ",
				"energy": -0.31606,
				"method": "rhf"
			},
			{
				"type": "occ",
				"energy": -0.27003,
				"method": "rhf"
			},
			{
				"type": "occ",
				"energy": -0.2677,
				"method": "rhf"
			},
			{
				"type": "occ",
				"energy": -0.25988,
				"method": "rhf"
			},
			{
				"type": "occ",
				"energy": -0.24054,
				"method": "rhf"
			},
			{
				"type": "unocc",
				"energy": 0.00424,
				"method": "rhf"
			},
			{
				"type": "unocc",
				"energy": 0.00659,
				"method": "rhf"
			},
			{
				"type": "unocc",
				"energy": 0.01979,
				"method": "rhf"
			},
			{
				"type": "unocc",
				"energy": 0.03855,
				"method": "rhf"
			},
			{
				"type": "unocc",
				"energy": 0.04406,
				"method": "rhf"
			}
		],
		"cosmo_sigma_profile": { 
			"-0.025": 0.0,
			"-0.024": 0.0,
			"-0.023": 0.0,
			"-0.022": 0.0,
			"-0.021": 0.0,
			"-0.02": 0.0,
			"-0.019": 0.00132397062822,
			"-0.018": 0.747475999829,
			"-0.017": 1.08671068607,
			"-0.016": 0.978005719099,
			"-0.015": 1.49297602556,
			"-0.014": 2.01336533586,
			"-0.013": 2.12463561468,
			"-0.012": 2.14298958568,
			"-0.011": 2.87995543827,
			"-0.01": 2.47347643075,
			"-0.009": 2.05056823771,
			"-0.008": 2.35984382457,
			"-0.007": 7.72744507034,
			"-0.006": 12.2412093275,
			"-0.005": 14.1707779709,
			"-0.004": 21.6097722112,
			"-0.003": 31.5390742706,
			"-0.002": 28.5887856182,
			"-0.001": 20.7723031246,
			"0.0": 13.8908001257,
			"0.001": 8.94382820145,
			"0.002": 7.68714968634,
			"0.003": 7.71843561596,
			"0.004": 5.63565562803,
			"0.005": 7.16886527001,
			"0.006": 5.51874640616,
			"0.007": 5.19822625173,
			"0.008": 5.45275923693,
			"0.009": 6.11963083792,
			"0.01": 7.17670267848,
			"0.011": 6.62773571427,
			"0.012": 8.69753829361,
			"0.013": 9.06798337506,
			"0.014": 3.90887311877,
			"0.015": 0.18249021049,
			"0.016": 0.0,
			"0.017": 0.0,
			"0.018": 0.0,
			"0.019": 0.0,
			"0.02": 0.0,
			"0.021": 0.0,
			"0.022": 0.0,
			"0.023": 0.0,
			"0.024": 0.0,
			"0.025": 0.0
		}
	}
}
