{
	 "smiles": "CCOC(=O)C(C#N)=C(SCC1=CC=CC=C1)SCC1=CC=CC=C1", 
	 "Tm": 355.15, 
	 "num_atms": 44, 
	 "gaussian": { 
		 "optdone": 1, 
		 "sigma_profile": "yes", 
		 "theory": "DFT", 
		 "functional": "B3LYP", 
		 "basiset": "6-31G**", 
		 "properties": { 
			 "R2extent": 11228.5597, 
			 "electric_dipole_moment_norm": 4.25226626988, 
			 "electric_quadrupole_moment_norm": 19.8351783264, 
			 "total_energy": -1775.1268525, 
			 "HOMO_LUMO_gap": 0.15247, 
			 "cosmo_polarized_energy": -18.03, 
			 "cosmo_cavitation_energy": 52.2, 
			 "cosmo_dispersion_energy": -34.03, 
			 "cosmo_repulsion_energy": 2.58, 
			 "cosmo_total_nonelectrostatic_energy": 20.75, 
			 "SMD_solvation_energy": 10.09 
		},
		"coords": [
			{
				"x": 4.6244134258,
				"y": -2.4053177834,
				"z": 4.3325016257,
				"element": "C" 
			},
			{
				"x": 4.3211765634,
				"y": -1.3915286099,
				"z": 3.2461430425,
				"element": "C" 
			},
			{
				"x": 2.8984942464,
				"y": -1.4456348592,
				"z": 2.9927298586,
				"element": "O" 
			},
			{
				"x": 2.4323431095,
				"y": -0.6080818992,
				"z": 2.0447825907,
				"element": "C" 
			},
			{
				"x": 3.1516945245,
				"y": 0.1510644297,
				"z": 1.4180629578,
				"element": "O" 
			},
			{
				"x": 0.957920056,
				"y": -0.7410590237,
				"z": 1.9124099472,
				"element": "C" 
			},
			{
				"x": 0.335227938,
				"y": -1.709054985,
				"z": 2.7644030421,
				"element": "C" 
			},
			{
				"x": -0.1757408824,
				"y": -2.5040731198,
				"z": 3.4453292626,
				"element": "N" 
			},
			{
				"x": 0.1567436241,
				"y": 0.0762422555,
				"z": 1.130222878,
				"element": "C" 
			},
			{
				"x": 0.7036871308,
				"y": 1.2211165391,
				"z": -0.0924049577,
				"element": "S" 
			},
			{
				"x": 1.8211977979,
				"y": 0.2529536909,
				"z": -1.2270336577,
				"element": "C" 
			},
			{
				"x": 1.1298996168,
				"y": -0.8613659477,
				"z": -1.9624417149,
				"element": "C" 
			},
			{
				"x": 0.3395051658,
				"y": -0.5960030431,
				"z": -3.0914374827,
				"element": "C" 
			},
			{
				"x": -0.3041263288,
				"y": -1.6298153306,
				"z": -3.7696997099,
				"element": "C" 
			},
			{
				"x": -0.1680546678,
				"y": -2.9485824546,
				"z": -3.3277148587,
				"element": "C" 
			},
			{
				"x": 0.618094031,
				"y": -3.2248889201,
				"z": -2.2087461406,
				"element": "C" 
			},
			{
				"x": 1.2636313132,
				"y": -2.1883849313,
				"z": -1.5319040174,
				"element": "C" 
			},
			{
				"x": -1.5751500459,
				"y": 0.0404191535,
				"z": 1.4887854167,
				"element": "S" 
			},
			{
				"x": -2.4536017685,
				"y": 0.7595334572,
				"z": 0.0256199038,
				"element": "C" 
			},
			{
				"x": -2.7790859202,
				"y": 2.2324057681,
				"z": 0.1115265367,
				"element": "C" 
			},
			{
				"x": -2.3381485054,
				"y": 3.1144682306,
				"z": -0.8818900457,
				"element": "C" 
			},
			{
				"x": -2.6773588842,
				"y": 4.4682897372,
				"z": -0.8343949089,
				"element": "C" 
			},
			{
				"x": -3.4593142095,
				"y": 4.9577173044,
				"z": 0.2115823536,
				"element": "C" 
			},
			{
				"x": -3.903751,
				"y": 4.0853151126,
				"z": 1.2086191211,
				"element": "C" 
			},
			{
				"x": -3.5681128708,
				"y": 2.7337819527,
				"z": 1.1568169718,
				"element": "C" 
			},
			{
				"x": 4.3449047605,
				"y": -3.4137289637,
				"z": 4.0152061873,
				"element": "H" 
			},
			{
				"x": 4.0768809404,
				"y": -2.1701076125,
				"z": 5.2492048099,
				"element": "H" 
			},
			{
				"x": 5.6956796237,
				"y": -2.3967825285,
				"z": 4.5565279755,
				"element": "H" 
			},
			{
				"x": 4.8536216022,
				"y": -1.6103117288,
				"z": 2.314815179,
				"element": "H" 
			},
			{
				"x": 4.5864570273,
				"y": -0.3726028542,
				"z": 3.5450993937,
				"element": "H" 
			},
			{
				"x": 2.1504578223,
				"y": 1.0401134866,
				"z": -1.9128991123,
				"element": "H" 
			},
			{
				"x": 2.6797507294,
				"y": -0.0751960804,
				"z": -0.6443779673,
				"element": "H" 
			},
			{
				"x": 0.2345594944,
				"y": 0.4281949963,
				"z": -3.4419534651,
				"element": "H" 
			},
			{
				"x": -0.9071247327,
				"y": -1.4083518063,
				"z": -4.6457302365,
				"element": "H" 
			},
			{
				"x": -0.668389031,
				"y": -3.7549664035,
				"z": -3.8558576417,
				"element": "H" 
			},
			{
				"x": 0.7319931781,
				"y": -4.2475036339,
				"z": -1.8612005683,
				"element": "H" 
			},
			{
				"x": 1.8792142274,
				"y": -2.4110191709,
				"z": -0.6652937734,
				"element": "H" 
			},
			{
				"x": -3.3713287865,
				"y": 0.1622484754,
				"z": 0.0042032546,
				"element": "H" 
			},
			{
				"x": -1.8761263019,
				"y": 0.5188246579,
				"z": -0.8678385148,
				"element": "H" 
			},
			{
				"x": -1.7243910485,
				"y": 2.7386570001,
				"z": -1.6952578135,
				"element": "H" 
			},
			{
				"x": -2.3269810202,
				"y": 5.1388852107,
				"z": -1.6138237972,
				"element": "H" 
			},
			{
				"x": -3.7214564304,
				"y": 6.0109491915,
				"z": 0.2516426608,
				"element": "H" 
			},
			{
				"x": -4.5142199479,
				"y": 4.457929931,
				"z": 2.0261098114,
				"element": "H" 
			},
			{
				"x": -3.9175855662,
				"y": 2.0623511094,
				"z": 1.9371556033,
				"element": "H" 
			}
		],
		 "valence_orbital": [ 
			{
				"type": "occ",
				"energy": -0.25877,
				"method": "rhf"
			},
			{
				"type": "occ",
				"energy": -0.25605,
				"method": "rhf"
			},
			{
				"type": "occ",
				"energy": -0.25134,
				"method": "rhf"
			},
			{
				"type": "occ",
				"energy": -0.24558,
				"method": "rhf"
			},
			{
				"type": "occ",
				"energy": -0.23035,
				"method": "rhf"
			},
			{
				"type": "unocc",
				"energy": -0.07788,
				"method": "rhf"
			},
			{
				"type": "unocc",
				"energy": -0.02242,
				"method": "rhf"
			},
			{
				"type": "unocc",
				"energy": -0.02149,
				"method": "rhf"
			},
			{
				"type": "unocc",
				"energy": -0.01054,
				"method": "rhf"
			},
			{
				"type": "unocc",
				"energy": -0.00684,
				"method": "rhf"
			}
		],
		"cosmo_sigma_profile": { 
			"-0.025": 0.0,
			"-0.024": 0.0,
			"-0.023": 0.0,
			"-0.022": 0.0,
			"-0.021": 0.0,
			"-0.02": 0.0,
			"-0.019": 0.0,
			"-0.018": 0.0,
			"-0.017": 0.0,
			"-0.016": 0.0,
			"-0.015": 0.0,
			"-0.014": 0.0,
			"-0.013": 0.0,
			"-0.012": 0.0,
			"-0.011": 0.0,
			"-0.01": 0.0,
			"-0.009": 0.352754281859,
			"-0.008": 5.29822682212,
			"-0.007": 6.73194871971,
			"-0.006": 19.6322708719,
			"-0.005": 34.1356375841,
			"-0.004": 44.0620493898,
			"-0.003": 41.5916149649,
			"-0.002": 35.8698860034,
			"-0.001": 34.5038069309,
			"0.0": 27.2906546062,
			"0.001": 23.0454618607,
			"0.002": 22.7602220107,
			"0.003": 23.8916337094,
			"0.004": 26.7754586299,
			"0.005": 25.9231411755,
			"0.006": 12.8339890204,
			"0.007": 5.2839385834,
			"0.008": 7.35399694454,
			"0.009": 6.03002017105,
			"0.01": 5.27626168971,
			"0.011": 5.94098752695,
			"0.012": 3.40977407082,
			"0.013": 1.82438732465,
			"0.014": 0.163595956513,
			"0.015": 0.0,
			"0.016": 0.0,
			"0.017": 0.0,
			"0.018": 0.0,
			"0.019": 0.0,
			"0.02": 0.0,
			"0.021": 0.0,
			"0.022": 0.0,
			"0.023": 0.0,
			"0.024": 0.0,
			"0.025": 0.0
		}
	}
}
