{
	 "smiles": "CC(=O)N1CCCC2=C1C=CC(=C2)C(O)=O", 
	 "Tm": 458.15, 
	 "num_atms": 29, 
	 "gaussian": { 
		 "optdone": 1, 
		 "sigma_profile": "yes", 
		 "theory": "DFT", 
		 "functional": "B3LYP", 
		 "basiset": "6-31G**", 
		 "properties": { 
			 "R2extent": 4378.0698, 
			 "electric_dipole_moment_norm": 2.36291092723, 
			 "electric_quadrupole_moment_norm": 44.129962007, 
			 "total_energy": -745.567704357, 
			 "HOMO_LUMO_gap": 0.1785, 
			 "cosmo_polarized_energy": -19.63, 
			 "cosmo_cavitation_energy": 31.63, 
			 "cosmo_dispersion_energy": -23.06, 
			 "cosmo_repulsion_energy": 1.79, 
			 "cosmo_total_nonelectrostatic_energy": 10.35, 
			 "SMD_solvation_energy": 6.43 
		},
		"coords": [
			{
				"x": -1.881934448,
				"y": -1.3030249046,
				"z": 1.8125757044,
				"element": "C" 
			},
			{
				"x": -2.2218092843,
				"y": -0.1605939889,
				"z": 0.8688951535,
				"element": "C" 
			},
			{
				"x": -3.3545361328,
				"y": 0.3020293161,
				"z": 0.8390379743,
				"element": "O" 
			},
			{
				"x": -1.222684846,
				"y": 0.4183834092,
				"z": 0.0862074228,
				"element": "N" 
			},
			{
				"x": -1.6195865111,
				"y": 1.7018559906,
				"z": -0.552247051,
				"element": "C" 
			},
			{
				"x": -0.4257232762,
				"y": 2.4706764619,
				"z": -1.1216415488,
				"element": "C" 
			},
			{
				"x": 0.8002488978,
				"y": 2.305170341,
				"z": -0.2091546736,
				"element": "C" 
			},
			{
				"x": 1.1514952105,
				"y": 0.8404985089,
				"z": -0.1950490269,
				"element": "C" 
			},
			{
				"x": 0.0848830168,
				"y": -0.0836615432,
				"z": -0.0957931583,
				"element": "C" 
			},
			{
				"x": 0.3502208255,
				"y": -1.4552596924,
				"z": -0.2298164517,
				"element": "C" 
			},
			{
				"x": 1.6585187529,
				"y": -1.9100471801,
				"z": -0.3659490441,
				"element": "C" 
			},
			{
				"x": 2.7267577949,
				"y": -1.0049183754,
				"z": -0.4147191621,
				"element": "C" 
			},
			{
				"x": 2.4473171844,
				"y": 0.3679393083,
				"z": -0.3631375474,
				"element": "C" 
			},
			{
				"x": 4.1536227909,
				"y": -1.4196556358,
				"z": -0.5847478811,
				"element": "C" 
			},
			{
				"x": 4.4589087345,
				"y": -2.7089811811,
				"z": -0.2701295826,
				"element": "O" 
			},
			{
				"x": 5.021682609,
				"y": -0.6750799881,
				"z": -0.9777758799,
				"element": "O" 
			},
			{
				"x": -0.8366810095,
				"y": -1.3273621751,
				"z": 2.1234226911,
				"element": "H" 
			},
			{
				"x": -2.528491976,
				"y": -1.1827132532,
				"z": 2.6835250453,
				"element": "H" 
			},
			{
				"x": -2.1305011467,
				"y": -2.2658758668,
				"z": 1.354890112,
				"element": "H" 
			},
			{
				"x": -2.1270994297,
				"y": 2.2917712674,
				"z": 0.2154802588,
				"element": "H" 
			},
			{
				"x": -2.3656432616,
				"y": 1.4949433206,
				"z": -1.3263229095,
				"element": "H" 
			},
			{
				"x": -0.7100050582,
				"y": 3.5228350644,
				"z": -1.2249179118,
				"element": "H" 
			},
			{
				"x": -0.1711493311,
				"y": 2.1064602231,
				"z": -2.1233208826,
				"element": "H" 
			},
			{
				"x": 1.6480031095,
				"y": 2.8995074824,
				"z": -0.5617468384,
				"element": "H" 
			},
			{
				"x": 0.5538603679,
				"y": 2.6576620998,
				"z": 0.8025588241,
				"element": "H" 
			},
			{
				"x": -0.4678086137,
				"y": -2.1645253586,
				"z": -0.2562535181,
				"element": "H" 
			},
			{
				"x": 1.8223475555,
				"y": -2.9768304073,
				"z": -0.4985204644,
				"element": "H" 
			},
			{
				"x": 3.2761595064,
				"y": 1.0630647741,
				"z": -0.454407823,
				"element": "H" 
			},
			{
				"x": 3.7140279683,
				"y": -3.1257680172,
				"z": 0.184258169,
				"element": "H" 
			}
		],
		 "valence_orbital": [ 
			{
				"type": "occ",
				"energy": -0.30232,
				"method": "rhf"
			},
			{
				"type": "occ",
				"energy": -0.27454,
				"method": "rhf"
			},
			{
				"type": "occ",
				"energy": -0.269,
				"method": "rhf"
			},
			{
				"type": "occ",
				"energy": -0.25965,
				"method": "rhf"
			},
			{
				"type": "occ",
				"energy": -0.23404,
				"method": "rhf"
			},
			{
				"type": "unocc",
				"energy": -0.05554,
				"method": "rhf"
			},
			{
				"type": "unocc",
				"energy": -0.02573,
				"method": "rhf"
			},
			{
				"type": "unocc",
				"energy": 0.01162,
				"method": "rhf"
			},
			{
				"type": "unocc",
				"energy": 0.04911,
				"method": "rhf"
			},
			{
				"type": "unocc",
				"energy": 0.05961,
				"method": "rhf"
			}
		],
		"cosmo_sigma_profile": { 
			"-0.025": 0.0,
			"-0.024": 0.0,
			"-0.023": 0.0,
			"-0.022": 0.0,
			"-0.021": 0.0,
			"-0.02": 0.0,
			"-0.019": 0.0,
			"-0.018": 0.822555761437,
			"-0.017": 0.83521514515,
			"-0.016": 1.58323522906,
			"-0.015": 0.445687128714,
			"-0.014": 0.690980713968,
			"-0.013": 1.22964167277,
			"-0.012": 1.53053382365,
			"-0.011": 0.686501128837,
			"-0.01": 1.07080265767,
			"-0.009": 2.01623808134,
			"-0.008": 3.38337378974,
			"-0.007": 5.32486404257,
			"-0.006": 8.13249728428,
			"-0.005": 12.6899541389,
			"-0.004": 26.7589403216,
			"-0.003": 26.9027881829,
			"-0.002": 29.4541223495,
			"-0.001": 25.473035388,
			"0.0": 13.0923575116,
			"0.001": 10.2232921269,
			"0.002": 10.3817919023,
			"0.003": 12.4716434616,
			"0.004": 4.89335371381,
			"0.005": 3.3269113915,
			"0.006": 3.28168897998,
			"0.007": 4.53406140048,
			"0.008": 4.45275185326,
			"0.009": 4.04042980325,
			"0.01": 5.22772897609,
			"0.011": 7.5639639544,
			"0.012": 7.71675367093,
			"0.013": 6.74683011705,
			"0.014": 2.84783620246,
			"0.015": 0.23560185441,
			"0.016": 0.0,
			"0.017": 0.0,
			"0.018": 0.0,
			"0.019": 0.0,
			"0.02": 0.0,
			"0.021": 0.0,
			"0.022": 0.0,
			"0.023": 0.0,
			"0.024": 0.0,
			"0.025": 0.0
		}
	}
}
