{
	 "smiles": "OC(=O)C1=C2N=CC=CC2=C(Cl)C=C1", 
	 "Tm": 473.15, 
	 "num_atms": 20, 
	 "gaussian": { 
		 "optdone": 1, 
		 "sigma_profile": "yes", 
		 "theory": "DFT", 
		 "functional": "B3LYP", 
		 "basiset": "6-31G**", 
		 "properties": { 
			 "R2extent": 3264.7637, 
			 "electric_dipole_moment_norm": 6.2101724493, 
			 "electric_quadrupole_moment_norm": 25.1413905218, 
			 "total_energy": -1050.0981594, 
			 "HOMO_LUMO_gap": 0.16125, 
			 "cosmo_polarized_energy": -12.85, 
			 "cosmo_cavitation_energy": 26.08, 
			 "cosmo_dispersion_energy": -19.93, 
			 "cosmo_repulsion_energy": 1.53, 
			 "cosmo_total_nonelectrostatic_energy": 7.67, 
			 "SMD_solvation_energy": 4.82 
		},
		"coords": [
			{
				"x": -0.1214668364,
				"y": 3.2860641675,
				"z": 1.688438544,
				"element": "O" 
			},
			{
				"x": 0.210913353,
				"y": 3.0510502114,
				"z": 0.4181194497,
				"element": "C" 
			},
			{
				"x": 0.7655386048,
				"y": 3.8843517982,
				"z": -0.2690254383,
				"element": "O" 
			},
			{
				"x": -0.1334090045,
				"y": 1.6858056671,
				"z": -0.1479607831,
				"element": "C" 
			},
			{
				"x": -0.7848608665,
				"y": 0.643745867,
				"z": 0.58368458,
				"element": "C" 
			},
			{
				"x": -1.1313366382,
				"y": 0.8699436244,
				"z": 1.8857268416,
				"element": "N" 
			},
			{
				"x": -1.7326434917,
				"y": -0.0774075511,
				"z": 2.5780631703,
				"element": "C" 
			},
			{
				"x": -2.047921114,
				"y": -1.3440117694,
				"z": 2.0404490294,
				"element": "C" 
			},
			{
				"x": -1.7144216791,
				"y": -1.6083826867,
				"z": 0.7324318912,
				"element": "C" 
			},
			{
				"x": -1.0669501291,
				"y": -0.6152232778,
				"z": -0.0445112434,
				"element": "C" 
			},
			{
				"x": -0.6796640556,
				"y": -0.7859678296,
				"z": -1.4039765842,
				"element": "C" 
			},
			{
				"x": -1.0019379751,
				"y": -2.3067381952,
				"z": -2.2183938794,
				"element": "Cl" 
			},
			{
				"x": -0.0530912481,
				"y": 0.2226123554,
				"z": -2.1001721673,
				"element": "C" 
			},
			{
				"x": 0.2144580896,
				"y": 1.4512159402,
				"z": -1.4640264487,
				"element": "C" 
			},
			{
				"x": -0.5622320341,
				"y": 2.4740545165,
				"z": 2.0592552855,
				"element": "H" 
			},
			{
				"x": -1.9836977055,
				"y": 0.1614143726,
				"z": 3.6092439785,
				"element": "H" 
			},
			{
				"x": -2.5435964496,
				"y": -2.0860929628,
				"z": 2.6566546058,
				"element": "H" 
			},
			{
				"x": -1.9399660102,
				"y": -2.5692338315,
				"z": 0.2836814618,
				"element": "H" 
			},
			{
				"x": 0.2325464727,
				"y": 0.0694822617,
				"z": -3.1346605673,
				"element": "H" 
			},
			{
				"x": 0.7077387175,
				"y": 2.2523173222,
				"z": -2.0039217263,
				"element": "H" 
			}
		],
		 "valence_orbital": [ 
			{
				"type": "occ",
				"energy": -0.2961,
				"method": "rhf"
			},
			{
				"type": "occ",
				"energy": -0.29451,
				"method": "rhf"
			},
			{
				"type": "occ",
				"energy": -0.28467,
				"method": "rhf"
			},
			{
				"type": "occ",
				"energy": -0.26247,
				"method": "rhf"
			},
			{
				"type": "occ",
				"energy": -0.25536,
				"method": "rhf"
			},
			{
				"type": "unocc",
				"energy": -0.09411,
				"method": "rhf"
			},
			{
				"type": "unocc",
				"energy": -0.04866,
				"method": "rhf"
			},
			{
				"type": "unocc",
				"energy": -0.03061,
				"method": "rhf"
			},
			{
				"type": "unocc",
				"energy": 0.01029,
				"method": "rhf"
			},
			{
				"type": "unocc",
				"energy": 0.03824,
				"method": "rhf"
			}
		],
		"cosmo_sigma_profile": { 
			"-0.025": 0.0,
			"-0.024": 0.0,
			"-0.023": 0.0,
			"-0.022": 0.0,
			"-0.021": 0.0,
			"-0.02": 0.0,
			"-0.019": 0.0,
			"-0.018": 0.0,
			"-0.017": 0.0,
			"-0.016": 0.0,
			"-0.015": 0.0,
			"-0.014": 0.0,
			"-0.013": 0.0,
			"-0.012": 0.0,
			"-0.011": 0.0,
			"-0.01": 0.0,
			"-0.009": 0.952782433732,
			"-0.008": 7.7161308841,
			"-0.007": 10.7080865862,
			"-0.006": 9.08222042914,
			"-0.005": 8.25173903073,
			"-0.004": 10.6022090241,
			"-0.003": 12.4100383017,
			"-0.002": 23.2994401684,
			"-0.001": 28.7565934946,
			"0.0": 26.41167211,
			"0.001": 19.0676083728,
			"0.002": 9.8460867194,
			"0.003": 9.75582573466,
			"0.004": 5.85040489063,
			"0.005": 2.51404040687,
			"0.006": 2.29316564877,
			"0.007": 1.46223784555,
			"0.008": 2.78429302796,
			"0.009": 3.00622071956,
			"0.01": 3.29396598666,
			"0.011": 4.91813959013,
			"0.012": 6.5181882954,
			"0.013": 3.02214770805,
			"0.014": 0.948313089728,
			"0.015": 0.0,
			"0.016": 0.0,
			"0.017": 0.0,
			"0.018": 0.0,
			"0.019": 0.0,
			"0.02": 0.0,
			"0.021": 0.0,
			"0.022": 0.0,
			"0.023": 0.0,
			"0.024": 0.0,
			"0.025": 0.0
		}
	}
}
