{
	 "smiles": "OC(=O)C=CC1=C(OCC2=CC=C(F)C=C2)C=CC(Cl)=C1", 
	 "Tm": 440.15, 
	 "num_atms": 33, 
	 "gaussian": { 
		 "optdone": 1, 
		 "sigma_profile": "yes", 
		 "theory": "DFT", 
		 "functional": "B3LYP", 
		 "basiset": "6-31G**", 
		 "properties": { 
			 "R2extent": 10563.7094, 
			 "electric_dipole_moment_norm": 3.78597209049, 
			 "electric_quadrupole_moment_norm": 25.1609407916, 
			 "total_energy": -1402.62176264, 
			 "HOMO_LUMO_gap": 0.15043, 
			 "cosmo_polarized_energy": -14.09, 
			 "cosmo_cavitation_energy": 41.19, 
			 "cosmo_dispersion_energy": -29.0, 
			 "cosmo_repulsion_energy": 2.2, 
			 "cosmo_total_nonelectrostatic_energy": 14.39, 
			 "SMD_solvation_energy": 8.47 
		},
		"coords": [
			{
				"x": -5.5574199229,
				"y": 1.0016237878,
				"z": 0.2697162578,
				"element": "O" 
			},
			{
				"x": -4.3479672599,
				"y": 1.6041659707,
				"z": 0.1058835287,
				"element": "C" 
			},
			{
				"x": -4.2776378447,
				"y": 2.7745498527,
				"z": -0.2334354955,
				"element": "O" 
			},
			{
				"x": -3.2697050155,
				"y": 0.6457229156,
				"z": 0.3942190617,
				"element": "C" 
			},
			{
				"x": -1.9194273631,
				"y": 0.7743761042,
				"z": 0.3721412337,
				"element": "C" 
			},
			{
				"x": -0.977397359,
				"y": 1.8517751141,
				"z": 0.0713678258,
				"element": "C" 
			},
			{
				"x": 0.4148361032,
				"y": 1.5518188988,
				"z": 0.1795854815,
				"element": "C" 
			},
			{
				"x": 0.7363266962,
				"y": 0.2818813491,
				"z": 0.555985331,
				"element": "O" 
			},
			{
				"x": 2.1185731381,
				"y": -0.0854172461,
				"z": 0.681665207,
				"element": "C" 
			},
			{
				"x": 2.182752986,
				"y": -1.5289255692,
				"z": 1.1023241367,
				"element": "C" 
			},
			{
				"x": 2.2152877196,
				"y": -2.5487719946,
				"z": 0.1429459582,
				"element": "C" 
			},
			{
				"x": 2.2487481695,
				"y": -3.8897014492,
				"z": 0.5221415668,
				"element": "C" 
			},
			{
				"x": 2.2465607635,
				"y": -4.1963841545,
				"z": 1.8787125498,
				"element": "C" 
			},
			{
				"x": 2.2830326278,
				"y": -5.4897730318,
				"z": 2.255263122,
				"element": "F" 
			},
			{
				"x": 2.212792158,
				"y": -3.2103670186,
				"z": 2.8590191802,
				"element": "C" 
			},
			{
				"x": 2.1797012074,
				"y": -1.8753937605,
				"z": 2.4593592092,
				"element": "C" 
			},
			{
				"x": 1.3740296704,
				"y": 2.531729144,
				"z": -0.0929577147,
				"element": "C" 
			},
			{
				"x": 0.9834325287,
				"y": 3.8149338322,
				"z": -0.4744338348,
				"element": "C" 
			},
			{
				"x": -0.3718901795,
				"y": 4.1122240101,
				"z": -0.5816084103,
				"element": "C" 
			},
			{
				"x": -0.8618750475,
				"y": 5.7324272899,
				"z": -1.0635048786,
				"element": "Cl" 
			},
			{
				"x": -1.3430123677,
				"y": 3.1541941906,
				"z": -0.3153446529,
				"element": "C" 
			},
			{
				"x": -6.2186216373,
				"y": 1.6831928574,
				"z": 0.0655810112,
				"element": "H" 
			},
			{
				"x": -3.6497078091,
				"y": -0.3322507468,
				"z": 0.6728850357,
				"element": "H" 
			},
			{
				"x": -1.4041856783,
				"y": -0.1421188692,
				"z": 0.6431966832,
				"element": "H" 
			},
			{
				"x": 2.6020172651,
				"y": 0.5593241292,
				"z": 1.4269521949,
				"element": "H" 
			},
			{
				"x": 2.6254275903,
				"y": 0.0626871771,
				"z": -0.2806206729,
				"element": "H" 
			},
			{
				"x": 2.2148508192,
				"y": -2.2929645869,
				"z": -0.9131646854,
				"element": "H" 
			},
			{
				"x": 2.2781730234,
				"y": -4.6903696939,
				"z": -0.2086789206,
				"element": "H" 
			},
			{
				"x": 2.2148850973,
				"y": -3.4943685644,
				"z": 3.9056216326,
				"element": "H" 
			},
			{
				"x": 2.1514773843,
				"y": -1.0933960576,
				"z": 3.2133369083,
				"element": "H" 
			},
			{
				"x": 2.430680221,
				"y": 2.3106256445,
				"z": -0.0123866078,
				"element": "H" 
			},
			{
				"x": 1.7298069228,
				"y": 4.5729732965,
				"z": -0.6852559473,
				"element": "H" 
			},
			{
				"x": -2.3940446072,
				"y": 3.3976771786,
				"z": -0.4019112954,
				"element": "H" 
			}
		],
		 "valence_orbital": [ 
			{
				"type": "occ",
				"energy": -0.27353,
				"method": "rhf"
			},
			{
				"type": "occ",
				"energy": -0.27078,
				"method": "rhf"
			},
			{
				"type": "occ",
				"energy": -0.25728,
				"method": "rhf"
			},
			{
				"type": "occ",
				"energy": -0.24872,
				"method": "rhf"
			},
			{
				"type": "occ",
				"energy": -0.222,
				"method": "rhf"
			},
			{
				"type": "unocc",
				"energy": -0.07157,
				"method": "rhf"
			},
			{
				"type": "unocc",
				"energy": -0.02423,
				"method": "rhf"
			},
			{
				"type": "unocc",
				"energy": -0.02057,
				"method": "rhf"
			},
			{
				"type": "unocc",
				"energy": -0.00219,
				"method": "rhf"
			},
			{
				"type": "unocc",
				"energy": 0.01093,
				"method": "rhf"
			}
		],
		"cosmo_sigma_profile": { 
			"-0.025": 0.0,
			"-0.024": 0.0,
			"-0.023": 0.0,
			"-0.022": 0.0,
			"-0.021": 0.0,
			"-0.02": 0.0,
			"-0.019": 0.0,
			"-0.018": 0.296395096403,
			"-0.017": 1.09164880101,
			"-0.016": 0.76435595033,
			"-0.015": 0.718210942912,
			"-0.014": 0.846331720769,
			"-0.013": 0.678408392759,
			"-0.012": 0.676268912888,
			"-0.011": 0.773434921301,
			"-0.01": 0.612406219493,
			"-0.009": 0.61933950941,
			"-0.008": 3.8902629223,
			"-0.007": 14.464862939,
			"-0.006": 24.5394050891,
			"-0.005": 18.4947724367,
			"-0.004": 13.7612300532,
			"-0.003": 13.0725010243,
			"-0.002": 14.6076851096,
			"-0.001": 14.8938223754,
			"0.0": 26.9117072555,
			"0.001": 37.4664788694,
			"0.002": 40.5474905906,
			"0.003": 34.983646588,
			"0.004": 31.4550515549,
			"0.005": 17.5505284146,
			"0.006": 4.18357918049,
			"0.007": 2.96202160424,
			"0.008": 2.91866398044,
			"0.009": 3.14079210125,
			"0.01": 2.55538721756,
			"0.011": 2.1483438683,
			"0.012": 1.50280801142,
			"0.013": 0.0648261443584,
			"0.014": 0.0,
			"0.015": 0.0,
			"0.016": 0.0,
			"0.017": 0.0,
			"0.018": 0.0,
			"0.019": 0.0,
			"0.02": 0.0,
			"0.021": 0.0,
			"0.022": 0.0,
			"0.023": 0.0,
			"0.024": 0.0,
			"0.025": 0.0
		}
	}
}
