{
	 "smiles": "CCNC1=CC(NC(C)=O)=CC=C1C", 
	 "Tm": 381.15, 
	 "num_atms": 30, 
	 "gaussian": { 
		 "optdone": 1, 
		 "sigma_profile": "yes", 
		 "theory": "DFT", 
		 "functional": "B3LYP", 
		 "basiset": "6-31G**", 
		 "properties": { 
			 "R2extent": 4044.4383, 
			 "electric_dipole_moment_norm": 2.44093040048, 
			 "electric_quadrupole_moment_norm": 17.6862373053, 
			 "total_energy": -613.570428841, 
			 "HOMO_LUMO_gap": 0.19088, 
			 "cosmo_polarized_energy": -13.96, 
			 "cosmo_cavitation_energy": 32.44, 
			 "cosmo_dispersion_energy": -23.09, 
			 "cosmo_repulsion_energy": 1.84, 
			 "cosmo_total_nonelectrostatic_energy": 11.19, 
			 "SMD_solvation_energy": 5.39 
		},
		"coords": [
			{
				"x": 3.0975697166,
				"y": -1.1964479658,
				"z": 0.3412744905,
				"element": "C" 
			},
			{
				"x": 3.5495515756,
				"y": -0.0305164648,
				"z": -0.5466413229,
				"element": "C" 
			},
			{
				"x": 2.7337153554,
				"y": 1.1894707537,
				"z": -0.4337705276,
				"element": "N" 
			},
			{
				"x": 1.3737080393,
				"y": 1.1530124126,
				"z": -0.8306670216,
				"element": "C" 
			},
			{
				"x": 0.3801589875,
				"y": 1.3451935789,
				"z": 0.143195583,
				"element": "C" 
			},
			{
				"x": -0.9715617488,
				"y": 1.3883418385,
				"z": -0.2120453236,
				"element": "C" 
			},
			{
				"x": -2.0111582637,
				"y": 1.5849185279,
				"z": 0.7249744064,
				"element": "N" 
			},
			{
				"x": -1.9297176412,
				"y": 1.7752625258,
				"z": 2.0854687139,
				"element": "C" 
			},
			{
				"x": -3.2740892857,
				"y": 1.960571166,
				"z": 2.7777672815,
				"element": "C" 
			},
			{
				"x": -0.8818797121,
				"y": 1.8002216948,
				"z": 2.7174717762,
				"element": "O" 
			},
			{
				"x": -1.3335580456,
				"y": 1.2142246441,
				"z": -1.5548940877,
				"element": "C" 
			},
			{
				"x": -0.3426251906,
				"y": 1.0306150793,
				"z": -2.5133378821,
				"element": "C" 
			},
			{
				"x": 1.0187773645,
				"y": 1.0074443714,
				"z": -2.1921348635,
				"element": "C" 
			},
			{
				"x": 2.0537393492,
				"y": 0.903323393,
				"z": -3.2854612941,
				"element": "C" 
			},
			{
				"x": 2.0743498656,
				"y": -1.5004957632,
				"z": 0.1001626601,
				"element": "H" 
			},
			{
				"x": 3.75309973,
				"y": -2.0638918014,
				"z": 0.2046696624,
				"element": "H" 
			},
			{
				"x": 3.1240444461,
				"y": -0.9198814393,
				"z": 1.4015011901,
				"element": "H" 
			},
			{
				"x": 3.5643176264,
				"y": -0.3467924166,
				"z": -1.5923446,
				"element": "H" 
			},
			{
				"x": 4.5789793406,
				"y": 0.252212376,
				"z": -0.2970608504,
				"element": "H" 
			},
			{
				"x": 2.8016023075,
				"y": 1.5519419931,
				"z": 0.512211011,
				"element": "H" 
			},
			{
				"x": 0.6512348216,
				"y": 1.4587514926,
				"z": 1.1843832685,
				"element": "H" 
			},
			{
				"x": -2.9397529229,
				"y": 1.5833864551,
				"z": 0.3297069927,
				"element": "H" 
			},
			{
				"x": -4.1383151772,
				"y": 1.9027063125,
				"z": 2.1099978148,
				"element": "H" 
			},
			{
				"x": -3.2776926384,
				"y": 2.9334018295,
				"z": 3.2771383542,
				"element": "H" 
			},
			{
				"x": -3.3741421005,
				"y": 1.1969858357,
				"z": 3.553850221,
				"element": "H" 
			},
			{
				"x": -2.3801677083,
				"y": 1.2397100813,
				"z": -1.8494204045,
				"element": "H" 
			},
			{
				"x": -0.6336138461,
				"y": 0.9275736822,
				"z": -3.5559936422,
				"element": "H" 
			},
			{
				"x": 1.6418811627,
				"y": 1.2473241558,
				"z": -4.2390030506,
				"element": "H" 
			},
			{
				"x": 2.4053773203,
				"y": -0.1249423572,
				"z": -3.4418605293,
				"element": "H" 
			},
			{
				"x": 2.9297672724,
				"y": 1.5142740084,
				"z": -3.0460380257,
				"element": "H" 
			}
		],
		 "valence_orbital": [ 
			{
				"type": "occ",
				"energy": -0.29696,
				"method": "rhf"
			},
			{
				"type": "occ",
				"energy": -0.26594,
				"method": "rhf"
			},
			{
				"type": "occ",
				"energy": -0.24846,
				"method": "rhf"
			},
			{
				"type": "occ",
				"energy": -0.21664,
				"method": "rhf"
			},
			{
				"type": "occ",
				"energy": -0.19578,
				"method": "rhf"
			},
			{
				"type": "unocc",
				"energy": -0.0049,
				"method": "rhf"
			},
			{
				"type": "unocc",
				"energy": 0.01125,
				"method": "rhf"
			},
			{
				"type": "unocc",
				"energy": 0.05148,
				"method": "rhf"
			},
			{
				"type": "unocc",
				"energy": 0.06739,
				"method": "rhf"
			},
			{
				"type": "unocc",
				"energy": 0.09132,
				"method": "rhf"
			}
		],
		"cosmo_sigma_profile": { 
			"-0.025": 0.0,
			"-0.024": 0.0,
			"-0.023": 0.0,
			"-0.022": 0.0,
			"-0.021": 0.0,
			"-0.02": 0.0,
			"-0.019": 0.0,
			"-0.018": 0.0,
			"-0.017": 0.0,
			"-0.016": 0.0,
			"-0.015": 0.54060277105,
			"-0.014": 1.23900439944,
			"-0.013": 1.80243147564,
			"-0.012": 0.908542514726,
			"-0.011": 1.89247739039,
			"-0.01": 3.43093370172,
			"-0.009": 2.77617987839,
			"-0.008": 2.79064721705,
			"-0.007": 3.21873239068,
			"-0.006": 6.53051458955,
			"-0.005": 11.0448007437,
			"-0.004": 17.9502914239,
			"-0.003": 24.5986071832,
			"-0.002": 25.5206156156,
			"-0.001": 27.6706856557,
			"0.0": 22.1155597248,
			"0.001": 20.3493913945,
			"0.002": 12.8458017808,
			"0.003": 10.4162289885,
			"0.004": 10.5438592292,
			"0.005": 10.6518025476,
			"0.006": 10.8381394806,
			"0.007": 6.02641901411,
			"0.008": 2.74710807069,
			"0.009": 1.85715229365,
			"0.01": 2.38483967179,
			"0.011": 1.78267921026,
			"0.012": 3.50813077086,
			"0.013": 3.58327129373,
			"0.014": 2.84145539974,
			"0.015": 0.592007126263,
			"0.016": 0.0,
			"0.017": 0.0,
			"0.018": 0.0,
			"0.019": 0.0,
			"0.02": 0.0,
			"0.021": 0.0,
			"0.022": 0.0,
			"0.023": 0.0,
			"0.024": 0.0,
			"0.025": 0.0
		}
	}
}
