{
	 "smiles": "CC1=C(NS(=O)(=O)C2=CC=C(C=C2)C(O)=O)C=CC=C1", 
	 "Tm": 530.15, 
	 "num_atms": 33, 
	 "gaussian": { 
		 "optdone": 1, 
		 "sigma_profile": "yes", 
		 "theory": "DFT", 
		 "functional": "B3LYP", 
		 "basiset": "6-31G**", 
		 "properties": { 
			 "R2extent": 7521.9289, 
			 "electric_dipole_moment_norm": 4.94083654759, 
			 "electric_quadrupole_moment_norm": 23.4502600246, 
			 "total_energy": -1295.10043815, 
			 "HOMO_LUMO_gap": 0.17053, 
			 "cosmo_polarized_energy": -23.41, 
			 "cosmo_cavitation_energy": 38.95, 
			 "cosmo_dispersion_energy": -27.36, 
			 "cosmo_repulsion_energy": 2.04, 
			 "cosmo_total_nonelectrostatic_energy": 13.63, 
			 "SMD_solvation_energy": 6.92 
		},
		"coords": [
			{
				"x": -0.9457983167,
				"y": -3.9903478974,
				"z": -0.5520605325,
				"element": "C" 
			},
			{
				"x": -0.1973293241,
				"y": -3.1093623881,
				"z": -1.5223147187,
				"element": "C" 
			},
			{
				"x": 0.6759710593,
				"y": -2.0979263664,
				"z": -1.0743799864,
				"element": "C" 
			},
			{
				"x": 0.930653572,
				"y": -1.8929336438,
				"z": 0.3260029806,
				"element": "N" 
			},
			{
				"x": -0.0568348414,
				"y": -0.8285287836,
				"z": 1.2226847831,
				"element": "S" 
			},
			{
				"x": -1.3948427661,
				"y": -0.7241502224,
				"z": 0.6335349366,
				"element": "O" 
			},
			{
				"x": 0.1414338289,
				"y": -1.2467096477,
				"z": 2.6140676883,
				"element": "O" 
			},
			{
				"x": 0.7484740224,
				"y": 0.7605821283,
				"z": 0.9842191032,
				"element": "C" 
			},
			{
				"x": 0.2176917706,
				"y": 1.6672286349,
				"z": 0.0648498459,
				"element": "C" 
			},
			{
				"x": 0.842518563,
				"y": 2.9003664688,
				"z": -0.1034189143,
				"element": "C" 
			},
			{
				"x": 1.9922265698,
				"y": 3.2186810307,
				"z": 0.6308187502,
				"element": "C" 
			},
			{
				"x": 2.4934783968,
				"y": 2.3028931818,
				"z": 1.5688135465,
				"element": "C" 
			},
			{
				"x": 1.8726465102,
				"y": 1.0698701403,
				"z": 1.7513954488,
				"element": "C" 
			},
			{
				"x": 2.6099781425,
				"y": 4.5692397592,
				"z": 0.3968677849,
				"element": "C" 
			},
			{
				"x": 3.9071082824,
				"y": 4.7233587101,
				"z": 0.7688044857,
				"element": "O" 
			},
			{
				"x": 2.0063733272,
				"y": 5.4905313349,
				"z": -0.0979537496,
				"element": "O" 
			},
			{
				"x": 1.3486388537,
				"y": -1.2763386205,
				"z": -1.9836257906,
				"element": "C" 
			},
			{
				"x": 1.1548878705,
				"y": -1.435437907,
				"z": -3.3549020507,
				"element": "C" 
			},
			{
				"x": 0.3017589442,
				"y": -2.4379705661,
				"z": -3.8150507222,
				"element": "C" 
			},
			{
				"x": -0.3567166086,
				"y": -3.2652906015,
				"z": -2.9042608037,
				"element": "C" 
			},
			{
				"x": -0.2693502219,
				"y": -4.5660646444,
				"z": 0.0929857337,
				"element": "H" 
			},
			{
				"x": -1.5931158223,
				"y": -3.393842662,
				"z": 0.0988455783,
				"element": "H" 
			},
			{
				"x": -1.5709509279,
				"y": -4.70949551,
				"z": -1.0866614754,
				"element": "H" 
			},
			{
				"x": 1.0009641434,
				"y": -2.7419570199,
				"z": 0.8827382472,
				"element": "H" 
			},
			{
				"x": -0.6756868321,
				"y": 1.4071856747,
				"z": -0.4914350494,
				"element": "H" 
			},
			{
				"x": 0.4518527929,
				"y": 3.6356181541,
				"z": -0.7982158346,
				"element": "H" 
			},
			{
				"x": 3.3431842919,
				"y": 2.556710522,
				"z": 2.1975050264,
				"element": "H" 
			},
			{
				"x": 2.2367441254,
				"y": 0.3641160788,
				"z": 2.4896385801,
				"element": "H" 
			},
			{
				"x": 4.3001777288,
				"y": 3.8691173547,
				"z": 0.9946905634,
				"element": "H" 
			},
			{
				"x": 2.0320673287,
				"y": -0.5254733272,
				"z": -1.6009555233,
				"element": "H" 
			},
			{
				"x": 1.6779853636,
				"y": -0.7919164491,
				"z": -4.0556916564,
				"element": "H" 
			},
			{
				"x": 0.1492527378,
				"y": -2.5798582261,
				"z": -4.8809472461,
				"element": "H" 
			},
			{
				"x": -1.0211425649,
				"y": -4.0438946897,
				"z": -3.2694890289,
				"element": "H" 
			}
		],
		 "valence_orbital": [ 
			{
				"type": "occ",
				"energy": -0.29082,
				"method": "rhf"
			},
			{
				"type": "occ",
				"energy": -0.28916,
				"method": "rhf"
			},
			{
				"type": "occ",
				"energy": -0.27925,
				"method": "rhf"
			},
			{
				"type": "occ",
				"energy": -0.2576,
				"method": "rhf"
			},
			{
				"type": "occ",
				"energy": -0.24853,
				"method": "rhf"
			},
			{
				"type": "unocc",
				"energy": -0.078,
				"method": "rhf"
			},
			{
				"type": "unocc",
				"energy": -0.04149,
				"method": "rhf"
			},
			{
				"type": "unocc",
				"energy": -0.02326,
				"method": "rhf"
			},
			{
				"type": "unocc",
				"energy": -0.01109,
				"method": "rhf"
			},
			{
				"type": "unocc",
				"energy": 0.01883,
				"method": "rhf"
			}
		],
		"cosmo_sigma_profile": { 
			"-0.025": 0.0,
			"-0.024": 0.0,
			"-0.023": 0.0,
			"-0.022": 0.0,
			"-0.021": 0.0,
			"-0.02": 0.0662020388606,
			"-0.019": 0.645746155678,
			"-0.018": 1.34176381285,
			"-0.017": 0.971850185193,
			"-0.016": 0.954447587335,
			"-0.015": 0.834251149511,
			"-0.014": 1.67854406344,
			"-0.013": 2.17409263901,
			"-0.012": 2.47743198781,
			"-0.011": 2.28086024616,
			"-0.01": 2.75098842135,
			"-0.009": 3.8705803662,
			"-0.008": 6.66822238596,
			"-0.007": 7.46564834351,
			"-0.006": 14.2537724389,
			"-0.005": 17.921622552,
			"-0.004": 20.8770732147,
			"-0.003": 19.1754894979,
			"-0.002": 21.4587795617,
			"-0.001": 21.9801898245,
			"0.0": 29.129730398,
			"0.001": 21.0540518858,
			"0.002": 13.3309640498,
			"0.003": 12.6492614322,
			"0.004": 14.6878526606,
			"0.005": 13.2955624022,
			"0.006": 7.2742786166,
			"0.007": 6.20211091751,
			"0.008": 7.32333531858,
			"0.009": 8.3510785366,
			"0.01": 13.6137168914,
			"0.011": 10.8486499044,
			"0.012": 3.28089699188,
			"0.013": 0.638682437053,
			"0.014": 0.0,
			"0.015": 0.0,
			"0.016": 0.0,
			"0.017": 0.0,
			"0.018": 0.0,
			"0.019": 0.0,
			"0.02": 0.0,
			"0.021": 0.0,
			"0.022": 0.0,
			"0.023": 0.0,
			"0.024": 0.0,
			"0.0": 0.0
		}
	}
}
