{
	 "smiles": "CCOC(=O)CNC(=O)NCC(=O)OCC", 
	 "Tm": 420.15, 
	 "num_atms": 32, 
	 "gaussian": { 
		 "optdone": 1, 
		 "sigma_profile": "yes", 
		 "theory": "DFT", 
		 "functional": "B3LYP", 
		 "basiset": "6-31G**", 
		 "properties": { 
			 "R2extent": 4928.9709, 
			 "electric_dipole_moment_norm": 4.95963335943, 
			 "electric_quadrupole_moment_norm": 18.2239561811, 
			 "total_energy": -838.264274292, 
			 "HOMO_LUMO_gap": 0.23731, 
			 "cosmo_polarized_energy": -19.71, 
			 "cosmo_cavitation_energy": 36.57, 
			 "cosmo_dispersion_energy": -24.34, 
			 "cosmo_repulsion_energy": 1.98, 
			 "cosmo_total_nonelectrostatic_energy": 14.21, 
			 "SMD_solvation_energy": 8.26 
		},
		"coords": [
			{
				"x": -2.0778266787,
				"y": 0.9760610228,
				"z": -1.7838614775,
				"element": "C" 
			},
			{
				"x": -0.9052333843,
				"y": 1.8620211538,
				"z": -2.1586438984,
				"element": "C" 
			},
			{
				"x": 0.285815702,
				"y": 1.2698851676,
				"z": -1.5810193656,
				"element": "O" 
			},
			{
				"x": 1.4109623102,
				"y": 2.0031317121,
				"z": -1.6647574974,
				"element": "C" 
			},
			{
				"x": 1.4804606225,
				"y": 3.087380954,
				"z": -2.2013891497,
				"element": "O" 
			},
			{
				"x": 2.6078391388,
				"y": 1.3572781676,
				"z": -0.9623814504,
				"element": "C" 
			},
			{
				"x": 2.5680223699,
				"y": -0.0829634868,
				"z": -0.7949722408,
				"element": "N" 
			},
			{
				"x": 2.7629490211,
				"y": -0.7539095733,
				"z": 0.4107959824,
				"element": "C" 
			},
			{
				"x": 3.3719445543,
				"y": -1.8133916117,
				"z": 0.4589890992,
				"element": "O" 
			},
			{
				"x": 2.2346629528,
				"y": -0.1453980692,
				"z": 1.5441538144,
				"element": "N" 
			},
			{
				"x": 0.9326194683,
				"y": 0.501757494,
				"z": 1.5643814604,
				"element": "C" 
			},
			{
				"x": 0.0254107859,
				"y": -0.1508088886,
				"z": 2.5979044721,
				"element": "C" 
			},
			{
				"x": 0.3904747057,
				"y": -0.9789092617,
				"z": 3.4047525383,
				"element": "O" 
			},
			{
				"x": -1.220837895,
				"y": 0.3475294062,
				"z": 2.5108410628,
				"element": "O" 
			},
			{
				"x": -2.1905996902,
				"y": -0.1511086354,
				"z": 3.4713553599,
				"element": "C" 
			},
			{
				"x": -2.832062331,
				"y": -1.4419352483,
				"z": 2.9879906251,
				"element": "C" 
			},
			{
				"x": -3.0011554446,
				"y": 1.387460817,
				"z": -2.2033732144,
				"element": "H" 
			},
			{
				"x": -2.1897889947,
				"y": 0.9164527621,
				"z": -0.6969136756,
				"element": "H" 
			},
			{
				"x": -1.9442220214,
				"y": -0.0370039922,
				"z": -2.1736853438,
				"element": "H" 
			},
			{
				"x": -0.7674424961,
				"y": 1.9305871243,
				"z": -3.2423412232,
				"element": "H" 
			},
			{
				"x": -1.0131618608,
				"y": 2.8803399,
				"z": -1.7741519514,
				"element": "H" 
			},
			{
				"x": 2.6988432016,
				"y": 1.8351910668,
				"z": 0.0184377468,
				"element": "H" 
			},
			{
				"x": 3.4906715305,
				"y": 1.6700640836,
				"z": -1.53099582,
				"element": "H" 
			},
			{
				"x": 2.97903168,
				"y": -0.6177974107,
				"z": -1.5482563398,
				"element": "H" 
			},
			{
				"x": 2.3820698263,
				"y": -0.7382886929,
				"z": 2.3555377159,
				"element": "H" 
			},
			{
				"x": 0.9984571488,
				"y": 1.568152971,
				"z": 1.8279331289,
				"element": "H" 
			},
			{
				"x": 0.4490848722,
				"y": 0.4488996367,
				"z": 0.5863014245,
				"element": "H" 
			},
			{
				"x": -2.9217605578,
				"y": 0.6558165622,
				"z": 3.5574659806,
				"element": "H" 
			},
			{
				"x": -1.6894294924,
				"y": -0.2924087757,
				"z": 4.431629306,
				"element": "H" 
			},
			{
				"x": -3.2944638434,
				"y": -1.304906891,
				"z": 2.0060809568,
				"element": "H" 
			},
			{
				"x": -3.6097605774,
				"y": -1.7539230473,
				"z": 3.6928719534,
				"element": "H" 
			},
			{
				"x": -2.089374623,
				"y": -2.2406564168,
				"z": 2.9225200203,
				"element": "H" 
			}
		],
		 "valence_orbital": [ 
			{
				"type": "occ",
				"energy": -0.29456,
				"method": "rhf"
			},
			{
				"type": "occ",
				"energy": -0.28923,
				"method": "rhf"
			},
			{
				"type": "occ",
				"energy": -0.2695,
				"method": "rhf"
			},
			{
				"type": "occ",
				"energy": -0.25667,
				"method": "rhf"
			},
			{
				"type": "occ",
				"energy": -0.23861,
				"method": "rhf"
			},
			{
				"type": "unocc",
				"energy": -0.0013,
				"method": "rhf"
			},
			{
				"type": "unocc",
				"energy": 0.0005,
				"method": "rhf"
			},
			{
				"type": "unocc",
				"energy": 0.0467,
				"method": "rhf"
			},
			{
				"type": "unocc",
				"energy": 0.07499,
				"method": "rhf"
			},
			{
				"type": "unocc",
				"energy": 0.08495,
				"method": "rhf"
			}
		],
		"cosmo_sigma_profile": { 
			"-0.025": 0.0,
			"-0.024": 0.0,
			"-0.023": 0.0,
			"-0.022": 0.0,
			"-0.021": 0.0,
			"-0.02": 0.0,
			"-0.019": 0.0,
			"-0.018": 0.0,
			"-0.017": 0.0,
			"-0.016": 0.0,
			"-0.015": 0.0,
			"-0.014": 0.511173297578,
			"-0.013": 1.22978693439,
			"-0.012": 1.50152018069,
			"-0.011": 1.05670559377,
			"-0.01": 1.4517183788,
			"-0.009": 2.89492736598,
			"-0.008": 5.41525722036,
			"-0.007": 8.69312113082,
			"-0.006": 11.778514914,
			"-0.005": 20.1788133218,
			"-0.004": 30.2047502107,
			"-0.003": 29.6712695462,
			"-0.002": 27.0276439801,
			"-0.001": 25.5321670741,
			"0.0": 23.4380517142,
			"0.001": 12.7135683398,
			"0.002": 8.54127581775,
			"0.003": 7.86461499514,
			"0.004": 7.83808013524,
			"0.005": 6.03518740197,
			"0.006": 5.26280768922,
			"0.007": 5.77135992735,
			"0.008": 5.97245184334,
			"0.009": 4.83848685179,
			"0.01": 5.06303252067,
			"0.011": 8.94842312354,
			"0.012": 6.33152377774,
			"0.013": 3.82976927081,
			"0.014": 6.37437751469,
			"0.015": 1.02259147044,
			"0.016": 0.0,
			"0.017": 0.0,
			"0.018": 0.0,
			"0.019": 0.0,
			"0.02": 0.0,
			"0.021": 0.0,
			"0.022": 0.0,
			"0.023": 0.0,
			"0.024": 0.0,
			"0.025": 0.0
		}
	}
}
