{
	 "smiles": "CCCCCCCCCCCCCC(=O)OCC", 
	 "Tm": 285.35, 
	 "num_atms": 50, 
	 "gaussian": { 
		 "optdone": 1, 
		 "sigma_profile": "yes", 
		 "theory": "DFT", 
		 "functional": "B3LYP", 
		 "basiset": "6-31G**", 
		 "properties": { 
			 "R2extent": 9407.4966, 
			 "electric_dipole_moment_norm": 1.66965116417, 
			 "electric_quadrupole_moment_norm": 5.83387578716, 
			 "total_energy": -779.490144138, 
			 "HOMO_LUMO_gap": 0.27725, 
			 "cosmo_polarized_energy": -6.51, 
			 "cosmo_cavitation_energy": 49.39, 
			 "cosmo_dispersion_energy": -32.42, 
			 "cosmo_repulsion_energy": 2.64, 
			 "cosmo_total_nonelectrostatic_energy": 19.61, 
			 "SMD_solvation_energy": 7.75 
		},
		"coords": [
			{
				"x": 2.7962270972,
				"y": -2.9708640914,
				"z": 4.1178797806,
				"element": "C" 
			},
			{
				"x": 1.5668578596,
				"y": -3.8776455175,
				"z": 4.2493614474,
				"element": "C" 
			},
			{
				"x": 0.562682534,
				"y": -3.75634361,
				"z": 3.0890458167,
				"element": "C" 
			},
			{
				"x": -0.102506694,
				"y": -2.379212777,
				"z": 2.9082174908,
				"element": "C" 
			},
			{
				"x": -0.9992687019,
				"y": -1.9530917337,
				"z": 4.0793690573,
				"element": "C" 
			},
			{
				"x": -1.6714381491,
				"y": -0.5750201251,
				"z": 3.9341641894,
				"element": "C" 
			},
			{
				"x": -2.6758199357,
				"y": -0.446849402,
				"z": 2.763832451,
				"element": "C" 
			},
			{
				"x": -2.1177891389,
				"y": 0.164240574,
				"z": 1.4632516747,
				"element": "C" 
			},
			{
				"x": -1.8664221679,
				"y": 1.6777095286,
				"z": 1.5526391573,
				"element": "C" 
			},
			{
				"x": -1.2049222715,
				"y": 2.289814407,
				"z": 0.3062852685,
				"element": "C" 
			},
			{
				"x": -2.0608716665,
				"y": 2.2114489826,
				"z": -0.9669557942,
				"element": "C" 
			},
			{
				"x": -1.5028913256,
				"y": 3.0063390476,
				"z": -2.1592561817,
				"element": "C" 
			},
			{
				"x": -0.0884062651,
				"y": 2.5884728468,
				"z": -2.6246491489,
				"element": "C" 
			},
			{
				"x": -0.0185300809,
				"y": 1.1241920244,
				"z": -3.0023964794,
				"element": "C" 
			},
			{
				"x": 0.4198475226,
				"y": 0.2396634865,
				"z": -2.29517953,
				"element": "O" 
			},
			{
				"x": -0.5418173735,
				"y": 0.9136016077,
				"z": -4.2340160975,
				"element": "O" 
			},
			{
				"x": -0.5746362984,
				"y": -0.4566362357,
				"z": -4.6994882714,
				"element": "C" 
			},
			{
				"x": -1.8196920795,
				"y": -1.1808027749,
				"z": -4.2094605894,
				"element": "C" 
			},
			{
				"x": 2.5265134407,
				"y": -1.9098683566,
				"z": 4.1413968329,
				"element": "H" 
			},
			{
				"x": 3.3237282889,
				"y": -3.1553378376,
				"z": 3.1746166527,
				"element": "H" 
			},
			{
				"x": 3.504723733,
				"y": -3.1461472792,
				"z": 4.9343708637,
				"element": "H" 
			},
			{
				"x": 1.8995658251,
				"y": -4.9221872079,
				"z": 4.3059813128,
				"element": "H" 
			},
			{
				"x": 1.0639021325,
				"y": -3.6748996859,
				"z": 5.2034841703,
				"element": "H" 
			},
			{
				"x": 1.0771294302,
				"y": -4.0204198906,
				"z": 2.154818063,
				"element": "H" 
			},
			{
				"x": -0.2242292751,
				"y": -4.511419834,
				"z": 3.2244956862,
				"element": "H" 
			},
			{
				"x": -0.6982077975,
				"y": -2.4122907763,
				"z": 1.9879941065,
				"element": "H" 
			},
			{
				"x": 0.6653518192,
				"y": -1.6122620786,
				"z": 2.7388274607,
				"element": "H" 
			},
			{
				"x": -0.4096143491,
				"y": -1.9466227086,
				"z": 5.0052243441,
				"element": "H" 
			},
			{
				"x": -1.7794867852,
				"y": -2.7148551988,
				"z": 4.2255199437,
				"element": "H" 
			},
			{
				"x": -2.1922546413,
				"y": -0.36118796,
				"z": 4.8757683611,
				"element": "H" 
			},
			{
				"x": -0.8948209822,
				"y": 0.1969663035,
				"z": 3.8467442622,
				"element": "H" 
			},
			{
				"x": -3.5285335641,
				"y": 0.1663310967,
				"z": 3.0850230658,
				"element": "H" 
			},
			{
				"x": -3.0936309024,
				"y": -1.4391239073,
				"z": 2.5464107033,
				"element": "H" 
			},
			{
				"x": -2.8299106249,
				"y": -0.0354346247,
				"z": 0.6526852745,
				"element": "H" 
			},
			{
				"x": -1.1854414688,
				"y": -0.3387502201,
				"z": 1.1774964237,
				"element": "H" 
			},
			{
				"x": -1.2284403025,
				"y": 1.8897845253,
				"z": 2.4203585087,
				"element": "H" 
			},
			{
				"x": -2.820624418,
				"y": 2.1889786858,
				"z": 1.7482994284,
				"element": "H" 
			},
			{
				"x": -0.2457840563,
				"y": 1.7869924347,
				"z": 0.1302043414,
				"element": "H" 
			},
			{
				"x": -0.9723375287,
				"y": 3.3443256202,
				"z": 0.5128863909,
				"element": "H" 
			},
			{
				"x": -2.1903375219,
				"y": 1.1622310787,
				"z": -1.2591331293,
				"element": "H" 
			},
			{
				"x": -3.0682459606,
				"y": 2.5917014919,
				"z": -0.7479507378,
				"element": "H" 
			},
			{
				"x": -2.1891614523,
				"y": 2.9143726752,
				"z": -3.0090683053,
				"element": "H" 
			},
			{
				"x": -1.465481387,
				"y": 4.0724367253,
				"z": -1.901383022,
				"element": "H" 
			},
			{
				"x": 0.194998473,
				"y": 3.1936263059,
				"z": -3.4915620644,
				"element": "H" 
			},
			{
				"x": 0.6447233473,
				"y": 2.7534603501,
				"z": -1.8321718437,
				"element": "H" 
			},
			{
				"x": -0.563092411,
				"y": -0.3742668255,
				"z": -5.7891015808,
				"element": "H" 
			},
			{
				"x": 0.3327450112,
				"y": -0.9644050965,
				"z": -4.3637058851,
				"element": "H" 
			},
			{
				"x": -1.8604999841,
				"y": -2.186038998,
				"z": -4.6422770821,
				"element": "H" 
			},
			{
				"x": -1.8033142295,
				"y": -1.2779664375,
				"z": -3.121151896,
				"element": "H" 
			},
			{
				"x": -2.7255347238,
				"y": -0.6431386075,
				"z": -4.5051448914,
				"element": "H" 
			}
		],
		 "valence_orbital": [ 
			{
				"type": "occ",
				"energy": -0.29989,
				"method": "rhf"
			},
			{
				"type": "occ",
				"energy": -0.29445,
				"method": "rhf"
			},
			{
				"type": "occ",
				"energy": -0.29362,
				"method": "rhf"
			},
			{
				"type": "occ",
				"energy": -0.29062,
				"method": "rhf"
			},
			{
				"type": "occ",
				"energy": -0.26329,
				"method": "rhf"
			},
			{
				"type": "unocc",
				"energy": 0.01396,
				"method": "rhf"
			},
			{
				"type": "unocc",
				"energy": 0.08427,
				"method": "rhf"
			},
			{
				"type": "unocc",
				"energy": 0.08844,
				"method": "rhf"
			},
			{
				"type": "unocc",
				"energy": 0.10209,
				"method": "rhf"
			},
			{
				"type": "unocc",
				"energy": 0.10491,
				"method": "rhf"
			}
		],
		"cosmo_sigma_profile": { 
			"-0.025": 0.0,
			"-0.024": 0.0,
			"-0.023": 0.0,
			"-0.022": 0.0,
			"-0.021": 0.0,
			"-0.02": 0.0,
			"-0.019": 0.0,
			"-0.018": 0.0,
			"-0.017": 0.0,
			"-0.016": 0.0,
			"-0.015": 0.0,
			"-0.014": 0.0,
			"-0.013": 0.0,
			"-0.012": 0.0,
			"-0.011": 0.0,
			"-0.01": 0.0,
			"-0.009": 0.0,
			"-0.008": 0.0,
			"-0.007": 0.0,
			"-0.006": 1.23742787679,
			"-0.005": 5.33871510104,
			"-0.004": 14.1749554227,
			"-0.003": 21.5709034175,
			"-0.002": 56.230340154,
			"-0.001": 75.423827029,
			"0.0": 85.4708219878,
			"0.001": 61.7781763792,
			"0.002": 25.9280730427,
			"0.003": 4.56397085254,
			"0.004": 4.38431992694,
			"0.005": 3.37064690664,
			"0.006": 2.94931612684,
			"0.007": 2.83319667699,
			"0.008": 2.71954871419,
			"0.009": 2.26407522482,
			"0.01": 1.93662004148,
			"0.011": 1.97178850105,
			"0.012": 3.39284935306,
			"0.013": 1.70236050871,
			"0.014": 0.0,
			"0.015": 0.0,
			"0.016": 0.0,
			"0.017": 0.0,
			"0.018": 0.0,
			"0.019": 0.0,
			"0.02": 0.0,
			"0.021": 0.0,
			"0.022": 0.0,
			"0.023": 0.0,
			"0.024": 0.0,
			"0.025": 0.0
		}
	}
}
