{
	 "smiles": "[O-][N+](=O)C1=C(I)C=C(Cl)C=C1", 
	 "Tm": 336.15, 
	 "num_atms": 14, 
	 "gaussian": { 
		 "optdone": 1, 
		 "sigma_profile": "yes", 
		 "theory": "DFT", 
		 "functional": "B3LYP", 
		 "basiset": "6-31G**", 
		 "properties": { 
			 "R2extent": 3242.7349, 
			 "electric_dipole_moment_norm": 2.63427050054, 
			 "electric_quadrupole_moment_norm": 12.2730938756, 
			 "total_energy": -907.102849105, 
			 "HOMO_LUMO_gap": 0.17902, 
			 "cosmo_polarized_energy": -8.32, 
			 "cosmo_cavitation_energy": 24.86, 
			 "cosmo_dispersion_energy": -19.12, 
			 "cosmo_repulsion_energy": 1.51, 
			 "cosmo_total_nonelectrostatic_energy": 7.25, 
			 "SMD_solvation_energy": 5.83 
		},
		"coords": [
			{
				"x": -1.9471359663,
				"y": 1.9668520525,
				"z": 0.0637230434,
				"element": "O" 
			},
			{
				"x": -2.3567049331,
				"y": 0.8121221192,
				"z": 0.0288262114,
				"element": "N" 
			},
			{
				"x": -3.4075595891,
				"y": 0.3970083139,
				"z": 0.5039454315,
				"element": "O" 
			},
			{
				"x": -1.4832961456,
				"y": -0.1838381582,
				"z": -0.625380547,
				"element": "C" 
			},
			{
				"x": -1.5961398441,
				"y": -0.4619848883,
				"z": -1.9875124682,
				"element": "C" 
			},
			{
				"x": -3.0108321779,
				"y": 0.5085200095,
				"z": -3.2127035978,
				"element": "I" 
			},
			{
				"x": -0.7448944492,
				"y": -1.4132087868,
				"z": -2.5562982912,
				"element": "C" 
			},
			{
				"x": 0.1942643251,
				"y": -2.0602931681,
				"z": -1.7529035873,
				"element": "C" 
			},
			{
				"x": 1.2545433109,
				"y": -3.2496271928,
				"z": -2.4769975152,
				"element": "Cl" 
			},
			{
				"x": 0.3046636869,
				"y": -1.7797823287,
				"z": -0.3905053559,
				"element": "C" 
			},
			{
				"x": -0.5444685027,
				"y": -0.8320786474,
				"z": 0.172643175,
				"element": "C" 
			},
			{
				"x": -0.8105727671,
				"y": -1.6488084807,
				"z": -3.6111802156,
				"element": "H" 
			},
			{
				"x": 1.0405353829,
				"y": -2.2929791635,
				"z": 0.2171361191,
				"element": "H" 
			},
			{
				"x": -0.4818023308,
				"y": -0.5932016805,
				"z": 1.2291075979,
				"element": "H" 
			}
		],
		 "valence_orbital": [ 
			{
				"type": "occ",
				"energy": -0.31831,
				"method": "rhf"
			},
			{
				"type": "occ",
				"energy": -0.3173,
				"method": "rhf"
			},
			{
				"type": "occ",
				"energy": -0.28993,
				"method": "rhf"
			},
			{
				"type": "occ",
				"energy": -0.27767,
				"method": "rhf"
			},
			{
				"type": "occ",
				"energy": -0.26476,
				"method": "rhf"
			},
			{
				"type": "unocc",
				"energy": -0.08574,
				"method": "rhf"
			},
			{
				"type": "unocc",
				"energy": -0.06463,
				"method": "rhf"
			},
			{
				"type": "unocc",
				"energy": -0.0533,
				"method": "rhf"
			},
			{
				"type": "unocc",
				"energy": -0.05052,
				"method": "rhf"
			},
			{
				"type": "unocc",
				"energy": 0.01251,
				"method": "rhf"
			}
		],
		"cosmo_sigma_profile": { 
			"-0.025": 0.0,
			"-0.024": 0.0,
			"-0.023": 0.0,
			"-0.022": 0.0,
			"-0.021": 0.0,
			"-0.02": 0.0,
			"-0.019": 0.0,
			"-0.018": 0.0,
			"-0.017": 0.0,
			"-0.016": 0.0,
			"-0.015": 0.0,
			"-0.014": 0.0,
			"-0.013": 0.0,
			"-0.012": 0.19308660764,
			"-0.011": 0.950701861223,
			"-0.01": 2.18028128526,
			"-0.009": 5.55311770096,
			"-0.008": 7.38593966269,
			"-0.007": 6.25244121097,
			"-0.006": 6.57595201603,
			"-0.005": 7.11969986888,
			"-0.004": 5.78005588069,
			"-0.003": 8.38160549952,
			"-0.002": 11.8148015802,
			"-0.001": 22.8401201509,
			"0.0": 28.6324266354,
			"0.001": 17.277001274,
			"0.002": 16.6346710963,
			"0.003": 21.233352566,
			"0.004": 9.7073308238,
			"0.005": 3.47990176876,
			"0.006": 7.80421265955,
			"0.007": 10.5199896327,
			"0.008": 5.80289972347,
			"0.009": 1.75253077681,
			"0.01": 0.00826722026677,
			"0.011": 0.0,
			"0.012": 0.0,
			"0.013": 0.0,
			"0.014": 0.0,
			"0.015": 0.0,
			"0.016": 0.0,
			"0.017": 0.0,
			"0.018": 0.0,
			"0.019": 0.0,
			"0.02": 0.0,
			"0.021": 0.0,
			"0.022": 0.0,
			"0.023": 0.0,
			"0.024": 0.0,
			"0.025": 0.0
		}
	}
}
