{
	 "smiles": "FC1=C(F)C(F)=C(CBr)C(F)=C1F", 
	 "Tm": 292.15, 
	 "num_atms": 15, 
	 "gaussian": { 
		 "optdone": 1, 
		 "sigma_profile": "yes", 
		 "theory": "DFT", 
		 "functional": "B3LYP", 
		 "basiset": "6-31G**", 
		 "properties": { 
			 "R2extent": 3629.0308, 
			 "electric_dipole_moment_norm": 1.67559656541, 
			 "electric_quadrupole_moment_norm": 9.00758058748, 
			 "total_energy": -3338.49333366, 
			 "HOMO_LUMO_gap": 0.20555, 
			 "cosmo_polarized_energy": -4.95, 
			 "cosmo_cavitation_energy": 25.02, 
			 "cosmo_dispersion_energy": -17.63, 
			 "cosmo_repulsion_energy": 1.3, 
			 "cosmo_total_nonelectrostatic_energy": 8.69, 
			 "SMD_solvation_energy": 5.49 
		},
		"coords": [
			{
				"x": -1.7905993212,
				"y": 2.8542727379,
				"z": -0.0350973597,
				"element": "F" 
			},
			{
				"x": -1.1141173048,
				"y": 1.7582510827,
				"z": -0.3809666294,
				"element": "C" 
			},
			{
				"x": 0.2567984592,
				"y": 1.6810538029,
				"z": -0.1395708408,
				"element": "C" 
			},
			{
				"x": 0.8914478929,
				"y": 2.7055816926,
				"z": 0.4375242363,
				"element": "F" 
			},
			{
				"x": 0.950916104,
				"y": 0.5318019502,
				"z": -0.5053454822,
				"element": "C" 
			},
			{
				"x": 2.2690056916,
				"y": 0.4784100974,
				"z": -0.268420658,
				"element": "F" 
			},
			{
				"x": 0.3153861707,
				"y": -0.5520005736,
				"z": -1.118523615,
				"element": "C" 
			},
			{
				"x": 1.0701383935,
				"y": -1.7767151105,
				"z": -1.5023790931,
				"element": "C" 
			},
			{
				"x": 1.1050637262,
				"y": -3.1255663187,
				"z": -0.0278016705,
				"element": "Br" 
			},
			{
				"x": -1.0599039656,
				"y": -0.4442073535,
				"z": -1.3454405918,
				"element": "C" 
			},
			{
				"x": -1.7148385968,
				"y": -1.4553014569,
				"z": -1.9328629424,
				"element": "F" 
			},
			{
				"x": -1.7774789774,
				"y": 0.6936188852,
				"z": -0.9893779516,
				"element": "C" 
			},
			{
				"x": -3.0902288836,
				"y": 0.7728800485,
				"z": -1.2257641066,
				"element": "F" 
			},
			{
				"x": 2.1152542963,
				"y": -1.5610188291,
				"z": -1.7067115256,
				"element": "H" 
			},
			{
				"x": 0.607256315,
				"y": -2.2920606551,
				"z": -2.3394617697,
				"element": "H" 
			}
		],
		 "valence_orbital": [ 
			{
				"type": "occ",
				"energy": -0.356,
				"method": "rhf"
			},
			{
				"type": "occ",
				"energy": -0.28937,
				"method": "rhf"
			},
			{
				"type": "occ",
				"energy": -0.28296,
				"method": "rhf"
			},
			{
				"type": "occ",
				"energy": -0.27016,
				"method": "rhf"
			},
			{
				"type": "occ",
				"energy": -0.26618,
				"method": "rhf"
			},
			{
				"type": "unocc",
				"energy": -0.06063,
				"method": "rhf"
			},
			{
				"type": "unocc",
				"energy": -0.0258,
				"method": "rhf"
			},
			{
				"type": "unocc",
				"energy": -0.00085,
				"method": "rhf"
			},
			{
				"type": "unocc",
				"energy": 0.0146,
				"method": "rhf"
			},
			{
				"type": "unocc",
				"energy": 0.09273,
				"method": "rhf"
			}
		],
		"cosmo_sigma_profile": { 
			"-0.025": 0.0,
			"-0.024": 0.0,
			"-0.023": 0.0,
			"-0.022": 0.0,
			"-0.021": 0.0,
			"-0.02": 0.0,
			"-0.019": 0.0,
			"-0.018": 0.0,
			"-0.017": 0.0,
			"-0.016": 0.0,
			"-0.015": 0.0,
			"-0.014": 0.0,
			"-0.013": 0.0,
			"-0.012": 0.0,
			"-0.011": 0.0,
			"-0.01": 0.0,
			"-0.009": 1.34783985975,
			"-0.008": 3.46363561955,
			"-0.007": 4.40681831143,
			"-0.006": 4.5764749906,
			"-0.005": 6.89969760604,
			"-0.004": 18.8082075552,
			"-0.003": 17.694905866,
			"-0.002": 11.858906412,
			"-0.001": 12.43032709,
			"0.0": 12.8537274804,
			"0.001": 17.1010664295,
			"0.002": 46.2997262849,
			"0.003": 26.9022133296,
			"0.004": 6.2517173638,
			"0.005": 9.71433738612,
			"0.006": 5.39714659598,
			"0.007": 0.0,
			"0.008": 0.0,
			"0.009": 0.0,
			"0.01": 0.0,
			"0.011": 0.0,
			"0.012": 0.0,
			"0.013": 0.0,
			"0.014": 0.0,
			"0.015": 0.0,
			"0.016": 0.0,
			"0.017": 0.0,
			"0.018": 0.0,
			"0.019": 0.0,
			"0.02": 0.0,
			"0.021": 0.0,
			"0.022": 0.0,
			"0.023": 0.0,
			"0.024": 0.0,
			"0.025": 0.0
		}
	}
}
