{
	 "smiles": "NC1=CC(=NO1)C1CC1", 
	 "Tm": 326.15, 
	 "num_atms": 17, 
	 "gaussian": { 
		 "optdone": 1, 
		 "sigma_profile": "yes", 
		 "theory": "DFT", 
		 "functional": "B3LYP", 
		 "basiset": "6-31G**", 
		 "properties": { 
			 "R2extent": 2201.4329, 
			 "electric_dipole_moment_norm": 3.48194491771, 
			 "electric_quadrupole_moment_norm": 13.2299416975, 
			 "total_energy": -418.106033198, 
			 "HOMO_LUMO_gap": 0.22609, 
			 "cosmo_polarized_energy": -12.79, 
			 "cosmo_cavitation_energy": 20.95, 
			 "cosmo_dispersion_energy": -15.74, 
			 "cosmo_repulsion_energy": 1.31, 
			 "cosmo_total_nonelectrostatic_energy": 6.52, 
			 "SMD_solvation_energy": 3.51 
		},
		"coords": [
			{
				"x": 2.642342369,
				"y": 0.617852085,
				"z": 0.2863382517,
				"element": "N" 
			},
			{
				"x": 1.7344231505,
				"y": -0.4151455576,
				"z": 0.3093202816,
				"element": "C" 
			},
			{
				"x": 0.3650528757,
				"y": -0.4673253098,
				"z": 0.3225732597,
				"element": "C" 
			},
			{
				"x": 0.0864622255,
				"y": -1.8631202198,
				"z": 0.2644865812,
				"element": "C" 
			},
			{
				"x": 1.182998985,
				"y": -2.5931561981,
				"z": 0.222476299,
				"element": "N" 
			},
			{
				"x": 2.2489365052,
				"y": -1.6536275014,
				"z": 0.2530768371,
				"element": "O" 
			},
			{
				"x": -1.2507537043,
				"y": -2.5011265927,
				"z": 0.2479209179,
				"element": "C" 
			},
			{
				"x": -1.4608286695,
				"y": -3.8442674834,
				"z": 0.9243941359,
				"element": "C" 
			},
			{
				"x": -1.4817186065,
				"y": -3.7583710274,
				"z": -0.572240234,
				"element": "C" 
			},
			{
				"x": 3.5745572435,
				"y": 0.35788793,
				"z": 0.5802552885,
				"element": "H" 
			},
			{
				"x": 2.3191277723,
				"y": 1.48002665,
				"z": 0.7007708249,
				"element": "H" 
			},
			{
				"x": -0.3356183724,
				"y": 0.3521169978,
				"z": 0.3572381746,
				"element": "H" 
			},
			{
				"x": -2.0733174231,
				"y": -1.7940792181,
				"z": 0.2991935858,
				"element": "H" 
			},
			{
				"x": -0.5879458219,
				"y": -4.2868037311,
				"z": 1.3928729797,
				"element": "H" 
			},
			{
				"x": -2.3974451608,
				"y": -4.0007460719,
				"z": 1.4512212478,
				"element": "H" 
			},
			{
				"x": -0.6227562647,
				"y": -4.1424196506,
				"z": -1.1125308894,
				"element": "H" 
			},
			{
				"x": -2.4327171036,
				"y": -3.854795101,
				"z": -1.0875675419,
				"element": "H" 
			}
		],
		 "valence_orbital": [ 
			{
				"type": "occ",
				"energy": -0.31924,
				"method": "rhf"
			},
			{
				"type": "occ",
				"energy": -0.30046,
				"method": "rhf"
			},
			{
				"type": "occ",
				"energy": -0.28458,
				"method": "rhf"
			},
			{
				"type": "occ",
				"energy": -0.25183,
				"method": "rhf"
			},
			{
				"type": "occ",
				"energy": -0.21199,
				"method": "rhf"
			},
			{
				"type": "unocc",
				"energy": 0.0141,
				"method": "rhf"
			},
			{
				"type": "unocc",
				"energy": 0.05963,
				"method": "rhf"
			},
			{
				"type": "unocc",
				"energy": 0.08292,
				"method": "rhf"
			},
			{
				"type": "unocc",
				"energy": 0.0968,
				"method": "rhf"
			},
			{
				"type": "unocc",
				"energy": 0.1087,
				"method": "rhf"
			}
		],
		"cosmo_sigma_profile": { 
			"-0.025": 0.0,
			"-0.024": 0.0,
			"-0.023": 0.0,
			"-0.022": 0.0,
			"-0.021": 0.0,
			"-0.02": 0.0,
			"-0.019": 0.0,
			"-0.018": 0.0,
			"-0.017": 0.0,
			"-0.016": 0.0,
			"-0.015": 0.417926350247,
			"-0.014": 2.53069033934,
			"-0.013": 2.47140763011,
			"-0.012": 3.02135846305,
			"-0.011": 2.10428284264,
			"-0.01": 2.58808580966,
			"-0.009": 2.21726334899,
			"-0.008": 2.32686383234,
			"-0.007": 3.47173176868,
			"-0.006": 5.07337189499,
			"-0.005": 9.53002758351,
			"-0.004": 13.3271825455,
			"-0.003": 8.33843153468,
			"-0.002": 9.8271417903,
			"-0.001": 10.3688424701,
			"0.0": 9.85451131877,
			"0.001": 8.69904403623,
			"0.002": 9.60481485184,
			"0.003": 12.5578393373,
			"0.004": 13.5825245342,
			"0.005": 7.22451695953,
			"0.006": 4.29011686449,
			"0.007": 3.05369077299,
			"0.008": 3.45123906155,
			"0.009": 5.20766366117,
			"0.01": 3.18713780351,
			"0.011": 2.01869850723,
			"0.012": 1.99038468334,
			"0.013": 1.49005088227,
			"0.014": 1.10847178654,
			"0.015": 0.822312738767,
			"0.016": 0.187646475147,
			"0.017": 0.0,
			"0.018": 0.0,
			"0.019": 0.0,
			"0.02": 0.0,
			"0.021": 0.0,
			"0.022": 0.0,
			"0.023": 0.0,
			"0.024": 0.0,
			"0.025": 0.0
		}
	}
}
