{
	 "smiles": "OC1=C(F)C(F)=CC(F)=C1F", 
	 "Tm": 311.15, 
	 "num_atms": 13, 
	 "gaussian": { 
		 "optdone": 1, 
		 "sigma_profile": "yes", 
		 "theory": "DFT", 
		 "functional": "B3LYP", 
		 "basiset": "6-31G**", 
		 "properties": { 
			 "R2extent": 1814.1884, 
			 "electric_dipole_moment_norm": 1.35900446651, 
			 "electric_quadrupole_moment_norm": 7.98371743425, 
			 "total_energy": -704.371670372, 
			 "HOMO_LUMO_gap": 0.23188, 
			 "cosmo_polarized_energy": -6.15, 
			 "cosmo_cavitation_energy": 20.01, 
			 "cosmo_dispersion_energy": -14.43, 
			 "cosmo_repulsion_energy": 1.07, 
			 "cosmo_total_nonelectrostatic_energy": 6.65, 
			 "SMD_solvation_energy": 5.9 
		},
		"coords": [
			{
				"x": -2.6949738622,
				"y": 0.3627643819,
				"z": 0.852034976,
				"element": "O" 
			},
			{
				"x": -1.4932432694,
				"y": 0.5413066204,
				"z": 0.2561627406,
				"element": "C" 
			},
			{
				"x": -0.8888507129,
				"y": -0.5240559409,
				"z": -0.4190717217,
				"element": "C" 
			},
			{
				"x": -1.5038183635,
				"y": -1.7129864615,
				"z": -0.4708517521,
				"element": "F" 
			},
			{
				"x": 0.3479497793,
				"y": -0.3416474871,
				"z": -1.0329280437,
				"element": "C" 
			},
			{
				"x": 0.9012660722,
				"y": -1.3826913595,
				"z": -1.6725869284,
				"element": "F" 
			},
			{
				"x": 1.0112179719,
				"y": 0.8806725897,
				"z": -0.9965300154,
				"element": "C" 
			},
			{
				"x": 0.4069976128,
				"y": 1.936600371,
				"z": -0.3243821218,
				"element": "C" 
			},
			{
				"x": 1.0070757998,
				"y": 3.1348938537,
				"z": -0.2614079792,
				"element": "F" 
			},
			{
				"x": -0.8262963231,
				"y": 1.7691467279,
				"z": 0.2923965399,
				"element": "C" 
			},
			{
				"x": -1.4284328068,
				"y": 2.7871677918,
				"z": 0.9510948354,
				"element": "F" 
			},
			{
				"x": -2.9500504536,
				"y": 1.2017534766,
				"z": 1.2635621599,
				"element": "H" 
			},
			{
				"x": 1.9721585554,
				"y": 1.005075436,
				"z": -1.4790926896,
				"element": "H" 
			}
		],
		 "valence_orbital": [ 
			{
				"type": "occ",
				"energy": -0.39014,
				"method": "rhf"
			},
			{
				"type": "occ",
				"energy": -0.37897,
				"method": "rhf"
			},
			{
				"type": "occ",
				"energy": -0.34044,
				"method": "rhf"
			},
			{
				"type": "occ",
				"energy": -0.25209,
				"method": "rhf"
			},
			{
				"type": "occ",
				"energy": -0.24784,
				"method": "rhf"
			},
			{
				"type": "unocc",
				"energy": -0.01596,
				"method": "rhf"
			},
			{
				"type": "unocc",
				"energy": -0.00956,
				"method": "rhf"
			},
			{
				"type": "unocc",
				"energy": 0.0194,
				"method": "rhf"
			},
			{
				"type": "unocc",
				"energy": 0.08339,
				"method": "rhf"
			},
			{
				"type": "unocc",
				"energy": 0.10298,
				"method": "rhf"
			}
		],
		"cosmo_sigma_profile": { 
			"-0.025": 0.0,
			"-0.024": 0.0,
			"-0.023": 0.0,
			"-0.022": 0.0,
			"-0.021": 0.0,
			"-0.02": 0.0,
			"-0.019": 0.0,
			"-0.018": 0.250899425917,
			"-0.017": 0.751906146196,
			"-0.016": 0.86551942203,
			"-0.015": 0.718678345043,
			"-0.014": 0.704261011265,
			"-0.013": 0.355033292358,
			"-0.012": 1.23252861073,
			"-0.011": 1.25501490139,
			"-0.01": 1.38344221915,
			"-0.009": 2.62032383762,
			"-0.008": 1.75135388588,
			"-0.007": 2.58443647689,
			"-0.006": 3.18042914734,
			"-0.005": 2.93105909095,
			"-0.004": 3.14706035719,
			"-0.003": 3.91862532172,
			"-0.002": 18.4335880359,
			"-0.001": 19.355847405,
			"0.0": 13.5456630195,
			"0.001": 11.3104902301,
			"0.002": 14.6797243635,
			"0.003": 35.0849748612,
			"0.004": 12.0246257872,
			"0.005": 1.69186648867,
			"0.006": 1.84122346202,
			"0.007": 2.05192924168,
			"0.008": 2.00508299706,
			"0.009": 1.92752817966,
			"0.01": 0.497165279916,
			"0.011": 0.0,
			"0.012": 0.0,
			"0.013": 0.0,
			"0.014": 0.0,
			"0.015": 0.0,
			"0.016": 0.0,
			"0.017": 0.0,
			"0.018": 0.0,
			"0.019": 0.0,
			"0.02": 0.0,
			"0.021": 0.0,
			"0.022": 0.0,
			"0.023": 0.0,
			"0.024": 0.0,
			"0.025": 0.0
		}
	}
}
