{
	 "smiles": "FC(F)(F)C1=CC2=C(C=CN2)C=C1", 
	 "Tm": 376.15, 
	 "num_atms": 19, 
	 "gaussian": { 
		 "optdone": 1, 
		 "sigma_profile": "yes", 
		 "theory": "DFT", 
		 "functional": "B3LYP", 
		 "basiset": "6-31G**", 
		 "properties": { 
			 "R2extent": 2752.2706, 
			 "electric_dipole_moment_norm": 4.19610199113, 
			 "electric_quadrupole_moment_norm": 10.3724034992, 
			 "total_energy": -700.857510435, 
			 "HOMO_LUMO_gap": 0.1921, 
			 "cosmo_polarized_energy": -8.9, 
			 "cosmo_cavitation_energy": 24.55, 
			 "cosmo_dispersion_energy": -17.92, 
			 "cosmo_repulsion_energy": 1.34, 
			 "cosmo_total_nonelectrostatic_energy": 7.97, 
			 "SMD_solvation_energy": 5.31 
		},
		"coords": [
			{
				"x": 0.6255667378,
				"y": -3.615895378,
				"z": 0.3200307128,
				"element": "F" 
			},
			{
				"x": 1.5013357854,
				"y": -2.6330210368,
				"z": 0.0018231568,
				"element": "C" 
			},
			{
				"x": 2.1427607031,
				"y": -3.0444657716,
				"z": -1.1192160556,
				"element": "F" 
			},
			{
				"x": 2.4256930454,
				"y": -2.5848722695,
				"z": 0.9886623397,
				"element": "F" 
			},
			{
				"x": 0.8104895229,
				"y": -1.3155747654,
				"z": -0.2015440242,
				"element": "C" 
			},
			{
				"x": 1.2926097668,
				"y": -0.1698773795,
				"z": 0.4216410392,
				"element": "C" 
			},
			{
				"x": 0.6218804369,
				"y": 1.0277898439,
				"z": 0.164373718,
				"element": "C" 
			},
			{
				"x": -0.5098002505,
				"y": 1.1021391019,
				"z": -0.6967871049,
				"element": "C" 
			},
			{
				"x": -0.9280916774,
				"y": 2.4744988586,
				"z": -0.7181594527,
				"element": "C" 
			},
			{
				"x": -0.0724406488,
				"y": 3.1677059864,
				"z": 0.0983745867,
				"element": "C" 
			},
			{
				"x": 0.8624151887,
				"y": 2.3026162311,
				"z": 0.6335204472,
				"element": "N" 
			},
			{
				"x": -0.9694221766,
				"y": -0.0781704719,
				"z": -1.3101286521,
				"element": "C" 
			},
			{
				"x": -0.3111471301,
				"y": -1.2712034628,
				"z": -1.0607268773,
				"element": "C" 
			},
			{
				"x": 2.1521927736,
				"y": -0.2174099977,
				"z": 1.0808020105,
				"element": "H" 
			},
			{
				"x": -1.7580072241,
				"y": 2.8930051282,
				"z": -1.2690412086,
				"element": "H" 
			},
			{
				"x": -0.0497827312,
				"y": 4.2190867187,
				"z": 0.3472393854,
				"element": "H" 
			},
			{
				"x": 1.6037799399,
				"y": 2.5631477117,
				"z": 1.2630660704,
				"element": "H" 
			},
			{
				"x": -1.8318960426,
				"y": -0.0555748912,
				"z": -1.9697143001,
				"element": "H" 
			},
			{
				"x": -0.6575360193,
				"y": -2.1902241561,
				"z": -1.5218157911,
				"element": "H" 
			}
		],
		 "valence_orbital": [ 
			{
				"type": "occ",
				"energy": -0.34608,
				"method": "rhf"
			},
			{
				"type": "occ",
				"energy": -0.34233,
				"method": "rhf"
			},
			{
				"type": "occ",
				"energy": -0.28811,
				"method": "rhf"
			},
			{
				"type": "occ",
				"energy": -0.23299,
				"method": "rhf"
			},
			{
				"type": "occ",
				"energy": -0.21648,
				"method": "rhf"
			},
			{
				"type": "unocc",
				"energy": -0.02438,
				"method": "rhf"
			},
			{
				"type": "unocc",
				"energy": 0.00988,
				"method": "rhf"
			},
			{
				"type": "unocc",
				"energy": 0.05793,
				"method": "rhf"
			},
			{
				"type": "unocc",
				"energy": 0.07072,
				"method": "rhf"
			},
			{
				"type": "unocc",
				"energy": 0.11256,
				"method": "rhf"
			}
		],
		"cosmo_sigma_profile": { 
			"-0.025": 0.0,
			"-0.024": 0.0,
			"-0.023": 0.0,
			"-0.022": 0.0,
			"-0.021": 0.0,
			"-0.02": 0.0,
			"-0.019": 0.0,
			"-0.018": 0.0,
			"-0.017": 0.0,
			"-0.016": 1.04742661502,
			"-0.015": 1.6530287267,
			"-0.014": 1.32179898751,
			"-0.013": 1.44558914768,
			"-0.012": 1.22336768652,
			"-0.011": 1.04603319101,
			"-0.01": 1.91703148939,
			"-0.009": 1.41066529607,
			"-0.008": 4.11348926044,
			"-0.007": 3.86627806662,
			"-0.006": 7.49499012275,
			"-0.005": 8.85706887449,
			"-0.004": 9.24036857103,
			"-0.003": 9.46015631372,
			"-0.002": 8.41264233909,
			"-0.001": 9.06179393047,
			"0.0": 9.98471490601,
			"0.001": 12.5835262316,
			"0.002": 17.3415545954,
			"0.003": 40.9850118318,
			"0.004": 26.3824711614,
			"0.005": 12.8685224035,
			"0.006": 5.17411860973,
			"0.007": 0.582565111029,
			"0.008": 0.0,
			"0.009": 0.0,
			"0.01": 0.0,
			"0.011": 0.0,
			"0.012": 0.0,
			"0.013": 0.0,
			"0.014": 0.0,
			"0.015": 0.0,
			"0.016": 0.0,
			"0.017": 0.0,
			"0.018": 0.0,
			"0.019": 0.0,
			"0.02": 0.0,
			"0.021": 0.0,
			"0.022": 0.0,
			"0.023": 0.0,
			"0.024": 0.0,
			"0.025": 0.0
		}
	}
}
