{
	 "smiles": "CCCCCCCCC1=C(N)N2N=CN=C2N=C1CC", 
	 "Tm": 471.15, 
	 "num_atms": 45, 
	 "gaussian": { 
		 "optdone": 1, 
		 "sigma_profile": "yes", 
		 "theory": "DFT", 
		 "functional": "B3LYP", 
		 "basiset": "6-31G**", 
		 "properties": { 
			 "R2extent": 8466.5074, 
			 "electric_dipole_moment_norm": 6.15926655455, 
			 "electric_quadrupole_moment_norm": 24.5784465577, 
			 "total_energy": -860.441621642, 
			 "HOMO_LUMO_gap": 0.19086, 
			 "cosmo_polarized_energy": -17.25, 
			 "cosmo_cavitation_energy": 44.36, 
			 "cosmo_dispersion_energy": -30.94, 
			 "cosmo_repulsion_energy": 2.4, 
			 "cosmo_total_nonelectrostatic_energy": 15.82, 
			 "SMD_solvation_energy": 2.62 
		},
		"coords": [
			{
				"x": 3.2258573699,
				"y": 3.5754125025,
				"z": -2.7245300235,
				"element": "C" 
			},
			{
				"x": 4.0152348154,
				"y": 2.4300509555,
				"z": -2.0804120052,
				"element": "C" 
			},
			{
				"x": 3.4669500482,
				"y": 1.0131474274,
				"z": -2.3289371145,
				"element": "C" 
			},
			{
				"x": 2.0580736147,
				"y": 0.7258661182,
				"z": -1.758538542,
				"element": "C" 
			},
			{
				"x": 0.905883829,
				"y": 0.9466450947,
				"z": -2.7522870498,
				"element": "C" 
			},
			{
				"x": -0.5141343892,
				"y": 0.7107996061,
				"z": -2.2038331769,
				"element": "C" 
			},
			{
				"x": -0.8470783427,
				"y": -0.7492617316,
				"z": -1.8170563315,
				"element": "C" 
			},
			{
				"x": -0.6690631811,
				"y": -1.1398567328,
				"z": -0.3276022924,
				"element": "C" 
			},
			{
				"x": -1.6491237259,
				"y": -0.4905303668,
				"z": 0.6332520616,
				"element": "C" 
			},
			{
				"x": -1.2736312242,
				"y": 0.6318274914,
				"z": 1.3767531577,
				"element": "C" 
			},
			{
				"x": -0.0865724394,
				"y": 1.2960374112,
				"z": 1.3593641723,
				"element": "N" 
			},
			{
				"x": -2.2154341526,
				"y": 1.1527715404,
				"z": 2.2142390025,
				"element": "N" 
			},
			{
				"x": -2.0491159029,
				"y": 2.2311768414,
				"z": 3.0329424252,
				"element": "N" 
			},
			{
				"x": -3.2529051204,
				"y": 2.2885797521,
				"z": 3.61115394,
				"element": "C" 
			},
			{
				"x": -4.160934533,
				"y": 1.3599952575,
				"z": 3.2453426767,
				"element": "N" 
			},
			{
				"x": -3.4939396771,
				"y": 0.6234978276,
				"z": 2.3474635724,
				"element": "C" 
			},
			{
				"x": -3.8745726484,
				"y": -0.4547184485,
				"z": 1.6536228589,
				"element": "N" 
			},
			{
				"x": -2.9734106481,
				"y": -0.9917933686,
				"z": 0.8303225154,
				"element": "C" 
			},
			{
				"x": -3.4491016072,
				"y": -2.2579367368,
				"z": 0.1438469351,
				"element": "C" 
			},
			{
				"x": -3.2651417054,
				"y": -3.4946173109,
				"z": 1.04319569,
				"element": "C" 
			},
			{
				"x": 3.1281979417,
				"y": 3.4327001942,
				"z": -3.8068991133,
				"element": "H" 
			},
			{
				"x": 2.2173154146,
				"y": 3.6633428747,
				"z": -2.3079351062,
				"element": "H" 
			},
			{
				"x": 3.7289633558,
				"y": 4.5343429484,
				"z": -2.5612392992,
				"element": "H" 
			},
			{
				"x": 5.0495492199,
				"y": 2.4639122019,
				"z": -2.4464329482,
				"element": "H" 
			},
			{
				"x": 4.0762075512,
				"y": 2.5999519729,
				"z": -0.9962415675,
				"element": "H" 
			},
			{
				"x": 3.4676046778,
				"y": 0.8054044344,
				"z": -3.4082043205,
				"element": "H" 
			},
			{
				"x": 4.1790941933,
				"y": 0.3034778752,
				"z": -1.889794343,
				"element": "H" 
			},
			{
				"x": 1.8964529043,
				"y": 1.3552123245,
				"z": -0.8703253572,
				"element": "H" 
			},
			{
				"x": 2.0273865471,
				"y": -0.3145947596,
				"z": -1.4112688568,
				"element": "H" 
			},
			{
				"x": 1.063501558,
				"y": 0.2873069813,
				"z": -3.6179865666,
				"element": "H" 
			},
			{
				"x": 0.9571277014,
				"y": 1.9689624518,
				"z": -3.1437075103,
				"element": "H" 
			},
			{
				"x": -1.2176504793,
				"y": 1.0268913637,
				"z": -2.983275602,
				"element": "H" 
			},
			{
				"x": -0.7007145636,
				"y": 1.3787945178,
				"z": -1.3538753525,
				"element": "H" 
			},
			{
				"x": -0.2382648607,
				"y": -1.4318302272,
				"z": -2.4257183352,
				"element": "H" 
			},
			{
				"x": -1.8877756003,
				"y": -0.956021616,
				"z": -2.0901266004,
				"element": "H" 
			},
			{
				"x": -0.7642736113,
				"y": -2.2278428331,
				"z": -0.2463857721,
				"element": "H" 
			},
			{
				"x": 0.3595943701,
				"y": -0.9286784426,
				"z": -0.013115094,
				"element": "H" 
			},
			{
				"x": 0.0460506039,
				"y": 1.9799525579,
				"z": 2.0925707953,
				"element": "H" 
			},
			{
				"x": 0.7238150731,
				"y": 0.8534621618,
				"z": 0.9606150912,
				"element": "H" 
			},
			{
				"x": -3.4683565505,
				"y": 3.0581989613,
				"z": 4.3412302367,
				"element": "H" 
			},
			{
				"x": -2.9410074535,
				"y": -2.4134195613,
				"z": -0.8111326592,
				"element": "H" 
			},
			{
				"x": -4.5138188125,
				"y": -2.1270012485,
				"z": -0.0685308379,
				"element": "H" 
			},
			{
				"x": -2.2090206823,
				"y": -3.672710593,
				"z": 1.2738508373,
				"element": "H" 
			},
			{
				"x": -3.7980292456,
				"y": -3.3553774596,
				"z": 1.9878055155,
				"element": "H" 
			},
			{
				"x": -3.6590896323,
				"y": -4.3907302108,
				"z": 0.5534202943,
				"element": "H" 
			}
		],
		 "valence_orbital": [ 
			{
				"type": "occ",
				"energy": -0.29352,
				"method": "rhf"
			},
			{
				"type": "occ",
				"energy": -0.27003,
				"method": "rhf"
			},
			{
				"type": "occ",
				"energy": -0.25957,
				"method": "rhf"
			},
			{
				"type": "occ",
				"energy": -0.25054,
				"method": "rhf"
			},
			{
				"type": "occ",
				"energy": -0.21907,
				"method": "rhf"
			},
			{
				"type": "unocc",
				"energy": -0.02821,
				"method": "rhf"
			},
			{
				"type": "unocc",
				"energy": -0.00596,
				"method": "rhf"
			},
			{
				"type": "unocc",
				"energy": 0.04969,
				"method": "rhf"
			},
			{
				"type": "unocc",
				"energy": 0.06238,
				"method": "rhf"
			},
			{
				"type": "unocc",
				"energy": 0.07986,
				"method": "rhf"
			}
		],
		"cosmo_sigma_profile": { 
			"-0.025": 0.0,
			"-0.024": 0.0,
			"-0.023": 0.0,
			"-0.022": 0.0,
			"-0.021": 0.0,
			"-0.02": 0.0,
			"-0.019": 0.0,
			"-0.018": 0.0,
			"-0.017": 0.0,
			"-0.016": 0.00338383493884,
			"-0.015": 0.134973444085,
			"-0.014": 0.128395892327,
			"-0.013": 1.38494867881,
			"-0.012": 2.52403051807,
			"-0.011": 2.48438150321,
			"-0.01": 2.65721653086,
			"-0.009": 2.83975890981,
			"-0.008": 3.44119656497,
			"-0.007": 3.07038566498,
			"-0.006": 4.52972656995,
			"-0.005": 3.55861061018,
			"-0.004": 13.8353933615,
			"-0.003": 22.9610513984,
			"-0.002": 45.8978613517,
			"-0.001": 61.4015223294,
			"0.0": 58.4130639928,
			"0.001": 49.0527465946,
			"0.002": 17.4104401927,
			"0.003": 7.1346873912,
			"0.004": 5.9118262511,
			"0.005": 3.70661622294,
			"0.006": 3.5080726873,
			"0.007": 4.67607021996,
			"0.008": 3.11944807865,
			"0.009": 3.46857225116,
			"0.01": 3.58251587569,
			"0.011": 2.74550130352,
			"0.012": 2.80308788009,
			"0.013": 2.44764616633,
			"0.014": 2.50789640988,
			"0.015": 2.33692426632,
			"0.016": 1.94967703596,
			"0.017": 0.834590553348,
			"0.018": 0.0105096362963,
			"0.019": 0.0,
			"0.02": 0.0,
			"0.021": 0.0,
			"0.022": 0.0,
			"0.023": 0.0,
			"0.024": 0.0,
			"0.025": 0.0
		}
	}
}
