{
	 "smiles": "CCNC(=O)C1=CC=C(O)C=C1", 
	 "Tm": 383.15, 
	 "num_atms": 23, 
	 "gaussian": { 
		 "optdone": 1, 
		 "sigma_profile": "yes", 
		 "theory": "DFT", 
		 "functional": "B3LYP", 
		 "basiset": "6-31G**", 
		 "properties": { 
			 "R2extent": 3032.3737, 
			 "electric_dipole_moment_norm": 2.93523097728, 
			 "electric_quadrupole_moment_norm": 18.7855363456, 
			 "total_energy": -554.800031198, 
			 "HOMO_LUMO_gap": 0.20376, 
			 "cosmo_polarized_energy": -15.61, 
			 "cosmo_cavitation_energy": 26.76, 
			 "cosmo_dispersion_energy": -19.48, 
			 "cosmo_repulsion_energy": 1.58, 
			 "cosmo_total_nonelectrostatic_energy": 8.86, 
			 "SMD_solvation_energy": 5.26 
		},
		"coords": [
			{
				"x": 0.5399504283,
				"y": 2.7928217661,
				"z": 2.3143951568,
				"element": "C" 
			},
			{
				"x": -0.2125331695,
				"y": 1.6162679782,
				"z": 1.6904942871,
				"element": "C" 
			},
			{
				"x": -0.1840442643,
				"y": 1.6474895493,
				"z": 0.2277812631,
				"element": "N" 
			},
			{
				"x": 0.0359537348,
				"y": 0.5983626187,
				"z": -0.6423609896,
				"element": "C" 
			},
			{
				"x": -0.4768532259,
				"y": 0.6009914937,
				"z": -1.7591801278,
				"element": "O" 
			},
			{
				"x": 0.9505474634,
				"y": -0.5117727639,
				"z": -0.2209970547,
				"element": "C" 
			},
			{
				"x": 0.7036695753,
				"y": -1.7871828674,
				"z": -0.7465699226,
				"element": "C" 
			},
			{
				"x": 1.5398609874,
				"y": -2.8577660908,
				"z": -0.4499362278,
				"element": "C" 
			},
			{
				"x": 2.6641820134,
				"y": -2.6599127142,
				"z": 0.3622322467,
				"element": "C" 
			},
			{
				"x": 3.5253745046,
				"y": -3.665911177,
				"z": 0.6851581173,
				"element": "O" 
			},
			{
				"x": 2.9436299681,
				"y": -1.3849097264,
				"z": 0.8683132664,
				"element": "C" 
			},
			{
				"x": 2.089965513,
				"y": -0.325762342,
				"z": 0.5781128214,
				"element": "C" 
			},
			{
				"x": 0.4707974371,
				"y": 2.7567152578,
				"z": 3.4066312873,
				"element": "H" 
			},
			{
				"x": 1.5975308714,
				"y": 2.7791974633,
				"z": 2.0332433434,
				"element": "H" 
			},
			{
				"x": 0.1201268379,
				"y": 3.7488384732,
				"z": 1.9834907673,
				"element": "H" 
			},
			{
				"x": -1.256878196,
				"y": 1.6240617694,
				"z": 2.0340585651,
				"element": "H" 
			},
			{
				"x": 0.2149819454,
				"y": 0.6691482293,
				"z": 2.0227565377,
				"element": "H" 
			},
			{
				"x": -0.7964541703,
				"y": 2.3312409987,
				"z": -0.2027261399,
				"element": "H" 
			},
			{
				"x": -0.1527995111,
				"y": -1.921088393,
				"z": -1.398792223,
				"element": "H" 
			},
			{
				"x": 1.328785953,
				"y": -3.8454730188,
				"z": -0.8549078601,
				"element": "H" 
			},
			{
				"x": 3.232940821,
				"y": -4.4835497956,
				"z": 0.2614633713,
				"element": "H" 
			},
			{
				"x": 3.8331970946,
				"y": -1.2442590316,
				"z": 1.4731606665,
				"element": "H" 
			},
			{
				"x": 2.3330673884,
				"y": 0.6639523232,
				"z": 0.9514788481,
				"element": "H" 
			}
		],
		 "valence_orbital": [ 
			{
				"type": "occ",
				"energy": -0.33108,
				"method": "rhf"
			},
			{
				"type": "occ",
				"energy": -0.25947,
				"method": "rhf"
			},
			{
				"type": "occ",
				"energy": -0.25348,
				"method": "rhf"
			},
			{
				"type": "occ",
				"energy": -0.23861,
				"method": "rhf"
			},
			{
				"type": "occ",
				"energy": -0.22449,
				"method": "rhf"
			},
			{
				"type": "unocc",
				"energy": -0.02073,
				"method": "rhf"
			},
			{
				"type": "unocc",
				"energy": -0.00869,
				"method": "rhf"
			},
			{
				"type": "unocc",
				"energy": 0.06115,
				"method": "rhf"
			},
			{
				"type": "unocc",
				"energy": 0.06581,
				"method": "rhf"
			},
			{
				"type": "unocc",
				"energy": 0.07862,
				"method": "rhf"
			}
		],
		"cosmo_sigma_profile": { 
			"-0.025": 0.0,
			"-0.024": 0.0,
			"-0.023": 0.0,
			"-0.022": 0.0,
			"-0.021": 0.0,
			"-0.02": 0.0,
			"-0.019": 0.0188354071513,
			"-0.018": 0.729300260636,
			"-0.017": 1.29143866981,
			"-0.016": 0.92422763021,
			"-0.015": 0.927143231433,
			"-0.014": 1.36070171151,
			"-0.013": 1.08684600186,
			"-0.012": 1.73526499514,
			"-0.011": 2.18269608236,
			"-0.01": 2.26993010637,
			"-0.009": 1.85780687042,
			"-0.008": 2.46027550497,
			"-0.007": 2.71372852704,
			"-0.006": 7.07940818485,
			"-0.005": 11.1856959621,
			"-0.004": 16.1786827774,
			"-0.003": 17.3157947869,
			"-0.002": 20.1040363634,
			"-0.001": 15.9916846872,
			"0.0": 15.5302617944,
			"0.001": 12.796492807,
			"0.002": 9.88595882329,
			"0.003": 13.777829709,
			"0.004": 14.520832008,
			"0.005": 6.59818618791,
			"0.006": 3.91665939022,
			"0.007": 3.12255086675,
			"0.008": 3.07692944863,
			"0.009": 2.85632260527,
			"0.01": 2.9051543673,
			"0.011": 2.89039985609,
			"0.012": 2.0338237167,
			"0.013": 2.99565622961,
			"0.014": 5.45604574299,
			"0.015": 1.77984656522,
			"0.016": 0.0,
			"0.017": 0.0,
			"0.018": 0.0,
			"0.019": 0.0,
			"0.02": 0.0,
			"0.021": 0.0,
			"0.022": 0.0,
			"0.023": 0.0,
			"0.024": 0.0,
			"0.025": 0.0
		}
	}
}
