{
	 "smiles": "N=C(C1=CC=CC=C1)C1=CC=CC=C1", 
	 "Tm": 243.15, 
	 "num_atms": 25, 
	 "gaussian": { 
		 "optdone": 1, 
		 "sigma_profile": "yes", 
		 "theory": "DFT", 
		 "functional": "B3LYP", 
		 "basiset": "6-31G**", 
		 "properties": { 
			 "R2extent": 3150.5353, 
			 "electric_dipole_moment_norm": 2.3130908175, 
			 "electric_quadrupole_moment_norm": 10.2879610006, 
			 "total_energy": -556.756568663, 
			 "HOMO_LUMO_gap": 0.19079, 
			 "cosmo_polarized_energy": -8.37, 
			 "cosmo_cavitation_energy": 28.82, 
			 "cosmo_dispersion_energy": -20.85, 
			 "cosmo_repulsion_energy": 1.63, 
			 "cosmo_total_nonelectrostatic_energy": 9.6, 
			 "SMD_solvation_energy": 3.95 
		},
		"coords": [
			{
				"x": -1.1517710292,
				"y": 1.517029184,
				"z": 0.9421012425,
				"element": "N" 
			},
			{
				"x": -0.4852944423,
				"y": 0.4977841454,
				"z": 0.5307362934,
				"element": "C" 
			},
			{
				"x": 0.1499304404,
				"y": -0.4854133684,
				"z": 1.4674211197,
				"element": "C" 
			},
			{
				"x": -0.0039017832,
				"y": -1.8700163095,
				"z": 1.2923404516,
				"element": "C" 
			},
			{
				"x": 0.524585856,
				"y": -2.7648126714,
				"z": 2.2227947113,
				"element": "C" 
			},
			{
				"x": 1.2307813202,
				"y": -2.2915889651,
				"z": 3.3306520297,
				"element": "C" 
			},
			{
				"x": 1.4004605526,
				"y": -0.9168561085,
				"z": 3.5081931953,
				"element": "C" 
			},
			{
				"x": 0.8589075757,
				"y": -0.0213743485,
				"z": 2.5869597886,
				"element": "C" 
			},
			{
				"x": -0.3507661147,
				"y": 0.2959396012,
				"z": -0.9433425116,
				"element": "C" 
			},
			{
				"x": -1.2744795316,
				"y": 0.9111489328,
				"z": -1.8058256009,
				"element": "C" 
			},
			{
				"x": -1.1582005735,
				"y": 0.7695319009,
				"z": -3.1850799589,
				"element": "C" 
			},
			{
				"x": -0.1118566517,
				"y": 0.0179448216,
				"z": -3.7295674983,
				"element": "C" 
			},
			{
				"x": 0.8164468183,
				"y": -0.5891404937,
				"z": -2.883767281,
				"element": "C" 
			},
			{
				"x": 0.6968907204,
				"y": -0.4544251612,
				"z": -1.4995115878,
				"element": "C" 
			},
			{
				"x": -1.2000188363,
				"y": 1.5172169886,
				"z": 1.9647837819,
				"element": "H" 
			},
			{
				"x": -0.5523757451,
				"y": -2.2426454805,
				"z": 0.4328168308,
				"element": "H" 
			},
			{
				"x": 0.3845231748,
				"y": -3.8327828589,
				"z": 2.0821059881,
				"element": "H" 
			},
			{
				"x": 1.64920178,
				"y": -2.9900240913,
				"z": 4.0495796841,
				"element": "H" 
			},
			{
				"x": 1.9576110133,
				"y": -0.5418851459,
				"z": 4.3619238798,
				"element": "H" 
			},
			{
				"x": 0.9999114983,
				"y": 1.0477265186,
				"z": 2.7205072048,
				"element": "H" 
			},
			{
				"x": -2.0745359547,
				"y": 1.4978303891,
				"z": -1.3679471691,
				"element": "H" 
			},
			{
				"x": -1.8840317243,
				"y": 1.2441957694,
				"z": -3.8393852392,
				"element": "H" 
			},
			{
				"x": -0.0222125047,
				"y": -0.0921594181,
				"z": -4.8066638204,
				"element": "H" 
			},
			{
				"x": 1.6372694855,
				"y": -1.1667533554,
				"z": -3.2992489372,
				"element": "H" 
			},
			{
				"x": 1.4294246558,
				"y": -0.922370475,
				"z": -0.8502765971,
				"element": "H" 
			}
		],
		 "valence_orbital": [ 
			{
				"type": "occ",
				"energy": -0.26781,
				"method": "rhf"
			},
			{
				"type": "occ",
				"energy": -0.25994,
				"method": "rhf"
			},
			{
				"type": "occ",
				"energy": -0.25107,
				"method": "rhf"
			},
			{
				"type": "occ",
				"energy": -0.24888,
				"method": "rhf"
			},
			{
				"type": "occ",
				"energy": -0.23674,
				"method": "rhf"
			},
			{
				"type": "unocc",
				"energy": -0.04595,
				"method": "rhf"
			},
			{
				"type": "unocc",
				"energy": -0.01343,
				"method": "rhf"
			},
			{
				"type": "unocc",
				"energy": -0.00989,
				"method": "rhf"
			},
			{
				"type": "unocc",
				"energy": 0.00334,
				"method": "rhf"
			},
			{
				"type": "unocc",
				"energy": 0.05963,
				"method": "rhf"
			}
		],
		"cosmo_sigma_profile": { 
			"-0.025": 0.0,
			"-0.024": 0.0,
			"-0.023": 0.0,
			"-0.022": 0.0,
			"-0.021": 0.0,
			"-0.02": 0.0,
			"-0.019": 0.0,
			"-0.018": 0.0,
			"-0.017": 0.0,
			"-0.016": 0.0,
			"-0.015": 0.0,
			"-0.014": 0.0,
			"-0.013": 0.0,
			"-0.012": 0.0,
			"-0.011": 0.0,
			"-0.01": 0.406354123028,
			"-0.009": 0.847944558708,
			"-0.008": 1.21839801446,
			"-0.007": 2.57847428887,
			"-0.006": 14.2842883045,
			"-0.005": 19.0961453945,
			"-0.004": 24.0195268219,
			"-0.003": 18.6981798219,
			"-0.002": 15.6433286303,
			"-0.001": 16.3671355656,
			"0.0": 15.2971195766,
			"0.001": 15.5066517568,
			"0.002": 17.3063627527,
			"0.003": 16.4169577242,
			"0.004": 20.1577340782,
			"0.005": 18.6593437937,
			"0.006": 3.12203607005,
			"0.007": 0.872035706569,
			"0.008": 1.45525726415,
			"0.009": 2.00881101322,
			"0.01": 1.22970001739,
			"0.011": 0.958372549779,
			"0.012": 1.64614674915,
			"0.013": 0.779638036435,
			"0.014": 0.740264942658,
			"0.015": 0.992318333074,
			"0.016": 0.803971515355,
			"0.017": 0.0499692001465,
			"0.018": 0.0,
			"0.019": 0.0,
			"0.02": 0.0,
			"0.021": 0.0,
			"0.022": 0.0,
			"0.023": 0.0,
			"0.024": 0.0,
			"0.025": 0.0
		}
	}
}
