{
	 "smiles": "OC(=O)CSC1=NN=C(C2CC2)N1CC1=CC=CC=C1", 
	 "Tm": 468.15, 
	 "num_atms": 35, 
	 "gaussian": { 
		 "optdone": 1, 
		 "sigma_profile": "yes", 
		 "theory": "DFT", 
		 "functional": "B3LYP", 
		 "basiset": "6-31G**", 
		 "properties": { 
			 "R2extent": 6777.3502, 
			 "electric_dipole_moment_norm": 5.40241516176, 
			 "electric_quadrupole_moment_norm": 17.1916125942, 
			 "total_energy": -1255.37370716, 
			 "HOMO_LUMO_gap": 0.21773, 
			 "cosmo_polarized_energy": -24.19, 
			 "cosmo_cavitation_energy": 40.87, 
			 "cosmo_dispersion_energy": -27.57, 
			 "cosmo_repulsion_energy": 2.12, 
			 "cosmo_total_nonelectrostatic_energy": 15.41, 
			 "SMD_solvation_energy": 5.15 
		},
		"coords": [
			{
				"x": -1.3000712912,
				"y": -1.5541238887,
				"z": 2.7726787641,
				"element": "O" 
			},
			{
				"x": -0.9324609539,
				"y": -0.7611304391,
				"z": 3.806529289,
				"element": "C" 
			},
			{
				"x": -1.720078023,
				"y": -0.4140393365,
				"z": 4.6484432571,
				"element": "O" 
			},
			{
				"x": 0.548904177,
				"y": -0.3755493354,
				"z": 3.8737405068,
				"element": "C" 
			},
			{
				"x": 1.4667823264,
				"y": -0.4024133222,
				"z": 2.2746916651,
				"element": "S" 
			},
			{
				"x": 1.0559652427,
				"y": 1.1913619613,
				"z": 1.6300868408,
				"element": "C" 
			},
			{
				"x": 1.6078855207,
				"y": 2.3110541801,
				"z": 2.0418278084,
				"element": "N" 
			},
			{
				"x": 1.0814480496,
				"y": 3.3310238692,
				"z": 1.2907226561,
				"element": "N" 
			},
			{
				"x": 0.2259635951,
				"y": 2.8052831658,
				"z": 0.4329262418,
				"element": "C" 
			},
			{
				"x": -0.5758282741,
				"y": 3.5593101925,
				"z": -0.5507122247,
				"element": "C" 
			},
			{
				"x": -0.4139175246,
				"y": 5.0601935878,
				"z": -0.6109489983,
				"element": "C" 
			},
			{
				"x": -1.6849924322,
				"y": 4.486699984,
				"z": -0.059715348,
				"element": "C" 
			},
			{
				"x": 0.1586184918,
				"y": 1.4439256692,
				"z": 0.6090666461,
				"element": "N" 
			},
			{
				"x": -0.6986621039,
				"y": 0.5002091382,
				"z": -0.1028479972,
				"element": "C" 
			},
			{
				"x": -0.0002074019,
				"y": -0.3038701138,
				"z": -1.1876262528,
				"element": "C" 
			},
			{
				"x": -0.5689890155,
				"y": -1.5169766229,
				"z": -1.5969147866,
				"element": "C" 
			},
			{
				"x": 0.0116684548,
				"y": -2.2619946818,
				"z": -2.6225694698,
				"element": "C" 
			},
			{
				"x": 1.1742063689,
				"y": -1.8053202435,
				"z": -3.2477641272,
				"element": "C" 
			},
			{
				"x": 1.7484609095,
				"y": -0.6008810421,
				"z": -2.8409884942,
				"element": "C" 
			},
			{
				"x": 1.1639052157,
				"y": 0.1483468537,
				"z": -1.8173027279,
				"element": "C" 
			},
			{
				"x": -0.5228045567,
				"y": -1.6937139882,
				"z": 2.1995070078,
				"element": "H" 
			},
			{
				"x": 1.0613618195,
				"y": -1.1002608152,
				"z": 4.5161140295,
				"element": "H" 
			},
			{
				"x": 0.6448538275,
				"y": 0.6080350953,
				"z": 4.3336341251,
				"element": "H" 
			},
			{
				"x": -0.7542437295,
				"y": 3.0468280209,
				"z": -1.4922163276,
				"element": "H" 
			},
			{
				"x": 0.293335091,
				"y": 5.4916543738,
				"z": 0.0885460652,
				"element": "H" 
			},
			{
				"x": -0.4349088849,
				"y": 5.5202226349,
				"z": -1.5935382647,
				"element": "H" 
			},
			{
				"x": -1.8413002583,
				"y": 4.5393711222,
				"z": 1.012879079,
				"element": "H" 
			},
			{
				"x": -2.5898851639,
				"y": 4.5420651462,
				"z": -0.6573029121,
				"element": "H" 
			},
			{
				"x": -1.1550186379,
				"y": -0.1677435133,
				"z": 0.6319443531,
				"element": "H" 
			},
			{
				"x": -1.5176736358,
				"y": 1.0870193787,
				"z": -0.5306438957,
				"element": "H" 
			},
			{
				"x": -1.4712229603,
				"y": -1.8807203157,
				"z": -1.1100284623,
				"element": "H" 
			},
			{
				"x": -0.4389419825,
				"y": -3.2019639886,
				"z": -2.9276668346,
				"element": "H" 
			},
			{
				"x": 1.6310012006,
				"y": -2.3873718843,
				"z": -4.0426259012,
				"element": "H" 
			},
			{
				"x": 2.6555466411,
				"y": -0.2409970678,
				"z": -3.3176904703,
				"element": "H" 
			},
			{
				"x": 1.6237998982,
				"y": 1.0808662251,
				"z": -1.5040348399,
				"element": "H" 
			}
		],
		 "valence_orbital": [ 
			{
				"type": "occ",
				"energy": -0.27077,
				"method": "rhf"
			},
			{
				"type": "occ",
				"energy": -0.26675,
				"method": "rhf"
			},
			{
				"type": "occ",
				"energy": -0.26257,
				"method": "rhf"
			},
			{
				"type": "occ",
				"energy": -0.25782,
				"method": "rhf"
			},
			{
				"type": "occ",
				"energy": -0.24614,
				"method": "rhf"
			},
			{
				"type": "unocc",
				"energy": -0.02841,
				"method": "rhf"
			},
			{
				"type": "unocc",
				"energy": -0.01993,
				"method": "rhf"
			},
			{
				"type": "unocc",
				"energy": -0.01759,
				"method": "rhf"
			},
			{
				"type": "unocc",
				"energy": -0.00338,
				"method": "rhf"
			},
			{
				"type": "unocc",
				"energy": 0.01998,
				"method": "rhf"
			}
		],
		"cosmo_sigma_profile": { 
			"-0.025": 0.0,
			"-0.024": 0.0,
			"-0.023": 0.0,
			"-0.022": 0.0,
			"-0.021": 0.0,
			"-0.02": 0.0,
			"-0.019": 0.0,
			"-0.018": 0.0,
			"-0.017": 0.0,
			"-0.016": 0.0,
			"-0.015": 0.0,
			"-0.014": 0.438968701076,
			"-0.013": 1.16995592475,
			"-0.012": 1.63160605995,
			"-0.011": 3.18247869499,
			"-0.01": 4.58868018585,
			"-0.009": 4.02645447127,
			"-0.008": 5.54622368776,
			"-0.007": 10.5183422462,
			"-0.006": 20.7759527266,
			"-0.005": 29.7652951496,
			"-0.004": 28.6582671092,
			"-0.003": 22.6307653789,
			"-0.002": 21.709632891,
			"-0.001": 18.453929342,
			"0.0": 17.8543871547,
			"0.001": 18.0273829234,
			"0.002": 16.8398664724,
			"0.003": 16.1038426839,
			"0.004": 14.9613212672,
			"0.005": 13.9576724144,
			"0.006": 9.41439538263,
			"0.007": 4.64577636418,
			"0.008": 5.97846966948,
			"0.009": 6.56780466995,
			"0.01": 6.37155158847,
			"0.011": 7.58444313433,
			"0.012": 6.05610422712,
			"0.013": 4.03589444375,
			"0.014": 2.84279079274,
			"0.015": 2.26891816375,
			"0.016": 1.05561625529,
			"0.017": 0.188704706144,
			"0.018": 0.0,
			"0.019": 0.0,
			"0.02": 0.0,
			"0.021": 0.0,
			"0.022": 0.0,
			"0.023": 0.0,
			"0.024": 0.0,
			"0.025": 0.0
		}
	}
}
