{
	 "smiles": "CC1(C)CC2=C(C=CC=C2)C1=O", 
	 "Tm": 315.15, 
	 "num_atms": 24, 
	 "gaussian": { 
		 "optdone": 1, 
		 "sigma_profile": "yes", 
		 "theory": "DFT", 
		 "functional": "B3LYP", 
		 "basiset": "6-31G**", 
		 "properties": { 
			 "R2extent": 2240.5518, 
			 "electric_dipole_moment_norm": 3.21037990743, 
			 "electric_quadrupole_moment_norm": 8.12908643268, 
			 "total_energy": -501.645557265, 
			 "HOMO_LUMO_gap": 0.18335, 
			 "cosmo_polarized_energy": -7.99, 
			 "cosmo_cavitation_energy": 26.5, 
			 "cosmo_dispersion_energy": -19.0, 
			 "cosmo_repulsion_energy": 1.5, 
			 "cosmo_total_nonelectrostatic_energy": 8.99, 
			 "SMD_solvation_energy": 4.85 
		},
		"coords": [
			{
				"x": 1.5761313541,
				"y": 2.0499831581,
				"z": -1.8459166464,
				"element": "C" 
			},
			{
				"x": 1.0817428717,
				"y": 0.5980680586,
				"z": -1.9819473039,
				"element": "C" 
			},
			{
				"x": 1.3399415682,
				"y": 0.0816284858,
				"z": -3.4093912023,
				"element": "C" 
			},
			{
				"x": 1.6839428924,
				"y": -0.3398232511,
				"z": -0.8922350192,
				"element": "C" 
			},
			{
				"x": 0.502943677,
				"y": -0.8390349952,
				"z": -0.0848646456,
				"element": "C" 
			},
			{
				"x": -0.7031500436,
				"y": -0.3157059762,
				"z": -0.5612784087,
				"element": "C" 
			},
			{
				"x": -1.9320205467,
				"y": -0.6338556601,
				"z": 0.0255114135,
				"element": "C" 
			},
			{
				"x": -1.9380164616,
				"y": -1.4987956022,
				"z": 1.1155225913,
				"element": "C" 
			},
			{
				"x": -0.7310448806,
				"y": -2.0292643418,
				"z": 1.6007055324,
				"element": "C" 
			},
			{
				"x": 0.4923731052,
				"y": -1.7066451204,
				"z": 1.0092217579,
				"element": "C" 
			},
			{
				"x": -0.4459628938,
				"y": 0.570458443,
				"z": -1.7166098541,
				"element": "C" 
			},
			{
				"x": -1.2732844328,
				"y": 1.1863716739,
				"z": -2.3656093962,
				"element": "O" 
			},
			{
				"x": 1.0298487611,
				"y": 2.6983898516,
				"z": -2.5369292418,
				"element": "H" 
			},
			{
				"x": 1.4209422159,
				"y": 2.4310576053,
				"z": -0.8305747014,
				"element": "H" 
			},
			{
				"x": 2.6455529045,
				"y": 2.1174556836,
				"z": -2.0737106961,
				"element": "H" 
			},
			{
				"x": 1.0140378838,
				"y": -0.9581655221,
				"z": -3.5226964746,
				"element": "H" 
			},
			{
				"x": 2.4072203215,
				"y": 0.1308203778,
				"z": -3.6514863774,
				"element": "H" 
			},
			{
				"x": 0.7888931715,
				"y": 0.6888282698,
				"z": -4.133279977,
				"element": "H" 
			},
			{
				"x": 2.3989278056,
				"y": 0.191511406,
				"z": -0.2521216342,
				"element": "H" 
			},
			{
				"x": 2.2344377121,
				"y": -1.1768913011,
				"z": -1.3389279315,
				"element": "H" 
			},
			{
				"x": -2.847024011,
				"y": -0.2066101111,
				"z": -0.3740076433,
				"element": "H" 
			},
			{
				"x": -2.8741159529,
				"y": -1.7678282824,
				"z": 1.5959749599,
				"element": "H" 
			},
			{
				"x": -0.7509106356,
				"y": -2.703503817,
				"z": 2.4526997768,
				"element": "H" 
			},
			{
				"x": 1.4162936138,
				"y": -2.1267490326,
				"z": 1.398351122,
				"element": "H" 
			}
		],
		 "valence_orbital": [ 
			{
				"type": "occ",
				"energy": -0.32796,
				"method": "rhf"
			},
			{
				"type": "occ",
				"energy": -0.32787,
				"method": "rhf"
			},
			{
				"type": "occ",
				"energy": -0.25969,
				"method": "rhf"
			},
			{
				"type": "occ",
				"energy": -0.25292,
				"method": "rhf"
			},
			{
				"type": "occ",
				"energy": -0.23583,
				"method": "rhf"
			},
			{
				"type": "unocc",
				"energy": -0.05248,
				"method": "rhf"
			},
			{
				"type": "unocc",
				"energy": -0.01091,
				"method": "rhf"
			},
			{
				"type": "unocc",
				"energy": 0.04763,
				"method": "rhf"
			},
			{
				"type": "unocc",
				"energy": 0.09168,
				"method": "rhf"
			},
			{
				"type": "unocc",
				"energy": 0.09635,
				"method": "rhf"
			}
		],
		"cosmo_sigma_profile": { 
			"-0.025": 0.0,
			"-0.024": 0.0,
			"-0.023": 0.0,
			"-0.022": 0.0,
			"-0.021": 0.0,
			"-0.02": 0.0,
			"-0.019": 0.0,
			"-0.018": 0.0,
			"-0.017": 0.0,
			"-0.016": 0.0,
			"-0.015": 0.0,
			"-0.014": 0.0,
			"-0.013": 0.0,
			"-0.012": 0.0,
			"-0.011": 0.0,
			"-0.01": 0.0,
			"-0.009": 0.0,
			"-0.008": 0.0,
			"-0.007": 0.785810378002,
			"-0.006": 7.19148566535,
			"-0.005": 10.1069361418,
			"-0.004": 21.3797266753,
			"-0.003": 27.4106375098,
			"-0.002": 24.386746635,
			"-0.001": 19.6749703608,
			"0.0": 20.6722000109,
			"0.001": 19.3136420572,
			"0.002": 10.769988595,
			"0.003": 11.7313511886,
			"0.004": 12.9688998787,
			"0.005": 4.01287068277,
			"0.006": 2.6552116382,
			"0.007": 1.00538577145,
			"0.008": 1.50987985469,
			"0.009": 2.02455247278,
			"0.01": 1.95213872052,
			"0.011": 1.88166437149,
			"0.012": 4.60874418029,
			"0.013": 2.85004021564,
			"0.014": 0.156357029812,
			"0.015": 0.0,
			"0.016": 0.0,
			"0.017": 0.0,
			"0.018": 0.0,
			"0.019": 0.0,
			"0.02": 0.0,
			"0.021": 0.0,
			"0.022": 0.0,
			"0.023": 0.0,
			"0.024": 0.0,
			"0.025": 0.0
		}
	}
}
