{
	 "smiles": "OC(=O)C1=CC2=C(C=C1)C(=O)N1CCCCCC1=N2", 
	 "Tm": 550.15, 
	 "num_atms": 33, 
	 "gaussian": { 
		 "optdone": 1, 
		 "sigma_profile": "yes", 
		 "theory": "DFT", 
		 "functional": "B3LYP", 
		 "basiset": "6-31G**", 
		 "properties": { 
			 "R2extent": 6637.445, 
			 "electric_dipole_moment_norm": 5.62521094449, 
			 "electric_quadrupole_moment_norm": 29.3960008894, 
			 "total_energy": -877.155477997, 
			 "HOMO_LUMO_gap": 0.16824, 
			 "cosmo_polarized_energy": -19.67, 
			 "cosmo_cavitation_energy": 35.31, 
			 "cosmo_dispersion_energy": -26.24, 
			 "cosmo_repulsion_energy": 1.97, 
			 "cosmo_total_nonelectrostatic_energy": 11.05, 
			 "SMD_solvation_energy": 5.15 
		},
		"coords": [
			{
				"x": 1.8372265811,
				"y": -1.236988738,
				"z": -6.0176924147,
				"element": "O" 
			},
			{
				"x": 0.6916722763,
				"y": -1.1877077016,
				"z": -5.2863690728,
				"element": "C" 
			},
			{
				"x": -0.3807694177,
				"y": -1.1718398334,
				"z": -5.8409875232,
				"element": "O" 
			},
			{
				"x": 0.8517998045,
				"y": -1.1529710476,
				"z": -3.7920246512,
				"element": "C" 
			},
			{
				"x": -0.2033877112,
				"y": -0.64234476,
				"z": -3.045339978,
				"element": "C" 
			},
			{
				"x": -0.1162412572,
				"y": -0.5767985682,
				"z": -1.6417612507,
				"element": "C" 
			},
			{
				"x": 1.0496010951,
				"y": -1.0551112271,
				"z": -1.0077392662,
				"element": "C" 
			},
			{
				"x": 2.1045903155,
				"y": -1.5913968729,
				"z": -1.7622965996,
				"element": "C" 
			},
			{
				"x": 2.0096387592,
				"y": -1.6395910943,
				"z": -3.1426634469,
				"element": "C" 
			},
			{
				"x": 1.1479604658,
				"y": -0.9978278077,
				"z": 0.4532960269,
				"element": "C" 
			},
			{
				"x": 2.1182818045,
				"y": -1.3833587605,
				"z": 1.0958019696,
				"element": "O" 
			},
			{
				"x": 0.0072083055,
				"y": -0.4521569328,
				"z": 1.0904540401,
				"element": "N" 
			},
			{
				"x": 0.0497805338,
				"y": -0.3835180986,
				"z": 2.5657443136,
				"element": "C" 
			},
			{
				"x": 0.131836731,
				"y": 1.0446783976,
				"z": 3.1239563454,
				"element": "C" 
			},
			{
				"x": -1.2097047514,
				"y": 1.7859079976,
				"z": 3.1806361528,
				"element": "C" 
			},
			{
				"x": -1.9202388658,
				"y": 1.9449179204,
				"z": 1.8306539146,
				"element": "C" 
			},
			{
				"x": -2.2468583042,
				"y": 0.6134761782,
				"z": 1.116155388,
				"element": "C" 
			},
			{
				"x": -1.0872886583,
				"y": 0.001397328,
				"z": 0.36632305,
				"element": "C" 
			},
			{
				"x": -1.174286256,
				"y": -0.0443702897,
				"z": -0.9295849236,
				"element": "N" 
			},
			{
				"x": 2.6042167257,
				"y": -1.0852410118,
				"z": -5.4481545932,
				"element": "H" 
			},
			{
				"x": -1.099706953,
				"y": -0.2879356854,
				"z": -3.5409720206,
				"element": "H" 
			},
			{
				"x": 2.9759798881,
				"y": -1.9674135248,
				"z": -1.2371852611,
				"element": "H" 
			},
			{
				"x": 2.8145371852,
				"y": -2.0961824775,
				"z": -3.7128141421,
				"element": "H" 
			},
			{
				"x": 0.9399103565,
				"y": -0.9463494749,
				"z": 2.8428370152,
				"element": "H" 
			},
			{
				"x": -0.8226190522,
				"y": -0.9098402861,
				"z": 2.9680780403,
				"element": "H" 
			},
			{
				"x": 0.8641759628,
				"y": 1.6100712895,
				"z": 2.5343031802,
				"element": "H" 
			},
			{
				"x": 0.5401381229,
				"y": 0.9775731967,
				"z": 4.1395343907,
				"element": "H" 
			},
			{
				"x": -1.878238377,
				"y": 1.247378128,
				"z": 3.8676974976,
				"element": "H" 
			},
			{
				"x": -1.0537295347,
				"y": 2.7770845547,
				"z": 3.6230427477,
				"element": "H" 
			},
			{
				"x": -2.8642421105,
				"y": 2.4773073815,
				"z": 1.9930779219,
				"element": "H" 
			},
			{
				"x": -1.3251997216,
				"y": 2.5748730723,
				"z": 1.1572443429,
				"element": "H" 
			},
			{
				"x": -3.0145763096,
				"y": 0.7782251937,
				"z": 0.3586824672,
				"element": "H" 
			},
			{
				"x": -2.653867633,
				"y": -0.1042464456,
				"z": 1.8411663391,
				"element": "H" 
			}
		],
		 "valence_orbital": [ 
			{
				"type": "occ",
				"energy": -0.28021,
				"method": "rhf"
			},
			{
				"type": "occ",
				"energy": -0.27682,
				"method": "rhf"
			},
			{
				"type": "occ",
				"energy": -0.27195,
				"method": "rhf"
			},
			{
				"type": "occ",
				"energy": -0.2676,
				"method": "rhf"
			},
			{
				"type": "occ",
				"energy": -0.238,
				"method": "rhf"
			},
			{
				"type": "unocc",
				"energy": -0.06976,
				"method": "rhf"
			},
			{
				"type": "unocc",
				"energy": -0.04764,
				"method": "rhf"
			},
			{
				"type": "unocc",
				"energy": 0.01237,
				"method": "rhf"
			},
			{
				"type": "unocc",
				"energy": 0.01734,
				"method": "rhf"
			},
			{
				"type": "unocc",
				"energy": 0.06307,
				"method": "rhf"
			}
		],
		"cosmo_sigma_profile": { 
			"-0.025": 0.0,
			"-0.024": 0.0,
			"-0.023": 0.0,
			"-0.022": 0.0,
			"-0.021": 0.0,
			"-0.02": 0.0,
			"-0.019": 0.327730573724,
			"-0.018": 0.940738837653,
			"-0.017": 0.684878738918,
			"-0.016": 1.18470423177,
			"-0.015": 0.974824962478,
			"-0.014": 0.975706445417,
			"-0.013": 1.30713294092,
			"-0.012": 1.19375829198,
			"-0.011": 1.05020328886,
			"-0.01": 1.34886174853,
			"-0.009": 1.40751014139,
			"-0.008": 2.00628805589,
			"-0.007": 5.77295986007,
			"-0.006": 9.09497626463,
			"-0.005": 10.7013263692,
			"-0.004": 24.3886914253,
			"-0.003": 36.1034285395,
			"-0.002": 31.2315891818,
			"-0.001": 26.440383627,
			"0.0": 21.1660283466,
			"0.001": 20.9797627304,
			"0.002": 11.9458351808,
			"0.003": 7.03769910558,
			"0.004": 5.39843065814,
			"0.005": 5.18017556917,
			"0.006": 5.9198875774,
			"0.007": 4.46802659226,
			"0.008": 5.56163407737,
			"0.009": 5.6484105224,
			"0.01": 7.98221239039,
			"0.011": 9.08501130368,
			"0.012": 8.32704043952,
			"0.013": 3.06199829767,
			"0.014": 0.823464764515,
			"0.015": 0.109138429076,
			"0.016": 0.0,
			"0.017": 0.0,
			"0.018": 0.0,
			"0.019": 0.0,
			"0.02": 0.0,
			"0.021": 0.0,
			"0.022": 0.0,
			"0.023": 0.0,
			"0.024": 0.0,
			"0.0": 0.0
		}
	}
}
