{
	 "smiles": "COC(=O)C1=C(NC(=O)CCl)SC(C)=C1C", 
	 "Tm": 417.15, 
	 "num_atms": 28, 
	 "gaussian": { 
		 "optdone": 1, 
		 "sigma_profile": "yes", 
		 "theory": "DFT", 
		 "functional": "B3LYP", 
		 "basiset": "6-31G**", 
		 "properties": { 
			 "R2extent": 6277.6913, 
			 "electric_dipole_moment_norm": 6.92503260642, 
			 "electric_quadrupole_moment_norm": 24.7211812954, 
			 "total_energy": -1527.11662319, 
			 "HOMO_LUMO_gap": 0.1635, 
			 "cosmo_polarized_energy": -14.48, 
			 "cosmo_cavitation_energy": 34.88, 
			 "cosmo_dispersion_energy": -25.73, 
			 "cosmo_repulsion_energy": 1.98, 
			 "cosmo_total_nonelectrostatic_energy": 11.13, 
			 "SMD_solvation_energy": 7.57 
		},
		"coords": [
			{
				"x": -0.1106593963,
				"y": -1.0429291115,
				"z": -4.1018359255,
				"element": "C" 
			},
			{
				"x": 0.2653966912,
				"y": -0.9487083342,
				"z": -2.7167688277,
				"element": "O" 
			},
			{
				"x": -0.3768217235,
				"y": 0.0005430103,
				"z": -2.0063590961,
				"element": "C" 
			},
			{
				"x": -1.2224562596,
				"y": 0.7263707922,
				"z": -2.5266014175,
				"element": "O" 
			},
			{
				"x": 0.0306849441,
				"y": 0.0707485375,
				"z": -0.5981538256,
				"element": "C" 
			},
			{
				"x": -0.5586404684,
				"y": 1.0138069048,
				"z": 0.2486989859,
				"element": "C" 
			},
			{
				"x": -1.5252730035,
				"y": 1.9130190564,
				"z": -0.1502426264,
				"element": "N" 
			},
			{
				"x": -2.2519601481,
				"y": 2.9235894745,
				"z": 0.4731089565,
				"element": "C" 
			},
			{
				"x": -3.0589608324,
				"y": 3.5614343921,
				"z": -0.1718515411,
				"element": "O" 
			},
			{
				"x": -1.9770689533,
				"y": 3.1643308935,
				"z": 1.9576840646,
				"element": "C" 
			},
			{
				"x": -2.977053958,
				"y": 4.4869837796,
				"z": 2.6267985855,
				"element": "Cl" 
			},
			{
				"x": 0.0973968498,
				"y": 0.8888113483,
				"z": 1.8584795221,
				"element": "S" 
			},
			{
				"x": 1.1625771618,
				"y": -0.4288388126,
				"z": 1.3952229675,
				"element": "C" 
			},
			{
				"x": 2.0672117711,
				"y": -1.0272623417,
				"z": 2.4377932392,
				"element": "C" 
			},
			{
				"x": 1.0196456787,
				"y": -0.7524094085,
				"z": 0.0762328502,
				"element": "C" 
			},
			{
				"x": 1.8229649946,
				"y": -1.8525170552,
				"z": -0.567442786,
				"element": "C" 
			},
			{
				"x": 0.4982936714,
				"y": -1.8478342463,
				"z": -4.5129273029,
				"element": "H" 
			},
			{
				"x": -1.1735630538,
				"y": -1.2765697406,
				"z": -4.1969550853,
				"element": "H" 
			},
			{
				"x": 0.0918230267,
				"y": -0.1029702624,
				"z": -4.6203660097,
				"element": "H" 
			},
			{
				"x": -1.7548250198,
				"y": 1.800426849,
				"z": -1.1452978013,
				"element": "H" 
			},
			{
				"x": -0.9291253864,
				"y": 3.431342243,
				"z": 2.1129572708,
				"element": "H" 
			},
			{
				"x": -2.1915777466,
				"y": 2.2627587546,
				"z": 2.5362637396,
				"element": "H" 
			},
			{
				"x": 1.8621004212,
				"y": -2.0936460232,
				"z": 2.5837455716,
				"element": "H" 
			},
			{
				"x": 3.1224093875,
				"y": -0.9248555167,
				"z": 2.1609720443,
				"element": "H" 
			},
			{
				"x": 1.9378201607,
				"y": -0.5372825887,
				"z": 3.406659267,
				"element": "H" 
			},
			{
				"x": 2.4945114076,
				"y": -2.3148259058,
				"z": 0.1592093948,
				"element": "H" 
			},
			{
				"x": 1.1746396223,
				"y": -2.6307565819,
				"z": -0.9799532428,
				"element": "H" 
			},
			{
				"x": 2.4244101607,
				"y": -1.4732601065,
				"z": -1.3984709719,
				"element": "H" 
			}
		],
		 "valence_orbital": [ 
			{
				"type": "occ",
				"energy": -0.29939,
				"method": "rhf"
			},
			{
				"type": "occ",
				"energy": -0.28935,
				"method": "rhf"
			},
			{
				"type": "occ",
				"energy": -0.27223,
				"method": "rhf"
			},
			{
				"type": "occ",
				"energy": -0.26546,
				"method": "rhf"
			},
			{
				"type": "occ",
				"energy": -0.21521,
				"method": "rhf"
			},
			{
				"type": "unocc",
				"energy": -0.05171,
				"method": "rhf"
			},
			{
				"type": "unocc",
				"energy": -0.00976,
				"method": "rhf"
			},
			{
				"type": "unocc",
				"energy": -0.00068,
				"method": "rhf"
			},
			{
				"type": "unocc",
				"energy": 0.01904,
				"method": "rhf"
			},
			{
				"type": "unocc",
				"energy": 0.03873,
				"method": "rhf"
			}
		],
		"cosmo_sigma_profile": { 
			"-0.025": 0.0,
			"-0.024": 0.0,
			"-0.023": 0.0,
			"-0.022": 0.0,
			"-0.021": 0.0,
			"-0.02": 0.0,
			"-0.019": 0.0,
			"-0.018": 0.0,
			"-0.017": 0.0,
			"-0.016": 0.0,
			"-0.015": 0.0,
			"-0.014": 0.0,
			"-0.013": 0.0,
			"-0.012": 0.0,
			"-0.011": 0.086538436502,
			"-0.01": 2.58907475059,
			"-0.009": 3.82924633392,
			"-0.008": 3.78739368724,
			"-0.007": 4.26380432162,
			"-0.006": 10.434891839,
			"-0.005": 15.530621936,
			"-0.004": 22.476061048,
			"-0.003": 26.1564461232,
			"-0.002": 27.1996559338,
			"-0.001": 30.8217238705,
			"0.0": 25.9879274929,
			"0.001": 19.3894724158,
			"0.002": 19.2449730498,
			"0.003": 15.8117903187,
			"0.004": 8.87240430451,
			"0.005": 9.7975603063,
			"0.006": 6.61899777945,
			"0.007": 3.57262399017,
			"0.008": 3.85108546839,
			"0.009": 3.28149369545,
			"0.01": 3.53021859443,
			"0.011": 5.92245111961,
			"0.012": 5.99425281316,
			"0.013": 1.9945534981,
			"0.014": 0.0832070408147,
			"0.015": 0.0,
			"0.016": 0.0,
			"0.017": 0.0,
			"0.018": 0.0,
			"0.019": 0.0,
			"0.02": 0.0,
			"0.021": 0.0,
			"0.022": 0.0,
			"0.023": 0.0,
			"0.024": 0.0,
			"0.025": 0.0
		}
	}
}
