{
	 "smiles": "COC1=C(SC(=C1)C1=CC=CC=C1)C(O)=O", 
	 "Tm": 441.15, 
	 "num_atms": 26, 
	 "gaussian": { 
		 "optdone": 1, 
		 "sigma_profile": "yes", 
		 "theory": "DFT", 
		 "functional": "B3LYP", 
		 "basiset": "6-31G**", 
		 "properties": { 
			 "R2extent": 6886.8335, 
			 "electric_dipole_moment_norm": 7.74356541007, 
			 "electric_quadrupole_moment_norm": 38.3667494514, 
			 "total_energy": -1087.15606561, 
			 "HOMO_LUMO_gap": 0.15745, 
			 "cosmo_polarized_energy": -17.05, 
			 "cosmo_cavitation_energy": 32.04, 
			 "cosmo_dispersion_energy": -23.96, 
			 "cosmo_repulsion_energy": 1.81, 
			 "cosmo_total_nonelectrostatic_energy": 9.89, 
			 "SMD_solvation_energy": 6.99 
		},
		"coords": [
			{
				"x": 2.7641024006,
				"y": 1.2055452885,
				"z": 3.058887472,
				"element": "C" 
			},
			{
				"x": 2.9957555146,
				"y": -0.2015381735,
				"z": 3.009713763,
				"element": "O" 
			},
			{
				"x": 2.2638568545,
				"y": -0.946019114,
				"z": 2.1290763426,
				"element": "C" 
			},
			{
				"x": 2.464040114,
				"y": -2.3150648589,
				"z": 2.056575445,
				"element": "C" 
			},
			{
				"x": 1.4101753641,
				"y": -3.0218431977,
				"z": 0.8663793107,
				"element": "S" 
			},
			{
				"x": 0.6996942124,
				"y": -1.4772997689,
				"z": 0.4883669059,
				"element": "C" 
			},
			{
				"x": 1.2642865628,
				"y": -0.4657522975,
				"z": 1.2419648523,
				"element": "C" 
			},
			{
				"x": -0.3576468592,
				"y": -1.3485179413,
				"z": -0.5231798445,
				"element": "C" 
			},
			{
				"x": -0.5073907136,
				"y": -0.1496297542,
				"z": -1.2445036014,
				"element": "C" 
			},
			{
				"x": -1.514611862,
				"y": -0.0134773262,
				"z": -2.1966446182,
				"element": "C" 
			},
			{
				"x": -2.3860889906,
				"y": -1.0735658973,
				"z": -2.45671862,
				"element": "C" 
			},
			{
				"x": -2.2426108038,
				"y": -2.271508676,
				"z": -1.7538717587,
				"element": "C" 
			},
			{
				"x": -1.2421412052,
				"y": -2.4079806994,
				"z": -0.7942162833,
				"element": "C" 
			},
			{
				"x": 3.3915949267,
				"y": -3.1883018426,
				"z": 2.796415582,
				"element": "C" 
			},
			{
				"x": 4.1917503136,
				"y": -2.5816035349,
				"z": 3.7043265273,
				"element": "O" 
			},
			{
				"x": 3.4473646806,
				"y": -4.3866136163,
				"z": 2.6128686915,
				"element": "O" 
			},
			{
				"x": 2.9747071829,
				"y": 1.6716047139,
				"z": 2.0898960211,
				"element": "H" 
			},
			{
				"x": 1.7327395748,
				"y": 1.423079099,
				"z": 3.35797693,
				"element": "H" 
			},
			{
				"x": 3.4509330712,
				"y": 1.5982650254,
				"z": 3.8087999744,
				"element": "H" 
			},
			{
				"x": 0.9429769915,
				"y": 0.5655558237,
				"z": 1.1798894589,
				"element": "H" 
			},
			{
				"x": 0.186496837,
				"y": 0.6677968314,
				"z": -1.0742184188,
				"element": "H" 
			},
			{
				"x": -1.6114574202,
				"y": 0.9186692884,
				"z": -2.7457034464,
				"element": "H" 
			},
			{
				"x": -3.1681865365,
				"y": -0.9676177156,
				"z": -3.2025204036,
				"element": "H" 
			},
			{
				"x": -2.9173485561,
				"y": -3.1005045814,
				"z": -1.9458785541,
				"element": "H" 
			},
			{
				"x": -1.1573773889,
				"y": -3.3348277737,
				"z": -0.2344292164,
				"element": "H" 
			},
			{
				"x": 4.0131857348,
				"y": -1.624549301,
				"z": 3.7215474886,
				"element": "H" 
			}
		],
		 "valence_orbital": [ 
			{
				"type": "occ",
				"energy": -0.27933,
				"method": "rhf"
			},
			{
				"type": "occ",
				"energy": -0.26509,
				"method": "rhf"
			},
			{
				"type": "occ",
				"energy": -0.26153,
				"method": "rhf"
			},
			{
				"type": "occ",
				"energy": -0.25376,
				"method": "rhf"
			},
			{
				"type": "occ",
				"energy": -0.22239,
				"method": "rhf"
			},
			{
				"type": "unocc",
				"energy": -0.06494,
				"method": "rhf"
			},
			{
				"type": "unocc",
				"energy": -0.01705,
				"method": "rhf"
			},
			{
				"type": "unocc",
				"energy": -0.00529,
				"method": "rhf"
			},
			{
				"type": "unocc",
				"energy": 0.02302,
				"method": "rhf"
			},
			{
				"type": "unocc",
				"energy": 0.04399,
				"method": "rhf"
			}
		],
		"cosmo_sigma_profile": { 
			"-0.025": 0.0,
			"-0.024": 0.0,
			"-0.023": 0.0,
			"-0.022": 0.0,
			"-0.021": 0.0,
			"-0.02": 0.0,
			"-0.019": 0.0,
			"-0.018": 0.0,
			"-0.017": 0.0,
			"-0.016": 0.0,
			"-0.015": 0.0,
			"-0.014": 0.0,
			"-0.013": 0.0,
			"-0.012": 0.0,
			"-0.011": 0.142095910978,
			"-0.01": 0.637782546013,
			"-0.009": 0.857280797988,
			"-0.008": 3.23037393972,
			"-0.007": 10.5080824205,
			"-0.006": 21.1254683107,
			"-0.005": 23.3806385904,
			"-0.004": 22.7802489738,
			"-0.003": 15.1043292426,
			"-0.002": 13.2265305896,
			"-0.001": 13.7353648751,
			"0.0": 16.7839053452,
			"0.001": 23.2868815301,
			"0.002": 22.6051213516,
			"0.003": 18.1985650842,
			"0.004": 15.1276466511,
			"0.005": 8.75490469943,
			"0.006": 2.02837611926,
			"0.007": 2.37055835026,
			"0.008": 3.08634421721,
			"0.009": 3.17044346206,
			"0.01": 3.00527888333,
			"0.011": 5.48231432546,
			"0.012": 5.87157572446,
			"0.013": 3.71891765686,
			"0.014": 0.900671814093,
			"0.015": 0.0,
			"0.016": 0.0,
			"0.017": 0.0,
			"0.018": 0.0,
			"0.019": 0.0,
			"0.02": 0.0,
			"0.021": 0.0,
			"0.022": 0.0,
			"0.023": 0.0,
			"0.024": 0.0,
			"0.025": 0.0
		}
	}
}
