{
	 "smiles": "OC(=O)CCC1=NC2=C(C3=C(CCC3)S2)C(=O)N1", 
	 "Tm": 494.15, 
	 "num_atms": 30, 
	 "gaussian": { 
		 "optdone": 1, 
		 "sigma_profile": "yes", 
		 "theory": "DFT", 
		 "functional": "B3LYP", 
		 "basiset": "6-31G**", 
		 "properties": { 
			 "R2extent": 7857.0953, 
			 "electric_dipole_moment_norm": 5.06878016292, 
			 "electric_quadrupole_moment_norm": 52.3146314912, 
			 "total_energy": -1197.91536608, 
			 "HOMO_LUMO_gap": 0.16545, 
			 "cosmo_polarized_energy": -22.31, 
			 "cosmo_cavitation_energy": 35.0, 
			 "cosmo_dispersion_energy": -26.08, 
			 "cosmo_repulsion_energy": 1.98, 
			 "cosmo_total_nonelectrostatic_energy": 10.9, 
			 "SMD_solvation_energy": 5.82 
		},
		"coords": [
			{
				"x": -4.8865859362,
				"y": 0.9374406164,
				"z": 2.3368705039,
				"element": "O" 
			},
			{
				"x": -4.7303468837,
				"y": 1.6400943283,
				"z": 3.4671733159,
				"element": "C" 
			},
			{
				"x": -5.6321282212,
				"y": 2.2914639444,
				"z": 3.9435864215,
				"element": "O" 
			},
			{
				"x": -3.3497098785,
				"y": 1.5630018686,
				"z": 4.1342787089,
				"element": "C" 
			},
			{
				"x": -2.1634699227,
				"y": 2.0770263192,
				"z": 3.2882387674,
				"element": "C" 
			},
			{
				"x": -1.5825462096,
				"y": 1.0863376962,
				"z": 2.3061158898,
				"element": "C" 
			},
			{
				"x": -2.3175966204,
				"y": 0.1294871592,
				"z": 1.7995416358,
				"element": "N" 
			},
			{
				"x": -1.7031424857,
				"y": -0.6963048088,
				"z": 0.9003728925,
				"element": "C" 
			},
			{
				"x": -0.3745625547,
				"y": -0.6069389646,
				"z": 0.4843208163,
				"element": "C" 
			},
			{
				"x": -0.0336907074,
				"y": -1.6299270327,
				"z": -0.4503302886,
				"element": "C" 
			},
			{
				"x": -1.0809821334,
				"y": -2.4596728849,
				"z": -0.7247602818,
				"element": "C" 
			},
			{
				"x": -0.763461254,
				"y": -3.5082901248,
				"z": -1.7533389563,
				"element": "C" 
			},
			{
				"x": 0.7938159536,
				"y": -3.4022535004,
				"z": -1.8218365346,
				"element": "C" 
			},
			{
				"x": 1.1824121853,
				"y": -2.0004117747,
				"z": -1.2583205088,
				"element": "C" 
			},
			{
				"x": -2.5388207561,
				"y": -2.035518271,
				"z": 0.1365750706,
				"element": "S" 
			},
			{
				"x": 0.454484758,
				"y": 0.4464428387,
				"z": 1.0331966761,
				"element": "C" 
			},
			{
				"x": 1.6288735742,
				"y": 0.6875323466,
				"z": 0.8002146973,
				"element": "O" 
			},
			{
				"x": -0.2717152621,
				"y": 1.2483832821,
				"z": 1.9566166932,
				"element": "N" 
			},
			{
				"x": -4.0409894704,
				"y": 0.4806918062,
				"z": 2.0985578315,
				"element": "H" 
			},
			{
				"x": -3.1563969887,
				"y": 0.5283927072,
				"z": 4.4413237991,
				"element": "H" 
			},
			{
				"x": -3.424115058,
				"y": 2.1707765786,
				"z": 5.0370370353,
				"element": "H" 
			},
			{
				"x": -1.3609665099,
				"y": 2.387275803,
				"z": 3.9675574831,
				"element": "H" 
			},
			{
				"x": -2.4570446044,
				"y": 2.9820701387,
				"z": 2.7385589866,
				"element": "H" 
			},
			{
				"x": -1.2327352989,
				"y": -3.2684529375,
				"z": -2.7172193802,
				"element": "H" 
			},
			{
				"x": -1.0987064071,
				"y": -4.5137308924,
				"z": -1.4774636647,
				"element": "H" 
			},
			{
				"x": 1.228606227,
				"y": -4.1780077871,
				"z": -1.1839813666,
				"element": "H" 
			},
			{
				"x": 1.1709137653,
				"y": -3.5643549589,
				"z": -2.8348419817,
				"element": "H" 
			},
			{
				"x": 1.3485744763,
				"y": -1.2689639103,
				"z": -2.0597392593,
				"element": "H" 
			},
			{
				"x": 2.1005787951,
				"y": -2.0240554978,
				"z": -0.6645068987,
				"element": "H" 
			},
			{
				"x": 0.2715534281,
				"y": 1.9945659124,
				"z": 2.3756018964,
				"element": "H" 
			}
		],
		 "valence_orbital": [ 
			{
				"type": "occ",
				"energy": -0.2932,
				"method": "rhf"
			},
			{
				"type": "occ",
				"energy": -0.27915,
				"method": "rhf"
			},
			{
				"type": "occ",
				"energy": -0.26994,
				"method": "rhf"
			},
			{
				"type": "occ",
				"energy": -0.25234,
				"method": "rhf"
			},
			{
				"type": "occ",
				"energy": -0.22711,
				"method": "rhf"
			},
			{
				"type": "unocc",
				"energy": -0.06166,
				"method": "rhf"
			},
			{
				"type": "unocc",
				"energy": -0.0266,
				"method": "rhf"
			},
			{
				"type": "unocc",
				"energy": 0.0053,
				"method": "rhf"
			},
			{
				"type": "unocc",
				"energy": 0.01443,
				"method": "rhf"
			},
			{
				"type": "unocc",
				"energy": 0.0211,
				"method": "rhf"
			}
		],
		"cosmo_sigma_profile": { 
			"-0.025": 0.0,
			"-0.024": 0.0,
			"-0.023": 0.0,
			"-0.022": 0.0,
			"-0.021": 0.0,
			"-0.02": 0.0,
			"-0.019": 0.0,
			"-0.018": 0.0,
			"-0.017": 0.519987561467,
			"-0.016": 1.39156065361,
			"-0.015": 1.32629522394,
			"-0.014": 0.873777924789,
			"-0.013": 1.55391055684,
			"-0.012": 1.39765802319,
			"-0.011": 0.921489928373,
			"-0.01": 1.92075991788,
			"-0.009": 1.24949846632,
			"-0.008": 4.31146093467,
			"-0.007": 8.13669913052,
			"-0.006": 11.7277780315,
			"-0.005": 15.3908824089,
			"-0.004": 24.9995322302,
			"-0.003": 29.0414211553,
			"-0.002": 28.1411077621,
			"-0.001": 21.5785470145,
			"0.0": 22.6272357116,
			"0.001": 19.0188175912,
			"0.002": 15.3497722483,
			"0.003": 10.3499227778,
			"0.004": 5.27677578121,
			"0.005": 3.42995296378,
			"0.006": 4.80353688997,
			"0.007": 3.0985837977,
			"0.008": 3.31931894929,
			"0.009": 4.0369986142,
			"0.01": 5.25513630232,
			"0.011": 6.38819964298,
			"0.012": 11.0299645324,
			"0.013": 9.60044560953,
			"0.014": 2.01917991817,
			"0.015": 0.0293366343627,
			"0.016": 0.0,
			"0.017": 0.0,
			"0.018": 0.0,
			"0.019": 0.0,
			"0.02": 0.0,
			"0.021": 0.0,
			"0.022": 0.0,
			"0.023": 0.0,
			"0.024": 0.0,
			"0.025": 0.0
		}
	}
}
