{
	 "smiles": "CC1=NC=NC(=C1)C(O)=O", 
	 "Tm": 403.15, 
	 "num_atms": 16, 
	 "gaussian": { 
		 "optdone": 1, 
		 "sigma_profile": "yes", 
		 "theory": "DFT", 
		 "functional": "B3LYP", 
		 "basiset": "6-31G**", 
		 "properties": { 
			 "R2extent": 2605.1838, 
			 "electric_dipole_moment_norm": 3.58613599993, 
			 "electric_quadrupole_moment_norm": 24.5521656849, 
			 "total_energy": -492.220897147, 
			 "HOMO_LUMO_gap": 0.19175, 
			 "cosmo_polarized_energy": -10.81, 
			 "cosmo_cavitation_energy": 20.9, 
			 "cosmo_dispersion_energy": -15.7, 
			 "cosmo_repulsion_energy": 1.28, 
			 "cosmo_total_nonelectrostatic_energy": 6.48, 
			 "SMD_solvation_energy": 3.08 
		},
		"coords": [
			{
				"x": 1.9868800951,
				"y": -0.5763839036,
				"z": -0.6131880111,
				"element": "C" 
			},
			{
				"x": 0.594775127,
				"y": -0.8234891127,
				"z": -0.1004408666,
				"element": "C" 
			},
			{
				"x": -0.1397730005,
				"y": 0.2481741174,
				"z": 0.2447959356,
				"element": "N" 
			},
			{
				"x": -1.3757298372,
				"y": 0.0236438092,
				"z": 0.6996053788,
				"element": "C" 
			},
			{
				"x": -1.9631267145,
				"y": -1.1653497055,
				"z": 0.8485258212,
				"element": "N" 
			},
			{
				"x": -1.2238146433,
				"y": -2.2324149476,
				"z": 0.5018079451,
				"element": "C" 
			},
			{
				"x": 0.0704004628,
				"y": -2.1194917954,
				"z": 0.0178945871,
				"element": "C" 
			},
			{
				"x": -1.8879550606,
				"y": -3.5815367125,
				"z": 0.6698556221,
				"element": "C" 
			},
			{
				"x": -3.1363779189,
				"y": -3.5062691327,
				"z": 1.1484844251,
				"element": "O" 
			},
			{
				"x": -1.3350981541,
				"y": -4.6214984143,
				"z": 0.3958121155,
				"element": "O" 
			},
			{
				"x": 2.1039485411,
				"y": -0.976022298,
				"z": -1.6265298969,
				"element": "H" 
			},
			{
				"x": 2.1941760838,
				"y": 0.4940903538,
				"z": -0.6251354389,
				"element": "H" 
			},
			{
				"x": 2.7280333361,
				"y": -1.0785313297,
				"z": 0.0183305345,
				"element": "H" 
			},
			{
				"x": -1.9611064098,
				"y": 0.8978563915,
				"z": 0.9759528032,
				"element": "H" 
			},
			{
				"x": 0.6305277336,
				"y": -3.0081604951,
				"z": -0.2498546316,
				"element": "H" 
			},
			{
				"x": -3.3274596406,
				"y": -2.5535168252,
				"z": 1.2800836772,
				"element": "H" 
			}
		],
		 "valence_orbital": [ 
			{
				"type": "occ",
				"energy": -0.32994,
				"method": "rhf"
			},
			{
				"type": "occ",
				"energy": -0.32071,
				"method": "rhf"
			},
			{
				"type": "occ",
				"energy": -0.29957,
				"method": "rhf"
			},
			{
				"type": "occ",
				"energy": -0.29194,
				"method": "rhf"
			},
			{
				"type": "occ",
				"energy": -0.27284,
				"method": "rhf"
			},
			{
				"type": "unocc",
				"energy": -0.08109,
				"method": "rhf"
			},
			{
				"type": "unocc",
				"energy": -0.05358,
				"method": "rhf"
			},
			{
				"type": "unocc",
				"energy": 0.0366,
				"method": "rhf"
			},
			{
				"type": "unocc",
				"energy": 0.09864,
				"method": "rhf"
			},
			{
				"type": "unocc",
				"energy": 0.10965,
				"method": "rhf"
			}
		],
		"cosmo_sigma_profile": { 
			"-0.025": 0.0,
			"-0.024": 0.0,
			"-0.023": 0.0,
			"-0.022": 0.0,
			"-0.021": 0.0,
			"-0.02": 0.0,
			"-0.019": 0.0,
			"-0.018": 0.0,
			"-0.017": 0.0,
			"-0.016": 0.0,
			"-0.015": 0.0,
			"-0.014": 0.0672374678141,
			"-0.013": 0.606285805935,
			"-0.012": 0.430362888317,
			"-0.011": 0.585150129435,
			"-0.01": 0.654699196192,
			"-0.009": 1.10579261557,
			"-0.008": 4.49525319709,
			"-0.007": 4.1102507313,
			"-0.006": 12.0416984321,
			"-0.005": 13.4754477686,
			"-0.004": 12.1293407972,
			"-0.003": 16.1416523318,
			"-0.002": 19.5440271556,
			"-0.001": 15.6064670714,
			"0.0": 6.72367992122,
			"0.001": 6.31363725115,
			"0.002": 5.0462091294,
			"0.003": 4.56276657676,
			"0.004": 5.82002649538,
			"0.005": 4.58943827058,
			"0.006": 3.49154969144,
			"0.007": 3.54436102314,
			"0.008": 4.82964463366,
			"0.009": 5.08039433532,
			"0.01": 5.80668366541,
			"0.011": 6.30713591143,
			"0.012": 2.75686517754,
			"0.013": 1.15580259704,
			"0.014": 0.641163923739,
			"0.015": 0.0171691824239,
			"0.016": 0.0,
			"0.017": 0.0,
			"0.018": 0.0,
			"0.019": 0.0,
			"0.02": 0.0,
			"0.021": 0.0,
			"0.022": 0.0,
			"0.023": 0.0,
			"0.024": 0.0,
			"0.025": 0.0
		}
	}
}
