{
	 "smiles": "N=C1OC2=CC=CC=C2C=C1C#N", 
	 "Tm": 473.15, 
	 "num_atms": 19, 
	 "gaussian": { 
		 "optdone": 1, 
		 "sigma_profile": "yes", 
		 "theory": "DFT", 
		 "functional": "B3LYP", 
		 "basiset": "6-31G**", 
		 "properties": { 
			 "R2extent": 2895.1093, 
			 "electric_dipole_moment_norm": 5.98777811379, 
			 "electric_quadrupole_moment_norm": 10.1798297844, 
			 "total_energy": -569.369040976, 
			 "HOMO_LUMO_gap": 0.1429, 
			 "cosmo_polarized_energy": -14.75, 
			 "cosmo_cavitation_energy": 24.9, 
			 "cosmo_dispersion_energy": -17.99, 
			 "cosmo_repulsion_energy": 1.39, 
			 "cosmo_total_nonelectrostatic_energy": 8.3, 
			 "SMD_solvation_energy": 4.89 
		},
		"coords": [
			{
				"x": 1.0570393487,
				"y": -1.8797496463,
				"z": 3.5791037491,
				"element": "N" 
			},
			{
				"x": 0.9697894516,
				"y": -1.3231065822,
				"z": 2.443544541,
				"element": "C" 
			},
			{
				"x": 0.0189202175,
				"y": -1.858396415,
				"z": 1.5895732582,
				"element": "O" 
			},
			{
				"x": -0.2082463802,
				"y": -1.3845059718,
				"z": 0.3345182099,
				"element": "C" 
			},
			{
				"x": -1.1972553661,
				"y": -2.0189454902,
				"z": -0.417983209,
				"element": "C" 
			},
			{
				"x": -1.4608990975,
				"y": -1.5647242801,
				"z": -1.7072121502,
				"element": "C" 
			},
			{
				"x": -0.7490333612,
				"y": -0.4854579633,
				"z": -2.2529375863,
				"element": "C" 
			},
			{
				"x": 0.2332688437,
				"y": 0.1410443289,
				"z": -1.4991977346,
				"element": "C" 
			},
			{
				"x": 0.5194972966,
				"y": -0.29871435,
				"z": -0.1927409457,
				"element": "C" 
			},
			{
				"x": 1.5194519974,
				"y": 0.2967379457,
				"z": 0.6481155342,
				"element": "C" 
			},
			{
				"x": 1.7420186891,
				"y": -0.1818224519,
				"z": 1.9024317549,
				"element": "C" 
			},
			{
				"x": 2.7320357162,
				"y": 0.397055645,
				"z": 2.7530010095,
				"element": "C" 
			},
			{
				"x": 3.5330793447,
				"y": 0.8521655743,
				"z": 3.4644849369,
				"element": "N" 
			},
			{
				"x": 1.7755908163,
				"y": -1.4318127371,
				"z": 4.1476397324,
				"element": "H" 
			},
			{
				"x": -1.7375837015,
				"y": -2.8512183234,
				"z": 0.019163264,
				"element": "H" 
			},
			{
				"x": -2.229848308,
				"y": -2.0560619696,
				"z": -2.2955958307,
				"element": "H" 
			},
			{
				"x": -0.9662211796,
				"y": -0.1431810031,
				"z": -3.2592737289,
				"element": "H" 
			},
			{
				"x": 0.7940902951,
				"y": 0.9780042029,
				"z": -1.9059787173,
				"element": "H" 
			},
			{
				"x": 2.0997053771,
				"y": 1.1354894872,
				"z": 0.2745439127,
				"element": "H" 
			}
		],
		 "valence_orbital": [ 
			{
				"type": "occ",
				"energy": -0.33228,
				"method": "rhf"
			},
			{
				"type": "occ",
				"energy": -0.31802,
				"method": "rhf"
			},
			{
				"type": "occ",
				"energy": -0.28524,
				"method": "rhf"
			},
			{
				"type": "occ",
				"energy": -0.26967,
				"method": "rhf"
			},
			{
				"type": "occ",
				"energy": -0.23759,
				"method": "rhf"
			},
			{
				"type": "unocc",
				"energy": -0.09469,
				"method": "rhf"
			},
			{
				"type": "unocc",
				"energy": -0.02581,
				"method": "rhf"
			},
			{
				"type": "unocc",
				"energy": -0.00945,
				"method": "rhf"
			},
			{
				"type": "unocc",
				"energy": 0.01477,
				"method": "rhf"
			},
			{
				"type": "unocc",
				"energy": 0.02406,
				"method": "rhf"
			}
		],
		"cosmo_sigma_profile": { 
			"-0.025": 0.0,
			"-0.024": 0.0,
			"-0.023": 0.0,
			"-0.022": 0.0,
			"-0.021": 0.0,
			"-0.02": 0.0,
			"-0.019": 0.0,
			"-0.018": 0.0,
			"-0.017": 0.0,
			"-0.016": 0.0,
			"-0.015": 0.0,
			"-0.014": 0.0,
			"-0.013": 0.0,
			"-0.012": 0.0,
			"-0.011": 0.383512221443,
			"-0.01": 4.50558926916,
			"-0.009": 3.77782946635,
			"-0.008": 5.13271921364,
			"-0.007": 11.2661577243,
			"-0.006": 12.629352322,
			"-0.005": 14.6750376658,
			"-0.004": 12.5659827025,
			"-0.003": 14.2394021268,
			"-0.002": 14.7827996829,
			"-0.001": 12.0690719381,
			"0.0": 12.7855126493,
			"0.001": 13.6239090665,
			"0.002": 13.6970834437,
			"0.003": 10.6806716541,
			"0.004": 4.05386777144,
			"0.005": 3.67719012365,
			"0.006": 3.88820016728,
			"0.007": 5.18932335268,
			"0.008": 4.60534567749,
			"0.009": 5.16170350226,
			"0.01": 4.19742439637,
			"0.011": 4.82510954927,
			"0.012": 3.00099726384,
			"0.013": 1.92146089426,
			"0.014": 1.69337423106,
			"0.015": 1.20075564424,
			"0.016": 1.22409003131,
			"0.017": 0.87969772888,
			"0.018": 0.0197963332579,
			"0.019": 0.0,
			"0.02": 0.0,
			"0.021": 0.0,
			"0.022": 0.0,
			"0.023": 0.0,
			"0.024": 0.0,
			"0.025": 0.0
		}
	}
}
