{
	 "smiles": "[O-][N+](=O)C1=CC=C(C=C1)C1=CC=C(O1)C=NN1CC(=O)NC1=O", 
	 "Tm": 553.15, 
	 "num_atms": 33, 
	 "gaussian": { 
		 "optdone": 1, 
		 "sigma_profile": "yes", 
		 "theory": "DFT", 
		 "functional": "B3LYP", 
		 "basiset": "6-31G**", 
		 "properties": { 
			 "R2extent": 14555.1057, 
			 "electric_dipole_moment_norm": 5.28244230068, 
			 "electric_quadrupole_moment_norm": 50.9867796426, 
			 "total_energy": -1134.52417819, 
			 "HOMO_LUMO_gap": 0.11951, 
			 "cosmo_polarized_energy": -20.87, 
			 "cosmo_cavitation_energy": 41.06, 
			 "cosmo_dispersion_energy": -29.91, 
			 "cosmo_repulsion_energy": 2.25, 
			 "cosmo_total_nonelectrostatic_energy": 13.41, 
			 "SMD_solvation_energy": 10.33 
		},
		"coords": [
			{
				"x": 0.6036457761,
				"y": -7.3218153692,
				"z": -1.6842919436,
				"element": "O" 
			},
			{
				"x": 1.1649622359,
				"y": -6.4398219152,
				"z": -1.0322309888,
				"element": "N" 
			},
			{
				"x": 2.1174538091,
				"y": -6.6280897966,
				"z": -0.2741644994,
				"element": "O" 
			},
			{
				"x": 0.6632744426,
				"y": -5.0693727047,
				"z": -1.1683283336,
				"element": "C" 
			},
			{
				"x": -0.4154475999,
				"y": -4.8222509982,
				"z": -2.019028593,
				"element": "C" 
			},
			{
				"x": -0.8873696605,
				"y": -3.5243198822,
				"z": -2.145222519,
				"element": "C" 
			},
			{
				"x": -0.2916141754,
				"y": -2.4656919828,
				"z": -1.4283791744,
				"element": "C" 
			},
			{
				"x": 0.7963768497,
				"y": -2.7486065966,
				"z": -0.5773273561,
				"element": "C" 
			},
			{
				"x": 1.2746604256,
				"y": -4.0451888482,
				"z": -0.4454868857,
				"element": "C" 
			},
			{
				"x": -0.7926109358,
				"y": -1.1107254392,
				"z": -1.5671223807,
				"element": "C" 
			},
			{
				"x": -1.8145856247,
				"y": -0.5468587177,
				"z": -2.3029253801,
				"element": "C" 
			},
			{
				"x": -1.8145003786,
				"y": 0.8398723465,
				"z": -2.0174320457,
				"element": "C" 
			},
			{
				"x": -0.7918510376,
				"y": 1.0546861696,
				"z": -1.1207349339,
				"element": "C" 
			},
			{
				"x": -0.1686518309,
				"y": -0.1316557498,
				"z": -0.8454144292,
				"element": "O" 
			},
			{
				"x": -0.2642144138,
				"y": 2.2130432488,
				"z": -0.4427887251,
				"element": "C" 
			},
			{
				"x": -0.8146896974,
				"y": 3.3624607303,
				"z": -0.6648533741,
				"element": "N" 
			},
			{
				"x": -0.3456572324,
				"y": 4.4796900231,
				"z": -0.044428531,
				"element": "N" 
			},
			{
				"x": -1.004049833,
				"y": 5.747526775,
				"z": -0.3313299351,
				"element": "C" 
			},
			{
				"x": -0.2261999777,
				"y": 6.74707579,
				"z": 0.5244494034,
				"element": "C" 
			},
			{
				"x": -0.4074173046,
				"y": 7.9392642966,
				"z": 0.6194370286,
				"element": "O" 
			},
			{
				"x": 0.7369546942,
				"y": 5.9933293294,
				"z": 1.1729005941,
				"element": "N" 
			},
			{
				"x": 0.7004627507,
				"y": 4.6229782332,
				"z": 0.8591115571,
				"element": "C" 
			},
			{
				"x": 1.4424092658,
				"y": 3.7686797044,
				"z": 1.3023512974,
				"element": "O" 
			},
			{
				"x": -0.862094277,
				"y": -5.6451630274,
				"z": -2.5626076842,
				"element": "H" 
			},
			{
				"x": -1.7255282547,
				"y": -3.3277942736,
				"z": -2.8053813783,
				"element": "H" 
			},
			{
				"x": 1.2612495412,
				"y": -1.9425011315,
				"z": -0.0219786811,
				"element": "H" 
			},
			{
				"x": 2.1090475864,
				"y": -4.2786755065,
				"z": 0.2038592517,
				"element": "H" 
			},
			{
				"x": -2.486039681,
				"y": -1.0678492597,
				"z": -2.9697140075,
				"element": "H" 
			},
			{
				"x": -2.4741488076,
				"y": 1.5983255413,
				"z": -2.4111716187,
				"element": "H" 
			},
			{
				"x": 0.5777789732,
				"y": 2.0630816765,
				"z": 0.2278384371,
				"element": "H" 
			},
			{
				"x": -2.0603655169,
				"y": 5.7324059855,
				"z": -0.0432975404,
				"element": "H" 
			},
			{
				"x": -0.9354087722,
				"y": 6.0115353062,
				"z": -1.3917858069,
				"element": "H" 
			},
			{
				"x": 1.416568661,
				"y": 6.3719260424,
				"z": 1.818279176,
				"element": "H" 
			}
		],
		 "valence_orbital": [ 
			{
				"type": "occ",
				"energy": -0.28737,
				"method": "rhf"
			},
			{
				"type": "occ",
				"energy": -0.28089,
				"method": "rhf"
			},
			{
				"type": "occ",
				"energy": -0.28041,
				"method": "rhf"
			},
			{
				"type": "occ",
				"energy": -0.27445,
				"method": "rhf"
			},
			{
				"type": "occ",
				"energy": -0.21705,
				"method": "rhf"
			},
			{
				"type": "unocc",
				"energy": -0.09754,
				"method": "rhf"
			},
			{
				"type": "unocc",
				"energy": -0.06286,
				"method": "rhf"
			},
			{
				"type": "unocc",
				"energy": -0.02891,
				"method": "rhf"
			},
			{
				"type": "unocc",
				"energy": -0.02771,
				"method": "rhf"
			},
			{
				"type": "unocc",
				"energy": -0.01599,
				"method": "rhf"
			}
		],
		"cosmo_sigma_profile": { 
			"-0.025": 0.0,
			"-0.024": 0.0,
			"-0.023": 0.0,
			"-0.022": 0.0,
			"-0.021": 0.0,
			"-0.02": 0.0,
			"-0.019": 0.0,
			"-0.018": 0.0939742809009,
			"-0.017": 1.1091667272,
			"-0.016": 1.45976846908,
			"-0.015": 0.732644473739,
			"-0.014": 0.713089973573,
			"-0.013": 0.754690925058,
			"-0.012": 1.19350332562,
			"-0.011": 1.04988818143,
			"-0.01": 0.764404923993,
			"-0.009": 7.59571736891,
			"-0.008": 13.6524445637,
			"-0.007": 14.167872581,
			"-0.006": 16.364305642,
			"-0.005": 15.6403864672,
			"-0.004": 15.9872611895,
			"-0.003": 19.6239450186,
			"-0.002": 19.7630156647,
			"-0.001": 23.062154655,
			"0.0": 29.9464202622,
			"0.001": 32.0658424758,
			"0.002": 24.6500502194,
			"0.003": 13.9103118438,
			"0.004": 7.73692703779,
			"0.005": 6.63863303378,
			"0.006": 7.31959290685,
			"0.007": 9.02733580737,
			"0.008": 13.0774765479,
			"0.009": 8.81576388443,
			"0.01": 9.42819673251,
			"0.011": 8.6431882299,
			"0.012": 5.92135269631,
			"0.013": 0.414345762763,
			"0.014": 0.0,
			"0.015": 0.0,
			"0.016": 0.0,
			"0.017": 0.0,
			"0.018": 0.0,
			"0.019": 0.0,
			"0.02": 0.0,
			"0.021": 0.0,
			"0.022": 0.0,
			"0.023": 0.0,
			"0.024": 0.0,
			"0.025": 0.0
		}
	}
}
