{
	 "smiles": "CC(C)N1N=CC2=C1N=C(C)C(=C2)C(O)=O", 
	 "Tm": 440.15, 
	 "num_atms": 29, 
	 "gaussian": { 
		 "optdone": 1, 
		 "sigma_profile": "yes", 
		 "theory": "DFT", 
		 "functional": "B3LYP", 
		 "basiset": "6-31G**", 
		 "properties": { 
			 "R2extent": 4772.3878, 
			 "electric_dipole_moment_norm": 1.6256096764, 
			 "electric_quadrupole_moment_norm": 8.12751458073, 
			 "total_energy": -741.731416458, 
			 "HOMO_LUMO_gap": 0.18234, 
			 "cosmo_polarized_energy": -11.01, 
			 "cosmo_cavitation_energy": 32.67, 
			 "cosmo_dispersion_energy": -23.44, 
			 "cosmo_repulsion_energy": 1.83, 
			 "cosmo_total_nonelectrostatic_energy": 11.06, 
			 "SMD_solvation_energy": 5.2 
		},
		"coords": [
			{
				"x": -2.6709988904,
				"y": -0.1121340425,
				"z": -1.885662099,
				"element": "C" 
			},
			{
				"x": -1.4740465857,
				"y": -0.8321847407,
				"z": -1.2548210545,
				"element": "C" 
			},
			{
				"x": -1.0742155809,
				"y": -2.0956415299,
				"z": -2.0246293017,
				"element": "C" 
			},
			{
				"x": -0.3302630947,
				"y": 0.0808881786,
				"z": -1.1426920968,
				"element": "N" 
			},
			{
				"x": 0.2492779084,
				"y": 0.619915599,
				"z": -2.2549868824,
				"element": "N" 
			},
			{
				"x": 1.2384597961,
				"y": 1.3914400871,
				"z": -1.8399396514,
				"element": "C" 
			},
			{
				"x": 1.3338893542,
				"y": 1.3774828028,
				"z": -0.4162793311,
				"element": "C" 
			},
			{
				"x": 0.2902215879,
				"y": 0.5093298274,
				"z": -0.0082113239,
				"element": "C" 
			},
			{
				"x": -0.0254587145,
				"y": 0.1748884303,
				"z": 1.2481482027,
				"element": "N" 
			},
			{
				"x": 0.7205900669,
				"y": 0.7157353475,
				"z": 2.2145348384,
				"element": "C" 
			},
			{
				"x": 0.3202882334,
				"y": 0.3048022356,
				"z": 3.6107161789,
				"element": "C" 
			},
			{
				"x": 1.8092336318,
				"y": 1.6127028612,
				"z": 1.9235533302,
				"element": "C" 
			},
			{
				"x": 2.1079826337,
				"y": 1.9378479853,
				"z": 0.5966562025,
				"element": "C" 
			},
			{
				"x": 2.6949672348,
				"y": 2.2641615044,
				"z": 2.9264850346,
				"element": "C" 
			},
			{
				"x": 2.4223352961,
				"y": 1.9638024826,
				"z": 4.2203862742,
				"element": "O" 
			},
			{
				"x": 3.6077388379,
				"y": 3.0177623278,
				"z": 2.6395000268,
				"element": "O" 
			},
			{
				"x": -2.4293894047,
				"y": 0.2132023315,
				"z": -2.901293572,
				"element": "H" 
			},
			{
				"x": -2.952269488,
				"y": 0.7668939673,
				"z": -1.2985221394,
				"element": "H" 
			},
			{
				"x": -3.5323952728,
				"y": -0.7855666116,
				"z": -1.9312868626,
				"element": "H" 
			},
			{
				"x": -1.7074530844,
				"y": -1.0925822007,
				"z": -0.2179588825,
				"element": "H" 
			},
			{
				"x": -0.2387308067,
				"y": -2.6040708443,
				"z": -1.5347309685,
				"element": "H" 
			},
			{
				"x": -0.774447804,
				"y": -1.8426076186,
				"z": -3.0453020881,
				"element": "H" 
			},
			{
				"x": -1.9194118077,
				"y": -2.789184472,
				"z": -2.0715910394,
				"element": "H" 
			},
			{
				"x": 1.8445242221,
				"y": 1.9263359282,
				"z": -2.5590113622,
				"element": "H" 
			},
			{
				"x": 0.0425156671,
				"y": 1.168989876,
				"z": 4.2201535747,
				"element": "H" 
			},
			{
				"x": 1.1412570467,
				"y": -0.1918427496,
				"z": 4.1348783866,
				"element": "H" 
			},
			{
				"x": -0.5284697568,
				"y": -0.3756972942,
				"z": 3.5342310514,
				"element": "H" 
			},
			{
				"x": 2.9327274074,
				"y": 2.6155863783,
				"z": 0.4032202283,
				"element": "H" 
			},
			{
				"x": 3.078641367,
				"y": 2.4604439533,
				"z": 4.7374553264,
				"element": "H" 
			}
		],
		 "valence_orbital": [ 
			{
				"type": "occ",
				"energy": -0.29924,
				"method": "rhf"
			},
			{
				"type": "occ",
				"energy": -0.28356,
				"method": "rhf"
			},
			{
				"type": "occ",
				"energy": -0.26625,
				"method": "rhf"
			},
			{
				"type": "occ",
				"energy": -0.25043,
				"method": "rhf"
			},
			{
				"type": "occ",
				"energy": -0.23702,
				"method": "rhf"
			},
			{
				"type": "unocc",
				"energy": -0.05468,
				"method": "rhf"
			},
			{
				"type": "unocc",
				"energy": -0.03161,
				"method": "rhf"
			},
			{
				"type": "unocc",
				"energy": 0.03892,
				"method": "rhf"
			},
			{
				"type": "unocc",
				"energy": 0.06807,
				"method": "rhf"
			},
			{
				"type": "unocc",
				"energy": 0.07743,
				"method": "rhf"
			}
		],
		"cosmo_sigma_profile": { 
			"-0.025": 0.0,
			"-0.024": 0.0,
			"-0.023": 0.0,
			"-0.022": 0.0,
			"-0.021": 0.0,
			"-0.02": 0.0,
			"-0.019": 0.00152985041946,
			"-0.018": 0.720868939908,
			"-0.017": 0.866010277315,
			"-0.016": 0.991114127746,
			"-0.015": 0.417294033472,
			"-0.014": 0.730876023269,
			"-0.013": 0.402639658303,
			"-0.012": 0.96070808223,
			"-0.011": 1.0768318878,
			"-0.01": 0.827525967012,
			"-0.009": 0.292608751714,
			"-0.008": 2.06390500733,
			"-0.007": 3.99906404878,
			"-0.006": 5.3753123046,
			"-0.005": 5.88936515226,
			"-0.004": 18.1826882099,
			"-0.003": 23.9625383703,
			"-0.002": 27.8532516663,
			"-0.001": 31.1924683074,
			"0.0": 40.0034311197,
			"0.001": 23.2898240586,
			"0.002": 13.3290636978,
			"0.003": 8.90079489017,
			"0.004": 7.63345770898,
			"0.005": 8.26437169606,
			"0.006": 4.33410522889,
			"0.007": 4.39746779413,
			"0.008": 4.4237612222,
			"0.009": 3.63923981262,
			"0.01": 3.67179356125,
			"0.011": 5.35000375288,
			"0.012": 4.95603393787,
			"0.013": 0.828769084538,
			"0.014": 0.113556451429,
			"0.015": 0.0,
			"0.016": 0.0,
			"0.017": 0.0,
			"0.018": 0.0,
			"0.019": 0.0,
			"0.02": 0.0,
			"0.021": 0.0,
			"0.022": 0.0,
			"0.023": 0.0,
			"0.024": 0.0,
			"0.025": 0.0
		}
	}
}
