{
	 "smiles": "CN1CCN(CC2=CC=CC(CO)=C2)CC1", 
	 "Tm": 324.65, 
	 "num_atms": 36, 
	 "gaussian": { 
		 "optdone": 1, 
		 "sigma_profile": "yes", 
		 "theory": "DFT", 
		 "functional": "B3LYP", 
		 "basiset": "6-31G**", 
		 "properties": { 
			 "R2extent": 4300.4117, 
			 "electric_dipole_moment_norm": 2.05994320796, 
			 "electric_quadrupole_moment_norm": 4.12822014432, 
			 "total_energy": -692.12410135, 
			 "HOMO_LUMO_gap": 0.18898, 
			 "cosmo_polarized_energy": -10.37, 
			 "cosmo_cavitation_energy": 36.25, 
			 "cosmo_dispersion_energy": -25.06, 
			 "cosmo_repulsion_energy": 1.97, 
			 "cosmo_total_nonelectrostatic_energy": 13.16, 
			 "SMD_solvation_energy": 0.75 
		},
		"coords": [
			{
				"x": 2.4738222082,
				"y": 0.4609418693,
				"z": -3.278231599,
				"element": "C" 
			},
			{
				"x": 1.2201952333,
				"y": -0.2616553845,
				"z": -3.1430221304,
				"element": "N" 
			},
			{
				"x": 0.2800237432,
				"y": 0.4488820186,
				"z": -2.2710481404,
				"element": "C" 
			},
			{
				"x": -0.8544558314,
				"y": -0.4815876544,
				"z": -1.8383621122,
				"element": "C" 
			},
			{
				"x": -0.3763235443,
				"y": -1.6479519671,
				"z": -1.0751144296,
				"element": "N" 
			},
			{
				"x": -0.8117490328,
				"y": -1.7438986188,
				"z": 0.3202244526,
				"element": "C" 
			},
			{
				"x": -0.2365736671,
				"y": -0.724000762,
				"z": 1.2983728551,
				"element": "C" 
			},
			{
				"x": 0.9753905158,
				"y": -0.9667530067,
				"z": 1.9618782373,
				"element": "C" 
			},
			{
				"x": 1.5197468051,
				"y": -0.0134766849,
				"z": 2.8235869077,
				"element": "C" 
			},
			{
				"x": 0.8577972083,
				"y": 1.1951949141,
				"z": 3.0396889288,
				"element": "C" 
			},
			{
				"x": -0.3651555283,
				"y": 1.4508548193,
				"z": 2.4092255154,
				"element": "C" 
			},
			{
				"x": -1.1241612878,
				"y": 2.7360432401,
				"z": 2.6834267946,
				"element": "C" 
			},
			{
				"x": -1.9181260611,
				"y": 3.1784250507,
				"z": 1.5912376832,
				"element": "O" 
			},
			{
				"x": -0.8981681497,
				"y": 0.4866745151,
				"z": 1.5459710162,
				"element": "C" 
			},
			{
				"x": 1.0343770729,
				"y": -1.9560569083,
				"z": -1.3042642077,
				"element": "C" 
			},
			{
				"x": 1.3776908901,
				"y": -1.6815058155,
				"z": -2.7710787171,
				"element": "C" 
			},
			{
				"x": 2.2736291366,
				"y": 1.4710192561,
				"z": -3.6536440397,
				"element": "H" 
			},
			{
				"x": 3.1206347209,
				"y": -0.0393765205,
				"z": -4.0059236733,
				"element": "H" 
			},
			{
				"x": 3.037741211,
				"y": 0.5661808819,
				"z": -2.3299299271,
				"element": "H" 
			},
			{
				"x": -0.1306294579,
				"y": 1.3105359704,
				"z": -2.8151564013,
				"element": "H" 
			},
			{
				"x": 0.7760952583,
				"y": 0.8491083582,
				"z": -1.3656300206,
				"element": "H" 
			},
			{
				"x": -1.3898575497,
				"y": -0.820843008,
				"z": -2.7374793059,
				"element": "H" 
			},
			{
				"x": -1.5713700508,
				"y": 0.0857606224,
				"z": -1.2383934699,
				"element": "H" 
			},
			{
				"x": -1.9057741921,
				"y": -1.6762350799,
				"z": 0.3314946202,
				"element": "H" 
			},
			{
				"x": -0.5554006739,
				"y": -2.7532765773,
				"z": 0.6679752905,
				"element": "H" 
			},
			{
				"x": 1.4892167457,
				"y": -1.9127838186,
				"z": 1.8107604047,
				"element": "H" 
			},
			{
				"x": 2.462167829,
				"y": -0.2125492872,
				"z": 3.3265033132,
				"element": "H" 
			},
			{
				"x": 1.2877539325,
				"y": 1.9391767573,
				"z": 3.7066177963,
				"element": "H" 
			},
			{
				"x": -0.4191927608,
				"y": 3.5158093928,
				"z": 3.0132467675,
				"element": "H" 
			},
			{
				"x": -1.8330068055,
				"y": 2.5849856086,
				"z": 3.5067416328,
				"element": "H" 
			},
			{
				"x": -1.3285189448,
				"y": 3.2906166597,
				"z": 0.8334622702,
				"element": "H" 
			},
			{
				"x": -1.8544500051,
				"y": 0.6921658018,
				"z": 1.0721981182,
				"element": "H" 
			},
			{
				"x": 1.717031921,
				"y": -1.3712026541,
				"z": -0.6612406236,
				"element": "H" 
			},
			{
				"x": 1.2092503322,
				"y": -3.0156529662,
				"z": -1.0694727165,
				"element": "H" 
			},
			{
				"x": 0.7270134085,
				"y": -2.3024931214,
				"z": -3.4019950131,
				"element": "H" 
			},
			{
				"x": 2.4080353706,
				"y": -1.9923759008,
				"z": -2.9707260772,
				"element": "H" 
			}
		],
		 "valence_orbital": [ 
			{
				"type": "occ",
				"energy": -0.2782,
				"method": "rhf"
			},
			{
				"type": "occ",
				"energy": -0.24811,
				"method": "rhf"
			},
			{
				"type": "occ",
				"energy": -0.24157,
				"method": "rhf"
			},
			{
				"type": "occ",
				"energy": -0.19955,
				"method": "rhf"
			},
			{
				"type": "occ",
				"energy": -0.19548,
				"method": "rhf"
			},
			{
				"type": "unocc",
				"energy": -0.0065,
				"method": "rhf"
			},
			{
				"type": "unocc",
				"energy": -0.00481,
				"method": "rhf"
			},
			{
				"type": "unocc",
				"energy": 0.07265,
				"method": "rhf"
			},
			{
				"type": "unocc",
				"energy": 0.09005,
				"method": "rhf"
			},
			{
				"type": "unocc",
				"energy": 0.09859,
				"method": "rhf"
			}
		],
		"cosmo_sigma_profile": { 
			"-0.025": 0.0,
			"-0.024": 0.0,
			"-0.023": 0.0,
			"-0.022": 0.0,
			"-0.021": 0.0,
			"-0.02": 0.0,
			"-0.019": 0.0,
			"-0.018": 0.0,
			"-0.017": 0.0,
			"-0.016": 0.0327566996817,
			"-0.015": 0.580832041012,
			"-0.014": 0.920168380317,
			"-0.013": 1.25510184031,
			"-0.012": 0.361887786885,
			"-0.011": 0.616804471624,
			"-0.01": 0.606842941762,
			"-0.009": 0.880002330154,
			"-0.008": 1.35344935601,
			"-0.007": 1.1142258696,
			"-0.006": 2.18810062833,
			"-0.005": 12.5255993724,
			"-0.004": 24.5603150485,
			"-0.003": 33.3151010499,
			"-0.002": 35.0423511919,
			"-0.001": 40.8676363245,
			"0.0": 32.3292530249,
			"0.001": 18.283635006,
			"0.002": 13.1989811096,
			"0.003": 10.2828156371,
			"0.004": 9.83192556276,
			"0.005": 9.83203326972,
			"0.006": 8.877020022,
			"0.007": 3.52908923251,
			"0.008": 2.61214300705,
			"0.009": 2.64903303733,
			"0.01": 2.21702542697,
			"0.011": 1.96448991204,
			"0.012": 2.80719879829,
			"0.013": 2.2791740554,
			"0.014": 2.85570183753,
			"0.015": 1.46922090266,
			"0.016": 0.33663311123,
			"0.017": 0.269749212122,
			"0.018": 0.0,
			"0.019": 0.0,
			"0.02": 0.0,
			"0.021": 0.0,
			"0.022": 0.0,
			"0.023": 0.0,
			"0.024": 0.0,
			"0.025": 0.0
		}
	}
}
