{
	 "smiles": "CC1=C(C=NN1CC1=CC=CC=C1)C(O)=O", 
	 "Tm": 446.15, 
	 "num_atms": 28, 
	 "gaussian": { 
		 "optdone": 1, 
		 "sigma_profile": "yes", 
		 "theory": "DFT", 
		 "functional": "B3LYP", 
		 "basiset": "6-31G**", 
		 "properties": { 
			 "R2extent": 4560.7755, 
			 "electric_dipole_moment_norm": 2.12571084111, 
			 "electric_quadrupole_moment_norm": 12.8312541223, 
			 "total_energy": -724.470779143, 
			 "HOMO_LUMO_gap": 0.22792, 
			 "cosmo_polarized_energy": -13.05, 
			 "cosmo_cavitation_energy": 32.43, 
			 "cosmo_dispersion_energy": -22.82, 
			 "cosmo_repulsion_energy": 1.77, 
			 "cosmo_total_nonelectrostatic_energy": 11.38, 
			 "SMD_solvation_energy": 5.95 
		},
		"coords": [
			{
				"x": -0.9624202738,
				"y": -0.6881872194,
				"z": 0.6827370107,
				"element": "C" 
			},
			{
				"x": -0.6109060616,
				"y": 0.2107948947,
				"z": -0.4574342472,
				"element": "C" 
			},
			{
				"x": -0.9803829657,
				"y": 0.1696260023,
				"z": -1.8057463026,
				"element": "C" 
			},
			{
				"x": -0.3301200289,
				"y": 1.2826184436,
				"z": -2.3974729616,
				"element": "C" 
			},
			{
				"x": 0.3785356123,
				"y": 1.9641757255,
				"z": -1.5109792522,
				"element": "N" 
			},
			{
				"x": 0.1903253086,
				"y": 1.2984351473,
				"z": -0.3328649114,
				"element": "N" 
			},
			{
				"x": 0.8985598725,
				"y": 1.7619032556,
				"z": 0.8565725093,
				"element": "C" 
			},
			{
				"x": 2.1962668709,
				"y": 1.0187519767,
				"z": 1.1245622045,
				"element": "C" 
			},
			{
				"x": 3.1531151654,
				"y": 0.8734312075,
				"z": 0.1106678565,
				"element": "C" 
			},
			{
				"x": 4.3548064889,
				"y": 0.215641432,
				"z": 0.3679863245,
				"element": "C" 
			},
			{
				"x": 4.6173312142,
				"y": -0.300491477,
				"z": 1.6402743609,
				"element": "C" 
			},
			{
				"x": 3.6700963701,
				"y": -0.1576606292,
				"z": 2.6538826953,
				"element": "C" 
			},
			{
				"x": 2.4633680916,
				"y": 0.4969157158,
				"z": 2.3944171779,
				"element": "C" 
			},
			{
				"x": -1.8527602152,
				"y": -0.8131506058,
				"z": -2.4415440579,
				"element": "C" 
			},
			{
				"x": -2.0101873268,
				"y": -0.5726681898,
				"z": -3.7709891075,
				"element": "O" 
			},
			{
				"x": -2.3998959678,
				"y": -1.7566701217,
				"z": -1.8946675956,
				"element": "O" 
			},
			{
				"x": -0.0643701109,
				"y": -1.1154961182,
				"z": 1.1418652864,
				"element": "H" 
			},
			{
				"x": -1.508651422,
				"y": -0.1456370251,
				"z": 1.4639711011,
				"element": "H" 
			},
			{
				"x": -1.595277275,
				"y": -1.4949673617,
				"z": 0.3137829101,
				"element": "H" 
			},
			{
				"x": -0.3672400806,
				"y": 1.6004913544,
				"z": -3.4299355742,
				"element": "H" 
			},
			{
				"x": 0.22858182,
				"y": 1.6765919661,
				"z": 1.7169593162,
				"element": "H" 
			},
			{
				"x": 1.0866113113,
				"y": 2.8248659282,
				"z": 0.6836230902,
				"element": "H" 
			},
			{
				"x": 2.9460123228,
				"y": 1.2754253063,
				"z": -0.8770147132,
				"element": "H" 
			},
			{
				"x": 5.0894235926,
				"y": 0.1068185569,
				"z": -0.42477737,
				"element": "H" 
			},
			{
				"x": 5.5547697559,
				"y": -0.8121422407,
				"z": 1.8381622621,
				"element": "H" 
			},
			{
				"x": 3.8647109995,
				"y": -0.5590027169,
				"z": 3.6443075374,
				"element": "H" 
			},
			{
				"x": 1.7260249599,
				"y": 0.6042096153,
				"z": 3.1867611987,
				"element": "H" 
			},
			{
				"x": -2.598828028,
				"y": -1.2746228227,
				"z": -4.0935067485,
				"element": "H" 
			}
		],
		 "valence_orbital": [ 
			{
				"type": "occ",
				"energy": -0.26775,
				"method": "rhf"
			},
			{
				"type": "occ",
				"energy": -0.26178,
				"method": "rhf"
			},
			{
				"type": "occ",
				"energy": -0.25753,
				"method": "rhf"
			},
			{
				"type": "occ",
				"energy": -0.24994,
				"method": "rhf"
			},
			{
				"type": "occ",
				"energy": -0.24702,
				"method": "rhf"
			},
			{
				"type": "unocc",
				"energy": -0.0191,
				"method": "rhf"
			},
			{
				"type": "unocc",
				"energy": -0.01339,
				"method": "rhf"
			},
			{
				"type": "unocc",
				"energy": -0.00863,
				"method": "rhf"
			},
			{
				"type": "unocc",
				"energy": 0.01871,
				"method": "rhf"
			},
			{
				"type": "unocc",
				"energy": 0.08286,
				"method": "rhf"
			}
		],
		"cosmo_sigma_profile": { 
			"-0.025": 0.0,
			"-0.024": 0.0,
			"-0.023": 0.0,
			"-0.022": 0.0,
			"-0.021": 0.0,
			"-0.02": 0.0,
			"-0.019": 0.0,
			"-0.018": 0.253099972461,
			"-0.017": 1.11575240114,
			"-0.016": 0.821046891043,
			"-0.015": 0.593638086596,
			"-0.014": 1.11027210635,
			"-0.013": 0.594751728903,
			"-0.012": 0.408619062324,
			"-0.011": 0.431858751343,
			"-0.01": 1.29305620481,
			"-0.009": 0.519165049247,
			"-0.008": 1.76673795643,
			"-0.007": 7.91358835862,
			"-0.006": 13.8288324337,
			"-0.005": 16.2712474747,
			"-0.004": 19.7204539511,
			"-0.003": 19.0661475097,
			"-0.002": 20.9458741416,
			"-0.001": 19.8627501327,
			"0.0": 17.6989275771,
			"0.001": 19.5540539581,
			"0.002": 17.5945885974,
			"0.003": 16.4389549684,
			"0.004": 14.063048485,
			"0.005": 12.8976799448,
			"0.006": 8.5634561893,
			"0.007": 3.87374431046,
			"0.008": 5.47408217539,
			"0.009": 2.23673814322,
			"0.01": 2.8735443416,
			"0.011": 3.45430095051,
			"0.012": 5.01357405651,
			"0.013": 1.45188548147,
			"0.014": 0.576566790765,
			"0.015": 0.442629597317,
			"0.016": 0.0,
			"0.017": 0.0,
			"0.018": 0.0,
			"0.019": 0.0,
			"0.02": 0.0,
			"0.021": 0.0,
			"0.022": 0.0,
			"0.023": 0.0,
			"0.024": 0.0,
			"0.025": 0.0
		}
	}
}
