{
	 "smiles": "COC1=CC=C(C=C1)C1CNC(=O)C1", 
	 "Tm": 400.15, 
	 "num_atms": 27, 
	 "gaussian": { 
		 "optdone": 1, 
		 "sigma_profile": "yes", 
		 "theory": "DFT", 
		 "functional": "B3LYP", 
		 "basiset": "6-31G**", 
		 "properties": { 
			 "R2extent": 3788.248, 
			 "electric_dipole_moment_norm": 3.37364371859, 
			 "electric_quadrupole_moment_norm": 19.9176055624, 
			 "total_energy": -632.210046376, 
			 "HOMO_LUMO_gap": 0.20979, 
			 "cosmo_polarized_energy": -14.45, 
			 "cosmo_cavitation_energy": 29.81, 
			 "cosmo_dispersion_energy": -21.88, 
			 "cosmo_repulsion_energy": 1.75, 
			 "cosmo_total_nonelectrostatic_energy": 9.68, 
			 "SMD_solvation_energy": 5.83 
		},
		"coords": [
			{
				"x": -0.7235956517,
				"y": 1.0583536529,
				"z": 4.3391759887,
				"element": "C" 
			},
			{
				"x": 0.4049312516,
				"y": 0.3060691981,
				"z": 3.9245177034,
				"element": "O" 
			},
			{
				"x": 0.4838645617,
				"y": -0.0700241182,
				"z": 2.6141207444,
				"element": "C" 
			},
			{
				"x": 1.6150941643,
				"y": -0.8173374437,
				"z": 2.2594291673,
				"element": "C" 
			},
			{
				"x": 1.7835564439,
				"y": -1.2455755915,
				"z": 0.9478453645,
				"element": "C" 
			},
			{
				"x": 0.8414030215,
				"y": -0.9491471698,
				"z": -0.0491033477,
				"element": "C" 
			},
			{
				"x": -0.2820796871,
				"y": -0.2010192375,
				"z": 0.3227652918,
				"element": "C" 
			},
			{
				"x": -0.468367995,
				"y": 0.2394062712,
				"z": 1.6354947837,
				"element": "C" 
			},
			{
				"x": 1.0473030652,
				"y": -1.4482590579,
				"z": -1.4693363343,
				"element": "C" 
			},
			{
				"x": 0.9215164678,
				"y": -0.3235418307,
				"z": -2.5457499384,
				"element": "C" 
			},
			{
				"x": -0.4331579032,
				"y": -0.4883884156,
				"z": -3.0483922057,
				"element": "N" 
			},
			{
				"x": -0.9981398732,
				"y": -1.7166947622,
				"z": -2.8074913454,
				"element": "C" 
			},
			{
				"x": -2.0687617186,
				"y": -2.1070288341,
				"z": -3.2387109287,
				"element": "O" 
			},
			{
				"x": -0.017495819,
				"y": -2.4849265388,
				"z": -1.9184190174,
				"element": "C" 
			},
			{
				"x": -0.7873837108,
				"y": 2.0193020582,
				"z": 3.8120653224,
				"element": "H" 
			},
			{
				"x": -1.6591437139,
				"y": 0.5046728922,
				"z": 4.1866132023,
				"element": "H" 
			},
			{
				"x": -0.5874498768,
				"y": 1.2440028074,
				"z": 5.4057769498,
				"element": "H" 
			},
			{
				"x": 2.3467045018,
				"y": -1.0480521152,
				"z": 3.026989662,
				"element": "H" 
			},
			{
				"x": 2.6682467137,
				"y": -1.8239819725,
				"z": 0.6917226543,
				"element": "H" 
			},
			{
				"x": -1.0331316007,
				"y": 0.0502325131,
				"z": -0.4210886491,
				"element": "H" 
			},
			{
				"x": -1.3528631915,
				"y": 0.8159940648,
				"z": 1.8794906977,
				"element": "H" 
			},
			{
				"x": 2.048905507,
				"y": -1.8831592611,
				"z": -1.5266811556,
				"element": "H" 
			},
			{
				"x": 1.0688095452,
				"y": 0.6690951416,
				"z": -2.1094819913,
				"element": "H" 
			},
			{
				"x": 1.6663149502,
				"y": -0.4579122201,
				"z": -3.3438166902,
				"element": "H" 
			},
			{
				"x": -0.8481016604,
				"y": 0.1247067833,
				"z": -3.7355964502,
				"element": "H" 
			},
			{
				"x": -0.5447426317,
				"y": -2.9563954516,
				"z": -1.0868354401,
				"element": "H" 
			},
			{
				"x": 0.4218648401,
				"y": -3.2853913624,
				"z": -2.5253040381,
				"element": "H" 
			}
		],
		 "valence_orbital": [ 
			{
				"type": "occ",
				"energy": -0.31355,
				"method": "rhf"
			},
			{
				"type": "occ",
				"energy": -0.2523,
				"method": "rhf"
			},
			{
				"type": "occ",
				"energy": -0.25138,
				"method": "rhf"
			},
			{
				"type": "occ",
				"energy": -0.23833,
				"method": "rhf"
			},
			{
				"type": "occ",
				"energy": -0.21516,
				"method": "rhf"
			},
			{
				"type": "unocc",
				"energy": -0.00537,
				"method": "rhf"
			},
			{
				"type": "unocc",
				"energy": 0.01003,
				"method": "rhf"
			},
			{
				"type": "unocc",
				"energy": 0.03649,
				"method": "rhf"
			},
			{
				"type": "unocc",
				"energy": 0.07947,
				"method": "rhf"
			},
			{
				"type": "unocc",
				"energy": 0.09445,
				"method": "rhf"
			}
		],
		"cosmo_sigma_profile": { 
			"-0.025": 0.0,
			"-0.024": 0.0,
			"-0.023": 0.0,
			"-0.022": 0.0,
			"-0.021": 0.0,
			"-0.02": 0.0,
			"-0.019": 0.0,
			"-0.018": 0.0,
			"-0.017": 0.0,
			"-0.016": 0.0,
			"-0.015": 0.0119480544281,
			"-0.014": 0.789360789503,
			"-0.013": 1.49307020511,
			"-0.012": 0.941878234627,
			"-0.011": 0.50229269229,
			"-0.01": 1.34769782939,
			"-0.009": 0.951248971245,
			"-0.008": 1.08453627399,
			"-0.007": 1.24577034578,
			"-0.006": 7.6052934578,
			"-0.005": 25.3637101778,
			"-0.004": 31.8613734661,
			"-0.003": 27.8160066169,
			"-0.002": 20.130666823,
			"-0.001": 15.4182458649,
			"0.0": 11.7663177423,
			"0.001": 10.1883986416,
			"0.002": 8.53172814564,
			"0.003": 9.27783871291,
			"0.004": 10.660840556,
			"0.005": 11.7291901064,
			"0.006": 10.0027933815,
			"0.007": 1.79312899741,
			"0.008": 2.64149629746,
			"0.009": 2.92848893585,
			"0.01": 2.87165267775,
			"0.011": 2.06074747432,
			"0.012": 2.0922128634,
			"0.013": 2.91576237709,
			"0.014": 6.30840773269,
			"0.015": 2.8609445145,
			"0.016": 0.0860635702564,
			"0.017": 0.0,
			"0.018": 0.0,
			"0.019": 0.0,
			"0.02": 0.0,
			"0.021": 0.0,
			"0.022": 0.0,
			"0.023": 0.0,
			"0.024": 0.0,
			"0.025": 0.0
		}
	}
}
