{
	 "smiles": "BrC1=CC=C2C(=O)C3=C(C=CC=C3)C(=O)C2=C1", 
	 "Tm": 479.15, 
	 "num_atms": 24, 
	 "gaussian": { 
		 "optdone": 1, 
		 "sigma_profile": "yes", 
		 "theory": "DFT", 
		 "functional": "B3LYP", 
		 "basiset": "6-31G**", 
		 "properties": { 
			 "R2extent": 7113.2047, 
			 "electric_dipole_moment_norm": 1.79332483672, 
			 "electric_quadrupole_moment_norm": 18.8563042164, 
			 "total_energy": -3259.57836169, 
			 "HOMO_LUMO_gap": 0.14946, 
			 "cosmo_polarized_energy": -9.07, 
			 "cosmo_cavitation_energy": 31.21, 
			 "cosmo_dispersion_energy": -23.52, 
			 "cosmo_repulsion_energy": 1.75, 
			 "cosmo_total_nonelectrostatic_energy": 9.45, 
			 "SMD_solvation_energy": 4.71 
		},
		"coords": [
			{
				"x": -4.9096849789,
				"y": -2.0716339403,
				"z": 1.4486558168,
				"element": "Br" 
			},
			{
				"x": -3.3744040987,
				"y": -1.0920962073,
				"z": 0.8849691595,
				"element": "C" 
			},
			{
				"x": -3.5307584602,
				"y": 0.2246943408,
				"z": 0.4388489486,
				"element": "C" 
			},
			{
				"x": -2.410681441,
				"y": 0.9394975733,
				"z": 0.027593801,
				"element": "C" 
			},
			{
				"x": -1.1405484505,
				"y": 0.3518109503,
				"z": 0.0582214164,
				"element": "C" 
			},
			{
				"x": 0.0384743357,
				"y": 1.1466170495,
				"z": -0.3897683674,
				"element": "C" 
			},
			{
				"x": -0.087245196,
				"y": 2.3016946993,
				"z": -0.7823151966,
				"element": "O" 
			},
			{
				"x": 1.3729238131,
				"y": 0.4826908644,
				"z": -0.3406870275,
				"element": "C" 
			},
			{
				"x": 1.514498691,
				"y": -0.844940119,
				"z": 0.1113331182,
				"element": "C" 
			},
			{
				"x": 2.7828861861,
				"y": -1.4361744503,
				"z": 0.1437214086,
				"element": "C" 
			},
			{
				"x": 3.9007546405,
				"y": -0.7155868837,
				"z": -0.2689934751,
				"element": "C" 
			},
			{
				"x": 3.7602198593,
				"y": 0.6029492431,
				"z": -0.7178998474,
				"element": "C" 
			},
			{
				"x": 2.5021115926,
				"y": 1.1991084574,
				"z": -0.7535079278,
				"element": "C" 
			},
			{
				"x": 0.3362451299,
				"y": -1.6404956688,
				"z": 0.559168948,
				"element": "C" 
			},
			{
				"x": 0.4537863964,
				"y": -2.7949702731,
				"z": 0.9531915562,
				"element": "O" 
			},
			{
				"x": -1.0007292297,
				"y": -0.9740601863,
				"z": 0.5098853113,
				"element": "C" 
			},
			{
				"x": -2.1234276585,
				"y": -1.6976791135,
				"z": 0.9246643786,
				"element": "C" 
			},
			{
				"x": -4.5158677019,
				"y": 0.6765654499,
				"z": 0.4164687603,
				"element": "H" 
			},
			{
				"x": -2.4975227113,
				"y": 1.9622406908,
				"z": -0.3237429781,
				"element": "H" 
			},
			{
				"x": 2.8639651129,
				"y": -2.4590483844,
				"z": 0.4958649367,
				"element": "H" 
			},
			{
				"x": 4.8829388103,
				"y": -1.1781395213,
				"z": -0.2422335851,
				"element": "H" 
			},
			{
				"x": 4.6335579233,
				"y": 1.1627867532,
				"z": -1.0392493861,
				"element": "H" 
			},
			{
				"x": 2.3655258159,
				"y": 2.2190508555,
				"z": -1.0968984498,
				"element": "H" 
			},
			{
				"x": -1.9928183802,
				"y": -2.7167821792,
				"z": 1.2686086808,
				"element": "H" 
			}
		],
		 "valence_orbital": [ 
			{
				"type": "occ",
				"energy": -0.27696,
				"method": "rhf"
			},
			{
				"type": "occ",
				"energy": -0.27573,
				"method": "rhf"
			},
			{
				"type": "occ",
				"energy": -0.27265,
				"method": "rhf"
			},
			{
				"type": "occ",
				"energy": -0.26408,
				"method": "rhf"
			},
			{
				"type": "occ",
				"energy": -0.25951,
				"method": "rhf"
			},
			{
				"type": "unocc",
				"energy": -0.11005,
				"method": "rhf"
			},
			{
				"type": "unocc",
				"energy": -0.06601,
				"method": "rhf"
			},
			{
				"type": "unocc",
				"energy": -0.03201,
				"method": "rhf"
			},
			{
				"type": "unocc",
				"energy": -0.02065,
				"method": "rhf"
			},
			{
				"type": "unocc",
				"energy": -0.00368,
				"method": "rhf"
			}
		],
		"cosmo_sigma_profile": { 
			"-0.025": 0.0,
			"-0.024": 0.0,
			"-0.023": 0.0,
			"-0.022": 0.0,
			"-0.021": 0.0,
			"-0.02": 0.0,
			"-0.019": 0.0,
			"-0.018": 0.0,
			"-0.017": 0.0,
			"-0.016": 0.0,
			"-0.015": 0.0,
			"-0.014": 0.0,
			"-0.013": 0.0,
			"-0.012": 0.0,
			"-0.011": 0.0,
			"-0.01": 0.0,
			"-0.009": 0.21588388649,
			"-0.008": 2.59802926674,
			"-0.007": 9.70422674569,
			"-0.006": 14.5465563298,
			"-0.005": 16.1849397346,
			"-0.004": 14.9182213833,
			"-0.003": 14.9575695068,
			"-0.002": 16.9169372207,
			"-0.001": 23.1031770755,
			"0.0": 36.1055552569,
			"0.001": 27.8582387221,
			"0.002": 23.0393189105,
			"0.003": 14.1250678208,
			"0.004": 13.2312252793,
			"0.005": 2.49163920779,
			"0.006": 2.28763211512,
			"0.007": 3.22050806508,
			"0.008": 4.25231412211,
			"0.009": 3.64683400787,
			"0.01": 5.21928755323,
			"0.011": 7.22065437065,
			"0.012": 0.434572036845,
			"0.013": 0.0,
			"0.014": 0.0,
			"0.015": 0.0,
			"0.016": 0.0,
			"0.017": 0.0,
			"0.018": 0.0,
			"0.019": 0.0,
			"0.02": 0.0,
			"0.021": 0.0,
			"0.022": 0.0,
			"0.023": 0.0,
			"0.024": 0.0,
			"0.025": 0.0
		}
	}
}
