{
	 "smiles": "OC1=C2OC3C(=O)CC[C@@]4(O)[C@H]5CC(C=C1)=C2[C@@]34CCN5CC1CC1", 
	 "Tm": 442.15, 
	 "num_atms": 48, 
	 "gaussian": { 
		 "optdone": 1, 
		 "sigma_profile": "yes", 
		 "theory": "DFT", 
		 "functional": "B3LYP", 
		 "basiset": "6-31G**", 
		 "properties": { 
			 "R2extent": 7980.2638, 
			 "electric_dipole_moment_norm": 5.23224476014, 
			 "electric_quadrupole_moment_norm": 16.5082025445, 
			 "total_energy": -1131.56632516, 
			 "HOMO_LUMO_gap": 0.17586, 
			 "cosmo_polarized_energy": -19.27, 
			 "cosmo_cavitation_energy": 44.68, 
			 "cosmo_dispersion_energy": -31.15, 
			 "cosmo_repulsion_energy": 2.3, 
			 "cosmo_total_nonelectrostatic_energy": 15.83, 
			 "SMD_solvation_energy": 5.63 
		},
		"coords": [
			{
				"x": 2.6149770125,
				"y": 4.3351488486,
				"z": 0.9896376297,
				"element": "O" 
			},
			{
				"x": 1.6959106523,
				"y": 3.4359656523,
				"z": 0.5334383928,
				"element": "C" 
			},
			{
				"x": 1.4602260325,
				"y": 2.2124871923,
				"z": 1.1509667344,
				"element": "C" 
			},
			{
				"x": 2.0475174478,
				"y": 1.7630123537,
				"z": 2.3193547345,
				"element": "O" 
			},
			{
				"x": 1.1262275821,
				"y": 0.7553176234,
				"z": 2.8205412624,
				"element": "C" 
			},
			{
				"x": 0.0761913463,
				"y": 1.4410270812,
				"z": 3.7271333803,
				"element": "C" 
			},
			{
				"x": 0.3390468355,
				"y": 2.4646695405,
				"z": 4.3217096409,
				"element": "O" 
			},
			{
				"x": -1.2759032161,
				"y": 0.7560774769,
				"z": 3.8061278262,
				"element": "C" 
			},
			{
				"x": -1.8454410755,
				"y": 0.5201648682,
				"z": 2.3920104129,
				"element": "C" 
			},
			{
				"x": -0.9230175248,
				"y": -0.4331593469,
				"z": 1.6079336769,
				"element": "C" 
			},
			{
				"x": -0.8961594771,
				"y": -1.6876984358,
				"z": 2.3055409087,
				"element": "O" 
			},
			{
				"x": -1.3542386858,
				"y": -0.6370512767,
				"z": 0.1175744752,
				"element": "C" 
			},
			{
				"x": -1.5079025712,
				"y": 0.7097316118,
				"z": -0.6443280279,
				"element": "C" 
			},
			{
				"x": -0.3395758095,
				"y": 1.6394332396,
				"z": -0.3857025637,
				"element": "C" 
			},
			{
				"x": -0.1007583383,
				"y": 2.8654598672,
				"z": -1.0310020654,
				"element": "C" 
			},
			{
				"x": 0.9073886443,
				"y": 3.7312503953,
				"z": -0.5914957572,
				"element": "C" 
			},
			{
				"x": 0.5042979813,
				"y": 1.3357916636,
				"z": 0.6697838659,
				"element": "C" 
			},
			{
				"x": 0.5171777038,
				"y": 0.099540572,
				"z": 1.5452091404,
				"element": "C" 
			},
			{
				"x": 1.4606007558,
				"y": -0.9961697314,
				"z": 0.9604291751,
				"element": "C" 
			},
			{
				"x": 0.7320480922,
				"y": -2.0455441858,
				"z": 0.1051979558,
				"element": "C" 
			},
			{
				"x": -0.4053963651,
				"y": -1.4890744736,
				"z": -0.6342742556,
				"element": "N" 
			},
			{
				"x": -1.0581182781,
				"y": -2.5286946413,
				"z": -1.4323055634,
				"element": "C" 
			},
			{
				"x": -2.0030928817,
				"y": -2.0317988931,
				"z": -2.5095929322,
				"element": "C" 
			},
			{
				"x": -2.1527735288,
				"y": -2.8402058285,
				"z": -3.7769304101,
				"element": "C" 
			},
			{
				"x": -1.4537205556,
				"y": -1.5025374969,
				"z": -3.8110137512,
				"element": "C" 
			},
			{
				"x": 2.9425350618,
				"y": 4.0174141289,
				"z": 1.8436645429,
				"element": "H" 
			},
			{
				"x": 1.708280122,
				"y": 0.0542180881,
				"z": 3.4270597466,
				"element": "H" 
			},
			{
				"x": -1.1517401274,
				"y": -0.2183480915,
				"z": 4.2948548257,
				"element": "H" 
			},
			{
				"x": -1.9357182264,
				"y": 1.3751531605,
				"z": 4.4185065011,
				"element": "H" 
			},
			{
				"x": -2.8469517474,
				"y": 0.0762143507,
				"z": 2.4633172413,
				"element": "H" 
			},
			{
				"x": -1.9579226985,
				"y": 1.4775463731,
				"z": 1.8768670079,
				"element": "H" 
			},
			{
				"x": -1.7757284472,
				"y": -2.0837534087,
				"z": 2.2329242494,
				"element": "H" 
			},
			{
				"x": -2.3441678463,
				"y": -1.1263863835,
				"z": 0.1533329339,
				"element": "H" 
			},
			{
				"x": -1.6064157919,
				"y": 0.4849869437,
				"z": -1.7092444162,
				"element": "H" 
			},
			{
				"x": -2.4411184997,
				"y": 1.2071140059,
				"z": -0.3414994377,
				"element": "H" 
			},
			{
				"x": -0.7217153036,
				"y": 3.1672969269,
				"z": -1.870497574,
				"element": "H" 
			},
			{
				"x": 1.0683399282,
				"y": 4.6842590315,
				"z": -1.085691614,
				"element": "H" 
			},
			{
				"x": 1.9580784559,
				"y": -1.5218803981,
				"z": 1.7818944964,
				"element": "H" 
			},
			{
				"x": 2.2400299783,
				"y": -0.5000176339,
				"z": 0.3756408459,
				"element": "H" 
			},
			{
				"x": 0.4321608159,
				"y": -2.8883465228,
				"z": 0.746356119,
				"element": "H" 
			},
			{
				"x": 1.4334258854,
				"y": -2.4427143218,
				"z": -0.6388858992,
				"element": "H" 
			},
			{
				"x": -0.2615117443,
				"y": -3.1035706506,
				"z": -1.9205851588,
				"element": "H" 
			},
			{
				"x": -1.6023947777,
				"y": -3.2486360868,
				"z": -0.78499629,
				"element": "H" 
			},
			{
				"x": -2.9159705983,
				"y": -1.5619174706,
				"z": -2.148715475,
				"element": "H" 
			},
			{
				"x": -3.1388400933,
				"y": -2.9196417721,
				"z": -4.2245587074,
				"element": "H" 
			},
			{
				"x": -1.5461814802,
				"y": -3.7357047246,
				"z": -3.8836713458,
				"element": "H" 
			},
			{
				"x": -0.3741248924,
				"y": -1.4909427862,
				"z": -3.9292227723,
				"element": "H" 
			},
			{
				"x": -1.9605597517,
				"y": -0.6692864346,
				"z": -4.2887937049,
				"element": "H" 
			}
		],
		 "valence_orbital": [ 
			{
				"type": "occ",
				"energy": -0.2801,
				"method": "rhf"
			},
			{
				"type": "occ",
				"energy": -0.24636,
				"method": "rhf"
			},
			{
				"type": "occ",
				"energy": -0.2245,
				"method": "rhf"
			},
			{
				"type": "occ",
				"energy": -0.20583,
				"method": "rhf"
			},
			{
				"type": "occ",
				"energy": -0.20193,
				"method": "rhf"
			},
			{
				"type": "unocc",
				"energy": -0.02607,
				"method": "rhf"
			},
			{
				"type": "unocc",
				"energy": 0.0069,
				"method": "rhf"
			},
			{
				"type": "unocc",
				"energy": 0.019,
				"method": "rhf"
			},
			{
				"type": "unocc",
				"energy": 0.05174,
				"method": "rhf"
			},
			{
				"type": "unocc",
				"energy": 0.07632,
				"method": "rhf"
			}
		],
		"cosmo_sigma_profile": { 
			"-0.025": 0.0,
			"-0.024": 0.0,
			"-0.023": 0.0,
			"-0.022": 0.0,
			"-0.021": 0.0,
			"-0.02": 0.0,
			"-0.019": 0.0,
			"-0.018": 0.0,
			"-0.017": 0.0217665013725,
			"-0.016": 0.565948867308,
			"-0.015": 1.56971754667,
			"-0.014": 1.36563100287,
			"-0.013": 1.96325746343,
			"-0.012": 1.66316167236,
			"-0.011": 1.2789074395,
			"-0.01": 1.77510826803,
			"-0.009": 2.87302120631,
			"-0.008": 5.46346183217,
			"-0.007": 4.75572258039,
			"-0.006": 6.55635442064,
			"-0.005": 13.514340408,
			"-0.004": 32.6822680118,
			"-0.003": 40.5737684836,
			"-0.002": 36.6985408778,
			"-0.001": 33.9225605352,
			"0.0": 28.7018002511,
			"0.001": 19.4848919054,
			"0.002": 15.5431717852,
			"0.003": 16.1494085736,
			"0.004": 14.8278601101,
			"0.005": 13.562734618,
			"0.006": 10.5981878679,
			"0.007": 6.33463763999,
			"0.008": 6.55126992549,
			"0.009": 6.63768894689,
			"0.01": 6.40240668333,
			"0.011": 8.09017079083,
			"0.012": 5.62842683892,
			"0.013": 2.16183551552,
			"0.014": 0.334753637378,
			"0.015": 0.0,
			"0.016": 0.0,
			"0.017": 0.0,
			"0.018": 0.0,
			"0.019": 0.0,
			"0.02": 0.0,
			"0.021": 0.0,
			"0.022": 0.0,
			"0.023": 0.0,
			"0.024": 0.0,
			"0.025": 0.0
		}
	}
}
