{
	 "smiles": "COC1=C(F)C=C(CC(O)=O)C=C1", 
	 "Tm": 384.15, 
	 "num_atms": 22, 
	 "gaussian": { 
		 "optdone": 1, 
		 "sigma_profile": "yes", 
		 "theory": "DFT", 
		 "functional": "B3LYP", 
		 "basiset": "6-31G**", 
		 "properties": { 
			 "R2extent": 3181.9421, 
			 "electric_dipole_moment_norm": 1.57902752668, 
			 "electric_quadrupole_moment_norm": 7.23189465147, 
			 "total_energy": -673.884890433, 
			 "HOMO_LUMO_gap": 0.20952, 
			 "cosmo_polarized_energy": -10.67, 
			 "cosmo_cavitation_energy": 27.16, 
			 "cosmo_dispersion_energy": -19.52, 
			 "cosmo_repulsion_energy": 1.55, 
			 "cosmo_total_nonelectrostatic_energy": 9.18, 
			 "SMD_solvation_energy": 6.97 
		},
		"coords": [
			{
				"x": -2.3246860939,
				"y": 0.3248849358,
				"z": -3.8908846992,
				"element": "C" 
			},
			{
				"x": -2.5781245785,
				"y": -0.5314981519,
				"z": -2.7745573325,
				"element": "O" 
			},
			{
				"x": -1.690207814,
				"y": -0.5858688554,
				"z": -1.7433609502,
				"element": "C" 
			},
			{
				"x": -0.3094745586,
				"y": -0.3631792815,
				"z": -1.8281080242,
				"element": "C" 
			},
			{
				"x": 0.2597224167,
				"y": -0.0462539591,
				"z": -3.0191021996,
				"element": "F" 
			},
			{
				"x": 0.5204523756,
				"y": -0.4655175621,
				"z": -0.7179352073,
				"element": "C" 
			},
			{
				"x": -0.0029458774,
				"y": -0.8239361734,
				"z": 0.5258199995,
				"element": "C" 
			},
			{
				"x": 0.9012326074,
				"y": -0.9536568153,
				"z": 1.7416649666,
				"element": "C" 
			},
			{
				"x": 0.5146472197,
				"y": 0.0457648376,
				"z": 2.8173569756,
				"element": "C" 
			},
			{
				"x": 1.2684213088,
				"y": 1.1684636267,
				"z": 2.7634181458,
				"element": "O" 
			},
			{
				"x": -0.3783993419,
				"y": -0.1065697777,
				"z": 3.6219103637,
				"element": "O" 
			},
			{
				"x": -1.3808047653,
				"y": -1.0641368049,
				"z": 0.6254871035,
				"element": "C" 
			},
			{
				"x": -2.2044468283,
				"y": -0.9408821071,
				"z": -0.4876318937,
				"element": "C" 
			},
			{
				"x": -2.0249498329,
				"y": 1.3267609401,
				"z": -3.5638779915,
				"element": "H" 
			},
			{
				"x": -1.5551726681,
				"y": -0.0827558893,
				"z": -4.5506475351,
				"element": "H" 
			},
			{
				"x": -3.272901173,
				"y": 0.3890030853,
				"z": -4.4279200736,
				"element": "H" 
			},
			{
				"x": 1.5801151835,
				"y": -0.2736841747,
				"z": -0.8546348713,
				"element": "H" 
			},
			{
				"x": 1.9443621648,
				"y": -0.8013700382,
				"z": 1.4568404799,
				"element": "H" 
			},
			{
				"x": 0.8004395843,
				"y": -1.9496016232,
				"z": 2.184073743,
				"element": "H" 
			},
			{
				"x": 0.9244842191,
				"y": 1.7586052413,
				"z": 3.4556569355,
				"element": "H" 
			},
			{
				"x": -1.8093226108,
				"y": -1.3283986831,
				"z": 1.5871703789,
				"element": "H" 
			},
			{
				"x": -3.2728409372,
				"y": -1.1170727697,
				"z": -0.4172383138,
				"element": "H" 
			}
		],
		 "valence_orbital": [ 
			{
				"type": "occ",
				"energy": -0.32103,
				"method": "rhf"
			},
			{
				"type": "occ",
				"energy": -0.30991,
				"method": "rhf"
			},
			{
				"type": "occ",
				"energy": -0.27792,
				"method": "rhf"
			},
			{
				"type": "occ",
				"energy": -0.25138,
				"method": "rhf"
			},
			{
				"type": "occ",
				"energy": -0.22155,
				"method": "rhf"
			},
			{
				"type": "unocc",
				"energy": -0.01203,
				"method": "rhf"
			},
			{
				"type": "unocc",
				"energy": -0.00284,
				"method": "rhf"
			},
			{
				"type": "unocc",
				"energy": 0.01749,
				"method": "rhf"
			},
			{
				"type": "unocc",
				"energy": 0.07624,
				"method": "rhf"
			},
			{
				"type": "unocc",
				"energy": 0.07706,
				"method": "rhf"
			}
		],
		"cosmo_sigma_profile": { 
			"-0.025": 0.0,
			"-0.024": 0.0,
			"-0.023": 0.0,
			"-0.022": 0.0,
			"-0.021": 0.0,
			"-0.02": 0.0,
			"-0.019": 0.0,
			"-0.018": 0.641994304502,
			"-0.017": 1.18165356774,
			"-0.016": 0.685466158822,
			"-0.015": 0.653499977162,
			"-0.014": 0.961126874849,
			"-0.013": 0.907064477058,
			"-0.012": 0.700831367526,
			"-0.011": 0.519059647137,
			"-0.01": 0.854223351059,
			"-0.009": 0.50096484607,
			"-0.008": 1.32591561392,
			"-0.007": 5.39531040606,
			"-0.006": 10.2203170294,
			"-0.005": 15.4612505257,
			"-0.004": 17.5715800527,
			"-0.003": 18.5454578394,
			"-0.002": 14.1436201571,
			"-0.001": 11.5090451652,
			"0.0": 13.0208784857,
			"0.001": 13.8297140325,
			"0.002": 17.8289586218,
			"0.003": 18.4647379904,
			"0.004": 15.8159403665,
			"0.005": 7.34035595653,
			"0.006": 4.14651843143,
			"0.007": 3.8362457944,
			"0.008": 4.18303502527,
			"0.009": 3.68157123352,
			"0.01": 3.78969933826,
			"0.011": 4.07429837712,
			"0.012": 3.7363586402,
			"0.013": 0.305542866836,
			"0.014": 0.0,
			"0.015": 0.0,
			"0.016": 0.0,
			"0.017": 0.0,
			"0.018": 0.0,
			"0.019": 0.0,
			"0.02": 0.0,
			"0.021": 0.0,
			"0.022": 0.0,
			"0.023": 0.0,
			"0.024": 0.0,
			"0.025": 0.0
		}
	}
}
