{
	 "smiles": "O=C1N(CC#C)C2=C(C=CC=C2)C1=O", 
	 "Tm": 427.15, 
	 "num_atms": 21, 
	 "gaussian": { 
		 "optdone": 1, 
		 "sigma_profile": "yes", 
		 "theory": "DFT", 
		 "functional": "B3LYP", 
		 "basiset": "6-31G**", 
		 "properties": { 
			 "R2extent": 4319.0897, 
			 "electric_dipole_moment_norm": 5.76504779599, 
			 "electric_quadrupole_moment_norm": 27.2764934482, 
			 "total_energy": -628.509252169, 
			 "HOMO_LUMO_gap": 0.14009, 
			 "cosmo_polarized_energy": -13.91, 
			 "cosmo_cavitation_energy": 27.29, 
			 "cosmo_dispersion_energy": -18.83, 
			 "cosmo_repulsion_energy": 1.46, 
			 "cosmo_total_nonelectrostatic_energy": 9.92, 
			 "SMD_solvation_energy": 7.22 
		},
		"coords": [
			{
				"x": -3.8569884929,
				"y": 0.6915261993,
				"z": 3.3954473223,
				"element": "O" 
			},
			{
				"x": -3.1269002016,
				"y": 0.6783971504,
				"z": 2.4283665613,
				"element": "C" 
			},
			{
				"x": -1.904444121,
				"y": 0.0244669133,
				"z": 2.3268908021,
				"element": "N" 
			},
			{
				"x": -1.3315992219,
				"y": -0.7414536114,
				"z": 3.4261493347,
				"element": "C" 
			},
			{
				"x": -1.1702055439,
				"y": -2.1684163525,
				"z": 3.1310338553,
				"element": "C" 
			},
			{
				"x": -1.0158130815,
				"y": -3.3422570992,
				"z": 2.897049823,
				"element": "C" 
			},
			{
				"x": -1.3147534982,
				"y": 0.2384032928,
				"z": 1.0664258226,
				"element": "C" 
			},
			{
				"x": -2.1375677872,
				"y": 1.0589392213,
				"z": 0.2678055963,
				"element": "C" 
			},
			{
				"x": -1.7571235373,
				"y": 1.4163020411,
				"z": -1.0220310889,
				"element": "C" 
			},
			{
				"x": -0.5371378423,
				"y": 0.9454682849,
				"z": -1.51417737,
				"element": "C" 
			},
			{
				"x": 0.2703500924,
				"y": 0.1291149332,
				"z": -0.7134579507,
				"element": "C" 
			},
			{
				"x": -0.1012754303,
				"y": -0.2406508092,
				"z": 0.5872480638,
				"element": "C" 
			},
			{
				"x": -3.3358930535,
				"y": 1.3935919404,
				"z": 1.0504258445,
				"element": "C" 
			},
			{
				"x": -4.3031077618,
				"y": 2.0659995456,
				"z": 0.767112303,
				"element": "O" 
			},
			{
				"x": -2.0177931065,
				"y": -0.599718232,
				"z": 4.2683194149,
				"element": "H" 
			},
			{
				"x": -0.3633692793,
				"y": -0.3077295004,
				"z": 3.7103398771,
				"element": "H" 
			},
			{
				"x": -0.8983884372,
				"y": -4.3812076535,
				"z": 2.6905767494,
				"element": "H" 
			},
			{
				"x": -2.4065121578,
				"y": 2.0497290649,
				"z": -1.6186469202,
				"element": "H" 
			},
			{
				"x": -0.2138906512,
				"y": 1.2080703516,
				"z": -2.5161029584,
				"element": "H" 
			},
			{
				"x": 1.2145149302,
				"y": -0.2349899959,
				"z": -1.1084307791,
				"element": "H" 
			},
			{
				"x": 0.5293981828,
				"y": -0.8899856846,
				"z": 1.183555697,
				"element": "H" 
			}
		],
		 "valence_orbital": [ 
			{
				"type": "occ",
				"energy": -0.29303,
				"method": "rhf"
			},
			{
				"type": "occ",
				"energy": -0.28506,
				"method": "rhf"
			},
			{
				"type": "occ",
				"energy": -0.27693,
				"method": "rhf"
			},
			{
				"type": "occ",
				"energy": -0.24817,
				"method": "rhf"
			},
			{
				"type": "occ",
				"energy": -0.23796,
				"method": "rhf"
			},
			{
				"type": "unocc",
				"energy": -0.09787,
				"method": "rhf"
			},
			{
				"type": "unocc",
				"energy": -0.022,
				"method": "rhf"
			},
			{
				"type": "unocc",
				"energy": 0.00369,
				"method": "rhf"
			},
			{
				"type": "unocc",
				"energy": 0.02499,
				"method": "rhf"
			},
			{
				"type": "unocc",
				"energy": 0.0376,
				"method": "rhf"
			}
		],
		"cosmo_sigma_profile": { 
			"-0.025": 0.0,
			"-0.024": 0.0,
			"-0.023": 0.0,
			"-0.022": 0.0,
			"-0.021": 0.0,
			"-0.02": 0.0,
			"-0.019": 0.0,
			"-0.018": 0.0,
			"-0.017": 0.0,
			"-0.016": 0.0,
			"-0.015": 0.0,
			"-0.014": 0.0,
			"-0.013": 0.0732501453209,
			"-0.012": 0.951985115836,
			"-0.011": 1.37765457588,
			"-0.01": 0.880280534642,
			"-0.009": 1.70978534413,
			"-0.008": 7.67529161082,
			"-0.007": 13.0093096782,
			"-0.006": 16.1571280565,
			"-0.005": 16.7637456892,
			"-0.004": 11.9321682737,
			"-0.003": 12.4569321017,
			"-0.002": 11.4132238701,
			"-0.001": 11.280301836,
			"0.0": 14.1662751969,
			"0.001": 15.1415646522,
			"0.002": 16.3561701019,
			"0.003": 16.3444835752,
			"0.004": 8.53556575887,
			"0.005": 7.93349298678,
			"0.006": 7.08944971211,
			"0.007": 3.48502666146,
			"0.008": 3.34630621493,
			"0.009": 5.02962167526,
			"0.01": 8.45857072077,
			"0.011": 7.67114092106,
			"0.012": 2.0512839203,
			"0.013": 0.0622020782711,
			"0.014": 0.0,
			"0.015": 0.0,
			"0.016": 0.0,
			"0.017": 0.0,
			"0.018": 0.0,
			"0.019": 0.0,
			"0.02": 0.0,
			"0.021": 0.0,
			"0.022": 0.0,
			"0.023": 0.0,
			"0.024": 0.0,
			"0.025": 0.0
		}
	}
}
