{
	 "smiles": "O[C@H]([C@@H](O)C1=CC=CC=C1)C1=CC=CC=C1", 
	 "Tm": 422.15, 
	 "num_atms": 30, 
	 "gaussian": { 
		 "optdone": 1, 
		 "sigma_profile": "yes", 
		 "theory": "DFT", 
		 "functional": "B3LYP", 
		 "basiset": "6-31G**", 
		 "properties": { 
			 "R2extent": 4654.0864, 
			 "electric_dipole_moment_norm": 1.27878780101, 
			 "electric_quadrupole_moment_norm": 14.9005994749, 
			 "total_energy": -692.363903458, 
			 "HOMO_LUMO_gap": 0.22034, 
			 "cosmo_polarized_energy": -11.03, 
			 "cosmo_cavitation_energy": 32.68, 
			 "cosmo_dispersion_energy": -23.47, 
			 "cosmo_repulsion_energy": 1.82, 
			 "cosmo_total_nonelectrostatic_energy": 11.02, 
			 "SMD_solvation_energy": 5.1 
		},
		"coords": [
			{
				"x": -0.0982318169,
				"y": -0.8588230618,
				"z": -1.774581246,
				"element": "O" 
			},
			{
				"x": -0.3801443066,
				"y": 0.3893241581,
				"z": -1.1730730509,
				"element": "C" 
			},
			{
				"x": -0.6960814979,
				"y": 0.2376212937,
				"z": 0.3551721006,
				"element": "C" 
			},
			{
				"x": -1.8518189515,
				"y": -0.5468609748,
				"z": 0.5742413225,
				"element": "O" 
			},
			{
				"x": 0.4712565121,
				"y": -0.4062823978,
				"z": 1.0779989182,
				"element": "C" 
			},
			{
				"x": 0.4900377793,
				"y": -1.7859548189,
				"z": 1.3241233745,
				"element": "C" 
			},
			{
				"x": 1.5988127081,
				"y": -2.3793003112,
				"z": 1.9337474833,
				"element": "C" 
			},
			{
				"x": 2.6990710931,
				"y": -1.6041333436,
				"z": 2.3010697551,
				"element": "C" 
			},
			{
				"x": 2.6856802369,
				"y": -0.2275399539,
				"z": 2.060779166,
				"element": "C" 
			},
			{
				"x": 1.5793405864,
				"y": 0.3654413575,
				"z": 1.453972301,
				"element": "C" 
			},
			{
				"x": -1.5517890479,
				"y": 1.0232672979,
				"z": -1.8976864665,
				"element": "C" 
			},
			{
				"x": -2.5055389238,
				"y": 0.2306149191,
				"z": -2.5507830328,
				"element": "C" 
			},
			{
				"x": -3.6158378917,
				"y": 0.8207713794,
				"z": -3.1607226336,
				"element": "C" 
			},
			{
				"x": -3.7869093039,
				"y": 2.2048665952,
				"z": -3.1232451937,
				"element": "C" 
			},
			{
				"x": -2.8383214103,
				"y": 3.0011330241,
				"z": -2.4758916469,
				"element": "C" 
			},
			{
				"x": -1.7296077981,
				"y": 2.4133252346,
				"z": -1.8683872537,
				"element": "C" 
			},
			{
				"x": 0.4887663483,
				"y": -1.3456160356,
				"z": -1.1781019808,
				"element": "H" 
			},
			{
				"x": 0.4874319514,
				"y": 1.0668248972,
				"z": -1.244675859,
				"element": "H" 
			},
			{
				"x": -0.8329547579,
				"y": 1.2598416331,
				"z": 0.7465277506,
				"element": "H" 
			},
			{
				"x": -2.5250641462,
				"y": -0.2602002389,
				"z": -0.0597045416,
				"element": "H" 
			},
			{
				"x": -0.3810315358,
				"y": -2.3751024582,
				"z": 1.0590330804,
				"element": "H" 
			},
			{
				"x": 1.5981264673,
				"y": -3.4485906439,
				"z": 2.1262147176,
				"element": "H" 
			},
			{
				"x": 3.558965684,
				"y": -2.0660367068,
				"z": 2.7775527605,
				"element": "H" 
			},
			{
				"x": 3.5345711857,
				"y": 0.3846179524,
				"z": 2.3519784986,
				"element": "H" 
			},
			{
				"x": 1.5711111478,
				"y": 1.4389557068,
				"z": 1.2788140277,
				"element": "H" 
			},
			{
				"x": -2.3494125124,
				"y": -0.8415886074,
				"z": -2.597121584,
				"element": "H" 
			},
			{
				"x": -4.3441911511,
				"y": 0.1962203331,
				"z": -3.6704914114,
				"element": "H" 
			},
			{
				"x": -4.6487254767,
				"y": 2.6625840712,
				"z": -3.6002942938,
				"element": "H" 
			},
			{
				"x": -2.9593328176,
				"y": 4.0804094893,
				"z": -2.4500329743,
				"element": "H" 
			},
			{
				"x": -0.9897783539,
				"y": 3.0396102097,
				"z": -1.3748320874,
				"element": "H" 
			}
		],
		 "valence_orbital": [ 
			{
				"type": "occ",
				"energy": -0.27076,
				"method": "rhf"
			},
			{
				"type": "occ",
				"energy": -0.25654,
				"method": "rhf"
			},
			{
				"type": "occ",
				"energy": -0.25261,
				"method": "rhf"
			},
			{
				"type": "occ",
				"energy": -0.25257,
				"method": "rhf"
			},
			{
				"type": "occ",
				"energy": -0.23683,
				"method": "rhf"
			},
			{
				"type": "unocc",
				"energy": -0.01649,
				"method": "rhf"
			},
			{
				"type": "unocc",
				"energy": -0.00658,
				"method": "rhf"
			},
			{
				"type": "unocc",
				"energy": -0.00599,
				"method": "rhf"
			},
			{
				"type": "unocc",
				"energy": 0.00216,
				"method": "rhf"
			},
			{
				"type": "unocc",
				"energy": 0.08512,
				"method": "rhf"
			}
		],
		"cosmo_sigma_profile": { 
			"-0.025": 0.0,
			"-0.024": 0.0,
			"-0.023": 0.0,
			"-0.022": 0.0,
			"-0.021": 0.0,
			"-0.02": 0.0,
			"-0.019": 0.0,
			"-0.018": 0.0,
			"-0.017": 0.0,
			"-0.016": 0.0,
			"-0.015": 0.0,
			"-0.014": 0.0,
			"-0.013": 0.0,
			"-0.012": 0.0,
			"-0.011": 0.992241979514,
			"-0.01": 1.21904857427,
			"-0.009": 1.2226827163,
			"-0.008": 1.27560476027,
			"-0.007": 3.27665626934,
			"-0.006": 15.4005863684,
			"-0.005": 23.7657602718,
			"-0.004": 27.454011222,
			"-0.003": 25.2727508023,
			"-0.002": 18.1810864632,
			"-0.001": 15.9168797889,
			"0.0": 12.8527927995,
			"0.001": 14.2549445401,
			"0.002": 15.4593425145,
			"0.003": 15.7554207047,
			"0.004": 17.4071658479,
			"0.005": 20.6713367612,
			"0.006": 8.42741411651,
			"0.007": 3.13465113836,
			"0.008": 4.82376869039,
			"0.009": 4.16800376624,
			"0.01": 1.61999354873,
			"0.011": 1.47816766282,
			"0.012": 2.78025969399,
			"0.013": 1.7122726711,
			"0.014": 0.949101576695,
			"0.015": 0.0,
			"0.016": 0.0,
			"0.017": 0.0,
			"0.018": 0.0,
			"0.019": 0.0,
			"0.02": 0.0,
			"0.021": 0.0,
			"0.022": 0.0,
			"0.023": 0.0,
			"0.024": 0.0,
			"0.025": 0.0
		}
	}
}
