{
	 "smiles": "CN1C(CC(O)=O)=CC(C)=C1C(=O)C1=CC=C(Cl)C=C1", 
	 "Tm": 451.15, 
	 "num_atms": 34, 
	 "gaussian": { 
		 "optdone": 1, 
		 "sigma_profile": "yes", 
		 "theory": "DFT", 
		 "functional": "B3LYP", 
		 "basiset": "6-31G**", 
		 "properties": { 
			 "R2extent": 8955.3102, 
			 "electric_dipole_moment_norm": 4.16479816198, 
			 "electric_quadrupole_moment_norm": 10.0865553972, 
			 "total_energy": -1320.66725611, 
			 "HOMO_LUMO_gap": 0.1576, 
			 "cosmo_polarized_energy": -16.98, 
			 "cosmo_cavitation_energy": 39.89, 
			 "cosmo_dispersion_energy": -27.92, 
			 "cosmo_repulsion_energy": 2.15, 
			 "cosmo_total_nonelectrostatic_energy": 14.12, 
			 "SMD_solvation_energy": 7.73 
		},
		"coords": [
			{
				"x": -2.3483772155,
				"y": -1.972357994,
				"z": -0.2009302181,
				"element": "C" 
			},
			{
				"x": -1.009353567,
				"y": -1.8192953471,
				"z": 0.3623580828,
				"element": "N" 
			},
			{
				"x": -0.3699684682,
				"y": -2.7510554275,
				"z": 1.1306707368,
				"element": "C" 
			},
			{
				"x": -0.973174597,
				"y": -4.0521997176,
				"z": 1.554208381,
				"element": "C" 
			},
			{
				"x": -1.1575425417,
				"y": -5.0700888042,
				"z": 0.4359992413,
				"element": "C" 
			},
			{
				"x": -1.4177858378,
				"y": -6.2967455926,
				"z": 0.9483035597,
				"element": "O" 
			},
			{
				"x": -1.1092111579,
				"y": -4.850792147,
				"z": -0.7521072239,
				"element": "O" 
			},
			{
				"x": 0.8856820369,
				"y": -2.2588265924,
				"z": 1.4568765055,
				"element": "C" 
			},
			{
				"x": 1.0272280862,
				"y": -0.9786371785,
				"z": 0.8838453552,
				"element": "C" 
			},
			{
				"x": 2.2880318723,
				"y": -0.1602064683,
				"z": 0.9506128433,
				"element": "C" 
			},
			{
				"x": -0.1742738529,
				"y": -0.7108300531,
				"z": 0.2043955639,
				"element": "C" 
			},
			{
				"x": -0.5485052553,
				"y": 0.3888266185,
				"z": -0.6914835127,
				"element": "C" 
			},
			{
				"x": -1.3160545775,
				"y": 0.2185140838,
				"z": -1.6428015232,
				"element": "O" 
			},
			{
				"x": -0.0086414504,
				"y": 1.7671391362,
				"z": -0.4388745896,
				"element": "C" 
			},
			{
				"x": 0.2101434386,
				"y": 2.2655568324,
				"z": 0.8523587758,
				"element": "C" 
			},
			{
				"x": 0.616256825,
				"y": 3.5848202321,
				"z": 1.0489489024,
				"element": "C" 
			},
			{
				"x": 0.814681683,
				"y": 4.4038668918,
				"z": -0.0622201381,
				"element": "C" 
			},
			{
				"x": 1.3417077579,
				"y": 6.0627761254,
				"z": 0.1744274345,
				"element": "Cl" 
			},
			{
				"x": 0.5949614858,
				"y": 3.9339741625,
				"z": -1.3591838507,
				"element": "C" 
			},
			{
				"x": 0.1690335445,
				"y": 2.6215652343,
				"z": -1.537196282,
				"element": "C" 
			},
			{
				"x": -2.9199851628,
				"y": -2.6597960496,
				"z": 0.425358302,
				"element": "H" 
			},
			{
				"x": -2.2977232239,
				"y": -2.3687911221,
				"z": -1.2158917528,
				"element": "H" 
			},
			{
				"x": -2.8533152611,
				"y": -1.0089452064,
				"z": -0.2252372868,
				"element": "H" 
			},
			{
				"x": -0.3421468786,
				"y": -4.5066399518,
				"z": 2.3231970851,
				"element": "H" 
			},
			{
				"x": -1.9566484616,
				"y": -3.9209082546,
				"z": 2.0272718986,
				"element": "H" 
			},
			{
				"x": -1.5462648739,
				"y": -6.8879659763,
				"z": 0.1872999905,
				"element": "H" 
			},
			{
				"x": 1.6301417124,
				"y": -2.7836157625,
				"z": 2.0412359918,
				"element": "H" 
			},
			{
				"x": 3.1525823094,
				"y": -0.8229305238,
				"z": 1.0544513419,
				"element": "H" 
			},
			{
				"x": 2.4374749954,
				"y": 0.447822027,
				"z": 0.0559635006,
				"element": "H" 
			},
			{
				"x": 2.2986431767,
				"y": 0.5218932975,
				"z": 1.808658341,
				"element": "H" 
			},
			{
				"x": 0.0420263154,
				"y": 1.6228391498,
				"z": 1.7103967733,
				"element": "H" 
			},
			{
				"x": 0.7730658825,
				"y": 3.9762534457,
				"z": 2.0479428337,
				"element": "H" 
			},
			{
				"x": 0.7484448442,
				"y": 4.5910827538,
				"z": -2.2080085792,
				"element": "H" 
			},
			{
				"x": -0.0379335831,
				"y": 2.2392981785,
				"z": -2.5312464837,
				"element": "H" 
			}
		],
		 "valence_orbital": [ 
			{
				"type": "occ",
				"energy": -0.26746,
				"method": "rhf"
			},
			{
				"type": "occ",
				"energy": -0.25323,
				"method": "rhf"
			},
			{
				"type": "occ",
				"energy": -0.24236,
				"method": "rhf"
			},
			{
				"type": "occ",
				"energy": -0.23647,
				"method": "rhf"
			},
			{
				"type": "occ",
				"energy": -0.21604,
				"method": "rhf"
			},
			{
				"type": "unocc",
				"energy": -0.05844,
				"method": "rhf"
			},
			{
				"type": "unocc",
				"energy": -0.01638,
				"method": "rhf"
			},
			{
				"type": "unocc",
				"energy": -0.00397,
				"method": "rhf"
			},
			{
				"type": "unocc",
				"energy": 0.00239,
				"method": "rhf"
			},
			{
				"type": "unocc",
				"energy": 0.02822,
				"method": "rhf"
			}
		],
		"cosmo_sigma_profile": { 
			"-0.025": 0.0,
			"-0.024": 0.0,
			"-0.023": 0.0,
			"-0.022": 0.0,
			"-0.021": 0.0,
			"-0.02": 0.0,
			"-0.019": 0.0113359675357,
			"-0.018": 0.797467777901,
			"-0.017": 0.884314219019,
			"-0.016": 1.09444073654,
			"-0.015": 0.886562184982,
			"-0.014": 0.653071176022,
			"-0.013": 0.261002107378,
			"-0.012": 0.590156089739,
			"-0.011": 1.1637898056,
			"-0.01": 1.36813505532,
			"-0.009": 2.12610623071,
			"-0.008": 5.14045573334,
			"-0.007": 10.3536006118,
			"-0.006": 14.312486932,
			"-0.005": 18.1019567546,
			"-0.004": 20.8520615717,
			"-0.003": 24.8872077176,
			"-0.002": 26.5146884902,
			"-0.001": 22.5073551783,
			"0.0": 23.1046285865,
			"0.001": 25.6681209241,
			"0.002": 24.1059430163,
			"0.003": 22.477121562,
			"0.004": 19.322365718,
			"0.005": 11.0111246351,
			"0.006": 8.06318845948,
			"0.007": 5.82629747236,
			"0.008": 5.39918920472,
			"0.009": 4.41258692168,
			"0.01": 4.61901834965,
			"0.011": 6.03834678569,
			"0.012": 4.42694375791,
			"0.013": 2.33924884565,
			"0.014": 0.263828987538,
			"0.015": 0.0,
			"0.016": 0.0,
			"0.017": 0.0,
			"0.018": 0.0,
			"0.019": 0.0,
			"0.02": 0.0,
			"0.021": 0.0,
			"0.022": 0.0,
			"0.023": 0.0,
			"0.024": 0.0,
			"0.025": 0.0
		}
	}
}
