{
	 "smiles": "ClC1=C(Cl)N=CC=C1", 
	 "Tm": 339.65, 
	 "num_atms": 11, 
	 "gaussian": { 
		 "optdone": 1, 
		 "sigma_profile": "yes", 
		 "theory": "DFT", 
		 "functional": "B3LYP", 
		 "basiset": "6-31G**", 
		 "properties": { 
			 "R2extent": 1602.3782, 
			 "electric_dipole_moment_norm": 3.43912715235, 
			 "electric_quadrupole_moment_norm": 5.8355269068, 
			 "total_energy": -1167.46527791, 
			 "HOMO_LUMO_gap": 0.21401, 
			 "cosmo_polarized_energy": -6.35, 
			 "cosmo_cavitation_energy": 18.95, 
			 "cosmo_dispersion_energy": -14.62, 
			 "cosmo_repulsion_energy": 1.21, 
			 "cosmo_total_nonelectrostatic_energy": 5.53, 
			 "SMD_solvation_energy": 1.53 
		},
		"coords": [
			{
				"x": 1.751472954,
				"y": 2.0641167213,
				"z": -1.4475828949,
				"element": "Cl" 
			},
			{
				"x": 0.4721922723,
				"y": 1.5094085493,
				"z": -0.4010532957,
				"element": "C" 
			},
			{
				"x": 0.6546731956,
				"y": 0.4721906238,
				"z": 0.5302250995,
				"element": "C" 
			},
			{
				"x": 2.2060064537,
				"y": -0.3242591873,
				"z": 0.6831063415,
				"element": "Cl" 
			},
			{
				"x": -0.3091687706,
				"y": 0.0455988382,
				"z": 1.3270618242,
				"element": "N" 
			},
			{
				"x": -1.5135661102,
				"y": 0.6216063421,
				"z": 1.2492760479,
				"element": "C" 
			},
			{
				"x": -1.8016668798,
				"y": 1.6567623742,
				"z": 0.3620808681,
				"element": "C" 
			},
			{
				"x": -0.7855614017,
				"y": 2.1065963503,
				"z": -0.4780787914,
				"element": "C" 
			},
			{
				"x": -2.2722040696,
				"y": 0.2351091205,
				"z": 1.9255736148,
				"element": "H" 
			},
			{
				"x": -2.7912278959,
				"y": 2.0997113823,
				"z": 0.3275144648,
				"element": "H" 
			},
			{
				"x": -0.9512497478,
				"y": 2.9089588852,
				"z": -1.1887232788,
				"element": "H" 
			}
		],
		 "valence_orbital": [ 
			{
				"type": "occ",
				"energy": -0.33944,
				"method": "rhf"
			},
			{
				"type": "occ",
				"energy": -0.31502,
				"method": "rhf"
			},
			{
				"type": "occ",
				"energy": -0.29759,
				"method": "rhf"
			},
			{
				"type": "occ",
				"energy": -0.28335,
				"method": "rhf"
			},
			{
				"type": "occ",
				"energy": -0.26281,
				"method": "rhf"
			},
			{
				"type": "unocc",
				"energy": -0.0488,
				"method": "rhf"
			},
			{
				"type": "unocc",
				"energy": -0.03678,
				"method": "rhf"
			},
			{
				"type": "unocc",
				"energy": 0.00298,
				"method": "rhf"
			},
			{
				"type": "unocc",
				"energy": 0.0524,
				"method": "rhf"
			},
			{
				"type": "unocc",
				"energy": 0.09897,
				"method": "rhf"
			}
		],
		"cosmo_sigma_profile": { 
			"-0.025": 0.0,
			"-0.024": 0.0,
			"-0.023": 0.0,
			"-0.022": 0.0,
			"-0.021": 0.0,
			"-0.02": 0.0,
			"-0.019": 0.0,
			"-0.018": 0.0,
			"-0.017": 0.0,
			"-0.016": 0.0,
			"-0.015": 0.0,
			"-0.014": 0.0,
			"-0.013": 0.0,
			"-0.012": 0.0,
			"-0.011": 0.0,
			"-0.01": 0.0562520503046,
			"-0.009": 2.0511934709,
			"-0.008": 6.38039238941,
			"-0.007": 7.40132717681,
			"-0.006": 5.55270189388,
			"-0.005": 4.40018206908,
			"-0.004": 5.33399507856,
			"-0.003": 6.6157821435,
			"-0.002": 13.7675795525,
			"-0.001": 17.2251749293,
			"0.0": 17.6045670296,
			"0.001": 14.2850590715,
			"0.002": 9.99794504703,
			"0.003": 15.6132173245,
			"0.004": 15.2743203742,
			"0.005": 5.91968977158,
			"0.006": 1.99135835725,
			"0.007": 1.75325592386,
			"0.008": 1.33580343803,
			"0.009": 0.846967466306,
			"0.01": 1.2604203249,
			"0.011": 1.25603948326,
			"0.012": 0.615272410302,
			"0.013": 0.721894506294,
			"0.014": 0.389808998255,
			"0.015": 0.0,
			"0.016": 0.0,
			"0.017": 0.0,
			"0.018": 0.0,
			"0.019": 0.0,
			"0.02": 0.0,
			"0.021": 0.0,
			"0.022": 0.0,
			"0.023": 0.0,
			"0.024": 0.0,
			"0.025": 0.0
		}
	}
}
