{
	 "smiles": "CCCCCCCCCCCBr", 
	 "Tm": 263.65, 
	 "num_atms": 35, 
	 "gaussian": { 
		 "optdone": 1, 
		 "sigma_profile": "yes", 
		 "theory": "DFT", 
		 "functional": "B3LYP", 
		 "basiset": "6-31G**", 
		 "properties": { 
			 "R2extent": 6997.8008, 
			 "electric_dipole_moment_norm": 2.33785744219, 
			 "electric_quadrupole_moment_norm": 11.5582801831, 
			 "total_energy": -3004.46811214, 
			 "HOMO_LUMO_gap": 0.27111, 
			 "cosmo_polarized_energy": -4.03, 
			 "cosmo_cavitation_energy": 36.91, 
			 "cosmo_dispersion_energy": -25.52, 
			 "cosmo_repulsion_energy": 2.11, 
			 "cosmo_total_nonelectrostatic_energy": 13.49, 
			 "SMD_solvation_energy": 3.89 
		},
		"coords": [
			{
				"x": -1.8362860854,
				"y": 3.9198630772,
				"z": -0.5274335258,
				"element": "C" 
			},
			{
				"x": -0.9800401136,
				"y": 2.6734315776,
				"z": -0.7735083002,
				"element": "C" 
			},
			{
				"x": 0.4288512634,
				"y": 2.7868621607,
				"z": -0.1700323521,
				"element": "C" 
			},
			{
				"x": 1.3442952908,
				"y": 1.5624009843,
				"z": -0.3961165825,
				"element": "C" 
			},
			{
				"x": 1.3533261765,
				"y": 0.5076270827,
				"z": 0.7260519359,
				"element": "C" 
			},
			{
				"x": 0.0177934218,
				"y": -0.2023389939,
				"z": 0.989661,
				"element": "C" 
			},
			{
				"x": 0.0810109393,
				"y": -1.286071175,
				"z": 2.0816154284,
				"element": "C" 
			},
			{
				"x": 0.9403100858,
				"y": -2.5330488067,
				"z": 1.7937641272,
				"element": "C" 
			},
			{
				"x": 0.4500567598,
				"y": -3.4171930133,
				"z": 0.6231462534,
				"element": "C" 
			},
			{
				"x": 1.0739524385,
				"y": -3.1261854579,
				"z": -0.7591787486,
				"element": "C" 
			},
			{
				"x": 2.52111856,
				"y": -3.5927625832,
				"z": -0.8416980127,
				"element": "C" 
			},
			{
				"x": 3.3141111917,
				"y": -3.2088089258,
				"z": -2.6194092535,
				"element": "Br" 
			},
			{
				"x": -2.8273177176,
				"y": 3.8227252722,
				"z": -0.9829732075,
				"element": "H" 
			},
			{
				"x": -1.9795730579,
				"y": 4.0975173006,
				"z": 0.5447663883,
				"element": "H" 
			},
			{
				"x": -1.3633363238,
				"y": 4.814909099,
				"z": -0.9480488342,
				"element": "H" 
			},
			{
				"x": -1.4953843701,
				"y": 1.7929267533,
				"z": -0.3719552688,
				"element": "H" 
			},
			{
				"x": -0.8878113357,
				"y": 2.5008611277,
				"z": -1.8545132591,
				"element": "H" 
			},
			{
				"x": 0.3510243306,
				"y": 2.9930851351,
				"z": 0.907496526,
				"element": "H" 
			},
			{
				"x": 0.9074722746,
				"y": 3.6743023694,
				"z": -0.6051532364,
				"element": "H" 
			},
			{
				"x": 2.3765318855,
				"y": 1.9117373386,
				"z": -0.5213256619,
				"element": "H" 
			},
			{
				"x": 1.0788942045,
				"y": 1.080680597,
				"z": -1.3479329143,
				"element": "H" 
			},
			{
				"x": 2.1211773179,
				"y": -0.2373415227,
				"z": 0.479709188,
				"element": "H" 
			},
			{
				"x": 1.6887269526,
				"y": 0.9840006597,
				"z": 1.6589246935,
				"element": "H" 
			},
			{
				"x": -0.727482106,
				"y": 0.5393139793,
				"z": 1.3016540964,
				"element": "H" 
			},
			{
				"x": -0.3654845105,
				"y": -0.6318199548,
				"z": 0.0541766135,
				"element": "H" 
			},
			{
				"x": 0.4470118466,
				"y": -0.8236551299,
				"z": 3.008804557,
				"element": "H" 
			},
			{
				"x": -0.9422521759,
				"y": -1.6222628103,
				"z": 2.2984663087,
				"element": "H" 
			},
			{
				"x": 0.945826687,
				"y": -3.1382871124,
				"z": 2.708420762,
				"element": "H" 
			},
			{
				"x": 1.9860891917,
				"y": -2.2403703067,
				"z": 1.6361426492,
				"element": "H" 
			},
			{
				"x": 0.633790987,
				"y": -4.4728384498,
				"z": 0.8636572941,
				"element": "H" 
			},
			{
				"x": -0.6400591048,
				"y": -3.3226517524,
				"z": 0.5361333031,
				"element": "H" 
			},
			{
				"x": 1.0251793594,
				"y": -2.0581382453,
				"z": -0.9908297213,
				"element": "H" 
			},
			{
				"x": 0.4967872909,
				"y": -3.641758202,
				"z": -1.5345433307,
				"element": "H" 
			},
			{
				"x": 2.6142109814,
				"y": -4.6719612043,
				"z": -0.7145096644,
				"element": "H" 
			},
			{
				"x": 3.1742774637,
				"y": -3.0890508682,
				"z": -0.1297292504,
				"element": "H" 
			}
		],
		 "valence_orbital": [ 
			{
				"type": "occ",
				"energy": -0.31215,
				"method": "rhf"
			},
			{
				"type": "occ",
				"energy": -0.30166,
				"method": "rhf"
			},
			{
				"type": "occ",
				"energy": -0.30074,
				"method": "rhf"
			},
			{
				"type": "occ",
				"energy": -0.26738,
				"method": "rhf"
			},
			{
				"type": "occ",
				"energy": -0.26676,
				"method": "rhf"
			},
			{
				"type": "unocc",
				"energy": 0.00435,
				"method": "rhf"
			},
			{
				"type": "unocc",
				"energy": 0.07236,
				"method": "rhf"
			},
			{
				"type": "unocc",
				"energy": 0.08867,
				"method": "rhf"
			},
			{
				"type": "unocc",
				"energy": 0.09679,
				"method": "rhf"
			},
			{
				"type": "unocc",
				"energy": 0.10143,
				"method": "rhf"
			}
		],
		"cosmo_sigma_profile": { 
			"-0.025": 0.0,
			"-0.024": 0.0,
			"-0.023": 0.0,
			"-0.022": 0.0,
			"-0.021": 0.0,
			"-0.02": 0.0,
			"-0.019": 0.0,
			"-0.018": 0.0,
			"-0.017": 0.0,
			"-0.016": 0.0,
			"-0.015": 0.0,
			"-0.014": 0.0,
			"-0.013": 0.0,
			"-0.012": 0.0,
			"-0.011": 0.0,
			"-0.01": 0.0,
			"-0.009": 0.0,
			"-0.008": 0.0,
			"-0.007": 0.579196084445,
			"-0.006": 3.80126443472,
			"-0.005": 5.25475414606,
			"-0.004": 6.9066515292,
			"-0.003": 16.7152087197,
			"-0.002": 38.7170708956,
			"-0.001": 56.8956410133,
			"0.0": 58.6243270391,
			"0.001": 44.743947588,
			"0.002": 21.8497597552,
			"0.003": 5.06301647628,
			"0.004": 4.455250459,
			"0.005": 5.83265838524,
			"0.006": 9.46418551845,
			"0.007": 8.0513766234,
			"0.008": 0.00601892619151,
			"0.009": 0.0,
			"0.01": 0.0,
			"0.011": 0.0,
			"0.012": 0.0,
			"0.013": 0.0,
			"0.014": 0.0,
			"0.015": 0.0,
			"0.016": 0.0,
			"0.017": 0.0,
			"0.018": 0.0,
			"0.019": 0.0,
			"0.02": 0.0,
			"0.021": 0.0,
			"0.022": 0.0,
			"0.023": 0.0,
			"0.024": 0.0,
			"0.025": 0.0
		}
	}
}
