{
	 "smiles": "CC1=CC(=CN=C1)N1C=CN=C1", 
	 "Tm": 362.15, 
	 "num_atms": 21, 
	 "gaussian": { 
		 "optdone": 1, 
		 "sigma_profile": "yes", 
		 "theory": "DFT", 
		 "functional": "B3LYP", 
		 "basiset": "6-31G**", 
		 "properties": { 
			 "R2extent": 2577.608, 
			 "electric_dipole_moment_norm": 3.06375725866, 
			 "electric_quadrupole_moment_norm": 12.210850886, 
			 "total_energy": -512.62320312, 
			 "HOMO_LUMO_gap": 0.19019, 
			 "cosmo_polarized_energy": -12.11, 
			 "cosmo_cavitation_energy": 25.29, 
			 "cosmo_dispersion_energy": -18.49, 
			 "cosmo_repulsion_energy": 1.44, 
			 "cosmo_total_nonelectrostatic_energy": 8.25, 
			 "SMD_solvation_energy": 2.16 
		},
		"coords": [
			{
				"x": 2.7591891142,
				"y": -0.612903512,
				"z": 0.3409288626,
				"element": "C" 
			},
			{
				"x": 1.5735988462,
				"y": 0.2564351838,
				"z": 0.0049045404,
				"element": "C" 
			},
			{
				"x": 0.2792567155,
				"y": -0.0850018066,
				"z": 0.4081813551,
				"element": "C" 
			},
			{
				"x": -0.7876160465,
				"y": 0.7458051954,
				"z": 0.0623302741,
				"element": "C" 
			},
			{
				"x": -0.519514419,
				"y": 1.9086358127,
				"z": -0.6731808264,
				"element": "C" 
			},
			{
				"x": 0.711187656,
				"y": 2.2610365992,
				"z": -1.0437087391,
				"element": "N" 
			},
			{
				"x": 1.7225564067,
				"y": 1.4500239756,
				"z": -0.7129834118,
				"element": "C" 
			},
			{
				"x": -2.1132476123,
				"y": 0.4227898785,
				"z": 0.4406021018,
				"element": "N" 
			},
			{
				"x": -3.1066977469,
				"y": 1.303476722,
				"z": 0.8475332966,
				"element": "C" 
			},
			{
				"x": -4.2105638093,
				"y": 0.5281389238,
				"z": 1.0872447963,
				"element": "C" 
			},
			{
				"x": -3.9417147854,
				"y": -0.8003151311,
				"z": 0.8329512862,
				"element": "N" 
			},
			{
				"x": -2.6867883893,
				"y": -0.8306564011,
				"z": 0.452476724,
				"element": "C" 
			},
			{
				"x": 2.8087500378,
				"y": -0.8223561611,
				"z": 1.4148284792,
				"element": "H" 
			},
			{
				"x": 2.7027730828,
				"y": -1.5779054311,
				"z": -0.1757174062,
				"element": "H" 
			},
			{
				"x": 3.6966223229,
				"y": -0.1330073069,
				"z": 0.0479304775,
				"element": "H" 
			},
			{
				"x": 0.1022656491,
				"y": -0.9772948953,
				"z": 1.0022722355,
				"element": "H" 
			},
			{
				"x": -1.334047355,
				"y": 2.5639796725,
				"z": -0.9742760075,
				"element": "H" 
			},
			{
				"x": 2.7137918006,
				"y": 1.7656376845,
				"z": -1.0354404279,
				"element": "H" 
			},
			{
				"x": -2.9169551144,
				"y": 2.3593034956,
				"z": 0.9588379557,
				"element": "H" 
			},
			{
				"x": -5.1828722976,
				"y": 0.8500070674,
				"z": 1.4335192121,
				"element": "H" 
			},
			{
				"x": -2.137874056,
				"y": -1.7076295659,
				"z": 0.1385652216,
				"element": "H" 
			}
		],
		 "valence_orbital": [ 
			{
				"type": "occ",
				"energy": -0.2829,
				"method": "rhf"
			},
			{
				"type": "occ",
				"energy": -0.27525,
				"method": "rhf"
			},
			{
				"type": "occ",
				"energy": -0.26222,
				"method": "rhf"
			},
			{
				"type": "occ",
				"energy": -0.25132,
				"method": "rhf"
			},
			{
				"type": "occ",
				"energy": -0.2312,
				"method": "rhf"
			},
			{
				"type": "unocc",
				"energy": -0.04101,
				"method": "rhf"
			},
			{
				"type": "unocc",
				"energy": -0.02829,
				"method": "rhf"
			},
			{
				"type": "unocc",
				"energy": 0.0308,
				"method": "rhf"
			},
			{
				"type": "unocc",
				"energy": 0.06288,
				"method": "rhf"
			},
			{
				"type": "unocc",
				"energy": 0.09004,
				"method": "rhf"
			}
		],
		"cosmo_sigma_profile": { 
			"-0.025": 0.0,
			"-0.024": 0.0,
			"-0.023": 0.0,
			"-0.022": 0.0,
			"-0.021": 0.0,
			"-0.02": 0.0,
			"-0.019": 0.0,
			"-0.018": 0.0,
			"-0.017": 0.0,
			"-0.016": 0.0,
			"-0.015": 0.0,
			"-0.014": 0.0,
			"-0.013": 0.0,
			"-0.012": 0.0,
			"-0.011": 0.0,
			"-0.01": 0.037445286446,
			"-0.009": 2.99818078467,
			"-0.008": 5.84170038083,
			"-0.007": 8.82836182958,
			"-0.006": 11.9140035787,
			"-0.005": 13.873114956,
			"-0.004": 16.9259731837,
			"-0.003": 14.9388783717,
			"-0.002": 14.3696791956,
			"-0.001": 19.1662128543,
			"0.0": 16.6086197611,
			"0.001": 15.7013355542,
			"0.002": 10.8550451377,
			"0.003": 6.57879449726,
			"0.004": 7.90357391657,
			"0.005": 7.63264952216,
			"0.006": 3.83337865428,
			"0.007": 2.76571307565,
			"0.008": 3.32569958362,
			"0.009": 3.15693129278,
			"0.01": 2.53341228848,
			"0.011": 1.27544384215,
			"0.012": 2.48497703691,
			"0.013": 2.32590721623,
			"0.014": 1.63388874081,
			"0.015": 2.26782799055,
			"0.016": 1.57866118687,
			"0.017": 1.17086840948,
			"0.018": 0.469364240696,
			"0.019": 0.0,
			"0.02": 0.0,
			"0.021": 0.0,
			"0.022": 0.0,
			"0.023": 0.0,
			"0.024": 0.0,
			"0.025": 0.0
		}
	}
}
