{
	 "smiles": "IC1=CC2=C(C=CC=C2)N=C1", 
	 "Tm": 331.15, 
	 "num_atms": 17, 
	 "gaussian": { 
		 "optdone": 1, 
		 "sigma_profile": "yes", 
		 "theory": "DFT", 
		 "functional": "B3LYP", 
		 "basiset": "6-31G**", 
		 "properties": { 
			 "R2extent": 1985.6653, 
			 "electric_dipole_moment_norm": 2.34481430821, 
			 "electric_quadrupole_moment_norm": 7.68104995818, 
			 "total_energy": -412.715143101, 
			 "HOMO_LUMO_gap": 0.17286, 
			 "cosmo_polarized_energy": -6.31, 
			 "cosmo_cavitation_energy": 24.34, 
			 "cosmo_dispersion_energy": -19.72, 
			 "cosmo_repulsion_energy": 1.52, 
			 "cosmo_total_nonelectrostatic_energy": 6.14, 
			 "SMD_solvation_energy": 1.62 
		},
		"coords": [
			{
				"x": -1.308377389,
				"y": -2.9305516243,
				"z": -2.8321726287,
				"element": "I" 
			},
			{
				"x": -1.105323835,
				"y": -1.4480632742,
				"z": -1.3352027891,
				"element": "C" 
			},
			{
				"x": -1.0161804945,
				"y": -0.1161569571,
				"z": -1.6608071342,
				"element": "C" 
			},
			{
				"x": -0.8812574026,
				"y": 0.8334801904,
				"z": -0.6146030629,
				"element": "C" 
			},
			{
				"x": -0.8459126941,
				"y": 0.3421326326,
				"z": 0.728809987,
				"element": "C" 
			},
			{
				"x": -0.7118984884,
				"y": 1.2654626198,
				"z": 1.7984139992,
				"element": "C" 
			},
			{
				"x": -0.6173817897,
				"y": 2.615291094,
				"z": 1.5431172327,
				"element": "C" 
			},
			{
				"x": -0.6523971004,
				"y": 3.1017077719,
				"z": 0.2118049256,
				"element": "C" 
			},
			{
				"x": -0.7815932255,
				"y": 2.2308649011,
				"z": -0.8467038517,
				"element": "C" 
			},
			{
				"x": -0.9368191657,
				"y": -0.9885254678,
				"z": 1.0205574907,
				"element": "N" 
			},
			{
				"x": -1.0610096791,
				"y": -1.8440607002,
				"z": 0.0301481116,
				"element": "C" 
			},
			{
				"x": -1.0466480169,
				"y": 0.2204406287,
				"z": -2.6922967025,
				"element": "H" 
			},
			{
				"x": -0.6876797491,
				"y": 0.8677317395,
				"z": 2.8075715847,
				"element": "H" 
			},
			{
				"x": -0.5149717521,
				"y": 3.317870078,
				"z": 2.3648847431,
				"element": "H" 
			},
			{
				"x": -0.5764840557,
				"y": 4.1696497571,
				"z": 0.0300649399,
				"element": "H" 
			},
			{
				"x": -0.8089299681,
				"y": 2.5991869929,
				"z": -1.8688982997,
				"element": "H" 
			},
			{
				"x": -1.1314351942,
				"y": -2.8982603824,
				"z": 0.2895114543,
				"element": "H" 
			}
		],
		 "valence_orbital": [ 
			{
				"type": "occ",
				"energy": -0.28571,
				"method": "rhf"
			},
			{
				"type": "occ",
				"energy": -0.27727,
				"method": "rhf"
			},
			{
				"type": "occ",
				"energy": -0.2635,
				"method": "rhf"
			},
			{
				"type": "occ",
				"energy": -0.25217,
				"method": "rhf"
			},
			{
				"type": "occ",
				"energy": -0.23699,
				"method": "rhf"
			},
			{
				"type": "unocc",
				"energy": -0.06413,
				"method": "rhf"
			},
			{
				"type": "unocc",
				"energy": -0.04389,
				"method": "rhf"
			},
			{
				"type": "unocc",
				"energy": -0.02867,
				"method": "rhf"
			},
			{
				"type": "unocc",
				"energy": 0.00977,
				"method": "rhf"
			},
			{
				"type": "unocc",
				"energy": 0.04124,
				"method": "rhf"
			}
		],
		"cosmo_sigma_profile": { 
			"-0.025": 0.0,
			"-0.024": 0.0,
			"-0.023": 0.0,
			"-0.022": 0.0,
			"-0.021": 0.0,
			"-0.02": 0.0,
			"-0.019": 0.0,
			"-0.018": 0.0,
			"-0.017": 0.0,
			"-0.016": 0.0,
			"-0.015": 0.0,
			"-0.014": 0.0,
			"-0.013": 0.0,
			"-0.012": 0.0,
			"-0.011": 0.0,
			"-0.01": 0.0,
			"-0.009": 0.0665205658188,
			"-0.008": 2.72020699204,
			"-0.007": 7.16032077629,
			"-0.006": 12.7675784783,
			"-0.005": 12.5787798401,
			"-0.004": 13.3301066689,
			"-0.003": 11.9181075829,
			"-0.002": 9.95764293883,
			"-0.001": 12.1797986565,
			"0.0": 19.3518489654,
			"0.001": 22.5527706407,
			"0.002": 20.0041511287,
			"0.003": 22.2976238547,
			"0.004": 21.1307099489,
			"0.005": 3.3552907675,
			"0.006": 1.25577398067,
			"0.007": 2.02513175441,
			"0.008": 1.60149729983,
			"0.009": 0.503827395045,
			"0.01": 0.716633141179,
			"0.011": 0.803857504308,
			"0.012": 0.602277192257,
			"0.013": 1.24446137229,
			"0.014": 0.797885026724,
			"0.015": 0.481510149724,
			"0.016": 0.177890444031,
			"0.017": 0.0,
			"0.018": 0.0,
			"0.019": 0.0,
			"0.02": 0.0,
			"0.021": 0.0,
			"0.022": 0.0,
			"0.023": 0.0,
			"0.024": 0.0,
			"0.025": 0.0
		}
	}
}
