{
	 "smiles": "N(C1=NN=NS1)C1=CC=CC=C1", 
	 "Tm": 418.15, 
	 "num_atms": 18, 
	 "gaussian": { 
		 "optdone": 1, 
		 "sigma_profile": "yes", 
		 "theory": "DFT", 
		 "functional": "B3LYP", 
		 "basiset": "6-31G**", 
		 "properties": { 
			 "R2extent": 4994.5684, 
			 "electric_dipole_moment_norm": 5.60930333999, 
			 "electric_quadrupole_moment_norm": 22.3707557698, 
			 "total_energy": -887.493743458, 
			 "HOMO_LUMO_gap": 0.17585, 
			 "cosmo_polarized_energy": -12.79, 
			 "cosmo_cavitation_energy": 24.36, 
			 "cosmo_dispersion_energy": -18.95, 
			 "cosmo_repulsion_energy": 1.43, 
			 "cosmo_total_nonelectrostatic_energy": 6.84, 
			 "SMD_solvation_energy": 1.84 
		},
		"coords": [
			{
				"x": -0.8961066837,
				"y": -0.5859956961,
				"z": -1.7643679096,
				"element": "N" 
			},
			{
				"x": -1.0898462284,
				"y": -1.1008681251,
				"z": -3.0029056223,
				"element": "C" 
			},
			{
				"x": -1.0083257453,
				"y": -2.4217222045,
				"z": -3.1699267881,
				"element": "N" 
			},
			{
				"x": -1.1897248291,
				"y": -2.7618600664,
				"z": -4.4538724682,
				"element": "N" 
			},
			{
				"x": -1.4108876576,
				"y": -1.8518341058,
				"z": -5.3027796101,
				"element": "N" 
			},
			{
				"x": -1.4093226957,
				"y": -0.2777670015,
				"z": -4.4912914519,
				"element": "S" 
			},
			{
				"x": -0.9170782273,
				"y": 0.7375206539,
				"z": -1.2850721105,
				"element": "C" 
			},
			{
				"x": -1.4819982856,
				"y": 1.8082373153,
				"z": -1.990216133,
				"element": "C" 
			},
			{
				"x": -1.4603196475,
				"y": 3.0891650924,
				"z": -1.4362885412,
				"element": "C" 
			},
			{
				"x": -0.8950032188,
				"y": 3.3196738396,
				"z": -0.1830311966,
				"element": "C" 
			},
			{
				"x": -0.3461564978,
				"y": 2.2472889126,
				"z": 0.5246782639,
				"element": "C" 
			},
			{
				"x": -0.3535168674,
				"y": 0.9671953219,
				"z": -0.018951364,
				"element": "C" 
			},
			{
				"x": -0.6450064169,
				"y": -1.3017063016,
				"z": -1.0927699878,
				"element": "H" 
			},
			{
				"x": -1.9608504456,
				"y": 1.6551575019,
				"z": -2.949628891,
				"element": "H" 
			},
			{
				"x": -1.9013888276,
				"y": 3.9095931934,
				"z": -1.9943368515,
				"element": "H" 
			},
			{
				"x": -0.8845487017,
				"y": 4.3192632399,
				"z": 0.2392916009,
				"element": "H" 
			},
			{
				"x": 0.095673098,
				"y": 2.406509157,
				"z": 1.5036893423,
				"element": "H" 
			},
			{
				"x": 0.0852078781,
				"y": 0.1384492728,
				"z": 0.5311797187,
				"element": "H" 
			}
		],
		 "valence_orbital": [ 
			{
				"type": "occ",
				"energy": -0.29826,
				"method": "rhf"
			},
			{
				"type": "occ",
				"energy": -0.29504,
				"method": "rhf"
			},
			{
				"type": "occ",
				"energy": -0.27792,
				"method": "rhf"
			},
			{
				"type": "occ",
				"energy": -0.27217,
				"method": "rhf"
			},
			{
				"type": "occ",
				"energy": -0.23284,
				"method": "rhf"
			},
			{
				"type": "unocc",
				"energy": -0.05699,
				"method": "rhf"
			},
			{
				"type": "unocc",
				"energy": -0.02901,
				"method": "rhf"
			},
			{
				"type": "unocc",
				"energy": -0.0176,
				"method": "rhf"
			},
			{
				"type": "unocc",
				"energy": -0.00922,
				"method": "rhf"
			},
			{
				"type": "unocc",
				"energy": 0.02894,
				"method": "rhf"
			}
		],
		"cosmo_sigma_profile": { 
			"-0.025": 0.0,
			"-0.024": 0.0,
			"-0.023": 0.0,
			"-0.022": 0.0,
			"-0.021": 0.0,
			"-0.02": 0.0,
			"-0.019": 0.0,
			"-0.018": 0.0,
			"-0.017": 0.147291002898,
			"-0.016": 1.14216311634,
			"-0.015": 0.984172367468,
			"-0.014": 1.45491205246,
			"-0.013": 1.10581279901,
			"-0.012": 0.729830678905,
			"-0.011": 0.911252698543,
			"-0.01": 1.02802196958,
			"-0.009": 1.14346989601,
			"-0.008": 2.04726858944,
			"-0.007": 3.97731114331,
			"-0.006": 11.3874030721,
			"-0.005": 13.2338027114,
			"-0.004": 14.6729539533,
			"-0.003": 15.5690629734,
			"-0.002": 15.8187000723,
			"-0.001": 12.8453824311,
			"0.0": 14.122673669,
			"0.001": 13.8811437074,
			"0.002": 9.82384194366,
			"0.003": 11.2467413949,
			"0.004": 12.5625753792,
			"0.005": 9.15993969929,
			"0.006": 3.05949090192,
			"0.007": 4.55297981488,
			"0.008": 5.12627906398,
			"0.009": 5.34525361918,
			"0.01": 5.25308245397,
			"0.011": 3.77886888327,
			"0.012": 2.17383956505,
			"0.013": 0.789859233026,
			"0.014": 0.044136519755,
			"0.015": 0.0,
			"0.016": 0.0,
			"0.017": 0.0,
			"0.018": 0.0,
			"0.019": 0.0,
			"0.02": 0.0,
			"0.021": 0.0,
			"0.022": 0.0,
			"0.023": 0.0,
			"0.024": 0.0,
			"0.025": 0.0
		}
	}
}
