{
	 "smiles": "CC(=O)OC1=CC=CC=C1C(=O)OCN1C(=O)CCC1=O", 
	 "Tm": 391.15, 
	 "num_atms": 34, 
	 "gaussian": { 
		 "optdone": 1, 
		 "sigma_profile": "yes", 
		 "theory": "DFT", 
		 "functional": "B3LYP", 
		 "basiset": "6-31G**", 
		 "properties": { 
			 "R2extent": 7263.3366, 
			 "electric_dipole_moment_norm": 3.37884815433, 
			 "electric_quadrupole_moment_norm": 16.7831384869, 
			 "total_energy": -1047.46851595, 
			 "HOMO_LUMO_gap": 0.19811, 
			 "cosmo_polarized_energy": -21.34, 
			 "cosmo_cavitation_energy": 39.78, 
			 "cosmo_dispersion_energy": -27.13, 
			 "cosmo_repulsion_energy": 2.12, 
			 "cosmo_total_nonelectrostatic_energy": 14.77, 
			 "SMD_solvation_energy": 9.84 
		},
		"coords": [
			{
				"x": 4.3875316428,
				"y": -1.1431630144,
				"z": 2.6294827327,
				"element": "C" 
			},
			{
				"x": 4.0966238332,
				"y": 0.1094604232,
				"z": 1.852420725,
				"element": "C" 
			},
			{
				"x": 3.9273310922,
				"y": 1.215530151,
				"z": 2.294930825,
				"element": "O" 
			},
			{
				"x": 4.0426195263,
				"y": -0.1803188016,
				"z": 0.5018318857,
				"element": "O" 
			},
			{
				"x": 3.5708165383,
				"y": 0.7879236857,
				"z": -0.3666718952,
				"element": "C" 
			},
			{
				"x": 4.4785999661,
				"y": 1.2990043338,
				"z": -1.2907595594,
				"element": "C" 
			},
			{
				"x": 4.0602370536,
				"y": 2.2237390788,
				"z": -2.2455682718,
				"element": "C" 
			},
			{
				"x": 2.729841244,
				"y": 2.6464010641,
				"z": -2.2732855085,
				"element": "C" 
			},
			{
				"x": 1.8239285016,
				"y": 2.1370487653,
				"z": -1.3481836608,
				"element": "C" 
			},
			{
				"x": 2.2222289831,
				"y": 1.197725524,
				"z": -0.3812721166,
				"element": "C" 
			},
			{
				"x": 1.2267769828,
				"y": 0.6263124734,
				"z": 0.5660898895,
				"element": "C" 
			},
			{
				"x": 1.3969899313,
				"y": -0.3198878818,
				"z": 1.3064114368,
				"element": "O" 
			},
			{
				"x": 0.0404442371,
				"y": 1.2983836501,
				"z": 0.4995450719,
				"element": "O" 
			},
			{
				"x": -1.0174168575,
				"y": 0.8221742423,
				"z": 1.3336507757,
				"element": "C" 
			},
			{
				"x": -1.7046763788,
				"y": -0.302804574,
				"z": 0.740535346,
				"element": "N" 
			},
			{
				"x": -2.4638559437,
				"y": -0.1913196415,
				"z": -0.4311416049,
				"element": "C" 
			},
			{
				"x": -2.6365065035,
				"y": 0.8408172979,
				"z": -1.0408947223,
				"element": "O" 
			},
			{
				"x": -3.0175714097,
				"y": -1.5755690504,
				"z": -0.757647797,
				"element": "C" 
			},
			{
				"x": -2.5101149833,
				"y": -2.4935441792,
				"z": 0.3659573599,
				"element": "C" 
			},
			{
				"x": -1.7372344629,
				"y": -1.5849090944,
				"z": 1.3183088683,
				"element": "C" 
			},
			{
				"x": -1.2548996702,
				"y": -1.8742681618,
				"z": 2.387976391,
				"element": "O" 
			},
			{
				"x": 4.6913948902,
				"y": -0.8820045568,
				"z": 3.6428333632,
				"element": "H" 
			},
			{
				"x": 5.1566344035,
				"y": -1.7424425197,
				"z": 2.136823145,
				"element": "H" 
			},
			{
				"x": 3.4667776972,
				"y": -1.734073027,
				"z": 2.6634801513,
				"element": "H" 
			},
			{
				"x": 5.5072118774,
				"y": 0.9578897651,
				"z": -1.2452854253,
				"element": "H" 
			},
			{
				"x": 4.7749702085,
				"y": 2.6150531363,
				"z": -2.9634953613,
				"element": "H" 
			},
			{
				"x": 2.3981594326,
				"y": 3.3668910354,
				"z": -3.014064282,
				"element": "H" 
			},
			{
				"x": 0.7873103119,
				"y": 2.450695173,
				"z": -1.3677595167,
				"element": "H" 
			},
			{
				"x": -1.7002563239,
				"y": 1.6673763242,
				"z": 1.4162095403,
				"element": "H" 
			},
			{
				"x": -0.6383979648,
				"y": 0.4949256107,
				"z": 2.3023883983,
				"element": "H" 
			},
			{
				"x": -2.669796818,
				"y": -1.8664368682,
				"z": -1.7527785783,
				"element": "H" 
			},
			{
				"x": -4.1082796929,
				"y": -1.5110214698,
				"z": -0.8070786727,
				"element": "H" 
			},
			{
				"x": -1.8306710132,
				"y": -3.2743404522,
				"z": 0.0112561863,
				"element": "H" 
			},
			{
				"x": -3.3075503312,
				"y": -2.9920484416,
				"z": 0.9229548808,
				"element": "H" 
			}
		],
		 "valence_orbital": [ 
			{
				"type": "occ",
				"energy": -0.27789,
				"method": "rhf"
			},
			{
				"type": "occ",
				"energy": -0.27433,
				"method": "rhf"
			},
			{
				"type": "occ",
				"energy": -0.26656,
				"method": "rhf"
			},
			{
				"type": "occ",
				"energy": -0.26399,
				"method": "rhf"
			},
			{
				"type": "occ",
				"energy": -0.25266,
				"method": "rhf"
			},
			{
				"type": "unocc",
				"energy": -0.05455,
				"method": "rhf"
			},
			{
				"type": "unocc",
				"energy": -0.02274,
				"method": "rhf"
			},
			{
				"type": "unocc",
				"energy": -0.01308,
				"method": "rhf"
			},
			{
				"type": "unocc",
				"energy": 0.01034,
				"method": "rhf"
			},
			{
				"type": "unocc",
				"energy": 0.01684,
				"method": "rhf"
			}
		],
		"cosmo_sigma_profile": { 
			"-0.025": 0.0,
			"-0.024": 0.0,
			"-0.023": 0.0,
			"-0.022": 0.0,
			"-0.021": 0.0,
			"-0.02": 0.0,
			"-0.019": 0.0,
			"-0.018": 0.0,
			"-0.017": 0.0,
			"-0.016": 0.0,
			"-0.015": 0.0,
			"-0.014": 0.0,
			"-0.013": 0.0,
			"-0.012": 0.0,
			"-0.011": 0.0,
			"-0.01": 0.0,
			"-0.009": 1.08767967918,
			"-0.008": 6.65079694106,
			"-0.007": 25.7993471216,
			"-0.006": 29.7757958357,
			"-0.005": 25.6959756178,
			"-0.004": 23.1664064139,
			"-0.003": 24.2336730606,
			"-0.002": 19.5716038291,
			"-0.001": 15.7667712773,
			"0.0": 14.0894087487,
			"0.001": 16.5406956463,
			"0.002": 18.3798393414,
			"0.003": 16.3597071612,
			"0.004": 8.71272640848,
			"0.005": 7.47642846132,
			"0.006": 8.10194966039,
			"0.007": 7.94363440731,
			"0.008": 6.90286744562,
			"0.009": 7.9012530728,
			"0.01": 8.28653703898,
			"0.011": 14.285530416,
			"0.012": 9.71097193487,
			"0.013": 0.952604430372,
			"0.014": 0.0,
			"0.015": 0.0,
			"0.016": 0.0,
			"0.017": 0.0,
			"0.018": 0.0,
			"0.019": 0.0,
			"0.02": 0.0,
			"0.021": 0.0,
			"0.022": 0.0,
			"0.023": 0.0,
			"0.024": 0.0,
			"0.025": 0.0
		}
	}
}
