{
	 "smiles": "OC1CCN(CC1)C(=O)COC(=O)C1=CC=CC=C1", 
	 "Tm": 395.15, 
	 "num_atms": 36, 
	 "gaussian": { 
		 "optdone": 1, 
		 "sigma_profile": "yes", 
		 "theory": "DFT", 
		 "functional": "B3LYP", 
		 "basiset": "6-31G**", 
		 "properties": { 
			 "R2extent": 7219.4759, 
			 "electric_dipole_moment_norm": 3.426704891, 
			 "electric_quadrupole_moment_norm": 21.61551377, 
			 "total_energy": -899.394281616, 
			 "HOMO_LUMO_gap": 0.18914, 
			 "cosmo_polarized_energy": -18.97, 
			 "cosmo_cavitation_energy": 39.09, 
			 "cosmo_dispersion_energy": -27.3, 
			 "cosmo_repulsion_energy": 2.12, 
			 "cosmo_total_nonelectrostatic_energy": 13.9, 
			 "SMD_solvation_energy": 6.87 
		},
		"coords": [
			{
				"x": 1.2834543179,
				"y": 3.7530334254,
				"z": 2.2215340992,
				"element": "O" 
			},
			{
				"x": 1.0951724817,
				"y": 3.4273615787,
				"z": 0.8475691337,
				"element": "C" 
			},
			{
				"x": -0.2391178918,
				"y": 3.9651532725,
				"z": 0.2797087468,
				"element": "C" 
			},
			{
				"x": -1.3515900583,
				"y": 2.9163695777,
				"z": 0.2966097546,
				"element": "C" 
			},
			{
				"x": -0.9683691871,
				"y": 1.7561537006,
				"z": -0.5243288681,
				"element": "N" 
			},
			{
				"x": 0.4660589568,
				"y": 1.451574609,
				"z": -0.647117828,
				"element": "C" 
			},
			{
				"x": 1.2046599218,
				"y": 1.9046850355,
				"z": 0.6156169927,
				"element": "C" 
			},
			{
				"x": -1.962997975,
				"y": 1.0819877754,
				"z": -1.1777040075,
				"element": "C" 
			},
			{
				"x": -3.1475393233,
				"y": 1.3907709984,
				"z": -1.0792321557,
				"element": "O" 
			},
			{
				"x": -1.5590685626,
				"y": -0.0799682615,
				"z": -2.0887850248,
				"element": "C" 
			},
			{
				"x": -1.0842020295,
				"y": -1.1654496829,
				"z": -1.2649049102,
				"element": "O" 
			},
			{
				"x": -0.6233221799,
				"y": -2.2499407811,
				"z": -1.9445582678,
				"element": "C" 
			},
			{
				"x": -0.5719686377,
				"y": -2.2911321978,
				"z": -3.1572723195,
				"element": "O" 
			},
			{
				"x": -0.1924274131,
				"y": -3.3483219809,
				"z": -1.036592283,
				"element": "C" 
			},
			{
				"x": 0.3610379576,
				"y": -4.4962919012,
				"z": -1.620850724,
				"element": "C" 
			},
			{
				"x": 0.7802874642,
				"y": -5.5539773541,
				"z": -0.818148559,
				"element": "C" 
			},
			{
				"x": 0.646585787,
				"y": -5.4720314781,
				"z": 0.5707138512,
				"element": "C" 
			},
			{
				"x": 0.0920598154,
				"y": -4.3308785227,
				"z": 1.1557956084,
				"element": "C" 
			},
			{
				"x": -0.3276860727,
				"y": -3.2686420647,
				"z": 0.3568455772,
				"element": "C" 
			},
			{
				"x": 0.5877403586,
				"y": 3.3136784449,
				"z": 2.7297931379,
				"element": "H" 
			},
			{
				"x": 1.9212929584,
				"y": 3.9357264991,
				"z": 0.3391720223,
				"element": "H" 
			},
			{
				"x": -0.0922560918,
				"y": 4.3015221293,
				"z": -0.7536737075,
				"element": "H" 
			},
			{
				"x": -0.5361480155,
				"y": 4.8443369258,
				"z": 0.8601104367,
				"element": "H" 
			},
			{
				"x": -1.5675096649,
				"y": 2.5925228155,
				"z": 1.3263019167,
				"element": "H" 
			},
			{
				"x": -2.2870018934,
				"y": 3.3077555003,
				"z": -0.1057432681,
				"element": "H" 
			},
			{
				"x": 0.5937729934,
				"y": 0.3773228113,
				"z": -0.7795295387,
				"element": "H" 
			},
			{
				"x": 0.8959984039,
				"y": 1.9500150794,
				"z": -1.5298550034,
				"element": "H" 
			},
			{
				"x": 0.7641965968,
				"y": 1.3852555648,
				"z": 1.4771395914,
				"element": "H" 
			},
			{
				"x": 2.2534020304,
				"y": 1.5966597545,
				"z": 0.5686179073,
				"element": "H" 
			},
			{
				"x": -0.7859242778,
				"y": 0.1957806011,
				"z": -2.813044561,
				"element": "H" 
			},
			{
				"x": -2.4521628531,
				"y": -0.3920474642,
				"z": -2.631206992,
				"element": "H" 
			},
			{
				"x": 0.4514449153,
				"y": -4.5367232383,
				"z": -2.701056838,
				"element": "H" 
			},
			{
				"x": 1.2095648104,
				"y": -6.4418844879,
				"z": -1.2726067404,
				"element": "H" 
			},
			{
				"x": 0.9724863321,
				"y": -6.2979095981,
				"z": 1.1966575581,
				"element": "H" 
			},
			{
				"x": -0.0151358252,
				"y": -4.2701478969,
				"z": 2.2347495564,
				"element": "H" 
			},
			{
				"x": -0.7642881486,
				"y": -2.3823191886,
				"z": 0.8025757063,
				"element": "H" 
			}
		],
		 "valence_orbital": [ 
			{
				"type": "occ",
				"energy": -0.27277,
				"method": "rhf"
			},
			{
				"type": "occ",
				"energy": -0.26564,
				"method": "rhf"
			},
			{
				"type": "occ",
				"energy": -0.26405,
				"method": "rhf"
			},
			{
				"type": "occ",
				"energy": -0.25074,
				"method": "rhf"
			},
			{
				"type": "occ",
				"energy": -0.24143,
				"method": "rhf"
			},
			{
				"type": "unocc",
				"energy": -0.05229,
				"method": "rhf"
			},
			{
				"type": "unocc",
				"energy": -0.01354,
				"method": "rhf"
			},
			{
				"type": "unocc",
				"energy": 0.00703,
				"method": "rhf"
			},
			{
				"type": "unocc",
				"energy": 0.05079,
				"method": "rhf"
			},
			{
				"type": "unocc",
				"energy": 0.05714,
				"method": "rhf"
			}
		],
		"cosmo_sigma_profile": { 
			"-0.025": 0.0,
			"-0.024": 0.0,
			"-0.023": 0.0,
			"-0.022": 0.0,
			"-0.021": 0.0,
			"-0.02": 0.0,
			"-0.019": 0.0,
			"-0.018": 0.0,
			"-0.017": 0.0,
			"-0.016": 0.0,
			"-0.015": 0.238678188712,
			"-0.014": 0.746723279753,
			"-0.013": 0.972266472535,
			"-0.012": 1.95402402455,
			"-0.011": 1.19737511474,
			"-0.01": 1.03242608412,
			"-0.009": 1.52507231098,
			"-0.008": 1.29974750081,
			"-0.007": 6.67528862569,
			"-0.006": 16.7993531829,
			"-0.005": 23.9783996893,
			"-0.004": 37.3833986983,
			"-0.003": 30.6606456061,
			"-0.002": 24.3711922428,
			"-0.001": 21.2578138106,
			"0.0": 18.2767257537,
			"0.001": 18.4612303753,
			"0.002": 18.3258005416,
			"0.003": 16.5967009364,
			"0.004": 14.8248622977,
			"0.005": 6.07812221198,
			"0.006": 3.68796169786,
			"0.007": 2.82373843135,
			"0.008": 4.7356307366,
			"0.009": 3.87834677149,
			"0.01": 4.59233749177,
			"0.011": 6.76461388207,
			"0.012": 5.16270054202,
			"0.013": 6.06277041253,
			"0.014": 6.09387343653,
			"0.015": 1.49263010922,
			"0.016": 0.0,
			"0.017": 0.0,
			"0.018": 0.0,
			"0.019": 0.0,
			"0.02": 0.0,
			"0.021": 0.0,
			"0.022": 0.0,
			"0.023": 0.0,
			"0.024": 0.0,
			"0.025": 0.0
		}
	}
}
