{
	 "smiles": "OCC(=O)NC1=CC=CC=C1", 
	 "Tm": 353.15, 
	 "num_atms": 20, 
	 "gaussian": { 
		 "optdone": 1, 
		 "sigma_profile": "yes", 
		 "theory": "DFT", 
		 "functional": "B3LYP", 
		 "basiset": "6-31G**", 
		 "properties": { 
			 "R2extent": 2195.849, 
			 "electric_dipole_moment_norm": 2.76742792318, 
			 "electric_quadrupole_moment_norm": 5.46108287247, 
			 "total_energy": -515.472566703, 
			 "HOMO_LUMO_gap": 0.21248, 
			 "cosmo_polarized_energy": -11.78, 
			 "cosmo_cavitation_energy": 23.96, 
			 "cosmo_dispersion_energy": -17.63, 
			 "cosmo_repulsion_energy": 1.43, 
			 "cosmo_total_nonelectrostatic_energy": 7.76, 
			 "SMD_solvation_energy": 4.88 
		},
		"coords": [
			{
				"x": -0.6165136323,
				"y": 2.9759769943,
				"z": 1.5857956424,
				"element": "O" 
			},
			{
				"x": -0.7273022539,
				"y": 1.7623728966,
				"z": 2.3157331681,
				"element": "C" 
			},
			{
				"x": 0.6202570586,
				"y": 1.0409224216,
				"z": 2.3051092259,
				"element": "C" 
			},
			{
				"x": 1.5649844344,
				"y": 1.5330992977,
				"z": 2.9134361384,
				"element": "O" 
			},
			{
				"x": 0.7520872037,
				"y": -0.1495554653,
				"z": 1.6318092001,
				"element": "N" 
			},
			{
				"x": -0.0690129469,
				"y": -0.7113038512,
				"z": 0.6193889364,
				"element": "C" 
			},
			{
				"x": -0.7155634115,
				"y": 0.0920056527,
				"z": -0.3312258319,
				"element": "C" 
			},
			{
				"x": -1.4996527547,
				"y": -0.5035478058,
				"z": -1.3196809028,
				"element": "C" 
			},
			{
				"x": -1.6174437695,
				"y": -1.8924375163,
				"z": -1.3941268402,
				"element": "C" 
			},
			{
				"x": -0.9490392687,
				"y": -2.6907653653,
				"z": -0.4632741997,
				"element": "C" 
			},
			{
				"x": -0.1852280822,
				"y": -2.1058324687,
				"z": 0.5450439478,
				"element": "C" 
			},
			{
				"x": 0.1697835721,
				"y": 3.4236215412,
				"z": 1.9326846086,
				"element": "H" 
			},
			{
				"x": -0.9707925353,
				"y": 1.9431403842,
				"z": 3.3727508704,
				"element": "H" 
			},
			{
				"x": -1.5356014828,
				"y": 1.1866821756,
				"z": 1.8649185418,
				"element": "H" 
			},
			{
				"x": 1.6608340307,
				"y": -0.5759332927,
				"z": 1.7756536706,
				"element": "H" 
			},
			{
				"x": -0.5945710323,
				"y": 1.1704298011,
				"z": -0.298696698,
				"element": "H" 
			},
			{
				"x": -2.003266217,
				"y": 0.1256913692,
				"z": -2.0476779158,
				"element": "H" 
			},
			{
				"x": -2.2190385751,
				"y": -2.3493046618,
				"z": -2.1739021748,
				"element": "H" 
			},
			{
				"x": -1.0303908075,
				"y": -3.7726385194,
				"z": -0.5135465732,
				"element": "H" 
			},
			{
				"x": 0.3174704701,
				"y": -2.7233235875,
				"z": 1.2843071861,
				"element": "H" 
			}
		],
		 "valence_orbital": [ 
			{
				"type": "occ",
				"energy": -0.30226,
				"method": "rhf"
			},
			{
				"type": "occ",
				"energy": -0.28809,
				"method": "rhf"
			},
			{
				"type": "occ",
				"energy": -0.26175,
				"method": "rhf"
			},
			{
				"type": "occ",
				"energy": -0.25346,
				"method": "rhf"
			},
			{
				"type": "occ",
				"energy": -0.23438,
				"method": "rhf"
			},
			{
				"type": "unocc",
				"energy": -0.0219,
				"method": "rhf"
			},
			{
				"type": "unocc",
				"energy": -0.01327,
				"method": "rhf"
			},
			{
				"type": "unocc",
				"energy": 0.018,
				"method": "rhf"
			},
			{
				"type": "unocc",
				"energy": 0.08687,
				"method": "rhf"
			},
			{
				"type": "unocc",
				"energy": 0.09438,
				"method": "rhf"
			}
		],
		"cosmo_sigma_profile": { 
			"-0.025": 0.0,
			"-0.024": 0.0,
			"-0.023": 0.0,
			"-0.022": 0.0,
			"-0.021": 0.0,
			"-0.02": 0.0,
			"-0.019": 0.0,
			"-0.018": 0.0,
			"-0.017": 0.0,
			"-0.016": 0.0,
			"-0.015": 0.356282537706,
			"-0.014": 1.48380623041,
			"-0.013": 2.37006741264,
			"-0.012": 1.63618367574,
			"-0.011": 1.19958434893,
			"-0.01": 1.47317320383,
			"-0.009": 1.91908185482,
			"-0.008": 2.49020316406,
			"-0.007": 2.90750609618,
			"-0.006": 10.7764444422,
			"-0.005": 14.9689783193,
			"-0.004": 17.4367631781,
			"-0.003": 14.7629918136,
			"-0.002": 12.1380629182,
			"-0.001": 10.7501188246,
			"0.0": 12.2118914422,
			"0.001": 10.841052665,
			"0.002": 10.6797659133,
			"0.003": 10.3556394928,
			"0.004": 11.6691579223,
			"0.005": 9.94825623696,
			"0.006": 3.39869826858,
			"0.007": 3.10870862121,
			"0.008": 2.05460531422,
			"0.009": 1.27796746868,
			"0.01": 2.34430703999,
			"0.011": 3.13030137697,
			"0.012": 4.22818853869,
			"0.013": 6.69157233808,
			"0.014": 1.66486471662,
			"0.015": 0.0,
			"0.016": 0.0,
			"0.017": 0.0,
			"0.018": 0.0,
			"0.019": 0.0,
			"0.02": 0.0,
			"0.021": 0.0,
			"0.022": 0.0,
			"0.023": 0.0,
			"0.024": 0.0,
			"0.025": 0.0
		}
	}
}
