{
	 "smiles": "CN1CCN(CC1)C1=NC2=CC(Cl)=CC=C2NC2=CC=CC=C12", 
	 "Tm": 457.15, 
	 "num_atms": 42, 
	 "gaussian": { 
		 "optdone": 1, 
		 "sigma_profile": "yes", 
		 "theory": "DFT", 
		 "functional": "B3LYP", 
		 "basiset": "6-31G**", 
		 "properties": { 
			 "R2extent": 9679.3384, 
			 "electric_dipole_moment_norm": 4.65996840869, 
			 "electric_quadrupole_moment_norm": 17.0525369274, 
			 "total_energy": -1376.55095702, 
			 "HOMO_LUMO_gap": 0.14837, 
			 "cosmo_polarized_energy": -13.78, 
			 "cosmo_cavitation_energy": 44.44, 
			 "cosmo_dispersion_energy": -31.68, 
			 "cosmo_repulsion_energy": 2.38, 
			 "cosmo_total_nonelectrostatic_energy": 15.13, 
			 "SMD_solvation_energy": 1.96 
		},
		"coords": [
			{
				"x": -1.4556640923,
				"y": 4.7051946216,
				"z": 0.8048244354,
				"element": "C" 
			},
			{
				"x": -1.1074821461,
				"y": 4.2652957374,
				"z": -0.5420238176,
				"element": "N" 
			},
			{
				"x": -2.0601090358,
				"y": 3.3242919472,
				"z": -1.129720423,
				"element": "C" 
			},
			{
				"x": -1.92987073,
				"y": 1.8895214838,
				"z": -0.5965274471,
				"element": "C" 
			},
			{
				"x": -0.544829298,
				"y": 1.4124459379,
				"z": -0.766479984,
				"element": "N" 
			},
			{
				"x": 0.4290805877,
				"y": 2.3047321316,
				"z": -0.1242485869,
				"element": "C" 
			},
			{
				"x": 0.2504921541,
				"y": 3.7317708931,
				"z": -0.6666639549,
				"element": "C" 
			},
			{
				"x": -0.2774830079,
				"y": 0.0442639181,
				"z": -0.7383612989,
				"element": "C" 
			},
			{
				"x": 0.7581904753,
				"y": -0.3528629163,
				"z": -0.0761311745,
				"element": "N" 
			},
			{
				"x": 1.187236137,
				"y": -1.6729258033,
				"z": 0.0285425202,
				"element": "C" 
			},
			{
				"x": 2.5705948437,
				"y": -1.8895234343,
				"z": 0.1528457564,
				"element": "C" 
			},
			{
				"x": 3.0722750124,
				"y": -3.1625885648,
				"z": 0.3960373145,
				"element": "C" 
			},
			{
				"x": 4.8136154639,
				"y": -3.3910304832,
				"z": 0.5419208303,
				"element": "Cl" 
			},
			{
				"x": 2.2227914054,
				"y": -4.2562940141,
				"z": 0.5460202427,
				"element": "C" 
			},
			{
				"x": 0.8493240904,
				"y": -4.0513829409,
				"z": 0.4162249822,
				"element": "C" 
			},
			{
				"x": 0.3208635959,
				"y": -2.7842614306,
				"z": 0.1596705179,
				"element": "C" 
			},
			{
				"x": -1.0888189337,
				"y": -2.5936565475,
				"z": 0.067011729,
				"element": "N" 
			},
			{
				"x": -1.5753373959,
				"y": -2.0814758627,
				"z": -1.1600266396,
				"element": "C" 
			},
			{
				"x": -2.4714052953,
				"y": -2.8209734739,
				"z": -1.942919141,
				"element": "C" 
			},
			{
				"x": -2.9314511639,
				"y": -2.3225170726,
				"z": -3.1599236072,
				"element": "C" 
			},
			{
				"x": -2.4748070469,
				"y": -1.0889261005,
				"z": -3.6278969326,
				"element": "C" 
			},
			{
				"x": -1.5988858836,
				"y": -0.3424819574,
				"z": -2.8428784186,
				"element": "C" 
			},
			{
				"x": -1.162113221,
				"y": -0.8058275601,
				"z": -1.5923483256,
				"element": "C" 
			},
			{
				"x": -2.4488522863,
				"y": 5.1666215899,
				"z": 0.7860970937,
				"element": "H" 
			},
			{
				"x": -0.7399392645,
				"y": 5.4685647912,
				"z": 1.1277405637,
				"element": "H" 
			},
			{
				"x": -1.4691960528,
				"y": 3.9152810729,
				"z": 1.5761385326,
				"element": "H" 
			},
			{
				"x": -1.8948471522,
				"y": 3.3071053632,
				"z": -2.2157478024,
				"element": "H" 
			},
			{
				"x": -3.0787234542,
				"y": 3.6887732498,
				"z": -0.9561982771,
				"element": "H" 
			},
			{
				"x": -2.6164956006,
				"y": 1.2294963747,
				"z": -1.1267829412,
				"element": "H" 
			},
			{
				"x": -2.2017018277,
				"y": 1.8552631857,
				"z": 0.4715351616,
				"element": "H" 
			},
			{
				"x": 1.4309875608,
				"y": 1.9330762456,
				"z": -0.3420313575,
				"element": "H" 
			},
			{
				"x": 0.3153889351,
				"y": 2.2752245453,
				"z": 0.9706958343,
				"element": "H" 
			},
			{
				"x": 0.5146110776,
				"y": 3.7302803759,
				"z": -1.732737071,
				"element": "H" 
			},
			{
				"x": 0.9468137589,
				"y": 4.4064309643,
				"z": -0.15657318,
				"element": "H" 
			},
			{
				"x": 3.232167915,
				"y": -1.03495352,
				"z": 0.0758998912,
				"element": "H" 
			},
			{
				"x": 2.6213774996,
				"y": -5.2429338227,
				"z": 0.7514380833,
				"element": "H" 
			},
			{
				"x": 0.1734774887,
				"y": -4.8980141228,
				"z": 0.5136782667,
				"element": "H" 
			},
			{
				"x": -1.5881203301,
				"y": -3.4315965925,
				"z": 0.3422471761,
				"element": "H" 
			},
			{
				"x": -2.7960283804,
				"y": -3.7989761681,
				"z": -1.5960168057,
				"element": "H" 
			},
			{
				"x": -3.6277162726,
				"y": -2.9098686273,
				"z": -3.7515643356,
				"element": "H" 
			},
			{
				"x": -2.8034516657,
				"y": -0.708783571,
				"z": -4.5899763952,
				"element": "H" 
			},
			{
				"x": -1.246058464,
				"y": 0.6253201571,
				"z": -3.1845910147,
				"element": "H" 
			}
		],
		 "valence_orbital": [ 
			{
				"type": "occ",
				"energy": -0.24898,
				"method": "rhf"
			},
			{
				"type": "occ",
				"energy": -0.24324,
				"method": "rhf"
			},
			{
				"type": "occ",
				"energy": -0.22401,
				"method": "rhf"
			},
			{
				"type": "occ",
				"energy": -0.20469,
				"method": "rhf"
			},
			{
				"type": "occ",
				"energy": -0.19225,
				"method": "rhf"
			},
			{
				"type": "unocc",
				"energy": -0.04388,
				"method": "rhf"
			},
			{
				"type": "unocc",
				"energy": -0.01055,
				"method": "rhf"
			},
			{
				"type": "unocc",
				"energy": -0.00061,
				"method": "rhf"
			},
			{
				"type": "unocc",
				"energy": 0.00753,
				"method": "rhf"
			},
			{
				"type": "unocc",
				"energy": 0.03999,
				"method": "rhf"
			}
		],
		"cosmo_sigma_profile": { 
			"-0.025": 0.0,
			"-0.024": 0.0,
			"-0.023": 0.0,
			"-0.022": 0.0,
			"-0.021": 0.0,
			"-0.02": 0.0,
			"-0.019": 0.0,
			"-0.018": 0.0,
			"-0.017": 0.0,
			"-0.016": 0.0,
			"-0.015": 0.0,
			"-0.014": 0.0786231100662,
			"-0.013": 1.42367683285,
			"-0.012": 1.64401402183,
			"-0.011": 2.00840717283,
			"-0.01": 1.68098825685,
			"-0.009": 1.7058250921,
			"-0.008": 1.89265585779,
			"-0.007": 4.5231389914,
			"-0.006": 10.1197157673,
			"-0.005": 13.8397473082,
			"-0.004": 29.7236747981,
			"-0.003": 40.5727214452,
			"-0.002": 36.9360681165,
			"-0.001": 27.6311307521,
			"0.0": 26.6637504628,
			"0.001": 20.2305050822,
			"0.002": 25.9208284565,
			"0.003": 28.3434627679,
			"0.004": 31.9123404337,
			"0.005": 24.0710779422,
			"0.006": 5.59461905873,
			"0.007": 3.72489785214,
			"0.008": 2.75466081247,
			"0.009": 2.73568635216,
			"0.01": 2.05764090547,
			"0.011": 2.01455349013,
			"0.012": 1.83722476272,
			"0.013": 1.13279504336,
			"0.014": 0.00934935235321,
			"0.015": 0.33173895785,
			"0.016": 0.904525346074,
			"0.017": 0.0248741040764,
			"0.018": 0.0,
			"0.019": 0.0,
			"0.02": 0.0,
			"0.021": 0.0,
			"0.022": 0.0,
			"0.023": 0.0,
			"0.024": 0.0,
			"0.025": 0.0
		}
	}
}
