{
	 "smiles": "NC1=CC=C(C=C1)C1=NNC(=O)CC1", 
	 "Tm": 516.15, 
	 "num_atms": 25, 
	 "gaussian": { 
		 "optdone": 1, 
		 "sigma_profile": "yes", 
		 "theory": "DFT", 
		 "functional": "B3LYP", 
		 "basiset": "6-31G**", 
		 "properties": { 
			 "R2extent": 3755.7036, 
			 "electric_dipole_moment_norm": 5.50527310948, 
			 "electric_quadrupole_moment_norm": 12.2403531922, 
			 "total_energy": -627.165125103, 
			 "HOMO_LUMO_gap": 0.15718, 
			 "cosmo_polarized_energy": -17.31, 
			 "cosmo_cavitation_energy": 28.59, 
			 "cosmo_dispersion_energy": -21.53, 
			 "cosmo_repulsion_energy": 1.7, 
			 "cosmo_total_nonelectrostatic_energy": 8.77, 
			 "SMD_solvation_energy": 4.63 
		},
		"coords": [
			{
				"x": 4.0696792845,
				"y": -1.9425014186,
				"z": 1.817848019,
				"element": "N" 
			},
			{
				"x": 2.8681071899,
				"y": -1.4626317562,
				"z": 1.3090472088,
				"element": "C" 
			},
			{
				"x": 2.1806345186,
				"y": -0.4136725804,
				"z": 1.952367341,
				"element": "C" 
			},
			{
				"x": 1.0133842192,
				"y": 0.1033861757,
				"z": 1.4161156464,
				"element": "C" 
			},
			{
				"x": 0.4717847423,
				"y": -0.3925343672,
				"z": 0.2126695473,
				"element": "C" 
			},
			{
				"x": 1.1646696399,
				"y": -1.4369192299,
				"z": -0.4227054953,
				"element": "C" 
			},
			{
				"x": 2.3349946662,
				"y": -1.9662675396,
				"z": 0.1113047667,
				"element": "C" 
			},
			{
				"x": -0.7860381108,
				"y": 0.1584245013,
				"z": -0.3275589713,
				"element": "C" 
			},
			{
				"x": -1.4705946538,
				"y": 0.949532499,
				"z": 0.4342403246,
				"element": "N" 
			},
			{
				"x": -2.6547232274,
				"y": 1.4537904309,
				"z": -0.06627329,
				"element": "N" 
			},
			{
				"x": -3.0186859747,
				"y": 1.5902366318,
				"z": -1.3899789757,
				"element": "C" 
			},
			{
				"x": -4.0312922395,
				"y": 2.1890341064,
				"z": -1.7184133949,
				"element": "O" 
			},
			{
				"x": -2.0238646941,
				"y": 0.9679108282,
				"z": -2.3496110959,
				"element": "C" 
			},
			{
				"x": -1.2851570309,
				"y": -0.2143770468,
				"z": -1.7101488819,
				"element": "C" 
			},
			{
				"x": 4.2210332932,
				"y": -1.7933474019,
				"z": 2.805410511,
				"element": "H" 
			},
			{
				"x": 4.336868765,
				"y": -2.8699127695,
				"z": 1.5196844009,
				"element": "H" 
			},
			{
				"x": 2.5791764967,
				"y": -0.0027701481,
				"z": 2.8769762166,
				"element": "H" 
			},
			{
				"x": 0.494470524,
				"y": 0.908779861,
				"z": 1.9238501613,
				"element": "H" 
			},
			{
				"x": 0.7840641401,
				"y": -1.8679528512,
				"z": -1.3430362671,
				"element": "H" 
			},
			{
				"x": 2.845295266,
				"y": -2.7758299158,
				"z": -0.4046233108,
				"element": "H" 
			},
			{
				"x": -3.192425302,
				"y": 1.9849443261,
				"z": 0.6054223289,
				"element": "H" 
			},
			{
				"x": -1.3091963355,
				"y": 1.7550533854,
				"z": -2.6260108117,
				"element": "H" 
			},
			{
				"x": -2.5555889989,
				"y": 0.6817896565,
				"z": -3.2593978597,
				"element": "H" 
			},
			{
				"x": -0.4668937511,
				"y": -0.5368253429,
				"z": -2.356730444,
				"element": "H" 
			},
			{
				"x": -1.9690024268,
				"y": -1.0704400343,
				"z": -1.6124476744,
				"element": "H" 
			}
		],
		 "valence_orbital": [ 
			{
				"type": "occ",
				"energy": -0.29014,
				"method": "rhf"
			},
			{
				"type": "occ",
				"energy": -0.25294,
				"method": "rhf"
			},
			{
				"type": "occ",
				"energy": -0.24559,
				"method": "rhf"
			},
			{
				"type": "occ",
				"energy": -0.23998,
				"method": "rhf"
			},
			{
				"type": "occ",
				"energy": -0.19455,
				"method": "rhf"
			},
			{
				"type": "unocc",
				"energy": -0.03737,
				"method": "rhf"
			},
			{
				"type": "unocc",
				"energy": -0.00202,
				"method": "rhf"
			},
			{
				"type": "unocc",
				"energy": 0.02669,
				"method": "rhf"
			},
			{
				"type": "unocc",
				"energy": 0.05971,
				"method": "rhf"
			},
			{
				"type": "unocc",
				"energy": 0.076,
				"method": "rhf"
			}
		],
		"cosmo_sigma_profile": { 
			"-0.025": 0.0,
			"-0.024": 0.0,
			"-0.023": 0.0,
			"-0.022": 0.0,
			"-0.021": 0.0,
			"-0.02": 0.0,
			"-0.019": 0.0,
			"-0.018": 0.0,
			"-0.017": 0.0,
			"-0.016": 0.0,
			"-0.015": 0.171058762595,
			"-0.014": 1.0106150301,
			"-0.013": 2.13087178699,
			"-0.012": 3.91417788317,
			"-0.011": 3.56808486927,
			"-0.01": 3.23455813527,
			"-0.009": 3.60568909283,
			"-0.008": 4.29751366622,
			"-0.007": 6.03077822945,
			"-0.006": 13.5190808655,
			"-0.005": 17.5787370893,
			"-0.004": 19.587696955,
			"-0.003": 16.502615288,
			"-0.002": 12.5658570065,
			"-0.001": 8.5700753258,
			"0.0": 9.45243192803,
			"0.001": 8.73221227463,
			"0.002": 9.88430518155,
			"0.003": 9.96673660393,
			"0.004": 12.3525335357,
			"0.005": 15.7334055057,
			"0.006": 12.5278438807,
			"0.007": 4.29816772144,
			"0.008": 4.28258938904,
			"0.009": 2.79822482454,
			"0.01": 3.322027032,
			"0.011": 2.97346764481,
			"0.012": 3.70447860723,
			"0.013": 6.30820881179,
			"0.014": 3.6538686437,
			"0.015": 0.333617472201,
			"0.016": 0.0,
			"0.017": 0.0,
			"0.018": 0.0,
			"0.019": 0.0,
			"0.02": 0.0,
			"0.021": 0.0,
			"0.022": 0.0,
			"0.023": 0.0,
			"0.024": 0.0,
			"0.025": 0.0
		}
	}
}
