{
	 "smiles": "O=CC1=CC=C(O1)C1=CN=CC=C1", 
	 "Tm": 378.15, 
	 "num_atms": 20, 
	 "gaussian": { 
		 "optdone": 1, 
		 "sigma_profile": "yes", 
		 "theory": "DFT", 
		 "functional": "B3LYP", 
		 "basiset": "6-31G**", 
		 "properties": { 
			 "R2extent": 3128.7456, 
			 "electric_dipole_moment_norm": 5.82565365603, 
			 "electric_quadrupole_moment_norm": 12.393801055, 
			 "total_energy": -590.445286337, 
			 "HOMO_LUMO_gap": 0.15418, 
			 "cosmo_polarized_energy": -14.17, 
			 "cosmo_cavitation_energy": 25.78, 
			 "cosmo_dispersion_energy": -18.72, 
			 "cosmo_repulsion_energy": 1.46, 
			 "cosmo_total_nonelectrostatic_energy": 8.51, 
			 "SMD_solvation_energy": 4.64 
		},
		"coords": [
			{
				"x": -2.8891416916,
				"y": -3.2997982217,
				"z": -1.7224943783,
				"element": "O" 
			},
			{
				"x": -3.5319496546,
				"y": -2.6285258156,
				"z": -0.9354268682,
				"element": "C" 
			},
			{
				"x": -3.0408310603,
				"y": -1.4490389505,
				"z": -0.2405891415,
				"element": "C" 
			},
			{
				"x": -3.651997182,
				"y": -0.6090525485,
				"z": 0.6624687079,
				"element": "C" 
			},
			{
				"x": -2.6963857959,
				"y": 0.3762781077,
				"z": 1.0112114299,
				"element": "C" 
			},
			{
				"x": -1.5517734966,
				"y": 0.0800756076,
				"z": 0.297922865,
				"element": "C" 
			},
			{
				"x": -1.7589937534,
				"y": -1.0273953667,
				"z": -0.4622943193,
				"element": "O" 
			},
			{
				"x": -0.2402566149,
				"y": 0.706800822,
				"z": 0.2206119038,
				"element": "C" 
			},
			{
				"x": 0.7699159635,
				"y": 0.1832091651,
				"z": -0.6097783619,
				"element": "C" 
			},
			{
				"x": 1.9893209466,
				"y": 0.7139537041,
				"z": -0.7214686137,
				"element": "N" 
			},
			{
				"x": 2.2603076982,
				"y": 1.8077732032,
				"z": 0.0012402314,
				"element": "C" 
			},
			{
				"x": 1.3357939666,
				"y": 2.4119737946,
				"z": 0.8569471382,
				"element": "C" 
			},
			{
				"x": 0.0682896296,
				"y": 1.8543791047,
				"z": 0.9684986437,
				"element": "C" 
			},
			{
				"x": -4.5846973982,
				"y": -2.8729120686,
				"z": -0.6749256161,
				"element": "H" 
			},
			{
				"x": -4.6664295597,
				"y": -0.6975224222,
				"z": 1.02570857,
				"element": "H" 
			},
			{
				"x": -2.8314323386,
				"y": 1.1984674803,
				"z": 1.69834569,
				"element": "H" 
			},
			{
				"x": 0.5701512658,
				"y": -0.7041549904,
				"z": -1.2046478819,
				"element": "H" 
			},
			{
				"x": 3.2613297898,
				"y": 2.2204834044,
				"z": -0.1080319611,
				"element": "H" 
			},
			{
				"x": 1.6070141652,
				"y": 3.2987158157,
				"z": 1.4209080835,
				"element": "H" 
			},
			{
				"x": -0.6724348796,
				"y": 2.3007901748,
				"z": 1.6251938786,
				"element": "H" 
			}
		],
		 "valence_orbital": [ 
			{
				"type": "occ",
				"energy": -0.3028,
				"method": "rhf"
			},
			{
				"type": "occ",
				"energy": -0.28714,
				"method": "rhf"
			},
			{
				"type": "occ",
				"energy": -0.26206,
				"method": "rhf"
			},
			{
				"type": "occ",
				"energy": -0.25734,
				"method": "rhf"
			},
			{
				"type": "occ",
				"energy": -0.23142,
				"method": "rhf"
			},
			{
				"type": "unocc",
				"energy": -0.07724,
				"method": "rhf"
			},
			{
				"type": "unocc",
				"energy": -0.03607,
				"method": "rhf"
			},
			{
				"type": "unocc",
				"energy": -0.0224,
				"method": "rhf"
			},
			{
				"type": "unocc",
				"energy": 0.05014,
				"method": "rhf"
			},
			{
				"type": "unocc",
				"energy": 0.07694,
				"method": "rhf"
			}
		],
		"cosmo_sigma_profile": { 
			"-0.025": 0.0,
			"-0.024": 0.0,
			"-0.023": 0.0,
			"-0.022": 0.0,
			"-0.021": 0.0,
			"-0.02": 0.0,
			"-0.019": 0.0,
			"-0.018": 0.0,
			"-0.017": 0.0,
			"-0.016": 0.0,
			"-0.015": 0.0,
			"-0.014": 0.0,
			"-0.013": 0.0,
			"-0.012": 0.0,
			"-0.011": 0.0,
			"-0.01": 0.27321965508,
			"-0.009": 4.49534733411,
			"-0.008": 8.36677071129,
			"-0.007": 11.0894237939,
			"-0.006": 14.2819884636,
			"-0.005": 11.6164955341,
			"-0.004": 10.6792603552,
			"-0.003": 10.9680995519,
			"-0.002": 11.229257996,
			"-0.001": 18.6001262896,
			"0.0": 20.6424540798,
			"0.001": 21.6338666787,
			"0.002": 16.9372707212,
			"0.003": 6.69988422141,
			"0.004": 4.41826757338,
			"0.005": 3.9469787173,
			"0.006": 2.15963394476,
			"0.007": 4.06551727662,
			"0.008": 3.21406604916,
			"0.009": 3.53751808678,
			"0.01": 3.38570385018,
			"0.011": 5.18351703434,
			"0.012": 5.53487452576,
			"0.013": 3.28261464694,
			"0.014": 0.627708388475,
			"0.015": 0.769016366279,
			"0.016": 0.882954027075,
			"0.017": 0.0543465070201,
			"0.018": 0.0,
			"0.019": 0.0,
			"0.02": 0.0,
			"0.021": 0.0,
			"0.022": 0.0,
			"0.023": 0.0,
			"0.024": 0.0,
			"0.025": 0.0
		}
	}
}
