{
	 "smiles": "CC(N)C(=O)NC(C)C(O)=O", 
	 "Tm": 560.15, 
	 "num_atms": 23, 
	 "gaussian": { 
		 "optdone": 1, 
		 "sigma_profile": "yes", 
		 "theory": "DFT", 
		 "functional": "B3LYP", 
		 "basiset": "6-31G**", 
		 "properties": { 
			 "R2extent": 3043.0491, 
			 "electric_dipole_moment_norm": 3.33750185918, 
			 "electric_quadrupole_moment_norm": 14.84597763, 
			 "total_energy": -571.078871214, 
			 "HOMO_LUMO_gap": 0.22936, 
			 "cosmo_polarized_energy": -17.7, 
			 "cosmo_cavitation_energy": 26.94, 
			 "cosmo_dispersion_energy": -18.75, 
			 "cosmo_repulsion_energy": 1.56, 
			 "cosmo_total_nonelectrostatic_energy": 9.75, 
			 "SMD_solvation_energy": 5.07 
		},
		"coords": [
			{
				"x": -0.3680032832,
				"y": 1.69402164,
				"z": -1.1451923784,
				"element": "C" 
			},
			{
				"x": 0.2060818485,
				"y": 0.5373976703,
				"z": -1.9796838225,
				"element": "C" 
			},
			{
				"x": -0.2373635458,
				"y": 0.6680739469,
				"z": -3.3655440112,
				"element": "N" 
			},
			{
				"x": -0.2333204895,
				"y": -0.8018058512,
				"z": -1.3536620198,
				"element": "C" 
			},
			{
				"x": -1.2853127391,
				"y": -1.3469463212,
				"z": -1.6791299196,
				"element": "O" 
			},
			{
				"x": 0.5941723926,
				"y": -1.3201902853,
				"z": -0.4010038257,
				"element": "N" 
			},
			{
				"x": 0.277741099,
				"y": -2.5688969591,
				"z": 0.2762247591,
				"element": "C" 
			},
			{
				"x": -0.6768360502,
				"y": -2.3775412248,
				"z": 1.4699441226,
				"element": "C" 
			},
			{
				"x": 1.5255527324,
				"y": -3.315964947,
				"z": 0.7260645029,
				"element": "C" 
			},
			{
				"x": 2.6773887689,
				"y": -2.6343590669,
				"z": 0.499304658,
				"element": "O" 
			},
			{
				"x": 1.5053291303,
				"y": -4.4018726995,
				"z": 1.2572012764,
				"element": "O" 
			},
			{
				"x": -1.4617421283,
				"y": 1.6407718695,
				"z": -1.1353774046,
				"element": "H" 
			},
			{
				"x": -0.0174627367,
				"y": 1.6561939131,
				"z": -0.1088011546,
				"element": "H" 
			},
			{
				"x": -0.0729553779,
				"y": 2.6474965176,
				"z": -1.5896773918,
				"element": "H" 
			},
			{
				"x": 1.3024835751,
				"y": 0.6012365658,
				"z": -1.9649185685,
				"element": "H" 
			},
			{
				"x": 0.2451098727,
				"y": -0.0222288864,
				"z": -3.9383218269,
				"element": "H" 
			},
			{
				"x": -1.2183262492,
				"y": 0.3882946392,
				"z": -3.3919963305,
				"element": "H" 
			},
			{
				"x": 1.4779790997,
				"y": -0.8764756892,
				"z": -0.2009728829,
				"element": "H" 
			},
			{
				"x": -0.2262167713,
				"y": -3.2121780939,
				"z": -0.4542906602,
				"element": "H" 
			},
			{
				"x": -1.6081985166,
				"y": -1.938043651,
				"z": 1.1075600486,
				"element": "H" 
			},
			{
				"x": -0.8904053568,
				"y": -3.3415118945,
				"z": 1.9371884436,
				"element": "H" 
			},
			{
				"x": -0.2371740351,
				"y": -1.7107386658,
				"z": 2.2183410643,
				"element": "H" 
			},
			{
				"x": 3.3952787605,
				"y": -3.1955325267,
				"z": 0.8383433218,
				"element": "H" 
			}
		],
		 "valence_orbital": [ 
			{
				"type": "occ",
				"energy": -0.33395,
				"method": "rhf"
			},
			{
				"type": "occ",
				"energy": -0.29511,
				"method": "rhf"
			},
			{
				"type": "occ",
				"energy": -0.26375,
				"method": "rhf"
			},
			{
				"type": "occ",
				"energy": -0.25752,
				"method": "rhf"
			},
			{
				"type": "occ",
				"energy": -0.23623,
				"method": "rhf"
			},
			{
				"type": "unocc",
				"energy": -0.00687,
				"method": "rhf"
			},
			{
				"type": "unocc",
				"energy": 0.02229,
				"method": "rhf"
			},
			{
				"type": "unocc",
				"energy": 0.05567,
				"method": "rhf"
			},
			{
				"type": "unocc",
				"energy": 0.0808,
				"method": "rhf"
			},
			{
				"type": "unocc",
				"energy": 0.10448,
				"method": "rhf"
			}
		],
		"cosmo_sigma_profile": { 
			"-0.025": 0.0,
			"-0.024": 0.0,
			"-0.023": 0.0,
			"-0.022": 0.0,
			"-0.021": 0.0,
			"-0.02": 0.0,
			"-0.019": 0.290841195166,
			"-0.018": 1.09961376975,
			"-0.017": 0.801330049782,
			"-0.016": 0.672891491824,
			"-0.015": 1.10382194883,
			"-0.014": 0.25036782777,
			"-0.013": 1.2925392196,
			"-0.012": 1.69838508895,
			"-0.011": 2.06905602266,
			"-0.01": 3.19550091762,
			"-0.009": 3.04253547034,
			"-0.008": 3.89440165886,
			"-0.007": 5.97807920033,
			"-0.006": 8.33757427969,
			"-0.005": 11.3806708993,
			"-0.004": 14.5491688227,
			"-0.003": 17.3618361218,
			"-0.002": 15.9248253861,
			"-0.001": 19.181890187,
			"0.0": 20.6094269449,
			"0.001": 11.8414526233,
			"0.002": 6.91843073474,
			"0.003": 5.61419560252,
			"0.004": 6.08938064658,
			"0.005": 5.72695088446,
			"0.006": 4.4599463588,
			"0.007": 2.97610563955,
			"0.008": 3.80215703328,
			"0.009": 2.83014262473,
			"0.01": 4.78895839973,
			"0.011": 6.49316607001,
			"0.012": 4.77799186207,
			"0.013": 4.41378546051,
			"0.014": 3.25819735623,
			"0.015": 0.584838081884,
			"0.016": 0.714259471022,
			"0.017": 0.74293114458,
			"0.018": 0.477215736651,
			"0.019": 0.409710861169,
			"0.02": 0.0532865292226,
			"0.021": 0.0,
			"0.022": 0.0,
			"0.023": 0.0,
			"0.024": 0.0,
			"0.025": 0.0
		}
	}
}
