{
	 "smiles": "ClC1=C2C=CC=CC2=NC(=N1)C1=CC=CS1", 
	 "Tm": 397.15, 
	 "num_atms": 23, 
	 "gaussian": { 
		 "optdone": 1, 
		 "sigma_profile": "yes", 
		 "theory": "DFT", 
		 "functional": "B3LYP", 
		 "basiset": "6-31G**", 
		 "properties": { 
			 "R2extent": 6244.8862, 
			 "electric_dipole_moment_norm": 1.55409167362, 
			 "electric_quadrupole_moment_norm": 20.9639498134, 
			 "total_energy": -1429.38209178, 
			 "HOMO_LUMO_gap": 0.14612, 
			 "cosmo_polarized_energy": -7.96, 
			 "cosmo_cavitation_energy": 31.18, 
			 "cosmo_dispersion_energy": -23.83, 
			 "cosmo_repulsion_energy": 1.78, 
			 "cosmo_total_nonelectrostatic_energy": 9.13, 
			 "SMD_solvation_energy": 2.4 
		},
		"coords": [
			{
				"x": 2.2818323314,
				"y": 1.3207897799,
				"z": 4.2363046287,
				"element": "Cl" 
			},
			{
				"x": 1.1651613059,
				"y": 0.5103272332,
				"z": 3.1352623981,
				"element": "C" 
			},
			{
				"x": -0.0673853271,
				"y": 0.0037099447,
				"z": 3.6445052452,
				"element": "C" 
			},
			{
				"x": -0.5131954289,
				"y": 0.0805685994,
				"z": 4.9843547326,
				"element": "C" 
			},
			{
				"x": -1.7342379433,
				"y": -0.4564702334,
				"z": 5.3328291867,
				"element": "C" 
			},
			{
				"x": -2.5460414194,
				"y": -1.0852163332,
				"z": 4.3575599593,
				"element": "C" 
			},
			{
				"x": -2.1343862305,
				"y": -1.1729279278,
				"z": 3.0459800892,
				"element": "C" 
			},
			{
				"x": -0.8833262286,
				"y": -0.6304816965,
				"z": 2.6540917669,
				"element": "C" 
			},
			{
				"x": -0.4943736883,
				"y": -0.7268553641,
				"z": 1.3544865026,
				"element": "N" 
			},
			{
				"x": 0.6768488138,
				"y": -0.2092893035,
				"z": 1.0305588907,
				"element": "C" 
			},
			{
				"x": 1.538175941,
				"y": 0.4199820243,
				"z": 1.8979294313,
				"element": "N" 
			},
			{
				"x": 1.1230975957,
				"y": -0.2956712758,
				"z": -0.3531011291,
				"element": "C" 
			},
			{
				"x": 2.2992731204,
				"y": 0.1754363903,
				"z": -0.8951976017,
				"element": "C" 
			},
			{
				"x": 2.4085960138,
				"y": -0.082968957,
				"z": -2.288014613,
				"element": "C" 
			},
			{
				"x": 1.3155821704,
				"y": -0.7462730282,
				"z": -2.7858391069,
				"element": "C" 
			},
			{
				"x": 0.1317563351,
				"y": -1.0685350923,
				"z": -1.5657073086,
				"element": "S" 
			},
			{
				"x": 0.1141480096,
				"y": 0.5634700409,
				"z": 5.7249325173,
				"element": "H" 
			},
			{
				"x": -2.0779222739,
				"y": -0.3983204893,
				"z": 6.3608518229,
				"element": "H" 
			},
			{
				"x": -3.5048277578,
				"y": -1.5023382296,
				"z": 4.6515896273,
				"element": "H" 
			},
			{
				"x": -2.7392807598,
				"y": -1.6497168729,
				"z": 2.2823222893,
				"element": "H" 
			},
			{
				"x": 3.0433649092,
				"y": 0.6854846261,
				"z": -0.2963445853,
				"element": "H" 
			},
			{
				"x": 3.2587348875,
				"y": 0.2094551819,
				"z": -2.8934909423,
				"element": "H" 
			},
			{
				"x": 1.1387056238,
				"y": -1.0647590173,
				"z": -3.8043638011,
				"element": "H" 
			}
		],
		 "valence_orbital": [ 
			{
				"type": "occ",
				"energy": -0.28469,
				"method": "rhf"
			},
			{
				"type": "occ",
				"energy": -0.26299,
				"method": "rhf"
			},
			{
				"type": "occ",
				"energy": -0.26106,
				"method": "rhf"
			},
			{
				"type": "occ",
				"energy": -0.25352,
				"method": "rhf"
			},
			{
				"type": "occ",
				"energy": -0.22269,
				"method": "rhf"
			},
			{
				"type": "unocc",
				"energy": -0.07657,
				"method": "rhf"
			},
			{
				"type": "unocc",
				"energy": -0.05557,
				"method": "rhf"
			},
			{
				"type": "unocc",
				"energy": -0.00344,
				"method": "rhf"
			},
			{
				"type": "unocc",
				"energy": 0.01518,
				"method": "rhf"
			},
			{
				"type": "unocc",
				"energy": 0.02467,
				"method": "rhf"
			}
		],
		"cosmo_sigma_profile": { 
			"-0.025": 0.0,
			"-0.024": 0.0,
			"-0.023": 0.0,
			"-0.022": 0.0,
			"-0.021": 0.0,
			"-0.02": 0.0,
			"-0.019": 0.0,
			"-0.018": 0.0,
			"-0.017": 0.0,
			"-0.016": 0.0,
			"-0.015": 0.0,
			"-0.014": 0.0,
			"-0.013": 0.0,
			"-0.012": 0.0,
			"-0.011": 0.0,
			"-0.01": 0.0,
			"-0.009": 1.32208610022,
			"-0.008": 2.3453353431,
			"-0.007": 10.0874121424,
			"-0.006": 13.735231639,
			"-0.005": 14.2337875526,
			"-0.004": 13.7228773499,
			"-0.003": 15.385937979,
			"-0.002": 18.3081870831,
			"-0.001": 19.5820612323,
			"0.0": 19.3574929609,
			"0.001": 25.1723430021,
			"0.002": 28.9384575249,
			"0.003": 32.4602048874,
			"0.004": 20.9262912793,
			"0.005": 6.88050131407,
			"0.006": 4.02503171495,
			"0.007": 2.66865371657,
			"0.008": 2.752109996,
			"0.009": 3.17481850367,
			"0.01": 1.60731918585,
			"0.011": 0.498576436664,
			"0.012": 0.0,
			"0.013": 0.0,
			"0.014": 0.0,
			"0.015": 0.0,
			"0.016": 0.0,
			"0.017": 0.0,
			"0.018": 0.0,
			"0.019": 0.0,
			"0.02": 0.0,
			"0.021": 0.0,
			"0.022": 0.0,
			"0.023": 0.0,
			"0.024": 0.0,
			"0.025": 0.0
		}
	}
}
