{
	 "smiles": "CSC1=NC(N)=C(S1)C(=O)C1=CC=C(Cl)C=C1", 
	 "Tm": 422.15, 
	 "num_atms": 26, 
	 "gaussian": { 
		 "optdone": 1, 
		 "sigma_profile": "yes", 
		 "theory": "DFT", 
		 "functional": "B3LYP", 
		 "basiset": "6-31G**", 
		 "properties": { 
			 "R2extent": 8110.5024, 
			 "electric_dipole_moment_norm": 4.93715450639, 
			 "electric_quadrupole_moment_norm": 10.1240434462, 
			 "total_energy": -1865.88930383, 
			 "HOMO_LUMO_gap": 0.1436, 
			 "cosmo_polarized_energy": -15.01, 
			 "cosmo_cavitation_energy": 35.81, 
			 "cosmo_dispersion_energy": -26.97, 
			 "cosmo_repulsion_energy": 2.02, 
			 "cosmo_total_nonelectrostatic_energy": 10.86, 
			 "SMD_solvation_energy": 4.82 
		},
		"coords": [
			{
				"x": 0.9500728651,
				"y": -4.728673157,
				"z": -2.7025747199,
				"element": "C" 
			},
			{
				"x": 0.6549329647,
				"y": -4.7267161423,
				"z": -0.9007668949,
				"element": "S" 
			},
			{
				"x": 0.2897504084,
				"y": -3.0267799575,
				"z": -0.646506218,
				"element": "C" 
			},
			{
				"x": 0.2839299573,
				"y": -2.1327818504,
				"z": -1.6032863586,
				"element": "N" 
			},
			{
				"x": -0.0501456948,
				"y": -0.8920651269,
				"z": -1.1112982329,
				"element": "C" 
			},
			{
				"x": -0.0798456876,
				"y": 0.1224760614,
				"z": -2.0325714401,
				"element": "N" 
			},
			{
				"x": -0.3249901466,
				"y": -0.8336634951,
				"z": 0.2570335742,
				"element": "C" 
			},
			{
				"x": -0.0883337607,
				"y": -2.4433031029,
				"z": 0.9528252829,
				"element": "S" 
			},
			{
				"x": -0.5926928593,
				"y": 0.2341322742,
				"z": 1.2073201261,
				"element": "C" 
			},
			{
				"x": -0.4569991501,
				"y": 0.0365687562,
				"z": 2.418315041,
				"element": "O" 
			},
			{
				"x": -1.0493427694,
				"y": 1.5911409057,
				"z": 0.7436975507,
				"element": "C" 
			},
			{
				"x": -0.6112733499,
				"y": 2.7126853539,
				"z": 1.4642135024,
				"element": "C" 
			},
			{
				"x": -1.0540672611,
				"y": 3.9900215803,
				"z": 1.1354823341,
				"element": "C" 
			},
			{
				"x": -1.9716318153,
				"y": 4.1423235262,
				"z": 0.0932007742,
				"element": "C" 
			},
			{
				"x": -2.5420753884,
				"y": 5.7494718701,
				"z": -0.3242039774,
				"element": "Cl" 
			},
			{
				"x": -2.4490082708,
				"y": 3.0412857004,
				"z": -0.6167057167,
				"element": "C" 
			},
			{
				"x": -1.9813049982,
				"y": 1.7677772535,
				"z": -0.2889583076,
				"element": "C" 
			},
			{
				"x": 1.7916764302,
				"y": -4.0819724456,
				"z": -2.9508719255,
				"element": "H" 
			},
			{
				"x": 0.0582312075,
				"y": -4.3960357095,
				"z": -3.2337363729,
				"element": "H" 
			},
			{
				"x": 1.1802678365,
				"y": -5.7639521678,
				"z": -2.9614180223,
				"element": "H" 
			},
			{
				"x": 0.4131124203,
				"y": -0.0799511757,
				"z": -2.8899358914,
				"element": "H" 
			},
			{
				"x": -0.028555052,
				"y": 1.0734153019,
				"z": -1.7017763142,
				"element": "H" 
			},
			{
				"x": 0.0743302965,
				"y": 2.5643881831,
				"z": 2.2918101462,
				"element": "H" 
			},
			{
				"x": -0.7043156593,
				"y": 4.8587407038,
				"z": 1.6821504413,
				"element": "H" 
			},
			{
				"x": -3.1803536864,
				"y": 3.1776264254,
				"z": -1.4055847068,
				"element": "H" 
			},
			{
				"x": -2.3597688366,
				"y": 0.9074404347,
				"z": -0.8313536742,
				"element": "H" 
			}
		],
		 "valence_orbital": [ 
			{
				"type": "occ",
				"energy": -0.27492,
				"method": "rhf"
			},
			{
				"type": "occ",
				"energy": -0.26127,
				"method": "rhf"
			},
			{
				"type": "occ",
				"energy": -0.25973,
				"method": "rhf"
			},
			{
				"type": "occ",
				"energy": -0.24396,
				"method": "rhf"
			},
			{
				"type": "occ",
				"energy": -0.2116,
				"method": "rhf"
			},
			{
				"type": "unocc",
				"energy": -0.068,
				"method": "rhf"
			},
			{
				"type": "unocc",
				"energy": -0.02705,
				"method": "rhf"
			},
			{
				"type": "unocc",
				"energy": -0.0242,
				"method": "rhf"
			},
			{
				"type": "unocc",
				"energy": -0.00101,
				"method": "rhf"
			},
			{
				"type": "unocc",
				"energy": 0.01977,
				"method": "rhf"
			}
		],
		"cosmo_sigma_profile": { 
			"-0.025": 0.0,
			"-0.024": 0.0,
			"-0.023": 0.0,
			"-0.022": 0.0,
			"-0.021": 0.0,
			"-0.02": 0.0,
			"-0.019": 0.0,
			"-0.018": 0.0,
			"-0.017": 0.0,
			"-0.016": 0.0,
			"-0.015": 0.0237300760034,
			"-0.014": 0.747016198245,
			"-0.013": 1.48855341631,
			"-0.012": 2.03991491707,
			"-0.011": 1.85204595001,
			"-0.01": 2.64662445658,
			"-0.009": 2.46721440794,
			"-0.008": 5.04956957788,
			"-0.007": 9.3076232084,
			"-0.006": 13.9548738419,
			"-0.005": 13.7567443383,
			"-0.004": 14.5717368797,
			"-0.003": 18.5022673672,
			"-0.002": 19.4156720529,
			"-0.001": 19.9448005971,
			"0.0": 26.2028480327,
			"0.001": 29.0591286851,
			"0.002": 28.8963389773,
			"0.003": 23.2840192353,
			"0.004": 21.0340074049,
			"0.005": 11.8852571922,
			"0.006": 5.65548006978,
			"0.007": 4.00149075028,
			"0.008": 3.04378772958,
			"0.009": 3.28878937853,
			"0.01": 1.88442467762,
			"0.011": 1.88572242259,
			"0.012": 3.82333859329,
			"0.013": 3.60108696422,
			"0.014": 0.254309289,
			"0.015": 0.0,
			"0.016": 0.0,
			"0.017": 0.0,
			"0.018": 0.0,
			"0.019": 0.0,
			"0.02": 0.0,
			"0.021": 0.0,
			"0.022": 0.0,
			"0.023": 0.0,
			"0.024": 0.0,
			"0.025": 0.0
		}
	}
}
