{
	 "smiles": "CCCCCCC#CC(O)=O", 
	 "Tm": 265.15, 
	 "num_atms": 25, 
	 "gaussian": { 
		 "optdone": 1, 
		 "sigma_profile": "yes", 
		 "theory": "DFT", 
		 "functional": "B3LYP", 
		 "basiset": "6-31G**", 
		 "properties": { 
			 "R2extent": 3815.3376, 
			 "electric_dipole_moment_norm": 5.63813100681, 
			 "electric_quadrupole_moment_norm": 24.1129390641, 
			 "total_energy": -501.796505136, 
			 "HOMO_LUMO_gap": 0.23197, 
			 "cosmo_polarized_energy": -12.73, 
			 "cosmo_cavitation_energy": 29.05, 
			 "cosmo_dispersion_energy": -20.03, 
			 "cosmo_repulsion_energy": 1.69, 
			 "cosmo_total_nonelectrostatic_energy": 10.71, 
			 "SMD_solvation_energy": 6.23 
		},
		"coords": [
			{
				"x": 1.9740045067,
				"y": 3.7343280607,
				"z": 0.4902920892,
				"element": "C" 
			},
			{
				"x": 0.7701101143,
				"y": 2.9825687619,
				"z": 1.0703772493,
				"element": "C" 
			},
			{
				"x": 0.4343665588,
				"y": 1.6665760447,
				"z": 0.3466523352,
				"element": "C" 
			},
			{
				"x": 1.5276894331,
				"y": 0.5825851481,
				"z": 0.3804984323,
				"element": "C" 
			},
			{
				"x": 1.9372978323,
				"y": 0.0898514898,
				"z": 1.7776065177,
				"element": "C" 
			},
			{
				"x": 0.8025729825,
				"y": -0.5790863934,
				"z": 2.5884980713,
				"element": "C" 
			},
			{
				"x": 0.2358596883,
				"y": -1.766695899,
				"z": 1.9538672065,
				"element": "C" 
			},
			{
				"x": -0.2282555189,
				"y": -2.7548907107,
				"z": 1.4254920049,
				"element": "C" 
			},
			{
				"x": -0.828670601,
				"y": -3.9384968262,
				"z": 0.8374973351,
				"element": "C" 
			},
			{
				"x": -0.1756169439,
				"y": -4.4179201212,
				"z": -0.2545274452,
				"element": "O" 
			},
			{
				"x": -1.8232110839,
				"y": -4.4792755711,
				"z": 1.254719155,
				"element": "O" 
			},
			{
				"x": 2.1236751071,
				"y": 4.6910395054,
				"z": 1.0010432342,
				"element": "H" 
			},
			{
				"x": 2.9027698845,
				"y": 3.1626299206,
				"z": 0.5899461039,
				"element": "H" 
			},
			{
				"x": 1.8300272294,
				"y": 3.9460358093,
				"z": -0.5756181337,
				"element": "H" 
			},
			{
				"x": 0.9397110512,
				"y": 2.7921991132,
				"z": 2.1386047908,
				"element": "H" 
			},
			{
				"x": -0.1125684857,
				"y": 3.632638054,
				"z": 1.0237673245,
				"element": "H" 
			},
			{
				"x": -0.4968420134,
				"y": 1.2597287669,
				"z": 0.7619250851,
				"element": "H" 
			},
			{
				"x": 0.2123071735,
				"y": 1.8911291492,
				"z": -0.7051478253,
				"element": "H" 
			},
			{
				"x": 1.1819333429,
				"y": -0.2769509112,
				"z": -0.2078059607,
				"element": "H" 
			},
			{
				"x": 2.4264615094,
				"y": 0.9517430742,
				"z": -0.128041307,
				"element": "H" 
			},
			{
				"x": 2.7606779415,
				"y": -0.6267576566,
				"z": 1.6767213037,
				"element": "H" 
			},
			{
				"x": 2.3248406595,
				"y": 0.9218146951,
				"z": 2.3769190894,
				"element": "H" 
			},
			{
				"x": -0.0073479913,
				"y": 0.1376477339,
				"z": 2.7744070231,
				"element": "H" 
			},
			{
				"x": 1.1818584148,
				"y": -0.8649021859,
				"z": 3.5782474424,
				"element": "H" 
			},
			{
				"x": 0.5943492083,
				"y": -3.8589390518,
				"z": -0.436141122,
				"element": "H" 
			}
		],
		 "valence_orbital": [ 
			{
				"type": "occ",
				"energy": -0.32474,
				"method": "rhf"
			},
			{
				"type": "occ",
				"energy": -0.32017,
				"method": "rhf"
			},
			{
				"type": "occ",
				"energy": -0.29924,
				"method": "rhf"
			},
			{
				"type": "occ",
				"energy": -0.28584,
				"method": "rhf"
			},
			{
				"type": "occ",
				"energy": -0.27024,
				"method": "rhf"
			},
			{
				"type": "unocc",
				"energy": -0.03827,
				"method": "rhf"
			},
			{
				"type": "unocc",
				"energy": 0.01932,
				"method": "rhf"
			},
			{
				"type": "unocc",
				"energy": 0.06058,
				"method": "rhf"
			},
			{
				"type": "unocc",
				"energy": 0.08241,
				"method": "rhf"
			},
			{
				"type": "unocc",
				"energy": 0.09552,
				"method": "rhf"
			}
		],
		"cosmo_sigma_profile": { 
			"-0.025": 0.0,
			"-0.024": 0.0,
			"-0.023": 0.0,
			"-0.022": 0.0,
			"-0.021": 0.0,
			"-0.02": 0.0,
			"-0.019": 0.228011818886,
			"-0.018": 1.12348998114,
			"-0.017": 0.907449645064,
			"-0.016": 0.45144090054,
			"-0.015": 1.10673373047,
			"-0.014": 0.661968944119,
			"-0.013": 0.27487499843,
			"-0.012": 1.47818782137,
			"-0.011": 1.04647006513,
			"-0.01": 0.428753555829,
			"-0.009": 0.81365910336,
			"-0.008": 1.02973083144,
			"-0.007": 2.29109260984,
			"-0.006": 4.30137540704,
			"-0.005": 6.31798142654,
			"-0.004": 9.46534236194,
			"-0.003": 21.7427446786,
			"-0.002": 28.4128754698,
			"-0.001": 29.4108998532,
			"0.0": 32.1074990127,
			"0.001": 27.681040012,
			"0.002": 11.5214905017,
			"0.003": 6.62106400965,
			"0.004": 4.67653035115,
			"0.005": 3.82632788478,
			"0.006": 3.18543912008,
			"0.007": 2.48211351485,
			"0.008": 3.12714688894,
			"0.009": 4.27422983719,
			"0.01": 5.92482883873,
			"0.011": 6.09024570362,
			"0.012": 3.98710137776,
			"0.013": 0.403901274071,
			"0.014": 0.0,
			"0.015": 0.0,
			"0.016": 0.0,
			"0.017": 0.0,
			"0.018": 0.0,
			"0.019": 0.0,
			"0.02": 0.0,
			"0.021": 0.0,
			"0.022": 0.0,
			"0.023": 0.0,
			"0.024": 0.0,
			"0.025": 0.0
		}
	}
}
