{
	 "smiles": "COC1=C(OC)C=C(C(O)=O)C(NC(=O)C2CC2C)=C1", 
	 "Tm": 481.15, 
	 "num_atms": 37, 
	 "gaussian": { 
		 "optdone": 1, 
		 "sigma_profile": "yes", 
		 "theory": "DFT", 
		 "functional": "B3LYP", 
		 "basiset": "6-31G**", 
		 "properties": { 
			 "R2extent": 7627.0938, 
			 "electric_dipole_moment_norm": 3.13766131537, 
			 "electric_quadrupole_moment_norm": 11.1264249878, 
			 "total_energy": -974.578397279, 
			 "HOMO_LUMO_gap": 0.18693, 
			 "cosmo_polarized_energy": -20.69, 
			 "cosmo_cavitation_energy": 40.63, 
			 "cosmo_dispersion_energy": -28.28, 
			 "cosmo_repulsion_energy": 2.24, 
			 "cosmo_total_nonelectrostatic_energy": 14.59, 
			 "SMD_solvation_energy": 9.4 
		},
		"coords": [
			{
				"x": -2.8259900941,
				"y": -2.5381910291,
				"z": 2.0713716503,
				"element": "C" 
			},
			{
				"x": -1.6258520502,
				"y": -1.7565466023,
				"z": 1.9819148839,
				"element": "O" 
			},
			{
				"x": -1.6064965853,
				"y": -0.8208725132,
				"z": 0.9782368611,
				"element": "C" 
			},
			{
				"x": -2.4755517485,
				"y": 0.2867301151,
				"z": 0.9672020375,
				"element": "C" 
			},
			{
				"x": -3.4330822203,
				"y": 0.4625553592,
				"z": 1.9418754054,
				"element": "O" 
			},
			{
				"x": -2.9124305804,
				"y": 0.8542725534,
				"z": 3.2189673289,
				"element": "C" 
			},
			{
				"x": -2.3902596475,
				"y": 1.2017499359,
				"z": -0.076418306,
				"element": "C" 
			},
			{
				"x": -1.460691694,
				"y": 1.0574604528,
				"z": -1.1166531607,
				"element": "C" 
			},
			{
				"x": -1.5577586432,
				"y": 1.9639827826,
				"z": -2.2959037516,
				"element": "C" 
			},
			{
				"x": -2.0491016293,
				"y": 3.1848209084,
				"z": -1.9633513629,
				"element": "O" 
			},
			{
				"x": -1.3092580941,
				"y": 1.6636501679,
				"z": -3.444395487,
				"element": "O" 
			},
			{
				"x": -0.541544615,
				"y": -0.0108893277,
				"z": -1.0605002303,
				"element": "C" 
			},
			{
				"x": 0.483327405,
				"y": -0.1961525109,
				"z": -2.0129410269,
				"element": "N" 
			},
			{
				"x": 1.3640862763,
				"y": 0.7833245991,
				"z": -2.4429541044,
				"element": "C" 
			},
			{
				"x": 1.286549179,
				"y": 1.947578531,
				"z": -2.0723397615,
				"element": "O" 
			},
			{
				"x": 2.4114379561,
				"y": 0.2781610361,
				"z": -3.3831395437,
				"element": "C" 
			},
			{
				"x": 3.091497979,
				"y": 1.2884534021,
				"z": -4.2869386031,
				"element": "C" 
			},
			{
				"x": 3.8848544027,
				"y": 0.6607932125,
				"z": -3.1854215983,
				"element": "C" 
			},
			{
				"x": 4.3698231156,
				"y": 1.4549408776,
				"z": -1.990925647,
				"element": "C" 
			},
			{
				"x": -0.6378521642,
				"y": -0.9381106882,
				"z": -0.0166490608,
				"element": "C" 
			},
			{
				"x": -3.7028637033,
				"y": -1.9063795313,
				"z": 2.2363845452,
				"element": "H" 
			},
			{
				"x": -2.9673613655,
				"y": -3.130511728,
				"z": 1.1589289567,
				"element": "H" 
			},
			{
				"x": -2.6855433635,
				"y": -3.2107214145,
				"z": 2.9195598364,
				"element": "H" 
			},
			{
				"x": -3.7735223069,
				"y": 0.9549264471,
				"z": 3.8826765786,
				"element": "H" 
			},
			{
				"x": -2.3943365445,
				"y": 1.8183465399,
				"z": 3.1470481341,
				"element": "H" 
			},
			{
				"x": -2.2249926849,
				"y": 0.1006991004,
				"z": 3.6170962955,
				"element": "H" 
			},
			{
				"x": -3.0833956306,
				"y": 2.0344197175,
				"z": -0.0878517655,
				"element": "H" 
			},
			{
				"x": -2.1135202227,
				"y": 3.6716435973,
				"z": -2.8015240489,
				"element": "H" 
			},
			{
				"x": 0.7240346344,
				"y": -1.1528386904,
				"z": -2.2267549984,
				"element": "H" 
			},
			{
				"x": 2.2309634317,
				"y": -0.7113082381,
				"z": -3.7964666258,
				"element": "H" 
			},
			{
				"x": 3.278181934,
				"y": 0.9977664051,
				"z": -5.3160998452,
				"element": "H" 
			},
			{
				"x": 2.765886924,
				"y": 2.31418409,
				"z": -4.1426602369,
				"element": "H" 
			},
			{
				"x": 4.5637077607,
				"y": -0.1316484111,
				"z": -3.497345963,
				"element": "H" 
			},
			{
				"x": 5.3053119682,
				"y": 1.9697764963,
				"z": -2.2375048273,
				"element": "H" 
			},
			{
				"x": 3.6323934389,
				"y": 2.2001096687,
				"z": -1.6876090757,
				"element": "H" 
			},
			{
				"x": 4.5663112982,
				"y": 0.7993361835,
				"z": -1.1348577665,
				"element": "H" 
			},
			{
				"x": 0.0632378843,
				"y": -1.7646114948,
				"z": 0.0493442836,
				"element": "H" 
			}
		],
		 "valence_orbital": [ 
			{
				"type": "occ",
				"energy": -0.27539,
				"method": "rhf"
			},
			{
				"type": "occ",
				"energy": -0.26123,
				"method": "rhf"
			},
			{
				"type": "occ",
				"energy": -0.25057,
				"method": "rhf"
			},
			{
				"type": "occ",
				"energy": -0.24353,
				"method": "rhf"
			},
			{
				"type": "occ",
				"energy": -0.22255,
				"method": "rhf"
			},
			{
				"type": "unocc",
				"energy": -0.03562,
				"method": "rhf"
			},
			{
				"type": "unocc",
				"energy": -0.0126,
				"method": "rhf"
			},
			{
				"type": "unocc",
				"energy": 0.03176,
				"method": "rhf"
			},
			{
				"type": "unocc",
				"energy": 0.05413,
				"method": "rhf"
			},
			{
				"type": "unocc",
				"energy": 0.07215,
				"method": "rhf"
			}
		],
		"cosmo_sigma_profile": { 
			"-0.025": 0.0,
			"-0.024": 0.0,
			"-0.023": 0.0,
			"-0.022": 0.0,
			"-0.021": 0.0,
			"-0.02": 0.0,
			"-0.019": 0.0379721197229,
			"-0.018": 0.626793719101,
			"-0.017": 1.02808043053,
			"-0.016": 0.665654249584,
			"-0.015": 1.98118136514,
			"-0.014": 2.06753659862,
			"-0.013": 1.2091045416,
			"-0.012": 2.67342995501,
			"-0.011": 2.6999507768,
			"-0.01": 2.22979072934,
			"-0.009": 2.13082586208,
			"-0.008": 2.3532818618,
			"-0.007": 3.9011038674,
			"-0.006": 7.27210651597,
			"-0.005": 19.2995293432,
			"-0.004": 23.6857177484,
			"-0.003": 31.7799460504,
			"-0.002": 28.2218067542,
			"-0.001": 28.296686697,
			"0.0": 25.829559294,
			"0.001": 25.6210701807,
			"0.002": 23.8708437331,
			"0.003": 12.2437133901,
			"0.004": 10.796215722,
			"0.005": 8.26070874814,
			"0.006": 7.17354190523,
			"0.007": 6.87789119473,
			"0.008": 6.7546759737,
			"0.009": 6.48465343318,
			"0.01": 6.02222088272,
			"0.011": 8.16974849343,
			"0.012": 6.82324148317,
			"0.013": 3.46364107289,
			"0.014": 0.229081324944,
			"0.015": 0.0,
			"0.016": 0.0,
			"0.017": 0.0,
			"0.018": 0.0,
			"0.019": 0.0,
			"0.02": 0.0,
			"0.021": 0.0,
			"0.022": 0.0,
			"0.023": 0.0,
			"0.024": 0.0,
			"0.025": 0.0
		}
	}
}
