{
	 "smiles": "OC(=O)C(Cl)(Cl)Cl", 
	 "Tm": 329.95, 
	 "num_atms": 8, 
	 "gaussian": { 
		 "optdone": 1, 
		 "sigma_profile": "yes", 
		 "theory": "DFT", 
		 "functional": "B3LYP", 
		 "basiset": "6-31G**", 
		 "properties": { 
			 "R2extent": 2446.304, 
			 "electric_dipole_moment_norm": 1.95784235831, 
			 "electric_quadrupole_moment_norm": 5.64522050676, 
			 "total_energy": -1607.81978749, 
			 "HOMO_LUMO_gap": 0.24782, 
			 "cosmo_polarized_energy": -8.06, 
			 "cosmo_cavitation_energy": 18.17, 
			 "cosmo_dispersion_energy": -13.76, 
			 "cosmo_repulsion_energy": 1.18, 
			 "cosmo_total_nonelectrostatic_energy": 5.59, 
			 "SMD_solvation_energy": 3.66 
		},
		"coords": [
			{
				"x": -1.1937724521,
				"y": 0.4024476751,
				"z": 1.2903089853,
				"element": "O" 
			},
			{
				"x": -0.2991561137,
				"y": 1.0655173786,
				"z": 0.5478068818,
				"element": "C" 
			},
			{
				"x": -0.362948989,
				"y": 1.2289953662,
				"z": -0.6411236764,
				"element": "O" 
			},
			{
				"x": 0.8554047653,
				"y": 1.6077120159,
				"z": 1.4428701293,
				"element": "C" 
			},
			{
				"x": 1.6584146084,
				"y": 0.2143116287,
				"z": 2.2511091732,
				"element": "Cl" 
			},
			{
				"x": 2.0329222315,
				"y": 2.486943981,
				"z": 0.4420882989,
				"element": "Cl" 
			},
			{
				"x": 0.154289498,
				"y": 2.7140322176,
				"z": 2.6774632472,
				"element": "Cl" 
			},
			{
				"x": -1.8860535484,
				"y": 0.0893397369,
				"z": 0.6841769607,
				"element": "H" 
			}
		],
		 "valence_orbital": [ 
			{
				"type": "occ",
				"energy": -0.35162,
				"method": "rhf"
			},
			{
				"type": "occ",
				"energy": -0.33346,
				"method": "rhf"
			},
			{
				"type": "occ",
				"energy": -0.33231,
				"method": "rhf"
			},
			{
				"type": "occ",
				"energy": -0.31668,
				"method": "rhf"
			},
			{
				"type": "occ",
				"energy": -0.30696,
				"method": "rhf"
			},
			{
				"type": "unocc",
				"energy": -0.05914,
				"method": "rhf"
			},
			{
				"type": "unocc",
				"energy": -0.0515,
				"method": "rhf"
			},
			{
				"type": "unocc",
				"energy": -0.00817,
				"method": "rhf"
			},
			{
				"type": "unocc",
				"energy": 0.03767,
				"method": "rhf"
			},
			{
				"type": "unocc",
				"energy": 0.05219,
				"method": "rhf"
			}
		],
		"cosmo_sigma_profile": { 
			"-0.025": 0.0,
			"-0.024": 0.0,
			"-0.023": 0.0,
			"-0.022": 0.0,
			"-0.021": 0.119616753545,
			"-0.02": 1.22569051576,
			"-0.019": 0.966173295853,
			"-0.018": 0.794567991059,
			"-0.017": 1.03130021767,
			"-0.016": 0.638010461189,
			"-0.015": 1.01447361178,
			"-0.014": 1.00316379349,
			"-0.013": 0.485425398743,
			"-0.012": 0.471231791677,
			"-0.011": 0.481433272021,
			"-0.01": 1.26062312165,
			"-0.009": 0.698143991429,
			"-0.008": 0.650379683644,
			"-0.007": 0.878570296058,
			"-0.006": 2.42665118134,
			"-0.005": 6.87763513347,
			"-0.004": 6.41855992177,
			"-0.003": 8.37467126869,
			"-0.002": 8.66312490327,
			"-0.001": 8.67619241096,
			"0.0": 12.1442821232,
			"0.001": 17.7404984967,
			"0.002": 30.8387869816,
			"0.003": 11.6122936437,
			"0.004": 5.39332268192,
			"0.005": 4.33474367535,
			"0.006": 3.31382690621,
			"0.007": 3.519283199,
			"0.008": 2.98492801359,
			"0.009": 4.86359175987,
			"0.01": 2.02833276085,
			"0.011": 0.0312061579141,
			"0.012": 0.0,
			"0.013": 0.0,
			"0.014": 0.0,
			"0.015": 0.0,
			"0.016": 0.0,
			"0.017": 0.0,
			"0.018": 0.0,
			"0.019": 0.0,
			"0.02": 0.0,
			"0.021": 0.0,
			"0.022": 0.0,
			"0.023": 0.0,
			"0.024": 0.0,
			"0.025": 0.0
		}
	}
}
