{
	 "smiles": "ClCC(=O)NC1CCS(=O)(=O)C1", 
	 "Tm": 366.65, 
	 "num_atms": 22, 
	 "gaussian": { 
		 "optdone": 1, 
		 "sigma_profile": "yes", 
		 "theory": "DFT", 
		 "functional": "B3LYP", 
		 "basiset": "6-31G**", 
		 "properties": { 
			 "R2extent": 3962.4299, 
			 "electric_dipole_moment_norm": 3.19469543775, 
			 "electric_quadrupole_moment_norm": 16.7798893715, 
			 "total_energy": -1373.42485956, 
			 "HOMO_LUMO_gap": 0.27294, 
			 "cosmo_polarized_energy": -19.82, 
			 "cosmo_cavitation_energy": 27.8, 
			 "cosmo_dispersion_energy": -20.71, 
			 "cosmo_repulsion_energy": 1.62, 
			 "cosmo_total_nonelectrostatic_energy": 8.7, 
			 "SMD_solvation_energy": 3.62 
		},
		"coords": [
			{
				"x": -3.5803707759,
				"y": 2.6147571895,
				"z": -1.9758898591,
				"element": "Cl" 
			},
			{
				"x": -2.9750228205,
				"y": 1.4485347056,
				"z": -3.2212410094,
				"element": "C" 
			},
			{
				"x": -1.8038938815,
				"y": 0.5536265029,
				"z": -2.8138991028,
				"element": "C" 
			},
			{
				"x": -1.3477419797,
				"y": -0.2032520098,
				"z": -3.6640257068,
				"element": "O" 
			},
			{
				"x": -1.345540198,
				"y": 0.6276786873,
				"z": -1.5397408812,
				"element": "N" 
			},
			{
				"x": -0.2324258741,
				"y": -0.2135728389,
				"z": -1.1150398433,
				"element": "C" 
			},
			{
				"x": 1.1508669902,
				"y": 0.4678212085,
				"z": -1.3190056235,
				"element": "C" 
			},
			{
				"x": 1.367712487,
				"y": 1.5101352514,
				"z": -0.2066818527,
				"element": "C" 
			},
			{
				"x": 0.2548340904,
				"y": 1.0178947678,
				"z": 1.1804188562,
				"element": "S" 
			},
			{
				"x": 1.0096337125,
				"y": 0.7458742036,
				"z": 2.4103946448,
				"element": "O" 
			},
			{
				"x": -0.8969928395,
				"y": 1.9441185893,
				"z": 1.189091796,
				"element": "O" 
			},
			{
				"x": -0.3207591649,
				"y": -0.5240358485,
				"z": 0.381007999,
				"element": "C" 
			},
			{
				"x": -2.6719022849,
				"y": 2.0280300076,
				"z": -4.0934208992,
				"element": "H" 
			},
			{
				"x": -3.810987753,
				"y": 0.8068783498,
				"z": -3.5025408639,
				"element": "H" 
			},
			{
				"x": -1.7273483807,
				"y": 1.3117059962,
				"z": -0.8939445934,
				"element": "H" 
			},
			{
				"x": -0.2792286088,
				"y": -1.1251350696,
				"z": -1.7146860297,
				"element": "H" 
			},
			{
				"x": 1.9255791285,
				"y": -0.3039382296,
				"z": -1.2621195762,
				"element": "H" 
			},
			{
				"x": 1.205207583,
				"y": 0.9174294876,
				"z": -2.3124731555,
				"element": "H" 
			},
			{
				"x": 2.3863564579,
				"y": 1.5372403208,
				"z": 0.1820694397,
				"element": "H" 
			},
			{
				"x": 1.0524555935,
				"y": 2.51685156,
				"z": -0.4867133696,
				"element": "H" 
			},
			{
				"x": 0.3663647302,
				"y": -1.3252360547,
				"z": 0.6628287031,
				"element": "H" 
			},
			{
				"x": -1.3262962119,
				"y": -0.7388067769,
				"z": 0.7456109276,
				"element": "H" 
			}
		],
		 "valence_orbital": [ 
			{
				"type": "occ",
				"energy": -0.31365,
				"method": "rhf"
			},
			{
				"type": "occ",
				"energy": -0.30827,
				"method": "rhf"
			},
			{
				"type": "occ",
				"energy": -0.29252,
				"method": "rhf"
			},
			{
				"type": "occ",
				"energy": -0.27506,
				"method": "rhf"
			},
			{
				"type": "occ",
				"energy": -0.26974,
				"method": "rhf"
			},
			{
				"type": "unocc",
				"energy": 0.0032,
				"method": "rhf"
			},
			{
				"type": "unocc",
				"energy": 0.01287,
				"method": "rhf"
			},
			{
				"type": "unocc",
				"energy": 0.04171,
				"method": "rhf"
			},
			{
				"type": "unocc",
				"energy": 0.04807,
				"method": "rhf"
			},
			{
				"type": "unocc",
				"energy": 0.0621,
				"method": "rhf"
			}
		],
		"cosmo_sigma_profile": { 
			"-0.025": 0.0,
			"-0.024": 0.0,
			"-0.023": 0.0,
			"-0.022": 0.0,
			"-0.021": 0.0,
			"-0.02": 0.0,
			"-0.019": 0.0,
			"-0.018": 0.0,
			"-0.017": 0.0,
			"-0.016": 0.0,
			"-0.015": 0.0,
			"-0.014": 0.0,
			"-0.013": 0.0,
			"-0.012": 0.0,
			"-0.011": 0.163337818003,
			"-0.01": 1.21777624932,
			"-0.009": 8.21191340072,
			"-0.008": 12.1576593474,
			"-0.007": 16.7485108654,
			"-0.006": 17.9408318403,
			"-0.005": 19.7944502847,
			"-0.004": 15.0308952006,
			"-0.003": 14.1958665393,
			"-0.002": 9.57393636059,
			"-0.001": 7.69857684688,
			"0.0": 7.98201812561,
			"0.001": 6.44954933063,
			"0.002": 9.11853209057,
			"0.003": 7.6445137292,
			"0.004": 7.44868624622,
			"0.005": 10.1983293081,
			"0.006": 4.91176499797,
			"0.007": 3.13054310503,
			"0.008": 4.42063549575,
			"0.009": 4.03729139281,
			"0.01": 6.3287075149,
			"0.011": 10.838882291,
			"0.012": 9.90232049524,
			"0.013": 5.60262813092,
			"0.014": 0.839746951875,
			"0.015": 0.0,
			"0.016": 0.0,
			"0.017": 0.0,
			"0.018": 0.0,
			"0.019": 0.0,
			"0.02": 0.0,
			"0.021": 0.0,
			"0.022": 0.0,
			"0.023": 0.0,
			"0.024": 0.0,
			"0.025": 0.0
		}
	}
}
