{
	 "smiles": "COC(=O)C1C(O)C(C2C(C(=O)OC)C(=O)C(C1C1=CC=CC=C21)C(=O)OC)C(=O)OC", 
	 "Tm": 365.35, 
	 "num_atms": 56, 
	 "gaussian": { 
		 "optdone": 1, 
		 "sigma_profile": "yes", 
		 "theory": "DFT", 
		 "functional": "B3LYP", 
		 "basiset": "6-31G**", 
		 "properties": { 
			 "R2extent": 11171.0353, 
			 "electric_dipole_moment_norm": 5.0536295907, 
			 "electric_quadrupole_moment_norm": 25.4294487111, 
			 "total_energy": -1605.05286191, 
			 "HOMO_LUMO_gap": 0.2247, 
			 "cosmo_polarized_energy": -26.21, 
			 "cosmo_cavitation_energy": 55.91, 
			 "cosmo_dispersion_energy": -34.71, 
			 "cosmo_repulsion_energy": 2.6, 
			 "cosmo_total_nonelectrostatic_energy": 23.8, 
			 "SMD_solvation_energy": 14.67 
		},
		"coords": [
			{
				"x": -4.7884433893,
				"y": 0.8628246594,
				"z": 0.2143143236,
				"element": "C" 
			},
			{
				"x": -3.3570846493,
				"y": 1.0082655465,
				"z": 0.1461911402,
				"element": "O" 
			},
			{
				"x": -2.8363457298,
				"y": 1.0048955042,
				"z": -1.1013471886,
				"element": "C" 
			},
			{
				"x": -3.5144087462,
				"y": 0.8880721486,
				"z": -2.0988773756,
				"element": "O" 
			},
			{
				"x": -1.3185983158,
				"y": 1.1771566555,
				"z": -1.128785829,
				"element": "C" 
			},
			{
				"x": -0.6463289782,
				"y": 1.4007800772,
				"z": 0.2394880842,
				"element": "C" 
			},
			{
				"x": 0.5979191073,
				"y": 2.0138693193,
				"z": -0.0815736778,
				"element": "O" 
			},
			{
				"x": -0.4948217552,
				"y": 0.139992014,
				"z": 1.1152084435,
				"element": "C" 
			},
			{
				"x": 0.2976426252,
				"y": -1.0617505947,
				"z": 0.5235508476,
				"element": "C" 
			},
			{
				"x": 1.703683658,
				"y": -0.7785254467,
				"z": -0.1033899476,
				"element": "C" 
			},
			{
				"x": 2.7665535011,
				"y": -0.4495470629,
				"z": 0.9423590875,
				"element": "C" 
			},
			{
				"x": 3.6382422655,
				"y": -1.2063690477,
				"z": 1.295409555,
				"element": "O" 
			},
			{
				"x": 2.6132362543,
				"y": 0.7923880719,
				"z": 1.4795823326,
				"element": "O" 
			},
			{
				"x": 3.5878343639,
				"y": 1.1448113111,
				"z": 2.4807035274,
				"element": "C" 
			},
			{
				"x": 1.8526246478,
				"y": 0.1721051887,
				"z": -1.3028515491,
				"element": "C" 
			},
			{
				"x": 2.9147532007,
				"y": 0.7375667204,
				"z": -1.4752223763,
				"element": "O" 
			},
			{
				"x": 0.7798118978,
				"y": 0.2746199723,
				"z": -2.3978078609,
				"element": "C" 
			},
			{
				"x": -0.7275772549,
				"y": 0.0742164601,
				"z": -2.0569011367,
				"element": "C" 
			},
			{
				"x": -1.0552909122,
				"y": -1.3464820755,
				"z": -1.624274553,
				"element": "C" 
			},
			{
				"x": -1.8538393823,
				"y": -2.1463701968,
				"z": -2.4532116568,
				"element": "C" 
			},
			{
				"x": -2.1613760173,
				"y": -3.4626362201,
				"z": -2.1080846192,
				"element": "C" 
			},
			{
				"x": -1.6677123846,
				"y": -3.9969945259,
				"z": -0.9188810987,
				"element": "C" 
			},
			{
				"x": -0.8745800368,
				"y": -3.2077285627,
				"z": -0.0856478581,
				"element": "C" 
			},
			{
				"x": -0.5623093632,
				"y": -1.8845739434,
				"z": -0.4218786338,
				"element": "C" 
			},
			{
				"x": 1.1022530528,
				"y": -0.663444628,
				"z": -3.5682944224,
				"element": "C" 
			},
			{
				"x": 0.6119352161,
				"y": -0.5503997648,
				"z": -4.6695460084,
				"element": "O" 
			},
			{
				"x": 1.9548267483,
				"y": -1.6469693569,
				"z": -3.2235630858,
				"element": "O" 
			},
			{
				"x": 2.2758894571,
				"y": -2.5853862051,
				"z": -4.2670838122,
				"element": "C" 
			},
			{
				"x": -0.0317344544,
				"y": 0.4332494888,
				"z": 2.5486934381,
				"element": "C" 
			},
			{
				"x": 0.3997981384,
				"y": -0.4039117299,
				"z": 3.3130963418,
				"element": "O" 
			},
			{
				"x": -0.2332898915,
				"y": 1.7189765331,
				"z": 2.9077900635,
				"element": "O" 
			},
			{
				"x": 0.064897328,
				"y": 2.0332453333,
				"z": 4.2798771756,
				"element": "C" 
			},
			{
				"x": -5.0960301208,
				"y": -0.0852958503,
				"z": -0.2323487819,
				"element": "H" 
			},
			{
				"x": -5.0353520349,
				"y": 0.8882910102,
				"z": 1.2753316016,
				"element": "H" 
			},
			{
				"x": -5.2805476701,
				"y": 1.6808331241,
				"z": -0.3164889528,
				"element": "H" 
			},
			{
				"x": -1.1630629856,
				"y": 2.1271595861,
				"z": -1.6581476761,
				"element": "H" 
			},
			{
				"x": -1.2689498119,
				"y": 2.1048767448,
				"z": 0.8011614251,
				"element": "H" 
			},
			{
				"x": 1.2054388786,
				"y": 1.9557237111,
				"z": 0.6716330615,
				"element": "H" 
			},
			{
				"x": -1.517920395,
				"y": -0.2293514839,
				"z": 1.2686704558,
				"element": "H" 
			},
			{
				"x": 0.505211628,
				"y": -1.7017171161,
				"z": 1.3856832521,
				"element": "H" 
			},
			{
				"x": 2.0314472092,
				"y": -1.7443761907,
				"z": -0.5053318194,
				"element": "H" 
			},
			{
				"x": 3.4996989864,
				"y": 0.4773871055,
				"z": 3.3406919371,
				"element": "H" 
			},
			{
				"x": 3.3614994222,
				"y": 2.1733533455,
				"z": 2.7618404009,
				"element": "H" 
			},
			{
				"x": 4.5948718284,
				"y": 1.0728321189,
				"z": 2.066214402,
				"element": "H" 
			},
			{
				"x": 0.9019326534,
				"y": 1.2852357194,
				"z": -2.7991603047,
				"element": "H" 
			},
			{
				"x": -1.2357061906,
				"y": 0.230484064,
				"z": -3.011671069,
				"element": "H" 
			},
			{
				"x": -2.2388675027,
				"y": -1.7249031749,
				"z": -3.3769681847,
				"element": "H" 
			},
			{
				"x": -2.7835912544,
				"y": -4.0635773018,
				"z": -2.7648415098,
				"element": "H" 
			},
			{
				"x": -1.8986018917,
				"y": -5.0203333307,
				"z": -0.6373064226,
				"element": "H" 
			},
			{
				"x": -0.4910652709,
				"y": -3.6221040689,
				"z": 0.8433989352,
				"element": "H" 
			},
			{
				"x": 2.9839530461,
				"y": -3.2845723583,
				"z": -3.8237428382,
				"element": "H" 
			},
			{
				"x": 1.3741893164,
				"y": -3.1054857844,
				"z": -4.5986855834,
				"element": "H" 
			},
			{
				"x": 2.7247807451,
				"y": -2.0686884176,
				"z": -5.1181168655,
				"element": "H" 
			},
			{
				"x": -0.1609869317,
				"y": 3.0932070281,
				"z": 4.3932315584,
				"element": "H" 
			},
			{
				"x": 1.116712817,
				"y": 1.8371762594,
				"z": 4.4999165977,
				"element": "H" 
			},
			{
				"x": -0.5526146716,
				"y": 1.4328996172,
				"z": 4.9519947099,
				"element": "H" 
			}
		],
		 "valence_orbital": [ 
			{
				"type": "occ",
				"energy": -0.27666,
				"method": "rhf"
			},
			{
				"type": "occ",
				"energy": -0.27199,
				"method": "rhf"
			},
			{
				"type": "occ",
				"energy": -0.25461,
				"method": "rhf"
			},
			{
				"type": "occ",
				"energy": -0.24787,
				"method": "rhf"
			},
			{
				"type": "occ",
				"energy": -0.24146,
				"method": "rhf"
			},
			{
				"type": "unocc",
				"energy": -0.01676,
				"method": "rhf"
			},
			{
				"type": "unocc",
				"energy": -0.01488,
				"method": "rhf"
			},
			{
				"type": "unocc",
				"energy": -0.00846,
				"method": "rhf"
			},
			{
				"type": "unocc",
				"energy": -0.00316,
				"method": "rhf"
			},
			{
				"type": "unocc",
				"energy": -0.00015,
				"method": "rhf"
			}
		],
		"cosmo_sigma_profile": { 
			"-0.025": 0.0,
			"-0.024": 0.0,
			"-0.023": 0.0,
			"-0.022": 0.0,
			"-0.021": 0.0,
			"-0.02": 0.0,
			"-0.019": 0.0,
			"-0.018": 0.0,
			"-0.017": 0.0,
			"-0.016": 0.0,
			"-0.015": 0.0,
			"-0.014": 0.0,
			"-0.013": 0.0,
			"-0.012": 0.0,
			"-0.011": 0.0,
			"-0.01": 0.0,
			"-0.009": 0.161884849504,
			"-0.008": 2.75274135906,
			"-0.007": 14.8100447344,
			"-0.006": 36.6480332413,
			"-0.005": 43.2321758395,
			"-0.004": 55.0433899914,
			"-0.003": 41.4824254945,
			"-0.002": 26.9850807718,
			"-0.001": 23.3243232704,
			"0.0": 23.3671735737,
			"0.001": 21.5471454041,
			"0.002": 19.1531771858,
			"0.003": 20.2723724218,
			"0.004": 18.4642279493,
			"0.005": 17.0231566758,
			"0.006": 8.41899141548,
			"0.007": 7.99096917675,
			"0.008": 9.44821472843,
			"0.009": 9.06941068538,
			"0.01": 10.9227173911,
			"0.011": 20.2232449774,
			"0.012": 9.45891305422,
			"0.013": 0.161054100905,
			"0.014": 0.0,
			"0.015": 0.0,
			"0.016": 0.0,
			"0.017": 0.0,
			"0.018": 0.0,
			"0.019": 0.0,
			"0.02": 0.0,
			"0.021": 0.0,
			"0.022": 0.0,
			"0.023": 0.0,
			"0.024": 0.0,
			"0.025": 0.0
		}
	}
}
