{
	 "smiles": "CC(C)C(Br)C(=O)NC1=CC(NC(C)=O)=CC=C1", 
	 "Tm": 453.15, 
	 "num_atms": 35, 
	 "gaussian": { 
		 "optdone": 1, 
		 "sigma_profile": "yes", 
		 "theory": "DFT", 
		 "functional": "B3LYP", 
		 "basiset": "6-31G**", 
		 "properties": { 
			 "R2extent": 9368.9092, 
			 "electric_dipole_moment_norm": 4.3643952124, 
			 "electric_quadrupole_moment_norm": 19.3732872577, 
			 "total_energy": -3337.03976504, 
			 "HOMO_LUMO_gap": 0.18802, 
			 "cosmo_polarized_energy": -18.67, 
			 "cosmo_cavitation_energy": 40.01, 
			 "cosmo_dispersion_energy": -28.6, 
			 "cosmo_repulsion_energy": 2.21, 
			 "cosmo_total_nonelectrostatic_energy": 13.62, 
			 "SMD_solvation_energy": 6.87 
		},
		"coords": [
			{
				"x": -1.3235109576,
				"y": -3.8170334654,
				"z": -0.3979604799,
				"element": "C" 
			},
			{
				"x": -2.6653030014,
				"y": -3.081552887,
				"z": -0.5087066423,
				"element": "C" 
			},
			{
				"x": -3.1119982377,
				"y": -2.9404022452,
				"z": -1.9755048302,
				"element": "C" 
			},
			{
				"x": -2.6639778525,
				"y": -1.7026515265,
				"z": 0.1963516367,
				"element": "C" 
			},
			{
				"x": -2.6655809053,
				"y": -1.9647756405,
				"z": 2.1938609204,
				"element": "Br" 
			},
			{
				"x": -1.5593488529,
				"y": -0.7543906922,
				"z": -0.2977498136,
				"element": "C" 
			},
			{
				"x": -1.7246972472,
				"y": -0.242543755,
				"z": -1.4000079689,
				"element": "O" 
			},
			{
				"x": -0.4603120492,
				"y": -0.5958580961,
				"z": 0.4915284925,
				"element": "N" 
			},
			{
				"x": 0.6972422347,
				"y": 0.177139086,
				"z": 0.2464775541,
				"element": "C" 
			},
			{
				"x": 1.6558260176,
				"y": 0.2124143566,
				"z": 1.2663500739,
				"element": "C" 
			},
			{
				"x": 2.8397051358,
				"y": 0.9455108379,
				"z": 1.1163638466,
				"element": "C" 
			},
			{
				"x": 3.7475111913,
				"y": 0.9242785243,
				"z": 2.1965730088,
				"element": "N" 
			},
			{
				"x": 4.973870069,
				"y": 1.5466188511,
				"z": 2.3101028097,
				"element": "C" 
			},
			{
				"x": 5.6784108477,
				"y": 1.3081259599,
				"z": 3.6390697405,
				"element": "C" 
			},
			{
				"x": 5.4758827899,
				"y": 2.2399715868,
				"z": 1.4382254346,
				"element": "O" 
			},
			{
				"x": 3.0700390505,
				"y": 1.6548455077,
				"z": -0.0724034094,
				"element": "C" 
			},
			{
				"x": 2.103381843,
				"y": 1.6071462516,
				"z": -1.0752726123,
				"element": "C" 
			},
			{
				"x": 0.9191861251,
				"y": 0.8829593337,
				"z": -0.9444007078,
				"element": "C" 
			},
			{
				"x": -0.5318831309,
				"y": -3.2885759,
				"z": -0.9399262062,
				"element": "H" 
			},
			{
				"x": -1.0122933235,
				"y": -3.9305384646,
				"z": 0.6446317544,
				"element": "H" 
			},
			{
				"x": -1.4092996306,
				"y": -4.8176289887,
				"z": -0.8323149352,
				"element": "H" 
			},
			{
				"x": -3.4253201667,
				"y": -3.6736353114,
				"z": 0.0144171454,
				"element": "H" 
			},
			{
				"x": -4.0929515687,
				"y": -2.4602411251,
				"z": -2.0505221361,
				"element": "H" 
			},
			{
				"x": -3.1868505642,
				"y": -3.9338321372,
				"z": -2.4297925237,
				"element": "H" 
			},
			{
				"x": -2.4045375505,
				"y": -2.3430129061,
				"z": -2.5543237467,
				"element": "H" 
			},
			{
				"x": -3.6096989996,
				"y": -1.1918916412,
				"z": 0.0194467373,
				"element": "H" 
			},
			{
				"x": -0.5111018308,
				"y": -1.0434178241,
				"z": 1.3981332414,
				"element": "H" 
			},
			{
				"x": 1.476950995,
				"y": -0.3384440298,
				"z": 2.188377984,
				"element": "H" 
			},
			{
				"x": 3.4509668887,
				"y": 0.3800915158,
				"z": 2.9930912826,
				"element": "H" 
			},
			{
				"x": 5.8108581363,
				"y": 2.2706995715,
				"z": 4.1411097711,
				"element": "H" 
			},
			{
				"x": 6.6750072146,
				"y": 0.9077999127,
				"z": 3.4360846397,
				"element": "H" 
			},
			{
				"x": 5.1525575058,
				"y": 0.6272861503,
				"z": 4.3143469558,
				"element": "H" 
			},
			{
				"x": 3.9828198508,
				"y": 2.2199718522,
				"z": -0.188807019,
				"element": "H" 
			},
			{
				"x": 2.2798028324,
				"y": 2.1564643635,
				"z": -1.9956306793,
				"element": "H" 
			},
			{
				"x": 0.1790471412,
				"y": 0.8594029744,
				"z": -1.7304193191,
				"element": "H" 
			}
		],
		 "valence_orbital": [ 
			{
				"type": "occ",
				"energy": -0.28818,
				"method": "rhf"
			},
			{
				"type": "occ",
				"energy": -0.26212,
				"method": "rhf"
			},
			{
				"type": "occ",
				"energy": -0.25453,
				"method": "rhf"
			},
			{
				"type": "occ",
				"energy": -0.2356,
				"method": "rhf"
			},
			{
				"type": "occ",
				"energy": -0.21858,
				"method": "rhf"
			},
			{
				"type": "unocc",
				"energy": -0.03056,
				"method": "rhf"
			},
			{
				"type": "unocc",
				"energy": -0.0156,
				"method": "rhf"
			},
			{
				"type": "unocc",
				"energy": -0.01133,
				"method": "rhf"
			},
			{
				"type": "unocc",
				"energy": 0.02613,
				"method": "rhf"
			},
			{
				"type": "unocc",
				"energy": 0.05522,
				"method": "rhf"
			}
		],
		"cosmo_sigma_profile": { 
			"-0.025": 0.0,
			"-0.024": 0.0,
			"-0.023": 0.0,
			"-0.022": 0.0,
			"-0.021": 0.0,
			"-0.02": 0.0,
			"-0.019": 0.0,
			"-0.018": 0.0,
			"-0.017": 0.0,
			"-0.016": 0.0886821790211,
			"-0.015": 1.40199865969,
			"-0.014": 1.47890503405,
			"-0.013": 2.13603077274,
			"-0.012": 2.3173397866,
			"-0.011": 2.25470938937,
			"-0.01": 3.24232151431,
			"-0.009": 2.86092291232,
			"-0.008": 4.5917213458,
			"-0.007": 5.32695445644,
			"-0.006": 9.00782223252,
			"-0.005": 12.6890350527,
			"-0.004": 17.4778451505,
			"-0.003": 31.7573393943,
			"-0.002": 30.8209071943,
			"-0.001": 27.1195520185,
			"0.0": 27.6410649761,
			"0.001": 26.7886077356,
			"0.002": 17.7807948531,
			"0.003": 19.5054751618,
			"0.004": 20.9026430656,
			"0.005": 18.4604012239,
			"0.006": 5.64475562822,
			"0.007": 3.7281061722,
			"0.008": 3.05358871319,
			"0.009": 3.66192652483,
			"0.01": 3.10187743257,
			"0.011": 3.12209695363,
			"0.012": 5.28636496974,
			"0.013": 3.78667100127,
			"0.014": 1.9339152032,
			"0.015": 0.27673484698,
			"0.016": 0.0,
			"0.017": 0.0,
			"0.018": 0.0,
			"0.019": 0.0,
			"0.02": 0.0,
			"0.021": 0.0,
			"0.022": 0.0,
			"0.023": 0.0,
			"0.024": 0.0,
			"0.025": 0.0
		}
	}
}
