{
	 "smiles": "OC1=C(O)C2=C(C=CC(=O)O2)C=C1", 
	 "Tm": 535.15, 
	 "num_atms": 19, 
	 "gaussian": { 
		 "optdone": 1, 
		 "sigma_profile": "yes", 
		 "theory": "DFT", 
		 "functional": "B3LYP", 
		 "basiset": "6-31G**", 
		 "properties": { 
			 "R2extent": 2884.7134, 
			 "electric_dipole_moment_norm": 5.43351167662, 
			 "electric_quadrupole_moment_norm": 8.58568396635, 
			 "total_energy": -647.458702659, 
			 "HOMO_LUMO_gap": 0.15416, 
			 "cosmo_polarized_energy": -17.59, 
			 "cosmo_cavitation_energy": 23.97, 
			 "cosmo_dispersion_energy": -18.22, 
			 "cosmo_repulsion_energy": 1.42, 
			 "cosmo_total_nonelectrostatic_energy": 7.18, 
			 "SMD_solvation_energy": 5.98 
		},
		"coords": [
			{
				"x": -0.6755490044,
				"y": 3.3563205867,
				"z": 2.6497881683,
				"element": "O" 
			},
			{
				"x": -0.3413429915,
				"y": 2.1505927497,
				"z": 2.1208729942,
				"element": "C" 
			},
			{
				"x": 0.5958118301,
				"y": 2.1562853684,
				"z": 1.0744848994,
				"element": "C" 
			},
			{
				"x": 1.1190716184,
				"y": 3.3294174253,
				"z": 0.6412316127,
				"element": "O" 
			},
			{
				"x": 0.9593916972,
				"y": 0.9312999909,
				"z": 0.5101448355,
				"element": "C" 
			},
			{
				"x": 0.4256136427,
				"y": -0.2941128986,
				"z": 0.9485135783,
				"element": "C" 
			},
			{
				"x": 0.8897120482,
				"y": -1.4777308864,
				"z": 0.2772006696,
				"element": "C" 
			},
			{
				"x": 1.7966786739,
				"y": -1.4052778268,
				"z": -0.7271682943,
				"element": "C" 
			},
			{
				"x": 2.3477071379,
				"y": -0.1343128933,
				"z": -1.1792701126,
				"element": "C" 
			},
			{
				"x": 3.1559567446,
				"y": 0.035318743,
				"z": -2.0599874696,
				"element": "O" 
			},
			{
				"x": 1.8759748303,
				"y": 1.0039304494,
				"z": -0.5048241676,
				"element": "O" 
			},
			{
				"x": -0.5099224478,
				"y": -0.271952102,
				"z": 1.9967863984,
				"element": "C" 
			},
			{
				"x": -0.8841253274,
				"y": 0.9351356506,
				"z": 2.570592788,
				"element": "C" 
			},
			{
				"x": -1.32231552,
				"y": 3.2248932705,
				"z": 3.3552869853,
				"element": "H" 
			},
			{
				"x": 1.7380190788,
				"y": 3.1236714243,
				"z": -0.0767842047,
				"element": "H" 
			},
			{
				"x": 0.4973099712,
				"y": -2.4419998234,
				"z": 0.591427053,
				"element": "H" 
			},
			{
				"x": 2.1612812185,
				"y": -2.2823680441,
				"z": -1.2476520944,
				"element": "H" 
			},
			{
				"x": -0.9370827668,
				"y": -1.2037501249,
				"z": 2.3538742421,
				"element": "H" 
			},
			{
				"x": -1.6080904338,
				"y": 0.9529389407,
				"z": 3.3817821185,
				"element": "H" 
			}
		],
		 "valence_orbital": [ 
			{
				"type": "occ",
				"energy": -0.34826,
				"method": "rhf"
			},
			{
				"type": "occ",
				"energy": -0.29828,
				"method": "rhf"
			},
			{
				"type": "occ",
				"energy": -0.27811,
				"method": "rhf"
			},
			{
				"type": "occ",
				"energy": -0.23477,
				"method": "rhf"
			},
			{
				"type": "occ",
				"energy": -0.21939,
				"method": "rhf"
			},
			{
				"type": "unocc",
				"energy": -0.06523,
				"method": "rhf"
			},
			{
				"type": "unocc",
				"energy": -0.00895,
				"method": "rhf"
			},
			{
				"type": "unocc",
				"energy": 0.01261,
				"method": "rhf"
			},
			{
				"type": "unocc",
				"energy": 0.0525,
				"method": "rhf"
			},
			{
				"type": "unocc",
				"energy": 0.07104,
				"method": "rhf"
			}
		],
		"cosmo_sigma_profile": { 
			"-0.025": 0.0,
			"-0.024": 0.0,
			"-0.023": 0.0,
			"-0.022": 0.0,
			"-0.021": 0.0,
			"-0.02": 0.0,
			"-0.019": 0.464559449301,
			"-0.018": 1.04739725369,
			"-0.017": 0.801727273343,
			"-0.016": 1.4481649751,
			"-0.015": 1.98574525065,
			"-0.014": 1.57033505407,
			"-0.013": 1.10082608041,
			"-0.012": 1.86007487216,
			"-0.011": 1.88928902499,
			"-0.01": 1.5195023499,
			"-0.009": 2.80591258772,
			"-0.008": 6.33181422826,
			"-0.007": 8.82368418772,
			"-0.006": 9.45152747432,
			"-0.005": 8.57552022073,
			"-0.004": 7.76475912399,
			"-0.003": 8.66438375243,
			"-0.002": 9.20298884409,
			"-0.001": 12.240106445,
			"0.0": 14.4440618051,
			"0.001": 17.9202685612,
			"0.002": 12.3481503022,
			"0.003": 10.2510832765,
			"0.004": 6.96481752711,
			"0.005": 3.6758238564,
			"0.006": 3.59961017128,
			"0.007": 3.70024481732,
			"0.008": 3.48106482715,
			"0.009": 4.45919300994,
			"0.01": 5.36940893879,
			"0.011": 6.93775805015,
			"0.012": 8.66907697122,
			"0.013": 3.20016467859,
			"0.014": 0.0244129022526,
			"0.015": 0.0,
			"0.016": 0.0,
			"0.017": 0.0,
			"0.018": 0.0,
			"0.019": 0.0,
			"0.02": 0.0,
			"0.021": 0.0,
			"0.022": 0.0,
			"0.023": 0.0,
			"0.024": 0.0,
			"0.025": 0.0
		}
	}
}
