{
	 "smiles": "O=C1OC2=CC=CC=C2C=C1", 
	 "Tm": 343.65, 
	 "num_atms": 17, 
	 "gaussian": { 
		 "optdone": 1, 
		 "sigma_profile": "yes", 
		 "theory": "DFT", 
		 "functional": "B3LYP", 
		 "basiset": "6-31G**", 
		 "properties": { 
			 "R2extent": 2060.7726, 
			 "electric_dipole_moment_norm": 4.79045861896, 
			 "electric_quadrupole_moment_norm": 16.3382878932, 
			 "total_energy": -497.023473131, 
			 "HOMO_LUMO_gap": 0.16945, 
			 "cosmo_polarized_energy": -10.5, 
			 "cosmo_cavitation_energy": 21.53, 
			 "cosmo_dispersion_energy": -16.31, 
			 "cosmo_repulsion_energy": 1.29, 
			 "cosmo_total_nonelectrostatic_energy": 6.5, 
			 "SMD_solvation_energy": 4.87 
		},
		"coords": [
			{
				"x": 1.242784479,
				"y": 3.1860849297,
				"z": 3.0468570423,
				"element": "O" 
			},
			{
				"x": 0.8817064845,
				"y": 2.540485785,
				"z": 2.0919318925,
				"element": "C" 
			},
			{
				"x": 1.3080046809,
				"y": 1.2128901566,
				"z": 2.0017045826,
				"element": "O" 
			},
			{
				"x": 0.9607934742,
				"y": 0.3929242489,
				"z": 0.9676183886,
				"element": "C" 
			},
			{
				"x": 1.4510106928,
				"y": -0.9147146008,
				"z": 0.9916831357,
				"element": "C" 
			},
			{
				"x": 1.1186285562,
				"y": -1.7802709626,
				"z": -0.0451667746,
				"element": "C" 
			},
			{
				"x": 0.3025714749,
				"y": -1.3526511893,
				"z": -1.1040660983,
				"element": "C" 
			},
			{
				"x": -0.1806415468,
				"y": -0.0517217396,
				"z": -1.1207901058,
				"element": "C" 
			},
			{
				"x": 0.1401548668,
				"y": 0.8448609982,
				"z": -0.0843816225,
				"element": "C" 
			},
			{
				"x": -0.3196208728,
				"y": 2.2102049483,
				"z": -0.02588484,
				"element": "C" 
			},
			{
				"x": 0.0305115772,
				"y": 3.0137050947,
				"z": 1.003399658,
				"element": "C" 
			},
			{
				"x": 2.0798994179,
				"y": -1.2249188566,
				"z": 1.818988128,
				"element": "H" 
			},
			{
				"x": 1.4969209682,
				"y": -2.7979808687,
				"z": -0.0315929033,
				"element": "H" 
			},
			{
				"x": 0.0507580776,
				"y": -2.0380331712,
				"z": -1.9069158707,
				"element": "H" 
			},
			{
				"x": -0.8133627053,
				"y": 0.2920415946,
				"z": -1.9346949817,
				"element": "H" 
			},
			{
				"x": -0.9543909982,
				"y": 2.5820909725,
				"z": -0.8266227341,
				"element": "H" 
			},
			{
				"x": -0.296128627,
				"y": 4.0438026602,
				"z": 1.0800331033,
				"element": "H" 
			}
		],
		 "valence_orbital": [ 
			{
				"type": "occ",
				"energy": -0.34651,
				"method": "rhf"
			},
			{
				"type": "occ",
				"energy": -0.32071,
				"method": "rhf"
			},
			{
				"type": "occ",
				"energy": -0.27373,
				"method": "rhf"
			},
			{
				"type": "occ",
				"energy": -0.25922,
				"method": "rhf"
			},
			{
				"type": "occ",
				"energy": -0.23877,
				"method": "rhf"
			},
			{
				"type": "unocc",
				"energy": -0.06932,
				"method": "rhf"
			},
			{
				"type": "unocc",
				"energy": -0.01473,
				"method": "rhf"
			},
			{
				"type": "unocc",
				"energy": 0.00034,
				"method": "rhf"
			},
			{
				"type": "unocc",
				"energy": 0.08198,
				"method": "rhf"
			},
			{
				"type": "unocc",
				"energy": 0.08495,
				"method": "rhf"
			}
		],
		"cosmo_sigma_profile": { 
			"-0.025": 0.0,
			"-0.024": 0.0,
			"-0.023": 0.0,
			"-0.022": 0.0,
			"-0.021": 0.0,
			"-0.02": 0.0,
			"-0.019": 0.0,
			"-0.018": 0.0,
			"-0.017": 0.0,
			"-0.016": 0.0,
			"-0.015": 0.0,
			"-0.014": 0.0,
			"-0.013": 0.0,
			"-0.012": 0.0,
			"-0.011": 0.0,
			"-0.01": 0.0,
			"-0.009": 0.697937784804,
			"-0.008": 5.01642268281,
			"-0.007": 10.0139409449,
			"-0.006": 12.7896888979,
			"-0.005": 11.6098407273,
			"-0.004": 11.3046114899,
			"-0.003": 11.0587925303,
			"-0.002": 10.6391680514,
			"-0.001": 11.5740723788,
			"0.0": 14.6067674509,
			"0.001": 16.5015771321,
			"0.002": 12.5346056383,
			"0.003": 12.5230201592,
			"0.004": 6.74754245873,
			"0.005": 2.08976555561,
			"0.006": 2.00283156765,
			"0.007": 2.02921560626,
			"0.008": 2.07921764382,
			"0.009": 2.65855241806,
			"0.01": 2.81062659772,
			"0.011": 3.24448262939,
			"0.012": 6.67450817605,
			"0.013": 2.51496998322,
			"0.014": 0.128047171062,
			"0.015": 0.0,
			"0.016": 0.0,
			"0.017": 0.0,
			"0.018": 0.0,
			"0.019": 0.0,
			"0.02": 0.0,
			"0.021": 0.0,
			"0.022": 0.0,
			"0.023": 0.0,
			"0.024": 0.0,
			"0.025": 0.0
		}
	}
}
