{
	 "smiles": "OC1=C(CC2=C(O)C3=C(OC2=O)C=CC=C3)C(=O)OC2=C1C=CC=C2", 
	 "Tm": 564.15, 
	 "num_atms": 37, 
	 "gaussian": { 
		 "optdone": 1, 
		 "sigma_profile": "yes", 
		 "theory": "DFT", 
		 "functional": "B3LYP", 
		 "basiset": "6-31G**", 
		 "properties": { 
			 "R2extent": 9294.0162, 
			 "electric_dipole_moment_norm": 6.62269747535, 
			 "electric_quadrupole_moment_norm": 28.9967697027, 
			 "total_energy": -1182.60730434, 
			 "HOMO_LUMO_gap": 0.16148, 
			 "cosmo_polarized_energy": -29.98, 
			 "cosmo_cavitation_energy": 41.74, 
			 "cosmo_dispersion_energy": -30.3, 
			 "cosmo_repulsion_energy": 2.24, 
			 "cosmo_total_nonelectrostatic_energy": 13.69, 
			 "SMD_solvation_energy": 9.23 
		},
		"coords": [
			{
				"x": -1.0883468418,
				"y": 1.0521732397,
				"z": -1.5530178234,
				"element": "O" 
			},
			{
				"x": 0.0652684688,
				"y": 0.6118594398,
				"z": -2.1063178234,
				"element": "C" 
			},
			{
				"x": 0.3214359562,
				"y": -0.728244806,
				"z": -2.0696036627,
				"element": "C" 
			},
			{
				"x": -0.6454215616,
				"y": -1.72058912,
				"z": -1.4563972012,
				"element": "C" 
			},
			{
				"x": -0.8812371386,
				"y": -1.5446048391,
				"z": 0.0298490356,
				"element": "C" 
			},
			{
				"x": 0.1143334547,
				"y": -1.7039821874,
				"z": 0.9497838951,
				"element": "C" 
			},
			{
				"x": 1.3522902422,
				"y": -2.0101004174,
				"z": 0.4974461782,
				"element": "O" 
			},
			{
				"x": -0.1332177436,
				"y": -1.5358617251,
				"z": 2.3713790846,
				"element": "C" 
			},
			{
				"x": -1.4519154373,
				"y": -1.2302587632,
				"z": 2.7561575609,
				"element": "C" 
			},
			{
				"x": -2.447072023,
				"y": -1.0919545187,
				"z": 1.8443296579,
				"element": "O" 
			},
			{
				"x": -2.2369128993,
				"y": -1.2380026743,
				"z": 0.4649567538,
				"element": "C" 
			},
			{
				"x": -3.2083235547,
				"y": -1.1135303256,
				"z": -0.2456174317,
				"element": "O" 
			},
			{
				"x": -1.789351897,
				"y": -1.0548775256,
				"z": 4.1014485936,
				"element": "C" 
			},
			{
				"x": -0.8056933704,
				"y": -1.1789655646,
				"z": 5.0750210917,
				"element": "C" 
			},
			{
				"x": 0.5171397853,
				"y": -1.4721131016,
				"z": 4.7144321236,
				"element": "C" 
			},
			{
				"x": 0.8458915011,
				"y": -1.6447641473,
				"z": 3.3767197783,
				"element": "C" 
			},
			{
				"x": 1.5374940531,
				"y": -1.2571909468,
				"z": -2.6718198234,
				"element": "C" 
			},
			{
				"x": 1.8572859117,
				"y": -2.42218181,
				"z": -2.7395406822,
				"element": "O" 
			},
			{
				"x": 2.4185228426,
				"y": -0.3312299695,
				"z": -3.25019577,
				"element": "O" 
			},
			{
				"x": 2.1722551836,
				"y": 1.0029178727,
				"z": -3.2674852307,
				"element": "C" 
			},
			{
				"x": 1.0032280139,
				"y": 1.5467606373,
				"z": -2.7035439704,
				"element": "C" 
			},
			{
				"x": 0.8304180504,
				"y": 2.9430331546,
				"z": -2.7457305426,
				"element": "C" 
			},
			{
				"x": 1.7794706967,
				"y": 3.7616264698,
				"z": -3.3428674215,
				"element": "C" 
			},
			{
				"x": 2.931273524,
				"y": 3.1962600907,
				"z": -3.908172554,
				"element": "C" 
			},
			{
				"x": 3.1318522641,
				"y": 1.8218028947,
				"z": -3.8700043502,
				"element": "C" 
			},
			{
				"x": -1.2388874139,
				"y": 1.9817162502,
				"z": -1.7644474966,
				"element": "H" 
			},
			{
				"x": -0.2447633689,
				"y": -2.7190768236,
				"z": -1.6508979302,
				"element": "H" 
			},
			{
				"x": -1.6192536467,
				"y": -1.6383451242,
				"z": -1.9465366688,
				"element": "H" 
			},
			{
				"x": 1.9376833772,
				"y": -2.2445731047,
				"z": 1.2280269041,
				"element": "H" 
			},
			{
				"x": -2.8189654441,
				"y": -0.8239792573,
				"z": 4.3518547314,
				"element": "H" 
			},
			{
				"x": -1.0656766055,
				"y": -1.043842134,
				"z": 6.1203965069,
				"element": "H" 
			},
			{
				"x": 1.2844541822,
				"y": -1.559856541,
				"z": 5.4765879736,
				"element": "H" 
			},
			{
				"x": 1.8821875349,
				"y": -1.8528341092,
				"z": 3.1194544948,
				"element": "H" 
			},
			{
				"x": -0.0459007341,
				"y": 3.4058013867,
				"z": -2.2970724201,
				"element": "H" 
			},
			{
				"x": 1.6301651559,
				"y": 4.836097443,
				"z": -3.3667904641,
				"element": "H" 
			},
			{
				"x": 3.6748757155,
				"y": 3.8339882319,
				"z": -4.3761665147,
				"element": "H" 
			},
			{
				"x": 4.0156137665,
				"y": 1.3586224251,
				"z": -4.2949185823,
				"element": "H" 
			}
		],
		 "valence_orbital": [ 
			{
				"type": "occ",
				"energy": -0.26837,
				"method": "rhf"
			},
			{
				"type": "occ",
				"energy": -0.25376,
				"method": "rhf"
			},
			{
				"type": "occ",
				"energy": -0.25295,
				"method": "rhf"
			},
			{
				"type": "occ",
				"energy": -0.22921,
				"method": "rhf"
			},
			{
				"type": "occ",
				"energy": -0.22131,
				"method": "rhf"
			},
			{
				"type": "unocc",
				"energy": -0.05983,
				"method": "rhf"
			},
			{
				"type": "unocc",
				"energy": -0.05506,
				"method": "rhf"
			},
			{
				"type": "unocc",
				"energy": -0.0161,
				"method": "rhf"
			},
			{
				"type": "unocc",
				"energy": -0.01504,
				"method": "rhf"
			},
			{
				"type": "unocc",
				"energy": 0.00885,
				"method": "rhf"
			}
		],
		"cosmo_sigma_profile": { 
			"-0.025": 0.0,
			"-0.024": 0.0,
			"-0.023": 0.0,
			"-0.022": 0.0,
			"-0.021": 0.0,
			"-0.02": 0.284763264251,
			"-0.019": 1.52534670677,
			"-0.018": 2.30510841525,
			"-0.017": 1.48965638354,
			"-0.016": 2.07590309597,
			"-0.015": 1.93896158094,
			"-0.014": 1.78918617672,
			"-0.013": 1.7352258387,
			"-0.012": 2.80393781993,
			"-0.011": 1.82235835311,
			"-0.01": 2.18094974005,
			"-0.009": 2.12099740867,
			"-0.008": 4.76830820504,
			"-0.007": 11.7020206929,
			"-0.006": 16.8480829595,
			"-0.005": 18.2434928843,
			"-0.004": 16.6755635032,
			"-0.003": 17.8657440843,
			"-0.002": 20.6343902726,
			"-0.001": 26.3759467926,
			"0.0": 27.1955700957,
			"0.001": 26.6551634252,
			"0.002": 24.9781434691,
			"0.003": 25.7420010127,
			"0.004": 13.0357805384,
			"0.005": 7.44423769973,
			"0.006": 5.88656626358,
			"0.007": 4.44256891236,
			"0.008": 5.54361744494,
			"0.009": 5.89460322026,
			"0.01": 6.37972412636,
			"0.011": 6.98122393883,
			"0.012": 12.6818623855,
			"0.013": 6.99546200072,
			"0.014": 1.16375962329,
			"0.015": 0.0,
			"0.016": 0.0,
			"0.017": 0.0,
			"0.018": 0.0,
			"0.019": 0.0,
			"0.02": 0.0,
			"0.021": 0.0,
			"0.022": 0.0,
			"0.023": 0.0,
			"0.024": 0.0,
			"0.025": 0.0
		}
	}
}
