{
	 "smiles": "CC1=NN(C(Cl)=C1C(O)=O)C1=CC=CC=C1", 
	 "Tm": 506.15, 
	 "num_atms": 25, 
	 "gaussian": { 
		 "optdone": 1, 
		 "sigma_profile": "yes", 
		 "theory": "DFT", 
		 "functional": "B3LYP", 
		 "basiset": "6-31G**", 
		 "properties": { 
			 "R2extent": 4694.7431, 
			 "electric_dipole_moment_norm": 5.72989855146, 
			 "electric_quadrupole_moment_norm": 14.2830628536, 
			 "total_energy": -1144.72709604, 
			 "HOMO_LUMO_gap": 0.20189, 
			 "cosmo_polarized_energy": -13.79, 
			 "cosmo_cavitation_energy": 31.3, 
			 "cosmo_dispersion_energy": -22.91, 
			 "cosmo_repulsion_energy": 1.77, 
			 "cosmo_total_nonelectrostatic_energy": 10.17, 
			 "SMD_solvation_energy": 5.51 
		},
		"coords": [
			{
				"x": -2.9530099063,
				"y": 0.9782019847,
				"z": 0.0507841345,
				"element": "C" 
			},
			{
				"x": -1.5333784443,
				"y": 0.7064185951,
				"z": 0.4317471868,
				"element": "C" 
			},
			{
				"x": -0.6696672452,
				"y": 0.275172018,
				"z": -0.4779235735,
				"element": "N" 
			},
			{
				"x": 0.5286327728,
				"y": 0.1360782705,
				"z": 0.1684159664,
				"element": "N" 
			},
			{
				"x": 0.4040030461,
				"y": 0.467050467,
				"z": 1.4791940245,
				"element": "C" 
			},
			{
				"x": 1.7137984468,
				"y": 0.3103464149,
				"z": 2.6041959045,
				"element": "Cl" 
			},
			{
				"x": -0.9123420481,
				"y": 0.8528335648,
				"z": 1.7118024556,
				"element": "C" 
			},
			{
				"x": -1.6094925731,
				"y": 1.3128040361,
				"z": 2.9331174665,
				"element": "C" 
			},
			{
				"x": -0.9019804592,
				"y": 1.3920214423,
				"z": 4.0862264581,
				"element": "O" 
			},
			{
				"x": -2.7824212123,
				"y": 1.6174656923,
				"z": 2.9267532682,
				"element": "O" 
			},
			{
				"x": 1.6577300713,
				"y": -0.3489818374,
				"z": -0.559775187,
				"element": "C" 
			},
			{
				"x": 1.479228602,
				"y": -1.448374096,
				"z": -1.4043491743,
				"element": "C" 
			},
			{
				"x": 2.5609434948,
				"y": -1.9245193587,
				"z": -2.1420112802,
				"element": "C" 
			},
			{
				"x": 3.812704333,
				"y": -1.3138096798,
				"z": -2.0334707303,
				"element": "C" 
			},
			{
				"x": 3.9773820008,
				"y": -0.2109633646,
				"z": -1.194296794,
				"element": "C" 
			},
			{
				"x": 2.8989614828,
				"y": 0.2846493652,
				"z": -0.4609821122,
				"element": "C" 
			},
			{
				"x": -3.0904572684,
				"y": 0.7533606735,
				"z": -1.0090518506,
				"element": "H" 
			},
			{
				"x": -3.6403006383,
				"y": 0.3738465947,
				"z": 0.6486990264,
				"element": "H" 
			},
			{
				"x": -3.2153958858,
				"y": 2.0221533046,
				"z": 0.2418872569,
				"element": "H" 
			},
			{
				"x": 0.0178232782,
				"y": 1.1133036738,
				"z": 3.9612624823,
				"element": "H" 
			},
			{
				"x": 0.4994184281,
				"y": -1.9055504797,
				"z": -1.478196108,
				"element": "H" 
			},
			{
				"x": 2.4253494096,
				"y": -2.7779248386,
				"z": -2.7993104544,
				"element": "H" 
			},
			{
				"x": 4.6540583113,
				"y": -1.691392467,
				"z": -2.6064792986,
				"element": "H" 
			},
			{
				"x": 4.9434337471,
				"y": 0.2786149409,
				"z": -1.1186997778,
				"element": "H" 
			},
			{
				"x": 3.016878256,
				"y": 1.1618950836,
				"z": 0.16456071,
				"element": "H" 
			}
		],
		 "valence_orbital": [ 
			{
				"type": "occ",
				"energy": -0.29392,
				"method": "rhf"
			},
			{
				"type": "occ",
				"energy": -0.27236,
				"method": "rhf"
			},
			{
				"type": "occ",
				"energy": -0.27179,
				"method": "rhf"
			},
			{
				"type": "occ",
				"energy": -0.26594,
				"method": "rhf"
			},
			{
				"type": "occ",
				"energy": -0.25005,
				"method": "rhf"
			},
			{
				"type": "unocc",
				"energy": -0.04816,
				"method": "rhf"
			},
			{
				"type": "unocc",
				"energy": -0.02298,
				"method": "rhf"
			},
			{
				"type": "unocc",
				"energy": -0.01593,
				"method": "rhf"
			},
			{
				"type": "unocc",
				"energy": -0.0011,
				"method": "rhf"
			},
			{
				"type": "unocc",
				"energy": 0.01303,
				"method": "rhf"
			}
		],
		"cosmo_sigma_profile": { 
			"-0.025": 0.0,
			"-0.024": 0.0,
			"-0.023": 0.0,
			"-0.022": 0.0,
			"-0.021": 0.0,
			"-0.02": 0.0,
			"-0.019": 0.0,
			"-0.018": 0.0,
			"-0.017": 0.0,
			"-0.016": 0.0,
			"-0.015": 0.0,
			"-0.014": 0.0,
			"-0.013": 0.309670090042,
			"-0.012": 0.716455887428,
			"-0.011": 1.82282400672,
			"-0.01": 2.08069219994,
			"-0.009": 1.45134318274,
			"-0.008": 1.72910350984,
			"-0.007": 6.63427760343,
			"-0.006": 14.2844581024,
			"-0.005": 17.4783490974,
			"-0.004": 18.6187828235,
			"-0.003": 20.8490170228,
			"-0.002": 20.6178452236,
			"-0.001": 24.7202758026,
			"0.0": 22.5842434168,
			"0.001": 16.1517559047,
			"0.002": 14.9239127795,
			"0.003": 14.6959065107,
			"0.004": 14.757033852,
			"0.005": 4.81375448772,
			"0.006": 3.54982062302,
			"0.007": 3.99318916392,
			"0.008": 4.10694651399,
			"0.009": 4.00695941454,
			"0.01": 4.99902446634,
			"0.011": 5.46012482655,
			"0.012": 4.92243129686,
			"0.013": 2.73563992682,
			"0.014": 0.431802674157,
			"0.015": 0.0,
			"0.016": 0.0,
			"0.017": 0.0,
			"0.018": 0.0,
			"0.019": 0.0,
			"0.02": 0.0,
			"0.021": 0.0,
			"0.022": 0.0,
			"0.023": 0.0,
			"0.024": 0.0,
			"0.025": 0.0
		}
	}
}
