{
	 "smiles": "CCC1C(CC2=CN=CN2C)COC1=O", 
	 "Tm": 307.15, 
	 "num_atms": 31, 
	 "gaussian": { 
		 "optdone": 1, 
		 "sigma_profile": "yes", 
		 "theory": "DFT", 
		 "functional": "B3LYP", 
		 "basiset": "6-31G**", 
		 "properties": { 
			 "R2extent": 4123.5313, 
			 "electric_dipole_moment_norm": 4.91226553232, 
			 "electric_quadrupole_moment_norm": 27.5948359863, 
			 "total_energy": -688.775636344, 
			 "HOMO_LUMO_gap": 0.23343, 
			 "cosmo_polarized_energy": -20.03, 
			 "cosmo_cavitation_energy": 33.3, 
			 "cosmo_dispersion_energy": -22.68, 
			 "cosmo_repulsion_energy": 1.76, 
			 "cosmo_total_nonelectrostatic_energy": 12.37, 
			 "SMD_solvation_energy": 5.02 
		},
		"coords": [
			{
				"x": 1.9060422009,
				"y": -2.3949889508,
				"z": -0.0456107824,
				"element": "C" 
			},
			{
				"x": 1.135258414,
				"y": -1.7211847664,
				"z": 1.0952065363,
				"element": "C" 
			},
			{
				"x": -0.2902895028,
				"y": -1.2680291279,
				"z": 0.7455403932,
				"element": "C" 
			},
			{
				"x": -0.4977348692,
				"y": -0.2798683504,
				"z": -0.4156942207,
				"element": "C" 
			},
			{
				"x": -0.2563361434,
				"y": 1.2007167426,
				"z": -0.0658238963,
				"element": "C" 
			},
			{
				"x": -0.5322651536,
				"y": 2.1607489494,
				"z": -1.1833487082,
				"element": "C" 
			},
			{
				"x": -1.633879528,
				"y": 2.9409851527,
				"z": -1.459082351,
				"element": "C" 
			},
			{
				"x": -1.4621460116,
				"y": 3.660639909,
				"z": -2.6178375399,
				"element": "N" 
			},
			{
				"x": -0.2661054135,
				"y": 3.3254575385,
				"z": -3.0461976282,
				"element": "C" 
			},
			{
				"x": 0.3513893065,
				"y": 2.4184457304,
				"z": -2.2250187235,
				"element": "N" 
			},
			{
				"x": 1.6901708353,
				"y": 1.8841354449,
				"z": -2.40135235,
				"element": "C" 
			},
			{
				"x": -1.9459482182,
				"y": -0.5969504276,
				"z": -0.8267961592,
				"element": "C" 
			},
			{
				"x": -2.1326114949,
				"y": -1.9997284224,
				"z": -0.5449925286,
				"element": "O" 
			},
			{
				"x": -1.2090126304,
				"y": -2.4299298168,
				"z": 0.3598247349,
				"element": "C" 
			},
			{
				"x": -1.1748884706,
				"y": -3.5660018981,
				"z": 0.7590211148,
				"element": "O" 
			},
			{
				"x": 1.3685772262,
				"y": -3.2729492661,
				"z": -0.4159428766,
				"element": "H" 
			},
			{
				"x": 2.078408162,
				"y": -1.7182753458,
				"z": -0.8897836898,
				"element": "H" 
			},
			{
				"x": 2.8868312322,
				"y": -2.7303028599,
				"z": 0.3052478135,
				"element": "H" 
			},
			{
				"x": 1.6991002374,
				"y": -0.8578212949,
				"z": 1.47017537,
				"element": "H" 
			},
			{
				"x": 1.0522674608,
				"y": -2.4252938722,
				"z": 1.9301151009,
				"element": "H" 
			},
			{
				"x": -0.7395290664,
				"y": -0.8285105157,
				"z": 1.6512658758,
				"element": "H" 
			},
			{
				"x": 0.158910665,
				"y": -0.5690169404,
				"z": -1.2455966485,
				"element": "H" 
			},
			{
				"x": 0.7737208825,
				"y": 1.317127952,
				"z": 0.2963261379,
				"element": "H" 
			},
			{
				"x": -0.904162017,
				"y": 1.471423479,
				"z": 0.7768547944,
				"element": "H" 
			},
			{
				"x": -2.5390012536,
				"y": 3.0255595016,
				"z": -0.8714702856,
				"element": "H" 
			},
			{
				"x": 0.2178943239,
				"y": 3.7009555417,
				"z": -3.9387093962,
				"element": "H" 
			},
			{
				"x": 2.1426606645,
				"y": 2.3552246333,
				"z": -3.2758317754,
				"element": "H" 
			},
			{
				"x": 1.6723895173,
				"y": 0.8016460696,
				"z": -2.5625374405,
				"element": "H" 
			},
			{
				"x": 2.3171999083,
				"y": 2.1003524085,
				"z": -1.5307712207,
				"element": "H" 
			},
			{
				"x": -2.6685721848,
				"y": -0.0199017511,
				"z": -0.2350606072,
				"element": "H" 
			},
			{
				"x": -2.1560390787,
				"y": -0.4359654466,
				"z": -1.8851190437,
				"element": "H" 
			}
		],
		 "valence_orbital": [ 
			{
				"type": "occ",
				"energy": -0.29542,
				"method": "rhf"
			},
			{
				"type": "occ",
				"energy": -0.27268,
				"method": "rhf"
			},
			{
				"type": "occ",
				"energy": -0.26841,
				"method": "rhf"
			},
			{
				"type": "occ",
				"energy": -0.26391,
				"method": "rhf"
			},
			{
				"type": "occ",
				"energy": -0.22597,
				"method": "rhf"
			},
			{
				"type": "unocc",
				"energy": 0.00746,
				"method": "rhf"
			},
			{
				"type": "unocc",
				"energy": 0.02062,
				"method": "rhf"
			},
			{
				"type": "unocc",
				"energy": 0.04649,
				"method": "rhf"
			},
			{
				"type": "unocc",
				"energy": 0.06339,
				"method": "rhf"
			},
			{
				"type": "unocc",
				"energy": 0.07671,
				"method": "rhf"
			}
		],
		"cosmo_sigma_profile": { 
			"-0.025": 0.0,
			"-0.024": 0.0,
			"-0.023": 0.0,
			"-0.022": 0.0,
			"-0.021": 0.0,
			"-0.02": 0.0,
			"-0.019": 0.0,
			"-0.018": 0.0,
			"-0.017": 0.0,
			"-0.016": 0.0,
			"-0.015": 0.0,
			"-0.014": 0.0,
			"-0.013": 0.0,
			"-0.012": 0.0,
			"-0.011": 0.0,
			"-0.01": 0.0,
			"-0.009": 0.589640257834,
			"-0.008": 3.85041758156,
			"-0.007": 8.05379853666,
			"-0.006": 20.3169928407,
			"-0.005": 26.6609639498,
			"-0.004": 28.0703722377,
			"-0.003": 28.1373587286,
			"-0.002": 21.5629444346,
			"-0.001": 18.3803963063,
			"0.0": 16.5936196274,
			"0.001": 13.7905826588,
			"0.002": 7.66086503391,
			"0.003": 5.73586054487,
			"0.004": 7.3912760559,
			"0.005": 6.25892171253,
			"0.006": 5.52886657851,
			"0.007": 4.58945627978,
			"0.008": 4.38534364895,
			"0.009": 5.13476633379,
			"0.01": 6.95434822892,
			"0.011": 5.25769960513,
			"0.012": 7.04300365303,
			"0.013": 3.01566593804,
			"0.014": 1.26374651936,
			"0.015": 1.18132058759,
			"0.016": 1.39908890725,
			"0.017": 0.825524948965,
			"0.018": 1.17903744384,
			"0.019": 0.330030769774,
			"0.02": 0.0,
			"0.021": 0.0,
			"0.022": 0.0,
			"0.023": 0.0,
			"0.024": 0.0,
			"0.025": 0.0
		}
	}
}
