{
	 "smiles": "NS(=O)(=O)C1=CC(I)=CC=C1", 
	 "Tm": 422.15, 
	 "num_atms": 17, 
	 "gaussian": { 
		 "optdone": 1, 
		 "sigma_profile": "yes", 
		 "theory": "DFT", 
		 "functional": "B3LYP", 
		 "basiset": "6-31G**", 
		 "properties": { 
			 "R2extent": 2187.4654, 
			 "electric_dipole_moment_norm": 5.37847402336, 
			 "electric_quadrupole_moment_norm": 13.3920077879, 
			 "total_energy": -846.952819687, 
			 "HOMO_LUMO_gap": 0.20352, 
			 "cosmo_polarized_energy": -18.07, 
			 "cosmo_cavitation_energy": 26.1, 
			 "cosmo_dispersion_energy": -21.06, 
			 "cosmo_repulsion_energy": 1.62, 
			 "cosmo_total_nonelectrostatic_energy": 6.66, 
			 "SMD_solvation_energy": 3.27 
		},
		"coords": [
			{
				"x": 1.6806545185,
				"y": -2.251678514,
				"z": 1.2617582836,
				"element": "N" 
			},
			{
				"x": 0.3517553823,
				"y": -1.2444724621,
				"z": 1.4527854213,
				"element": "S" 
			},
			{
				"x": 0.5290041407,
				"y": -0.5958171486,
				"z": 2.7498174756,
				"element": "O" 
			},
			{
				"x": -0.8127633682,
				"y": -2.0586696573,
				"z": 1.1137039296,
				"element": "O" 
			},
			{
				"x": 0.490915056,
				"y": 0.0413170615,
				"z": 0.1944485641,
				"element": "C" 
			},
			{
				"x": -0.0751416334,
				"y": -0.1830370871,
				"z": -1.0629131587,
				"element": "C" 
			},
			{
				"x": 0.0657141087,
				"y": 0.8050218334,
				"z": -2.0375863338,
				"element": "C" 
			},
			{
				"x": -0.7777163585,
				"y": 0.4995499012,
				"z": -3.9567537219,
				"element": "I" 
			},
			{
				"x": 0.7467328617,
				"y": 1.9946388396,
				"z": -1.7639679324,
				"element": "C" 
			},
			{
				"x": 1.288887241,
				"y": 2.1997160048,
				"z": -0.4932123246,
				"element": "C" 
			},
			{
				"x": 1.1648002174,
				"y": 1.225440551,
				"z": 0.4969548147,
				"element": "C" 
			},
			{
				"x": 2.5647088443,
				"y": -1.7944880799,
				"z": 1.4593750499,
				"element": "H" 
			},
			{
				"x": 1.6742192464,
				"y": -2.7642016487,
				"z": 0.3859325551,
				"element": "H" 
			},
			{
				"x": -0.626878472,
				"y": -1.0961108426,
				"z": -1.2532687716,
				"element": "H" 
			},
			{
				"x": 0.8462607429,
				"y": 2.7570570978,
				"z": -2.5282603443,
				"element": "H" 
			},
			{
				"x": 1.8039051588,
				"y": 3.1306321882,
				"z": -0.2762474045,
				"element": "H" 
			},
			{
				"x": 1.5592423135,
				"y": 1.3820019629,
				"z": 1.4949338977,
				"element": "H" 
			}
		],
		 "valence_orbital": [ 
			{
				"type": "occ",
				"energy": -0.31067,
				"method": "rhf"
			},
			{
				"type": "occ",
				"energy": -0.31043,
				"method": "rhf"
			},
			{
				"type": "occ",
				"energy": -0.28296,
				"method": "rhf"
			},
			{
				"type": "occ",
				"energy": -0.28162,
				"method": "rhf"
			},
			{
				"type": "occ",
				"energy": -0.25822,
				"method": "rhf"
			},
			{
				"type": "unocc",
				"energy": -0.0547,
				"method": "rhf"
			},
			{
				"type": "unocc",
				"energy": -0.05306,
				"method": "rhf"
			},
			{
				"type": "unocc",
				"energy": -0.04081,
				"method": "rhf"
			},
			{
				"type": "unocc",
				"energy": 0.03188,
				"method": "rhf"
			},
			{
				"type": "unocc",
				"energy": 0.04053,
				"method": "rhf"
			}
		],
		"cosmo_sigma_profile": { 
			"-0.025": 0.0,
			"-0.024": 0.0,
			"-0.023": 0.0,
			"-0.022": 0.0,
			"-0.021": 0.0,
			"-0.02": 0.0,
			"-0.019": 0.0,
			"-0.018": 0.0,
			"-0.017": 0.0,
			"-0.016": 0.31175002957,
			"-0.015": 2.27929291262,
			"-0.014": 3.00770764485,
			"-0.013": 2.95633048891,
			"-0.012": 2.65734030297,
			"-0.011": 3.1949165044,
			"-0.01": 2.00881622836,
			"-0.009": 1.64818138666,
			"-0.008": 4.49968177853,
			"-0.007": 10.7879949918,
			"-0.006": 11.7471988572,
			"-0.005": 9.05218833641,
			"-0.004": 8.8454961575,
			"-0.003": 9.22043415817,
			"-0.002": 8.40963862276,
			"-0.001": 10.8239990171,
			"0.0": 14.0562555926,
			"0.001": 21.3526430627,
			"0.002": 18.2028228674,
			"0.003": 12.4004132919,
			"0.004": 13.4453052775,
			"0.005": 4.16803403069,
			"0.006": 3.83750437334,
			"0.007": 4.38545634554,
			"0.008": 5.17379337955,
			"0.009": 2.84527259268,
			"0.01": 8.73037977225,
			"0.011": 10.7591825672,
			"0.012": 3.29534056792,
			"0.013": 0.0646050160216,
			"0.014": 0.0,
			"0.015": 0.0,
			"0.016": 0.0,
			"0.017": 0.0,
			"0.018": 0.0,
			"0.019": 0.0,
			"0.02": 0.0,
			"0.021": 0.0,
			"0.022": 0.0,
			"0.023": 0.0,
			"0.024": 0.0,
			"0.025": 0.0
		}
	}
}
