{
	 "smiles": "CNC1=C(C=O)C(=O)N(C)C(=O)N1C", 
	 "Tm": 476.15, 
	 "num_atms": 25, 
	 "gaussian": { 
		 "optdone": 1, 
		 "sigma_profile": "yes", 
		 "theory": "DFT", 
		 "functional": "B3LYP", 
		 "basiset": "6-31G**", 
		 "properties": { 
			 "R2extent": 2860.6577, 
			 "electric_dipole_moment_norm": 4.86589298177, 
			 "electric_quadrupole_moment_norm": 14.3431438067, 
			 "total_energy": -701.444155846, 
			 "HOMO_LUMO_gap": 0.18359, 
			 "cosmo_polarized_energy": -15.8, 
			 "cosmo_cavitation_energy": 27.84, 
			 "cosmo_dispersion_energy": -20.63, 
			 "cosmo_repulsion_energy": 1.57, 
			 "cosmo_total_nonelectrostatic_energy": 8.78, 
			 "SMD_solvation_energy": 6.53 
		},
		"coords": [
			{
				"x": -2.0131718822,
				"y": 0.1407044286,
				"z": -2.1983692988,
				"element": "C" 
			},
			{
				"x": -1.1540417026,
				"y": -0.8526540553,
				"z": -1.5546427525,
				"element": "N" 
			},
			{
				"x": -0.3261824314,
				"y": -0.6651376147,
				"z": -0.5051914928,
				"element": "C" 
			},
			{
				"x": 0.8798954146,
				"y": -1.389482128,
				"z": -0.4364199412,
				"element": "C" 
			},
			{
				"x": 1.2759001157,
				"y": -2.301869848,
				"z": -1.48197963,
				"element": "C" 
			},
			{
				"x": 0.6031984247,
				"y": -2.5867980674,
				"z": -2.4862387974,
				"element": "O" 
			},
			{
				"x": 1.8124760388,
				"y": -1.1775777025,
				"z": 0.6543143165,
				"element": "C" 
			},
			{
				"x": 2.8794064647,
				"y": -1.7659228515,
				"z": 0.7865700027,
				"element": "O" 
			},
			{
				"x": 1.4352150033,
				"y": -0.1730973802,
				"z": 1.5836065049,
				"element": "N" 
			},
			{
				"x": 2.3451214144,
				"y": 0.1474982687,
				"z": 2.6887866473,
				"element": "C" 
			},
			{
				"x": 0.2339577935,
				"y": 0.5009271258,
				"z": 1.5716684598,
				"element": "C" 
			},
			{
				"x": -0.0747497569,
				"y": 1.3057320062,
				"z": 2.4364864052,
				"element": "O" 
			},
			{
				"x": -0.660275097,
				"y": 0.2050400108,
				"z": 0.5108399803,
				"element": "N" 
			},
			{
				"x": -2.0377101291,
				"y": 0.6859220068,
				"z": 0.7064119078,
				"element": "C" 
			},
			{
				"x": -3.0353549614,
				"y": 0.1383879579,
				"z": -1.8096338878,
				"element": "H" 
			},
			{
				"x": -2.0585676549,
				"y": -0.1101323606,
				"z": -3.2600731781,
				"element": "H" 
			},
			{
				"x": -1.6035536927,
				"y": 1.1513726259,
				"z": -2.1097417817,
				"element": "H" 
			},
			{
				"x": -0.7526330984,
				"y": -1.5733023353,
				"z": -2.1774468569,
				"element": "H" 
			},
			{
				"x": 2.2648099251,
				"y": -2.7618156489,
				"z": -1.3304834003,
				"element": "H" 
			},
			{
				"x": 1.8776567601,
				"y": -0.0970128832,
				"z": 3.6453064322,
				"element": "H" 
			},
			{
				"x": 3.244777341,
				"y": -0.445470549,
				"z": 2.5422470174,
				"element": "H" 
			},
			{
				"x": 2.5775046475,
				"y": 1.2141454776,
				"z": 2.6798001258,
				"element": "H" 
			},
			{
				"x": -2.148282543,
				"y": 0.9255931259,
				"z": 1.7614313927,
				"element": "H" 
			},
			{
				"x": -2.7340979794,
				"y": -0.1048651451,
				"z": 0.4255661471,
				"element": "H" 
			},
			{
				"x": -2.2448984143,
				"y": 1.5884155355,
				"z": 0.1277856777,
				"element": "H" 
			}
		],
		 "valence_orbital": [ 
			{
				"type": "occ",
				"energy": -0.28837,
				"method": "rhf"
			},
			{
				"type": "occ",
				"energy": -0.27293,
				"method": "rhf"
			},
			{
				"type": "occ",
				"energy": -0.26658,
				"method": "rhf"
			},
			{
				"type": "occ",
				"energy": -0.24881,
				"method": "rhf"
			},
			{
				"type": "occ",
				"energy": -0.23386,
				"method": "rhf"
			},
			{
				"type": "unocc",
				"energy": -0.05027,
				"method": "rhf"
			},
			{
				"type": "unocc",
				"energy": -0.01144,
				"method": "rhf"
			},
			{
				"type": "unocc",
				"energy": 0.02815,
				"method": "rhf"
			},
			{
				"type": "unocc",
				"energy": 0.06765,
				"method": "rhf"
			},
			{
				"type": "unocc",
				"energy": 0.09491,
				"method": "rhf"
			}
		],
		"cosmo_sigma_profile": { 
			"-0.025": 0.0,
			"-0.024": 0.0,
			"-0.023": 0.0,
			"-0.022": 0.0,
			"-0.021": 0.0,
			"-0.02": 0.0,
			"-0.019": 0.0,
			"-0.018": 0.0,
			"-0.017": 0.0,
			"-0.016": 0.0,
			"-0.015": 0.0,
			"-0.014": 0.0,
			"-0.013": 0.0,
			"-0.012": 0.0,
			"-0.011": 0.0,
			"-0.01": 0.0185873544949,
			"-0.009": 0.527913025117,
			"-0.008": 1.80468571417,
			"-0.007": 8.99988421611,
			"-0.006": 14.9576152341,
			"-0.005": 22.9170476456,
			"-0.004": 24.0809563848,
			"-0.003": 27.9796717948,
			"-0.002": 21.166070231,
			"-0.001": 13.0158475558,
			"0.0": 12.6900063887,
			"0.001": 8.95637582626,
			"0.002": 4.99380675958,
			"0.003": 4.83682592646,
			"0.004": 5.55939318188,
			"0.005": 4.60111088459,
			"0.006": 4.80848719557,
			"0.007": 3.88041301227,
			"0.008": 3.57457571877,
			"0.009": 5.06136550877,
			"0.01": 4.48142780852,
			"0.011": 6.5387228085,
			"0.012": 9.74693663151,
			"0.013": 5.36731847046,
			"0.014": 0.691153673127,
			"0.015": 0.0,
			"0.016": 0.0,
			"0.017": 0.0,
			"0.018": 0.0,
			"0.019": 0.0,
			"0.02": 0.0,
			"0.021": 0.0,
			"0.022": 0.0,
			"0.023": 0.0,
			"0.024": 0.0,
			"0.025": 0.0
		}
	}
}
