{
	 "smiles": "CN1N=C(C)C(CC(O)=O)=C1Cl", 
	 "Tm": 443.15, 
	 "num_atms": 21, 
	 "gaussian": { 
		 "optdone": 1, 
		 "sigma_profile": "yes", 
		 "theory": "DFT", 
		 "functional": "B3LYP", 
		 "basiset": "6-31G**", 
		 "properties": { 
			 "R2extent": 3677.9158, 
			 "electric_dipole_moment_norm": 1.54121426479, 
			 "electric_quadrupole_moment_norm": 13.9630988806, 
			 "total_energy": -992.312132747, 
			 "HOMO_LUMO_gap": 0.24218, 
			 "cosmo_polarized_energy": -12.37, 
			 "cosmo_cavitation_energy": 27.18, 
			 "cosmo_dispersion_energy": -19.45, 
			 "cosmo_repulsion_energy": 1.58, 
			 "cosmo_total_nonelectrostatic_energy": 9.31, 
			 "SMD_solvation_energy": 4.82 
		},
		"coords": [
			{
				"x": -0.2223770614,
				"y": -2.8332773779,
				"z": -1.1785158548,
				"element": "C" 
			},
			{
				"x": 0.2403679551,
				"y": -1.4691562273,
				"z": -1.008760577,
				"element": "N" 
			},
			{
				"x": -0.5260828146,
				"y": -0.4281639187,
				"z": -1.4219714135,
				"element": "N" 
			},
			{
				"x": 0.1687390789,
				"y": 0.6719280754,
				"z": -1.1300936113,
				"element": "C" 
			},
			{
				"x": -0.3764060892,
				"y": 2.0256797395,
				"z": -1.4635546194,
				"element": "C" 
			},
			{
				"x": 1.4109093808,
				"y": 0.3575203312,
				"z": -0.5147160382,
				"element": "C" 
			},
			{
				"x": 2.4774103004,
				"y": 1.2765284155,
				"z": -0.0145175008,
				"element": "C" 
			},
			{
				"x": 3.2308894209,
				"y": 2.0224950048,
				"z": -1.1065505405,
				"element": "C" 
			},
			{
				"x": 4.3349649361,
				"y": 2.6232255708,
				"z": -0.5987867946,
				"element": "O" 
			},
			{
				"x": 2.912584365,
				"y": 2.1189181357,
				"z": -2.2698171641,
				"element": "O" 
			},
			{
				"x": 1.4011193736,
				"y": -1.0247030273,
				"z": -0.4646318046,
				"element": "C" 
			},
			{
				"x": 2.5907232542,
				"y": -2.116072149,
				"z": 0.1613910027,
				"element": "Cl" 
			},
			{
				"x": -1.1967433366,
				"y": -2.7729355249,
				"z": -1.6612210769,
				"element": "H" 
			},
			{
				"x": 0.4655730806,
				"y": -3.4037130199,
				"z": -1.8093406423,
				"element": "H" 
			},
			{
				"x": -0.3210299396,
				"y": -3.3371413157,
				"z": -0.2124320088,
				"element": "H" 
			},
			{
				"x": -0.4608960961,
				"y": 2.6568861575,
				"z": -0.5705443189,
				"element": "H" 
			},
			{
				"x": 0.2781590253,
				"y": 2.5399549698,
				"z": -2.1737211172,
				"element": "H" 
			},
			{
				"x": -1.3700635237,
				"y": 1.9229409817,
				"z": -1.9049999213,
				"element": "H" 
			},
			{
				"x": 2.0576263159,
				"y": 2.0466323561,
				"z": 0.6479312954,
				"element": "H" 
			},
			{
				"x": 3.2097781622,
				"y": 0.735368965,
				"z": 0.5924759968,
				"element": "H" 
			},
			{
				"x": 4.7467542123,
				"y": 3.1007838576,
				"z": -1.3385232906,
				"element": "H" 
			}
		],
		 "valence_orbital": [ 
			{
				"type": "occ",
				"energy": -0.32217,
				"method": "rhf"
			},
			{
				"type": "occ",
				"energy": -0.28419,
				"method": "rhf"
			},
			{
				"type": "occ",
				"energy": -0.28003,
				"method": "rhf"
			},
			{
				"type": "occ",
				"energy": -0.23878,
				"method": "rhf"
			},
			{
				"type": "occ",
				"energy": -0.23617,
				"method": "rhf"
			},
			{
				"type": "unocc",
				"energy": 0.00601,
				"method": "rhf"
			},
			{
				"type": "unocc",
				"energy": 0.01766,
				"method": "rhf"
			},
			{
				"type": "unocc",
				"energy": 0.03067,
				"method": "rhf"
			},
			{
				"type": "unocc",
				"energy": 0.05917,
				"method": "rhf"
			},
			{
				"type": "unocc",
				"energy": 0.0772,
				"method": "rhf"
			}
		],
		"cosmo_sigma_profile": { 
			"-0.025": 0.0,
			"-0.024": 0.0,
			"-0.023": 0.0,
			"-0.022": 0.0,
			"-0.021": 0.0,
			"-0.02": 0.0,
			"-0.019": 0.0,
			"-0.018": 0.641019914224,
			"-0.017": 0.977350069913,
			"-0.016": 0.927871517729,
			"-0.015": 0.93971832302,
			"-0.014": 0.496210790835,
			"-0.013": 0.967819331634,
			"-0.012": 0.281601287355,
			"-0.011": 0.709636749386,
			"-0.01": 0.851460483269,
			"-0.009": 0.643477781933,
			"-0.008": 0.952094615141,
			"-0.007": 5.07112803411,
			"-0.006": 10.6173567913,
			"-0.005": 14.0047624622,
			"-0.004": 17.2133107737,
			"-0.003": 21.5739469351,
			"-0.002": 16.1434060878,
			"-0.001": 16.1370064545,
			"0.0": 17.0676538817,
			"0.001": 15.7226431424,
			"0.002": 15.7045301215,
			"0.003": 13.2654736249,
			"0.004": 7.05101699761,
			"0.005": 5.58073894945,
			"0.006": 4.571015626,
			"0.007": 5.23398128153,
			"0.008": 3.92719198639,
			"0.009": 5.2224515919,
			"0.01": 4.12163668927,
			"0.011": 4.08339690474,
			"0.012": 4.02372938198,
			"0.013": 0.91978613395,
			"0.014": 1.31186985966,
			"0.015": 0.522265843539,
			"0.016": 0.0365706443375,
			"0.017": 0.0,
			"0.018": 0.0,
			"0.019": 0.0,
			"0.02": 0.0,
			"0.021": 0.0,
			"0.022": 0.0,
			"0.023": 0.0,
			"0.024": 0.0,
			"0.025": 0.0
		}
	}
}
