{
	 "smiles": "COC1=C(OC)C=C(C=C1)C(C)(C)C(O)=O", 
	 "Tm": 358.15, 
	 "num_atms": 32, 
	 "gaussian": { 
		 "optdone": 1, 
		 "sigma_profile": "yes", 
		 "theory": "DFT", 
		 "functional": "B3LYP", 
		 "basiset": "6-31G**", 
		 "properties": { 
			 "R2extent": 4160.7526, 
			 "electric_dipole_moment_norm": 3.34039270296, 
			 "electric_quadrupole_moment_norm": 10.7275891057, 
			 "total_energy": -767.804298174, 
			 "HOMO_LUMO_gap": 0.20505, 
			 "cosmo_polarized_energy": -13.24, 
			 "cosmo_cavitation_energy": 34.36, 
			 "cosmo_dispersion_energy": -23.84, 
			 "cosmo_repulsion_energy": 1.87, 
			 "cosmo_total_nonelectrostatic_energy": 12.4, 
			 "SMD_solvation_energy": 8.72 
		},
		"coords": [
			{
				"x": -1.8685325883,
				"y": 0.6153961356,
				"z": 3.6302237588,
				"element": "C" 
			},
			{
				"x": -1.015791112,
				"y": 1.4821618743,
				"z": 2.8790297228,
				"element": "O" 
			},
			{
				"x": -0.6787047055,
				"y": 1.0546240693,
				"z": 1.6190543678,
				"element": "C" 
			},
			{
				"x": 0.1503975719,
				"y": -0.0706839944,
				"z": 1.4059151232,
				"element": "C" 
			},
			{
				"x": 0.5630132759,
				"y": -0.7333021566,
				"z": 2.528207728,
				"element": "O" 
			},
			{
				"x": 1.4335932644,
				"y": -1.8422744821,
				"z": 2.3714007775,
				"element": "C" 
			},
			{
				"x": 0.5046865719,
				"y": -0.4290587417,
				"z": 0.1053469475,
				"element": "C" 
			},
			{
				"x": 0.0678473175,
				"y": 0.315685724,
				"z": -1.0071167703,
				"element": "C" 
			},
			{
				"x": -0.7285189085,
				"y": 1.4394000997,
				"z": -0.7801790014,
				"element": "C" 
			},
			{
				"x": -1.1011824293,
				"y": 1.7924603153,
				"z": 0.5207056313,
				"element": "C" 
			},
			{
				"x": 0.4716781523,
				"y": -0.1355164022,
				"z": -2.4304361858,
				"element": "C" 
			},
			{
				"x": -0.0725295792,
				"y": 0.798814397,
				"z": -3.5253985899,
				"element": "C" 
			},
			{
				"x": -0.0404232587,
				"y": -1.5711366079,
				"z": -2.6961513872,
				"element": "C" 
			},
			{
				"x": 2.0064359098,
				"y": -0.072093151,
				"z": -2.506114062,
				"element": "C" 
			},
			{
				"x": 2.613943427,
				"y": -1.1976079073,
				"z": -2.0425530572,
				"element": "O" 
			},
			{
				"x": 2.6499575886,
				"y": 0.8689531095,
				"z": -2.9142113915,
				"element": "O" 
			},
			{
				"x": -2.8170258603,
				"y": 0.4465460096,
				"z": 3.1033293847,
				"element": "H" 
			},
			{
				"x": -1.3881544384,
				"y": -0.3458213887,
				"z": 3.8340380611,
				"element": "H" 
			},
			{
				"x": -2.0694038114,
				"y": 1.1300858095,
				"z": 4.5722297893,
				"element": "H" 
			},
			{
				"x": 1.6490005769,
				"y": -2.1998550094,
				"z": 3.3794995651,
				"element": "H" 
			},
			{
				"x": 2.3721377384,
				"y": -1.5523684142,
				"z": 1.8823181822,
				"element": "H" 
			},
			{
				"x": 0.9647055128,
				"y": -2.6496299223,
				"z": 1.7939657686,
				"element": "H" 
			},
			{
				"x": 1.1503330685,
				"y": -1.2826911878,
				"z": -0.0549319562,
				"element": "H" 
			},
			{
				"x": -1.0757507268,
				"y": 2.0504068188,
				"z": -1.6038349984,
				"element": "H" 
			},
			{
				"x": -1.7230022425,
				"y": 2.6629440368,
				"z": 0.7046552946,
				"element": "H" 
			},
			{
				"x": 0.3051397769,
				"y": 1.8157103277,
				"z": -3.4090039158,
				"element": "H" 
			},
			{
				"x": -1.1657337138,
				"y": 0.813408702,
				"z": -3.5067887091,
				"element": "H" 
			},
			{
				"x": 0.2433451731,
				"y": 0.4401746579,
				"z": -4.5091834342,
				"element": "H" 
			},
			{
				"x": 0.2709712384,
				"y": -1.9167272398,
				"z": -3.6874992745,
				"element": "H" 
			},
			{
				"x": -1.1338576525,
				"y": -1.5760442628,
				"z": -2.659579178,
				"element": "H" 
			},
			{
				"x": 0.3294489605,
				"y": -2.285165797,
				"z": -1.9594966101,
				"element": "H" 
			},
			{
				"x": 3.5680759025,
				"y": -1.0206954219,
				"z": -2.1049415808,
				"element": "H" 
			}
		],
		 "valence_orbital": [ 
			{
				"type": "occ",
				"energy": -0.31386,
				"method": "rhf"
			},
			{
				"type": "occ",
				"energy": -0.27501,
				"method": "rhf"
			},
			{
				"type": "occ",
				"energy": -0.26907,
				"method": "rhf"
			},
			{
				"type": "occ",
				"energy": -0.23609,
				"method": "rhf"
			},
			{
				"type": "occ",
				"energy": -0.21257,
				"method": "rhf"
			},
			{
				"type": "unocc",
				"energy": -0.00752,
				"method": "rhf"
			},
			{
				"type": "unocc",
				"energy": 0.00675,
				"method": "rhf"
			},
			{
				"type": "unocc",
				"energy": 0.02741,
				"method": "rhf"
			},
			{
				"type": "unocc",
				"energy": 0.07138,
				"method": "rhf"
			},
			{
				"type": "unocc",
				"energy": 0.09271,
				"method": "rhf"
			}
		],
		"cosmo_sigma_profile": { 
			"-0.025": 0.0,
			"-0.024": 0.0,
			"-0.023": 0.0,
			"-0.022": 0.0,
			"-0.021": 0.0,
			"-0.02": 0.0,
			"-0.019": 0.0026488506411,
			"-0.018": 0.575843981466,
			"-0.017": 0.957112506175,
			"-0.016": 0.595391254398,
			"-0.015": 0.951399536206,
			"-0.014": 0.909461543275,
			"-0.013": 0.557694324292,
			"-0.012": 0.58208457072,
			"-0.011": 0.771043670292,
			"-0.01": 0.778083627645,
			"-0.009": 0.496010889134,
			"-0.008": 0.466657817343,
			"-0.007": 1.11108470514,
			"-0.006": 5.92888628722,
			"-0.005": 17.6073965086,
			"-0.004": 29.0544739342,
			"-0.003": 32.8558182134,
			"-0.002": 26.8865282951,
			"-0.001": 19.1511217816,
			"0.0": 23.0074000241,
			"0.001": 18.5770781999,
			"0.002": 13.2793412267,
			"0.003": 14.2243483188,
			"0.004": 14.0062936796,
			"0.005": 10.5674601854,
			"0.006": 7.02106755076,
			"0.007": 5.10988717921,
			"0.008": 4.18615029935,
			"0.009": 3.03879971701,
			"0.01": 4.65129824622,
			"0.011": 6.57317231883,
			"0.012": 5.42867616197,
			"0.013": 0.160023772451,
			"0.014": 0.0,
			"0.015": 0.0,
			"0.016": 0.0,
			"0.017": 0.0,
			"0.018": 0.0,
			"0.019": 0.0,
			"0.02": 0.0,
			"0.021": 0.0,
			"0.022": 0.0,
			"0.023": 0.0,
			"0.024": 0.0,
			"0.025": 0.0
		}
	}
}
