{
	 "smiles": "ClC1=CC2=C(C=C1Cl)C1=CC(Cl)=C(Cl)C=C21", 
	 "Tm": 511.15, 
	 "num_atms": 20, 
	 "gaussian": { 
		 "optdone": 1, 
		 "sigma_profile": "yes", 
		 "theory": "DFT", 
		 "functional": "B3LYP", 
		 "basiset": "6-31G**", 
		 "properties": { 
			 "R2extent": 7819.1736, 
			 "electric_dipole_moment_norm": 0.0, 
			 "electric_quadrupole_moment_norm": 17.4434342777, 
			 "total_energy": -2300.38574961, 
			 "HOMO_LUMO_gap": 0.14324, 
			 "cosmo_polarized_energy": -5.96, 
			 "cosmo_cavitation_energy": 32.49, 
			 "cosmo_dispersion_energy": -24.47, 
			 "cosmo_repulsion_energy": 1.89, 
			 "cosmo_total_nonelectrostatic_energy": 9.91, 
			 "SMD_solvation_energy": 3.61 
		},
		"coords": [
			{
				"x": 2.8333765331,
				"y": -4.2141350235,
				"z": 0.4607190587,
				"element": "Cl" 
			},
			{
				"x": 1.5449310575,
				"y": -3.047523908,
				"z": 0.6248908289,
				"element": "C" 
			},
			{
				"x": 1.7508364638,
				"y": -1.7646628416,
				"z": 0.0468949583,
				"element": "C" 
			},
			{
				"x": 0.7243112326,
				"y": -0.8694528071,
				"z": 0.1905743242,
				"element": "C" 
			},
			{
				"x": -0.4795794492,
				"y": -1.1948434439,
				"z": 0.8755135922,
				"element": "C" 
			},
			{
				"x": -0.69352972,
				"y": -2.4253317395,
				"z": 1.4375884112,
				"element": "C" 
			},
			{
				"x": 0.3627646756,
				"y": -3.3670461083,
				"z": 1.2974740536,
				"element": "C" 
			},
			{
				"x": 0.1240520233,
				"y": -4.9464119568,
				"z": 2.0021993691,
				"element": "Cl" 
			},
			{
				"x": -1.0081142475,
				"y": 0.1877330072,
				"z": 0.6033298953,
				"element": "C" 
			},
			{
				"x": -2.0346472763,
				"y": 1.0829372743,
				"z": 0.7469884417,
				"element": "C" 
			},
			{
				"x": -1.8287463298,
				"y": 2.3657918394,
				"z": 0.1689770287,
				"element": "C" 
			},
			{
				"x": -3.1171928528,
				"y": 3.5324019232,
				"z": 0.3331361601,
				"element": "Cl" 
			},
			{
				"x": -0.6465766897,
				"y": 2.6853107926,
				"z": -0.5036031124,
				"element": "C" 
			},
			{
				"x": -0.4078668654,
				"y": 4.2646716642,
				"z": -1.2083431511,
				"element": "Cl" 
			},
			{
				"x": 0.4097228152,
				"y": 1.7436014649,
				"z": -0.6436998926,
				"element": "C" 
			},
			{
				"x": 0.1957786008,
				"y": 0.5131198562,
				"z": -0.0816052927,
				"element": "C" 
			},
			{
				"x": 2.6805346954,
				"y": -1.5516404846,
				"z": -0.4676922226,
				"element": "H" 
			},
			{
				"x": -1.596730519,
				"y": -2.7076984323,
				"z": 1.9658095909,
				"element": "H" 
			},
			{
				"x": -2.9643470061,
				"y": 0.8699152494,
				"z": 1.2615726163,
				"element": "H" 
			},
			{
				"x": 1.3129228587,
				"y": 2.0259636742,
				"z": -1.1719246579,
				"element": "H" 
			}
		],
		 "valence_orbital": [ 
			{
				"type": "occ",
				"energy": -0.31514,
				"method": "rhf"
			},
			{
				"type": "occ",
				"energy": -0.2949,
				"method": "rhf"
			},
			{
				"type": "occ",
				"energy": -0.27918,
				"method": "rhf"
			},
			{
				"type": "occ",
				"energy": -0.2691,
				"method": "rhf"
			},
			{
				"type": "occ",
				"energy": -0.22117,
				"method": "rhf"
			},
			{
				"type": "unocc",
				"energy": -0.07793,
				"method": "rhf"
			},
			{
				"type": "unocc",
				"energy": -0.06205,
				"method": "rhf"
			},
			{
				"type": "unocc",
				"energy": -0.01068,
				"method": "rhf"
			},
			{
				"type": "unocc",
				"energy": -0.00168,
				"method": "rhf"
			},
			{
				"type": "unocc",
				"energy": -0.00131,
				"method": "rhf"
			}
		],
		"cosmo_sigma_profile": { 
			"-0.025": 0.0,
			"-0.024": 0.0,
			"-0.023": 0.0,
			"-0.022": 0.0,
			"-0.021": 0.0,
			"-0.02": 0.0,
			"-0.019": 0.0,
			"-0.018": 0.0,
			"-0.017": 0.0,
			"-0.016": 0.0,
			"-0.015": 0.0,
			"-0.014": 0.0,
			"-0.013": 0.0,
			"-0.012": 0.0,
			"-0.011": 0.0,
			"-0.01": 0.0,
			"-0.009": 2.40521951472,
			"-0.008": 7.46247377554,
			"-0.007": 6.08993508783,
			"-0.006": 8.47385782705,
			"-0.005": 8.37761771379,
			"-0.004": 8.10278217771,
			"-0.003": 11.5636568087,
			"-0.002": 14.7375946795,
			"-0.001": 24.4254031564,
			"0.0": 46.0870026679,
			"0.001": 45.0549987175,
			"0.002": 24.5943446163,
			"0.003": 27.8172029871,
			"0.004": 28.9090863441,
			"0.005": 7.99260737254,
			"0.006": 0.563912478269,
			"0.007": 0.0,
			"0.008": 0.0,
			"0.009": 0.0,
			"0.01": 0.0,
			"0.011": 0.0,
			"0.012": 0.0,
			"0.013": 0.0,
			"0.014": 0.0,
			"0.015": 0.0,
			"0.016": 0.0,
			"0.017": 0.0,
			"0.018": 0.0,
			"0.019": 0.0,
			"0.02": 0.0,
			"0.021": 0.0,
			"0.022": 0.0,
			"0.023": 0.0,
			"0.024": 0.0,
			"0.025": 0.0
		}
	}
}
