{
	 "smiles": "OC(=O)C1(Br)CCCCC1", 
	 "Tm": 331.15, 
	 "num_atms": 21, 
	 "gaussian": { 
		 "optdone": 1, 
		 "sigma_profile": "yes", 
		 "theory": "DFT", 
		 "functional": "B3LYP", 
		 "basiset": "6-31G**", 
		 "properties": { 
			 "R2extent": 2212.2955, 
			 "electric_dipole_moment_norm": 3.06795909523, 
			 "electric_quadrupole_moment_norm": 11.8892567148, 
			 "total_energy": -2995.25511298, 
			 "HOMO_LUMO_gap": 0.2265, 
			 "cosmo_polarized_energy": -8.63, 
			 "cosmo_cavitation_energy": 24.06, 
			 "cosmo_dispersion_energy": -18.34, 
			 "cosmo_repulsion_energy": 1.47, 
			 "cosmo_total_nonelectrostatic_energy": 7.19, 
			 "SMD_solvation_energy": 3.34 
		},
		"coords": [
			{
				"x": -1.6238110868,
				"y": 1.1426722331,
				"z": 2.4850183282,
				"element": "O" 
			},
			{
				"x": -0.5469051994,
				"y": 0.5247457562,
				"z": 1.9662877043,
				"element": "C" 
			},
			{
				"x": 0.3599558182,
				"y": 0.1614650562,
				"z": 2.6775553929,
				"element": "O" 
			},
			{
				"x": -0.467198002,
				"y": 0.4134119594,
				"z": 0.4295080634,
				"element": "C" 
			},
			{
				"x": -2.3346857184,
				"y": -0.0977708681,
				"z": -0.2207771769,
				"element": "Br" 
			},
			{
				"x": 0.4999188529,
				"y": -0.6787630638,
				"z": -0.0457690014,
				"element": "C" 
			},
			{
				"x": 1.9818419754,
				"y": -0.2822143082,
				"z": 0.1284815008,
				"element": "C" 
			},
			{
				"x": 2.285586311,
				"y": 1.0902479398,
				"z": -0.4871039894,
				"element": "C" 
			},
			{
				"x": 1.3384371141,
				"y": 2.1646205445,
				"z": 0.0644346634,
				"element": "C" 
			},
			{
				"x": -0.1333862114,
				"y": 1.7846526479,
				"z": -0.1890630958,
				"element": "C" 
			},
			{
				"x": -2.3168251287,
				"y": 1.212350957,
				"z": 1.8050691036,
				"element": "H" 
			},
			{
				"x": 0.2887321048,
				"y": -1.6120816145,
				"z": 0.4831281005,
				"element": "H" 
			},
			{
				"x": 0.2983180437,
				"y": -0.8524267858,
				"z": -1.108431159,
				"element": "H" 
			},
			{
				"x": 2.2240368604,
				"y": -0.2724652585,
				"z": 1.1938838648,
				"element": "H" 
			},
			{
				"x": 2.599881613,
				"y": -1.0562760063,
				"z": -0.3411056627,
				"element": "H" 
			},
			{
				"x": 3.3268795919,
				"y": 1.3678893702,
				"z": -0.2885118708,
				"element": "H" 
			},
			{
				"x": 2.1765433077,
				"y": 1.0409360929,
				"z": -1.5800543083,
				"element": "H" 
			},
			{
				"x": 1.511700689,
				"y": 2.2948309748,
				"z": 1.1396250205,
				"element": "H" 
			},
			{
				"x": 1.5331234544,
				"y": 3.134698719,
				"z": -0.4066161725,
				"element": "H" 
			},
			{
				"x": -0.3115008333,
				"y": 1.719999061,
				"z": -1.2679652489,
				"element": "H" 
			},
			{
				"x": -0.8101435562,
				"y": 2.5495765935,
				"z": 0.2045059435,
				"element": "H" 
			}
		],
		 "valence_orbital": [ 
			{
				"type": "occ",
				"energy": -0.32421,
				"method": "rhf"
			},
			{
				"type": "occ",
				"energy": -0.31963,
				"method": "rhf"
			},
			{
				"type": "occ",
				"energy": -0.29978,
				"method": "rhf"
			},
			{
				"type": "occ",
				"energy": -0.29292,
				"method": "rhf"
			},
			{
				"type": "occ",
				"energy": -0.27361,
				"method": "rhf"
			},
			{
				"type": "unocc",
				"energy": -0.04711,
				"method": "rhf"
			},
			{
				"type": "unocc",
				"energy": 0.01363,
				"method": "rhf"
			},
			{
				"type": "unocc",
				"energy": 0.07515,
				"method": "rhf"
			},
			{
				"type": "unocc",
				"energy": 0.09447,
				"method": "rhf"
			},
			{
				"type": "unocc",
				"energy": 0.1097,
				"method": "rhf"
			}
		],
		"cosmo_sigma_profile": { 
			"-0.025": 0.0,
			"-0.024": 0.0,
			"-0.023": 0.0,
			"-0.022": 0.0,
			"-0.021": 0.0,
			"-0.02": 0.0,
			"-0.019": 0.0,
			"-0.018": 0.0,
			"-0.017": 0.0,
			"-0.016": 0.011745718736,
			"-0.015": 0.500415420232,
			"-0.014": 0.265952083817,
			"-0.013": 0.242166611197,
			"-0.012": 1.1454580587,
			"-0.011": 1.73791872228,
			"-0.01": 1.0027825312,
			"-0.009": 0.635024874091,
			"-0.008": 1.08173979248,
			"-0.007": 1.47072968078,
			"-0.006": 1.4544627598,
			"-0.005": 6.76055291782,
			"-0.004": 14.4183970967,
			"-0.003": 23.5859562317,
			"-0.002": 26.1268419451,
			"-0.001": 24.7028759181,
			"0.0": 19.6520053455,
			"0.001": 12.4746256702,
			"0.002": 6.60803945314,
			"0.003": 8.18844454504,
			"0.004": 8.33176089236,
			"0.005": 6.02976640393,
			"0.006": 3.47605404131,
			"0.007": 2.53933416483,
			"0.008": 3.28382229443,
			"0.009": 4.03529863904,
			"0.01": 4.9063359932,
			"0.011": 3.62465222312,
			"0.012": 1.8817039683,
			"0.013": 0.164379207877,
			"0.014": 0.0,
			"0.015": 0.0,
			"0.016": 0.0,
			"0.017": 0.0,
			"0.018": 0.0,
			"0.019": 0.0,
			"0.02": 0.0,
			"0.021": 0.0,
			"0.022": 0.0,
			"0.023": 0.0,
			"0.024": 0.0,
			"0.025": 0.0
		}
	}
}
