{
	 "smiles": "CC1=CC(C)=C(CN)C(=O)N1", 
	 "Tm": 413.15, 
	 "num_atms": 23, 
	 "gaussian": { 
		 "optdone": 1, 
		 "sigma_profile": "yes", 
		 "theory": "DFT", 
		 "functional": "B3LYP", 
		 "basiset": "6-31G**", 
		 "properties": { 
			 "R2extent": 2062.4427, 
			 "electric_dipole_moment_norm": 5.61119581729, 
			 "electric_quadrupole_moment_norm": 13.1051723026, 
			 "total_energy": -496.831646888, 
			 "HOMO_LUMO_gap": 0.17161, 
			 "cosmo_polarized_energy": -15.46, 
			 "cosmo_cavitation_energy": 25.65, 
			 "cosmo_dispersion_energy": -18.8, 
			 "cosmo_repulsion_energy": 1.52, 
			 "cosmo_total_nonelectrostatic_energy": 8.36, 
			 "SMD_solvation_energy": 3.49 
		},
		"coords": [
			{
				"x": -1.9308608821,
				"y": 0.1521371322,
				"z": 3.4294083771,
				"element": "C" 
			},
			{
				"x": -1.2276216313,
				"y": 0.2712560545,
				"z": 2.1084415022,
				"element": "C" 
			},
			{
				"x": -1.270631041,
				"y": -0.6645077693,
				"z": 1.1140459891,
				"element": "C" 
			},
			{
				"x": -0.5693492698,
				"y": -0.4576657341,
				"z": -0.1182352392,
				"element": "C" 
			},
			{
				"x": -0.6843970561,
				"y": -1.5290028024,
				"z": -1.1829931628,
				"element": "C" 
			},
			{
				"x": 0.1664866121,
				"y": 0.6924074208,
				"z": -0.314128123,
				"element": "C" 
			},
			{
				"x": 0.9511765817,
				"y": 1.0220706423,
				"z": -1.5704266841,
				"element": "C" 
			},
			{
				"x": 2.4011245027,
				"y": 1.1836053155,
				"z": -1.3863166026,
				"element": "N" 
			},
			{
				"x": 0.2385984684,
				"y": 1.7016490968,
				"z": 0.734214589,
				"element": "C" 
			},
			{
				"x": 0.872082386,
				"y": 2.760970454,
				"z": 0.6744606029,
				"element": "O" 
			},
			{
				"x": -0.4898187436,
				"y": 1.4045534118,
				"z": 1.8952632907,
				"element": "N" 
			},
			{
				"x": -1.2177883137,
				"y": 0.1749612587,
				"z": 4.2623221738,
				"element": "H" 
			},
			{
				"x": -2.6369281506,
				"y": 0.9779972998,
				"z": 3.5782536717,
				"element": "H" 
			},
			{
				"x": -2.4875921063,
				"y": -0.7849792909,
				"z": 3.4843459524,
				"element": "H" 
			},
			{
				"x": -1.8483348229,
				"y": -1.5695371365,
				"z": 1.2630810421,
				"element": "H" 
			},
			{
				"x": 0.2973912855,
				"y": -1.849716151,
				"z": -1.5444698673,
				"element": "H" 
			},
			{
				"x": -1.2455113048,
				"y": -1.1691095157,
				"z": -2.052601332,
				"element": "H" 
			},
			{
				"x": -1.2030541915,
				"y": -2.4101270904,
				"z": -0.7969058268,
				"element": "H" 
			},
			{
				"x": 0.5755885968,
				"y": 1.9686348115,
				"z": -1.9766143026,
				"element": "H" 
			},
			{
				"x": 0.7799156872,
				"y": 0.2613249391,
				"z": -2.3369409991,
				"element": "H" 
			},
			{
				"x": 2.7767071314,
				"y": 0.353151619,
				"z": -0.9319332803,
				"element": "H" 
			},
			{
				"x": 2.535239538,
				"y": 1.9516955434,
				"z": -0.7310812644,
				"element": "H" 
			},
			{
				"x": -0.4327232759,
				"y": 2.1219304908,
				"z": 2.608609493,
				"element": "H" 
			}
		],
		 "valence_orbital": [ 
			{
				"type": "occ",
				"energy": -0.32304,
				"method": "rhf"
			},
			{
				"type": "occ",
				"energy": -0.28312,
				"method": "rhf"
			},
			{
				"type": "occ",
				"energy": -0.24937,
				"method": "rhf"
			},
			{
				"type": "occ",
				"energy": -0.22068,
				"method": "rhf"
			},
			{
				"type": "occ",
				"energy": -0.20506,
				"method": "rhf"
			},
			{
				"type": "unocc",
				"energy": -0.03345,
				"method": "rhf"
			},
			{
				"type": "unocc",
				"energy": 0.01959,
				"method": "rhf"
			},
			{
				"type": "unocc",
				"energy": 0.07262,
				"method": "rhf"
			},
			{
				"type": "unocc",
				"energy": 0.09297,
				"method": "rhf"
			},
			{
				"type": "unocc",
				"energy": 0.10697,
				"method": "rhf"
			}
		],
		"cosmo_sigma_profile": { 
			"-0.025": 0.0,
			"-0.024": 0.0,
			"-0.023": 0.0,
			"-0.022": 0.0,
			"-0.021": 0.0,
			"-0.02": 0.0,
			"-0.019": 0.0,
			"-0.018": 0.0,
			"-0.017": 0.0,
			"-0.016": 0.0,
			"-0.015": 0.441024792246,
			"-0.014": 1.05635394978,
			"-0.013": 1.22507482468,
			"-0.012": 1.1122705691,
			"-0.011": 0.920735140669,
			"-0.01": 1.04405977867,
			"-0.009": 1.913738465,
			"-0.008": 3.15292646151,
			"-0.007": 1.81152140732,
			"-0.006": 9.15713675953,
			"-0.005": 16.6957434633,
			"-0.004": 17.8840555553,
			"-0.003": 18.4121863406,
			"-0.002": 18.8708940213,
			"-0.001": 18.4461363417,
			"0.0": 17.2631181081,
			"0.001": 14.9960770967,
			"0.002": 9.09035016966,
			"0.003": 9.23823019583,
			"0.004": 7.01655174251,
			"0.005": 3.11954013103,
			"0.006": 2.05976003404,
			"0.007": 2.43107448996,
			"0.008": 1.13089056317,
			"0.009": 2.10836074321,
			"0.01": 2.14314866097,
			"0.011": 1.77462941973,
			"0.012": 2.83744887343,
			"0.013": 1.89340055402,
			"0.014": 3.91435736742,
			"0.015": 4.04854600655,
			"0.016": 0.949641441101,
			"0.017": 0.936511626859,
			"0.018": 0.650146521105,
			"0.019": 0.742452765417,
			"0.02": 0.402895417556,
			"0.021": 0.127057468976,
			"0.022": 0.0,
			"0.023": 0.0,
			"0.024": 0.0,
			"0.025": 0.0
		}
	}
}
