{
	 "smiles": "CC(C)(C)OC(=O)N1CCN(CCS(N)(=O)=O)CC1", 
	 "Tm": 412.15, 
	 "num_atms": 42, 
	 "gaussian": { 
		 "optdone": 1, 
		 "sigma_profile": "yes", 
		 "theory": "DFT", 
		 "functional": "B3LYP", 
		 "basiset": "6-31G**", 
		 "properties": { 
			 "R2extent": 10213.3818, 
			 "electric_dipole_moment_norm": 3.75620714152, 
			 "electric_quadrupole_moment_norm": 26.5386122022, 
			 "total_energy": -1296.32652602, 
			 "HOMO_LUMO_gap": 0.26012, 
			 "cosmo_polarized_energy": -22.07, 
			 "cosmo_cavitation_energy": 43.85, 
			 "cosmo_dispersion_energy": -30.94, 
			 "cosmo_repulsion_energy": 2.37, 
			 "cosmo_total_nonelectrostatic_energy": 15.28, 
			 "SMD_solvation_energy": 4.72 
		},
		"coords": [
			{
				"x": 0.826593468,
				"y": 1.8676329772,
				"z": 3.6661317007,
				"element": "C" 
			},
			{
				"x": 0.518467145,
				"y": 2.7822182336,
				"z": 2.4755962798,
				"element": "C" 
			},
			{
				"x": -0.6845500316,
				"y": 3.6940899191,
				"z": 2.7397962126,
				"element": "C" 
			},
			{
				"x": 1.750393531,
				"y": 3.6069950672,
				"z": 2.092662737,
				"element": "C" 
			},
			{
				"x": 0.2869587994,
				"y": 1.9754709215,
				"z": 1.2675418938,
				"element": "O" 
			},
			{
				"x": -0.7530483472,
				"y": 1.1059552977,
				"z": 1.2015542394,
				"element": "C" 
			},
			{
				"x": -1.5531988006,
				"y": 0.8783354219,
				"z": 2.0993308768,
				"element": "O" 
			},
			{
				"x": -0.7947405005,
				"y": 0.5002453004,
				"z": -0.0259302879,
				"element": "N" 
			},
			{
				"x": -1.7928080386,
				"y": -0.5477071458,
				"z": -0.2557984713,
				"element": "C" 
			},
			{
				"x": -1.1928673939,
				"y": -1.6541123611,
				"z": -1.1186292836,
				"element": "C" 
			},
			{
				"x": -0.8062268938,
				"y": -1.1251681438,
				"z": -2.4259678195,
				"element": "N" 
			},
			{
				"x": -0.0822474864,
				"y": -2.0423703009,
				"z": -3.2829496,
				"element": "C" 
			},
			{
				"x": 1.3717808961,
				"y": -2.34723032,
				"z": -2.8397602996,
				"element": "C" 
			},
			{
				"x": 2.1660087433,
				"y": -3.4954265311,
				"z": -3.984784065,
				"element": "S" 
			},
			{
				"x": 3.7102259613,
				"y": -3.6764827528,
				"z": -3.3012700247,
				"element": "N" 
			},
			{
				"x": 2.3316515489,
				"y": -2.8108217127,
				"z": -5.2723153698,
				"element": "O" 
			},
			{
				"x": 1.4769488546,
				"y": -4.7870575335,
				"z": -3.8837779127,
				"element": "O" 
			},
			{
				"x": -0.3703284287,
				"y": 0.2766761383,
				"z": -2.4243219904,
				"element": "C" 
			},
			{
				"x": 0.1940328682,
				"y": 0.7476889791,
				"z": -1.0790892552,
				"element": "C" 
			},
			{
				"x": 1.665723273,
				"y": 1.2057360359,
				"z": 3.428764172,
				"element": "H" 
			},
			{
				"x": -0.0411344219,
				"y": 1.260900403,
				"z": 3.9250675906,
				"element": "H" 
			},
			{
				"x": 1.1080591718,
				"y": 2.4744986208,
				"z": 4.5329521867,
				"element": "H" 
			},
			{
				"x": -0.901260909,
				"y": 4.3022684791,
				"z": 1.8556536673,
				"element": "H" 
			},
			{
				"x": -0.4569707373,
				"y": 4.3712738846,
				"z": 3.5695387351,
				"element": "H" 
			},
			{
				"x": -1.5689974185,
				"y": 3.1093637409,
				"z": 2.9929475829,
				"element": "H" 
			},
			{
				"x": 2.5952430218,
				"y": 2.9530645971,
				"z": 1.8572685306,
				"element": "H" 
			},
			{
				"x": 2.0384438922,
				"y": 4.2598208244,
				"z": 2.9219743186,
				"element": "H" 
			},
			{
				"x": 1.5422147697,
				"y": 4.2304892293,
				"z": 1.2180888509,
				"element": "H" 
			},
			{
				"x": -2.684726768,
				"y": -0.1363385751,
				"z": -0.7482166884,
				"element": "H" 
			},
			{
				"x": -2.1019994296,
				"y": -0.9363762514,
				"z": 0.7152649187,
				"element": "H" 
			},
			{
				"x": -0.348477706,
				"y": -2.1018590357,
				"z": -0.5624249023,
				"element": "H" 
			},
			{
				"x": -1.9361634285,
				"y": -2.4495027267,
				"z": -1.2596477449,
				"element": "H" 
			},
			{
				"x": -0.0567235825,
				"y": -1.6386987399,
				"z": -4.3002722314,
				"element": "H" 
			},
			{
				"x": -0.6346759107,
				"y": -2.9873536247,
				"z": -3.3283464232,
				"element": "H" 
			},
			{
				"x": 1.4143279984,
				"y": -2.8191510572,
				"z": -1.8553036408,
				"element": "H" 
			},
			{
				"x": 1.994521801,
				"y": -1.4488213543,
				"z": -2.8305040901,
				"element": "H" 
			},
			{
				"x": 3.8462127026,
				"y": -4.6506104749,
				"z": -3.0421268499,
				"element": "H" 
			},
			{
				"x": 4.4073505184,
				"y": -3.38011319,
				"z": -3.980043759,
				"element": "H" 
			},
			{
				"x": 0.3922845636,
				"y": 0.4239603314,
				"z": -3.1960410151,
				"element": "H" 
			},
			{
				"x": -1.2139683978,
				"y": 0.9291592659,
				"z": -2.692442696,
				"element": "H" 
			},
			{
				"x": 0.4164467997,
				"y": 1.8163409328,
				"z": -1.1240740824,
				"element": "H" 
			},
			{
				"x": 1.138824303,
				"y": 0.2299172305,
				"z": -0.8563959909,
				"element": "H" 
			}
		],
		 "valence_orbital": [ 
			{
				"type": "occ",
				"energy": -0.29529,
				"method": "rhf"
			},
			{
				"type": "occ",
				"energy": -0.2867,
				"method": "rhf"
			},
			{
				"type": "occ",
				"energy": -0.26028,
				"method": "rhf"
			},
			{
				"type": "occ",
				"energy": -0.23739,
				"method": "rhf"
			},
			{
				"type": "occ",
				"energy": -0.21445,
				"method": "rhf"
			},
			{
				"type": "unocc",
				"energy": 0.04567,
				"method": "rhf"
			},
			{
				"type": "unocc",
				"energy": 0.05337,
				"method": "rhf"
			},
			{
				"type": "unocc",
				"energy": 0.05853,
				"method": "rhf"
			},
			{
				"type": "unocc",
				"energy": 0.07796,
				"method": "rhf"
			},
			{
				"type": "unocc",
				"energy": 0.08339,
				"method": "rhf"
			}
		],
		"cosmo_sigma_profile": { 
			"-0.025": 0.0,
			"-0.024": 0.0,
			"-0.023": 0.0,
			"-0.022": 0.0,
			"-0.021": 0.0,
			"-0.02": 0.0,
			"-0.019": 0.0,
			"-0.018": 0.0,
			"-0.017": 0.0,
			"-0.016": 0.0,
			"-0.015": 0.551051380738,
			"-0.014": 2.27319497109,
			"-0.013": 2.71235821361,
			"-0.012": 2.56413353091,
			"-0.011": 2.27807479957,
			"-0.01": 1.72052732598,
			"-0.009": 1.99099571703,
			"-0.008": 2.96545087486,
			"-0.007": 8.30797890301,
			"-0.006": 9.15707204479,
			"-0.005": 14.479632665,
			"-0.004": 34.6421881571,
			"-0.003": 40.834743601,
			"-0.002": 33.1033252613,
			"-0.001": 27.8304370731,
			"0.0": 32.6641790427,
			"0.001": 26.1761382685,
			"0.002": 12.8008912267,
			"0.003": 9.43484721901,
			"0.004": 6.80321648722,
			"0.005": 5.98323926966,
			"0.006": 8.32143136013,
			"0.007": 6.34564811763,
			"0.008": 5.04019565278,
			"0.009": 5.12909554569,
			"0.01": 6.73575295717,
			"0.011": 14.6815873015,
			"0.012": 8.92840996929,
			"0.013": 3.54599849263,
			"0.014": 2.12635838963,
			"0.015": 0.00333356765755,
			"0.016": 0.0,
			"0.017": 0.0,
			"0.018": 0.0,
			"0.019": 0.0,
			"0.02": 0.0,
			"0.021": 0.0,
			"0.022": 0.0,
			"0.023": 0.0,
			"0.024": 0.0,
			"0.025": 0.0
		}
	}
}
