{
	 "smiles": "NS(=O)(=O)C1=NC=CC=C1", 
	 "Tm": 415.15, 
	 "num_atms": 16, 
	 "gaussian": { 
		 "optdone": 1, 
		 "sigma_profile": "yes", 
		 "theory": "DFT", 
		 "functional": "B3LYP", 
		 "basiset": "6-31G**", 
		 "properties": { 
			 "R2extent": 2205.1385, 
			 "electric_dipole_moment_norm": 6.47999112731, 
			 "electric_quadrupole_moment_norm": 13.5202489903, 
			 "total_energy": -852.207179756, 
			 "HOMO_LUMO_gap": 0.22326, 
			 "cosmo_polarized_energy": -18.11, 
			 "cosmo_cavitation_energy": 21.88, 
			 "cosmo_dispersion_energy": -16.91, 
			 "cosmo_repulsion_energy": 1.33, 
			 "cosmo_total_nonelectrostatic_energy": 6.29, 
			 "SMD_solvation_energy": 2.43 
		},
		"coords": [
			{
				"x": 0.8289541768,
				"y": 0.2729472839,
				"z": 0.7297004753,
				"element": "N" 
			},
			{
				"x": -0.774760959,
				"y": -0.1819756223,
				"z": 0.5679368092,
				"element": "S" 
			},
			{
				"x": -1.4953326869,
				"y": 0.9705773281,
				"z": 0.0354657331,
				"element": "O" 
			},
			{
				"x": -1.1652000305,
				"y": -0.8344636438,
				"z": 1.8186969537,
				"element": "O" 
			},
			{
				"x": -0.7692400865,
				"y": -1.4626245964,
				"z": -0.7212155963,
				"element": "C" 
			},
			{
				"x": 0.0379046705,
				"y": -1.2227197138,
				"z": -1.7517098833,
				"element": "N" 
			},
			{
				"x": 0.0318484345,
				"y": -2.1154460049,
				"z": -2.7489161079,
				"element": "C" 
			},
			{
				"x": -0.7721743686,
				"y": -3.2577751117,
				"z": -2.743261636,
				"element": "C" 
			},
			{
				"x": -1.6024325461,
				"y": -3.4884323105,
				"z": -1.6465375733,
				"element": "C" 
			},
			{
				"x": -1.6057790064,
				"y": -2.5693214569,
				"z": -0.5966435047,
				"element": "C" 
			},
			{
				"x": 1.3779200475,
				"y": -0.4608016458,
				"z": 1.1688674795,
				"element": "H" 
			},
			{
				"x": 1.2156585823,
				"y": 0.5508458974,
				"z": -0.169323084,
				"element": "H" 
			},
			{
				"x": 0.698645842,
				"y": -1.9088975062,
				"z": -3.5829552098,
				"element": "H" 
			},
			{
				"x": -0.7398479424,
				"y": -3.9492781432,
				"z": -3.5787509726,
				"element": "H" 
			},
			{
				"x": -2.2347471077,
				"y": -4.3702489885,
				"z": -1.6058888886,
				"element": "H" 
			},
			{
				"x": -2.2174170196,
				"y": -2.6965857657,
				"z": 0.2888350057,
				"element": "H" 
			}
		],
		 "valence_orbital": [ 
			{
				"type": "occ",
				"energy": -0.31544,
				"method": "rhf"
			},
			{
				"type": "occ",
				"energy": -0.3097,
				"method": "rhf"
			},
			{
				"type": "occ",
				"energy": -0.30033,
				"method": "rhf"
			},
			{
				"type": "occ",
				"energy": -0.28356,
				"method": "rhf"
			},
			{
				"type": "occ",
				"energy": -0.28173,
				"method": "rhf"
			},
			{
				"type": "unocc",
				"energy": -0.05847,
				"method": "rhf"
			},
			{
				"type": "unocc",
				"energy": -0.04434,
				"method": "rhf"
			},
			{
				"type": "unocc",
				"energy": 0.05515,
				"method": "rhf"
			},
			{
				"type": "unocc",
				"energy": 0.07743,
				"method": "rhf"
			},
			{
				"type": "unocc",
				"energy": 0.08254,
				"method": "rhf"
			}
		],
		"cosmo_sigma_profile": { 
			"-0.025": 0.0,
			"-0.024": 0.0,
			"-0.023": 0.0,
			"-0.022": 0.0,
			"-0.021": 0.0,
			"-0.02": 0.0,
			"-0.019": 0.0,
			"-0.018": 0.0,
			"-0.017": 0.0,
			"-0.016": 0.324470998744,
			"-0.015": 1.67403596961,
			"-0.014": 1.93983407372,
			"-0.013": 1.9763051833,
			"-0.012": 2.61741356832,
			"-0.011": 2.19858709191,
			"-0.01": 1.86181949027,
			"-0.009": 1.25918981745,
			"-0.008": 8.39582637491,
			"-0.007": 12.2389010633,
			"-0.006": 9.76737784328,
			"-0.005": 7.86422884383,
			"-0.004": 8.06533982502,
			"-0.003": 6.23918237289,
			"-0.002": 8.64782835316,
			"-0.001": 10.7586961133,
			"0.0": 14.7145162306,
			"0.001": 11.9819791465,
			"0.002": 4.59415017175,
			"0.003": 4.5880799627,
			"0.004": 3.17493673165,
			"0.005": 4.15910244407,
			"0.006": 5.41890258048,
			"0.007": 4.85593947929,
			"0.008": 5.86488049707,
			"0.009": 5.36981260281,
			"0.01": 9.41721855072,
			"0.011": 12.217075197,
			"0.012": 3.03337282309,
			"0.013": 0.123499725212,
			"0.014": 0.0,
			"0.015": 0.0,
			"0.016": 0.0,
			"0.017": 0.0,
			"0.018": 0.0,
			"0.019": 0.0,
			"0.02": 0.0,
			"0.021": 0.0,
			"0.022": 0.0,
			"0.023": 0.0,
			"0.024": 0.0,
			"0.025": 0.0
		}
	}
}
