{
	 "smiles": "CC(CCC(O)=O)C1CCC2C3CCC4CCCCC4(C)C3CCC12C", 
	 "Tm": 437.15, 
	 "num_atms": 66, 
	 "gaussian": { 
		 "optdone": 1, 
		 "sigma_profile": "yes", 
		 "theory": "DFT", 
		 "functional": "B3LYP", 
		 "basiset": "6-31G**", 
		 "properties": { 
			 "R2extent": 12185.6399, 
			 "electric_dipole_moment_norm": 1.59169644719, 
			 "electric_quadrupole_moment_norm": 17.2085577696, 
			 "total_energy": -1089.17027623, 
			 "HOMO_LUMO_gap": 0.27014, 
			 "cosmo_polarized_energy": -8.56, 
			 "cosmo_cavitation_energy": 54.69, 
			 "cosmo_dispersion_energy": -37.12, 
			 "cosmo_repulsion_energy": 2.73, 
			 "cosmo_total_nonelectrostatic_energy": 20.3, 
			 "SMD_solvation_energy": 8.16 
		},
		"coords": [
			{
				"x": -3.270079133,
				"y": -3.7037329463,
				"z": -0.1968668498,
				"element": "C" 
			},
			{
				"x": -2.3238968459,
				"y": -2.9268218221,
				"z": -1.1329121425,
				"element": "C" 
			},
			{
				"x": -2.347267581,
				"y": -3.5365569358,
				"z": -2.552597468,
				"element": "C" 
			},
			{
				"x": -3.7382145388,
				"y": -3.624541079,
				"z": -3.2199749018,
				"element": "C" 
			},
			{
				"x": -4.4467408878,
				"y": -2.2907930376,
				"z": -3.2853324668,
				"element": "C" 
			},
			{
				"x": -3.7582298735,
				"y": -1.3885425422,
				"z": -4.0348326818,
				"element": "O" 
			},
			{
				"x": -5.493974647,
				"y": -2.0109966666,
				"z": -2.744023385,
				"element": "O" 
			},
			{
				"x": -0.8854613941,
				"y": -2.8567797929,
				"z": -0.5493346368,
				"element": "C" 
			},
			{
				"x": -0.8456911357,
				"y": -2.4045330439,
				"z": 0.9255721688,
				"element": "C" 
			},
			{
				"x": 0.6281920194,
				"y": -2.0922568352,
				"z": 1.2009115996,
				"element": "C" 
			},
			{
				"x": 1.223511389,
				"y": -1.5674050215,
				"z": -0.1350927916,
				"element": "C" 
			},
			{
				"x": 1.6013719128,
				"y": -0.0656911995,
				"z": -0.1499622859,
				"element": "C" 
			},
			{
				"x": 2.7235659645,
				"y": 0.2584082829,
				"z": 0.8514414049,
				"element": "C" 
			},
			{
				"x": 3.0890981199,
				"y": 1.7481881773,
				"z": 0.8571634583,
				"element": "C" 
			},
			{
				"x": 1.8465140714,
				"y": 2.6189182698,
				"z": 1.0901034816,
				"element": "C" 
			},
			{
				"x": 2.1841615183,
				"y": 4.1090469953,
				"z": 1.2725237924,
				"element": "C" 
			},
			{
				"x": 0.9388988593,
				"y": 4.9284836402,
				"z": 1.6417922592,
				"element": "C" 
			},
			{
				"x": -0.1989834727,
				"y": 4.711031981,
				"z": 0.6342455366,
				"element": "C" 
			},
			{
				"x": -0.5003887531,
				"y": 3.2168095375,
				"z": 0.4282672384,
				"element": "C" 
			},
			{
				"x": 0.7374503066,
				"y": 2.3739829894,
				"z": 0.0152448291,
				"element": "C" 
			},
			{
				"x": 1.2022806961,
				"y": 2.7980741584,
				"z": -1.3970000151,
				"element": "C" 
			},
			{
				"x": 0.3677991163,
				"y": 0.8497750514,
				"z": 0.0495872196,
				"element": "C" 
			},
			{
				"x": -0.7814618438,
				"y": 0.4442296105,
				"z": -0.9264427297,
				"element": "C" 
			},
			{
				"x": -0.3891226415,
				"y": -0.6647305913,
				"z": -1.9161658209,
				"element": "C" 
			},
			{
				"x": 0.1940582864,
				"y": -1.9529984914,
				"z": -1.2763710372,
				"element": "C" 
			},
			{
				"x": 0.9525617608,
				"y": -2.7355990659,
				"z": -2.3688401266,
				"element": "C" 
			},
			{
				"x": -2.9453062332,
				"y": -4.7459546325,
				"z": -0.0830523721,
				"element": "H" 
			},
			{
				"x": -4.2929468858,
				"y": -3.7067519918,
				"z": -0.5825848695,
				"element": "H" 
			},
			{
				"x": -3.3104787999,
				"y": -3.2566633624,
				"z": 0.798765827,
				"element": "H" 
			},
			{
				"x": -2.7108837628,
				"y": -1.899974692,
				"z": -1.1985255958,
				"element": "H" 
			},
			{
				"x": -1.9281136994,
				"y": -4.5506666231,
				"z": -2.5149170089,
				"element": "H" 
			},
			{
				"x": -1.7026387987,
				"y": -2.9573617053,
				"z": -3.2159990414,
				"element": "H" 
			},
			{
				"x": -3.6099549094,
				"y": -3.9904599773,
				"z": -4.2454706124,
				"element": "H" 
			},
			{
				"x": -4.4016343215,
				"y": -4.3160270868,
				"z": -2.6988951305,
				"element": "H" 
			},
			{
				"x": -4.2745964801,
				"y": -0.5656021282,
				"z": -4.0033248529,
				"element": "H" 
			},
			{
				"x": -0.4872479279,
				"y": -3.8843027976,
				"z": -0.5724440788,
				"element": "H" 
			},
			{
				"x": -1.4653408009,
				"y": -1.5102819333,
				"z": 1.0656423314,
				"element": "H" 
			},
			{
				"x": -1.2334567629,
				"y": -3.1662059787,
				"z": 1.6082181781,
				"element": "H" 
			},
			{
				"x": 0.7524097647,
				"y": -1.3930432796,
				"z": 2.0333239937,
				"element": "H" 
			},
			{
				"x": 1.146753687,
				"y": -3.012460925,
				"z": 1.4942543586,
				"element": "H" 
			},
			{
				"x": 2.1575390921,
				"y": -2.1103885253,
				"z": -0.3258396046,
				"element": "H" 
			},
			{
				"x": 2.012311579,
				"y": 0.1325396844,
				"z": -1.1500368825,
				"element": "H" 
			},
			{
				"x": 3.6067049967,
				"y": -0.3528804379,
				"z": 0.6232533001,
				"element": "H" 
			},
			{
				"x": 2.4076750329,
				"y": -0.025243208,
				"z": 1.8644268246,
				"element": "H" 
			},
			{
				"x": 3.8269775825,
				"y": 1.947169901,
				"z": 1.6452288596,
				"element": "H" 
			},
			{
				"x": 3.5745958144,
				"y": 2.0234074573,
				"z": -0.0885585793,
				"element": "H" 
			},
			{
				"x": 1.4083315167,
				"y": 2.2848124097,
				"z": 2.0460197111,
				"element": "H" 
			},
			{
				"x": 2.9446408363,
				"y": 4.210608115,
				"z": 2.0576057164,
				"element": "H" 
			},
			{
				"x": 2.6395342057,
				"y": 4.5107893739,
				"z": 0.3573993484,
				"element": "H" 
			},
			{
				"x": 1.187517161,
				"y": 5.9943386637,
				"z": 1.7140075645,
				"element": "H" 
			},
			{
				"x": 0.5961281526,
				"y": 4.6210382272,
				"z": 2.6402219885,
				"element": "H" 
			},
			{
				"x": 0.0662597906,
				"y": 5.1759952842,
				"z": -0.3239565091,
				"element": "H" 
			},
			{
				"x": -1.1075693941,
				"y": 5.2220446826,
				"z": 0.9758811141,
				"element": "H" 
			},
			{
				"x": -1.2992566353,
				"y": 3.1063053933,
				"z": -0.3144649028,
				"element": "H" 
			},
			{
				"x": -0.8965230759,
				"y": 2.8068145166,
				"z": 1.3689212814,
				"element": "H" 
			},
			{
				"x": 0.3998663923,
				"y": 2.6634422927,
				"z": -2.1295317307,
				"element": "H" 
			},
			{
				"x": 2.0616857511,
				"y": 2.2202873433,
				"z": -1.7459894292,
				"element": "H" 
			},
			{
				"x": 1.4897946961,
				"y": 3.8515252103,
				"z": -1.434071026,
				"element": "H" 
			},
			{
				"x": 0.0104954785,
				"y": 0.6692266155,
				"z": 1.0740138572,
				"element": "H" 
			},
			{
				"x": -1.1163286485,
				"y": 1.3086000946,
				"z": -1.5089729569,
				"element": "H" 
			},
			{
				"x": -1.6592131138,
				"y": 0.1315366905,
				"z": -0.351411908,
				"element": "H" 
			},
			{
				"x": 0.3654010169,
				"y": -0.2615429395,
				"z": -2.6035145825,
				"element": "H" 
			},
			{
				"x": -1.2496172446,
				"y": -0.9052317798,
				"z": -2.5488835514,
				"element": "H" 
			},
			{
				"x": 1.3471268498,
				"y": -3.6794012922,
				"z": -1.9752537496,
				"element": "H" 
			},
			{
				"x": 0.3281997555,
				"y": -2.9710053274,
				"z": -3.2354329975,
				"element": "H" 
			},
			{
				"x": 1.8036070692,
				"y": -2.1493009547,
				"z": -2.7353559313,
				"element": "H" 
			}
		],
		 "valence_orbital": [ 
			{
				"type": "occ",
				"energy": -0.28693,
				"method": "rhf"
			},
			{
				"type": "occ",
				"energy": -0.28022,
				"method": "rhf"
			},
			{
				"type": "occ",
				"energy": -0.27024,
				"method": "rhf"
			},
			{
				"type": "occ",
				"energy": -0.26392,
				"method": "rhf"
			},
			{
				"type": "occ",
				"energy": -0.26117,
				"method": "rhf"
			},
			{
				"type": "unocc",
				"energy": 0.00897,
				"method": "rhf"
			},
			{
				"type": "unocc",
				"energy": 0.06553,
				"method": "rhf"
			},
			{
				"type": "unocc",
				"energy": 0.07347,
				"method": "rhf"
			},
			{
				"type": "unocc",
				"energy": 0.07667,
				"method": "rhf"
			},
			{
				"type": "unocc",
				"energy": 0.08696,
				"method": "rhf"
			}
		],
		"cosmo_sigma_profile": { 
			"-0.025": 0.0,
			"-0.024": 0.0,
			"-0.023": 0.0,
			"-0.022": 0.0,
			"-0.021": 0.0,
			"-0.02": 0.0,
			"-0.019": 0.0,
			"-0.018": 0.387622281007,
			"-0.017": 0.99454675,
			"-0.016": 0.985342091707,
			"-0.015": 0.328788756202,
			"-0.014": 0.985056852854,
			"-0.013": 0.538453094834,
			"-0.012": 0.625837312431,
			"-0.011": 0.702724764976,
			"-0.01": 0.928508034455,
			"-0.009": 0.919566827719,
			"-0.008": 0.3033585622,
			"-0.007": 0.634522576587,
			"-0.006": 2.12685128769,
			"-0.005": 3.52617767784,
			"-0.004": 6.07449412878,
			"-0.003": 14.8682517555,
			"-0.002": 59.3483582779,
			"-0.001": 86.7772438018,
			"0.0": 86.678375853,
			"0.001": 68.3387092636,
			"0.002": 45.9781375347,
			"0.003": 7.92400576206,
			"0.004": 4.02303775589,
			"0.005": 2.41155638926,
			"0.006": 2.54750072835,
			"0.007": 1.76293455088,
			"0.008": 2.71791496079,
			"0.009": 2.06453708956,
			"0.01": 1.98874946165,
			"0.011": 3.36817655565,
			"0.012": 4.82791115163,
			"0.013": 1.33757865599,
			"0.014": 0.0158994415469,
			"0.015": 0.0,
			"0.016": 0.0,
			"0.017": 0.0,
			"0.018": 0.0,
			"0.019": 0.0,
			"0.02": 0.0,
			"0.021": 0.0,
			"0.022": 0.0,
			"0.023": 0.0,
			"0.024": 0.0,
			"0.025": 0.0
		}
	}
}
