{
	 "smiles": "CC(=O)C1=CC2=C(NC(=O)C2(C)C)C=C1", 
	 "Tm": 461.15, 
	 "num_atms": 28, 
	 "gaussian": { 
		 "optdone": 1, 
		 "sigma_profile": "yes", 
		 "theory": "DFT", 
		 "functional": "B3LYP", 
		 "basiset": "6-31G**", 
		 "properties": { 
			 "R2extent": 4838.9046, 
			 "electric_dipole_moment_norm": 1.01494560445, 
			 "electric_quadrupole_moment_norm": 23.4808471118, 
			 "total_energy": -670.349544314, 
			 "HOMO_LUMO_gap": 0.1754, 
			 "cosmo_polarized_energy": -15.9, 
			 "cosmo_cavitation_energy": 31.46, 
			 "cosmo_dispersion_energy": -21.97, 
			 "cosmo_repulsion_energy": 1.72, 
			 "cosmo_total_nonelectrostatic_energy": 11.2, 
			 "SMD_solvation_energy": 6.57 
		},
		"coords": [
			{
				"x": 0.1115729666,
				"y": 2.8851957636,
				"z": 1.4030502381,
				"element": "C" 
			},
			{
				"x": 1.0168428464,
				"y": 2.0894525128,
				"z": 2.3310852463,
				"element": "C" 
			},
			{
				"x": 1.3965845613,
				"y": 2.5752415487,
				"z": 3.3878608127,
				"element": "O" 
			},
			{
				"x": 1.4298295337,
				"y": 0.7110407649,
				"z": 1.9283769344,
				"element": "C" 
			},
			{
				"x": 1.0156991732,
				"y": 0.1118172398,
				"z": 0.7198289646,
				"element": "C" 
			},
			{
				"x": 1.4359266112,
				"y": -1.1697420854,
				"z": 0.4089648322,
				"element": "C" 
			},
			{
				"x": 2.2731906067,
				"y": -1.8614714199,
				"z": 1.3039485353,
				"element": "C" 
			},
			{
				"x": 2.5615818221,
				"y": -3.1214986471,
				"z": 0.7810129578,
				"element": "N" 
			},
			{
				"x": 1.9538337322,
				"y": -3.3340684323,
				"z": -0.4492098098,
				"element": "C" 
			},
			{
				"x": 2.0437880947,
				"y": -4.3455096623,
				"z": -1.11605198,
				"element": "O" 
			},
			{
				"x": 1.1562449535,
				"y": -2.051368981,
				"z": -0.7954832512,
				"element": "C" 
			},
			{
				"x": -0.3341717582,
				"y": -2.418855409,
				"z": -0.944829819,
				"element": "C" 
			},
			{
				"x": 1.7033688616,
				"y": -1.4677094292,
				"z": -2.1141065864,
				"element": "C" 
			},
			{
				"x": 2.6989598973,
				"y": -1.2964253178,
				"z": 2.5047683514,
				"element": "C" 
			},
			{
				"x": 2.2659030344,
				"y": -0.0058004676,
				"z": 2.8008276997,
				"element": "C" 
			},
			{
				"x": -0.0824996017,
				"y": 3.8571467216,
				"z": 1.8572556325,
				"element": "H" 
			},
			{
				"x": 0.5798812893,
				"y": 3.0303255565,
				"z": 0.4231437189,
				"element": "H" 
			},
			{
				"x": -0.8391851965,
				"y": 2.3661968738,
				"z": 1.2378646579,
				"element": "H" 
			},
			{
				"x": 0.3696585346,
				"y": 0.6503978415,
				"z": 0.0332123927,
				"element": "H" 
			},
			{
				"x": 3.1414038825,
				"y": -3.8219673788,
				"z": 1.2204848944,
				"element": "H" 
			},
			{
				"x": -0.7426665011,
				"y": -2.8180776627,
				"z": -0.0117569231,
				"element": "H" 
			},
			{
				"x": -0.9186261688,
				"y": -1.5359705933,
				"z": -1.2225085961,
				"element": "H" 
			},
			{
				"x": -0.4509536096,
				"y": -3.1765012503,
				"z": -1.724957485,
				"element": "H" 
			},
			{
				"x": 1.615851221,
				"y": -2.2115559754,
				"z": -2.9111648638,
				"element": "H" 
			},
			{
				"x": 1.1358339928,
				"y": -0.5768760818,
				"z": -2.4013284173,
				"element": "H" 
			},
			{
				"x": 2.7560166759,
				"y": -1.1850963012,
				"z": -2.0195598082,
				"element": "H" 
			},
			{
				"x": 3.3450733938,
				"y": -1.840025778,
				"z": 3.1874300682,
				"element": "H" 
			},
			{
				"x": 2.566957151,
				"y": 0.4819060499,
				"z": 3.7218416027,
				"element": "H" 
			}
		],
		 "valence_orbital": [ 
			{
				"type": "occ",
				"energy": -0.31415,
				"method": "rhf"
			},
			{
				"type": "occ",
				"energy": -0.26526,
				"method": "rhf"
			},
			{
				"type": "occ",
				"energy": -0.26362,
				"method": "rhf"
			},
			{
				"type": "occ",
				"energy": -0.24551,
				"method": "rhf"
			},
			{
				"type": "occ",
				"energy": -0.22849,
				"method": "rhf"
			},
			{
				"type": "unocc",
				"energy": -0.05309,
				"method": "rhf"
			},
			{
				"type": "unocc",
				"energy": -0.01958,
				"method": "rhf"
			},
			{
				"type": "unocc",
				"energy": 0.00864,
				"method": "rhf"
			},
			{
				"type": "unocc",
				"energy": 0.05224,
				"method": "rhf"
			},
			{
				"type": "unocc",
				"energy": 0.07785,
				"method": "rhf"
			}
		],
		"cosmo_sigma_profile": { 
			"-0.025": 0.0,
			"-0.024": 0.0,
			"-0.023": 0.0,
			"-0.022": 0.0,
			"-0.021": 0.0,
			"-0.02": 0.0,
			"-0.019": 0.0,
			"-0.018": 0.0,
			"-0.017": 0.0,
			"-0.016": 0.788061715647,
			"-0.015": 1.48756106005,
			"-0.014": 1.49223254231,
			"-0.013": 1.39023144348,
			"-0.012": 0.710937305733,
			"-0.011": 0.762773251335,
			"-0.01": 1.53716278146,
			"-0.009": 0.914860002233,
			"-0.008": 1.37270099911,
			"-0.007": 3.438663473,
			"-0.006": 10.832953483,
			"-0.005": 17.2682501285,
			"-0.004": 22.1452461522,
			"-0.003": 19.6017301016,
			"-0.002": 23.0699148775,
			"-0.001": 24.9514239915,
			"0.0": 27.6933568407,
			"0.001": 13.4686431719,
			"0.002": 11.086668276,
			"0.003": 12.9941425348,
			"0.004": 12.010576084,
			"0.005": 3.1435437484,
			"0.006": 3.02071379846,
			"0.007": 2.7790258394,
			"0.008": 3.00469089162,
			"0.009": 2.98839875425,
			"0.01": 3.75780230204,
			"0.011": 4.61804769111,
			"0.012": 7.74217650336,
			"0.013": 7.24118329707,
			"0.014": 1.13586625711,
			"0.015": 0.0,
			"0.016": 0.0,
			"0.017": 0.0,
			"0.018": 0.0,
			"0.019": 0.0,
			"0.02": 0.0,
			"0.021": 0.0,
			"0.022": 0.0,
			"0.023": 0.0,
			"0.024": 0.0,
			"0.025": 0.0
		}
	}
}
