{
	 "smiles": "COC(=O)C1=CC2=C(O1)C=CC(CBr)=C2", 
	 "Tm": 382.15, 
	 "num_atms": 24, 
	 "gaussian": { 
		 "optdone": 1, 
		 "sigma_profile": "yes", 
		 "theory": "DFT", 
		 "functional": "B3LYP", 
		 "basiset": "6-31G**", 
		 "properties": { 
			 "R2extent": 7178.5603, 
			 "electric_dipole_moment_norm": 2.31093488658, 
			 "electric_quadrupole_moment_norm": 13.4834359549, 
			 "total_energy": -3221.6723721, 
			 "HOMO_LUMO_gap": 0.17561, 
			 "cosmo_polarized_energy": -11.63, 
			 "cosmo_cavitation_energy": 31.85, 
			 "cosmo_dispersion_energy": -23.48, 
			 "cosmo_repulsion_energy": 1.85, 
			 "cosmo_total_nonelectrostatic_energy": 10.22, 
			 "SMD_solvation_energy": 6.1 
		},
		"coords": [
			{
				"x": 5.6191287567,
				"y": 0.0489105092,
				"z": -1.6415717325,
				"element": "C" 
			},
			{
				"x": 4.3256669787,
				"y": 0.0263399393,
				"z": -1.0151052677,
				"element": "O" 
			},
			{
				"x": 3.2938420444,
				"y": 0.3024342429,
				"z": -1.8339434781,
				"element": "C" 
			},
			{
				"x": 3.3981637583,
				"y": 0.5559302558,
				"z": -3.0185986965,
				"element": "O" 
			},
			{
				"x": 1.9979898802,
				"y": 0.2661630503,
				"z": -1.1382316032,
				"element": "C" 
			},
			{
				"x": 0.75458429,
				"y": 0.4968926462,
				"z": -1.6483989735,
				"element": "C" 
			},
			{
				"x": -0.161747311,
				"y": 0.3376171654,
				"z": -0.5548578789,
				"element": "C" 
			},
			{
				"x": 0.639992366,
				"y": 0.012140682,
				"z": 0.5586490559,
				"element": "C" 
			},
			{
				"x": 1.9549942462,
				"y": -0.0324986866,
				"z": 0.2064501051,
				"element": "O" 
			},
			{
				"x": 0.1240134387,
				"y": -0.2279091554,
				"z": 1.8292542306,
				"element": "C" 
			},
			{
				"x": -1.2550700537,
				"y": -0.1321059369,
				"z": 1.9645108043,
				"element": "C" 
			},
			{
				"x": -2.0979335596,
				"y": 0.1903836866,
				"z": 0.8719768263,
				"element": "C" 
			},
			{
				"x": -3.5760203247,
				"y": 0.2626297973,
				"z": 1.0752329017,
				"element": "C" 
			},
			{
				"x": -4.164104381,
				"y": 2.036568346,
				"z": 1.8143647488,
				"element": "Br" 
			},
			{
				"x": -1.5525397493,
				"y": 0.4281536099,
				"z": -0.3891380942,
				"element": "C" 
			},
			{
				"x": 6.3298565857,
				"y": -0.1907716898,
				"z": -0.8513216766,
				"element": "H" 
			},
			{
				"x": 5.6704565274,
				"y": -0.6913756059,
				"z": -2.4438604078,
				"element": "H" 
			},
			{
				"x": 5.8262673276,
				"y": 1.037129148,
				"z": -2.0596566575,
				"element": "H" 
			},
			{
				"x": 0.5415107571,
				"y": 0.7492399363,
				"z": -2.6764772057,
				"element": "H" 
			},
			{
				"x": 0.7697379775,
				"y": -0.4770181982,
				"z": 2.6637217957,
				"element": "H" 
			},
			{
				"x": -1.7056184441,
				"y": -0.3026363875,
				"z": 2.9380428377,
				"element": "H" 
			},
			{
				"x": -3.938959045,
				"y": -0.4567621442,
				"z": 1.8071374066,
				"element": "H" 
			},
			{
				"x": -4.1330106736,
				"y": 0.1609982126,
				"z": 0.1460095296,
				"element": "H" 
			},
			{
				"x": -2.1955013924,
				"y": 0.6809465766,
				"z": -1.2273885698,
				"element": "H" 
			}
		],
		 "valence_orbital": [ 
			{
				"type": "occ",
				"energy": -0.28508,
				"method": "rhf"
			},
			{
				"type": "occ",
				"energy": -0.27465,
				"method": "rhf"
			},
			{
				"type": "occ",
				"energy": -0.27125,
				"method": "rhf"
			},
			{
				"type": "occ",
				"energy": -0.24804,
				"method": "rhf"
			},
			{
				"type": "occ",
				"energy": -0.23904,
				"method": "rhf"
			},
			{
				"type": "unocc",
				"energy": -0.06343,
				"method": "rhf"
			},
			{
				"type": "unocc",
				"energy": -0.03621,
				"method": "rhf"
			},
			{
				"type": "unocc",
				"energy": 0.00444,
				"method": "rhf"
			},
			{
				"type": "unocc",
				"energy": 0.03272,
				"method": "rhf"
			},
			{
				"type": "unocc",
				"energy": 0.08504,
				"method": "rhf"
			}
		],
		"cosmo_sigma_profile": { 
			"-0.025": 0.0,
			"-0.024": 0.0,
			"-0.023": 0.0,
			"-0.022": 0.0,
			"-0.021": 0.0,
			"-0.02": 0.0,
			"-0.019": 0.0,
			"-0.018": 0.0,
			"-0.017": 0.0,
			"-0.016": 0.0,
			"-0.015": 0.0,
			"-0.014": 0.0,
			"-0.013": 0.0,
			"-0.012": 0.0,
			"-0.011": 0.0,
			"-0.01": 0.0,
			"-0.009": 0.822893027387,
			"-0.008": 6.41110358036,
			"-0.007": 14.5530530894,
			"-0.006": 17.1567874386,
			"-0.005": 18.0117574383,
			"-0.004": 19.5653414063,
			"-0.003": 16.2280077556,
			"-0.002": 14.1366452887,
			"-0.001": 16.1719823213,
			"0.0": 18.5221414357,
			"0.001": 19.7436206032,
			"0.002": 19.1556525788,
			"0.003": 15.8757934018,
			"0.004": 12.2030568266,
			"0.005": 9.18015960346,
			"0.006": 15.2832408957,
			"0.007": 7.95735991491,
			"0.008": 2.90645912787,
			"0.009": 3.72367997278,
			"0.01": 3.74552210499,
			"0.011": 3.95724832217,
			"0.012": 3.22696251261,
			"0.013": 0.00920050449668,
			"0.014": 0.0,
			"0.015": 0.0,
			"0.016": 0.0,
			"0.017": 0.0,
			"0.018": 0.0,
			"0.019": 0.0,
			"0.02": 0.0,
			"0.021": 0.0,
			"0.022": 0.0,
			"0.023": 0.0,
			"0.024": 0.0,
			"0.025": 0.0
		}
	}
}
