{
	 "smiles": "ClC1=CC2=C(OC3=C(O2)C(Cl)=CC(Cl)=C3Cl)C=C1Cl", 
	 "Tm": 479.15, 
	 "num_atms": 22, 
	 "gaussian": { 
		 "optdone": 1, 
		 "sigma_profile": "yes", 
		 "theory": "DFT", 
		 "functional": "B3LYP", 
		 "basiset": "6-31G**", 
		 "properties": { 
			 "R2extent": 11401.8189, 
			 "electric_dipole_moment_norm": 0.921236321472, 
			 "electric_quadrupole_moment_norm": 6.08878529347, 
			 "total_energy": -2910.45742738, 
			 "HOMO_LUMO_gap": 0.174, 
			 "cosmo_polarized_energy": -6.06, 
			 "cosmo_cavitation_energy": 36.38, 
			 "cosmo_dispersion_energy": -27.54, 
			 "cosmo_repulsion_energy": 2.1, 
			 "cosmo_total_nonelectrostatic_energy": 10.95, 
			 "SMD_solvation_energy": 5.29 
		},
		"coords": [
			{
				"x": 5.3258811055,
				"y": -0.5327301062,
				"z": 3.5118011441,
				"element": "Cl" 
			},
			{
				"x": 4.1126826495,
				"y": 0.3277349879,
				"z": 2.6030227107,
				"element": "C" 
			},
			{
				"x": 2.9435461771,
				"y": -0.3499649454,
				"z": 2.2437218697,
				"element": "C" 
			},
			{
				"x": 1.958338118,
				"y": 0.3050115272,
				"z": 1.5207661996,
				"element": "C" 
			},
			{
				"x": 2.1296045994,
				"y": 1.6401527993,
				"z": 1.1498605481,
				"element": "C" 
			},
			{
				"x": 1.1692957681,
				"y": 2.3207856005,
				"z": 0.4308065063,
				"element": "O" 
			},
			{
				"x": 0.0367287766,
				"y": 1.6221270039,
				"z": 0.0971871072,
				"element": "C" 
			},
			{
				"x": -0.1329058832,
				"y": 0.282923193,
				"z": 0.4703090775,
				"element": "C" 
			},
			{
				"x": 0.8207372169,
				"y": -0.3971229743,
				"z": 1.1858162449,
				"element": "O" 
			},
			{
				"x": -1.3026313527,
				"y": -0.3853673931,
				"z": 0.1074951016,
				"element": "C" 
			},
			{
				"x": -1.519295168,
				"y": -2.0509199253,
				"z": 0.5686265611,
				"element": "Cl" 
			},
			{
				"x": -2.2955330976,
				"y": 0.2695490872,
				"z": -0.6192918384,
				"element": "C" 
			},
			{
				"x": -2.1222520176,
				"y": 1.6007162318,
				"z": -0.9878274025,
				"element": "C" 
			},
			{
				"x": -3.3836396389,
				"y": 2.3877419667,
				"z": -1.8957512833,
				"element": "Cl" 
			},
			{
				"x": -0.9521771106,
				"y": 2.2911666924,
				"z": -0.6324544856,
				"element": "C" 
			},
			{
				"x": -0.6907429118,
				"y": 3.949644324,
				"z": -1.0685985739,
				"element": "Cl" 
			},
			{
				"x": 3.2854545288,
				"y": 2.3199314323,
				"z": 1.5017227245,
				"element": "C" 
			},
			{
				"x": 4.2843407349,
				"y": 1.6672342874,
				"z": 2.2308077112,
				"element": "C" 
			},
			{
				"x": 5.7217990205,
				"y": 2.5581024562,
				"z": 2.6528795221,
				"element": "Cl" 
			},
			{
				"x": 2.7964369517,
				"y": -1.3859605307,
				"z": 2.5243572808,
				"element": "H" 
			},
			{
				"x": -3.1995174183,
				"y": -0.2576600502,
				"z": -0.8959877735,
				"element": "H" 
			},
			{
				"x": 3.4034489517,
				"y": 3.3556043354,
				"z": 1.2065310479,
				"element": "H" 
			}
		],
		 "valence_orbital": [ 
			{
				"type": "occ",
				"energy": -0.31563,
				"method": "rhf"
			},
			{
				"type": "occ",
				"energy": -0.28086,
				"method": "rhf"
			},
			{
				"type": "occ",
				"energy": -0.27715,
				"method": "rhf"
			},
			{
				"type": "occ",
				"energy": -0.25516,
				"method": "rhf"
			},
			{
				"type": "occ",
				"energy": -0.22767,
				"method": "rhf"
			},
			{
				"type": "unocc",
				"energy": -0.05367,
				"method": "rhf"
			},
			{
				"type": "unocc",
				"energy": -0.04355,
				"method": "rhf"
			},
			{
				"type": "unocc",
				"energy": -0.04036,
				"method": "rhf"
			},
			{
				"type": "unocc",
				"energy": -0.02689,
				"method": "rhf"
			},
			{
				"type": "unocc",
				"energy": -0.01066,
				"method": "rhf"
			}
		],
		"cosmo_sigma_profile": { 
			"-0.025": 0.0,
			"-0.024": 0.0,
			"-0.023": 0.0,
			"-0.022": 0.0,
			"-0.021": 0.0,
			"-0.02": 0.0,
			"-0.019": 0.0,
			"-0.018": 0.0,
			"-0.017": 0.0,
			"-0.016": 0.0,
			"-0.015": 0.0,
			"-0.014": 0.0,
			"-0.013": 0.0,
			"-0.012": 0.0,
			"-0.011": 0.0,
			"-0.01": 0.810010261316,
			"-0.009": 3.99516590259,
			"-0.008": 5.0869847037,
			"-0.007": 4.19829924747,
			"-0.006": 6.85460748864,
			"-0.005": 7.20739296493,
			"-0.004": 9.88026525287,
			"-0.003": 18.9080158736,
			"-0.002": 27.8085449002,
			"-0.001": 43.5450793567,
			"0.0": 43.0721299309,
			"0.001": 25.3717762153,
			"0.002": 27.1524588587,
			"0.003": 40.9047048094,
			"0.004": 29.1051669439,
			"0.005": 8.19618237845,
			"0.006": 3.1801795723,
			"0.007": 1.19572928205,
			"0.008": 0.0,
			"0.009": 0.0,
			"0.01": 0.0,
			"0.011": 0.0,
			"0.012": 0.0,
			"0.013": 0.0,
			"0.014": 0.0,
			"0.015": 0.0,
			"0.016": 0.0,
			"0.017": 0.0,
			"0.018": 0.0,
			"0.019": 0.0,
			"0.02": 0.0,
			"0.021": 0.0,
			"0.022": 0.0,
			"0.023": 0.0,
			"0.024": 0.0,
			"0.025": 0.0
		}
	}
}
