{
	 "smiles": "OC(=O)C1=C(Cl)C=CC(I)=C1", 
	 "Tm": 435.15, 
	 "num_atms": 15, 
	 "gaussian": { 
		 "optdone": 1, 
		 "sigma_profile": "no", 
		 "theory": "DFT", 
		 "functional": "B3LYP", 
		 "basiset": "6-31G**", 
		 "properties": { 
			 "R2extent": 2488.4613, 
			 "electric_dipole_moment_norm": 4.5601005285, 
			 "electric_quadrupole_moment_norm": 11.3562191737, 
			 "total_energy": -891.183305136, 
			 "HOMO_LUMO_gap": 0.18475, 
			 "cosmo_polarized_energy": -98459.69, 
			 "cosmo_cavitation_energy": 24.6, 
			 "cosmo_dispersion_energy": -19.97, 
			 "cosmo_repulsion_energy": 1.56, 
			 "cosmo_total_nonelectrostatic_energy": 6.18, 
			 "SMD_solvation_energy": 4.26 
		},
		"coords": [
			{
				"x": -0.2555034398,
				"y": -3.7637329984,
				"z": -0.7319794733,
				"element": "O" 
			},
			{
				"x": -0.9112888709,
				"y": -2.8131961113,
				"z": -0.0484533078,
				"element": "C" 
			},
			{
				"x": -1.8091961386,
				"y": -3.1200426603,
				"z": 0.7022758034,
				"element": "O" 
			},
			{
				"x": -0.517609314,
				"y": -1.3529021206,
				"z": -0.2235825141,
				"element": "C" 
			},
			{
				"x": 0.4780503654,
				"y": -0.7898630161,
				"z": -1.0400780925,
				"element": "C" 
			},
			{
				"x": 1.5302041523,
				"y": -1.7542158788,
				"z": -2.0899167745,
				"element": "Cl" 
			},
			{
				"x": 0.7019645835,
				"y": 0.5866888734,
				"z": -1.0747963892,
				"element": "C" 
			},
			{
				"x": -0.0657164046,
				"y": 1.4429941399,
				"z": -0.2912787157,
				"element": "C" 
			},
			{
				"x": -1.0608534463,
				"y": 0.9047832599,
				"z": 0.5276226178,
				"element": "C" 
			},
			{
				"x": -2.2407461688,
				"y": 2.1855346633,
				"z": 1.7275710819,
				"element": "I" 
			},
			{
				"x": -1.2805865035,
				"y": -0.4663219792,
				"z": 0.5589678905,
				"element": "C" 
			},
			{
				"x": 0.4404516664,
				"y": -3.3916409125,
				"z": -1.2983700248,
				"element": "H" 
			},
			{
				"x": 1.4789887512,
				"y": 0.9856825656,
				"z": -1.7170948511,
				"element": "H" 
			},
			{
				"x": 0.1151906364,
				"y": 2.5112943182,
				"z": -0.3244220787,
				"element": "H" 
			},
			{
				"x": -2.0459498689,
				"y": -0.9081621431,
				"z": 1.184934828,
				"element": "H" 
			}
		],
		 "valence_orbital": [ 
			{
				"type": "occ",
				"energy": -0.3088,
				"method": "rhf"
			},
			{
				"type": "occ",
				"energy": -0.29143,
				"method": "rhf"
			},
			{
				"type": "occ",
				"energy": -0.28694,
				"method": "rhf"
			},
			{
				"type": "occ",
				"energy": -0.28214,
				"method": "rhf"
			},
			{
				"type": "occ",
				"energy": -0.25848,
				"method": "rhf"
			},
			{
				"type": "unocc",
				"energy": -0.07373,
				"method": "rhf"
			},
			{
				"type": "unocc",
				"energy": -0.05427,
				"method": "rhf"
			},
			{
				"type": "unocc",
				"energy": -0.04609,
				"method": "rhf"
			},
			{
				"type": "unocc",
				"energy": -0.01011,
				"method": "rhf"
			},
			{
				"type": "unocc",
				"energy": 0.03005,
				"method": "rhf"
			}
		],
		"cosmo_sigma_profile": { 
			"0.0": 0.0,
			"0.0": 0.0,
			"0.0": 0.0,
			"0.0": 0.0,
			"0.0": 0.0,
			"0.0": 0.0,
			"0.0": 0.0,
			"0.0": 0.0,
			"0.0": 0.0,
			"0.0": 0.0,
			"0.0": 0.0,
			"0.0": 0.0,
			"0.0": 0.0,
			"0.0": 0.0,
			"0.0": 0.0,
			"0.0": 0.0,
			"0.0": 0.0,
			"0.0": 0.0,
			"0.0": 0.0,
			"0.0": 0.0,
			"0.0": 0.0,
			"0.0": 0.0,
			"0.0": 0.0,
			"0.0": 0.0,
			"0.0": 0.0,
			"0.0": 0.0,
			"0.0": 0.0,
			"0.0": 0.0,
			"0.0": 0.0,
			"0.0": 0.0,
			"0.0": 0.0,
			"0.0": 0.0,
			"0.0": 0.0,
			"0.0": 0.0,
			"0.0": 0.0,
			"0.0": 0.0,
			"0.0": 0.0,
			"0.0": 0.0,
			"0.0": 0.0,
			"0.0": 0.0,
			"0.0": 0.0,
			"0.0": 0.0,
			"0.0": 0.0,
			"0.0": 0.0,
			"0.0": 0.0,
			"0.0": 0.0,
			"0.0": 0.0,
			"0.0": 0.0,
			"0.0": 0.0,
			"0.0": 0.0,
			"0.0": 0.0
		}
	}
}
