{
	 "smiles": "FC1=CC=C(C=C1)C(=O)NC1=CC=C(C=C1)S(Cl)(=O)=O", 
	 "Tm": 423.15, 
	 "num_atms": 29, 
	 "gaussian": { 
		 "optdone": 1, 
		 "sigma_profile": "yes", 
		 "theory": "DFT", 
		 "functional": "B3LYP", 
		 "basiset": "6-31G**", 
		 "properties": { 
			 "R2extent": 9015.0382, 
			 "electric_dipole_moment_norm": 3.93459522442, 
			 "electric_quadrupole_moment_norm": 29.8409165454, 
			 "total_energy": -1739.38929564, 
			 "HOMO_LUMO_gap": 0.16436, 
			 "cosmo_polarized_energy": -17.42, 
			 "cosmo_cavitation_energy": 38.52, 
			 "cosmo_dispersion_energy": -27.33, 
			 "cosmo_repulsion_energy": 2.04, 
			 "cosmo_total_nonelectrostatic_energy": 13.23, 
			 "SMD_solvation_energy": 6.29 
		},
		"coords": [
			{
				"x": 4.6874569019,
				"y": 2.7923134008,
				"z": -0.8063492645,
				"element": "F" 
			},
			{
				"x": 4.0703662265,
				"y": 1.6014932586,
				"z": -0.7157770336,
				"element": "C" 
			},
			{
				"x": 4.4960485234,
				"y": 0.694216038,
				"z": 0.2508177937,
				"element": "C" 
			},
			{
				"x": 3.8568433413,
				"y": -0.5385237753,
				"z": 0.3322967817,
				"element": "C" 
			},
			{
				"x": 2.7868176945,
				"y": -0.8481315866,
				"z": -0.5215656111,
				"element": "C" 
			},
			{
				"x": 2.388424404,
				"y": 0.0838737665,
				"z": -1.4927151258,
				"element": "C" 
			},
			{
				"x": 3.0319405383,
				"y": 1.3142725592,
				"z": -1.5971154794,
				"element": "C" 
			},
			{
				"x": 2.2083984227,
				"y": -2.221543299,
				"z": -0.4278338066,
				"element": "C" 
			},
			{
				"x": 2.8894665605,
				"y": -3.1842003935,
				"z": -0.104748316,
				"element": "O" 
			},
			{
				"x": 0.8772850367,
				"y": -2.4375127984,
				"z": -0.8023734851,
				"element": "N" 
			},
			{
				"x": -0.2635098741,
				"y": -1.6262655474,
				"z": -0.717275314,
				"element": "C" 
			},
			{
				"x": -1.3970329253,
				"y": -2.0140234856,
				"z": -1.4571805906,
				"element": "C" 
			},
			{
				"x": -2.5715484072,
				"y": -1.2769064112,
				"z": -1.3956919161,
				"element": "C" 
			},
			{
				"x": -2.609937607,
				"y": -0.1377317521,
				"z": -0.5886957062,
				"element": "C" 
			},
			{
				"x": -1.5029696744,
				"y": 0.2625697437,
				"z": 0.1626670298,
				"element": "C" 
			},
			{
				"x": -0.3356007324,
				"y": -0.488751859,
				"z": 0.1083599323,
				"element": "C" 
			},
			{
				"x": -4.1079974306,
				"y": 0.8141172799,
				"z": -0.5031531792,
				"element": "S" 
			},
			{
				"x": -3.8147954056,
				"y": 2.2222198247,
				"z": -2.0893891435,
				"element": "Cl" 
			},
			{
				"x": -4.1177861427,
				"y": 1.5964626905,
				"z": 0.7267611374,
				"element": "O" 
			},
			{
				"x": -5.2345034022,
				"y": -0.0161240348,
				"z": -0.9115983856,
				"element": "O" 
			},
			{
				"x": 5.3163483794,
				"y": 0.9576508461,
				"z": 0.9092470807,
				"element": "H" 
			},
			{
				"x": 4.1805967746,
				"y": -1.2816770129,
				"z": 1.0528821783,
				"element": "H" 
			},
			{
				"x": 1.5866405016,
				"y": -0.1553524592,
				"z": -2.1826889028,
				"element": "H" 
			},
			{
				"x": 2.7479567381,
				"y": 2.0442782706,
				"z": -2.346873892,
				"element": "H" 
			},
			{
				"x": 0.7004162286,
				"y": -3.4289184602,
				"z": -0.9189131736,
				"element": "H" 
			},
			{
				"x": -1.3457699935,
				"y": -2.8966072264,
				"z": -2.0879552499,
				"element": "H" 
			},
			{
				"x": -3.4464399566,
				"y": -1.5762180278,
				"z": -1.9616611325,
				"element": "H" 
			},
			{
				"x": -1.5674366087,
				"y": 1.1343053345,
				"z": 0.8041364342,
				"element": "H" 
			},
			{
				"x": 0.5124218881,
				"y": -0.2030848835,
				"z": 0.71728634,
				"element": "H" 
			}
		],
		 "valence_orbital": [ 
			{
				"type": "occ",
				"energy": -0.29762,
				"method": "rhf"
			},
			{
				"type": "occ",
				"energy": -0.28869,
				"method": "rhf"
			},
			{
				"type": "occ",
				"energy": -0.28288,
				"method": "rhf"
			},
			{
				"type": "occ",
				"energy": -0.26556,
				"method": "rhf"
			},
			{
				"type": "occ",
				"energy": -0.25744,
				"method": "rhf"
			},
			{
				"type": "unocc",
				"energy": -0.09308,
				"method": "rhf"
			},
			{
				"type": "unocc",
				"energy": -0.0634,
				"method": "rhf"
			},
			{
				"type": "unocc",
				"energy": -0.0482,
				"method": "rhf"
			},
			{
				"type": "unocc",
				"energy": -0.03827,
				"method": "rhf"
			},
			{
				"type": "unocc",
				"energy": -0.02977,
				"method": "rhf"
			}
		],
		"cosmo_sigma_profile": { 
			"-0.025": 0.0,
			"-0.024": 0.0,
			"-0.023": 0.0,
			"-0.022": 0.0,
			"-0.021": 0.0,
			"-0.02": 0.0,
			"-0.019": 0.0,
			"-0.018": 0.0,
			"-0.017": 0.0,
			"-0.016": 0.140292970424,
			"-0.015": 0.976422518254,
			"-0.014": 1.21685859408,
			"-0.013": 1.43229604988,
			"-0.012": 1.22475952671,
			"-0.011": 1.05169243437,
			"-0.01": 1.21072044475,
			"-0.009": 2.49888606195,
			"-0.008": 8.95376947806,
			"-0.007": 14.9496311686,
			"-0.006": 15.3551076258,
			"-0.005": 16.5841904405,
			"-0.004": 13.6590952763,
			"-0.003": 15.7864133926,
			"-0.002": 16.441476237,
			"-0.001": 24.8206990739,
			"0.0": 30.9412636443,
			"0.001": 30.9141477469,
			"0.002": 22.7827938241,
			"0.003": 21.978544552,
			"0.004": 23.8534579342,
			"0.005": 4.72195227619,
			"0.006": 4.96263786222,
			"0.007": 6.45030282941,
			"0.008": 11.754161337,
			"0.009": 7.41894118989,
			"0.01": 1.31697912602,
			"0.011": 2.54655907519,
			"0.012": 5.21172390188,
			"0.013": 1.58618480256,
			"0.014": 0.0,
			"0.015": 0.0,
			"0.016": 0.0,
			"0.017": 0.0,
			"0.018": 0.0,
			"0.019": 0.0,
			"0.02": 0.0,
			"0.021": 0.0,
			"0.022": 0.0,
			"0.023": 0.0,
			"0.024": 0.0,
			"0.025": 0.0
		}
	}
}
