{
	 "smiles": "OCC1=C(C=C(F)C=C1)C(F)(F)F", 
	 "Tm": 329.15, 
	 "num_atms": 19, 
	 "gaussian": { 
		 "optdone": 1, 
		 "sigma_profile": "yes", 
		 "theory": "DFT", 
		 "functional": "B3LYP", 
		 "basiset": "6-31G**", 
		 "properties": { 
			 "R2extent": 3362.4753, 
			 "electric_dipole_moment_norm": 1.3213704439, 
			 "electric_quadrupole_moment_norm": 4.99508029565, 
			 "total_energy": -783.041638788, 
			 "HOMO_LUMO_gap": 0.21646, 
			 "cosmo_polarized_energy": -6.66, 
			 "cosmo_cavitation_energy": 24.37, 
			 "cosmo_dispersion_energy": -17.57, 
			 "cosmo_repulsion_energy": 1.3, 
			 "cosmo_total_nonelectrostatic_energy": 8.1, 
			 "SMD_solvation_energy": 5.6 
		},
		"coords": [
			{
				"x": 1.1457875402,
				"y": -1.7016784492,
				"z": 2.5477950783,
				"element": "O" 
			},
			{
				"x": 1.6794905262,
				"y": -1.1059802264,
				"z": 1.3718327723,
				"element": "C" 
			},
			{
				"x": 0.7691248165,
				"y": -0.0326252692,
				"z": 0.7930736989,
				"element": "C" 
			},
			{
				"x": 0.8091763453,
				"y": 1.3158625768,
				"z": 1.2024695182,
				"element": "C" 
			},
			{
				"x": -0.0810258342,
				"y": 2.2567033665,
				"z": 0.6798788607,
				"element": "C" 
			},
			{
				"x": -1.0214977111,
				"y": 1.8435767666,
				"z": -0.2543650595,
				"element": "C" 
			},
			{
				"x": -1.8777918981,
				"y": 2.7521570319,
				"z": -0.7585956953,
				"element": "F" 
			},
			{
				"x": -1.099745973,
				"y": 0.5245432083,
				"z": -0.6802980189,
				"element": "C" 
			},
			{
				"x": -0.201965661,
				"y": -0.3984249524,
				"z": -0.1464097286,
				"element": "C" 
			},
			{
				"x": 1.8309043936,
				"y": 1.7852786662,
				"z": 2.2084822915,
				"element": "C" 
			},
			{
				"x": 3.095655158,
				"y": 1.6728655679,
				"z": 1.7432038835,
				"element": "F" 
			},
			{
				"x": 1.6522160835,
				"y": 3.0702513452,
				"z": 2.5660294931,
				"element": "F" 
			},
			{
				"x": 1.7795961747,
				"y": 1.0507873774,
				"z": 3.3585114161,
				"element": "F" 
			},
			{
				"x": 1.1669175133,
				"y": -1.025456701,
				"z": 3.237866228,
				"element": "H" 
			},
			{
				"x": 1.772021969,
				"y": -1.917034554,
				"z": 0.644019983,
				"element": "H" 
			},
			{
				"x": 2.6860867711,
				"y": -0.706777061,
				"z": 1.543497133,
				"element": "H" 
			},
			{
				"x": -0.0504869974,
				"y": 3.2935708894,
				"z": 0.9895593131,
				"element": "H" 
			},
			{
				"x": -1.8478505394,
				"y": 0.237713816,
				"z": -1.411247966,
				"element": "H" 
			},
			{
				"x": -0.254512677,
				"y": -1.4351333991,
				"z": -0.4662032014,
				"element": "H" 
			}
		],
		 "valence_orbital": [ 
			{
				"type": "occ",
				"energy": -0.36192,
				"method": "rhf"
			},
			{
				"type": "occ",
				"energy": -0.33587,
				"method": "rhf"
			},
			{
				"type": "occ",
				"energy": -0.28333,
				"method": "rhf"
			},
			{
				"type": "occ",
				"energy": -0.27645,
				"method": "rhf"
			},
			{
				"type": "occ",
				"energy": -0.25814,
				"method": "rhf"
			},
			{
				"type": "unocc",
				"energy": -0.04168,
				"method": "rhf"
			},
			{
				"type": "unocc",
				"energy": -0.02356,
				"method": "rhf"
			},
			{
				"type": "unocc",
				"energy": 0.0813,
				"method": "rhf"
			},
			{
				"type": "unocc",
				"energy": 0.09866,
				"method": "rhf"
			},
			{
				"type": "unocc",
				"energy": 0.11161,
				"method": "rhf"
			}
		],
		"cosmo_sigma_profile": { 
			"-0.025": 0.0,
			"-0.024": 0.0,
			"-0.023": 0.0,
			"-0.022": 0.0,
			"-0.021": 0.0,
			"-0.02": 0.0,
			"-0.019": 0.0,
			"-0.018": 0.0,
			"-0.017": 0.0,
			"-0.016": 0.0,
			"-0.015": 0.0,
			"-0.014": 0.0,
			"-0.013": 0.0,
			"-0.012": 0.348035407551,
			"-0.011": 0.726077334627,
			"-0.01": 0.804348745316,
			"-0.009": 0.443039535275,
			"-0.008": 3.47301897617,
			"-0.007": 7.74070246447,
			"-0.006": 8.81020267508,
			"-0.005": 8.50822046037,
			"-0.004": 9.65996497062,
			"-0.003": 13.9693040608,
			"-0.002": 12.8750580217,
			"-0.001": 14.3987517542,
			"0.0": 18.9501441371,
			"0.001": 23.2578514557,
			"0.002": 30.6390202491,
			"0.003": 14.9690243508,
			"0.004": 10.5379670054,
			"0.005": 1.81919857097,
			"0.006": 1.63087839461,
			"0.007": 1.66750415082,
			"0.008": 0.779346799899,
			"0.009": 0.849082561858,
			"0.01": 1.55637616083,
			"0.011": 1.17357338639,
			"0.012": 1.59232314715,
			"0.013": 1.70855186418,
			"0.014": 2.18966116181,
			"0.015": 0.150391154301,
			"0.016": 0.0,
			"0.017": 0.0,
			"0.018": 0.0,
			"0.019": 0.0,
			"0.02": 0.0,
			"0.021": 0.0,
			"0.022": 0.0,
			"0.023": 0.0,
			"0.024": 0.0,
			"0.025": 0.0
		}
	}
}
