{
	 "smiles": "CCCN1C(=O)NC(C)(C)C1=O", 
	 "Tm": 383.15, 
	 "num_atms": 26, 
	 "gaussian": { 
		 "optdone": 1, 
		 "sigma_profile": "yes", 
		 "theory": "DFT", 
		 "functional": "B3LYP", 
		 "basiset": "6-31G**", 
		 "properties": { 
			 "R2extent": 2304.3892, 
			 "electric_dipole_moment_norm": 2.14513662502, 
			 "electric_quadrupole_moment_norm": 12.544943306, 
			 "total_energy": -573.303703057, 
			 "HOMO_LUMO_gap": 0.25313, 
			 "cosmo_polarized_energy": -13.38, 
			 "cosmo_cavitation_energy": 28.81, 
			 "cosmo_dispersion_energy": -19.58, 
			 "cosmo_repulsion_energy": 1.58, 
			 "cosmo_total_nonelectrostatic_energy": 10.81, 
			 "SMD_solvation_energy": 6.01 
		},
		"coords": [
			{
				"x": 1.9589173005,
				"y": -1.182180627,
				"z": -2.6583289422,
				"element": "C" 
			},
			{
				"x": 2.7880585522,
				"y": -1.2506846623,
				"z": -1.3729745349,
				"element": "C" 
			},
			{
				"x": 2.0377844532,
				"y": -1.8478158351,
				"z": -0.1747636731,
				"element": "C" 
			},
			{
				"x": 0.8778811943,
				"y": -1.0606489106,
				"z": 0.2360458501,
				"element": "N" 
			},
			{
				"x": 0.9890978985,
				"y": 0.1289303175,
				"z": 0.992987958,
				"element": "C" 
			},
			{
				"x": 2.0305398872,
				"y": 0.6070615754,
				"z": 1.4001557467,
				"element": "O" 
			},
			{
				"x": -0.28755264,
				"y": 0.6032039731,
				"z": 1.1506453767,
				"element": "N" 
			},
			{
				"x": -1.3138448183,
				"y": -0.3085246281,
				"z": 0.6462552543,
				"element": "C" 
			},
			{
				"x": -2.2107371507,
				"y": 0.3508532139,
				"z": -0.4116784636,
				"element": "C" 
			},
			{
				"x": -2.1479134938,
				"y": -0.9367201156,
				"z": 1.7756220421,
				"element": "C" 
			},
			{
				"x": -0.4359765228,
				"y": -1.3962645109,
				"z": -0.0089626877,
				"element": "C" 
			},
			{
				"x": -0.8398142472,
				"y": -2.3706273972,
				"z": -0.6152879845,
				"element": "O" 
			},
			{
				"x": 1.5994553586,
				"y": -2.1729962038,
				"z": -2.9555837061,
				"element": "H" 
			},
			{
				"x": 1.082055845,
				"y": -0.538228756,
				"z": -2.5354293379,
				"element": "H" 
			},
			{
				"x": 2.5525702852,
				"y": -0.7754912298,
				"z": -3.4830834873,
				"element": "H" 
			},
			{
				"x": 3.1487389759,
				"y": -0.254093915,
				"z": -1.0949688637,
				"element": "H" 
			},
			{
				"x": 3.6793399725,
				"y": -1.8694731395,
				"z": -1.5374889318,
				"element": "H" 
			},
			{
				"x": 2.7068496855,
				"y": -1.917536254,
				"z": 0.6876126495,
				"element": "H" 
			},
			{
				"x": 1.6566033567,
				"y": -2.845627077,
				"z": -0.4095807723,
				"element": "H" 
			},
			{
				"x": -0.4646416349,
				"y": 1.3455933014,
				"z": 1.8097266029,
				"element": "H" 
			},
			{
				"x": -1.6071651755,
				"y": 0.8267069391,
				"z": -1.1892751595,
				"element": "H" 
			},
			{
				"x": -2.8492371921,
				"y": -0.4045588075,
				"z": -0.8768424111,
				"element": "H" 
			},
			{
				"x": -2.8470056084,
				"y": 1.1144733585,
				"z": 0.0475264415,
				"element": "H" 
			},
			{
				"x": -2.7738749085,
				"y": -0.1774002173,
				"z": 2.2563056149,
				"element": "H" 
			},
			{
				"x": -1.5026776234,
				"y": -1.3868647657,
				"z": 2.5356212319,
				"element": "H" 
			},
			{
				"x": -2.7973517498,
				"y": -1.7146856268,
				"z": 1.3660441873,
				"element": "H" 
			}
		],
		 "valence_orbital": [ 
			{
				"type": "occ",
				"energy": -0.33885,
				"method": "rhf"
			},
			{
				"type": "occ",
				"energy": -0.28306,
				"method": "rhf"
			},
			{
				"type": "occ",
				"energy": -0.27179,
				"method": "rhf"
			},
			{
				"type": "occ",
				"energy": -0.26212,
				"method": "rhf"
			},
			{
				"type": "occ",
				"energy": -0.25751,
				"method": "rhf"
			},
			{
				"type": "unocc",
				"energy": -0.00438,
				"method": "rhf"
			},
			{
				"type": "unocc",
				"energy": 0.05848,
				"method": "rhf"
			},
			{
				"type": "unocc",
				"energy": 0.07194,
				"method": "rhf"
			},
			{
				"type": "unocc",
				"energy": 0.09465,
				"method": "rhf"
			},
			{
				"type": "unocc",
				"energy": 0.10883,
				"method": "rhf"
			}
		],
		"cosmo_sigma_profile": { 
			"-0.025": 0.0,
			"-0.024": 0.0,
			"-0.023": 0.0,
			"-0.022": 0.0,
			"-0.021": 0.0,
			"-0.02": 0.0,
			"-0.019": 0.0,
			"-0.018": 0.0,
			"-0.017": 0.0,
			"-0.016": 0.0,
			"-0.015": 0.67268083818,
			"-0.014": 1.46339441999,
			"-0.013": 0.856245929661,
			"-0.012": 0.727504634119,
			"-0.011": 1.66435316614,
			"-0.01": 0.879505824996,
			"-0.009": 1.1963319884,
			"-0.008": 1.43264030927,
			"-0.007": 1.11453523299,
			"-0.006": 2.91112582867,
			"-0.005": 12.3607106795,
			"-0.004": 21.0305878409,
			"-0.003": 28.6224550327,
			"-0.002": 29.0422104088,
			"-0.001": 26.677035667,
			"0.0": 23.5923430322,
			"0.001": 13.7411964374,
			"0.002": 6.51361704284,
			"0.003": 6.52338135242,
			"0.004": 6.17940330188,
			"0.005": 3.45997188188,
			"0.006": 2.96760387933,
			"0.007": 3.47630631562,
			"0.008": 1.99451400346,
			"0.009": 2.70337871135,
			"0.01": 2.98164453124,
			"0.011": 3.99948041676,
			"0.012": 7.5380364485,
			"0.013": 7.05598051873,
			"0.014": 1.16869514698,
			"0.015": 0.0,
			"0.016": 0.0,
			"0.017": 0.0,
			"0.018": 0.0,
			"0.019": 0.0,
			"0.02": 0.0,
			"0.021": 0.0,
			"0.022": 0.0,
			"0.023": 0.0,
			"0.024": 0.0,
			"0.025": 0.0
		}
	}
}
