{
	 "smiles": "CC(=N/C1=C(C)C=CC=C1)C1=C(O)C2=CC=CC=C2N(C2=CC=CC=C2)C1=O", 
	 "Tm": 413.15, 
	 "num_atms": 48, 
	 "gaussian": { 
		 "optdone": 1, 
		 "sigma_profile": "yes", 
		 "theory": "DFT", 
		 "functional": "B3LYP", 
		 "basiset": "6-31G**", 
		 "properties": { 
			 "R2extent": 13144.1375, 
			 "electric_dipole_moment_norm": 1.67809098681, 
			 "electric_quadrupole_moment_norm": 15.3663759075, 
			 "total_energy": -1186.60121973, 
			 "HOMO_LUMO_gap": 0.15144, 
			 "cosmo_polarized_energy": -12.91, 
			 "cosmo_cavitation_energy": 50.89, 
			 "cosmo_dispersion_energy": -35.09, 
			 "cosmo_repulsion_energy": 2.6, 
			 "cosmo_total_nonelectrostatic_energy": 18.4, 
			 "SMD_solvation_energy": 8.96 
		},
		"coords": [
			{
				"x": 2.8179201415,
				"y": -0.1377881151,
				"z": -0.1451063255,
				"element": "C" 
			},
			{
				"x": 1.4248783348,
				"y": -0.6925055133,
				"z": 0.0124679288,
				"element": "C" 
			},
			{
				"x": 1.2018014006,
				"y": -1.9167258009,
				"z": 0.42055349,
				"element": "N" 
			},
			{
				"x": 2.1818222614,
				"y": -2.8303370205,
				"z": 0.871660273,
				"element": "C" 
			},
			{
				"x": 2.2990702358,
				"y": -4.0758439748,
				"z": 0.2159621226,
				"element": "C" 
			},
			{
				"x": 1.4762759039,
				"y": -4.3789024143,
				"z": -1.0122756982,
				"element": "C" 
			},
			{
				"x": 3.2084804236,
				"y": -5.0079121917,
				"z": 0.7258171207,
				"element": "C" 
			},
			{
				"x": 3.9784061456,
				"y": -4.7383441813,
				"z": 1.8588668768,
				"element": "C" 
			},
			{
				"x": 3.8437101951,
				"y": -3.5112642542,
				"z": 2.5071397439,
				"element": "C" 
			},
			{
				"x": 2.9468762261,
				"y": -2.56338093,
				"z": 2.0162977304,
				"element": "C" 
			},
			{
				"x": 0.2412571574,
				"y": 0.1025584795,
				"z": -0.3328616117,
				"element": "C" 
			},
			{
				"x": -1.0341487635,
				"y": -0.4835924652,
				"z": -0.2485035552,
				"element": "C" 
			},
			{
				"x": -1.2102756641,
				"y": -1.7234503595,
				"z": 0.1434596682,
				"element": "O" 
			},
			{
				"x": -2.2233218734,
				"y": 0.2656580736,
				"z": -0.6002407506,
				"element": "C" 
			},
			{
				"x": -3.498692246,
				"y": -0.3251847941,
				"z": -0.525018009,
				"element": "C" 
			},
			{
				"x": -4.6324851819,
				"y": 0.392730291,
				"z": -0.8656796373,
				"element": "C" 
			},
			{
				"x": -4.4979879525,
				"y": 1.7237439962,
				"z": -1.2893958441,
				"element": "C" 
			},
			{
				"x": -3.2518627874,
				"y": 2.3291524286,
				"z": -1.3712488314,
				"element": "C" 
			},
			{
				"x": -2.0919409154,
				"y": 1.6066999257,
				"z": -1.0262467292,
				"element": "C" 
			},
			{
				"x": -0.8240013727,
				"y": 2.1786283,
				"z": -1.0916242048,
				"element": "N" 
			},
			{
				"x": -0.673519597,
				"y": 3.5522997948,
				"z": -1.5113514156,
				"element": "C" 
			},
			{
				"x": -0.4941097673,
				"y": 3.8478852014,
				"z": -2.8634978092,
				"element": "C" 
			},
			{
				"x": -0.3638734008,
				"y": 5.1764903355,
				"z": -3.2693809688,
				"element": "C" 
			},
			{
				"x": -0.4125785749,
				"y": 6.2051918094,
				"z": -2.3264098093,
				"element": "C" 
			},
			{
				"x": -0.590321772,
				"y": 5.9036756387,
				"z": -0.9745529807,
				"element": "C" 
			},
			{
				"x": -0.7210010032,
				"y": 4.5765312897,
				"z": -0.5643848977,
				"element": "C" 
			},
			{
				"x": 0.3736087003,
				"y": 1.4984642971,
				"z": -0.7538791844,
				"element": "C" 
			},
			{
				"x": 1.4333443881,
				"y": 2.1175839211,
				"z": -0.8315065348,
				"element": "O" 
			},
			{
				"x": 2.9361589787,
				"y": 0.2962002798,
				"z": -1.1390206239,
				"element": "H" 
			},
			{
				"x": 3.5603976272,
				"y": -0.9178013304,
				"z": 0.022404466,
				"element": "H" 
			},
			{
				"x": 2.9879275333,
				"y": 0.6891206303,
				"z": 0.548976812,
				"element": "H" 
			},
			{
				"x": 1.6338824491,
				"y": -5.4088714771,
				"z": -1.3429574841,
				"element": "H" 
			},
			{
				"x": 0.4060254777,
				"y": -4.2395536102,
				"z": -0.8252941242,
				"element": "H" 
			},
			{
				"x": 1.7357938378,
				"y": -3.7140023835,
				"z": -1.8444521545,
				"element": "H" 
			},
			{
				"x": 3.3107622499,
				"y": -5.9661712824,
				"z": 0.2224774215,
				"element": "H" 
			},
			{
				"x": 4.67244438,
				"y": -5.4845990103,
				"z": 2.2340435888,
				"element": "H" 
			},
			{
				"x": 4.4283618938,
				"y": -3.2906171747,
				"z": 3.3955255503,
				"element": "H" 
			},
			{
				"x": 2.8172465159,
				"y": -1.6129952135,
				"z": 2.5252134031,
				"element": "H" 
			},
			{
				"x": -0.2173792381,
				"y": -2.0734700924,
				"z": 0.3554845236,
				"element": "H" 
			},
			{
				"x": -3.5618222325,
				"y": -1.3552343486,
				"z": -0.1933865008,
				"element": "H" 
			},
			{
				"x": -5.6133167375,
				"y": -0.0677381878,
				"z": -0.805895762,
				"element": "H" 
			},
			{
				"x": -5.3800006229,
				"y": 2.2975023112,
				"z": -1.5596787041,
				"element": "H" 
			},
			{
				"x": -3.1664620488,
				"y": 3.3570998688,
				"z": -1.6993645818,
				"element": "H" 
			},
			{
				"x": -0.452907986,
				"y": 3.0381566278,
				"z": -3.5850922055,
				"element": "H" 
			},
			{
				"x": -0.2218897875,
				"y": 5.406649765,
				"z": -4.3211461668,
				"element": "H" 
			},
			{
				"x": -0.3100306911,
				"y": 7.2387624747,
				"z": -2.6438098762,
				"element": "H" 
			},
			{
				"x": -0.6245795609,
				"y": 6.7006960149,
				"z": -0.2377161727,
				"element": "H" 
			},
			{
				"x": -0.8540426801,
				"y": 4.3276043707,
				"z": 0.4836284346,
				"element": "H" 
			}
		],
		 "valence_orbital": [ 
			{
				"type": "occ",
				"energy": -0.24516,
				"method": "rhf"
			},
			{
				"type": "occ",
				"energy": -0.24311,
				"method": "rhf"
			},
			{
				"type": "occ",
				"energy": -0.23502,
				"method": "rhf"
			},
			{
				"type": "occ",
				"energy": -0.2222,
				"method": "rhf"
			},
			{
				"type": "occ",
				"energy": -0.21206,
				"method": "rhf"
			},
			{
				"type": "unocc",
				"energy": -0.06062,
				"method": "rhf"
			},
			{
				"type": "unocc",
				"energy": -0.01575,
				"method": "rhf"
			},
			{
				"type": "unocc",
				"energy": -0.01098,
				"method": "rhf"
			},
			{
				"type": "unocc",
				"energy": -0.00812,
				"method": "rhf"
			},
			{
				"type": "unocc",
				"energy": 0.0013,
				"method": "rhf"
			}
		],
		"cosmo_sigma_profile": { 
			"-0.025": 0.0,
			"-0.024": 0.0,
			"-0.023": 0.0,
			"-0.022": 0.0,
			"-0.021": 0.0,
			"-0.02": 0.0,
			"-0.019": 0.0,
			"-0.018": 0.0,
			"-0.017": 0.0,
			"-0.016": 0.0,
			"-0.015": 0.0,
			"-0.014": 0.0,
			"-0.013": 0.0,
			"-0.012": 0.0,
			"-0.011": 0.0,
			"-0.01": 0.0,
			"-0.009": 0.0,
			"-0.008": 0.0,
			"-0.007": 3.26189075418,
			"-0.006": 17.9032828941,
			"-0.005": 29.1972436329,
			"-0.004": 37.8367292653,
			"-0.003": 33.7908614984,
			"-0.002": 37.9491424963,
			"-0.001": 38.2590305964,
			"0.0": 45.3900077257,
			"0.001": 34.4309936938,
			"0.002": 28.3856759223,
			"0.003": 26.6705617995,
			"0.004": 25.5772048488,
			"0.005": 16.6383924737,
			"0.006": 9.94063765322,
			"0.007": 4.05904290251,
			"0.008": 3.26603003168,
			"0.009": 3.7496163078,
			"0.01": 2.09638902102,
			"0.011": 1.53723577926,
			"0.012": 2.55810018964,
			"0.013": 2.35864126589,
			"0.014": 2.57234435797,
			"0.015": 0.227851802562,
			"0.016": 0.0,
			"0.017": 0.0,
			"0.018": 0.0,
			"0.019": 0.0,
			"0.02": 0.0,
			"0.021": 0.0,
			"0.022": 0.0,
			"0.023": 0.0,
			"0.024": 0.0,
			"0.025": 0.0
		}
	}
}
