{
	 "smiles": "CC1=CC(=CC=C1I)[N+]([O-])=O", 
	 "Tm": 374.65, 
	 "num_atms": 17, 
	 "gaussian": { 
		 "optdone": 1, 
		 "sigma_profile": "no", 
		 "theory": "DFT", 
		 "functional": "B3LYP", 
		 "basiset": "6-31G**", 
		 "properties": { 
			 "R2extent": 2747.7964, 
			 "electric_dipole_moment_norm": 3.49613335701, 
			 "electric_quadrupole_moment_norm": 17.80802138, 
			 "total_energy": -486.850560656, 
			 "HOMO_LUMO_gap": 0.1662, 
			 "cosmo_polarized_energy": -85722.27, 
			 "cosmo_cavitation_energy": 24.83, 
			 "cosmo_dispersion_energy": -19.57, 
			 "cosmo_repulsion_energy": 1.52, 
			 "cosmo_total_nonelectrostatic_energy": 6.78, 
			 "SMD_solvation_energy": 5.77 
		},
		"coords": [
			{
				"x": 0.0182020212,
				"y": -0.8493385974,
				"z": 1.2900305774,
				"element": "C" 
			},
			{
				"x": -0.4409148374,
				"y": -0.0267080813,
				"z": 0.1136718036,
				"element": "C" 
			},
			{
				"x": -0.8419265071,
				"y": 1.3005332569,
				"z": 0.3083928592,
				"element": "C" 
			},
			{
				"x": -1.2690569229,
				"y": 2.0768281373,
				"z": -0.7642080914,
				"element": "C" 
			},
			{
				"x": -1.3178668531,
				"y": 1.5799428559,
				"z": -2.0627901955,
				"element": "C" 
			},
			{
				"x": -0.9234837506,
				"y": 0.263076971,
				"z": -2.2774155934,
				"element": "C" 
			},
			{
				"x": -0.4929537832,
				"y": -0.5228940276,
				"z": -1.2031962906,
				"element": "C" 
			},
			{
				"x": 0.0880946182,
				"y": -2.5179771258,
				"z": -1.6295527176,
				"element": "I" 
			},
			{
				"x": -1.6818669171,
				"y": 3.4672214451,
				"z": -0.5155118128,
				"element": "N" 
			},
			{
				"x": -2.055313842,
				"y": 4.1306527346,
				"z": -1.4820810373,
				"element": "O" 
			},
			{
				"x": -1.6289078168,
				"y": 3.8808616121,
				"z": 0.6421881068,
				"element": "O" 
			},
			{
				"x": -0.0238758797,
				"y": -0.2626072958,
				"z": 2.210263379,
				"element": "H" 
			},
			{
				"x": 1.0467010399,
				"y": -1.1996334276,
				"z": 1.1525258021,
				"element": "H" 
			},
			{
				"x": -0.6070046695,
				"y": -1.7389637683,
				"z": 1.4207758825,
				"element": "H" 
			},
			{
				"x": -0.8247036239,
				"y": 1.740514077,
				"z": 1.2981801443,
				"element": "H" 
			},
			{
				"x": -1.6557459814,
				"y": 2.2131607803,
				"z": -2.8731971426,
				"element": "H" 
			},
			{
				"x": -0.9509762946,
				"y": -0.1509695464,
				"z": -3.2784756738,
				"element": "H" 
			}
		],
		 "valence_orbital": [ 
			{
				"type": "occ",
				"energy": -0.31184,
				"method": "rhf"
			},
			{
				"type": "occ",
				"energy": -0.29605,
				"method": "rhf"
			},
			{
				"type": "occ",
				"energy": -0.28322,
				"method": "rhf"
			},
			{
				"type": "occ",
				"energy": -0.28085,
				"method": "rhf"
			},
			{
				"type": "occ",
				"energy": -0.26197,
				"method": "rhf"
			},
			{
				"type": "unocc",
				"energy": -0.09577,
				"method": "rhf"
			},
			{
				"type": "unocc",
				"energy": -0.05354,
				"method": "rhf"
			},
			{
				"type": "unocc",
				"energy": -0.03529,
				"method": "rhf"
			},
			{
				"type": "unocc",
				"energy": -0.01226,
				"method": "rhf"
			},
			{
				"type": "unocc",
				"energy": 0.02997,
				"method": "rhf"
			}
		],
		"cosmo_sigma_profile": { 
			"0.0": 0.0,
			"0.0": 0.0,
			"0.0": 0.0,
			"0.0": 0.0,
			"0.0": 0.0,
			"0.0": 0.0,
			"0.0": 0.0,
			"0.0": 0.0,
			"0.0": 0.0,
			"0.0": 0.0,
			"0.0": 0.0,
			"0.0": 0.0,
			"0.0": 0.0,
			"0.0": 0.0,
			"0.0": 0.0,
			"0.0": 0.0,
			"0.0": 0.0,
			"0.0": 0.0,
			"0.0": 0.0,
			"0.0": 0.0,
			"0.0": 0.0,
			"0.0": 0.0,
			"0.0": 0.0,
			"0.0": 0.0,
			"0.0": 0.0,
			"0.0": 0.0,
			"0.0": 0.0,
			"0.0": 0.0,
			"0.0": 0.0,
			"0.0": 0.0,
			"0.0": 0.0,
			"0.0": 0.0,
			"0.0": 0.0,
			"0.0": 0.0,
			"0.0": 0.0,
			"0.0": 0.0,
			"0.0": 0.0,
			"0.0": 0.0,
			"0.0": 0.0,
			"0.0": 0.0,
			"0.0": 0.0,
			"0.0": 0.0,
			"0.0": 0.0,
			"0.0": 0.0,
			"0.0": 0.0,
			"0.0": 0.0,
			"0.0": 0.0,
			"0.0": 0.0,
			"0.0": 0.0,
			"0.0": 0.0,
			"0.0": 0.0
		}
	}
}
