{
	 "smiles": "NC(=O)NCC1=CC=NC=C1", 
	 "Tm": 472.15, 
	 "num_atms": 20, 
	 "gaussian": { 
		 "optdone": 1, 
		 "sigma_profile": "yes", 
		 "theory": "DFT", 
		 "functional": "B3LYP", 
		 "basiset": "6-31G**", 
		 "properties": { 
			 "R2extent": 2678.7018, 
			 "electric_dipole_moment_norm": 4.61796553257, 
			 "electric_quadrupole_moment_norm": 10.3783928968, 
			 "total_energy": -511.668170563, 
			 "HOMO_LUMO_gap": 0.22161, 
			 "cosmo_polarized_energy": -17.5, 
			 "cosmo_cavitation_energy": 24.24, 
			 "cosmo_dispersion_energy": -17.78, 
			 "cosmo_repulsion_energy": 1.45, 
			 "cosmo_total_nonelectrostatic_energy": 7.9, 
			 "SMD_solvation_energy": 2.75 
		},
		"coords": [
			{
				"x": -0.8284648546,
				"y": -2.8575765227,
				"z": 0.9814158887,
				"element": "N" 
			},
			{
				"x": -1.6612790114,
				"y": -1.894815684,
				"z": 0.4283140335,
				"element": "C" 
			},
			{
				"x": -2.5757615207,
				"y": -2.1742470641,
				"z": -0.3384872414,
				"element": "O" 
			},
			{
				"x": -1.3531960812,
				"y": -0.6010953912,
				"z": 0.8128306979,
				"element": "N" 
			},
			{
				"x": -2.0309506846,
				"y": 0.5257334613,
				"z": 0.17658385,
				"element": "C" 
			},
			{
				"x": -1.3291647665,
				"y": 1.0509476489,
				"z": -1.0629491281,
				"element": "C" 
			},
			{
				"x": -0.7213007993,
				"y": 2.3087735624,
				"z": -1.0789168747,
				"element": "C" 
			},
			{
				"x": -0.0765248041,
				"y": 2.7394847226,
				"z": -2.2407892332,
				"element": "C" 
			},
			{
				"x": -0.000684922,
				"y": 2.0129376993,
				"z": -3.3608605336,
				"element": "N" 
			},
			{
				"x": -0.5888294027,
				"y": 0.8072732243,
				"z": -3.3393333164,
				"element": "C" 
			},
			{
				"x": -1.2575444202,
				"y": 0.2846325408,
				"z": -2.2340143249,
				"element": "C" 
			},
			{
				"x": -1.1799775974,
				"y": -3.7955691563,
				"z": 0.8517133621,
				"element": "H" 
			},
			{
				"x": -0.4423564234,
				"y": -2.6790234008,
				"z": 1.8982327163,
				"element": "H" 
			},
			{
				"x": -0.4043097261,
				"y": -0.4346423506,
				"z": 1.1204629224,
				"element": "H" 
			},
			{
				"x": -3.031058759,
				"y": 0.1699313655,
				"z": -0.0816497584,
				"element": "H" 
			},
			{
				"x": -2.1348981817,
				"y": 1.3293406682,
				"z": 0.9133355483,
				"element": "H" 
			},
			{
				"x": -0.749375851,
				"y": 2.9510774628,
				"z": -0.2020876542,
				"element": "H" 
			},
			{
				"x": 0.4017875208,
				"y": 3.7175803554,
				"z": -2.2692815682,
				"element": "H" 
			},
			{
				"x": -0.524386711,
				"y": 0.2293393465,
				"z": -4.2598393302,
				"element": "H" 
			},
			{
				"x": -1.7207230039,
				"y": -0.6963824882,
				"z": -2.2732800559,
				"element": "H" 
			}
		],
		 "valence_orbital": [ 
			{
				"type": "occ",
				"energy": -0.27949,
				"method": "rhf"
			},
			{
				"type": "occ",
				"energy": -0.26313,
				"method": "rhf"
			},
			{
				"type": "occ",
				"energy": -0.26027,
				"method": "rhf"
			},
			{
				"type": "occ",
				"energy": -0.25673,
				"method": "rhf"
			},
			{
				"type": "occ",
				"energy": -0.24548,
				"method": "rhf"
			},
			{
				"type": "unocc",
				"energy": -0.02387,
				"method": "rhf"
			},
			{
				"type": "unocc",
				"energy": -0.00749,
				"method": "rhf"
			},
			{
				"type": "unocc",
				"energy": 0.04583,
				"method": "rhf"
			},
			{
				"type": "unocc",
				"energy": 0.06438,
				"method": "rhf"
			},
			{
				"type": "unocc",
				"energy": 0.10559,
				"method": "rhf"
			}
		],
		"cosmo_sigma_profile": { 
			"-0.025": 0.0,
			"-0.024": 0.0,
			"-0.023": 0.0,
			"-0.022": 0.0,
			"-0.021": 0.0,
			"-0.02": 0.0,
			"-0.019": 0.0,
			"-0.018": 0.0,
			"-0.017": 0.0,
			"-0.016": 0.0,
			"-0.015": 0.0695684407017,
			"-0.014": 2.39620639681,
			"-0.013": 4.066223465,
			"-0.012": 3.30025365804,
			"-0.011": 3.64285338514,
			"-0.01": 2.96161553377,
			"-0.009": 2.67599948399,
			"-0.008": 2.82052440494,
			"-0.007": 4.77483205786,
			"-0.006": 11.304923124,
			"-0.005": 13.7848211211,
			"-0.004": 10.7836548099,
			"-0.003": 10.7389066022,
			"-0.002": 10.2046691319,
			"-0.001": 9.19411513839,
			"0.0": 11.2937729995,
			"0.001": 11.4135773917,
			"0.002": 13.8422357252,
			"0.003": 15.3971816715,
			"0.004": 6.76508205391,
			"0.005": 4.98801687065,
			"0.006": 4.3440769733,
			"0.007": 3.84382787741,
			"0.008": 3.92266953382,
			"0.009": 3.08095815228,
			"0.01": 2.94173083652,
			"0.011": 3.00654076212,
			"0.012": 2.87379447673,
			"0.013": 2.64705028556,
			"0.014": 5.50720107824,
			"0.015": 2.00627278628,
			"0.016": 1.02843874745,
			"0.017": 0.597848044125,
			"0.018": 0.0214391048903,
			"0.019": 0.0,
			"0.02": 0.0,
			"0.021": 0.0,
			"0.022": 0.0,
			"0.023": 0.0,
			"0.024": 0.0,
			"0.025": 0.0
		}
	}
}
