{
	 "smiles": "ClC1=CC(Cl)=C(Cl)C=C1C1=CC=CC=C1", 
	 "Tm": 350.15, 
	 "num_atms": 22, 
	 "gaussian": { 
		 "optdone": 1, 
		 "sigma_profile": "yes", 
		 "theory": "DFT", 
		 "functional": "B3LYP", 
		 "basiset": "6-31G**", 
		 "properties": { 
			 "R2extent": 6121.7108, 
			 "electric_dipole_moment_norm": 2.2409863565, 
			 "electric_quadrupole_moment_norm": 9.57668469304, 
			 "total_energy": -1842.07308875, 
			 "HOMO_LUMO_gap": 0.19543, 
			 "cosmo_polarized_energy": -5.27, 
			 "cosmo_cavitation_energy": 31.72, 
			 "cosmo_dispersion_energy": -23.25, 
			 "cosmo_repulsion_energy": 1.83, 
			 "cosmo_total_nonelectrostatic_energy": 10.29, 
			 "SMD_solvation_energy": 4.4 
		},
		"coords": [
			{
				"x": 0.7915512832,
				"y": 0.8757672929,
				"z": -1.1666713992,
				"element": "Cl" 
			},
			{
				"x": -0.621339704,
				"y": -0.1349633711,
				"z": -0.9077640411,
				"element": "C" 
			},
			{
				"x": -1.722329568,
				"y": 0.0991428013,
				"z": -1.7288551116,
				"element": "C" 
			},
			{
				"x": -2.8973803904,
				"y": -0.6312450669,
				"z": -1.5555690786,
				"element": "C" 
			},
			{
				"x": -4.2487385203,
				"y": -0.3069137544,
				"z": -2.608314185,
				"element": "Cl" 
			},
			{
				"x": -2.9629120681,
				"y": -1.5978144656,
				"z": -0.544679752,
				"element": "C" 
			},
			{
				"x": -4.4033118069,
				"y": -2.5455785931,
				"z": -0.2767169527,
				"element": "Cl" 
			},
			{
				"x": -1.8506482224,
				"y": -1.8198837797,
				"z": 0.2647901152,
				"element": "C" 
			},
			{
				"x": -0.6523559079,
				"y": -1.1056484926,
				"z": 0.1103236478,
				"element": "C" 
			},
			{
				"x": 0.4828449637,
				"y": -1.4095271231,
				"z": 1.0241743143,
				"element": "C" 
			},
			{
				"x": 1.7486005715,
				"y": -1.762183045,
				"z": 0.5303700616,
				"element": "C" 
			},
			{
				"x": 2.7824850526,
				"y": -2.0915406006,
				"z": 1.4053939278,
				"element": "C" 
			},
			{
				"x": 2.5708391937,
				"y": -2.0716825915,
				"z": 2.7856180824,
				"element": "C" 
			},
			{
				"x": 1.3158301869,
				"y": -1.7242497218,
				"z": 3.2871882531,
				"element": "C" 
			},
			{
				"x": 0.2787105788,
				"y": -1.3991160939,
				"z": 2.41296853,
				"element": "C" 
			},
			{
				"x": -1.6727226497,
				"y": 0.8585427837,
				"z": -2.4993402687,
				"element": "H" 
			},
			{
				"x": -1.9083322632,
				"y": -2.5854352896,
				"z": 1.0301385568,
				"element": "H" 
			},
			{
				"x": 1.9184510412,
				"y": -1.7914558739,
				"z": -0.540779446,
				"element": "H" 
			},
			{
				"x": 3.7542252912,
				"y": -2.3687144718,
				"z": 1.0072480881,
				"element": "H" 
			},
			{
				"x": 3.3790060809,
				"y": -2.3260955731,
				"z": 3.4651084841,
				"element": "H" 
			},
			{
				"x": 1.1427379177,
				"y": -1.7024689287,
				"z": 4.3591894424,
				"element": "H" 
			},
			{
				"x": -0.6936110603,
				"y": -1.1175360415,
				"z": 2.8070787315,
				"element": "H" 
			}
		],
		 "valence_orbital": [ 
			{
				"type": "occ",
				"energy": -0.31602,
				"method": "rhf"
			},
			{
				"type": "occ",
				"energy": -0.27836,
				"method": "rhf"
			},
			{
				"type": "occ",
				"energy": -0.26013,
				"method": "rhf"
			},
			{
				"type": "occ",
				"energy": -0.25914,
				"method": "rhf"
			},
			{
				"type": "occ",
				"energy": -0.24133,
				"method": "rhf"
			},
			{
				"type": "unocc",
				"energy": -0.0459,
				"method": "rhf"
			},
			{
				"type": "unocc",
				"energy": -0.03518,
				"method": "rhf"
			},
			{
				"type": "unocc",
				"energy": -0.01378,
				"method": "rhf"
			},
			{
				"type": "unocc",
				"energy": -0.00775,
				"method": "rhf"
			},
			{
				"type": "unocc",
				"energy": 0.0012,
				"method": "rhf"
			}
		],
		"cosmo_sigma_profile": { 
			"-0.025": 0.0,
			"-0.024": 0.0,
			"-0.023": 0.0,
			"-0.022": 0.0,
			"-0.021": 0.0,
			"-0.02": 0.0,
			"-0.019": 0.0,
			"-0.018": 0.0,
			"-0.017": 0.0,
			"-0.016": 0.0,
			"-0.015": 0.0,
			"-0.014": 0.0,
			"-0.013": 0.0,
			"-0.012": 0.0,
			"-0.011": 0.0,
			"-0.01": 0.0,
			"-0.009": 0.718038713842,
			"-0.008": 1.84167394977,
			"-0.007": 3.11800488495,
			"-0.006": 11.1736913659,
			"-0.005": 14.2949724465,
			"-0.004": 17.1724407766,
			"-0.003": 16.7026374611,
			"-0.002": 16.7491299112,
			"-0.001": 21.8628782206,
			"0.0": 36.3609579873,
			"0.001": 27.164032048,
			"0.002": 21.5116608725,
			"0.003": 28.3659317705,
			"0.004": 28.5994074816,
			"0.005": 14.758347859,
			"0.006": 1.76959398659,
			"0.007": 0.0,
			"0.008": 0.0,
			"0.009": 0.0,
			"0.01": 0.0,
			"0.011": 0.0,
			"0.012": 0.0,
			"0.013": 0.0,
			"0.014": 0.0,
			"0.015": 0.0,
			"0.016": 0.0,
			"0.017": 0.0,
			"0.018": 0.0,
			"0.019": 0.0,
			"0.02": 0.0,
			"0.021": 0.0,
			"0.022": 0.0,
			"0.023": 0.0,
			"0.024": 0.0,
			"0.025": 0.0
		}
	}
}
