{
	 "smiles": "NC1=C(Cl)C=CC(=C1)S(F)(=O)=O", 
	 "Tm": 339.15, 
	 "num_atms": 17, 
	 "gaussian": { 
		 "optdone": 1, 
		 "sigma_profile": "yes", 
		 "theory": "DFT", 
		 "functional": "B3LYP", 
		 "basiset": "6-31G**", 
		 "properties": { 
			 "R2extent": 3143.5882, 
			 "electric_dipole_moment_norm": 4.84966206452, 
			 "electric_quadrupole_moment_norm": 13.4620416843, 
			 "total_energy": -1395.01020869, 
			 "HOMO_LUMO_gap": 0.17719, 
			 "cosmo_polarized_energy": -11.81, 
			 "cosmo_cavitation_energy": 25.19, 
			 "cosmo_dispersion_energy": -19.45, 
			 "cosmo_repulsion_energy": 1.48, 
			 "cosmo_total_nonelectrostatic_energy": 7.22, 
			 "SMD_solvation_energy": 3.51 
		},
		"coords": [
			{
				"x": -2.5680965339,
				"y": -0.607498718,
				"z": 0.4126376741,
				"element": "N" 
			},
			{
				"x": -1.3132747226,
				"y": -0.2153466507,
				"z": 0.0046073764,
				"element": "C" 
			},
			{
				"x": -1.0966355539,
				"y": 0.4358813264,
				"z": -1.2310978843,
				"element": "C" 
			},
			{
				"x": -2.4643154413,
				"y": 0.686169097,
				"z": -2.3045208106,
				"element": "Cl" 
			},
			{
				"x": 0.1630703921,
				"y": 0.873433836,
				"z": -1.6302501721,
				"element": "C" 
			},
			{
				"x": 1.2690689589,
				"y": 0.6813103988,
				"z": -0.8057695893,
				"element": "C" 
			},
			{
				"x": 1.060478366,
				"y": 0.0413734589,
				"z": 0.416650469,
				"element": "C" 
			},
			{
				"x": -0.1898195825,
				"y": -0.4073048036,
				"z": 0.8290073296,
				"element": "C" 
			},
			{
				"x": 2.444718829,
				"y": -0.2202153423,
				"z": 1.49840788,
				"element": "S" 
			},
			{
				"x": 2.3983761648,
				"y": 1.1693316208,
				"z": 2.3363876156,
				"element": "F" 
			},
			{
				"x": 3.6842790069,
				"y": -0.1837069504,
				"z": 0.7453867009,
				"element": "O" 
			},
			{
				"x": 2.1430704842,
				"y": -1.2666930414,
				"z": 2.4583158717,
				"element": "O" 
			},
			{
				"x": -3.2781583726,
				"y": -0.6953638694,
				"z": -0.2990048457,
				"element": "H" 
			},
			{
				"x": -2.6167436002,
				"y": -1.2952187445,
				"z": 1.1486768287,
				"element": "H" 
			},
			{
				"x": 0.2724823397,
				"y": 1.3591409116,
				"z": -2.5933754629,
				"element": "H" 
			},
			{
				"x": 2.2590858479,
				"y": 1.0022041548,
				"z": -1.1049278737,
				"element": "H" 
			},
			{
				"x": -0.2966865825,
				"y": -0.9118966841,
				"z": 1.7833688925,
				"element": "H" 
			}
		],
		 "valence_orbital": [ 
			{
				"type": "occ",
				"energy": -0.33922,
				"method": "rhf"
			},
			{
				"type": "occ",
				"energy": -0.33813,
				"method": "rhf"
			},
			{
				"type": "occ",
				"energy": -0.3247,
				"method": "rhf"
			},
			{
				"type": "occ",
				"energy": -0.28135,
				"method": "rhf"
			},
			{
				"type": "occ",
				"energy": -0.2382,
				"method": "rhf"
			},
			{
				"type": "unocc",
				"energy": -0.06101,
				"method": "rhf"
			},
			{
				"type": "unocc",
				"energy": -0.02618,
				"method": "rhf"
			},
			{
				"type": "unocc",
				"energy": 0.00697,
				"method": "rhf"
			},
			{
				"type": "unocc",
				"energy": 0.02869,
				"method": "rhf"
			},
			{
				"type": "unocc",
				"energy": 0.05896,
				"method": "rhf"
			}
		],
		"cosmo_sigma_profile": { 
			"-0.025": 0.0,
			"-0.024": 0.0,
			"-0.023": 0.0,
			"-0.022": 0.0,
			"-0.021": 0.0,
			"-0.02": 0.0,
			"-0.019": 0.0,
			"-0.018": 0.0,
			"-0.017": 0.0,
			"-0.016": 0.0,
			"-0.015": 0.0599640688006,
			"-0.014": 1.65893051879,
			"-0.013": 2.24187509521,
			"-0.012": 2.77894654551,
			"-0.011": 3.08656987015,
			"-0.01": 2.53068697415,
			"-0.009": 2.96915461625,
			"-0.008": 5.46203104469,
			"-0.007": 5.60674264445,
			"-0.006": 6.0369935266,
			"-0.005": 7.03249729838,
			"-0.004": 7.39012382673,
			"-0.003": 8.87245385173,
			"-0.002": 9.84156807779,
			"-0.001": 12.9109794562,
			"0.0": 19.9135498361,
			"0.001": 24.3825921768,
			"0.002": 21.5865315466,
			"0.003": 17.2203775379,
			"0.004": 10.2469432423,
			"0.005": 4.13413885796,
			"0.006": 3.01883178904,
			"0.007": 5.0350908772,
			"0.008": 10.2827261906,
			"0.009": 8.98627674748,
			"0.01": 1.13073005344,
			"0.011": 0.339085143172,
			"0.012": 0.0,
			"0.013": 0.0,
			"0.014": 0.0,
			"0.015": 0.0,
			"0.016": 0.0,
			"0.017": 0.0,
			"0.018": 0.0,
			"0.019": 0.0,
			"0.02": 0.0,
			"0.021": 0.0,
			"0.022": 0.0,
			"0.023": 0.0,
			"0.024": 0.0,
			"0.025": 0.0
		}
	}
}
