{
	 "smiles": "[O-][N+](=O)C1=CC=C(NC(=O)C(F)(F)C(F)(F)C(F)(F)C(F)(F)C(F)(F)C(F)(F)C(F)(F)C(F)(F)F)C=C1", 
	 "Tm": 392.15, 
	 "num_atms": 42, 
	 "gaussian": { 
		 "optdone": 1, 
		 "sigma_profile": "yes", 
		 "theory": "DFT", 
		 "functional": "B3LYP", 
		 "basiset": "6-31G**", 
		 "properties": { 
			 "R2extent": 26860.9969, 
			 "electric_dipole_moment_norm": 3.99746245136, 
			 "electric_quadrupole_moment_norm": 31.5316571685, 
			 "total_energy": -2606.90994046, 
			 "HOMO_LUMO_gap": 0.16878, 
			 "cosmo_polarized_energy": -14.77, 
			 "cosmo_cavitation_energy": 53.72, 
			 "cosmo_dispersion_energy": -35.4, 
			 "cosmo_repulsion_energy": 2.3, 
			 "cosmo_total_nonelectrostatic_energy": 20.62, 
			 "SMD_solvation_energy": 16.75 
		},
		"coords": [
			{
				"x": -4.3318151106,
				"y": -4.6854203449,
				"z": -4.3482996753,
				"element": "O" 
			},
			{
				"x": -4.469700815,
				"y": -3.5149537709,
				"z": -3.9913968987,
				"element": "N" 
			},
			{
				"x": -5.2346680434,
				"y": -2.70604656,
				"z": -4.5157635701,
				"element": "O" 
			},
			{
				"x": -3.6619426073,
				"y": -3.0516450146,
				"z": -2.8573255553,
				"element": "C" 
			},
			{
				"x": -2.7855404211,
				"y": -3.9437752023,
				"z": -2.2406885172,
				"element": "C" 
			},
			{
				"x": -2.0255141993,
				"y": -3.4995718098,
				"z": -1.1692012269,
				"element": "C" 
			},
			{
				"x": -2.1393535844,
				"y": -2.1733221829,
				"z": -0.7155778505,
				"element": "C" 
			},
			{
				"x": -1.3316132564,
				"y": -1.8004519907,
				"z": 0.3743065747,
				"element": "N" 
			},
			{
				"x": -1.2632573225,
				"y": -0.5876678186,
				"z": 0.9994163238,
				"element": "C" 
			},
			{
				"x": -1.9019762144,
				"y": 0.4131388314,
				"z": 0.742095773,
				"element": "O" 
			},
			{
				"x": -0.2207788218,
				"y": -0.5693032764,
				"z": 2.154171988,
				"element": "C" 
			},
			{
				"x": -0.1355631835,
				"y": -1.8196024538,
				"z": 2.7137726934,
				"element": "F" 
			},
			{
				"x": -0.6245924727,
				"y": 0.2957166324,
				"z": 3.1028950825,
				"element": "F" 
			},
			{
				"x": 1.2287644605,
				"y": -0.2178000123,
				"z": 1.7294688549,
				"element": "C" 
			},
			{
				"x": 1.6059710015,
				"y": -1.1640830708,
				"z": 0.8235532373,
				"element": "F" 
			},
			{
				"x": 2.0243605932,
				"y": -0.3212746354,
				"z": 2.8135386356,
				"element": "F" 
			},
			{
				"x": 1.4973645129,
				"y": 1.1544591694,
				"z": 1.0431110611,
				"element": "C" 
			},
			{
				"x": 0.8270776555,
				"y": 1.1663233141,
				"z": -0.1316170849,
				"element": "F" 
			},
			{
				"x": 2.829049474,
				"y": 1.1831874369,
				"z": 0.790158861,
				"element": "F" 
			},
			{
				"x": 1.1233622886,
				"y": 2.4348273803,
				"z": 1.8478886598,
				"element": "C" 
			},
			{
				"x": 1.4788804074,
				"y": 2.2620932528,
				"z": 3.1405328733,
				"element": "F" 
			},
			{
				"x": -0.2122626053,
				"y": 2.6114118464,
				"z": 1.768102598,
				"element": "F" 
			},
			{
				"x": 1.8368491668,
				"y": 3.7170815571,
				"z": 1.3156456326,
				"element": "C" 
			},
			{
				"x": 1.8147296731,
				"y": 3.6999726923,
				"z": -0.0397050058,
				"element": "F" 
			},
			{
				"x": 3.1184326913,
				"y": 3.6974123841,
				"z": 1.7419262433,
				"element": "F" 
			},
			{
				"x": 1.1619037709,
				"y": 5.0369238483,
				"z": 1.7861954978,
				"element": "C" 
			},
			{
				"x": 0.0234879965,
				"y": 5.2122434817,
				"z": 1.0832615978,
				"element": "F" 
			},
			{
				"x": 0.8600103722,
				"y": 4.9167947265,
				"z": 3.1020349967,
				"element": "F" 
			},
			{
				"x": 2.0134945374,
				"y": 6.3369060591,
				"z": 1.6581029361,
				"element": "C" 
			},
			{
				"x": 1.2051476517,
				"y": 7.3509467271,
				"z": 2.0454083433,
				"element": "F" 
			},
			{
				"x": 3.0610993639,
				"y": 6.2613008829,
				"z": 2.5065009225,
				"element": "F" 
			},
			{
				"x": 2.5559133953,
				"y": 6.6924820071,
				"z": 0.253009929,
				"element": "C" 
			},
			{
				"x": 1.5710305678,
				"y": 6.6676789451,
				"z": -0.6525615321,
				"element": "F" 
			},
			{
				"x": 3.083211367,
				"y": 7.9207574019,
				"z": 0.289772242,
				"element": "F" 
			},
			{
				"x": 3.5103699754,
				"y": 5.8255893559,
				"z": -0.1115898644,
				"element": "F" 
			},
			{
				"x": -3.0275140393,
				"y": -1.2863942063,
				"z": -1.3475395478,
				"element": "C" 
			},
			{
				"x": -3.7882449525,
				"y": -1.7343143983,
				"z": -2.4222349083,
				"element": "C" 
			},
			{
				"x": -2.7131102795,
				"y": -4.9603874367,
				"z": -2.6056288881,
				"element": "H" 
			},
			{
				"x": -1.3368137152,
				"y": -4.1823421893,
				"z": -0.6787591042,
				"element": "H" 
			},
			{
				"x": -0.7448362162,
				"y": -2.5275999772,
				"z": 0.7609406245,
				"element": "H" 
			},
			{
				"x": -3.1141030966,
				"y": -0.2689497093,
				"z": -0.9945407243,
				"element": "H" 
			},
			{
				"x": -4.4808099656,
				"y": -1.0734418723,
				"z": -2.9282822278,
				"element": "H" 
			}
		],
		 "valence_orbital": [ 
			{
				"type": "occ",
				"energy": -0.31256,
				"method": "rhf"
			},
			{
				"type": "occ",
				"energy": -0.30352,
				"method": "rhf"
			},
			{
				"type": "occ",
				"energy": -0.29501,
				"method": "rhf"
			},
			{
				"type": "occ",
				"energy": -0.29152,
				"method": "rhf"
			},
			{
				"type": "occ",
				"energy": -0.26667,
				"method": "rhf"
			},
			{
				"type": "unocc",
				"energy": -0.09789,
				"method": "rhf"
			},
			{
				"type": "unocc",
				"energy": -0.04934,
				"method": "rhf"
			},
			{
				"type": "unocc",
				"energy": -0.04013,
				"method": "rhf"
			},
			{
				"type": "unocc",
				"energy": -0.0035,
				"method": "rhf"
			},
			{
				"type": "unocc",
				"energy": 0.00686,
				"method": "rhf"
			}
		],
		"cosmo_sigma_profile": { 
			"-0.025": 0.0,
			"-0.024": 0.0,
			"-0.023": 0.0,
			"-0.022": 0.0,
			"-0.021": 0.0,
			"-0.02": 0.0,
			"-0.019": 0.0,
			"-0.018": 0.0183551435222,
			"-0.017": 0.568239667598,
			"-0.016": 1.007603079,
			"-0.015": 1.20494519224,
			"-0.014": 0.739963703996,
			"-0.013": 0.960867472898,
			"-0.012": 1.11324816378,
			"-0.011": 1.18363579731,
			"-0.01": 1.78612867859,
			"-0.009": 2.01640439056,
			"-0.008": 5.12791120616,
			"-0.007": 6.75858515069,
			"-0.006": 8.9613454588,
			"-0.005": 8.83998646894,
			"-0.004": 13.9844713201,
			"-0.003": 17.4593411884,
			"-0.002": 23.9909570554,
			"-0.001": 43.5342776991,
			"0.0": 97.9630074387,
			"0.001": 125.699504336,
			"0.002": 16.5959056618,
			"0.003": 5.56159407478,
			"0.004": 5.26136259265,
			"0.005": 4.32236897827,
			"0.006": 6.7046613457,
			"0.007": 9.48827548425,
			"0.008": 10.6508196237,
			"0.009": 7.20788840994,
			"0.01": 4.00532424902,
			"0.011": 0.203665628029,
			"0.012": 0.0,
			"0.013": 0.0,
			"0.014": 0.0,
			"0.015": 0.0,
			"0.016": 0.0,
			"0.017": 0.0,
			"0.018": 0.0,
			"0.019": 0.0,
			"0.02": 0.0,
			"0.021": 0.0,
			"0.022": 0.0,
			"0.023": 0.0,
			"0.024": 0.0,
			"0.025": 0.0
		}
	}
}
