{
	 "smiles": "CC(=NNC(N)=O)C1=CC2(C)CCC1C2(C)C", 
	 "Tm": 491.15, 
	 "num_atms": 38, 
	 "gaussian": { 
		 "optdone": 1, 
		 "sigma_profile": "yes", 
		 "theory": "DFT", 
		 "functional": "B3LYP", 
		 "basiset": "6-31G**", 
		 "properties": { 
			 "R2extent": 6175.4747, 
			 "electric_dipole_moment_norm": 4.67014919783, 
			 "electric_quadrupole_moment_norm": 26.8885186288, 
			 "total_energy": -747.487347293, 
			 "HOMO_LUMO_gap": 0.17069, 
			 "cosmo_polarized_energy": -21.47, 
			 "cosmo_cavitation_energy": 38.21, 
			 "cosmo_dispersion_energy": -26.46, 
			 "cosmo_repulsion_energy": 2.08, 
			 "cosmo_total_nonelectrostatic_energy": 13.83, 
			 "SMD_solvation_energy": 6.9 
		},
		"coords": [
			{
				"x": -1.5786613233,
				"y": 2.9391516289,
				"z": -0.3937580158,
				"element": "C" 
			},
			{
				"x": -1.9054611448,
				"y": 1.4636852218,
				"z": -0.2796960783,
				"element": "C" 
			},
			{
				"x": -3.1061768848,
				"y": 0.9938034446,
				"z": -0.392041541,
				"element": "N" 
			},
			{
				"x": -4.1191588623,
				"y": 1.8663010795,
				"z": -0.6376928971,
				"element": "N" 
			},
			{
				"x": -5.3959647337,
				"y": 1.366756187,
				"z": -0.9163758081,
				"element": "C" 
			},
			{
				"x": -6.3013661756,
				"y": 2.3975691683,
				"z": -1.172630736,
				"element": "N" 
			},
			{
				"x": -5.6860938452,
				"y": 0.1894379249,
				"z": -0.9647075855,
				"element": "O" 
			},
			{
				"x": -0.8320474079,
				"y": 0.4816297308,
				"z": -0.0668350319,
				"element": "C" 
			},
			{
				"x": -0.8958320545,
				"y": -0.847624128,
				"z": -0.287385101,
				"element": "C" 
			},
			{
				"x": 0.3838187113,
				"y": -1.4922286398,
				"z": 0.218086833,
				"element": "C" 
			},
			{
				"x": 0.6863235183,
				"y": -2.8923466464,
				"z": -0.2967550717,
				"element": "C" 
			},
			{
				"x": 0.2629229834,
				"y": -1.3798369882,
				"z": 1.7836003497,
				"element": "C" 
			},
			{
				"x": 0.3577701521,
				"y": 0.1515090065,
				"z": 2.0466851197,
				"element": "C" 
			},
			{
				"x": 0.5190270565,
				"y": 0.7367420602,
				"z": 0.6029588691,
				"element": "C" 
			},
			{
				"x": 1.4203144839,
				"y": -0.3376950136,
				"z": -0.0892170851,
				"element": "C" 
			},
			{
				"x": 1.6521660454,
				"y": -0.0802394268,
				"z": -1.5884859999,
				"element": "C" 
			},
			{
				"x": 2.8052805775,
				"y": -0.5190171949,
				"z": 0.5566897834,
				"element": "C" 
			},
			{
				"x": -2.1366409029,
				"y": 3.5307128413,
				"z": 0.3437204282,
				"element": "H" 
			},
			{
				"x": -0.5173085804,
				"y": 3.1312942245,
				"z": -0.2408992706,
				"element": "H" 
			},
			{
				"x": -1.8357757315,
				"y": 3.3263258914,
				"z": -1.389702742,
				"element": "H" 
			},
			{
				"x": -3.9163554851,
				"y": 2.8214299022,
				"z": -0.9156008961,
				"element": "H" 
			},
			{
				"x": -7.2517892164,
				"y": 2.0566212666,
				"z": -1.2144188361,
				"element": "H" 
			},
			{
				"x": -6.2005381884,
				"y": 3.2497839692,
				"z": -0.6369653826,
				"element": "H" 
			},
			{
				"x": -1.7561344706,
				"y": -1.3867546508,
				"z": -0.6693993169,
				"element": "H" 
			},
			{
				"x": -0.1047746941,
				"y": -3.5932665602,
				"z": -0.0072168099,
				"element": "H" 
			},
			{
				"x": 1.6282584868,
				"y": -3.2734437955,
				"z": 0.1128315694,
				"element": "H" 
			},
			{
				"x": 0.7594458274,
				"y": -2.9125448007,
				"z": -1.3893094108,
				"element": "H" 
			},
			{
				"x": 1.0723956687,
				"y": -1.9289769516,
				"z": 2.2770282203,
				"element": "H" 
			},
			{
				"x": -0.6790123179,
				"y": -1.8122787005,
				"z": 2.1318672,
				"element": "H" 
			},
			{
				"x": -0.5333306254,
				"y": 0.5506292445,
				"z": 2.5386303745,
				"element": "H" 
			},
			{
				"x": 1.2167730262,
				"y": 0.4035061367,
				"z": 2.6761190386,
				"element": "H" 
			},
			{
				"x": 0.8988674524,
				"y": 1.7619061999,
				"z": 0.5801983924,
				"element": "H" 
			},
			{
				"x": 2.1948151837,
				"y": -0.916270414,
				"z": -2.0439836273,
				"element": "H" 
			},
			{
				"x": 0.7215133536,
				"y": 0.0579759082,
				"z": -2.140466653,
				"element": "H" 
			},
			{
				"x": 2.268185666,
				"y": 0.8159047839,
				"z": -1.72873534,
				"element": "H" 
			},
			{
				"x": 2.7764473996,
				"y": -0.7242403267,
				"z": 1.6277098876,
				"element": "H" 
			},
			{
				"x": 3.344269365,
				"y": -1.3442586329,
				"z": 0.0780904777,
				"element": "H" 
			},
			{
				"x": 3.4086276869,
				"y": 0.3847470496,
				"z": 0.410962693,
				"element": "H" 
			}
		],
		 "valence_orbital": [ 
			{
				"type": "occ",
				"energy": -0.2778,
				"method": "rhf"
			},
			{
				"type": "occ",
				"energy": -0.27215,
				"method": "rhf"
			},
			{
				"type": "occ",
				"energy": -0.26052,
				"method": "rhf"
			},
			{
				"type": "occ",
				"energy": -0.25217,
				"method": "rhf"
			},
			{
				"type": "occ",
				"energy": -0.20078,
				"method": "rhf"
			},
			{
				"type": "unocc",
				"energy": -0.03009,
				"method": "rhf"
			},
			{
				"type": "unocc",
				"energy": 0.0533,
				"method": "rhf"
			},
			{
				"type": "unocc",
				"energy": 0.0583,
				"method": "rhf"
			},
			{
				"type": "unocc",
				"energy": 0.07679,
				"method": "rhf"
			},
			{
				"type": "unocc",
				"energy": 0.08312,
				"method": "rhf"
			}
		],
		"cosmo_sigma_profile": { 
			"-0.025": 0.0,
			"-0.024": 0.0,
			"-0.023": 0.0,
			"-0.022": 0.0,
			"-0.021": 0.0,
			"-0.02": 0.0,
			"-0.019": 0.0,
			"-0.018": 0.0,
			"-0.017": 0.0,
			"-0.016": 0.0,
			"-0.015": 0.843561956294,
			"-0.014": 2.61101085868,
			"-0.013": 3.47877069255,
			"-0.012": 3.72551079601,
			"-0.011": 3.11394182188,
			"-0.01": 3.32706330442,
			"-0.009": 3.22088612385,
			"-0.008": 2.62432471828,
			"-0.007": 3.69072356365,
			"-0.006": 5.31056078719,
			"-0.005": 6.86357944252,
			"-0.004": 9.0586552145,
			"-0.003": 19.3897014441,
			"-0.002": 36.6143707532,
			"-0.001": 45.9160471414,
			"0.0": 35.7427457733,
			"0.001": 35.6693568993,
			"0.002": 22.2605069449,
			"0.003": 5.74344299395,
			"0.004": 5.67013275932,
			"0.005": 5.04518105904,
			"0.006": 3.58768408047,
			"0.007": 2.90558125271,
			"0.008": 3.18991306742,
			"0.009": 3.04672015005,
			"0.01": 2.5466986658,
			"0.011": 3.05359822925,
			"0.012": 2.58440995212,
			"0.013": 4.909234144,
			"0.014": 5.66080850645,
			"0.015": 1.63672721382,
			"0.016": 1.4451667131,
			"0.017": 1.0465377963,
			"0.018": 0.965890209737,
			"0.019": 0.237852724403,
			"0.02": 0.0,
			"0.021": 0.0,
			"0.022": 0.0,
			"0.023": 0.0,
			"0.024": 0.0,
			"0.025": 0.0
		}
	}
}
