{
	 "smiles": "CCCC(=O)C=CC1=CC(O)=C(O)C=C1", 
	 "Tm": 405.15, 
	 "num_atms": 29, 
	 "gaussian": { 
		 "optdone": 1, 
		 "sigma_profile": "yes", 
		 "theory": "DFT", 
		 "functional": "B3LYP", 
		 "basiset": "6-31G**", 
		 "properties": { 
			 "R2extent": 6521.67, 
			 "electric_dipole_moment_norm": 2.20999235067, 
			 "electric_quadrupole_moment_norm": 23.4236554897, 
			 "total_energy": -691.378159683, 
			 "HOMO_LUMO_gap": 0.14729, 
			 "cosmo_polarized_energy": -15.5, 
			 "cosmo_cavitation_energy": 33.31, 
			 "cosmo_dispersion_energy": -24.21, 
			 "cosmo_repulsion_energy": 1.91, 
			 "cosmo_total_nonelectrostatic_energy": 11.01, 
			 "SMD_solvation_energy": 6.69 
		},
		"coords": [
			{
				"x": -5.1683963098,
				"y": -2.3374672235,
				"z": 1.5848338349,
				"element": "C" 
			},
			{
				"x": -5.0594454717,
				"y": -0.8842266613,
				"z": 1.1099371757,
				"element": "C" 
			},
			{
				"x": -3.6191746562,
				"y": -0.3668299241,
				"z": 1.0557908709,
				"element": "C" 
			},
			{
				"x": -2.7770617329,
				"y": -0.9545293356,
				"z": -0.0741751398,
				"element": "C" 
			},
			{
				"x": -3.2715000646,
				"y": -1.6636174947,
				"z": -0.9440200454,
				"element": "O" 
			},
			{
				"x": -1.3385742957,
				"y": -0.5961987136,
				"z": -0.0686447058,
				"element": "C" 
			},
			{
				"x": -0.5141886439,
				"y": -1.0502485648,
				"z": -1.0358044963,
				"element": "C" 
			},
			{
				"x": 0.9135720173,
				"y": -0.8084631962,
				"z": -1.1992661958,
				"element": "C" 
			},
			{
				"x": 1.5721038629,
				"y": -1.3955403947,
				"z": -2.3009770909,
				"element": "C" 
			},
			{
				"x": 2.9285508748,
				"y": -1.2001056575,
				"z": -2.5070304535,
				"element": "C" 
			},
			{
				"x": 3.65094817,
				"y": -1.7312749273,
				"z": -3.550013427,
				"element": "O" 
			},
			{
				"x": 3.6763638659,
				"y": -0.408428073,
				"z": -1.615864466,
				"element": "C" 
			},
			{
				"x": 5.0048129457,
				"y": -0.2149000311,
				"z": -1.8145258481,
				"element": "O" 
			},
			{
				"x": 3.0367109107,
				"y": 0.1776967717,
				"z": -0.5222356962,
				"element": "C" 
			},
			{
				"x": 1.6755979625,
				"y": -0.019398746,
				"z": -0.3170828739,
				"element": "C" 
			},
			{
				"x": -4.6344068171,
				"y": -3.0074062296,
				"z": 0.9059819069,
				"element": "H" 
			},
			{
				"x": -6.2138818589,
				"y": -2.6606776501,
				"z": 1.6235049002,
				"element": "H" 
			},
			{
				"x": -4.746568887,
				"y": -2.4594138648,
				"z": 2.58985561,
				"element": "H" 
			},
			{
				"x": -5.6404862779,
				"y": -0.2345013959,
				"z": 1.7757319069,
				"element": "H" 
			},
			{
				"x": -5.4994988789,
				"y": -0.794337687,
				"z": 0.1110370849,
				"element": "H" 
			},
			{
				"x": -3.6038934615,
				"y": 0.725898607,
				"z": 0.923918752,
				"element": "H" 
			},
			{
				"x": -3.0984049785,
				"y": -0.5467977983,
				"z": 2.0077350599,
				"element": "H" 
			},
			{
				"x": -0.9840153454,
				"y": 0.0404742956,
				"z": 0.7383691578,
				"element": "H" 
			},
			{
				"x": -0.9843431868,
				"y": -1.680573994,
				"z": -1.7905479362,
				"element": "H" 
			},
			{
				"x": 1.0044929966,
				"y": -2.0098865583,
				"z": -2.9971708458,
				"element": "H" 
			},
			{
				"x": 3.0757371432,
				"y": -2.2610637545,
				"z": -4.1154617952,
				"element": "H" 
			},
			{
				"x": 5.2559245249,
				"y": -0.6990599826,
				"z": -2.6161192378,
				"element": "H" 
			},
			{
				"x": 3.6272555498,
				"y": 0.7850931527,
				"z": 0.1555532941,
				"element": "H" 
			},
			{
				"x": 1.2003700425,
				"y": 0.4461850313,
				"z": 0.5396906994,
				"element": "H" 
			}
		],
		 "valence_orbital": [ 
			{
				"type": "occ",
				"energy": -0.32592,
				"method": "rhf"
			},
			{
				"type": "occ",
				"energy": -0.27953,
				"method": "rhf"
			},
			{
				"type": "occ",
				"energy": -0.2486,
				"method": "rhf"
			},
			{
				"type": "occ",
				"energy": -0.23685,
				"method": "rhf"
			},
			{
				"type": "occ",
				"energy": -0.20998,
				"method": "rhf"
			},
			{
				"type": "unocc",
				"energy": -0.06269,
				"method": "rhf"
			},
			{
				"type": "unocc",
				"energy": -0.00411,
				"method": "rhf"
			},
			{
				"type": "unocc",
				"energy": 0.02258,
				"method": "rhf"
			},
			{
				"type": "unocc",
				"energy": 0.04476,
				"method": "rhf"
			},
			{
				"type": "unocc",
				"energy": 0.08443,
				"method": "rhf"
			}
		],
		"cosmo_sigma_profile": { 
			"-0.025": 0.0,
			"-0.024": 0.0,
			"-0.023": 0.0,
			"-0.022": 0.0,
			"-0.021": 0.0,
			"-0.02": 0.0,
			"-0.019": 0.146313516962,
			"-0.018": 1.20054418345,
			"-0.017": 0.947850704038,
			"-0.016": 1.45930875422,
			"-0.015": 1.39538944743,
			"-0.014": 1.14205731483,
			"-0.013": 1.55154545754,
			"-0.012": 1.61609406704,
			"-0.011": 1.97954078193,
			"-0.01": 1.63465387027,
			"-0.009": 1.56403253857,
			"-0.008": 1.78965555125,
			"-0.007": 6.85223510813,
			"-0.006": 8.98643924418,
			"-0.005": 12.5047210716,
			"-0.004": 14.0122641753,
			"-0.003": 15.3419105343,
			"-0.002": 21.0502910931,
			"-0.001": 21.0061877287,
			"0.0": 22.511173488,
			"0.001": 24.1626241127,
			"0.002": 20.7302632752,
			"0.003": 21.3586836549,
			"0.004": 18.850303249,
			"0.005": 8.44087978105,
			"0.006": 5.13903827462,
			"0.007": 5.06465427084,
			"0.008": 2.88513032961,
			"0.009": 3.42311241309,
			"0.01": 3.57761750573,
			"0.011": 3.83290731287,
			"0.012": 2.45804773871,
			"0.013": 3.92342069535,
			"0.014": 0.411302633569,
			"0.015": 0.0,
			"0.016": 0.0,
			"0.017": 0.0,
			"0.018": 0.0,
			"0.019": 0.0,
			"0.02": 0.0,
			"0.021": 0.0,
			"0.022": 0.0,
			"0.023": 0.0,
			"0.024": 0.0,
			"0.025": 0.0
		}
	}
}
