{
	 "smiles": "ClC1=CC=C(C=C1)C(=O)C1=CC=NC=C1", 
	 "Tm": 381.15, 
	 "num_atms": 23, 
	 "gaussian": { 
		 "optdone": 1, 
		 "sigma_profile": "yes", 
		 "theory": "DFT", 
		 "functional": "B3LYP", 
		 "basiset": "6-31G**", 
		 "properties": { 
			 "R2extent": 5018.7752, 
			 "electric_dipole_moment_norm": 1.46071156975, 
			 "electric_quadrupole_moment_norm": 8.51000307638, 
			 "total_energy": -1052.25843594, 
			 "HOMO_LUMO_gap": 0.17279, 
			 "cosmo_polarized_energy": -10.13, 
			 "cosmo_cavitation_energy": 29.87, 
			 "cosmo_dispersion_energy": -21.86, 
			 "cosmo_repulsion_energy": 1.69, 
			 "cosmo_total_nonelectrostatic_energy": 9.7, 
			 "SMD_solvation_energy": 3.88 
		},
		"coords": [
			{
				"x": 1.7222248752,
				"y": -1.6507055093,
				"z": 4.5960472518,
				"element": "Cl" 
			},
			{
				"x": 0.6478171883,
				"y": -1.1946604123,
				"z": 3.2880548469,
				"element": "C" 
			},
			{
				"x": 1.0241746167,
				"y": -0.1705798929,
				"z": 2.4193078559,
				"element": "C" 
			},
			{
				"x": 0.1715571761,
				"y": 0.178992909,
				"z": 1.3731965244,
				"element": "C" 
			},
			{
				"x": -1.0551461825,
				"y": -0.4797047036,
				"z": 1.1978390813,
				"element": "C" 
			},
			{
				"x": -1.4204270505,
				"y": -1.489437329,
				"z": 2.1034731401,
				"element": "C" 
			},
			{
				"x": -0.5723667444,
				"y": -1.8600843442,
				"z": 3.1400908438,
				"element": "C" 
			},
			{
				"x": -2.0433364189,
				"y": -0.1077884022,
				"z": 0.1368774516,
				"element": "C" 
			},
			{
				"x": -3.2335679422,
				"y": -0.3538064875,
				"z": 0.2876682762,
				"element": "O" 
			},
			{
				"x": -1.5902255984,
				"y": 0.569714194,
				"z": -1.1293347532,
				"element": "C" 
			},
			{
				"x": -2.4795784781,
				"y": 1.4384851474,
				"z": -1.7742422958,
				"element": "C" 
			},
			{
				"x": -2.0910598226,
				"y": 2.0304175494,
				"z": -2.9734241267,
				"element": "C" 
			},
			{
				"x": -0.9125679585,
				"y": 1.7992180457,
				"z": -3.5704388591,
				"element": "N" 
			},
			{
				"x": -0.0793912099,
				"y": 0.9473212255,
				"z": -2.9633092103,
				"element": "C" 
			},
			{
				"x": -0.3609682404,
				"y": 0.3157560621,
				"z": -1.7495963148,
				"element": "C" 
			},
			{
				"x": 1.9666746267,
				"y": 0.3455829261,
				"z": 2.5630942191,
				"element": "H" 
			},
			{
				"x": 0.4574130035,
				"y": 0.9873499942,
				"z": 0.7091268466,
				"element": "H" 
			},
			{
				"x": -2.3822888674,
				"y": -1.9745691324,
				"z": 1.9764921041,
				"element": "H" 
			},
			{
				"x": -0.8477308786,
				"y": -2.6488522888,
				"z": 3.8312073604,
				"element": "H" 
			},
			{
				"x": -3.4522519252,
				"y": 1.634872459,
				"z": -1.3367920437,
				"element": "H" 
			},
			{
				"x": -2.7586138039,
				"y": 2.7212090513,
				"z": -3.4849052776,
				"element": "H" 
			},
			{
				"x": 0.8650159601,
				"y": 0.7561908151,
				"z": -3.469826267,
				"element": "H" 
			},
			{
				"x": 0.355243675,
				"y": -0.3754218766,
				"z": -1.3187066538,
				"element": "H" 
			}
		],
		 "valence_orbital": [ 
			{
				"type": "occ",
				"energy": -0.28139,
				"method": "rhf"
			},
			{
				"type": "occ",
				"energy": -0.27667,
				"method": "rhf"
			},
			{
				"type": "occ",
				"energy": -0.27039,
				"method": "rhf"
			},
			{
				"type": "occ",
				"energy": -0.26566,
				"method": "rhf"
			},
			{
				"type": "occ",
				"energy": -0.25771,
				"method": "rhf"
			},
			{
				"type": "unocc",
				"energy": -0.08492,
				"method": "rhf"
			},
			{
				"type": "unocc",
				"energy": -0.03762,
				"method": "rhf"
			},
			{
				"type": "unocc",
				"energy": -0.03021,
				"method": "rhf"
			},
			{
				"type": "unocc",
				"energy": -0.02176,
				"method": "rhf"
			},
			{
				"type": "unocc",
				"energy": 0.01856,
				"method": "rhf"
			}
		],
		"cosmo_sigma_profile": { 
			"-0.025": 0.0,
			"-0.024": 0.0,
			"-0.023": 0.0,
			"-0.022": 0.0,
			"-0.021": 0.0,
			"-0.02": 0.0,
			"-0.019": 0.0,
			"-0.018": 0.0,
			"-0.017": 0.0,
			"-0.016": 0.0,
			"-0.015": 0.0,
			"-0.014": 0.0,
			"-0.013": 0.0,
			"-0.012": 0.0,
			"-0.011": 0.0,
			"-0.01": 0.0,
			"-0.009": 0.0,
			"-0.008": 2.51910360562,
			"-0.007": 12.4165983278,
			"-0.006": 17.959529936,
			"-0.005": 17.3496454789,
			"-0.004": 15.1035079895,
			"-0.003": 13.0330958392,
			"-0.002": 14.8818031098,
			"-0.001": 15.9550135568,
			"0.0": 22.6346444476,
			"0.001": 29.8261496019,
			"0.002": 25.6499168852,
			"0.003": 12.0891783682,
			"0.004": 13.9933352657,
			"0.005": 4.55204990271,
			"0.006": 2.85861783611,
			"0.007": 3.21089138024,
			"0.008": 3.03533774825,
			"0.009": 2.63544891086,
			"0.01": 3.75018787158,
			"0.011": 4.75171127067,
			"0.012": 2.06868340947,
			"0.013": 0.564267990456,
			"0.014": 1.39060381316,
			"0.015": 0.630074385167,
			"0.016": 0.638875823684,
			"0.017": 0.0566710945053,
			"0.018": 0.0,
			"0.019": 0.0,
			"0.02": 0.0,
			"0.021": 0.0,
			"0.022": 0.0,
			"0.023": 0.0,
			"0.024": 0.0,
			"0.025": 0.0
		}
	}
}
