{
	 "smiles": "CC1=C(C(Br)=NC=C1)[N+]([O-])=O", 
	 "Tm": 328.15, 
	 "num_atms": 16, 
	 "gaussian": { 
		 "optdone": 1, 
		 "sigma_profile": "yes", 
		 "theory": "DFT", 
		 "functional": "B3LYP", 
		 "basiset": "6-31G**", 
		 "properties": { 
			 "R2extent": 5237.3799, 
			 "electric_dipole_moment_norm": 4.57356403366, 
			 "electric_quadrupole_moment_norm": 5.22776680046, 
			 "total_energy": -3062.88950662, 
			 "HOMO_LUMO_gap": 0.18426, 
			 "cosmo_polarized_energy": -9.69, 
			 "cosmo_cavitation_energy": 23.72, 
			 "cosmo_dispersion_energy": -17.2, 
			 "cosmo_repulsion_energy": 1.38, 
			 "cosmo_total_nonelectrostatic_energy": 7.9, 
			 "SMD_solvation_energy": 4.28 
		},
		"coords": [
			{
				"x": -0.2099394471,
				"y": 0.3894669169,
				"z": 0.1737549382,
				"element": "C" 
			},
			{
				"x": 1.1943485891,
				"y": 0.2830270679,
				"z": -0.3595740094,
				"element": "C" 
			},
			{
				"x": 1.6913233837,
				"y": -0.9202648045,
				"z": -0.8696263224,
				"element": "C" 
			},
			{
				"x": 2.995883625,
				"y": -0.9976612611,
				"z": -1.3592834618,
				"element": "C" 
			},
			{
				"x": 3.6582721714,
				"y": -2.6490204632,
				"z": -2.0527051877,
				"element": "Br" 
			},
			{
				"x": 3.8183025026,
				"y": 0.0338768368,
				"z": -1.3701868619,
				"element": "N" 
			},
			{
				"x": 3.3642788747,
				"y": 1.1971665037,
				"z": -0.8865030427,
				"element": "C" 
			},
			{
				"x": 2.078869944,
				"y": 1.366656042,
				"z": -0.3783846949,
				"element": "C" 
			},
			{
				"x": 0.8038920859,
				"y": -2.0982226923,
				"z": -0.8757174769,
				"element": "N" 
			},
			{
				"x": 0.0994596711,
				"y": -2.2551685177,
				"z": -1.8670608614,
				"element": "O" 
			},
			{
				"x": 0.8167382014,
				"y": -2.8058103813,
				"z": 0.1256604305,
				"element": "O" 
			},
			{
				"x": -0.3621626827,
				"y": -0.3078944542,
				"z": 1.0041034021,
				"element": "H" 
			},
			{
				"x": -0.4171459827,
				"y": 1.401092727,
				"z": 0.5269639139,
				"element": "H" 
			},
			{
				"x": -0.9387999462,
				"y": 0.134997141,
				"z": -0.6027506443,
				"element": "H" 
			},
			{
				"x": 4.0657508608,
				"y": 2.0274688176,
				"z": -0.9094035902,
				"element": "H" 
			},
			{
				"x": 1.7639281491,
				"y": 2.3332905215,
				"z": 0.001113469,
				"element": "H" 
			}
		],
		 "valence_orbital": [ 
			{
				"type": "occ",
				"energy": -0.32262,
				"method": "rhf"
			},
			{
				"type": "occ",
				"energy": -0.30265,
				"method": "rhf"
			},
			{
				"type": "occ",
				"energy": -0.29482,
				"method": "rhf"
			},
			{
				"type": "occ",
				"energy": -0.28836,
				"method": "rhf"
			},
			{
				"type": "occ",
				"energy": -0.26969,
				"method": "rhf"
			},
			{
				"type": "unocc",
				"energy": -0.08543,
				"method": "rhf"
			},
			{
				"type": "unocc",
				"energy": -0.05688,
				"method": "rhf"
			},
			{
				"type": "unocc",
				"energy": -0.04646,
				"method": "rhf"
			},
			{
				"type": "unocc",
				"energy": -0.00696,
				"method": "rhf"
			},
			{
				"type": "unocc",
				"energy": 0.08276,
				"method": "rhf"
			}
		],
		"cosmo_sigma_profile": { 
			"-0.025": 0.0,
			"-0.024": 0.0,
			"-0.023": 0.0,
			"-0.022": 0.0,
			"-0.021": 0.0,
			"-0.02": 0.0,
			"-0.019": 0.0,
			"-0.018": 0.0,
			"-0.017": 0.0,
			"-0.016": 0.0,
			"-0.015": 0.0,
			"-0.014": 0.0,
			"-0.013": 0.0,
			"-0.012": 0.0,
			"-0.011": 0.0,
			"-0.01": 0.0,
			"-0.009": 0.824324312157,
			"-0.008": 6.30161822541,
			"-0.007": 6.59370012455,
			"-0.006": 8.94502793572,
			"-0.005": 12.0517031194,
			"-0.004": 13.0772236224,
			"-0.003": 16.1948441302,
			"-0.002": 19.9206788367,
			"-0.001": 15.2432003706,
			"0.0": 14.5987666006,
			"0.001": 9.723447354,
			"0.002": 11.7948508171,
			"0.003": 12.7309096823,
			"0.004": 7.28357794427,
			"0.005": 6.06796028312,
			"0.006": 10.6663298828,
			"0.007": 10.352925106,
			"0.008": 5.72877557839,
			"0.009": 2.23902328174,
			"0.01": 0.719327536854,
			"0.011": 0.835989805797,
			"0.012": 1.10302721299,
			"0.013": 0.632231742252,
			"0.014": 0.02578117465,
			"0.015": 0.0,
			"0.016": 0.0,
			"0.017": 0.0,
			"0.018": 0.0,
			"0.019": 0.0,
			"0.02": 0.0,
			"0.021": 0.0,
			"0.022": 0.0,
			"0.023": 0.0,
			"0.024": 0.0,
			"0.025": 0.0
		}
	}
}
