{
	 "smiles": "CC1=CC(=O)NC(N)=C1", 
	 "Tm": 530.15, 
	 "num_atms": 17, 
	 "gaussian": { 
		 "optdone": 1, 
		 "sigma_profile": "yes", 
		 "theory": "DFT", 
		 "functional": "B3LYP", 
		 "basiset": "6-31G**", 
		 "properties": { 
			 "R2extent": 1452.9415, 
			 "electric_dipole_moment_norm": 5.62458054614, 
			 "electric_quadrupole_moment_norm": 16.8348858989, 
			 "total_energy": -418.203814884, 
			 "HOMO_LUMO_gap": 0.17861, 
			 "cosmo_polarized_energy": -19.17, 
			 "cosmo_cavitation_energy": 20.87, 
			 "cosmo_dispersion_energy": -15.65, 
			 "cosmo_repulsion_energy": 1.3, 
			 "cosmo_total_nonelectrostatic_energy": 6.52, 
			 "SMD_solvation_energy": 4.47 
		},
		"coords": [
			{
				"x": -2.3170039411,
				"y": 1.2266683825,
				"z": 1.1937749362,
				"element": "C" 
			},
			{
				"x": -1.4587855772,
				"y": 0.4391090006,
				"z": 0.2347523464,
				"element": "C" 
			},
			{
				"x": -0.6989410636,
				"y": 1.0729810361,
				"z": -0.7175722956,
				"element": "C" 
			},
			{
				"x": 0.1335218707,
				"y": 0.3424055537,
				"z": -1.6428714535,
				"element": "C" 
			},
			{
				"x": 0.8624336013,
				"y": 0.7956560827,
				"z": -2.52154141,
				"element": "O" 
			},
			{
				"x": 0.0699273235,
				"y": -1.0660133551,
				"z": -1.4654993703,
				"element": "N" 
			},
			{
				"x": -0.6812992082,
				"y": -1.7180620619,
				"z": -0.5287885312,
				"element": "C" 
			},
			{
				"x": -0.5455209621,
				"y": -3.0989249267,
				"z": -0.4854867109,
				"element": "N" 
			},
			{
				"x": -1.4630938438,
				"y": -0.9841293381,
				"z": 0.3323329785,
				"element": "C" 
			},
			{
				"x": -3.3710053533,
				"y": 0.9398960472,
				"z": 1.0997241237,
				"element": "H" 
			},
			{
				"x": -2.0232425335,
				"y": 1.0289715925,
				"z": 2.2313219793,
				"element": "H" 
			},
			{
				"x": -2.2380181916,
				"y": 2.3012134264,
				"z": 1.0145347647,
				"element": "H" 
			},
			{
				"x": -0.6848411594,
				"y": 2.1527597979,
				"z": -0.808523356,
				"element": "H" 
			},
			{
				"x": 0.7055756381,
				"y": -1.5813461743,
				"z": -2.0621547872,
				"element": "H" 
			},
			{
				"x": -0.4419025849,
				"y": -3.555356901,
				"z": -1.3832798601,
				"element": "H" 
			},
			{
				"x": -1.2346480213,
				"y": -3.5611354223,
				"z": 0.0914956183,
				"element": "H" 
			},
			{
				"x": -2.0764559936,
				"y": -1.4903927402,
				"z": 1.0691810276,
				"element": "H" 
			}
		],
		 "valence_orbital": [ 
			{
				"type": "occ",
				"energy": -0.35635,
				"method": "rhf"
			},
			{
				"type": "occ",
				"energy": -0.28371,
				"method": "rhf"
			},
			{
				"type": "occ",
				"energy": -0.27534,
				"method": "rhf"
			},
			{
				"type": "occ",
				"energy": -0.23571,
				"method": "rhf"
			},
			{
				"type": "occ",
				"energy": -0.1941,
				"method": "rhf"
			},
			{
				"type": "unocc",
				"energy": -0.01549,
				"method": "rhf"
			},
			{
				"type": "unocc",
				"energy": 0.03091,
				"method": "rhf"
			},
			{
				"type": "unocc",
				"energy": 0.05666,
				"method": "rhf"
			},
			{
				"type": "unocc",
				"energy": 0.09617,
				"method": "rhf"
			},
			{
				"type": "unocc",
				"energy": 0.10229,
				"method": "rhf"
			}
		],
		"cosmo_sigma_profile": { 
			"-0.025": 0.0,
			"-0.024": 0.0,
			"-0.023": 0.0,
			"-0.022": 0.0,
			"-0.021": 0.0,
			"-0.02": 0.0,
			"-0.019": 0.0,
			"-0.018": 0.0,
			"-0.017": 0.00134637326839,
			"-0.016": 1.03363951623,
			"-0.015": 2.18040546587,
			"-0.014": 2.79680895901,
			"-0.013": 4.23364291474,
			"-0.012": 4.03886805229,
			"-0.011": 2.86984373398,
			"-0.01": 2.47818778565,
			"-0.009": 2.83662865132,
			"-0.008": 3.1633682807,
			"-0.007": 2.15111123824,
			"-0.006": 2.95708432645,
			"-0.005": 6.58187647074,
			"-0.004": 10.9713409288,
			"-0.003": 10.087833576,
			"-0.002": 11.8854314046,
			"-0.001": 10.705142465,
			"0.0": 9.79458550411,
			"0.001": 9.51655797224,
			"0.002": 9.70245401828,
			"0.003": 8.58551100338,
			"0.004": 8.49830863624,
			"0.005": 8.53574951792,
			"0.006": 3.35911866303,
			"0.007": 2.24610104172,
			"0.008": 1.43379054989,
			"0.009": 2.25925117417,
			"0.01": 1.97602622273,
			"0.011": 1.5931373356,
			"0.012": 1.91213690915,
			"0.013": 1.89911009345,
			"0.014": 2.84899604137,
			"0.015": 6.79746402665,
			"0.016": 2.49088927946,
			"0.017": 0.225923809806,
			"0.018": 0.0,
			"0.019": 0.0,
			"0.02": 0.0,
			"0.021": 0.0,
			"0.022": 0.0,
			"0.023": 0.0,
			"0.024": 0.0,
			"0.025": 0.0
		}
	}
}
