{
	 "smiles": "CC(=O)C1=CC=C(I)S1", 
	 "Tm": 401.15, 
	 "num_atms": 14, 
	 "gaussian": { 
		 "optdone": 1, 
		 "sigma_profile": "no", 
		 "theory": "DFT", 
		 "functional": "B3LYP", 
		 "basiset": "6-31G**", 
		 "properties": { 
			 "R2extent": 1978.7843, 
			 "electric_dipole_moment_norm": 3.5566511721, 
			 "electric_quadrupole_moment_norm": 12.0086235185, 
			 "total_energy": -716.432811239, 
			 "HOMO_LUMO_gap": 0.16903, 
			 "cosmo_polarized_energy": -106528.05, 
			 "cosmo_cavitation_energy": 23.36, 
			 "cosmo_dispersion_energy": -19.02, 
			 "cosmo_repulsion_energy": 1.48, 
			 "cosmo_total_nonelectrostatic_energy": 5.82, 
			 "SMD_solvation_energy": 3.64 
		},
		"coords": [
			{
				"x": 1.2580695592,
				"y": -2.6844610593,
				"z": -0.8580729901,
				"element": "C" 
			},
			{
				"x": 0.9766303864,
				"y": -1.4764137396,
				"z": -1.734687658,
				"element": "C" 
			},
			{
				"x": 1.065478816,
				"y": -1.5297727572,
				"z": -2.9538512789,
				"element": "O" 
			},
			{
				"x": 0.5883869025,
				"y": -0.2216552865,
				"z": -1.0654496376,
				"element": "C" 
			},
			{
				"x": 0.4275291992,
				"y": 0.0648914357,
				"z": 0.2736575253,
				"element": "C" 
			},
			{
				"x": 0.0404794189,
				"y": 1.4078510262,
				"z": 0.522585133,
				"element": "C" 
			},
			{
				"x": -0.0872349397,
				"y": 2.1254161194,
				"z": -0.6440194973,
				"element": "C" 
			},
			{
				"x": -0.6339526167,
				"y": 4.1333621684,
				"z": -0.7960789989,
				"element": "I" 
			},
			{
				"x": 0.259895703,
				"y": 1.181526795,
				"z": -2.0555651536,
				"element": "S" 
			},
			{
				"x": 1.529713648,
				"y": -3.5245432898,
				"z": -1.4979034426,
				"element": "H" 
			},
			{
				"x": 2.0768560449,
				"y": -2.4773607414,
				"z": -0.1606232227,
				"element": "H" 
			},
			{
				"x": 0.3765579339,
				"y": -2.9484570893,
				"z": -0.2639509348,
				"element": "H" 
			},
			{
				"x": 0.5819318689,
				"y": -0.6653343098,
				"z": 1.0600938378,
				"element": "H" 
			},
			{
				"x": -0.1343419245,
				"y": 1.8228507281,
				"z": 1.5073663183,
				"element": "H" 
			}
		],
		 "valence_orbital": [ 
			{
				"type": "occ",
				"energy": -0.30385,
				"method": "rhf"
			},
			{
				"type": "occ",
				"energy": -0.28445,
				"method": "rhf"
			},
			{
				"type": "occ",
				"energy": -0.27244,
				"method": "rhf"
			},
			{
				"type": "occ",
				"energy": -0.2591,
				"method": "rhf"
			},
			{
				"type": "occ",
				"energy": -0.24176,
				"method": "rhf"
			},
			{
				"type": "unocc",
				"energy": -0.07273,
				"method": "rhf"
			},
			{
				"type": "unocc",
				"energy": -0.05313,
				"method": "rhf"
			},
			{
				"type": "unocc",
				"energy": 0.00649,
				"method": "rhf"
			},
			{
				"type": "unocc",
				"energy": 0.01716,
				"method": "rhf"
			},
			{
				"type": "unocc",
				"energy": 0.04559,
				"method": "rhf"
			}
		],
		"cosmo_sigma_profile": { 
			"0.0": 0.0,
			"0.0": 0.0,
			"0.0": 0.0,
			"0.0": 0.0,
			"0.0": 0.0,
			"0.0": 0.0,
			"0.0": 0.0,
			"0.0": 0.0,
			"0.0": 0.0,
			"0.0": 0.0,
			"0.0": 0.0,
			"0.0": 0.0,
			"0.0": 0.0,
			"0.0": 0.0,
			"0.0": 0.0,
			"0.0": 0.0,
			"0.0": 0.0,
			"0.0": 0.0,
			"0.0": 0.0,
			"0.0": 0.0,
			"0.0": 0.0,
			"0.0": 0.0,
			"0.0": 0.0,
			"0.0": 0.0,
			"0.0": 0.0,
			"0.0": 0.0,
			"0.0": 0.0,
			"0.0": 0.0,
			"0.0": 0.0,
			"0.0": 0.0,
			"0.0": 0.0,
			"0.0": 0.0,
			"0.0": 0.0,
			"0.0": 0.0,
			"0.0": 0.0,
			"0.0": 0.0,
			"0.0": 0.0,
			"0.0": 0.0,
			"0.0": 0.0,
			"0.0": 0.0,
			"0.0": 0.0,
			"0.0": 0.0,
			"0.0": 0.0,
			"0.0": 0.0,
			"0.0": 0.0,
			"0.0": 0.0,
			"0.0": 0.0,
			"0.0": 0.0,
			"0.0": 0.0,
			"0.0": 0.0,
			"0.0": 0.0
		}
	}
}
