{
	 "smiles": "COC1=CC(C(C)NC(=O)CCl)=C(OC)C=C1", 
	 "Tm": 377.15, 
	 "num_atms": 33, 
	 "gaussian": { 
		 "optdone": 1, 
		 "sigma_profile": "yes", 
		 "theory": "DFT", 
		 "functional": "B3LYP", 
		 "basiset": "6-31G**", 
		 "properties": { 
			 "R2extent": 6019.6328, 
			 "electric_dipole_moment_norm": 1.7933649517, 
			 "electric_quadrupole_moment_norm": 13.5855318817, 
			 "total_energy": -1207.53356988, 
			 "HOMO_LUMO_gap": 0.19532, 
			 "cosmo_polarized_energy": -15.2, 
			 "cosmo_cavitation_energy": 38.11, 
			 "cosmo_dispersion_energy": -25.82, 
			 "cosmo_repulsion_energy": 2.07, 
			 "cosmo_total_nonelectrostatic_energy": 14.36, 
			 "SMD_solvation_energy": 8.43 
		},
		"coords": [
			{
				"x": 3.3367279067,
				"y": -0.9493454581,
				"z": -0.3789500944,
				"element": "C" 
			},
			{
				"x": 3.2127030824,
				"y": 0.2184077381,
				"z": -1.1709349638,
				"element": "O" 
			},
			{
				"x": 2.0629953234,
				"y": 0.9548935157,
				"z": -1.0615532074,
				"element": "C" 
			},
			{
				"x": 0.9873189098,
				"y": 0.6296752952,
				"z": -0.2259751778,
				"element": "C" 
			},
			{
				"x": -0.1521108809,
				"y": 1.4363105805,
				"z": -0.1714830531,
				"element": "C" 
			},
			{
				"x": -1.3484855571,
				"y": 1.0917187655,
				"z": 0.714457159,
				"element": "C" 
			},
			{
				"x": -2.5120636638,
				"y": 0.5085955142,
				"z": -0.1042892203,
				"element": "C" 
			},
			{
				"x": -1.0097370479,
				"y": 0.1694849223,
				"z": 1.7963765627,
				"element": "N" 
			},
			{
				"x": -0.7300390465,
				"y": 0.5916084136,
				"z": 3.0515650026,
				"element": "C" 
			},
			{
				"x": -0.7197132795,
				"y": 1.7593296136,
				"z": 3.4194487334,
				"element": "O" 
			},
			{
				"x": -0.4160405113,
				"y": -0.4669245497,
				"z": 4.1142444867,
				"element": "C" 
			},
			{
				"x": -0.3503278482,
				"y": -2.2004134872,
				"z": 3.5610014333,
				"element": "Cl" 
			},
			{
				"x": -0.2082831805,
				"y": 2.5923072224,
				"z": -0.970862645,
				"element": "C" 
			},
			{
				"x": -1.3601305678,
				"y": 3.3354737411,
				"z": -0.8695804992,
				"element": "O" 
			},
			{
				"x": -1.4277365896,
				"y": 4.5684383961,
				"z": -1.5652328325,
				"element": "C" 
			},
			{
				"x": 0.8669884036,
				"y": 2.9218690099,
				"z": -1.8029471264,
				"element": "C" 
			},
			{
				"x": 1.9950334805,
				"y": 2.1063029618,
				"z": -1.8490753047,
				"element": "C" 
			},
			{
				"x": 3.2971303743,
				"y": -0.721025928,
				"z": 0.6944747891,
				"element": "H" 
			},
			{
				"x": 2.5577492517,
				"y": -1.6871628849,
				"z": -0.6140490082,
				"element": "H" 
			},
			{
				"x": 4.3132189964,
				"y": -1.3745282038,
				"z": -0.6172068682,
				"element": "H" 
			},
			{
				"x": 1.032806403,
				"y": -0.2443816311,
				"z": 0.4117122066,
				"element": "H" 
			},
			{
				"x": -1.6793951853,
				"y": 2.0134379424,
				"z": 1.1995075056,
				"element": "H" 
			},
			{
				"x": -2.7999144135,
				"y": 1.2090970373,
				"z": -0.8902794198,
				"element": "H" 
			},
			{
				"x": -2.2208280225,
				"y": -0.4356930311,
				"z": -0.5790629816,
				"element": "H" 
			},
			{
				"x": -3.3793212429,
				"y": 0.3245725667,
				"z": 0.537370269,
				"element": "H" 
			},
			{
				"x": -1.0156978509,
				"y": -0.8249789169,
				"z": 1.6165908659,
				"element": "H" 
			},
			{
				"x": 0.5552775952,
				"y": -0.2347517277,
				"z": 4.5501606582,
				"element": "H" 
			},
			{
				"x": -1.1758274301,
				"y": -0.4111105953,
				"z": 4.8941319922,
				"element": "H" 
			},
			{
				"x": -0.6249893645,
				"y": 5.2508151746,
				"z": -1.2575401113,
				"element": "H" 
			},
			{
				"x": -2.3920542255,
				"y": 5.0091079241,
				"z": -1.3068040569,
				"element": "H" 
			},
			{
				"x": -1.378435527,
				"y": 4.4255304958,
				"z": -2.65285903,
				"element": "H" 
			},
			{
				"x": 0.8375408837,
				"y": 3.8133489583,
				"z": -2.4181043277,
				"element": "H" 
			},
			{
				"x": 2.8351408249,
				"y": 2.3537906244,
				"z": -2.489351736,
				"element": "H" 
			}
		],
		 "valence_orbital": [ 
			{
				"type": "occ",
				"energy": -0.28728,
				"method": "rhf"
			},
			{
				"type": "occ",
				"energy": -0.26071,
				"method": "rhf"
			},
			{
				"type": "occ",
				"energy": -0.2556,
				"method": "rhf"
			},
			{
				"type": "occ",
				"energy": -0.24675,
				"method": "rhf"
			},
			{
				"type": "occ",
				"energy": -0.19774,
				"method": "rhf"
			},
			{
				"type": "unocc",
				"energy": -0.00242,
				"method": "rhf"
			},
			{
				"type": "unocc",
				"energy": 0.01299,
				"method": "rhf"
			},
			{
				"type": "unocc",
				"energy": 0.02157,
				"method": "rhf"
			},
			{
				"type": "unocc",
				"energy": 0.02442,
				"method": "rhf"
			},
			{
				"type": "unocc",
				"energy": 0.08382,
				"method": "rhf"
			}
		],
		"cosmo_sigma_profile": { 
			"-0.025": 0.0,
			"-0.024": 0.0,
			"-0.023": 0.0,
			"-0.022": 0.0,
			"-0.021": 0.0,
			"-0.02": 0.0,
			"-0.019": 0.0,
			"-0.018": 0.0,
			"-0.017": 0.0,
			"-0.016": 0.0,
			"-0.015": 0.0,
			"-0.014": 0.0,
			"-0.013": 0.0,
			"-0.012": 0.197414772928,
			"-0.011": 0.991498249966,
			"-0.01": 1.49166552306,
			"-0.009": 3.69493873086,
			"-0.008": 5.16009307077,
			"-0.007": 5.78188627423,
			"-0.006": 12.303424323,
			"-0.005": 26.8324340487,
			"-0.004": 28.4422038367,
			"-0.003": 29.6606190247,
			"-0.002": 23.2780461332,
			"-0.001": 19.9322038314,
			"0.0": 20.0000097211,
			"0.001": 15.9242382253,
			"0.002": 14.8648365221,
			"0.003": 15.9607871431,
			"0.004": 19.3073188615,
			"0.005": 22.0444697283,
			"0.006": 11.7763364678,
			"0.007": 4.56157960182,
			"0.008": 2.83659075508,
			"0.009": 2.88764193649,
			"0.01": 2.74828624945,
			"0.011": 2.62741954583,
			"0.012": 1.99534592397,
			"0.013": 5.86377942865,
			"0.014": 2.02652824663,
			"0.015": 0.0225879773936,
			"0.016": 0.0,
			"0.017": 0.0,
			"0.018": 0.0,
			"0.019": 0.0,
			"0.02": 0.0,
			"0.021": 0.0,
			"0.022": 0.0,
			"0.023": 0.0,
			"0.024": 0.0,
			"0.025": 0.0
		}
	}
}
