{
	 "smiles": "CC(=O)OC[C@H]1O[C@H]([C@H](OC(C)=O)[C@@H](OC(C)=O)[C@H]1OC(C)=O)C(N)=O", 
	 "Tm": 401.15, 
	 "num_atms": 47, 
	 "gaussian": { 
		 "optdone": 1, 
		 "sigma_profile": "yes", 
		 "theory": "DFT", 
		 "functional": "B3LYP", 
		 "basiset": "6-31G**", 
		 "properties": { 
			 "R2extent": 9698.1318, 
			 "electric_dipole_moment_norm": 5.16017072004, 
			 "electric_quadrupole_moment_norm": 20.383776732, 
			 "total_energy": -1391.29934044, 
			 "HOMO_LUMO_gap": 0.25447, 
			 "cosmo_polarized_energy": -27.95, 
			 "cosmo_cavitation_energy": 51.91, 
			 "cosmo_dispersion_energy": -32.22, 
			 "cosmo_repulsion_energy": 2.56, 
			 "cosmo_total_nonelectrostatic_energy": 22.25, 
			 "SMD_solvation_energy": 13.76 
		},
		"coords": [
			{
				"x": -4.1411867371,
				"y": -2.780566492,
				"z": -3.8342230017,
				"element": "C" 
			},
			{
				"x": -3.7674981145,
				"y": -2.2526817097,
				"z": -2.4702449493,
				"element": "C" 
			},
			{
				"x": -4.1650173708,
				"y": -2.6897076501,
				"z": -1.41240475,
				"element": "O" 
			},
			{
				"x": -2.9123090148,
				"y": -1.2041139272,
				"z": -2.5789279065,
				"element": "O" 
			},
			{
				"x": -2.5031092497,
				"y": -0.5839038627,
				"z": -1.3427998958,
				"element": "C" 
			},
			{
				"x": -1.3066338351,
				"y": -1.3173604983,
				"z": -0.7446633086,
				"element": "C" 
			},
			{
				"x": -0.2666037678,
				"y": -1.2489996312,
				"z": -1.7240251301,
				"element": "O" 
			},
			{
				"x": 1.0024043998,
				"y": -1.6798288831,
				"z": -1.2574592744,
				"element": "C" 
			},
			{
				"x": 1.5698874692,
				"y": -0.6858756712,
				"z": -0.2226083104,
				"element": "C" 
			},
			{
				"x": 2.2323487699,
				"y": -1.4780143357,
				"z": 0.7780793729,
				"element": "O" 
			},
			{
				"x": 3.2829955463,
				"y": -0.8894446118,
				"z": 1.420761328,
				"element": "C" 
			},
			{
				"x": 3.9454555824,
				"y": -1.868864883,
				"z": 2.3547141455,
				"element": "C" 
			},
			{
				"x": 3.61243579,
				"y": 0.259621271,
				"z": 1.2396701168,
				"element": "O" 
			},
			{
				"x": 0.4426586871,
				"y": 0.1329365803,
				"z": 0.4324291808,
				"element": "C" 
			},
			{
				"x": 0.1759253299,
				"y": 1.269158318,
				"z": -0.4168696139,
				"element": "O" 
			},
			{
				"x": -0.0842423514,
				"y": 2.4574001107,
				"z": 0.1946433643,
				"element": "C" 
			},
			{
				"x": -0.222748984,
				"y": 3.5555573519,
				"z": -0.8306531528,
				"element": "C" 
			},
			{
				"x": -0.1772853212,
				"y": 2.5998798468,
				"z": 1.3930499631,
				"element": "O" 
			},
			{
				"x": -0.8125085355,
				"y": -0.7255719126,
				"z": 0.6059335516,
				"element": "C" 
			},
			{
				"x": -1.8710946594,
				"y": 0.0399704645,
				"z": 1.2009093109,
				"element": "O" 
			},
			{
				"x": -1.8508167625,
				"y": 0.1429183288,
				"z": 2.5658644448,
				"element": "C" 
			},
			{
				"x": -2.8905957753,
				"y": 1.1219284572,
				"z": 3.0378672894,
				"element": "C" 
			},
			{
				"x": -1.0724231042,
				"y": -0.4651759732,
				"z": 3.2624935689,
				"element": "O" 
			},
			{
				"x": 1.9495002234,
				"y": -1.8542372224,
				"z": -2.4534181465,
				"element": "C" 
			},
			{
				"x": 1.3219053149,
				"y": -1.995432181,
				"z": -3.6484155691,
				"element": "N" 
			},
			{
				"x": 3.1597062617,
				"y": -1.9001223533,
				"z": -2.2876825109,
				"element": "O" 
			},
			{
				"x": -4.5857291706,
				"y": -1.9838788161,
				"z": -4.437592134,
				"element": "H" 
			},
			{
				"x": -3.2459744305,
				"y": -3.1263821182,
				"z": -4.3597442852,
				"element": "H" 
			},
			{
				"x": -4.8459298378,
				"y": -3.6038215548,
				"z": -3.7233133001,
				"element": "H" 
			},
			{
				"x": -3.3331054238,
				"y": -0.5813594075,
				"z": -0.6380422085,
				"element": "H" 
			},
			{
				"x": -2.2218132477,
				"y": 0.4351032216,
				"z": -1.609223792,
				"element": "H" 
			},
			{
				"x": -1.5853385185,
				"y": -2.3695920196,
				"z": -0.5904946293,
				"element": "H" 
			},
			{
				"x": 0.9203389377,
				"y": -2.6654634816,
				"z": -0.7706619588,
				"element": "H" 
			},
			{
				"x": 2.2891830131,
				"y": 0.0003378407,
				"z": -0.6703862366,
				"element": "H" 
			},
			{
				"x": 3.2055084893,
				"y": -2.3096133953,
				"z": 3.0284319768,
				"element": "H" 
			},
			{
				"x": 4.7185722989,
				"y": -1.3570465331,
				"z": 2.9265627631,
				"element": "H" 
			},
			{
				"x": 4.3904551738,
				"y": -2.682913687,
				"z": 1.7742938237,
				"element": "H" 
			},
			{
				"x": 0.7714283723,
				"y": 0.4956815067,
				"z": 1.4070267183,
				"element": "H" 
			},
			{
				"x": -0.5170019284,
				"y": 4.4795726649,
				"z": -0.3342908525,
				"element": "H" 
			},
			{
				"x": -0.9620218198,
				"y": 3.280966097,
				"z": -1.5882188539,
				"element": "H" 
			},
			{
				"x": 0.7325725595,
				"y": 3.7001118923,
				"z": -1.3443725789,
				"element": "H" 
			},
			{
				"x": -0.5422016582,
				"y": -1.5320563879,
				"z": 1.2934659416,
				"element": "H" 
			},
			{
				"x": -3.0533798471,
				"y": 0.9926562402,
				"z": 4.1075435846,
				"element": "H" 
			},
			{
				"x": -3.8263380801,
				"y": 1.0010913982,
				"z": 2.4873189517,
				"element": "H" 
			},
			{
				"x": -2.510267701,
				"y": 2.1309452439,
				"z": 2.8472584009,
				"element": "H" 
			},
			{
				"x": 1.8901563051,
				"y": -2.045279941,
				"z": -4.4800939878,
				"element": "H" 
			},
			{
				"x": 0.3352367225,
				"y": -1.793927694,
				"z": -3.7130874602,
				"element": "H" 
			}
		],
		 "valence_orbital": [ 
			{
				"type": "occ",
				"energy": -0.28025,
				"method": "rhf"
			},
			{
				"type": "occ",
				"energy": -0.27554,
				"method": "rhf"
			},
			{
				"type": "occ",
				"energy": -0.27457,
				"method": "rhf"
			},
			{
				"type": "occ",
				"energy": -0.27091,
				"method": "rhf"
			},
			{
				"type": "occ",
				"energy": -0.255,
				"method": "rhf"
			},
			{
				"type": "unocc",
				"energy": -0.00053,
				"method": "rhf"
			},
			{
				"type": "unocc",
				"energy": 0.00181,
				"method": "rhf"
			},
			{
				"type": "unocc",
				"energy": 0.00607,
				"method": "rhf"
			},
			{
				"type": "unocc",
				"energy": 0.00947,
				"method": "rhf"
			},
			{
				"type": "unocc",
				"energy": 0.01928,
				"method": "rhf"
			}
		],
		"cosmo_sigma_profile": { 
			"-0.025": 0.0,
			"-0.024": 0.0,
			"-0.023": 0.0,
			"-0.022": 0.0,
			"-0.021": 0.0,
			"-0.02": 0.0,
			"-0.019": 0.0,
			"-0.018": 0.0,
			"-0.017": 0.0,
			"-0.016": 0.0,
			"-0.015": 0.222411093424,
			"-0.014": 1.01684472561,
			"-0.013": 1.2802874728,
			"-0.012": 1.97203530419,
			"-0.011": 1.276472541,
			"-0.01": 2.53891588804,
			"-0.009": 3.4079348084,
			"-0.008": 5.71335478448,
			"-0.007": 12.6881350788,
			"-0.006": 26.3977142651,
			"-0.005": 31.5365863209,
			"-0.004": 36.8487445272,
			"-0.003": 42.9571586489,
			"-0.002": 42.0218519861,
			"-0.001": 27.9982396521,
			"0.0": 18.1709622105,
			"0.001": 16.5097980959,
			"0.002": 17.1061407259,
			"0.003": 13.9687480479,
			"0.004": 13.5845439997,
			"0.005": 11.7978494179,
			"0.006": 9.93673208338,
			"0.007": 8.9794091171,
			"0.008": 9.53875270779,
			"0.009": 8.06085646408,
			"0.01": 9.37174901784,
			"0.011": 14.3885857987,
			"0.012": 11.2435225958,
			"0.013": 5.74042661588,
			"0.014": 1.83610389666,
			"0.015": 0.136320480075,
			"0.016": 0.0,
			"0.017": 0.0,
			"0.018": 0.0,
			"0.019": 0.0,
			"0.02": 0.0,
			"0.021": 0.0,
			"0.022": 0.0,
			"0.023": 0.0,
			"0.024": 0.0,
			"0.025": 0.0
		}
	}
}
