{
	 "smiles": "CC1=CC2=C(NC(=O)N3N=C(N=C23)C2CC2)C=C1", 
	 "Tm": 534.15, 
	 "num_atms": 30, 
	 "gaussian": { 
		 "optdone": 1, 
		 "sigma_profile": "yes", 
		 "theory": "DFT", 
		 "functional": "B3LYP", 
		 "basiset": "6-31G**", 
		 "properties": { 
			 "R2extent": 5048.493, 
			 "electric_dipole_moment_norm": 5.18389225293, 
			 "electric_quadrupole_moment_norm": 19.5379544198, 
			 "total_energy": -796.854457643, 
			 "HOMO_LUMO_gap": 0.17469, 
			 "cosmo_polarized_energy": -17.87, 
			 "cosmo_cavitation_energy": 34.3, 
			 "cosmo_dispersion_energy": -25.21, 
			 "cosmo_repulsion_energy": 1.93, 
			 "cosmo_total_nonelectrostatic_energy": 11.02, 
			 "SMD_solvation_energy": 3.78 
		},
		"coords": [
			{
				"x": -2.9706493418,
				"y": -1.1301942867,
				"z": 3.2266113201,
				"element": "C" 
			},
			{
				"x": -2.4315907437,
				"y": -1.1178231649,
				"z": 1.8159071075,
				"element": "C" 
			},
			{
				"x": -1.2899941383,
				"y": -0.3969838606,
				"z": 1.4805753148,
				"element": "C" 
			},
			{
				"x": -0.7958608828,
				"y": -0.3906929972,
				"z": 0.1668721405,
				"element": "C" 
			},
			{
				"x": -1.4581473556,
				"y": -1.1226271464,
				"z": -0.8376337661,
				"element": "C" 
			},
			{
				"x": -0.9533872643,
				"y": -1.1054688393,
				"z": -2.1376780282,
				"element": "N" 
			},
			{
				"x": 0.1685122521,
				"y": -0.4302014583,
				"z": -2.5941224203,
				"element": "C" 
			},
			{
				"x": 0.5533812428,
				"y": -0.4576466685,
				"z": -3.7413618053,
				"element": "O" 
			},
			{
				"x": 0.7924026723,
				"y": 0.2846165464,
				"z": -1.5503744181,
				"element": "N" 
			},
			{
				"x": 1.9185428049,
				"y": 1.0389042749,
				"z": -1.7153568619,
				"element": "N" 
			},
			{
				"x": 2.1234150225,
				"y": 1.5046883827,
				"z": -0.4901361523,
				"element": "C" 
			},
			{
				"x": 1.2063147342,
				"y": 1.1022862179,
				"z": 0.4536547054,
				"element": "N" 
			},
			{
				"x": 0.381693113,
				"y": 0.3380969486,
				"z": -0.2349499552,
				"element": "C" 
			},
			{
				"x": 3.2566258256,
				"y": 2.3897735777,
				"z": -0.174541178,
				"element": "C" 
			},
			{
				"x": 3.0837684537,
				"y": 3.4801675316,
				"z": 0.8679451078,
				"element": "C" 
			},
			{
				"x": 3.930421649,
				"y": 2.284167498,
				"z": 1.1820558424,
				"element": "C" 
			},
			{
				"x": -2.6095397889,
				"y": -1.8525119969,
				"z": -0.5103394961,
				"element": "C" 
			},
			{
				"x": -3.0796083179,
				"y": -1.8437973948,
				"z": 0.795529332,
				"element": "C" 
			},
			{
				"x": -3.0006228778,
				"y": -2.1474758594,
				"z": 3.6335313176,
				"element": "H" 
			},
			{
				"x": -2.3531401845,
				"y": -0.5224181074,
				"z": 3.8927867231,
				"element": "H" 
			},
			{
				"x": -3.9929858546,
				"y": -0.7369670815,
				"z": 3.2666798951,
				"element": "H" 
			},
			{
				"x": -0.7542393646,
				"y": 0.1782868077,
				"z": 2.2291671332,
				"element": "H" 
			},
			{
				"x": -1.4270272357,
				"y": -1.629797957,
				"z": -2.860714308,
				"element": "H" 
			},
			{
				"x": 3.8838608496,
				"y": 2.6086941145,
				"z": -1.032029175,
				"element": "H" 
			},
			{
				"x": 2.1112311351,
				"y": 3.5472827806,
				"z": 1.344411137,
				"element": "H" 
			},
			{
				"x": 3.5701700965,
				"y": 4.4316049529,
				"z": 0.6763468587,
				"element": "H" 
			},
			{
				"x": 5.0096503061,
				"y": 2.3981562963,
				"z": 1.210451544,
				"element": "H" 
			},
			{
				"x": 3.5263576173,
				"y": 1.5482285744,
				"z": 1.8694217924,
				"element": "H" 
			},
			{
				"x": -3.1274099296,
				"y": -2.4204053291,
				"z": -1.2783954326,
				"element": "H" 
			},
			{
				"x": -3.9733444945,
				"y": -2.4141423561,
				"z": 1.0353857256,
				"element": "H" 
			}
		],
		 "valence_orbital": [ 
			{
				"type": "occ",
				"energy": -0.29421,
				"method": "rhf"
			},
			{
				"type": "occ",
				"energy": -0.27359,
				"method": "rhf"
			},
			{
				"type": "occ",
				"energy": -0.27085,
				"method": "rhf"
			},
			{
				"type": "occ",
				"energy": -0.24378,
				"method": "rhf"
			},
			{
				"type": "occ",
				"energy": -0.22867,
				"method": "rhf"
			},
			{
				"type": "unocc",
				"energy": -0.05398,
				"method": "rhf"
			},
			{
				"type": "unocc",
				"energy": -0.02078,
				"method": "rhf"
			},
			{
				"type": "unocc",
				"energy": 0.002,
				"method": "rhf"
			},
			{
				"type": "unocc",
				"energy": 0.05233,
				"method": "rhf"
			},
			{
				"type": "unocc",
				"energy": 0.06929,
				"method": "rhf"
			}
		],
		"cosmo_sigma_profile": { 
			"-0.025": 0.0,
			"-0.024": 0.0,
			"-0.023": 0.0,
			"-0.022": 0.0,
			"-0.021": 0.0,
			"-0.02": 0.0,
			"-0.019": 0.0,
			"-0.018": 0.0,
			"-0.017": 0.387140365453,
			"-0.016": 1.3594018888,
			"-0.015": 1.43861053818,
			"-0.014": 1.37981092528,
			"-0.013": 0.941043091575,
			"-0.012": 0.830637262207,
			"-0.011": 1.40822962074,
			"-0.01": 1.11128375648,
			"-0.009": 1.18621985698,
			"-0.008": 2.18207763231,
			"-0.007": 3.85899559333,
			"-0.006": 10.3119157886,
			"-0.005": 18.5292294559,
			"-0.004": 22.7461764394,
			"-0.003": 23.5787261208,
			"-0.002": 21.8882599823,
			"-0.001": 25.1724464296,
			"0.0": 22.5043312006,
			"0.001": 21.1972047628,
			"0.002": 22.2715180445,
			"0.003": 20.1492940491,
			"0.004": 9.45672792415,
			"0.005": 4.00470351581,
			"0.006": 3.4927203425,
			"0.007": 3.77663521436,
			"0.008": 3.22753689395,
			"0.009": 3.18173819271,
			"0.01": 3.51100764159,
			"0.011": 5.46917684533,
			"0.012": 6.74101297336,
			"0.013": 2.84452386947,
			"0.014": 2.24133589802,
			"0.015": 1.59494396468,
			"0.016": 0.197803034154,
			"0.017": 0.0,
			"0.018": 0.0,
			"0.019": 0.0,
			"0.02": 0.0,
			"0.021": 0.0,
			"0.022": 0.0,
			"0.023": 0.0,
			"0.024": 0.0,
			"0.025": 0.0
		}
	}
}
