{
	 "smiles": "CCOC(=O)C1=C(C)C(=C(C)N1)S(Cl)(=O)=O", 
	 "Tm": 423.15, 
	 "num_atms": 28, 
	 "gaussian": { 
		 "optdone": 1, 
		 "sigma_profile": "yes", 
		 "theory": "DFT", 
		 "functional": "B3LYP", 
		 "basiset": "6-31G**", 
		 "properties": { 
			 "R2extent": 7200.0541, 
			 "electric_dipole_moment_norm": 5.34980432726, 
			 "electric_quadrupole_moment_norm": 25.3194068949, 
			 "total_energy": -1564.18290183, 
			 "HOMO_LUMO_gap": 0.17036, 
			 "cosmo_polarized_energy": -13.98, 
			 "cosmo_cavitation_energy": 35.4, 
			 "cosmo_dispersion_energy": -25.35, 
			 "cosmo_repulsion_energy": 1.96, 
			 "cosmo_total_nonelectrostatic_energy": 12.01, 
			 "SMD_solvation_energy": 5.9 
		},
		"coords": [
			{
				"x": -4.0925579036,
				"y": -1.2920285037,
				"z": 1.3714431127,
				"element": "C" 
			},
			{
				"x": -3.2556605251,
				"y": -0.8762246667,
				"z": 0.1776281296,
				"element": "C" 
			},
			{
				"x": -1.8723969335,
				"y": -0.8303880418,
				"z": 0.6108746221,
				"element": "O" 
			},
			{
				"x": -0.9784860777,
				"y": -0.4759837819,
				"z": -0.3283861298,
				"element": "C" 
			},
			{
				"x": -1.2702699545,
				"y": -0.2012356725,
				"z": -1.483309883,
				"element": "O" 
			},
			{
				"x": 0.4075797283,
				"y": -0.4423290929,
				"z": 0.1455418346,
				"element": "C" 
			},
			{
				"x": 1.0619075268,
				"y": -0.6834898061,
				"z": 1.3457029471,
				"element": "C" 
			},
			{
				"x": 0.4733054823,
				"y": -1.1163133636,
				"z": 2.6536120247,
				"element": "C" 
			},
			{
				"x": 2.4426901696,
				"y": -0.4316941783,
				"z": 1.0617879379,
				"element": "C" 
			},
			{
				"x": 2.5993477182,
				"y": -0.0696470976,
				"z": -0.2860469808,
				"element": "C" 
			},
			{
				"x": 3.7990141604,
				"y": 0.2850124909,
				"z": -1.1027637884,
				"element": "C" 
			},
			{
				"x": 1.3541955307,
				"y": -0.0792638075,
				"z": -0.8020154523,
				"element": "N" 
			},
			{
				"x": 3.7617793233,
				"y": -0.575423324,
				"z": 2.1888480435,
				"element": "S" 
			},
			{
				"x": 4.1358096421,
				"y": -2.6965440426,
				"z": 2.1956774341,
				"element": "Cl" 
			},
			{
				"x": 3.3130721053,
				"y": -0.2653850733,
				"z": 3.540814543,
				"element": "O" 
			},
			{
				"x": 4.9622027924,
				"y": 0.0268397433,
				"z": 1.6165755816,
				"element": "O" 
			},
			{
				"x": -3.9912257649,
				"y": -0.5746860644,
				"z": 2.1907823406,
				"element": "H" 
			},
			{
				"x": -3.7937146637,
				"y": -2.2790552076,
				"z": 1.7356791557,
				"element": "H" 
			},
			{
				"x": -5.1472584078,
				"y": -1.3373880211,
				"z": 1.0832628519,
				"element": "H" 
			},
			{
				"x": -3.5361519173,
				"y": 0.1115347358,
				"z": -0.2002610572,
				"element": "H" 
			},
			{
				"x": -3.3385179961,
				"y": -1.584295304,
				"z": -0.652384519,
				"element": "H" 
			},
			{
				"x": 0.6739587929,
				"y": -0.3739425915,
				"z": 3.4311611941,
				"element": "H" 
			},
			{
				"x": -0.6016975927,
				"y": -1.2597181767,
				"z": 2.5606944397,
				"element": "H" 
			},
			{
				"x": 0.9284369525,
				"y": -2.0536222833,
				"z": 2.9908460008,
				"element": "H" 
			},
			{
				"x": 3.50919427,
				"y": 0.472998749,
				"z": -2.140097739,
				"element": "H" 
			},
			{
				"x": 4.5390713191,
				"y": -0.5194699372,
				"z": -1.085658672,
				"element": "H" 
			},
			{
				"x": 4.2935656638,
				"y": 1.1753390962,
				"z": -0.7060833202,
				"element": "H" 
			},
			{
				"x": 1.085306559,
				"y": 0.1515032231,
				"z": -1.7500246519,
				"element": "H" 
			}
		],
		 "valence_orbital": [ 
			{
				"type": "occ",
				"energy": -0.31504,
				"method": "rhf"
			},
			{
				"type": "occ",
				"energy": -0.30424,
				"method": "rhf"
			},
			{
				"type": "occ",
				"energy": -0.29355,
				"method": "rhf"
			},
			{
				"type": "occ",
				"energy": -0.27926,
				"method": "rhf"
			},
			{
				"type": "occ",
				"energy": -0.2481,
				"method": "rhf"
			},
			{
				"type": "unocc",
				"energy": -0.07774,
				"method": "rhf"
			},
			{
				"type": "unocc",
				"energy": -0.04459,
				"method": "rhf"
			},
			{
				"type": "unocc",
				"energy": -0.00297,
				"method": "rhf"
			},
			{
				"type": "unocc",
				"energy": 0.06735,
				"method": "rhf"
			},
			{
				"type": "unocc",
				"energy": 0.07206,
				"method": "rhf"
			}
		],
		"cosmo_sigma_profile": { 
			"-0.025": 0.0,
			"-0.024": 0.0,
			"-0.023": 0.0,
			"-0.022": 0.0,
			"-0.021": 0.0,
			"-0.02": 0.0,
			"-0.019": 0.0,
			"-0.018": 0.0,
			"-0.017": 0.0,
			"-0.016": 0.467293875613,
			"-0.015": 1.06409339481,
			"-0.014": 1.1764795211,
			"-0.013": 1.38769882258,
			"-0.012": 1.00941045273,
			"-0.011": 0.542188422964,
			"-0.01": 1.08285863746,
			"-0.009": 1.37481329044,
			"-0.008": 1.66534998933,
			"-0.007": 1.77413355804,
			"-0.006": 6.14542660735,
			"-0.005": 14.8740961181,
			"-0.004": 24.3792209028,
			"-0.003": 28.8151337665,
			"-0.002": 29.7535863202,
			"-0.001": 28.8356528089,
			"0.0": 29.3260658157,
			"0.001": 19.3817282193,
			"0.002": 15.1479496968,
			"0.003": 12.2066299962,
			"0.004": 17.269591371,
			"0.005": 9.47359703603,
			"0.006": 4.70601665319,
			"0.007": 5.99486269967,
			"0.008": 8.384940555,
			"0.009": 7.98875247965,
			"0.01": 2.9387739035,
			"0.011": 3.27116353228,
			"0.012": 2.52995970381,
			"0.013": 0.161467418964,
			"0.014": 0.0,
			"0.015": 0.0,
			"0.016": 0.0,
			"0.017": 0.0,
			"0.018": 0.0,
			"0.019": 0.0,
			"0.02": 0.0,
			"0.021": 0.0,
			"0.022": 0.0,
			"0.023": 0.0,
			"0.024": 0.0,
			"0.025": 0.0
		}
	}
}
