{
	 "smiles": "CC(=O)C1=CNC2=C1C=CC=C2", 
	 "Tm": 465.15, 
	 "num_atms": 21, 
	 "gaussian": { 
		 "optdone": 1, 
		 "sigma_profile": "yes", 
		 "theory": "DFT", 
		 "functional": "B3LYP", 
		 "basiset": "6-31G**", 
		 "properties": { 
			 "R2extent": 2634.9244, 
			 "electric_dipole_moment_norm": 5.13718719534, 
			 "electric_quadrupole_moment_norm": 13.0119905706, 
			 "total_energy": -516.475061224, 
			 "HOMO_LUMO_gap": 0.17798, 
			 "cosmo_polarized_energy": -15.63, 
			 "cosmo_cavitation_energy": 24.88, 
			 "cosmo_dispersion_energy": -18.48, 
			 "cosmo_repulsion_energy": 1.45, 
			 "cosmo_total_nonelectrostatic_energy": 7.85, 
			 "SMD_solvation_energy": 4.76 
		},
		"coords": [
			{
				"x": -1.2869757819,
				"y": 3.9548374781,
				"z": 0.5922520889,
				"element": "C" 
			},
			{
				"x": -1.205661131,
				"y": 2.6648129773,
				"z": -0.2153239685,
				"element": "C" 
			},
			{
				"x": -2.1999483644,
				"y": 2.2222396578,
				"z": -0.7813810915,
				"element": "O" 
			},
			{
				"x": 0.0873188361,
				"y": 1.9758425667,
				"z": -0.2907102136,
				"element": "C" 
			},
			{
				"x": 1.276132958,
				"y": 2.3667551997,
				"z": 0.2985740844,
				"element": "C" 
			},
			{
				"x": 2.2613330585,
				"y": 1.4647916589,
				"z": -0.0012151691,
				"element": "N" 
			},
			{
				"x": 1.7406813623,
				"y": 0.453983641,
				"z": -0.7989769833,
				"element": "C" 
			},
			{
				"x": 0.3682865619,
				"y": 0.7449227562,
				"z": -1.0020896971,
				"element": "C" 
			},
			{
				"x": -0.4059707094,
				"y": -0.1283018103,
				"z": -1.7834961003,
				"element": "C" 
			},
			{
				"x": 0.2059910126,
				"y": -1.2501428305,
				"z": -2.3305927901,
				"element": "C" 
			},
			{
				"x": 1.5727528032,
				"y": -1.5199742315,
				"z": -2.1154916636,
				"element": "C" 
			},
			{
				"x": 2.3621195418,
				"y": -0.6720291574,
				"z": -1.346087693,
				"element": "C" 
			},
			{
				"x": -1.0122611843,
				"y": 3.7807266705,
				"z": 1.6387164441,
				"element": "H" 
			},
			{
				"x": -0.6022488508,
				"y": 4.711537124,
				"z": 0.1929843733,
				"element": "H" 
			},
			{
				"x": -2.3085345263,
				"y": 4.3337585821,
				"z": 0.5464915716,
				"element": "H" 
			},
			{
				"x": 1.4917275708,
				"y": 3.2286061546,
				"z": 0.9138979925,
				"element": "H" 
			},
			{
				"x": 3.2175941304,
				"y": 1.5264833126,
				"z": 0.3102828616,
				"element": "H" 
			},
			{
				"x": -1.4554317081,
				"y": 0.0878687662,
				"z": -1.9429348361,
				"element": "H" 
			},
			{
				"x": -0.3784127411,
				"y": -1.9356946681,
				"z": -2.937379339,
				"element": "H" 
			},
			{
				"x": 2.0184794773,
				"y": -2.4058744191,
				"z": -2.5582022967,
				"element": "H" 
			},
			{
				"x": 3.4156276842,
				"y": -0.8778494286,
				"z": -1.1789175747,
				"element": "H" 
			}
		],
		 "valence_orbital": [ 
			{
				"type": "occ",
				"energy": -0.33681,
				"method": "rhf"
			},
			{
				"type": "occ",
				"energy": -0.276,
				"method": "rhf"
			},
			{
				"type": "occ",
				"energy": -0.23474,
				"method": "rhf"
			},
			{
				"type": "occ",
				"energy": -0.22815,
				"method": "rhf"
			},
			{
				"type": "occ",
				"energy": -0.21323,
				"method": "rhf"
			},
			{
				"type": "unocc",
				"energy": -0.03525,
				"method": "rhf"
			},
			{
				"type": "unocc",
				"energy": 0.0008,
				"method": "rhf"
			},
			{
				"type": "unocc",
				"energy": 0.0252,
				"method": "rhf"
			},
			{
				"type": "unocc",
				"energy": 0.06785,
				"method": "rhf"
			},
			{
				"type": "unocc",
				"energy": 0.10097,
				"method": "rhf"
			}
		],
		"cosmo_sigma_profile": { 
			"-0.025": 0.0,
			"-0.024": 0.0,
			"-0.023": 0.0,
			"-0.022": 0.0,
			"-0.021": 0.0,
			"-0.02": 0.0,
			"-0.019": 0.0,
			"-0.018": 0.0,
			"-0.017": 0.327723251876,
			"-0.016": 1.90974511495,
			"-0.015": 1.28031099812,
			"-0.014": 1.32570902366,
			"-0.013": 1.3939063377,
			"-0.012": 1.15430561317,
			"-0.011": 1.75650117979,
			"-0.01": 1.34245716563,
			"-0.009": 3.44977494026,
			"-0.008": 3.05947619416,
			"-0.007": 3.97356852478,
			"-0.006": 7.33957382154,
			"-0.005": 12.1967599467,
			"-0.004": 13.3766639509,
			"-0.003": 14.1517451275,
			"-0.002": 13.8999364114,
			"-0.001": 13.3160165806,
			"0.0": 12.579859569,
			"0.001": 8.85491364713,
			"0.002": 11.4362084735,
			"0.003": 12.3195542563,
			"0.004": 13.3574754758,
			"0.005": 13.8311741493,
			"0.006": 10.5716030145,
			"0.007": 5.55755524476,
			"0.008": 1.85474271016,
			"0.009": 0.703471764806,
			"0.01": 2.78091911389,
			"0.011": 2.10011951543,
			"0.012": 2.90673449424,
			"0.013": 2.65627669276,
			"0.014": 1.80673103728,
			"0.015": 0.215908097443,
			"0.016": 0.0,
			"0.017": 0.0,
			"0.018": 0.0,
			"0.019": 0.0,
			"0.02": 0.0,
			"0.021": 0.0,
			"0.022": 0.0,
			"0.023": 0.0,
			"0.024": 0.0,
			"0.025": 0.0
		}
	}
}
