{
	 "smiles": "OC(=O)C1=CC=C(O)C(O)=C1O", 
	 "Tm": 494.15, 
	 "num_atms": 18, 
	 "gaussian": { 
		 "optdone": 1, 
		 "sigma_profile": "yes", 
		 "theory": "DFT", 
		 "functional": "B3LYP", 
		 "basiset": "6-31G**", 
		 "properties": { 
			 "R2extent": 2219.9363, 
			 "electric_dipole_moment_norm": 7.33821924243, 
			 "electric_quadrupole_moment_norm": 13.9181194929, 
			 "total_energy": -646.484472864, 
			 "HOMO_LUMO_gap": 0.19628, 
			 "cosmo_polarized_energy": -19.97, 
			 "cosmo_cavitation_energy": 22.54, 
			 "cosmo_dispersion_energy": -17.53, 
			 "cosmo_repulsion_energy": 1.39, 
			 "cosmo_total_nonelectrostatic_energy": 6.39, 
			 "SMD_solvation_energy": 5.94 
		},
		"coords": [
			{
				"x": -1.0823987734,
				"y": 1.8187408132,
				"z": -2.9184501186,
				"element": "O" 
			},
			{
				"x": -1.5028465412,
				"y": 1.538306134,
				"z": -1.6676321341,
				"element": "C" 
			},
			{
				"x": -2.491689251,
				"y": 2.0782684274,
				"z": -1.2196399005,
				"element": "O" 
			},
			{
				"x": -0.7106751357,
				"y": 0.5449722223,
				"z": -0.8664643828,
				"element": "C" 
			},
			{
				"x": -1.16150192,
				"y": 0.2632577721,
				"z": 0.4323877058,
				"element": "C" 
			},
			{
				"x": -0.5028055182,
				"y": -0.6398246263,
				"z": 1.2581204654,
				"element": "C" 
			},
			{
				"x": 0.64173271,
				"y": -1.2890652233,
				"z": 0.7871143978,
				"element": "C" 
			},
			{
				"x": 1.3809290244,
				"y": -2.1980495367,
				"z": 1.4972355863,
				"element": "O" 
			},
			{
				"x": 1.1122556573,
				"y": -1.028001404,
				"z": -0.5001462136,
				"element": "C" 
			},
			{
				"x": 2.2288074714,
				"y": -1.6326164329,
				"z": -1.0191742666,
				"element": "O" 
			},
			{
				"x": 0.4421830949,
				"y": -0.1189976039,
				"z": -1.3201349288,
				"element": "C" 
			},
			{
				"x": 0.9374739784,
				"y": 0.1085195953,
				"z": -2.5772521193,
				"element": "O" 
			},
			{
				"x": -0.2811589709,
				"y": 1.3102404195,
				"z": -3.1361298106,
				"element": "H" 
			},
			{
				"x": -2.0515161091,
				"y": 0.7828845406,
				"z": 0.7680133002,
				"element": "H" 
			},
			{
				"x": -0.8681718236,
				"y": -0.8441666053,
				"z": 2.2611422802,
				"element": "H" 
			},
			{
				"x": 0.9949771483,
				"y": -2.325255021,
				"z": 2.3729795901,
				"element": "H" 
			},
			{
				"x": 2.5890588979,
				"y": -2.2319134264,
				"z": -0.3495662826,
				"element": "H" 
			},
			{
				"x": 1.7291460607,
				"y": -0.4374000444,
				"z": -2.7028031683,
				"element": "H" 
			}
		],
		 "valence_orbital": [ 
			{
				"type": "occ",
				"energy": -0.33456,
				"method": "rhf"
			},
			{
				"type": "occ",
				"energy": -0.29327,
				"method": "rhf"
			},
			{
				"type": "occ",
				"energy": -0.25849,
				"method": "rhf"
			},
			{
				"type": "occ",
				"energy": -0.24214,
				"method": "rhf"
			},
			{
				"type": "occ",
				"energy": -0.23054,
				"method": "rhf"
			},
			{
				"type": "unocc",
				"energy": -0.03426,
				"method": "rhf"
			},
			{
				"type": "unocc",
				"energy": -0.0032,
				"method": "rhf"
			},
			{
				"type": "unocc",
				"energy": 0.02721,
				"method": "rhf"
			},
			{
				"type": "unocc",
				"energy": 0.06031,
				"method": "rhf"
			},
			{
				"type": "unocc",
				"energy": 0.07139,
				"method": "rhf"
			}
		],
		"cosmo_sigma_profile": { 
			"-0.025": 0.0,
			"-0.024": 0.0,
			"-0.023": 0.0,
			"-0.022": 0.0,
			"-0.021": 0.0,
			"-0.02": 0.0622835488724,
			"-0.019": 0.734135790342,
			"-0.018": 1.25085215103,
			"-0.017": 0.908067592358,
			"-0.016": 1.76280494725,
			"-0.015": 2.91319378097,
			"-0.014": 1.91684453465,
			"-0.013": 1.67080372604,
			"-0.012": 2.39243099955,
			"-0.011": 2.61918119093,
			"-0.01": 2.92689604356,
			"-0.009": 2.99548204054,
			"-0.008": 3.32303603564,
			"-0.007": 4.08896631201,
			"-0.006": 4.99073394395,
			"-0.005": 7.74441382998,
			"-0.004": 6.64605253894,
			"-0.003": 7.77852583511,
			"-0.002": 9.30191779446,
			"-0.001": 8.79234254813,
			"0.0": 11.2299144295,
			"0.001": 17.9713136572,
			"0.002": 13.8915515248,
			"0.003": 11.4217902764,
			"0.004": 10.5503505639,
			"0.005": 6.44025357625,
			"0.006": 4.98866973218,
			"0.007": 4.03326417433,
			"0.008": 3.16882892479,
			"0.009": 2.24972145539,
			"0.01": 3.30330724105,
			"0.011": 4.79838551274,
			"0.012": 6.19993990925,
			"0.013": 3.67941642074,
			"0.014": 1.23362111397,
			"0.015": 0.00557527417299,
			"0.016": 0.0,
			"0.017": 0.0,
			"0.018": 0.0,
			"0.019": 0.0,
			"0.02": 0.0,
			"0.021": 0.0,
			"0.022": 0.0,
			"0.023": 0.0,
			"0.024": 0.0,
			"0.025": 0.0
		}
	}
}
