{
	 "smiles": "CC=C(Cl)/C(=CC=C)/C=C1C(=O)NN=C1C1=C(O)C2=CC=CC=C2N(C)C1=O", 
	 "Tm": 533.15, 
	 "num_atms": 46, 
	 "gaussian": { 
		 "optdone": 1, 
		 "sigma_profile": "yes", 
		 "theory": "DFT", 
		 "functional": "B3LYP", 
		 "basiset": "6-31G**", 
		 "properties": { 
			 "R2extent": 13386.9219, 
			 "electric_dipole_moment_norm": 2.94326747171, 
			 "electric_quadrupole_moment_norm": 19.8082883794, 
			 "total_energy": -1661.15763328, 
			 "HOMO_LUMO_gap": 0.11044, 
			 "cosmo_polarized_energy": -18.16, 
			 "cosmo_cavitation_energy": 51.63, 
			 "cosmo_dispersion_energy": -35.36, 
			 "cosmo_repulsion_energy": 2.64, 
			 "cosmo_total_nonelectrostatic_energy": 18.91, 
			 "SMD_solvation_energy": 9.84 
		},
		"coords": [
			{
				"x": 0.9534093062,
				"y": -4.2841151045,
				"z": -0.7890091409,
				"element": "C" 
			},
			{
				"x": 0.346932046,
				"y": -4.0286517936,
				"z": 0.5609009816,
				"element": "C" 
			},
			{
				"x": -0.6611123633,
				"y": -3.1870570268,
				"z": 0.8132021317,
				"element": "C" 
			},
			{
				"x": -1.2117202795,
				"y": -2.9903081754,
				"z": 2.4942897175,
				"element": "Cl" 
			},
			{
				"x": -1.3961970979,
				"y": -2.3427110504,
				"z": -0.1758425086,
				"element": "C" 
			},
			{
				"x": -2.3024648888,
				"y": -2.909657347,
				"z": -1.0334638122,
				"element": "C" 
			},
			{
				"x": -2.6739843082,
				"y": -4.3059566029,
				"z": -1.0543589931,
				"element": "C" 
			},
			{
				"x": -3.5616752363,
				"y": -4.7924838625,
				"z": -1.9417478765,
				"element": "C" 
			},
			{
				"x": -1.0857942243,
				"y": -0.9286592028,
				"z": -0.0936624588,
				"element": "C" 
			},
			{
				"x": -1.3190191461,
				"y": 0.1373986737,
				"z": -0.9240665966,
				"element": "C" 
			},
			{
				"x": -1.9547383316,
				"y": 0.1573262727,
				"z": -2.2744819898,
				"element": "C" 
			},
			{
				"x": -2.6023815802,
				"y": -0.679543111,
				"z": -2.9022618595,
				"element": "O" 
			},
			{
				"x": -1.6520893855,
				"y": 1.4131719272,
				"z": -2.7527595027,
				"element": "N" 
			},
			{
				"x": -1.0144242134,
				"y": 2.2134452851,
				"z": -1.839441488,
				"element": "N" 
			},
			{
				"x": -0.8010723338,
				"y": 1.5075794479,
				"z": -0.7458382882,
				"element": "C" 
			},
			{
				"x": -0.0095232104,
				"y": 2.147753823,
				"z": 0.3206745052,
				"element": "C" 
			},
			{
				"x": 0.8412305723,
				"y": 3.2024893882,
				"z": 0.0046953079,
				"element": "C" 
			},
			{
				"x": 0.9386958093,
				"y": 3.7326858572,
				"z": -1.2142305069,
				"element": "O" 
			},
			{
				"x": 1.7059154365,
				"y": 3.7859971315,
				"z": 1.0048080344,
				"element": "C" 
			},
			{
				"x": 2.6295204765,
				"y": 4.794497715,
				"z": 0.6727037234,
				"element": "C" 
			},
			{
				"x": 3.4629955097,
				"y": 5.3377229543,
				"z": 1.6366527151,
				"element": "C" 
			},
			{
				"x": 3.3730744401,
				"y": 4.8782993289,
				"z": 2.958037014,
				"element": "C" 
			},
			{
				"x": 2.4630802065,
				"y": 3.8910588533,
				"z": 3.3123790551,
				"element": "C" 
			},
			{
				"x": 1.6122681564,
				"y": 3.3266048306,
				"z": 2.3401802764,
				"element": "C" 
			},
			{
				"x": 0.6805510525,
				"y": 2.35103956,
				"z": 2.6638372767,
				"element": "N" 
			},
			{
				"x": 0.5267948678,
				"y": 1.9255973873,
				"z": 4.055343794,
				"element": "C" 
			},
			{
				"x": -0.1747852254,
				"y": 1.7506894966,
				"z": 1.7173973878,
				"element": "C" 
			},
			{
				"x": -1.0195806344,
				"y": 0.9341506575,
				"z": 2.0952954286,
				"element": "O" 
			},
			{
				"x": 2.0350046226,
				"y": -4.1046867811,
				"z": -0.759942913,
				"element": "H" 
			},
			{
				"x": 0.8157817151,
				"y": -5.3317154197,
				"z": -1.0849439369,
				"element": "H" 
			},
			{
				"x": 0.5181377594,
				"y": -3.6524146378,
				"z": -1.5654004612,
				"element": "H" 
			},
			{
				"x": 0.776785503,
				"y": -4.5723281868,
				"z": 1.3993016902,
				"element": "H" 
			},
			{
				"x": -2.7919275843,
				"y": -2.2576039251,
				"z": -1.7509436128,
				"element": "H" 
			},
			{
				"x": -2.2217434242,
				"y": -4.9704233767,
				"z": -0.3224544128,
				"element": "H" 
			},
			{
				"x": -3.8447910263,
				"y": -5.8402624885,
				"z": -1.947378647,
				"element": "H" 
			},
			{
				"x": -4.0252147346,
				"y": -4.1516712618,
				"z": -2.6869372192,
				"element": "H" 
			},
			{
				"x": -0.5436135363,
				"y": -0.6703375587,
				"z": 0.8084035778,
				"element": "H" 
			},
			{
				"x": -2.0355576297,
				"y": 1.8192570458,
				"z": -3.5919611181,
				"element": "H" 
			},
			{
				"x": 0.2142422402,
				"y": 3.3275546288,
				"z": -1.7703857563,
				"element": "H" 
			},
			{
				"x": 2.6707204955,
				"y": 5.1307467491,
				"z": -0.3566331728,
				"element": "H" 
			},
			{
				"x": 4.1753072129,
				"y": 6.1124508986,
				"z": 1.3721325752,
				"element": "H" 
			},
			{
				"x": 4.0196360501,
				"y": 5.2979911797,
				"z": 3.7233631622,
				"element": "H" 
			},
			{
				"x": 2.4130011313,
				"y": 3.5592807502,
				"z": 4.3411613651,
				"element": "H" 
			},
			{
				"x": -0.267649756,
				"y": 1.1838360919,
				"z": 4.0788026936,
				"element": "H" 
			},
			{
				"x": 0.2558419375,
				"y": 2.7749884663,
				"z": 4.6900749624,
				"element": "H" 
			},
			{
				"x": 1.4559336032,
				"y": 1.4818725125,
				"z": 4.4267088957,
				"element": "H" 
			}
		],
		 "valence_orbital": [ 
			{
				"type": "occ",
				"energy": -0.2532,
				"method": "rhf"
			},
			{
				"type": "occ",
				"energy": -0.24487,
				"method": "rhf"
			},
			{
				"type": "occ",
				"energy": -0.22913,
				"method": "rhf"
			},
			{
				"type": "occ",
				"energy": -0.22166,
				"method": "rhf"
			},
			{
				"type": "occ",
				"energy": -0.20867,
				"method": "rhf"
			},
			{
				"type": "unocc",
				"energy": -0.09823,
				"method": "rhf"
			},
			{
				"type": "unocc",
				"energy": -0.05372,
				"method": "rhf"
			},
			{
				"type": "unocc",
				"energy": -0.02063,
				"method": "rhf"
			},
			{
				"type": "unocc",
				"energy": -0.00594,
				"method": "rhf"
			},
			{
				"type": "unocc",
				"energy": 0.00647,
				"method": "rhf"
			}
		],
		"cosmo_sigma_profile": { 
			"-0.025": 0.0,
			"-0.024": 0.0,
			"-0.023": 0.0,
			"-0.022": 0.0,
			"-0.021": 0.0,
			"-0.02": 0.0,
			"-0.019": 0.0,
			"-0.018": 0.0,
			"-0.017": 0.103709507553,
			"-0.016": 1.51858850663,
			"-0.015": 1.04041407822,
			"-0.014": 0.962695786491,
			"-0.013": 1.3108587555,
			"-0.012": 0.744701405319,
			"-0.011": 0.709183295633,
			"-0.01": 0.660696364232,
			"-0.009": 0.633745240728,
			"-0.008": 0.79507531581,
			"-0.007": 6.42278775119,
			"-0.006": 19.028110723,
			"-0.005": 24.9155670525,
			"-0.004": 29.5065240075,
			"-0.003": 31.1077873592,
			"-0.002": 39.0262943216,
			"-0.001": 43.6166413532,
			"0.0": 41.2640419748,
			"0.001": 33.1992756559,
			"0.002": 31.7022100953,
			"0.003": 26.7086845059,
			"0.004": 23.1764434844,
			"0.005": 17.1665996616,
			"0.006": 8.53544239231,
			"0.007": 6.7699894843,
			"0.008": 5.9029600185,
			"0.009": 3.97916061314,
			"0.01": 3.52003990408,
			"0.011": 3.12562098412,
			"0.012": 3.87507493708,
			"0.013": 4.43587323479,
			"0.014": 1.05907122338,
			"0.015": 0.0,
			"0.016": 0.0,
			"0.017": 0.0,
			"0.018": 0.0,
			"0.019": 0.0,
			"0.02": 0.0,
			"0.021": 0.0,
			"0.022": 0.0,
			"0.023": 0.0,
			"0.024": 0.0,
			"0.025": 0.0
		}
	}
}
