{
	 "smiles": "CC1=CC=C(C(O)=O)C(O)=C1", 
	 "Tm": 451.15, 
	 "num_atms": 19, 
	 "gaussian": { 
		 "optdone": 1, 
		 "sigma_profile": "yes", 
		 "theory": "DFT", 
		 "functional": "B3LYP", 
		 "basiset": "6-31G**", 
		 "properties": { 
			 "R2extent": 2621.0375, 
			 "electric_dipole_moment_norm": 6.92127351937, 
			 "electric_quadrupole_moment_norm": 25.8118582874, 
			 "total_energy": -535.362988437, 
			 "HOMO_LUMO_gap": 0.20173, 
			 "cosmo_polarized_energy": -17.01, 
			 "cosmo_cavitation_energy": 23.01, 
			 "cosmo_dispersion_energy": -17.39, 
			 "cosmo_repulsion_energy": 1.39, 
			 "cosmo_total_nonelectrostatic_energy": 7.01, 
			 "SMD_solvation_energy": 5.51 
		},
		"coords": [
			{
				"x": 2.2410729327,
				"y": 0.0801667978,
				"z": -0.0080715529,
				"element": "C" 
			},
			{
				"x": 0.7946157,
				"y": -0.1354857528,
				"z": 0.3643939645,
				"element": "C" 
			},
			{
				"x": 0.2106287397,
				"y": 0.5730298762,
				"z": 1.4261882684,
				"element": "C" 
			},
			{
				"x": -1.1263670951,
				"y": 0.3846626695,
				"z": 1.7469140416,
				"element": "C" 
			},
			{
				"x": -1.9405303823,
				"y": -0.5106252373,
				"z": 1.0362386413,
				"element": "C" 
			},
			{
				"x": -3.373561231,
				"y": -0.6277517303,
				"z": 1.4827793845,
				"element": "C" 
			},
			{
				"x": -4.1772985263,
				"y": -1.4825212591,
				"z": 0.8184894279,
				"element": "O" 
			},
			{
				"x": -3.8059287202,
				"y": 0.0216371486,
				"z": 2.4106274008,
				"element": "O" 
			},
			{
				"x": -1.347439655,
				"y": -1.2180528163,
				"z": -0.0238754656,
				"element": "C" 
			},
			{
				"x": -2.1243401882,
				"y": -2.1047459165,
				"z": -0.7349806266,
				"element": "O" 
			},
			{
				"x": -0.0026855594,
				"y": -1.0320973797,
				"z": -0.3511108866,
				"element": "C" 
			},
			{
				"x": 2.3715942575,
				"y": 1.0354550855,
				"z": -0.5307496084,
				"element": "H" 
			},
			{
				"x": 2.6128773123,
				"y": -0.7103723089,
				"z": -0.6655525923,
				"element": "H" 
			},
			{
				"x": 2.8778725556,
				"y": 0.1108365165,
				"z": 0.8816355191,
				"element": "H" 
			},
			{
				"x": 0.8112982051,
				"y": 1.2725861825,
				"z": 2.0004487504,
				"element": "H" 
			},
			{
				"x": -1.5909351275,
				"y": 0.9244361177,
				"z": 2.5649710866,
				"element": "H" 
			},
			{
				"x": -3.6864627101,
				"y": -1.9270165372,
				"z": 0.1050992238,
				"element": "H" 
			},
			{
				"x": -1.6064505947,
				"y": -2.5264962869,
				"z": -1.4320903282,
				"element": "H" 
			},
			{
				"x": 0.4266400869,
				"y": -1.5973451693,
				"z": -1.1768546483,
				"element": "H" 
			}
		],
		 "valence_orbital": [ 
			{
				"type": "occ",
				"energy": -0.34359,
				"method": "rhf"
			},
			{
				"type": "occ",
				"energy": -0.29695,
				"method": "rhf"
			},
			{
				"type": "occ",
				"energy": -0.26135,
				"method": "rhf"
			},
			{
				"type": "occ",
				"energy": -0.26003,
				"method": "rhf"
			},
			{
				"type": "occ",
				"energy": -0.24441,
				"method": "rhf"
			},
			{
				"type": "unocc",
				"energy": -0.04268,
				"method": "rhf"
			},
			{
				"type": "unocc",
				"energy": -0.00857,
				"method": "rhf"
			},
			{
				"type": "unocc",
				"energy": 0.03979,
				"method": "rhf"
			},
			{
				"type": "unocc",
				"energy": 0.05857,
				"method": "rhf"
			},
			{
				"type": "unocc",
				"energy": 0.08419,
				"method": "rhf"
			}
		],
		"cosmo_sigma_profile": { 
			"-0.025": 0.0,
			"-0.024": 0.0,
			"-0.023": 0.0,
			"-0.022": 0.0,
			"-0.021": 0.0,
			"-0.02": 0.145621615737,
			"-0.019": 1.33954333707,
			"-0.018": 0.778472270385,
			"-0.017": 0.912311880657,
			"-0.016": 1.37719906589,
			"-0.015": 0.990753802211,
			"-0.014": 0.791525808888,
			"-0.013": 0.963496225717,
			"-0.012": 1.11859313414,
			"-0.011": 1.12668498071,
			"-0.01": 0.689648695045,
			"-0.009": 1.67960127589,
			"-0.008": 2.21611370725,
			"-0.007": 2.45454614259,
			"-0.006": 4.55220219834,
			"-0.005": 11.0010753232,
			"-0.004": 15.4735101893,
			"-0.003": 13.5672286167,
			"-0.002": 13.3506912855,
			"-0.001": 15.6289761058,
			"0.0": 14.8993941866,
			"0.001": 11.7238385474,
			"0.002": 12.0136344387,
			"0.003": 12.6287849335,
			"0.004": 9.86220907822,
			"0.005": 3.00623553357,
			"0.006": 2.36674115034,
			"0.007": 2.6426613336,
			"0.008": 2.55607423467,
			"0.009": 2.25352853781,
			"0.01": 3.4427430479,
			"0.011": 4.58815865756,
			"0.012": 6.34210428173,
			"0.013": 3.55836372456,
			"0.014": 1.17225679344,
			"0.015": 0.00158624026318,
			"0.016": 0.0,
			"0.017": 0.0,
			"0.018": 0.0,
			"0.019": 0.0,
			"0.02": 0.0,
			"0.021": 0.0,
			"0.022": 0.0,
			"0.023": 0.0,
			"0.024": 0.0,
			"0.025": 0.0
		}
	}
}
