{
	 "smiles": "CC(C(O)=O)C1=CC2=C(O1)C=CC=C2", 
	 "Tm": 365.15, 
	 "num_atms": 24, 
	 "gaussian": { 
		 "optdone": 1, 
		 "sigma_profile": "yes", 
		 "theory": "DFT", 
		 "functional": "B3LYP", 
		 "basiset": "6-31G**", 
		 "properties": { 
			 "R2extent": 3277.9069, 
			 "electric_dipole_moment_norm": 4.71317569586, 
			 "electric_quadrupole_moment_norm": 19.6770121266, 
			 "total_energy": -650.87605713, 
			 "HOMO_LUMO_gap": 0.19578, 
			 "cosmo_polarized_energy": -12.09, 
			 "cosmo_cavitation_energy": 28.25, 
			 "cosmo_dispersion_energy": -20.4, 
			 "cosmo_repulsion_energy": 1.61, 
			 "cosmo_total_nonelectrostatic_energy": 9.46, 
			 "SMD_solvation_energy": 6.1 
		},
		"coords": [
			{
				"x": 1.2528426821,
				"y": -3.1421010193,
				"z": 0.4541522772,
				"element": "C" 
			},
			{
				"x": 0.831524811,
				"y": -2.4613760344,
				"z": -0.8723593912,
				"element": "C" 
			},
			{
				"x": -0.3271291927,
				"y": -3.2698887042,
				"z": -1.4986015969,
				"element": "C" 
			},
			{
				"x": -1.5738380404,
				"y": -2.9805717737,
				"z": -1.0674178123,
				"element": "O" 
			},
			{
				"x": -0.1306867826,
				"y": -4.1600190659,
				"z": -2.2880571591,
				"element": "O" 
			},
			{
				"x": 0.5336699444,
				"y": -1.0079713355,
				"z": -0.6952098893,
				"element": "C" 
			},
			{
				"x": 1.0720292105,
				"y": 0.1243301956,
				"z": -1.2132169174,
				"element": "C" 
			},
			{
				"x": 0.3435648375,
				"y": 1.2355760086,
				"z": -0.6462841014,
				"element": "C" 
			},
			{
				"x": -0.6213635161,
				"y": 0.6638803779,
				"z": 0.2011381596,
				"element": "C" 
			},
			{
				"x": -0.506195822,
				"y": -0.7087905908,
				"z": 0.1809906605,
				"element": "O" 
			},
			{
				"x": -1.5390086766,
				"y": 1.3962230005,
				"z": 0.9408087561,
				"element": "C" 
			},
			{
				"x": -1.4686445419,
				"y": 2.783889622,
				"z": 0.8102035994,
				"element": "C" 
			},
			{
				"x": -0.5153694895,
				"y": 3.3908012188,
				"z": -0.0276796218,
				"element": "C" 
			},
			{
				"x": 0.3950627891,
				"y": 2.6327706573,
				"z": -0.7599962975,
				"element": "C" 
			},
			{
				"x": 1.4892120954,
				"y": -4.1937021139,
				"z": 0.2731924979,
				"element": "H" 
			},
			{
				"x": 2.1363235993,
				"y": -2.6479867294,
				"z": 0.8671407446,
				"element": "H" 
			},
			{
				"x": 0.4514407016,
				"y": -3.0876188238,
				"z": 1.195830838,
				"element": "H" 
			},
			{
				"x": 1.6527102533,
				"y": -2.5443722885,
				"z": -1.5880280665,
				"element": "H" 
			},
			{
				"x": -1.5586955206,
				"y": -2.2142701505,
				"z": -0.4684067989,
				"element": "H" 
			},
			{
				"x": 1.8893572355,
				"y": 0.1671194448,
				"z": -1.9190145027,
				"element": "H" 
			},
			{
				"x": -2.2669150243,
				"y": 0.9127103342,
				"z": 1.5831853842,
				"element": "H" 
			},
			{
				"x": -2.163315001,
				"y": 3.4052948368,
				"z": 1.366721132,
				"element": "H" 
			},
			{
				"x": -0.4915134607,
				"y": 4.4736877787,
				"z": -0.1034708608,
				"element": "H" 
			},
			{
				"x": 1.1258369085,
				"y": 3.1117851546,
				"z": -1.4044210339,
				"element": "H" 
			}
		],
		 "valence_orbital": [ 
			{
				"type": "occ",
				"energy": -0.30981,
				"method": "rhf"
			},
			{
				"type": "occ",
				"energy": -0.30731,
				"method": "rhf"
			},
			{
				"type": "occ",
				"energy": -0.27088,
				"method": "rhf"
			},
			{
				"type": "occ",
				"energy": -0.25154,
				"method": "rhf"
			},
			{
				"type": "occ",
				"energy": -0.23039,
				"method": "rhf"
			},
			{
				"type": "unocc",
				"energy": -0.03461,
				"method": "rhf"
			},
			{
				"type": "unocc",
				"energy": -0.00217,
				"method": "rhf"
			},
			{
				"type": "unocc",
				"energy": 0.01368,
				"method": "rhf"
			},
			{
				"type": "unocc",
				"energy": 0.04225,
				"method": "rhf"
			},
			{
				"type": "unocc",
				"energy": 0.07431,
				"method": "rhf"
			}
		],
		"cosmo_sigma_profile": { 
			"-0.025": 0.0,
			"-0.024": 0.0,
			"-0.023": 0.0,
			"-0.022": 0.0,
			"-0.021": 0.0,
			"-0.02": 0.0,
			"-0.019": 0.0,
			"-0.018": 0.0,
			"-0.017": 0.0,
			"-0.016": 0.0,
			"-0.015": 0.0,
			"-0.014": 0.0,
			"-0.013": 0.0,
			"-0.012": 0.203599601057,
			"-0.011": 0.508519229167,
			"-0.01": 1.16133182333,
			"-0.009": 1.51381472026,
			"-0.008": 2.65229249975,
			"-0.007": 8.25394187901,
			"-0.006": 12.5943927685,
			"-0.005": 18.0779010025,
			"-0.004": 21.2891838129,
			"-0.003": 19.7217162222,
			"-0.002": 17.740025928,
			"-0.001": 14.8137577198,
			"0.0": 13.7886021246,
			"0.001": 12.6758282022,
			"0.002": 12.7865945348,
			"0.003": 14.2154400896,
			"0.004": 14.0036037197,
			"0.005": 10.7149132696,
			"0.006": 3.0633039591,
			"0.007": 2.51710865038,
			"0.008": 2.89720290712,
			"0.009": 2.96793291052,
			"0.01": 4.77007813149,
			"0.011": 5.08149057735,
			"0.012": 5.71694782602,
			"0.013": 1.76302017946,
			"0.014": 0.0309458946804,
			"0.015": 0.0,
			"0.016": 0.0,
			"0.017": 0.0,
			"0.018": 0.0,
			"0.019": 0.0,
			"0.02": 0.0,
			"0.021": 0.0,
			"0.022": 0.0,
			"0.023": 0.0,
			"0.024": 0.0,
			"0.025": 0.0
		}
	}
}
