{
	 "smiles": "CC1CCN(CC1)S(=O)(=O)C1=CC=C(C=C1)C(O)=O", 
	 "Tm": 454.15, 
	 "num_atms": 36, 
	 "gaussian": { 
		 "optdone": 1, 
		 "sigma_profile": "yes", 
		 "theory": "DFT", 
		 "functional": "B3LYP", 
		 "basiset": "6-31G**", 
		 "properties": { 
			 "R2extent": 7034.8066, 
			 "electric_dipole_moment_norm": 6.08670262868, 
			 "electric_quadrupole_moment_norm": 30.5522339293, 
			 "total_energy": -1259.40474326, 
			 "HOMO_LUMO_gap": 0.1774, 
			 "cosmo_polarized_energy": -22.92, 
			 "cosmo_cavitation_energy": 39.18, 
			 "cosmo_dispersion_energy": -27.87, 
			 "cosmo_repulsion_energy": 2.1, 
			 "cosmo_total_nonelectrostatic_energy": 13.41, 
			 "SMD_solvation_energy": 5.56 
		},
		"coords": [
			{
				"x": 2.8765266275,
				"y": -1.8618536198,
				"z": -3.4154185134,
				"element": "C" 
			},
			{
				"x": 1.9231669799,
				"y": -0.8936247651,
				"z": -2.7037101275,
				"element": "C" 
			},
			{
				"x": 0.7433501336,
				"y": -1.6337367891,
				"z": -2.0118361728,
				"element": "C" 
			},
			{
				"x": 0.9940141635,
				"y": -1.8382660555,
				"z": -0.5154005821,
				"element": "C" 
			},
			{
				"x": 1.1742589207,
				"y": -0.5400986846,
				"z": 0.1719501403,
				"element": "N" 
			},
			{
				"x": 1.7705796986,
				"y": 0.5653396847,
				"z": -0.606897521,
				"element": "C" 
			},
			{
				"x": 2.6892893597,
				"y": -0.0239721071,
				"z": -1.6780670939,
				"element": "C" 
			},
			{
				"x": 0.188364513,
				"y": -0.1401748579,
				"z": 1.4555011256,
				"element": "S" 
			},
			{
				"x": 0.8193933905,
				"y": 0.9988451954,
				"z": 2.1251811078,
				"element": "O" 
			},
			{
				"x": -0.1329214282,
				"y": -1.38756928,
				"z": 2.1513864595,
				"element": "O" 
			},
			{
				"x": -1.3565294359,
				"y": 0.4749402187,
				"z": 0.7512775155,
				"element": "C" 
			},
			{
				"x": -1.4891576585,
				"y": 1.8377555437,
				"z": 0.4752521093,
				"element": "C" 
			},
			{
				"x": -2.6649223944,
				"y": 2.3018323064,
				"z": -0.1133235064,
				"element": "C" 
			},
			{
				"x": -3.7044281542,
				"y": 1.4130976989,
				"z": -0.4215122288,
				"element": "C" 
			},
			{
				"x": -3.5689948257,
				"y": 0.0545373068,
				"z": -0.1016432017,
				"element": "C" 
			},
			{
				"x": -2.3969311388,
				"y": -0.4198778385,
				"z": 0.4781705611,
				"element": "C" 
			},
			{
				"x": -5.000689385,
				"y": 1.8501933634,
				"z": -1.0432698759,
				"element": "C" 
			},
			{
				"x": -4.9978427311,
				"y": 3.040484758,
				"z": -1.6980801478,
				"element": "O" 
			},
			{
				"x": -6.0128152458,
				"y": 1.1940070728,
				"z": -0.9831246779,
				"element": "O" 
			},
			{
				"x": 2.3632989279,
				"y": -2.4108295927,
				"z": -4.2119191249,
				"element": "H" 
			},
			{
				"x": 3.2869453354,
				"y": -2.597476417,
				"z": -2.7129668318,
				"element": "H" 
			},
			{
				"x": 3.7215644123,
				"y": -1.3294207638,
				"z": -3.86567017,
				"element": "H" 
			},
			{
				"x": 1.4961692491,
				"y": -0.2226983358,
				"z": -3.4605465234,
				"element": "H" 
			},
			{
				"x": 0.5744412065,
				"y": -2.6080793852,
				"z": -2.4846467289,
				"element": "H" 
			},
			{
				"x": -0.1852591994,
				"y": -1.0639432455,
				"z": -2.1328987313,
				"element": "H" 
			},
			{
				"x": 1.8941609722,
				"y": -2.4449734874,
				"z": -0.354574411,
				"element": "H" 
			},
			{
				"x": 0.1735199013,
				"y": -2.3758743818,
				"z": -0.0381073426,
				"element": "H" 
			},
			{
				"x": 2.3253658591,
				"y": 1.207291274,
				"z": 0.0796733814,
				"element": "H" 
			},
			{
				"x": 0.9909863923,
				"y": 1.1798815745,
				"z": -1.0866460051,
				"element": "H" 
			},
			{
				"x": 3.2113741448,
				"y": 0.7927214201,
				"z": -2.187990923,
				"element": "H" 
			},
			{
				"x": 3.4616223357,
				"y": -0.6241271353,
				"z": -1.1807664509,
				"element": "H" 
			},
			{
				"x": -0.6957884494,
				"y": 2.522159261,
				"z": 0.75358418,
				"element": "H" 
			},
			{
				"x": -2.7748873988,
				"y": 3.3703204084,
				"z": -0.2821407535,
				"element": "H" 
			},
			{
				"x": -4.4009329556,
				"y": -0.609711514,
				"z": -0.3086585265,
				"element": "H" 
			},
			{
				"x": -2.2931602094,
				"y": -1.4645962492,
				"z": 0.7494690148,
				"element": "H" 
			},
			{
				"x": -4.0947319133,
				"y": 3.3715974184,
				"z": -1.7971294233,
				"element": "H" 
			}
		],
		 "valence_orbital": [ 
			{
				"type": "occ",
				"energy": -0.30644,
				"method": "rhf"
			},
			{
				"type": "occ",
				"energy": -0.2926,
				"method": "rhf"
			},
			{
				"type": "occ",
				"energy": -0.28933,
				"method": "rhf"
			},
			{
				"type": "occ",
				"energy": -0.28179,
				"method": "rhf"
			},
			{
				"type": "occ",
				"energy": -0.2525,
				"method": "rhf"
			},
			{
				"type": "unocc",
				"energy": -0.0751,
				"method": "rhf"
			},
			{
				"type": "unocc",
				"energy": -0.04055,
				"method": "rhf"
			},
			{
				"type": "unocc",
				"energy": 0.02146,
				"method": "rhf"
			},
			{
				"type": "unocc",
				"energy": 0.04266,
				"method": "rhf"
			},
			{
				"type": "unocc",
				"energy": 0.05767,
				"method": "rhf"
			}
		],
		"cosmo_sigma_profile": { 
			"-0.025": 0.0,
			"-0.024": 0.0,
			"-0.023": 0.0,
			"-0.022": 0.0,
			"-0.021": 0.0,
			"-0.02": 0.0,
			"-0.019": 0.492657180852,
			"-0.018": 1.39880726573,
			"-0.017": 0.855844413899,
			"-0.016": 0.979980922541,
			"-0.015": 0.993519196722,
			"-0.014": 1.04834146464,
			"-0.013": 1.05985117471,
			"-0.012": 1.37424721766,
			"-0.011": 1.47939033281,
			"-0.01": 1.05779087167,
			"-0.009": 1.52197277473,
			"-0.008": 3.66489770607,
			"-0.007": 6.63126479159,
			"-0.006": 8.38873387183,
			"-0.005": 9.11944911846,
			"-0.004": 25.7916955784,
			"-0.003": 39.5290030635,
			"-0.002": 38.3326368984,
			"-0.001": 28.2274506701,
			"0.0": 26.3957648213,
			"0.001": 25.0870153689,
			"0.002": 8.49270858142,
			"0.003": 6.07353742673,
			"0.004": 6.13316501164,
			"0.005": 6.71963781759,
			"0.006": 6.24227680691,
			"0.007": 6.25334758102,
			"0.008": 5.70029669042,
			"0.009": 7.22461616191,
			"0.01": 11.4685776135,
			"0.011": 13.1445515836,
			"0.012": 7.11319413543,
			"0.013": 0.638878034414,
			"0.014": 0.0,
			"0.015": 0.0,
			"0.016": 0.0,
			"0.017": 0.0,
			"0.018": 0.0,
			"0.019": 0.0,
			"0.02": 0.0,
			"0.021": 0.0,
			"0.022": 0.0,
			"0.023": 0.0,
			"0.024": 0.0,
			"0.025": 0.0
		}
	}
}
