{
	 "smiles": "CC1=CC=C(C=C1)C1=CN=CO1", 
	 "Tm": 351.15, 
	 "num_atms": 21, 
	 "gaussian": { 
		 "optdone": 1, 
		 "sigma_profile": "yes", 
		 "theory": "DFT", 
		 "functional": "B3LYP", 
		 "basiset": "6-31G**", 
		 "properties": { 
			 "R2extent": 2849.7288, 
			 "electric_dipole_moment_norm": 2.40594982076, 
			 "electric_quadrupole_moment_norm": 10.0958039125, 
			 "total_energy": -516.455609939, 
			 "HOMO_LUMO_gap": 0.17755, 
			 "cosmo_polarized_energy": -7.46, 
			 "cosmo_cavitation_energy": 25.31, 
			 "cosmo_dispersion_energy": -18.73, 
			 "cosmo_repulsion_energy": 1.46, 
			 "cosmo_total_nonelectrostatic_energy": 8.04, 
			 "SMD_solvation_energy": 3.71 
		},
		"coords": [
			{
				"x": -3.4055622225,
				"y": -3.4499671295,
				"z": -1.7940031183,
				"element": "C" 
			},
			{
				"x": -2.2758769938,
				"y": -2.5290880227,
				"z": -1.4005294969,
				"element": "C" 
			},
			{
				"x": -0.9391594208,
				"y": -2.9450429225,
				"z": -1.4879480652,
				"element": "C" 
			},
			{
				"x": 0.1070083988,
				"y": -2.0916610081,
				"z": -1.1552377588,
				"element": "C" 
			},
			{
				"x": -0.1499098329,
				"y": -0.7807455469,
				"z": -0.7170000278,
				"element": "C" 
			},
			{
				"x": -1.4866463505,
				"y": -0.3591719778,
				"z": -0.6235200004,
				"element": "C" 
			},
			{
				"x": -2.5255441552,
				"y": -1.2228863861,
				"z": -0.9594593587,
				"element": "C" 
			},
			{
				"x": 0.9482471075,
				"y": 0.1086223374,
				"z": -0.3662907559,
				"element": "C" 
			},
			{
				"x": 2.3120397121,
				"y": 0.0072610961,
				"z": -0.344889369,
				"element": "C" 
			},
			{
				"x": 2.869448839,
				"y": 1.2016311341,
				"z": 0.0870046504,
				"element": "N" 
			},
			{
				"x": 1.8465546596,
				"y": 1.9645606279,
				"z": 0.3064237885,
				"element": "C" 
			},
			{
				"x": 0.6450672461,
				"y": 1.3849511433,
				"z": 0.0586238108,
				"element": "O" 
			},
			{
				"x": -3.6451213879,
				"y": -3.3505351373,
				"z": -2.860464874,
				"element": "H" 
			},
			{
				"x": -4.3187382913,
				"y": -3.2252442089,
				"z": -1.2347285613,
				"element": "H" 
			},
			{
				"x": -3.1482679241,
				"y": -4.4986073287,
				"z": -1.6165892235,
				"element": "H" 
			},
			{
				"x": -0.7150822179,
				"y": -3.9554718472,
				"z": -1.8209035058,
				"element": "H" 
			},
			{
				"x": 1.1306211326,
				"y": -2.4462380068,
				"z": -1.2319513594,
				"element": "H" 
			},
			{
				"x": -1.705746567,
				"y": 0.6469146116,
				"z": -0.2824806941,
				"element": "H" 
			},
			{
				"x": -3.5523191314,
				"y": -0.8752156662,
				"z": -0.8755217726,
				"element": "H" 
			},
			{
				"x": 2.9304630425,
				"y": -0.8377288021,
				"z": -0.6088465275,
				"element": "H" 
			},
			{
				"x": 1.8307243569,
				"y": 2.9863630403,
				"z": 0.6558122196,
				"element": "H" 
			}
		],
		 "valence_orbital": [ 
			{
				"type": "occ",
				"energy": -0.31968,
				"method": "rhf"
			},
			{
				"type": "occ",
				"energy": -0.2873,
				"method": "rhf"
			},
			{
				"type": "occ",
				"energy": -0.28245,
				"method": "rhf"
			},
			{
				"type": "occ",
				"energy": -0.25566,
				"method": "rhf"
			},
			{
				"type": "occ",
				"energy": -0.21395,
				"method": "rhf"
			},
			{
				"type": "unocc",
				"energy": -0.0364,
				"method": "rhf"
			},
			{
				"type": "unocc",
				"energy": -0.00625,
				"method": "rhf"
			},
			{
				"type": "unocc",
				"energy": 0.02653,
				"method": "rhf"
			},
			{
				"type": "unocc",
				"energy": 0.07408,
				"method": "rhf"
			},
			{
				"type": "unocc",
				"energy": 0.09303,
				"method": "rhf"
			}
		],
		"cosmo_sigma_profile": { 
			"-0.025": 0.0,
			"-0.024": 0.0,
			"-0.023": 0.0,
			"-0.022": 0.0,
			"-0.021": 0.0,
			"-0.02": 0.0,
			"-0.019": 0.0,
			"-0.018": 0.0,
			"-0.017": 0.0,
			"-0.016": 0.0,
			"-0.015": 0.0,
			"-0.014": 0.0,
			"-0.013": 0.0,
			"-0.012": 0.0,
			"-0.011": 0.708694023948,
			"-0.01": 2.23155342532,
			"-0.009": 1.79070827685,
			"-0.008": 3.84775761317,
			"-0.007": 4.13691388642,
			"-0.006": 6.24245043404,
			"-0.005": 11.5440592181,
			"-0.004": 16.7731915671,
			"-0.003": 13.8759504172,
			"-0.002": 15.9051250007,
			"-0.001": 16.9757339309,
			"0.0": 20.2524798304,
			"0.001": 17.1009666634,
			"0.002": 17.3030200288,
			"0.003": 13.6042195737,
			"0.004": 12.8940744526,
			"0.005": 12.827297205,
			"0.006": 3.70088912378,
			"0.007": 1.38704124617,
			"0.008": 1.33435587658,
			"0.009": 1.21071137615,
			"0.01": 1.35481869109,
			"0.011": 1.12462005401,
			"0.012": 0.772858812666,
			"0.013": 1.32981363775,
			"0.014": 1.26829952195,
			"0.015": 0.922068908321,
			"0.016": 0.689186248764,
			"0.017": 0.0,
			"0.018": 0.0,
			"0.019": 0.0,
			"0.02": 0.0,
			"0.021": 0.0,
			"0.022": 0.0,
			"0.023": 0.0,
			"0.024": 0.0,
			"0.025": 0.0
		}
	}
}
