{
	 "smiles": "CC1=CC(=CC=C1)C(CO)N1CCNCC1", 
	 "Tm": 355.15, 
	 "num_atms": 36, 
	 "gaussian": { 
		 "optdone": 1, 
		 "sigma_profile": "yes", 
		 "theory": "DFT", 
		 "functional": "B3LYP", 
		 "basiset": "6-31G**", 
		 "properties": { 
			 "R2extent": 4603.7467, 
			 "electric_dipole_moment_norm": 2.58927868141, 
			 "electric_quadrupole_moment_norm": 10.475580887, 
			 "total_energy": -692.133300155, 
			 "HOMO_LUMO_gap": 0.2053, 
			 "cosmo_polarized_energy": -10.74, 
			 "cosmo_cavitation_energy": 36.07, 
			 "cosmo_dispersion_energy": -25.34, 
			 "cosmo_repulsion_energy": 2.0, 
			 "cosmo_total_nonelectrostatic_energy": 12.73, 
			 "SMD_solvation_energy": 2.35 
		},
		"coords": [
			{
				"x": -3.6430605736,
				"y": 1.1226688429,
				"z": -2.7264431712,
				"element": "C" 
			},
			{
				"x": -2.4583004274,
				"y": 1.0996015881,
				"z": -1.7884186864,
				"element": "C" 
			},
			{
				"x": -1.5696825644,
				"y": 0.0161924867,
				"z": -1.7834870383,
				"element": "C" 
			},
			{
				"x": -0.4528544172,
				"y": -0.0180554641,
				"z": -0.9415994576,
				"element": "C" 
			},
			{
				"x": -0.2243249862,
				"y": 1.061117377,
				"z": -0.0776186181,
				"element": "C" 
			},
			{
				"x": -1.1012139823,
				"y": 2.1453632944,
				"z": -0.0668582015,
				"element": "C" 
			},
			{
				"x": -2.2091040991,
				"y": 2.1660674204,
				"z": -0.9154187601,
				"element": "C" 
			},
			{
				"x": 0.5362288876,
				"y": -1.1788307679,
				"z": -1.0159550316,
				"element": "C" 
			},
			{
				"x": 1.7379619404,
				"y": -0.7157670174,
				"z": -1.8621600799,
				"element": "C" 
			},
			{
				"x": 2.426452864,
				"y": -1.8441329288,
				"z": -2.3914984207,
				"element": "O" 
			},
			{
				"x": 0.9230641361,
				"y": -1.6169255675,
				"z": 0.3326977762,
				"element": "N" 
			},
			{
				"x": 2.0203735284,
				"y": -2.6000637992,
				"z": 0.3755954081,
				"element": "C" 
			},
			{
				"x": 2.2051674469,
				"y": -3.1228268231,
				"z": 1.8302582925,
				"element": "C" 
			},
			{
				"x": 1.6178330721,
				"y": -2.2477990058,
				"z": 2.8439452665,
				"element": "N" 
			},
			{
				"x": 0.1715433323,
				"y": -2.1257495451,
				"z": 2.6134479553,
				"element": "C" 
			},
			{
				"x": -0.2080797739,
				"y": -2.1360019215,
				"z": 1.1095826508,
				"element": "C" 
			},
			{
				"x": -4.472177827,
				"y": 1.7031059585,
				"z": -2.3105437072,
				"element": "H" 
			},
			{
				"x": -3.3784676842,
				"y": 1.5783207483,
				"z": -3.6891395923,
				"element": "H" 
			},
			{
				"x": -4.0081004826,
				"y": 0.1126300834,
				"z": -2.9362247499,
				"element": "H" 
			},
			{
				"x": -1.7555063248,
				"y": -0.8249711198,
				"z": -2.4491170044,
				"element": "H" 
			},
			{
				"x": 0.6261504892,
				"y": 1.0263254906,
				"z": 0.59572255,
				"element": "H" 
			},
			{
				"x": -0.9247311419,
				"y": 2.9768942603,
				"z": 0.6102935823,
				"element": "H" 
			},
			{
				"x": -2.8909460144,
				"y": 3.0129122271,
				"z": -0.8952652111,
				"element": "H" 
			},
			{
				"x": 0.0666231468,
				"y": -2.002947501,
				"z": -1.5877125817,
				"element": "H" 
			},
			{
				"x": 2.3917508609,
				"y": -0.0894271491,
				"z": -1.2347213695,
				"element": "H" 
			},
			{
				"x": 1.3532663108,
				"y": -0.0850612119,
				"z": -2.6755955059,
				"element": "H" 
			},
			{
				"x": 3.1597528571,
				"y": -1.5187048367,
				"z": -2.9281102155,
				"element": "H" 
			},
			{
				"x": 2.9363918842,
				"y": -2.1194321212,
				"z": 0.0248234461,
				"element": "H" 
			},
			{
				"x": 1.8340612751,
				"y": -3.4488940386,
				"z": -0.306698176,
				"element": "H" 
			},
			{
				"x": 3.2706169705,
				"y": -3.2601564905,
				"z": 2.0431962112,
				"element": "H" 
			},
			{
				"x": 1.7374633998,
				"y": -4.1091195251,
				"z": 1.9384159426,
				"element": "H" 
			},
			{
				"x": 2.0264055527,
				"y": -1.3235086417,
				"z": 2.7270368994,
				"element": "H" 
			},
			{
				"x": -0.1658117016,
				"y": -1.1950679792,
				"z": 3.081037428,
				"element": "H" 
			},
			{
				"x": -0.344872642,
				"y": -2.9491121173,
				"z": 3.1252124939,
				"element": "H" 
			},
			{
				"x": -1.0864964934,
				"y": -1.5093198584,
				"z": 0.9406456155,
				"element": "H" 
			},
			{
				"x": -0.4789768189,
				"y": -3.1583243471,
				"z": 0.7808740603,
				"element": "H" 
			}
		],
		 "valence_orbital": [ 
			{
				"type": "occ",
				"energy": -0.27012,
				"method": "rhf"
			},
			{
				"type": "occ",
				"energy": -0.24235,
				"method": "rhf"
			},
			{
				"type": "occ",
				"energy": -0.23592,
				"method": "rhf"
			},
			{
				"type": "occ",
				"energy": -0.21109,
				"method": "rhf"
			},
			{
				"type": "occ",
				"energy": -0.20516,
				"method": "rhf"
			},
			{
				"type": "unocc",
				"energy": 0.00014,
				"method": "rhf"
			},
			{
				"type": "unocc",
				"energy": 0.00196,
				"method": "rhf"
			},
			{
				"type": "unocc",
				"energy": 0.07406,
				"method": "rhf"
			},
			{
				"type": "unocc",
				"energy": 0.08538,
				"method": "rhf"
			},
			{
				"type": "unocc",
				"energy": 0.10089,
				"method": "rhf"
			}
		],
		"cosmo_sigma_profile": { 
			"-0.025": 0.0,
			"-0.024": 0.0,
			"-0.023": 0.0,
			"-0.022": 0.0,
			"-0.021": 0.0,
			"-0.02": 0.0,
			"-0.019": 0.0,
			"-0.018": 0.0,
			"-0.017": 0.0,
			"-0.016": 0.313378717482,
			"-0.015": 1.15906552855,
			"-0.014": 1.23680634811,
			"-0.013": 0.678056778919,
			"-0.012": 0.800292269157,
			"-0.011": 1.09342018982,
			"-0.01": 0.546030154309,
			"-0.009": 1.38467845146,
			"-0.008": 1.73241773607,
			"-0.007": 1.73319022616,
			"-0.006": 2.20406607194,
			"-0.005": 7.3190857241,
			"-0.004": 19.90580736,
			"-0.003": 33.4282836302,
			"-0.002": 38.14943507,
			"-0.001": 40.1613911476,
			"0.0": 32.2376244721,
			"0.001": 18.9818623216,
			"0.002": 13.0365126054,
			"0.003": 11.9507041128,
			"0.004": 10.4485419745,
			"0.005": 10.40566347,
			"0.006": 9.34883495707,
			"0.007": 4.71433655526,
			"0.008": 2.23206348163,
			"0.009": 2.78730475688,
			"0.01": 2.57098546824,
			"0.011": 1.52919326243,
			"0.012": 2.00735994161,
			"0.013": 1.50368063889,
			"0.014": 1.37196064144,
			"0.015": 0.781103012868,
			"0.016": 0.635766890696,
			"0.017": 0.722886360441,
			"0.018": 0.56104093198,
			"0.019": 0.3406794444,
			"0.02": 0.0,
			"0.021": 0.0,
			"0.022": 0.0,
			"0.023": 0.0,
			"0.024": 0.0,
			"0.025": 0.0
		}
	}
}
