{
	 "smiles": "CS(=O)(=O)C1=C(NN)C=CC=C1", 
	 "Tm": 349.15, 
	 "num_atms": 22, 
	 "gaussian": { 
		 "optdone": 1, 
		 "sigma_profile": "yes", 
		 "theory": "DFT", 
		 "functional": "B3LYP", 
		 "basiset": "6-31G**", 
		 "properties": { 
			 "R2extent": 2491.928, 
			 "electric_dipole_moment_norm": 5.18941893568, 
			 "electric_quadrupole_moment_norm": 9.96331158953, 
			 "total_energy": -930.815258687, 
			 "HOMO_LUMO_gap": 0.1867, 
			 "cosmo_polarized_energy": -16.59, 
			 "cosmo_cavitation_energy": 26.34, 
			 "cosmo_dispersion_energy": -19.91, 
			 "cosmo_repulsion_energy": 1.53, 
			 "cosmo_total_nonelectrostatic_energy": 7.96, 
			 "SMD_solvation_energy": 4.71 
		},
		"coords": [
			{
				"x": 2.2020225759,
				"y": 1.4093379967,
				"z": -2.1958265499,
				"element": "C" 
			},
			{
				"x": 0.7179355218,
				"y": 0.3792416977,
				"z": -2.222295508,
				"element": "S" 
			},
			{
				"x": -0.2934874112,
				"y": 1.0572826853,
				"z": -3.0453632486,
				"element": "O" 
			},
			{
				"x": 1.1526957112,
				"y": -0.9933373601,
				"z": -2.5657368042,
				"element": "O" 
			},
			{
				"x": 0.1653296184,
				"y": 0.3873794934,
				"z": -0.5170437825,
				"element": "C" 
			},
			{
				"x": 0.8502125167,
				"y": -0.3515823499,
				"z": 0.4845061502,
				"element": "C" 
			},
			{
				"x": 1.971023269,
				"y": -1.1114988112,
				"z": 0.175507297,
				"element": "N" 
			},
			{
				"x": 2.5313731907,
				"y": -2.014070659,
				"z": 1.0996443844,
				"element": "N" 
			},
			{
				"x": 0.3709706178,
				"y": -0.2357599021,
				"z": 1.8037705914,
				"element": "C" 
			},
			{
				"x": -0.7430085335,
				"y": 0.546323011,
				"z": 2.0971791214,
				"element": "C" 
			},
			{
				"x": -1.4233755679,
				"y": 1.2424029324,
				"z": 1.096234953,
				"element": "C" 
			},
			{
				"x": -0.9567742285,
				"y": 1.1594277113,
				"z": -0.2134908777,
				"element": "C" 
			},
			{
				"x": 1.9188084983,
				"y": 2.4304411725,
				"z": -1.9378718133,
				"element": "H" 
			},
			{
				"x": 2.9020448285,
				"y": 0.9944741033,
				"z": -1.4685045727,
				"element": "H" 
			},
			{
				"x": 2.625248966,
				"y": 1.3691411148,
				"z": -3.2016213336,
				"element": "H" 
			},
			{
				"x": 1.9998645281,
				"y": -1.4672791413,
				"z": -0.774809741,
				"element": "H" 
			},
			{
				"x": 1.8032830651,
				"y": -2.5589813297,
				"z": 1.5642797248,
				"element": "H" 
			},
			{
				"x": 3.0375681327,
				"y": -1.4931484701,
				"z": 1.8111106998,
				"element": "H" 
			},
			{
				"x": 0.8778908228,
				"y": -0.7692013211,
				"z": 2.5994711919,
				"element": "H" 
			},
			{
				"x": -1.0853827118,
				"y": 0.6054925258,
				"z": 3.1266494912,
				"element": "H" 
			},
			{
				"x": -2.296909967,
				"y": 1.8411550041,
				"z": 1.3304787238,
				"element": "H" 
			},
			{
				"x": -1.4525334433,
				"y": 1.6846598965,
				"z": -1.0230680974,
				"element": "H" 
			}
		],
		 "valence_orbital": [ 
			{
				"type": "occ",
				"energy": -0.30002,
				"method": "rhf"
			},
			{
				"type": "occ",
				"energy": -0.2906,
				"method": "rhf"
			},
			{
				"type": "occ",
				"energy": -0.27566,
				"method": "rhf"
			},
			{
				"type": "occ",
				"energy": -0.27022,
				"method": "rhf"
			},
			{
				"type": "occ",
				"energy": -0.22272,
				"method": "rhf"
			},
			{
				"type": "unocc",
				"energy": -0.03602,
				"method": "rhf"
			},
			{
				"type": "unocc",
				"energy": -0.00532,
				"method": "rhf"
			},
			{
				"type": "unocc",
				"energy": 0.05917,
				"method": "rhf"
			},
			{
				"type": "unocc",
				"energy": 0.0729,
				"method": "rhf"
			},
			{
				"type": "unocc",
				"energy": 0.07858,
				"method": "rhf"
			}
		],
		"cosmo_sigma_profile": { 
			"-0.025": 0.0,
			"-0.024": 0.0,
			"-0.023": 0.0,
			"-0.022": 0.0,
			"-0.021": 0.0,
			"-0.02": 0.0,
			"-0.019": 0.0,
			"-0.018": 0.0,
			"-0.017": 0.0,
			"-0.016": 0.0,
			"-0.015": 0.0,
			"-0.014": 0.0,
			"-0.013": 0.0,
			"-0.012": 0.401589639034,
			"-0.011": 2.39344363345,
			"-0.01": 3.85746780353,
			"-0.009": 5.92178001635,
			"-0.008": 7.24175894158,
			"-0.007": 8.3967022404,
			"-0.006": 13.5267277782,
			"-0.005": 15.4355200475,
			"-0.004": 18.8436394911,
			"-0.003": 12.8609016878,
			"-0.002": 9.47600568171,
			"-0.001": 9.46042679133,
			"0.0": 9.45044950674,
			"0.001": 11.796328548,
			"0.002": 10.8673226996,
			"0.003": 12.1666425484,
			"0.004": 11.659237473,
			"0.005": 7.18743455322,
			"0.006": 3.55187319563,
			"0.007": 3.03000292614,
			"0.008": 2.79687669585,
			"0.009": 4.46736244999,
			"0.01": 6.43645562429,
			"0.011": 6.91150670117,
			"0.012": 7.80281096006,
			"0.013": 1.30379503396,
			"0.014": 0.564464054022,
			"0.015": 0.355590813775,
			"0.016": 0.967355878663,
			"0.017": 0.0452000315624,
			"0.018": 0.0,
			"0.019": 0.0,
			"0.02": 0.0,
			"0.021": 0.0,
			"0.022": 0.0,
			"0.023": 0.0,
			"0.024": 0.0,
			"0.025": 0.0
		}
	}
}
