{
	 "smiles": "CCOC1=C(OCC2=C(Cl)C=CC=C2Cl)C=CC(C=O)=C1", 
	 "Tm": 389.15, 
	 "num_atms": 35, 
	 "gaussian": { 
		 "optdone": 1, 
		 "sigma_profile": "yes", 
		 "theory": "DFT", 
		 "functional": "B3LYP", 
		 "basiset": "6-31G**", 
		 "properties": { 
			 "R2extent": 9624.5705, 
			 "electric_dipole_moment_norm": 4.17927747464, 
			 "electric_quadrupole_moment_norm": 11.016217054, 
			 "total_energy": -1764.16715496, 
			 "HOMO_LUMO_gap": 0.16722, 
			 "cosmo_polarized_energy": -12.39, 
			 "cosmo_cavitation_energy": 43.41, 
			 "cosmo_dispersion_energy": -29.32, 
			 "cosmo_repulsion_energy": 2.26, 
			 "cosmo_total_nonelectrostatic_energy": 16.35, 
			 "SMD_solvation_energy": 8.21 
		},
		"coords": [
			{
				"x": -3.4267119326,
				"y": 0.5171760234,
				"z": 2.6345138206,
				"element": "C" 
			},
			{
				"x": -3.1019850053,
				"y": 1.2604415095,
				"z": 1.3437086286,
				"element": "C" 
			},
			{
				"x": -1.7415035065,
				"y": 1.0786018928,
				"z": 0.9280915915,
				"element": "O" 
			},
			{
				"x": -1.3832638628,
				"y": -0.0562212261,
				"z": 0.2594969169,
				"element": "C" 
			},
			{
				"x": -0.0148680955,
				"y": -0.1492303042,
				"z": -0.1149483327,
				"element": "C" 
			},
			{
				"x": 0.9005407715,
				"y": 0.8272567318,
				"z": 0.1542150033,
				"element": "O" 
			},
			{
				"x": 1.0113095972,
				"y": 1.3306531497,
				"z": 1.5028315694,
				"element": "C" 
			},
			{
				"x": 2.401253948,
				"y": 1.8933638052,
				"z": 1.6602526044,
				"element": "C" 
			},
			{
				"x": 2.6762264823,
				"y": 3.2675454479,
				"z": 1.5506002945,
				"element": "C" 
			},
			{
				"x": 1.3809967729,
				"y": 4.4127513023,
				"z": 1.2186460508,
				"element": "Cl" 
			},
			{
				"x": 3.961724257,
				"y": 3.7894185731,
				"z": 1.6939694367,
				"element": "C" 
			},
			{
				"x": 5.0229626675,
				"y": 2.9252857524,
				"z": 1.9485734524,
				"element": "C" 
			},
			{
				"x": 4.8028058997,
				"y": 1.5538854562,
				"z": 2.0568171631,
				"element": "C" 
			},
			{
				"x": 3.5081806757,
				"y": 1.0618309853,
				"z": 1.9085610287,
				"element": "C" 
			},
			{
				"x": 3.2835291443,
				"y": -0.6779127844,
				"z": 2.0445793486,
				"element": "Cl" 
			},
			{
				"x": 0.4292288751,
				"y": -1.2413899361,
				"z": -0.8625563693,
				"element": "C" 
			},
			{
				"x": -0.4506997693,
				"y": -2.2530676414,
				"z": -1.2372435477,
				"element": "C" 
			},
			{
				"x": -1.7906509065,
				"y": -2.1805741877,
				"z": -0.846968577,
				"element": "C" 
			},
			{
				"x": -2.7330214212,
				"y": -3.2519710651,
				"z": -1.2190630544,
				"element": "C" 
			},
			{
				"x": -3.9140353412,
				"y": -3.275887841,
				"z": -0.9188921903,
				"element": "O" 
			},
			{
				"x": -2.2502266619,
				"y": -1.0832435251,
				"z": -0.0991416872,
				"element": "C" 
			},
			{
				"x": -3.3355199876,
				"y": -0.5655476471,
				"z": 2.5157032242,
				"element": "H" 
			},
			{
				"x": -4.4537418589,
				"y": 0.7396667415,
				"z": 2.94228717,
				"element": "H" 
			},
			{
				"x": -2.7523350437,
				"y": 0.8331325883,
				"z": 3.4357403172,
				"element": "H" 
			},
			{
				"x": -3.7822191735,
				"y": 0.9794116485,
				"z": 0.5310705127,
				"element": "H" 
			},
			{
				"x": -3.1935606237,
				"y": 2.3397959135,
				"z": 1.4915550248,
				"element": "H" 
			},
			{
				"x": 0.2582565425,
				"y": 2.0957823724,
				"z": 1.6786554531,
				"element": "H" 
			},
			{
				"x": 0.8559051371,
				"y": 0.5129433044,
				"z": 2.2127979357,
				"element": "H" 
			},
			{
				"x": 4.1200352581,
				"y": 4.8575761302,
				"z": 1.6027165458,
				"element": "H" 
			},
			{
				"x": 6.0271766795,
				"y": 3.3217415315,
				"z": 2.0615056508,
				"element": "H" 
			},
			{
				"x": 5.6198110811,
				"y": 0.869023941,
				"z": 2.2515989214,
				"element": "H" 
			},
			{
				"x": 1.4787304767,
				"y": -1.2680970756,
				"z": -1.1349852366,
				"element": "H" 
			},
			{
				"x": -0.0971056018,
				"y": -3.1022536599,
				"z": -1.8160028215,
				"element": "H" 
			},
			{
				"x": -2.2814957519,
				"y": -4.0747046746,
				"z": -1.8174472433,
				"element": "H" 
			},
			{
				"x": -3.3001297221,
				"y": -1.0689832328,
				"z": 0.1672613948,
				"element": "H" 
			}
		],
		 "valence_orbital": [ 
			{
				"type": "occ",
				"energy": -0.26984,
				"method": "rhf"
			},
			{
				"type": "occ",
				"energy": -0.25629,
				"method": "rhf"
			},
			{
				"type": "occ",
				"energy": -0.24819,
				"method": "rhf"
			},
			{
				"type": "occ",
				"energy": -0.24604,
				"method": "rhf"
			},
			{
				"type": "occ",
				"energy": -0.22169,
				"method": "rhf"
			},
			{
				"type": "unocc",
				"energy": -0.05447,
				"method": "rhf"
			},
			{
				"type": "unocc",
				"energy": -0.03625,
				"method": "rhf"
			},
			{
				"type": "unocc",
				"energy": -0.02863,
				"method": "rhf"
			},
			{
				"type": "unocc",
				"energy": 4e-05,
				"method": "rhf"
			},
			{
				"type": "unocc",
				"energy": 0.00158,
				"method": "rhf"
			}
		],
		"cosmo_sigma_profile": { 
			"-0.025": 0.0,
			"-0.024": 0.0,
			"-0.023": 0.0,
			"-0.022": 0.0,
			"-0.021": 0.0,
			"-0.02": 0.0,
			"-0.019": 0.0,
			"-0.018": 0.0,
			"-0.017": 0.0,
			"-0.016": 0.0,
			"-0.015": 0.0,
			"-0.014": 0.0,
			"-0.013": 0.0,
			"-0.012": 0.0,
			"-0.011": 0.0,
			"-0.01": 0.0,
			"-0.009": 0.00844438304246,
			"-0.008": 3.55409515867,
			"-0.007": 11.7974477565,
			"-0.006": 18.114614299,
			"-0.005": 19.9627199486,
			"-0.004": 26.0792006513,
			"-0.003": 26.0918423155,
			"-0.002": 24.9786693793,
			"-0.001": 24.0244708333,
			"0.0": 31.9755644635,
			"0.001": 36.7566094407,
			"0.002": 42.727471291,
			"0.003": 30.9508171297,
			"0.004": 21.5469155991,
			"0.005": 6.40456345188,
			"0.006": 4.43097315711,
			"0.007": 3.18960112683,
			"0.008": 4.16670394525,
			"0.009": 2.73834656403,
			"0.01": 3.1639735668,
			"0.011": 3.53888691597,
			"0.012": 3.90814500776,
			"0.013": 1.2950994892,
			"0.014": 0.0748643718039,
			"0.015": 0.0,
			"0.016": 0.0,
			"0.017": 0.0,
			"0.018": 0.0,
			"0.019": 0.0,
			"0.02": 0.0,
			"0.021": 0.0,
			"0.022": 0.0,
			"0.023": 0.0,
			"0.024": 0.0,
			"0.025": 0.0
		}
	}
}
