{
	 "smiles": "OC(=O)C1=C(C=CC=C1)C(=O)C1=CC(Cl)=C(Cl)C=C1", 
	 "Tm": 461.15, 
	 "num_atms": 27, 
	 "gaussian": { 
		 "optdone": 1, 
		 "sigma_profile": "yes", 
		 "theory": "DFT", 
		 "functional": "B3LYP", 
		 "basiset": "6-31G**", 
		 "properties": { 
			 "R2extent": 7364.6571, 
			 "electric_dipole_moment_norm": 5.72578798857, 
			 "electric_quadrupole_moment_norm": 23.5140664829, 
			 "total_energy": -1684.37564089, 
			 "HOMO_LUMO_gap": 0.15838, 
			 "cosmo_polarized_energy": -15.0, 
			 "cosmo_cavitation_energy": 35.68, 
			 "cosmo_dispersion_energy": -25.93, 
			 "cosmo_repulsion_energy": 1.98, 
			 "cosmo_total_nonelectrostatic_energy": 11.73, 
			 "SMD_solvation_energy": 6.91 
		},
		"coords": [
			{
				"x": -2.413137509,
				"y": -2.2121909605,
				"z": 1.6403830104,
				"element": "O" 
			},
			{
				"x": -2.4949928963,
				"y": -0.9700797093,
				"z": 2.1164203971,
				"element": "C" 
			},
			{
				"x": -3.5620242465,
				"y": -0.4933797026,
				"z": 2.4426593047,
				"element": "O" 
			},
			{
				"x": -1.2146862406,
				"y": -0.1630479596,
				"z": 2.3141220995,
				"element": "C" 
			},
			{
				"x": -0.0171453376,
				"y": -0.2068056622,
				"z": 1.5505526218,
				"element": "C" 
			},
			{
				"x": 1.0396650508,
				"y": 0.6595170671,
				"z": 1.8909505771,
				"element": "C" 
			},
			{
				"x": 0.9421053261,
				"y": 1.544344525,
				"z": 2.9608461885,
				"element": "C" 
			},
			{
				"x": -0.2445493061,
				"y": 1.6083964362,
				"z": 3.6887348726,
				"element": "C" 
			},
			{
				"x": -1.3077250012,
				"y": 0.774848807,
				"z": 3.3513534846,
				"element": "C" 
			},
			{
				"x": 0.2482795494,
				"y": -1.1745223155,
				"z": 0.4378408139,
				"element": "C" 
			},
			{
				"x": -0.0827639531,
				"y": -2.3611554972,
				"z": 0.5221873874,
				"element": "O" 
			},
			{
				"x": 0.966350483,
				"y": -0.7253737085,
				"z": -0.7934808501,
				"element": "C" 
			},
			{
				"x": 0.9601746109,
				"y": 0.6084069842,
				"z": -1.2228301877,
				"element": "C" 
			},
			{
				"x": 1.5816091385,
				"y": 0.9708152883,
				"z": -2.4179035983,
				"element": "C" 
			},
			{
				"x": 1.5328072178,
				"y": 2.6418567108,
				"z": -2.9145797934,
				"element": "Cl" 
			},
			{
				"x": 2.2264437449,
				"y": -0.0054464511,
				"z": -3.1920243347,
				"element": "C" 
			},
			{
				"x": 3.0271976191,
				"y": 0.4010576443,
				"z": -4.681715294,
				"element": "Cl" 
			},
			{
				"x": 2.2271676271,
				"y": -1.3399143001,
				"z": -2.7681582699,
				"element": "C" 
			},
			{
				"x": 1.5936436367,
				"y": -1.6991270535,
				"z": -1.5877292927,
				"element": "C" 
			},
			{
				"x": -1.4871401118,
				"y": -2.4487890831,
				"z": 1.3964131509,
				"element": "H" 
			},
			{
				"x": 1.9603343242,
				"y": 0.6177587024,
				"z": 1.3192431163,
				"element": "H" 
			},
			{
				"x": 1.7831548776,
				"y": 2.1825902243,
				"z": 3.2133736355,
				"element": "H" 
			},
			{
				"x": -0.3465251083,
				"y": 2.3067964086,
				"z": 4.5138371506,
				"element": "H" 
			},
			{
				"x": -2.2485140122,
				"y": 0.832092246,
				"z": 3.8863987045,
				"element": "H" 
			},
			{
				"x": 0.4561642234,
				"y": 1.3737525827,
				"z": -0.6454152313,
				"element": "H" 
			},
			{
				"x": 2.7253979958,
				"y": -2.0841140171,
				"z": -3.379204285,
				"element": "H" 
			},
			{
				"x": 1.5742082976,
				"y": -2.7332872065,
				"z": -1.2633753782,
				"element": "H" 
			}
		],
		 "valence_orbital": [ 
			{
				"type": "occ",
				"energy": -0.28802,
				"method": "rhf"
			},
			{
				"type": "occ",
				"energy": -0.2831,
				"method": "rhf"
			},
			{
				"type": "occ",
				"energy": -0.28248,
				"method": "rhf"
			},
			{
				"type": "occ",
				"energy": -0.27204,
				"method": "rhf"
			},
			{
				"type": "occ",
				"energy": -0.2615,
				"method": "rhf"
			},
			{
				"type": "unocc",
				"energy": -0.10312,
				"method": "rhf"
			},
			{
				"type": "unocc",
				"energy": -0.05494,
				"method": "rhf"
			},
			{
				"type": "unocc",
				"energy": -0.04949,
				"method": "rhf"
			},
			{
				"type": "unocc",
				"energy": -0.03587,
				"method": "rhf"
			},
			{
				"type": "unocc",
				"energy": -0.01437,
				"method": "rhf"
			}
		],
		"cosmo_sigma_profile": { 
			"-0.025": 0.0,
			"-0.024": 0.0,
			"-0.023": 0.0,
			"-0.022": 0.0,
			"-0.021": 0.0,
			"-0.02": 0.0,
			"-0.019": 0.0,
			"-0.018": 0.0,
			"-0.017": 0.0,
			"-0.016": 0.0,
			"-0.015": 0.0,
			"-0.014": 0.0,
			"-0.013": 0.0,
			"-0.012": 0.0,
			"-0.011": 0.0,
			"-0.01": 0.0,
			"-0.009": 0.855216995711,
			"-0.008": 6.03803274008,
			"-0.007": 15.5535817349,
			"-0.006": 18.0119491788,
			"-0.005": 16.2363949374,
			"-0.004": 15.9910910407,
			"-0.003": 17.2198695118,
			"-0.002": 20.7579596019,
			"-0.001": 29.0260374256,
			"0.0": 29.3198274576,
			"0.001": 26.0113444601,
			"0.002": 24.5965190807,
			"0.003": 21.6266357945,
			"0.004": 13.0341142021,
			"0.005": 4.98669108958,
			"0.006": 4.01465840586,
			"0.007": 4.03733510976,
			"0.008": 4.39112920283,
			"0.009": 3.96847218333,
			"0.01": 3.00575637933,
			"0.011": 5.5688397906,
			"0.012": 5.71237114206,
			"0.013": 2.31894884734,
			"0.014": 0.542599451487,
			"0.015": 0.0,
			"0.016": 0.0,
			"0.017": 0.0,
			"0.018": 0.0,
			"0.019": 0.0,
			"0.02": 0.0,
			"0.021": 0.0,
			"0.022": 0.0,
			"0.023": 0.0,
			"0.024": 0.0,
			"0.025": 0.0
		}
	}
}
