{
	 "smiles": "CC1=NC(NN)=C(C)C(Cl)=N1", 
	 "Tm": 415.15, 
	 "num_atms": 20, 
	 "gaussian": { 
		 "optdone": 1, 
		 "sigma_profile": "yes", 
		 "theory": "DFT", 
		 "functional": "B3LYP", 
		 "basiset": "6-31G**", 
		 "properties": { 
			 "R2extent": 3827.7866, 
			 "electric_dipole_moment_norm": 2.67942978449, 
			 "electric_quadrupole_moment_norm": 15.7045618602, 
			 "total_energy": -913.251575117, 
			 "HOMO_LUMO_gap": 0.20685, 
			 "cosmo_polarized_energy": -11.28, 
			 "cosmo_cavitation_energy": 25.34, 
			 "cosmo_dispersion_energy": -19.01, 
			 "cosmo_repulsion_energy": 1.56, 
			 "cosmo_total_nonelectrostatic_energy": 7.9, 
			 "SMD_solvation_energy": 2.28 
		},
		"coords": [
			{
				"x": -2.4792017043,
				"y": 3.4280674696,
				"z": 0.7808774984,
				"element": "C" 
			},
			{
				"x": -1.530450305,
				"y": 2.3916800185,
				"z": 1.3191515919,
				"element": "C" 
			},
			{
				"x": -1.2543643524,
				"y": 1.3477173282,
				"z": 0.5255926936,
				"element": "N" 
			},
			{
				"x": -0.4164176552,
				"y": 0.4222056025,
				"z": 1.0107024203,
				"element": "C" 
			},
			{
				"x": -0.1508581751,
				"y": -0.6573663178,
				"z": 0.2075869208,
				"element": "N" 
			},
			{
				"x": -0.5665368485,
				"y": -0.712392867,
				"z": -1.1387297023,
				"element": "N" 
			},
			{
				"x": 0.1794007708,
				"y": 0.5111053292,
				"z": 2.3020427863,
				"element": "C" 
			},
			{
				"x": 1.1071049564,
				"y": -0.560558758,
				"z": 2.802259721,
				"element": "C" 
			},
			{
				"x": -0.2009304228,
				"y": 1.6515358582,
				"z": 2.9943601478,
				"element": "C" 
			},
			{
				"x": 0.4369548895,
				"y": 1.9508104899,
				"z": 4.6163438546,
				"element": "Cl" 
			},
			{
				"x": -1.0336218981,
				"y": 2.5863819383,
				"z": 2.544360858,
				"element": "N" 
			},
			{
				"x": -2.1176849344,
				"y": 3.8122843658,
				"z": -0.1781716888,
				"element": "H" 
			},
			{
				"x": -3.4621432481,
				"y": 2.9812561845,
				"z": 0.5973381828,
				"element": "H" 
			},
			{
				"x": -2.5827826963,
				"y": 4.2496210972,
				"z": 1.489845147,
				"element": "H" 
			},
			{
				"x": 0.6717156195,
				"y": -1.2080654734,
				"z": 0.3980943305,
				"element": "H" 
			},
			{
				"x": -1.5559458901,
				"y": -0.9574561164,
				"z": -1.1410895753,
				"element": "H" 
			},
			{
				"x": -0.5277514312,
				"y": 0.2362650512,
				"z": -1.5135769078,
				"element": "H" 
			},
			{
				"x": 1.4039790577,
				"y": -0.37649173,
				"z": 3.8340550569,
				"element": "H" 
			},
			{
				"x": 2.0240636349,
				"y": -0.6121833101,
				"z": 2.199153876,
				"element": "H" 
			},
			{
				"x": 0.6276706325,
				"y": -1.5461161606,
				"z": 2.7564027881,
				"element": "H" 
			}
		],
		 "valence_orbital": [ 
			{
				"type": "occ",
				"energy": -0.30648,
				"method": "rhf"
			},
			{
				"type": "occ",
				"energy": -0.28368,
				"method": "rhf"
			},
			{
				"type": "occ",
				"energy": -0.27111,
				"method": "rhf"
			},
			{
				"type": "occ",
				"energy": -0.25635,
				"method": "rhf"
			},
			{
				"type": "occ",
				"energy": -0.23438,
				"method": "rhf"
			},
			{
				"type": "unocc",
				"energy": -0.02753,
				"method": "rhf"
			},
			{
				"type": "unocc",
				"energy": -0.01298,
				"method": "rhf"
			},
			{
				"type": "unocc",
				"energy": 0.03507,
				"method": "rhf"
			},
			{
				"type": "unocc",
				"energy": 0.07429,
				"method": "rhf"
			},
			{
				"type": "unocc",
				"energy": 0.08753,
				"method": "rhf"
			}
		],
		"cosmo_sigma_profile": { 
			"-0.025": 0.0,
			"-0.024": 0.0,
			"-0.023": 0.0,
			"-0.022": 0.0,
			"-0.021": 0.0,
			"-0.02": 0.0,
			"-0.019": 0.0,
			"-0.018": 0.0,
			"-0.017": 0.0,
			"-0.016": 0.0,
			"-0.015": 0.0,
			"-0.014": 0.323170040962,
			"-0.013": 1.16435282849,
			"-0.012": 0.987754064444,
			"-0.011": 2.42082583203,
			"-0.01": 3.1297601475,
			"-0.009": 3.37959330999,
			"-0.008": 4.61956009789,
			"-0.007": 2.88473484052,
			"-0.006": 4.93412095467,
			"-0.005": 9.7059012594,
			"-0.004": 10.6265609485,
			"-0.003": 14.0514307857,
			"-0.002": 15.6280997601,
			"-0.001": 26.0611994237,
			"0.0": 24.8835280544,
			"0.001": 11.9427391863,
			"0.002": 10.9949309023,
			"0.003": 9.08165108731,
			"0.004": 11.0761306732,
			"0.005": 8.80248199668,
			"0.006": 4.35104306564,
			"0.007": 4.57335080915,
			"0.008": 2.92902608265,
			"0.009": 2.8208692309,
			"0.01": 2.20911613659,
			"0.011": 3.12573561603,
			"0.012": 1.1825502962,
			"0.013": 1.61981360134,
			"0.014": 1.7299226003,
			"0.015": 0.759974380138,
			"0.016": 0.550207147899,
			"0.017": 0.219690991088,
			"0.018": 0.0,
			"0.019": 0.0,
			"0.02": 0.0,
			"0.021": 0.0,
			"0.022": 0.0,
			"0.023": 0.0,
			"0.024": 0.0,
			"0.025": 0.0
		}
	}
}
