{
	 "smiles": "O=CC1=CN=C(S1)C1=NC=CN=C1", 
	 "Tm": 433.15, 
	 "num_atms": 18, 
	 "gaussian": { 
		 "optdone": 1, 
		 "sigma_profile": "yes", 
		 "theory": "DFT", 
		 "functional": "B3LYP", 
		 "basiset": "6-31G**", 
		 "properties": { 
			 "R2extent": 4004.3691, 
			 "electric_dipole_moment_norm": 3.11979594525, 
			 "electric_quadrupole_moment_norm": 11.3570113547, 
			 "total_energy": -945.486517354, 
			 "HOMO_LUMO_gap": 0.15383, 
			 "cosmo_polarized_energy": -14.23, 
			 "cosmo_cavitation_energy": 25.71, 
			 "cosmo_dispersion_energy": -19.41, 
			 "cosmo_repulsion_energy": 1.46, 
			 "cosmo_total_nonelectrostatic_energy": 7.77, 
			 "SMD_solvation_energy": 1.13 
		},
		"coords": [
			{
				"x": 5.1965435151,
				"y": -1.2119886577,
				"z": 1.9252645362,
				"element": "O" 
			},
			{
				"x": 4.6900007761,
				"y": -0.5877278112,
				"z": 1.011100218,
				"element": "C" 
			},
			{
				"x": 3.3099912057,
				"y": -0.8088211648,
				"z": 0.5640522733,
				"element": "C" 
			},
			{
				"x": 2.401631451,
				"y": -1.7125454394,
				"z": 1.0770052465,
				"element": "C" 
			},
			{
				"x": 1.1745834083,
				"y": -1.7370279273,
				"z": 0.4961480346,
				"element": "N" 
			},
			{
				"x": 1.0899861121,
				"y": -0.858841125,
				"z": -0.4760073805,
				"element": "C" 
			},
			{
				"x": 2.5641570046,
				"y": 0.0673706216,
				"z": -0.7440522343,
				"element": "S" 
			},
			{
				"x": -0.1182595314,
				"y": -0.6472101528,
				"z": -1.2937872409,
				"element": "C" 
			},
			{
				"x": -1.0859945977,
				"y": -1.575902206,
				"z": -1.2067744345,
				"element": "N" 
			},
			{
				"x": -2.1728798027,
				"y": -1.373544783,
				"z": -1.9496204935,
				"element": "C" 
			},
			{
				"x": -2.3082073981,
				"y": -0.2613015634,
				"z": -2.7869064251,
				"element": "C" 
			},
			{
				"x": -1.3536293891,
				"y": 0.6709803734,
				"z": -2.8750715505,
				"element": "N" 
			},
			{
				"x": -0.2679484318,
				"y": 0.4769141886,
				"z": -2.1250413646,
				"element": "C" 
			},
			{
				"x": 5.2566345633,
				"y": 0.1925167424,
				"z": 0.4615402544,
				"element": "H" 
			},
			{
				"x": 2.6281152329,
				"y": -2.378353535,
				"z": 1.9012616588,
				"element": "H" 
			},
			{
				"x": -2.960955767,
				"y": -2.1207999437,
				"z": -1.8823197384,
				"element": "H" 
			},
			{
				"x": -3.1994948202,
				"y": -0.1198412858,
				"z": -3.3939193258,
				"element": "H" 
			},
			{
				"x": 0.5019264688,
				"y": 1.2446236692,
				"z": -2.1793720338,
				"element": "H" 
			}
		],
		 "valence_orbital": [ 
			{
				"type": "occ",
				"energy": -0.30719,
				"method": "rhf"
			},
			{
				"type": "occ",
				"energy": -0.29684,
				"method": "rhf"
			},
			{
				"type": "occ",
				"energy": -0.26979,
				"method": "rhf"
			},
			{
				"type": "occ",
				"energy": -0.26426,
				"method": "rhf"
			},
			{
				"type": "occ",
				"energy": -0.25561,
				"method": "rhf"
			},
			{
				"type": "unocc",
				"energy": -0.10178,
				"method": "rhf"
			},
			{
				"type": "unocc",
				"energy": -0.06432,
				"method": "rhf"
			},
			{
				"type": "unocc",
				"energy": -0.04308,
				"method": "rhf"
			},
			{
				"type": "unocc",
				"energy": -0.00776,
				"method": "rhf"
			},
			{
				"type": "unocc",
				"energy": 0.01196,
				"method": "rhf"
			}
		],
		"cosmo_sigma_profile": { 
			"-0.025": 0.0,
			"-0.024": 0.0,
			"-0.023": 0.0,
			"-0.022": 0.0,
			"-0.021": 0.0,
			"-0.02": 0.0,
			"-0.019": 0.0,
			"-0.018": 0.0,
			"-0.017": 0.0,
			"-0.016": 0.0,
			"-0.015": 0.0,
			"-0.014": 0.0,
			"-0.013": 0.0,
			"-0.012": 0.0,
			"-0.011": 0.0,
			"-0.01": 0.318055812823,
			"-0.009": 4.81872209436,
			"-0.008": 12.1472006964,
			"-0.007": 11.5855927471,
			"-0.006": 10.9546695202,
			"-0.005": 9.73210543061,
			"-0.004": 11.7531217022,
			"-0.003": 17.2457521359,
			"-0.002": 20.3713742223,
			"-0.001": 21.7681853881,
			"0.0": 16.0398152046,
			"0.001": 11.1922550824,
			"0.002": 7.78911309242,
			"0.003": 4.51091614506,
			"0.004": 4.91375630651,
			"0.005": 5.43114532382,
			"0.006": 3.94324245926,
			"0.007": 3.82344373839,
			"0.008": 4.74812669988,
			"0.009": 4.76834820623,
			"0.01": 5.93451508744,
			"0.011": 5.54712332317,
			"0.012": 3.76913732842,
			"0.013": 2.70158579147,
			"0.014": 2.05528426359,
			"0.015": 1.0672956763,
			"0.016": 1.14151792597,
			"0.017": 0.913901157505,
			"0.018": 0.0362108526292,
			"0.019": 0.0,
			"0.02": 0.0,
			"0.021": 0.0,
			"0.022": 0.0,
			"0.023": 0.0,
			"0.024": 0.0,
			"0.025": 0.0
		}
	}
}
