{
	 "smiles": "CSC1=NC2=C(S1)C=C(C=C2)[N+]([O-])=O", 
	 "Tm": 408.15, 
	 "num_atms": 20, 
	 "gaussian": { 
		 "optdone": 1, 
		 "sigma_profile": "yes", 
		 "theory": "DFT", 
		 "functional": "B3LYP", 
		 "basiset": "6-31G**", 
		 "properties": { 
			 "R2extent": 4670.2932, 
			 "electric_dipole_moment_norm": 5.51632010855, 
			 "electric_quadrupole_moment_norm": 10.7027584066, 
			 "total_energy": -1364.699627, 
			 "HOMO_LUMO_gap": 0.14973, 
			 "cosmo_polarized_energy": -9.52, 
			 "cosmo_cavitation_energy": 28.7, 
			 "cosmo_dispersion_energy": -22.19, 
			 "cosmo_repulsion_energy": 1.64, 
			 "cosmo_total_nonelectrostatic_energy": 8.15, 
			 "SMD_solvation_energy": 5.43 
		},
		"coords": [
			{
				"x": 1.9761132217,
				"y": -3.7602184435,
				"z": -0.7165268747,
				"element": "C" 
			},
			{
				"x": 2.7260293558,
				"y": -2.2086372186,
				"z": -1.3238433116,
				"element": "S" 
			},
			{
				"x": 1.6870763311,
				"y": -1.0403661302,
				"z": -0.5285005826,
				"element": "C" 
			},
			{
				"x": 0.6932043955,
				"y": -1.3339005124,
				"z": 0.2520143455,
				"element": "N" 
			},
			{
				"x": 0.0767842102,
				"y": -0.1879938458,
				"z": 0.7175324047,
				"element": "C" 
			},
			{
				"x": 0.6368167973,
				"y": 1.0351008338,
				"z": 0.2628319248,
				"element": "C" 
			},
			{
				"x": 1.9973413565,
				"y": 0.6953974585,
				"z": -0.7954004823,
				"element": "S" 
			},
			{
				"x": 0.1199246994,
				"y": 2.2654288611,
				"z": 0.6495509995,
				"element": "C" 
			},
			{
				"x": -0.9778910383,
				"y": 2.2433647212,
				"z": 1.5077071755,
				"element": "C" 
			},
			{
				"x": -1.557218371,
				"y": 1.0555022734,
				"z": 1.9769564969,
				"element": "C" 
			},
			{
				"x": -1.0296518041,
				"y": -0.1644075796,
				"z": 1.5817258526,
				"element": "C" 
			},
			{
				"x": -1.5495370154,
				"y": 3.526324771,
				"z": 1.9365584041,
				"element": "N" 
			},
			{
				"x": -1.0251369136,
				"y": 4.5572016771,
				"z": 1.5126223925,
				"element": "O" 
			},
			{
				"x": -2.5190676223,
				"y": 3.4957582176,
				"z": 2.6946176768,
				"element": "O" 
			},
			{
				"x": 2.0347357822,
				"y": -3.8074666335,
				"z": 0.370746163,
				"element": "H" 
			},
			{
				"x": 2.56353846,
				"y": -4.5640943328,
				"z": -1.163875509,
				"element": "H" 
			},
			{
				"x": 0.936303814,
				"y": -3.8272491556,
				"z": -1.0361220992,
				"element": "H" 
			},
			{
				"x": 0.5253077655,
				"y": 3.2133079022,
				"z": 0.3195580296,
				"element": "H" 
			},
			{
				"x": -2.4090657623,
				"y": 1.1191270673,
				"z": 2.6416785886,
				"element": "H" 
			},
			{
				"x": -1.4544076622,
				"y": -1.1005799312,
				"z": 1.9266684052,
				"element": "H" 
			}
		],
		 "valence_orbital": [ 
			{
				"type": "occ",
				"energy": -0.30197,
				"method": "rhf"
			},
			{
				"type": "occ",
				"energy": -0.30028,
				"method": "rhf"
			},
			{
				"type": "occ",
				"energy": -0.28959,
				"method": "rhf"
			},
			{
				"type": "occ",
				"energy": -0.26084,
				"method": "rhf"
			},
			{
				"type": "occ",
				"energy": -0.24212,
				"method": "rhf"
			},
			{
				"type": "unocc",
				"energy": -0.09239,
				"method": "rhf"
			},
			{
				"type": "unocc",
				"energy": -0.03712,
				"method": "rhf"
			},
			{
				"type": "unocc",
				"energy": -0.02971,
				"method": "rhf"
			},
			{
				"type": "unocc",
				"energy": -0.02146,
				"method": "rhf"
			},
			{
				"type": "unocc",
				"energy": 0.01287,
				"method": "rhf"
			}
		],
		"cosmo_sigma_profile": { 
			"-0.025": 0.0,
			"-0.024": 0.0,
			"-0.023": 0.0,
			"-0.022": 0.0,
			"-0.021": 0.0,
			"-0.02": 0.0,
			"-0.019": 0.0,
			"-0.018": 0.0,
			"-0.017": 0.0,
			"-0.016": 0.0,
			"-0.015": 0.0,
			"-0.014": 0.0,
			"-0.013": 0.0,
			"-0.012": 0.0,
			"-0.011": 0.0,
			"-0.01": 0.117266645062,
			"-0.009": 1.7399576854,
			"-0.008": 5.18575043718,
			"-0.007": 8.06070726576,
			"-0.006": 11.0515940211,
			"-0.005": 12.3147155463,
			"-0.004": 14.3427725643,
			"-0.003": 16.551034625,
			"-0.002": 19.6328248872,
			"-0.001": 23.7372120635,
			"0.0": 27.8706952212,
			"0.001": 21.6069601954,
			"0.002": 15.1414706333,
			"0.003": 9.49785591286,
			"0.004": 7.97255210532,
			"0.005": 8.00105367705,
			"0.006": 5.05637682104,
			"0.007": 8.86912387646,
			"0.008": 8.95018038848,
			"0.009": 5.20564392492,
			"0.01": 3.98192038812,
			"0.011": 0.608233288797,
			"0.012": 0.0,
			"0.013": 0.0,
			"0.014": 0.0,
			"0.015": 0.0,
			"0.016": 0.0,
			"0.017": 0.0,
			"0.018": 0.0,
			"0.019": 0.0,
			"0.02": 0.0,
			"0.021": 0.0,
			"0.022": 0.0,
			"0.023": 0.0,
			"0.024": 0.0,
			"0.025": 0.0
		}
	}
}
