{
	 "smiles": "BrC1=CC2=C(OC3=C(O2)C=C(Br)C(Br)=C3)C=C1Br", 
	 "Tm": 607.15, 
	 "num_atms": 22, 
	 "gaussian": { 
		 "optdone": 1, 
		 "sigma_profile": "yes", 
		 "theory": "DFT", 
		 "functional": "B3LYP", 
		 "basiset": "6-31G**", 
		 "properties": { 
			 "R2extent": 20126.5625, 
			 "electric_dipole_moment_norm": 0.0, 
			 "electric_quadrupole_moment_norm": 13.2971156703, 
			 "total_energy": -10895.7194873, 
			 "HOMO_LUMO_gap": 0.17232, 
			 "cosmo_polarized_energy": -6.24, 
			 "cosmo_cavitation_energy": 36.46, 
			 "cosmo_dispersion_energy": -28.83, 
			 "cosmo_repulsion_energy": 2.19, 
			 "cosmo_total_nonelectrostatic_energy": 9.81, 
			 "SMD_solvation_energy": 2.25 
		},
		"coords": [
			{
				"x": -3.6037405026,
				"y": 1.4686261611,
				"z": 4.5539925565,
				"element": "Br" 
			},
			{
				"x": -2.5389882899,
				"y": 1.0385107345,
				"z": 3.041855823,
				"element": "C" 
			},
			{
				"x": -3.1947425756,
				"y": 0.746558583,
				"z": 1.8425970517,
				"element": "C" 
			},
			{
				"x": -2.4653651484,
				"y": 0.4260438482,
				"z": 0.7068067694,
				"element": "C" 
			},
			{
				"x": -1.067856326,
				"y": 0.394249724,
				"z": 0.7593224558,
				"element": "C" 
			},
			{
				"x": -0.3037964885,
				"y": 0.0812353392,
				"z": -0.3438944907,
				"element": "O" 
			},
			{
				"x": -0.9963322088,
				"y": -0.1986487512,
				"z": -1.5018853431,
				"element": "C" 
			},
			{
				"x": -2.3938417604,
				"y": -0.1668541948,
				"z": -1.5543999394,
				"element": "C" 
			},
			{
				"x": -3.1579008212,
				"y": 0.1461839691,
				"z": -0.4511865529,
				"element": "O" 
			},
			{
				"x": -3.0497238934,
				"y": -0.4557777601,
				"z": -2.7422792568,
				"element": "C" 
			},
			{
				"x": -2.3197836591,
				"y": -0.7792686387,
				"z": -3.8894527578,
				"element": "C" 
			},
			{
				"x": -3.2866197189,
				"y": -1.162436508,
				"z": -5.4780335597,
				"element": "Br" 
			},
			{
				"x": -0.922712544,
				"y": -0.8111634974,
				"z": -3.8369275503,
				"element": "C" 
			},
			{
				"x": 0.1420409243,
				"y": -1.2412854631,
				"z": -5.3490535785,
				"element": "Br" 
			},
			{
				"x": -0.2669566813,
				"y": -0.5191839284,
				"z": -2.6376711772,
				"element": "C" 
			},
			{
				"x": -0.4119784695,
				"y": 0.6831512411,
				"z": 1.9472085489,
				"element": "C" 
			},
			{
				"x": -1.1419161997,
				"y": 1.0066269048,
				"z": 3.0943861571,
				"element": "C" 
			},
			{
				"x": -0.1750851289,
				"y": 1.3897802397,
				"z": 4.6829709141,
				"element": "Br" 
			},
			{
				"x": -4.2759086903,
				"y": 0.7667436779,
				"z": 1.7847573431,
				"element": "H" 
			},
			{
				"x": -4.131971088,
				"y": -0.4266055481,
				"z": -2.7658139387,
				"element": "H" 
			},
			{
				"x": 0.8142101656,
				"y": -0.5393703964,
				"z": -2.5798456,
				"element": "H" 
			},
			{
				"x": 0.6702691047,
				"y": 0.6539842636,
				"z": 1.9707461254,
				"element": "H" 
			}
		],
		 "valence_orbital": [ 
			{
				"type": "occ",
				"energy": -0.2859,
				"method": "rhf"
			},
			{
				"type": "occ",
				"energy": -0.27747,
				"method": "rhf"
			},
			{
				"type": "occ",
				"energy": -0.25967,
				"method": "rhf"
			},
			{
				"type": "occ",
				"energy": -0.25599,
				"method": "rhf"
			},
			{
				"type": "occ",
				"energy": -0.21977,
				"method": "rhf"
			},
			{
				"type": "unocc",
				"energy": -0.04745,
				"method": "rhf"
			},
			{
				"type": "unocc",
				"energy": -0.03657,
				"method": "rhf"
			},
			{
				"type": "unocc",
				"energy": -0.03652,
				"method": "rhf"
			},
			{
				"type": "unocc",
				"energy": -0.03334,
				"method": "rhf"
			},
			{
				"type": "unocc",
				"energy": -0.02899,
				"method": "rhf"
			}
		],
		"cosmo_sigma_profile": { 
			"-0.025": 0.0,
			"-0.024": 0.0,
			"-0.023": 0.0,
			"-0.022": 0.0,
			"-0.021": 0.0,
			"-0.02": 0.0,
			"-0.019": 0.0,
			"-0.018": 0.0,
			"-0.017": 0.0,
			"-0.016": 0.0,
			"-0.015": 0.0,
			"-0.014": 0.0,
			"-0.013": 0.0,
			"-0.012": 0.0,
			"-0.011": 0.0,
			"-0.01": 0.158275121629,
			"-0.009": 4.14060972774,
			"-0.008": 4.02372291402,
			"-0.007": 5.33532679521,
			"-0.006": 8.62839873194,
			"-0.005": 12.4811325147,
			"-0.004": 14.8337777133,
			"-0.003": 14.3080153778,
			"-0.002": 20.1305802479,
			"-0.001": 28.6850063668,
			"0.0": 52.5026027416,
			"0.001": 37.2456115265,
			"0.002": 25.8468196939,
			"0.003": 32.5830875338,
			"0.004": 34.855954025,
			"0.005": 10.3231211101,
			"0.006": 2.24881514813,
			"0.007": 0.0,
			"0.008": 0.0,
			"0.009": 0.0,
			"0.01": 0.0,
			"0.011": 0.0,
			"0.012": 0.0,
			"0.013": 0.0,
			"0.014": 0.0,
			"0.015": 0.0,
			"0.016": 0.0,
			"0.017": 0.0,
			"0.018": 0.0,
			"0.019": 0.0,
			"0.02": 0.0,
			"0.021": 0.0,
			"0.022": 0.0,
			"0.023": 0.0,
			"0.024": 0.0,
			"0.025": 0.0
		}
	}
}
