{
	 "smiles": "CCCCNC(=O)NC1=C2CCCNC2=CC=C1", 
	 "Tm": 447.15, 
	 "num_atms": 39, 
	 "gaussian": { 
		 "optdone": 1, 
		 "sigma_profile": "yes", 
		 "theory": "DFT", 
		 "functional": "B3LYP", 
		 "basiset": "6-31G**", 
		 "properties": { 
			 "R2extent": 5697.4402, 
			 "electric_dipole_moment_norm": 4.25188985041, 
			 "electric_quadrupole_moment_norm": 13.4522029203, 
			 "total_energy": -785.665271403, 
			 "HOMO_LUMO_gap": 0.19026, 
			 "cosmo_polarized_energy": -14.37, 
			 "cosmo_cavitation_energy": 39.45, 
			 "cosmo_dispersion_energy": -27.16, 
			 "cosmo_repulsion_energy": 2.16, 
			 "cosmo_total_nonelectrostatic_energy": 14.45, 
			 "SMD_solvation_energy": 5.47 
		},
		"coords": [
			{
				"x": -0.3670135997,
				"y": 4.6038392169,
				"z": -1.6724165825,
				"element": "C" 
			},
			{
				"x": 0.4289190751,
				"y": 3.3065633196,
				"z": -1.8649109639,
				"element": "C" 
			},
			{
				"x": 1.1976673822,
				"y": 2.8371496501,
				"z": -0.6187885495,
				"element": "C" 
			},
			{
				"x": 0.2888710126,
				"y": 2.3952083359,
				"z": 0.5390323427,
				"element": "C" 
			},
			{
				"x": 1.0137266483,
				"y": 1.9133023424,
				"z": 1.7210660695,
				"element": "N" 
			},
			{
				"x": 1.8338687107,
				"y": 0.7924801358,
				"z": 1.7562115415,
				"element": "C" 
			},
			{
				"x": 2.8682029071,
				"y": 0.7743841724,
				"z": 2.4170110235,
				"element": "O" 
			},
			{
				"x": 1.4429144019,
				"y": -0.3170867923,
				"z": 1.0177339225,
				"element": "N" 
			},
			{
				"x": 0.1327683853,
				"y": -0.7536475819,
				"z": 0.6385860687,
				"element": "C" 
			},
			{
				"x": -0.8922511639,
				"y": -0.8966964015,
				"z": 1.5926973974,
				"element": "C" 
			},
			{
				"x": -0.6699469226,
				"y": -0.5926193533,
				"z": 3.0628240947,
				"element": "C" 
			},
			{
				"x": -1.7241303339,
				"y": -1.2553725349,
				"z": 3.9592951713,
				"element": "C" 
			},
			{
				"x": -3.123603151,
				"y": -1.0031333267,
				"z": 3.398878268,
				"element": "C" 
			},
			{
				"x": -3.1946483167,
				"y": -1.5571529444,
				"z": 2.0558270354,
				"element": "N" 
			},
			{
				"x": -2.1574406567,
				"y": -1.3566696511,
				"z": 1.1505247843,
				"element": "C" 
			},
			{
				"x": -2.3541589428,
				"y": -1.6797377701,
				"z": -0.2046470759,
				"element": "C" 
			},
			{
				"x": -1.3160493124,
				"y": -1.5539806655,
				"z": -1.1193421087,
				"element": "C" 
			},
			{
				"x": -0.0694662887,
				"y": -1.086850406,
				"z": -0.7066903406,
				"element": "C" 
			},
			{
				"x": 0.2852569249,
				"y": 5.4212808026,
				"z": -1.3433821685,
				"element": "H" 
			},
			{
				"x": -1.161351141,
				"y": 4.4939464873,
				"z": -0.9266041825,
				"element": "H" 
			},
			{
				"x": -0.8419024364,
				"y": 4.9158532559,
				"z": -2.6083437751,
				"element": "H" 
			},
			{
				"x": 1.1466594729,
				"y": 3.4484271149,
				"z": -2.6823268493,
				"element": "H" 
			},
			{
				"x": -0.2473045204,
				"y": 2.5051351441,
				"z": -2.1924563926,
				"element": "H" 
			},
			{
				"x": 1.8408791896,
				"y": 1.9910089219,
				"z": -0.8888634779,
				"element": "H" 
			},
			{
				"x": 1.8656135126,
				"y": 3.6378202933,
				"z": -0.2712261759,
				"element": "H" 
			},
			{
				"x": -0.3344513614,
				"y": 3.2285526073,
				"z": 0.8793232385,
				"element": "H" 
			},
			{
				"x": -0.3954108756,
				"y": 1.6165960745,
				"z": 0.1955623212,
				"element": "H" 
			},
			{
				"x": 1.4682760725,
				"y": 2.6456638773,
				"z": 2.2533564879,
				"element": "H" 
			},
			{
				"x": 2.1606702547,
				"y": -1.0296669672,
				"z": 1.0525698093,
				"element": "H" 
			},
			{
				"x": -0.6860538372,
				"y": 0.4936545478,
				"z": 3.2189723326,
				"element": "H" 
			},
			{
				"x": 0.3345029871,
				"y": -0.9153167485,
				"z": 3.3575963964,
				"element": "H" 
			},
			{
				"x": -1.5566330626,
				"y": -2.3375516063,
				"z": 4.0084724349,
				"element": "H" 
			},
			{
				"x": -1.6524430547,
				"y": -0.8639178843,
				"z": 4.9792543036,
				"element": "H" 
			},
			{
				"x": -3.336265624,
				"y": 0.0803665623,
				"z": 3.4150590206,
				"element": "H" 
			},
			{
				"x": -3.8851333522,
				"y": -1.4941777274,
				"z": 4.0141547037,
				"element": "H" 
			},
			{
				"x": -4.1153933045,
				"y": -1.6096633521,
				"z": 1.6450032292,
				"element": "H" 
			},
			{
				"x": -3.3272748224,
				"y": -2.0439495391,
				"z": -0.525769033,
				"element": "H" 
			},
			{
				"x": -1.4826925574,
				"y": -1.8119717864,
				"z": -2.1612907477,
				"element": "H" 
			},
			{
				"x": 0.7477217008,
				"y": -0.9631698236,
				"z": -1.4095535741,
				"element": "H" 
			}
		],
		 "valence_orbital": [ 
			{
				"type": "occ",
				"energy": -0.26286,
				"method": "rhf"
			},
			{
				"type": "occ",
				"energy": -0.25008,
				"method": "rhf"
			},
			{
				"type": "occ",
				"energy": -0.23238,
				"method": "rhf"
			},
			{
				"type": "occ",
				"energy": -0.2262,
				"method": "rhf"
			},
			{
				"type": "occ",
				"energy": -0.19222,
				"method": "rhf"
			},
			{
				"type": "unocc",
				"energy": -0.00196,
				"method": "rhf"
			},
			{
				"type": "unocc",
				"energy": 0.01415,
				"method": "rhf"
			},
			{
				"type": "unocc",
				"energy": 0.06054,
				"method": "rhf"
			},
			{
				"type": "unocc",
				"energy": 0.0798,
				"method": "rhf"
			},
			{
				"type": "unocc",
				"energy": 0.08589,
				"method": "rhf"
			}
		],
		"cosmo_sigma_profile": { 
			"-0.025": 0.0,
			"-0.024": 0.0,
			"-0.023": 0.0,
			"-0.022": 0.0,
			"-0.021": 0.0,
			"-0.02": 0.0,
			"-0.019": 0.0,
			"-0.018": 0.0,
			"-0.017": 0.0,
			"-0.016": 0.0,
			"-0.015": 0.0,
			"-0.014": 0.0379026304138,
			"-0.013": 0.983581404091,
			"-0.012": 2.79437472685,
			"-0.011": 3.19087004142,
			"-0.01": 3.64622419151,
			"-0.009": 2.94400250055,
			"-0.008": 2.2334945081,
			"-0.007": 3.44645982055,
			"-0.006": 4.71468414764,
			"-0.005": 9.8672830396,
			"-0.004": 14.8842207456,
			"-0.003": 26.6364990208,
			"-0.002": 40.2552560903,
			"-0.001": 41.4579366849,
			"0.0": 37.9567253651,
			"0.001": 30.267321666,
			"0.002": 17.2995293462,
			"0.003": 11.8224851851,
			"0.004": 10.2859652874,
			"0.005": 8.98035493856,
			"0.006": 8.31186219201,
			"0.007": 5.493976723,
			"0.008": 1.50525142541,
			"0.009": 1.78795374594,
			"0.01": 1.2529652765,
			"0.011": 1.52051567865,
			"0.012": 1.8075678203,
			"0.013": 1.70206949727,
			"0.014": 4.81155776753,
			"0.015": 5.09169169563,
			"0.016": 0.312832443144,
			"0.017": 0.0,
			"0.018": 0.0,
			"0.019": 0.0,
			"0.02": 0.0,
			"0.021": 0.0,
			"0.022": 0.0,
			"0.023": 0.0,
			"0.024": 0.0,
			"0.025": 0.0
		}
	}
}
