{
	 "smiles": "OC(=O)C1CCN(CC1)S(=O)(=O)C=CC1=CC=CC=C1", 
	 "Tm": 469.15, 
	 "num_atms": 37, 
	 "gaussian": { 
		 "optdone": 1, 
		 "sigma_profile": "yes", 
		 "theory": "DFT", 
		 "functional": "B3LYP", 
		 "basiset": "6-31G**", 
		 "properties": { 
			 "R2extent": 8632.9287, 
			 "electric_dipole_moment_norm": 2.59976251415, 
			 "electric_quadrupole_moment_norm": 26.1227773516, 
			 "total_energy": -1297.489467, 
			 "HOMO_LUMO_gap": 0.18187, 
			 "cosmo_polarized_energy": -20.79, 
			 "cosmo_cavitation_energy": 40.75, 
			 "cosmo_dispersion_energy": -29.2, 
			 "cosmo_repulsion_energy": 2.19, 
			 "cosmo_total_nonelectrostatic_energy": 13.74, 
			 "SMD_solvation_energy": 6.31 
		},
		"coords": [
			{
				"x": 4.9722104129,
				"y": 2.8261323008,
				"z": 0.653034904,
				"element": "O" 
			},
			{
				"x": 4.0371753846,
				"y": 2.6956253698,
				"z": -0.3196800355,
				"element": "C" 
			},
			{
				"x": 3.5454940063,
				"y": 3.6526020118,
				"z": -0.8774632999,
				"element": "O" 
			},
			{
				"x": 3.7156741339,
				"y": 1.2337654076,
				"z": -0.5841566373,
				"element": "C" 
			},
			{
				"x": 2.692338705,
				"y": 1.0690624857,
				"z": -1.7304142545,
				"element": "C" 
			},
			{
				"x": 1.2670785802,
				"y": 0.9019759621,
				"z": -1.2028988032,
				"element": "C" 
			},
			{
				"x": 1.1809502385,
				"y": -0.3418687644,
				"z": -0.3989040569,
				"element": "N" 
			},
			{
				"x": 2.3910975689,
				"y": -0.6972363237,
				"z": 0.3808711477,
				"element": "C" 
			},
			{
				"x": 3.2237747351,
				"y": 0.5403306137,
				"z": 0.7192838515,
				"element": "C" 
			},
			{
				"x": -0.3212923638,
				"y": -0.5820874203,
				"z": 0.3504852727,
				"element": "S" 
			},
			{
				"x": -0.9455171143,
				"y": 0.7064795391,
				"z": 0.6813847895,
				"element": "O" 
			},
			{
				"x": -0.1177519467,
				"y": -1.5767588401,
				"z": 1.4171437488,
				"element": "O" 
			},
			{
				"x": -1.2074907617,
				"y": -1.3344333403,
				"z": -1.0057670151,
				"element": "C" 
			},
			{
				"x": -2.5361884735,
				"y": -1.4925081549,
				"z": -1.1286581199,
				"element": "C" 
			},
			{
				"x": -3.6533053558,
				"y": -1.1756309554,
				"z": -0.2311055513,
				"element": "C" 
			},
			{
				"x": -4.9147557124,
				"y": -0.9464647827,
				"z": -0.8124221609,
				"element": "C" 
			},
			{
				"x": -6.0212459781,
				"y": -0.6405291458,
				"z": -0.0250139456,
				"element": "C" 
			},
			{
				"x": -5.8911522513,
				"y": -0.5845873159,
				"z": 1.3643275599,
				"element": "C" 
			},
			{
				"x": -4.652090852,
				"y": -0.841614623,
				"z": 1.9559113265,
				"element": "C" 
			},
			{
				"x": -3.5401018441,
				"y": -1.1359208512,
				"z": 1.1707563188,
				"element": "C" 
			},
			{
				"x": 5.1093159482,
				"y": 3.7812033527,
				"z": 0.7714105329,
				"element": "H" 
			},
			{
				"x": 4.6637510367,
				"y": 0.7649027955,
				"z": -0.8766917697,
				"element": "H" 
			},
			{
				"x": 2.9555678823,
				"y": 0.1956793309,
				"z": -2.3361942962,
				"element": "H" 
			},
			{
				"x": 2.7248312205,
				"y": 1.9466955887,
				"z": -2.3803368147,
				"element": "H" 
			},
			{
				"x": 0.5612228248,
				"y": 0.826484575,
				"z": -2.0368510563,
				"element": "H" 
			},
			{
				"x": 0.9763441015,
				"y": 1.779206532,
				"z": -0.6124989188,
				"element": "H" 
			},
			{
				"x": 2.9896040005,
				"y": -1.4034758854,
				"z": -0.2099043619,
				"element": "H" 
			},
			{
				"x": 2.0765900067,
				"y": -1.2191149456,
				"z": 1.2851312036,
				"element": "H" 
			},
			{
				"x": 4.0764974458,
				"y": 0.2626424644,
				"z": 1.3447187353,
				"element": "H" 
			},
			{
				"x": 2.6097023237,
				"y": 1.2292020426,
				"z": 1.3103857851,
				"element": "H" 
			},
			{
				"x": -0.5305526343,
				"y": -1.6854366232,
				"z": -1.7763640006,
				"element": "H" 
			},
			{
				"x": -2.8442123119,
				"y": -1.9338077362,
				"z": -2.0774925725,
				"element": "H" 
			},
			{
				"x": -5.0185946219,
				"y": -0.9966410162,
				"z": -1.8934600888,
				"element": "H" 
			},
			{
				"x": -6.9835783865,
				"y": -0.4541306746,
				"z": -0.4926354877,
				"element": "H" 
			},
			{
				"x": -6.7534600866,
				"y": -0.354480233,
				"z": 1.9834639128,
				"element": "H" 
			},
			{
				"x": -4.5505926924,
				"y": -0.8192130676,
				"z": 3.0368269782,
				"element": "H" 
			},
			{
				"x": -2.595237169,
				"y": -1.3671496731,
				"z": 1.6481771799,
				"element": "H" 
			}
		],
		 "valence_orbital": [ 
			{
				"type": "occ",
				"energy": -0.28707,
				"method": "rhf"
			},
			{
				"type": "occ",
				"energy": -0.27992,
				"method": "rhf"
			},
			{
				"type": "occ",
				"energy": -0.25336,
				"method": "rhf"
			},
			{
				"type": "occ",
				"energy": -0.24478,
				"method": "rhf"
			},
			{
				"type": "occ",
				"energy": -0.2368,
				"method": "rhf"
			},
			{
				"type": "unocc",
				"energy": -0.05493,
				"method": "rhf"
			},
			{
				"type": "unocc",
				"energy": -0.00347,
				"method": "rhf"
			},
			{
				"type": "unocc",
				"energy": 0.00252,
				"method": "rhf"
			},
			{
				"type": "unocc",
				"energy": 0.02908,
				"method": "rhf"
			},
			{
				"type": "unocc",
				"energy": 0.05585,
				"method": "rhf"
			}
		],
		"cosmo_sigma_profile": { 
			"-0.025": 0.0,
			"-0.024": 0.0,
			"-0.023": 0.0,
			"-0.022": 0.0,
			"-0.021": 0.0,
			"-0.02": 0.0,
			"-0.019": 0.0,
			"-0.018": 0.601234760223,
			"-0.017": 1.10675935792,
			"-0.016": 0.641496436852,
			"-0.015": 0.653109622229,
			"-0.014": 1.09911405208,
			"-0.013": 0.529664688511,
			"-0.012": 0.566959207331,
			"-0.011": 1.14572375369,
			"-0.01": 0.835007453666,
			"-0.009": 0.711303982693,
			"-0.008": 4.61811048599,
			"-0.007": 8.09289919439,
			"-0.006": 17.1257909182,
			"-0.005": 26.419699288,
			"-0.004": 36.0619131725,
			"-0.003": 29.2017301048,
			"-0.002": 24.3938578318,
			"-0.001": 18.3134403313,
			"0.0": 16.5262117167,
			"0.001": 17.2287516456,
			"0.002": 16.7878665634,
			"0.003": 15.3087347507,
			"0.004": 17.1187248694,
			"0.005": 12.3432034009,
			"0.006": 6.93006844006,
			"0.007": 6.35691465542,
			"0.008": 5.59269265157,
			"0.009": 7.21771532786,
			"0.01": 9.13115269908,
			"0.011": 12.1251984047,
			"0.012": 7.02210425139,
			"0.013": 0.172633691,
			"0.014": 0.0,
			"0.015": 0.0,
			"0.016": 0.0,
			"0.017": 0.0,
			"0.018": 0.0,
			"0.019": 0.0,
			"0.02": 0.0,
			"0.021": 0.0,
			"0.022": 0.0,
			"0.023": 0.0,
			"0.024": 0.0,
			"0.025": 0.0
		}
	}
}
