{
	 "smiles": "ClCCCCN1C2=CC=CC3=CC=CC(=C23)S1(=O)=O", 
	 "Tm": 312.15, 
	 "num_atms": 33, 
	 "gaussian": { 
		 "optdone": 1, 
		 "sigma_profile": "yes", 
		 "theory": "DFT", 
		 "functional": "B3LYP", 
		 "basiset": "6-31G**", 
		 "properties": { 
			 "R2extent": 10850.4302, 
			 "electric_dipole_moment_norm": 5.24127604501, 
			 "electric_quadrupole_moment_norm": 15.9251307891, 
			 "total_energy": -1605.4493506, 
			 "HOMO_LUMO_gap": 0.14779, 
			 "cosmo_polarized_energy": -16.88, 
			 "cosmo_cavitation_energy": 38.93, 
			 "cosmo_dispersion_energy": -28.11, 
			 "cosmo_repulsion_energy": 2.11, 
			 "cosmo_total_nonelectrostatic_energy": 12.92, 
			 "SMD_solvation_energy": 4.15 
		},
		"coords": [
			{
				"x": -3.7258915824,
				"y": -3.5535505697,
				"z": 5.7006440342,
				"element": "Cl" 
			},
			{
				"x": -3.042761499,
				"y": -2.7016422374,
				"z": 4.2470810667,
				"element": "C" 
			},
			{
				"x": -3.2863415991,
				"y": -1.1972725828,
				"z": 4.3141798328,
				"element": "C" 
			},
			{
				"x": -2.6672814821,
				"y": -0.4309615361,
				"z": 3.131134143,
				"element": "C" 
			},
			{
				"x": -3.3718098014,
				"y": -0.6941725994,
				"z": 1.7893297815,
				"element": "C" 
			},
			{
				"x": -2.8227545993,
				"y": 0.0698453792,
				"z": 0.6726755895,
				"element": "N" 
			},
			{
				"x": -1.6317295583,
				"y": -0.19372471,
				"z": 0.0040532157,
				"element": "C" 
			},
			{
				"x": -0.8121360059,
				"y": -1.3035080419,
				"z": 0.0672810395,
				"element": "C" 
			},
			{
				"x": 0.3383633099,
				"y": -1.347624105,
				"z": -0.7694145938,
				"element": "C" 
			},
			{
				"x": 0.6766499175,
				"y": -0.3319389385,
				"z": -1.6404797279,
				"element": "C" 
			},
			{
				"x": -0.1473051338,
				"y": 0.8270789685,
				"z": -1.7187616531,
				"element": "C" 
			},
			{
				"x": 0.0517149704,
				"y": 1.9605988326,
				"z": -2.5523804153,
				"element": "C" 
			},
			{
				"x": -0.8279378353,
				"y": 3.0312947574,
				"z": -2.531941664,
				"element": "C" 
			},
			{
				"x": -1.9616197146,
				"y": 3.0547715346,
				"z": -1.6807462251,
				"element": "C" 
			},
			{
				"x": -2.1585837384,
				"y": 1.9588894057,
				"z": -0.8718881603,
				"element": "C" 
			},
			{
				"x": -1.2848568048,
				"y": 0.8644631745,
				"z": -0.8819140762,
				"element": "C" 
			},
			{
				"x": -3.4422106564,
				"y": 1.6539453462,
				"z": 0.3350671953,
				"element": "S" 
			},
			{
				"x": -3.2933669566,
				"y": 2.5053344413,
				"z": 1.5208246442,
				"element": "O" 
			},
			{
				"x": -4.7707798939,
				"y": 1.5298263283,
				"z": -0.2667775886,
				"element": "O" 
			},
			{
				"x": -3.5179735073,
				"y": -3.167422748,
				"z": 3.382170386,
				"element": "H" 
			},
			{
				"x": -1.9757393652,
				"y": -2.9346915986,
				"z": 4.2317489836,
				"element": "H" 
			},
			{
				"x": -4.3648587646,
				"y": -1.0059390754,
				"z": 4.3639270334,
				"element": "H" 
			},
			{
				"x": -2.8591482884,
				"y": -0.8165366713,
				"z": 5.2474437124,
				"element": "H" 
			},
			{
				"x": -2.7236615699,
				"y": 0.6424586648,
				"z": 3.3344888662,
				"element": "H" 
			},
			{
				"x": -1.6019267202,
				"y": -0.6775640905,
				"z": 3.0379793174,
				"element": "H" 
			},
			{
				"x": -3.3264517581,
				"y": -1.7514784871,
				"z": 1.5040782749,
				"element": "H" 
			},
			{
				"x": -4.436001064,
				"y": -0.4432551463,
				"z": 1.8604766872,
				"element": "H" 
			},
			{
				"x": -1.0289220797,
				"y": -2.1343762246,
				"z": 0.7294825081,
				"element": "H" 
			},
			{
				"x": 0.9722373862,
				"y": -2.2278648128,
				"z": -0.7119526168,
				"element": "H" 
			},
			{
				"x": 1.5629413419,
				"y": -0.4087696746,
				"z": -2.2624092025,
				"element": "H" 
			},
			{
				"x": 0.9110520079,
				"y": 1.9839496935,
				"z": -3.2169103161,
				"element": "H" 
			},
			{
				"x": -0.6472662562,
				"y": 3.8816121365,
				"z": -3.1822757061,
				"element": "H" 
			},
			{
				"x": -2.6358426989,
				"y": 3.9043251868,
				"z": -1.6742143658,
				"element": "H" 
			}
		],
		 "valence_orbital": [ 
			{
				"type": "occ",
				"energy": -0.29702,
				"method": "rhf"
			},
			{
				"type": "occ",
				"energy": -0.29602,
				"method": "rhf"
			},
			{
				"type": "occ",
				"energy": -0.27218,
				"method": "rhf"
			},
			{
				"type": "occ",
				"energy": -0.26872,
				"method": "rhf"
			},
			{
				"type": "occ",
				"energy": -0.21587,
				"method": "rhf"
			},
			{
				"type": "unocc",
				"energy": -0.06808,
				"method": "rhf"
			},
			{
				"type": "unocc",
				"energy": -0.03328,
				"method": "rhf"
			},
			{
				"type": "unocc",
				"energy": 0.0129,
				"method": "rhf"
			},
			{
				"type": "unocc",
				"energy": 0.01528,
				"method": "rhf"
			},
			{
				"type": "unocc",
				"energy": 0.04108,
				"method": "rhf"
			}
		],
		"cosmo_sigma_profile": { 
			"-0.025": 0.0,
			"-0.024": 0.0,
			"-0.023": 0.0,
			"-0.022": 0.0,
			"-0.021": 0.0,
			"-0.02": 0.0,
			"-0.019": 0.0,
			"-0.018": 0.0,
			"-0.017": 0.0,
			"-0.016": 0.0,
			"-0.015": 0.0,
			"-0.014": 0.0,
			"-0.013": 0.0,
			"-0.012": 0.0,
			"-0.011": 0.0,
			"-0.01": 0.0151262631141,
			"-0.009": 1.77119712894,
			"-0.008": 5.80020720444,
			"-0.007": 16.1869599565,
			"-0.006": 23.8782167029,
			"-0.005": 24.248129248,
			"-0.004": 22.6904598365,
			"-0.003": 20.8231011204,
			"-0.002": 19.378251457,
			"-0.001": 19.4424820362,
			"0.0": 17.8352553164,
			"0.001": 21.8777138421,
			"0.002": 27.0098465412,
			"0.003": 17.8131821169,
			"0.004": 14.2620419712,
			"0.005": 9.57029996095,
			"0.006": 10.9846747088,
			"0.007": 10.4827425605,
			"0.008": 4.15372555966,
			"0.009": 4.63427756252,
			"0.01": 11.7963233244,
			"0.011": 7.16656121164,
			"0.012": 0.306142834816,
			"0.013": 0.0,
			"0.014": 0.0,
			"0.015": 0.0,
			"0.016": 0.0,
			"0.017": 0.0,
			"0.018": 0.0,
			"0.019": 0.0,
			"0.02": 0.0,
			"0.021": 0.0,
			"0.022": 0.0,
			"0.023": 0.0,
			"0.024": 0.0,
			"0.025": 0.0
		}
	}
}
