{
	 "smiles": "CC(OP(C)(F)=O)C(C)(C)C", 
	 "Tm": 231.15, 
	 "num_atms": 27, 
	 "gaussian": { 
		 "optdone": 1, 
		 "sigma_profile": "yes", 
		 "theory": "DFT", 
		 "functional": "B3LYP", 
		 "basiset": "6-31G**", 
		 "properties": { 
			 "R2extent": 2415.2629, 
			 "electric_dipole_moment_norm": 2.95894563823, 
			 "electric_quadrupole_moment_norm": 11.6945052576, 
			 "total_energy": -868.136114589, 
			 "HOMO_LUMO_gap": 0.34875, 
			 "cosmo_polarized_energy": -10.01, 
			 "cosmo_cavitation_energy": 29.92, 
			 "cosmo_dispersion_energy": -20.49, 
			 "cosmo_repulsion_energy": 1.59, 
			 "cosmo_total_nonelectrostatic_energy": 11.03, 
			 "SMD_solvation_energy": 7.19 
		},
		"coords": [
			{
				"x": -1.1765890761,
				"y": 2.0978684898,
				"z": -1.3339758461,
				"element": "C" 
			},
			{
				"x": -0.2551784098,
				"y": 1.1271305423,
				"z": -0.604129227,
				"element": "C" 
			},
			{
				"x": -0.9639457418,
				"y": -0.1611633796,
				"z": -0.536148756,
				"element": "O" 
			},
			{
				"x": -1.6878161868,
				"y": -0.6367671673,
				"z": 0.8130384629,
				"element": "P" 
			},
			{
				"x": -2.9554503632,
				"y": -1.7690547756,
				"z": 0.2102928169,
				"element": "C" 
			},
			{
				"x": -0.6210052022,
				"y": -1.6537072031,
				"z": 1.4370940641,
				"element": "F" 
			},
			{
				"x": -2.0873898913,
				"y": 0.4203929579,
				"z": 1.7664334526,
				"element": "O" 
			},
			{
				"x": 1.1387243305,
				"y": 0.8690288467,
				"z": -1.2324421294,
				"element": "C" 
			},
			{
				"x": 1.9037254633,
				"y": 2.2066196776,
				"z": -1.3121804287,
				"element": "C" 
			},
			{
				"x": 1.0174346879,
				"y": 0.2537082813,
				"z": -2.6394794505,
				"element": "C" 
			},
			{
				"x": 1.9244267601,
				"y": -0.0925188405,
				"z": -0.3174834957,
				"element": "C" 
			},
			{
				"x": -2.1076453394,
				"y": 2.2027766448,
				"z": -0.7709115008,
				"element": "H" 
			},
			{
				"x": -1.4167228283,
				"y": 1.7406325634,
				"z": -2.3391160082,
				"element": "H" 
			},
			{
				"x": -0.7207511582,
				"y": 3.088073137,
				"z": -1.4141889676,
				"element": "H" 
			},
			{
				"x": -0.1100475659,
				"y": 1.4836889167,
				"z": 0.4214282616,
				"element": "H" 
			},
			{
				"x": -3.7397802892,
				"y": -1.1939342376,
				"z": -0.2860548486,
				"element": "H" 
			},
			{
				"x": -2.5255453982,
				"y": -2.4829407026,
				"z": -0.4954202208,
				"element": "H" 
			},
			{
				"x": -3.3881162464,
				"y": -2.3065042444,
				"z": 1.0569191081,
				"element": "H" 
			},
			{
				"x": 2.9331401443,
				"y": 2.0274787811,
				"z": -1.6393766886,
				"element": "H" 
			},
			{
				"x": 1.4498207527,
				"y": 2.9014621163,
				"z": -2.0250736455,
				"element": "H" 
			},
			{
				"x": 1.9499932685,
				"y": 2.7026548693,
				"z": -0.3356081012,
				"element": "H" 
			},
			{
				"x": 0.4526917881,
				"y": -0.6822467779,
				"z": -2.6117874345,
				"element": "H" 
			},
			{
				"x": 2.0126360751,
				"y": 0.0371841637,
				"z": -3.0421141926,
				"element": "H" 
			},
			{
				"x": 0.5208937892,
				"y": 0.931722825,
				"z": -3.3411856287,
				"element": "H" 
			},
			{
				"x": 2.0466935837,
				"y": 0.3286908386,
				"z": 0.6872380843,
				"element": "H" 
			},
			{
				"x": 2.9243276119,
				"y": -0.2730945525,
				"z": -0.7259252242,
				"element": "H" 
			},
			{
				"x": 1.4196754416,
				"y": -1.0559817702,
				"z": -0.2173424558,
				"element": "H" 
			}
		],
		 "valence_orbital": [ 
			{
				"type": "occ",
				"energy": -0.32799,
				"method": "rhf"
			},
			{
				"type": "occ",
				"energy": -0.31943,
				"method": "rhf"
			},
			{
				"type": "occ",
				"energy": -0.31357,
				"method": "rhf"
			},
			{
				"type": "occ",
				"energy": -0.29497,
				"method": "rhf"
			},
			{
				"type": "occ",
				"energy": -0.28927,
				"method": "rhf"
			},
			{
				"type": "unocc",
				"energy": 0.05948,
				"method": "rhf"
			},
			{
				"type": "unocc",
				"energy": 0.08008,
				"method": "rhf"
			},
			{
				"type": "unocc",
				"energy": 0.0873,
				"method": "rhf"
			},
			{
				"type": "unocc",
				"energy": 0.09171,
				"method": "rhf"
			},
			{
				"type": "unocc",
				"energy": 0.10726,
				"method": "rhf"
			}
		],
		"cosmo_sigma_profile": { 
			"-0.025": 0.0,
			"-0.024": 0.0,
			"-0.023": 0.0,
			"-0.022": 0.0,
			"-0.021": 0.0,
			"-0.02": 0.0,
			"-0.019": 0.0,
			"-0.018": 0.0,
			"-0.017": 0.0,
			"-0.016": 0.0,
			"-0.015": 0.0,
			"-0.014": 0.0,
			"-0.013": 0.0,
			"-0.012": 0.0,
			"-0.011": 0.0,
			"-0.01": 0.0,
			"-0.009": 0.234288455512,
			"-0.008": 3.6822969813,
			"-0.007": 6.31518835209,
			"-0.006": 5.62683642103,
			"-0.005": 7.80782450087,
			"-0.004": 13.9201768087,
			"-0.003": 29.0597621496,
			"-0.002": 29.6592475983,
			"-0.001": 23.8112804044,
			"0.0": 24.8732295708,
			"0.001": 27.1425408495,
			"0.002": 13.7801247676,
			"0.003": 6.12857029074,
			"0.004": 11.2174821671,
			"0.005": 6.61358367937,
			"0.006": 2.11494194935,
			"0.007": 2.07699940412,
			"0.008": 0.995443259941,
			"0.009": 0.850885246731,
			"0.01": 0.687610178152,
			"0.011": 1.48152733709,
			"0.012": 1.53379129822,
			"0.013": 2.35357888406,
			"0.014": 6.48911144495,
			"0.015": 1.27129226435,
			"0.016": 0.0,
			"0.017": 0.0,
			"0.018": 0.0,
			"0.019": 0.0,
			"0.02": 0.0,
			"0.021": 0.0,
			"0.022": 0.0,
			"0.023": 0.0,
			"0.024": 0.0,
			"0.025": 0.0
		}
	}
}
