{
	 "smiles": "CN(C)C1=C(F)C=C(C=C1)C#N", 
	 "Tm": 308.15, 
	 "num_atms": 21, 
	 "gaussian": { 
		 "optdone": 1, 
		 "sigma_profile": "yes", 
		 "theory": "DFT", 
		 "functional": "B3LYP", 
		 "basiset": "6-31G**", 
		 "properties": { 
			 "R2extent": 2880.3706, 
			 "electric_dipole_moment_norm": 6.15163393092, 
			 "electric_quadrupole_moment_norm": 20.3957100502, 
			 "total_energy": -557.6931057, 
			 "HOMO_LUMO_gap": 0.17437, 
			 "cosmo_polarized_energy": -10.04, 
			 "cosmo_cavitation_energy": 25.74, 
			 "cosmo_dispersion_energy": -18.27, 
			 "cosmo_repulsion_energy": 1.42, 
			 "cosmo_total_nonelectrostatic_energy": 8.9, 
			 "SMD_solvation_energy": 5.63 
		},
		"coords": [
			{
				"x": -2.2394024655,
				"y": -0.1917347786,
				"z": 0.8649838262,
				"element": "C" 
			},
			{
				"x": -1.5238367856,
				"y": -1.2079152847,
				"z": 0.1090193685,
				"element": "N" 
			},
			{
				"x": -2.3695621152,
				"y": -1.885335037,
				"z": -0.8774146928,
				"element": "C" 
			},
			{
				"x": -0.182286009,
				"y": -0.972580689,
				"z": -0.1897901358,
				"element": "C" 
			},
			{
				"x": 0.6621046649,
				"y": -2.0027234705,
				"z": -0.6698752041,
				"element": "C" 
			},
			{
				"x": 0.1535015817,
				"y": -3.2453492325,
				"z": -0.8518755643,
				"element": "F" 
			},
			{
				"x": 2.0005911507,
				"y": -1.8182835559,
				"z": -0.9456939602,
				"element": "C" 
			},
			{
				"x": 2.590885627,
				"y": -0.5613085393,
				"z": -0.7204067369,
				"element": "C" 
			},
			{
				"x": 1.7946892968,
				"y": 0.4787594013,
				"z": -0.220537595,
				"element": "C" 
			},
			{
				"x": 0.4425152365,
				"y": 0.2739981574,
				"z": 0.0305282689,
				"element": "C" 
			},
			{
				"x": 3.9800483062,
				"y": -0.3557336444,
				"z": -0.9921386037,
				"element": "C" 
			},
			{
				"x": 5.1100543149,
				"y": -0.1849958263,
				"z": -1.2135441278,
				"element": "N" 
			},
			{
				"x": -3.1813882516,
				"y": -0.6219653205,
				"z": 1.2158501755,
				"element": "H" 
			},
			{
				"x": -1.6590540881,
				"y": 0.1104292643,
				"z": 1.740260282,
				"element": "H" 
			},
			{
				"x": -2.4797292354,
				"y": 0.7078483299,
				"z": 0.2733605306,
				"element": "H" 
			},
			{
				"x": -3.2379363851,
				"y": -2.3135491297,
				"z": -0.3677982477,
				"element": "H" 
			},
			{
				"x": -2.7326613183,
				"y": -1.1870631183,
				"z": -1.6484894437,
				"element": "H" 
			},
			{
				"x": -1.8263605827,
				"y": -2.6915478617,
				"z": -1.3624526886,
				"element": "H" 
			},
			{
				"x": 2.5816471429,
				"y": -2.6584633246,
				"z": -1.3079449346,
				"element": "H" 
			},
			{
				"x": 2.2346861924,
				"y": 1.4540822766,
				"z": -0.0432663247,
				"element": "H" 
			},
			{
				"x": -0.1482062776,
				"y": 1.1063313835,
				"z": 0.3919258083,
				"element": "H" 
			}
		],
		 "valence_orbital": [ 
			{
				"type": "occ",
				"energy": -0.34426,
				"method": "rhf"
			},
			{
				"type": "occ",
				"energy": -0.32482,
				"method": "rhf"
			},
			{
				"type": "occ",
				"energy": -0.29157,
				"method": "rhf"
			},
			{
				"type": "occ",
				"energy": -0.26789,
				"method": "rhf"
			},
			{
				"type": "occ",
				"energy": -0.21721,
				"method": "rhf"
			},
			{
				"type": "unocc",
				"energy": -0.04284,
				"method": "rhf"
			},
			{
				"type": "unocc",
				"energy": -0.01797,
				"method": "rhf"
			},
			{
				"type": "unocc",
				"energy": 0.04112,
				"method": "rhf"
			},
			{
				"type": "unocc",
				"energy": 0.07151,
				"method": "rhf"
			},
			{
				"type": "unocc",
				"energy": 0.07955,
				"method": "rhf"
			}
		],
		"cosmo_sigma_profile": { 
			"-0.025": 0.0,
			"-0.024": 0.0,
			"-0.023": 0.0,
			"-0.022": 0.0,
			"-0.021": 0.0,
			"-0.02": 0.0,
			"-0.019": 0.0,
			"-0.018": 0.0,
			"-0.017": 0.0,
			"-0.016": 0.0,
			"-0.015": 0.0,
			"-0.014": 0.0,
			"-0.013": 0.0,
			"-0.012": 0.0,
			"-0.011": 0.0,
			"-0.01": 0.0,
			"-0.009": 0.702278430519,
			"-0.008": 3.03812162728,
			"-0.007": 4.8246942143,
			"-0.006": 8.77575998082,
			"-0.005": 13.6609351278,
			"-0.004": 16.9984640351,
			"-0.003": 20.6948570819,
			"-0.002": 23.7457413538,
			"-0.001": 17.9040336668,
			"0.0": 14.6145850144,
			"0.001": 15.743933636,
			"0.002": 15.1942487628,
			"0.003": 11.176243784,
			"0.004": 9.75025862077,
			"0.005": 3.34266500419,
			"0.006": 3.61740519419,
			"0.007": 3.73022488509,
			"0.008": 3.40905106286,
			"0.009": 3.94100632373,
			"0.01": 3.24964663954,
			"0.011": 3.0251098597,
			"0.012": 2.6450096265,
			"0.013": 2.26908394656,
			"0.014": 0.357413739246,
			"0.015": 0.0,
			"0.016": 0.0,
			"0.017": 0.0,
			"0.018": 0.0,
			"0.019": 0.0,
			"0.02": 0.0,
			"0.021": 0.0,
			"0.022": 0.0,
			"0.023": 0.0,
			"0.024": 0.0,
			"0.025": 0.0
		}
	}
}
