{
	 "smiles": "FC1=C(C=CC=C1)C(=O)CC#N", 
	 "Tm": 325.15, 
	 "num_atms": 18, 
	 "gaussian": { 
		 "optdone": 1, 
		 "sigma_profile": "yes", 
		 "theory": "DFT", 
		 "functional": "B3LYP", 
		 "basiset": "6-31G**", 
		 "properties": { 
			 "R2extent": 2270.4219, 
			 "electric_dipole_moment_norm": 4.20585301693, 
			 "electric_quadrupole_moment_norm": 14.4150987693, 
			 "total_energy": -576.352795793, 
			 "HOMO_LUMO_gap": 0.18746, 
			 "cosmo_polarized_energy": -13.86, 
			 "cosmo_cavitation_energy": 24.18, 
			 "cosmo_dispersion_energy": -16.84, 
			 "cosmo_repulsion_energy": 1.33, 
			 "cosmo_total_nonelectrostatic_energy": 8.66, 
			 "SMD_solvation_energy": 6.52 
		},
		"coords": [
			{
				"x": 1.7962772525,
				"y": 0.6338523751,
				"z": -0.3136044852,
				"element": "F" 
			},
			{
				"x": 0.6726880821,
				"y": 0.1961874499,
				"z": 0.2639345928,
				"element": "C" 
			},
			{
				"x": -0.5701623461,
				"y": 0.3410323703,
				"z": -0.3842959494,
				"element": "C" 
			},
			{
				"x": -1.7029089313,
				"y": -0.1567711816,
				"z": 0.2894695469,
				"element": "C" 
			},
			{
				"x": -1.6034039306,
				"y": -0.759112789,
				"z": 1.5388840147,
				"element": "C" 
			},
			{
				"x": -0.3530987821,
				"y": -0.8843324707,
				"z": 2.1500630496,
				"element": "C" 
			},
			{
				"x": 0.7892565967,
				"y": -0.4075221594,
				"z": 1.5110972162,
				"element": "C" 
			},
			{
				"x": -0.6711781758,
				"y": 1.0099033291,
				"z": -1.7106568895,
				"element": "C" 
			},
			{
				"x": 0.2600015554,
				"y": 1.5673778108,
				"z": -2.2564301301,
				"element": "O" 
			},
			{
				"x": -2.0525394433,
				"y": 1.042315451,
				"z": -2.4264541631,
				"element": "C" 
			},
			{
				"x": -2.592572378,
				"y": -0.2744535465,
				"z": -2.7604787484,
				"element": "C" 
			},
			{
				"x": -3.0112347131,
				"y": -1.3253148058,
				"z": -3.0216601021,
				"element": "N" 
			},
			{
				"x": -2.6796142178,
				"y": -0.0791850964,
				"z": -0.1736760977,
				"element": "H" 
			},
			{
				"x": -2.4946676393,
				"y": -1.1329251966,
				"z": 2.0315630253,
				"element": "H" 
			},
			{
				"x": -0.2650836901,
				"y": -1.3557263608,
				"z": 3.124184479,
				"element": "H" 
			},
			{
				"x": 1.774381192,
				"y": -0.4924723873,
				"z": 1.9563754102,
				"element": "H" 
			},
			{
				"x": -1.8970800101,
				"y": 1.6160893555,
				"z": -3.3434041269,
				"element": "H" 
			},
			{
				"x": -2.7817604212,
				"y": 1.5823578523,
				"z": -1.8103106425,
				"element": "H" 
			}
		],
		 "valence_orbital": [ 
			{
				"type": "occ",
				"energy": -0.34334,
				"method": "rhf"
			},
			{
				"type": "occ",
				"energy": -0.33359,
				"method": "rhf"
			},
			{
				"type": "occ",
				"energy": -0.28403,
				"method": "rhf"
			},
			{
				"type": "occ",
				"energy": -0.26861,
				"method": "rhf"
			},
			{
				"type": "occ",
				"energy": -0.26641,
				"method": "rhf"
			},
			{
				"type": "unocc",
				"energy": -0.07895,
				"method": "rhf"
			},
			{
				"type": "unocc",
				"energy": -0.02396,
				"method": "rhf"
			},
			{
				"type": "unocc",
				"energy": 0.00996,
				"method": "rhf"
			},
			{
				"type": "unocc",
				"energy": 0.02718,
				"method": "rhf"
			},
			{
				"type": "unocc",
				"energy": 0.03591,
				"method": "rhf"
			}
		],
		"cosmo_sigma_profile": { 
			"-0.025": 0.0,
			"-0.024": 0.0,
			"-0.023": 0.0,
			"-0.022": 0.0,
			"-0.021": 0.0,
			"-0.02": 0.0,
			"-0.019": 0.0,
			"-0.018": 0.0,
			"-0.017": 0.0,
			"-0.016": 0.0,
			"-0.015": 0.0,
			"-0.014": 0.0,
			"-0.013": 0.0,
			"-0.012": 0.375288850696,
			"-0.011": 1.81799744519,
			"-0.01": 4.3861471378,
			"-0.009": 4.64071176344,
			"-0.008": 6.88309454016,
			"-0.007": 11.5965423937,
			"-0.006": 12.2336149194,
			"-0.005": 12.881502315,
			"-0.004": 7.76199309959,
			"-0.003": 9.99783998012,
			"-0.002": 7.70616697402,
			"-0.001": 12.5829916784,
			"0.0": 13.3968055125,
			"0.001": 13.6188998909,
			"0.002": 14.5302564728,
			"0.003": 12.1252981819,
			"0.004": 7.30611856989,
			"0.005": 4.21817000551,
			"0.006": 4.13558098067,
			"0.007": 5.2238939691,
			"0.008": 5.05014447314,
			"0.009": 5.87699015941,
			"0.01": 7.12210562635,
			"0.011": 6.40271854947,
			"0.012": 2.65178783393,
			"0.013": 1.12801089478,
			"0.014": 0.0,
			"0.015": 0.0,
			"0.016": 0.0,
			"0.017": 0.0,
			"0.018": 0.0,
			"0.019": 0.0,
			"0.02": 0.0,
			"0.021": 0.0,
			"0.022": 0.0,
			"0.023": 0.0,
			"0.024": 0.0,
			"0.025": 0.0
		}
	}
}
