{
	 "smiles": "COC(=O)C1=CC=C(OC2=CC(Cl)=CC(Cl)=C2)O1", 
	 "Tm": 360.65, 
	 "num_atms": 26, 
	 "gaussian": { 
		 "optdone": 1, 
		 "sigma_profile": "yes", 
		 "theory": "DFT", 
		 "functional": "B3LYP", 
		 "basiset": "6-31G**", 
		 "properties": { 
			 "R2extent": 9100.527, 
			 "electric_dipole_moment_norm": 3.53449077803, 
			 "electric_quadrupole_moment_norm": 6.24533449464, 
			 "total_energy": -1683.34447403, 
			 "HOMO_LUMO_gap": 0.18944, 
			 "cosmo_polarized_energy": -10.87, 
			 "cosmo_cavitation_energy": 36.54, 
			 "cosmo_dispersion_energy": -26.16, 
			 "cosmo_repulsion_energy": 2.06, 
			 "cosmo_total_nonelectrostatic_energy": 12.44, 
			 "SMD_solvation_energy": 8.26 
		},
		"coords": [
			{
				"x": -3.262192709,
				"y": 1.737354851,
				"z": 2.5355502982,
				"element": "C" 
			},
			{
				"x": -2.8248426343,
				"y": 0.5255114357,
				"z": 1.9005523472,
				"element": "O" 
			},
			{
				"x": -1.5041238012,
				"y": 0.4851105612,
				"z": 1.6002764733,
				"element": "C" 
			},
			{
				"x": -0.7189761682,
				"y": 1.380589324,
				"z": 1.8320521724,
				"element": "O" 
			},
			{
				"x": -1.1702253291,
				"y": -0.7894304996,
				"z": 0.9598592229,
				"element": "C" 
			},
			{
				"x": -1.9054470228,
				"y": -1.8884282938,
				"z": 0.6018890543,
				"element": "C" 
			},
			{
				"x": -1.0051147329,
				"y": -2.8068276738,
				"z": -0.0134103391,
				"element": "C" 
			},
			{
				"x": 0.215202652,
				"y": -2.1921076403,
				"z": 0.0264197833,
				"element": "C" 
			},
			{
				"x": 1.4308883453,
				"y": -2.6514760702,
				"z": -0.3241506115,
				"element": "O" 
			},
			{
				"x": 2.2142012738,
				"y": -1.9518684682,
				"z": -1.2323153074,
				"element": "C" 
			},
			{
				"x": 1.7046643142,
				"y": -0.9625318359,
				"z": -2.072175391,
				"element": "C" 
			},
			{
				"x": 2.5807189745,
				"y": -0.361613731,
				"z": -2.9752011876,
				"element": "C" 
			},
			{
				"x": 1.9658802809,
				"y": 0.8837380359,
				"z": -4.0455986245,
				"element": "Cl" 
			},
			{
				"x": 3.9251992984,
				"y": -0.7183233478,
				"z": -3.0602402384,
				"element": "C" 
			},
			{
				"x": 4.3870196432,
				"y": -1.7153790524,
				"z": -2.2002805437,
				"element": "C" 
			},
			{
				"x": 6.0726104163,
				"y": -2.1903249471,
				"z": -2.2796834171,
				"element": "Cl" 
			},
			{
				"x": 3.5521286208,
				"y": -2.3420695183,
				"z": -1.2803566345,
				"element": "C" 
			},
			{
				"x": 0.1475532107,
				"y": -0.9766147191,
				"z": 0.6119347574,
				"element": "O" 
			},
			{
				"x": -4.3305891129,
				"y": 1.6085872406,
				"z": 2.7078754701,
				"element": "H" 
			},
			{
				"x": -3.0787869331,
				"y": 2.599462106,
				"z": 1.8892778798,
				"element": "H" 
			},
			{
				"x": -2.7362768356,
				"y": 1.8884561365,
				"z": 3.4816236804,
				"element": "H" 
			},
			{
				"x": -2.9667661054,
				"y": -2.010754598,
				"z": 0.7579788714,
				"element": "H" 
			},
			{
				"x": -1.2160648142,
				"y": -3.7807255719,
				"z": -0.427450646,
				"element": "H" 
			},
			{
				"x": 0.666034596,
				"y": -0.6622365068,
				"z": -2.0289327,
				"element": "H" 
			},
			{
				"x": 4.5882429452,
				"y": -0.2372927662,
				"z": -3.7673949471,
				"element": "H" 
			},
			{
				"x": 3.9157616274,
				"y": -3.1136044506,
				"z": -0.6134994227,
				"element": "H" 
			}
		],
		 "valence_orbital": [ 
			{
				"type": "occ",
				"energy": -0.30229,
				"method": "rhf"
			},
			{
				"type": "occ",
				"energy": -0.28002,
				"method": "rhf"
			},
			{
				"type": "occ",
				"energy": -0.26204,
				"method": "rhf"
			},
			{
				"type": "occ",
				"energy": -0.25997,
				"method": "rhf"
			},
			{
				"type": "occ",
				"energy": -0.23784,
				"method": "rhf"
			},
			{
				"type": "unocc",
				"energy": -0.0484,
				"method": "rhf"
			},
			{
				"type": "unocc",
				"energy": -0.03231,
				"method": "rhf"
			},
			{
				"type": "unocc",
				"energy": -0.02351,
				"method": "rhf"
			},
			{
				"type": "unocc",
				"energy": -0.00189,
				"method": "rhf"
			},
			{
				"type": "unocc",
				"energy": 0.03592,
				"method": "rhf"
			}
		],
		"cosmo_sigma_profile": { 
			"-0.025": 0.0,
			"-0.024": 0.0,
			"-0.023": 0.0,
			"-0.022": 0.0,
			"-0.021": 0.0,
			"-0.02": 0.0,
			"-0.019": 0.0,
			"-0.018": 0.0,
			"-0.017": 0.0,
			"-0.016": 0.0,
			"-0.015": 0.0,
			"-0.014": 0.0,
			"-0.013": 0.0,
			"-0.012": 0.0,
			"-0.011": 0.0,
			"-0.01": 0.0,
			"-0.009": 2.92816026629,
			"-0.008": 7.20571421047,
			"-0.007": 8.20335641654,
			"-0.006": 12.7818207405,
			"-0.005": 14.652356353,
			"-0.004": 16.6056368029,
			"-0.003": 21.9402757041,
			"-0.002": 20.114406617,
			"-0.001": 23.5933451236,
			"0.0": 35.1917492608,
			"0.001": 39.4984783194,
			"0.002": 23.557247718,
			"0.003": 21.5095195874,
			"0.004": 21.9498267309,
			"0.005": 5.72718610301,
			"0.006": 4.97961392947,
			"0.007": 2.36885942778,
			"0.008": 2.34909075717,
			"0.009": 1.76636456054,
			"0.01": 2.59879742641,
			"0.011": 3.61903310808,
			"0.012": 5.11018298463,
			"0.013": 0.70264231494,
			"0.014": 0.0,
			"0.015": 0.0,
			"0.016": 0.0,
			"0.017": 0.0,
			"0.018": 0.0,
			"0.019": 0.0,
			"0.02": 0.0,
			"0.021": 0.0,
			"0.022": 0.0,
			"0.023": 0.0,
			"0.024": 0.0,
			"0.025": 0.0
		}
	}
}
