{
	 "smiles": "ClC1=CC(N2CCCC2)=C(C#N)C(=N1)N1CCCC1", 
	 "Tm": 409.15, 
	 "num_atms": 36, 
	 "gaussian": { 
		 "optdone": 1, 
		 "sigma_profile": "yes", 
		 "theory": "DFT", 
		 "functional": "B3LYP", 
		 "basiset": "6-31G**", 
		 "properties": { 
			 "R2extent": 6681.9619, 
			 "electric_dipole_moment_norm": 3.01704146972, 
			 "electric_quadrupole_moment_norm": 33.1806215418, 
			 "total_energy": -1222.92898552, 
			 "HOMO_LUMO_gap": 0.17403, 
			 "cosmo_polarized_energy": -12.14, 
			 "cosmo_cavitation_energy": 38.65, 
			 "cosmo_dispersion_energy": -28.21, 
			 "cosmo_repulsion_energy": 2.19, 
			 "cosmo_total_nonelectrostatic_energy": 12.63, 
			 "SMD_solvation_energy": 3.32 
		},
		"coords": [
			{
				"x": -1.7092909278,
				"y": -0.5696364146,
				"z": 4.2392370005,
				"element": "Cl" 
			},
			{
				"x": -1.0642277913,
				"y": -0.319734576,
				"z": 2.6096458386,
				"element": "C" 
			},
			{
				"x": -0.5371355187,
				"y": -1.4187578994,
				"z": 1.957290543,
				"element": "C" 
			},
			{
				"x": -0.0822682321,
				"y": -1.251445102,
				"z": 0.6247787261,
				"element": "C" 
			},
			{
				"x": 0.4448478881,
				"y": -2.3276167684,
				"z": -0.0276704999,
				"element": "N" 
			},
			{
				"x": 0.9681193714,
				"y": -2.3608288544,
				"z": -1.4078551464,
				"element": "C" 
			},
			{
				"x": 1.2726639718,
				"y": -3.8443243988,
				"z": -1.6485704433,
				"element": "C" 
			},
			{
				"x": 1.6561059462,
				"y": -4.3592245414,
				"z": -0.2565805309,
				"element": "C" 
			},
			{
				"x": 0.702326217,
				"y": -3.5997262778,
				"z": 0.6730926122,
				"element": "C" 
			},
			{
				"x": -0.2280580402,
				"y": 0.0599941524,
				"z": 0.05355895,
				"element": "C" 
			},
			{
				"x": -0.1301872551,
				"y": 0.3032010364,
				"z": -1.3433206403,
				"element": "C" 
			},
			{
				"x": -0.1213138518,
				"y": 0.5345925909,
				"z": -2.4876207663,
				"element": "N" 
			},
			{
				"x": -0.6740000853,
				"y": 1.1308930806,
				"z": 0.9027651591,
				"element": "C" 
			},
			{
				"x": -1.1234938289,
				"y": 0.9128322708,
				"z": 2.1561667403,
				"element": "N" 
			},
			{
				"x": -0.6960214803,
				"y": 2.436324923,
				"z": 0.5084900249,
				"element": "N" 
			},
			{
				"x": 0.1586412488,
				"y": 3.0456581614,
				"z": -0.5291801586,
				"element": "C" 
			},
			{
				"x": 0.290929412,
				"y": 4.5072605483,
				"z": -0.0763559281,
				"element": "C" 
			},
			{
				"x": -1.043278431,
				"y": 4.7692119217,
				"z": 0.636893161,
				"element": "C" 
			},
			{
				"x": -1.2853804422,
				"y": 3.4603313758,
				"z": 1.3948638893,
				"element": "C" 
			},
			{
				"x": -0.5294370437,
				"y": -2.379895456,
				"z": 2.4455396378,
				"element": "H" 
			},
			{
				"x": 0.2413433623,
				"y": -1.9737667852,
				"z": -2.1201279058,
				"element": "H" 
			},
			{
				"x": 1.8745410642,
				"y": -1.7456012907,
				"z": -1.4887490182,
				"element": "H" 
			},
			{
				"x": 0.3722917846,
				"y": -4.3554643201,
				"z": -2.0073706241,
				"element": "H" 
			},
			{
				"x": 2.0572120318,
				"y": -3.9845097529,
				"z": -2.396346913,
				"element": "H" 
			},
			{
				"x": 1.5592555776,
				"y": -5.4426809318,
				"z": -0.150091679,
				"element": "H" 
			},
			{
				"x": 2.6931024117,
				"y": -4.0907774844,
				"z": -0.0260209989,
				"element": "H" 
			},
			{
				"x": 1.1492986606,
				"y": -3.4170953274,
				"z": 1.6553802845,
				"element": "H" 
			},
			{
				"x": -0.2352848173,
				"y": -4.1521243639,
				"z": 0.8294089526,
				"element": "H" 
			},
			{
				"x": 1.1213012042,
				"y": 2.5285355091,
				"z": -0.5849669805,
				"element": "H" 
			},
			{
				"x": -0.306941495,
				"y": 2.9781976854,
				"z": -1.5174475378,
				"element": "H" 
			},
			{
				"x": 1.1216735502,
				"y": 4.6106030576,
				"z": 0.6312315242,
				"element": "H" 
			},
			{
				"x": 0.4785505782,
				"y": 5.1808919551,
				"z": -0.916694321,
				"element": "H" 
			},
			{
				"x": -1.0156523378,
				"y": 5.6330194397,
				"z": 1.3063121257,
				"element": "H" 
			},
			{
				"x": -1.8385852896,
				"y": 4.9375404966,
				"z": -0.0982711863,
				"element": "H" 
			},
			{
				"x": -2.3410172669,
				"y": 3.2443355744,
				"z": 1.5784723654,
				"element": "H" 
			},
			{
				"x": -0.7811301454,
				"y": 3.455986766,
				"z": 2.3687137431,
				"element": "H" 
			}
		],
		 "valence_orbital": [ 
			{
				"type": "occ",
				"energy": -0.30668,
				"method": "rhf"
			},
			{
				"type": "occ",
				"energy": -0.27143,
				"method": "rhf"
			},
			{
				"type": "occ",
				"energy": -0.26787,
				"method": "rhf"
			},
			{
				"type": "occ",
				"energy": -0.2178,
				"method": "rhf"
			},
			{
				"type": "occ",
				"energy": -0.20732,
				"method": "rhf"
			},
			{
				"type": "unocc",
				"energy": -0.03329,
				"method": "rhf"
			},
			{
				"type": "unocc",
				"energy": 0.00055,
				"method": "rhf"
			},
			{
				"type": "unocc",
				"energy": 0.02959,
				"method": "rhf"
			},
			{
				"type": "unocc",
				"energy": 0.04203,
				"method": "rhf"
			},
			{
				"type": "unocc",
				"energy": 0.07274,
				"method": "rhf"
			}
		],
		"cosmo_sigma_profile": { 
			"-0.025": 0.0,
			"-0.024": 0.0,
			"-0.023": 0.0,
			"-0.022": 0.0,
			"-0.021": 0.0,
			"-0.02": 0.0,
			"-0.019": 0.0,
			"-0.018": 0.0,
			"-0.017": 0.0,
			"-0.016": 0.0,
			"-0.015": 0.0,
			"-0.014": 0.0,
			"-0.013": 0.0,
			"-0.012": 0.0,
			"-0.011": 0.0,
			"-0.01": 0.0,
			"-0.009": 0.0,
			"-0.008": 0.133665886187,
			"-0.007": 1.86006961285,
			"-0.006": 2.54886809528,
			"-0.005": 10.3779325176,
			"-0.004": 35.0714858234,
			"-0.003": 52.5432660495,
			"-0.002": 40.3018085069,
			"-0.001": 29.7539861067,
			"0.0": 27.7968008217,
			"0.001": 22.5122937079,
			"0.002": 17.3702595909,
			"0.003": 12.7960517378,
			"0.004": 12.2034582636,
			"0.005": 10.7563374833,
			"0.006": 5.66863475703,
			"0.007": 3.59247128092,
			"0.008": 4.04857685731,
			"0.009": 3.54714935347,
			"0.01": 3.73536041457,
			"0.011": 3.20567661948,
			"0.012": 2.97153775472,
			"0.013": 2.59464734368,
			"0.014": 1.77113390245,
			"0.015": 0.0418023368482,
			"0.016": 0.0,
			"0.017": 0.0,
			"0.018": 0.0,
			"0.019": 0.0,
			"0.02": 0.0,
			"0.021": 0.0,
			"0.022": 0.0,
			"0.023": 0.0,
			"0.024": 0.0,
			"0.025": 0.0
		}
	}
}
