{
	 "smiles": "[O-][N+](=O)C1=CC=C(C=CC2CC3=CC=CC=C3C(=O)O2)C=C1", 
	 "Tm": 454.15, 
	 "num_atms": 35, 
	 "gaussian": { 
		 "optdone": 1, 
		 "sigma_profile": "yes", 
		 "theory": "DFT", 
		 "functional": "B3LYP", 
		 "basiset": "6-31G**", 
		 "properties": { 
			 "R2extent": 13001.9212, 
			 "electric_dipole_moment_norm": 6.61640762726, 
			 "electric_quadrupole_moment_norm": 29.0594758229, 
			 "total_energy": -1011.19382508, 
			 "HOMO_LUMO_gap": 0.15559, 
			 "cosmo_polarized_energy": -19.43, 
			 "cosmo_cavitation_energy": 40.91, 
			 "cosmo_dispersion_energy": -29.53, 
			 "cosmo_repulsion_energy": 2.21, 
			 "cosmo_total_nonelectrostatic_energy": 13.6, 
			 "SMD_solvation_energy": 9.65 
		},
		"coords": [
			{
				"x": -2.8134579081,
				"y": -4.8614083259,
				"z": 3.7152911612,
				"element": "O" 
			},
			{
				"x": -3.2697768746,
				"y": -3.7366900866,
				"z": 3.9214445616,
				"element": "N" 
			},
			{
				"x": -4.2372282027,
				"y": -3.4934141123,
				"z": 4.6429317777,
				"element": "O" 
			},
			{
				"x": -2.6128216161,
				"y": -2.6030691466,
				"z": 3.2576223648,
				"element": "C" 
			},
			{
				"x": -1.5129746389,
				"y": -2.8436573017,
				"z": 2.4324943792,
				"element": "C" 
			},
			{
				"x": -0.8972878504,
				"y": -1.7705688368,
				"z": 1.8039138235,
				"element": "C" 
			},
			{
				"x": -1.3638018513,
				"y": -0.4532345445,
				"z": 1.9895344232,
				"element": "C" 
			},
			{
				"x": -0.7464022119,
				"y": 0.7162670473,
				"z": 1.3500177332,
				"element": "C" 
			},
			{
				"x": 0.3239650006,
				"y": 0.7292787245,
				"z": 0.5428425299,
				"element": "C" 
			},
			{
				"x": 0.8556224951,
				"y": 1.9722035211,
				"z": -0.103205834,
				"element": "C" 
			},
			{
				"x": 0.6822531625,
				"y": 1.9785839399,
				"z": -1.6257324195,
				"element": "C" 
			},
			{
				"x": 1.3703606223,
				"y": 3.1876882118,
				"z": -2.2092195134,
				"element": "C" 
			},
			{
				"x": 0.9173218624,
				"y": 3.8400505591,
				"z": -3.3587975108,
				"element": "C" 
			},
			{
				"x": 1.6032894273,
				"y": 4.9486616512,
				"z": -3.8564761062,
				"element": "C" 
			},
			{
				"x": 2.752948761,
				"y": 5.4173431848,
				"z": -3.2121058764,
				"element": "C" 
			},
			{
				"x": 3.2148433637,
				"y": 4.7727836052,
				"z": -2.0687797714,
				"element": "C" 
			},
			{
				"x": 2.5234829531,
				"y": 3.6641834142,
				"z": -1.5637625072,
				"element": "C" 
			},
			{
				"x": 3.0638614601,
				"y": 2.9722121409,
				"z": -0.3590541689,
				"element": "C" 
			},
			{
				"x": 4.1676550425,
				"y": 3.1730615563,
				"z": 0.094551753,
				"element": "O" 
			},
			{
				"x": 2.2645466555,
				"y": 2.0390240264,
				"z": 0.2377723142,
				"element": "O" 
			},
			{
				"x": -2.4755104581,
				"y": -0.2531474625,
				"z": 2.8300540494,
				"element": "C" 
			},
			{
				"x": -3.1046472571,
				"y": -1.3170462569,
				"z": 3.4664501338,
				"element": "C" 
			},
			{
				"x": -1.1629874764,
				"y": -3.8594337699,
				"z": 2.2980036679,
				"element": "H" 
			},
			{
				"x": -0.0439510242,
				"y": -1.9602729904,
				"z": 1.1617781853,
				"element": "H" 
			},
			{
				"x": -1.2292814424,
				"y": 1.6671823277,
				"z": 1.57454248,
				"element": "H" 
			},
			{
				"x": 0.8629367262,
				"y": -0.1829926172,
				"z": 0.2952031706,
				"element": "H" 
			},
			{
				"x": 0.359050249,
				"y": 2.8565998692,
				"z": 0.3184307701,
				"element": "H" 
			},
			{
				"x": 1.1134606715,
				"y": 1.0552953009,
				"z": -2.0373278807,
				"element": "H" 
			},
			{
				"x": -0.3843792481,
				"y": 1.9719844147,
				"z": -1.8718599556,
				"element": "H" 
			},
			{
				"x": 0.0245624465,
				"y": 3.4804731234,
				"z": -3.8638455512,
				"element": "H" 
			},
			{
				"x": 1.2388103555,
				"y": 5.4503772234,
				"z": -4.7483514601,
				"element": "H" 
			},
			{
				"x": 3.2841060279,
				"y": 6.2794329018,
				"z": -3.6037419889,
				"element": "H" 
			},
			{
				"x": 4.1086080015,
				"y": 5.1040907777,
				"z": -1.5509147349,
				"element": "H" 
			},
			{
				"x": -2.8484819807,
				"y": 0.7551279364,
				"z": 2.9856618173,
				"element": "H" 
			},
			{
				"x": -3.959695243,
				"y": -1.1715700064,
				"z": 4.1145341832,
				"element": "H" 
			}
		],
		 "valence_orbital": [ 
			{
				"type": "occ",
				"energy": -0.28346,
				"method": "rhf"
			},
			{
				"type": "occ",
				"energy": -0.27681,
				"method": "rhf"
			},
			{
				"type": "occ",
				"energy": -0.26826,
				"method": "rhf"
			},
			{
				"type": "occ",
				"energy": -0.26551,
				"method": "rhf"
			},
			{
				"type": "occ",
				"energy": -0.25356,
				"method": "rhf"
			},
			{
				"type": "unocc",
				"energy": -0.09797,
				"method": "rhf"
			},
			{
				"type": "unocc",
				"energy": -0.05583,
				"method": "rhf"
			},
			{
				"type": "unocc",
				"energy": -0.04023,
				"method": "rhf"
			},
			{
				"type": "unocc",
				"energy": -0.02978,
				"method": "rhf"
			},
			{
				"type": "unocc",
				"energy": -0.02138,
				"method": "rhf"
			}
		],
		"cosmo_sigma_profile": { 
			"-0.025": 0.0,
			"-0.024": 0.0,
			"-0.023": 0.0,
			"-0.022": 0.0,
			"-0.021": 0.0,
			"-0.02": 0.0,
			"-0.019": 0.0,
			"-0.018": 0.0,
			"-0.017": 0.0,
			"-0.016": 0.0,
			"-0.015": 0.0,
			"-0.014": 0.0,
			"-0.013": 0.0,
			"-0.012": 0.0,
			"-0.011": 0.0,
			"-0.01": 0.0,
			"-0.009": 0.968795860556,
			"-0.008": 5.18918102037,
			"-0.007": 16.4717745389,
			"-0.006": 30.1014158164,
			"-0.005": 26.5886688271,
			"-0.004": 22.0339678171,
			"-0.003": 20.8616885851,
			"-0.002": 19.434806924,
			"-0.001": 20.7734616586,
			"0.0": 21.5899947306,
			"0.001": 28.1390847704,
			"0.002": 27.2012267293,
			"0.003": 16.2863437172,
			"0.004": 13.6874568957,
			"0.005": 6.46689611091,
			"0.006": 5.21600406608,
			"0.007": 9.26734540714,
			"0.008": 10.9042616833,
			"0.009": 7.4363727429,
			"0.01": 6.47579457211,
			"0.011": 5.07178323987,
			"0.012": 5.50935718385,
			"0.013": 2.13013742589,
			"0.014": 0.274952585732,
			"0.015": 0.0,
			"0.016": 0.0,
			"0.017": 0.0,
			"0.018": 0.0,
			"0.019": 0.0,
			"0.02": 0.0,
			"0.021": 0.0,
			"0.022": 0.0,
			"0.023": 0.0,
			"0.024": 0.0,
			"0.025": 0.0
		}
	}
}
