{
	 "smiles": "CCOC(=O)C(NC(=O)C1=CC(Cl)=C(Cl)C=C1)C(C)O", 
	 "Tm": 342.15, 
	 "num_atms": 35, 
	 "gaussian": { 
		 "optdone": 1, 
		 "sigma_profile": "yes", 
		 "theory": "DFT", 
		 "functional": "B3LYP", 
		 "basiset": "6-31G**", 
		 "properties": { 
			 "R2extent": 11383.2792, 
			 "electric_dipole_moment_norm": 6.51843246954, 
			 "electric_quadrupole_moment_norm": 18.2197156353, 
			 "total_energy": -1780.48635378, 
			 "HOMO_LUMO_gap": 0.18718, 
			 "cosmo_polarized_energy": -17.66, 
			 "cosmo_cavitation_energy": 42.56, 
			 "cosmo_dispersion_energy": -29.38, 
			 "cosmo_repulsion_energy": 2.3, 
			 "cosmo_total_nonelectrostatic_energy": 15.47, 
			 "SMD_solvation_energy": 7.59 
		},
		"coords": [
			{
				"x": -2.4369834063,
				"y": 2.8036693358,
				"z": -2.2953311959,
				"element": "C" 
			},
			{
				"x": -1.8360441874,
				"y": 1.5858410068,
				"z": -2.9685330286,
				"element": "C" 
			},
			{
				"x": -1.4896449675,
				"y": 0.63353123,
				"z": -1.9276048813,
				"element": "O" 
			},
			{
				"x": -0.9413852593,
				"y": -0.5295755217,
				"z": -2.3493500987,
				"element": "C" 
			},
			{
				"x": -0.741824044,
				"y": -0.7923318842,
				"z": -3.5129681302,
				"element": "O" 
			},
			{
				"x": -0.6256696464,
				"y": -1.4960010399,
				"z": -1.2102880856,
				"element": "C" 
			},
			{
				"x": -0.8159081571,
				"y": -0.8404088371,
				"z": 0.0833909406,
				"element": "N" 
			},
			{
				"x": -0.4011062204,
				"y": -1.3509466137,
				"z": 1.2698856392,
				"element": "C" 
			},
			{
				"x": 0.0363776975,
				"y": -2.5007428027,
				"z": 1.396128563,
				"element": "O" 
			},
			{
				"x": -0.5103517847,
				"y": -0.4414291712,
				"z": 2.4611190675,
				"element": "C" 
			},
			{
				"x": -0.5169716376,
				"y": -1.0470986086,
				"z": 3.7212132677,
				"element": "C" 
			},
			{
				"x": -0.6150626926,
				"y": -0.2785842459,
				"z": 4.8786599472,
				"element": "C" 
			},
			{
				"x": -0.6340004788,
				"y": -1.0843110649,
				"z": 6.4253764447,
				"element": "Cl" 
			},
			{
				"x": -0.6952761321,
				"y": 1.1195701925,
				"z": 4.7817261696,
				"element": "C" 
			},
			{
				"x": -0.8179052115,
				"y": 2.1261181381,
				"z": 6.1988082014,
				"element": "Cl" 
			},
			{
				"x": -0.6685050219,
				"y": 1.7282805379,
				"z": 3.5244274436,
				"element": "C" 
			},
			{
				"x": -0.5766975624,
				"y": 0.9552672018,
				"z": 2.3714538799,
				"element": "C" 
			},
			{
				"x": -1.4184780754,
				"y": -2.8349148597,
				"z": -1.4169290836,
				"element": "C" 
			},
			{
				"x": -2.8694310056,
				"y": -2.7371809796,
				"z": -0.9375763503,
				"element": "C" 
			},
			{
				"x": -0.7351308904,
				"y": -3.9244173607,
				"z": -0.8445636192,
				"element": "O" 
			},
			{
				"x": -2.7141772561,
				"y": 3.5425912294,
				"z": -3.0531773603,
				"element": "H" 
			},
			{
				"x": -1.7213508203,
				"y": 3.2699272112,
				"z": -1.6116349555,
				"element": "H" 
			},
			{
				"x": -3.3363266606,
				"y": 2.5388377016,
				"z": -1.7317938495,
				"element": "H" 
			},
			{
				"x": -2.5359205694,
				"y": 1.1035986181,
				"z": -3.6567585596,
				"element": "H" 
			},
			{
				"x": -0.9294594568,
				"y": 1.8262701046,
				"z": -3.5310965818,
				"element": "H" 
			},
			{
				"x": 0.4303574482,
				"y": -1.7689563309,
				"z": -1.3218262215,
				"element": "H" 
			},
			{
				"x": -1.2869162358,
				"y": 0.0513040352,
				"z": 0.062577368,
				"element": "H" 
			},
			{
				"x": -0.4403084284,
				"y": -2.1260752812,
				"z": 3.7849861991,
				"element": "H" 
			},
			{
				"x": -0.7112390121,
				"y": 2.8098695525,
				"z": 3.463318696,
				"element": "H" 
			},
			{
				"x": -0.5215791306,
				"y": 1.4563181159,
				"z": 1.4100454425,
				"element": "H" 
			},
			{
				"x": -1.4068070782,
				"y": -3.0086639841,
				"z": -2.4984133109,
				"element": "H" 
			},
			{
				"x": -3.3836202465,
				"y": -3.6747876162,
				"z": -1.1621469157,
				"element": "H" 
			},
			{
				"x": -2.9174531369,
				"y": -2.5755094679,
				"z": 0.1436347362,
				"element": "H" 
			},
			{
				"x": -3.4084468697,
				"y": -1.9196786315,
				"z": -1.4315250765,
				"element": "H" 
			},
			{
				"x": -0.4545538631,
				"y": -3.6566799096,
				"z": 0.0517652986,
				"element": "H" 
			}
		],
		 "valence_orbital": [ 
			{
				"type": "occ",
				"energy": -0.28583,
				"method": "rhf"
			},
			{
				"type": "occ",
				"energy": -0.27698,
				"method": "rhf"
			},
			{
				"type": "occ",
				"energy": -0.26753,
				"method": "rhf"
			},
			{
				"type": "occ",
				"energy": -0.26486,
				"method": "rhf"
			},
			{
				"type": "occ",
				"energy": -0.25219,
				"method": "rhf"
			},
			{
				"type": "unocc",
				"energy": -0.06501,
				"method": "rhf"
			},
			{
				"type": "unocc",
				"energy": -0.03936,
				"method": "rhf"
			},
			{
				"type": "unocc",
				"energy": -0.01249,
				"method": "rhf"
			},
			{
				"type": "unocc",
				"energy": -0.00716,
				"method": "rhf"
			},
			{
				"type": "unocc",
				"energy": 0.03041,
				"method": "rhf"
			}
		],
		"cosmo_sigma_profile": { 
			"-0.025": 0.0,
			"-0.024": 0.0,
			"-0.023": 0.0,
			"-0.022": 0.0,
			"-0.021": 0.0,
			"-0.02": 0.0,
			"-0.019": 0.0,
			"-0.018": 0.0,
			"-0.017": 0.0,
			"-0.016": 0.0,
			"-0.015": 0.0,
			"-0.014": 0.0,
			"-0.013": 0.0,
			"-0.012": 0.269478389496,
			"-0.011": 0.85387781259,
			"-0.01": 1.33669755823,
			"-0.009": 2.0366831002,
			"-0.008": 5.93315674912,
			"-0.007": 7.51209535978,
			"-0.006": 10.0334529647,
			"-0.005": 15.9130102996,
			"-0.004": 28.9692371659,
			"-0.003": 32.5878028329,
			"-0.002": 31.7413546715,
			"-0.001": 34.8273338507,
			"0.0": 40.6683492841,
			"0.001": 29.1254024043,
			"0.002": 19.0268508968,
			"0.003": 20.9048702088,
			"0.004": 16.943760363,
			"0.005": 6.12764250117,
			"0.006": 3.86436984842,
			"0.007": 4.50556131412,
			"0.008": 3.12224328072,
			"0.009": 4.34379013476,
			"0.01": 5.10050464978,
			"0.011": 7.16604841913,
			"0.012": 3.8311442432,
			"0.013": 1.36909572474,
			"0.014": 2.21091351754,
			"0.015": 1.49945807456,
			"0.016": 0.0,
			"0.017": 0.0,
			"0.018": 0.0,
			"0.019": 0.0,
			"0.02": 0.0,
			"0.021": 0.0,
			"0.022": 0.0,
			"0.023": 0.0,
			"0.024": 0.0,
			"0.025": 0.0
		}
	}
}
