{
	 "smiles": "COC1=C2OC(C=O)=CC2=CC=C1", 
	 "Tm": 319.15, 
	 "num_atms": 21, 
	 "gaussian": { 
		 "optdone": 1, 
		 "sigma_profile": "yes", 
		 "theory": "DFT", 
		 "functional": "B3LYP", 
		 "basiset": "6-31G**", 
		 "properties": { 
			 "R2extent": 3015.9999, 
			 "electric_dipole_moment_norm": 2.61995102817, 
			 "electric_quadrupole_moment_norm": 11.2524585776, 
			 "total_energy": -611.515113611, 
			 "HOMO_LUMO_gap": 0.14365, 
			 "cosmo_polarized_energy": -10.05, 
			 "cosmo_cavitation_energy": 25.92, 
			 "cosmo_dispersion_energy": -18.84, 
			 "cosmo_repulsion_energy": 1.48, 
			 "cosmo_total_nonelectrostatic_energy": 8.56, 
			 "SMD_solvation_energy": 6.65 
		},
		"coords": [
			{
				"x": -0.4984861224,
				"y": -4.2104829286,
				"z": 0.6837042643,
				"element": "C" 
			},
			{
				"x": -1.2344822815,
				"y": -3.5763183919,
				"z": -0.3658567117,
				"element": "O" 
			},
			{
				"x": -1.0269694372,
				"y": -2.2658752044,
				"z": -0.6491615282,
				"element": "C" 
			},
			{
				"x": -0.1331365382,
				"y": -1.3846920274,
				"z": -0.0173387715,
				"element": "C" 
			},
			{
				"x": 0.715019015,
				"y": -1.6719787778,
				"z": 1.0187216678,
				"element": "O" 
			},
			{
				"x": 1.3883936361,
				"y": -0.5086247249,
				"z": 1.3004539512,
				"element": "C" 
			},
			{
				"x": 2.3727808628,
				"y": -0.5177208184,
				"z": 2.376620534,
				"element": "C" 
			},
			{
				"x": 2.6513942507,
				"y": -1.4861327356,
				"z": 3.0592568009,
				"element": "O" 
			},
			{
				"x": 0.9945619559,
				"y": 0.5092598858,
				"z": 0.4758046427,
				"element": "C" 
			},
			{
				"x": -0.0028400011,
				"y": -0.0301718211,
				"z": -0.4017162228,
				"element": "C" 
			},
			{
				"x": -0.7786737885,
				"y": 0.4919378556,
				"z": -1.4502984134,
				"element": "C" 
			},
			{
				"x": -1.663983143,
				"y": -0.372651242,
				"z": -2.0793658657,
				"element": "C" 
			},
			{
				"x": -1.7850293205,
				"y": -1.7168462561,
				"z": -1.6889240544,
				"element": "C" 
			},
			{
				"x": -0.6924212994,
				"y": -3.7403641694,
				"z": 1.6521229435,
				"element": "H" 
			},
			{
				"x": -0.8523479674,
				"y": -5.242221567,
				"z": 0.6995627965,
				"element": "H" 
			},
			{
				"x": 0.5775082368,
				"y": -4.1938518144,
				"z": 0.4876883672,
				"element": "H" 
			},
			{
				"x": 2.8601170552,
				"y": 0.4694727165,
				"z": 2.5269202824,
				"element": "H" 
			},
			{
				"x": 1.3735791195,
				"y": 1.5218388594,
				"z": 0.4954202423,
				"element": "H" 
			},
			{
				"x": -0.6864237291,
				"y": 1.5294696906,
				"z": -1.7529061837,
				"element": "H" 
			},
			{
				"x": -2.2834630923,
				"y": -0.0118702479,
				"z": -2.8948284143,
				"element": "H" 
			},
			{
				"x": -2.4831974115,
				"y": -2.376476281,
				"z": -2.193580327,
				"element": "H" 
			}
		],
		 "valence_orbital": [ 
			{
				"type": "occ",
				"energy": -0.33403,
				"method": "rhf"
			},
			{
				"type": "occ",
				"energy": -0.28968,
				"method": "rhf"
			},
			{
				"type": "occ",
				"energy": -0.26147,
				"method": "rhf"
			},
			{
				"type": "occ",
				"energy": -0.24611,
				"method": "rhf"
			},
			{
				"type": "occ",
				"energy": -0.217,
				"method": "rhf"
			},
			{
				"type": "unocc",
				"energy": -0.07335,
				"method": "rhf"
			},
			{
				"type": "unocc",
				"energy": 0.00471,
				"method": "rhf"
			},
			{
				"type": "unocc",
				"energy": 0.0139,
				"method": "rhf"
			},
			{
				"type": "unocc",
				"energy": 0.07717,
				"method": "rhf"
			},
			{
				"type": "unocc",
				"energy": 0.08171,
				"method": "rhf"
			}
		],
		"cosmo_sigma_profile": { 
			"-0.025": 0.0,
			"-0.024": 0.0,
			"-0.023": 0.0,
			"-0.022": 0.0,
			"-0.021": 0.0,
			"-0.02": 0.0,
			"-0.019": 0.0,
			"-0.018": 0.0,
			"-0.017": 0.0,
			"-0.016": 0.0,
			"-0.015": 0.0,
			"-0.014": 0.0,
			"-0.013": 0.0,
			"-0.012": 0.0,
			"-0.011": 0.0,
			"-0.01": 0.0420465980911,
			"-0.009": 2.56658682829,
			"-0.008": 4.3610073489,
			"-0.007": 6.08820805961,
			"-0.006": 12.6221170646,
			"-0.005": 15.9966058459,
			"-0.004": 18.6773409637,
			"-0.003": 17.4497782857,
			"-0.002": 13.0094786263,
			"-0.001": 14.3421281181,
			"0.0": 15.3181772677,
			"0.001": 13.1351228712,
			"0.002": 14.5852944927,
			"0.003": 12.4876914178,
			"0.004": 12.2978188615,
			"0.005": 7.75924601571,
			"0.006": 3.34423347779,
			"0.007": 3.22949429008,
			"0.008": 3.69119105143,
			"0.009": 3.31573629062,
			"0.01": 4.29397282679,
			"0.011": 4.85595617775,
			"0.012": 3.90219264112,
			"0.013": 0.912316545739,
			"0.014": 0.0,
			"0.015": 0.0,
			"0.016": 0.0,
			"0.017": 0.0,
			"0.018": 0.0,
			"0.019": 0.0,
			"0.02": 0.0,
			"0.021": 0.0,
			"0.022": 0.0,
			"0.023": 0.0,
			"0.024": 0.0,
			"0.025": 0.0
		}
	}
}
