{
	 "smiles": "CC(C)(C)OC(=O)NCCC1=NN=C2CCCCN12", 
	 "Tm": 432.15, 
	 "num_atms": 41, 
	 "gaussian": { 
		 "optdone": 1, 
		 "sigma_profile": "yes", 
		 "theory": "DFT", 
		 "functional": "B3LYP", 
		 "basiset": "6-31G**", 
		 "properties": { 
			 "R2extent": 6702.2834, 
			 "electric_dipole_moment_norm": 7.19588456342, 
			 "electric_quadrupole_moment_norm": 22.08861191, 
			 "total_energy": -878.134057165, 
			 "HOMO_LUMO_gap": 0.2578, 
			 "cosmo_polarized_energy": -22.52, 
			 "cosmo_cavitation_energy": 41.43, 
			 "cosmo_dispersion_energy": -28.25, 
			 "cosmo_repulsion_energy": 2.19, 
			 "cosmo_total_nonelectrostatic_energy": 15.37, 
			 "SMD_solvation_energy": 4.29 
		},
		"coords": [
			{
				"x": 3.9990052839,
				"y": -1.6130879617,
				"z": -0.7518520589,
				"element": "C" 
			},
			{
				"x": 2.7467090191,
				"y": -2.461437752,
				"z": -0.9964178618,
				"element": "C" 
			},
			{
				"x": 2.240212542,
				"y": -3.1304622414,
				"z": 0.2858262103,
				"element": "C" 
			},
			{
				"x": 2.9995007347,
				"y": -3.5037212114,
				"z": -2.0888470478,
				"element": "C" 
			},
			{
				"x": 1.6855234714,
				"y": -1.6303671746,
				"z": -1.589037701,
				"element": "O" 
			},
			{
				"x": 1.1704549191,
				"y": -0.5699250161,
				"z": -0.9205129054,
				"element": "C" 
			},
			{
				"x": 1.4848923323,
				"y": -0.1991719407,
				"z": 0.2021364622,
				"element": "O" 
			},
			{
				"x": 0.2043434559,
				"y": 0.0189348812,
				"z": -1.6893054795,
				"element": "N" 
			},
			{
				"x": -0.3687002985,
				"y": 1.3219965451,
				"z": -1.3790956746,
				"element": "C" 
			},
			{
				"x": -1.9136838994,
				"y": 1.3135984508,
				"z": -1.2066943674,
				"element": "C" 
			},
			{
				"x": -2.4250577286,
				"y": 1.3307241239,
				"z": 0.2000967108,
				"element": "C" 
			},
			{
				"x": -3.004027015,
				"y": 2.3806330144,
				"z": 0.7447590136,
				"element": "N" 
			},
			{
				"x": -3.3517646458,
				"y": 2.0512089372,
				"z": 2.038812269,
				"element": "N" 
			},
			{
				"x": -2.9766590471,
				"y": 0.8089996241,
				"z": 2.2393336739,
				"element": "C" 
			},
			{
				"x": -3.1724373975,
				"y": -0.0161092558,
				"z": 3.47508929,
				"element": "C" 
			},
			{
				"x": -2.2388604655,
				"y": -1.2391942062,
				"z": 3.4758236008,
				"element": "C" 
			},
			{
				"x": -2.2778497574,
				"y": -1.942895029,
				"z": 2.1109969593,
				"element": "C" 
			},
			{
				"x": -1.756434584,
				"y": -1.0215065687,
				"z": 1.0029902674,
				"element": "C" 
			},
			{
				"x": -2.3899724414,
				"y": 0.2961662532,
				"z": 1.1064153177,
				"element": "N" 
			},
			{
				"x": 4.818397025,
				"y": -2.2559429459,
				"z": -0.4143702994,
				"element": "H" 
			},
			{
				"x": 4.3126019565,
				"y": -1.1227081326,
				"z": -1.6788464663,
				"element": "H" 
			},
			{
				"x": 3.813692492,
				"y": -0.8519036075,
				"z": 0.0064719497,
				"element": "H" 
			},
			{
				"x": 2.0547635299,
				"y": -2.3911318167,
				"z": 1.0652618182,
				"element": "H" 
			},
			{
				"x": 2.9876152754,
				"y": -3.8440451263,
				"z": 0.6474085248,
				"element": "H" 
			},
			{
				"x": 1.3153676155,
				"y": -3.6817566208,
				"z": 0.0867812123,
				"element": "H" 
			},
			{
				"x": 3.7860207634,
				"y": -4.1954115917,
				"z": -1.7731769571,
				"element": "H" 
			},
			{
				"x": 3.3157639127,
				"y": -3.0205447477,
				"z": -3.0178167264,
				"element": "H" 
			},
			{
				"x": 2.0920583779,
				"y": -4.0801661318,
				"z": -2.2914527801,
				"element": "H" 
			},
			{
				"x": 0.1136316655,
				"y": -0.3383064963,
				"z": -2.6294273566,
				"element": "H" 
			},
			{
				"x": 0.120292103,
				"y": 1.6783804063,
				"z": -0.4708442274,
				"element": "H" 
			},
			{
				"x": -0.1101734405,
				"y": 2.0179678926,
				"z": -2.1859420846,
				"element": "H" 
			},
			{
				"x": -2.3236969868,
				"y": 2.2204769238,
				"z": -1.6591772954,
				"element": "H" 
			},
			{
				"x": -2.3284212656,
				"y": 0.464198031,
				"z": -1.7647619804,
				"element": "H" 
			},
			{
				"x": -3.0152691306,
				"y": 0.6149998302,
				"z": 4.3545756599,
				"element": "H" 
			},
			{
				"x": -4.217203099,
				"y": -0.3536405402,
				"z": 3.517538436,
				"element": "H" 
			},
			{
				"x": -2.5328077137,
				"y": -1.9316703046,
				"z": 4.271061959,
				"element": "H" 
			},
			{
				"x": -1.2100641824,
				"y": -0.9232890739,
				"z": 3.6914763313,
				"element": "H" 
			},
			{
				"x": -3.3071426592,
				"y": -2.2507761622,
				"z": 1.8856492491,
				"element": "H" 
			},
			{
				"x": -1.6652327788,
				"y": -2.8505319615,
				"z": 2.1215531221,
				"element": "H" 
			},
			{
				"x": -0.6721920292,
				"y": -0.8945311158,
				"z": 1.0913034744,
				"element": "H" 
			},
			{
				"x": -1.9651959095,
				"y": -1.4364501806,
				"z": 0.0120177583,
				"element": "H" 
			}
		],
		 "valence_orbital": [ 
			{
				"type": "occ",
				"energy": -0.27442,
				"method": "rhf"
			},
			{
				"type": "occ",
				"energy": -0.26759,
				"method": "rhf"
			},
			{
				"type": "occ",
				"energy": -0.26386,
				"method": "rhf"
			},
			{
				"type": "occ",
				"energy": -0.23126,
				"method": "rhf"
			},
			{
				"type": "occ",
				"energy": -0.22752,
				"method": "rhf"
			},
			{
				"type": "unocc",
				"energy": 0.03028,
				"method": "rhf"
			},
			{
				"type": "unocc",
				"energy": 0.04174,
				"method": "rhf"
			},
			{
				"type": "unocc",
				"energy": 0.05441,
				"method": "rhf"
			},
			{
				"type": "unocc",
				"energy": 0.07128,
				"method": "rhf"
			},
			{
				"type": "unocc",
				"energy": 0.0843,
				"method": "rhf"
			}
		],
		"cosmo_sigma_profile": { 
			"-0.025": 0.0,
			"-0.024": 0.0,
			"-0.023": 0.0,
			"-0.022": 0.0,
			"-0.021": 0.0,
			"-0.02": 0.0,
			"-0.019": 0.0,
			"-0.018": 0.0,
			"-0.017": 0.0,
			"-0.016": 0.0,
			"-0.015": 0.0,
			"-0.014": 0.650773743373,
			"-0.013": 1.05505858577,
			"-0.012": 1.41981103504,
			"-0.011": 0.865081249941,
			"-0.01": 0.733856247129,
			"-0.009": 1.17883881511,
			"-0.008": 1.36180817296,
			"-0.007": 1.76966584416,
			"-0.006": 7.67863119905,
			"-0.005": 17.6159176458,
			"-0.004": 37.7557383701,
			"-0.003": 43.9591149428,
			"-0.002": 40.3006184213,
			"-0.001": 37.2560399543,
			"0.0": 34.6360958303,
			"0.001": 22.8649723857,
			"0.002": 8.28874292288,
			"0.003": 6.39982229165,
			"0.004": 5.77909779382,
			"0.005": 5.44146027126,
			"0.006": 4.92800739578,
			"0.007": 5.86605104552,
			"0.008": 3.69397573207,
			"0.009": 2.19430073683,
			"0.01": 2.51530839346,
			"0.011": 3.35348509742,
			"0.012": 3.95307506762,
			"0.013": 4.69713025055,
			"0.014": 3.45377110847,
			"0.015": 3.71917864134,
			"0.016": 2.64713289415,
			"0.017": 2.69589262242,
			"0.018": 1.80358426274,
			"0.019": 0.128668407206,
			"0.02": 0.0,
			"0.021": 0.0,
			"0.022": 0.0,
			"0.023": 0.0,
			"0.024": 0.0,
			"0.025": 0.0
		}
	}
}
