{
	 "smiles": "COC(=O)CN1C=C(N=N1)C(C)=O", 
	 "Tm": 353.15, 
	 "num_atms": 22, 
	 "gaussian": { 
		 "optdone": 1, 
		 "sigma_profile": "yes", 
		 "theory": "DFT", 
		 "functional": "B3LYP", 
		 "basiset": "6-31G**", 
		 "properties": { 
			 "R2extent": 3467.5998, 
			 "electric_dipole_moment_norm": 5.24968263993, 
			 "electric_quadrupole_moment_norm": 17.8188496385, 
			 "total_energy": -662.057833574, 
			 "HOMO_LUMO_gap": 0.2059, 
			 "cosmo_polarized_energy": -16.73, 
			 "cosmo_cavitation_energy": 27.95, 
			 "cosmo_dispersion_energy": -20.0, 
			 "cosmo_repulsion_energy": 1.61, 
			 "cosmo_total_nonelectrostatic_energy": 9.57, 
			 "SMD_solvation_energy": 5.98 
		},
		"coords": [
			{
				"x": -2.7904396136,
				"y": 0.5037275803,
				"z": 3.6703404269,
				"element": "C" 
			},
			{
				"x": -2.4877184127,
				"y": 0.8554179188,
				"z": 2.3042946316,
				"element": "O" 
			},
			{
				"x": -1.4275532649,
				"y": 0.2308086386,
				"z": 1.7686167231,
				"element": "C" 
			},
			{
				"x": -0.7293131989,
				"y": -0.5720765087,
				"z": 2.3416391729,
				"element": "O" 
			},
			{
				"x": -1.2758085926,
				"y": 0.6541650639,
				"z": 0.3094662036,
				"element": "C" 
			},
			{
				"x": 0.0180748816,
				"y": 0.3145023884,
				"z": -0.2407366537,
				"element": "N" 
			},
			{
				"x": 0.642647102,
				"y": -0.8772872048,
				"z": -0.3345570722,
				"element": "C" 
			},
			{
				"x": 1.8375750378,
				"y": -0.5855806621,
				"z": -0.9683780837,
				"element": "C" 
			},
			{
				"x": 1.8743777445,
				"y": 0.7605109983,
				"z": -1.2202037139,
				"element": "N" 
			},
			{
				"x": 0.7848175844,
				"y": 1.30976091,
				"z": -0.7867519366,
				"element": "N" 
			},
			{
				"x": 2.9173244779,
				"y": -1.5301307075,
				"z": -1.3307455297,
				"element": "C" 
			},
			{
				"x": 4.1452057191,
				"y": -0.9517826483,
				"z": -1.9990034469,
				"element": "C" 
			},
			{
				"x": 2.7937023186,
				"y": -2.7217550944,
				"z": -1.0880878753,
				"element": "O" 
			},
			{
				"x": -2.9928806217,
				"y": -0.5665454186,
				"z": 3.7520202515,
				"element": "H" 
			},
			{
				"x": -3.6736731313,
				"y": 1.0849918966,
				"z": 3.931491485,
				"element": "H" 
			},
			{
				"x": -1.9524139896,
				"y": 0.7603178104,
				"z": 4.3219189844,
				"element": "H" 
			},
			{
				"x": -2.0780622123,
				"y": 0.1813840202,
				"z": -0.2694657067,
				"element": "H" 
			},
			{
				"x": -1.3893792762,
				"y": 1.7351284958,
				"z": 0.2133058433,
				"element": "H" 
			},
			{
				"x": 0.2393459286,
				"y": -1.7983701218,
				"z": 0.0512739124,
				"element": "H" 
			},
			{
				"x": 3.8674535861,
				"y": -0.4193901101,
				"z": -2.91449997,
				"element": "H" 
			},
			{
				"x": 4.6205592352,
				"y": -0.2134382855,
				"z": -1.3445569197,
				"element": "H" 
			},
			{
				"x": 4.8437586979,
				"y": -1.7577589596,
				"z": -2.2261807264,
				"element": "H" 
			}
		],
		 "valence_orbital": [ 
			{
				"type": "occ",
				"energy": -0.30948,
				"method": "rhf"
			},
			{
				"type": "occ",
				"energy": -0.30367,
				"method": "rhf"
			},
			{
				"type": "occ",
				"energy": -0.27933,
				"method": "rhf"
			},
			{
				"type": "occ",
				"energy": -0.26481,
				"method": "rhf"
			},
			{
				"type": "occ",
				"energy": -0.2462,
				"method": "rhf"
			},
			{
				"type": "unocc",
				"energy": -0.0403,
				"method": "rhf"
			},
			{
				"type": "unocc",
				"energy": -0.01772,
				"method": "rhf"
			},
			{
				"type": "unocc",
				"energy": -0.01302,
				"method": "rhf"
			},
			{
				"type": "unocc",
				"energy": 0.08421,
				"method": "rhf"
			},
			{
				"type": "unocc",
				"energy": 0.08933,
				"method": "rhf"
			}
		],
		"cosmo_sigma_profile": { 
			"-0.025": 0.0,
			"-0.024": 0.0,
			"-0.023": 0.0,
			"-0.022": 0.0,
			"-0.021": 0.0,
			"-0.02": 0.0,
			"-0.019": 0.0,
			"-0.018": 0.0,
			"-0.017": 0.0,
			"-0.016": 0.0,
			"-0.015": 0.0,
			"-0.014": 0.0,
			"-0.013": 0.0,
			"-0.012": 0.0,
			"-0.011": 1.48724736828,
			"-0.01": 6.41750695744,
			"-0.009": 4.50150150201,
			"-0.008": 5.44556058255,
			"-0.007": 7.92184647924,
			"-0.006": 13.6620677269,
			"-0.005": 17.7586802981,
			"-0.004": 20.766693265,
			"-0.003": 15.7859633805,
			"-0.002": 14.6614401883,
			"-0.001": 17.8606421757,
			"0.0": 12.1912156059,
			"0.001": 8.05295414628,
			"0.002": 6.99563723507,
			"0.003": 7.15862612633,
			"0.004": 5.34288832727,
			"0.005": 6.40859936774,
			"0.006": 6.43288935882,
			"0.007": 5.27983536647,
			"0.008": 5.4807444622,
			"0.009": 7.83864766331,
			"0.01": 7.99627435405,
			"0.011": 8.12851653062,
			"0.012": 6.11604784533,
			"0.013": 2.37179086512,
			"0.014": 0.548419887409,
			"0.015": 0.0,
			"0.016": 0.0,
			"0.017": 0.0,
			"0.018": 0.0,
			"0.019": 0.0,
			"0.02": 0.0,
			"0.021": 0.0,
			"0.022": 0.0,
			"0.023": 0.0,
			"0.024": 0.0,
			"0.025": 0.0
		}
	}
}
