{
	 "smiles": "CC1=C(C(NC(=O)N1)C1=CC=CC=C1)C(N)=O", 
	 "Tm": 534.15, 
	 "num_atms": 30, 
	 "gaussian": { 
		 "optdone": 1, 
		 "sigma_profile": "yes", 
		 "theory": "DFT", 
		 "functional": "B3LYP", 
		 "basiset": "6-31G**", 
		 "properties": { 
			 "R2extent": 3861.6975, 
			 "electric_dipole_moment_norm": 3.94339867247, 
			 "electric_quadrupole_moment_norm": 24.7159646241, 
			 "total_energy": -779.851303083, 
			 "HOMO_LUMO_gap": 0.1868, 
			 "cosmo_polarized_energy": -21.62, 
			 "cosmo_cavitation_energy": 32.69, 
			 "cosmo_dispersion_energy": -23.67, 
			 "cosmo_repulsion_energy": 1.84, 
			 "cosmo_total_nonelectrostatic_energy": 10.86, 
			 "SMD_solvation_energy": 6.12 
		},
		"coords": [
			{
				"x": -2.6036863209,
				"y": -0.0534929302,
				"z": 2.2306847783,
				"element": "C" 
			},
			{
				"x": -1.2601199282,
				"y": -0.3967189071,
				"z": 1.6416111856,
				"element": "C" 
			},
			{
				"x": -0.1929494377,
				"y": 0.4232807484,
				"z": 1.4397061428,
				"element": "C" 
			},
			{
				"x": 0.9661689737,
				"y": -0.1289592616,
				"z": 0.6058625296,
				"element": "C" 
			},
			{
				"x": 1.1337327456,
				"y": -1.5396686928,
				"z": 0.9665793355,
				"element": "N" 
			},
			{
				"x": 0.0641056209,
				"y": -2.3895686569,
				"z": 1.0380446147,
				"element": "C" 
			},
			{
				"x": 0.1193160822,
				"y": -3.6087174896,
				"z": 0.966490607,
				"element": "O" 
			},
			{
				"x": -1.1527454845,
				"y": -1.7235827334,
				"z": 1.2438507702,
				"element": "N" 
			},
			{
				"x": 0.7842139799,
				"y": 0.0943910531,
				"z": -0.9081189723,
				"element": "C" 
			},
			{
				"x": 0.5545160294,
				"y": -0.9658319111,
				"z": -1.7934417149,
				"element": "C" 
			},
			{
				"x": 0.3964053971,
				"y": -0.7292817852,
				"z": -3.1622303204,
				"element": "C" 
			},
			{
				"x": 0.4712080912,
				"y": 0.5678966579,
				"z": -3.6658404615,
				"element": "C" 
			},
			{
				"x": 0.7087422914,
				"y": 1.6300687301,
				"z": -2.7896321404,
				"element": "C" 
			},
			{
				"x": 0.8651681655,
				"y": 1.3976837441,
				"z": -1.4243345135,
				"element": "C" 
			},
			{
				"x": -0.0138993358,
				"y": 1.7985692008,
				"z": 1.9557940123,
				"element": "C" 
			},
			{
				"x": -0.8219067402,
				"y": 2.2279682162,
				"z": 2.9968031064,
				"element": "N" 
			},
			{
				"x": 0.8397781735,
				"y": 2.556810952,
				"z": 1.4937633002,
				"element": "O" 
			},
			{
				"x": -3.3904731455,
				"y": -0.5280610954,
				"z": 1.6332005163,
				"element": "H" 
			},
			{
				"x": -2.7039692422,
				"y": -0.4372671354,
				"z": 3.2544562924,
				"element": "H" 
			},
			{
				"x": -2.7803291042,
				"y": 1.0204542779,
				"z": 2.2361001964,
				"element": "H" 
			},
			{
				"x": 1.871288496,
				"y": 0.3998717668,
				"z": 0.9148476497,
				"element": "H" 
			},
			{
				"x": 1.9935137921,
				"y": -2.00121366,
				"z": 0.7023465742,
				"element": "H" 
			},
			{
				"x": -1.9373276709,
				"y": -2.3486176616,
				"z": 1.3610778292,
				"element": "H" 
			},
			{
				"x": 0.5067567575,
				"y": -1.9873703614,
				"z": -1.4313192504,
				"element": "H" 
			},
			{
				"x": 0.2185043092,
				"y": -1.5661537717,
				"z": -3.8320537566,
				"element": "H" 
			},
			{
				"x": 0.3510232977,
				"y": 0.7505899954,
				"z": -4.7300226244,
				"element": "H" 
			},
			{
				"x": 0.7769401135,
				"y": 2.6453317284,
				"z": -3.1711197894,
				"element": "H" 
			},
			{
				"x": 1.0465385456,
				"y": 2.2212973732,
				"z": -0.7417570968,
				"element": "H" 
			},
			{
				"x": -1.1432591245,
				"y": 1.5531165928,
				"z": 3.6746439042,
				"element": "H" 
			},
			{
				"x": -0.5222553274,
				"y": 3.1141750162,
				"z": 3.3821072956,
				"element": "H" 
			}
		],
		 "valence_orbital": [ 
			{
				"type": "occ",
				"energy": -0.25821,
				"method": "rhf"
			},
			{
				"type": "occ",
				"energy": -0.25687,
				"method": "rhf"
			},
			{
				"type": "occ",
				"energy": -0.24139,
				"method": "rhf"
			},
			{
				"type": "occ",
				"energy": -0.23758,
				"method": "rhf"
			},
			{
				"type": "occ",
				"energy": -0.2265,
				"method": "rhf"
			},
			{
				"type": "unocc",
				"energy": -0.0397,
				"method": "rhf"
			},
			{
				"type": "unocc",
				"energy": 0.00493,
				"method": "rhf"
			},
			{
				"type": "unocc",
				"energy": 0.00825,
				"method": "rhf"
			},
			{
				"type": "unocc",
				"energy": 0.0482,
				"method": "rhf"
			},
			{
				"type": "unocc",
				"energy": 0.06445,
				"method": "rhf"
			}
		],
		"cosmo_sigma_profile": { 
			"-0.025": 0.0,
			"-0.024": 0.0,
			"-0.023": 0.0,
			"-0.022": 0.0,
			"-0.021": 0.0,
			"-0.02": 0.0,
			"-0.019": 0.0,
			"-0.018": 0.0,
			"-0.017": 0.0,
			"-0.016": 0.00702091255769,
			"-0.015": 0.769688819673,
			"-0.014": 1.98936137913,
			"-0.013": 4.24693575036,
			"-0.012": 4.83255044095,
			"-0.011": 3.87534509627,
			"-0.01": 5.20434663892,
			"-0.009": 5.20693179897,
			"-0.008": 4.73593041254,
			"-0.007": 5.52757799348,
			"-0.006": 10.2340777352,
			"-0.005": 14.5535732532,
			"-0.004": 16.1134732858,
			"-0.003": 18.0028311744,
			"-0.002": 17.8135973304,
			"-0.001": 18.4865064198,
			"0.0": 12.0369915443,
			"0.001": 11.9548412729,
			"0.002": 12.616047999,
			"0.003": 15.2863913639,
			"0.004": 14.314520496,
			"0.005": 13.495427977,
			"0.006": 13.0466663207,
			"0.007": 5.6761348807,
			"0.008": 2.91897878714,
			"0.009": 2.4364834547,
			"0.01": 1.95938367842,
			"0.011": 3.61311994231,
			"0.012": 2.84646325785,
			"0.013": 7.85366979019,
			"0.014": 6.92391212399,
			"0.015": 0.645297921291,
			"0.016": 0.0,
			"0.017": 0.0,
			"0.018": 0.0,
			"0.019": 0.0,
			"0.02": 0.0,
			"0.021": 0.0,
			"0.022": 0.0,
			"0.023": 0.0,
			"0.024": 0.0,
			"0.025": 0.0
		}
	}
}
