{
	 "smiles": "NCCC(=O)NC(CC1=CNC=N1)C(O)=O", 
	 "Tm": 533.15, 
	 "num_atms": 30, 
	 "gaussian": { 
		 "optdone": 1, 
		 "sigma_profile": "yes", 
		 "theory": "DFT", 
		 "functional": "B3LYP", 
		 "basiset": "6-31G**", 
		 "properties": { 
			 "R2extent": 3784.3551, 
			 "electric_dipole_moment_norm": 6.89324978076, 
			 "electric_quadrupole_moment_norm": 17.1004692395, 
			 "total_energy": -796.103535001, 
			 "HOMO_LUMO_gap": 0.20498, 
			 "cosmo_polarized_energy": -26.38, 
			 "cosmo_cavitation_energy": 33.7, 
			 "cosmo_dispersion_energy": -22.83, 
			 "cosmo_repulsion_energy": 1.8, 
			 "cosmo_total_nonelectrostatic_energy": 12.67, 
			 "SMD_solvation_energy": 5.4 
		},
		"coords": [
			{
				"x": 0.9145078829,
				"y": -2.875310309,
				"z": 0.7421715467,
				"element": "N" 
			},
			{
				"x": 2.1604764453,
				"y": -2.6124423565,
				"z": 0.0352700105,
				"element": "C" 
			},
			{
				"x": 2.0876418133,
				"y": -1.6456613454,
				"z": -1.1775404912,
				"element": "C" 
			},
			{
				"x": 1.8451862819,
				"y": -0.2112774411,
				"z": -0.7372866981,
				"element": "C" 
			},
			{
				"x": 2.7230590161,
				"y": 0.4674782832,
				"z": -0.2068658498,
				"element": "O" 
			},
			{
				"x": 0.583956325,
				"y": 0.2724600644,
				"z": -0.9335295724,
				"element": "N" 
			},
			{
				"x": 0.2094676379,
				"y": 1.597700745,
				"z": -0.4935607035,
				"element": "C" 
			},
			{
				"x": 0.0945429318,
				"y": 1.7362108039,
				"z": 1.0551577681,
				"element": "C" 
			},
			{
				"x": -1.0056417139,
				"y": 0.9319224183,
				"z": 1.6761164592,
				"element": "C" 
			},
			{
				"x": -2.2137364776,
				"y": 1.3787158654,
				"z": 2.1600980268,
				"element": "C" 
			},
			{
				"x": -2.8681871867,
				"y": 0.2560373451,
				"z": 2.624821677,
				"element": "N" 
			},
			{
				"x": -2.0455486655,
				"y": -0.8096077956,
				"z": 2.4073972023,
				"element": "C" 
			},
			{
				"x": -0.9186949241,
				"y": -0.4398944098,
				"z": 1.8379137004,
				"element": "N" 
			},
			{
				"x": -1.0948337681,
				"y": 1.9676033147,
				"z": -1.1773315163,
				"element": "C" 
			},
			{
				"x": -1.4430989566,
				"y": 3.2500484157,
				"z": -0.9360287103,
				"element": "O" 
			},
			{
				"x": -1.7711596812,
				"y": 1.217654697,
				"z": -1.8485370178,
				"element": "O" 
			},
			{
				"x": 0.5131005312,
				"y": -2.0230794524,
				"z": 1.1363878005,
				"element": "H" 
			},
			{
				"x": 0.2217555993,
				"y": -3.254368123,
				"z": 0.1003303723,
				"element": "H" 
			},
			{
				"x": 2.5681808196,
				"y": -3.5672308771,
				"z": -0.3191316118,
				"element": "H" 
			},
			{
				"x": 2.8869798385,
				"y": -2.2048231195,
				"z": 0.7469905915,
				"element": "H" 
			},
			{
				"x": 3.0486651553,
				"y": -1.653750471,
				"z": -1.7034898462,
				"element": "H" 
			},
			{
				"x": 1.3169451336,
				"y": -1.9894706599,
				"z": -1.8793660025,
				"element": "H" 
			},
			{
				"x": -0.1460868993,
				"y": -0.3000813222,
				"z": -1.3323803704,
				"element": "H" 
			},
			{
				"x": 0.9835146394,
				"y": 2.3053899126,
				"z": -0.8144257438,
				"element": "H" 
			},
			{
				"x": -0.0450883289,
				"y": 2.7956010734,
				"z": 1.2891309469,
				"element": "H" 
			},
			{
				"x": 1.0643769961,
				"y": 1.4292180397,
				"z": 1.4548658938,
				"element": "H" 
			},
			{
				"x": -2.6463256497,
				"y": 2.3652797603,
				"z": 2.2216641081,
				"element": "H" 
			},
			{
				"x": -3.7778730658,
				"y": 0.2318119459,
				"z": 3.0594030208,
				"element": "H" 
			},
			{
				"x": -2.3126710138,
				"y": -1.8193775958,
				"z": 2.6867027999,
				"element": "H" 
			},
			{
				"x": -2.2872107161,
				"y": 3.3933425936,
				"z": -1.3962477907,
				"element": "H" 
			}
		],
		 "valence_orbital": [ 
			{
				"type": "occ",
				"energy": -0.2815,
				"method": "rhf"
			},
			{
				"type": "occ",
				"energy": -0.25073,
				"method": "rhf"
			},
			{
				"type": "occ",
				"energy": -0.23732,
				"method": "rhf"
			},
			{
				"type": "occ",
				"energy": -0.22915,
				"method": "rhf"
			},
			{
				"type": "occ",
				"energy": -0.20936,
				"method": "rhf"
			},
			{
				"type": "unocc",
				"energy": -0.00438,
				"method": "rhf"
			},
			{
				"type": "unocc",
				"energy": 0.01784,
				"method": "rhf"
			},
			{
				"type": "unocc",
				"energy": 0.03537,
				"method": "rhf"
			},
			{
				"type": "unocc",
				"energy": 0.05105,
				"method": "rhf"
			},
			{
				"type": "unocc",
				"energy": 0.06355,
				"method": "rhf"
			}
		],
		"cosmo_sigma_profile": { 
			"-0.025": 0.0,
			"-0.024": 0.0,
			"-0.023": 0.0,
			"-0.022": 0.0,
			"-0.021": 0.0,
			"-0.02": 0.0,
			"-0.019": 0.365630024165,
			"-0.018": 1.2525152776,
			"-0.017": 0.858812211014,
			"-0.016": 3.15150848616,
			"-0.015": 2.13495659656,
			"-0.014": 1.893235302,
			"-0.013": 2.34210778267,
			"-0.012": 1.49373062563,
			"-0.011": 2.8538194204,
			"-0.01": 2.96508743699,
			"-0.009": 5.49334123735,
			"-0.008": 8.01785129478,
			"-0.007": 9.37901776147,
			"-0.006": 10.3701544284,
			"-0.005": 10.9105327908,
			"-0.004": 13.9391257814,
			"-0.003": 17.3974477707,
			"-0.002": 19.1198661808,
			"-0.001": 19.3665027151,
			"0.0": 14.5212965366,
			"0.001": 13.7930032926,
			"0.002": 13.829639722,
			"0.003": 13.5293016979,
			"0.004": 12.6245963295,
			"0.005": 10.4447055431,
			"0.006": 7.3262470053,
			"0.007": 6.21171363649,
			"0.008": 6.24154899186,
			"0.009": 4.86628522845,
			"0.01": 5.71286989423,
			"0.011": 5.85025658661,
			"0.012": 2.92887834517,
			"0.013": 2.65136646207,
			"0.014": 4.92723266341,
			"0.015": 2.65440152455,
			"0.016": 0.518675566548,
			"0.017": 0.708827485104,
			"0.018": 0.780791212479,
			"0.019": 0.535128061445,
			"0.02": 0.590362767808,
			"0.021": 0.0967196566179,
			"0.022": 0.0,
			"0.023": 0.0,
			"0.024": 0.0,
			"0.025": 0.0
		}
	}
}
