{
	 "smiles": "O1C=NC(=C1C1=CC=CC=C1)C1=CC=CC=C1", 
	 "Tm": 317.15, 
	 "num_atms": 28, 
	 "gaussian": { 
		 "optdone": 1, 
		 "sigma_profile": "yes", 
		 "theory": "DFT", 
		 "functional": "B3LYP", 
		 "basiset": "6-31G**", 
		 "properties": { 
			 "R2extent": 4900.0503, 
			 "electric_dipole_moment_norm": 1.6086256401, 
			 "electric_quadrupole_moment_norm": 8.62027892762, 
			 "total_energy": -708.194551708, 
			 "HOMO_LUMO_gap": 0.1647, 
			 "cosmo_polarized_energy": -8.2, 
			 "cosmo_cavitation_energy": 32.21, 
			 "cosmo_dispersion_energy": -23.34, 
			 "cosmo_repulsion_energy": 1.78, 
			 "cosmo_total_nonelectrostatic_energy": 10.65, 
			 "SMD_solvation_energy": 4.85 
		},
		"coords": [
			{
				"x": 2.7460004892,
				"y": -0.7956503319,
				"z": 2.1748419548,
				"element": "O" 
			},
			{
				"x": 2.8673742963,
				"y": -1.9703131739,
				"z": 1.5168604323,
				"element": "C" 
			},
			{
				"x": 2.2035735121,
				"y": -2.0390784311,
				"z": 0.4118082533,
				"element": "N" 
			},
			{
				"x": 1.5574663551,
				"y": -0.8042063158,
				"z": 0.3031844569,
				"element": "C" 
			},
			{
				"x": 1.9115727283,
				"y": -0.0261670629,
				"z": 1.3850448425,
				"element": "C" 
			},
			{
				"x": 1.6800714533,
				"y": 1.3413145491,
				"z": 1.8501555552,
				"element": "C" 
			},
			{
				"x": 1.447378863,
				"y": 2.3917787704,
				"z": 0.9443909275,
				"element": "C" 
			},
			{
				"x": 1.2491833786,
				"y": 3.6909836649,
				"z": 1.4059630775,
				"element": "C" 
			},
			{
				"x": 1.2913706896,
				"y": 3.9696072341,
				"z": 2.7741393219,
				"element": "C" 
			},
			{
				"x": 1.5379099999,
				"y": 2.9359698273,
				"z": 3.6800381439,
				"element": "C" 
			},
			{
				"x": 1.73119536,
				"y": 1.6334174225,
				"z": 3.2255005921,
				"element": "C" 
			},
			{
				"x": 0.6457597088,
				"y": -0.5604236253,
				"z": -0.8272436028,
				"element": "C" 
			},
			{
				"x": -0.4870119313,
				"y": 0.2629927556,
				"z": -0.7126081558,
				"element": "C" 
			},
			{
				"x": -1.3407388126,
				"y": 0.4493428848,
				"z": -1.7986288204,
				"element": "C" 
			},
			{
				"x": -1.0855268395,
				"y": -0.1896365038,
				"z": -3.0139603297,
				"element": "C" 
			},
			{
				"x": 0.0272668741,
				"y": -1.0252151068,
				"z": -3.132010518,
				"element": "C" 
			},
			{
				"x": 0.8831527584,
				"y": -1.2134783094,
				"z": -2.0487270248,
				"element": "C" 
			},
			{
				"x": 3.4941169672,
				"y": -2.723294793,
				"z": 1.972301816,
				"element": "H" 
			},
			{
				"x": 1.4335735489,
				"y": 2.1886398144,
				"z": -0.1207231702,
				"element": "H" 
			},
			{
				"x": 1.0733520703,
				"y": 4.4907328461,
				"z": 0.6923259542,
				"element": "H" 
			},
			{
				"x": 1.1388296811,
				"y": 4.9841625835,
				"z": 3.1303077789,
				"element": "H" 
			},
			{
				"x": 1.5774452807,
				"y": 3.1430975336,
				"z": 4.7455872378,
				"element": "H" 
			},
			{
				"x": 1.9225464872,
				"y": 0.8327383017,
				"z": 3.9320032653,
				"element": "H" 
			},
			{
				"x": -0.7081195215,
				"y": 0.745690311,
				"z": 0.233554631,
				"element": "H" 
			},
			{
				"x": -2.2143239126,
				"y": 1.0860415192,
				"z": -1.6905645588,
				"element": "H" 
			},
			{
				"x": -1.7528571838,
				"y": -0.044180503,
				"z": -3.8585778231,
				"element": "H" 
			},
			{
				"x": 0.228884475,
				"y": -1.534034289,
				"z": -4.0704548558,
				"element": "H" 
			},
			{
				"x": 1.7410532241,
				"y": -1.8721315721,
				"z": -2.1309093816,
				"element": "H" 
			}
		],
		 "valence_orbital": [ 
			{
				"type": "occ",
				"energy": -0.28571,
				"method": "rhf"
			},
			{
				"type": "occ",
				"energy": -0.25809,
				"method": "rhf"
			},
			{
				"type": "occ",
				"energy": -0.25435,
				"method": "rhf"
			},
			{
				"type": "occ",
				"energy": -0.24766,
				"method": "rhf"
			},
			{
				"type": "occ",
				"energy": -0.20929,
				"method": "rhf"
			},
			{
				"type": "unocc",
				"energy": -0.04459,
				"method": "rhf"
			},
			{
				"type": "unocc",
				"energy": -0.00858,
				"method": "rhf"
			},
			{
				"type": "unocc",
				"energy": -0.00096,
				"method": "rhf"
			},
			{
				"type": "unocc",
				"energy": 0.00433,
				"method": "rhf"
			},
			{
				"type": "unocc",
				"energy": 0.02079,
				"method": "rhf"
			}
		],
		"cosmo_sigma_profile": { 
			"-0.025": 0.0,
			"-0.024": 0.0,
			"-0.023": 0.0,
			"-0.022": 0.0,
			"-0.021": 0.0,
			"-0.02": 0.0,
			"-0.019": 0.0,
			"-0.018": 0.0,
			"-0.017": 0.0,
			"-0.016": 0.0,
			"-0.015": 0.0,
			"-0.014": 0.0,
			"-0.013": 0.0,
			"-0.012": 0.0,
			"-0.011": 1.30794100218,
			"-0.01": 1.88316491868,
			"-0.009": 1.78785894,
			"-0.008": 1.44421515832,
			"-0.007": 1.29380206518,
			"-0.006": 11.748736814,
			"-0.005": 19.0699548603,
			"-0.004": 22.994394189,
			"-0.003": 21.0410112768,
			"-0.002": 16.9963666288,
			"-0.001": 20.8326124952,
			"0.0": 19.2006384112,
			"0.001": 21.8156338684,
			"0.002": 19.7131422111,
			"0.003": 20.9279615584,
			"0.004": 20.7151054759,
			"0.005": 21.8199751864,
			"0.006": 5.94705164285,
			"0.007": 1.68634518263,
			"0.008": 1.46802490382,
			"0.009": 1.45836334403,
			"0.01": 1.05395262868,
			"0.011": 0.935571322029,
			"0.012": 0.711442786484,
			"0.013": 1.02574424554,
			"0.014": 0.771261073227,
			"0.015": 0.283990593857,
			"0.016": 0.0,
			"0.017": 0.0,
			"0.018": 0.0,
			"0.019": 0.0,
			"0.02": 0.0,
			"0.021": 0.0,
			"0.022": 0.0,
			"0.023": 0.0,
			"0.024": 0.0,
			"0.025": 0.0
		}
	}
}
