{
	 "smiles": "CN(C)S(C)(=O)=O", 
	 "Tm": 322.65, 
	 "num_atms": 16, 
	 "gaussian": { 
		 "optdone": 1, 
		 "sigma_profile": "yes", 
		 "theory": "DFT", 
		 "functional": "B3LYP", 
		 "basiset": "6-31G**", 
		 "properties": { 
			 "R2extent": 895.4662, 
			 "electric_dipole_moment_norm": 3.9954140211, 
			 "electric_quadrupole_moment_norm": 9.65274219898, 
			 "total_energy": -723.057747599, 
			 "HOMO_LUMO_gap": 0.31817, 
			 "cosmo_polarized_energy": -12.53, 
			 "cosmo_cavitation_energy": 19.87, 
			 "cosmo_dispersion_energy": -15.18, 
			 "cosmo_repulsion_energy": 1.22, 
			 "cosmo_total_nonelectrostatic_energy": 5.9, 
			 "SMD_solvation_energy": 2.73 
		},
		"coords": [
			{
				"x": 1.7689559411,
				"y": -0.0511169624,
				"z": -0.0635437464,
				"element": "C" 
			},
			{
				"x": 0.4447188022,
				"y": 0.286339673,
				"z": 0.4730860443,
				"element": "N" 
			},
			{
				"x": 0.4019222843,
				"y": 0.3470610803,
				"z": 1.941177985,
				"element": "C" 
			},
			{
				"x": -0.8393357853,
				"y": -0.5744743362,
				"z": -0.2495908481,
				"element": "S" 
			},
			{
				"x": -1.2094238092,
				"y": 0.478293212,
				"z": -1.6640282241,
				"element": "C" 
			},
			{
				"x": -1.976157568,
				"y": -0.5080655038,
				"z": 0.6735369671,
				"element": "O" 
			},
			{
				"x": -0.3697915454,
				"y": -1.8661576107,
				"z": -0.7675840385,
				"element": "O" 
			},
			{
				"x": 2.114994531,
				"y": -1.0438215124,
				"z": 0.2521813083,
				"element": "H" 
			},
			{
				"x": 1.7585964963,
				"y": -0.0234542965,
				"z": -1.1551593473,
				"element": "H" 
			},
			{
				"x": 2.4761301245,
				"y": 0.7058150029,
				"z": 0.2876659412,
				"element": "H" 
			},
			{
				"x": 0.725393555,
				"y": -0.5907115773,
				"z": 2.4150533746,
				"element": "H" 
			},
			{
				"x": 1.0736253883,
				"y": 1.1498316945,
				"z": 2.259577953,
				"element": "H" 
			},
			{
				"x": -0.6105499856,
				"y": 0.5780658285,
				"z": 2.2682165739,
				"element": "H" 
			},
			{
				"x": -1.5364994045,
				"y": 1.4501436846,
				"z": -1.2958123288,
				"element": "H" 
			},
			{
				"x": -0.3229560885,
				"y": 0.5752013462,
				"z": -2.2919322565,
				"element": "H" 
			},
			{
				"x": -2.0076229363,
				"y": -0.0161497227,
				"z": -2.2205453579,
				"element": "H" 
			}
		],
		 "valence_orbital": [ 
			{
				"type": "occ",
				"energy": -0.33887,
				"method": "rhf"
			},
			{
				"type": "occ",
				"energy": -0.31185,
				"method": "rhf"
			},
			{
				"type": "occ",
				"energy": -0.30459,
				"method": "rhf"
			},
			{
				"type": "occ",
				"energy": -0.29595,
				"method": "rhf"
			},
			{
				"type": "occ",
				"energy": -0.2552,
				"method": "rhf"
			},
			{
				"type": "unocc",
				"energy": 0.06297,
				"method": "rhf"
			},
			{
				"type": "unocc",
				"energy": 0.06626,
				"method": "rhf"
			},
			{
				"type": "unocc",
				"energy": 0.0913,
				"method": "rhf"
			},
			{
				"type": "unocc",
				"energy": 0.09185,
				"method": "rhf"
			},
			{
				"type": "unocc",
				"energy": 0.09806,
				"method": "rhf"
			}
		],
		"cosmo_sigma_profile": { 
			"-0.025": 0.0,
			"-0.024": 0.0,
			"-0.023": 0.0,
			"-0.022": 0.0,
			"-0.021": 0.0,
			"-0.02": 0.0,
			"-0.019": 0.0,
			"-0.018": 0.0,
			"-0.017": 0.0,
			"-0.016": 0.0,
			"-0.015": 0.0,
			"-0.014": 0.0,
			"-0.013": 0.0,
			"-0.012": 0.0,
			"-0.011": 0.0,
			"-0.01": 0.101451366427,
			"-0.009": 2.38605401376,
			"-0.008": 6.4831101957,
			"-0.007": 4.82830811794,
			"-0.006": 10.482371421,
			"-0.005": 12.4710429056,
			"-0.004": 18.6932377578,
			"-0.003": 18.9065322485,
			"-0.002": 17.6717144599,
			"-0.001": 6.02829246,
			"0.0": 4.46068518004,
			"0.001": 4.24708576326,
			"0.002": 3.35717070205,
			"0.003": 3.42712473471,
			"0.004": 3.36599663384,
			"0.005": 2.69832403173,
			"0.006": 3.11956031173,
			"0.007": 2.66895989861,
			"0.008": 3.59530097998,
			"0.009": 3.78584186064,
			"0.01": 4.66188121859,
			"0.011": 10.0957604017,
			"0.012": 7.6032514603,
			"0.013": 0.573812218104,
			"0.014": 0.0,
			"0.015": 0.0,
			"0.016": 0.0,
			"0.017": 0.0,
			"0.018": 0.0,
			"0.019": 0.0,
			"0.02": 0.0,
			"0.021": 0.0,
			"0.022": 0.0,
			"0.023": 0.0,
			"0.024": 0.0,
			"0.025": 0.0
		}
	}
}
