{
	 "smiles": "COCC1=CC=C(O)C(=C1)[N+]([O-])=O", 
	 "Tm": 396.15, 
	 "num_atms": 22, 
	 "gaussian": { 
		 "optdone": 1, 
		 "sigma_profile": "yes", 
		 "theory": "DFT", 
		 "functional": "B3LYP", 
		 "basiset": "6-31G**", 
		 "properties": { 
			 "R2extent": 3713.6207, 
			 "electric_dipole_moment_norm": 6.44825915345, 
			 "electric_quadrupole_moment_norm": 25.7393127575, 
			 "total_energy": -665.791206937, 
			 "HOMO_LUMO_gap": 0.16734, 
			 "cosmo_polarized_energy": -17.57, 
			 "cosmo_cavitation_energy": 26.79, 
			 "cosmo_dispersion_energy": -19.38, 
			 "cosmo_repulsion_energy": 1.56, 
			 "cosmo_total_nonelectrostatic_energy": 8.98, 
			 "SMD_solvation_energy": 7.81 
		},
		"coords": [
			{
				"x": 2.3245306001,
				"y": 1.425074509,
				"z": -0.6850837998,
				"element": "C" 
			},
			{
				"x": 2.2395717082,
				"y": 0.6639559804,
				"z": 0.5079309375,
				"element": "O" 
			},
			{
				"x": 0.9188746581,
				"y": 0.507996976,
				"z": 0.9879071391,
				"element": "C" 
			},
			{
				"x": 0.0786929268,
				"y": -0.4625928899,
				"z": 0.1742431189,
				"element": "C" 
			},
			{
				"x": -1.2959331548,
				"y": -0.2684193893,
				"z": -0.0076131451,
				"element": "C" 
			},
			{
				"x": -2.0650216448,
				"y": -1.1898445559,
				"z": -0.708949164,
				"element": "C" 
			},
			{
				"x": -1.4903974757,
				"y": -2.3352695959,
				"z": -1.2804638989,
				"element": "C" 
			},
			{
				"x": -2.2382624093,
				"y": -3.2385991349,
				"z": -1.9519117072,
				"element": "O" 
			},
			{
				"x": -0.1016881098,
				"y": -2.5200128042,
				"z": -1.1064322363,
				"element": "C" 
			},
			{
				"x": 0.6578730807,
				"y": -1.6011159915,
				"z": -0.3806448892,
				"element": "C" 
			},
			{
				"x": 0.6090830618,
				"y": -3.6724627824,
				"z": -1.6764659022,
				"element": "N" 
			},
			{
				"x": 0.0693323929,
				"y": -4.2998696339,
				"z": -2.5836383955,
				"element": "O" 
			},
			{
				"x": 1.7230655697,
				"y": -3.9297197762,
				"z": -1.213497441,
				"element": "O" 
			},
			{
				"x": 3.3837235773,
				"y": 1.4959838817,
				"z": -0.9414577672,
				"element": "H" 
			},
			{
				"x": 1.9229853722,
				"y": 2.4401281246,
				"z": -0.5414023821,
				"element": "H" 
			},
			{
				"x": 1.7873157391,
				"y": 0.9523846632,
				"z": -1.5188044488,
				"element": "H" 
			},
			{
				"x": 0.402960903,
				"y": 1.4807528071,
				"z": 1.0481662978,
				"element": "H" 
			},
			{
				"x": 1.0276821128,
				"y": 0.1342577043,
				"z": 2.0131584379,
				"element": "H" 
			},
			{
				"x": -1.7768790463,
				"y": 0.6145716328,
				"z": 0.4062290532,
				"element": "H" 
			},
			{
				"x": -3.1331605613,
				"y": -1.0242583613,
				"z": -0.8324795463,
				"element": "H" 
			},
			{
				"x": -3.1640784662,
				"y": -2.9610380591,
				"z": -1.9142840528,
				"element": "H" 
			},
			{
				"x": 1.7183291656,
				"y": -1.7893033043,
				"z": -0.2661062081,
				"element": "H" 
			}
		],
		 "valence_orbital": [ 
			{
				"type": "occ",
				"energy": -0.29574,
				"method": "rhf"
			},
			{
				"type": "occ",
				"energy": -0.28679,
				"method": "rhf"
			},
			{
				"type": "occ",
				"energy": -0.27316,
				"method": "rhf"
			},
			{
				"type": "occ",
				"energy": -0.26902,
				"method": "rhf"
			},
			{
				"type": "occ",
				"energy": -0.2455,
				"method": "rhf"
			},
			{
				"type": "unocc",
				"energy": -0.07816,
				"method": "rhf"
			},
			{
				"type": "unocc",
				"energy": -0.01969,
				"method": "rhf"
			},
			{
				"type": "unocc",
				"energy": 0.00032,
				"method": "rhf"
			},
			{
				"type": "unocc",
				"energy": 0.05059,
				"method": "rhf"
			},
			{
				"type": "unocc",
				"energy": 0.07727,
				"method": "rhf"
			}
		],
		"cosmo_sigma_profile": { 
			"-0.025": 0.0,
			"-0.024": 0.0,
			"-0.023": 0.0,
			"-0.022": 0.0,
			"-0.021": 0.0,
			"-0.02": 0.0567229019036,
			"-0.019": 0.992040422974,
			"-0.018": 0.833819964029,
			"-0.017": 1.58112755018,
			"-0.016": 0.85530092281,
			"-0.015": 0.809760658505,
			"-0.014": 0.752196138044,
			"-0.013": 1.02832786847,
			"-0.012": 1.54271286015,
			"-0.011": 0.988317422275,
			"-0.01": 0.929512370422,
			"-0.009": 1.16705781933,
			"-0.008": 1.97513317208,
			"-0.007": 6.26945564514,
			"-0.006": 6.98513391798,
			"-0.005": 12.5960352697,
			"-0.004": 16.3493058142,
			"-0.003": 18.8666495338,
			"-0.002": 19.4348869825,
			"-0.001": 16.6320045361,
			"0.0": 15.1936756986,
			"0.001": 13.7205775416,
			"0.002": 11.1640162062,
			"0.003": 7.59802439083,
			"0.004": 3.81825287856,
			"0.005": 5.30126527773,
			"0.006": 4.46985160118,
			"0.007": 6.13070841645,
			"0.008": 10.5911450269,
			"0.009": 8.75357337563,
			"0.01": 6.51576558342,
			"0.011": 3.75892349032,
			"0.012": 2.72002960359,
			"0.013": 2.18955421482,
			"0.014": 0.0512370296224,
			"0.015": 0.0,
			"0.016": 0.0,
			"0.017": 0.0,
			"0.018": 0.0,
			"0.019": 0.0,
			"0.02": 0.0,
			"0.021": 0.0,
			"0.022": 0.0,
			"0.023": 0.0,
			"0.024": 0.0,
			"0.025": 0.0
		}
	}
}
