{
	 "smiles": "ClS(=O)(=O)C1=CC=C(C=C1)C1CCCCC1", 
	 "Tm": 323.15, 
	 "num_atms": 31, 
	 "gaussian": { 
		 "optdone": 1, 
		 "sigma_profile": "yes", 
		 "theory": "DFT", 
		 "functional": "B3LYP", 
		 "basiset": "6-31G**", 
		 "properties": { 
			 "R2extent": 9162.7028, 
			 "electric_dipole_moment_norm": 6.65362160105, 
			 "electric_quadrupole_moment_norm": 27.8002528557, 
			 "total_energy": -1475.10217217, 
			 "HOMO_LUMO_gap": 0.18816, 
			 "cosmo_polarized_energy": -9.03, 
			 "cosmo_cavitation_energy": 35.92, 
			 "cosmo_dispersion_energy": -26.46, 
			 "cosmo_repulsion_energy": 2.04, 
			 "cosmo_total_nonelectrostatic_energy": 11.5, 
			 "SMD_solvation_energy": 3.8 
		},
		"coords": [
			{
				"x": 3.6859027975,
				"y": -5.1743929337,
				"z": 1.1171915124,
				"element": "Cl" 
			},
			{
				"x": 3.2960083978,
				"y": -4.378860107,
				"z": -0.8321190319,
				"element": "S" 
			},
			{
				"x": 2.7402144017,
				"y": -5.4799849789,
				"z": -1.6094543168,
				"element": "O" 
			},
			{
				"x": 4.5130463627,
				"y": -3.6811630166,
				"z": -1.2293246908,
				"element": "O" 
			},
			{
				"x": 2.0151002218,
				"y": -3.1902895639,
				"z": -0.4815609835,
				"element": "C" 
			},
			{
				"x": 2.3762559309,
				"y": -1.8794102651,
				"z": -0.1649296024,
				"element": "C" 
			},
			{
				"x": 1.3674444671,
				"y": -0.9562544987,
				"z": 0.0920936979,
				"element": "C" 
			},
			{
				"x": 0.0112592947,
				"y": -1.3226163474,
				"z": 0.0404949322,
				"element": "C" 
			},
			{
				"x": -0.3085201525,
				"y": -2.6499672269,
				"z": -0.2829128569,
				"element": "C" 
			},
			{
				"x": 0.6820278308,
				"y": -3.594124055,
				"z": -0.5443603222,
				"element": "C" 
			},
			{
				"x": -1.0873058068,
				"y": -0.3137569394,
				"z": 0.3204085074,
				"element": "C" 
			},
			{
				"x": -1.0957167283,
				"y": 0.8427524532,
				"z": -0.7075419992,
				"element": "C" 
			},
			{
				"x": -2.2303572879,
				"y": 1.8400790648,
				"z": -0.4282043743,
				"element": "C" 
			},
			{
				"x": -2.1654664376,
				"y": 2.3843577086,
				"z": 1.0063719148,
				"element": "C" 
			},
			{
				"x": -2.1537590585,
				"y": 1.2441168181,
				"z": 2.0349588306,
				"element": "C" 
			},
			{
				"x": -1.0187043066,
				"y": 0.2454776857,
				"z": 1.7613973464,
				"element": "C" 
			},
			{
				"x": 3.4216599608,
				"y": -1.593536372,
				"z": -0.1328943741,
				"element": "H" 
			},
			{
				"x": 1.642713884,
				"y": 0.0658194041,
				"z": 0.3333567605,
				"element": "H" 
			},
			{
				"x": -1.3516437687,
				"y": -2.9494162196,
				"z": -0.3337381217,
				"element": "H" 
			},
			{
				"x": 0.4311682282,
				"y": -4.6171670595,
				"z": -0.8013016888,
				"element": "H" 
			},
			{
				"x": -2.0466628645,
				"y": -0.8415648133,
				"z": 0.2226482158,
				"element": "H" 
			},
			{
				"x": -0.1322635982,
				"y": 1.3692620143,
				"z": -0.6672924174,
				"element": "H" 
			},
			{
				"x": -1.1846151209,
				"y": 0.4350470972,
				"z": -1.7212626085,
				"element": "H" 
			},
			{
				"x": -2.187805167,
				"y": 2.662489721,
				"z": -1.1518285805,
				"element": "H" 
			},
			{
				"x": -3.1969078406,
				"y": 1.3398560626,
				"z": -0.5829095854,
				"element": "H" 
			},
			{
				"x": -1.2534337047,
				"y": 2.9869022708,
				"z": 1.123803408,
				"element": "H" 
			},
			{
				"x": -3.0095498163,
				"y": 3.0577155099,
				"z": 1.1955761873,
				"element": "H" 
			},
			{
				"x": -2.057480076,
				"y": 1.6458085845,
				"z": 3.0504249639,
				"element": "H" 
			},
			{
				"x": -3.1164520689,
				"y": 0.7145887886,
				"z": 2.0003566652,
				"element": "H" 
			},
			{
				"x": -0.052044972,
				"y": 0.7460830543,
				"z": 1.9098359715,
				"element": "H" 
			},
			{
				"x": -1.053813002,
				"y": -0.5812518406,
				"z": 2.4804166404,
				"element": "H" 
			}
		],
		 "valence_orbital": [ 
			{
				"type": "occ",
				"energy": -0.31548,
				"method": "rhf"
			},
			{
				"type": "occ",
				"energy": -0.31386,
				"method": "rhf"
			},
			{
				"type": "occ",
				"energy": -0.30797,
				"method": "rhf"
			},
			{
				"type": "occ",
				"energy": -0.28272,
				"method": "rhf"
			},
			{
				"type": "occ",
				"energy": -0.27368,
				"method": "rhf"
			},
			{
				"type": "unocc",
				"energy": -0.08552,
				"method": "rhf"
			},
			{
				"type": "unocc",
				"energy": -0.03809,
				"method": "rhf"
			},
			{
				"type": "unocc",
				"energy": -0.03286,
				"method": "rhf"
			},
			{
				"type": "unocc",
				"energy": 0.05547,
				"method": "rhf"
			},
			{
				"type": "unocc",
				"energy": 0.07334,
				"method": "rhf"
			}
		],
		"cosmo_sigma_profile": { 
			"-0.025": 0.0,
			"-0.024": 0.0,
			"-0.023": 0.0,
			"-0.022": 0.0,
			"-0.021": 0.0,
			"-0.02": 0.0,
			"-0.019": 0.0,
			"-0.018": 0.0,
			"-0.017": 0.0,
			"-0.016": 0.0,
			"-0.015": 0.0,
			"-0.014": 0.0,
			"-0.013": 0.0,
			"-0.012": 0.0,
			"-0.011": 0.0,
			"-0.01": 0.0,
			"-0.009": 0.0943807225691,
			"-0.008": 2.0578276631,
			"-0.007": 5.98259542967,
			"-0.006": 11.3578942858,
			"-0.005": 9.89535935747,
			"-0.004": 10.3717136548,
			"-0.003": 16.8630835153,
			"-0.002": 37.4479339787,
			"-0.001": 38.8682865161,
			"0.0": 39.7580051874,
			"0.001": 35.5629580915,
			"0.002": 21.4220412293,
			"0.003": 14.4763633668,
			"0.004": 12.9514996743,
			"0.005": 3.69159879732,
			"0.006": 2.92019206437,
			"0.007": 5.57148313041,
			"0.008": 9.74073310656,
			"0.009": 5.89163535323,
			"0.01": 0.256005733316,
			"0.011": 0.0,
			"0.012": 0.0,
			"0.013": 0.0,
			"0.014": 0.0,
			"0.015": 0.0,
			"0.016": 0.0,
			"0.017": 0.0,
			"0.018": 0.0,
			"0.019": 0.0,
			"0.02": 0.0,
			"0.021": 0.0,
			"0.022": 0.0,
			"0.023": 0.0,
			"0.024": 0.0,
			"0.025": 0.0
		}
	}
}
