{
	 "smiles": "CCCCCCCCCCCCC#CC#CCCCCCCCCC(O)=O", 
	 "Tm": 337.15, 
	 "num_atms": 69, 
	 "gaussian": { 
		 "optdone": 1, 
		 "sigma_profile": "yes", 
		 "theory": "DFT", 
		 "functional": "B3LYP", 
		 "basiset": "6-31G**", 
		 "properties": { 
			 "R2extent": 19428.7974, 
			 "electric_dipole_moment_norm": 2.14430504127, 
			 "electric_quadrupole_moment_norm": 9.71156748985, 
			 "total_energy": -1128.38219941, 
			 "HOMO_LUMO_gap": 0.22346, 
			 "cosmo_polarized_energy": -12.77, 
			 "cosmo_cavitation_energy": 70.34, 
			 "cosmo_dispersion_energy": -42.8, 
			 "cosmo_repulsion_energy": 3.43, 
			 "cosmo_total_nonelectrostatic_energy": 30.98, 
			 "SMD_solvation_energy": 10.7 
		},
		"coords": [
			{
				"x": -2.0318124871,
				"y": -2.2826788844,
				"z": 6.9312322077,
				"element": "C" 
			},
			{
				"x": -1.0486183105,
				"y": -2.8051533107,
				"z": 5.8771052922,
				"element": "C" 
			},
			{
				"x": 0.0163222753,
				"y": -1.7828955141,
				"z": 5.4408763833,
				"element": "C" 
			},
			{
				"x": -0.5085093364,
				"y": -0.5088253454,
				"z": 4.754257625,
				"element": "C" 
			},
			{
				"x": -1.225126607,
				"y": -0.7571621722,
				"z": 3.4183126071,
				"element": "C" 
			},
			{
				"x": -1.7051382987,
				"y": 0.5203020716,
				"z": 2.7065140022,
				"element": "C" 
			},
			{
				"x": -0.5801697431,
				"y": 1.4085241044,
				"z": 2.1539168724,
				"element": "C" 
			},
			{
				"x": -1.1095615448,
				"y": 2.6324821188,
				"z": 1.3919302033,
				"element": "C" 
			},
			{
				"x": -0.0270352054,
				"y": 3.4946137322,
				"z": 0.7206159347,
				"element": "C" 
			},
			{
				"x": 0.9195556275,
				"y": 4.1931527055,
				"z": 1.7087743172,
				"element": "C" 
			},
			{
				"x": 1.9000345532,
				"y": 5.2034034768,
				"z": 1.0909090548,
				"element": "C" 
			},
			{
				"x": 3.0234732907,
				"y": 4.5999221842,
				"z": 0.2092397844,
				"element": "C" 
			},
			{
				"x": 2.620497443,
				"y": 4.1846567212,
				"z": -1.1321453728,
				"element": "C" 
			},
			{
				"x": 2.3054029802,
				"y": 3.8682256466,
				"z": -2.2643612923,
				"element": "C" 
			},
			{
				"x": 1.9447173964,
				"y": 3.5047538753,
				"z": -3.5323823325,
				"element": "C" 
			},
			{
				"x": 1.6231630109,
				"y": 3.1835782435,
				"z": -4.6614705889,
				"element": "C" 
			},
			{
				"x": 1.2132567965,
				"y": 2.7745430871,
				"z": -6.0028851381,
				"element": "C" 
			},
			{
				"x": 0.5161138963,
				"y": 1.3945003087,
				"z": -6.0426611261,
				"element": "C" 
			},
			{
				"x": 1.4224883703,
				"y": 0.2358442811,
				"z": -5.6122619854,
				"element": "C" 
			},
			{
				"x": 0.6979659842,
				"y": -1.1169627038,
				"z": -5.6011888324,
				"element": "C" 
			},
			{
				"x": 1.6005565435,
				"y": -2.3228495262,
				"z": -5.2849435178,
				"element": "C" 
			},
			{
				"x": 2.2885183475,
				"y": -2.3093809281,
				"z": -3.9083645631,
				"element": "C" 
			},
			{
				"x": 1.3218972443,
				"y": -2.3349401298,
				"z": -2.7167596916,
				"element": "C" 
			},
			{
				"x": 2.0681442245,
				"y": -2.4122317279,
				"z": -1.3709996033,
				"element": "C" 
			},
			{
				"x": 1.1494557693,
				"y": -2.4274977993,
				"z": -0.1709630261,
				"element": "C" 
			},
			{
				"x": 0.2845984364,
				"y": -3.471159072,
				"z": -0.2048272789,
				"element": "O" 
			},
			{
				"x": 1.1562137483,
				"y": -1.622677154,
				"z": 0.7369279085,
				"element": "O" 
			},
			{
				"x": -2.7249207593,
				"y": -3.0687609051,
				"z": 7.2493033977,
				"element": "H" 
			},
			{
				"x": -1.5019830899,
				"y": -1.9265962341,
				"z": 7.8227165496,
				"element": "H" 
			},
			{
				"x": -2.6332399541,
				"y": -1.4500874353,
				"z": 6.5516571962,
				"element": "H" 
			},
			{
				"x": -1.6079750001,
				"y": -3.1590878077,
				"z": 5.0015735014,
				"element": "H" 
			},
			{
				"x": -0.5335996792,
				"y": -3.688096893,
				"z": 6.2776136539,
				"element": "H" 
			},
			{
				"x": 0.7239543321,
				"y": -2.278868005,
				"z": 4.7624618678,
				"element": "H" 
			},
			{
				"x": 0.5997797527,
				"y": -1.4903931559,
				"z": 6.3251143628,
				"element": "H" 
			},
			{
				"x": -1.1834012156,
				"y": 0.0317482229,
				"z": 5.4324594968,
				"element": "H" 
			},
			{
				"x": 0.345761476,
				"y": 0.1588128162,
				"z": 4.5887084288,
				"element": "H" 
			},
			{
				"x": -2.0954406546,
				"y": -1.4042953549,
				"z": 3.5905991172,
				"element": "H" 
			},
			{
				"x": -0.5522811242,
				"y": -1.3056239093,
				"z": 2.7451198081,
				"element": "H" 
			},
			{
				"x": -2.3608595574,
				"y": 0.2324663977,
				"z": 1.8727949674,
				"element": "H" 
			},
			{
				"x": -2.3336105084,
				"y": 1.1072392828,
				"z": 3.3928154148,
				"element": "H" 
			},
			{
				"x": 0.0657043471,
				"y": 1.738724222,
				"z": 2.9767705622,
				"element": "H" 
			},
			{
				"x": 0.0541999434,
				"y": 0.8073131558,
				"z": 1.4884969529,
				"element": "H" 
			},
			{
				"x": -1.7021363317,
				"y": 3.2591506797,
				"z": 2.0751296497,
				"element": "H" 
			},
			{
				"x": -1.8088929097,
				"y": 2.2885871973,
				"z": 0.617289312,
				"element": "H" 
			},
			{
				"x": 0.5493729064,
				"y": 2.8734905187,
				"z": 0.0253293209,
				"element": "H" 
			},
			{
				"x": -0.5163606908,
				"y": 4.2604082467,
				"z": 0.1035127538,
				"element": "H" 
			},
			{
				"x": 1.494196501,
				"y": 3.4449598136,
				"z": 2.2709818843,
				"element": "H" 
			},
			{
				"x": 0.3133796025,
				"y": 4.7277314031,
				"z": 2.4539423172,
				"element": "H" 
			},
			{
				"x": 1.3521368666,
				"y": 5.9524144877,
				"z": 0.5061607339,
				"element": "H" 
			},
			{
				"x": 2.3944100388,
				"y": 5.7459354475,
				"z": 1.9063019123,
				"element": "H" 
			},
			{
				"x": 3.4745456179,
				"y": 3.7461797879,
				"z": 0.7350601279,
				"element": "H" 
			},
			{
				"x": 3.8248568911,
				"y": 5.3445836741,
				"z": 0.1060245339,
				"element": "H" 
			},
			{
				"x": 0.5378002623,
				"y": 3.5339682916,
				"z": -6.4192604053,
				"element": "H" 
			},
			{
				"x": 2.0926881563,
				"y": 2.7569262618,
				"z": -6.6624509461,
				"element": "H" 
			},
			{
				"x": -0.3715057835,
				"y": 1.4295287683,
				"z": -5.3989717345,
				"element": "H" 
			},
			{
				"x": 0.1564978497,
				"y": 1.224497738,
				"z": -7.0657812938,
				"element": "H" 
			},
			{
				"x": 2.287196544,
				"y": 0.1814013659,
				"z": -6.2898623323,
				"element": "H" 
			},
			{
				"x": 1.8264903371,
				"y": 0.457336724,
				"z": -4.6172125783,
				"element": "H" 
			},
			{
				"x": 0.2368927151,
				"y": -1.2838667999,
				"z": -6.5842699691,
				"element": "H" 
			},
			{
				"x": -0.1352646263,
				"y": -1.0742299,
				"z": -4.8869675517,
				"element": "H" 
			},
			{
				"x": 2.3769484713,
				"y": -2.3934018435,
				"z": -6.0586953908,
				"element": "H" 
			},
			{
				"x": 1.0033370867,
				"y": -3.2407007468,
				"z": -5.3713542249,
				"element": "H" 
			},
			{
				"x": 2.949332472,
				"y": -3.184684198,
				"z": -3.8451862341,
				"element": "H" 
			},
			{
				"x": 2.9442089111,
				"y": -1.4329365989,
				"z": -3.8252605883,
				"element": "H" 
			},
			{
				"x": 0.6460665826,
				"y": -3.1936721601,
				"z": -2.8028363059,
				"element": "H" 
			},
			{
				"x": 0.691679452,
				"y": -1.4374840271,
				"z": -2.7222839374,
				"element": "H" 
			},
			{
				"x": 2.7422889658,
				"y": -1.5613176304,
				"z": -1.2465303804,
				"element": "H" 
			},
			{
				"x": 2.6718166911,
				"y": -3.3285921642,
				"z": -1.3429613072,
				"element": "H" 
			},
			{
				"x": -0.2628752932,
				"y": -3.3950970231,
				"z": 0.5947495131,
				"element": "H" 
			}
		],
		 "valence_orbital": [ 
			{
				"type": "occ",
				"energy": -0.29005,
				"method": "rhf"
			},
			{
				"type": "occ",
				"energy": -0.28822,
				"method": "rhf"
			},
			{
				"type": "occ",
				"energy": -0.2716,
				"method": "rhf"
			},
			{
				"type": "occ",
				"energy": -0.22318,
				"method": "rhf"
			},
			{
				"type": "occ",
				"energy": -0.22199,
				"method": "rhf"
			},
			{
				"type": "unocc",
				"energy": 0.00147,
				"method": "rhf"
			},
			{
				"type": "unocc",
				"energy": 0.00258,
				"method": "rhf"
			},
			{
				"type": "unocc",
				"energy": 0.00627,
				"method": "rhf"
			},
			{
				"type": "unocc",
				"energy": 0.0658,
				"method": "rhf"
			},
			{
				"type": "unocc",
				"energy": 0.08162,
				"method": "rhf"
			}
		],
		"cosmo_sigma_profile": { 
			"-0.025": 0.0,
			"-0.024": 0.0,
			"-0.023": 0.0,
			"-0.022": 0.0,
			"-0.021": 0.0,
			"-0.02": 0.0,
			"-0.019": 0.0,
			"-0.018": 0.0,
			"-0.017": 0.457082107502,
			"-0.016": 0.790005162555,
			"-0.015": 1.02684569197,
			"-0.014": 0.811343896839,
			"-0.013": 0.596090939302,
			"-0.012": 0.294352664786,
			"-0.011": 1.05208446963,
			"-0.01": 1.10971995698,
			"-0.009": 0.552877979241,
			"-0.008": 0.736651711117,
			"-0.007": 0.874692401969,
			"-0.006": 3.95329489085,
			"-0.005": 13.3760759444,
			"-0.004": 18.1475154835,
			"-0.003": 37.3984550967,
			"-0.002": 83.9468732936,
			"-0.001": 90.0384193729,
			"0.0": 91.8281038628,
			"0.001": 73.2343198588,
			"0.002": 34.5517973868,
			"0.003": 12.4192003576,
			"0.004": 14.9214090045,
			"0.005": 26.5556311211,
			"0.006": 19.1307632006,
			"0.007": 4.72876084504,
			"0.008": 3.00391935811,
			"0.009": 2.86561817703,
			"0.01": 2.28099128641,
			"0.011": 1.53274721061,
			"0.012": 1.29800217821,
			"0.013": 0.587503254576,
			"0.014": 0.000838257078103,
			"0.015": 0.0,
			"0.016": 0.0,
			"0.017": 0.0,
			"0.018": 0.0,
			"0.019": 0.0,
			"0.02": 0.0,
			"0.021": 0.0,
			"0.022": 0.0,
			"0.023": 0.0,
			"0.024": 0.0,
			"0.025": 0.0
		}
	}
}
