{
	 "smiles": "O=N(=O)C1=CC(CC#N)=CC=C1", 
	 "Tm": 336.15, 
	 "num_atms": 18, 
	 "gaussian": { 
		 "optdone": 1, 
		 "sigma_profile": "yes", 
		 "theory": "DFT", 
		 "functional": "B3LYP", 
		 "basiset": "6-31G**", 
		 "properties": { 
			 "R2extent": 2593.4184, 
			 "electric_dipole_moment_norm": 0.805179166397, 
			 "electric_quadrupole_moment_norm": 29.8524484664, 
			 "total_energy": -568.298909231, 
			 "HOMO_LUMO_gap": 0.1861, 
			 "cosmo_polarized_energy": -13.87, 
			 "cosmo_cavitation_energy": 24.28, 
			 "cosmo_dispersion_energy": -17.21, 
			 "cosmo_repulsion_energy": 1.37, 
			 "cosmo_total_nonelectrostatic_energy": 8.44, 
			 "SMD_solvation_energy": 7.75 
		},
		"coords": [
			{
				"x": -1.1119940823,
				"y": 2.9106133675,
				"z": -1.6315657651,
				"element": "O" 
			},
			{
				"x": 0.1057352432,
				"y": 2.8000655322,
				"z": -1.4944270085,
				"element": "N" 
			},
			{
				"x": 0.9285885754,
				"y": 3.6611690609,
				"z": -1.7992700529,
				"element": "O" 
			},
			{
				"x": 0.6171476096,
				"y": 1.5413301981,
				"z": -0.9218386395,
				"element": "C" 
			},
			{
				"x": -0.2948831088,
				"y": 0.5523141838,
				"z": -0.5690731282,
				"element": "C" 
			},
			{
				"x": 0.1768122672,
				"y": -0.6456391142,
				"z": -0.0252654233,
				"element": "C" 
			},
			{
				"x": -0.8444050767,
				"y": -1.7142776375,
				"z": 0.3539812405,
				"element": "C" 
			},
			{
				"x": -0.2653636517,
				"y": -2.9381463278,
				"z": 0.9111269717,
				"element": "C" 
			},
			{
				"x": 0.2021458762,
				"y": -3.904283034,
				"z": 1.3518199726,
				"element": "N" 
			},
			{
				"x": 1.5538372748,
				"y": -0.8198644813,
				"z": 0.1504219181,
				"element": "C" 
			},
			{
				"x": 2.4519449174,
				"y": 0.1885392579,
				"z": -0.2116604562,
				"element": "C" 
			},
			{
				"x": 1.9917101285,
				"y": 1.3848026006,
				"z": -0.7538068245,
				"element": "C" 
			},
			{
				"x": -1.3522695736,
				"y": 0.7338162526,
				"z": -0.7243584454,
				"element": "H" 
			},
			{
				"x": -1.4396004601,
				"y": -1.990472224,
				"z": -0.5254560791,
				"element": "H" 
			},
			{
				"x": -1.5527761812,
				"y": -1.3097608659,
				"z": 1.0878749339,
				"element": "H" 
			},
			{
				"x": 1.9276673287,
				"y": -1.7477279225,
				"z": 0.5720728359,
				"element": "H" 
			},
			{
				"x": 3.5168197723,
				"y": 0.0363060334,
				"z": -0.0684326341,
				"element": "H" 
			},
			{
				"x": 2.661283141,
				"y": 2.1843151203,
				"z": -1.044043416,
				"element": "H" 
			}
		],
		 "valence_orbital": [ 
			{
				"type": "occ",
				"energy": -0.31911,
				"method": "rhf"
			},
			{
				"type": "occ",
				"energy": -0.31628,
				"method": "rhf"
			},
			{
				"type": "occ",
				"energy": -0.30053,
				"method": "rhf"
			},
			{
				"type": "occ",
				"energy": -0.29386,
				"method": "rhf"
			},
			{
				"type": "occ",
				"energy": -0.28501,
				"method": "rhf"
			},
			{
				"type": "unocc",
				"energy": -0.09891,
				"method": "rhf"
			},
			{
				"type": "unocc",
				"energy": -0.04372,
				"method": "rhf"
			},
			{
				"type": "unocc",
				"energy": -0.01036,
				"method": "rhf"
			},
			{
				"type": "unocc",
				"energy": 0.01366,
				"method": "rhf"
			},
			{
				"type": "unocc",
				"energy": 0.02549,
				"method": "rhf"
			}
		],
		"cosmo_sigma_profile": { 
			"-0.025": 0.0,
			"-0.024": 0.0,
			"-0.023": 0.0,
			"-0.022": 0.0,
			"-0.021": 0.0,
			"-0.02": 0.0,
			"-0.019": 0.0,
			"-0.018": 0.0,
			"-0.017": 0.0,
			"-0.016": 0.0,
			"-0.015": 0.0,
			"-0.014": 0.0,
			"-0.013": 0.0,
			"-0.012": 0.0,
			"-0.011": 0.0,
			"-0.01": 2.09916027166,
			"-0.009": 8.86748777505,
			"-0.008": 8.49657409239,
			"-0.007": 10.7702645178,
			"-0.006": 11.7236910196,
			"-0.005": 10.9131699406,
			"-0.004": 10.0579068124,
			"-0.003": 10.7710820506,
			"-0.002": 12.3783479153,
			"-0.001": 13.553366544,
			"0.0": 12.1438443101,
			"0.001": 14.0646439238,
			"0.002": 9.97420504615,
			"0.003": 4.70866601783,
			"0.004": 4.00346066582,
			"0.005": 5.7765813963,
			"0.006": 6.39495070821,
			"0.007": 10.3388751199,
			"0.008": 10.6672875127,
			"0.009": 6.85874053067,
			"0.01": 5.41087981814,
			"0.011": 2.6056228255,
			"0.012": 2.34663701782,
			"0.013": 1.23496962074,
			"0.014": 0.0,
			"0.015": 0.0,
			"0.016": 0.0,
			"0.017": 0.0,
			"0.018": 0.0,
			"0.019": 0.0,
			"0.02": 0.0,
			"0.021": 0.0,
			"0.022": 0.0,
			"0.023": 0.0,
			"0.024": 0.0,
			"0.025": 0.0
		}
	}
}
