{
	 "smiles": "CN1N=C(SC1=N/C(C)=O)S(N)(=O)=O", 
	 "Tm": 487.15, 
	 "num_atms": 22, 
	 "gaussian": { 
		 "optdone": 1, 
		 "sigma_profile": "yes", 
		 "theory": "DFT", 
		 "functional": "B3LYP", 
		 "basiset": "6-31G**", 
		 "properties": { 
			 "R2extent": 4345.2935, 
			 "electric_dipole_moment_norm": 4.57879846466, 
			 "electric_quadrupole_moment_norm": 17.070138273, 
			 "total_energy": -1436.30935237, 
			 "HOMO_LUMO_gap": 0.18595, 
			 "cosmo_polarized_energy": -19.54, 
			 "cosmo_cavitation_energy": 30.16, 
			 "cosmo_dispersion_energy": -23.1, 
			 "cosmo_repulsion_energy": 1.78, 
			 "cosmo_total_nonelectrostatic_energy": 8.84, 
			 "SMD_solvation_energy": 3.65 
		},
		"coords": [
			{
				"x": -0.6147531322,
				"y": 0.4443636878,
				"z": -2.6668881224,
				"element": "C" 
			},
			{
				"x": 0.0668525,
				"y": 0.0693022089,
				"z": -1.4323294815,
				"element": "N" 
			},
			{
				"x": 0.2933567178,
				"y": -1.2411423597,
				"z": -1.1665886067,
				"element": "N" 
			},
			{
				"x": 0.8843087815,
				"y": -1.3627935598,
				"z": -0.0268797298,
				"element": "C" 
			},
			{
				"x": 1.2277261766,
				"y": 0.1209461213,
				"z": 0.8643131385,
				"element": "S" 
			},
			{
				"x": 0.4786697099,
				"y": 0.986529991,
				"z": -0.5027346184,
				"element": "C" 
			},
			{
				"x": 0.299499298,
				"y": 2.2616149113,
				"z": -0.670021226,
				"element": "N" 
			},
			{
				"x": 0.7678376603,
				"y": 3.0799510818,
				"z": 0.3522334081,
				"element": "C" 
			},
			{
				"x": 0.5437240036,
				"y": 4.554230157,
				"z": 0.1200348419,
				"element": "C" 
			},
			{
				"x": 1.3191025578,
				"y": 2.6486688591,
				"z": 1.3664873454,
				"element": "O" 
			},
			{
				"x": 1.3406070138,
				"y": -2.9848149883,
				"z": 0.5919612378,
				"element": "S" 
			},
			{
				"x": 2.8391447848,
				"y": -3.2338381221,
				"z": -0.1315914864,
				"element": "N" 
			},
			{
				"x": 1.5833471502,
				"y": -2.7980262179,
				"z": 2.0214845661,
				"element": "O" 
			},
			{
				"x": 0.3907743288,
				"y": -3.9544539225,
				"z": 0.0583838175,
				"element": "O" 
			},
			{
				"x": -1.5513550274,
				"y": 0.9565880363,
				"z": -2.4351572042,
				"element": "H" 
			},
			{
				"x": -0.8091064435,
				"y": -0.474104678,
				"z": -3.218064449,
				"element": "H" 
			},
			{
				"x": 0.0182224183,
				"y": 1.1165919322,
				"z": -3.2500136732,
				"element": "H" 
			},
			{
				"x": 1.0214309309,
				"y": 4.8610949513,
				"z": -0.8159075988,
				"element": "H" 
			},
			{
				"x": 0.9470358518,
				"y": 5.1305877628,
				"z": 0.9526080903,
				"element": "H" 
			},
			{
				"x": -0.5273317843,
				"y": 4.753755052,
				"z": 0.0114490247,
				"element": "H" 
			},
			{
				"x": 2.7852031307,
				"y": -3.9707241337,
				"z": -0.8290685561,
				"element": "H" 
			},
			{
				"x": 3.5402033726,
				"y": -3.4189267711,
				"z": 0.5804892821,
				"element": "H" 
			}
		],
		 "valence_orbital": [ 
			{
				"type": "occ",
				"energy": -0.3186,
				"method": "rhf"
			},
			{
				"type": "occ",
				"energy": -0.30355,
				"method": "rhf"
			},
			{
				"type": "occ",
				"energy": -0.29653,
				"method": "rhf"
			},
			{
				"type": "occ",
				"energy": -0.2577,
				"method": "rhf"
			},
			{
				"type": "occ",
				"energy": -0.24666,
				"method": "rhf"
			},
			{
				"type": "unocc",
				"energy": -0.06071,
				"method": "rhf"
			},
			{
				"type": "unocc",
				"energy": -0.03295,
				"method": "rhf"
			},
			{
				"type": "unocc",
				"energy": 0.00725,
				"method": "rhf"
			},
			{
				"type": "unocc",
				"energy": 0.03138,
				"method": "rhf"
			},
			{
				"type": "unocc",
				"energy": 0.05393,
				"method": "rhf"
			}
		],
		"cosmo_sigma_profile": { 
			"-0.025": 0.0,
			"-0.024": 0.0,
			"-0.023": 0.0,
			"-0.022": 0.0,
			"-0.021": 0.0,
			"-0.02": 0.0,
			"-0.019": 0.0,
			"-0.018": 0.0,
			"-0.017": 0.0,
			"-0.016": 0.740313075117,
			"-0.015": 2.96457872667,
			"-0.014": 2.42905864863,
			"-0.013": 2.62874246342,
			"-0.012": 2.41086335752,
			"-0.011": 1.95834147383,
			"-0.01": 2.05693587521,
			"-0.009": 1.64869695035,
			"-0.008": 2.49930115535,
			"-0.007": 6.90115436143,
			"-0.006": 13.6092332157,
			"-0.005": 17.92511179,
			"-0.004": 21.0555166225,
			"-0.003": 16.4614133179,
			"-0.002": 16.1196000187,
			"-0.001": 17.2843841801,
			"0.0": 11.9770468379,
			"0.001": 11.8922640252,
			"0.002": 9.67746100329,
			"0.003": 8.12956977936,
			"0.004": 7.52747745135,
			"0.005": 6.84256084319,
			"0.006": 6.05675554157,
			"0.007": 8.56699776266,
			"0.008": 7.78638947349,
			"0.009": 11.7109776752,
			"0.01": 15.1501173754,
			"0.011": 4.1792180453,
			"0.012": 2.61539334486,
			"0.013": 1.38898635039,
			"0.014": 0.120752773358,
			"0.015": 0.0,
			"0.016": 0.0,
			"0.017": 0.0,
			"0.018": 0.0,
			"0.019": 0.0,
			"0.02": 0.0,
			"0.021": 0.0,
			"0.022": 0.0,
			"0.023": 0.0,
			"0.024": 0.0,
			"0.025": 0.0
		}
	}
}
