{
	 "smiles": "CC1=CC(CBr)=CC(C)=C1", 
	 "Tm": 311.15, 
	 "num_atms": 21, 
	 "gaussian": { 
		 "optdone": 1, 
		 "sigma_profile": "yes", 
		 "theory": "DFT", 
		 "functional": "B3LYP", 
		 "basiset": "6-31G**", 
		 "properties": { 
			 "R2extent": 3391.2299, 
			 "electric_dipole_moment_norm": 2.69377116697, 
			 "electric_quadrupole_moment_norm": 9.71430588822, 
			 "total_energy": -2921.01358787, 
			 "HOMO_LUMO_gap": 0.20649, 
			 "cosmo_polarized_energy": -6.05, 
			 "cosmo_cavitation_energy": 26.52, 
			 "cosmo_dispersion_energy": -19.38, 
			 "cosmo_repulsion_energy": 1.6, 
			 "cosmo_total_nonelectrostatic_energy": 8.75, 
			 "SMD_solvation_energy": 3.38 
		},
		"coords": [
			{
				"x": -2.3465119241,
				"y": 2.3527019438,
				"z": -0.5619530216,
				"element": "C" 
			},
			{
				"x": -1.2977618928,
				"y": 1.2839644525,
				"z": -0.3586389469,
				"element": "C" 
			},
			{
				"x": -0.2037160405,
				"y": 1.1787980467,
				"z": -1.222841794,
				"element": "C" 
			},
			{
				"x": 0.7870577336,
				"y": 0.2110039573,
				"z": -1.0185194327,
				"element": "C" 
			},
			{
				"x": 1.9423419907,
				"y": 0.1032132924,
				"z": -1.958551248,
				"element": "C" 
			},
			{
				"x": 3.4989350073,
				"y": 1.248110022,
				"z": -1.3979712218,
				"element": "Br" 
			},
			{
				"x": 0.6748566311,
				"y": -0.6644554366,
				"z": 0.0681384642,
				"element": "C" 
			},
			{
				"x": -0.4113785928,
				"y": -0.5891991154,
				"z": 0.94529732,
				"element": "C" 
			},
			{
				"x": -0.5491532515,
				"y": -1.5613923012,
				"z": 2.0939520576,
				"element": "C" 
			},
			{
				"x": -1.3850344107,
				"y": 0.3910925742,
				"z": 0.7167497762,
				"element": "C" 
			},
			{
				"x": -2.1171272303,
				"y": 3.2479368933,
				"z": 0.0293734173,
				"element": "H" 
			},
			{
				"x": -3.337614588,
				"y": 2.0058490662,
				"z": -0.2537450782,
				"element": "H" 
			},
			{
				"x": -2.4057721432,
				"y": 2.6616205253,
				"z": -1.6096778523,
				"element": "H" 
			},
			{
				"x": -0.1158186221,
				"y": 1.8633198165,
				"z": -2.0636143536,
				"element": "H" 
			},
			{
				"x": 2.359436254,
				"y": -0.9010494146,
				"z": -2.0032780474,
				"element": "H" 
			},
			{
				"x": 1.7062531659,
				"y": 0.455810574,
				"z": -2.9608176225,
				"element": "H" 
			},
			{
				"x": 1.4464252609,
				"y": -1.4134571958,
				"z": 0.2320315581,
				"element": "H" 
			},
			{
				"x": -1.164481825,
				"y": -2.4247629139,
				"z": 1.8110804206,
				"element": "H" 
			},
			{
				"x": -1.0276627773,
				"y": -1.0926523447,
				"z": 2.9592648493,
				"element": "H" 
			},
			{
				"x": 0.4245385256,
				"y": -1.9452259649,
				"z": 2.4119860805,
				"element": "H" 
			},
			{
				"x": -2.2345112707,
				"y": 0.4603735229,
				"z": 1.3936346754,
				"element": "H" 
			}
		],
		 "valence_orbital": [ 
			{
				"type": "occ",
				"energy": -0.33499,
				"method": "rhf"
			},
			{
				"type": "occ",
				"energy": -0.26772,
				"method": "rhf"
			},
			{
				"type": "occ",
				"energy": -0.26516,
				"method": "rhf"
			},
			{
				"type": "occ",
				"energy": -0.24043,
				"method": "rhf"
			},
			{
				"type": "occ",
				"energy": -0.24005,
				"method": "rhf"
			},
			{
				"type": "unocc",
				"energy": -0.03356,
				"method": "rhf"
			},
			{
				"type": "unocc",
				"energy": -0.0019,
				"method": "rhf"
			},
			{
				"type": "unocc",
				"energy": 0.03197,
				"method": "rhf"
			},
			{
				"type": "unocc",
				"energy": 0.09065,
				"method": "rhf"
			},
			{
				"type": "unocc",
				"energy": 0.11141,
				"method": "rhf"
			}
		],
		"cosmo_sigma_profile": { 
			"-0.025": 0.0,
			"-0.024": 0.0,
			"-0.023": 0.0,
			"-0.022": 0.0,
			"-0.021": 0.0,
			"-0.02": 0.0,
			"-0.019": 0.0,
			"-0.018": 0.0,
			"-0.017": 0.0,
			"-0.016": 0.0,
			"-0.015": 0.0,
			"-0.014": 0.0,
			"-0.013": 0.0,
			"-0.012": 0.0,
			"-0.011": 0.0,
			"-0.01": 0.0,
			"-0.009": 0.0,
			"-0.008": 0.596248553489,
			"-0.007": 4.87981132006,
			"-0.006": 6.89188126825,
			"-0.005": 10.350970983,
			"-0.004": 22.7288509323,
			"-0.003": 19.7841486446,
			"-0.002": 18.9234753432,
			"-0.001": 19.6343621758,
			"0.0": 24.2478996094,
			"0.001": 14.4846847819,
			"0.002": 9.26978953255,
			"0.003": 11.1729955016,
			"0.004": 10.8443179541,
			"0.005": 14.3740842054,
			"0.006": 15.9730419452,
			"0.007": 8.52512696524,
			"0.008": 0.0,
			"0.009": 0.0,
			"0.01": 0.0,
			"0.011": 0.0,
			"0.012": 0.0,
			"0.013": 0.0,
			"0.014": 0.0,
			"0.015": 0.0,
			"0.016": 0.0,
			"0.017": 0.0,
			"0.018": 0.0,
			"0.019": 0.0,
			"0.02": 0.0,
			"0.021": 0.0,
			"0.022": 0.0,
			"0.023": 0.0,
			"0.024": 0.0,
			"0.025": 0.0
		}
	}
}
