{
	 "smiles": "CC1CCC(CC1)NS(=O)(=O)C1=CC(=C(Cl)C=C1)[N+]([O-])=O", 
	 "Tm": 375.15, 
	 "num_atms": 38, 
	 "gaussian": { 
		 "optdone": 1, 
		 "sigma_profile": "yes", 
		 "theory": "DFT", 
		 "functional": "B3LYP", 
		 "basiset": "6-31G**", 
		 "properties": { 
			 "R2extent": 11225.2033, 
			 "electric_dipole_moment_norm": 4.51066978729, 
			 "electric_quadrupole_moment_norm": 26.5898626275, 
			 "total_energy": -1774.24376513, 
			 "HOMO_LUMO_gap": 0.16898, 
			 "cosmo_polarized_energy": -16.5, 
			 "cosmo_cavitation_energy": 43.66, 
			 "cosmo_dispersion_energy": -30.53, 
			 "cosmo_repulsion_energy": 2.31, 
			 "cosmo_total_nonelectrostatic_energy": 15.45, 
			 "SMD_solvation_energy": 7.66 
		},
		"coords": [
			{
				"x": -3.5973434196,
				"y": 0.6940561049,
				"z": 2.6716665364,
				"element": "C" 
			},
			{
				"x": -2.1177129942,
				"y": 0.3405621919,
				"z": 2.8952329363,
				"element": "C" 
			},
			{
				"x": -1.1604593651,
				"y": 1.4150485495,
				"z": 2.3344306111,
				"element": "C" 
			},
			{
				"x": -1.0835082809,
				"y": 1.4157245951,
				"z": 0.7980220406,
				"element": "C" 
			},
			{
				"x": -0.7066455877,
				"y": 0.0270549736,
				"z": 0.2599380657,
				"element": "C" 
			},
			{
				"x": -1.6693821917,
				"y": -1.0530657692,
				"z": 0.7796220032,
				"element": "C" 
			},
			{
				"x": -1.7433399534,
				"y": -1.0410820989,
				"z": 2.3160350632,
				"element": "C" 
			},
			{
				"x": -0.6450638951,
				"y": 0.0867802102,
				"z": -1.2184896317,
				"element": "N" 
			},
			{
				"x": 0.3180952797,
				"y": -0.9851665344,
				"z": -2.0732896915,
				"element": "S" 
			},
			{
				"x": -0.282582616,
				"y": -1.0651485152,
				"z": -3.4073377922,
				"element": "O" 
			},
			{
				"x": 0.6179928556,
				"y": -2.1955178979,
				"z": -1.2984552993,
				"element": "O" 
			},
			{
				"x": 1.8730478251,
				"y": -0.0834777258,
				"z": -2.1910078065,
				"element": "C" 
			},
			{
				"x": 1.8831449221,
				"y": 1.2292985219,
				"z": -2.6491111735,
				"element": "C" 
			},
			{
				"x": 3.0993168273,
				"y": 1.888185906,
				"z": -2.8131497377,
				"element": "C" 
			},
			{
				"x": 4.3113344437,
				"y": 1.2479308313,
				"z": -2.4997844247,
				"element": "C" 
			},
			{
				"x": 5.8617708235,
				"y": 2.0275417299,
				"z": -2.5952679514,
				"element": "Cl" 
			},
			{
				"x": 4.2753338963,
				"y": -0.06729399,
				"z": -2.0272723584,
				"element": "C" 
			},
			{
				"x": 3.0645164974,
				"y": -0.7396664169,
				"z": -1.8822115811,
				"element": "C" 
			},
			{
				"x": 3.0237596157,
				"y": 3.2686798415,
				"z": -3.3297246155,
				"element": "N" 
			},
			{
				"x": 2.0274949791,
				"y": 3.9179990151,
				"z": -3.0138962494,
				"element": "O" 
			},
			{
				"x": 3.9297329958,
				"y": 3.662834474,
				"z": -4.0540679911,
				"element": "O" 
			},
			{
				"x": -4.2500819656,
				"y": -0.0633783459,
				"z": 3.1189792683,
				"element": "H" 
			},
			{
				"x": -3.8588096583,
				"y": 0.7638833552,
				"z": 1.6107936655,
				"element": "H" 
			},
			{
				"x": -3.8414346652,
				"y": 1.6577575343,
				"z": 3.1317955413,
				"element": "H" 
			},
			{
				"x": -1.9604906805,
				"y": 0.2964032577,
				"z": 3.9813981999,
				"element": "H" 
			},
			{
				"x": -1.4582874547,
				"y": 2.4091565324,
				"z": 2.6884863167,
				"element": "H" 
			},
			{
				"x": -0.1532167383,
				"y": 1.2340294941,
				"z": 2.7345240529,
				"element": "H" 
			},
			{
				"x": -0.3526300685,
				"y": 2.15342881,
				"z": 0.4501643512,
				"element": "H" 
			},
			{
				"x": -2.0511367755,
				"y": 1.7117894711,
				"z": 0.3705179139,
				"element": "H" 
			},
			{
				"x": 0.3084204136,
				"y": -0.2136125468,
				"z": 0.6000520975,
				"element": "H" 
			},
			{
				"x": -2.6649271989,
				"y": -0.8693720776,
				"z": 0.3512443748,
				"element": "H" 
			},
			{
				"x": -1.3433659202,
				"y": -2.0332893487,
				"z": 0.4200344913,
				"element": "H" 
			},
			{
				"x": -0.7638050402,
				"y": -1.3388166975,
				"z": 2.7149370243,
				"element": "H" 
			},
			{
				"x": -2.4570044413,
				"y": -1.8002817867,
				"z": 2.6574365732,
				"element": "H" 
			},
			{
				"x": -1.5500947759,
				"y": 0.1334458758,
				"z": -1.6818330905,
				"element": "H" 
			},
			{
				"x": 0.9651843655,
				"y": 1.7591644806,
				"z": -2.8706913905,
				"element": "H" 
			},
			{
				"x": 5.2085477661,
				"y": -0.5549392446,
				"z": -1.7698644693,
				"element": "H" 
			},
			{
				"x": 3.0347301805,
				"y": -1.76114676,
				"z": -1.519955873,
				"element": "H" 
			}
		],
		 "valence_orbital": [ 
			{
				"type": "occ",
				"energy": -0.31155,
				"method": "rhf"
			},
			{
				"type": "occ",
				"energy": -0.30676,
				"method": "rhf"
			},
			{
				"type": "occ",
				"energy": -0.29362,
				"method": "rhf"
			},
			{
				"type": "occ",
				"energy": -0.28965,
				"method": "rhf"
			},
			{
				"type": "occ",
				"energy": -0.27036,
				"method": "rhf"
			},
			{
				"type": "unocc",
				"energy": -0.10138,
				"method": "rhf"
			},
			{
				"type": "unocc",
				"energy": -0.06518,
				"method": "rhf"
			},
			{
				"type": "unocc",
				"energy": -0.03231,
				"method": "rhf"
			},
			{
				"type": "unocc",
				"energy": 0.00012,
				"method": "rhf"
			},
			{
				"type": "unocc",
				"energy": 0.04767,
				"method": "rhf"
			}
		],
		"cosmo_sigma_profile": { 
			"-0.025": 0.0,
			"-0.024": 0.0,
			"-0.023": 0.0,
			"-0.022": 0.0,
			"-0.021": 0.0,
			"-0.02": 0.0,
			"-0.019": 0.0,
			"-0.018": 0.0,
			"-0.017": 0.0,
			"-0.016": 0.0,
			"-0.015": 0.0479257198453,
			"-0.014": 0.627646464693,
			"-0.013": 0.872818491025,
			"-0.012": 1.01783201306,
			"-0.011": 0.940345922561,
			"-0.01": 1.33485122324,
			"-0.009": 6.00100240097,
			"-0.008": 7.28502709935,
			"-0.007": 7.71220615029,
			"-0.006": 7.59878089572,
			"-0.005": 10.7584299025,
			"-0.004": 14.9837637164,
			"-0.003": 31.3422352001,
			"-0.002": 45.0870570338,
			"-0.001": 44.4513768207,
			"0.0": 41.8689666156,
			"0.001": 28.1131884363,
			"0.002": 16.5483281742,
			"0.003": 10.8578755059,
			"0.004": 6.56445692775,
			"0.005": 7.05704269861,
			"0.006": 8.93700013808,
			"0.007": 13.7507938863,
			"0.008": 8.58412389613,
			"0.009": 7.24757610756,
			"0.01": 8.1872405241,
			"0.011": 7.14684178569,
			"0.012": 0.945761843681,
			"0.013": 0.0,
			"0.014": 0.0,
			"0.015": 0.0,
			"0.016": 0.0,
			"0.017": 0.0,
			"0.018": 0.0,
			"0.019": 0.0,
			"0.02": 0.0,
			"0.021": 0.0,
			"0.022": 0.0,
			"0.023": 0.0,
			"0.024": 0.0,
			"0.025": 0.0
		}
	}
}
