{
	 "smiles": "COC1=C(C=NO)C=CC=C1", 
	 "Tm": 360.15, 
	 "num_atms": 20, 
	 "gaussian": { 
		 "optdone": 1, 
		 "sigma_profile": "yes", 
		 "theory": "DFT", 
		 "functional": "B3LYP", 
		 "basiset": "6-31G**", 
		 "properties": { 
			 "R2extent": 3167.8313, 
			 "electric_dipole_moment_norm": 1.94242465491, 
			 "electric_quadrupole_moment_norm": 9.97577242072, 
			 "total_energy": -515.400905614, 
			 "HOMO_LUMO_gap": 0.17367, 
			 "cosmo_polarized_energy": -9.59, 
			 "cosmo_cavitation_energy": 24.34, 
			 "cosmo_dispersion_energy": -18.04, 
			 "cosmo_repulsion_energy": 1.46, 
			 "cosmo_total_nonelectrostatic_energy": 7.76, 
			 "SMD_solvation_energy": 5.5 
		},
		"coords": [
			{
				"x": -2.3574359717,
				"y": 2.0903210792,
				"z": -1.9008525181,
				"element": "C" 
			},
			{
				"x": -1.2966502357,
				"y": 1.2592359923,
				"z": -2.3447628722,
				"element": "O" 
			},
			{
				"x": -0.2854581342,
				"y": 0.9646051465,
				"z": -1.4750163017,
				"element": "C" 
			},
			{
				"x": 0.7430214099,
				"y": 0.1308452534,
				"z": -1.9767002999,
				"element": "C" 
			},
			{
				"x": 0.6719530366,
				"y": -0.3566845018,
				"z": -3.357275715,
				"element": "C" 
			},
			{
				"x": 1.5910772708,
				"y": -1.113325565,
				"z": -3.8359994935,
				"element": "N" 
			},
			{
				"x": 1.3103314999,
				"y": -1.4515700845,
				"z": -5.1678791541,
				"element": "O" 
			},
			{
				"x": 1.8070235732,
				"y": -0.2040858522,
				"z": -1.1259682251,
				"element": "C" 
			},
			{
				"x": 1.8635537956,
				"y": 0.2649869488,
				"z": 0.183059587,
				"element": "C" 
			},
			{
				"x": 0.8421492358,
				"y": 1.0859530292,
				"z": 0.6628210127,
				"element": "C" 
			},
			{
				"x": -0.2302422405,
				"y": 1.4373002932,
				"z": -0.1587931422,
				"element": "C" 
			},
			{
				"x": -3.0370588199,
				"y": 2.1867266912,
				"z": -2.7487786371,
				"element": "H" 
			},
			{
				"x": -1.997422215,
				"y": 3.0857333329,
				"z": -1.6115110833,
				"element": "H" 
			},
			{
				"x": -2.8954698943,
				"y": 1.6425308412,
				"z": -1.0557651004,
				"element": "H" 
			},
			{
				"x": -0.1790159779,
				"y": -0.0630266013,
				"z": -3.9703135107,
				"element": "H" 
			},
			{
				"x": 2.063041904,
				"y": -2.0104774672,
				"z": -5.4022221968,
				"element": "H" 
			},
			{
				"x": 2.5899056182,
				"y": -0.8434150458,
				"z": -1.5198841758,
				"element": "H" 
			},
			{
				"x": 2.6964563841,
				"y": -0.0069104353,
				"z": 0.8238639826,
				"element": "H" 
			},
			{
				"x": 0.8729400668,
				"y": 1.4595517193,
				"z": 1.6823823126,
				"element": "H" 
			},
			{
				"x": -1.0142003059,
				"y": 2.075505226,
				"z": 0.2303955311,
				"element": "H" 
			}
		],
		 "valence_orbital": [ 
			{
				"type": "occ",
				"energy": -0.32257,
				"method": "rhf"
			},
			{
				"type": "occ",
				"energy": -0.28533,
				"method": "rhf"
			},
			{
				"type": "occ",
				"energy": -0.26962,
				"method": "rhf"
			},
			{
				"type": "occ",
				"energy": -0.2353,
				"method": "rhf"
			},
			{
				"type": "occ",
				"energy": -0.21002,
				"method": "rhf"
			},
			{
				"type": "unocc",
				"energy": -0.03635,
				"method": "rhf"
			},
			{
				"type": "unocc",
				"energy": 0.01154,
				"method": "rhf"
			},
			{
				"type": "unocc",
				"energy": 0.05599,
				"method": "rhf"
			},
			{
				"type": "unocc",
				"energy": 0.08278,
				"method": "rhf"
			},
			{
				"type": "unocc",
				"energy": 0.09244,
				"method": "rhf"
			}
		],
		"cosmo_sigma_profile": { 
			"-0.025": 0.0,
			"-0.024": 0.0,
			"-0.023": 0.0,
			"-0.022": 0.0,
			"-0.021": 0.0,
			"-0.02": 0.0,
			"-0.019": 0.0,
			"-0.018": 0.0965211793577,
			"-0.017": 0.948265555634,
			"-0.016": 1.09749241029,
			"-0.015": 0.909937352128,
			"-0.014": 0.679862956589,
			"-0.013": 0.372003721758,
			"-0.012": 0.847768785364,
			"-0.011": 0.300423052286,
			"-0.01": 0.777071433164,
			"-0.009": 0.6172403775,
			"-0.008": 1.30116758183,
			"-0.007": 1.73086985692,
			"-0.006": 10.9358316074,
			"-0.005": 16.4103628828,
			"-0.004": 16.9723021539,
			"-0.003": 16.32919932,
			"-0.002": 10.3379340872,
			"-0.001": 8.58544119349,
			"0.0": 9.74281368371,
			"0.001": 11.7613305621,
			"0.002": 13.4795375252,
			"0.003": 15.734030552,
			"0.004": 16.1731656498,
			"0.005": 14.3853446594,
			"0.006": 7.23577334055,
			"0.007": 4.31457995823,
			"0.008": 3.20079607212,
			"0.009": 2.92553580719,
			"0.01": 3.26923736984,
			"0.011": 2.28206027029,
			"0.012": 0.00585142280264,
			"0.013": 0.0,
			"0.014": 0.0,
			"0.015": 0.0,
			"0.016": 0.0,
			"0.017": 0.0,
			"0.018": 0.0,
			"0.019": 0.0,
			"0.02": 0.0,
			"0.021": 0.0,
			"0.022": 0.0,
			"0.023": 0.0,
			"0.024": 0.0,
			"0.025": 0.0
		}
	}
}
