{
	 "smiles": "O=CC1=CC(OCC2=CC=CC=C2)=C(OCC2=CC=CC=C2)C=C1", 
	 "Tm": 363.15, 
	 "num_atms": 42, 
	 "gaussian": { 
		 "optdone": 1, 
		 "sigma_profile": "yes", 
		 "theory": "DFT", 
		 "functional": "B3LYP", 
		 "basiset": "6-31G**", 
		 "properties": { 
			 "R2extent": 9901.9093, 
			 "electric_dipole_moment_norm": 3.67646735604, 
			 "electric_quadrupole_moment_norm": 23.3127470625, 
			 "total_energy": -1036.72352304, 
			 "HOMO_LUMO_gap": 0.18072, 
			 "cosmo_polarized_energy": -13.12, 
			 "cosmo_cavitation_energy": 47.3, 
			 "cosmo_dispersion_energy": -30.73, 
			 "cosmo_repulsion_energy": 2.37, 
			 "cosmo_total_nonelectrostatic_energy": 18.95, 
			 "SMD_solvation_energy": 8.95 
		},
		"coords": [
			{
				"x": 2.5279825164,
				"y": -3.3932463073,
				"z": 3.5809003252,
				"element": "O" 
			},
			{
				"x": 2.2469551937,
				"y": -3.1144714995,
				"z": 2.4296585488,
				"element": "C" 
			},
			{
				"x": 1.6115257881,
				"y": -1.8520507425,
				"z": 1.9993230234,
				"element": "C" 
			},
			{
				"x": 1.3232416022,
				"y": -1.6469005801,
				"z": 0.6435388969,
				"element": "C" 
			},
			{
				"x": 0.7227200239,
				"y": -0.4656214102,
				"z": 0.2170266019,
				"element": "C" 
			},
			{
				"x": 0.4773882518,
				"y": -0.2694149637,
				"z": -1.1250388723,
				"element": "O" 
			},
			{
				"x": -0.9182084551,
				"y": -0.3254155407,
				"z": -1.5153805664,
				"element": "C" 
			},
			{
				"x": -1.4629542549,
				"y": -1.7340806344,
				"z": -1.5252576791,
				"element": "C" 
			},
			{
				"x": -0.9227340968,
				"y": -2.6921408237,
				"z": -2.3955899125,
				"element": "C" 
			},
			{
				"x": -1.416285101,
				"y": -3.9952023395,
				"z": -2.4095471942,
				"element": "C" 
			},
			{
				"x": -2.4614092026,
				"y": -4.3573966749,
				"z": -1.5540319372,
				"element": "C" 
			},
			{
				"x": -3.0048988978,
				"y": -3.4119485191,
				"z": -0.6845591524,
				"element": "C" 
			},
			{
				"x": -2.5036395868,
				"y": -2.107901153,
				"z": -0.6688930654,
				"element": "C" 
			},
			{
				"x": 0.418799422,
				"y": 0.5367230334,
				"z": 1.1627054204,
				"element": "C" 
			},
			{
				"x": -0.20322407,
				"y": 1.7016981134,
				"z": 0.7887659801,
				"element": "O" 
			},
			{
				"x": 0.5779707107,
				"y": 2.611618764,
				"z": -0.0304770057,
				"element": "C" 
			},
			{
				"x": 1.6433480029,
				"y": 3.3292534495,
				"z": 0.7631007634,
				"element": "C" 
			},
			{
				"x": 2.9993754715,
				"y": 3.1387546298,
				"z": 0.4779083602,
				"element": "C" 
			},
			{
				"x": 3.9818842961,
				"y": 3.8055736656,
				"z": 1.214003119,
				"element": "C" 
			},
			{
				"x": 3.6143548723,
				"y": 4.6644730921,
				"z": 2.2496067456,
				"element": "C" 
			},
			{
				"x": 2.2615285146,
				"y": 4.8566111366,
				"z": 2.5464758157,
				"element": "C" 
			},
			{
				"x": 1.2838794264,
				"y": 4.1944809178,
				"z": 1.806626572,
				"element": "C" 
			},
			{
				"x": 0.6949919227,
				"y": 0.3224651478,
				"z": 2.5190792528,
				"element": "C" 
			},
			{
				"x": 1.2837080342,
				"y": -0.8631561369,
				"z": 2.9389932635,
				"element": "C" 
			},
			{
				"x": 2.4633894454,
				"y": -3.8270134994,
				"z": 1.6019440921,
				"element": "H" 
			},
			{
				"x": 1.5527740705,
				"y": -2.4087210579,
				"z": -0.0960555617,
				"element": "H" 
			},
			{
				"x": -1.5105450444,
				"y": 0.3216599171,
				"z": -0.8608431885,
				"element": "H" 
			},
			{
				"x": -0.9255394682,
				"y": 0.1014174954,
				"z": -2.5227469595,
				"element": "H" 
			},
			{
				"x": -0.1093275882,
				"y": -2.4101844228,
				"z": -3.0593173247,
				"element": "H" 
			},
			{
				"x": -0.9912350245,
				"y": -4.7283908963,
				"z": -3.0892659728,
				"element": "H" 
			},
			{
				"x": -2.8483560113,
				"y": -5.3722992608,
				"z": -1.5668950557,
				"element": "H" 
			},
			{
				"x": -3.8143675521,
				"y": -3.6882532383,
				"z": -0.0150216132,
				"element": "H" 
			},
			{
				"x": -2.924408292,
				"y": -1.3741299696,
				"z": 0.0140972592,
				"element": "H" 
			},
			{
				"x": 1.0118166199,
				"y": 2.0681906776,
				"z": -0.8743819881,
				"element": "H" 
			},
			{
				"x": -0.165024955,
				"y": 3.3168138034,
				"z": -0.4139407414,
				"element": "H" 
			},
			{
				"x": 3.2878446455,
				"y": 2.4651946299,
				"z": -0.3252214048,
				"element": "H" 
			},
			{
				"x": 5.0313057389,
				"y": 3.6497478623,
				"z": 0.9809610833,
				"element": "H" 
			},
			{
				"x": 4.3765173663,
				"y": 5.1828392788,
				"z": 2.8243608094,
				"element": "H" 
			},
			{
				"x": 1.971335525,
				"y": 5.5256871078,
				"z": 3.3516674107,
				"element": "H" 
			},
			{
				"x": 0.232060242,
				"y": 4.3420445045,
				"z": 2.0380227311,
				"element": "H" 
			},
			{
				"x": 0.4454541344,
				"y": 1.1122171767,
				"z": 3.219670607,
				"element": "H" 
			},
			{
				"x": 1.5112057632,
				"y": -1.0425247324,
				"z": 3.9846285138,
				"element": "H" 
			}
		],
		 "valence_orbital": [ 
			{
				"type": "occ",
				"energy": -0.25477,
				"method": "rhf"
			},
			{
				"type": "occ",
				"energy": -0.25381,
				"method": "rhf"
			},
			{
				"type": "occ",
				"energy": -0.25047,
				"method": "rhf"
			},
			{
				"type": "occ",
				"energy": -0.24684,
				"method": "rhf"
			},
			{
				"type": "occ",
				"energy": -0.23547,
				"method": "rhf"
			},
			{
				"type": "unocc",
				"energy": -0.05475,
				"method": "rhf"
			},
			{
				"type": "unocc",
				"energy": -0.01629,
				"method": "rhf"
			},
			{
				"type": "unocc",
				"energy": -0.01386,
				"method": "rhf"
			},
			{
				"type": "unocc",
				"energy": -0.00957,
				"method": "rhf"
			},
			{
				"type": "unocc",
				"energy": -0.00537,
				"method": "rhf"
			}
		],
		"cosmo_sigma_profile": { 
			"-0.025": 0.0,
			"-0.024": 0.0,
			"-0.023": 0.0,
			"-0.022": 0.0,
			"-0.021": 0.0,
			"-0.02": 0.0,
			"-0.019": 0.0,
			"-0.018": 0.0,
			"-0.017": 0.0,
			"-0.016": 0.0,
			"-0.015": 0.0,
			"-0.014": 0.0,
			"-0.013": 0.0,
			"-0.012": 0.0,
			"-0.011": 0.0,
			"-0.01": 0.0,
			"-0.009": 0.00200633466717,
			"-0.008": 1.29984026967,
			"-0.007": 3.72590835792,
			"-0.006": 22.4798956405,
			"-0.005": 36.3733487904,
			"-0.004": 37.1854721399,
			"-0.003": 33.2072649644,
			"-0.002": 27.1063912219,
			"-0.001": 23.9819133755,
			"0.0": 25.0186516852,
			"0.001": 26.4797960155,
			"0.002": 32.0346824637,
			"0.003": 29.4812754458,
			"0.004": 22.5681095048,
			"0.005": 22.1499125658,
			"0.006": 11.4349324689,
			"0.007": 3.30979118285,
			"0.008": 3.17445233493,
			"0.009": 3.19583571577,
			"0.01": 4.19333344857,
			"0.011": 5.15217752525,
			"0.012": 3.51490229087,
			"0.013": 1.03447874377,
			"0.014": 0.0165334615154,
			"0.015": 0.0,
			"0.016": 0.0,
			"0.017": 0.0,
			"0.018": 0.0,
			"0.019": 0.0,
			"0.02": 0.0,
			"0.021": 0.0,
			"0.022": 0.0,
			"0.023": 0.0,
			"0.024": 0.0,
			"0.025": 0.0
		}
	}
}
