{
	 "smiles": "ClCC1=CC=C(I)C=C1", 
	 "Tm": 323.15, 
	 "num_atms": 15, 
	 "gaussian": { 
		 "optdone": 1, 
		 "sigma_profile": "yes", 
		 "theory": "DFT", 
		 "functional": "B3LYP", 
		 "basiset": "6-31G**", 
		 "properties": { 
			 "R2extent": 2524.1276, 
			 "electric_dipole_moment_norm": 1.92752192465, 
			 "electric_quadrupole_moment_norm": 12.0954943694, 
			 "total_energy": -741.943782402, 
			 "HOMO_LUMO_gap": 0.20127, 
			 "cosmo_polarized_energy": -6.82, 
			 "cosmo_cavitation_energy": 24.05, 
			 "cosmo_dispersion_energy": -19.12, 
			 "cosmo_repulsion_energy": 1.54, 
			 "cosmo_total_nonelectrostatic_energy": 6.47, 
			 "SMD_solvation_energy": 2.83 
		},
		"coords": [
			{
				"x": -2.0802370864,
				"y": -2.8125126577,
				"z": -2.8944729915,
				"element": "Cl" 
			},
			{
				"x": -1.5010685282,
				"y": -2.7744359073,
				"z": -1.1517360343,
				"element": "C" 
			},
			{
				"x": -0.521722022,
				"y": -1.6675180487,
				"z": -0.9009313262,
				"element": "C" 
			},
			{
				"x": -0.9637487073,
				"y": -0.4021551075,
				"z": -0.4959256593,
				"element": "C" 
			},
			{
				"x": -0.0597477521,
				"y": 0.6322963153,
				"z": -0.2566599707,
				"element": "C" 
			},
			{
				"x": 1.3058319965,
				"y": 0.3957727688,
				"z": -0.4270840946,
				"element": "C" 
			},
			{
				"x": 2.6917128546,
				"y": 1.9572559145,
				"z": -0.0596086205,
				"element": "I" 
			},
			{
				"x": 1.7708631777,
				"y": -0.8569769232,
				"z": -0.8322349046,
				"element": "C" 
			},
			{
				"x": 0.8523289261,
				"y": -1.8796006197,
				"z": -1.0669482088,
				"element": "C" 
			},
			{
				"x": -2.4034618052,
				"y": -2.665652702,
				"z": -0.5500390598,
				"element": "H" 
			},
			{
				"x": -1.0628944882,
				"y": -3.7561625107,
				"z": -0.9717211935,
				"element": "H" 
			},
			{
				"x": -2.0271324905,
				"y": -0.2185089048,
				"z": -0.3667659046,
				"element": "H" 
			},
			{
				"x": -0.4168461247,
				"y": 1.6058089656,
				"z": 0.0594525007,
				"element": "H" 
			},
			{
				"x": 2.8319275682,
				"y": -1.0371883211,
				"z": -0.9619792921,
				"element": "H" 
			},
			{
				"x": 1.2126944815,
				"y": -2.8542222615,
				"z": -1.3854452402,
				"element": "H" 
			}
		],
		 "valence_orbital": [ 
			{
				"type": "occ",
				"energy": -0.29872,
				"method": "rhf"
			},
			{
				"type": "occ",
				"energy": -0.29486,
				"method": "rhf"
			},
			{
				"type": "occ",
				"energy": -0.27339,
				"method": "rhf"
			},
			{
				"type": "occ",
				"energy": -0.27276,
				"method": "rhf"
			},
			{
				"type": "occ",
				"energy": -0.24511,
				"method": "rhf"
			},
			{
				"type": "unocc",
				"energy": -0.04384,
				"method": "rhf"
			},
			{
				"type": "unocc",
				"energy": -0.04292,
				"method": "rhf"
			},
			{
				"type": "unocc",
				"energy": -0.02395,
				"method": "rhf"
			},
			{
				"type": "unocc",
				"energy": 0.03076,
				"method": "rhf"
			},
			{
				"type": "unocc",
				"energy": 0.04004,
				"method": "rhf"
			}
		],
		"cosmo_sigma_profile": { 
			"-0.025": 0.0,
			"-0.024": 0.0,
			"-0.023": 0.0,
			"-0.022": 0.0,
			"-0.021": 0.0,
			"-0.02": 0.0,
			"-0.019": 0.0,
			"-0.018": 0.0,
			"-0.017": 0.0,
			"-0.016": 0.0,
			"-0.015": 0.0,
			"-0.014": 0.0,
			"-0.013": 0.0,
			"-0.012": 0.0,
			"-0.011": 0.0,
			"-0.01": 0.0,
			"-0.009": 0.0,
			"-0.008": 4.11087618195,
			"-0.007": 12.5195463916,
			"-0.006": 14.6705988919,
			"-0.005": 11.9060332828,
			"-0.004": 11.9679821288,
			"-0.003": 9.51757117011,
			"-0.002": 8.52328971376,
			"-0.001": 9.80525816818,
			"0.0": 11.4016201445,
			"0.001": 14.5780649204,
			"0.002": 17.8667435884,
			"0.003": 23.5457167492,
			"0.004": 23.3648298048,
			"0.005": 10.1552916742,
			"0.006": 8.64717016956,
			"0.007": 7.25931904992,
			"0.008": 0.0,
			"0.009": 0.0,
			"0.01": 0.0,
			"0.011": 0.0,
			"0.012": 0.0,
			"0.013": 0.0,
			"0.014": 0.0,
			"0.015": 0.0,
			"0.016": 0.0,
			"0.017": 0.0,
			"0.018": 0.0,
			"0.019": 0.0,
			"0.02": 0.0,
			"0.021": 0.0,
			"0.022": 0.0,
			"0.023": 0.0,
			"0.024": 0.0,
			"0.025": 0.0
		}
	}
}
