{
	 "smiles": "CC1(C)C2CCC1(C)C(CC2)=NO", 
	 "Tm": 437.15, 
	 "num_atms": 32, 
	 "gaussian": { 
		 "optdone": 1, 
		 "sigma_profile": "yes", 
		 "theory": "DFT", 
		 "functional": "B3LYP", 
		 "basiset": "6-31G**", 
		 "properties": { 
			 "R2extent": 2820.1967, 
			 "electric_dipole_moment_norm": 0.772906604966, 
			 "electric_quadrupole_moment_norm": 2.10942478415, 
			 "total_energy": -560.555805137, 
			 "HOMO_LUMO_gap": 0.25287, 
			 "cosmo_polarized_energy": -6.64, 
			 "cosmo_cavitation_energy": 29.45, 
			 "cosmo_dispersion_energy": -21.51, 
			 "cosmo_repulsion_energy": 1.66, 
			 "cosmo_total_nonelectrostatic_energy": 9.6, 
			 "SMD_solvation_energy": 4.66 
		},
		"coords": [
			{
				"x": -0.2578940797,
				"y": -1.3324173819,
				"z": 0.610279493,
				"element": "C" 
			},
			{
				"x": 0.6474656388,
				"y": -0.2312443067,
				"z": 0.0171060523,
				"element": "C" 
			},
			{
				"x": 2.033410354,
				"y": -0.8580390002,
				"z": -0.2150611226,
				"element": "C" 
			},
			{
				"x": 0.6521195208,
				"y": 1.0119554158,
				"z": 0.9584751533,
				"element": "C" 
			},
			{
				"x": -0.7619438533,
				"y": 1.6183263065,
				"z": 0.762577102,
				"element": "C" 
			},
			{
				"x": -1.1655311211,
				"y": 1.2500413586,
				"z": -0.6935140785,
				"element": "C" 
			},
			{
				"x": 0.0225342301,
				"y": 0.4183463435,
				"z": -1.2819829448,
				"element": "C" 
			},
			{
				"x": -0.4446899549,
				"y": -0.5808638699,
				"z": -2.3448304448,
				"element": "C" 
			},
			{
				"x": 1.0515901311,
				"y": 1.4049176202,
				"z": -1.8398626414,
				"element": "C" 
			},
			{
				"x": 1.5481859461,
				"y": 2.5002712081,
				"z": -0.9187236897,
				"element": "C" 
			},
			{
				"x": 1.733201681,
				"y": 2.0222776355,
				"z": 0.538878516,
				"element": "C" 
			},
			{
				"x": 1.4035946994,
				"y": 1.2628198864,
				"z": -3.0637526156,
				"element": "N" 
			},
			{
				"x": 2.3297474651,
				"y": 2.2501943625,
				"z": -3.4782909155,
				"element": "O" 
			},
			{
				"x": 0.1315535445,
				"y": -1.6422304178,
				"z": 1.5868976169,
				"element": "H" 
			},
			{
				"x": -1.2917131227,
				"y": -1.0093710312,
				"z": 0.7576575094,
				"element": "H" 
			},
			{
				"x": -0.2762899451,
				"y": -2.220275394,
				"z": -0.0288189756,
				"element": "H" 
			},
			{
				"x": 2.7395269795,
				"y": -0.1806170504,
				"z": -0.6997746342,
				"element": "H" 
			},
			{
				"x": 2.4736298041,
				"y": -1.1804085275,
				"z": 0.7358811901,
				"element": "H" 
			},
			{
				"x": 1.9503316056,
				"y": -1.7447799075,
				"z": -0.8524665054,
				"element": "H" 
			},
			{
				"x": 0.8249840352,
				"y": 0.71476937,
				"z": 2.0003584313,
				"element": "H" 
			},
			{
				"x": -0.7596884112,
				"y": 2.7000223312,
				"z": 0.9333909752,
				"element": "H" 
			},
			{
				"x": -1.4703353366,
				"y": 1.1945089087,
				"z": 1.4805421835,
				"element": "H" 
			},
			{
				"x": -1.3771735456,
				"y": 2.1299994247,
				"z": -1.3091105802,
				"element": "H" 
			},
			{
				"x": -2.074054896,
				"y": 0.6399729017,
				"z": -0.7065976354,
				"element": "H" 
			},
			{
				"x": -1.2116342328,
				"y": -1.2445850032,
				"z": -1.9360818598,
				"element": "H" 
			},
			{
				"x": -0.8709735565,
				"y": -0.0573599695,
				"z": -3.2046078874,
				"element": "H" 
			},
			{
				"x": 0.3814511809,
				"y": -1.1900260669,
				"z": -2.7208418043,
				"element": "H" 
			},
			{
				"x": 2.4713435893,
				"y": 2.9231542335,
				"z": -1.3179232613,
				"element": "H" 
			},
			{
				"x": 0.8073676985,
				"y": 3.3114121265,
				"z": -0.9463146735,
				"element": "H" 
			},
			{
				"x": 1.706733095,
				"y": 2.8898335141,
				"z": 1.2088921036,
				"element": "H" 
			},
			{
				"x": 2.7254919498,
				"y": 1.574918545,
				"z": 0.6582755455,
				"element": "H" 
			},
			{
				"x": 2.5090589065,
				"y": 1.9759764344,
				"z": -4.386755602,
				"element": "H" 
			}
		],
		 "valence_orbital": [ 
			{
				"type": "occ",
				"energy": -0.30658,
				"method": "rhf"
			},
			{
				"type": "occ",
				"energy": -0.29842,
				"method": "rhf"
			},
			{
				"type": "occ",
				"energy": -0.29038,
				"method": "rhf"
			},
			{
				"type": "occ",
				"energy": -0.2543,
				"method": "rhf"
			},
			{
				"type": "occ",
				"energy": -0.23447,
				"method": "rhf"
			},
			{
				"type": "unocc",
				"energy": 0.0184,
				"method": "rhf"
			},
			{
				"type": "unocc",
				"energy": 0.07258,
				"method": "rhf"
			},
			{
				"type": "unocc",
				"energy": 0.08477,
				"method": "rhf"
			},
			{
				"type": "unocc",
				"energy": 0.09995,
				"method": "rhf"
			},
			{
				"type": "unocc",
				"energy": 0.10724,
				"method": "rhf"
			}
		],
		"cosmo_sigma_profile": { 
			"-0.025": 0.0,
			"-0.024": 0.0,
			"-0.023": 0.0,
			"-0.022": 0.0,
			"-0.021": 0.0,
			"-0.02": 0.0,
			"-0.019": 0.0,
			"-0.018": 0.0,
			"-0.017": 0.230471164201,
			"-0.016": 0.795519128396,
			"-0.015": 1.08819639884,
			"-0.014": 0.985305990001,
			"-0.013": 0.431521014607,
			"-0.012": 0.726869985489,
			"-0.011": 0.478009317872,
			"-0.01": 0.284628433643,
			"-0.009": 0.632921838814,
			"-0.008": 1.41883331373,
			"-0.007": 0.455783866903,
			"-0.006": 0.531350365625,
			"-0.005": 0.769773841894,
			"-0.004": 3.76307899829,
			"-0.003": 20.7322853708,
			"-0.002": 41.9936188051,
			"-0.001": 37.4662181941,
			"0.0": 34.2039641604,
			"0.001": 30.3664389753,
			"0.002": 15.154697036,
			"0.003": 3.3764757011,
			"0.004": 3.60260680811,
			"0.005": 3.22172248122,
			"0.006": 4.53596620163,
			"0.007": 4.34460753039,
			"0.008": 3.65011701293,
			"0.009": 3.78647292018,
			"0.01": 3.0345763906,
			"0.011": 2.15567235128,
			"0.012": 1.00692385108,
			"0.013": 0.450888511071,
			"0.014": 0.109190150464,
			"0.015": 0.0,
			"0.016": 0.0,
			"0.017": 0.0,
			"0.018": 0.0,
			"0.019": 0.0,
			"0.02": 0.0,
			"0.021": 0.0,
			"0.022": 0.0,
			"0.023": 0.0,
			"0.024": 0.0,
			"0.025": 0.0
		}
	}
}
