{
	 "smiles": "NC1=C(SC2=NN=CS2)C=CC=C1", 
	 "Tm": 383.15, 
	 "num_atms": 20, 
	 "gaussian": { 
		 "optdone": 1, 
		 "sigma_profile": "yes", 
		 "theory": "DFT", 
		 "functional": "B3LYP", 
		 "basiset": "6-31G**", 
		 "properties": { 
			 "R2extent": 3701.0534, 
			 "electric_dipole_moment_norm": 1.62434356588, 
			 "electric_quadrupole_moment_norm": 12.966277947, 
			 "total_energy": -1269.65883476, 
			 "HOMO_LUMO_gap": 0.15111, 
			 "cosmo_polarized_energy": -11.07, 
			 "cosmo_cavitation_energy": 27.51, 
			 "cosmo_dispersion_energy": -21.31, 
			 "cosmo_repulsion_energy": 1.59, 
			 "cosmo_total_nonelectrostatic_energy": 7.79, 
			 "SMD_solvation_energy": 2.88 
		},
		"coords": [
			{
				"x": -1.2712732105,
				"y": -0.8155352865,
				"z": 1.143189722,
				"element": "N" 
			},
			{
				"x": -0.2891946664,
				"y": -1.7605889926,
				"z": 0.916290304,
				"element": "C" 
			},
			{
				"x": 0.8043090924,
				"y": -1.5168540936,
				"z": 0.0465420752,
				"element": "C" 
			},
			{
				"x": 0.9132437873,
				"y": -0.0399274757,
				"z": -0.9730049055,
				"element": "S" 
			},
			{
				"x": 1.2913381909,
				"y": 1.2654229314,
				"z": 0.1651802791,
				"element": "C" 
			},
			{
				"x": 0.6108451233,
				"y": 1.5394769489,
				"z": 1.2471457167,
				"element": "N" 
			},
			{
				"x": 1.0768206853,
				"y": 2.6279993054,
				"z": 1.9303771533,
				"element": "N" 
			},
			{
				"x": 2.094526598,
				"y": 3.1841911032,
				"z": 1.3398320198,
				"element": "C" 
			},
			{
				"x": 2.613346804,
				"y": 2.3897354379,
				"z": -0.1184204908,
				"element": "S" 
			},
			{
				"x": 1.7720432338,
				"y": -2.5053520799,
				"z": -0.1778401102,
				"element": "C" 
			},
			{
				"x": 1.6753981523,
				"y": -3.7557043605,
				"z": 0.4258184836,
				"element": "C" 
			},
			{
				"x": 0.5913995543,
				"y": -4.0127714482,
				"z": 1.2705343769,
				"element": "C" 
			},
			{
				"x": -0.3647208479,
				"y": -3.0358787905,
				"z": 1.5158567234,
				"element": "C" 
			},
			{
				"x": -1.905274386,
				"y": -1.0483121608,
				"z": 1.8951768915,
				"element": "H" 
			},
			{
				"x": -0.9435924883,
				"y": 0.1457996109,
				"z": 1.1990733904,
				"element": "H" 
			},
			{
				"x": 2.5792713686,
				"y": 4.0756707611,
				"z": 1.7180941292,
				"element": "H" 
			},
			{
				"x": 2.5977555719,
				"y": -2.2821203011,
				"z": -0.8462125565,
				"element": "H" 
			},
			{
				"x": 2.42891971,
				"y": -4.5138321137,
				"z": 0.2399247168,
				"element": "H" 
			},
			{
				"x": 0.4947138684,
				"y": -4.9818378409,
				"z": 1.7523400857,
				"element": "H" 
			},
			{
				"x": -1.1950761413,
				"y": -3.2451811549,
				"z": 2.1860019954,
				"element": "H" 
			}
		],
		 "valence_orbital": [ 
			{
				"type": "occ",
				"energy": -0.30303,
				"method": "rhf"
			},
			{
				"type": "occ",
				"energy": -0.28319,
				"method": "rhf"
			},
			{
				"type": "occ",
				"energy": -0.26043,
				"method": "rhf"
			},
			{
				"type": "occ",
				"energy": -0.24226,
				"method": "rhf"
			},
			{
				"type": "occ",
				"energy": -0.20565,
				"method": "rhf"
			},
			{
				"type": "unocc",
				"energy": -0.05454,
				"method": "rhf"
			},
			{
				"type": "unocc",
				"energy": -0.02116,
				"method": "rhf"
			},
			{
				"type": "unocc",
				"energy": -0.00588,
				"method": "rhf"
			},
			{
				"type": "unocc",
				"energy": 0.0019,
				"method": "rhf"
			},
			{
				"type": "unocc",
				"energy": 0.00797,
				"method": "rhf"
			}
		],
		"cosmo_sigma_profile": { 
			"-0.025": 0.0,
			"-0.024": 0.0,
			"-0.023": 0.0,
			"-0.022": 0.0,
			"-0.021": 0.0,
			"-0.02": 0.0,
			"-0.019": 0.0,
			"-0.018": 0.0,
			"-0.017": 0.0,
			"-0.016": 0.0,
			"-0.015": 0.0,
			"-0.014": 0.0,
			"-0.013": 0.243557316214,
			"-0.012": 2.44287694529,
			"-0.011": 3.69665877666,
			"-0.01": 3.58098132236,
			"-0.009": 3.85768373072,
			"-0.008": 2.95718696315,
			"-0.007": 4.11116292878,
			"-0.006": 8.73464410451,
			"-0.005": 11.8172084526,
			"-0.004": 12.3148739389,
			"-0.003": 16.4728616503,
			"-0.002": 18.0290638214,
			"-0.001": 20.0955851264,
			"0.0": 16.9984058782,
			"0.001": 14.8928735006,
			"0.002": 11.8713464966,
			"0.003": 16.5510878433,
			"0.004": 14.9923630354,
			"0.005": 14.3364372215,
			"0.006": 8.56614870635,
			"0.007": 3.59545889341,
			"0.008": 2.93392090273,
			"0.009": 3.74061686981,
			"0.01": 2.65230755025,
			"0.011": 1.69920913512,
			"0.012": 1.80243739504,
			"0.013": 1.9872032587,
			"0.014": 0.948541534599,
			"0.015": 0.0,
			"0.016": 0.0,
			"0.017": 0.0,
			"0.018": 0.0,
			"0.019": 0.0,
			"0.02": 0.0,
			"0.021": 0.0,
			"0.022": 0.0,
			"0.023": 0.0,
			"0.024": 0.0,
			"0.025": 0.0
		}
	}
}
