{
	 "smiles": "ClCC(=O)NC12CC3CC(CC(C3)C1)C2", 
	 "Tm": 384.15, 
	 "num_atms": 33, 
	 "gaussian": { 
		 "optdone": 1, 
		 "sigma_profile": "yes", 
		 "theory": "DFT", 
		 "functional": "B3LYP", 
		 "basiset": "6-31G**", 
		 "properties": { 
			 "R2extent": 4895.6801, 
			 "electric_dipole_moment_norm": 6.17640212745, 
			 "electric_quadrupole_moment_norm": 23.8181645042, 
			 "total_energy": -1058.32970441, 
			 "HOMO_LUMO_gap": 0.26125, 
			 "cosmo_polarized_energy": -13.74, 
			 "cosmo_cavitation_energy": 32.3, 
			 "cosmo_dispersion_energy": -24.18, 
			 "cosmo_repulsion_energy": 1.87, 
			 "cosmo_total_nonelectrostatic_energy": 10.0, 
			 "SMD_solvation_energy": 4.14 
		},
		"coords": [
			{
				"x": 1.3494198083,
				"y": 2.0848828094,
				"z": 5.1641170468,
				"element": "Cl" 
			},
			{
				"x": 0.7292494501,
				"y": 1.8441642461,
				"z": 3.4986826872,
				"element": "C" 
			},
			{
				"x": 1.7646053896,
				"y": 2.2258509035,
				"z": 2.4310107785,
				"element": "C" 
			},
			{
				"x": 2.7175859871,
				"y": 2.9444626585,
				"z": 2.6835278469,
				"element": "O" 
			},
			{
				"x": 1.5389714521,
				"y": 1.7862268054,
				"z": 1.1477885739,
				"element": "N" 
			},
			{
				"x": 0.6296768418,
				"y": 0.800031541,
				"z": 0.5309058105,
				"element": "C" 
			},
			{
				"x": 0.9089014809,
				"y": -0.6481885443,
				"z": 1.0096918576,
				"element": "C" 
			},
			{
				"x": 0.0075840908,
				"y": -1.6456157873,
				"z": 0.249562926,
				"element": "C" 
			},
			{
				"x": 0.3124151074,
				"y": -1.5649423137,
				"z": -1.2597792739,
				"element": "C" 
			},
			{
				"x": 0.031069187,
				"y": -0.1343672724,
				"z": -1.7622705586,
				"element": "C" 
			},
			{
				"x": -1.4520115133,
				"y": 0.2136289915,
				"z": -1.5253909411,
				"element": "C" 
			},
			{
				"x": -1.7572388469,
				"y": 0.1367759416,
				"z": -0.0166588,
				"element": "C" 
			},
			{
				"x": -1.4738195386,
				"y": -1.2910812808,
				"z": 0.4956035598,
				"element": "C" 
			},
			{
				"x": -0.8655236972,
				"y": 1.1416594655,
				"z": 0.7460390018,
				"element": "C" 
			},
			{
				"x": 0.9163903772,
				"y": 0.8632760249,
				"z": -0.9910541726,
				"element": "C" 
			},
			{
				"x": -0.1507277061,
				"y": 2.481407055,
				"z": 3.386613485,
				"element": "H" 
			},
			{
				"x": 0.4173988093,
				"y": 0.8043071747,
				"z": 3.4189404854,
				"element": "H" 
			},
			{
				"x": 2.2761029501,
				"y": 2.1278577826,
				"z": 0.542142953,
				"element": "H" 
			},
			{
				"x": 0.7303611697,
				"y": -0.7395284263,
				"z": 2.087510322,
				"element": "H" 
			},
			{
				"x": 1.9680239707,
				"y": -0.8808074585,
				"z": 0.8448068752,
				"element": "H" 
			},
			{
				"x": 0.2106847508,
				"y": -2.6599858652,
				"z": 0.6140631514,
				"element": "H" 
			},
			{
				"x": 1.3594996086,
				"y": -1.8344661141,
				"z": -1.4490444027,
				"element": "H" 
			},
			{
				"x": -0.3068194605,
				"y": -2.2850493286,
				"z": -1.809432312,
				"element": "H" 
			},
			{
				"x": 0.2637505859,
				"y": -0.0633184647,
				"z": -2.8317229921,
				"element": "H" 
			},
			{
				"x": -2.0955693596,
				"y": -0.4832065322,
				"z": -2.0770570018,
				"element": "H" 
			},
			{
				"x": -1.6710581429,
				"y": 1.219886754,
				"z": -1.9052927182,
				"element": "H" 
			},
			{
				"x": -2.809240663,
				"y": 0.3911001094,
				"z": 0.1613363218,
				"element": "H" 
			},
			{
				"x": -2.1229977544,
				"y": -2.0104285602,
				"z": -0.0193626268,
				"element": "H" 
			},
			{
				"x": -1.7073951424,
				"y": -1.3624961098,
				"z": 1.5660619876,
				"element": "H" 
			},
			{
				"x": -1.0521294839,
				"y": 2.1660334774,
				"z": 0.4007757789,
				"element": "H" 
			},
			{
				"x": -1.1222620283,
				"y": 1.108764569,
				"z": 1.8098402764,
				"element": "H" 
			},
			{
				"x": 1.9772743937,
				"y": 0.6371819391,
				"z": -1.1658556878,
				"element": "H" 
			},
			{
				"x": 0.738427926,
				"y": 1.8863838098,
				"z": -1.3467002381,
				"element": "H" 
			}
		],
		 "valence_orbital": [ 
			{
				"type": "occ",
				"energy": -0.2965,
				"method": "rhf"
			},
			{
				"type": "occ",
				"energy": -0.29267,
				"method": "rhf"
			},
			{
				"type": "occ",
				"energy": -0.29013,
				"method": "rhf"
			},
			{
				"type": "occ",
				"energy": -0.2543,
				"method": "rhf"
			},
			{
				"type": "occ",
				"energy": -0.24845,
				"method": "rhf"
			},
			{
				"type": "unocc",
				"energy": 0.0128,
				"method": "rhf"
			},
			{
				"type": "unocc",
				"energy": 0.03384,
				"method": "rhf"
			},
			{
				"type": "unocc",
				"energy": 0.05132,
				"method": "rhf"
			},
			{
				"type": "unocc",
				"energy": 0.08597,
				"method": "rhf"
			},
			{
				"type": "unocc",
				"energy": 0.09928,
				"method": "rhf"
			}
		],
		"cosmo_sigma_profile": { 
			"-0.025": 0.0,
			"-0.024": 0.0,
			"-0.023": 0.0,
			"-0.022": 0.0,
			"-0.021": 0.0,
			"-0.02": 0.0,
			"-0.019": 0.0,
			"-0.018": 0.0,
			"-0.017": 0.0,
			"-0.016": 0.0,
			"-0.015": 0.0,
			"-0.014": 0.0,
			"-0.013": 0.0497318599572,
			"-0.012": 0.607629850941,
			"-0.011": 0.855870507339,
			"-0.01": 0.757092949699,
			"-0.009": 2.03074746708,
			"-0.008": 5.8033698603,
			"-0.007": 6.73527413893,
			"-0.006": 6.32130426219,
			"-0.005": 5.73562660525,
			"-0.004": 6.6964728468,
			"-0.003": 19.9988609967,
			"-0.002": 43.1130749614,
			"-0.001": 40.9123116736,
			"0.0": 35.8045314476,
			"0.001": 20.9083605214,
			"0.002": 6.801334829,
			"0.003": 4.55818794315,
			"0.004": 5.58609091102,
			"0.005": 6.44952476944,
			"0.006": 8.7685433478,
			"0.007": 2.58019115597,
			"0.008": 1.81618420198,
			"0.009": 2.39029409979,
			"0.01": 1.13077166255,
			"0.011": 2.18652588558,
			"0.012": 2.28348787048,
			"0.013": 5.52104149698,
			"0.014": 4.14797146012,
			"0.015": 1.07927581695,
			"0.016": 0.0,
			"0.017": 0.0,
			"0.018": 0.0,
			"0.019": 0.0,
			"0.02": 0.0,
			"0.021": 0.0,
			"0.022": 0.0,
			"0.023": 0.0,
			"0.024": 0.0,
			"0.0": 0.0
		}
	}
}
