{
	 "smiles": "[O-][N+](=O)C1=CC(=C(NC(=O)C(C(F)(F)F)C(F)(F)F)C=C1)[N+]([O-])=O", 
	 "Tm": 394.15, 
	 "num_atms": 29, 
	 "gaussian": { 
		 "optdone": 1, 
		 "sigma_profile": "yes", 
		 "theory": "DFT", 
		 "functional": "B3LYP", 
		 "basiset": "6-31G**", 
		 "properties": { 
			 "R2extent": 9188.6471, 
			 "electric_dipole_moment_norm": 6.77538779776, 
			 "electric_quadrupole_moment_norm": 17.1633438677, 
			 "total_energy": -1523.29281127, 
			 "HOMO_LUMO_gap": 0.17056, 
			 "cosmo_polarized_energy": -24.66, 
			 "cosmo_cavitation_energy": 38.32, 
			 "cosmo_dispersion_energy": -25.9, 
			 "cosmo_repulsion_energy": 1.82, 
			 "cosmo_total_nonelectrostatic_energy": 14.25, 
			 "SMD_solvation_energy": 13.42 
		},
		"coords": [
			{
				"x": 2.6567385255,
				"y": -4.27956161,
				"z": -3.2221098782,
				"element": "O" 
			},
			{
				"x": 2.9670453497,
				"y": -4.1007128454,
				"z": -2.0472678171,
				"element": "N" 
			},
			{
				"x": 3.8937067017,
				"y": -4.6594689291,
				"z": -1.4629819006,
				"element": "O" 
			},
			{
				"x": 2.1651921342,
				"y": -3.1401918488,
				"z": -1.2719902889,
				"element": "C" 
			},
			{
				"x": 1.1015512984,
				"y": -2.4974836999,
				"z": -1.8904960063,
				"element": "C" 
			},
			{
				"x": 0.3335903942,
				"y": -1.6063685205,
				"z": -1.1492042818,
				"element": "C" 
			},
			{
				"x": 0.6565009999,
				"y": -1.3013844561,
				"z": 0.1881326527,
				"element": "C" 
			},
			{
				"x": -0.0193072887,
				"y": -0.348635831,
				"z": 0.9702177788,
				"element": "N" 
			},
			{
				"x": -0.4066090496,
				"y": 0.9003167186,
				"z": 0.5272384993,
				"element": "C" 
			},
			{
				"x": -0.1972497,
				"y": 1.3062147285,
				"z": -0.5949294821,
				"element": "O" 
			},
			{
				"x": -1.1000133007,
				"y": 1.7533911488,
				"z": 1.6157541487,
				"element": "C" 
			},
			{
				"x": -1.2019514632,
				"y": 3.2232939319,
				"z": 1.1805558492,
				"element": "C" 
			},
			{
				"x": -1.6357633783,
				"y": 3.9788086222,
				"z": 2.2108405284,
				"element": "F" 
			},
			{
				"x": -2.0474250101,
				"y": 3.3911876152,
				"z": 0.1587620229,
				"element": "F" 
			},
			{
				"x": 0.0093472222,
				"y": 3.6859703217,
				"z": 0.8315001314,
				"element": "F" 
			},
			{
				"x": -2.4601133253,
				"y": 1.1511311077,
				"z": 1.9996769648,
				"element": "C" 
			},
			{
				"x": -3.224686981,
				"y": 0.9182770606,
				"z": 0.9299351758,
				"element": "F" 
			},
			{
				"x": -3.1388556524,
				"y": 1.9363278079,
				"z": 2.8475691057,
				"element": "F" 
			},
			{
				"x": -2.2559619257,
				"y": -0.0356335857,
				"z": 2.6367371376,
				"element": "F" 
			},
			{
				"x": 1.7394993364,
				"y": -1.9765801517,
				"z": 0.7738661515,
				"element": "C" 
			},
			{
				"x": 2.4862000848,
				"y": -2.906303853,
				"z": 0.0632478827,
				"element": "C" 
			},
			{
				"x": -0.8882719345,
				"y": -1.1060601773,
				"z": -1.8108672364,
				"element": "N" 
			},
			{
				"x": -1.8834571371,
				"y": -0.9582681413,
				"z": -1.1076551436,
				"element": "O" 
			},
			{
				"x": -0.8374205712,
				"y": -0.9430418419,
				"z": -3.0239577145,
				"element": "O" 
			},
			{
				"x": 0.8545273885,
				"y": -2.7005485188,
				"z": -2.924075843,
				"element": "H" 
			},
			{
				"x": -0.2021398736,
				"y": -0.5939791307,
				"z": 1.9331073015,
				"element": "H" 
			},
			{
				"x": -0.4935963119,
				"y": 1.7506092985,
				"z": 2.5272993512,
				"element": "H" 
			},
			{
				"x": 2.0080606353,
				"y": -1.7382476455,
				"z": 1.7982885968,
				"element": "H" 
			},
			{
				"x": 3.3215628325,
				"y": -3.4283575748,
				"z": 0.5124063137,
				"element": "H" 
			}
		],
		 "valence_orbital": [ 
			{
				"type": "occ",
				"energy": -0.32025,
				"method": "rhf"
			},
			{
				"type": "occ",
				"energy": -0.31152,
				"method": "rhf"
			},
			{
				"type": "occ",
				"energy": -0.30663,
				"method": "rhf"
			},
			{
				"type": "occ",
				"energy": -0.29926,
				"method": "rhf"
			},
			{
				"type": "occ",
				"energy": -0.2876,
				"method": "rhf"
			},
			{
				"type": "unocc",
				"energy": -0.11704,
				"method": "rhf"
			},
			{
				"type": "unocc",
				"energy": -0.09951,
				"method": "rhf"
			},
			{
				"type": "unocc",
				"energy": -0.05291,
				"method": "rhf"
			},
			{
				"type": "unocc",
				"energy": -0.03319,
				"method": "rhf"
			},
			{
				"type": "unocc",
				"energy": -0.01037,
				"method": "rhf"
			}
		],
		"cosmo_sigma_profile": { 
			"-0.025": 0.0,
			"-0.024": 0.0,
			"-0.023": 0.0,
			"-0.022": 0.0,
			"-0.021": 0.0,
			"-0.02": 0.0,
			"-0.019": 0.0,
			"-0.018": 0.0730956324965,
			"-0.017": 1.12556564595,
			"-0.016": 1.8785845769,
			"-0.015": 1.95965507296,
			"-0.014": 1.82859519518,
			"-0.013": 3.34573144125,
			"-0.012": 3.36880520445,
			"-0.011": 2.72847684351,
			"-0.01": 3.7361411126,
			"-0.009": 5.6726284399,
			"-0.008": 7.20041650449,
			"-0.007": 7.91191495123,
			"-0.006": 9.48737627269,
			"-0.005": 8.46052921236,
			"-0.004": 13.3684946338,
			"-0.003": 18.9958465352,
			"-0.002": 17.2547171952,
			"-0.001": 14.8428462738,
			"0.0": 15.3767647065,
			"0.001": 30.7959792006,
			"0.002": 46.6962411739,
			"0.003": 14.2273996746,
			"0.004": 10.3998002462,
			"0.005": 11.1363813566,
			"0.006": 16.5394881135,
			"0.007": 17.4516408391,
			"0.008": 10.9426217534,
			"0.009": 8.21487165793,
			"0.01": 3.05411588532,
			"0.011": 0.227761764319,
			"0.012": 0.0,
			"0.013": 0.0,
			"0.014": 0.0,
			"0.015": 0.0,
			"0.016": 0.0,
			"0.017": 0.0,
			"0.018": 0.0,
			"0.019": 0.0,
			"0.02": 0.0,
			"0.021": 0.0,
			"0.022": 0.0,
			"0.023": 0.0,
			"0.024": 0.0,
			"0.025": 0.0
		}
	}
}
