{
	 "smiles": "[O-][N+](=O)C1=C(I)C=CC(=C1)C(F)(F)F", 
	 "Tm": 308.15, 
	 "num_atms": 17, 
	 "gaussian": { 
		 "optdone": 1, 
		 "sigma_profile": "yes", 
		 "theory": "DFT", 
		 "functional": "B3LYP", 
		 "basiset": "6-31G**", 
		 "properties": { 
			 "R2extent": 3576.297, 
			 "electric_dipole_moment_norm": 3.53709414492, 
			 "electric_quadrupole_moment_norm": 9.91979301246, 
			 "total_energy": -784.54761306, 
			 "HOMO_LUMO_gap": 0.16628, 
			 "cosmo_polarized_energy": -8.59, 
			 "cosmo_cavitation_energy": 27.14, 
			 "cosmo_dispersion_energy": -20.61, 
			 "cosmo_repulsion_energy": 1.53, 
			 "cosmo_total_nonelectrostatic_energy": 8.05, 
			 "SMD_solvation_energy": 7.21 
		},
		"coords": [
			{
				"x": -0.6243191544,
				"y": -2.5901583292,
				"z": -1.6623849711,
				"element": "O" 
			},
			{
				"x": -0.6565726265,
				"y": -1.5105608117,
				"z": -1.0824451373,
				"element": "N" 
			},
			{
				"x": -1.6424401775,
				"y": -0.7820816962,
				"z": -0.9858612684,
				"element": "O" 
			},
			{
				"x": 0.594452172,
				"y": -1.0182664949,
				"z": -0.4693862171,
				"element": "C" 
			},
			{
				"x": 1.5787506524,
				"y": -1.8650232873,
				"z": 0.0593810528,
				"element": "C" 
			},
			{
				"x": 1.4314424652,
				"y": -3.9631913596,
				"z": 0.2139617434,
				"element": "I" 
			},
			{
				"x": 2.7335160436,
				"y": -1.2777181204,
				"z": 0.5949805747,
				"element": "C" 
			},
			{
				"x": 2.9067960286,
				"y": 0.1023625637,
				"z": 0.5852607534,
				"element": "C" 
			},
			{
				"x": 1.9113041623,
				"y": 0.9303781767,
				"z": 0.0594034556,
				"element": "C" 
			},
			{
				"x": 0.7502605071,
				"y": 0.3688434376,
				"z": -0.4567265966,
				"element": "C" 
			},
			{
				"x": 2.0804223825,
				"y": 2.4279040794,
				"z": 0.1039954715,
				"element": "C" 
			},
			{
				"x": 3.3561122516,
				"y": 2.7828750065,
				"z": -0.1601268561,
				"element": "F" 
			},
			{
				"x": 1.7789013961,
				"y": 2.9174331924,
				"z": 1.3259860752,
				"element": "F" 
			},
			{
				"x": 1.2839491958,
				"y": 3.0491216892,
				"z": -0.7877601068,
				"element": "F" 
			},
			{
				"x": 3.5023238555,
				"y": -1.9117100717,
				"z": 1.0206561275,
				"element": "H" 
			},
			{
				"x": 3.8176821878,
				"y": 0.533778798,
				"z": 0.9863904287,
				"element": "H" 
			},
			{
				"x": -0.0420813421,
				"y": 0.9850132278,
				"z": -0.8619245294,
				"element": "H" 
			}
		],
		 "valence_orbital": [ 
			{
				"type": "occ",
				"energy": -0.32309,
				"method": "rhf"
			},
			{
				"type": "occ",
				"energy": -0.31839,
				"method": "rhf"
			},
			{
				"type": "occ",
				"energy": -0.29829,
				"method": "rhf"
			},
			{
				"type": "occ",
				"energy": -0.27666,
				"method": "rhf"
			},
			{
				"type": "occ",
				"energy": -0.27009,
				"method": "rhf"
			},
			{
				"type": "unocc",
				"energy": -0.10381,
				"method": "rhf"
			},
			{
				"type": "unocc",
				"energy": -0.06543,
				"method": "rhf"
			},
			{
				"type": "unocc",
				"energy": -0.06051,
				"method": "rhf"
			},
			{
				"type": "unocc",
				"energy": -0.03307,
				"method": "rhf"
			},
			{
				"type": "unocc",
				"energy": 0.03817,
				"method": "rhf"
			}
		],
		"cosmo_sigma_profile": { 
			"-0.025": 0.0,
			"-0.024": 0.0,
			"-0.023": 0.0,
			"-0.022": 0.0,
			"-0.021": 0.0,
			"-0.02": 0.0,
			"-0.019": 0.0,
			"-0.018": 0.0,
			"-0.017": 0.0,
			"-0.016": 0.0,
			"-0.015": 0.0,
			"-0.014": 0.0,
			"-0.013": 0.0,
			"-0.012": 0.0,
			"-0.011": 0.0,
			"-0.01": 0.210927166962,
			"-0.009": 3.39399663925,
			"-0.008": 8.1665960886,
			"-0.007": 8.31042805806,
			"-0.006": 7.92067956748,
			"-0.005": 9.14153136848,
			"-0.004": 9.56013349143,
			"-0.003": 11.9345418354,
			"-0.002": 18.1006284278,
			"-0.001": 22.8995184848,
			"0.0": 17.931650096,
			"0.001": 15.2819279101,
			"0.002": 33.6421697618,
			"0.003": 23.0823603678,
			"0.004": 4.61254511533,
			"0.005": 4.46073858849,
			"0.006": 4.95587643753,
			"0.007": 10.1404355293,
			"0.008": 6.37256155726,
			"0.009": 3.26809767561,
			"0.01": 0.608482017617,
			"0.011": 0.0,
			"0.012": 0.0,
			"0.013": 0.0,
			"0.014": 0.0,
			"0.015": 0.0,
			"0.016": 0.0,
			"0.017": 0.0,
			"0.018": 0.0,
			"0.019": 0.0,
			"0.02": 0.0,
			"0.021": 0.0,
			"0.022": 0.0,
			"0.023": 0.0,
			"0.024": 0.0,
			"0.025": 0.0
		}
	}
}
