{
	 "smiles": "FC(F)(F)C1=NN=C(S)N1N=CC1=CC=CC=C1", 
	 "Tm": 506.15, 
	 "num_atms": 25, 
	 "gaussian": { 
		 "optdone": 1, 
		 "sigma_profile": "yes", 
		 "theory": "DFT", 
		 "functional": "B3LYP", 
		 "basiset": "6-31G**", 
		 "properties": { 
			 "R2extent": 6230.1103, 
			 "electric_dipole_moment_norm": 6.72739645108, 
			 "electric_quadrupole_moment_norm": 11.3139648077, 
			 "total_energy": -1301.9173147, 
			 "HOMO_LUMO_gap": 0.16669, 
			 "cosmo_polarized_energy": -14.35, 
			 "cosmo_cavitation_energy": 34.08, 
			 "cosmo_dispersion_energy": -24.07, 
			 "cosmo_repulsion_energy": 1.75, 
			 "cosmo_total_nonelectrostatic_energy": 11.77, 
			 "SMD_solvation_energy": 4.56 
		},
		"coords": [
			{
				"x": -2.6373783096,
				"y": -0.084664398,
				"z": -2.5419619129,
				"element": "F" 
			},
			{
				"x": -3.4369930141,
				"y": -0.0314869968,
				"z": -1.4553092008,
				"element": "C" 
			},
			{
				"x": -3.6710356483,
				"y": 1.2705793362,
				"z": -1.1930776103,
				"element": "F" 
			},
			{
				"x": -4.6014762425,
				"y": -0.613920049,
				"z": -1.7596681947,
				"element": "F" 
			},
			{
				"x": -2.80216573,
				"y": -0.7207244403,
				"z": -0.2829756035,
				"element": "C" 
			},
			{
				"x": -3.3128469559,
				"y": -1.7239879433,
				"z": 0.3788459419,
				"element": "N" 
			},
			{
				"x": -2.4168600338,
				"y": -2.0632248926,
				"z": 1.3693273591,
				"element": "N" 
			},
			{
				"x": -1.3807252999,
				"y": -1.2588997706,
				"z": 1.2680561098,
				"element": "C" 
			},
			{
				"x": -0.0196657797,
				"y": -1.2401757995,
				"z": 2.3899097196,
				"element": "S" 
			},
			{
				"x": -1.5621763059,
				"y": -0.3798060138,
				"z": 0.2155703348,
				"element": "N" 
			},
			{
				"x": -0.8573985249,
				"y": 0.7108795971,
				"z": -0.2574448547,
				"element": "N" 
			},
			{
				"x": 0.4250433931,
				"y": 0.6858276391,
				"z": -0.1643117626,
				"element": "C" 
			},
			{
				"x": 1.23421492,
				"y": 1.8142373846,
				"z": -0.621018422,
				"element": "C" 
			},
			{
				"x": 2.6321588472,
				"y": 1.727602723,
				"z": -0.5213257014,
				"element": "C" 
			},
			{
				"x": 3.43546727,
				"y": 2.7810537127,
				"z": -0.9542011105,
				"element": "C" 
			},
			{
				"x": 2.8475150592,
				"y": 3.9281377781,
				"z": -1.4896145123,
				"element": "C" 
			},
			{
				"x": 1.4540714792,
				"y": 4.0213885231,
				"z": -1.5916994465,
				"element": "C" 
			},
			{
				"x": 0.6482253482,
				"y": 2.9747597015,
				"z": -1.1599036027,
				"element": "C" 
			},
			{
				"x": -0.6593661322,
				"y": -2.0470582824,
				"z": 3.2591918543,
				"element": "H" 
			},
			{
				"x": 0.969003188,
				"y": -0.1751851173,
				"z": 0.2338872627,
				"element": "H" 
			},
			{
				"x": 3.0866087627,
				"y": 0.8324968539,
				"z": -0.1041255722,
				"element": "H" 
			},
			{
				"x": 4.5156190949,
				"y": 2.7070976585,
				"z": -0.8740038782,
				"element": "H" 
			},
			{
				"x": 3.4716574903,
				"y": 4.750363317,
				"z": -1.8271083338,
				"element": "H" 
			},
			{
				"x": 0.99966699,
				"y": 4.9150907666,
				"z": -2.0085873798,
				"element": "H" 
			},
			{
				"x": -0.4324638659,
				"y": 3.0334187122,
				"z": -1.2326514832,
				"element": "H" 
			}
		],
		 "valence_orbital": [ 
			{
				"type": "occ",
				"energy": -0.30343,
				"method": "rhf"
			},
			{
				"type": "occ",
				"energy": -0.27535,
				"method": "rhf"
			},
			{
				"type": "occ",
				"energy": -0.27176,
				"method": "rhf"
			},
			{
				"type": "occ",
				"energy": -0.25922,
				"method": "rhf"
			},
			{
				"type": "occ",
				"energy": -0.25136,
				"method": "rhf"
			},
			{
				"type": "unocc",
				"energy": -0.08467,
				"method": "rhf"
			},
			{
				"type": "unocc",
				"energy": -0.02415,
				"method": "rhf"
			},
			{
				"type": "unocc",
				"energy": -0.01116,
				"method": "rhf"
			},
			{
				"type": "unocc",
				"energy": -0.00624,
				"method": "rhf"
			},
			{
				"type": "unocc",
				"energy": 0.01602,
				"method": "rhf"
			}
		],
		"cosmo_sigma_profile": { 
			"-0.025": 0.0,
			"-0.024": 0.0,
			"-0.023": 0.0,
			"-0.022": 0.0,
			"-0.021": 0.0,
			"-0.02": 0.0,
			"-0.019": 0.0,
			"-0.018": 0.0,
			"-0.017": 0.0,
			"-0.016": 0.0,
			"-0.015": 0.0,
			"-0.014": 0.0247566453911,
			"-0.013": 1.11178084875,
			"-0.012": 1.72128946196,
			"-0.011": 1.38787962228,
			"-0.01": 2.58769953381,
			"-0.009": 4.34589748164,
			"-0.008": 3.66724777402,
			"-0.007": 7.85604004069,
			"-0.006": 12.7294109648,
			"-0.005": 16.0527500498,
			"-0.004": 17.8464055072,
			"-0.003": 16.5699596313,
			"-0.002": 16.3009763484,
			"-0.001": 16.8855596277,
			"0.0": 19.8933026303,
			"0.001": 24.8289526763,
			"0.002": 40.9081405067,
			"0.003": 25.6230918323,
			"0.004": 15.5744847631,
			"0.005": 6.92576237121,
			"0.006": 4.48663846215,
			"0.007": 2.11318979521,
			"0.008": 1.75420180683,
			"0.009": 2.42787490798,
			"0.01": 3.21800445666,
			"0.011": 3.14854514849,
			"0.012": 3.00781713031,
			"0.013": 2.00421125115,
			"0.014": 2.2410435528,
			"0.015": 0.531445342637,
			"0.016": 0.0,
			"0.017": 0.0,
			"0.018": 0.0,
			"0.019": 0.0,
			"0.02": 0.0,
			"0.021": 0.0,
			"0.022": 0.0,
			"0.023": 0.0,
			"0.024": 0.0,
			"0.025": 0.0
		}
	}
}
