{
	 "smiles": "COC(=O)C1=C(O)N=CN=C1", 
	 "Tm": 475.15, 
	 "num_atms": 17, 
	 "gaussian": { 
		 "optdone": 1, 
		 "sigma_profile": "yes", 
		 "theory": "DFT", 
		 "functional": "B3LYP", 
		 "basiset": "6-31G**", 
		 "properties": { 
			 "R2extent": 2908.5409, 
			 "electric_dipole_moment_norm": 3.66890567881, 
			 "electric_quadrupole_moment_norm": 10.7498944711, 
			 "total_energy": -567.435535107, 
			 "HOMO_LUMO_gap": 0.1947, 
			 "cosmo_polarized_energy": -12.33, 
			 "cosmo_cavitation_energy": 21.91, 
			 "cosmo_dispersion_energy": -16.54, 
			 "cosmo_repulsion_energy": 1.31, 
			 "cosmo_total_nonelectrostatic_energy": 6.68, 
			 "SMD_solvation_energy": 2.98 
		},
		"coords": [
			{
				"x": 2.5737658132,
				"y": 1.4311604648,
				"z": -1.6733799799,
				"element": "C" 
			},
			{
				"x": 1.7405764839,
				"y": 0.3677361941,
				"z": -1.1656118954,
				"element": "O" 
			},
			{
				"x": 2.3818578702,
				"y": -0.8134411995,
				"z": -0.9000937767,
				"element": "C" 
			},
			{
				"x": 3.5714721746,
				"y": -0.9553259553,
				"z": -1.0795105477,
				"element": "O" 
			},
			{
				"x": 1.4645547156,
				"y": -1.8524212164,
				"z": -0.3840929896,
				"element": "C" 
			},
			{
				"x": 0.0684266121,
				"y": -1.7080015161,
				"z": -0.1662390569,
				"element": "C" 
			},
			{
				"x": -0.6087465769,
				"y": -0.585768022,
				"z": -0.4063974724,
				"element": "O" 
			},
			{
				"x": -0.664009577,
				"y": -2.7208211544,
				"z": 0.3058185527,
				"element": "N" 
			},
			{
				"x": -0.0248666162,
				"y": -3.8594889311,
				"z": 0.5586451712,
				"element": "C" 
			},
			{
				"x": 1.2809201599,
				"y": -4.1239013689,
				"z": 0.3974024941,
				"element": "N" 
			},
			{
				"x": 2.0025082508,
				"y": -3.1069223787,
				"z": -0.0739656994,
				"element": "C" 
			},
			{
				"x": 3.3544186221,
				"y": 1.674707623,
				"z": -0.9502362968,
				"element": "H" 
			},
			{
				"x": 3.0366839379,
				"y": 1.1288900171,
				"z": -2.6146677581,
				"element": "H" 
			},
			{
				"x": 1.9067614587,
				"y": 2.2789495299,
				"z": -1.8240793666,
				"element": "H" 
			},
			{
				"x": 0.0175195831,
				"y": 0.0824131159,
				"z": -0.7450910401,
				"element": "H" 
			},
			{
				"x": -0.6363195902,
				"y": -4.6742641856,
				"z": 0.9424884008,
				"element": "H" 
			},
			{
				"x": 3.0676766781,
				"y": -3.2682010168,
				"z": -0.2233887391,
				"element": "H" 
			}
		],
		 "valence_orbital": [ 
			{
				"type": "occ",
				"energy": -0.32144,
				"method": "rhf"
			},
			{
				"type": "occ",
				"energy": -0.31029,
				"method": "rhf"
			},
			{
				"type": "occ",
				"energy": -0.29469,
				"method": "rhf"
			},
			{
				"type": "occ",
				"energy": -0.2752,
				"method": "rhf"
			},
			{
				"type": "occ",
				"energy": -0.2646,
				"method": "rhf"
			},
			{
				"type": "unocc",
				"energy": -0.0699,
				"method": "rhf"
			},
			{
				"type": "unocc",
				"energy": -0.03098,
				"method": "rhf"
			},
			{
				"type": "unocc",
				"energy": 0.02644,
				"method": "rhf"
			},
			{
				"type": "unocc",
				"energy": 0.07784,
				"method": "rhf"
			},
			{
				"type": "unocc",
				"energy": 0.09917,
				"method": "rhf"
			}
		],
		"cosmo_sigma_profile": { 
			"-0.025": 0.0,
			"-0.024": 0.0,
			"-0.023": 0.0,
			"-0.022": 0.0,
			"-0.021": 0.0,
			"-0.02": 0.0,
			"-0.019": 0.0,
			"-0.018": 0.0,
			"-0.017": 0.0,
			"-0.016": 0.0,
			"-0.015": 0.0,
			"-0.014": 0.0,
			"-0.013": 0.0,
			"-0.012": 0.27138531151,
			"-0.011": 0.750699091046,
			"-0.01": 0.98500888844,
			"-0.009": 0.843620242977,
			"-0.008": 4.40735328497,
			"-0.007": 9.36757825882,
			"-0.006": 13.6054279366,
			"-0.005": 14.6665668498,
			"-0.004": 20.0077565569,
			"-0.003": 15.2573274744,
			"-0.002": 14.5742419216,
			"-0.001": 8.93204843241,
			"0.0": 8.16910310555,
			"0.001": 6.72078121478,
			"0.002": 5.24246850591,
			"0.003": 4.08537518683,
			"0.004": 5.03071994523,
			"0.005": 3.22894313558,
			"0.006": 5.06667068503,
			"0.007": 4.68848263998,
			"0.008": 4.71065557761,
			"0.009": 4.68705823826,
			"0.01": 7.136629952,
			"0.011": 6.63068897534,
			"0.012": 2.2033562536,
			"0.013": 2.22133935481,
			"0.014": 1.80180120111,
			"0.015": 0.891356368365,
			"0.016": 0.0405166005552,
			"0.017": 0.0,
			"0.018": 0.0,
			"0.019": 0.0,
			"0.02": 0.0,
			"0.021": 0.0,
			"0.022": 0.0,
			"0.023": 0.0,
			"0.024": 0.0,
			"0.025": 0.0
		}
	}
}
