{
	 "smiles": "OC(=O)COC1=CC=CC=C1[N+]([O-])=O", 
	 "Tm": 430.65, 
	 "num_atms": 21, 
	 "gaussian": { 
		 "optdone": 1, 
		 "sigma_profile": "yes", 
		 "theory": "DFT", 
		 "functional": "B3LYP", 
		 "basiset": "6-31G**", 
		 "properties": { 
			 "R2extent": 3360.4002, 
			 "electric_dipole_moment_norm": 7.33536766972, 
			 "electric_quadrupole_moment_norm": 8.64869786731, 
			 "total_energy": -739.829150274, 
			 "HOMO_LUMO_gap": 0.16019, 
			 "cosmo_polarized_energy": -16.86, 
			 "cosmo_cavitation_energy": 26.28, 
			 "cosmo_dispersion_energy": -19.42, 
			 "cosmo_repulsion_energy": 1.51, 
			 "cosmo_total_nonelectrostatic_energy": 8.37, 
			 "SMD_solvation_energy": 8.09 
		},
		"coords": [
			{
				"x": -3.1792676389,
				"y": 0.1613930833,
				"z": 0.1241428857,
				"element": "O" 
			},
			{
				"x": -2.588077152,
				"y": 0.2262483519,
				"z": 1.3179193187,
				"element": "C" 
			},
			{
				"x": -3.1048709238,
				"y": 0.7074573745,
				"z": 2.2968344283,
				"element": "O" 
			},
			{
				"x": -1.1554015051,
				"y": -0.319173309,
				"z": 1.3933738839,
				"element": "C" 
			},
			{
				"x": -0.8782224416,
				"y": -1.0433437186,
				"z": 0.1941086657,
				"element": "O" 
			},
			{
				"x": 0.3454484676,
				"y": -1.006259453,
				"z": -0.3804019374,
				"element": "C" 
			},
			{
				"x": 1.5263665045,
				"y": -0.8259851698,
				"z": 0.3514928159,
				"element": "C" 
			},
			{
				"x": 2.7653338162,
				"y": -0.8591553508,
				"z": -0.2847383241,
				"element": "C" 
			},
			{
				"x": 2.8573724024,
				"y": -1.0931152737,
				"z": -1.6589580973,
				"element": "C" 
			},
			{
				"x": 1.6958621761,
				"y": -1.287773615,
				"z": -2.3963832394,
				"element": "C" 
			},
			{
				"x": 0.4482792966,
				"y": -1.229099613,
				"z": -1.7707555334,
				"element": "C" 
			},
			{
				"x": -0.7324800269,
				"y": -1.3844155892,
				"z": -2.6302579969,
				"element": "N" 
			},
			{
				"x": -1.8141308816,
				"y": -0.9078747911,
				"z": -2.2701966123,
				"element": "O" 
			},
			{
				"x": -0.5694666124,
				"y": -1.9612710825,
				"z": -3.702246083,
				"element": "O" 
			},
			{
				"x": -2.5956328472,
				"y": -0.2696721365,
				"z": -0.5341473955,
				"element": "H" 
			},
			{
				"x": -1.0699732292,
				"y": -0.9668813475,
				"z": 2.2707567388,
				"element": "H" 
			},
			{
				"x": -0.4738287552,
				"y": 0.5305386245,
				"z": 1.5109007833,
				"element": "H" 
			},
			{
				"x": 1.4709504649,
				"y": -0.6841763442,
				"z": 1.4247710412,
				"element": "H" 
			},
			{
				"x": 3.6657602217,
				"y": -0.7145062628,
				"z": 0.3044593738,
				"element": "H" 
			},
			{
				"x": 3.823391213,
				"y": -1.1244169059,
				"z": -2.1506603443,
				"element": "H" 
			},
			{
				"x": 1.723987451,
				"y": -1.4753174715,
				"z": -3.4625143717,
				"element": "H" 
			}
		],
		 "valence_orbital": [ 
			{
				"type": "occ",
				"energy": -0.31224,
				"method": "rhf"
			},
			{
				"type": "occ",
				"energy": -0.31129,
				"method": "rhf"
			},
			{
				"type": "occ",
				"energy": -0.29437,
				"method": "rhf"
			},
			{
				"type": "occ",
				"energy": -0.28067,
				"method": "rhf"
			},
			{
				"type": "occ",
				"energy": -0.26451,
				"method": "rhf"
			},
			{
				"type": "unocc",
				"energy": -0.10432,
				"method": "rhf"
			},
			{
				"type": "unocc",
				"energy": -0.03729,
				"method": "rhf"
			},
			{
				"type": "unocc",
				"energy": -0.02192,
				"method": "rhf"
			},
			{
				"type": "unocc",
				"energy": 0.00777,
				"method": "rhf"
			},
			{
				"type": "unocc",
				"energy": 0.05177,
				"method": "rhf"
			}
		],
		"cosmo_sigma_profile": { 
			"-0.025": 0.0,
			"-0.024": 0.0,
			"-0.023": 0.0,
			"-0.022": 0.0,
			"-0.021": 0.0,
			"-0.02": 0.0,
			"-0.019": 0.0,
			"-0.018": 0.0,
			"-0.017": 0.0,
			"-0.016": 0.0,
			"-0.015": 0.0,
			"-0.014": 0.0,
			"-0.013": 0.0,
			"-0.012": 0.0,
			"-0.011": 0.0,
			"-0.01": 1.51342714473,
			"-0.009": 7.89970840016,
			"-0.008": 10.444481596,
			"-0.007": 14.8869356999,
			"-0.006": 13.1821824314,
			"-0.005": 11.4129249042,
			"-0.004": 12.3721910378,
			"-0.003": 10.0305319999,
			"-0.002": 12.3703200186,
			"-0.001": 11.4526783309,
			"0.0": 14.4099810687,
			"0.001": 13.1551675861,
			"0.002": 14.1384536588,
			"0.003": 7.73054471898,
			"0.004": 4.99628594775,
			"0.005": 4.78701123105,
			"0.006": 5.89584636766,
			"0.007": 9.08037033684,
			"0.008": 6.62683419731,
			"0.009": 7.42007451342,
			"0.01": 6.12747024029,
			"0.011": 4.71400773624,
			"0.012": 5.26744318593,
			"0.013": 1.3016874944,
			"0.014": 0.00487143815181,
			"0.015": 0.0,
			"0.016": 0.0,
			"0.017": 0.0,
			"0.018": 0.0,
			"0.019": 0.0,
			"0.02": 0.0,
			"0.021": 0.0,
			"0.022": 0.0,
			"0.023": 0.0,
			"0.024": 0.0,
			"0.025": 0.0
		}
	}
}
