{
	 "smiles": "COC1=C(CC#N)C2=CC=C(Br)C=C2C=C1", 
	 "Tm": 421.15, 
	 "num_atms": 26, 
	 "gaussian": { 
		 "optdone": 1, 
		 "sigma_profile": "yes", 
		 "theory": "DFT", 
		 "functional": "B3LYP", 
		 "basiset": "6-31G**", 
		 "properties": { 
			 "R2extent": 8252.9719, 
			 "electric_dipole_moment_norm": 5.56171235862, 
			 "electric_quadrupole_moment_norm": 14.6477124736, 
			 "total_energy": -3202.77033421, 
			 "HOMO_LUMO_gap": 0.15975, 
			 "cosmo_polarized_energy": -13.12, 
			 "cosmo_cavitation_energy": 33.03, 
			 "cosmo_dispersion_energy": -23.76, 
			 "cosmo_repulsion_energy": 1.84, 
			 "cosmo_total_nonelectrostatic_energy": 11.11, 
			 "SMD_solvation_energy": 6.25 
		},
		"coords": [
			{
				"x": -0.4270361444,
				"y": 1.2636512364,
				"z": 3.2016632255,
				"element": "C" 
			},
			{
				"x": 0.1957680151,
				"y": 0.745515179,
				"z": 2.0340366997,
				"element": "O" 
			},
			{
				"x": -0.5774375945,
				"y": 0.2038881689,
				"z": 1.046912352,
				"element": "C" 
			},
			{
				"x": 0.0929380237,
				"y": -0.2919579119,
				"z": -0.0673551853,
				"element": "C" 
			},
			{
				"x": 1.6118938951,
				"y": -0.2300976999,
				"z": -0.1039235723,
				"element": "C" 
			},
			{
				"x": 2.1346866633,
				"y": 0.8215918626,
				"z": -0.9876140698,
				"element": "C" 
			},
			{
				"x": 2.5465149096,
				"y": 1.6482779937,
				"z": -1.690851738,
				"element": "N" 
			},
			{
				"x": -0.6508868311,
				"y": -0.8591624242,
				"z": -1.1426409714,
				"element": "C" 
			},
			{
				"x": -0.036587914,
				"y": -1.3610866909,
				"z": -2.3260400238,
				"element": "C" 
			},
			{
				"x": -0.7803155209,
				"y": -1.9139481975,
				"z": -3.3432554307,
				"element": "C" 
			},
			{
				"x": -2.186665565,
				"y": -1.9897817266,
				"z": -3.2241268838,
				"element": "C" 
			},
			{
				"x": -3.191760535,
				"y": -2.7679367991,
				"z": -4.6507922425,
				"element": "Br" 
			},
			{
				"x": -2.8296194794,
				"y": -1.5119715281,
				"z": -2.1094850722,
				"element": "C" 
			},
			{
				"x": -2.080326063,
				"y": -0.9359072061,
				"z": -1.0494055433,
				"element": "C" 
			},
			{
				"x": -2.7177722279,
				"y": -0.4279539951,
				"z": 0.1094597933,
				"element": "C" 
			},
			{
				"x": -1.9916871475,
				"y": 0.1308338438,
				"z": 1.1339441144,
				"element": "C" 
			},
			{
				"x": -0.9774252999,
				"y": 0.4869390039,
				"z": 3.7467802492,
				"element": "H" 
			},
			{
				"x": 0.3837099524,
				"y": 1.6355894446,
				"z": 3.8293849569,
				"element": "H" 
			},
			{
				"x": -1.1055330366,
				"y": 2.0916782452,
				"z": 2.9638263383,
				"element": "H" 
			},
			{
				"x": 2.0300249705,
				"y": -1.1888460231,
				"z": -0.4322204021,
				"element": "H" 
			},
			{
				"x": 1.9906944714,
				"y": -0.0427756456,
				"z": 0.9035634931,
				"element": "H" 
			},
			{
				"x": 1.0386423705,
				"y": -1.2946457176,
				"z": -2.4488437757,
				"element": "H" 
			},
			{
				"x": -0.2967728272,
				"y": -2.2871434587,
				"z": -4.238710481,
				"element": "H" 
			},
			{
				"x": -3.9098753747,
				"y": -1.5679724921,
				"z": -2.0275763932,
				"element": "H" 
			},
			{
				"x": -3.8004022376,
				"y": -0.4828287379,
				"z": 0.1815650706,
				"element": "H" 
			},
			{
				"x": -2.5051694728,
				"y": 0.5151512763,
				"z": 2.006505492,
				"element": "H" 
			}
		],
		 "valence_orbital": [ 
			{
				"type": "occ",
				"energy": -0.30553,
				"method": "rhf"
			},
			{
				"type": "occ",
				"energy": -0.28853,
				"method": "rhf"
			},
			{
				"type": "occ",
				"energy": -0.27475,
				"method": "rhf"
			},
			{
				"type": "occ",
				"energy": -0.24841,
				"method": "rhf"
			},
			{
				"type": "occ",
				"energy": -0.21742,
				"method": "rhf"
			},
			{
				"type": "unocc",
				"energy": -0.05767,
				"method": "rhf"
			},
			{
				"type": "unocc",
				"energy": -0.02029,
				"method": "rhf"
			},
			{
				"type": "unocc",
				"energy": 0.00576,
				"method": "rhf"
			},
			{
				"type": "unocc",
				"energy": 0.01259,
				"method": "rhf"
			},
			{
				"type": "unocc",
				"energy": 0.04426,
				"method": "rhf"
			}
		],
		"cosmo_sigma_profile": { 
			"-0.025": 0.0,
			"-0.024": 0.0,
			"-0.023": 0.0,
			"-0.022": 0.0,
			"-0.021": 0.0,
			"-0.02": 0.0,
			"-0.019": 0.0,
			"-0.018": 0.0,
			"-0.017": 0.0,
			"-0.016": 0.0,
			"-0.015": 0.0,
			"-0.014": 0.0,
			"-0.013": 0.0,
			"-0.012": 0.0,
			"-0.011": 0.0,
			"-0.01": 0.483975264198,
			"-0.009": 2.27956503009,
			"-0.008": 4.22023191236,
			"-0.007": 13.3151882602,
			"-0.006": 19.3844293392,
			"-0.005": 20.348171009,
			"-0.004": 18.5340087843,
			"-0.003": 15.7179466799,
			"-0.002": 13.3342630438,
			"-0.001": 10.9640233807,
			"0.0": 16.1317220573,
			"0.001": 19.6678482809,
			"0.002": 30.0175025231,
			"0.003": 31.2503538019,
			"0.004": 18.5999689328,
			"0.005": 11.1419353702,
			"0.006": 2.98210867468,
			"0.007": 2.65996946158,
			"0.008": 3.4264592363,
			"0.009": 3.30529474198,
			"0.01": 3.58289486722,
			"0.011": 2.68305662675,
			"0.012": 2.68847378643,
			"0.013": 1.88211151507,
			"0.014": 0.412314058935,
			"0.015": 0.0,
			"0.016": 0.0,
			"0.017": 0.0,
			"0.018": 0.0,
			"0.019": 0.0,
			"0.02": 0.0,
			"0.021": 0.0,
			"0.022": 0.0,
			"0.023": 0.0,
			"0.024": 0.0,
			"0.025": 0.0
		}
	}
}
