{
	 "smiles": "CNC1=CC=C(C=C1N)C#N", 
	 "Tm": 413.15, 
	 "num_atms": 20, 
	 "gaussian": { 
		 "optdone": 1, 
		 "sigma_profile": "yes", 
		 "theory": "DFT", 
		 "functional": "B3LYP", 
		 "basiset": "6-31G**", 
		 "properties": { 
			 "R2extent": 2636.895, 
			 "electric_dipole_moment_norm": 6.89309632168, 
			 "electric_quadrupole_moment_norm": 28.4820368778, 
			 "total_energy": -474.519379021, 
			 "HOMO_LUMO_gap": 0.17758, 
			 "cosmo_polarized_energy": -15.08, 
			 "cosmo_cavitation_energy": 24.59, 
			 "cosmo_dispersion_energy": -17.73, 
			 "cosmo_repulsion_energy": 1.43, 
			 "cosmo_total_nonelectrostatic_energy": 8.29, 
			 "SMD_solvation_energy": 5.1 
		},
		"coords": [
			{
				"x": -2.3441437089,
				"y": -1.9271624032,
				"z": 0.4474258911,
				"element": "C" 
			},
			{
				"x": -1.1630568711,
				"y": -1.1886860226,
				"z": 0.0358837282,
				"element": "N" 
			},
			{
				"x": -0.828282736,
				"y": 0.0166346689,
				"z": 0.6392202435,
				"element": "C" 
			},
			{
				"x": -1.4604116225,
				"y": 0.5156017643,
				"z": 1.7868948959,
				"element": "C" 
			},
			{
				"x": -1.0791857444,
				"y": 1.7354209646,
				"z": 2.3411206479,
				"element": "C" 
			},
			{
				"x": -0.0561485483,
				"y": 2.4861402304,
				"z": 1.7477956391,
				"element": "C" 
			},
			{
				"x": 0.6042446126,
				"y": 1.9810472881,
				"z": 0.6091203637,
				"element": "C" 
			},
			{
				"x": 0.2375488717,
				"y": 0.7613647617,
				"z": 0.0584297415,
				"element": "C" 
			},
			{
				"x": 0.8408146717,
				"y": 0.2309559227,
				"z": -1.1020411941,
				"element": "N" 
			},
			{
				"x": 0.3347419346,
				"y": 3.7467430823,
				"z": 2.2992767433,
				"element": "C" 
			},
			{
				"x": 0.6555544604,
				"y": 4.7731624434,
				"z": 2.7462016129,
				"element": "N" 
			},
			{
				"x": -3.272624348,
				"y": -1.3383712493,
				"z": 0.3873539809,
				"element": "H" 
			},
			{
				"x": -2.2309088264,
				"y": -2.2784626139,
				"z": 1.47810277,
				"element": "H" 
			},
			{
				"x": -2.4488827127,
				"y": -2.8057782332,
				"z": -0.1927840415,
				"element": "H" 
			},
			{
				"x": -1.0088630514,
				"y": -1.1648752981,
				"z": -0.9661503482,
				"element": "H" 
			},
			{
				"x": -2.2692409562,
				"y": -0.0436132885,
				"z": 2.2428572305,
				"element": "H" 
			},
			{
				"x": -1.5827060426,
				"y": 2.1135461606,
				"z": 3.2240428843,
				"element": "H" 
			},
			{
				"x": 1.415635624,
				"y": 2.5507518381,
				"z": 0.1654607392,
				"element": "H" 
			},
			{
				"x": 1.6096387863,
				"y": 0.7974208037,
				"z": -1.4402718329,
				"element": "H" 
			},
			{
				"x": 1.1553762069,
				"y": -0.7265408201,
				"z": -0.9678396952,
				"element": "H" 
			}
		],
		 "valence_orbital": [ 
			{
				"type": "occ",
				"energy": -0.3178,
				"method": "rhf"
			},
			{
				"type": "occ",
				"energy": -0.31229,
				"method": "rhf"
			},
			{
				"type": "occ",
				"energy": -0.29215,
				"method": "rhf"
			},
			{
				"type": "occ",
				"energy": -0.24087,
				"method": "rhf"
			},
			{
				"type": "occ",
				"energy": -0.20331,
				"method": "rhf"
			},
			{
				"type": "unocc",
				"energy": -0.02573,
				"method": "rhf"
			},
			{
				"type": "unocc",
				"energy": -0.00243,
				"method": "rhf"
			},
			{
				"type": "unocc",
				"energy": 0.05135,
				"method": "rhf"
			},
			{
				"type": "unocc",
				"energy": 0.06452,
				"method": "rhf"
			},
			{
				"type": "unocc",
				"energy": 0.08729,
				"method": "rhf"
			}
		],
		"cosmo_sigma_profile": { 
			"-0.025": 0.0,
			"-0.024": 0.0,
			"-0.023": 0.0,
			"-0.022": 0.0,
			"-0.021": 0.0,
			"-0.02": 0.0,
			"-0.019": 0.0,
			"-0.018": 0.0,
			"-0.017": 0.0,
			"-0.016": 0.0,
			"-0.015": 0.0,
			"-0.014": 0.0,
			"-0.013": 0.221090717714,
			"-0.012": 2.52836950142,
			"-0.011": 3.41480714591,
			"-0.01": 4.02921607626,
			"-0.009": 4.81075819363,
			"-0.008": 3.59488884301,
			"-0.007": 5.78697622856,
			"-0.006": 8.97596396037,
			"-0.005": 13.0122287612,
			"-0.004": 14.1170872146,
			"-0.003": 13.7590632851,
			"-0.002": 13.9508876788,
			"-0.001": 11.4350517324,
			"0.0": 8.95944533905,
			"0.001": 11.1365635177,
			"0.002": 9.94265346984,
			"0.003": 11.2372049389,
			"0.004": 14.9462561729,
			"0.005": 7.43664885111,
			"0.006": 4.0635978635,
			"0.007": 3.84519012877,
			"0.008": 3.47520197826,
			"0.009": 4.96335213691,
			"0.01": 4.74728706297,
			"0.011": 4.10571724512,
			"0.012": 2.91151985214,
			"0.013": 3.13693847867,
			"0.014": 1.55022726115,
			"0.015": 0.0,
			"0.016": 0.0,
			"0.017": 0.0,
			"0.018": 0.0,
			"0.019": 0.0,
			"0.02": 0.0,
			"0.021": 0.0,
			"0.022": 0.0,
			"0.023": 0.0,
			"0.024": 0.0,
			"0.025": 0.0
		}
	}
}
