{
	 "smiles": "ClC1=NC=NC(=C1)N1CCNCC1", 
	 "Tm": 374.15, 
	 "num_atms": 24, 
	 "gaussian": { 
		 "optdone": 1, 
		 "sigma_profile": "yes", 
		 "theory": "DFT", 
		 "functional": "B3LYP", 
		 "basiset": "6-31G**", 
		 "properties": { 
			 "R2extent": 5332.6, 
			 "electric_dipole_moment_norm": 4.33317439991, 
			 "electric_quadrupole_moment_norm": 19.667886509, 
			 "total_energy": -990.673685253, 
			 "HOMO_LUMO_gap": 0.19016, 
			 "cosmo_polarized_energy": -12.02, 
			 "cosmo_cavitation_energy": 27.96, 
			 "cosmo_dispersion_energy": -21.36, 
			 "cosmo_repulsion_energy": 1.69, 
			 "cosmo_total_nonelectrostatic_energy": 8.3, 
			 "SMD_solvation_energy": -1.37 
		},
		"coords": [
			{
				"x": -1.845003468,
				"y": -3.6376165314,
				"z": 3.9093003756,
				"element": "Cl" 
			},
			{
				"x": -1.5680640031,
				"y": -3.5805123985,
				"z": 2.1707576456,
				"element": "C" 
			},
			{
				"x": -1.7924030528,
				"y": -4.7028350709,
				"z": 1.4990525442,
				"element": "N" 
			},
			{
				"x": -1.5820580375,
				"y": -4.5939201889,
				"z": 0.1812199392,
				"element": "C" 
			},
			{
				"x": -1.1785963129,
				"y": -3.5263606608,
				"z": -0.4949365661,
				"element": "N" 
			},
			{
				"x": -0.9375464255,
				"y": -2.3957158981,
				"z": 0.2105836602,
				"element": "C" 
			},
			{
				"x": -1.1471566562,
				"y": -2.3860820401,
				"z": 1.6125188551,
				"element": "C" 
			},
			{
				"x": -0.4807217012,
				"y": -1.3100863133,
				"z": -0.4896238902,
				"element": "N" 
			},
			{
				"x": -0.5403164156,
				"y": -1.289778051,
				"z": -1.9575933517,
				"element": "C" 
			},
			{
				"x": 0.6831514474,
				"y": -0.5681668723,
				"z": -2.5356898213,
				"element": "C" 
			},
			{
				"x": 0.9024857647,
				"y": 0.7656735945,
				"z": -1.9720119714,
				"element": "N" 
			},
			{
				"x": 0.9371297012,
				"y": 0.7083528798,
				"z": -0.5132123056,
				"element": "C" 
			},
			{
				"x": -0.2727373785,
				"y": -0.0001161063,
				"z": 0.1249617075,
				"element": "C" 
			},
			{
				"x": -1.7663452616,
				"y": -5.4923327428,
				"z": -0.4054145961,
				"element": "H" 
			},
			{
				"x": -1.0098232696,
				"y": -1.5136200608,
				"z": 2.2334294974,
				"element": "H" 
			},
			{
				"x": -0.6037609235,
				"y": -2.3185252565,
				"z": -2.3087345176,
				"element": "H" 
			},
			{
				"x": -1.4590379103,
				"y": -0.7668370864,
				"z": -2.2736499959,
				"element": "H" 
			},
			{
				"x": 0.5773887952,
				"y": -0.4846144579,
				"z": -3.622540436,
				"element": "H" 
			},
			{
				"x": 1.5804071052,
				"y": -1.1685903999,
				"z": -2.3387238437,
				"element": "H" 
			},
			{
				"x": 0.1525890881,
				"y": 1.3873315494,
				"z": -2.2709116332,
				"element": "H" 
			},
			{
				"x": 1.8490875599,
				"y": 0.1728855179,
				"z": -0.2195168267,
				"element": "H" 
			},
			{
				"x": 1.0110787519,
				"y": 1.7251491213,
				"z": -0.1127981247,
				"element": "H" 
			},
			{
				"x": -1.1768399165,
				"y": 0.6206498583,
				"z": 0.0044437964,
				"element": "H" 
			},
			{
				"x": -0.0900074809,
				"y": -0.1123323852,
				"z": 1.1942898591,
				"element": "H" 
			}
		],
		 "valence_orbital": [ 
			{
				"type": "occ",
				"energy": -0.30075,
				"method": "rhf"
			},
			{
				"type": "occ",
				"energy": -0.27743,
				"method": "rhf"
			},
			{
				"type": "occ",
				"energy": -0.26284,
				"method": "rhf"
			},
			{
				"type": "occ",
				"energy": -0.24566,
				"method": "rhf"
			},
			{
				"type": "occ",
				"energy": -0.22064,
				"method": "rhf"
			},
			{
				"type": "unocc",
				"energy": -0.03048,
				"method": "rhf"
			},
			{
				"type": "unocc",
				"energy": -0.01672,
				"method": "rhf"
			},
			{
				"type": "unocc",
				"energy": 0.03364,
				"method": "rhf"
			},
			{
				"type": "unocc",
				"energy": 0.07023,
				"method": "rhf"
			},
			{
				"type": "unocc",
				"energy": 0.09646,
				"method": "rhf"
			}
		],
		"cosmo_sigma_profile": { 
			"-0.025": 0.0,
			"-0.024": 0.0,
			"-0.023": 0.0,
			"-0.022": 0.0,
			"-0.021": 0.0,
			"-0.02": 0.0,
			"-0.019": 0.0,
			"-0.018": 0.0,
			"-0.017": 0.0,
			"-0.016": 0.0,
			"-0.015": 0.0,
			"-0.014": 0.0,
			"-0.013": 0.0,
			"-0.012": 0.0,
			"-0.011": 0.0336472317945,
			"-0.01": 1.85185199847,
			"-0.009": 3.02649835257,
			"-0.008": 3.91179664262,
			"-0.007": 6.84857697636,
			"-0.006": 5.89093078146,
			"-0.005": 12.0695265022,
			"-0.004": 23.8400692942,
			"-0.003": 22.6403339786,
			"-0.002": 19.3037123607,
			"-0.001": 18.6172733017,
			"0.0": 18.4612292187,
			"0.001": 15.2381563421,
			"0.002": 10.421689397,
			"0.003": 11.8842955802,
			"0.004": 13.7963285955,
			"0.005": 6.78040260399,
			"0.006": 4.42432659712,
			"0.007": 4.79837799485,
			"0.008": 3.27511500954,
			"0.009": 4.55889519261,
			"0.01": 2.49100462928,
			"0.011": 1.6742236654,
			"0.012": 1.61094001371,
			"0.013": 1.98022342592,
			"0.014": 1.36318151951,
			"0.015": 1.1294092755,
			"0.016": 0.392709644301,
			"0.017": 0.819721260155,
			"0.018": 0.407740618802,
			"0.019": 0.0,
			"0.02": 0.0,
			"0.021": 0.0,
			"0.022": 0.0,
			"0.023": 0.0,
			"0.024": 0.0,
			"0.025": 0.0
		}
	}
}
