{
	 "smiles": "BrC1=CC=CC(Br)=N1", 
	 "Tm": 392.15, 
	 "num_atms": 11, 
	 "gaussian": { 
		 "optdone": 1, 
		 "sigma_profile": "yes", 
		 "theory": "DFT", 
		 "functional": "B3LYP", 
		 "basiset": "6-31G**", 
		 "properties": { 
			 "R2extent": 3262.1093, 
			 "electric_dipole_moment_norm": 3.6262080001, 
			 "electric_quadrupole_moment_norm": 7.95967285383, 
			 "total_energy": -5389.89115431, 
			 "HOMO_LUMO_gap": 0.20694, 
			 "cosmo_polarized_energy": -6.92, 
			 "cosmo_cavitation_energy": 20.33, 
			 "cosmo_dispersion_energy": -16.15, 
			 "cosmo_repulsion_energy": 1.35, 
			 "cosmo_total_nonelectrostatic_energy": 5.53, 
			 "SMD_solvation_energy": -0.16 
		},
		"coords": [
			{
				"x": 0.7869978014,
				"y": 0.3594617883,
				"z": 1.5969557121,
				"element": "Br" 
			},
			{
				"x": -0.335361802,
				"y": 0.6687773239,
				"z": 0.0754517934,
				"element": "C" 
			},
			{
				"x": -1.6651695441,
				"y": 1.0354049175,
				"z": 0.2844092036,
				"element": "C" 
			},
			{
				"x": -2.4471059736,
				"y": 1.2509828113,
				"z": -0.8497757933,
				"element": "C" 
			},
			{
				"x": -1.8869165786,
				"y": 1.0965228011,
				"z": -2.1172980558,
				"element": "C" 
			},
			{
				"x": -0.543066543,
				"y": 0.7259478692,
				"z": -2.1739853886,
				"element": "C" 
			},
			{
				"x": 0.2804836128,
				"y": 0.4990726703,
				"z": -3.8887067654,
				"element": "Br" 
			},
			{
				"x": 0.221575439,
				"y": 0.5151869371,
				"z": -1.1149025174,
				"element": "N" 
			},
			{
				"x": -2.0612062553,
				"y": 1.1446264987,
				"z": 1.2859480662,
				"element": "H" 
			},
			{
				"x": -3.4892132948,
				"y": 1.5383178162,
				"z": -0.7462459153,
				"element": "H" 
			},
			{
				"x": -2.4590168618,
				"y": 1.2542985663,
				"z": -3.0226503396,
				"element": "H" 
			}
		],
		 "valence_orbital": [ 
			{
				"type": "occ",
				"energy": -0.2997,
				"method": "rhf"
			},
			{
				"type": "occ",
				"energy": -0.29264,
				"method": "rhf"
			},
			{
				"type": "occ",
				"energy": -0.28924,
				"method": "rhf"
			},
			{
				"type": "occ",
				"energy": -0.28825,
				"method": "rhf"
			},
			{
				"type": "occ",
				"energy": -0.25718,
				"method": "rhf"
			},
			{
				"type": "unocc",
				"energy": -0.05024,
				"method": "rhf"
			},
			{
				"type": "unocc",
				"energy": -0.04027,
				"method": "rhf"
			},
			{
				"type": "unocc",
				"energy": -0.01163,
				"method": "rhf"
			},
			{
				"type": "unocc",
				"energy": 0.01519,
				"method": "rhf"
			},
			{
				"type": "unocc",
				"energy": 0.09429,
				"method": "rhf"
			}
		],
		"cosmo_sigma_profile": { 
			"-0.025": 0.0,
			"-0.024": 0.0,
			"-0.023": 0.0,
			"-0.022": 0.0,
			"-0.021": 0.0,
			"-0.02": 0.0,
			"-0.019": 0.0,
			"-0.018": 0.0,
			"-0.017": 0.0,
			"-0.016": 0.0,
			"-0.015": 0.0,
			"-0.014": 0.0,
			"-0.013": 0.0,
			"-0.012": 0.0,
			"-0.011": 0.0,
			"-0.01": 0.0,
			"-0.009": 2.74864328701,
			"-0.008": 7.11730000102,
			"-0.007": 6.46680848626,
			"-0.006": 5.54774792861,
			"-0.005": 5.62670075406,
			"-0.004": 8.10176867893,
			"-0.003": 7.50274056739,
			"-0.002": 12.3063365206,
			"-0.001": 18.6335408499,
			"0.0": 19.2783772994,
			"0.001": 13.3409043968,
			"0.002": 10.6542171304,
			"0.003": 15.8189964914,
			"0.004": 20.8764320589,
			"0.005": 6.43774524727,
			"0.006": 2.8978020126,
			"0.007": 2.12751020295,
			"0.008": 1.5047453155,
			"0.009": 1.40444098154,
			"0.01": 1.00751173427,
			"0.011": 1.00691610919,
			"0.012": 0.676860293535,
			"0.013": 0.0228097785995,
			"0.014": 0.0,
			"0.015": 0.0,
			"0.016": 0.0,
			"0.017": 0.0,
			"0.018": 0.0,
			"0.019": 0.0,
			"0.02": 0.0,
			"0.021": 0.0,
			"0.022": 0.0,
			"0.023": 0.0,
			"0.024": 0.0,
			"0.025": 0.0
		}
	}
}
