{
	 "smiles": "OC1=CC=C2C[C@H]3N(CC4CC4)CC[C@@]45[C@@H](OC1=C24)C(=C)CC[C@@]35O", 
	 "Tm": 462.15, 
	 "num_atms": 50, 
	 "gaussian": { 
		 "optdone": 1, 
		 "sigma_profile": "yes", 
		 "theory": "DFT", 
		 "functional": "B3LYP", 
		 "basiset": "6-31G**", 
		 "properties": { 
			 "R2extent": 8773.481, 
			 "electric_dipole_moment_norm": 2.70428201747, 
			 "electric_quadrupole_moment_norm": 10.9855681187, 
			 "total_energy": -1095.6631176, 
			 "HOMO_LUMO_gap": 0.20446, 
			 "cosmo_polarized_energy": -12.18, 
			 "cosmo_cavitation_energy": 45.84, 
			 "cosmo_dispersion_energy": -31.76, 
			 "cosmo_repulsion_energy": 2.34, 
			 "cosmo_total_nonelectrostatic_energy": 16.42, 
			 "SMD_solvation_energy": 6.61 
		},
		"coords": [
			{
				"x": -0.8463671149,
				"y": 3.1884503441,
				"z": 4.9910680937,
				"element": "O" 
			},
			{
				"x": -0.5349967996,
				"y": 2.7433067345,
				"z": 3.7368104001,
				"element": "C" 
			},
			{
				"x": -0.0078586005,
				"y": 3.6302555,
				"z": 2.782237913,
				"element": "C" 
			},
			{
				"x": 0.2768840691,
				"y": 3.2220875229,
				"z": 1.4740816048,
				"element": "C" 
			},
			{
				"x": 0.0763770512,
				"y": 1.8885485357,
				"z": 1.0742063251,
				"element": "C" 
			},
			{
				"x": 0.2244272381,
				"y": 1.3416785008,
				"z": -0.3327312055,
				"element": "C" 
			},
			{
				"x": 0.002069358,
				"y": -0.1982873252,
				"z": -0.4501093749,
				"element": "C" 
			},
			{
				"x": 1.1939596437,
				"y": -1.0475323775,
				"z": -0.2015207822,
				"element": "N" 
			},
			{
				"x": 2.2601928466,
				"y": -0.9499216267,
				"z": -1.2064173296,
				"element": "C" 
			},
			{
				"x": 1.8203263566,
				"y": -1.2721960199,
				"z": -2.619942977,
				"element": "C" 
			},
			{
				"x": 2.7540013554,
				"y": -2.0396735739,
				"z": -3.5273423978,
				"element": "C" 
			},
			{
				"x": 1.5026743244,
				"y": -2.6974078703,
				"z": -3.0007182499,
				"element": "C" 
			},
			{
				"x": 1.7207208587,
				"y": -0.9224723354,
				"z": 1.1686619136,
				"element": "C" 
			},
			{
				"x": 0.6417336089,
				"y": -1.2375857371,
				"z": 2.2131713314,
				"element": "C" 
			},
			{
				"x": -0.6607461552,
				"y": -0.4507580573,
				"z": 1.9279514177,
				"element": "C" 
			},
			{
				"x": -1.6991867032,
				"y": -0.6024738605,
				"z": 3.08026686,
				"element": "C" 
			},
			{
				"x": -1.28730332,
				"y": 0.4090551411,
				"z": 4.0713631767,
				"element": "O" 
			},
			{
				"x": -0.7293457475,
				"y": 1.4286460973,
				"z": 3.3266548925,
				"element": "C" 
			},
			{
				"x": -0.400459503,
				"y": 1.0273258563,
				"z": 2.0455943244,
				"element": "C" 
			},
			{
				"x": -3.1381755282,
				"y": -0.351107812,
				"z": 2.6425379329,
				"element": "C" 
			},
			{
				"x": -4.0093247425,
				"y": 0.2700700936,
				"z": 3.4408422541,
				"element": "C" 
			},
			{
				"x": -3.4967367951,
				"y": -0.8244823122,
				"z": 1.2518173177,
				"element": "C" 
			},
			{
				"x": -2.5221077869,
				"y": -0.2479169579,
				"z": 0.2050323492,
				"element": "C" 
			},
			{
				"x": -1.1137061289,
				"y": -0.779215619,
				"z": 0.4801559391,
				"element": "C" 
			},
			{
				"x": -1.1722549727,
				"y": -2.1864052497,
				"z": 0.255708463,
				"element": "O" 
			},
			{
				"x": -1.2406192386,
				"y": 2.4507683706,
				"z": 5.4773809486,
				"element": "H" 
			},
			{
				"x": 0.1428185399,
				"y": 4.6628956154,
				"z": 3.0814013894,
				"element": "H" 
			},
			{
				"x": 0.6454948722,
				"y": 3.9571216638,
				"z": 0.7630475569,
				"element": "H" 
			},
			{
				"x": 1.2045455358,
				"y": 1.5963386021,
				"z": -0.7564292056,
				"element": "H" 
			},
			{
				"x": -0.5075243517,
				"y": 1.8380074744,
				"z": -0.9845805779,
				"element": "H" 
			},
			{
				"x": -0.310174472,
				"y": -0.413568418,
				"z": -1.4763931414,
				"element": "H" 
			},
			{
				"x": 3.0338732304,
				"y": -1.6687536004,
				"z": -0.9087901854,
				"element": "H" 
			},
			{
				"x": 2.7481817232,
				"y": 0.0427859877,
				"z": -1.1938028125,
				"element": "H" 
			},
			{
				"x": 1.2293588432,
				"y": -0.502800037,
				"z": -3.1116848677,
				"element": "H" 
			},
			{
				"x": 3.7095090838,
				"y": -2.3611069492,
				"z": -3.1216662663,
				"element": "H" 
			},
			{
				"x": 2.7909795048,
				"y": -1.7629267472,
				"z": -4.5765453866,
				"element": "H" 
			},
			{
				"x": 0.683499598,
				"y": -2.8799448214,
				"z": -3.6892885122,
				"element": "H" 
			},
			{
				"x": 1.6123779386,
				"y": -3.456324526,
				"z": -2.2312795972,
				"element": "H" 
			},
			{
				"x": 2.5486433614,
				"y": -1.6333114527,
				"z": 1.2734616362,
				"element": "H" 
			},
			{
				"x": 2.1407506574,
				"y": 0.0805845393,
				"z": 1.3537248332,
				"element": "H" 
			},
			{
				"x": 1.0172758171,
				"y": -0.9889241039,
				"z": 3.2112477555,
				"element": "H" 
			},
			{
				"x": 0.4096639055,
				"y": -2.3078239511,
				"z": 2.1989192492,
				"element": "H" 
			},
			{
				"x": -1.6102825179,
				"y": -1.5695214234,
				"z": 3.5854949891,
				"element": "H" 
			},
			{
				"x": -5.0332586233,
				"y": 0.446255438,
				"z": 3.1234990011,
				"element": "H" 
			},
			{
				"x": -3.725366441,
				"y": 0.6268790942,
				"z": 4.4246591978,
				"element": "H" 
			},
			{
				"x": -4.5272257667,
				"y": -0.5359815802,
				"z": 1.0219830102,
				"element": "H" 
			},
			{
				"x": -3.4421581811,
				"y": -1.9187663776,
				"z": 1.1923655577,
				"element": "H" 
			},
			{
				"x": -2.8189671485,
				"y": -0.5605428773,
				"z": -0.8018586595,
				"element": "H" 
			},
			{
				"x": -2.5423896007,
				"y": 0.8460315518,
				"z": 0.2448499526,
				"element": "H" 
			},
			{
				"x": -0.2652030823,
				"y": -2.4174590637,
				"z": -0.0226960576,
				"element": "H" 
			}
		],
		 "valence_orbital": [ 
			{
				"type": "occ",
				"energy": -0.25981,
				"method": "rhf"
			},
			{
				"type": "occ",
				"energy": -0.24275,
				"method": "rhf"
			},
			{
				"type": "occ",
				"energy": -0.22492,
				"method": "rhf"
			},
			{
				"type": "occ",
				"energy": -0.21931,
				"method": "rhf"
			},
			{
				"type": "occ",
				"energy": -0.20062,
				"method": "rhf"
			},
			{
				"type": "unocc",
				"energy": 0.00384,
				"method": "rhf"
			},
			{
				"type": "unocc",
				"energy": 0.01469,
				"method": "rhf"
			},
			{
				"type": "unocc",
				"energy": 0.02607,
				"method": "rhf"
			},
			{
				"type": "unocc",
				"energy": 0.07014,
				"method": "rhf"
			},
			{
				"type": "unocc",
				"energy": 0.07141,
				"method": "rhf"
			}
		],
		"cosmo_sigma_profile": { 
			"-0.025": 0.0,
			"-0.024": 0.0,
			"-0.023": 0.0,
			"-0.022": 0.0,
			"-0.021": 0.0,
			"-0.02": 0.0,
			"-0.019": 0.0,
			"-0.018": 0.0,
			"-0.017": 0.0,
			"-0.016": 0.237678278473,
			"-0.015": 0.803038805251,
			"-0.014": 0.77674688395,
			"-0.013": 0.556535088369,
			"-0.012": 0.251883892061,
			"-0.011": 0.662069695278,
			"-0.01": 1.15703618412,
			"-0.009": 0.85124944546,
			"-0.008": 0.727016388286,
			"-0.007": 0.754808425376,
			"-0.006": 4.12331947114,
			"-0.005": 10.4887263063,
			"-0.004": 36.1944756127,
			"-0.003": 46.5464590156,
			"-0.002": 45.9216194682,
			"-0.001": 42.7043258193,
			"0.0": 33.1411187169,
			"0.001": 22.4949240204,
			"0.002": 21.1595295275,
			"0.003": 18.6762585791,
			"0.004": 18.3315777174,
			"0.005": 15.4937528659,
			"0.006": 11.2942597233,
			"0.007": 5.28815540063,
			"0.008": 4.25439024829,
			"0.009": 2.94757466962,
			"0.01": 3.46122624743,
			"0.011": 3.72403675408,
			"0.012": 1.8653140154,
			"0.013": 1.61174861234,
			"0.014": 0.838136206849,
			"0.015": 0.0409365369204,
			"0.016": 0.0,
			"0.017": 0.0,
			"0.018": 0.0,
			"0.019": 0.0,
			"0.02": 0.0,
			"0.021": 0.0,
			"0.022": 0.0,
			"0.023": 0.0,
			"0.024": 0.0,
			"0.025": 0.0
		}
	}
}
