{
	 "smiles": "CC1=CC=C(C)C(=C1)C(O)=O", 
	 "Tm": 406.15, 
	 "num_atms": 21, 
	 "gaussian": { 
		 "optdone": 1, 
		 "sigma_profile": "yes", 
		 "theory": "DFT", 
		 "functional": "B3LYP", 
		 "basiset": "6-31G**", 
		 "properties": { 
			 "R2extent": 1988.2202, 
			 "electric_dipole_moment_norm": 1.83736517328, 
			 "electric_quadrupole_moment_norm": 7.43595250926, 
			 "total_energy": -499.462888535, 
			 "HOMO_LUMO_gap": 0.19511, 
			 "cosmo_polarized_energy": -8.36, 
			 "cosmo_cavitation_energy": 24.49, 
			 "cosmo_dispersion_energy": -18.1, 
			 "cosmo_repulsion_energy": 1.45, 
			 "cosmo_total_nonelectrostatic_energy": 7.84, 
			 "SMD_solvation_energy": 5.54 
		},
		"coords": [
			{
				"x": -2.0981362901,
				"y": -1.9978743858,
				"z": -0.9186974418,
				"element": "C" 
			},
			{
				"x": -0.8088440724,
				"y": -1.2142294369,
				"z": -0.8482262918,
				"element": "C" 
			},
			{
				"x": 0.0351774918,
				"y": -1.1047695581,
				"z": -1.9614950532,
				"element": "C" 
			},
			{
				"x": 1.2213950312,
				"y": -0.3811414394,
				"z": -1.8906262864,
				"element": "C" 
			},
			{
				"x": 1.6357992368,
				"y": 0.2710639936,
				"z": -0.7194215562,
				"element": "C" 
			},
			{
				"x": 2.9429140242,
				"y": 1.0305380743,
				"z": -0.7498130393,
				"element": "C" 
			},
			{
				"x": 0.7862324053,
				"y": 0.1627859174,
				"z": 0.406809114,
				"element": "C" 
			},
			{
				"x": -0.4096056572,
				"y": -0.5717468785,
				"z": 0.3209266462,
				"element": "C" 
			},
			{
				"x": 1.0343664913,
				"y": 0.7747751703,
				"z": 1.7445136459,
				"element": "C" 
			},
			{
				"x": 2.1851197686,
				"y": 1.4880266771,
				"z": 1.8435470303,
				"element": "O" 
			},
			{
				"x": 0.2866679815,
				"y": 0.6661436059,
				"z": 2.6990219363,
				"element": "O" 
			},
			{
				"x": -2.7727947388,
				"y": -1.5884818801,
				"z": -1.679511373,
				"element": "H" 
			},
			{
				"x": -1.9142870246,
				"y": -3.0457367845,
				"z": -1.1826692012,
				"element": "H" 
			},
			{
				"x": -2.6255298864,
				"y": -1.9820454168,
				"z": 0.0385886529,
				"element": "H" 
			},
			{
				"x": -0.2379832612,
				"y": -1.5911184814,
				"z": -2.8953798329,
				"element": "H" 
			},
			{
				"x": 1.8538556654,
				"y": -0.3156136342,
				"z": -2.7719983781,
				"element": "H" 
			},
			{
				"x": 3.6536753185,
				"y": 0.645353343,
				"z": -0.0136832309,
				"element": "H" 
			},
			{
				"x": 3.3962440143,
				"y": 0.9519908631,
				"z": -1.7415427024,
				"element": "H" 
			},
			{
				"x": 2.8028484372,
				"y": 2.0895958552,
				"z": -0.5169731749,
				"element": "H" 
			},
			{
				"x": -1.0254254418,
				"y": -0.624026252,
				"z": 1.2128232249,
				"element": "H" 
			},
			{
				"x": 2.1990105065,
				"y": 1.8148106479,
				"z": 2.7588073116,
				"element": "H" 
			}
		],
		 "valence_orbital": [ 
			{
				"type": "occ",
				"energy": -0.34075,
				"method": "rhf"
			},
			{
				"type": "occ",
				"energy": -0.31339,
				"method": "rhf"
			},
			{
				"type": "occ",
				"energy": -0.27277,
				"method": "rhf"
			},
			{
				"type": "occ",
				"energy": -0.25469,
				"method": "rhf"
			},
			{
				"type": "occ",
				"energy": -0.23961,
				"method": "rhf"
			},
			{
				"type": "unocc",
				"energy": -0.0445,
				"method": "rhf"
			},
			{
				"type": "unocc",
				"energy": 0.00092,
				"method": "rhf"
			},
			{
				"type": "unocc",
				"energy": 0.05733,
				"method": "rhf"
			},
			{
				"type": "unocc",
				"energy": 0.08072,
				"method": "rhf"
			},
			{
				"type": "unocc",
				"energy": 0.10425,
				"method": "rhf"
			}
		],
		"cosmo_sigma_profile": { 
			"-0.025": 0.0,
			"-0.024": 0.0,
			"-0.023": 0.0,
			"-0.022": 0.0,
			"-0.021": 0.0,
			"-0.02": 0.0,
			"-0.019": 0.0,
			"-0.018": 0.406269095742,
			"-0.017": 0.930395945887,
			"-0.016": 1.11896127982,
			"-0.015": 0.165890973115,
			"-0.014": 0.672839374105,
			"-0.013": 0.651198456967,
			"-0.012": 0.78337202082,
			"-0.011": 1.08522902605,
			"-0.01": 0.801207599527,
			"-0.009": 0.598467533374,
			"-0.008": 0.348442595724,
			"-0.007": 0.647455873657,
			"-0.006": 3.90533552715,
			"-0.005": 9.06625748508,
			"-0.004": 15.4844441633,
			"-0.003": 15.5233955248,
			"-0.002": 18.433378132,
			"-0.001": 19.7371281371,
			"0.0": 24.5897698866,
			"0.001": 16.0244614713,
			"0.002": 12.8310236507,
			"0.003": 11.1705947304,
			"0.004": 13.2975482017,
			"0.005": 8.00477518393,
			"0.006": 3.21894654874,
			"0.007": 1.19108625221,
			"0.008": 1.75844882602,
			"0.009": 0.806891927493,
			"0.01": 2.2016495952,
			"0.011": 2.59205773359,
			"0.012": 5.14043007441,
			"0.013": 0.60484953751,
			"0.014": 0.0,
			"0.015": 0.0,
			"0.016": 0.0,
			"0.017": 0.0,
			"0.018": 0.0,
			"0.019": 0.0,
			"0.02": 0.0,
			"0.021": 0.0,
			"0.022": 0.0,
			"0.023": 0.0,
			"0.024": 0.0,
			"0.025": 0.0
		}
	}
}
