{
	 "smiles": "OC(=O)C1CCN(CC1)C1=CC=C(C=N1)C(F)(F)F", 
	 "Tm": 436.15, 
	 "num_atms": 32, 
	 "gaussian": { 
		 "optdone": 1, 
		 "sigma_profile": "yes", 
		 "theory": "DFT", 
		 "functional": "B3LYP", 
		 "basiset": "6-31G**", 
		 "properties": { 
			 "R2extent": 7518.5057, 
			 "electric_dipole_moment_norm": 5.47793729884, 
			 "electric_quadrupole_moment_norm": 8.86668468707, 
			 "total_energy": -1024.60624863, 
			 "HOMO_LUMO_gap": 0.1865, 
			 "cosmo_polarized_energy": -14.17, 
			 "cosmo_cavitation_energy": 35.94, 
			 "cosmo_dispersion_energy": -25.41, 
			 "cosmo_repulsion_energy": 1.89, 
			 "cosmo_total_nonelectrostatic_energy": 12.42, 
			 "SMD_solvation_energy": 6.65 
		},
		"coords": [
			{
				"x": -1.7632123216,
				"y": 3.9717357389,
				"z": 1.6009175322,
				"element": "O" 
			},
			{
				"x": -1.890283737,
				"y": 3.6641938834,
				"z": 0.2865781937,
				"element": "C" 
			},
			{
				"x": -1.3622044592,
				"y": 4.3256156475,
				"z": -0.5813494155,
				"element": "O" 
			},
			{
				"x": -2.8093339896,
				"y": 2.4712752213,
				"z": 0.050722992,
				"element": "C" 
			},
			{
				"x": -2.6827857277,
				"y": 1.9724870399,
				"z": -1.3976538612,
				"element": "C" 
			},
			{
				"x": -1.2876182075,
				"y": 1.3856115148,
				"z": -1.679571782,
				"element": "C" 
			},
			{
				"x": -0.7817778601,
				"y": 0.6683444425,
				"z": -0.4977466846,
				"element": "N" 
			},
			{
				"x": -1.8106167815,
				"y": 0.1493127237,
				"z": 0.3944399254,
				"element": "C" 
			},
			{
				"x": -2.5957311603,
				"y": 1.2998302255,
				"z": 1.0525582622,
				"element": "C" 
			},
			{
				"x": 0.5398556075,
				"y": 0.2918294388,
				"z": -0.4564800148,
				"element": "C" 
			},
			{
				"x": 1.1227043561,
				"y": -0.3792892687,
				"z": 0.6535649027,
				"element": "C" 
			},
			{
				"x": 2.4653290583,
				"y": -0.6953817018,
				"z": 0.6090239979,
				"element": "C" 
			},
			{
				"x": 3.2282613106,
				"y": -0.3487524261,
				"z": -0.5166330172,
				"element": "C" 
			},
			{
				"x": 2.5742636038,
				"y": 0.3149455009,
				"z": -1.5511547493,
				"element": "C" 
			},
			{
				"x": 1.2767655219,
				"y": 0.6215967224,
				"z": -1.537531103,
				"element": "N" 
			},
			{
				"x": 4.6919539615,
				"y": -0.644427715,
				"z": -0.5664012905,
				"element": "C" 
			},
			{
				"x": 4.9663292467,
				"y": -1.8911361671,
				"z": -0.1088025708,
				"element": "F" 
			},
			{
				"x": 5.4141133296,
				"y": 0.20684278,
				"z": 0.2051760877,
				"element": "F" 
			},
			{
				"x": 5.1882079162,
				"y": -0.5532944726,
				"z": -1.8202474497,
				"element": "F" 
			},
			{
				"x": -1.1936326356,
				"y": 4.7586137983,
				"z": 1.6366411579,
				"element": "H" 
			},
			{
				"x": -3.8182870768,
				"y": 2.8773109058,
				"z": 0.204676755,
				"element": "H" 
			},
			{
				"x": -3.4634195263,
				"y": 1.2234903873,
				"z": -1.5717697003,
				"element": "H" 
			},
			{
				"x": -2.8612835325,
				"y": 2.7912495301,
				"z": -2.0985629415,
				"element": "H" 
			},
			{
				"x": -0.5858047398,
				"y": 2.1852091306,
				"z": -1.9151620357,
				"element": "H" 
			},
			{
				"x": -1.3201232661,
				"y": 0.7194144653,
				"z": -2.5533743459,
				"element": "H" 
			},
			{
				"x": -1.3675262987,
				"y": -0.4884553561,
				"z": 1.1573737101,
				"element": "H" 
			},
			{
				"x": -2.4936342289,
				"y": -0.4938716167,
				"z": -0.180712729,
				"element": "H" 
			},
			{
				"x": -2.0665526167,
				"y": 1.6597688145,
				"z": 1.9373713124,
				"element": "H" 
			},
			{
				"x": -3.5638269608,
				"y": 0.9165208,
				"z": 1.3925517074,
				"element": "H" 
			},
			{
				"x": 0.5457885253,
				"y": -0.6315878072,
				"z": 1.5341401675,
				"element": "H" 
			},
			{
				"x": 2.9297517813,
				"y": -1.2112624795,
				"z": 1.4439713251,
				"element": "H" 
			},
			{
				"x": 3.1222309082,
				"y": 0.6035602993,
				"z": -2.4450543383,
				"element": "H" 
			}
		],
		 "valence_orbital": [ 
			{
				"type": "occ",
				"energy": -0.29946,
				"method": "rhf"
			},
			{
				"type": "occ",
				"energy": -0.28614,
				"method": "rhf"
			},
			{
				"type": "occ",
				"energy": -0.2783,
				"method": "rhf"
			},
			{
				"type": "occ",
				"energy": -0.25786,
				"method": "rhf"
			},
			{
				"type": "occ",
				"energy": -0.20905,
				"method": "rhf"
			},
			{
				"type": "unocc",
				"energy": -0.02255,
				"method": "rhf"
			},
			{
				"type": "unocc",
				"energy": -0.01164,
				"method": "rhf"
			},
			{
				"type": "unocc",
				"energy": 0.00328,
				"method": "rhf"
			},
			{
				"type": "unocc",
				"energy": 0.06715,
				"method": "rhf"
			},
			{
				"type": "unocc",
				"energy": 0.07412,
				"method": "rhf"
			}
		],
		"cosmo_sigma_profile": { 
			"-0.025": 0.0,
			"-0.024": 0.0,
			"-0.023": 0.0,
			"-0.022": 0.0,
			"-0.021": 0.0,
			"-0.02": 0.0,
			"-0.019": 0.0126170157177,
			"-0.018": 0.673258301723,
			"-0.017": 1.05480163189,
			"-0.016": 0.596677015938,
			"-0.015": 1.10469318234,
			"-0.014": 0.0948806802437,
			"-0.013": 0.569727319917,
			"-0.012": 1.15567926995,
			"-0.011": 0.703014869402,
			"-0.01": 0.885908302454,
			"-0.009": 1.28532394357,
			"-0.008": 3.1385423084,
			"-0.007": 6.46869911719,
			"-0.006": 9.76593028432,
			"-0.005": 13.1635092044,
			"-0.004": 24.7641802196,
			"-0.003": 24.9593659354,
			"-0.002": 21.8015602264,
			"-0.001": 18.8187195431,
			"0.0": 18.0577795881,
			"0.001": 19.1395364004,
			"0.002": 29.112383155,
			"0.003": 39.7309032707,
			"0.004": 13.5301653374,
			"0.005": 5.44710043694,
			"0.006": 4.42283163346,
			"0.007": 3.61395525981,
			"0.008": 3.9225320548,
			"0.009": 4.13851529918,
			"0.01": 2.69831571058,
			"0.011": 3.4493619881,
			"0.012": 4.89750885518,
			"0.013": 0.805582178083,
			"0.014": 0.260664448309,
			"0.015": 0.0,
			"0.016": 0.0,
			"0.017": 0.0,
			"0.018": 0.0,
			"0.019": 0.0,
			"0.02": 0.0,
			"0.021": 0.0,
			"0.022": 0.0,
			"0.023": 0.0,
			"0.024": 0.0,
			"0.025": 0.0
		}
	}
}
