{
	 "smiles": "NS(=O)(=O)C1=C(Cl)N=C2SC=CN12", 
	 "Tm": 449.15, 
	 "num_atms": 17, 
	 "gaussian": { 
		 "optdone": 1, 
		 "sigma_profile": "yes", 
		 "theory": "DFT", 
		 "functional": "B3LYP", 
		 "basiset": "6-31G**", 
		 "properties": { 
			 "R2extent": 4701.7366, 
			 "electric_dipole_moment_norm": 4.11370891654, 
			 "electric_quadrupole_moment_norm": 20.7446953506, 
			 "total_energy": -1764.10077163, 
			 "HOMO_LUMO_gap": 0.20085, 
			 "cosmo_polarized_energy": -17.05, 
			 "cosmo_cavitation_energy": 26.62, 
			 "cosmo_dispersion_energy": -21.01, 
			 "cosmo_repulsion_energy": 1.56, 
			 "cosmo_total_nonelectrostatic_energy": 7.17, 
			 "SMD_solvation_energy": 2.41 
		},
		"coords": [
			{
				"x": -1.7061473765,
				"y": -1.6295454085,
				"z": 2.591979363,
				"element": "N" 
			},
			{
				"x": -1.379034526,
				"y": -1.846120653,
				"z": 0.9588256335,
				"element": "S" 
			},
			{
				"x": -1.8019954957,
				"y": -0.649452031,
				"z": 0.2182070005,
				"element": "O" 
			},
			{
				"x": -1.8733365362,
				"y": -3.1767170913,
				"z": 0.6169570967,
				"element": "O" 
			},
			{
				"x": 0.3788743572,
				"y": -1.8287417444,
				"z": 0.894101099,
				"element": "C" 
			},
			{
				"x": 1.3521415381,
				"y": -2.6253801476,
				"z": 1.4889150242,
				"element": "C" 
			},
			{
				"x": 1.0695719062,
				"y": -3.9081252888,
				"z": 2.6025228021,
				"element": "Cl" 
			},
			{
				"x": 2.6106640977,
				"y": -2.2888688998,
				"z": 1.1129811311,
				"element": "N" 
			},
			{
				"x": 2.425279326,
				"y": -1.2859340682,
				"z": 0.2720686116,
				"element": "C" 
			},
			{
				"x": 3.4680220403,
				"y": -0.2646091852,
				"z": -0.6825597891,
				"element": "S" 
			},
			{
				"x": 2.0473407283,
				"y": 0.576229652,
				"z": -1.297647917,
				"element": "C" 
			},
			{
				"x": 0.8849940989,
				"y": 0.0992441051,
				"z": -0.8004254944,
				"element": "C" 
			},
			{
				"x": 1.1050635452,
				"y": -0.9519166063,
				"z": 0.0888108855,
				"element": "N" 
			},
			{
				"x": -2.0064838512,
				"y": -0.6785821535,
				"z": 2.7848814972,
				"element": "H" 
			},
			{
				"x": -2.3767392829,
				"y": -2.3254438419,
				"z": 2.9044610007,
				"element": "H" 
			},
			{
				"x": 2.1637102415,
				"y": 1.384593513,
				"z": -2.0038189075,
				"element": "H" 
			},
			{
				"x": -0.1249248109,
				"y": 0.4199698493,
				"z": -1.0030590372,
				"element": "H" 
			}
		],
		 "valence_orbital": [ 
			{
				"type": "occ",
				"energy": -0.31827,
				"method": "rhf"
			},
			{
				"type": "occ",
				"energy": -0.30961,
				"method": "rhf"
			},
			{
				"type": "occ",
				"energy": -0.30421,
				"method": "rhf"
			},
			{
				"type": "occ",
				"energy": -0.2521,
				"method": "rhf"
			},
			{
				"type": "occ",
				"energy": -0.24298,
				"method": "rhf"
			},
			{
				"type": "unocc",
				"energy": -0.04213,
				"method": "rhf"
			},
			{
				"type": "unocc",
				"energy": -0.01229,
				"method": "rhf"
			},
			{
				"type": "unocc",
				"energy": 0.00199,
				"method": "rhf"
			},
			{
				"type": "unocc",
				"energy": 0.02594,
				"method": "rhf"
			},
			{
				"type": "unocc",
				"energy": 0.03409,
				"method": "rhf"
			}
		],
		"cosmo_sigma_profile": { 
			"-0.025": 0.0,
			"-0.024": 0.0,
			"-0.023": 0.0,
			"-0.022": 0.0,
			"-0.021": 0.0,
			"-0.02": 0.0,
			"-0.019": 0.0,
			"-0.018": 0.0,
			"-0.017": 0.0,
			"-0.016": 0.496526276985,
			"-0.015": 2.79736339657,
			"-0.014": 2.02593913708,
			"-0.013": 2.76651635922,
			"-0.012": 2.36904889158,
			"-0.011": 3.79853006691,
			"-0.01": 3.81996336984,
			"-0.009": 5.14245297598,
			"-0.008": 4.35047477769,
			"-0.007": 4.79466801226,
			"-0.006": 6.19283845323,
			"-0.005": 5.29207794397,
			"-0.004": 10.1092454928,
			"-0.003": 13.7670373624,
			"-0.002": 15.455276817,
			"-0.001": 15.2826212843,
			"0.0": 17.9497744977,
			"0.001": 16.5228852429,
			"0.002": 15.0982527646,
			"0.003": 14.4515386598,
			"0.004": 10.0969701551,
			"0.005": 5.88051201815,
			"0.006": 5.08786804348,
			"0.007": 5.44651413721,
			"0.008": 5.64091338392,
			"0.009": 6.59477295816,
			"0.01": 10.204996531,
			"0.011": 5.63916249952,
			"0.012": 0.730832550612,
			"0.013": 0.95114732698,
			"0.014": 0.766705379897,
			"0.015": 0.0132748461199,
			"0.016": 0.0,
			"0.017": 0.0,
			"0.018": 0.0,
			"0.019": 0.0,
			"0.02": 0.0,
			"0.021": 0.0,
			"0.022": 0.0,
			"0.023": 0.0,
			"0.024": 0.0,
			"0.025": 0.0
		}
	}
}
