{
	 "smiles": "OC(=O)C1=C(O)C=C2OCOC2=C1", 
	 "Tm": 463.15, 
	 "num_atms": 19, 
	 "gaussian": { 
		 "optdone": 1, 
		 "sigma_profile": "yes", 
		 "theory": "DFT", 
		 "functional": "B3LYP", 
		 "basiset": "6-31G**", 
		 "properties": { 
			 "R2extent": 2950.4694, 
			 "electric_dipole_moment_norm": 5.12385889345, 
			 "electric_quadrupole_moment_norm": 12.2609985319, 
			 "total_energy": -684.573335187, 
			 "HOMO_LUMO_gap": 0.16223, 
			 "cosmo_polarized_energy": -15.0, 
			 "cosmo_cavitation_energy": 23.33, 
			 "cosmo_dispersion_energy": -18.45, 
			 "cosmo_repulsion_energy": 1.43, 
			 "cosmo_total_nonelectrostatic_energy": 6.31, 
			 "SMD_solvation_energy": 6.13 
		},
		"coords": [
			{
				"x": -3.2642762281,
				"y": 0.0663071652,
				"z": -2.4948639808,
				"element": "O" 
			},
			{
				"x": -2.0404288481,
				"y": 0.5399607361,
				"z": -2.8156322303,
				"element": "C" 
			},
			{
				"x": -1.93088275,
				"y": 1.1614788775,
				"z": -3.8719146929,
				"element": "O" 
			},
			{
				"x": -0.9107892128,
				"y": 0.2915995161,
				"z": -1.9088510538,
				"element": "C" 
			},
			{
				"x": 0.386146281,
				"y": 0.687046276,
				"z": -2.3446300933,
				"element": "C" 
			},
			{
				"x": 0.5929024202,
				"y": 1.2896541536,
				"z": -3.5200540577,
				"element": "O" 
			},
			{
				"x": 1.5251817391,
				"y": 0.45096027,
				"z": -1.5395033405,
				"element": "C" 
			},
			{
				"x": 1.3209582634,
				"y": -0.1537034908,
				"z": -0.3228447486,
				"element": "C" 
			},
			{
				"x": 2.2523834965,
				"y": -0.4689460823,
				"z": 0.6198032477,
				"element": "O" 
			},
			{
				"x": 1.5383958055,
				"y": -1.055986817,
				"z": 1.7208541275,
				"element": "C" 
			},
			{
				"x": 0.1501666634,
				"y": -1.0900200553,
				"z": 1.3820558154,
				"element": "O" 
			},
			{
				"x": 0.0481382852,
				"y": -0.5293914669,
				"z": 0.1291743772,
				"element": "C" 
			},
			{
				"x": -1.0695946782,
				"y": -0.3177199842,
				"z": -0.6298789191,
				"element": "C" 
			},
			{
				"x": -3.2204122385,
				"y": -0.5029658051,
				"z": -1.715575722,
				"element": "H" 
			},
			{
				"x": -0.3029106197,
				"y": 1.4086177438,
				"z": -3.9363625068,
				"element": "H" 
			},
			{
				"x": 2.5040728551,
				"y": 0.7536651468,
				"z": -1.8889261878,
				"element": "H" 
			},
			{
				"x": 1.9052593399,
				"y": -2.0759391369,
				"z": 1.8840106788,
				"element": "H" 
			},
			{
				"x": 1.6873011676,
				"y": -0.4392655682,
				"z": 2.6150979086,
				"element": "H" 
			},
			{
				"x": -2.0408117416,
				"y": -0.5910514784,
				"z": -0.2291586215,
				"element": "H" 
			}
		],
		 "valence_orbital": [ 
			{
				"type": "occ",
				"energy": -0.32552,
				"method": "rhf"
			},
			{
				"type": "occ",
				"energy": -0.30634,
				"method": "rhf"
			},
			{
				"type": "occ",
				"energy": -0.28624,
				"method": "rhf"
			},
			{
				"type": "occ",
				"energy": -0.25758,
				"method": "rhf"
			},
			{
				"type": "occ",
				"energy": -0.21455,
				"method": "rhf"
			},
			{
				"type": "unocc",
				"energy": -0.05232,
				"method": "rhf"
			},
			{
				"type": "unocc",
				"energy": -0.00306,
				"method": "rhf"
			},
			{
				"type": "unocc",
				"energy": 0.04443,
				"method": "rhf"
			},
			{
				"type": "unocc",
				"energy": 0.05596,
				"method": "rhf"
			},
			{
				"type": "unocc",
				"energy": 0.08456,
				"method": "rhf"
			}
		],
		"cosmo_sigma_profile": { 
			"-0.025": 0.0,
			"-0.024": 0.0,
			"-0.023": 0.0,
			"-0.022": 0.0,
			"-0.021": 0.0,
			"-0.02": 0.239380566816,
			"-0.019": 1.07015541149,
			"-0.018": 0.996801515293,
			"-0.017": 0.896265584041,
			"-0.016": 1.01482771825,
			"-0.015": 0.768718513278,
			"-0.014": 0.412310159162,
			"-0.013": 1.7735073044,
			"-0.012": 1.30958208197,
			"-0.011": 0.654415313865,
			"-0.01": 1.45470355789,
			"-0.009": 1.40860842017,
			"-0.008": 9.28393224328,
			"-0.007": 9.71155234606,
			"-0.006": 8.793365829,
			"-0.005": 7.00820193634,
			"-0.004": 6.40611184073,
			"-0.003": 9.21384819511,
			"-0.002": 11.5166847538,
			"-0.001": 8.67957590981,
			"0.0": 11.49633543,
			"0.001": 17.7465298068,
			"0.002": 16.8642212721,
			"0.003": 7.64767020131,
			"0.004": 6.28152160311,
			"0.005": 4.05081360047,
			"0.006": 6.88156832279,
			"0.007": 6.17986370328,
			"0.008": 7.11875192959,
			"0.009": 7.06077039762,
			"0.01": 6.09555426244,
			"0.011": 4.42184954486,
			"0.012": 2.33334579147,
			"0.013": 0.868555926436,
			"0.014": 0.0,
			"0.015": 0.0,
			"0.016": 0.0,
			"0.017": 0.0,
			"0.018": 0.0,
			"0.019": 0.0,
			"0.02": 0.0,
			"0.021": 0.0,
			"0.022": 0.0,
			"0.023": 0.0,
			"0.024": 0.0,
			"0.025": 0.0
		}
	}
}
