{
	 "smiles": "CSC1=C(C#N)C(N)=NC2=C(N=NC3=CC=C(C=C3)C(O)=O)C(N)=NN12", 
	 "Tm": 579.15, 
	 "num_atms": 38, 
	 "gaussian": { 
		 "optdone": 1, 
		 "sigma_profile": "yes", 
		 "theory": "DFT", 
		 "functional": "B3LYP", 
		 "basiset": "6-31G**", 
		 "properties": { 
			 "R2extent": 16240.2291, 
			 "electric_dipole_moment_norm": 5.74253929373, 
			 "electric_quadrupole_moment_norm": 50.4905435126, 
			 "total_energy": -1565.42430897, 
			 "HOMO_LUMO_gap": 0.12656, 
			 "cosmo_polarized_energy": -30.01, 
			 "cosmo_cavitation_energy": 47.06, 
			 "cosmo_dispersion_energy": -33.95, 
			 "cosmo_repulsion_energy": 2.52, 
			 "cosmo_total_nonelectrostatic_energy": 15.64, 
			 "SMD_solvation_energy": 7.13 
		},
		"coords": [
			{
				"x": 2.4766571843,
				"y": -0.1308630941,
				"z": 4.5246919303,
				"element": "C" 
			},
			{
				"x": 3.5322556395,
				"y": -1.0823792487,
				"z": 3.363868052,
				"element": "S" 
			},
			{
				"x": 2.9638799308,
				"y": -0.5843187911,
				"z": 1.7709682423,
				"element": "C" 
			},
			{
				"x": 3.8726135082,
				"y": -0.2459360644,
				"z": 0.7624988097,
				"element": "C" 
			},
			{
				"x": 5.2722630097,
				"y": -0.1666346498,
				"z": 0.9973840552,
				"element": "C" 
			},
			{
				"x": 6.432069851,
				"y": -0.068573524,
				"z": 1.0622424227,
				"element": "N" 
			},
			{
				"x": 3.3740291863,
				"y": 0.056199934,
				"z": -0.5593268216,
				"element": "C" 
			},
			{
				"x": 4.2337908276,
				"y": 0.3749355261,
				"z": -1.551526021,
				"element": "N" 
			},
			{
				"x": 2.0744795162,
				"y": 0.0467747796,
				"z": -0.8477517882,
				"element": "N" 
			},
			{
				"x": 1.2305713877,
				"y": -0.2722034282,
				"z": 0.1299853762,
				"element": "C" 
			},
			{
				"x": -0.1705484899,
				"y": -0.4132677197,
				"z": 0.1539559812,
				"element": "C" 
			},
			{
				"x": -0.9768133817,
				"y": -0.2055311323,
				"z": -0.9217598155,
				"element": "N" 
			},
			{
				"x": -2.2259694622,
				"y": -0.4050107195,
				"z": -0.726244663,
				"element": "N" 
			},
			{
				"x": -3.0293929559,
				"y": -0.1793212064,
				"z": -1.8652997108,
				"element": "C" 
			},
			{
				"x": -2.5426501732,
				"y": 0.2507272823,
				"z": -3.1155179795,
				"element": "C" 
			},
			{
				"x": -3.4205345169,
				"y": 0.4466101546,
				"z": -4.1694675431,
				"element": "C" 
			},
			{
				"x": -4.7972250024,
				"y": 0.2043835929,
				"z": -4.017896134,
				"element": "C" 
			},
			{
				"x": -5.2804664035,
				"y": -0.2095565355,
				"z": -2.7679219763,
				"element": "C" 
			},
			{
				"x": -4.4056637434,
				"y": -0.3980024222,
				"z": -1.7030870441,
				"element": "C" 
			},
			{
				"x": -5.68134087,
				"y": 0.4414776176,
				"z": -5.2013535628,
				"element": "C" 
			},
			{
				"x": -6.9053797609,
				"y": -0.1561297344,
				"z": -5.1826664618,
				"element": "O" 
			},
			{
				"x": -5.3602298089,
				"y": 1.1227059345,
				"z": -6.1474768613,
				"element": "O" 
			},
			{
				"x": -0.4753702961,
				"y": -0.8334934485,
				"z": 1.5031920307,
				"element": "C" 
			},
			{
				"x": -1.7175988206,
				"y": -1.0750321527,
				"z": 1.9635005537,
				"element": "N" 
			},
			{
				"x": 0.6111034267,
				"y": -0.9529152613,
				"z": 2.2682638365,
				"element": "N" 
			},
			{
				"x": 1.6529455772,
				"y": -0.5963748975,
				"z": 1.4321762964,
				"element": "N" 
			},
			{
				"x": 2.6608132064,
				"y": 0.9386193216,
				"z": 4.4137834101,
				"element": "H" 
			},
			{
				"x": 1.4282734902,
				"y": -0.3721669931,
				"z": 4.3627828015,
				"element": "H" 
			},
			{
				"x": 2.8037702704,
				"y": -0.4533666149,
				"z": 5.5154661887,
				"element": "H" 
			},
			{
				"x": 5.2283145404,
				"y": 0.4147318856,
				"z": -1.3962587481,
				"element": "H" 
			},
			{
				"x": 3.8513998884,
				"y": 0.6083193651,
				"z": -2.4539548944,
				"element": "H" 
			},
			{
				"x": -1.4791963129,
				"y": 0.4249356584,
				"z": -3.2286433615,
				"element": "H" 
			},
			{
				"x": -3.0649605087,
				"y": 0.7890682493,
				"z": -5.1355119736,
				"element": "H" 
			},
			{
				"x": -6.34575985,
				"y": -0.3493480617,
				"z": -2.599449181,
				"element": "H" 
			},
			{
				"x": -4.7716725452,
				"y": -0.7083916321,
				"z": -0.7295533135,
				"element": "H" 
			},
			{
				"x": -6.9515512606,
				"y": -0.7945450282,
				"z": -4.4578741818,
				"element": "H" 
			},
			{
				"x": -2.4618416298,
				"y": -1.0342878749,
				"z": 1.2779114899,
				"element": "H" 
			},
			{
				"x": -1.8449646487,
				"y": -1.4747390668,
				"z": 2.87917056,
				"element": "H" 
			}
		],
		 "valence_orbital": [ 
			{
				"type": "occ",
				"energy": -0.26562,
				"method": "rhf"
			},
			{
				"type": "occ",
				"energy": -0.25988,
				"method": "rhf"
			},
			{
				"type": "occ",
				"energy": -0.23835,
				"method": "rhf"
			},
			{
				"type": "occ",
				"energy": -0.23024,
				"method": "rhf"
			},
			{
				"type": "occ",
				"energy": -0.21673,
				"method": "rhf"
			},
			{
				"type": "unocc",
				"energy": -0.09017,
				"method": "rhf"
			},
			{
				"type": "unocc",
				"energy": -0.07483,
				"method": "rhf"
			},
			{
				"type": "unocc",
				"energy": -0.03245,
				"method": "rhf"
			},
			{
				"type": "unocc",
				"energy": -0.01728,
				"method": "rhf"
			},
			{
				"type": "unocc",
				"energy": -0.01251,
				"method": "rhf"
			}
		],
		"cosmo_sigma_profile": { 
			"-0.025": 0.0,
			"-0.024": 0.0,
			"-0.023": 0.0,
			"-0.022": 0.0,
			"-0.021": 0.0,
			"-0.02": 0.0,
			"-0.019": 0.240419639058,
			"-0.018": 0.796837369673,
			"-0.017": 1.32821973618,
			"-0.016": 0.678386655709,
			"-0.015": 2.53242396176,
			"-0.014": 3.77706740077,
			"-0.013": 4.04503106614,
			"-0.012": 4.66102745682,
			"-0.011": 4.66383469065,
			"-0.01": 4.39576361398,
			"-0.009": 4.86115998042,
			"-0.008": 7.1125860343,
			"-0.007": 11.3043084587,
			"-0.006": 16.2298097108,
			"-0.005": 18.6798217612,
			"-0.004": 20.6144297119,
			"-0.003": 24.9091987818,
			"-0.002": 22.8599143708,
			"-0.001": 20.3619556283,
			"0.0": 21.6006649226,
			"0.001": 26.234237426,
			"0.002": 35.5941716977,
			"0.003": 28.03757379,
			"0.004": 14.9320726628,
			"0.005": 11.65580386,
			"0.006": 10.7065895545,
			"0.007": 8.21570713988,
			"0.008": 9.4200774123,
			"0.009": 8.56723232791,
			"0.01": 9.45074148186,
			"0.011": 9.93748633625,
			"0.012": 8.98095054438,
			"0.013": 3.34984412478,
			"0.014": 0.610409334994,
			"0.015": 0.0,
			"0.016": 0.0,
			"0.017": 0.0,
			"0.018": 0.0,
			"0.019": 0.0,
			"0.02": 0.0,
			"0.021": 0.0,
			"0.022": 0.0,
			"0.023": 0.0,
			"0.024": 0.0,
			"0.025": 0.0
		}
	}
}
