{
	 "smiles": "OC(=O)C=CC1=NC2=C(C=CC=C2)C=C1", 
	 "Tm": 443.15, 
	 "num_atms": 24, 
	 "gaussian": { 
		 "optdone": 1, 
		 "sigma_profile": "yes", 
		 "theory": "DFT", 
		 "functional": "B3LYP", 
		 "basiset": "6-31G**", 
		 "properties": { 
			 "R2extent": 4295.1993, 
			 "electric_dipole_moment_norm": 0.97265904098, 
			 "electric_quadrupole_moment_norm": 12.3052908088, 
			 "total_energy": -667.905643355, 
			 "HOMO_LUMO_gap": 0.15128, 
			 "cosmo_polarized_energy": -10.42, 
			 "cosmo_cavitation_energy": 28.98, 
			 "cosmo_dispersion_energy": -21.58, 
			 "cosmo_repulsion_energy": 1.66, 
			 "cosmo_total_nonelectrostatic_energy": 9.06, 
			 "SMD_solvation_energy": 4.68 
		},
		"coords": [
			{
				"x": 4.7495864445,
				"y": 2.9017391483,
				"z": 1.1072919054,
				"element": "O" 
			},
			{
				"x": 3.7045993592,
				"y": 2.0592041561,
				"z": 0.8899680746,
				"element": "C" 
			},
			{
				"x": 3.8197615393,
				"y": 0.8595282269,
				"z": 1.0760110326,
				"element": "O" 
			},
			{
				"x": 2.5329746098,
				"y": 2.8283710513,
				"z": 0.4312909216,
				"element": "C" 
			},
			{
				"x": 1.2835903589,
				"y": 2.43416903,
				"z": 0.0939762863,
				"element": "C" 
			},
			{
				"x": 0.5564089884,
				"y": 1.1556224925,
				"z": 0.0292395118,
				"element": "C" 
			},
			{
				"x": -0.7039235016,
				"y": 1.3166492387,
				"z": -0.3816128544,
				"element": "N" 
			},
			{
				"x": -1.5053158337,
				"y": 0.2272868202,
				"z": -0.49318051,
				"element": "C" 
			},
			{
				"x": -1.051763857,
				"y": -1.0965251652,
				"z": -0.1862089755,
				"element": "C" 
			},
			{
				"x": -1.9486923951,
				"y": -2.186644288,
				"z": -0.3272717229,
				"element": "C" 
			},
			{
				"x": -3.2406855557,
				"y": -1.9743209159,
				"z": -0.7545558016,
				"element": "C" 
			},
			{
				"x": -3.6919033704,
				"y": -0.6640819642,
				"z": -1.0591286688,
				"element": "C" 
			},
			{
				"x": -2.8460434114,
				"y": 0.4133705117,
				"z": -0.9322403926,
				"element": "C" 
			},
			{
				"x": 0.2908036727,
				"y": -1.2309165659,
				"z": 0.2468294169,
				"element": "C" 
			},
			{
				"x": 1.0957980311,
				"y": -0.1236893276,
				"z": 0.3571607878,
				"element": "C" 
			},
			{
				"x": 5.4840523527,
				"y": 2.3399268218,
				"z": 1.4047780985,
				"element": "H" 
			},
			{
				"x": 2.7360280633,
				"y": 3.8924870164,
				"z": 0.3607410636,
				"element": "H" 
			},
			{
				"x": 0.6205832509,
				"y": 3.2405661228,
				"z": -0.2123885584,
				"element": "H" 
			},
			{
				"x": -1.6000274051,
				"y": -3.1892528004,
				"z": -0.093161877,
				"element": "H" 
			},
			{
				"x": -3.9227064002,
				"y": -2.8129072753,
				"z": -0.8606178874,
				"element": "H" 
			},
			{
				"x": -4.7142893633,
				"y": -0.5165779463,
				"z": -1.3946803107,
				"element": "H" 
			},
			{
				"x": -3.1656884957,
				"y": 1.4253423332,
				"z": -1.1585117783,
				"element": "H" 
			},
			{
				"x": 0.6767741104,
				"y": -2.2177665237,
				"z": 0.4904832833,
				"element": "H" 
			},
			{
				"x": 2.123778808,
				"y": -0.1962801975,
				"z": 0.6847889552,
				"element": "H" 
			}
		],
		 "valence_orbital": [ 
			{
				"type": "occ",
				"energy": -0.29371,
				"method": "rhf"
			},
			{
				"type": "occ",
				"energy": -0.27737,
				"method": "rhf"
			},
			{
				"type": "occ",
				"energy": -0.25901,
				"method": "rhf"
			},
			{
				"type": "occ",
				"energy": -0.24394,
				"method": "rhf"
			},
			{
				"type": "occ",
				"energy": -0.2322,
				"method": "rhf"
			},
			{
				"type": "unocc",
				"energy": -0.08092,
				"method": "rhf"
			},
			{
				"type": "unocc",
				"energy": -0.04105,
				"method": "rhf"
			},
			{
				"type": "unocc",
				"energy": -0.00112,
				"method": "rhf"
			},
			{
				"type": "unocc",
				"energy": 0.02083,
				"method": "rhf"
			},
			{
				"type": "unocc",
				"energy": 0.07308,
				"method": "rhf"
			}
		],
		"cosmo_sigma_profile": { 
			"-0.025": 0.0,
			"-0.024": 0.0,
			"-0.023": 0.0,
			"-0.022": 0.0,
			"-0.021": 0.0,
			"-0.02": 0.0,
			"-0.019": 0.00808111872346,
			"-0.018": 0.614285079611,
			"-0.017": 1.09929344039,
			"-0.016": 0.554122211512,
			"-0.015": 0.907725553018,
			"-0.014": 0.538734387382,
			"-0.013": 0.868396251143,
			"-0.012": 0.582864777351,
			"-0.011": 1.01004166432,
			"-0.01": 0.616768112354,
			"-0.009": 0.470482412293,
			"-0.008": 0.570710724389,
			"-0.007": 7.86582965524,
			"-0.006": 14.878693288,
			"-0.005": 13.8409307601,
			"-0.004": 12.9706192136,
			"-0.003": 12.2647831616,
			"-0.002": 12.0476141767,
			"-0.001": 13.9137570082,
			"0.0": 21.2884167716,
			"0.001": 25.1413887603,
			"0.002": 27.167780785,
			"0.003": 20.2395517785,
			"0.004": 13.3819136316,
			"0.005": 4.96649493479,
			"0.006": 3.34178364781,
			"0.007": 4.9424830618,
			"0.008": 4.52676555416,
			"0.009": 3.86293097456,
			"0.01": 3.24401370058,
			"0.011": 2.81086442547,
			"0.012": 1.86118856358,
			"0.013": 0.857541858332,
			"0.014": 0.194038936835,
			"0.015": 0.0,
			"0.016": 0.0,
			"0.017": 0.0,
			"0.018": 0.0,
			"0.019": 0.0,
			"0.02": 0.0,
			"0.021": 0.0,
			"0.022": 0.0,
			"0.023": 0.0,
			"0.024": 0.0,
			"0.025": 0.0
		}
	}
}
