{
	 "smiles": "CC1=CC=C(C=C1)N=NC1=CC=CC=C1SC#N", 
	 "Tm": 372.0, 
	 "num_atms": 29, 
	 "gaussian": { 
		 "optdone": 1, 
		 "sigma_profile": "yes", 
		 "theory": "DFT", 
		 "functional": "B3LYP", 
		 "basiset": "6-31G**", 
		 "properties": { 
			 "R2extent": 6522.8571, 
			 "electric_dipole_moment_norm": 3.56221116303, 
			 "electric_quadrupole_moment_norm": 27.126071452, 
			 "total_energy": -1102.49165107, 
			 "HOMO_LUMO_gap": 0.13371, 
			 "cosmo_polarized_energy": -10.67, 
			 "cosmo_cavitation_energy": 36.74, 
			 "cosmo_dispersion_energy": -25.92, 
			 "cosmo_repulsion_energy": 1.95, 
			 "cosmo_total_nonelectrostatic_energy": 12.76, 
			 "SMD_solvation_energy": 6.69 
		},
		"coords": [
			{
				"x": 3.7260296653,
				"y": 0.7586611854,
				"z": 4.3454241033,
				"element": "C" 
			},
			{
				"x": 2.8379466375,
				"y": 0.4593864465,
				"z": 3.1630636856,
				"element": "C" 
			},
			{
				"x": 1.5444386988,
				"y": 1.0121692594,
				"z": 3.0866274938,
				"element": "C" 
			},
			{
				"x": 0.7098901871,
				"y": 0.7569357318,
				"z": 2.0093798578,
				"element": "C" 
			},
			{
				"x": 1.1630846115,
				"y": -0.0711204278,
				"z": 0.9637451787,
				"element": "C" 
			},
			{
				"x": 2.4545299139,
				"y": -0.6119347118,
				"z": 1.0180171799,
				"element": "C" 
			},
			{
				"x": 3.2770343992,
				"y": -0.3556287047,
				"z": 2.1120968286,
				"element": "C" 
			},
			{
				"x": 0.4140507265,
				"y": -0.3939044945,
				"z": -0.1868346514,
				"element": "N" 
			},
			{
				"x": -0.8053501122,
				"y": -0.0743532109,
				"z": -0.1371206825,
				"element": "N" 
			},
			{
				"x": -1.5357700983,
				"y": -0.3519129053,
				"z": -1.31663579,
				"element": "C" 
			},
			{
				"x": -0.9540984253,
				"y": -0.7925373373,
				"z": -2.5167725536,
				"element": "C" 
			},
			{
				"x": -1.7388780063,
				"y": -1.0388503919,
				"z": -3.6373604035,
				"element": "C" 
			},
			{
				"x": -3.1215994035,
				"y": -0.8393489562,
				"z": -3.5855831829,
				"element": "C" 
			},
			{
				"x": -3.715047276,
				"y": -0.3824306218,
				"z": -2.4084954579,
				"element": "C" 
			},
			{
				"x": -2.9293015992,
				"y": -0.138901924,
				"z": -1.2792364101,
				"element": "C" 
			},
			{
				"x": -3.8082432383,
				"y": 0.3027185188,
				"z": 0.2343416786,
				"element": "S" 
			},
			{
				"x": -3.0525203214,
				"y": 1.7499198127,
				"z": 0.7188361108,
				"element": "C" 
			},
			{
				"x": -2.6050160035,
				"y": 2.743161352,
				"z": 1.1359976874,
				"element": "N" 
			},
			{
				"x": 3.95511014,
				"y": 1.8291474567,
				"z": 4.4065083518,
				"element": "H" 
			},
			{
				"x": 4.6732752246,
				"y": 0.2164997032,
				"z": 4.2845581372,
				"element": "H" 
			},
			{
				"x": 3.2382248073,
				"y": 0.4828733115,
				"z": 5.2872827266,
				"element": "H" 
			},
			{
				"x": 1.1959252311,
				"y": 1.6590789694,
				"z": 3.8880359502,
				"element": "H" 
			},
			{
				"x": -0.2776924515,
				"y": 1.2002139493,
				"z": 1.9471729489,
				"element": "H" 
			},
			{
				"x": 2.7875228294,
				"y": -1.2367153226,
				"z": 0.195204674,
				"element": "H" 
			},
			{
				"x": 4.2735714726,
				"y": -0.7872745623,
				"z": 2.1495202355,
				"element": "H" 
			},
			{
				"x": 0.1203970902,
				"y": -0.9351554376,
				"z": -2.533286097,
				"element": "H" 
			},
			{
				"x": -1.2732997533,
				"y": -1.3811413205,
				"z": -4.5568491872,
				"element": "H" 
			},
			{
				"x": -3.7361409701,
				"y": -1.0225855083,
				"z": -4.461583864,
				"element": "H" 
			},
			{
				"x": -4.7847739761,
				"y": -0.2062698591,
				"z": -2.3647545485,
				"element": "H" 
			}
		],
		 "valence_orbital": [ 
			{
				"type": "occ",
				"energy": -0.27857,
				"method": "rhf"
			},
			{
				"type": "occ",
				"energy": -0.2581,
				"method": "rhf"
			},
			{
				"type": "occ",
				"energy": -0.25317,
				"method": "rhf"
			},
			{
				"type": "occ",
				"energy": -0.23768,
				"method": "rhf"
			},
			{
				"type": "occ",
				"energy": -0.22698,
				"method": "rhf"
			},
			{
				"type": "unocc",
				"energy": -0.09327,
				"method": "rhf"
			},
			{
				"type": "unocc",
				"energy": -0.0314,
				"method": "rhf"
			},
			{
				"type": "unocc",
				"energy": -0.01781,
				"method": "rhf"
			},
			{
				"type": "unocc",
				"energy": -0.00726,
				"method": "rhf"
			},
			{
				"type": "unocc",
				"energy": -0.00376,
				"method": "rhf"
			}
		],
		"cosmo_sigma_profile": { 
			"-0.025": 0.0,
			"-0.024": 0.0,
			"-0.023": 0.0,
			"-0.022": 0.0,
			"-0.021": 0.0,
			"-0.02": 0.0,
			"-0.019": 0.0,
			"-0.018": 0.0,
			"-0.017": 0.0,
			"-0.016": 0.0,
			"-0.015": 0.0,
			"-0.014": 0.0,
			"-0.013": 0.0,
			"-0.012": 0.0,
			"-0.011": 0.0,
			"-0.01": 0.0,
			"-0.009": 0.0217863537982,
			"-0.008": 1.74345608151,
			"-0.007": 6.60106778213,
			"-0.006": 14.6390504084,
			"-0.005": 20.9593448861,
			"-0.004": 22.1051266095,
			"-0.003": 19.5627778672,
			"-0.002": 21.8665779586,
			"-0.001": 26.3133146686,
			"0.0": 31.0527342228,
			"0.001": 30.5415530874,
			"0.002": 31.1721058174,
			"0.003": 24.2941486731,
			"0.004": 17.5515963409,
			"0.005": 6.58852758922,
			"0.006": 5.51063790148,
			"0.007": 4.57567806178,
			"0.008": 3.2459752175,
			"0.009": 2.58672235442,
			"0.01": 2.5086084966,
			"0.011": 2.51347652464,
			"0.012": 2.05014770739,
			"0.013": 0.560368687776,
			"0.014": 0.0,
			"0.015": 0.0,
			"0.016": 0.0,
			"0.017": 0.0,
			"0.018": 0.0,
			"0.019": 0.0,
			"0.02": 0.0,
			"0.021": 0.0,
			"0.022": 0.0,
			"0.023": 0.0,
			"0.024": 0.0,
			"0.025": 0.0
		}
	}
}
