{
	 "smiles": "OC(=O)C1=CC2=C(C=C1)C(=O)N(C1CC1)C2=O", 
	 "Tm": 494.15, 
	 "num_atms": 26, 
	 "gaussian": { 
		 "optdone": 1, 
		 "sigma_profile": "yes", 
		 "theory": "DFT", 
		 "functional": "B3LYP", 
		 "basiset": "6-31G**", 
		 "properties": { 
			 "R2extent": 5631.6156, 
			 "electric_dipole_moment_norm": 2.26913984805, 
			 "electric_quadrupole_moment_norm": 23.142698535, 
			 "total_energy": -818.361256145, 
			 "HOMO_LUMO_gap": 0.17347, 
			 "cosmo_polarized_energy": -15.82, 
			 "cosmo_cavitation_energy": 31.76, 
			 "cosmo_dispersion_energy": -22.73, 
			 "cosmo_repulsion_energy": 1.75, 
			 "cosmo_total_nonelectrostatic_energy": 10.78, 
			 "SMD_solvation_energy": 7.36 
		},
		"coords": [
			{
				"x": -4.2620138498,
				"y": -1.1988802987,
				"z": 4.4333678306,
				"element": "O" 
			},
			{
				"x": -3.0665059302,
				"y": -0.573813987,
				"z": 4.3110219532,
				"element": "C" 
			},
			{
				"x": -2.5499347287,
				"y": 0.0306911018,
				"z": 5.2280235889,
				"element": "O" 
			},
			{
				"x": -2.4725137373,
				"y": -0.7115809213,
				"z": 2.9498457953,
				"element": "C" 
			},
			{
				"x": -1.2297921274,
				"y": -0.095112467,
				"z": 2.7206887574,
				"element": "C" 
			},
			{
				"x": -0.6779676028,
				"y": -0.2224766229,
				"z": 1.4575943042,
				"element": "C" 
			},
			{
				"x": -1.3260897375,
				"y": -0.9341085567,
				"z": 0.4462680693,
				"element": "C" 
			},
			{
				"x": -2.5527251868,
				"y": -1.5467804392,
				"z": 0.6579943744,
				"element": "C" 
			},
			{
				"x": -3.1235539175,
				"y": -1.4275476428,
				"z": 1.9296944149,
				"element": "C" 
			},
			{
				"x": -0.4806230628,
				"y": -0.879875785,
				"z": -0.7860756864,
				"element": "C" 
			},
			{
				"x": -0.7099951198,
				"y": -1.3561325844,
				"z": -1.8782607501,
				"element": "O" 
			},
			{
				"x": 0.667285056,
				"y": -0.1460628859,
				"z": -0.4255302254,
				"element": "N" 
			},
			{
				"x": 1.7204301593,
				"y": 0.1963553933,
				"z": -1.3417114697,
				"element": "C" 
			},
			{
				"x": 3.1415558113,
				"y": -0.1449740184,
				"z": -0.9738976927,
				"element": "C" 
			},
			{
				"x": 2.4427519091,
				"y": -0.9120018946,
				"z": -2.0639486942,
				"element": "C" 
			},
			{
				"x": 0.6052365373,
				"y": 0.3126041509,
				"z": 0.9094757231,
				"element": "C" 
			},
			{
				"x": 1.4382422765,
				"y": 0.9980023515,
				"z": 1.4628765104,
				"element": "O" 
			},
			{
				"x": -4.5521487724,
				"y": -1.0453418775,
				"z": 5.3476962149,
				"element": "H" 
			},
			{
				"x": -0.7387303708,
				"y": 0.4551180463,
				"z": 3.5156037226,
				"element": "H" 
			},
			{
				"x": -3.0463829831,
				"y": -2.0957175102,
				"z": -0.1370890579,
				"element": "H" 
			},
			{
				"x": -4.0809829812,
				"y": -1.8890015369,
				"z": 2.1419608441,
				"element": "H" 
			},
			{
				"x": 1.5476315386,
				"y": 1.1233996135,
				"z": -1.8829548256,
				"element": "H" 
			},
			{
				"x": 3.9069348634,
				"y": 0.576388701,
				"z": -1.240192991,
				"element": "H" 
			},
			{
				"x": 3.3030556007,
				"y": -0.6376756877,
				"z": -0.0217237369,
				"element": "H" 
			},
			{
				"x": 2.1274515974,
				"y": -1.9282084212,
				"z": -1.8555290644,
				"element": "H" 
			},
			{
				"x": 2.7157847584,
				"y": -0.7311662206,
				"z": -3.098297909,
				"element": "H" 
			}
		],
		 "valence_orbital": [ 
			{
				"type": "occ",
				"energy": -0.29176,
				"method": "rhf"
			},
			{
				"type": "occ",
				"energy": -0.28843,
				"method": "rhf"
			},
			{
				"type": "occ",
				"energy": -0.28525,
				"method": "rhf"
			},
			{
				"type": "occ",
				"energy": -0.26969,
				"method": "rhf"
			},
			{
				"type": "occ",
				"energy": -0.26859,
				"method": "rhf"
			},
			{
				"type": "unocc",
				"energy": -0.09512,
				"method": "rhf"
			},
			{
				"type": "unocc",
				"energy": -0.05746,
				"method": "rhf"
			},
			{
				"type": "unocc",
				"energy": -0.01509,
				"method": "rhf"
			},
			{
				"type": "unocc",
				"energy": 0.06264,
				"method": "rhf"
			},
			{
				"type": "unocc",
				"energy": 0.06601,
				"method": "rhf"
			}
		],
		"cosmo_sigma_profile": { 
			"-0.025": 0.0,
			"-0.024": 0.0,
			"-0.023": 0.0,
			"-0.022": 0.0,
			"-0.021": 0.0,
			"-0.02": 0.0,
			"-0.019": 0.407365811125,
			"-0.018": 0.870843494288,
			"-0.017": 0.880342883052,
			"-0.016": 1.16274078128,
			"-0.015": 0.519703204662,
			"-0.014": 0.34528038121,
			"-0.013": 0.700687498722,
			"-0.012": 0.769432644862,
			"-0.011": 1.1980674753,
			"-0.01": 0.313223175087,
			"-0.009": 0.501060639228,
			"-0.008": 3.22771581603,
			"-0.007": 7.60035404728,
			"-0.006": 13.7191786324,
			"-0.005": 20.6286753801,
			"-0.004": 20.3679540238,
			"-0.003": 17.9320827109,
			"-0.002": 20.7558839183,
			"-0.001": 26.4552392069,
			"0.0": 23.4244142591,
			"0.001": 12.6989619156,
			"0.002": 8.64043361515,
			"0.003": 7.78495764044,
			"0.004": 6.9971875363,
			"0.005": 6.48826648901,
			"0.006": 6.55178934042,
			"0.007": 5.02529690733,
			"0.008": 5.44827318252,
			"0.009": 5.43187981167,
			"0.01": 9.51961410007,
			"0.011": 14.8755496873,
			"0.012": 3.33007535444,
			"0.013": 0.0,
			"0.014": 0.0,
			"0.015": 0.0,
			"0.016": 0.0,
			"0.017": 0.0,
			"0.018": 0.0,
			"0.019": 0.0,
			"0.02": 0.0,
			"0.021": 0.0,
			"0.022": 0.0,
			"0.023": 0.0,
			"0.024": 0.0,
			"0.025": 0.0
		}
	}
}
