{
	 "smiles": "CC1=NC(N)=C(Br)C=N1", 
	 "Tm": 383.15, 
	 "num_atms": 15, 
	 "gaussian": { 
		 "optdone": 1, 
		 "sigma_profile": "yes", 
		 "theory": "DFT", 
		 "functional": "B3LYP", 
		 "basiset": "6-31G**", 
		 "properties": { 
			 "R2extent": 2269.2195, 
			 "electric_dipole_moment_norm": 2.38104280936, 
			 "electric_quadrupole_moment_norm": 4.24298498701, 
			 "total_energy": -2929.82317278, 
			 "HOMO_LUMO_gap": 0.20508, 
			 "cosmo_polarized_energy": -8.91, 
			 "cosmo_cavitation_energy": 21.35, 
			 "cosmo_dispersion_energy": -16.66, 
			 "cosmo_repulsion_energy": 1.38, 
			 "cosmo_total_nonelectrostatic_energy": 6.07, 
			 "SMD_solvation_energy": -0.03 
		},
		"coords": [
			{
				"x": 1.2080893646,
				"y": 2.2339315246,
				"z": -1.8783430937,
				"element": "C" 
			},
			{
				"x": 0.6735257938,
				"y": 0.9616963675,
				"z": -1.2763204701,
				"element": "C" 
			},
			{
				"x": 1.2795968972,
				"y": 0.5256489742,
				"z": -0.1642548275,
				"element": "N" 
			},
			{
				"x": 0.8239833576,
				"y": -0.6021479242,
				"z": 0.4043033238,
				"element": "C" 
			},
			{
				"x": 1.4294679852,
				"y": -1.0163092097,
				"z": 1.5446279453,
				"element": "N" 
			},
			{
				"x": -0.261067656,
				"y": -1.2922990789,
				"z": -0.1847616118,
				"element": "C" 
			},
			{
				"x": -0.9352292216,
				"y": -2.9077481882,
				"z": 0.5779657379,
				"element": "Br" 
			},
			{
				"x": -0.8122966918,
				"y": -0.7591222854,
				"z": -1.3331824897,
				"element": "C" 
			},
			{
				"x": -0.3590337107,
				"y": 0.3719827523,
				"z": -1.8958608147,
				"element": "N" 
			},
			{
				"x": 2.2786213361,
				"y": 2.1369307851,
				"z": -2.0844346332,
				"element": "H" 
			},
			{
				"x": 0.6760429288,
				"y": 2.4662379954,
				"z": -2.8010863488,
				"element": "H" 
			},
			{
				"x": 1.0917661829,
				"y": 3.0640929127,
				"z": -1.1736261744,
				"element": "H" 
			},
			{
				"x": 1.2253213902,
				"y": -1.9248797876,
				"z": 1.9271235997,
				"element": "H" 
			},
			{
				"x": 2.2659465674,
				"y": -0.5304450137,
				"z": 1.825966933,
				"element": "H" 
			},
			{
				"x": -1.6471345237,
				"y": -1.256469824,
				"z": -1.8219170758,
				"element": "H" 
			}
		],
		 "valence_orbital": [ 
			{
				"type": "occ",
				"energy": -0.3085,
				"method": "rhf"
			},
			{
				"type": "occ",
				"energy": -0.30085,
				"method": "rhf"
			},
			{
				"type": "occ",
				"energy": -0.27578,
				"method": "rhf"
			},
			{
				"type": "occ",
				"energy": -0.24814,
				"method": "rhf"
			},
			{
				"type": "occ",
				"energy": -0.23453,
				"method": "rhf"
			},
			{
				"type": "unocc",
				"energy": -0.02945,
				"method": "rhf"
			},
			{
				"type": "unocc",
				"energy": -0.00839,
				"method": "rhf"
			},
			{
				"type": "unocc",
				"energy": 0.00049,
				"method": "rhf"
			},
			{
				"type": "unocc",
				"energy": 0.08227,
				"method": "rhf"
			},
			{
				"type": "unocc",
				"energy": 0.12729,
				"method": "rhf"
			}
		],
		"cosmo_sigma_profile": { 
			"-0.025": 0.0,
			"-0.024": 0.0,
			"-0.023": 0.0,
			"-0.022": 0.0,
			"-0.021": 0.0,
			"-0.02": 0.0,
			"-0.019": 0.0,
			"-0.018": 0.0,
			"-0.017": 0.0,
			"-0.016": 0.0,
			"-0.015": 0.0598829186718,
			"-0.014": 1.40478822403,
			"-0.013": 1.58092907539,
			"-0.012": 2.23507651987,
			"-0.011": 1.43482546159,
			"-0.01": 2.22062707064,
			"-0.009": 2.16579460657,
			"-0.008": 2.13184982595,
			"-0.007": 3.4901443655,
			"-0.006": 3.21917409008,
			"-0.005": 7.13451508929,
			"-0.004": 10.1730311406,
			"-0.003": 9.00076992151,
			"-0.002": 12.718588492,
			"-0.001": 20.0319802281,
			"0.0": 20.1558209272,
			"0.001": 16.5527623431,
			"0.002": 10.4923477962,
			"0.003": 11.9953028524,
			"0.004": 10.9913663009,
			"0.005": 4.40013717377,
			"0.006": 2.94813800369,
			"0.007": 3.40761919557,
			"0.008": 2.2318402705,
			"0.009": 2.4198382413,
			"0.01": 1.65590554696,
			"0.011": 1.36237811207,
			"0.012": 1.55340949262,
			"0.013": 2.28797842808,
			"0.014": 0.805430256371,
			"0.015": 0.812819655617,
			"0.016": 0.530250296875,
			"0.017": 0.0,
			"0.018": 0.0,
			"0.019": 0.0,
			"0.02": 0.0,
			"0.021": 0.0,
			"0.022": 0.0,
			"0.023": 0.0,
			"0.024": 0.0,
			"0.025": 0.0
		}
	}
}
