{
	 "smiles": "CN(N=O)C1=CC=C(C=C1)N=O", 
	 "Tm": 374.15, 
	 "num_atms": 19, 
	 "gaussian": { 
		 "optdone": 1, 
		 "sigma_profile": "yes", 
		 "theory": "DFT", 
		 "functional": "B3LYP", 
		 "basiset": "6-31G**", 
		 "properties": { 
			 "R2extent": 2656.6396, 
			 "electric_dipole_moment_norm": 3.30166547367, 
			 "electric_quadrupole_moment_norm": 22.0869773733, 
			 "total_energy": -585.501544246, 
			 "HOMO_LUMO_gap": 0.11385, 
			 "cosmo_polarized_energy": -11.18, 
			 "cosmo_cavitation_energy": 24.29, 
			 "cosmo_dispersion_energy": -17.81, 
			 "cosmo_repulsion_energy": 1.4, 
			 "cosmo_total_nonelectrostatic_energy": 7.88, 
			 "SMD_solvation_energy": 5.24 
		},
		"coords": [
			{
				"x": 2.6141173831,
				"y": -1.505892577,
				"z": 1.5604791988,
				"element": "C" 
			},
			{
				"x": 1.8182857776,
				"y": -0.3296573619,
				"z": 1.2229452405,
				"element": "N" 
			},
			{
				"x": 2.2542529582,
				"y": 0.9272835263,
				"z": 1.5417356446,
				"element": "N" 
			},
			{
				"x": 3.3273925689,
				"y": 0.9811317221,
				"z": 2.1123797861,
				"element": "O" 
			},
			{
				"x": 0.5763496255,
				"y": -0.4129365839,
				"z": 0.5603949114,
				"element": "C" 
			},
			{
				"x": -0.1627108357,
				"y": 0.7492836809,
				"z": 0.2590321213,
				"element": "C" 
			},
			{
				"x": -1.3801794006,
				"y": 0.6328991919,
				"z": -0.3930577382,
				"element": "C" 
			},
			{
				"x": -1.8806360502,
				"y": -0.6248415729,
				"z": -0.7535676813,
				"element": "C" 
			},
			{
				"x": -1.1492646331,
				"y": -1.7807679383,
				"z": -0.4556776425,
				"element": "C" 
			},
			{
				"x": 0.069676049,
				"y": -1.6785249273,
				"z": 0.1959316111,
				"element": "C" 
			},
			{
				"x": -3.147812791,
				"y": -0.6302940799,
				"z": -1.4232501008,
				"element": "N" 
			},
			{
				"x": -3.5647881995,
				"y": -1.740772989,
				"z": -1.7283083321,
				"element": "O" 
			},
			{
				"x": 2.0561585731,
				"y": -2.1670984254,
				"z": 2.2290794893,
				"element": "H" 
			},
			{
				"x": 3.5083198172,
				"y": -1.1423874783,
				"z": 2.0643789122,
				"element": "H" 
			},
			{
				"x": 2.8963011407,
				"y": -2.0509483373,
				"z": 0.6555096521,
				"element": "H" 
			},
			{
				"x": 0.225481875,
				"y": 1.7186644303,
				"z": 0.5384625116,
				"element": "H" 
			},
			{
				"x": -1.9685081418,
				"y": 1.5123442561,
				"z": -0.636399,
				"element": "H" 
			},
			{
				"x": -1.5586434218,
				"y": -2.7425669799,
				"z": -0.7455488572,
				"element": "H" 
			},
			{
				"x": 0.6276077053,
				"y": -2.5789175565,
				"z": 0.4213802732,
				"element": "H" 
			}
		],
		 "valence_orbital": [ 
			{
				"type": "occ",
				"energy": -0.32994,
				"method": "rhf"
			},
			{
				"type": "occ",
				"energy": -0.28394,
				"method": "rhf"
			},
			{
				"type": "occ",
				"energy": -0.25545,
				"method": "rhf"
			},
			{
				"type": "occ",
				"energy": -0.25024,
				"method": "rhf"
			},
			{
				"type": "occ",
				"energy": -0.21904,
				"method": "rhf"
			},
			{
				"type": "unocc",
				"energy": -0.10519,
				"method": "rhf"
			},
			{
				"type": "unocc",
				"energy": -0.06413,
				"method": "rhf"
			},
			{
				"type": "unocc",
				"energy": -0.02965,
				"method": "rhf"
			},
			{
				"type": "unocc",
				"energy": 0.01862,
				"method": "rhf"
			},
			{
				"type": "unocc",
				"energy": 0.07337,
				"method": "rhf"
			}
		],
		"cosmo_sigma_profile": { 
			"-0.025": 0.0,
			"-0.024": 0.0,
			"-0.023": 0.0,
			"-0.022": 0.0,
			"-0.021": 0.0,
			"-0.02": 0.0,
			"-0.019": 0.0,
			"-0.018": 0.0,
			"-0.017": 0.0,
			"-0.016": 0.0,
			"-0.015": 0.0,
			"-0.014": 0.0,
			"-0.013": 0.0,
			"-0.012": 0.0,
			"-0.011": 0.0,
			"-0.01": 0.0,
			"-0.009": 0.582072515577,
			"-0.008": 5.6019207839,
			"-0.007": 12.7702957723,
			"-0.006": 11.9501912332,
			"-0.005": 10.2785180021,
			"-0.004": 14.2359531738,
			"-0.003": 14.4115638633,
			"-0.002": 11.4043067963,
			"-0.001": 15.3930147319,
			"0.0": 17.5832129977,
			"0.001": 18.9638789322,
			"0.002": 10.3489227806,
			"0.003": 5.28143187225,
			"0.004": 4.14696757263,
			"0.005": 5.68631076638,
			"0.006": 5.62120995317,
			"0.007": 7.73335532783,
			"0.008": 9.07533843542,
			"0.009": 6.17245762099,
			"0.01": 4.32812349996,
			"0.011": 2.77793460655,
			"0.012": 0.778030645923,
			"0.013": 0.0542845750378,
			"0.014": 0.0,
			"0.015": 0.0,
			"0.016": 0.0,
			"0.017": 0.0,
			"0.018": 0.0,
			"0.019": 0.0,
			"0.02": 0.0,
			"0.021": 0.0,
			"0.022": 0.0,
			"0.023": 0.0,
			"0.024": 0.0,
			"0.025": 0.0
		}
	}
}
