{
	 "smiles": "ClC(=O)COC1=CC=C(Cl)C=C1", 
	 "Tm": 292.15, 
	 "num_atms": 18, 
	 "gaussian": { 
		 "optdone": 1, 
		 "sigma_profile": "yes", 
		 "theory": "DFT", 
		 "functional": "B3LYP", 
		 "basiset": "6-31G**", 
		 "properties": { 
			 "R2extent": 4113.1924, 
			 "electric_dipole_moment_norm": 2.56140717966, 
			 "electric_quadrupole_moment_norm": 10.7738479106, 
			 "total_energy": -1379.28637116, 
			 "HOMO_LUMO_gap": 0.18079, 
			 "cosmo_polarized_energy": -9.5, 
			 "cosmo_cavitation_energy": 26.83, 
			 "cosmo_dispersion_energy": -19.68, 
			 "cosmo_repulsion_energy": 1.6, 
			 "cosmo_total_nonelectrostatic_energy": 8.75, 
			 "SMD_solvation_energy": 5.07 
		},
		"coords": [
			{
				"x": 0.9170987742,
				"y": -1.1955240454,
				"z": -4.7200394045,
				"element": "Cl" 
			},
			{
				"x": 1.4244731201,
				"y": -1.0047626359,
				"z": -2.9725731434,
				"element": "C" 
			},
			{
				"x": 2.1111982167,
				"y": -0.1087008183,
				"z": -2.615524448,
				"element": "O" 
			},
			{
				"x": 0.8496217375,
				"y": -2.1426379671,
				"z": -2.1366493116,
				"element": "C" 
			},
			{
				"x": 1.2376263394,
				"y": -2.0756160661,
				"z": -0.7937889373,
				"element": "O" 
			},
			{
				"x": 0.5843045655,
				"y": -1.2147056203,
				"z": 0.0598959599,
				"element": "C" 
			},
			{
				"x": -0.4015626732,
				"y": -0.3026329151,
				"z": -0.3239940628,
				"element": "C" 
			},
			{
				"x": -1.0083863717,
				"y": 0.5068033048,
				"z": 0.6404401428,
				"element": "C" 
			},
			{
				"x": -0.6248188286,
				"y": 0.4029004955,
				"z": 1.9735527509,
				"element": "C" 
			},
			{
				"x": -1.3900193705,
				"y": 1.4233818314,
				"z": 3.1826879417,
				"element": "Cl" 
			},
			{
				"x": 0.3660675235,
				"y": -0.5022540777,
				"z": 2.3610454731,
				"element": "C" 
			},
			{
				"x": 0.9674986743,
				"y": -1.3095932541,
				"z": 1.4027448441,
				"element": "C" 
			},
			{
				"x": -0.2394326149,
				"y": -2.1652647513,
				"z": -2.2732400175,
				"element": "H" 
			},
			{
				"x": 1.2513950995,
				"y": -3.0776003292,
				"z": -2.5398664682,
				"element": "H" 
			},
			{
				"x": -0.704214109,
				"y": -0.1910795625,
				"z": -1.3585054815,
				"element": "H" 
			},
			{
				"x": -1.771993912,
				"y": 1.2186363343,
				"z": 0.3476488011,
				"element": "H" 
			},
			{
				"x": 0.6603893931,
				"y": -0.5744150508,
				"z": 3.4020855599,
				"element": "H" 
			},
			{
				"x": 1.737154436,
				"y": -2.0230348723,
				"z": 1.6767798013,
				"element": "H" 
			}
		],
		 "valence_orbital": [ 
			{
				"type": "occ",
				"energy": -0.32335,
				"method": "rhf"
			},
			{
				"type": "occ",
				"energy": -0.31547,
				"method": "rhf"
			},
			{
				"type": "occ",
				"energy": -0.30824,
				"method": "rhf"
			},
			{
				"type": "occ",
				"energy": -0.27352,
				"method": "rhf"
			},
			{
				"type": "occ",
				"energy": -0.23526,
				"method": "rhf"
			},
			{
				"type": "unocc",
				"energy": -0.05447,
				"method": "rhf"
			},
			{
				"type": "unocc",
				"energy": -0.02366,
				"method": "rhf"
			},
			{
				"type": "unocc",
				"energy": -0.01304,
				"method": "rhf"
			},
			{
				"type": "unocc",
				"energy": 0.0073,
				"method": "rhf"
			},
			{
				"type": "unocc",
				"energy": 0.02573,
				"method": "rhf"
			}
		],
		"cosmo_sigma_profile": { 
			"-0.025": 0.0,
			"-0.024": 0.0,
			"-0.023": 0.0,
			"-0.022": 0.0,
			"-0.021": 0.0,
			"-0.02": 0.0,
			"-0.019": 0.0,
			"-0.018": 0.0,
			"-0.017": 0.0,
			"-0.016": 0.0,
			"-0.015": 0.0,
			"-0.014": 0.0,
			"-0.013": 0.0784103645474,
			"-0.012": 0.600750451621,
			"-0.011": 1.67694942363,
			"-0.01": 4.84978251329,
			"-0.009": 4.91811251358,
			"-0.008": 5.94953359445,
			"-0.007": 11.0951765502,
			"-0.006": 10.129140462,
			"-0.005": 8.68027518755,
			"-0.004": 7.71891227988,
			"-0.003": 7.52069395684,
			"-0.002": 9.20933030848,
			"-0.001": 10.4280598594,
			"0.0": 14.2752454753,
			"0.001": 15.9775460363,
			"0.002": 21.9018663311,
			"0.003": 32.2118181677,
			"0.004": 23.6784382919,
			"0.005": 13.4147285812,
			"0.006": 5.51542723962,
			"0.007": 6.03371355634,
			"0.008": 4.06155315294,
			"0.009": 0.163905203232,
			"0.01": 0.0,
			"0.011": 0.0,
			"0.012": 0.0,
			"0.013": 0.0,
			"0.014": 0.0,
			"0.015": 0.0,
			"0.016": 0.0,
			"0.017": 0.0,
			"0.018": 0.0,
			"0.019": 0.0,
			"0.02": 0.0,
			"0.021": 0.0,
			"0.022": 0.0,
			"0.023": 0.0,
			"0.024": 0.0,
			"0.025": 0.0
		}
	}
}
