{
	 "smiles": "NC1=CC=CC=C1CN1CCOCC1", 
	 "Tm": 343.65, 
	 "num_atms": 30, 
	 "gaussian": { 
		 "optdone": 1, 
		 "sigma_profile": "yes", 
		 "theory": "DFT", 
		 "functional": "B3LYP", 
		 "basiset": "6-31G**", 
		 "properties": { 
			 "R2extent": 3303.3298, 
			 "electric_dipole_moment_norm": 0.750556193766, 
			 "electric_quadrupole_moment_norm": 9.54780798875, 
			 "total_energy": -613.529811413, 
			 "HOMO_LUMO_gap": 0.20049, 
			 "cosmo_polarized_energy": -9.2, 
			 "cosmo_cavitation_energy": 30.83, 
			 "cosmo_dispersion_energy": -22.31, 
			 "cosmo_repulsion_energy": 1.75, 
			 "cosmo_total_nonelectrostatic_energy": 10.27, 
			 "SMD_solvation_energy": 4.59 
		},
		"coords": [
			{
				"x": 0.5151344281,
				"y": -2.4493994677,
				"z": 0.401851303,
				"element": "N" 
			},
			{
				"x": 0.2682251409,
				"y": -1.9641573585,
				"z": -0.8806039362,
				"element": "C" 
			},
			{
				"x": -0.2784744453,
				"y": -2.7849396035,
				"z": -1.8817430192,
				"element": "C" 
			},
			{
				"x": -0.4738675868,
				"y": -2.302665362,
				"z": -3.1737131952,
				"element": "C" 
			},
			{
				"x": -0.1387590125,
				"y": -0.9867103063,
				"z": -3.4958931939,
				"element": "C" 
			},
			{
				"x": 0.4033199856,
				"y": -0.1674228665,
				"z": -2.5039740232,
				"element": "C" 
			},
			{
				"x": 0.6218530253,
				"y": -0.6300558155,
				"z": -1.2041630605,
				"element": "C" 
			},
			{
				"x": 1.2879245171,
				"y": 0.2497749573,
				"z": -0.1697995565,
				"element": "C" 
			},
			{
				"x": 0.4984831142,
				"y": 0.4197893347,
				"z": 1.0635738988,
				"element": "N" 
			},
			{
				"x": -0.7605012659,
				"y": 1.1388043429,
				"z": 0.8353030412,
				"element": "C" 
			},
			{
				"x": -1.5449118935,
				"y": 1.2323960066,
				"z": 2.1410963984,
				"element": "C" 
			},
			{
				"x": -0.7871401665,
				"y": 1.8751281231,
				"z": 3.1577436218,
				"element": "O" 
			},
			{
				"x": 0.4338266971,
				"y": 1.1883308301,
				"z": 3.389356709,
				"element": "C" 
			},
			{
				"x": 1.269683572,
				"y": 1.0908427746,
				"z": 2.1145599123,
				"element": "C" 
			},
			{
				"x": 0.0294770288,
				"y": -3.3062085211,
				"z": 0.6298962174,
				"element": "H" 
			},
			{
				"x": 0.4253987052,
				"y": -1.731228708,
				"z": 1.1169588483,
				"element": "H" 
			},
			{
				"x": -0.5476975494,
				"y": -3.8098249348,
				"z": -1.6357387917,
				"element": "H" 
			},
			{
				"x": -0.897942479,
				"y": -2.9590148362,
				"z": -3.9289274975,
				"element": "H" 
			},
			{
				"x": -0.2948153039,
				"y": -0.6046453954,
				"z": -4.4997843187,
				"element": "H" 
			},
			{
				"x": 0.674079748,
				"y": 0.8591525131,
				"z": -2.7415581212,
				"element": "H" 
			},
			{
				"x": 2.2388679808,
				"y": -0.2094306626,
				"z": 0.134128812,
				"element": "H" 
			},
			{
				"x": 1.5329885078,
				"y": 1.2276778055,
				"z": -0.6226523677,
				"element": "H" 
			},
			{
				"x": -1.3465178188,
				"y": 0.6038467319,
				"z": 0.0817333551,
				"element": "H" 
			},
			{
				"x": -0.5709402681,
				"y": 2.1600707424,
				"z": 0.453254428,
				"element": "H" 
			},
			{
				"x": -1.836650875,
				"y": 0.2200154205,
				"z": 2.4670772759,
				"element": "H" 
			},
			{
				"x": -2.4516753265,
				"y": 1.8284934836,
				"z": 2.003737667,
				"element": "H" 
			},
			{
				"x": 0.2337329477,
				"y": 0.1737150816,
				"z": 3.7730691772,
				"element": "H" 
			},
			{
				"x": 0.9696416926,
				"y": 1.7516944313,
				"z": 4.1589613286,
				"element": "H" 
			},
			{
				"x": 1.5747098393,
				"y": 2.1082570903,
				"z": 1.8040359689,
				"element": "H" 
			},
			{
				"x": 2.1813470605,
				"y": 0.5146141686,
				"z": 2.3124131184,
				"element": "H" 
			}
		],
		 "valence_orbital": [ 
			{
				"type": "occ",
				"energy": -0.29904,
				"method": "rhf"
			},
			{
				"type": "occ",
				"energy": -0.25663,
				"method": "rhf"
			},
			{
				"type": "occ",
				"energy": -0.23828,
				"method": "rhf"
			},
			{
				"type": "occ",
				"energy": -0.22909,
				"method": "rhf"
			},
			{
				"type": "occ",
				"energy": -0.1941,
				"method": "rhf"
			},
			{
				"type": "unocc",
				"energy": 0.00639,
				"method": "rhf"
			},
			{
				"type": "unocc",
				"energy": 0.02204,
				"method": "rhf"
			},
			{
				"type": "unocc",
				"energy": 0.08548,
				"method": "rhf"
			},
			{
				"type": "unocc",
				"energy": 0.09809,
				"method": "rhf"
			},
			{
				"type": "unocc",
				"energy": 0.10356,
				"method": "rhf"
			}
		],
		"cosmo_sigma_profile": { 
			"-0.025": 0.0,
			"-0.024": 0.0,
			"-0.023": 0.0,
			"-0.022": 0.0,
			"-0.021": 0.0,
			"-0.02": 0.0,
			"-0.019": 0.0,
			"-0.018": 0.0,
			"-0.017": 0.0,
			"-0.016": 0.0,
			"-0.015": 0.0,
			"-0.014": 0.0,
			"-0.013": 0.0,
			"-0.012": 0.313405088198,
			"-0.011": 1.42554918297,
			"-0.01": 1.1632793244,
			"-0.009": 1.54824970053,
			"-0.008": 1.7275655358,
			"-0.007": 1.49546578754,
			"-0.006": 2.88336908159,
			"-0.005": 12.8465708509,
			"-0.004": 23.8095092832,
			"-0.003": 32.8546963937,
			"-0.002": 35.8832792143,
			"-0.001": 23.8718493409,
			"0.0": 15.8769012854,
			"0.001": 11.9395242805,
			"0.002": 12.1954767521,
			"0.003": 9.03658188065,
			"0.004": 7.47691603379,
			"0.005": 9.25305477629,
			"0.006": 9.3367922434,
			"0.007": 9.34414304582,
			"0.008": 5.00418318472,
			"0.009": 1.16853993062,
			"0.01": 1.69079290704,
			"0.011": 2.42736691422,
			"0.012": 1.99024648246,
			"0.013": 2.52928992855,
			"0.014": 1.33871440288,
			"0.015": 0.501420887552,
			"0.016": 0.0,
			"0.017": 0.0,
			"0.018": 0.0,
			"0.019": 0.0,
			"0.02": 0.0,
			"0.021": 0.0,
			"0.022": 0.0,
			"0.023": 0.0,
			"0.024": 0.0,
			"0.025": 0.0
		}
	}
}
