{
	 "smiles": "CCC(O)(CC)C1(C)CCC(C(O)=O)C(C)(C)O1", 
	 "Tm": 411.15, 
	 "num_atms": 44, 
	 "gaussian": { 
		 "optdone": 1, 
		 "sigma_profile": "yes", 
		 "theory": "DFT", 
		 "functional": "B3LYP", 
		 "basiset": "6-31G**", 
		 "properties": { 
			 "R2extent": 4891.0447, 
			 "electric_dipole_moment_norm": 2.21315471895, 
			 "electric_quadrupole_moment_norm": 12.0833472147, 
			 "total_energy": -850.068184259, 
			 "HOMO_LUMO_gap": 0.24969, 
			 "cosmo_polarized_energy": -12.78, 
			 "cosmo_cavitation_energy": 39.5, 
			 "cosmo_dispersion_energy": -27.0, 
			 "cosmo_repulsion_energy": 2.04, 
			 "cosmo_total_nonelectrostatic_energy": 14.54, 
			 "SMD_solvation_energy": 7.73 
		},
		"coords": [
			{
				"x": 2.2479477974,
				"y": 2.321457798,
				"z": 1.3689520735,
				"element": "C" 
			},
			{
				"x": 1.3325643437,
				"y": 2.4511967948,
				"z": 0.1469768576,
				"element": "C" 
			},
			{
				"x": 1.0439088429,
				"y": 1.1188763723,
				"z": -0.633896931,
				"element": "C" 
			},
			{
				"x": 1.9431501605,
				"y": 0.0707667829,
				"z": -0.2359432282,
				"element": "O" 
			},
			{
				"x": 1.2868476426,
				"y": 1.4225736215,
				"z": -2.1420927024,
				"element": "C" 
			},
			{
				"x": 1.1916469695,
				"y": 0.2822567426,
				"z": -3.1614866993,
				"element": "C" 
			},
			{
				"x": -0.3997117171,
				"y": 0.5787206266,
				"z": -0.2877990029,
				"element": "C" 
			},
			{
				"x": -1.4704721257,
				"y": 1.3948718614,
				"z": -1.0347453175,
				"element": "C" 
			},
			{
				"x": -0.5930280738,
				"y": -0.9217592068,
				"z": -0.617716143,
				"element": "C" 
			},
			{
				"x": -0.0636955467,
				"y": -1.9397660867,
				"z": 0.4156015523,
				"element": "C" 
			},
			{
				"x": 0.0831450044,
				"y": -1.3492505043,
				"z": 1.8338342406,
				"element": "C" 
			},
			{
				"x": 0.0441330831,
				"y": -2.3904228846,
				"z": 2.9350847251,
				"element": "C" 
			},
			{
				"x": -0.9148217087,
				"y": -3.3394586658,
				"z": 2.7588323748,
				"element": "O" 
			},
			{
				"x": 0.768500561,
				"y": -2.4002691541,
				"z": 3.908500966,
				"element": "O" 
			},
			{
				"x": -0.9222592368,
				"y": -0.1832796641,
				"z": 2.0770724237,
				"element": "C" 
			},
			{
				"x": -2.4018942058,
				"y": -0.6063917508,
				"z": 2.0035053763,
				"element": "C" 
			},
			{
				"x": -0.6693070097,
				"y": 0.4916680118,
				"z": 3.4315871965,
				"element": "C" 
			},
			{
				"x": -0.6292559901,
				"y": 0.8507206873,
				"z": 1.1182531799,
				"element": "O" 
			},
			{
				"x": 2.3463580619,
				"y": 3.2940549169,
				"z": 1.862503308,
				"element": "H" 
			},
			{
				"x": 1.8475756337,
				"y": 1.6107062024,
				"z": 2.0921549911,
				"element": "H" 
			},
			{
				"x": 3.2615946433,
				"y": 1.9977695661,
				"z": 1.1047273644,
				"element": "H" 
			},
			{
				"x": 1.7808629525,
				"y": 3.1755039082,
				"z": -0.544449725,
				"element": "H" 
			},
			{
				"x": 0.3859497264,
				"y": 2.8854126317,
				"z": 0.4748746922,
				"element": "H" 
			},
			{
				"x": 2.8462500508,
				"y": 0.4004914365,
				"z": -0.3269231519,
				"element": "H" 
			},
			{
				"x": 2.3106894985,
				"y": 1.8212383608,
				"z": -2.1879261929,
				"element": "H" 
			},
			{
				"x": 0.6449143736,
				"y": 2.2566107014,
				"z": -2.4478322709,
				"element": "H" 
			},
			{
				"x": 0.1609852815,
				"y": -0.0217239084,
				"z": -3.3656924655,
				"element": "H" 
			},
			{
				"x": 1.6260808676,
				"y": 0.6000267417,
				"z": -4.1153161403,
				"element": "H" 
			},
			{
				"x": 1.7464332393,
				"y": -0.5952133027,
				"z": -2.8165188348,
				"element": "H" 
			},
			{
				"x": -1.3433334973,
				"y": 2.4687409971,
				"z": -0.8717344395,
				"element": "H" 
			},
			{
				"x": -2.45665553,
				"y": 1.1166954504,
				"z": -0.6549883237,
				"element": "H" 
			},
			{
				"x": -1.4525058753,
				"y": 1.2035498555,
				"z": -2.1118184657,
				"element": "H" 
			},
			{
				"x": -1.6685746097,
				"y": -1.0766265522,
				"z": -0.7489463167,
				"element": "H" 
			},
			{
				"x": -0.1457159407,
				"y": -1.1356637438,
				"z": -1.5868157278,
				"element": "H" 
			},
			{
				"x": 0.9152201817,
				"y": -2.3099658737,
				"z": 0.103738716,
				"element": "H" 
			},
			{
				"x": -0.7429234078,
				"y": -2.7958879012,
				"z": 0.4376624176,
				"element": "H" 
			},
			{
				"x": 1.0693835025,
				"y": -0.8887630074,
				"z": 1.9144327633,
				"element": "H" 
			},
			{
				"x": -0.8434223987,
				"y": -3.9265250258,
				"z": 3.53040496,
				"element": "H" 
			},
			{
				"x": -2.6550093087,
				"y": -1.1129889679,
				"z": 1.0710089895,
				"element": "H" 
			},
			{
				"x": -2.6510563114,
				"y": -1.2866106066,
				"z": 2.822525488,
				"element": "H" 
			},
			{
				"x": -3.0307967077,
				"y": 0.2846717892,
				"z": 2.0902351713,
				"element": "H" 
			},
			{
				"x": -1.2590939252,
				"y": 1.4106866494,
				"z": 3.4927474088,
				"element": "H" 
			},
			{
				"x": -0.9547257674,
				"y": -0.1625098137,
				"z": 4.2594947552,
				"element": "H" 
			},
			{
				"x": 0.3855164757,
				"y": 0.7483081139,
				"z": 3.5525300873,
				"element": "H" 
			}
		],
		 "valence_orbital": [ 
			{
				"type": "occ",
				"energy": -0.29833,
				"method": "rhf"
			},
			{
				"type": "occ",
				"energy": -0.27773,
				"method": "rhf"
			},
			{
				"type": "occ",
				"energy": -0.26491,
				"method": "rhf"
			},
			{
				"type": "occ",
				"energy": -0.26335,
				"method": "rhf"
			},
			{
				"type": "occ",
				"energy": -0.2387,
				"method": "rhf"
			},
			{
				"type": "unocc",
				"energy": 0.01099,
				"method": "rhf"
			},
			{
				"type": "unocc",
				"energy": 0.05765,
				"method": "rhf"
			},
			{
				"type": "unocc",
				"energy": 0.07683,
				"method": "rhf"
			},
			{
				"type": "unocc",
				"energy": 0.09197,
				"method": "rhf"
			},
			{
				"type": "unocc",
				"energy": 0.10156,
				"method": "rhf"
			}
		],
		"cosmo_sigma_profile": { 
			"-0.025": 0.0,
			"-0.024": 0.0,
			"-0.023": 0.0,
			"-0.022": 0.0,
			"-0.021": 0.0,
			"-0.02": 0.0,
			"-0.019": 0.0,
			"-0.018": 0.358829772748,
			"-0.017": 0.969075351067,
			"-0.016": 0.938715741954,
			"-0.015": 1.01900466205,
			"-0.014": 1.33980320794,
			"-0.013": 1.07968589469,
			"-0.012": 1.5398977963,
			"-0.011": 1.31498553696,
			"-0.01": 2.09984826372,
			"-0.009": 1.76250030667,
			"-0.008": 1.42397550125,
			"-0.007": 2.6346843249,
			"-0.006": 2.00735947668,
			"-0.005": 3.4133434607,
			"-0.004": 10.7132600956,
			"-0.003": 28.4991841828,
			"-0.002": 42.1803709798,
			"-0.001": 41.1868729105,
			"0.0": 45.1810144045,
			"0.001": 38.9857027641,
			"0.002": 19.1011776149,
			"0.003": 8.51543155304,
			"0.004": 5.18927780261,
			"0.005": 7.72419572279,
			"0.006": 6.78237837496,
			"0.007": 6.11090153055,
			"0.008": 4.64020955003,
			"0.009": 3.91927768583,
			"0.01": 2.9906345198,
			"0.011": 3.08105253784,
			"0.012": 5.16721793936,
			"0.013": 1.52115981449,
			"0.014": 0.0679267778131,
			"0.015": 0.0,
			"0.016": 0.0,
			"0.017": 0.0,
			"0.018": 0.0,
			"0.019": 0.0,
			"0.02": 0.0,
			"0.021": 0.0,
			"0.022": 0.0,
			"0.023": 0.0,
			"0.024": 0.0,
			"0.025": 0.0
		}
	}
}
