{
	 "smiles": "COC1=CC=C(C=C1)C1=NNC(S)=NC1=O", 
	 "Tm": 558.15, 
	 "num_atms": 25, 
	 "gaussian": { 
		 "optdone": 1, 
		 "sigma_profile": "yes", 
		 "theory": "DFT", 
		 "functional": "B3LYP", 
		 "basiset": "6-31G**", 
		 "properties": { 
			 "R2extent": 6419.1936, 
			 "electric_dipole_moment_norm": 6.85998687025, 
			 "electric_quadrupole_moment_norm": 27.5538412723, 
			 "total_energy": -1099.33083979, 
			 "HOMO_LUMO_gap": 0.15185, 
			 "cosmo_polarized_energy": -24.33, 
			 "cosmo_cavitation_energy": 31.7, 
			 "cosmo_dispersion_energy": -24.37, 
			 "cosmo_repulsion_energy": 1.83, 
			 "cosmo_total_nonelectrostatic_energy": 9.17, 
			 "SMD_solvation_energy": 4.18 
		},
		"coords": [
			{
				"x": 3.5133482982,
				"y": 3.4144766204,
				"z": 0.0844201996,
				"element": "C" 
			},
			{
				"x": 3.657768434,
				"y": 2.0697640332,
				"z": 0.5173578718,
				"element": "O" 
			},
			{
				"x": 2.6012841435,
				"y": 1.2246195147,
				"z": 0.3757328316,
				"element": "C" 
			},
			{
				"x": 1.3583825577,
				"y": 1.5861534505,
				"z": -0.1662200418,
				"element": "C" 
			},
			{
				"x": 0.3481445149,
				"y": 0.6357281441,
				"z": -0.2601744456,
				"element": "C" 
			},
			{
				"x": 0.5340674415,
				"y": -0.6891864554,
				"z": 0.1752566606,
				"element": "C" 
			},
			{
				"x": 1.7888134006,
				"y": -1.0323631529,
				"z": 0.7225554918,
				"element": "C" 
			},
			{
				"x": 2.8027771381,
				"y": -0.0904290647,
				"z": 0.8175081558,
				"element": "C" 
			},
			{
				"x": -0.5709464066,
				"y": -1.6593638157,
				"z": 0.0288732809,
				"element": "C" 
			},
			{
				"x": -1.5471149916,
				"y": -1.3120634625,
				"z": -0.7690303219,
				"element": "N" 
			},
			{
				"x": -2.6041423226,
				"y": -2.1539648421,
				"z": -0.8769584704,
				"element": "N" 
			},
			{
				"x": -2.7052497022,
				"y": -3.3046947326,
				"z": -0.161656582,
				"element": "C" 
			},
			{
				"x": -4.1718737902,
				"y": -4.312400347,
				"z": -0.3180374726,
				"element": "S" 
			},
			{
				"x": -1.7785038108,
				"y": -3.7251486296,
				"z": 0.6326276324,
				"element": "N" 
			},
			{
				"x": -0.6004546584,
				"y": -2.98200094,
				"z": 0.7538715963,
				"element": "C" 
			},
			{
				"x": 0.3328195444,
				"y": -3.4010803978,
				"z": 1.4205113018,
				"element": "O" 
			},
			{
				"x": 4.4695783891,
				"y": 3.8992408422,
				"z": 0.2861397231,
				"element": "H" 
			},
			{
				"x": 2.7213605518,
				"y": 3.9346705598,
				"z": 0.6378804016,
				"element": "H" 
			},
			{
				"x": 3.298676737,
				"y": 3.4724946299,
				"z": -0.99014419,
				"element": "H" 
			},
			{
				"x": 1.169171199,
				"y": 2.5972809248,
				"z": -0.5065466906,
				"element": "H" 
			},
			{
				"x": -0.6112490564,
				"y": 0.9222087621,
				"z": -0.6761267249,
				"element": "H" 
			},
			{
				"x": 1.9529934903,
				"y": -2.0407884224,
				"z": 1.0747063443,
				"element": "H" 
			},
			{
				"x": 3.7691153228,
				"y": -0.3532873726,
				"z": 1.2350125897,
				"element": "H" 
			},
			{
				"x": -3.3104792604,
				"y": -1.8460393499,
				"z": -1.5286086566,
				"element": "H" 
			},
			{
				"x": -4.8874871634,
				"y": -3.4529264965,
				"z": -1.0738504849,
				"element": "H" 
			}
		],
		 "valence_orbital": [ 
			{
				"type": "occ",
				"energy": -0.27899,
				"method": "rhf"
			},
			{
				"type": "occ",
				"energy": -0.26454,
				"method": "rhf"
			},
			{
				"type": "occ",
				"energy": -0.25284,
				"method": "rhf"
			},
			{
				"type": "occ",
				"energy": -0.24256,
				"method": "rhf"
			},
			{
				"type": "occ",
				"energy": -0.21519,
				"method": "rhf"
			},
			{
				"type": "unocc",
				"energy": -0.06334,
				"method": "rhf"
			},
			{
				"type": "unocc",
				"energy": -0.03602,
				"method": "rhf"
			},
			{
				"type": "unocc",
				"energy": -0.01549,
				"method": "rhf"
			},
			{
				"type": "unocc",
				"energy": -0.00023,
				"method": "rhf"
			},
			{
				"type": "unocc",
				"energy": 0.02387,
				"method": "rhf"
			}
		],
		"cosmo_sigma_profile": { 
			"-0.025": 0.0,
			"-0.024": 0.0,
			"-0.023": 0.0,
			"-0.022": 0.0,
			"-0.021": 0.0,
			"-0.02": 0.319961755213,
			"-0.019": 1.94225091231,
			"-0.018": 1.99073640758,
			"-0.017": 1.67867415989,
			"-0.016": 0.944299332206,
			"-0.015": 1.5454669354,
			"-0.014": 1.40127965684,
			"-0.013": 2.548165729,
			"-0.012": 1.8563352688,
			"-0.011": 1.82127478538,
			"-0.01": 1.80728380414,
			"-0.009": 1.46573982852,
			"-0.008": 1.45792206232,
			"-0.007": 3.58528639647,
			"-0.006": 11.9400866681,
			"-0.005": 18.1345555966,
			"-0.004": 19.4328299617,
			"-0.003": 18.2609128119,
			"-0.002": 12.6471494191,
			"-0.001": 12.0148762288,
			"0.0": 13.1951759756,
			"0.001": 16.1354878205,
			"0.002": 16.7343501539,
			"0.003": 19.8799129727,
			"0.004": 21.6800416609,
			"0.005": 14.5599736397,
			"0.006": 6.83748665227,
			"0.007": 4.37245350785,
			"0.008": 4.83766016339,
			"0.009": 4.32478923987,
			"0.01": 3.04732715218,
			"0.011": 3.38577663408,
			"0.012": 3.12771203345,
			"0.013": 3.57673134807,
			"0.014": 2.8846601018,
			"0.015": 1.83047402031,
			"0.016": 0.0,
			"0.017": 0.0,
			"0.018": 0.0,
			"0.019": 0.0,
			"0.02": 0.0,
			"0.021": 0.0,
			"0.022": 0.0,
			"0.023": 0.0,
			"0.024": 0.0,
			"0.025": 0.0
		}
	}
}
