{
	 "smiles": "NC1=CC(=CC=C1)S(=O)(=O)N1CCNC(=O)C1", 
	 "Tm": 463.15, 
	 "num_atms": 30, 
	 "gaussian": { 
		 "optdone": 1, 
		 "sigma_profile": "yes", 
		 "theory": "DFT", 
		 "functional": "B3LYP", 
		 "basiset": "6-31G**", 
		 "properties": { 
			 "R2extent": 5151.9963, 
			 "electric_dipole_moment_norm": 5.13805482552, 
			 "electric_quadrupole_moment_norm": 28.4749478059, 
			 "total_energy": -1176.9518007, 
			 "HOMO_LUMO_gap": 0.1854, 
			 "cosmo_polarized_energy": -24.62, 
			 "cosmo_cavitation_energy": 34.09, 
			 "cosmo_dispersion_energy": -24.87, 
			 "cosmo_repulsion_energy": 1.9, 
			 "cosmo_total_nonelectrostatic_energy": 11.12, 
			 "SMD_solvation_energy": 3.68 
		},
		"coords": [
			{
				"x": -0.3703036841,
				"y": -3.7752940272,
				"z": 1.0518349838,
				"element": "N" 
			},
			{
				"x": 0.2714505192,
				"y": -2.547924376,
				"z": 0.9230141622,
				"element": "C" 
			},
			{
				"x": -0.4353570798,
				"y": -1.3476993189,
				"z": 1.0935438284,
				"element": "C" 
			},
			{
				"x": 0.2228323804,
				"y": -0.1336886856,
				"z": 0.9050672708,
				"element": "C" 
			},
			{
				"x": 1.5717419941,
				"y": -0.0553691858,
				"z": 0.5612616347,
				"element": "C" 
			},
			{
				"x": 2.2673933145,
				"y": -1.255775331,
				"z": 0.3905014234,
				"element": "C" 
			},
			{
				"x": 1.6331581039,
				"y": -2.4809698964,
				"z": 0.564798083,
				"element": "C" 
			},
			{
				"x": -0.6944515439,
				"y": 1.3848074498,
				"z": 1.1712404576,
				"element": "S" 
			},
			{
				"x": -1.5698683183,
				"y": 1.2312551229,
				"z": 2.3400977369,
				"element": "O" 
			},
			{
				"x": 0.2564657707,
				"y": 2.5043329825,
				"z": 1.1012388053,
				"element": "O" 
			},
			{
				"x": -1.7441066815,
				"y": 1.3851333911,
				"z": -0.1788200276,
				"element": "N" 
			},
			{
				"x": -2.9864518075,
				"y": 2.1521139372,
				"z": 0.0156723751,
				"element": "C" 
			},
			{
				"x": -2.7470046327,
				"y": 3.66100282,
				"z": -0.0548982866,
				"element": "C" 
			},
			{
				"x": -1.9765933955,
				"y": 3.9905499496,
				"z": -1.2514486777,
				"element": "N" 
			},
			{
				"x": -1.0826946128,
				"y": 3.1698943718,
				"z": -1.88019597,
				"element": "C" 
			},
			{
				"x": -0.3572324384,
				"y": 3.5497366107,
				"z": -2.7881851951,
				"element": "O" 
			},
			{
				"x": -1.1035040909,
				"y": 1.6946091173,
				"z": -1.4680319607,
				"element": "C" 
			},
			{
				"x": -1.2138326181,
				"y": -3.7738238807,
				"z": 1.6077913444,
				"element": "H" 
			},
			{
				"x": 0.2266518729,
				"y": -4.5632316182,
				"z": 1.2597752174,
				"element": "H" 
			},
			{
				"x": -1.4834101056,
				"y": -1.3594436029,
				"z": 1.3750567594,
				"element": "H" 
			},
			{
				"x": 2.0514267201,
				"y": 0.9092029292,
				"z": 0.4479544349,
				"element": "H" 
			},
			{
				"x": 3.3195071939,
				"y": -1.2334836388,
				"z": 0.1228315898,
				"element": "H" 
			},
			{
				"x": 2.1903237276,
				"y": -3.4038974421,
				"z": 0.4250822367,
				"element": "H" 
			},
			{
				"x": -3.4239536845,
				"y": 1.8785592744,
				"z": 0.976216636,
				"element": "H" 
			},
			{
				"x": -3.6710174228,
				"y": 1.8376961787,
				"z": -0.780630888,
				"element": "H" 
			},
			{
				"x": -3.7105923192,
				"y": 4.1824580719,
				"z": -0.0959402954,
				"element": "H" 
			},
			{
				"x": -2.224062625,
				"y": 3.9958523374,
				"z": 0.8507489625,
				"element": "H" 
			},
			{
				"x": -1.88342151,
				"y": 4.9643576159,
				"z": -1.5118402081,
				"element": "H" 
			},
			{
				"x": -1.6404734677,
				"y": 1.1441666913,
				"z": -2.2510045307,
				"element": "H" 
			},
			{
				"x": -0.0740195589,
				"y": 1.3346721517,
				"z": -1.4813319024,
				"element": "H" 
			}
		],
		 "valence_orbital": [ 
			{
				"type": "occ",
				"energy": -0.28131,
				"method": "rhf"
			},
			{
				"type": "occ",
				"energy": -0.2659,
				"method": "rhf"
			},
			{
				"type": "occ",
				"energy": -0.24963,
				"method": "rhf"
			},
			{
				"type": "occ",
				"energy": -0.23139,
				"method": "rhf"
			},
			{
				"type": "occ",
				"energy": -0.22299,
				"method": "rhf"
			},
			{
				"type": "unocc",
				"energy": -0.03759,
				"method": "rhf"
			},
			{
				"type": "unocc",
				"energy": -0.00516,
				"method": "rhf"
			},
			{
				"type": "unocc",
				"energy": 0.02662,
				"method": "rhf"
			},
			{
				"type": "unocc",
				"energy": 0.05791,
				"method": "rhf"
			},
			{
				"type": "unocc",
				"energy": 0.06815,
				"method": "rhf"
			}
		],
		"cosmo_sigma_profile": { 
			"-0.025": 0.0,
			"-0.024": 0.0,
			"-0.023": 0.0,
			"-0.022": 0.0,
			"-0.021": 0.0,
			"-0.02": 0.0,
			"-0.019": 0.0,
			"-0.018": 0.0,
			"-0.017": 0.0,
			"-0.016": 0.0,
			"-0.015": 0.0434964618557,
			"-0.014": 1.00914663774,
			"-0.013": 3.12664338026,
			"-0.012": 4.29267658181,
			"-0.011": 4.07285926187,
			"-0.01": 4.9427769945,
			"-0.009": 4.68071788997,
			"-0.008": 6.48219149875,
			"-0.007": 12.1559560411,
			"-0.006": 19.1071343221,
			"-0.005": 20.7960921718,
			"-0.004": 20.2602893258,
			"-0.003": 13.2455542155,
			"-0.002": 11.3740294687,
			"-0.001": 11.5146709195,
			"0.0": 10.396539682,
			"0.001": 10.9153301892,
			"0.002": 14.1651782611,
			"0.003": 17.6087990363,
			"0.004": 16.0320752745,
			"0.005": 7.2074832595,
			"0.006": 5.94008683256,
			"0.007": 6.04838339933,
			"0.008": 5.80585923193,
			"0.009": 5.61705347997,
			"0.01": 8.25132522417,
			"0.011": 9.03064522364,
			"0.012": 4.22781587799,
			"0.013": 5.01004297642,
			"0.014": 5.24694700017,
			"0.015": 0.865810861833,
			"0.016": 0.0,
			"0.017": 0.0,
			"0.018": 0.0,
			"0.019": 0.0,
			"0.02": 0.0,
			"0.021": 0.0,
			"0.022": 0.0,
			"0.023": 0.0,
			"0.024": 0.0,
			"0.025": 0.0
		}
	}
}
