{
	 "smiles": "CC(NC(=O)NC1=CC=CC=C1)C(O)=O", 
	 "Tm": 454.15, 
	 "num_atms": 27, 
	 "gaussian": { 
		 "optdone": 1, 
		 "sigma_profile": "yes", 
		 "theory": "DFT", 
		 "functional": "B3LYP", 
		 "basiset": "6-31G**", 
		 "properties": { 
			 "R2extent": 3816.1758, 
			 "electric_dipole_moment_norm": 1.5021933331, 
			 "electric_quadrupole_moment_norm": 18.1596829609, 
			 "total_energy": -723.508089554, 
			 "HOMO_LUMO_gap": 0.21179, 
			 "cosmo_polarized_energy": -18.62, 
			 "cosmo_cavitation_energy": 30.76, 
			 "cosmo_dispersion_energy": -21.85, 
			 "cosmo_repulsion_energy": 1.71, 
			 "cosmo_total_nonelectrostatic_energy": 10.62, 
			 "SMD_solvation_energy": 6.81 
		},
		"coords": [
			{
				"x": 0.8915393197,
				"y": 1.9717106253,
				"z": 1.331799439,
				"element": "C" 
			},
			{
				"x": 0.2346088717,
				"y": 2.2993076895,
				"z": -0.0123506725,
				"element": "C" 
			},
			{
				"x": 0.6541093936,
				"y": 1.4609329795,
				"z": -1.1606053871,
				"element": "N" 
			},
			{
				"x": 0.8519972637,
				"y": 0.0535893843,
				"z": -1.0556629686,
				"element": "C" 
			},
			{
				"x": 1.8682829151,
				"y": -0.4590266733,
				"z": -1.4979551721,
				"element": "O" 
			},
			{
				"x": -0.2047241082,
				"y": -0.6170166465,
				"z": -0.4897390032,
				"element": "N" 
			},
			{
				"x": -0.3079983983,
				"y": -2.0013587799,
				"z": -0.2088249708,
				"element": "C" 
			},
			{
				"x": 0.7219920321,
				"y": -2.9213414806,
				"z": -0.4517551258,
				"element": "C" 
			},
			{
				"x": 0.5259877719,
				"y": -4.2641578531,
				"z": -0.1260365218,
				"element": "C" 
			},
			{
				"x": -0.6736606053,
				"y": -4.7077519664,
				"z": 0.4310874534,
				"element": "C" 
			},
			{
				"x": -1.6957806003,
				"y": -3.7865810062,
				"z": 0.6676150249,
				"element": "C" 
			},
			{
				"x": -1.516061427,
				"y": -2.4424674586,
				"z": 0.3532249234,
				"element": "C" 
			},
			{
				"x": -1.3032668662,
				"y": 2.3454259442,
				"z": 0.0982626537,
				"element": "C" 
			},
			{
				"x": -1.9490379545,
				"y": 1.964659082,
				"z": -1.0288200868,
				"element": "O" 
			},
			{
				"x": -1.8913490991,
				"y": 2.7019420957,
				"z": 1.0877523725,
				"element": "O" 
			},
			{
				"x": 1.9767737512,
				"y": 2.0830607718,
				"z": 1.2609903901,
				"element": "H" 
			},
			{
				"x": 0.5098587702,
				"y": 2.6510047806,
				"z": 2.0960182171,
				"element": "H" 
			},
			{
				"x": 0.6658591066,
				"y": 0.9489026325,
				"z": 1.6434136764,
				"element": "H" 
			},
			{
				"x": 0.5153754404,
				"y": 3.3222847384,
				"z": -0.2951001983,
				"element": "H" 
			},
			{
				"x": 1.4820959412,
				"y": 1.8259503243,
				"z": -1.6187310751,
				"element": "H" 
			},
			{
				"x": -1.0638728773,
				"y": -0.0977827011,
				"z": -0.370316383,
				"element": "H" 
			},
			{
				"x": 1.647657777,
				"y": -2.5828335038,
				"z": -0.8945832273,
				"element": "H" 
			},
			{
				"x": 1.3284288609,
				"y": -4.9708740499,
				"z": -0.3178736644,
				"element": "H" 
			},
			{
				"x": -0.8119135502,
				"y": -5.7561581423,
				"z": 0.6766337434,
				"element": "H" 
			},
			{
				"x": -2.6375497343,
				"y": -4.1107279898,
				"z": 1.1006545663,
				"element": "H" 
			},
			{
				"x": -2.3137816542,
				"y": -1.728705526,
				"z": 0.5468247872,
				"element": "H" 
			},
			{
				"x": -1.2524703404,
				"y": 1.7662127293,
				"z": -1.6898227906,
				"element": "H" 
			}
		],
		 "valence_orbital": [ 
			{
				"type": "occ",
				"energy": -0.3063,
				"method": "rhf"
			},
			{
				"type": "occ",
				"energy": -0.28612,
				"method": "rhf"
			},
			{
				"type": "occ",
				"energy": -0.26722,
				"method": "rhf"
			},
			{
				"type": "occ",
				"energy": -0.25342,
				"method": "rhf"
			},
			{
				"type": "occ",
				"energy": -0.22581,
				"method": "rhf"
			},
			{
				"type": "unocc",
				"energy": -0.01402,
				"method": "rhf"
			},
			{
				"type": "unocc",
				"energy": -0.00975,
				"method": "rhf"
			},
			{
				"type": "unocc",
				"energy": -0.00394,
				"method": "rhf"
			},
			{
				"type": "unocc",
				"energy": 0.03675,
				"method": "rhf"
			},
			{
				"type": "unocc",
				"energy": 0.06344,
				"method": "rhf"
			}
		],
		"cosmo_sigma_profile": { 
			"-0.025": 0.0,
			"-0.024": 0.0,
			"-0.023": 0.0,
			"-0.022": 0.0,
			"-0.021": 0.0,
			"-0.02": 0.0,
			"-0.019": 0.0,
			"-0.018": 0.0,
			"-0.017": 0.0,
			"-0.016": 0.0,
			"-0.015": 0.0427711668014,
			"-0.014": 1.24005821478,
			"-0.013": 2.48705346271,
			"-0.012": 3.54860679117,
			"-0.011": 3.80893210579,
			"-0.01": 4.58597759282,
			"-0.009": 7.75032176268,
			"-0.008": 5.76677530696,
			"-0.007": 5.17948298754,
			"-0.006": 9.58776163311,
			"-0.005": 13.6023932336,
			"-0.004": 16.9031179897,
			"-0.003": 17.8937549281,
			"-0.002": 15.6661572335,
			"-0.001": 15.5600420441,
			"0.0": 13.6081622732,
			"0.001": 10.3617840591,
			"0.002": 10.8220469226,
			"0.003": 12.8025818523,
			"0.004": 13.5730019312,
			"0.005": 12.0528703621,
			"0.006": 10.041931899,
			"0.007": 4.4871610346,
			"0.008": 4.71040638628,
			"0.009": 4.92857084161,
			"0.01": 6.06333136081,
			"0.011": 7.68158422206,
			"0.012": 6.63840661507,
			"0.013": 2.8719285214,
			"0.014": 0.0954954823522,
			"0.015": 0.0,
			"0.016": 0.0,
			"0.017": 0.0,
			"0.018": 0.0,
			"0.019": 0.0,
			"0.02": 0.0,
			"0.021": 0.0,
			"0.022": 0.0,
			"0.023": 0.0,
			"0.024": 0.0,
			"0.025": 0.0
		}
	}
}
