{
	 "smiles": "CC1(O)CCC2C3CCC4CC(O)CCC4(C)C3CCC12C", 
	 "Tm": 437.15, 
	 "num_atms": 56, 
	 "gaussian": { 
		 "optdone": 1, 
		 "sigma_profile": "yes", 
		 "theory": "DFT", 
		 "functional": "B3LYP", 
		 "basiset": "6-31G**", 
		 "properties": { 
			 "R2extent": 7408.8306, 
			 "electric_dipole_moment_norm": 1.98103856853, 
			 "electric_quadrupole_moment_norm": 14.4935108804, 
			 "total_energy": -933.068122558, 
			 "HOMO_LUMO_gap": 0.31309, 
			 "cosmo_polarized_energy": -11.03, 
			 "cosmo_cavitation_energy": 44.69, 
			 "cosmo_dispersion_energy": -32.05, 
			 "cosmo_repulsion_energy": 2.32, 
			 "cosmo_total_nonelectrostatic_energy": 14.96, 
			 "SMD_solvation_energy": 5.99 
		},
		"coords": [
			{
				"x": 1.8234299328,
				"y": 0.1948538655,
				"z": -2.9767721591,
				"element": "C" 
			},
			{
				"x": 0.9768097283,
				"y": -1.0692235627,
				"z": -2.759387573,
				"element": "C" 
			},
			{
				"x": 0.241207283,
				"y": -1.3159556906,
				"z": -3.9638517842,
				"element": "O" 
			},
			{
				"x": 1.8718533743,
				"y": -2.2615429411,
				"z": -2.3542476786,
				"element": "C" 
			},
			{
				"x": 2.0013299732,
				"y": -2.1748753336,
				"z": -0.8186887933,
				"element": "C" 
			},
			{
				"x": 0.7998197952,
				"y": -1.3110147753,
				"z": -0.3002143529,
				"element": "C" 
			},
			{
				"x": 1.3058616722,
				"y": -0.0936046518,
				"z": 0.5177588955,
				"element": "C" 
			},
			{
				"x": 1.9230316857,
				"y": -0.5234897763,
				"z": 1.8643218526,
				"element": "C" 
			},
			{
				"x": 0.8533924132,
				"y": -0.8553665438,
				"z": 2.9073231287,
				"element": "C" 
			},
			{
				"x": -0.0748655902,
				"y": 0.335694082,
				"z": 3.2093706178,
				"element": "C" 
			},
			{
				"x": 0.5940003694,
				"y": 1.4068280852,
				"z": 4.1294036766,
				"element": "C" 
			},
			{
				"x": 0.9604605563,
				"y": 2.7274434753,
				"z": 3.4596561251,
				"element": "C" 
			},
			{
				"x": 1.4614112078,
				"y": 3.5819373464,
				"z": 4.4916652559,
				"element": "O" 
			},
			{
				"x": -0.2589036193,
				"y": 3.3495033049,
				"z": 2.7433426845,
				"element": "C" 
			},
			{
				"x": -1.310653656,
				"y": 2.3126747432,
				"z": 2.2850626653,
				"element": "C" 
			},
			{
				"x": -0.7430554776,
				"y": 0.918294937,
				"z": 1.9071365299,
				"element": "C" 
			},
			{
				"x": -1.9516518178,
				"y": 0.0240336913,
				"z": 1.5547408835,
				"element": "C" 
			},
			{
				"x": 0.2897479581,
				"y": 1.0644051136,
				"z": 0.724737628,
				"element": "C" 
			},
			{
				"x": -0.2840980697,
				"y": 1.4725643877,
				"z": -0.6540928709,
				"element": "C" 
			},
			{
				"x": -0.8578660887,
				"y": 0.3339974659,
				"z": -1.5180702606,
				"element": "C" 
			},
			{
				"x": -0.0558378842,
				"y": -0.9925981722,
				"z": -1.5764293048,
				"element": "C" 
			},
			{
				"x": -1.0896266014,
				"y": -2.1326138999,
				"z": -1.7621247355,
				"element": "C" 
			},
			{
				"x": 2.5045744012,
				"y": 0.02958295,
				"z": -3.8221046904,
				"element": "H" 
			},
			{
				"x": 1.1966508349,
				"y": 1.0565074192,
				"z": -3.2191505842,
				"element": "H" 
			},
			{
				"x": 2.4448230396,
				"y": 0.4452905484,
				"z": -2.1137276829,
				"element": "H" 
			},
			{
				"x": 0.8694170099,
				"y": -1.3045920253,
				"z": -4.6975334993,
				"element": "H" 
			},
			{
				"x": 2.8450945936,
				"y": -2.2384760971,
				"z": -2.8583273596,
				"element": "H" 
			},
			{
				"x": 1.3745535646,
				"y": -3.1855666747,
				"z": -2.6622481235,
				"element": "H" 
			},
			{
				"x": 2.0196426459,
				"y": -3.1695063228,
				"z": -0.3631564384,
				"element": "H" 
			},
			{
				"x": 2.9486109655,
				"y": -1.6968801893,
				"z": -0.5448946454,
				"element": "H" 
			},
			{
				"x": 0.1820818233,
				"y": -1.9236982222,
				"z": 0.3647101016,
				"element": "H" 
			},
			{
				"x": 2.1186662951,
				"y": 0.354445552,
				"z": -0.0708068039,
				"element": "H" 
			},
			{
				"x": 2.555556767,
				"y": 0.2908140693,
				"z": 2.2430300171,
				"element": "H" 
			},
			{
				"x": 2.5904977818,
				"y": -1.3815229523,
				"z": 1.7214414102,
				"element": "H" 
			},
			{
				"x": 1.3254050696,
				"y": -1.190262897,
				"z": 3.8392971305,
				"element": "H" 
			},
			{
				"x": 0.2517451422,
				"y": -1.7034428887,
				"z": 2.5567295612,
				"element": "H" 
			},
			{
				"x": -0.906147745,
				"y": -0.0682697847,
				"z": 3.800481817,
				"element": "H" 
			},
			{
				"x": 1.4924510516,
				"y": 0.9955771784,
				"z": 4.6028286843,
				"element": "H" 
			},
			{
				"x": -0.0887497958,
				"y": 1.6587826469,
				"z": 4.9500260502,
				"element": "H" 
			},
			{
				"x": 1.7649478966,
				"y": 2.5482863528,
				"z": 2.7307382478,
				"element": "H" 
			},
			{
				"x": 1.7176486445,
				"y": 4.418186638,
				"z": 4.0814043962,
				"element": "H" 
			},
			{
				"x": 0.0812754811,
				"y": 3.9563927143,
				"z": 1.8946098983,
				"element": "H" 
			},
			{
				"x": -0.7285893853,
				"y": 4.0404360339,
				"z": 3.4529363707,
				"element": "H" 
			},
			{
				"x": -2.0281661353,
				"y": 2.1531295961,
				"z": 3.1005457614,
				"element": "H" 
			},
			{
				"x": -1.8968663967,
				"y": 2.7244754026,
				"z": 1.4555938766,
				"element": "H" 
			},
			{
				"x": -2.6194038459,
				"y": -0.0587335723,
				"z": 2.419855112,
				"element": "H" 
			},
			{
				"x": -1.659445194,
				"y": -0.989743449,
				"z": 1.26917325,
				"element": "H" 
			},
			{
				"x": -2.5405264334,
				"y": 0.4459139413,
				"z": 0.7364076883,
				"element": "H" 
			},
			{
				"x": 0.9214748704,
				"y": 1.9083856716,
				"z": 1.0196862154,
				"element": "H" 
			},
			{
				"x": -1.054391241,
				"y": 2.2445385165,
				"z": -0.5382493965,
				"element": "H" 
			},
			{
				"x": 0.5336273989,
				"y": 1.9591088577,
				"z": -1.1991734112,
				"element": "H" 
			},
			{
				"x": -1.0005355266,
				"y": 0.6937075592,
				"z": -2.5447766187,
				"element": "H" 
			},
			{
				"x": -1.8635335706,
				"y": 0.0985317783,
				"z": -1.1613871787,
				"element": "H" 
			},
			{
				"x": -1.6763431068,
				"y": -1.9824735724,
				"z": -2.6707572291,
				"element": "H" 
			},
			{
				"x": -1.772085552,
				"y": -2.1500314272,
				"z": -0.9059804967,
				"element": "H" 
			},
			{
				"x": -0.6216584934,
				"y": -3.1188385021,
				"z": -1.8295618607,
				"element": "H" 
			}
		],
		 "valence_orbital": [ 
			{
				"type": "occ",
				"energy": -0.27789,
				"method": "rhf"
			},
			{
				"type": "occ",
				"energy": -0.27184,
				"method": "rhf"
			},
			{
				"type": "occ",
				"energy": -0.26637,
				"method": "rhf"
			},
			{
				"type": "occ",
				"energy": -0.25522,
				"method": "rhf"
			},
			{
				"type": "occ",
				"energy": -0.25358,
				"method": "rhf"
			},
			{
				"type": "unocc",
				"energy": 0.05951,
				"method": "rhf"
			},
			{
				"type": "unocc",
				"energy": 0.07248,
				"method": "rhf"
			},
			{
				"type": "unocc",
				"energy": 0.07582,
				"method": "rhf"
			},
			{
				"type": "unocc",
				"energy": 0.08615,
				"method": "rhf"
			},
			{
				"type": "unocc",
				"energy": 0.09141,
				"method": "rhf"
			}
		],
		"cosmo_sigma_profile": { 
			"-0.025": 0.0,
			"-0.024": 0.0,
			"-0.023": 0.0,
			"-0.022": 0.0,
			"-0.021": 0.0,
			"-0.02": 0.0,
			"-0.019": 0.0,
			"-0.018": 0.0,
			"-0.017": 0.0,
			"-0.016": 0.0,
			"-0.015": 0.593338178188,
			"-0.014": 2.06472539035,
			"-0.013": 1.42191186821,
			"-0.012": 1.69519697332,
			"-0.011": 2.06046078328,
			"-0.01": 2.05426906282,
			"-0.009": 0.927145459843,
			"-0.008": 1.28984356649,
			"-0.007": 2.37282816535,
			"-0.006": 2.12999959665,
			"-0.005": 2.68460782168,
			"-0.004": 4.54841728091,
			"-0.003": 18.8434775789,
			"-0.002": 53.0533555025,
			"-0.001": 70.2479370702,
			"0.0": 54.7751778473,
			"0.001": 48.8216117324,
			"0.002": 29.9961744943,
			"0.003": 6.49420704213,
			"0.004": 3.66778825729,
			"0.005": 2.92933829983,
			"0.006": 2.84242556733,
			"0.007": 2.99716923699,
			"0.008": 3.06448497947,
			"0.009": 2.47797774248,
			"0.01": 2.92527738789,
			"0.011": 3.07881646639,
			"0.012": 2.52877891544,
			"0.013": 3.11651058479,
			"0.014": 2.2361542087,
			"0.015": 1.65313713958,
			"0.016": 0.0,
			"0.017": 0.0,
			"0.018": 0.0,
			"0.019": 0.0,
			"0.02": 0.0,
			"0.021": 0.0,
			"0.022": 0.0,
			"0.023": 0.0,
			"0.024": 0.0,
			"0.025": 0.0
		}
	}
}
