{
	 "smiles": "COC(=O)C1=CC(=CC(Br)=C1)C(=O)OC", 
	 "Tm": 363.15, 
	 "num_atms": 24, 
	 "gaussian": { 
		 "optdone": 1, 
		 "sigma_profile": "yes", 
		 "theory": "DFT", 
		 "functional": "B3LYP", 
		 "basiset": "6-31G**", 
		 "properties": { 
			 "R2extent": 6930.4189, 
			 "electric_dipole_moment_norm": 2.05731837351, 
			 "electric_quadrupole_moment_norm": 14.740119587, 
			 "total_energy": -3258.80927606, 
			 "HOMO_LUMO_gap": 0.18802, 
			 "cosmo_polarized_energy": -9.92, 
			 "cosmo_cavitation_energy": 32.13, 
			 "cosmo_dispersion_energy": -23.54, 
			 "cosmo_repulsion_energy": 1.86, 
			 "cosmo_total_nonelectrostatic_energy": 10.45, 
			 "SMD_solvation_energy": 7.61 
		},
		"coords": [
			{
				"x": -3.7636291677,
				"y": -0.1999115782,
				"z": 2.2418913384,
				"element": "C" 
			},
			{
				"x": -2.3911054345,
				"y": 0.2266186492,
				"z": 2.2081225545,
				"element": "O" 
			},
			{
				"x": -1.6469771995,
				"y": -0.3063538732,
				"z": 1.2159536467,
				"element": "C" 
			},
			{
				"x": -2.0833326245,
				"y": -1.0914563168,
				"z": 0.3980848737,
				"element": "O" 
			},
			{
				"x": -0.234383097,
				"y": 0.1802526105,
				"z": 1.2403666905,
				"element": "C" 
			},
			{
				"x": 0.6378809316,
				"y": -0.3010377695,
				"z": 0.2587171593,
				"element": "C" 
			},
			{
				"x": 1.9676489831,
				"y": 0.1265857184,
				"z": 0.2428410513,
				"element": "C" 
			},
			{
				"x": 2.4288641277,
				"y": 1.0345772655,
				"z": 1.2058627427,
				"element": "C" 
			},
			{
				"x": 1.5483397087,
				"y": 1.5031612213,
				"z": 2.1748170538,
				"element": "C" 
			},
			{
				"x": 2.1715834748,
				"y": 2.7406583064,
				"z": 3.4897025805,
				"element": "Br" 
			},
			{
				"x": 0.2189173675,
				"y": 1.0881676275,
				"z": 2.2066441009,
				"element": "C" 
			},
			{
				"x": 2.9526566004,
				"y": -0.3472074253,
				"z": -0.7767315454,
				"element": "C" 
			},
			{
				"x": 4.114627727,
				"y": 0.0060068359,
				"z": -0.8170377798,
				"element": "O" 
			},
			{
				"x": 2.4052481425,
				"y": -1.2146871306,
				"z": -1.6516588977,
				"element": "O" 
			},
			{
				"x": 3.2978010275,
				"y": -1.7123285157,
				"z": -2.6628816643,
				"element": "C" 
			},
			{
				"x": -3.8248173046,
				"y": -1.2828457629,
				"z": 2.3746160781,
				"element": "H" 
			},
			{
				"x": -4.2714367431,
				"y": 0.0702581686,
				"z": 1.3127795903,
				"element": "H" 
			},
			{
				"x": -4.2108612035,
				"y": 0.3178189512,
				"z": 3.0897439274,
				"element": "H" 
			},
			{
				"x": 0.2679953395,
				"y": -1.0019958985,
				"z": -0.4788678077,
				"element": "H" 
			},
			{
				"x": 3.4637047511,
				"y": 1.3539690505,
				"z": 1.1764370688,
				"element": "H" 
			},
			{
				"x": -0.4582518832,
				"y": 1.4589522665,
				"z": 2.9650791746,
				"element": "H" 
			},
			{
				"x": 3.6886194904,
				"y": -0.8897696061,
				"z": -3.2668853593,
				"element": "H" 
			},
			{
				"x": 2.7006020805,
				"y": -2.3887220715,
				"z": -3.2733025637,
				"element": "H" 
			},
			{
				"x": 4.1365049054,
				"y": -2.2430107233,
				"z": -2.2055940135,
				"element": "H" 
			}
		],
		 "valence_orbital": [ 
			{
				"type": "occ",
				"energy": -0.29634,
				"method": "rhf"
			},
			{
				"type": "occ",
				"energy": -0.28681,
				"method": "rhf"
			},
			{
				"type": "occ",
				"energy": -0.28147,
				"method": "rhf"
			},
			{
				"type": "occ",
				"energy": -0.2786,
				"method": "rhf"
			},
			{
				"type": "occ",
				"energy": -0.25613,
				"method": "rhf"
			},
			{
				"type": "unocc",
				"energy": -0.06811,
				"method": "rhf"
			},
			{
				"type": "unocc",
				"energy": -0.04961,
				"method": "rhf"
			},
			{
				"type": "unocc",
				"energy": -0.00083,
				"method": "rhf"
			},
			{
				"type": "unocc",
				"energy": 0.01802,
				"method": "rhf"
			},
			{
				"type": "unocc",
				"energy": 0.07073,
				"method": "rhf"
			}
		],
		"cosmo_sigma_profile": { 
			"-0.025": 0.0,
			"-0.024": 0.0,
			"-0.023": 0.0,
			"-0.022": 0.0,
			"-0.021": 0.0,
			"-0.02": 0.0,
			"-0.019": 0.0,
			"-0.018": 0.0,
			"-0.017": 0.0,
			"-0.016": 0.0,
			"-0.015": 0.0,
			"-0.014": 0.0,
			"-0.013": 0.0,
			"-0.012": 0.0,
			"-0.011": 0.0,
			"-0.01": 0.0,
			"-0.009": 0.0,
			"-0.008": 0.0593680879738,
			"-0.007": 4.08245740593,
			"-0.006": 14.9223086464,
			"-0.005": 17.4605016687,
			"-0.004": 24.2163330809,
			"-0.003": 25.9311099237,
			"-0.002": 20.5342155863,
			"-0.001": 26.774349563,
			"0.0": 31.654817481,
			"0.001": 16.7644748602,
			"0.002": 12.5511936468,
			"0.003": 14.666915368,
			"0.004": 17.0288604523,
			"0.005": 6.12967983441,
			"0.006": 2.61149577668,
			"0.007": 2.83909244315,
			"0.008": 2.7896302505,
			"0.009": 3.67827947479,
			"0.01": 3.69766188074,
			"0.011": 8.49766636742,
			"0.012": 3.60848230218,
			"0.013": 0.0,
			"0.014": 0.0,
			"0.015": 0.0,
			"0.016": 0.0,
			"0.017": 0.0,
			"0.018": 0.0,
			"0.019": 0.0,
			"0.02": 0.0,
			"0.021": 0.0,
			"0.022": 0.0,
			"0.023": 0.0,
			"0.024": 0.0,
			"0.025": 0.0
		}
	}
}
