{
	 "smiles": "CC1=NC2=C(C=CC=C2)C(=C1)C(=O)NN", 
	 "Tm": 451.15, 
	 "num_atms": 26, 
	 "gaussian": { 
		 "optdone": 1, 
		 "sigma_profile": "yes", 
		 "theory": "DFT", 
		 "functional": "B3LYP", 
		 "basiset": "6-31G**", 
		 "properties": { 
			 "R2extent": 3402.6699, 
			 "electric_dipole_moment_norm": 1.68665757936, 
			 "electric_quadrupole_moment_norm": 8.28358500107, 
			 "total_energy": -665.273685166, 
			 "HOMO_LUMO_gap": 0.16988, 
			 "cosmo_polarized_energy": -13.82, 
			 "cosmo_cavitation_energy": 29.98, 
			 "cosmo_dispersion_energy": -22.01, 
			 "cosmo_repulsion_energy": 1.73, 
			 "cosmo_total_nonelectrostatic_energy": 9.7, 
			 "SMD_solvation_energy": 4.74 
		},
		"coords": [
			{
				"x": 3.2224257114,
				"y": -2.3080112195,
				"z": -0.6798991452,
				"element": "C" 
			},
			{
				"x": 1.9748083849,
				"y": -1.4633973265,
				"z": -0.6204016075,
				"element": "C" 
			},
			{
				"x": 1.7806426016,
				"y": -0.5833709773,
				"z": -1.5847018062,
				"element": "N" 
			},
			{
				"x": 0.6687669782,
				"y": 0.2077424949,
				"z": -1.5364342459,
				"element": "C" 
			},
			{
				"x": -0.3224739612,
				"y": 0.1161639434,
				"z": -0.5021496212,
				"element": "C" 
			},
			{
				"x": -1.405556056,
				"y": 1.0383629536,
				"z": -0.5229802185,
				"element": "C" 
			},
			{
				"x": -1.5212647094,
				"y": 1.969266858,
				"z": -1.5332611552,
				"element": "C" 
			},
			{
				"x": -0.5625311685,
				"y": 2.0311352571,
				"z": -2.5709482879,
				"element": "C" 
			},
			{
				"x": 0.5120524504,
				"y": 1.1713894708,
				"z": -2.5673453462,
				"element": "C" 
			},
			{
				"x": -0.1046452498,
				"y": -0.8853172982,
				"z": 0.5005859193,
				"element": "C" 
			},
			{
				"x": 1.0487814184,
				"y": -1.6358233907,
				"z": 0.4445773349,
				"element": "C" 
			},
			{
				"x": -1.0381085563,
				"y": -1.2075644953,
				"z": 1.6405033442,
				"element": "C" 
			},
			{
				"x": -0.6254898772,
				"y": -1.5575946613,
				"z": 2.7416941051,
				"element": "O" 
			},
			{
				"x": -2.3830381093,
				"y": -1.1562352476,
				"z": 1.3652367665,
				"element": "N" 
			},
			{
				"x": -3.3143929167,
				"y": -1.6745231576,
				"z": 2.292008331,
				"element": "N" 
			},
			{
				"x": 3.8424268997,
				"y": -2.1543523542,
				"z": 0.2109697933,
				"element": "H" 
			},
			{
				"x": 2.9756241747,
				"y": -3.3753165735,
				"z": -0.7191862766,
				"element": "H" 
			},
			{
				"x": 3.8031993183,
				"y": -2.0455982709,
				"z": -1.5651956289,
				"element": "H" 
			},
			{
				"x": -2.1350082269,
				"y": 1.0218196494,
				"z": 0.2783609339,
				"element": "H" 
			},
			{
				"x": -2.3527483221,
				"y": 2.6679977646,
				"z": -1.5266634227,
				"element": "H" 
			},
			{
				"x": -0.6705817581,
				"y": 2.7678387955,
				"z": -3.3615834573,
				"element": "H" 
			},
			{
				"x": 1.2773120247,
				"y": 1.2038367731,
				"z": -3.3357998959,
				"element": "H" 
			},
			{
				"x": 1.2360331743,
				"y": -2.3710910555,
				"z": 1.2201801034,
				"element": "H" 
			},
			{
				"x": -2.6917165629,
				"y": -1.1877835144,
				"z": 0.4031361908,
				"element": "H" 
			},
			{
				"x": -3.5150215668,
				"y": -0.9357599786,
				"z": 2.9655903533,
				"element": "H" 
			},
			{
				"x": -2.8201960954,
				"y": -2.3929144391,
				"z": 2.8244069396,
				"element": "H" 
			}
		],
		 "valence_orbital": [ 
			{
				"type": "occ",
				"energy": -0.26972,
				"method": "rhf"
			},
			{
				"type": "occ",
				"energy": -0.26004,
				"method": "rhf"
			},
			{
				"type": "occ",
				"energy": -0.25579,
				"method": "rhf"
			},
			{
				"type": "occ",
				"energy": -0.25099,
				"method": "rhf"
			},
			{
				"type": "occ",
				"energy": -0.23563,
				"method": "rhf"
			},
			{
				"type": "unocc",
				"energy": -0.06575,
				"method": "rhf"
			},
			{
				"type": "unocc",
				"energy": -0.02201,
				"method": "rhf"
			},
			{
				"type": "unocc",
				"energy": -0.00485,
				"method": "rhf"
			},
			{
				"type": "unocc",
				"energy": 0.04176,
				"method": "rhf"
			},
			{
				"type": "unocc",
				"energy": 0.08016,
				"method": "rhf"
			}
		],
		"cosmo_sigma_profile": { 
			"-0.025": 0.0,
			"-0.024": 0.0,
			"-0.023": 0.0,
			"-0.022": 0.0,
			"-0.021": 0.0,
			"-0.02": 0.0,
			"-0.019": 0.0,
			"-0.018": 0.0,
			"-0.017": 0.0,
			"-0.016": 0.0,
			"-0.015": 0.0587953253046,
			"-0.014": 0.589174193905,
			"-0.013": 1.04808888586,
			"-0.012": 1.62001200076,
			"-0.011": 2.36702536669,
			"-0.01": 3.5309809845,
			"-0.009": 3.41524279241,
			"-0.008": 3.36451520422,
			"-0.007": 3.66353788945,
			"-0.006": 9.61362752513,
			"-0.005": 17.2504537466,
			"-0.004": 19.7071579945,
			"-0.003": 18.9040965622,
			"-0.002": 17.5759026006,
			"-0.001": 17.343185454,
			"0.0": 20.0626777927,
			"0.001": 17.0984161043,
			"0.002": 14.888395864,
			"0.003": 14.6897035815,
			"0.004": 13.3094928932,
			"0.005": 5.22198324368,
			"0.006": 4.06832296235,
			"0.007": 2.8008912859,
			"0.008": 3.14057769971,
			"0.009": 3.92061026279,
			"0.01": 2.41037778037,
			"0.011": 3.5443310745,
			"0.012": 4.46224279534,
			"0.013": 5.63477189846,
			"0.014": 1.79536903337,
			"0.015": 0.976824482017,
			"0.016": 0.802638434425,
			"0.017": 0.0254882901935,
			"0.018": 0.0,
			"0.019": 0.0,
			"0.02": 0.0,
			"0.021": 0.0,
			"0.022": 0.0,
			"0.023": 0.0,
			"0.024": 0.0,
			"0.025": 0.0
		}
	}
}
