{
	 "smiles": "CC1(C)CCCC(C)(C)N1O", 
	 "Tm": 310.15, 
	 "num_atms": 30, 
	 "gaussian": { 
		 "optdone": 1, 
		 "sigma_profile": "yes", 
		 "theory": "DFT", 
		 "functional": "B3LYP", 
		 "basiset": "6-31G**", 
		 "properties": { 
			 "R2extent": 2158.1203, 
			 "electric_dipole_moment_norm": 0.745346369147, 
			 "electric_quadrupole_moment_norm": 4.09684760395, 
			 "total_energy": -484.347751943, 
			 "HOMO_LUMO_gap": 0.28187, 
			 "cosmo_polarized_energy": -4.76, 
			 "cosmo_cavitation_energy": 27.67, 
			 "cosmo_dispersion_energy": -20.07, 
			 "cosmo_repulsion_energy": 1.56, 
			 "cosmo_total_nonelectrostatic_energy": 9.16, 
			 "SMD_solvation_energy": 4.29 
		},
		"coords": [
			{
				"x": 1.5830370158,
				"y": -1.9656883707,
				"z": -1.278756094,
				"element": "C" 
			},
			{
				"x": 1.2695923299,
				"y": -0.5306429369,
				"z": -0.7949889458,
				"element": "C" 
			},
			{
				"x": 2.2347344249,
				"y": 0.4386264312,
				"z": -1.5054490529,
				"element": "C" 
			},
			{
				"x": -0.1810423464,
				"y": -0.1235426861,
				"z": -1.1405452047,
				"element": "C" 
			},
			{
				"x": -1.2263843254,
				"y": -0.7957731181,
				"z": -0.2469349376,
				"element": "C" 
			},
			{
				"x": -0.921136896,
				"y": -0.488251344,
				"z": 1.2212216822,
				"element": "C" 
			},
			{
				"x": 0.5035013448,
				"y": -0.9083272801,
				"z": 1.6489904995,
				"element": "C" 
			},
			{
				"x": 0.8190016898,
				"y": -0.2595317518,
				"z": 3.0110812294,
				"element": "C" 
			},
			{
				"x": 0.6154559255,
				"y": -2.4425964703,
				"z": 1.8070847533,
				"element": "C" 
			},
			{
				"x": 1.4498566458,
				"y": -0.3058133393,
				"z": 0.6675198505,
				"element": "N" 
			},
			{
				"x": 2.7845134727,
				"y": -0.7455857805,
				"z": 1.0180290854,
				"element": "O" 
			},
			{
				"x": 1.6693195328,
				"y": -1.9767389106,
				"z": -2.3705929094,
				"element": "H" 
			},
			{
				"x": 0.8105666359,
				"y": -2.6868353724,
				"z": -1.005356786,
				"element": "H" 
			},
			{
				"x": 2.5334236977,
				"y": -2.3028756953,
				"z": -0.8591497657,
				"element": "H" 
			},
			{
				"x": 2.0562211529,
				"y": 0.4302117522,
				"z": -2.5857393687,
				"element": "H" 
			},
			{
				"x": 3.2747531457,
				"y": 0.1508346985,
				"z": -1.3314272964,
				"element": "H" 
			},
			{
				"x": 2.08813081,
				"y": 1.4588861894,
				"z": -1.1371517155,
				"element": "H" 
			},
			{
				"x": -0.2705540882,
				"y": 0.9646935051,
				"z": -1.0280934978,
				"element": "H" 
			},
			{
				"x": -0.3615233302,
				"y": -0.3503811665,
				"z": -2.1979979885,
				"element": "H" 
			},
			{
				"x": -2.2284673676,
				"y": -0.4332718582,
				"z": -0.5050199675,
				"element": "H" 
			},
			{
				"x": -1.2407883497,
				"y": -1.8785846676,
				"z": -0.4187369595,
				"element": "H" 
			},
			{
				"x": -1.6413425698,
				"y": -0.9806877857,
				"z": 1.8853306035,
				"element": "H" 
			},
			{
				"x": -1.0257731401,
				"y": 0.5924399014,
				"z": 1.3826554199,
				"element": "H" 
			},
			{
				"x": 0.8162363902,
				"y": 0.8314119736,
				"z": 2.9221515629,
				"element": "H" 
			},
			{
				"x": 1.7986617587,
				"y": -0.5774128172,
				"z": 3.3770653262,
				"element": "H" 
			},
			{
				"x": 0.0685057986,
				"y": -0.5493982404,
				"z": 3.7538497439,
				"element": "H" 
			},
			{
				"x": 0.0779350658,
				"y": -2.7613566481,
				"z": 2.7066139097,
				"element": "H" 
			},
			{
				"x": 0.1927935708,
				"y": -2.9909549667,
				"z": 0.9631779304,
				"element": "H" 
			},
			{
				"x": 1.6629587231,
				"y": -2.7320282551,
				"z": 1.9163921342,
				"element": "H" 
			},
			{
				"x": 3.213113282,
				"y": 0.0796750102,
				"z": 1.280276759,
				"element": "H" 
			}
		],
		 "valence_orbital": [ 
			{
				"type": "occ",
				"energy": -0.31616,
				"method": "rhf"
			},
			{
				"type": "occ",
				"energy": -0.31095,
				"method": "rhf"
			},
			{
				"type": "occ",
				"energy": -0.29689,
				"method": "rhf"
			},
			{
				"type": "occ",
				"energy": -0.27426,
				"method": "rhf"
			},
			{
				"type": "occ",
				"energy": -0.21017,
				"method": "rhf"
			},
			{
				"type": "unocc",
				"energy": 0.0717,
				"method": "rhf"
			},
			{
				"type": "unocc",
				"energy": 0.08233,
				"method": "rhf"
			},
			{
				"type": "unocc",
				"energy": 0.11048,
				"method": "rhf"
			},
			{
				"type": "unocc",
				"energy": 0.11619,
				"method": "rhf"
			},
			{
				"type": "unocc",
				"energy": 0.12001,
				"method": "rhf"
			}
		],
		"cosmo_sigma_profile": { 
			"-0.025": 0.0,
			"-0.024": 0.0,
			"-0.023": 0.0,
			"-0.022": 0.0,
			"-0.021": 0.0,
			"-0.02": 0.0,
			"-0.019": 0.0,
			"-0.018": 0.0,
			"-0.017": 0.0,
			"-0.016": 0.0,
			"-0.015": 0.38873545223,
			"-0.014": 0.652381497665,
			"-0.013": 1.00072273371,
			"-0.012": 1.00963904601,
			"-0.011": 0.0856879813828,
			"-0.01": 0.187161824718,
			"-0.009": 0.956190072726,
			"-0.008": 0.651755711267,
			"-0.007": 0.972136212452,
			"-0.006": 0.826926750317,
			"-0.005": 1.36910179477,
			"-0.004": 3.10231362429,
			"-0.003": 12.8507764462,
			"-0.002": 33.0386818045,
			"-0.001": 34.4280792504,
			"0.0": 36.4421428453,
			"0.001": 37.4943845881,
			"0.002": 22.7136892121,
			"0.003": 5.20905397731,
			"0.004": 2.69899461821,
			"0.005": 2.78083463464,
			"0.006": 1.8068055372,
			"0.007": 2.42021823386,
			"0.008": 2.26871215008,
			"0.009": 2.02068753081,
			"0.01": 1.66467591327,
			"0.011": 1.32295533557,
			"0.012": 0.671855823594,
			"0.013": 0.19335260669,
			"0.014": 0.00479876055476,
			"0.015": 0.0,
			"0.016": 0.0,
			"0.017": 0.0,
			"0.018": 0.0,
			"0.019": 0.0,
			"0.02": 0.0,
			"0.021": 0.0,
			"0.022": 0.0,
			"0.023": 0.0,
			"0.024": 0.0,
			"0.025": 0.0
		}
	}
}
