{
	 "smiles": "CCOC(=O)C1=C(N)SC=C1C1=CC=C(C)S1", 
	 "Tm": 367.15, 
	 "num_atms": 30, 
	 "gaussian": { 
		 "optdone": 1, 
		 "sigma_profile": "yes", 
		 "theory": "DFT", 
		 "functional": "B3LYP", 
		 "basiset": "6-31G**", 
		 "properties": { 
			 "R2extent": 6838.6996, 
			 "electric_dipole_moment_norm": 0.819905043282, 
			 "electric_quadrupole_moment_norm": 11.6623669553, 
			 "total_energy": -1466.68995699, 
			 "HOMO_LUMO_gap": 0.17087, 
			 "cosmo_polarized_energy": -11.26, 
			 "cosmo_cavitation_energy": 36.89, 
			 "cosmo_dispersion_energy": -26.66, 
			 "cosmo_repulsion_energy": 2.01, 
			 "cosmo_total_nonelectrostatic_energy": 12.24, 
			 "SMD_solvation_energy": 6.54 
		},
		"coords": [
			{
				"x": 0.769802682,
				"y": 0.7909557832,
				"z": 2.2722677221,
				"element": "C" 
			},
			{
				"x": 1.6553277851,
				"y": 1.4032743914,
				"z": 1.2029796129,
				"element": "C" 
			},
			{
				"x": 1.3058036208,
				"y": 0.7827205148,
				"z": -0.0534653834,
				"element": "O" 
			},
			{
				"x": 2.0537275582,
				"y": 1.1360120502,
				"z": -1.1166607653,
				"element": "C" 
			},
			{
				"x": 2.9752269529,
				"y": 1.949185811,
				"z": -1.0128253802,
				"element": "O" 
			},
			{
				"x": 1.7001109404,
				"y": 0.4617663748,
				"z": -2.3653483072,
				"element": "C" 
			},
			{
				"x": 2.553612564,
				"y": 0.6196718511,
				"z": -3.464104088,
				"element": "C" 
			},
			{
				"x": 3.6936064549,
				"y": 1.349860548,
				"z": -3.5186305425,
				"element": "N" 
			},
			{
				"x": 2.0480246822,
				"y": -0.353134414,
				"z": -4.8254443416,
				"element": "S" 
			},
			{
				"x": 0.6698762141,
				"y": -0.9502680988,
				"z": -3.9320031696,
				"element": "C" 
			},
			{
				"x": 0.5970732564,
				"y": -0.4485863297,
				"z": -2.6628333854,
				"element": "C" 
			},
			{
				"x": -0.5344114299,
				"y": -0.8036381383,
				"z": -1.7931942206,
				"element": "C" 
			},
			{
				"x": -1.3761592912,
				"y": -0.0043914654,
				"z": -1.0624238272,
				"element": "C" 
			},
			{
				"x": -2.4321862501,
				"y": -0.7202476749,
				"z": -0.4259393124,
				"element": "C" 
			},
			{
				"x": -2.4100893896,
				"y": -2.070448065,
				"z": -0.66098867,
				"element": "C" 
			},
			{
				"x": -3.3526656389,
				"y": -3.1205059155,
				"z": -0.1533750547,
				"element": "C" 
			},
			{
				"x": -1.0558699852,
				"y": -2.477569758,
				"z": -1.6859386597,
				"element": "S" 
			},
			{
				"x": -0.287631373,
				"y": 0.9610444862,
				"z": 2.051969777,
				"element": "H" 
			},
			{
				"x": 0.9985284518,
				"y": 1.2399108908,
				"z": 3.2440844355,
				"element": "H" 
			},
			{
				"x": 0.9334359145,
				"y": -0.2879977676,
				"z": 2.342217875,
				"element": "H" 
			},
			{
				"x": 2.7176530871,
				"y": 1.2316330161,
				"z": 1.401261679,
				"element": "H" 
			},
			{
				"x": 1.5101385298,
				"y": 2.485508481,
				"z": 1.1184365928,
				"element": "H" 
			},
			{
				"x": 4.1184156063,
				"y": 1.5635964083,
				"z": -4.405792018,
				"element": "H" 
			},
			{
				"x": 3.8475038811,
				"y": 1.9519208929,
				"z": -2.7142142393,
				"element": "H" 
			},
			{
				"x": -0.0436451438,
				"y": -1.5929336756,
				"z": -4.4258074184,
				"element": "H" 
			},
			{
				"x": -1.2460652112,
				"y": 1.0680524035,
				"z": -0.9897079647,
				"element": "H" 
			},
			{
				"x": -3.1932194112,
				"y": -0.2477046134,
				"z": 0.1870191664,
				"element": "H" 
			},
			{
				"x": -3.8599762735,
				"y": -3.6474186842,
				"z": -0.969868843,
				"element": "H" 
			},
			{
				"x": -4.1203338927,
				"y": -2.6555141182,
				"z": 0.4717073993,
				"element": "H" 
			},
			{
				"x": -2.8394148912,
				"y": -3.8757551847,
				"z": 0.4532213312,
				"element": "H" 
			}
		],
		 "valence_orbital": [ 
			{
				"type": "occ",
				"energy": -0.26963,
				"method": "rhf"
			},
			{
				"type": "occ",
				"energy": -0.25938,
				"method": "rhf"
			},
			{
				"type": "occ",
				"energy": -0.24075,
				"method": "rhf"
			},
			{
				"type": "occ",
				"energy": -0.21582,
				"method": "rhf"
			},
			{
				"type": "occ",
				"energy": -0.19137,
				"method": "rhf"
			},
			{
				"type": "unocc",
				"energy": -0.0205,
				"method": "rhf"
			},
			{
				"type": "unocc",
				"energy": -0.01586,
				"method": "rhf"
			},
			{
				"type": "unocc",
				"energy": 0.0085,
				"method": "rhf"
			},
			{
				"type": "unocc",
				"energy": 0.02351,
				"method": "rhf"
			},
			{
				"type": "unocc",
				"energy": 0.0444,
				"method": "rhf"
			}
		],
		"cosmo_sigma_profile": { 
			"-0.025": 0.0,
			"-0.024": 0.0,
			"-0.023": 0.0,
			"-0.022": 0.0,
			"-0.021": 0.0,
			"-0.02": 0.0,
			"-0.019": 0.0,
			"-0.018": 0.0,
			"-0.017": 0.0,
			"-0.016": 0.0,
			"-0.015": 0.693324147228,
			"-0.014": 1.58613162894,
			"-0.013": 1.22402730232,
			"-0.012": 1.63410538561,
			"-0.011": 1.06621202043,
			"-0.01": 1.6881576886,
			"-0.009": 2.09669482066,
			"-0.008": 3.14211461669,
			"-0.007": 3.12979293919,
			"-0.006": 5.40524971161,
			"-0.005": 13.3399616376,
			"-0.004": 23.2877717889,
			"-0.003": 26.3465807694,
			"-0.002": 28.373377606,
			"-0.001": 25.4839045728,
			"0.0": 23.6393728911,
			"0.001": 22.3690903748,
			"0.002": 26.0500421995,
			"0.003": 25.2160247375,
			"0.004": 21.174466588,
			"0.005": 15.9901008449,
			"0.006": 8.65754775088,
			"0.007": 3.50645255572,
			"0.008": 3.30103077338,
			"0.009": 2.55278125116,
			"0.01": 2.09597482748,
			"0.011": 1.54954687888,
			"0.012": 2.05554380962,
			"0.013": 0.737333390054,
			"0.014": 0.0,
			"0.015": 0.0,
			"0.016": 0.0,
			"0.017": 0.0,
			"0.018": 0.0,
			"0.019": 0.0,
			"0.02": 0.0,
			"0.021": 0.0,
			"0.022": 0.0,
			"0.023": 0.0,
			"0.024": 0.0,
			"0.025": 0.0
		}
	}
}
