{
	 "smiles": "CC(=O)C1=C(OCC2=CC=CC=C2)C=CC=C1", 
	 "Tm": 312.15, 
	 "num_atms": 31, 
	 "gaussian": { 
		 "optdone": 1, 
		 "sigma_profile": "yes", 
		 "theory": "DFT", 
		 "functional": "B3LYP", 
		 "basiset": "6-31G**", 
		 "properties": { 
			 "R2extent": 5431.2423, 
			 "electric_dipole_moment_norm": 4.79476633529, 
			 "electric_quadrupole_moment_norm": 17.9008618689, 
			 "total_energy": -730.474825255, 
			 "HOMO_LUMO_gap": 0.18358, 
			 "cosmo_polarized_energy": -11.31, 
			 "cosmo_cavitation_energy": 35.14, 
			 "cosmo_dispersion_energy": -24.43, 
			 "cosmo_repulsion_energy": 1.88, 
			 "cosmo_total_nonelectrostatic_energy": 12.6, 
			 "SMD_solvation_energy": 6.7 
		},
		"coords": [
			{
				"x": -2.2916466892,
				"y": 1.785405274,
				"z": -0.5670538178,
				"element": "C" 
			},
			{
				"x": -2.4255492967,
				"y": 1.4225979188,
				"z": -2.0318077779,
				"element": "C" 
			},
			{
				"x": -3.122195337,
				"y": 2.1166363674,
				"z": -2.7615696,
				"element": "O" 
			},
			{
				"x": -1.7210130734,
				"y": 0.2236819962,
				"z": -2.6164325629,
				"element": "C" 
			},
			{
				"x": -0.8780738647,
				"y": -0.6764912596,
				"z": -1.9163224081,
				"element": "C" 
			},
			{
				"x": -0.6752250155,
				"y": -0.4487544317,
				"z": -0.5874867185,
				"element": "O" 
			},
			{
				"x": 0.1740028647,
				"y": -1.3357672336,
				"z": 0.1565144256,
				"element": "C" 
			},
			{
				"x": 0.2220697024,
				"y": -0.8494905423,
				"z": 1.5814912107,
				"element": "C" 
			},
			{
				"x": -0.713623887,
				"y": -1.3037415365,
				"z": 2.5185280585,
				"element": "C" 
			},
			{
				"x": -0.6853436339,
				"y": -0.8359248882,
				"z": 3.8325734439,
				"element": "C" 
			},
			{
				"x": 0.2813665521,
				"y": 0.0935471425,
				"z": 4.2218009726,
				"element": "C" 
			},
			{
				"x": 1.218203185,
				"y": 0.5529922675,
				"z": 3.2937484532,
				"element": "C" 
			},
			{
				"x": 1.1870845672,
				"y": 0.0829984628,
				"z": 1.9805923528,
				"element": "C" 
			},
			{
				"x": -0.2883126897,
				"y": -1.7536877303,
				"z": -2.5957267157,
				"element": "C" 
			},
			{
				"x": -0.5257674842,
				"y": -1.9445706304,
				"z": -3.9559534083,
				"element": "C" 
			},
			{
				"x": -1.3517347481,
				"y": -1.0688334422,
				"z": -4.660632813,
				"element": "C" 
			},
			{
				"x": -1.9345586469,
				"y": -0.0030374182,
				"z": -3.9854803437,
				"element": "C" 
			},
			{
				"x": -1.2469166971,
				"y": 1.9668244406,
				"z": -0.2996438981,
				"element": "H" 
			},
			{
				"x": -2.8899673402,
				"y": 2.6796729009,
				"z": -0.3868902185,
				"element": "H" 
			},
			{
				"x": -2.6289700005,
				"y": 0.9666087029,
				"z": 0.0745699097,
				"element": "H" 
			},
			{
				"x": -0.2275758395,
				"y": -2.3561208052,
				"z": 0.1073289129,
				"element": "H" 
			},
			{
				"x": 1.178253623,
				"y": -1.3401743772,
				"z": -0.2865018581,
				"element": "H" 
			},
			{
				"x": -1.4662298069,
				"y": -2.0276455589,
				"z": 2.2160860604,
				"element": "H" 
			},
			{
				"x": -1.414365354,
				"y": -1.1976029368,
				"z": 4.5518615436,
				"element": "H" 
			},
			{
				"x": 0.3064419398,
				"y": 0.456231878,
				"z": 5.2453355922,
				"element": "H" 
			},
			{
				"x": 1.9732369489,
				"y": 1.2741452107,
				"z": 3.5929514971,
				"element": "H" 
			},
			{
				"x": 1.9169663228,
				"y": 0.4406287452,
				"z": 1.2585744114,
				"element": "H" 
			},
			{
				"x": 0.3566603747,
				"y": -2.4469557876,
				"z": -2.0706861599,
				"element": "H" 
			},
			{
				"x": -0.0584955772,
				"y": -2.7854963701,
				"z": -4.4610725615,
				"element": "H" 
			},
			{
				"x": -1.5374822144,
				"y": -1.2160621768,
				"z": -5.7198011056,
				"element": "H" 
			},
			{
				"x": -2.5828388843,
				"y": 0.700185818,
				"z": -4.4970948768,
				"element": "H" 
			}
		],
		 "valence_orbital": [ 
			{
				"type": "occ",
				"energy": -0.2608,
				"method": "rhf"
			},
			{
				"type": "occ",
				"energy": -0.25997,
				"method": "rhf"
			},
			{
				"type": "occ",
				"energy": -0.25315,
				"method": "rhf"
			},
			{
				"type": "occ",
				"energy": -0.23652,
				"method": "rhf"
			},
			{
				"type": "occ",
				"energy": -0.22797,
				"method": "rhf"
			},
			{
				"type": "unocc",
				"energy": -0.04439,
				"method": "rhf"
			},
			{
				"type": "unocc",
				"energy": -0.01949,
				"method": "rhf"
			},
			{
				"type": "unocc",
				"energy": -0.01215,
				"method": "rhf"
			},
			{
				"type": "unocc",
				"energy": 0.00745,
				"method": "rhf"
			},
			{
				"type": "unocc",
				"energy": 0.04609,
				"method": "rhf"
			}
		],
		"cosmo_sigma_profile": { 
			"-0.025": 0.0,
			"-0.024": 0.0,
			"-0.023": 0.0,
			"-0.022": 0.0,
			"-0.021": 0.0,
			"-0.02": 0.0,
			"-0.019": 0.0,
			"-0.018": 0.0,
			"-0.017": 0.0,
			"-0.016": 0.0,
			"-0.015": 0.0,
			"-0.014": 0.0,
			"-0.013": 0.0,
			"-0.012": 0.0,
			"-0.011": 0.0,
			"-0.01": 0.0,
			"-0.009": 0.0,
			"-0.008": 0.0805838904417,
			"-0.007": 3.41719762762,
			"-0.006": 20.7167447196,
			"-0.005": 24.6853149805,
			"-0.004": 26.3490735382,
			"-0.003": 23.7314927992,
			"-0.002": 18.4730179165,
			"-0.001": 19.9565058335,
			"0.0": 20.1263811244,
			"0.001": 18.4474675106,
			"0.002": 19.9385641121,
			"0.003": 23.093787875,
			"0.004": 23.3680518967,
			"0.005": 17.1133683505,
			"0.006": 5.10046258098,
			"0.007": 1.49327069924,
			"0.008": 1.62642361285,
			"0.009": 1.6688215737,
			"0.01": 1.9594489646,
			"0.011": 2.25446608185,
			"0.012": 3.93814002004,
			"0.013": 2.48591539571,
			"0.014": 0.457994226252,
			"0.015": 0.0,
			"0.016": 0.0,
			"0.017": 0.0,
			"0.018": 0.0,
			"0.019": 0.0,
			"0.02": 0.0,
			"0.021": 0.0,
			"0.022": 0.0,
			"0.023": 0.0,
			"0.024": 0.0,
			"0.025": 0.0
		}
	}
}
