{
	 "smiles": "CN(C)C1=NC(Cl)=NC(=C1)C(F)(F)F", 
	 "Tm": 380.15, 
	 "num_atms": 21, 
	 "gaussian": { 
		 "optdone": 1, 
		 "sigma_profile": "yes", 
		 "theory": "DFT", 
		 "functional": "B3LYP", 
		 "basiset": "6-31G**", 
		 "properties": { 
			 "R2extent": 5012.1634, 
			 "electric_dipole_moment_norm": 6.49878035942, 
			 "electric_quadrupole_moment_norm": 11.6926747731, 
			 "total_energy": -1194.93665036, 
			 "HOMO_LUMO_gap": 0.18923, 
			 "cosmo_polarized_energy": -10.63, 
			 "cosmo_cavitation_energy": 28.51, 
			 "cosmo_dispersion_energy": -20.48, 
			 "cosmo_repulsion_energy": 1.58, 
			 "cosmo_total_nonelectrostatic_energy": 9.61, 
			 "SMD_solvation_energy": 3.64 
		},
		"coords": [
			{
				"x": 2.8325784629,
				"y": 1.8815541997,
				"z": -1.7140238284,
				"element": "C" 
			},
			{
				"x": 1.5832074009,
				"y": 1.2623373075,
				"z": -1.2812911211,
				"element": "N" 
			},
			{
				"x": 0.4311389668,
				"y": 2.1306058895,
				"z": -1.0793969168,
				"element": "C" 
			},
			{
				"x": 1.4809527911,
				"y": -0.0759458296,
				"z": -1.0730148416,
				"element": "C" 
			},
			{
				"x": 2.5790161684,
				"y": -0.8372409278,
				"z": -1.2757457774,
				"element": "N" 
			},
			{
				"x": 2.4523557987,
				"y": -2.134794092,
				"z": -1.0659266618,
				"element": "C" 
			},
			{
				"x": 3.9043494636,
				"y": -3.0852395665,
				"z": -1.3414693213,
				"element": "Cl" 
			},
			{
				"x": 1.3873035285,
				"y": -2.8184211461,
				"z": -0.6780484108,
				"element": "N" 
			},
			{
				"x": 0.3002570798,
				"y": -2.0528984588,
				"z": -0.4789475668,
				"element": "C" 
			},
			{
				"x": 0.26610258,
				"y": -0.6860649398,
				"z": -0.653350929,
				"element": "C" 
			},
			{
				"x": -0.9354522724,
				"y": -2.8143642495,
				"z": -0.0333836847,
				"element": "C" 
			},
			{
				"x": -0.7160463836,
				"y": -3.4532939087,
				"z": 1.1281023436,
				"element": "F" 
			},
			{
				"x": -1.9869942858,
				"y": -1.9821691539,
				"z": 0.1484238646,
				"element": "F" 
			},
			{
				"x": -1.2942870562,
				"y": -3.7301497465,
				"z": -0.9488742237,
				"element": "F" 
			},
			{
				"x": 3.1661283595,
				"y": 2.6212302746,
				"z": -0.9768497669,
				"element": "H" 
			},
			{
				"x": 2.6943171364,
				"y": 2.3856840317,
				"z": -2.6776960053,
				"element": "H" 
			},
			{
				"x": 3.5928675928,
				"y": 1.1110895917,
				"z": -1.8183607704,
				"element": "H" 
			},
			{
				"x": -0.3985422894,
				"y": 1.8670453014,
				"z": -1.7465706096,
				"element": "H" 
			},
			{
				"x": 0.0712566309,
				"y": 2.0940432244,
				"z": -0.0440262417,
				"element": "H" 
			},
			{
				"x": 0.7271285661,
				"y": 3.1570751431,
				"z": -1.2978453932,
				"element": "H" 
			},
			{
				"x": -0.6414382389,
				"y": -0.1293829444,
				"z": -0.4762041377,
				"element": "H" 
			}
		],
		 "valence_orbital": [ 
			{
				"type": "occ",
				"energy": -0.3219,
				"method": "rhf"
			},
			{
				"type": "occ",
				"energy": -0.31529,
				"method": "rhf"
			},
			{
				"type": "occ",
				"energy": -0.28683,
				"method": "rhf"
			},
			{
				"type": "occ",
				"energy": -0.272,
				"method": "rhf"
			},
			{
				"type": "occ",
				"energy": -0.24118,
				"method": "rhf"
			},
			{
				"type": "unocc",
				"energy": -0.05195,
				"method": "rhf"
			},
			{
				"type": "unocc",
				"energy": -0.0257,
				"method": "rhf"
			},
			{
				"type": "unocc",
				"energy": 0.03917,
				"method": "rhf"
			},
			{
				"type": "unocc",
				"energy": 0.07334,
				"method": "rhf"
			},
			{
				"type": "unocc",
				"energy": 0.10188,
				"method": "rhf"
			}
		],
		"cosmo_sigma_profile": { 
			"-0.025": 0.0,
			"-0.024": 0.0,
			"-0.023": 0.0,
			"-0.022": 0.0,
			"-0.021": 0.0,
			"-0.02": 0.0,
			"-0.019": 0.0,
			"-0.018": 0.0,
			"-0.017": 0.0,
			"-0.016": 0.0,
			"-0.015": 0.0,
			"-0.014": 0.0,
			"-0.013": 0.0,
			"-0.012": 0.0,
			"-0.011": 0.0,
			"-0.01": 0.0,
			"-0.009": 0.0408881179777,
			"-0.008": 1.96417715665,
			"-0.007": 3.6956126524,
			"-0.006": 11.6669618427,
			"-0.005": 15.3908159075,
			"-0.004": 16.1278563916,
			"-0.003": 22.5046271903,
			"-0.002": 23.1924343741,
			"-0.001": 15.6910602111,
			"0.0": 13.9700697451,
			"0.001": 13.3947369575,
			"0.002": 30.2299757403,
			"0.003": 23.1941673354,
			"0.004": 12.9857532352,
			"0.005": 8.45074076782,
			"0.006": 4.88359389702,
			"0.007": 3.7187206842,
			"0.008": 3.88775497731,
			"0.009": 2.11513672726,
			"0.01": 1.15411933159,
			"0.011": 0.99309832034,
			"0.012": 0.748247533452,
			"0.013": 0.516816295116,
			"0.014": 0.0162197311194,
			"0.015": 0.0,
			"0.016": 0.0,
			"0.017": 0.0,
			"0.018": 0.0,
			"0.019": 0.0,
			"0.02": 0.0,
			"0.021": 0.0,
			"0.022": 0.0,
			"0.023": 0.0,
			"0.024": 0.0,
			"0.025": 0.0
		}
	}
}
