{
	 "smiles": "ClC1=NC=CN=C1C#N", 
	 "Tm": 316.65, 
	 "num_atms": 11, 
	 "gaussian": { 
		 "optdone": 1, 
		 "sigma_profile": "yes", 
		 "theory": "DFT", 
		 "functional": "B3LYP", 
		 "basiset": "6-31G**", 
		 "properties": { 
			 "R2extent": 1576.2347, 
			 "electric_dipole_moment_norm": 4.58371044679, 
			 "electric_quadrupole_moment_norm": 14.2361624474, 
			 "total_energy": -816.137303942, 
			 "HOMO_LUMO_gap": 0.19211, 
			 "cosmo_polarized_energy": -9.85, 
			 "cosmo_cavitation_energy": 19.08, 
			 "cosmo_dispersion_energy": -13.85, 
			 "cosmo_repulsion_energy": 1.14, 
			 "cosmo_total_nonelectrostatic_energy": 6.37, 
			 "SMD_solvation_energy": 1.78 
		},
		"coords": [
			{
				"x": -1.1062348743,
				"y": 0.6726428768,
				"z": -1.7062872648,
				"element": "Cl" 
			},
			{
				"x": -0.680049352,
				"y": 0.9289328389,
				"z": -0.0365467306,
				"element": "C" 
			},
			{
				"x": -1.5935997,
				"y": 0.6554079183,
				"z": 0.8767795227,
				"element": "N" 
			},
			{
				"x": -1.2541950379,
				"y": 0.8560525763,
				"z": 2.1545162904,
				"element": "C" 
			},
			{
				"x": 0.0096268344,
				"y": 1.3336354777,
				"z": 2.5104984199,
				"element": "C" 
			},
			{
				"x": 0.935102265,
				"y": 1.6110610138,
				"z": 1.591655946,
				"element": "N" 
			},
			{
				"x": 0.6023128666,
				"y": 1.412460822,
				"z": 0.3089843072,
				"element": "C" 
			},
			{
				"x": 1.5976893139,
				"y": 1.7105676828,
				"z": -0.6858255112,
				"element": "C" 
			},
			{
				"x": 2.4055026942,
				"y": 1.9530655218,
				"z": -1.4847471006,
				"element": "N" 
			},
			{
				"x": -2.0075315244,
				"y": 0.6304029522,
				"z": 2.9049198758,
				"element": "H" 
			},
			{
				"x": 0.2804765145,
				"y": 1.4949703194,
				"z": 3.5503522452,
				"element": "H" 
			}
		],
		 "valence_orbital": [ 
			{
				"type": "occ",
				"energy": -0.35798,
				"method": "rhf"
			},
			{
				"type": "occ",
				"energy": -0.342,
				"method": "rhf"
			},
			{
				"type": "occ",
				"energy": -0.33067,
				"method": "rhf"
			},
			{
				"type": "occ",
				"energy": -0.29506,
				"method": "rhf"
			},
			{
				"type": "occ",
				"energy": -0.29211,
				"method": "rhf"
			},
			{
				"type": "unocc",
				"energy": -0.1,
				"method": "rhf"
			},
			{
				"type": "unocc",
				"energy": -0.07456,
				"method": "rhf"
			},
			{
				"type": "unocc",
				"energy": 0.00758,
				"method": "rhf"
			},
			{
				"type": "unocc",
				"energy": 0.01507,
				"method": "rhf"
			},
			{
				"type": "unocc",
				"energy": 0.04092,
				"method": "rhf"
			}
		],
		"cosmo_sigma_profile": { 
			"-0.025": 0.0,
			"-0.024": 0.0,
			"-0.023": 0.0,
			"-0.022": 0.0,
			"-0.021": 0.0,
			"-0.02": 0.0,
			"-0.019": 0.0,
			"-0.018": 0.0,
			"-0.017": 0.0,
			"-0.016": 0.0,
			"-0.015": 0.0,
			"-0.014": 0.0,
			"-0.013": 0.0,
			"-0.012": 0.0,
			"-0.011": 0.000543989227412,
			"-0.01": 3.61959693844,
			"-0.009": 5.58447605161,
			"-0.008": 4.3823144309,
			"-0.007": 5.88494771076,
			"-0.006": 8.09894917245,
			"-0.005": 8.83115523129,
			"-0.004": 11.0397966338,
			"-0.003": 11.8948579644,
			"-0.002": 8.53505897035,
			"-0.001": 7.51968497564,
			"0.0": 8.75128849731,
			"0.001": 9.72935653837,
			"0.002": 14.9367595806,
			"0.003": 9.94261755444,
			"0.004": 6.32148304518,
			"0.005": 5.01563007155,
			"0.006": 5.42867277772,
			"0.007": 5.42440709185,
			"0.008": 4.60602020477,
			"0.009": 4.47296599867,
			"0.01": 3.95036165798,
			"0.011": 3.63364489619,
			"0.012": 0.939537793482,
			"0.013": 0.0,
			"0.014": 0.0,
			"0.015": 0.0,
			"0.016": 0.0,
			"0.017": 0.0,
			"0.018": 0.0,
			"0.019": 0.0,
			"0.02": 0.0,
			"0.021": 0.0,
			"0.022": 0.0,
			"0.023": 0.0,
			"0.024": 0.0,
			"0.025": 0.0
		}
	}
}
