{
	 "smiles": "CCN(CC)CCC1=CNC2=CC=CC=C12", 
	 "Tm": 443.15, 
	 "num_atms": 36, 
	 "gaussian": { 
		 "optdone": 1, 
		 "sigma_profile": "yes", 
		 "theory": "DFT", 
		 "functional": "B3LYP", 
		 "basiset": "6-31G**", 
		 "properties": { 
			 "R2extent": 4967.5368, 
			 "electric_dipole_moment_norm": 2.53122004377, 
			 "electric_quadrupole_moment_norm": 12.6383625747, 
			 "total_energy": -655.045632077, 
			 "HOMO_LUMO_gap": 0.18724, 
			 "cosmo_polarized_energy": -9.72, 
			 "cosmo_cavitation_energy": 36.36, 
			 "cosmo_dispersion_energy": -25.23, 
			 "cosmo_repulsion_energy": 1.98, 
			 "cosmo_total_nonelectrostatic_energy": 13.12, 
			 "SMD_solvation_energy": 4.14 
		},
		"coords": [
			{
				"x": -2.2604115546,
				"y": -0.3868188528,
				"z": 1.0888780469,
				"element": "C" 
			},
			{
				"x": -1.0793106301,
				"y": -1.0275176314,
				"z": 1.8245575333,
				"element": "C" 
			},
			{
				"x": -0.1537007221,
				"y": -1.7588592195,
				"z": 0.9363863587,
				"element": "N" 
			},
			{
				"x": -0.328332157,
				"y": -3.2131887306,
				"z": 1.0050514584,
				"element": "C" 
			},
			{
				"x": -1.6942377132,
				"y": -3.6985315556,
				"z": 0.517463589,
				"element": "C" 
			},
			{
				"x": 1.2497295263,
				"y": -1.3725631015,
				"z": 1.0961012203,
				"element": "C" 
			},
			{
				"x": 1.645737171,
				"y": -0.0548253434,
				"z": 0.3898898525,
				"element": "C" 
			},
			{
				"x": 1.2715666311,
				"y": 1.2405969689,
				"z": 1.0644419775,
				"element": "C" 
			},
			{
				"x": 1.6623292444,
				"y": 1.6690067659,
				"z": 2.3112308599,
				"element": "C" 
			},
			{
				"x": 1.1524869942,
				"y": 2.9314522179,
				"z": 2.5640258776,
				"element": "N" 
			},
			{
				"x": 0.4222402361,
				"y": 3.3525729953,
				"z": 1.4735843582,
				"element": "C" 
			},
			{
				"x": -0.2732819902,
				"y": 4.5464667995,
				"z": 1.2511208998,
				"element": "C" 
			},
			{
				"x": -0.9206035971,
				"y": 4.694295844,
				"z": 0.0301768964,
				"element": "C" 
			},
			{
				"x": -0.8762036523,
				"y": 3.6780140301,
				"z": -0.9472522779,
				"element": "C" 
			},
			{
				"x": -0.1851588098,
				"y": 2.494420946,
				"z": -0.7213174907,
				"element": "C" 
			},
			{
				"x": 0.4781654531,
				"y": 2.3103600854,
				"z": 0.5060748632,
				"element": "C" 
			},
			{
				"x": -2.9104021893,
				"y": 0.1387907578,
				"z": 1.7985206183,
				"element": "H" 
			},
			{
				"x": -1.9049540861,
				"y": 0.3401919353,
				"z": 0.3542459712,
				"element": "H" 
			},
			{
				"x": -2.8651373245,
				"y": -1.1307420218,
				"z": 0.5633684357,
				"element": "H" 
			},
			{
				"x": -1.4522319221,
				"y": -1.7003665751,
				"z": 2.6155798605,
				"element": "H" 
			},
			{
				"x": -0.5235863915,
				"y": -0.2375031925,
				"z": 2.3373372469,
				"element": "H" 
			},
			{
				"x": -0.1575293344,
				"y": -3.5979805308,
				"z": 2.031781766,
				"element": "H" 
			},
			{
				"x": 0.442394462,
				"y": -3.6681674587,
				"z": 0.3722535045,
				"element": "H" 
			},
			{
				"x": -2.5085883636,
				"y": -3.3587323238,
				"z": 1.1639093715,
				"element": "H" 
			},
			{
				"x": -1.8908009623,
				"y": -3.3396937876,
				"z": -0.497494009,
				"element": "H" 
			},
			{
				"x": -1.7179897959,
				"y": -4.7935965607,
				"z": 0.5098746708,
				"element": "H" 
			},
			{
				"x": 1.5555904501,
				"y": -1.3276016847,
				"z": 2.1596851543,
				"element": "H" 
			},
			{
				"x": 1.8547955036,
				"y": -2.1640019826,
				"z": 0.6406057582,
				"element": "H" 
			},
			{
				"x": 1.2147000534,
				"y": -0.0811215991,
				"z": -0.6160978348,
				"element": "H" 
			},
			{
				"x": 2.7362429915,
				"y": -0.0825125803,
				"z": 0.2559152213,
				"element": "H" 
			},
			{
				"x": 2.2760978205,
				"y": 1.1731150976,
				"z": 3.0505911602,
				"element": "H" 
			},
			{
				"x": 1.2926913937,
				"y": 3.4556396864,
				"z": 3.4117265139,
				"element": "H" 
			},
			{
				"x": -0.3052020707,
				"y": 5.3301743353,
				"z": 2.0032086553,
				"element": "H" 
			},
			{
				"x": -1.4688771871,
				"y": 5.6090793426,
				"z": -0.1754354611,
				"element": "H" 
			},
			{
				"x": -1.3911734165,
				"y": 3.8276954939,
				"z": -1.8917578243,
				"element": "H" 
			},
			{
				"x": -0.1566540605,
				"y": 1.7210514304,
				"z": -1.4839328024,
				"element": "H" 
			}
		],
		 "valence_orbital": [ 
			{
				"type": "occ",
				"energy": -0.31401,
				"method": "rhf"
			},
			{
				"type": "occ",
				"energy": -0.26342,
				"method": "rhf"
			},
			{
				"type": "occ",
				"energy": -0.21498,
				"method": "rhf"
			},
			{
				"type": "occ",
				"energy": -0.19956,
				"method": "rhf"
			},
			{
				"type": "occ",
				"energy": -0.19177,
				"method": "rhf"
			},
			{
				"type": "unocc",
				"energy": -0.00453,
				"method": "rhf"
			},
			{
				"type": "unocc",
				"energy": 0.03316,
				"method": "rhf"
			},
			{
				"type": "unocc",
				"energy": 0.06573,
				"method": "rhf"
			},
			{
				"type": "unocc",
				"energy": 0.08252,
				"method": "rhf"
			},
			{
				"type": "unocc",
				"energy": 0.09774,
				"method": "rhf"
			}
		],
		"cosmo_sigma_profile": { 
			"-0.025": 0.0,
			"-0.024": 0.0,
			"-0.023": 0.0,
			"-0.022": 0.0,
			"-0.021": 0.0,
			"-0.02": 0.0,
			"-0.019": 0.0,
			"-0.018": 0.0,
			"-0.017": 0.0,
			"-0.016": 0.135513119683,
			"-0.015": 1.37092015283,
			"-0.014": 1.37968598201,
			"-0.013": 0.770124485348,
			"-0.012": 1.85090702685,
			"-0.011": 1.19878046507,
			"-0.01": 0.648697942615,
			"-0.009": 1.623037844,
			"-0.008": 1.63802926113,
			"-0.007": 3.54965088403,
			"-0.006": 3.90181948112,
			"-0.005": 7.35857174759,
			"-0.004": 13.0448093699,
			"-0.003": 21.6103075993,
			"-0.002": 32.6115524573,
			"-0.001": 36.6159346844,
			"0.0": 39.8911815707,
			"0.001": 31.1222471245,
			"0.002": 19.0244030666,
			"0.003": 11.3868497468,
			"0.004": 12.4637212528,
			"0.005": 14.9057832269,
			"0.006": 10.7904068783,
			"0.007": 8.78309463227,
			"0.008": 3.25238772361,
			"0.009": 0.930272299493,
			"0.01": 0.372806813016,
			"0.011": 0.816144535497,
			"0.012": 0.493153009216,
			"0.013": 0.578886246058,
			"0.014": 0.257970145552,
			"0.015": 0.304916567486,
			"0.016": 0.0263418669422,
			"0.017": 0.0,
			"0.018": 0.0,
			"0.019": 0.0,
			"0.02": 0.0,
			"0.021": 0.0,
			"0.022": 0.0,
			"0.023": 0.0,
			"0.024": 0.0,
			"0.025": 0.0
		}
	}
}
