{
	 "smiles": "NC1=C(N)N=C(Cl)C=C1", 
	 "Tm": 403.15, 
	 "num_atms": 15, 
	 "gaussian": { 
		 "optdone": 1, 
		 "sigma_profile": "yes", 
		 "theory": "DFT", 
		 "functional": "B3LYP", 
		 "basiset": "6-31G**", 
		 "properties": { 
			 "R2extent": 1951.4388, 
			 "electric_dipole_moment_norm": 4.53577929467, 
			 "electric_quadrupole_moment_norm": 8.27187456264, 
			 "total_energy": -818.605691622, 
			 "HOMO_LUMO_gap": 0.1875, 
			 "cosmo_polarized_energy": -13.03, 
			 "cosmo_cavitation_energy": 20.8, 
			 "cosmo_dispersion_energy": -16.03, 
			 "cosmo_repulsion_energy": 1.34, 
			 "cosmo_total_nonelectrostatic_energy": 6.1, 
			 "SMD_solvation_energy": 1.96 
		},
		"coords": [
			{
				"x": -1.6453507764,
				"y": -0.0844553053,
				"z": -1.4356523837,
				"element": "N" 
			},
			{
				"x": -0.7559939658,
				"y": -0.6127895405,
				"z": -0.4839228544,
				"element": "C" 
			},
			{
				"x": 0.6366104341,
				"y": -0.5248425947,
				"z": -0.7419918829,
				"element": "C" 
			},
			{
				"x": 1.0672086097,
				"y": 0.1315486349,
				"z": -1.8916396748,
				"element": "N" 
			},
			{
				"x": 1.5592036383,
				"y": -1.0011809993,
				"z": 0.0939569875,
				"element": "N" 
			},
			{
				"x": 1.1494043844,
				"y": -1.5990026223,
				"z": 1.2031466378,
				"element": "C" 
			},
			{
				"x": 2.41332648,
				"y": -2.2046351227,
				"z": 2.280411992,
				"element": "Cl" 
			},
			{
				"x": -0.1815090895,
				"y": -1.7861252363,
				"z": 1.5521737667,
				"element": "C" 
			},
			{
				"x": -1.1455022833,
				"y": -1.2681274786,
				"z": 0.6794648829,
				"element": "C" 
			},
			{
				"x": -2.6080734484,
				"y": -0.0684411759,
				"z": -1.1210778867,
				"element": "H" 
			},
			{
				"x": -1.3657177816,
				"y": 0.839155789,
				"z": -1.7533743655,
				"element": "H" 
			},
			{
				"x": 2.0607269624,
				"y": 0.0113234903,
				"z": -2.0467403436,
				"element": "H" 
			},
			{
				"x": 0.5139970376,
				"y": -0.0824187161,
				"z": -2.714422733,
				"element": "H" 
			},
			{
				"x": -0.4574358961,
				"y": -2.2975430835,
				"z": 2.465552033,
				"element": "H" 
			},
			{
				"x": -2.2018943053,
				"y": -1.367366039,
				"z": 0.9170158246,
				"element": "H" 
			}
		],
		 "valence_orbital": [ 
			{
				"type": "occ",
				"energy": -0.30095,
				"method": "rhf"
			},
			{
				"type": "occ",
				"energy": -0.29301,
				"method": "rhf"
			},
			{
				"type": "occ",
				"energy": -0.2718,
				"method": "rhf"
			},
			{
				"type": "occ",
				"energy": -0.25965,
				"method": "rhf"
			},
			{
				"type": "occ",
				"energy": -0.20241,
				"method": "rhf"
			},
			{
				"type": "unocc",
				"energy": -0.01491,
				"method": "rhf"
			},
			{
				"type": "unocc",
				"energy": 0.00556,
				"method": "rhf"
			},
			{
				"type": "unocc",
				"energy": 0.04506,
				"method": "rhf"
			},
			{
				"type": "unocc",
				"energy": 0.06668,
				"method": "rhf"
			},
			{
				"type": "unocc",
				"energy": 0.10249,
				"method": "rhf"
			}
		],
		"cosmo_sigma_profile": { 
			"-0.025": 0.0,
			"-0.024": 0.0,
			"-0.023": 0.0,
			"-0.022": 0.0,
			"-0.021": 0.0,
			"-0.02": 0.0,
			"-0.019": 0.0,
			"-0.018": 0.0,
			"-0.017": 0.0,
			"-0.016": 0.0,
			"-0.015": 0.0,
			"-0.014": 0.0,
			"-0.013": 0.819655408167,
			"-0.012": 3.90617070899,
			"-0.011": 4.90200236642,
			"-0.01": 5.60917207924,
			"-0.009": 5.37770372567,
			"-0.008": 4.99742684031,
			"-0.007": 5.96671665586,
			"-0.006": 6.53478956138,
			"-0.005": 7.51947553326,
			"-0.004": 6.15759146735,
			"-0.003": 4.20439465464,
			"-0.002": 5.68744724668,
			"-0.001": 7.0665460201,
			"0.0": 6.67398332143,
			"0.001": 9.76467013057,
			"0.002": 15.1998569998,
			"0.003": 15.2194447006,
			"0.004": 13.8340555523,
			"0.005": 12.4996339736,
			"0.006": 7.42493844426,
			"0.007": 3.08246660609,
			"0.008": 2.70792828465,
			"0.009": 3.62931466575,
			"0.01": 2.12841191257,
			"0.011": 2.04259343556,
			"0.012": 2.3228206962,
			"0.013": 1.33126361214,
			"0.014": 0.960076563877,
			"0.015": 0.0229241385284,
			"0.016": 0.0,
			"0.017": 0.0,
			"0.018": 0.0,
			"0.019": 0.0,
			"0.02": 0.0,
			"0.021": 0.0,
			"0.022": 0.0,
			"0.023": 0.0,
			"0.024": 0.0,
			"0.025": 0.0
		}
	}
}
