{
	 "smiles": "COC1=CC=C(Cl)C=C1C", 
	 "Tm": 307.15, 
	 "num_atms": 19, 
	 "gaussian": { 
		 "optdone": 1, 
		 "sigma_profile": "yes", 
		 "theory": "DFT", 
		 "functional": "B3LYP", 
		 "basiset": "6-31G**", 
		 "properties": { 
			 "R2extent": 2628.8056, 
			 "electric_dipole_moment_norm": 3.0992224541, 
			 "electric_quadrupole_moment_norm": 5.52177273256, 
			 "total_energy": -845.688189858, 
			 "HOMO_LUMO_gap": 0.20908, 
			 "cosmo_polarized_energy": -5.58, 
			 "cosmo_cavitation_energy": 24.15, 
			 "cosmo_dispersion_energy": -17.99, 
			 "cosmo_repulsion_energy": 1.46, 
			 "cosmo_total_nonelectrostatic_energy": 7.63, 
			 "SMD_solvation_energy": 4.7 
		},
		"coords": [
			{
				"x": 0.7938945626,
				"y": 0.2979678445,
				"z": -2.6877904032,
				"element": "C" 
			},
			{
				"x": 0.8213812491,
				"y": 1.3870211546,
				"z": -1.7794119422,
				"element": "O" 
			},
			{
				"x": 0.3676157476,
				"y": 1.1837774591,
				"z": -0.5061839569,
				"element": "C" 
			},
			{
				"x": -0.1265499073,
				"y": -0.0343687123,
				"z": -0.0328062123,
				"element": "C" 
			},
			{
				"x": -0.5696389878,
				"y": -0.1479613103,
				"z": 1.2886973459,
				"element": "C" 
			},
			{
				"x": -0.5121166909,
				"y": 0.961781195,
				"z": 2.1207843479,
				"element": "C" 
			},
			{
				"x": -1.0662342544,
				"y": 0.8357089827,
				"z": 3.7883253021,
				"element": "Cl" 
			},
			{
				"x": -0.0190288778,
				"y": 2.1823269729,
				"z": 1.6528283775,
				"element": "C" 
			},
			{
				"x": 0.4267642683,
				"y": 2.3137149404,
				"z": 0.3389630481,
				"element": "C" 
			},
			{
				"x": 0.962609797,
				"y": 3.6201307336,
				"z": -0.1875252346,
				"element": "C" 
			},
			{
				"x": -0.2284935514,
				"y": -0.0657483095,
				"z": -2.8529924151,
				"element": "H" 
			},
			{
				"x": 1.1950902346,
				"y": 0.6790802815,
				"z": -3.628143584,
				"element": "H" 
			},
			{
				"x": 1.4187578553,
				"y": -0.5348975336,
				"z": -2.340318551,
				"element": "H" 
			},
			{
				"x": -0.1737992177,
				"y": -0.9036931211,
				"z": -0.6775476581,
				"element": "H" 
			},
			{
				"x": -0.9534685465,
				"y": -1.0923099062,
				"z": 1.6581163896,
				"element": "H" 
			},
			{
				"x": 0.0175268595,
				"y": 3.0378655963,
				"z": 2.3193576293,
				"element": "H" 
			},
			{
				"x": 0.376564409,
				"y": 3.9712492445,
				"z": -1.0437755994,
				"element": "H" 
			},
			{
				"x": 0.9415026613,
				"y": 4.3916170544,
				"z": 0.586154854,
				"element": "H" 
			},
			{
				"x": 1.9938223896,
				"y": 3.5107374334,
				"z": -0.5404317375,
				"element": "H" 
			}
		],
		 "valence_orbital": [ 
			{
				"type": "occ",
				"energy": -0.33221,
				"method": "rhf"
			},
			{
				"type": "occ",
				"energy": -0.3044,
				"method": "rhf"
			},
			{
				"type": "occ",
				"energy": -0.30033,
				"method": "rhf"
			},
			{
				"type": "occ",
				"energy": -0.25269,
				"method": "rhf"
			},
			{
				"type": "occ",
				"energy": -0.21588,
				"method": "rhf"
			},
			{
				"type": "unocc",
				"energy": -0.0068,
				"method": "rhf"
			},
			{
				"type": "unocc",
				"energy": 0.00472,
				"method": "rhf"
			},
			{
				"type": "unocc",
				"energy": 0.03679,
				"method": "rhf"
			},
			{
				"type": "unocc",
				"energy": 0.09643,
				"method": "rhf"
			},
			{
				"type": "unocc",
				"energy": 0.10347,
				"method": "rhf"
			}
		],
		"cosmo_sigma_profile": { 
			"-0.025": 0.0,
			"-0.024": 0.0,
			"-0.023": 0.0,
			"-0.022": 0.0,
			"-0.021": 0.0,
			"-0.02": 0.0,
			"-0.019": 0.0,
			"-0.018": 0.0,
			"-0.017": 0.0,
			"-0.016": 0.0,
			"-0.015": 0.0,
			"-0.014": 0.0,
			"-0.013": 0.0,
			"-0.012": 0.0,
			"-0.011": 0.0,
			"-0.01": 0.0,
			"-0.009": 0.0,
			"-0.008": 0.00679464673697,
			"-0.007": 2.51306209914,
			"-0.006": 10.8602876019,
			"-0.005": 15.3373656373,
			"-0.004": 16.5132605551,
			"-0.003": 15.9928062272,
			"-0.002": 13.2881346649,
			"-0.001": 13.1822979342,
			"0.0": 17.0259398273,
			"0.001": 12.473427046,
			"0.002": 15.0067598468,
			"0.003": 18.0556653977,
			"0.004": 19.6639871906,
			"0.005": 15.730476789,
			"0.006": 4.19662250047,
			"0.007": 1.65038022864,
			"0.008": 1.92298582176,
			"0.009": 0.641510571225,
			"0.01": 0.0,
			"0.011": 0.0,
			"0.012": 0.0,
			"0.013": 0.0,
			"0.014": 0.0,
			"0.015": 0.0,
			"0.016": 0.0,
			"0.017": 0.0,
			"0.018": 0.0,
			"0.019": 0.0,
			"0.02": 0.0,
			"0.021": 0.0,
			"0.022": 0.0,
			"0.023": 0.0,
			"0.024": 0.0,
			"0.025": 0.0
		}
	}
}
