{
	 "smiles": "COC1=CC(N)=C(OC)C=C1S(N)(=O)=O", 
	 "Tm": 477.15, 
	 "num_atms": 27, 
	 "gaussian": { 
		 "optdone": 1, 
		 "sigma_profile": "yes", 
		 "theory": "DFT", 
		 "functional": "B3LYP", 
		 "basiset": "6-31G**", 
		 "properties": { 
			 "R2extent": 4182.2715, 
			 "electric_dipole_moment_norm": 5.07703996636, 
			 "electric_quadrupole_moment_norm": 24.4388273733, 
			 "total_energy": -1120.5730612, 
			 "HOMO_LUMO_gap": 0.18538, 
			 "cosmo_polarized_energy": -24.76, 
			 "cosmo_cavitation_energy": 31.95, 
			 "cosmo_dispersion_energy": -23.67, 
			 "cosmo_repulsion_energy": 1.85, 
			 "cosmo_total_nonelectrostatic_energy": 10.13, 
			 "SMD_solvation_energy": 6.62 
		},
		"coords": [
			{
				"x": 2.1909914116,
				"y": -1.8924059769,
				"z": 2.0425407796,
				"element": "C" 
			},
			{
				"x": 0.971482143,
				"y": -1.1710076423,
				"z": 1.9936935431,
				"element": "O" 
			},
			{
				"x": 0.8173329449,
				"y": -0.1956279764,
				"z": 1.0624202089,
				"element": "C" 
			},
			{
				"x": 1.7885875439,
				"y": 0.1465777807,
				"z": 0.1167632334,
				"element": "C" 
			},
			{
				"x": 1.5606936919,
				"y": 1.1661014129,
				"z": -0.8168727684,
				"element": "C" 
			},
			{
				"x": 2.5269919982,
				"y": 1.5542644206,
				"z": -1.7274787743,
				"element": "N" 
			},
			{
				"x": 0.3225773116,
				"y": 1.8501533967,
				"z": -0.7960634195,
				"element": "C" 
			},
			{
				"x": 0.1900920938,
				"y": 2.8216816721,
				"z": -1.7616755652,
				"element": "O" 
			},
			{
				"x": -1.0308604378,
				"y": 3.5395174486,
				"z": -1.8137630864,
				"element": "C" 
			},
			{
				"x": -0.6446823251,
				"y": 1.5143094061,
				"z": 0.139873407,
				"element": "C" 
			},
			{
				"x": -0.4068019583,
				"y": 0.496101429,
				"z": 1.0725992179,
				"element": "C" 
			},
			{
				"x": -1.6291754115,
				"y": 0.0333685192,
				"z": 2.2912446227,
				"element": "S" 
			},
			{
				"x": -2.9052020947,
				"y": 1.1116112903,
				"z": 1.9415421158,
				"element": "N" 
			},
			{
				"x": -2.1287443375,
				"y": -1.3135489653,
				"z": 1.9951142708,
				"element": "O" 
			},
			{
				"x": -1.139738487,
				"y": 0.3798449095,
				"z": 3.6296006673,
				"element": "O" 
			},
			{
				"x": 2.3721971874,
				"y": -2.4416869665,
				"z": 1.1097564751,
				"element": "H" 
			},
			{
				"x": 2.0822549101,
				"y": -2.6025504712,
				"z": 2.8627242109,
				"element": "H" 
			},
			{
				"x": 3.0425337695,
				"y": -1.230799955,
				"z": 2.2460655489,
				"element": "H" 
			},
			{
				"x": 2.7412724777,
				"y": -0.3696982204,
				"z": 0.0988403263,
				"element": "H" 
			},
			{
				"x": 2.1818186141,
				"y": 2.098559215,
				"z": -2.5048657389,
				"element": "H" 
			},
			{
				"x": 3.2178032087,
				"y": 0.861953616,
				"z": -1.9755024019,
				"element": "H" 
			},
			{
				"x": -0.9331021867,
				"y": 4.2480908272,
				"z": -2.6378689144,
				"element": "H" 
			},
			{
				"x": -1.8827641533,
				"y": 2.8743224244,
				"z": -2.0069501596,
				"element": "H" 
			},
			{
				"x": -1.2130019038,
				"y": 4.0914788319,
				"z": -0.8826311879,
				"element": "H" 
			},
			{
				"x": -1.5989869592,
				"y": 2.0214557142,
				"z": 0.1712892058,
				"element": "H" 
			},
			{
				"x": -3.068435015,
				"y": 1.6795544726,
				"z": 2.7691933225,
				"element": "H" 
			},
			{
				"x": -3.7271340369,
				"y": 0.5557793871,
				"z": 1.7187108606,
				"element": "H" 
			}
		],
		 "valence_orbital": [ 
			{
				"type": "occ",
				"energy": -0.29279,
				"method": "rhf"
			},
			{
				"type": "occ",
				"energy": -0.27689,
				"method": "rhf"
			},
			{
				"type": "occ",
				"energy": -0.27323,
				"method": "rhf"
			},
			{
				"type": "occ",
				"energy": -0.23142,
				"method": "rhf"
			},
			{
				"type": "occ",
				"energy": -0.19354,
				"method": "rhf"
			},
			{
				"type": "unocc",
				"energy": -0.00816,
				"method": "rhf"
			},
			{
				"type": "unocc",
				"energy": 0.01573,
				"method": "rhf"
			},
			{
				"type": "unocc",
				"energy": 0.06007,
				"method": "rhf"
			},
			{
				"type": "unocc",
				"energy": 0.07339,
				"method": "rhf"
			},
			{
				"type": "unocc",
				"energy": 0.08743,
				"method": "rhf"
			}
		],
		"cosmo_sigma_profile": { 
			"-0.025": 0.0,
			"-0.024": 0.0,
			"-0.023": 0.0,
			"-0.022": 0.0,
			"-0.021": 0.0,
			"-0.02": 0.0,
			"-0.019": 0.0,
			"-0.018": 0.0,
			"-0.017": 0.0,
			"-0.016": 0.0,
			"-0.015": 0.362589069867,
			"-0.014": 2.21127495712,
			"-0.013": 4.09126750927,
			"-0.012": 4.10601212368,
			"-0.011": 4.22833850267,
			"-0.01": 3.75749665713,
			"-0.009": 5.32266670571,
			"-0.008": 4.10042964765,
			"-0.007": 5.65471203168,
			"-0.006": 14.3329995576,
			"-0.005": 22.4262401077,
			"-0.004": 19.5963512323,
			"-0.003": 20.4138006391,
			"-0.002": 11.2717592412,
			"-0.001": 9.29490741493,
			"0.0": 9.71274242199,
			"0.001": 8.65453076966,
			"0.002": 11.2140427404,
			"0.003": 15.2063639328,
			"0.004": 15.0371759753,
			"0.005": 7.11277083566,
			"0.006": 6.13784182513,
			"0.007": 4.93248070026,
			"0.008": 4.23917049537,
			"0.009": 4.1472341767,
			"0.01": 6.63375518831,
			"0.011": 12.9588899502,
			"0.012": 12.5151183959,
			"0.013": 2.88280041355,
			"0.014": 0.0,
			"0.015": 0.0,
			"0.016": 0.0,
			"0.017": 0.0,
			"0.018": 0.0,
			"0.019": 0.0,
			"0.02": 0.0,
			"0.021": 0.0,
			"0.022": 0.0,
			"0.023": 0.0,
			"0.024": 0.0,
			"0.025": 0.0
		}
	}
}
