{
	 "smiles": "CN1C(=O)NC(=O)C11CCCCC1", 
	 "Tm": 446.15, 
	 "num_atms": 27, 
	 "gaussian": { 
		 "optdone": 1, 
		 "sigma_profile": "yes", 
		 "theory": "DFT", 
		 "functional": "B3LYP", 
		 "basiset": "6-31G**", 
		 "properties": { 
			 "R2extent": 3599.6692, 
			 "electric_dipole_moment_norm": 2.78970412947, 
			 "electric_quadrupole_moment_norm": 8.63823615908, 
			 "total_energy": -611.395226484, 
			 "HOMO_LUMO_gap": 0.24018, 
			 "cosmo_polarized_energy": -12.94, 
			 "cosmo_cavitation_energy": 27.51, 
			 "cosmo_dispersion_energy": -20.29, 
			 "cosmo_repulsion_energy": 1.59, 
			 "cosmo_total_nonelectrostatic_energy": 8.81, 
			 "SMD_solvation_energy": 5.45 
		},
		"coords": [
			{
				"x": -0.5493028564,
				"y": 2.0189878027,
				"z": 0.0681526764,
				"element": "C" 
			},
			{
				"x": 0.6364045426,
				"y": 1.4490358619,
				"z": 0.6747562555,
				"element": "N" 
			},
			{
				"x": 0.9585253532,
				"y": 1.7082968623,
				"z": 1.9818426808,
				"element": "C" 
			},
			{
				"x": 0.3160152997,
				"y": 2.3190739945,
				"z": 2.8152947666,
				"element": "O" 
			},
			{
				"x": 2.2176662312,
				"y": 1.1097679175,
				"z": 2.1960131983,
				"element": "N" 
			},
			{
				"x": 2.7107403028,
				"y": 0.4699067564,
				"z": 1.0844240145,
				"element": "C" 
			},
			{
				"x": 3.7407242723,
				"y": -0.1733353968,
				"z": 1.0149425045,
				"element": "O" 
			},
			{
				"x": 1.697747821,
				"y": 0.7298894011,
				"z": -0.0508976703,
				"element": "C" 
			},
			{
				"x": 2.3443488992,
				"y": 1.6257542906,
				"z": -1.1374436774,
				"element": "C" 
			},
			{
				"x": 3.4976357124,
				"y": 0.9388362872,
				"z": -1.8986937273,
				"element": "C" 
			},
			{
				"x": 3.2253764914,
				"y": -0.5613073764,
				"z": -2.175644392,
				"element": "C" 
			},
			{
				"x": 1.7295318836,
				"y": -0.8847515866,
				"z": -2.0843186799,
				"element": "C" 
			},
			{
				"x": 1.1946142021,
				"y": -0.6169317523,
				"z": -0.664897206,
				"element": "C" 
			},
			{
				"x": -1.1547844754,
				"y": 2.4390011198,
				"z": 0.8724407155,
				"element": "H" 
			},
			{
				"x": -0.3055226966,
				"y": 2.8175723945,
				"z": -0.642744996,
				"element": "H" 
			},
			{
				"x": -1.1330668513,
				"y": 1.2529634127,
				"z": -0.4531933089,
				"element": "H" 
			},
			{
				"x": 2.6603392267,
				"y": 1.099016346,
				"z": 3.1035454205,
				"element": "H" 
			},
			{
				"x": 2.6850058374,
				"y": 2.5612247211,
				"z": -0.6797441964,
				"element": "H" 
			},
			{
				"x": 1.5505157619,
				"y": 1.8978217564,
				"z": -1.8429308243,
				"element": "H" 
			},
			{
				"x": 3.6437795571,
				"y": 1.4807231589,
				"z": -2.8401475591,
				"element": "H" 
			},
			{
				"x": 4.4253636322,
				"y": 1.0398502229,
				"z": -1.3296022398,
				"element": "H" 
			},
			{
				"x": 3.6184617017,
				"y": -0.8436470844,
				"z": -3.1581533784,
				"element": "H" 
			},
			{
				"x": 3.7559974438,
				"y": -1.1623685846,
				"z": -1.4301712611,
				"element": "H" 
			},
			{
				"x": 1.1715523883,
				"y": -0.2871240478,
				"z": -2.8174728044,
				"element": "H" 
			},
			{
				"x": 1.5440791238,
				"y": -1.9334444338,
				"z": -2.3420569542,
				"element": "H" 
			},
			{
				"x": 1.4987694906,
				"y": -1.4377804115,
				"z": -0.0071552866,
				"element": "H" 
			},
			{
				"x": 0.1000817047,
				"y": -0.6116316322,
				"z": -0.6699440702,
				"element": "H" 
			}
		],
		 "valence_orbital": [ 
			{
				"type": "occ",
				"energy": -0.31401,
				"method": "rhf"
			},
			{
				"type": "occ",
				"energy": -0.2868,
				"method": "rhf"
			},
			{
				"type": "occ",
				"energy": -0.28404,
				"method": "rhf"
			},
			{
				"type": "occ",
				"energy": -0.2581,
				"method": "rhf"
			},
			{
				"type": "occ",
				"energy": -0.24665,
				"method": "rhf"
			},
			{
				"type": "unocc",
				"energy": -0.00647,
				"method": "rhf"
			},
			{
				"type": "unocc",
				"energy": 0.0593,
				"method": "rhf"
			},
			{
				"type": "unocc",
				"energy": 0.07199,
				"method": "rhf"
			},
			{
				"type": "unocc",
				"energy": 0.08338,
				"method": "rhf"
			},
			{
				"type": "unocc",
				"energy": 0.10628,
				"method": "rhf"
			}
		],
		"cosmo_sigma_profile": { 
			"-0.025": 0.0,
			"-0.024": 0.0,
			"-0.023": 0.0,
			"-0.022": 0.0,
			"-0.021": 0.0,
			"-0.02": 0.0,
			"-0.019": 0.0,
			"-0.018": 0.0,
			"-0.017": 0.178001146315,
			"-0.016": 0.970726594018,
			"-0.015": 1.53805969138,
			"-0.014": 0.87219956325,
			"-0.013": 0.440446944746,
			"-0.012": 0.926364362376,
			"-0.011": 1.12104692071,
			"-0.01": 0.61885361175,
			"-0.009": 0.709155594094,
			"-0.008": 0.720675188698,
			"-0.007": 0.99257645385,
			"-0.006": 3.24820091434,
			"-0.005": 12.3263839517,
			"-0.004": 18.2918978233,
			"-0.003": 22.7047093569,
			"-0.002": 33.3619151759,
			"-0.001": 28.2495242777,
			"0.0": 21.7575520846,
			"0.001": 15.6374942841,
			"0.002": 5.30894033688,
			"0.003": 4.20035660955,
			"0.004": 2.48476459585,
			"0.005": 2.88694201833,
			"0.006": 3.31549193898,
			"0.007": 3.25488695822,
			"0.008": 2.71920211543,
			"0.009": 2.42043666292,
			"0.01": 2.99478950862,
			"0.011": 4.30763282804,
			"0.012": 6.14695523396,
			"0.013": 8.21811108156,
			"0.014": 1.30301514691,
			"0.015": 0.0,
			"0.016": 0.0,
			"0.017": 0.0,
			"0.018": 0.0,
			"0.019": 0.0,
			"0.02": 0.0,
			"0.021": 0.0,
			"0.022": 0.0,
			"0.023": 0.0,
			"0.024": 0.0,
			"0.025": 0.0
		}
	}
}
