{
	 "smiles": "CCC(=O)C1=CC=C(F)C(Br)=C1", 
	 "Tm": 335.15, 
	 "num_atms": 20, 
	 "gaussian": { 
		 "optdone": 1, 
		 "sigma_profile": "yes", 
		 "theory": "DFT", 
		 "functional": "B3LYP", 
		 "basiset": "6-31G**", 
		 "properties": { 
			 "R2extent": 5216.9155, 
			 "electric_dipole_moment_norm": 0.963531187871, 
			 "electric_quadrupole_moment_norm": 11.9466447712, 
			 "total_energy": -3094.24611128, 
			 "HOMO_LUMO_gap": 0.19009, 
			 "cosmo_polarized_energy": -7.52, 
			 "cosmo_cavitation_energy": 27.01, 
			 "cosmo_dispersion_energy": -19.94, 
			 "cosmo_repulsion_energy": 1.58, 
			 "cosmo_total_nonelectrostatic_energy": 8.65, 
			 "SMD_solvation_energy": 4.51 
		},
		"coords": [
			{
				"x": 0.0138961672,
				"y": -1.2677854382,
				"z": 2.7492610557,
				"element": "C" 
			},
			{
				"x": -0.1193767192,
				"y": -0.9323524625,
				"z": 1.2650739767,
				"element": "C" 
			},
			{
				"x": -0.9742338173,
				"y": 0.3030984615,
				"z": 1.0081277174,
				"element": "C" 
			},
			{
				"x": -1.4772228241,
				"y": 0.9244476788,
				"z": 1.9317598804,
				"element": "O" 
			},
			{
				"x": -1.1944233955,
				"y": 0.7540150173,
				"z": -0.4082747886,
				"element": "C" 
			},
			{
				"x": -1.9847316203,
				"y": 1.8942348288,
				"z": -0.62347427,
				"element": "C" 
			},
			{
				"x": -2.2236921025,
				"y": 2.3589726555,
				"z": -1.9104951143,
				"element": "C" 
			},
			{
				"x": -1.669801504,
				"y": 1.6809570314,
				"z": -2.9935810582,
				"element": "C" 
			},
			{
				"x": -1.9022441947,
				"y": 2.1316949455,
				"z": -4.2324446771,
				"element": "F" 
			},
			{
				"x": -0.8812183273,
				"y": 0.5455402221,
				"z": -2.8030763762,
				"element": "C" 
			},
			{
				"x": -0.1438898572,
				"y": -0.351472959,
				"z": -4.3070462762,
				"element": "Br" 
			},
			{
				"x": -0.6448728126,
				"y": 0.0840513267,
				"z": -1.5109524765,
				"element": "C" 
			},
			{
				"x": 0.6338988047,
				"y": -2.1584227549,
				"z": 2.8859267444,
				"element": "H" 
			},
			{
				"x": -0.9653799202,
				"y": -1.4537635381,
				"z": 3.1973208784,
				"element": "H" 
			},
			{
				"x": 0.4694285845,
				"y": -0.4395217096,
				"z": 3.2977047942,
				"element": "H" 
			},
			{
				"x": -0.5570027592,
				"y": -1.7755069191,
				"z": 0.7129364763,
				"element": "H" 
			},
			{
				"x": 0.8683808051,
				"y": -0.7684295572,
				"z": 0.8125717121,
				"element": "H" 
			},
			{
				"x": -2.4014603506,
				"y": 2.3994364274,
				"z": 0.2407186907,
				"element": "H" 
			},
			{
				"x": -2.8309618048,
				"y": 3.2375116644,
				"z": -2.1005602956,
				"element": "H" 
			},
			{
				"x": -0.0305923521,
				"y": -0.7986049208,
				"z": -1.3813965935,
				"element": "H" 
			}
		],
		 "valence_orbital": [ 
			{
				"type": "occ",
				"energy": -0.32534,
				"method": "rhf"
			},
			{
				"type": "occ",
				"energy": -0.29979,
				"method": "rhf"
			},
			{
				"type": "occ",
				"energy": -0.27373,
				"method": "rhf"
			},
			{
				"type": "occ",
				"energy": -0.25812,
				"method": "rhf"
			},
			{
				"type": "occ",
				"energy": -0.25438,
				"method": "rhf"
			},
			{
				"type": "unocc",
				"energy": -0.06429,
				"method": "rhf"
			},
			{
				"type": "unocc",
				"energy": -0.03211,
				"method": "rhf"
			},
			{
				"type": "unocc",
				"energy": -0.00777,
				"method": "rhf"
			},
			{
				"type": "unocc",
				"energy": 0.02979,
				"method": "rhf"
			},
			{
				"type": "unocc",
				"energy": 0.09116,
				"method": "rhf"
			}
		],
		"cosmo_sigma_profile": { 
			"-0.025": 0.0,
			"-0.024": 0.0,
			"-0.023": 0.0,
			"-0.022": 0.0,
			"-0.021": 0.0,
			"-0.02": 0.0,
			"-0.019": 0.0,
			"-0.018": 0.0,
			"-0.017": 0.0,
			"-0.016": 0.0,
			"-0.015": 0.0,
			"-0.014": 0.0,
			"-0.013": 0.0,
			"-0.012": 0.0,
			"-0.011": 0.0,
			"-0.01": 0.0,
			"-0.009": 0.27141822451,
			"-0.008": 3.94385354635,
			"-0.007": 5.37624674932,
			"-0.006": 10.7112830912,
			"-0.005": 11.0266902301,
			"-0.004": 10.2929421183,
			"-0.003": 15.4704006286,
			"-0.002": 20.1934117127,
			"-0.001": 24.0588283541,
			"0.0": 23.1132694208,
			"0.001": 26.0482376795,
			"0.002": 15.9970089128,
			"0.003": 17.319308161,
			"0.004": 15.5456822848,
			"0.005": 4.14430813722,
			"0.006": 1.11709170119,
			"0.007": 1.91776435284,
			"0.008": 1.57374699848,
			"0.009": 2.03710739484,
			"0.01": 2.04453499056,
			"0.011": 3.07302912968,
			"0.012": 3.12068203285,
			"0.013": 0.546568219294,
			"0.014": 0.0,
			"0.015": 0.0,
			"0.016": 0.0,
			"0.017": 0.0,
			"0.018": 0.0,
			"0.019": 0.0,
			"0.02": 0.0,
			"0.021": 0.0,
			"0.022": 0.0,
			"0.023": 0.0,
			"0.024": 0.0,
			"0.025": 0.0
		}
	}
}
