{
	 "smiles": "OC1=CC=C(C=C1)C(=O)NCC(F)(F)F", 
	 "Tm": 387.15, 
	 "num_atms": 23, 
	 "gaussian": { 
		 "optdone": 1, 
		 "sigma_profile": "yes", 
		 "theory": "DFT", 
		 "functional": "B3LYP", 
		 "basiset": "6-31G**", 
		 "properties": { 
			 "R2extent": 4412.5437, 
			 "electric_dipole_moment_norm": 4.74727093602, 
			 "electric_quadrupole_moment_norm": 17.156472615, 
			 "total_energy": -852.514406814, 
			 "HOMO_LUMO_gap": 0.20106, 
			 "cosmo_polarized_energy": -16.83, 
			 "cosmo_cavitation_energy": 29.21, 
			 "cosmo_dispersion_energy": -20.26, 
			 "cosmo_repulsion_energy": 1.55, 
			 "cosmo_total_nonelectrostatic_energy": 10.5, 
			 "SMD_solvation_energy": 6.28 
		},
		"coords": [
			{
				"x": -0.5416343229,
				"y": -0.7332982939,
				"z": 4.2687500137,
				"element": "O" 
			},
			{
				"x": -0.4901134071,
				"y": 0.0977952381,
				"z": 3.1917197708,
				"element": "C" 
			},
			{
				"x": -1.6377246626,
				"y": 0.5546626296,
				"z": 2.5326006283,
				"element": "C" 
			},
			{
				"x": -1.5140164741,
				"y": 1.3955520952,
				"z": 1.4284587255,
				"element": "C" 
			},
			{
				"x": -0.2515804929,
				"y": 1.7965460956,
				"z": 0.9707253631,
				"element": "C" 
			},
			{
				"x": 0.8881253457,
				"y": 1.3552802595,
				"z": 1.6627263748,
				"element": "C" 
			},
			{
				"x": 0.7779793165,
				"y": 0.5040091482,
				"z": 2.7525450709,
				"element": "C" 
			},
			{
				"x": -0.0579908611,
				"y": 2.7619108244,
				"z": -0.1535151302,
				"element": "C" 
			},
			{
				"x": 0.8328781901,
				"y": 3.6000174851,
				"z": -0.1357262157,
				"element": "O" 
			},
			{
				"x": -0.9745664766,
				"y": 2.7389875721,
				"z": -1.2069204095,
				"element": "N" 
			},
			{
				"x": -1.5197414642,
				"y": 1.5349240079,
				"z": -1.8021670671,
				"element": "C" 
			},
			{
				"x": -0.5908048377,
				"y": 0.9293937427,
				"z": -2.8465166742,
				"element": "C" 
			},
			{
				"x": -0.3294732747,
				"y": 1.8134029638,
				"z": -3.8358078807,
				"element": "F" 
			},
			{
				"x": 0.5876810605,
				"y": 0.5613994952,
				"z": -2.3082887885,
				"element": "F" 
			},
			{
				"x": -1.1550487765,
				"y": -0.1612740159,
				"z": -3.405268954,
				"element": "F" 
			},
			{
				"x": -1.4636605446,
				"y": -0.9320654386,
				"z": 4.4784386549,
				"element": "H" 
			},
			{
				"x": -2.623311725,
				"y": 0.2631381288,
				"z": 2.8891761377,
				"element": "H" 
			},
			{
				"x": -2.4109954196,
				"y": 1.7706669323,
				"z": 0.9448237917,
				"element": "H" 
			},
			{
				"x": 1.8619397341,
				"y": 1.6970992488,
				"z": 1.3284641896,
				"element": "H" 
			},
			{
				"x": 1.6542531403,
				"y": 0.1483178018,
				"z": 3.2839220918,
				"element": "H" 
			},
			{
				"x": -0.7379288054,
				"y": 3.4602552588,
				"z": -1.8810413102,
				"element": "H" 
			},
			{
				"x": -2.4732331163,
				"y": 1.7500630808,
				"z": -2.2950977268,
				"element": "H" 
			},
			{
				"x": -1.6945321257,
				"y": 0.7778157397,
				"z": -1.0386006559,
				"element": "H" 
			}
		],
		 "valence_orbital": [ 
			{
				"type": "occ",
				"energy": -0.34107,
				"method": "rhf"
			},
			{
				"type": "occ",
				"energy": -0.27581,
				"method": "rhf"
			},
			{
				"type": "occ",
				"energy": -0.26736,
				"method": "rhf"
			},
			{
				"type": "occ",
				"energy": -0.25308,
				"method": "rhf"
			},
			{
				"type": "occ",
				"energy": -0.23414,
				"method": "rhf"
			},
			{
				"type": "unocc",
				"energy": -0.03308,
				"method": "rhf"
			},
			{
				"type": "unocc",
				"energy": -0.01644,
				"method": "rhf"
			},
			{
				"type": "unocc",
				"energy": 0.04739,
				"method": "rhf"
			},
			{
				"type": "unocc",
				"energy": 0.05911,
				"method": "rhf"
			},
			{
				"type": "unocc",
				"energy": 0.08278,
				"method": "rhf"
			}
		],
		"cosmo_sigma_profile": { 
			"-0.025": 0.0,
			"-0.024": 0.0,
			"-0.023": 0.0,
			"-0.022": 0.0,
			"-0.021": 0.0,
			"-0.02": 0.0,
			"-0.019": 0.138705876755,
			"-0.018": 0.989192118626,
			"-0.017": 0.919982870137,
			"-0.016": 0.82715949213,
			"-0.015": 1.50001846599,
			"-0.014": 1.31195001775,
			"-0.013": 1.20827746808,
			"-0.012": 1.05643589275,
			"-0.011": 2.03602382085,
			"-0.01": 2.5660063349,
			"-0.009": 3.55962728645,
			"-0.008": 6.19817090972,
			"-0.007": 8.80625946352,
			"-0.006": 12.9509902812,
			"-0.005": 11.7071416575,
			"-0.004": 9.75936667249,
			"-0.003": 8.95431314726,
			"-0.002": 8.86592966957,
			"-0.001": 10.4563604288,
			"0.0": 11.6416724237,
			"0.001": 16.1117935631,
			"0.002": 31.025438415,
			"0.003": 35.7181720818,
			"0.004": 12.1166158881,
			"0.005": 4.13645477661,
			"0.006": 3.55124435423,
			"0.007": 2.63024855735,
			"0.008": 3.27778792281,
			"0.009": 2.92041635229,
			"0.01": 2.80580295569,
			"0.011": 3.56693711481,
			"0.012": 2.97902323896,
			"0.013": 5.23763617426,
			"0.014": 1.29212949983,
			"0.015": 0.0,
			"0.016": 0.0,
			"0.017": 0.0,
			"0.018": 0.0,
			"0.019": 0.0,
			"0.02": 0.0,
			"0.021": 0.0,
			"0.022": 0.0,
			"0.023": 0.0,
			"0.024": 0.0,
			"0.025": 0.0
		}
	}
}
