{
	 "smiles": "[O-][N+](=O)C1=CC=C(C=C2N=C(OC2=O)C2=CC=CC=C2)C=C1", 
	 "Tm": 487.15, 
	 "num_atms": 32, 
	 "gaussian": { 
		 "optdone": 1, 
		 "sigma_profile": "yes", 
		 "theory": "DFT", 
		 "functional": "B3LYP", 
		 "basiset": "6-31G**", 
		 "properties": { 
			 "R2extent": 11727.9553, 
			 "electric_dipole_moment_norm": 7.26483784953, 
			 "electric_quadrupole_moment_norm": 14.7250989807, 
			 "total_energy": -1026.02982241, 
			 "HOMO_LUMO_gap": 0.11721, 
			 "cosmo_polarized_energy": -13.23, 
			 "cosmo_cavitation_energy": 39.0, 
			 "cosmo_dispersion_energy": -28.61, 
			 "cosmo_repulsion_energy": 2.11, 
			 "cosmo_total_nonelectrostatic_energy": 12.51, 
			 "SMD_solvation_energy": 8.38 
		},
		"coords": [
			{
				"x": -2.7473870278,
				"y": 5.6886566908,
				"z": 3.2916115108,
				"element": "O" 
			},
			{
				"x": -3.3667956553,
				"y": 5.1515707211,
				"z": 2.3739670798,
				"element": "N" 
			},
			{
				"x": -4.4792393257,
				"y": 5.5003444261,
				"z": 1.9781120027,
				"element": "O" 
			},
			{
				"x": -2.7322018717,
				"y": 4.008898783,
				"z": 1.6998911323,
				"element": "C" 
			},
			{
				"x": -1.4720650004,
				"y": 3.5853901489,
				"z": 2.1209508319,
				"element": "C" 
			},
			{
				"x": -0.8688490498,
				"y": 2.5063869001,
				"z": 1.4870652784,
				"element": "C" 
			},
			{
				"x": -1.5225737287,
				"y": 1.8407543607,
				"z": 0.4245366724,
				"element": "C" 
			},
			{
				"x": -0.9929930977,
				"y": 0.704703589,
				"z": -0.3117265299,
				"element": "C" 
			},
			{
				"x": 0.1633029689,
				"y": -0.0148112724,
				"z": -0.2400951146,
				"element": "C" 
			},
			{
				"x": 0.3888182014,
				"y": -1.0845106431,
				"z": -1.1122597646,
				"element": "N" 
			},
			{
				"x": 1.5498284516,
				"y": -1.5635332698,
				"z": -0.8069884148,
				"element": "C" 
			},
			{
				"x": 2.2002387453,
				"y": -0.9241113274,
				"z": 0.2296765856,
				"element": "O" 
			},
			{
				"x": 1.3532868425,
				"y": 0.1005577083,
				"z": 0.6507451015,
				"element": "C" 
			},
			{
				"x": 1.6637597021,
				"y": 0.8347814055,
				"z": 1.5545661783,
				"element": "O" 
			},
			{
				"x": 2.2338256749,
				"y": -2.6875868965,
				"z": -1.4303039946,
				"element": "C" 
			},
			{
				"x": 1.6080883651,
				"y": -3.3683867652,
				"z": -2.4898341063,
				"element": "C" 
			},
			{
				"x": 2.2484639733,
				"y": -4.4434876795,
				"z": -3.0953659578,
				"element": "C" 
			},
			{
				"x": 3.5125689489,
				"y": -4.8483640912,
				"z": -2.6527778641,
				"element": "C" 
			},
			{
				"x": 4.1362505978,
				"y": -4.1739011588,
				"z": -1.6005924018,
				"element": "C" 
			},
			{
				"x": 3.5029207299,
				"y": -3.095459679,
				"z": -0.9872396052,
				"element": "C" 
			},
			{
				"x": -2.8007198782,
				"y": 2.3034195863,
				"z": 0.0288930813,
				"element": "C" 
			},
			{
				"x": -3.4098100302,
				"y": 3.3797274435,
				"z": 0.6563908032,
				"element": "C" 
			},
			{
				"x": -0.9830520892,
				"y": 4.1043405289,
				"z": 2.9358217908,
				"element": "H" 
			},
			{
				"x": 0.1088849616,
				"y": 2.1731272031,
				"z": 1.8095075867,
				"element": "H" 
			},
			{
				"x": -1.651973758,
				"y": 0.3357716086,
				"z": -1.095338325,
				"element": "H" 
			},
			{
				"x": 0.6282080587,
				"y": -3.0396039186,
				"z": -2.8186976387,
				"element": "H" 
			},
			{
				"x": 1.7647303555,
				"y": -4.9686302954,
				"z": -3.9133497676,
				"element": "H" 
			},
			{
				"x": 4.0097062119,
				"y": -5.6887400509,
				"z": -3.1283785736,
				"element": "H" 
			},
			{
				"x": 5.1171000908,
				"y": -4.4883183467,
				"z": -1.2574136307,
				"element": "H" 
			},
			{
				"x": 3.9804789063,
				"y": -2.5667137032,
				"z": -0.1699012643,
				"element": "H" 
			},
			{
				"x": -3.3161114257,
				"y": 1.8030449371,
				"z": -0.7855478977,
				"element": "H" 
			},
			{
				"x": -4.3868898479,
				"y": 3.7387830566,
				"z": 0.3591752153,
				"element": "H" 
			}
		],
		 "valence_orbital": [ 
			{
				"type": "occ",
				"energy": -0.28801,
				"method": "rhf"
			},
			{
				"type": "occ",
				"energy": -0.28473,
				"method": "rhf"
			},
			{
				"type": "occ",
				"energy": -0.28202,
				"method": "rhf"
			},
			{
				"type": "occ",
				"energy": -0.27339,
				"method": "rhf"
			},
			{
				"type": "occ",
				"energy": -0.23577,
				"method": "rhf"
			},
			{
				"type": "unocc",
				"energy": -0.11856,
				"method": "rhf"
			},
			{
				"type": "unocc",
				"energy": -0.07372,
				"method": "rhf"
			},
			{
				"type": "unocc",
				"energy": -0.04538,
				"method": "rhf"
			},
			{
				"type": "unocc",
				"energy": -0.02945,
				"method": "rhf"
			},
			{
				"type": "unocc",
				"energy": -0.02187,
				"method": "rhf"
			}
		],
		"cosmo_sigma_profile": { 
			"-0.025": 0.0,
			"-0.024": 0.0,
			"-0.023": 0.0,
			"-0.022": 0.0,
			"-0.021": 0.0,
			"-0.02": 0.0,
			"-0.019": 0.0,
			"-0.018": 0.0,
			"-0.017": 0.0,
			"-0.016": 0.0,
			"-0.015": 0.0,
			"-0.014": 0.0,
			"-0.013": 0.0,
			"-0.012": 0.0,
			"-0.011": 0.0,
			"-0.01": 0.588007898816,
			"-0.009": 2.194686886,
			"-0.008": 5.14419117726,
			"-0.007": 11.7735082805,
			"-0.006": 20.0228021227,
			"-0.005": 20.1432324738,
			"-0.004": 19.3998865148,
			"-0.003": 19.4522919476,
			"-0.002": 22.9759614883,
			"-0.001": 27.4208717095,
			"0.0": 33.3407826318,
			"0.001": 29.198215765,
			"0.002": 18.3993721335,
			"0.003": 20.8385705084,
			"0.004": 11.836096719,
			"0.005": 6.97404874419,
			"0.006": 8.37463991972,
			"0.007": 11.674614201,
			"0.008": 10.964208506,
			"0.009": 7.60463200313,
			"0.01": 5.49190806263,
			"0.011": 2.04007673008,
			"0.012": 0.210475172215,
			"0.013": 0.0,
			"0.014": 0.0,
			"0.015": 0.0,
			"0.016": 0.0,
			"0.017": 0.0,
			"0.018": 0.0,
			"0.019": 0.0,
			"0.02": 0.0,
			"0.021": 0.0,
			"0.022": 0.0,
			"0.023": 0.0,
			"0.024": 0.0,
			"0.025": 0.0
		}
	}
}
