{
	 "smiles": "CC(C)CCCC(C)C1CC[C@@]2(C)[C@@]34CCC5[C@H](C)[C@@H](O)CC[C@]5(C)[C@]3(CC[C@]12C)O4", 
	 "Tm": 435.15, 
	 "num_atms": 81, 
	 "gaussian": { 
		 "optdone": 1, 
		 "sigma_profile": "yes", 
		 "theory": "DFT", 
		 "functional": "B3LYP", 
		 "basiset": "6-31G**", 
		 "properties": { 
			 "R2extent": 19901.3734, 
			 "electric_dipole_moment_norm": 2.83753498128, 
			 "electric_quadrupole_moment_norm": 20.5923152079, 
			 "total_energy": -1285.66153759, 
			 "HOMO_LUMO_gap": 0.31431, 
			 "cosmo_polarized_energy": -10.08, 
			 "cosmo_cavitation_energy": 64.84, 
			 "cosmo_dispersion_energy": -43.82, 
			 "cosmo_repulsion_energy": 3.16, 
			 "cosmo_total_nonelectrostatic_energy": 24.18, 
			 "SMD_solvation_energy": 8.94 
		},
		"coords": [
			{
				"x": -2.300228079,
				"y": -0.8207166704,
				"z": -7.2910430023,
				"element": "C" 
			},
			{
				"x": -3.1879367798,
				"y": -1.4402082355,
				"z": -6.2012406119,
				"element": "C" 
			},
			{
				"x": -2.7701218072,
				"y": -2.8929534116,
				"z": -5.929222039,
				"element": "C" 
			},
			{
				"x": -3.1852206767,
				"y": -0.5550917385,
				"z": -4.936316259,
				"element": "C" 
			},
			{
				"x": -4.1527495191,
				"y": -0.9984688955,
				"z": -3.812232609,
				"element": "C" 
			},
			{
				"x": -3.5694871099,
				"y": -1.8886244933,
				"z": -2.684689231,
				"element": "C" 
			},
			{
				"x": -3.0519760713,
				"y": -1.1740842855,
				"z": -1.3986574715,
				"element": "C" 
			},
			{
				"x": -4.2002279144,
				"y": -0.3489752817,
				"z": -0.7819482615,
				"element": "C" 
			},
			{
				"x": -1.7513482573,
				"y": -0.3557760613,
				"z": -1.6567863365,
				"element": "C" 
			},
			{
				"x": -0.5881786455,
				"y": -1.2325251705,
				"z": -2.2583604017,
				"element": "C" 
			},
			{
				"x": 0.6883813518,
				"y": -1.0094666042,
				"z": -1.4036949386,
				"element": "C" 
			},
			{
				"x": 0.1304159902,
				"y": -0.5561163885,
				"z": -0.0361898593,
				"element": "C" 
			},
			{
				"x": -0.3899367216,
				"y": -1.8357294256,
				"z": 0.6741091151,
				"element": "C" 
			},
			{
				"x": 1.0991425914,
				"y": 0.1346435828,
				"z": 0.9642056093,
				"element": "C" 
			},
			{
				"x": 2.5920403137,
				"y": -0.1175840939,
				"z": 0.7754990904,
				"element": "C" 
			},
			{
				"x": 3.5307443001,
				"y": 0.9222318248,
				"z": 1.4152735019,
				"element": "C" 
			},
			{
				"x": 2.9729151973,
				"y": 1.5103541114,
				"z": 2.7193813603,
				"element": "C" 
			},
			{
				"x": 4.0061170031,
				"y": 2.3566057522,
				"z": 3.5107541709,
				"element": "C" 
			},
			{
				"x": 5.3097839012,
				"y": 1.5929680465,
				"z": 3.7954329677,
				"element": "C" 
			},
			{
				"x": 3.3866724803,
				"y": 2.842417706,
				"z": 4.8397295855,
				"element": "C" 
			},
			{
				"x": 4.2934672197,
				"y": 3.6418861119,
				"z": 5.6013257473,
				"element": "O" 
			},
			{
				"x": 2.0610395862,
				"y": 3.573197995,
				"z": 4.6232448642,
				"element": "C" 
			},
			{
				"x": 1.0621845524,
				"y": 2.7390734842,
				"z": 3.8121821257,
				"element": "C" 
			},
			{
				"x": 1.6287495951,
				"y": 2.2662435669,
				"z": 2.4469759729,
				"element": "C" 
			},
			{
				"x": 1.8268832204,
				"y": 3.4797245985,
				"z": 1.5076103614,
				"element": "C" 
			},
			{
				"x": 0.6145047817,
				"y": 1.2775205736,
				"z": 1.8042039372,
				"element": "C" 
			},
			{
				"x": -0.817189066,
				"y": 1.7930939186,
				"z": 1.6397639635,
				"element": "C" 
			},
			{
				"x": -1.7477705399,
				"y": 0.94497128,
				"z": 0.7386924549,
				"element": "C" 
			},
			{
				"x": -1.0035777415,
				"y": 0.4278917041,
				"z": -0.5018446713,
				"element": "C" 
			},
			{
				"x": -0.3966856999,
				"y": 1.6674781721,
				"z": -1.2273713896,
				"element": "C" 
			},
			{
				"x": 0.6811506774,
				"y": -0.0472374837,
				"z": 2.3482161737,
				"element": "O" 
			},
			{
				"x": -2.3358944402,
				"y": -1.4076444547,
				"z": -8.2154076549,
				"element": "H" 
			},
			{
				"x": -2.6134560718,
				"y": 0.2015384146,
				"z": -7.5305604853,
				"element": "H" 
			},
			{
				"x": -1.2529826853,
				"y": -0.7793758897,
				"z": -6.9664220361,
				"element": "H" 
			},
			{
				"x": -4.221195808,
				"y": -1.4575101162,
				"z": -6.5812144056,
				"element": "H" 
			},
			{
				"x": -3.4359695559,
				"y": -3.3852738528,
				"z": -5.2140372192,
				"element": "H" 
			},
			{
				"x": -2.7864524444,
				"y": -3.4820255954,
				"z": -6.8530497227,
				"element": "H" 
			},
			{
				"x": -1.7508409814,
				"y": -2.9401305517,
				"z": -5.5259783411,
				"element": "H" 
			},
			{
				"x": -3.4495577194,
				"y": 0.4632832985,
				"z": -5.2501332788,
				"element": "H" 
			},
			{
				"x": -2.159109138,
				"y": -0.4898418473,
				"z": -4.5538564434,
				"element": "H" 
			},
			{
				"x": -4.9884435903,
				"y": -1.5360044387,
				"z": -4.2794030662,
				"element": "H" 
			},
			{
				"x": -4.6088946966,
				"y": -0.1091560554,
				"z": -3.3645230888,
				"element": "H" 
			},
			{
				"x": -4.3597945381,
				"y": -2.5721554888,
				"z": -2.3485293301,
				"element": "H" 
			},
			{
				"x": -2.7850915687,
				"y": -2.5318800227,
				"z": -3.0954911184,
				"element": "H" 
			},
			{
				"x": -2.8244483792,
				"y": -1.9827424944,
				"z": -0.6934135755,
				"element": "H" 
			},
			{
				"x": -4.0462532026,
				"y": -0.1530001875,
				"z": 0.2791619983,
				"element": "H" 
			},
			{
				"x": -5.1494281328,
				"y": -0.8885250402,
				"z": -0.875857617,
				"element": "H" 
			},
			{
				"x": -4.3255229502,
				"y": 0.6194330846,
				"z": -1.2791285452,
				"element": "H" 
			},
			{
				"x": -2.0446556957,
				"y": 0.3987010009,
				"z": -2.3966197534,
				"element": "H" 
			},
			{
				"x": -0.8642234789,
				"y": -2.2903181526,
				"z": -2.230933453,
				"element": "H" 
			},
			{
				"x": -0.4017582576,
				"y": -0.9997968223,
				"z": -3.3110902234,
				"element": "H" 
			},
			{
				"x": 1.2914413032,
				"y": -1.9206518201,
				"z": -1.3317894498,
				"element": "H" 
			},
			{
				"x": 1.325475705,
				"y": -0.2431220916,
				"z": -1.8540314558,
				"element": "H" 
			},
			{
				"x": -0.9724717504,
				"y": -2.4690495906,
				"z": 0.004576049,
				"element": "H" 
			},
			{
				"x": -0.9857304227,
				"y": -1.6177467156,
				"z": 1.5593512555,
				"element": "H" 
			},
			{
				"x": 0.4693952221,
				"y": -2.4258884794,
				"z": 1.0104932345,
				"element": "H" 
			},
			{
				"x": 2.8236495841,
				"y": -0.1961180463,
				"z": -0.2900172811,
				"element": "H" 
			},
			{
				"x": 2.7936356274,
				"y": -1.1081621255,
				"z": 1.2044500445,
				"element": "H" 
			},
			{
				"x": 4.4967591581,
				"y": 0.4431167989,
				"z": 1.5958605089,
				"element": "H" 
			},
			{
				"x": 3.7284204848,
				"y": 1.7337109212,
				"z": 0.7039190556,
				"element": "H" 
			},
			{
				"x": 2.7108854513,
				"y": 0.6632390687,
				"z": 3.367435092,
				"element": "H" 
			},
			{
				"x": 4.2648195238,
				"y": 3.2546485354,
				"z": 2.9260921817,
				"element": "H" 
			},
			{
				"x": 5.9097606483,
				"y": 1.4417559362,
				"z": 2.8941379463,
				"element": "H" 
			},
			{
				"x": 5.9125457211,
				"y": 2.1520614482,
				"z": 4.5149747943,
				"element": "H" 
			},
			{
				"x": 5.0987401043,
				"y": 0.6075488419,
				"z": 4.2290833099,
				"element": "H" 
			},
			{
				"x": 3.2069604612,
				"y": 1.9609793788,
				"z": 5.4708397412,
				"element": "H" 
			},
			{
				"x": 4.4533208881,
				"y": 4.4527146866,
				"z": 5.0985424204,
				"element": "H" 
			},
			{
				"x": 1.6351319299,
				"y": 3.8366445129,
				"z": 5.5978191874,
				"element": "H" 
			},
			{
				"x": 2.263796997,
				"y": 4.5240986462,
				"z": 4.1086252415,
				"element": "H" 
			},
			{
				"x": 0.7786459437,
				"y": 1.8512976952,
				"z": 4.392782292,
				"element": "H" 
			},
			{
				"x": 0.1466670819,
				"y": 3.3218496399,
				"z": 3.6635242423,
				"element": "H" 
			},
			{
				"x": 2.0865448489,
				"y": 3.1737006784,
				"z": 0.4904991811,
				"element": "H" 
			},
			{
				"x": 0.9181577327,
				"y": 4.0858766674,
				"z": 1.4458535859,
				"element": "H" 
			},
			{
				"x": 2.624083441,
				"y": 4.1398766329,
				"z": 1.8577150782,
				"element": "H" 
			},
			{
				"x": -1.266405811,
				"y": 1.8654517786,
				"z": 2.6363977511,
				"element": "H" 
			},
			{
				"x": -0.7806302877,
				"y": 2.8147449898,
				"z": 1.2503939673,
				"element": "H" 
			},
			{
				"x": -2.1529481652,
				"y": 0.1120943765,
				"z": 1.3181510923,
				"element": "H" 
			},
			{
				"x": -2.5986179327,
				"y": 1.5723990879,
				"z": 0.4536707054,
				"element": "H" 
			},
			{
				"x": 0.4149240957,
				"y": 2.1395595134,
				"z": -0.672055971,
				"element": "H" 
			},
			{
				"x": -1.181576131,
				"y": 2.4189224987,
				"z": -1.372235248,
				"element": "H" 
			},
			{
				"x": -0.0112662505,
				"y": 1.4193275583,
				"z": -2.2187751127,
				"element": "H" 
			}
		],
		 "valence_orbital": [ 
			{
				"type": "occ",
				"energy": -0.2846,
				"method": "rhf"
			},
			{
				"type": "occ",
				"energy": -0.26692,
				"method": "rhf"
			},
			{
				"type": "occ",
				"energy": -0.26187,
				"method": "rhf"
			},
			{
				"type": "occ",
				"energy": -0.25184,
				"method": "rhf"
			},
			{
				"type": "occ",
				"energy": -0.24598,
				"method": "rhf"
			},
			{
				"type": "unocc",
				"energy": 0.06833,
				"method": "rhf"
			},
			{
				"type": "unocc",
				"energy": 0.07139,
				"method": "rhf"
			},
			{
				"type": "unocc",
				"energy": 0.07706,
				"method": "rhf"
			},
			{
				"type": "unocc",
				"energy": 0.08427,
				"method": "rhf"
			},
			{
				"type": "unocc",
				"energy": 0.08885,
				"method": "rhf"
			}
		],
		"cosmo_sigma_profile": { 
			"-0.025": 0.0,
			"-0.024": 0.0,
			"-0.023": 0.0,
			"-0.022": 0.0,
			"-0.021": 0.0,
			"-0.02": 0.0,
			"-0.019": 0.0,
			"-0.018": 0.0,
			"-0.017": 0.0,
			"-0.016": 0.0,
			"-0.015": 0.075345717364,
			"-0.014": 0.787711141519,
			"-0.013": 1.11441303003,
			"-0.012": 0.700359998292,
			"-0.011": 0.444981737786,
			"-0.01": 1.53492998325,
			"-0.009": 1.17726010949,
			"-0.008": 1.20888970768,
			"-0.007": 0.921609049897,
			"-0.006": 1.32419811744,
			"-0.005": 2.17364699068,
			"-0.004": 5.25497495241,
			"-0.003": 26.6313129357,
			"-0.002": 80.3708848077,
			"-0.001": 109.900747388,
			"0.0": 102.228884118,
			"0.001": 70.8005079081,
			"0.002": 46.9097120601,
			"0.003": 7.99926328132,
			"0.004": 3.92422911711,
			"0.005": 3.33530788111,
			"0.006": 3.02148131086,
			"0.007": 3.29873650786,
			"0.008": 2.5444741261,
			"0.009": 2.4315199403,
			"0.01": 2.56767940124,
			"0.011": 2.34714328944,
			"0.012": 2.57376531423,
			"0.013": 2.9339942597,
			"0.014": 1.67237550322,
			"0.015": 1.53935373752,
			"0.016": 0.00878530814547,
			"0.017": 0.0,
			"0.018": 0.0,
			"0.019": 0.0,
			"0.02": 0.0,
			"0.021": 0.0,
			"0.022": 0.0,
			"0.023": 0.0,
			"0.024": 0.0,
			"0.025": 0.0
		}
	}
}
