{
	 "smiles": "ClC1=C(Cl)C(Cl)=C(Cl)C2=C1OC1=C2C=CC=C1", 
	 "Tm": 442.15, 
	 "num_atms": 21, 
	 "gaussian": { 
		 "optdone": 1, 
		 "sigma_profile": "yes", 
		 "theory": "DFT", 
		 "functional": "B3LYP", 
		 "basiset": "6-31G**", 
		 "properties": { 
			 "R2extent": 8150.7462, 
			 "electric_dipole_moment_norm": 3.25142985316, 
			 "electric_quadrupole_moment_norm": 4.4572894095, 
			 "total_energy": -2375.67070122, 
			 "HOMO_LUMO_gap": 0.17699, 
			 "cosmo_polarized_energy": -4.54, 
			 "cosmo_cavitation_energy": 32.39, 
			 "cosmo_dispersion_energy": -24.68, 
			 "cosmo_repulsion_energy": 1.87, 
			 "cosmo_total_nonelectrostatic_energy": 9.58, 
			 "SMD_solvation_energy": 4.49 
		},
		"coords": [
			{
				"x": -2.6018054173,
				"y": 0.1465912526,
				"z": -2.6292859774,
				"element": "Cl" 
			},
			{
				"x": -1.2052937044,
				"y": 1.0937089682,
				"z": -2.2322901165,
				"element": "C" 
			},
			{
				"x": -0.8324316915,
				"y": 2.2421733148,
				"z": -2.9477895587,
				"element": "C" 
			},
			{
				"x": -1.7994319003,
				"y": 2.7548052924,
				"z": -4.2946248393,
				"element": "Cl" 
			},
			{
				"x": 0.3196177695,
				"y": 2.9789424661,
				"z": -2.5793330301,
				"element": "C" 
			},
			{
				"x": 0.7596415786,
				"y": 4.3981117961,
				"z": -3.4823383263,
				"element": "Cl" 
			},
			{
				"x": 1.1065476635,
				"y": 2.5714633175,
				"z": -1.4922006228,
				"element": "C" 
			},
			{
				"x": 2.5260675482,
				"y": 3.4660678952,
				"z": -1.0258510817,
				"element": "Cl" 
			},
			{
				"x": 0.7466307976,
				"y": 1.4289190229,
				"z": -0.7704799796,
				"element": "C" 
			},
			{
				"x": -0.4030018664,
				"y": 0.7189803069,
				"z": -1.161362982,
				"element": "C" 
			},
			{
				"x": -0.6274007039,
				"y": -0.3670477147,
				"z": -0.3686014385,
				"element": "O" 
			},
			{
				"x": 0.3908930808,
				"y": -0.375006724,
				"z": 0.5617095117,
				"element": "C" 
			},
			{
				"x": 1.27478722,
				"y": 0.7041758774,
				"z": 0.373024758,
				"element": "C" 
			},
			{
				"x": 2.3690971501,
				"y": 0.8420071243,
				"z": 1.2384848604,
				"element": "C" 
			},
			{
				"x": 2.533639037,
				"y": -0.1000007428,
				"z": 2.2516578753,
				"element": "C" 
			},
			{
				"x": 1.6323513487,
				"y": -1.1658817526,
				"z": 2.4123866386,
				"element": "C" 
			},
			{
				"x": 0.5363278689,
				"y": -1.3230833415,
				"z": 1.5631443724,
				"element": "C" 
			},
			{
				"x": 3.0686158852,
				"y": 1.6605801801,
				"z": 1.1217270603,
				"element": "H" 
			},
			{
				"x": 3.3752045822,
				"y": -0.0092611348,
				"z": 2.9312074704,
				"element": "H" 
			},
			{
				"x": 1.7898772724,
				"y": -1.8825159202,
				"z": 3.2124911195,
				"element": "H" 
			},
			{
				"x": -0.1698335189,
				"y": -2.1385294837,
				"z": 1.6710242861,
				"element": "H" 
			}
		],
		 "valence_orbital": [ 
			{
				"type": "occ",
				"energy": -0.3083,
				"method": "rhf"
			},
			{
				"type": "occ",
				"energy": -0.29122,
				"method": "rhf"
			},
			{
				"type": "occ",
				"energy": -0.27045,
				"method": "rhf"
			},
			{
				"type": "occ",
				"energy": -0.24394,
				"method": "rhf"
			},
			{
				"type": "occ",
				"energy": -0.24077,
				"method": "rhf"
			},
			{
				"type": "unocc",
				"energy": -0.06378,
				"method": "rhf"
			},
			{
				"type": "unocc",
				"energy": -0.0336,
				"method": "rhf"
			},
			{
				"type": "unocc",
				"energy": -0.0333,
				"method": "rhf"
			},
			{
				"type": "unocc",
				"energy": -0.00949,
				"method": "rhf"
			},
			{
				"type": "unocc",
				"energy": 0.00767,
				"method": "rhf"
			}
		],
		"cosmo_sigma_profile": { 
			"-0.025": 0.0,
			"-0.024": 0.0,
			"-0.023": 0.0,
			"-0.022": 0.0,
			"-0.021": 0.0,
			"-0.02": 0.0,
			"-0.019": 0.0,
			"-0.018": 0.0,
			"-0.017": 0.0,
			"-0.016": 0.0,
			"-0.015": 0.0,
			"-0.014": 0.0,
			"-0.013": 0.0,
			"-0.012": 0.0,
			"-0.011": 0.0,
			"-0.01": 0.0,
			"-0.009": 0.0,
			"-0.008": 0.964596369249,
			"-0.007": 3.77694380054,
			"-0.006": 8.04240171749,
			"-0.005": 8.65605869302,
			"-0.004": 12.72779106,
			"-0.003": 17.9329443029,
			"-0.002": 32.4689354179,
			"-0.001": 35.233982456,
			"0.0": 25.8200802798,
			"0.001": 25.8026712272,
			"0.002": 29.4561651418,
			"0.003": 43.4733862531,
			"0.004": 21.6217865916,
			"0.005": 2.30679341103,
			"0.006": 2.0663893025,
			"0.007": 1.01971022458,
			"0.008": 0.0543654513901,
			"0.009": 0.0,
			"0.01": 0.0,
			"0.011": 0.0,
			"0.012": 0.0,
			"0.013": 0.0,
			"0.014": 0.0,
			"0.015": 0.0,
			"0.016": 0.0,
			"0.017": 0.0,
			"0.018": 0.0,
			"0.019": 0.0,
			"0.02": 0.0,
			"0.021": 0.0,
			"0.022": 0.0,
			"0.023": 0.0,
			"0.024": 0.0,
			"0.025": 0.0
		}
	}
}
