{
	 "smiles": "CC1=CC=C(CNC(=O)C2=C(NC(=O)CCl)C=CC=C2)C=C1", 
	 "Tm": 424.15, 
	 "num_atms": 39, 
	 "gaussian": { 
		 "optdone": 1, 
		 "sigma_profile": "yes", 
		 "theory": "DFT", 
		 "functional": "B3LYP", 
		 "basiset": "6-31G**", 
		 "properties": { 
			 "R2extent": 9831.6317, 
			 "electric_dipole_moment_norm": 2.45364790669, 
			 "electric_quadrupole_moment_norm": 14.2475260502, 
			 "total_energy": -1378.24509976, 
			 "HOMO_LUMO_gap": 0.19241, 
			 "cosmo_polarized_energy": -16.64, 
			 "cosmo_cavitation_energy": 44.84, 
			 "cosmo_dispersion_energy": -30.88, 
			 "cosmo_repulsion_energy": 2.35, 
			 "cosmo_total_nonelectrostatic_energy": 16.32, 
			 "SMD_solvation_energy": 8.27 
		},
		"coords": [
			{
				"x": -1.8913010875,
				"y": 6.8545779241,
				"z": -2.0738067894,
				"element": "C" 
			},
			{
				"x": -1.7803337446,
				"y": 5.6083867194,
				"z": -1.2270868086,
				"element": "C" 
			},
			{
				"x": -0.6568179416,
				"y": 5.3911836978,
				"z": -0.4135395947,
				"element": "C" 
			},
			{
				"x": -0.5519630143,
				"y": 4.2564713951,
				"z": 0.385674803,
				"element": "C" 
			},
			{
				"x": -1.5736626115,
				"y": 3.293875046,
				"z": 0.3936917909,
				"element": "C" 
			},
			{
				"x": -1.4542275818,
				"y": 2.0461450272,
				"z": 1.2461430417,
				"element": "C" 
			},
			{
				"x": -0.5134790603,
				"y": 1.0509818392,
				"z": 0.7119869688,
				"element": "N" 
			},
			{
				"x": 0.814979892,
				"y": 1.0578029289,
				"z": 1.0888990578,
				"element": "C" 
			},
			{
				"x": 1.2482379178,
				"y": 1.8189524351,
				"z": 1.9475899724,
				"element": "O" 
			},
			{
				"x": 1.7128141439,
				"y": 0.0737216831,
				"z": 0.3859784574,
				"element": "C" 
			},
			{
				"x": 1.3620867859,
				"y": -1.2501884539,
				"z": 0.0194571862,
				"element": "C" 
			},
			{
				"x": 0.0822836266,
				"y": -1.7495569253,
				"z": 0.3654700452,
				"element": "N" 
			},
			{
				"x": -0.4459090682,
				"y": -2.9769093835,
				"z": 0.0937997118,
				"element": "C" 
			},
			{
				"x": 0.0821866468,
				"y": -3.8797239902,
				"z": -0.5412146633,
				"element": "O" 
			},
			{
				"x": -1.8414621053,
				"y": -3.2799565385,
				"z": 0.6540721002,
				"element": "C" 
			},
			{
				"x": -2.7562377132,
				"y": -1.9127707692,
				"z": 1.4211148689,
				"element": "Cl" 
			},
			{
				"x": 2.3081743015,
				"y": -2.0545432547,
				"z": -0.6373805052,
				"element": "C" 
			},
			{
				"x": 3.5784651337,
				"y": -1.5564162068,
				"z": -0.9156773531,
				"element": "C" 
			},
			{
				"x": 3.9432237973,
				"y": -0.2656978652,
				"z": -0.5310281726,
				"element": "C" 
			},
			{
				"x": 3.0118691663,
				"y": 0.5303922345,
				"z": 0.1254307109,
				"element": "C" 
			},
			{
				"x": -2.6940247176,
				"y": 3.5050415014,
				"z": -0.4147717416,
				"element": "C" 
			},
			{
				"x": -2.7953810918,
				"y": 4.6462356935,
				"z": -1.2139918449,
				"element": "C" 
			},
			{
				"x": -0.9771672658,
				"y": 7.0282903107,
				"z": -2.6517886593,
				"element": "H" 
			},
			{
				"x": -2.7264430699,
				"y": 6.7881126631,
				"z": -2.7767757382,
				"element": "H" 
			},
			{
				"x": -2.0521334468,
				"y": 7.7440725816,
				"z": -1.4525644374,
				"element": "H" 
			},
			{
				"x": 0.1447970372,
				"y": 6.1262927941,
				"z": -0.4046182632,
				"element": "H" 
			},
			{
				"x": 0.3233017555,
				"y": 4.1034690909,
				"z": 1.0104452326,
				"element": "H" 
			},
			{
				"x": -1.0930496305,
				"y": 2.2927313006,
				"z": 2.2463477922,
				"element": "H" 
			},
			{
				"x": -2.4309562352,
				"y": 1.5617303077,
				"z": 1.3436086261,
				"element": "H" 
			},
			{
				"x": -0.7180461009,
				"y": 0.701803744,
				"z": -0.2164075178,
				"element": "H" 
			},
			{
				"x": -0.4992436265,
				"y": -1.123516903,
				"z": 0.9135948607,
				"element": "H" 
			},
			{
				"x": -2.4524276692,
				"y": -3.6591724257,
				"z": -0.1643927433,
				"element": "H" 
			},
			{
				"x": -1.7436114605,
				"y": -4.059980373,
				"z": 1.4104487722,
				"element": "H" 
			},
			{
				"x": 2.0354959587,
				"y": -3.062824019,
				"z": -0.9127353881,
				"element": "H" 
			},
			{
				"x": 4.29124248,
				"y": -2.1953112139,
				"z": -1.4291253225,
				"element": "H" 
			},
			{
				"x": 4.9393353235,
				"y": 0.1132787895,
				"z": -0.7364934555,
				"element": "H" 
			},
			{
				"x": 3.2657907708,
				"y": 1.5322709104,
				"z": 0.4544384452,
				"element": "H" 
			},
			{
				"x": -3.4999640008,
				"y": 2.7741158206,
				"z": -0.4196358496,
				"element": "H" 
			},
			{
				"x": -3.6769424938,
				"y": 4.7898318833,
				"z": -1.8340575963,
				"element": "H" 
			}
		],
		 "valence_orbital": [ 
			{
				"type": "occ",
				"energy": -0.26391,
				"method": "rhf"
			},
			{
				"type": "occ",
				"energy": -0.25184,
				"method": "rhf"
			},
			{
				"type": "occ",
				"energy": -0.25019,
				"method": "rhf"
			},
			{
				"type": "occ",
				"energy": -0.23747,
				"method": "rhf"
			},
			{
				"type": "occ",
				"energy": -0.23388,
				"method": "rhf"
			},
			{
				"type": "unocc",
				"energy": -0.04147,
				"method": "rhf"
			},
			{
				"type": "unocc",
				"energy": -0.02141,
				"method": "rhf"
			},
			{
				"type": "unocc",
				"energy": -0.00599,
				"method": "rhf"
			},
			{
				"type": "unocc",
				"energy": -0.00276,
				"method": "rhf"
			},
			{
				"type": "unocc",
				"energy": 0.0043,
				"method": "rhf"
			}
		],
		"cosmo_sigma_profile": { 
			"-0.025": 0.0,
			"-0.024": 0.0,
			"-0.023": 0.0,
			"-0.022": 0.0,
			"-0.021": 0.0,
			"-0.02": 0.0,
			"-0.019": 0.0,
			"-0.018": 0.0,
			"-0.017": 0.0,
			"-0.016": 0.0,
			"-0.015": 0.0291982786549,
			"-0.014": 0.672880581981,
			"-0.013": 0.947632745461,
			"-0.012": 0.889874726304,
			"-0.011": 1.07366476843,
			"-0.01": 2.0370927244,
			"-0.009": 5.80873110304,
			"-0.008": 5.6872853744,
			"-0.007": 6.87564005399,
			"-0.006": 14.5120906096,
			"-0.005": 22.705671459,
			"-0.004": 29.4027318324,
			"-0.003": 26.3701558978,
			"-0.002": 28.561275309,
			"-0.001": 28.9555363292,
			"0.0": 30.6511099925,
			"0.001": 24.7835900101,
			"0.002": 22.3282299998,
			"0.003": 23.8456485364,
			"0.004": 24.5328450921,
			"0.005": 19.7198001766,
			"0.006": 11.6395571751,
			"0.007": 3.81753742809,
			"0.008": 2.95215012163,
			"0.009": 3.16698308604,
			"0.01": 3.3033746938,
			"0.011": 3.94713650772,
			"0.012": 5.30544519248,
			"0.013": 4.46255789429,
			"0.014": 0.798828096687,
			"0.015": 0.0,
			"0.016": 0.0,
			"0.017": 0.0,
			"0.018": 0.0,
			"0.019": 0.0,
			"0.02": 0.0,
			"0.021": 0.0,
			"0.022": 0.0,
			"0.023": 0.0,
			"0.024": 0.0,
			"0.025": 0.0
		}
	}
}
