{
	 "smiles": "COC1=C(N)C=C(C)C(Cl)=C1", 
	 "Tm": 375.15, 
	 "num_atms": 21, 
	 "gaussian": { 
		 "optdone": 1, 
		 "sigma_profile": "yes", 
		 "theory": "DFT", 
		 "functional": "B3LYP", 
		 "basiset": "6-31G**", 
		 "properties": { 
			 "R2extent": 2820.1135, 
			 "electric_dipole_moment_norm": 2.89369723883, 
			 "electric_quadrupole_moment_norm": 8.35790017947, 
			 "total_energy": -901.041774706, 
			 "HOMO_LUMO_gap": 0.19897, 
			 "cosmo_polarized_energy": -8.45, 
			 "cosmo_cavitation_energy": 26.1, 
			 "cosmo_dispersion_energy": -19.13, 
			 "cosmo_repulsion_energy": 1.55, 
			 "cosmo_total_nonelectrostatic_energy": 8.52, 
			 "SMD_solvation_energy": 4.89 
		},
		"coords": [
			{
				"x": -0.7238468982,
				"y": 0.8477134038,
				"z": 1.9859985859,
				"element": "C" 
			},
			{
				"x": -0.6413795531,
				"y": -0.4465663231,
				"z": 1.3799100881,
				"element": "O" 
			},
			{
				"x": -0.3015615746,
				"y": -0.4190668326,
				"z": 0.0378463113,
				"element": "C" 
			},
			{
				"x": 1.0506952734,
				"y": -0.594210739,
				"z": -0.3146062912,
				"element": "C" 
			},
			{
				"x": 2.0082741702,
				"y": -0.7023986943,
				"z": 0.6926497724,
				"element": "N" 
			},
			{
				"x": 1.3792354936,
				"y": -0.6108728585,
				"z": -1.6766802352,
				"element": "C" 
			},
			{
				"x": 0.421120761,
				"y": -0.4554810556,
				"z": -2.6860054547,
				"element": "C" 
			},
			{
				"x": 0.826693381,
				"y": -0.4793052851,
				"z": -4.1380106724,
				"element": "C" 
			},
			{
				"x": -0.9124766663,
				"y": -0.2869125318,
				"z": -2.2874845669,
				"element": "C" 
			},
			{
				"x": -2.1820056573,
				"y": -0.096122295,
				"z": -3.500175542,
				"element": "Cl" 
			},
			{
				"x": -1.2761377283,
				"y": -0.2695898681,
				"z": -0.9418399489,
				"element": "C" 
			},
			{
				"x": 0.2345581601,
				"y": 1.3777570301,
				"z": 1.9244249381,
				"element": "H" 
			},
			{
				"x": -1.5010197359,
				"y": 1.4582099297,
				"z": 1.5100273876,
				"element": "H" 
			},
			{
				"x": -0.9849054076,
				"y": 0.6849142191,
				"z": 3.0340469642,
				"element": "H" 
			},
			{
				"x": 1.621009948,
				"y": -1.0385680316,
				"z": 1.5654456578,
				"element": "H" 
			},
			{
				"x": 2.8523134299,
				"y": -1.1915442233,
				"z": 0.4281612637,
				"element": "H" 
			},
			{
				"x": 2.41991772,
				"y": -0.7445870793,
				"z": -1.9629257325,
				"element": "H" 
			},
			{
				"x": 1.9058022988,
				"y": -0.6206709975,
				"z": -4.2376774417,
				"element": "H" 
			},
			{
				"x": 0.5553512001,
				"y": 0.4542509613,
				"z": -4.6425011293,
				"element": "H" 
			},
			{
				"x": 0.3233041429,
				"y": -1.2874497828,
				"z": -4.67951834,
				"element": "H" 
			},
			{
				"x": -2.3136427578,
				"y": -0.1554989464,
				"z": -0.6482856144,
				"element": "H" 
			}
		],
		 "valence_orbital": [ 
			{
				"type": "occ",
				"energy": -0.30297,
				"method": "rhf"
			},
			{
				"type": "occ",
				"energy": -0.28785,
				"method": "rhf"
			},
			{
				"type": "occ",
				"energy": -0.27685,
				"method": "rhf"
			},
			{
				"type": "occ",
				"energy": -0.24136,
				"method": "rhf"
			},
			{
				"type": "occ",
				"energy": -0.19969,
				"method": "rhf"
			},
			{
				"type": "unocc",
				"energy": -0.00072,
				"method": "rhf"
			},
			{
				"type": "unocc",
				"energy": 0.01021,
				"method": "rhf"
			},
			{
				"type": "unocc",
				"energy": 0.03993,
				"method": "rhf"
			},
			{
				"type": "unocc",
				"energy": 0.07835,
				"method": "rhf"
			},
			{
				"type": "unocc",
				"energy": 0.10888,
				"method": "rhf"
			}
		],
		"cosmo_sigma_profile": { 
			"-0.025": 0.0,
			"-0.024": 0.0,
			"-0.023": 0.0,
			"-0.022": 0.0,
			"-0.021": 0.0,
			"-0.02": 0.0,
			"-0.019": 0.0,
			"-0.018": 0.0,
			"-0.017": 0.0,
			"-0.016": 0.0,
			"-0.015": 0.0,
			"-0.014": 0.0,
			"-0.013": 0.274312476575,
			"-0.012": 1.63265926285,
			"-0.011": 1.45314104872,
			"-0.01": 2.43764128039,
			"-0.009": 3.36934937051,
			"-0.008": 1.99907425724,
			"-0.007": 3.01841465049,
			"-0.006": 6.41191698824,
			"-0.005": 9.40944728604,
			"-0.004": 16.0967645966,
			"-0.003": 18.6239856362,
			"-0.002": 17.6225025315,
			"-0.001": 15.9466316502,
			"0.0": 16.6075642085,
			"0.001": 12.9924941834,
			"0.002": 12.479254227,
			"0.003": 15.8616812253,
			"0.004": 18.7948360342,
			"0.005": 16.7464555536,
			"0.006": 5.57961781171,
			"0.007": 2.21137052094,
			"0.008": 1.78388246098,
			"0.009": 1.20533989586,
			"0.01": 1.30449789313,
			"0.011": 2.3410563485,
			"0.012": 1.18433245716,
			"0.013": 0.592396654932,
			"0.014": 0.328188836474,
			"0.015": 0.0395911586315,
			"0.016": 0.0,
			"0.017": 0.0,
			"0.018": 0.0,
			"0.019": 0.0,
			"0.02": 0.0,
			"0.021": 0.0,
			"0.022": 0.0,
			"0.023": 0.0,
			"0.024": 0.0,
			"0.025": 0.0
		}
	}
}
