{
	 "smiles": "OC(=O)C=CC1=C(Cl)C=CC(=C1)C(F)(F)F", 
	 "Tm": 421.15, 
	 "num_atms": 22, 
	 "gaussian": { 
		 "optdone": 1, 
		 "sigma_profile": "yes", 
		 "theory": "DFT", 
		 "functional": "B3LYP", 
		 "basiset": "6-31G**", 
		 "properties": { 
			 "R2extent": 5887.1085, 
			 "electric_dipole_moment_norm": 5.11422856842, 
			 "electric_quadrupole_moment_norm": 17.0628509581, 
			 "total_energy": -1294.83228077, 
			 "HOMO_LUMO_gap": 0.18508, 
			 "cosmo_polarized_energy": -13.77, 
			 "cosmo_cavitation_energy": 30.53, 
			 "cosmo_dispersion_energy": -21.05, 
			 "cosmo_repulsion_energy": 1.6, 
			 "cosmo_total_nonelectrostatic_energy": 11.07, 
			 "SMD_solvation_energy": 7.3 
		},
		"coords": [
			{
				"x": 1.7952957168,
				"y": 2.777579608,
				"z": 1.1296531091,
				"element": "O" 
			},
			{
				"x": 2.8739686657,
				"y": 2.2158518634,
				"z": 0.5278264503,
				"element": "C" 
			},
			{
				"x": 3.3884404174,
				"y": 2.7549022037,
				"z": -0.4238751886,
				"element": "O" 
			},
			{
				"x": 3.4275205081,
				"y": 0.9455085494,
				"z": 1.0892023673,
				"element": "C" 
			},
			{
				"x": 2.8303027684,
				"y": -0.0199439576,
				"z": 1.8102998215,
				"element": "C" 
			},
			{
				"x": 1.4088834764,
				"y": -0.149777531,
				"z": 2.1941220267,
				"element": "C" 
			},
			{
				"x": 1.037452271,
				"y": -0.5872636292,
				"z": 3.4814045232,
				"element": "C" 
			},
			{
				"x": 2.26885206,
				"y": -0.8904838873,
				"z": 4.6924891874,
				"element": "Cl" 
			},
			{
				"x": -0.2974971876,
				"y": -0.7726857904,
				"z": 3.8395046693,
				"element": "C" 
			},
			{
				"x": -1.2998929217,
				"y": -0.5357069009,
				"z": 2.9043268625,
				"element": "C" 
			},
			{
				"x": -0.9616049214,
				"y": -0.1154677117,
				"z": 1.6150731679,
				"element": "C" 
			},
			{
				"x": 0.3735270754,
				"y": 0.0712680777,
				"z": 1.2664987037,
				"element": "C" 
			},
			{
				"x": -2.0503623306,
				"y": 0.0683662783,
				"z": 0.5886969539,
				"element": "C" 
			},
			{
				"x": -3.1415030592,
				"y": 0.6508173891,
				"z": 1.1320237374,
				"element": "F" 
			},
			{
				"x": -2.450612103,
				"y": -1.1195111711,
				"z": 0.0820631191,
				"element": "F" 
			},
			{
				"x": -1.6461843612,
				"y": 0.8306918446,
				"z": -0.4456171251,
				"element": "F" 
			},
			{
				"x": 1.5290554031,
				"y": 2.2610938246,
				"z": 1.90419508,
				"element": "H" 
			},
			{
				"x": 4.4731711972,
				"y": 0.8170525374,
				"z": 0.8268851891,
				"element": "H" 
			},
			{
				"x": 3.4650796259,
				"y": -0.835206232,
				"z": 2.1513431333,
				"element": "H" 
			},
			{
				"x": -0.5425072342,
				"y": -1.0964842594,
				"z": 4.8445312772,
				"element": "H" 
			},
			{
				"x": -2.3405471849,
				"y": -0.6744292936,
				"z": 3.1767061048,
				"element": "H" 
			},
			{
				"x": 0.6236621184,
				"y": 0.3780281879,
				"z": 0.25794683,
				"element": "H" 
			}
		],
		 "valence_orbital": [ 
			{
				"type": "occ",
				"energy": -0.3313,
				"method": "rhf"
			},
			{
				"type": "occ",
				"energy": -0.31396,
				"method": "rhf"
			},
			{
				"type": "occ",
				"energy": -0.28779,
				"method": "rhf"
			},
			{
				"type": "occ",
				"energy": -0.28231,
				"method": "rhf"
			},
			{
				"type": "occ",
				"energy": -0.26951,
				"method": "rhf"
			},
			{
				"type": "unocc",
				"energy": -0.08443,
				"method": "rhf"
			},
			{
				"type": "unocc",
				"energy": -0.05427,
				"method": "rhf"
			},
			{
				"type": "unocc",
				"energy": -0.02772,
				"method": "rhf"
			},
			{
				"type": "unocc",
				"energy": 0.0045,
				"method": "rhf"
			},
			{
				"type": "unocc",
				"energy": 0.05557,
				"method": "rhf"
			}
		],
		"cosmo_sigma_profile": { 
			"-0.025": 0.0,
			"-0.024": 0.0,
			"-0.023": 0.0,
			"-0.022": 0.0,
			"-0.021": 0.0,
			"-0.02": 0.0,
			"-0.019": 0.0,
			"-0.018": 0.0,
			"-0.017": 0.0,
			"-0.016": 0.438643112156,
			"-0.015": 1.12746354986,
			"-0.014": 0.694315887648,
			"-0.013": 0.926892296638,
			"-0.012": 0.838353513506,
			"-0.011": 0.883053278558,
			"-0.01": 0.919166876088,
			"-0.009": 2.05626584876,
			"-0.008": 8.45082339091,
			"-0.007": 10.5471906436,
			"-0.006": 10.1880535696,
			"-0.005": 9.24276256039,
			"-0.004": 11.0141009002,
			"-0.003": 13.1866530632,
			"-0.002": 15.2878330664,
			"-0.001": 20.3148814071,
			"0.0": 24.7161454039,
			"0.001": 22.4659788514,
			"0.002": 31.5056229208,
			"0.003": 27.6491990159,
			"0.004": 5.89646472206,
			"0.005": 2.31210354539,
			"0.006": 2.14257076995,
			"0.007": 2.00730340438,
			"0.008": 2.40667517936,
			"0.009": 3.79454596535,
			"0.01": 5.06662764044,
			"0.011": 4.9277739272,
			"0.012": 5.29360234861,
			"0.013": 1.50166587794,
			"0.014": 0.0110617486797,
			"0.015": 0.0,
			"0.016": 0.0,
			"0.017": 0.0,
			"0.018": 0.0,
			"0.019": 0.0,
			"0.02": 0.0,
			"0.021": 0.0,
			"0.022": 0.0,
			"0.023": 0.0,
			"0.024": 0.0,
			"0.025": 0.0
		}
	}
}
