{
	 "smiles": "FC1=C(C=CC=N1)C1=CC=C(Cl)C=N1", 
	 "Tm": 373.15, 
	 "num_atms": 20, 
	 "gaussian": { 
		 "optdone": 1, 
		 "sigma_profile": "yes", 
		 "theory": "DFT", 
		 "functional": "B3LYP", 
		 "basiset": "6-31G**", 
		 "properties": { 
			 "R2extent": 4619.8018, 
			 "electric_dipole_moment_norm": 4.25486668299, 
			 "electric_quadrupole_moment_norm": 12.020091785, 
			 "total_energy": -1054.20557306, 
			 "HOMO_LUMO_gap": 0.18765, 
			 "cosmo_polarized_energy": -11.06, 
			 "cosmo_cavitation_energy": 27.39, 
			 "cosmo_dispersion_energy": -20.22, 
			 "cosmo_repulsion_energy": 1.56, 
			 "cosmo_total_nonelectrostatic_energy": 8.73, 
			 "SMD_solvation_energy": 2.27 
		},
		"coords": [
			{
				"x": -2.3083856462,
				"y": -0.9535463993,
				"z": 0.287961488,
				"element": "F" 
			},
			{
				"x": -2.5229435166,
				"y": 0.3028182977,
				"z": -0.1154938553,
				"element": "C" 
			},
			{
				"x": -1.5823763593,
				"y": 1.294841584,
				"z": 0.2248669144,
				"element": "C" 
			},
			{
				"x": -1.8506838731,
				"y": 2.5723333077,
				"z": -0.2785304627,
				"element": "C" 
			},
			{
				"x": -2.9914709161,
				"y": 2.8011651362,
				"z": -1.0485892945,
				"element": "C" 
			},
			{
				"x": -3.8416416767,
				"y": 1.7273279275,
				"z": -1.2943111188,
				"element": "C" 
			},
			{
				"x": -3.6056249727,
				"y": 0.4887182517,
				"z": -0.8371502731,
				"element": "N" 
			},
			{
				"x": -0.3826957416,
				"y": 1.0180625881,
				"z": 1.0542584225,
				"element": "C" 
			},
			{
				"x": 0.8593278625,
				"y": 1.5849520292,
				"z": 0.7273116491,
				"element": "C" 
			},
			{
				"x": 1.9598611772,
				"y": 1.3365396491,
				"z": 1.5426638712,
				"element": "C" 
			},
			{
				"x": 1.7768115939,
				"y": 0.5205367702,
				"z": 2.6554628724,
				"element": "C" 
			},
			{
				"x": 3.1116851636,
				"y": 0.158882654,
				"z": 3.7282703152,
				"element": "Cl" 
			},
			{
				"x": 0.5110264677,
				"y": -0.0159570294,
				"z": 2.908723519,
				"element": "C" 
			},
			{
				"x": -0.5418775257,
				"y": 0.2270186908,
				"z": 2.1303598926,
				"element": "N" 
			},
			{
				"x": -1.1747502793,
				"y": 3.3891687415,
				"z": -0.0427593736,
				"element": "H" 
			},
			{
				"x": -3.2189056513,
				"y": 3.7881669307,
				"z": -1.4363605473,
				"element": "H" 
			},
			{
				"x": -4.7490511009,
				"y": 1.8544249618,
				"z": -1.8804640375,
				"element": "H" 
			},
			{
				"x": 0.9677274182,
				"y": 2.1956257125,
				"z": -0.1629798179,
				"element": "H" 
			},
			{
				"x": 2.9348667378,
				"y": 1.7547076375,
				"z": 1.3169069141,
				"element": "H" 
			},
			{
				"x": 0.3519008387,
				"y": -0.6584874416,
				"z": 3.7715529222,
				"element": "H" 
			}
		],
		 "valence_orbital": [ 
			{
				"type": "occ",
				"energy": -0.3016,
				"method": "rhf"
			},
			{
				"type": "occ",
				"energy": -0.28266,
				"method": "rhf"
			},
			{
				"type": "occ",
				"energy": -0.27607,
				"method": "rhf"
			},
			{
				"type": "occ",
				"energy": -0.26851,
				"method": "rhf"
			},
			{
				"type": "occ",
				"energy": -0.24632,
				"method": "rhf"
			},
			{
				"type": "unocc",
				"energy": -0.05867,
				"method": "rhf"
			},
			{
				"type": "unocc",
				"energy": -0.03992,
				"method": "rhf"
			},
			{
				"type": "unocc",
				"energy": -0.02506,
				"method": "rhf"
			},
			{
				"type": "unocc",
				"energy": -0.00087,
				"method": "rhf"
			},
			{
				"type": "unocc",
				"energy": 0.02045,
				"method": "rhf"
			}
		],
		"cosmo_sigma_profile": { 
			"-0.025": 0.0,
			"-0.024": 0.0,
			"-0.023": 0.0,
			"-0.022": 0.0,
			"-0.021": 0.0,
			"-0.02": 0.0,
			"-0.019": 0.0,
			"-0.018": 0.0,
			"-0.017": 0.0,
			"-0.016": 0.0,
			"-0.015": 0.0,
			"-0.014": 0.0,
			"-0.013": 0.0,
			"-0.012": 0.0,
			"-0.011": 0.0,
			"-0.01": 0.0,
			"-0.009": 0.838232525054,
			"-0.008": 8.30093520774,
			"-0.007": 13.2659180648,
			"-0.006": 12.5978417815,
			"-0.005": 10.6421820578,
			"-0.004": 8.85156990477,
			"-0.003": 9.45733120407,
			"-0.002": 13.3348205284,
			"-0.001": 20.5420689287,
			"0.0": 27.9984281222,
			"0.001": 22.8460813716,
			"0.002": 15.1892434888,
			"0.003": 13.7846074599,
			"0.004": 18.1323930853,
			"0.005": 5.74104362638,
			"0.006": 3.77871908131,
			"0.007": 3.89741598613,
			"0.008": 2.71786258699,
			"0.009": 2.7012190473,
			"0.01": 2.01238050154,
			"0.011": 1.9860553385,
			"0.012": 1.92173424976,
			"0.013": 2.10540246432,
			"0.014": 1.19893593687,
			"0.015": 0.302138417345,
			"0.016": 0.0,
			"0.017": 0.0,
			"0.018": 0.0,
			"0.019": 0.0,
			"0.02": 0.0,
			"0.021": 0.0,
			"0.022": 0.0,
			"0.023": 0.0,
			"0.024": 0.0,
			"0.025": 0.0
		}
	}
}
