{
	 "smiles": "ClCC(=O)NCC1(CCC1)C1=CC=CC=C1", 
	 "Tm": 369.15, 
	 "num_atms": 32, 
	 "gaussian": { 
		 "optdone": 1, 
		 "sigma_profile": "yes", 
		 "theory": "DFT", 
		 "functional": "B3LYP", 
		 "basiset": "6-31G**", 
		 "properties": { 
			 "R2extent": 6132.4776, 
			 "electric_dipole_moment_norm": 4.03388661467, 
			 "electric_quadrupole_moment_norm": 21.7116557664, 
			 "total_energy": -1095.18480579, 
			 "HOMO_LUMO_gap": 0.22949, 
			 "cosmo_polarized_energy": -12.51, 
			 "cosmo_cavitation_energy": 35.78, 
			 "cosmo_dispersion_energy": -24.46, 
			 "cosmo_repulsion_energy": 1.93, 
			 "cosmo_total_nonelectrostatic_energy": 13.25, 
			 "SMD_solvation_energy": 5.62 
		},
		"coords": [
			{
				"x": -0.7207862377,
				"y": 3.6167233118,
				"z": 3.5337057394,
				"element": "Cl" 
			},
			{
				"x": -2.0559834343,
				"y": 2.3842419513,
				"z": 3.4790372968,
				"element": "C" 
			},
			{
				"x": -2.7804035342,
				"y": 2.3516148171,
				"z": 2.1308617724,
				"element": "C" 
			},
			{
				"x": -3.9468415141,
				"y": 2.7174134083,
				"z": 2.0645762335,
				"element": "O" 
			},
			{
				"x": -2.1044795623,
				"y": 1.8812411514,
				"z": 1.0434609609,
				"element": "N" 
			},
			{
				"x": -0.7357357022,
				"y": 1.4060510944,
				"z": 0.9209928858,
				"element": "C" 
			},
			{
				"x": -0.6405600683,
				"y": 0.0340074013,
				"z": 0.207525795,
				"element": "C" 
			},
			{
				"x": -1.158622991,
				"y": -1.1250696298,
				"z": 1.1167856503,
				"element": "C" 
			},
			{
				"x": 0.2989045652,
				"y": -1.3908046385,
				"z": 1.5768813329,
				"element": "C" 
			},
			{
				"x": 0.804181257,
				"y": -0.5429917179,
				"z": 0.3799968981,
				"element": "C" 
			},
			{
				"x": -1.1892986132,
				"y": 0.1356072357,
				"z": -1.2030663203,
				"element": "C" 
			},
			{
				"x": -0.3832538713,
				"y": 0.6189940609,
				"z": -2.2455274313,
				"element": "C" 
			},
			{
				"x": -0.8874146469,
				"y": 0.75473455,
				"z": -3.5387810731,
				"element": "C" 
			},
			{
				"x": -2.213432496,
				"y": 0.4133460726,
				"z": -3.8150484622,
				"element": "C" 
			},
			{
				"x": -3.0278385963,
				"y": -0.0646923747,
				"z": -2.788424286,
				"element": "C" 
			},
			{
				"x": -2.5191645357,
				"y": -0.202659848,
				"z": -1.4942950499,
				"element": "C" 
			},
			{
				"x": -1.6109341455,
				"y": 1.4230425773,
				"z": 3.7438161884,
				"element": "H" 
			},
			{
				"x": -2.7892560214,
				"y": 2.6767512984,
				"z": 4.2265872604,
				"element": "H" 
			},
			{
				"x": -2.6500348503,
				"y": 1.925870522,
				"z": 0.1904980362,
				"element": "H" 
			},
			{
				"x": -0.1305367588,
				"y": 2.1353415282,
				"z": 0.3651366685,
				"element": "H" 
			},
			{
				"x": -0.2959320257,
				"y": 1.3315845205,
				"z": 1.9169322409,
				"element": "H" 
			},
			{
				"x": -1.8975248591,
				"y": -0.8596708704,
				"z": 1.8795178249,
				"element": "H" 
			},
			{
				"x": -1.5568670165,
				"y": -1.9540059869,
				"z": 0.5254439428,
				"element": "H" 
			},
			{
				"x": 0.6211502779,
				"y": -2.4344741232,
				"z": 1.6099743032,
				"element": "H" 
			},
			{
				"x": 0.5295531201,
				"y": -0.9342358158,
				"z": 2.5439711178,
				"element": "H" 
			},
			{
				"x": 1.6055028978,
				"y": 0.1784120988,
				"z": 0.5733808105,
				"element": "H" 
			},
			{
				"x": 1.0925089815,
				"y": -1.1621794417,
				"z": -0.4736456876,
				"element": "H" 
			},
			{
				"x": 0.6511314679,
				"y": 0.8857702811,
				"z": -2.0434411706,
				"element": "H" 
			},
			{
				"x": -0.244227992,
				"y": 1.1255819703,
				"z": -4.3319667077,
				"element": "H" 
			},
			{
				"x": -2.6064903851,
				"y": 0.5172886886,
				"z": -4.8221196313,
				"element": "H" 
			},
			{
				"x": -4.0602838445,
				"y": -0.3344731772,
				"z": -2.9919541648,
				"element": "H" 
			},
			{
				"x": -3.1615288651,
				"y": -0.5843609157,
				"z": -0.7054129736,
				"element": "H" 
			}
		],
		 "valence_orbital": [ 
			{
				"type": "occ",
				"energy": -0.30371,
				"method": "rhf"
			},
			{
				"type": "occ",
				"energy": -0.25803,
				"method": "rhf"
			},
			{
				"type": "occ",
				"energy": -0.25689,
				"method": "rhf"
			},
			{
				"type": "occ",
				"energy": -0.25251,
				"method": "rhf"
			},
			{
				"type": "occ",
				"energy": -0.24623,
				"method": "rhf"
			},
			{
				"type": "unocc",
				"energy": -0.01674,
				"method": "rhf"
			},
			{
				"type": "unocc",
				"energy": -0.01087,
				"method": "rhf"
			},
			{
				"type": "unocc",
				"energy": -0.00885,
				"method": "rhf"
			},
			{
				"type": "unocc",
				"energy": 0.04496,
				"method": "rhf"
			},
			{
				"type": "unocc",
				"energy": 0.07594,
				"method": "rhf"
			}
		],
		"cosmo_sigma_profile": { 
			"-0.025": 0.0,
			"-0.024": 0.0,
			"-0.023": 0.0,
			"-0.022": 0.0,
			"-0.021": 0.0,
			"-0.02": 0.0,
			"-0.019": 0.0,
			"-0.018": 0.0,
			"-0.017": 0.0,
			"-0.016": 0.0,
			"-0.015": 0.0,
			"-0.014": 0.0,
			"-0.013": 0.0,
			"-0.012": 0.0,
			"-0.011": 0.135808450939,
			"-0.01": 0.736050876537,
			"-0.009": 0.954633116132,
			"-0.008": 5.52108697706,
			"-0.007": 6.16540387451,
			"-0.006": 8.9022164751,
			"-0.005": 17.8280484505,
			"-0.004": 23.3300732684,
			"-0.003": 32.7763999803,
			"-0.002": 25.3127029736,
			"-0.001": 26.2084078756,
			"0.0": 22.4946772645,
			"0.001": 22.6023110453,
			"0.002": 18.132009587,
			"0.003": 13.2551607675,
			"0.004": 13.5887178609,
			"0.005": 16.321573943,
			"0.006": 11.5941470527,
			"0.007": 1.80814125709,
			"0.008": 1.1680057678,
			"0.009": 1.1191919987,
			"0.01": 0.678796820614,
			"0.011": 1.98025631912,
			"0.012": 2.65494489849,
			"0.013": 5.29382366866,
			"0.014": 3.30425600562,
			"0.015": 0.0879412443114,
			"0.016": 0.0,
			"0.017": 0.0,
			"0.018": 0.0,
			"0.019": 0.0,
			"0.02": 0.0,
			"0.021": 0.0,
			"0.022": 0.0,
			"0.023": 0.0,
			"0.024": 0.0,
			"0.025": 0.0
		}
	}
}
