{
	 "smiles": "OC1=C(C=C(C=C1)[N+]([O-])=O)N1C=NN=N1", 
	 "Tm": 473.15, 
	 "num_atms": 20, 
	 "gaussian": { 
		 "optdone": 1, 
		 "sigma_profile": "yes", 
		 "theory": "DFT", 
		 "functional": "B3LYP", 
		 "basiset": "6-31G**", 
		 "properties": { 
			 "R2extent": 4268.3566, 
			 "electric_dipole_moment_norm": 5.15158548507, 
			 "electric_quadrupole_moment_norm": 31.6126667904, 
			 "total_energy": -769.006245059, 
			 "HOMO_LUMO_gap": 0.16507, 
			 "cosmo_polarized_energy": -24.97, 
			 "cosmo_cavitation_energy": 26.4, 
			 "cosmo_dispersion_energy": -19.6, 
			 "cosmo_repulsion_energy": 1.49, 
			 "cosmo_total_nonelectrostatic_energy": 8.3, 
			 "SMD_solvation_energy": 6.04 
		},
		"coords": [
			{
				"x": 2.7494824367,
				"y": 0.3218751965,
				"z": -0.9459844314,
				"element": "O" 
			},
			{
				"x": 1.4704920376,
				"y": 0.3762607049,
				"z": -0.5326045797,
				"element": "C" 
			},
			{
				"x": 1.0305898948,
				"y": 1.4693687837,
				"z": 0.2586180001,
				"element": "C" 
			},
			{
				"x": -0.2991579314,
				"y": 1.5062204531,
				"z": 0.6763562734,
				"element": "C" 
			},
			{
				"x": -1.1762824537,
				"y": 0.4879471112,
				"z": 0.3221117076,
				"element": "C" 
			},
			{
				"x": -0.7673781789,
				"y": -0.5934973444,
				"z": -0.452732224,
				"element": "C" 
			},
			{
				"x": 0.5529937462,
				"y": -0.6336627128,
				"z": -0.8697500416,
				"element": "C" 
			},
			{
				"x": -2.565194155,
				"y": 0.5651505896,
				"z": 0.7817901314,
				"element": "N" 
			},
			{
				"x": -2.8883350915,
				"y": 1.5376423826,
				"z": 1.4650054595,
				"element": "O" 
			},
			{
				"x": -3.3216699102,
				"y": -0.3483674668,
				"z": 0.4549328122,
				"element": "O" 
			},
			{
				"x": 1.893547793,
				"y": 2.5331934496,
				"z": 0.6446351839,
				"element": "N" 
			},
			{
				"x": 1.614155127,
				"y": 3.6354606697,
				"z": 1.3933348552,
				"element": "C" 
			},
			{
				"x": 2.6959317614,
				"y": 4.3652639844,
				"z": 1.5125028101,
				"element": "N" 
			},
			{
				"x": 3.6678257436,
				"y": 3.6991864799,
				"z": 0.8218086224,
				"element": "N" 
			},
			{
				"x": 3.216346119,
				"y": 2.6138216803,
				"z": 0.3001822681,
				"element": "N" 
			},
			{
				"x": 2.8851453632,
				"y": -0.4796247407,
				"z": -1.4706020882,
				"element": "H" 
			},
			{
				"x": -0.6877894563,
				"y": 2.3142811089,
				"z": 1.2800302215,
				"element": "H" 
			},
			{
				"x": -1.4742862326,
				"y": -1.3709483107,
				"z": -0.7120287065,
				"element": "H" 
			},
			{
				"x": 0.9018658281,
				"y": -1.4657160117,
				"z": -1.4761303128,
				"element": "H" 
			},
			{
				"x": 0.6534175588,
				"y": 3.8702439926,
				"z": 1.8205240385,
				"element": "H" 
			}
		],
		 "valence_orbital": [ 
			{
				"type": "occ",
				"energy": -0.30611,
				"method": "rhf"
			},
			{
				"type": "occ",
				"energy": -0.30338,
				"method": "rhf"
			},
			{
				"type": "occ",
				"energy": -0.29454,
				"method": "rhf"
			},
			{
				"type": "occ",
				"energy": -0.29381,
				"method": "rhf"
			},
			{
				"type": "occ",
				"energy": -0.26787,
				"method": "rhf"
			},
			{
				"type": "unocc",
				"energy": -0.1028,
				"method": "rhf"
			},
			{
				"type": "unocc",
				"energy": -0.07215,
				"method": "rhf"
			},
			{
				"type": "unocc",
				"energy": -0.02387,
				"method": "rhf"
			},
			{
				"type": "unocc",
				"energy": 0.00518,
				"method": "rhf"
			},
			{
				"type": "unocc",
				"energy": 0.01503,
				"method": "rhf"
			}
		],
		"cosmo_sigma_profile": { 
			"-0.025": 0.0,
			"-0.024": 0.0,
			"-0.023": 0.0,
			"-0.022": 0.0,
			"-0.021": 0.0,
			"-0.02": 0.674395388076,
			"-0.019": 1.64475341988,
			"-0.018": 0.948893586988,
			"-0.017": 1.35784557289,
			"-0.016": 1.00524582846,
			"-0.015": 1.92773259972,
			"-0.014": 2.64780555725,
			"-0.013": 2.7991680927,
			"-0.012": 2.51498897514,
			"-0.011": 2.94085241287,
			"-0.01": 2.95891830201,
			"-0.009": 4.11610997169,
			"-0.008": 5.54797768404,
			"-0.007": 5.95506127125,
			"-0.006": 7.17335589075,
			"-0.005": 10.0535674325,
			"-0.004": 11.2221934024,
			"-0.003": 12.7841332733,
			"-0.002": 18.36822803,
			"-0.001": 15.0558331451,
			"0.0": 9.39887751812,
			"0.001": 7.87565795399,
			"0.002": 4.9543889554,
			"0.003": 5.91836787935,
			"0.004": 4.54174679194,
			"0.005": 5.89798539052,
			"0.006": 7.92297915442,
			"0.007": 12.8838327173,
			"0.008": 11.9285588924,
			"0.009": 9.40045401634,
			"0.01": 7.7197371464,
			"0.011": 4.13098988942,
			"0.012": 4.32920220609,
			"0.013": 3.24139899393,
			"0.014": 1.74300986769,
			"0.015": 0.195855519525,
			"0.016": 0.0,
			"0.017": 0.0,
			"0.018": 0.0,
			"0.019": 0.0,
			"0.02": 0.0,
			"0.021": 0.0,
			"0.022": 0.0,
			"0.023": 0.0,
			"0.024": 0.0,
			"0.025": 0.0
		}
	}
}
