{
	 "smiles": "OC1=CC(Cl)=C(O)C=C1Cl", 
	 "Tm": 442.65, 
	 "num_atms": 14, 
	 "gaussian": { 
		 "optdone": 1, 
		 "sigma_profile": "yes", 
		 "theory": "DFT", 
		 "functional": "B3LYP", 
		 "basiset": "6-31G**", 
		 "properties": { 
			 "R2extent": 2962.5319, 
			 "electric_dipole_moment_norm": 2.66984563224, 
			 "electric_quadrupole_moment_norm": 10.6743864906, 
			 "total_energy": -1301.86792282, 
			 "HOMO_LUMO_gap": 0.19153, 
			 "cosmo_polarized_energy": -11.51, 
			 "cosmo_cavitation_energy": 22.06, 
			 "cosmo_dispersion_energy": -17.03, 
			 "cosmo_repulsion_energy": 1.38, 
			 "cosmo_total_nonelectrostatic_energy": 6.42, 
			 "SMD_solvation_energy": 4.0 
		},
		"coords": [
			{
				"x": -1.9172491432,
				"y": -0.00422095,
				"z": 2.2185999199,
				"element": "O" 
			},
			{
				"x": -1.3272196329,
				"y": -0.6573750686,
				"z": 1.1848424051,
				"element": "C" 
			},
			{
				"x": -1.7840422466,
				"y": -1.9414607546,
				"z": 0.8683729066,
				"element": "C" 
			},
			{
				"x": -1.2202345166,
				"y": -2.6600484982,
				"z": -0.1784157008,
				"element": "C" 
			},
			{
				"x": -1.8162853827,
				"y": -4.2609124175,
				"z": -0.5447836016,
				"element": "Cl" 
			},
			{
				"x": -0.1760163262,
				"y": -2.1188908186,
				"z": -0.9489372566,
				"element": "C" 
			},
			{
				"x": 0.3402364099,
				"y": -2.86596223,
				"z": -1.9629542306,
				"element": "O" 
			},
			{
				"x": 0.2823039264,
				"y": -0.8381658695,
				"z": -0.6361763441,
				"element": "C" 
			},
			{
				"x": -0.2875149509,
				"y": -0.1227629707,
				"z": 0.4149960619,
				"element": "C" 
			},
			{
				"x": 0.3027657963,
				"y": 1.4916176434,
				"z": 0.7959009478,
				"element": "Cl" 
			},
			{
				"x": -1.5013916565,
				"y": 0.8650491012,
				"z": 2.3197514877,
				"element": "H" 
			},
			{
				"x": -2.5884447169,
				"y": -2.3672380985,
				"z": 1.4563617983,
				"element": "H" 
			},
			{
				"x": 1.0437794766,
				"y": -2.3687970623,
				"z": -2.3992762472,
				"element": "H" 
			},
			{
				"x": 1.0874129632,
				"y": -0.390232006,
				"z": -1.2110821466,
				"element": "H" 
			}
		],
		 "valence_orbital": [ 
			{
				"type": "occ",
				"energy": -0.34015,
				"method": "rhf"
			},
			{
				"type": "occ",
				"energy": -0.31325,
				"method": "rhf"
			},
			{
				"type": "occ",
				"energy": -0.3067,
				"method": "rhf"
			},
			{
				"type": "occ",
				"energy": -0.25671,
				"method": "rhf"
			},
			{
				"type": "occ",
				"energy": -0.21944,
				"method": "rhf"
			},
			{
				"type": "unocc",
				"energy": -0.02791,
				"method": "rhf"
			},
			{
				"type": "unocc",
				"energy": 0.0038,
				"method": "rhf"
			},
			{
				"type": "unocc",
				"energy": 0.0058,
				"method": "rhf"
			},
			{
				"type": "unocc",
				"energy": 0.03388,
				"method": "rhf"
			},
			{
				"type": "unocc",
				"energy": 0.05719,
				"method": "rhf"
			}
		],
		"cosmo_sigma_profile": { 
			"-0.025": 0.0,
			"-0.024": 0.0,
			"-0.023": 0.0,
			"-0.022": 0.0,
			"-0.021": 0.0,
			"-0.02": 0.0,
			"-0.019": 0.371779172892,
			"-0.018": 1.22454208142,
			"-0.017": 1.39933869522,
			"-0.016": 1.23737451076,
			"-0.015": 1.58681351949,
			"-0.014": 1.41096793868,
			"-0.013": 2.04795874957,
			"-0.012": 2.00363039717,
			"-0.011": 1.48850775691,
			"-0.01": 2.50089775192,
			"-0.009": 2.62941916858,
			"-0.008": 2.94735411249,
			"-0.007": 4.06783471227,
			"-0.006": 3.83915487787,
			"-0.005": 4.8918909677,
			"-0.004": 4.47269182525,
			"-0.003": 5.79371916493,
			"-0.002": 8.44801291395,
			"-0.001": 8.86451161364,
			"0.0": 12.6022132045,
			"0.001": 21.9400221258,
			"0.002": 27.1495896503,
			"0.003": 16.7500332711,
			"0.004": 14.9035783316,
			"0.005": 6.68333530501,
			"0.006": 3.61651314095,
			"0.007": 3.14267590549,
			"0.008": 3.42373633645,
			"0.009": 3.87186666161,
			"0.01": 3.7138190227,
			"0.011": 2.28439009289,
			"0.012": 0.0,
			"0.013": 0.0,
			"0.014": 0.0,
			"0.015": 0.0,
			"0.016": 0.0,
			"0.017": 0.0,
			"0.018": 0.0,
			"0.019": 0.0,
			"0.02": 0.0,
			"0.021": 0.0,
			"0.022": 0.0,
			"0.023": 0.0,
			"0.024": 0.0,
			"0.025": 0.0
		}
	}
}
