{
	 "smiles": "NNC(=O)C(=O)N1CCCC1", 
	 "Tm": 391.15, 
	 "num_atms": 22, 
	 "gaussian": { 
		 "optdone": 1, 
		 "sigma_profile": "yes", 
		 "theory": "DFT", 
		 "functional": "B3LYP", 
		 "basiset": "6-31G**", 
		 "properties": { 
			 "R2extent": 2000.7073, 
			 "electric_dipole_moment_norm": 3.39719422759, 
			 "electric_quadrupole_moment_norm": 8.21106780571, 
			 "total_energy": -549.957700814, 
			 "HOMO_LUMO_gap": 0.19825, 
			 "cosmo_polarized_energy": -12.98, 
			 "cosmo_cavitation_energy": 24.69, 
			 "cosmo_dispersion_energy": -18.56, 
			 "cosmo_repulsion_energy": 1.53, 
			 "cosmo_total_nonelectrostatic_energy": 7.65, 
			 "SMD_solvation_energy": 4.79 
		},
		"coords": [
			{
				"x": 2.9072698215,
				"y": -0.5818625597,
				"z": 1.4941132026,
				"element": "N" 
			},
			{
				"x": 2.602464491,
				"y": -0.836757462,
				"z": 0.1369204487,
				"element": "N" 
			},
			{
				"x": 1.3959063865,
				"y": -0.8148989249,
				"z": -0.4929500217,
				"element": "C" 
			},
			{
				"x": 1.2732855509,
				"y": -1.1667003517,
				"z": -1.6638375945,
				"element": "O" 
			},
			{
				"x": 0.1790020589,
				"y": -0.3972658562,
				"z": 0.3540081725,
				"element": "C" 
			},
			{
				"x": 0.1200539267,
				"y": -0.6538807681,
				"z": 1.5638973657,
				"element": "O" 
			},
			{
				"x": -0.8382711778,
				"y": 0.1979860714,
				"z": -0.3039298678,
				"element": "N" 
			},
			{
				"x": -0.92816872,
				"y": 0.5791679839,
				"z": -1.7287881086,
				"element": "C" 
			},
			{
				"x": -2.1137074334,
				"y": 1.5537860697,
				"z": -1.7462039728,
				"element": "C" 
			},
			{
				"x": -3.0390766486,
				"y": 1.0011757546,
				"z": -0.6495931927,
				"element": "C" 
			},
			{
				"x": -2.062935375,
				"y": 0.5407483778,
				"z": 0.4422562611,
				"element": "C" 
			},
			{
				"x": 2.9682414616,
				"y": 0.4278623151,
				"z": 1.6230082463,
				"element": "H" 
			},
			{
				"x": 2.1018351996,
				"y": -0.8928163156,
				"z": 2.0358988499,
				"element": "H" 
			},
			{
				"x": 3.3498748535,
				"y": -1.2563960195,
				"z": -0.4023647265,
				"element": "H" 
			},
			{
				"x": -1.1186400117,
				"y": -0.3059823468,
				"z": -2.3436451483,
				"element": "H" 
			},
			{
				"x": 0.0061066436,
				"y": 1.0210685792,
				"z": -2.0775368777,
				"element": "H" 
			},
			{
				"x": -2.5889770582,
				"y": 1.6051701721,
				"z": -2.7293234115,
				"element": "H" 
			},
			{
				"x": -1.775715819,
				"y": 2.5628742328,
				"z": -1.482856995,
				"element": "H" 
			},
			{
				"x": -3.605211979,
				"y": 0.1447981887,
				"z": -1.0328767811,
				"element": "H" 
			},
			{
				"x": -3.7577244068,
				"y": 1.7361668601,
				"z": -0.2781894017,
				"element": "H" 
			},
			{
				"x": -1.8435638025,
				"y": 1.3369234125,
				"z": 1.1648551137,
				"element": "H" 
			},
			{
				"x": -2.4100479619,
				"y": -0.3247674135,
				"z": 1.0125384394,
				"element": "H" 
			}
		],
		 "valence_orbital": [ 
			{
				"type": "occ",
				"energy": -0.29918,
				"method": "rhf"
			},
			{
				"type": "occ",
				"energy": -0.29418,
				"method": "rhf"
			},
			{
				"type": "occ",
				"energy": -0.25209,
				"method": "rhf"
			},
			{
				"type": "occ",
				"energy": -0.24585,
				"method": "rhf"
			},
			{
				"type": "occ",
				"energy": -0.2297,
				"method": "rhf"
			},
			{
				"type": "unocc",
				"energy": -0.03145,
				"method": "rhf"
			},
			{
				"type": "unocc",
				"energy": 0.07286,
				"method": "rhf"
			},
			{
				"type": "unocc",
				"energy": 0.07863,
				"method": "rhf"
			},
			{
				"type": "unocc",
				"energy": 0.0967,
				"method": "rhf"
			},
			{
				"type": "unocc",
				"energy": 0.10724,
				"method": "rhf"
			}
		],
		"cosmo_sigma_profile": { 
			"-0.025": 0.0,
			"-0.024": 0.0,
			"-0.023": 0.0,
			"-0.022": 0.0,
			"-0.021": 0.0,
			"-0.02": 0.0,
			"-0.019": 0.0,
			"-0.018": 0.0,
			"-0.017": 0.0,
			"-0.016": 0.0,
			"-0.015": 0.0,
			"-0.014": 0.924167715783,
			"-0.013": 0.800619591452,
			"-0.012": 1.37336502396,
			"-0.011": 2.74979615199,
			"-0.01": 1.83903564065,
			"-0.009": 2.28936546625,
			"-0.008": 1.81799454032,
			"-0.007": 2.9420847536,
			"-0.006": 3.10727732923,
			"-0.005": 8.89329540597,
			"-0.004": 21.6427697592,
			"-0.003": 28.4732830995,
			"-0.002": 22.5496940972,
			"-0.001": 19.4331107976,
			"0.0": 14.9426303921,
			"0.001": 6.06137012666,
			"0.002": 5.07490846104,
			"0.003": 3.23423069768,
			"0.004": 4.39668479336,
			"0.005": 2.78680820209,
			"0.006": 4.25306475472,
			"0.007": 4.23461285957,
			"0.008": 2.67835442373,
			"0.009": 3.1481969172,
			"0.01": 4.09560880906,
			"0.011": 4.05711098288,
			"0.012": 5.68177749126,
			"0.013": 6.12609303354,
			"0.014": 1.7934506691,
			"0.015": 0.736723438359,
			"0.016": 0.625821351227,
			"0.017": 0.1315116747,
			"0.018": 0.0,
			"0.019": 0.0,
			"0.02": 0.0,
			"0.021": 0.0,
			"0.022": 0.0,
			"0.023": 0.0,
			"0.024": 0.0,
			"0.025": 0.0
		}
	}
}
