{
	 "smiles": "CC1=NN(C(C)=C1C=O)C1=CC=C(F)C=C1", 
	 "Tm": 402.15, 
	 "num_atms": 27, 
	 "gaussian": { 
		 "optdone": 1, 
		 "sigma_profile": "yes", 
		 "theory": "DFT", 
		 "functional": "B3LYP", 
		 "basiset": "6-31G**", 
		 "properties": { 
			 "R2extent": 4964.5214, 
			 "electric_dipole_moment_norm": 1.66741403976, 
			 "electric_quadrupole_moment_norm": 17.8819653727, 
			 "total_energy": -748.455643777, 
			 "HOMO_LUMO_gap": 0.18863, 
			 "cosmo_polarized_energy": -10.88, 
			 "cosmo_cavitation_energy": 31.81, 
			 "cosmo_dispersion_energy": -22.58, 
			 "cosmo_repulsion_energy": 1.72, 
			 "cosmo_total_nonelectrostatic_energy": 10.95, 
			 "SMD_solvation_energy": 6.25 
		},
		"coords": [
			{
				"x": 0.9769751834,
				"y": -4.4682174817,
				"z": -0.6211916896,
				"element": "C" 
			},
			{
				"x": 0.8167774631,
				"y": -3.1639055625,
				"z": 0.0989385185,
				"element": "C" 
			},
			{
				"x": 1.0037227879,
				"y": -2.023333691,
				"z": -0.5438897497,
				"element": "N" 
			},
			{
				"x": 0.7707255479,
				"y": -1.036801732,
				"z": 0.3869563212,
				"element": "N" 
			},
			{
				"x": 0.4552186242,
				"y": -1.5398118168,
				"z": 1.6126245792,
				"element": "C" 
			},
			{
				"x": 0.2110011962,
				"y": -0.7273408048,
				"z": 2.8426236815,
				"element": "C" 
			},
			{
				"x": 0.4659984425,
				"y": -2.9314443062,
				"z": 1.4650158119,
				"element": "C" 
			},
			{
				"x": 0.2161193926,
				"y": -3.9313108758,
				"z": 2.4910743085,
				"element": "C" 
			},
			{
				"x": -0.063602867,
				"y": -3.7014518462,
				"z": 3.6605961974,
				"element": "O" 
			},
			{
				"x": 0.9399715607,
				"y": 0.3177757283,
				"z": -0.0182192189,
				"element": "C" 
			},
			{
				"x": 0.0469850898,
				"y": 1.3119522078,
				"z": 0.3945312736,
				"element": "C" 
			},
			{
				"x": 0.234950493,
				"y": 2.6317553416,
				"z": -0.0150369066,
				"element": "C" 
			},
			{
				"x": 1.3034280206,
				"y": 2.9303099399,
				"z": -0.8517225589,
				"element": "C" 
			},
			{
				"x": 1.4838439779,
				"y": 4.2035400686,
				"z": -1.2539769344,
				"element": "F" 
			},
			{
				"x": 2.188041518,
				"y": 1.9504813385,
				"z": -1.2924196744,
				"element": "C" 
			},
			{
				"x": 2.005390661,
				"y": 0.6375528154,
				"z": -0.8689318898,
				"element": "C" 
			},
			{
				"x": 1.2614929178,
				"y": -4.2786510255,
				"z": -1.6581543856,
				"element": "H" 
			},
			{
				"x": 1.7497491177,
				"y": -5.090827981,
				"z": -0.1574599205,
				"element": "H" 
			},
			{
				"x": 0.0460328754,
				"y": -5.0453576175,
				"z": -0.6180077555,
				"element": "H" 
			},
			{
				"x": -0.831884119,
				"y": -0.3942787529,
				"z": 2.9053203195,
				"element": "H" 
			},
			{
				"x": 0.3952321559,
				"y": -1.3556179449,
				"z": 3.7143032857,
				"element": "H" 
			},
			{
				"x": 0.8489131488,
				"y": 0.160364617,
				"z": 2.8721429493,
				"element": "H" 
			},
			{
				"x": 0.302747846,
				"y": -4.9819524481,
				"z": 2.1371927377,
				"element": "H" 
			},
			{
				"x": -0.8049220808,
				"y": 1.0588133539,
				"z": 1.01399361,
				"element": "H" 
			},
			{
				"x": -0.4441347992,
				"y": 3.4194254772,
				"z": 0.2915384541,
				"element": "H" 
			},
			{
				"x": 3.0054613705,
				"y": 2.2229950293,
				"z": -1.9507527652,
				"element": "H" 
			},
			{
				"x": 2.6716644751,
				"y": -0.1509620305,
				"z": -1.197088599,
				"element": "H" 
			}
		],
		 "valence_orbital": [ 
			{
				"type": "occ",
				"energy": -0.28437,
				"method": "rhf"
			},
			{
				"type": "occ",
				"energy": -0.27615,
				"method": "rhf"
			},
			{
				"type": "occ",
				"energy": -0.25203,
				"method": "rhf"
			},
			{
				"type": "occ",
				"energy": -0.2456,
				"method": "rhf"
			},
			{
				"type": "occ",
				"energy": -0.23634,
				"method": "rhf"
			},
			{
				"type": "unocc",
				"energy": -0.04771,
				"method": "rhf"
			},
			{
				"type": "unocc",
				"energy": -0.02657,
				"method": "rhf"
			},
			{
				"type": "unocc",
				"energy": -0.01651,
				"method": "rhf"
			},
			{
				"type": "unocc",
				"energy": 0.02345,
				"method": "rhf"
			},
			{
				"type": "unocc",
				"energy": 0.07324,
				"method": "rhf"
			}
		],
		"cosmo_sigma_profile": { 
			"-0.025": 0.0,
			"-0.024": 0.0,
			"-0.023": 0.0,
			"-0.022": 0.0,
			"-0.021": 0.0,
			"-0.02": 0.0,
			"-0.019": 0.0,
			"-0.018": 0.0,
			"-0.017": 0.0,
			"-0.016": 0.0,
			"-0.015": 0.0,
			"-0.014": 0.0,
			"-0.013": 0.0,
			"-0.012": 0.0,
			"-0.011": 0.0,
			"-0.01": 0.0,
			"-0.009": 0.23435856498,
			"-0.008": 4.52856932147,
			"-0.007": 7.49638298292,
			"-0.006": 11.6994935269,
			"-0.005": 21.7422979266,
			"-0.004": 18.0746039427,
			"-0.003": 18.7497334768,
			"-0.002": 20.267316319,
			"-0.001": 24.0324632487,
			"0.0": 23.0357619546,
			"0.001": 20.573719586,
			"0.002": 20.9047503989,
			"0.003": 15.4774033463,
			"0.004": 14.8643297064,
			"0.005": 5.82518585916,
			"0.006": 3.65302944301,
			"0.007": 2.91044754673,
			"0.008": 2.82005563266,
			"0.009": 2.83987834865,
			"0.01": 3.29343764819,
			"0.011": 3.45048554945,
			"0.012": 4.32317757134,
			"0.013": 2.57230784863,
			"0.014": 1.23180118098,
			"0.015": 0.0785425919369,
			"0.016": 0.0,
			"0.017": 0.0,
			"0.018": 0.0,
			"0.019": 0.0,
			"0.02": 0.0,
			"0.021": 0.0,
			"0.022": 0.0,
			"0.023": 0.0,
			"0.024": 0.0,
			"0.025": 0.0
		}
	}
}
