{
	 "smiles": "COC1=C(OCC2=C(F)C=CC=C2Cl)C=CC(C=O)=C1", 
	 "Tm": 398.15, 
	 "num_atms": 32, 
	 "gaussian": { 
		 "optdone": 1, 
		 "sigma_profile": "yes", 
		 "theory": "DFT", 
		 "functional": "B3LYP", 
		 "basiset": "6-31G**", 
		 "properties": { 
			 "R2extent": 8350.6538, 
			 "electric_dipole_moment_norm": 4.44476418497, 
			 "electric_quadrupole_moment_norm": 26.8524619828, 
			 "total_energy": -1364.48957343, 
			 "HOMO_LUMO_gap": 0.16881, 
			 "cosmo_polarized_energy": -13.29, 
			 "cosmo_cavitation_energy": 39.44, 
			 "cosmo_dispersion_energy": -27.28, 
			 "cosmo_repulsion_energy": 2.06, 
			 "cosmo_total_nonelectrostatic_energy": 14.23, 
			 "SMD_solvation_energy": 8.66 
		},
		"coords": [
			{
				"x": -2.6156233416,
				"y": 3.8190353918,
				"z": 0.99180769,
				"element": "C" 
			},
			{
				"x": -1.7595596968,
				"y": 2.709239737,
				"z": 0.7625397627,
				"element": "O" 
			},
			{
				"x": -2.3051856981,
				"y": 1.5718084039,
				"z": 0.2406066943,
				"element": "C" 
			},
			{
				"x": -1.4166448975,
				"y": 0.4851389741,
				"z": 0.0537115921,
				"element": "C" 
			},
			{
				"x": -0.1003572817,
				"y": 0.5500928184,
				"z": 0.4126161908,
				"element": "O" 
			},
			{
				"x": 0.7146666736,
				"y": 1.5744897108,
				"z": -0.1975304061,
				"element": "C" 
			},
			{
				"x": 2.1314364072,
				"y": 1.0660110644,
				"z": -0.2249905235,
				"element": "C" 
			},
			{
				"x": 2.4497713971,
				"y": -0.0023634522,
				"z": -1.0722977559,
				"element": "C" 
			},
			{
				"x": 1.4631692062,
				"y": -0.502726935,
				"z": -1.8452410509,
				"element": "F" 
			},
			{
				"x": 3.7152614255,
				"y": -0.5607088331,
				"z": -1.1685606495,
				"element": "C" 
			},
			{
				"x": 4.7309461456,
				"y": -0.0311916839,
				"z": -0.3722380268,
				"element": "C" 
			},
			{
				"x": 4.4725146429,
				"y": 1.0310507471,
				"z": 0.49181755,
				"element": "C" 
			},
			{
				"x": 3.1823299187,
				"y": 1.5619388038,
				"z": 0.558782362,
				"element": "C" 
			},
			{
				"x": 2.910084807,
				"y": 2.9002105762,
				"z": 1.6693723661,
				"element": "Cl" 
			},
			{
				"x": -1.893759666,
				"y": -0.7273826082,
				"z": -0.4505542795,
				"element": "C" 
			},
			{
				"x": -3.2366495392,
				"y": -0.8854662482,
				"z": -0.7732688666,
				"element": "C" 
			},
			{
				"x": -4.1169418887,
				"y": 0.1889664862,
				"z": -0.6025543946,
				"element": "C" 
			},
			{
				"x": -5.546025529,
				"y": 0.0500924744,
				"z": -0.9473533768,
				"element": "C" 
			},
			{
				"x": -6.0609660946,
				"y": -0.9600328027,
				"z": -1.3902471354,
				"element": "O" 
			},
			{
				"x": -3.6481169859,
				"y": 1.4135207584,
				"z": -0.0982851684,
				"element": "C" 
			},
			{
				"x": -3.4122951062,
				"y": 3.5707821198,
				"z": 1.704160977,
				"element": "H" 
			},
			{
				"x": -1.9852227808,
				"y": 4.6015783958,
				"z": 1.4158200198,
				"element": "H" 
			},
			{
				"x": -3.0659135078,
				"y": 4.1821081641,
				"z": 0.0590957733,
				"element": "H" 
			},
			{
				"x": 0.6346471546,
				"y": 2.5035749622,
				"z": 0.3648732436,
				"element": "H" 
			},
			{
				"x": 0.3650403386,
				"y": 1.7487064845,
				"z": -1.2213274563,
				"element": "H" 
			},
			{
				"x": 3.8855288093,
				"y": -1.3856125188,
				"z": -1.8508876535,
				"element": "H" 
			},
			{
				"x": 5.7315911748,
				"y": -0.4483700363,
				"z": -0.4253026575,
				"element": "H" 
			},
			{
				"x": 5.2561815547,
				"y": 1.4468199868,
				"z": 1.1139788542,
				"element": "H" 
			},
			{
				"x": -1.1750034607,
				"y": -1.5290573255,
				"z": -0.5832817163,
				"element": "H" 
			},
			{
				"x": -3.6205498754,
				"y": -1.8202336027,
				"z": -1.1673438447,
				"element": "H" 
			},
			{
				"x": -6.1540609463,
				"y": 0.9670623031,
				"z": -0.7704977283,
				"element": "H" 
			},
			{
				"x": -4.3511933594,
				"y": 2.2293176839,
				"z": 0.0349796145,
				"element": "H" 
			}
		],
		 "valence_orbital": [ 
			{
				"type": "occ",
				"energy": -0.26726,
				"method": "rhf"
			},
			{
				"type": "occ",
				"energy": -0.25508,
				"method": "rhf"
			},
			{
				"type": "occ",
				"energy": -0.25178,
				"method": "rhf"
			},
			{
				"type": "occ",
				"energy": -0.24907,
				"method": "rhf"
			},
			{
				"type": "occ",
				"energy": -0.2246,
				"method": "rhf"
			},
			{
				"type": "unocc",
				"energy": -0.05579,
				"method": "rhf"
			},
			{
				"type": "unocc",
				"energy": -0.03163,
				"method": "rhf"
			},
			{
				"type": "unocc",
				"energy": -0.01702,
				"method": "rhf"
			},
			{
				"type": "unocc",
				"energy": -0.00239,
				"method": "rhf"
			},
			{
				"type": "unocc",
				"energy": 0.01838,
				"method": "rhf"
			}
		],
		"cosmo_sigma_profile": { 
			"-0.025": 0.0,
			"-0.024": 0.0,
			"-0.023": 0.0,
			"-0.022": 0.0,
			"-0.021": 0.0,
			"-0.02": 0.0,
			"-0.019": 0.0,
			"-0.018": 0.0,
			"-0.017": 0.0,
			"-0.016": 0.0,
			"-0.015": 0.0,
			"-0.014": 0.0,
			"-0.013": 0.0,
			"-0.012": 0.0,
			"-0.011": 0.0,
			"-0.01": 0.0,
			"-0.009": 0.0136909133875,
			"-0.008": 4.33419379272,
			"-0.007": 11.904986184,
			"-0.006": 21.2303110507,
			"-0.005": 22.8923832239,
			"-0.004": 22.626909978,
			"-0.003": 21.1776381159,
			"-0.002": 17.9098296869,
			"-0.001": 18.0602936587,
			"0.0": 22.9252005954,
			"0.001": 32.7845332242,
			"0.002": 37.3274061708,
			"0.003": 31.5945674518,
			"0.004": 19.1288963177,
			"0.005": 6.47402923404,
			"0.006": 4.51556722423,
			"0.007": 3.22733502909,
			"0.008": 3.97664560956,
			"0.009": 4.0681097287,
			"0.01": 3.30053061837,
			"0.011": 3.95411747559,
			"0.012": 3.61522934632,
			"0.013": 1.25733634863,
			"0.014": 0.0315302553238,
			"0.015": 0.0,
			"0.016": 0.0,
			"0.017": 0.0,
			"0.018": 0.0,
			"0.019": 0.0,
			"0.02": 0.0,
			"0.021": 0.0,
			"0.022": 0.0,
			"0.023": 0.0,
			"0.024": 0.0,
			"0.025": 0.0
		}
	}
}
