{
	 "smiles": "C1CC=C/CCC=C/CCC=C/1", 
	 "Tm": 271.65, 
	 "num_atms": 30, 
	 "gaussian": { 
		 "optdone": 1, 
		 "sigma_profile": "yes", 
		 "theory": "DFT", 
		 "functional": "B3LYP", 
		 "basiset": "6-31G**", 
		 "properties": { 
			 "R2extent": 2723.5294, 
			 "electric_dipole_moment_norm": 0.354568949571, 
			 "electric_quadrupole_moment_norm": 1.15211385288, 
			 "total_energy": -468.065266839, 
			 "HOMO_LUMO_gap": 0.2442, 
			 "cosmo_polarized_energy": -3.13, 
			 "cosmo_cavitation_energy": 29.19, 
			 "cosmo_dispersion_energy": -21.1, 
			 "cosmo_repulsion_energy": 1.69, 
			 "cosmo_total_nonelectrostatic_energy": 9.78, 
			 "SMD_solvation_energy": 4.04 
		},
		"coords": [
			{
				"x": 1.6934288423,
				"y": -1.5694655746,
				"z": 0.5067111253,
				"element": "C" 
			},
			{
				"x": 1.7193164081,
				"y": -2.0964588482,
				"z": -0.9569102548,
				"element": "C" 
			},
			{
				"x": 2.5150084373,
				"y": -1.1973976664,
				"z": -1.8609769398,
				"element": "C" 
			},
			{
				"x": 2.045969377,
				"y": -0.5155753412,
				"z": -2.9140441716,
				"element": "C" 
			},
			{
				"x": 0.6365667559,
				"y": -0.5474943192,
				"z": -3.4663996917,
				"element": "C" 
			},
			{
				"x": -0.3718342142,
				"y": 0.4052572261,
				"z": -2.732296464,
				"element": "C" 
			},
			{
				"x": -1.4562141013,
				"y": -0.3332117473,
				"z": -1.9886661187,
				"element": "C" 
			},
			{
				"x": -1.7367778875,
				"y": -0.3023371023,
				"z": -0.6794856707,
				"element": "C" 
			},
			{
				"x": -1.0215061989,
				"y": 0.4795977132,
				"z": 0.3924296086,
				"element": "C" 
			},
			{
				"x": -0.9668399,
				"y": -0.2378860094,
				"z": 1.7656729391,
				"element": "C" 
			},
			{
				"x": -0.498943523,
				"y": -1.6834244124,
				"z": 1.8119802962,
				"element": "C" 
			},
			{
				"x": 0.6169416148,
				"y": -2.2344411464,
				"z": 1.3179391543,
				"element": "C" 
			},
			{
				"x": 1.5560976219,
				"y": -0.4858023874,
				"z": 0.4969739311,
				"element": "H" 
			},
			{
				"x": 2.6748860761,
				"y": -1.7511585527,
				"z": 0.967039738,
				"element": "H" 
			},
			{
				"x": 2.140628976,
				"y": -3.1120914909,
				"z": -0.9558250278,
				"element": "H" 
			},
			{
				"x": 0.6891102407,
				"y": -2.1782039951,
				"z": -1.3126697555,
				"element": "H" 
			},
			{
				"x": 3.5633777244,
				"y": -1.0617041093,
				"z": -1.5906965624,
				"element": "H" 
			},
			{
				"x": 2.7394964512,
				"y": 0.1444000411,
				"z": -3.4351629342,
				"element": "H" 
			},
			{
				"x": 0.2429545207,
				"y": -1.5693945826,
				"z": -3.4349573575,
				"element": "H" 
			},
			{
				"x": 0.6796466429,
				"y": -0.2756065968,
				"z": -4.5264836123,
				"element": "H" 
			},
			{
				"x": -0.8544726876,
				"y": 1.0499738449,
				"z": -3.4792467802,
				"element": "H" 
			},
			{
				"x": 0.1764975246,
				"y": 1.0751976369,
				"z": -2.0644863206,
				"element": "H" 
			},
			{
				"x": -2.0878564522,
				"y": -0.9596493395,
				"z": -2.6208954881,
				"element": "H" 
			},
			{
				"x": -2.5851211252,
				"y": -0.8944855191,
				"z": -0.3340759273,
				"element": "H" 
			},
			{
				"x": -0.0168235941,
				"y": 0.7483237414,
				"z": 0.0566245995,
				"element": "H" 
			},
			{
				"x": -1.5430012236,
				"y": 1.4350925486,
				"z": 0.5564974478,
				"element": "H" 
			},
			{
				"x": -1.9756473528,
				"y": -0.2093849279,
				"z": 2.1947353745,
				"element": "H" 
			},
			{
				"x": -0.3495129166,
				"y": 0.3718502929,
				"z": 2.4405552894,
				"element": "H" 
			},
			{
				"x": -1.1652644009,
				"y": -2.352184245,
				"z": 2.3564699776,
				"element": "H" 
			},
			{
				"x": 0.756788364,
				"y": -3.3045351315,
				"z": 1.479849596,
				"element": "H" 
			}
		],
		 "valence_orbital": [ 
			{
				"type": "occ",
				"energy": -0.3178,
				"method": "rhf"
			},
			{
				"type": "occ",
				"energy": -0.30445,
				"method": "rhf"
			},
			{
				"type": "occ",
				"energy": -0.2486,
				"method": "rhf"
			},
			{
				"type": "occ",
				"energy": -0.23409,
				"method": "rhf"
			},
			{
				"type": "occ",
				"energy": -0.22494,
				"method": "rhf"
			},
			{
				"type": "unocc",
				"energy": 0.01926,
				"method": "rhf"
			},
			{
				"type": "unocc",
				"energy": 0.02318,
				"method": "rhf"
			},
			{
				"type": "unocc",
				"energy": 0.03895,
				"method": "rhf"
			},
			{
				"type": "unocc",
				"energy": 0.08891,
				"method": "rhf"
			},
			{
				"type": "unocc",
				"energy": 0.10103,
				"method": "rhf"
			}
		],
		"cosmo_sigma_profile": { 
			"-0.025": 0.0,
			"-0.024": 0.0,
			"-0.023": 0.0,
			"-0.022": 0.0,
			"-0.021": 0.0,
			"-0.02": 0.0,
			"-0.019": 0.0,
			"-0.018": 0.0,
			"-0.017": 0.0,
			"-0.016": 0.0,
			"-0.015": 0.0,
			"-0.014": 0.0,
			"-0.013": 0.0,
			"-0.012": 0.0,
			"-0.011": 0.0,
			"-0.01": 0.0,
			"-0.009": 0.0,
			"-0.008": 0.0,
			"-0.007": 0.0,
			"-0.006": 0.0,
			"-0.005": 0.0,
			"-0.004": 6.83372751728,
			"-0.003": 31.3511092013,
			"-0.002": 44.965606961,
			"-0.001": 37.0006068908,
			"0.0": 30.3942344113,
			"0.001": 22.7751454682,
			"0.002": 13.7162986574,
			"0.003": 10.7431667009,
			"0.004": 7.72726614879,
			"0.005": 6.22281589891,
			"0.006": 7.47571030322,
			"0.007": 4.87669508465,
			"0.008": 2.45462802591,
			"0.009": 0.395525153398,
			"0.01": 0.0,
			"0.011": 0.0,
			"0.012": 0.0,
			"0.013": 0.0,
			"0.014": 0.0,
			"0.015": 0.0,
			"0.016": 0.0,
			"0.017": 0.0,
			"0.018": 0.0,
			"0.019": 0.0,
			"0.02": 0.0,
			"0.021": 0.0,
			"0.022": 0.0,
			"0.023": 0.0,
			"0.024": 0.0,
			"0.025": 0.0
		}
	}
}
