{
	 "smiles": "CC1=CC(C=O)=C(C)N1C1=CC(=CC=C1)[N+]([O-])=O", 
	 "Tm": 423.15, 
	 "num_atms": 30, 
	 "gaussian": { 
		 "optdone": 1, 
		 "sigma_profile": "yes", 
		 "theory": "DFT", 
		 "functional": "B3LYP", 
		 "basiset": "6-31G**", 
		 "properties": { 
			 "R2extent": 5576.9242, 
			 "electric_dipole_moment_norm": 4.34784104355, 
			 "electric_quadrupole_moment_norm": 34.4418703367, 
			 "total_energy": -837.685980319, 
			 "HOMO_LUMO_gap": 0.11367, 
			 "cosmo_polarized_energy": -15.02, 
			 "cosmo_cavitation_energy": 35.21, 
			 "cosmo_dispersion_energy": -24.04, 
			 "cosmo_repulsion_energy": 1.86, 
			 "cosmo_total_nonelectrostatic_energy": 13.02, 
			 "SMD_solvation_energy": 9.49 
		},
		"coords": [
			{
				"x": 1.3062545596,
				"y": 2.0588828981,
				"z": -2.5034362869,
				"element": "C" 
			},
			{
				"x": 0.0835263008,
				"y": 1.8861414223,
				"z": -1.6607521821,
				"element": "C" 
			},
			{
				"x": -0.9236726437,
				"y": 2.7631290856,
				"z": -1.3624431839,
				"element": "C" 
			},
			{
				"x": -1.8831073941,
				"y": 2.0869566038,
				"z": -0.538668744,
				"element": "C" 
			},
			{
				"x": -3.0949698654,
				"y": 2.6874256956,
				"z": 0.0029707611,
				"element": "C" 
			},
			{
				"x": -3.9290707213,
				"y": 2.1341876617,
				"z": 0.7074928736,
				"element": "O" 
			},
			{
				"x": -1.4322827344,
				"y": 0.7815861733,
				"z": -0.3535438796,
				"element": "C" 
			},
			{
				"x": -2.0259643263,
				"y": -0.3317253443,
				"z": 0.4467681642,
				"element": "C" 
			},
			{
				"x": -0.2378348875,
				"y": 0.6678079492,
				"z": -1.0374544245,
				"element": "N" 
			},
			{
				"x": 0.5563025622,
				"y": -0.516342383,
				"z": -1.1047320775,
				"element": "C" 
			},
			{
				"x": 1.7806877203,
				"y": -0.5705426355,
				"z": -0.4366694255,
				"element": "C" 
			},
			{
				"x": 2.5360292487,
				"y": -1.7363497761,
				"z": -0.5301966473,
				"element": "C" 
			},
			{
				"x": 2.1096089801,
				"y": -2.849254584,
				"z": -1.2508071584,
				"element": "C" 
			},
			{
				"x": 0.8816282352,
				"y": -2.7816772429,
				"z": -1.9066993857,
				"element": "C" 
			},
			{
				"x": 0.1097465383,
				"y": -1.6206380344,
				"z": -1.8419529059,
				"element": "C" 
			},
			{
				"x": 3.8337113975,
				"y": -1.7932633439,
				"z": 0.1694873574,
				"element": "N" 
			},
			{
				"x": 4.4764598498,
				"y": -2.837924286,
				"z": 0.0877414993,
				"element": "O" 
			},
			{
				"x": 4.1898202255,
				"y": -0.7919699002,
				"z": 0.7878172832,
				"element": "O" 
			},
			{
				"x": 2.2360034741,
				"y": 1.9614461574,
				"z": -1.9306918529,
				"element": "H" 
			},
			{
				"x": 1.2954711371,
				"y": 3.057176673,
				"z": -2.9466798693,
				"element": "H" 
			},
			{
				"x": 1.3518489352,
				"y": 1.3301131431,
				"z": -3.3216286519,
				"element": "H" 
			},
			{
				"x": -0.9830108623,
				"y": 3.7893939194,
				"z": -1.6999382026,
				"element": "H" 
			},
			{
				"x": -3.2284105068,
				"y": 3.7558190662,
				"z": -0.2808375635,
				"element": "H" 
			},
			{
				"x": -2.3341228294,
				"y": -1.1763045396,
				"z": -0.1810592562,
				"element": "H" 
			},
			{
				"x": -1.3164797721,
				"y": -0.719835333,
				"z": 1.1871364647,
				"element": "H" 
			},
			{
				"x": -2.9071482449,
				"y": 0.0517400536,
				"z": 0.960926485,
				"element": "H" 
			},
			{
				"x": 2.1417375109,
				"y": 0.2639949528,
				"z": 0.1506400371,
				"element": "H" 
			},
			{
				"x": 2.7345146809,
				"y": -3.7324929511,
				"z": -1.28723461,
				"element": "H" 
			},
			{
				"x": 0.528522922,
				"y": -3.6337070714,
				"z": -2.4782627819,
				"element": "H" 
			},
			{
				"x": -0.8381994901,
				"y": -1.5572740293,
				"z": -2.3660918363,
				"element": "H" 
			}
		],
		 "valence_orbital": [ 
			{
				"type": "occ",
				"energy": -0.30144,
				"method": "rhf"
			},
			{
				"type": "occ",
				"energy": -0.29763,
				"method": "rhf"
			},
			{
				"type": "occ",
				"energy": -0.25538,
				"method": "rhf"
			},
			{
				"type": "occ",
				"energy": -0.24038,
				"method": "rhf"
			},
			{
				"type": "occ",
				"energy": -0.21766,
				"method": "rhf"
			},
			{
				"type": "unocc",
				"energy": -0.10399,
				"method": "rhf"
			},
			{
				"type": "unocc",
				"energy": -0.05214,
				"method": "rhf"
			},
			{
				"type": "unocc",
				"energy": -0.03251,
				"method": "rhf"
			},
			{
				"type": "unocc",
				"energy": -0.0183,
				"method": "rhf"
			},
			{
				"type": "unocc",
				"energy": 0.02893,
				"method": "rhf"
			}
		],
		"cosmo_sigma_profile": { 
			"-0.025": 0.0,
			"-0.024": 0.0,
			"-0.023": 0.0,
			"-0.022": 0.0,
			"-0.021": 0.0,
			"-0.02": 0.0,
			"-0.019": 0.0,
			"-0.018": 0.0,
			"-0.017": 0.0,
			"-0.016": 0.0,
			"-0.015": 0.0,
			"-0.014": 0.0,
			"-0.013": 0.0,
			"-0.012": 0.0,
			"-0.011": 0.0,
			"-0.01": 0.0,
			"-0.009": 0.403900410212,
			"-0.008": 5.63350713604,
			"-0.007": 10.6596915242,
			"-0.006": 12.6935415971,
			"-0.005": 20.2958459992,
			"-0.004": 24.41449643,
			"-0.003": 24.6390423047,
			"-0.002": 25.4666593682,
			"-0.001": 30.665138041,
			"0.0": 24.080203674,
			"0.001": 16.7769571152,
			"0.002": 10.7521877484,
			"0.003": 9.26154346309,
			"0.004": 8.59527173098,
			"0.005": 9.77149268423,
			"0.006": 9.25345589143,
			"0.007": 11.1651025057,
			"0.008": 7.69131239002,
			"0.009": 5.88023274224,
			"0.01": 3.48744390759,
			"0.011": 2.57573870496,
			"0.012": 3.02335877683,
			"0.013": 2.84920349998,
			"0.014": 1.25294449243,
			"0.015": 0.0785637073516,
			"0.016": 0.0,
			"0.017": 0.0,
			"0.018": 0.0,
			"0.019": 0.0,
			"0.02": 0.0,
			"0.021": 0.0,
			"0.022": 0.0,
			"0.023": 0.0,
			"0.024": 0.0,
			"0.025": 0.0
		}
	}
}
