{
	 "smiles": "NS(=O)(=O)C1=CC=C(C=C1)C(=O)NCC(O)=O", 
	 "Tm": 466.15, 
	 "num_atms": 27, 
	 "gaussian": { 
		 "optdone": 1, 
		 "sigma_profile": "yes", 
		 "theory": "DFT", 
		 "functional": "B3LYP", 
		 "basiset": "6-31G**", 
		 "properties": { 
			 "R2extent": 6183.7565, 
			 "electric_dipole_moment_norm": 4.42574659577, 
			 "electric_quadrupole_moment_norm": 40.7123467545, 
			 "total_energy": -1232.74489718, 
			 "HOMO_LUMO_gap": 0.19668, 
			 "cosmo_polarized_energy": -31.21, 
			 "cosmo_cavitation_energy": 34.0, 
			 "cosmo_dispersion_energy": -24.67, 
			 "cosmo_repulsion_energy": 1.9, 
			 "cosmo_total_nonelectrostatic_energy": 11.23, 
			 "SMD_solvation_energy": 7.07 
		},
		"coords": [
			{
				"x": -1.4081890804,
				"y": -3.6946217568,
				"z": -0.3916071847,
				"element": "N" 
			},
			{
				"x": -2.2256642559,
				"y": -2.3269980217,
				"z": 0.1400256471,
				"element": "S" 
			},
			{
				"x": -2.9867737583,
				"y": -2.7520436242,
				"z": 1.3129002231,
				"element": "O" 
			},
			{
				"x": -2.8466792575,
				"y": -1.7494224168,
				"z": -1.0502868101,
				"element": "O" 
			},
			{
				"x": -0.9730088168,
				"y": -1.1630757476,
				"z": 0.7078724034,
				"element": "C" 
			},
			{
				"x": -0.4350054496,
				"y": -0.2437517661,
				"z": -0.1938575232,
				"element": "C" 
			},
			{
				"x": 0.545789984,
				"y": 0.6471202279,
				"z": 0.2432125443,
				"element": "C" 
			},
			{
				"x": 0.9861701184,
				"y": 0.6107160785,
				"z": 1.5740427747,
				"element": "C" 
			},
			{
				"x": 0.4490591279,
				"y": -0.3335486091,
				"z": 2.4607245115,
				"element": "C" 
			},
			{
				"x": -0.5441220549,
				"y": -1.2116043974,
				"z": 2.0377261888,
				"element": "C" 
			},
			{
				"x": 2.1078624038,
				"y": 1.4791851977,
				"z": 2.0761226996,
				"element": "C" 
			},
			{
				"x": 2.9984908758,
				"y": 1.0085545559,
				"z": 2.7726004425,
				"element": "O" 
			},
			{
				"x": 2.1239189533,
				"y": 2.8074291421,
				"z": 1.7140304826,
				"element": "N" 
			},
			{
				"x": 1.0258925042,
				"y": 3.6356857643,
				"z": 1.2754673108,
				"element": "C" 
			},
			{
				"x": 1.1424924934,
				"y": 4.0935322903,
				"z": -0.1769552658,
				"element": "C" 
			},
			{
				"x": 0.3609239818,
				"y": 5.1729329808,
				"z": -0.3928665477,
				"element": "O" 
			},
			{
				"x": 1.8077131153,
				"y": 3.5649129046,
				"z": -1.0373978304,
				"element": "O" 
			},
			{
				"x": -0.827636485,
				"y": -3.5207537009,
				"z": -1.2058111223,
				"element": "H" 
			},
			{
				"x": -0.9205484251,
				"y": -4.1821819003,
				"z": 0.3531852796,
				"element": "H" 
			},
			{
				"x": -0.7938509358,
				"y": -0.2180728286,
				"z": -1.2173210474,
				"element": "H" 
			},
			{
				"x": 0.9870540129,
				"y": 1.3521718676,
				"z": -0.4543000931,
				"element": "H" 
			},
			{
				"x": 0.8198128154,
				"y": -0.3675394808,
				"z": 3.479696734,
				"element": "H" 
			},
			{
				"x": -0.9959521468,
				"y": -1.9184492082,
				"z": 2.7254986597,
				"element": "H" 
			},
			{
				"x": 2.9508373059,
				"y": 3.281248245,
				"z": 2.0548798443,
				"element": "H" 
			},
			{
				"x": 0.9309937232,
				"y": 4.5228425821,
				"z": 1.9110269306,
				"element": "H" 
			},
			{
				"x": 0.0821509853,
				"y": 3.0893273378,
				"z": 1.368221586,
				"element": "H" 
			},
			{
				"x": 0.4348682655,
				"y": 5.3895042839,
				"z": -1.3379308377,
				"element": "H" 
			}
		],
		 "valence_orbital": [ 
			{
				"type": "occ",
				"energy": -0.30497,
				"method": "rhf"
			},
			{
				"type": "occ",
				"energy": -0.28302,
				"method": "rhf"
			},
			{
				"type": "occ",
				"energy": -0.27973,
				"method": "rhf"
			},
			{
				"type": "occ",
				"energy": -0.27411,
				"method": "rhf"
			},
			{
				"type": "occ",
				"energy": -0.25913,
				"method": "rhf"
			},
			{
				"type": "unocc",
				"energy": -0.06245,
				"method": "rhf"
			},
			{
				"type": "unocc",
				"energy": -0.03187,
				"method": "rhf"
			},
			{
				"type": "unocc",
				"energy": -0.01671,
				"method": "rhf"
			},
			{
				"type": "unocc",
				"energy": 0.02293,
				"method": "rhf"
			},
			{
				"type": "unocc",
				"energy": 0.04777,
				"method": "rhf"
			}
		],
		"cosmo_sigma_profile": { 
			"-0.025": 0.0,
			"-0.024": 0.0,
			"-0.023": 0.0,
			"-0.022": 0.0,
			"-0.021": 0.0,
			"-0.02": 0.0,
			"-0.019": 0.45449455948,
			"-0.018": 0.81297583563,
			"-0.017": 0.947167584175,
			"-0.016": 1.25792487712,
			"-0.015": 3.71314982498,
			"-0.014": 4.77937332829,
			"-0.013": 5.05645567631,
			"-0.012": 5.65949946033,
			"-0.011": 3.85122931633,
			"-0.01": 3.61244252992,
			"-0.009": 4.49763381464,
			"-0.008": 9.3799669536,
			"-0.007": 12.8987516454,
			"-0.006": 14.0763301749,
			"-0.005": 12.4429708352,
			"-0.004": 12.4752837269,
			"-0.003": 11.5620845515,
			"-0.002": 11.4694802711,
			"-0.001": 11.4533789772,
			"0.0": 12.5718972404,
			"0.001": 17.1730009829,
			"0.002": 13.3271020321,
			"0.003": 7.51851494209,
			"0.004": 6.67831391862,
			"0.005": 6.75510619699,
			"0.006": 6.46891730168,
			"0.007": 8.97311083254,
			"0.008": 9.79998079405,
			"0.009": 7.61944129886,
			"0.01": 12.7051675395,
			"0.011": 15.9650104672,
			"0.012": 7.88863302928,
			"0.013": 5.2643773815,
			"0.014": 1.56310779735,
			"0.015": 0.0,
			"0.016": 0.0,
			"0.017": 0.0,
			"0.018": 0.0,
			"0.019": 0.0,
			"0.02": 0.0,
			"0.021": 0.0,
			"0.022": 0.0,
			"0.023": 0.0,
			"0.024": 0.0,
			"0.025": 0.0
		}
	}
}
