{
	 "smiles": "C(N1C=C(CC2=CN(CN3CCCCC3)C3=C2C=CC=C3)C2=CC=CC=C12)N1CCCCC1", 
	 "Tm": 411.15, 
	 "num_atms": 69, 
	 "gaussian": { 
		 "optdone": 1, 
		 "sigma_profile": "yes", 
		 "theory": "DFT", 
		 "functional": "B3LYP", 
		 "basiset": "6-31G**", 
		 "properties": { 
			 "R2extent": 15566.989, 
			 "electric_dipole_moment_norm": 3.59836752153, 
			 "electric_quadrupole_moment_norm": 9.99359635717, 
			 "total_energy": -1345.79426265, 
			 "HOMO_LUMO_gap": 0.18388, 
			 "cosmo_polarized_energy": -13.27, 
			 "cosmo_cavitation_energy": 65.59, 
			 "cosmo_dispersion_energy": -41.0, 
			 "cosmo_repulsion_energy": 3.03, 
			 "cosmo_total_nonelectrostatic_energy": 27.62, 
			 "SMD_solvation_energy": 5.36 
		},
		"coords": [
			{
				"x": 1.0399435749,
				"y": -3.6563321191,
				"z": 2.4949022308,
				"element": "C" 
			},
			{
				"x": 0.9837645721,
				"y": -2.1982000185,
				"z": 2.7165791884,
				"element": "N" 
			},
			{
				"x": 1.8273647404,
				"y": -1.2737091777,
				"z": 2.1193073719,
				"element": "C" 
			},
			{
				"x": 1.4402894555,
				"y": 0.0098478198,
				"z": 2.4085151081,
				"element": "C" 
			},
			{
				"x": 2.0941340102,
				"y": 1.2763538144,
				"z": 1.9295506035,
				"element": "C" 
			},
			{
				"x": 1.3314577619,
				"y": 2.0060065617,
				"z": 0.8491608109,
				"element": "C" 
			},
			{
				"x": 0.1851391692,
				"y": 1.6032635443,
				"z": 0.2156507678,
				"element": "C" 
			},
			{
				"x": -0.2003136668,
				"y": 2.5349324578,
				"z": -0.7383640336,
				"element": "N" 
			},
			{
				"x": -1.3943758584,
				"y": 2.4159229461,
				"z": -1.555288605,
				"element": "C" 
			},
			{
				"x": -1.3846393132,
				"y": 1.1952839553,
				"z": -2.344935605,
				"element": "N" 
			},
			{
				"x": -0.3035919921,
				"y": 1.1944031989,
				"z": -3.3476579627,
				"element": "C" 
			},
			{
				"x": -0.5538089455,
				"y": 0.1263091209,
				"z": -4.4130622696,
				"element": "C" 
			},
			{
				"x": -1.8291530899,
				"y": 0.4380208101,
				"z": -5.2307968563,
				"element": "C" 
			},
			{
				"x": -2.8737044707,
				"y": 1.1888963733,
				"z": -4.3705601614,
				"element": "C" 
			},
			{
				"x": -2.7068720994,
				"y": 0.8213690957,
				"z": -2.8895699172,
				"element": "C" 
			},
			{
				"x": 0.7148707123,
				"y": 3.5770431481,
				"z": -0.7267407912,
				"element": "C" 
			},
			{
				"x": 1.6936678267,
				"y": 3.2728210465,
				"z": 0.2625833933,
				"element": "C" 
			},
			{
				"x": 2.751599287,
				"y": 4.1714149048,
				"z": 0.4797033879,
				"element": "C" 
			},
			{
				"x": 2.8164079445,
				"y": 5.3373286421,
				"z": -0.2739405657,
				"element": "C" 
			},
			{
				"x": 1.8373083149,
				"y": 5.6235857251,
				"z": -1.2454888658,
				"element": "C" 
			},
			{
				"x": 0.7772662703,
				"y": 4.7540368754,
				"z": -1.4833887541,
				"element": "C" 
			},
			{
				"x": 0.2769534716,
				"y": -0.1073684885,
				"z": 3.2524224717,
				"element": "C" 
			},
			{
				"x": -0.5558840984,
				"y": 0.8304089303,
				"z": 3.8877672978,
				"element": "C" 
			},
			{
				"x": -1.6063526251,
				"y": 0.3771171693,
				"z": 4.6751083311,
				"element": "C" 
			},
			{
				"x": -1.8437626086,
				"y": -1.0026581057,
				"z": 4.8411403281,
				"element": "C" 
			},
			{
				"x": -1.0403723318,
				"y": -1.9542034626,
				"z": 4.2222075516,
				"element": "C" 
			},
			{
				"x": 0.0201757226,
				"y": -1.4977355277,
				"z": 3.4267238211,
				"element": "C" 
			},
			{
				"x": 0.4066524238,
				"y": -4.2222955079,
				"z": 1.3354351676,
				"element": "N" 
			},
			{
				"x": -1.0557614308,
				"y": -4.2486408534,
				"z": 1.2731174549,
				"element": "C" 
			},
			{
				"x": -1.6774005446,
				"y": -3.0351296034,
				"z": 0.5574946114,
				"element": "C" 
			},
			{
				"x": -1.0549527522,
				"y": -2.8541767375,
				"z": -0.8365182561,
				"element": "C" 
			},
			{
				"x": 0.4787286006,
				"y": -2.798955097,
				"z": -0.7508197215,
				"element": "C" 
			},
			{
				"x": 1.0251733139,
				"y": -4.0122461406,
				"z": 0.025263267,
				"element": "C" 
			},
			{
				"x": 0.6101773603,
				"y": -4.1200345126,
				"z": 3.3878846283,
				"element": "H" 
			},
			{
				"x": 2.1028804973,
				"y": -3.9187324974,
				"z": 2.4625956286,
				"element": "H" 
			},
			{
				"x": 2.6663950551,
				"y": -1.6136749343,
				"z": 1.5265622294,
				"element": "H" 
			},
			{
				"x": 2.2451185563,
				"y": 1.9562476816,
				"z": 2.781208228,
				"element": "H" 
			},
			{
				"x": 3.1043155891,
				"y": 1.0421765791,
				"z": 1.5652910724,
				"element": "H" 
			},
			{
				"x": -0.4017576967,
				"y": 0.7084980274,
				"z": 0.3566593838,
				"element": "H" 
			},
			{
				"x": -2.2803596234,
				"y": 2.3958764235,
				"z": -0.9092465741,
				"element": "H" 
			},
			{
				"x": -1.4489354688,
				"y": 3.3325557456,
				"z": -2.1680535995,
				"element": "H" 
			},
			{
				"x": -0.2170995022,
				"y": 2.182115965,
				"z": -3.8415962789,
				"element": "H" 
			},
			{
				"x": 0.648526517,
				"y": 1.0202774543,
				"z": -2.8363475308,
				"element": "H" 
			},
			{
				"x": -0.6487683095,
				"y": -0.8457825352,
				"z": -3.9144862988,
				"element": "H" 
			},
			{
				"x": 0.3188076389,
				"y": 0.0541872422,
				"z": -5.0704577877,
				"element": "H" 
			},
			{
				"x": -2.2557560407,
				"y": -0.4965904159,
				"z": -5.6124605434,
				"element": "H" 
			},
			{
				"x": -1.5743396613,
				"y": 1.0424336174,
				"z": -6.1088487837,
				"element": "H" 
			},
			{
				"x": -2.7495662494,
				"y": 2.2728783845,
				"z": -4.4853361273,
				"element": "H" 
			},
			{
				"x": -3.8919049751,
				"y": 0.9576934002,
				"z": -4.7032466662,
				"element": "H" 
			},
			{
				"x": -2.8505952585,
				"y": -0.2618838496,
				"z": -2.7715653988,
				"element": "H" 
			},
			{
				"x": -3.4823046818,
				"y": 1.2996033208,
				"z": -2.2821765008,
				"element": "H" 
			},
			{
				"x": 3.5091674684,
				"y": 3.9578961157,
				"z": 1.2291641608,
				"element": "H" 
			},
			{
				"x": 3.6291431824,
				"y": 6.0398764396,
				"z": -0.1133148135,
				"element": "H" 
			},
			{
				"x": 1.9080774128,
				"y": 6.5426253869,
				"z": -1.8203349728,
				"element": "H" 
			},
			{
				"x": 0.0288321641,
				"y": 4.992098614,
				"z": -2.2327570392,
				"element": "H" 
			},
			{
				"x": -0.3801771748,
				"y": 1.8944753209,
				"z": 3.7574558766,
				"element": "H" 
			},
			{
				"x": -2.2563523328,
				"y": 1.0921798669,
				"z": 5.1711052297,
				"element": "H" 
			},
			{
				"x": -2.6706185401,
				"y": -1.3308883066,
				"z": 5.4644709214,
				"element": "H" 
			},
			{
				"x": -1.2329924703,
				"y": -3.0131421646,
				"z": 4.3633365578,
				"element": "H" 
			},
			{
				"x": -1.4489380106,
				"y": -4.345670924,
				"z": 2.2902502961,
				"element": "H" 
			},
			{
				"x": -1.3489601674,
				"y": -5.161885302,
				"z": 0.7313055343,
				"element": "H" 
			},
			{
				"x": -2.7626436163,
				"y": -3.1768585952,
				"z": 0.4777632372,
				"element": "H" 
			},
			{
				"x": -1.5163780113,
				"y": -2.1335075977,
				"z": 1.1593640821,
				"element": "H" 
			},
			{
				"x": -1.436163994,
				"y": -1.9424008472,
				"z": -1.3108675342,
				"element": "H" 
			},
			{
				"x": -1.3530933949,
				"y": -3.6976174937,
				"z": -1.4770602938,
				"element": "H" 
			},
			{
				"x": 0.7825844432,
				"y": -1.8704322067,
				"z": -0.2546487817,
				"element": "H" 
			},
			{
				"x": 0.9186549665,
				"y": -2.7842407519,
				"z": -1.756264613,
				"element": "H" 
			},
			{
				"x": 2.1104291472,
				"y": -3.9362950032,
				"z": 0.1590331291,
				"element": "H" 
			},
			{
				"x": 0.8454438362,
				"y": -4.9180729477,
				"z": -0.5752808575,
				"element": "H" 
			}
		],
		 "valence_orbital": [ 
			{
				"type": "occ",
				"energy": -0.21483,
				"method": "rhf"
			},
			{
				"type": "occ",
				"energy": -0.20782,
				"method": "rhf"
			},
			{
				"type": "occ",
				"energy": -0.20535,
				"method": "rhf"
			},
			{
				"type": "occ",
				"energy": -0.19078,
				"method": "rhf"
			},
			{
				"type": "occ",
				"energy": -0.18683,
				"method": "rhf"
			},
			{
				"type": "unocc",
				"energy": -0.00295,
				"method": "rhf"
			},
			{
				"type": "unocc",
				"energy": 0.00196,
				"method": "rhf"
			},
			{
				"type": "unocc",
				"energy": 0.03087,
				"method": "rhf"
			},
			{
				"type": "unocc",
				"energy": 0.03622,
				"method": "rhf"
			},
			{
				"type": "unocc",
				"energy": 0.06031,
				"method": "rhf"
			}
		],
		"cosmo_sigma_profile": { 
			"-0.025": 0.0,
			"-0.024": 0.0,
			"-0.023": 0.0,
			"-0.022": 0.0,
			"-0.021": 0.0,
			"-0.02": 0.0,
			"-0.019": 0.0,
			"-0.018": 0.0,
			"-0.017": 0.0,
			"-0.016": 0.0,
			"-0.015": 0.0,
			"-0.014": 0.0,
			"-0.013": 0.0,
			"-0.012": 0.0,
			"-0.011": 0.0,
			"-0.01": 0.0,
			"-0.009": 0.11407389219,
			"-0.008": 0.781238601072,
			"-0.007": 5.22299716912,
			"-0.006": 12.2068338358,
			"-0.005": 22.3969386367,
			"-0.004": 30.4420490193,
			"-0.003": 48.74497652,
			"-0.002": 70.7423279968,
			"-0.001": 74.9296937434,
			"0.0": 56.307056353,
			"0.001": 47.5127018305,
			"0.002": 28.9851714529,
			"0.003": 20.482386694,
			"0.004": 23.3700023247,
			"0.005": 22.5654589743,
			"0.006": 22.5764703138,
			"0.007": 17.9573370405,
			"0.008": 5.41897585541,
			"0.009": 0.423318457903,
			"0.01": 0.941068716548,
			"0.011": 0.465293700805,
			"0.012": 0.290641071746,
			"0.013": 0.37266565622,
			"0.014": 0.0868243311879,
			"0.015": 0.0,
			"0.016": 0.0,
			"0.017": 0.0,
			"0.018": 0.0,
			"0.019": 0.0,
			"0.02": 0.0,
			"0.021": 0.0,
			"0.022": 0.0,
			"0.023": 0.0,
			"0.024": 0.0,
			"0.025": 0.0
		}
	}
}
