{
	 "smiles": "O=C1NC2=NC=NN2C=C1", 
	 "Tm": 556.15, 
	 "num_atms": 14, 
	 "gaussian": { 
		 "optdone": 1, 
		 "sigma_profile": "yes", 
		 "theory": "DFT", 
		 "functional": "B3LYP", 
		 "basiset": "6-31G**", 
		 "properties": { 
			 "R2extent": 1943.9267, 
			 "electric_dipole_moment_norm": 1.71687573808, 
			 "electric_quadrupole_moment_norm": 10.2257014522, 
			 "total_energy": -487.160183139, 
			 "HOMO_LUMO_gap": 0.18783, 
			 "cosmo_polarized_energy": -14.04, 
			 "cosmo_cavitation_energy": 19.03, 
			 "cosmo_dispersion_energy": -14.62, 
			 "cosmo_repulsion_energy": 1.16, 
			 "cosmo_total_nonelectrostatic_energy": 5.57, 
			 "SMD_solvation_energy": 1.82 
		},
		"coords": [
			{
				"x": 1.386434774,
				"y": -0.7964787572,
				"z": -3.0252676915,
				"element": "O" 
			},
			{
				"x": 0.8809048653,
				"y": 0.1343061031,
				"z": -2.4206788191,
				"element": "C" 
			},
			{
				"x": 0.6744841902,
				"y": 0.057814916,
				"z": -1.0251981611,
				"element": "N" 
			},
			{
				"x": 0.1158513892,
				"y": 1.056742083,
				"z": -0.2835602923,
				"element": "C" 
			},
			{
				"x": -0.1377423283,
				"y": 1.1310634343,
				"z": 1.0070106203,
				"element": "N" 
			},
			{
				"x": -0.6948755515,
				"y": 2.3806601572,
				"z": 1.1070631917,
				"element": "C" 
			},
			{
				"x": -0.8034443337,
				"y": 3.0779111751,
				"z": -0.0108513967,
				"element": "N" 
			},
			{
				"x": -0.2689787269,
				"y": 2.2033487124,
				"z": -0.9258448819,
				"element": "N" 
			},
			{
				"x": -0.1167160099,
				"y": 2.3892315815,
				"z": -2.2810396495,
				"element": "C" 
			},
			{
				"x": 0.4366061793,
				"y": 1.4009942537,
				"z": -3.0191946505,
				"element": "C" 
			},
			{
				"x": 0.9628620832,
				"y": -0.7946265644,
				"z": -0.5609091934,
				"element": "H" 
			},
			{
				"x": -1.0320531447,
				"y": 2.7863396163,
				"z": 2.0509968161,
				"element": "H" 
			},
			{
				"x": -0.461686695,
				"y": 3.3411796993,
				"z": -2.6657537236,
				"element": "H" 
			},
			{
				"x": 0.5734533088,
				"y": 1.5083135897,
				"z": -4.0866721685,
				"element": "H" 
			}
		],
		 "valence_orbital": [ 
			{
				"type": "occ",
				"energy": -0.33894,
				"method": "rhf"
			},
			{
				"type": "occ",
				"energy": -0.3,
				"method": "rhf"
			},
			{
				"type": "occ",
				"energy": -0.27897,
				"method": "rhf"
			},
			{
				"type": "occ",
				"energy": -0.27796,
				"method": "rhf"
			},
			{
				"type": "occ",
				"energy": -0.24945,
				"method": "rhf"
			},
			{
				"type": "unocc",
				"energy": -0.06162,
				"method": "rhf"
			},
			{
				"type": "unocc",
				"energy": -0.00789,
				"method": "rhf"
			},
			{
				"type": "unocc",
				"energy": 0.03614,
				"method": "rhf"
			},
			{
				"type": "unocc",
				"energy": 0.07098,
				"method": "rhf"
			},
			{
				"type": "unocc",
				"energy": 0.09314,
				"method": "rhf"
			}
		],
		"cosmo_sigma_profile": { 
			"-0.025": 0.0,
			"-0.024": 0.0,
			"-0.023": 0.0,
			"-0.022": 0.0,
			"-0.021": 0.0,
			"-0.02": 0.0,
			"-0.019": 0.0,
			"-0.018": 0.0374592391945,
			"-0.017": 0.911097310789,
			"-0.016": 1.13951546897,
			"-0.015": 0.935106880552,
			"-0.014": 1.12092827977,
			"-0.013": 0.392305933563,
			"-0.012": 0.94537852247,
			"-0.011": 2.67293907224,
			"-0.01": 2.85511067179,
			"-0.009": 5.66876959179,
			"-0.008": 6.19265845626,
			"-0.007": 6.49913287378,
			"-0.006": 6.1606982843,
			"-0.005": 7.51678598919,
			"-0.004": 8.92076293104,
			"-0.003": 12.1398926143,
			"-0.002": 9.39040777859,
			"-0.001": 9.51590741878,
			"0.0": 9.33429845248,
			"0.001": 7.99903247595,
			"0.002": 3.79471020116,
			"0.003": 4.64805676605,
			"0.004": 3.71296043765,
			"0.005": 3.66559485943,
			"0.006": 4.01433234368,
			"0.007": 3.42212177448,
			"0.008": 2.69173549545,
			"0.009": 3.53936357962,
			"0.01": 3.60718671467,
			"0.011": 4.08992692606,
			"0.012": 6.95404174917,
			"0.013": 6.76189484404,
			"0.014": 1.96627520219,
			"0.015": 0.705529792397,
			"0.016": 0.128228955107,
			"0.017": 0.0,
			"0.018": 0.0,
			"0.019": 0.0,
			"0.02": 0.0,
			"0.021": 0.0,
			"0.022": 0.0,
			"0.023": 0.0,
			"0.024": 0.0,
			"0.025": 0.0
		}
	}
}
