{
	 "smiles": "CCOC1=C(OC2CCCC2)C(C=CC(O)=O)=CC=C1", 
	 "Tm": 407.15, 
	 "num_atms": 40, 
	 "gaussian": { 
		 "optdone": 1, 
		 "sigma_profile": "yes", 
		 "theory": "DFT", 
		 "functional": "B3LYP", 
		 "basiset": "6-31G**", 
		 "properties": { 
			 "R2extent": 5254.3813, 
			 "electric_dipole_moment_norm": 0.90065492282, 
			 "electric_quadrupole_moment_norm": 7.40728111523, 
			 "total_energy": -922.634801958, 
			 "HOMO_LUMO_gap": 0.16978, 
			 "cosmo_polarized_energy": -12.95, 
			 "cosmo_cavitation_energy": 41.55, 
			 "cosmo_dispersion_energy": -27.08, 
			 "cosmo_repulsion_energy": 2.11, 
			 "cosmo_total_nonelectrostatic_energy": 16.58, 
			 "SMD_solvation_energy": 7.56 
		},
		"coords": [
			{
				"x": -4.0311611053,
				"y": 1.1193631531,
				"z": 2.0679757442,
				"element": "C" 
			},
			{
				"x": -3.0150683163,
				"y": 0.0214172034,
				"z": 1.8133676873,
				"element": "C" 
			},
			{
				"x": -2.948551923,
				"y": -0.1947508491,
				"z": 0.3866564024,
				"element": "O" 
			},
			{
				"x": -2.0102667353,
				"y": -1.1244267827,
				"z": -0.0030996645,
				"element": "C" 
			},
			{
				"x": -0.6333550266,
				"y": -0.8236304898,
				"z": 0.0503790113,
				"element": "C" 
			},
			{
				"x": -0.2058368986,
				"y": 0.4077510478,
				"z": 0.468569597,
				"element": "O" 
			},
			{
				"x": -0.5688865848,
				"y": 1.5470149201,
				"z": -0.3667328008,
				"element": "C" 
			},
			{
				"x": -0.1454300746,
				"y": 2.7966612765,
				"z": 0.4052409072,
				"element": "C" 
			},
			{
				"x": 1.3794783932,
				"y": 2.8851910007,
				"z": 0.1879878012,
				"element": "C" 
			},
			{
				"x": 1.626149668,
				"y": 2.2777533181,
				"z": -1.2235186889,
				"element": "C" 
			},
			{
				"x": 0.2904252736,
				"y": 1.6008890341,
				"z": -1.6390313127,
				"element": "C" 
			},
			{
				"x": 0.3047530076,
				"y": -1.8170630854,
				"z": -0.3057484614,
				"element": "C" 
			},
			{
				"x": 1.7609491737,
				"y": -1.6144747265,
				"z": -0.2323538139,
				"element": "C" 
			},
			{
				"x": 2.5019336059,
				"y": -1.0489095113,
				"z": 0.738002085,
				"element": "C" 
			},
			{
				"x": 2.0117087831,
				"y": -0.5993623897,
				"z": 2.0592143757,
				"element": "C" 
			},
			{
				"x": 2.8855459841,
				"y": 0.288368676,
				"z": 2.6158903634,
				"element": "O" 
			},
			{
				"x": 1.0154598719,
				"y": -0.9684037321,
				"z": 2.6447099854,
				"element": "O" 
			},
			{
				"x": -0.1642298673,
				"y": -3.0467355219,
				"z": -0.804905694,
				"element": "C" 
			},
			{
				"x": -1.5243649163,
				"y": -3.3184746585,
				"z": -0.8969051007,
				"element": "C" 
			},
			{
				"x": -2.4479363551,
				"y": -2.3591178871,
				"z": -0.479704198,
				"element": "C" 
			},
			{
				"x": -5.0091458605,
				"y": 0.8439720286,
				"z": 1.6623075906,
				"element": "H" 
			},
			{
				"x": -3.7175274124,
				"y": 2.0574574066,
				"z": 1.6004127902,
				"element": "H" 
			},
			{
				"x": -4.1376779264,
				"y": 1.2894251029,
				"z": 3.1440594036,
				"element": "H" 
			},
			{
				"x": -3.3194010597,
				"y": -0.9163245449,
				"z": 2.2982071687,
				"element": "H" 
			},
			{
				"x": -2.0236622712,
				"y": 0.2932392256,
				"z": 2.1913418374,
				"element": "H" 
			},
			{
				"x": -1.6413590574,
				"y": 1.5013967708,
				"z": -0.5692623552,
				"element": "H" 
			},
			{
				"x": -0.4377176463,
				"y": 2.7466619541,
				"z": 1.4580703067,
				"element": "H" 
			},
			{
				"x": -0.650313907,
				"y": 3.6620927313,
				"z": -0.0416421189,
				"element": "H" 
			},
			{
				"x": 1.896866403,
				"y": 2.2930789882,
				"z": 0.9478087112,
				"element": "H" 
			},
			{
				"x": 1.7485362021,
				"y": 3.9119597382,
				"z": 0.2720200695,
				"element": "H" 
			},
			{
				"x": 2.4433185576,
				"y": 1.5523489549,
				"z": -1.1935245018,
				"element": "H" 
			},
			{
				"x": 1.9110270515,
				"y": 3.0469066777,
				"z": -1.9483196014,
				"element": "H" 
			},
			{
				"x": 0.4237302807,
				"y": 0.6095732522,
				"z": -2.0813059192,
				"element": "H" 
			},
			{
				"x": -0.2372952361,
				"y": 2.2106523959,
				"z": -2.3820023339,
				"element": "H" 
			},
			{
				"x": 2.3117645746,
				"y": -2.0002458019,
				"z": -1.0904922467,
				"element": "H" 
			},
			{
				"x": 3.572342956,
				"y": -0.9423627913,
				"z": 0.5876005607,
				"element": "H" 
			},
			{
				"x": 2.511428069,
				"y": 0.510750867,
				"z": 3.4846322513,
				"element": "H" 
			},
			{
				"x": 0.560695057,
				"y": -3.7969765971,
				"z": -1.1086495809,
				"element": "H" 
			},
			{
				"x": -1.8664198221,
				"y": -4.2760877198,
				"z": -1.2769696834,
				"element": "H" 
			},
			{
				"x": -3.5170049104,
				"y": -2.5432786346,
				"z": -0.5167865737,
				"element": "H" 
			}
		],
		 "valence_orbital": [ 
			{
				"type": "occ",
				"energy": -0.2865,
				"method": "rhf"
			},
			{
				"type": "occ",
				"energy": -0.26435,
				"method": "rhf"
			},
			{
				"type": "occ",
				"energy": -0.2555,
				"method": "rhf"
			},
			{
				"type": "occ",
				"energy": -0.23121,
				"method": "rhf"
			},
			{
				"type": "occ",
				"energy": -0.22305,
				"method": "rhf"
			},
			{
				"type": "unocc",
				"energy": -0.05327,
				"method": "rhf"
			},
			{
				"type": "unocc",
				"energy": 0.00355,
				"method": "rhf"
			},
			{
				"type": "unocc",
				"energy": 0.01565,
				"method": "rhf"
			},
			{
				"type": "unocc",
				"energy": 0.07666,
				"method": "rhf"
			},
			{
				"type": "unocc",
				"energy": 0.08005,
				"method": "rhf"
			}
		],
		"cosmo_sigma_profile": { 
			"-0.025": 0.0,
			"-0.024": 0.0,
			"-0.023": 0.0,
			"-0.022": 0.0,
			"-0.021": 0.0,
			"-0.02": 0.0,
			"-0.019": 0.0,
			"-0.018": 0.452770635656,
			"-0.017": 0.863814483513,
			"-0.016": 0.773148525661,
			"-0.015": 1.14820567427,
			"-0.014": 0.660521138791,
			"-0.013": 0.0812748251087,
			"-0.012": 0.356401094814,
			"-0.011": 0.7751972901,
			"-0.01": 0.844519913022,
			"-0.009": 0.650643454943,
			"-0.008": 0.698668202569,
			"-0.007": 4.54726072982,
			"-0.006": 11.681638193,
			"-0.005": 10.8147127518,
			"-0.004": 16.8748985694,
			"-0.003": 31.2267192904,
			"-0.002": 37.4674152479,
			"-0.001": 40.0864987171,
			"0.0": 40.8824803919,
			"0.001": 31.7423742722,
			"0.002": 20.9177133622,
			"0.003": 14.3082406626,
			"0.004": 13.4877677176,
			"0.005": 11.289513395,
			"0.006": 5.49055240538,
			"0.007": 4.71487464328,
			"0.008": 4.69258037533,
			"0.009": 5.12233511345,
			"0.01": 4.67128325131,
			"0.011": 3.544148312,
			"0.012": 4.40787841902,
			"0.013": 0.883198493864,
			"0.014": 0.0,
			"0.015": 0.0,
			"0.016": 0.0,
			"0.017": 0.0,
			"0.018": 0.0,
			"0.019": 0.0,
			"0.02": 0.0,
			"0.021": 0.0,
			"0.022": 0.0,
			"0.023": 0.0,
			"0.024": 0.0,
			"0.025": 0.0
		}
	}
}
