{
	 "smiles": "OC1=C(Cl)C(=C(Cl)C=C1)[N+]([O-])=O", 
	 "Tm": 360.15, 
	 "num_atms": 15, 
	 "gaussian": { 
		 "optdone": 1, 
		 "sigma_profile": "yes", 
		 "theory": "DFT", 
		 "functional": "B3LYP", 
		 "basiset": "6-31G**", 
		 "properties": { 
			 "R2extent": 2862.7042, 
			 "electric_dipole_moment_norm": 4.00224351833, 
			 "electric_quadrupole_moment_norm": 11.6926407449, 
			 "total_energy": -1431.12702553, 
			 "HOMO_LUMO_gap": 0.16764, 
			 "cosmo_polarized_energy": -9.34, 
			 "cosmo_cavitation_energy": 24.35, 
			 "cosmo_dispersion_energy": -17.75, 
			 "cosmo_repulsion_energy": 1.41, 
			 "cosmo_total_nonelectrostatic_energy": 8.01, 
			 "SMD_solvation_energy": 6.75 
		},
		"coords": [
			{
				"x": -1.4283375889,
				"y": -3.3995443482,
				"z": 1.2931036523,
				"element": "O" 
			},
			{
				"x": -1.1179482198,
				"y": -2.211500425,
				"z": 0.7319056263,
				"element": "C" 
			},
			{
				"x": 0.0102011363,
				"y": -2.0197416875,
				"z": -0.081832771,
				"element": "C" 
			},
			{
				"x": 1.0718736753,
				"y": -3.3752396627,
				"z": -0.391152467,
				"element": "Cl" 
			},
			{
				"x": 0.2716671432,
				"y": -0.7641440299,
				"z": -0.6303657505,
				"element": "C" 
			},
			{
				"x": -0.5748367822,
				"y": 0.3143031862,
				"z": -0.3829772603,
				"element": "C" 
			},
			{
				"x": -0.2411198481,
				"y": 1.8819365507,
				"z": -1.0728101506,
				"element": "Cl" 
			},
			{
				"x": -1.6970122613,
				"y": 0.1244792969,
				"z": 0.4262476964,
				"element": "C" 
			},
			{
				"x": -1.9637587773,
				"y": -1.1224104033,
				"z": 0.9756924211,
				"element": "C" 
			},
			{
				"x": 1.465393966,
				"y": -0.5867856741,
				"z": -1.4839141201,
				"element": "N" 
			},
			{
				"x": 2.5000005008,
				"y": -0.2592893094,
				"z": -0.9176467629,
				"element": "O" 
			},
			{
				"x": 1.3160399724,
				"y": -0.7846532227,
				"z": -2.6826085658,
				"element": "O" 
			},
			{
				"x": -0.7638530983,
				"y": -4.0600689062,
				"z": 1.0434493887,
				"element": "H" 
			},
			{
				"x": -2.3571344656,
				"y": 0.9620220324,
				"z": 0.6201765817,
				"element": "H" 
			},
			{
				"x": -2.8321753526,
				"y": -1.2809633972,
				"z": 1.6053324816,
				"element": "H" 
			}
		],
		 "valence_orbital": [ 
			{
				"type": "occ",
				"energy": -0.326,
				"method": "rhf"
			},
			{
				"type": "occ",
				"energy": -0.32268,
				"method": "rhf"
			},
			{
				"type": "occ",
				"energy": -0.31852,
				"method": "rhf"
			},
			{
				"type": "occ",
				"energy": -0.28052,
				"method": "rhf"
			},
			{
				"type": "occ",
				"energy": -0.25231,
				"method": "rhf"
			},
			{
				"type": "unocc",
				"energy": -0.08467,
				"method": "rhf"
			},
			{
				"type": "unocc",
				"energy": -0.05035,
				"method": "rhf"
			},
			{
				"type": "unocc",
				"energy": -0.03336,
				"method": "rhf"
			},
			{
				"type": "unocc",
				"energy": -0.02349,
				"method": "rhf"
			},
			{
				"type": "unocc",
				"energy": 0.02695,
				"method": "rhf"
			}
		],
		"cosmo_sigma_profile": { 
			"-0.025": 0.0,
			"-0.024": 0.0,
			"-0.023": 0.0,
			"-0.022": 0.0,
			"-0.021": 0.0,
			"-0.02": 0.0,
			"-0.019": 0.0,
			"-0.018": 0.0,
			"-0.017": 0.123927736987,
			"-0.016": 0.593490455427,
			"-0.015": 1.08357858167,
			"-0.014": 0.658360353912,
			"-0.013": 0.412096928092,
			"-0.012": 1.22952607585,
			"-0.011": 0.803453232478,
			"-0.01": 1.46214901998,
			"-0.009": 2.98067646215,
			"-0.008": 4.91546693885,
			"-0.007": 5.29724147543,
			"-0.006": 5.03665887004,
			"-0.005": 4.71076146194,
			"-0.004": 6.95625961685,
			"-0.003": 9.2507047198,
			"-0.002": 16.6279936236,
			"-0.001": 23.775795126,
			"0.0": 24.5286142373,
			"0.001": 19.9034212666,
			"0.002": 16.6724017997,
			"0.003": 12.4854433901,
			"0.004": 6.16984970996,
			"0.005": 6.00660434771,
			"0.006": 12.8805666727,
			"0.007": 8.5995287289,
			"0.008": 4.98283195419,
			"0.009": 2.17354918766,
			"0.01": 0.301247108081,
			"0.011": 0.0,
			"0.012": 0.0,
			"0.013": 0.0,
			"0.014": 0.0,
			"0.015": 0.0,
			"0.016": 0.0,
			"0.017": 0.0,
			"0.018": 0.0,
			"0.019": 0.0,
			"0.02": 0.0,
			"0.021": 0.0,
			"0.022": 0.0,
			"0.023": 0.0,
			"0.024": 0.0,
			"0.025": 0.0
		}
	}
}
