{
	 "smiles": "N1C=C(C=N1)C1=CC=CC=C1", 
	 "Tm": 503.15, 
	 "num_atms": 19, 
	 "gaussian": { 
		 "optdone": 1, 
		 "sigma_profile": "yes", 
		 "theory": "DFT", 
		 "functional": "B3LYP", 
		 "basiset": "6-31G**", 
		 "properties": { 
			 "R2extent": 2378.6985, 
			 "electric_dipole_moment_norm": 2.16798425732, 
			 "electric_quadrupole_moment_norm": 14.214325348, 
			 "total_energy": -457.26188101, 
			 "HOMO_LUMO_gap": 0.20153, 
			 "cosmo_polarized_energy": -11.01, 
			 "cosmo_cavitation_energy": 23.13, 
			 "cosmo_dispersion_energy": -17.31, 
			 "cosmo_repulsion_energy": 1.37, 
			 "cosmo_total_nonelectrostatic_energy": 7.19, 
			 "SMD_solvation_energy": 3.27 
		},
		"coords": [
			{
				"x": 1.2387271884,
				"y": -0.6374812836,
				"z": -3.8589299783,
				"element": "N" 
			},
			{
				"x": 0.7857447369,
				"y": -0.8352501518,
				"z": -2.5952815159,
				"element": "C" 
			},
			{
				"x": 0.7098512975,
				"y": 0.4173811096,
				"z": -1.9994479133,
				"element": "C" 
			},
			{
				"x": 1.1511368193,
				"y": 1.2999708038,
				"z": -3.0249592992,
				"element": "C" 
			},
			{
				"x": 1.472436498,
				"y": 0.6610015548,
				"z": -4.1459393903,
				"element": "N" 
			},
			{
				"x": 0.2765443463,
				"y": 0.7488388268,
				"z": -0.6348458673,
				"element": "C" 
			},
			{
				"x": -0.2489248443,
				"y": 2.0181457952,
				"z": -0.3367533301,
				"element": "C" 
			},
			{
				"x": -0.6589594488,
				"y": 2.338162075,
				"z": 0.956469962,
				"element": "C" 
			},
			{
				"x": -0.5621456166,
				"y": 1.3944843256,
				"z": 1.980876485,
				"element": "C" 
			},
			{
				"x": -0.0447665753,
				"y": 0.1282829945,
				"z": 1.6990714571,
				"element": "C" 
			},
			{
				"x": 0.3750537471,
				"y": -0.1884401277,
				"z": 0.4086201154,
				"element": "C" 
			},
			{
				"x": 1.4014002982,
				"y": -1.3320279722,
				"z": -4.570976189,
				"element": "H" 
			},
			{
				"x": 0.5332946716,
				"y": -1.8189196272,
				"z": -2.2275236798,
				"element": "H" 
			},
			{
				"x": 1.2652718091,
				"y": 2.3745029041,
				"z": -2.973739718,
				"element": "H" 
			},
			{
				"x": -0.3531372895,
				"y": 2.7526794062,
				"z": -1.1299680538,
				"element": "H" 
			},
			{
				"x": -1.0632968056,
				"y": 3.3254002178,
				"z": 1.1621483885,
				"element": "H" 
			},
			{
				"x": -0.8845903973,
				"y": 1.6431473943,
				"z": 2.9877203079,
				"element": "H" 
			},
			{
				"x": 0.0423921438,
				"y": -0.6124827162,
				"z": 2.4891377829,
				"element": "H" 
			},
			{
				"x": 0.8031674213,
				"y": -1.1668955291,
				"z": 0.2090204363,
				"element": "H" 
			}
		],
		 "valence_orbital": [ 
			{
				"type": "occ",
				"energy": -0.29001,
				"method": "rhf"
			},
			{
				"type": "occ",
				"energy": -0.28098,
				"method": "rhf"
			},
			{
				"type": "occ",
				"energy": -0.25586,
				"method": "rhf"
			},
			{
				"type": "occ",
				"energy": -0.24802,
				"method": "rhf"
			},
			{
				"type": "occ",
				"energy": -0.2152,
				"method": "rhf"
			},
			{
				"type": "unocc",
				"energy": -0.01367,
				"method": "rhf"
			},
			{
				"type": "unocc",
				"energy": 0.00056,
				"method": "rhf"
			},
			{
				"type": "unocc",
				"energy": 0.0228,
				"method": "rhf"
			},
			{
				"type": "unocc",
				"energy": 0.07835,
				"method": "rhf"
			},
			{
				"type": "unocc",
				"energy": 0.08878,
				"method": "rhf"
			}
		],
		"cosmo_sigma_profile": { 
			"-0.025": 0.0,
			"-0.024": 0.0,
			"-0.023": 0.0,
			"-0.022": 0.0,
			"-0.021": 0.0,
			"-0.02": 0.0,
			"-0.019": 0.0,
			"-0.018": 0.0,
			"-0.017": 0.430452341858,
			"-0.016": 1.73519651699,
			"-0.015": 1.63647943106,
			"-0.014": 0.981066198284,
			"-0.013": 0.819827892427,
			"-0.012": 1.01523363441,
			"-0.011": 1.15221018009,
			"-0.01": 1.05093545152,
			"-0.009": 2.89590602028,
			"-0.008": 2.9297162314,
			"-0.007": 3.81025430675,
			"-0.006": 8.97649558102,
			"-0.005": 12.198139869,
			"-0.004": 14.6081859163,
			"-0.003": 12.1927665825,
			"-0.002": 9.95633241563,
			"-0.001": 10.151052989,
			"0.0": 7.34587308522,
			"0.001": 10.346062556,
			"0.002": 11.1294585851,
			"0.003": 12.7143346437,
			"0.004": 17.4141218025,
			"0.005": 15.3367898638,
			"0.006": 10.8231633791,
			"0.007": 2.38292151813,
			"0.008": 1.71846703233,
			"0.009": 1.6758831479,
			"0.01": 1.46041973348,
			"0.011": 1.09612043826,
			"0.012": 1.71053192661,
			"0.013": 0.727282202075,
			"0.014": 1.23551405017,
			"0.015": 1.03349280626,
			"0.016": 0.996922135821,
			"0.017": 0.0,
			"0.018": 0.0,
			"0.019": 0.0,
			"0.02": 0.0,
			"0.021": 0.0,
			"0.022": 0.0,
			"0.023": 0.0,
			"0.024": 0.0,
			"0.025": 0.0
		}
	}
}
