{
	 "smiles": "CN(C(C)=O)C1=CC=C(N)C=C1", 
	 "Tm": 343.65, 
	 "num_atms": 24, 
	 "gaussian": { 
		 "optdone": 1, 
		 "sigma_profile": "yes", 
		 "theory": "DFT", 
		 "functional": "B3LYP", 
		 "basiset": "6-31G**", 
		 "properties": { 
			 "R2extent": 2565.4999, 
			 "electric_dipole_moment_norm": 5.83151490266, 
			 "electric_quadrupole_moment_norm": 8.07561906296, 
			 "total_energy": -534.932992394, 
			 "HOMO_LUMO_gap": 0.19983, 
			 "cosmo_polarized_energy": -14.08, 
			 "cosmo_cavitation_energy": 27.52, 
			 "cosmo_dispersion_energy": -19.44, 
			 "cosmo_repulsion_energy": 1.57, 
			 "cosmo_total_nonelectrostatic_energy": 9.65, 
			 "SMD_solvation_energy": 6.03 
		},
		"coords": [
			{
				"x": 0.2733239656,
				"y": -2.468005251,
				"z": -0.5367184634,
				"element": "C" 
			},
			{
				"x": -0.1150903155,
				"y": -1.6174473015,
				"z": 0.5870794363,
				"element": "N" 
			},
			{
				"x": -0.6208251317,
				"y": -2.2052567383,
				"z": 1.7330782753,
				"element": "C" 
			},
			{
				"x": -1.0050307354,
				"y": -1.2638910787,
				"z": 2.8652743468,
				"element": "C" 
			},
			{
				"x": -0.7541884298,
				"y": -3.4195706398,
				"z": 1.8355101195,
				"element": "O" 
			},
			{
				"x": 0.0561318281,
				"y": -0.2031796621,
				"z": 0.4320276051,
				"element": "C" 
			},
			{
				"x": -0.9630933244,
				"y": 0.5843804939,
				"z": -0.1165085424,
				"element": "C" 
			},
			{
				"x": -0.7897517375,
				"y": 1.9528685115,
				"z": -0.2984117546,
				"element": "C" 
			},
			{
				"x": 0.4194919678,
				"y": 2.5755490147,
				"z": 0.0603845424,
				"element": "C" 
			},
			{
				"x": 0.5764227716,
				"y": 3.9541068076,
				"z": -0.0661367945,
				"element": "N" 
			},
			{
				"x": 1.4457029996,
				"y": 1.7811025865,
				"z": 0.603089813,
				"element": "C" 
			},
			{
				"x": 1.2635366085,
				"y": 0.4133113117,
				"z": 0.7814698025,
				"element": "C" 
			},
			{
				"x": -0.3070967228,
				"y": -2.2160227644,
				"z": -1.4317675032,
				"element": "H" 
			},
			{
				"x": 1.3368911579,
				"y": -2.3406205918,
				"z": -0.7692976232,
				"element": "H" 
			},
			{
				"x": 0.0808270608,
				"y": -3.5024012764,
				"z": -0.2535558183,
				"element": "H" 
			},
			{
				"x": -1.3834215977,
				"y": -1.8729773695,
				"z": 3.6858241551,
				"element": "H" 
			},
			{
				"x": -0.1472219175,
				"y": -0.6782607235,
				"z": 3.2087129545,
				"element": "H" 
			},
			{
				"x": -1.7742380162,
				"y": -0.5519783231,
				"z": 2.5519010511,
				"element": "H" 
			},
			{
				"x": -1.9002693352,
				"y": 0.1139917864,
				"z": -0.4007497953,
				"element": "H" 
			},
			{
				"x": -1.5959972294,
				"y": 2.5499020435,
				"z": -0.7173377398,
				"element": "H" 
			},
			{
				"x": -0.0210123435,
				"y": 4.40064611,
				"z": -0.7476189751,
				"element": "H" 
			},
			{
				"x": 1.5306235918,
				"y": 4.2814902576,
				"z": -0.1214925235,
				"element": "H" 
			},
			{
				"x": 2.3870540426,
				"y": 2.2438827439,
				"z": 0.8888769574,
				"element": "H" 
			},
			{
				"x": 2.0647308426,
				"y": -0.1906199471,
				"z": 1.1982664744,
				"element": "H" 
			}
		],
		 "valence_orbital": [ 
			{
				"type": "occ",
				"energy": -0.31719,
				"method": "rhf"
			},
			{
				"type": "occ",
				"energy": -0.25798,
				"method": "rhf"
			},
			{
				"type": "occ",
				"energy": -0.23763,
				"method": "rhf"
			},
			{
				"type": "occ",
				"energy": -0.2319,
				"method": "rhf"
			},
			{
				"type": "occ",
				"energy": -0.20909,
				"method": "rhf"
			},
			{
				"type": "unocc",
				"energy": -0.00926,
				"method": "rhf"
			},
			{
				"type": "unocc",
				"energy": 0.00367,
				"method": "rhf"
			},
			{
				"type": "unocc",
				"energy": 0.04143,
				"method": "rhf"
			},
			{
				"type": "unocc",
				"energy": 0.07186,
				"method": "rhf"
			},
			{
				"type": "unocc",
				"energy": 0.09384,
				"method": "rhf"
			}
		],
		"cosmo_sigma_profile": { 
			"-0.025": 0.0,
			"-0.024": 0.0,
			"-0.023": 0.0,
			"-0.022": 0.0,
			"-0.021": 0.0,
			"-0.02": 0.0,
			"-0.019": 0.0,
			"-0.018": 0.0,
			"-0.017": 0.0,
			"-0.016": 0.0,
			"-0.015": 0.0,
			"-0.014": 0.0,
			"-0.013": 0.708253395099,
			"-0.012": 2.4629904102,
			"-0.011": 3.09716159432,
			"-0.01": 2.74528929088,
			"-0.009": 2.89861756259,
			"-0.008": 3.0662325052,
			"-0.007": 3.43410602275,
			"-0.006": 6.88602638663,
			"-0.005": 10.7617236707,
			"-0.004": 18.7099432606,
			"-0.003": 23.0382606118,
			"-0.002": 20.9052212824,
			"-0.001": 22.1627306226,
			"0.0": 15.4742997602,
			"0.001": 10.9602920403,
			"0.002": 8.9127337425,
			"0.003": 8.55377887385,
			"0.004": 8.51709538968,
			"0.005": 11.2810313926,
			"0.006": 7.73292431019,
			"0.007": 1.79715897845,
			"0.008": 2.35415937551,
			"0.009": 3.10184511632,
			"0.01": 1.73679928028,
			"0.011": 2.31832988017,
			"0.012": 2.33948406457,
			"0.013": 3.30584855194,
			"0.014": 5.85742504988,
			"0.015": 1.84786550015,
			"0.016": 0.127698305609,
			"0.017": 0.0,
			"0.018": 0.0,
			"0.019": 0.0,
			"0.02": 0.0,
			"0.021": 0.0,
			"0.022": 0.0,
			"0.023": 0.0,
			"0.024": 0.0,
			"0.025": 0.0
		}
	}
}
