{
	 "smiles": "OCC1=CC2=C(N1)C=CC=C2Cl", 
	 "Tm": 338.15, 
	 "num_atms": 20, 
	 "gaussian": { 
		 "optdone": 1, 
		 "sigma_profile": "yes", 
		 "theory": "DFT", 
		 "functional": "B3LYP", 
		 "basiset": "6-31G**", 
		 "properties": { 
			 "R2extent": 3019.5073, 
			 "electric_dipole_moment_norm": 4.15168968975, 
			 "electric_quadrupole_moment_norm": 3.43716509932, 
			 "total_energy": -937.942068057, 
			 "HOMO_LUMO_gap": 0.18825, 
			 "cosmo_polarized_energy": -13.65, 
			 "cosmo_cavitation_energy": 25.77, 
			 "cosmo_dispersion_energy": -19.33, 
			 "cosmo_repulsion_energy": 1.55, 
			 "cosmo_total_nonelectrostatic_energy": 8.0, 
			 "SMD_solvation_energy": 3.73 
		},
		"coords": [
			{
				"x": -1.7654158317,
				"y": -1.099906068,
				"z": 3.4924148903,
				"element": "O" 
			},
			{
				"x": -1.8984774215,
				"y": -0.1604264583,
				"z": 2.4437686194,
				"element": "C" 
			},
			{
				"x": -0.914201269,
				"y": -0.3972852522,
				"z": 1.334004519,
				"element": "C" 
			},
			{
				"x": 0.280992671,
				"y": -1.0723327511,
				"z": 1.3619212389,
				"element": "C" 
			},
			{
				"x": 0.8346406687,
				"y": -1.0061577611,
				"z": 0.041401543,
				"element": "C" 
			},
			{
				"x": -0.0770860976,
				"y": -0.2656580085,
				"z": -0.7640248573,
				"element": "C" 
			},
			{
				"x": -1.1318423345,
				"y": 0.0890459289,
				"z": 0.0543306432,
				"element": "N" 
			},
			{
				"x": 0.146727566,
				"y": -0.0055788999,
				"z": -2.119173332,
				"element": "C" 
			},
			{
				"x": 1.3178294776,
				"y": -0.5026159177,
				"z": -2.6795843293,
				"element": "C" 
			},
			{
				"x": 2.2455271079,
				"y": -1.2390525532,
				"z": -1.9168059255,
				"element": "C" 
			},
			{
				"x": 2.0016128371,
				"y": -1.4857304418,
				"z": -0.5736936592,
				"element": "C" 
			},
			{
				"x": 3.1611997133,
				"y": -2.4068011994,
				"z": 0.3762872735,
				"element": "Cl" 
			},
			{
				"x": -1.7970949858,
				"y": -1.9812333618,
				"z": 3.0958546371,
				"element": "H" 
			},
			{
				"x": -2.9227770847,
				"y": -0.1455855438,
				"z": 2.0291335384,
				"element": "H" 
			},
			{
				"x": -1.7348024512,
				"y": 0.8216033261,
				"z": 2.905268343,
				"element": "H" 
			},
			{
				"x": 0.7177356985,
				"y": -1.5441107169,
				"z": 2.2286634415,
				"element": "H" 
			},
			{
				"x": -1.9483162948,
				"y": 0.6000476821,
				"z": -0.2412157927,
				"element": "H" 
			},
			{
				"x": -0.5638965564,
				"y": 0.5618438303,
				"z": -2.7126571683,
				"element": "H" 
			},
			{
				"x": 1.5287491118,
				"y": -0.322039849,
				"z": -3.7290851954,
				"element": "H" 
			},
			{
				"x": 3.1527954753,
				"y": -1.6160259847,
				"z": -2.3752084277,
				"element": "H" 
			}
		],
		 "valence_orbital": [ 
			{
				"type": "occ",
				"energy": -0.30397,
				"method": "rhf"
			},
			{
				"type": "occ",
				"energy": -0.28699,
				"method": "rhf"
			},
			{
				"type": "occ",
				"energy": -0.27227,
				"method": "rhf"
			},
			{
				"type": "occ",
				"energy": -0.22825,
				"method": "rhf"
			},
			{
				"type": "occ",
				"energy": -0.20749,
				"method": "rhf"
			},
			{
				"type": "unocc",
				"energy": -0.01924,
				"method": "rhf"
			},
			{
				"type": "unocc",
				"energy": 0.01676,
				"method": "rhf"
			},
			{
				"type": "unocc",
				"energy": 0.04121,
				"method": "rhf"
			},
			{
				"type": "unocc",
				"energy": 0.0564,
				"method": "rhf"
			},
			{
				"type": "unocc",
				"energy": 0.07152,
				"method": "rhf"
			}
		],
		"cosmo_sigma_profile": { 
			"-0.025": 0.0,
			"-0.024": 0.0,
			"-0.023": 0.0,
			"-0.022": 0.0,
			"-0.021": 0.0,
			"-0.02": 0.0,
			"-0.019": 0.0,
			"-0.018": 0.0,
			"-0.017": 0.0,
			"-0.016": 0.697738584811,
			"-0.015": 2.40609379127,
			"-0.014": 2.43203603442,
			"-0.013": 2.57509563219,
			"-0.012": 1.76549896033,
			"-0.011": 2.22071112688,
			"-0.01": 2.29386979802,
			"-0.009": 2.31043851846,
			"-0.008": 2.79848060336,
			"-0.007": 4.07507708856,
			"-0.006": 9.63903371952,
			"-0.005": 13.4007370369,
			"-0.004": 11.7298676212,
			"-0.003": 10.6404251314,
			"-0.002": 9.33824794731,
			"-0.001": 8.967487934,
			"0.0": 9.46748186456,
			"0.001": 9.5458397276,
			"0.002": 12.1421306635,
			"0.003": 21.4057380402,
			"0.004": 24.6866125139,
			"0.005": 23.5315611959,
			"0.006": 9.20152401801,
			"0.007": 0.724735665223,
			"0.008": 0.464840808716,
			"0.009": 1.50485630107,
			"0.01": 1.77448842665,
			"0.011": 0.838045205211,
			"0.012": 1.50748999954,
			"0.013": 2.17937329425,
			"0.014": 1.32739247191,
			"0.015": 0.0,
			"0.016": 0.0,
			"0.017": 0.0,
			"0.018": 0.0,
			"0.019": 0.0,
			"0.02": 0.0,
			"0.021": 0.0,
			"0.022": 0.0,
			"0.023": 0.0,
			"0.024": 0.0,
			"0.025": 0.0
		}
	}
}
