{
	 "smiles": "N#CC1=NC(=CC=C1)N1C=CC=N1", 
	 "Tm": 390.15, 
	 "num_atms": 19, 
	 "gaussian": { 
		 "optdone": 1, 
		 "sigma_profile": "yes", 
		 "theory": "DFT", 
		 "functional": "B3LYP", 
		 "basiset": "6-31G**", 
		 "properties": { 
			 "R2extent": 2788.474, 
			 "electric_dipole_moment_norm": 3.68833211764, 
			 "electric_quadrupole_moment_norm": 26.8585725438, 
			 "total_energy": -565.534441135, 
			 "HOMO_LUMO_gap": 0.1777, 
			 "cosmo_polarized_energy": -10.76, 
			 "cosmo_cavitation_energy": 25.38, 
			 "cosmo_dispersion_energy": -18.23, 
			 "cosmo_repulsion_energy": 1.42, 
			 "cosmo_total_nonelectrostatic_energy": 8.57, 
			 "SMD_solvation_energy": 4.71 
		},
		"coords": [
			{
				"x": -4.5190190971,
				"y": 0.8986250968,
				"z": 1.8780749335,
				"element": "N" 
			},
			{
				"x": -3.3584155482,
				"y": 0.9367335457,
				"z": 1.8353969173,
				"element": "C" 
			},
			{
				"x": -1.9159534365,
				"y": 0.9988045616,
				"z": 1.8194015158,
				"element": "C" 
			},
			{
				"x": -1.3134543561,
				"y": 0.5915219235,
				"z": 0.689975525,
				"element": "N" 
			},
			{
				"x": 0.014920638,
				"y": 0.6413985328,
				"z": 0.6563880013,
				"element": "C" 
			},
			{
				"x": 0.8130607755,
				"y": 1.0904138149,
				"z": 1.7221633858,
				"element": "C" 
			},
			{
				"x": 0.1662229341,
				"y": 1.5056030861,
				"z": 2.8775409759,
				"element": "C" 
			},
			{
				"x": -1.2289877724,
				"y": 1.465176906,
				"z": 2.9438505715,
				"element": "C" 
			},
			{
				"x": 0.6126366478,
				"y": 0.2072920572,
				"z": -0.5416396486,
				"element": "N" 
			},
			{
				"x": -0.0216764584,
				"y": -0.2563737547,
				"z": -1.6655949736,
				"element": "C" 
			},
			{
				"x": 0.9662621818,
				"y": -0.5594602128,
				"z": -2.5713506656,
				"element": "C" 
			},
			{
				"x": 2.1785589683,
				"y": -0.2445240532,
				"z": -1.9033451722,
				"element": "C" 
			},
			{
				"x": 1.96772559,
				"y": 0.2180125796,
				"z": -0.6791059425,
				"element": "N" 
			},
			{
				"x": 1.8896949468,
				"y": 1.1004809845,
				"z": 1.6162865167,
				"element": "H" 
			},
			{
				"x": 0.7434179623,
				"y": 1.8601787137,
				"z": 3.725695554,
				"element": "H" 
			},
			{
				"x": -1.7714121303,
				"y": 1.7804080739,
				"z": 3.8273318163,
				"element": "H" 
			},
			{
				"x": -1.0969604259,
				"y": -0.3215001854,
				"z": -1.7031181434,
				"element": "H" 
			},
			{
				"x": 0.8379603479,
				"y": -0.9506654728,
				"z": -3.5692510006,
				"element": "H" 
			},
			{
				"x": 3.1923182324,
				"y": -0.3382261974,
				"z": -2.2698001667,
				"element": "H" 
			}
		],
		 "valence_orbital": [ 
			{
				"type": "occ",
				"energy": -0.30665,
				"method": "rhf"
			},
			{
				"type": "occ",
				"energy": -0.29987,
				"method": "rhf"
			},
			{
				"type": "occ",
				"energy": -0.29905,
				"method": "rhf"
			},
			{
				"type": "occ",
				"energy": -0.26295,
				"method": "rhf"
			},
			{
				"type": "occ",
				"energy": -0.24886,
				"method": "rhf"
			},
			{
				"type": "unocc",
				"energy": -0.07116,
				"method": "rhf"
			},
			{
				"type": "unocc",
				"energy": -0.05567,
				"method": "rhf"
			},
			{
				"type": "unocc",
				"energy": 0.01386,
				"method": "rhf"
			},
			{
				"type": "unocc",
				"energy": 0.02721,
				"method": "rhf"
			},
			{
				"type": "unocc",
				"energy": 0.06038,
				"method": "rhf"
			}
		],
		"cosmo_sigma_profile": { 
			"-0.025": 0.0,
			"-0.024": 0.0,
			"-0.023": 0.0,
			"-0.022": 0.0,
			"-0.021": 0.0,
			"-0.02": 0.0,
			"-0.019": 0.0,
			"-0.018": 0.0,
			"-0.017": 0.0,
			"-0.016": 0.0,
			"-0.015": 0.0,
			"-0.014": 0.0,
			"-0.013": 0.0,
			"-0.012": 0.0,
			"-0.011": 0.0,
			"-0.01": 0.0724664900868,
			"-0.009": 3.8112012238,
			"-0.008": 7.99233373626,
			"-0.007": 12.5716635635,
			"-0.006": 8.54798127898,
			"-0.005": 9.17944833107,
			"-0.004": 9.94781606948,
			"-0.003": 12.3689456978,
			"-0.002": 19.4872757907,
			"-0.001": 18.9655252009,
			"0.0": 19.2917578281,
			"0.001": 11.8064465633,
			"0.002": 11.2229623654,
			"0.003": 11.7790391043,
			"0.004": 11.6584747969,
			"0.005": 5.93671625883,
			"0.006": 6.62043281095,
			"0.007": 6.39333097255,
			"0.008": 4.82789211787,
			"0.009": 4.01519745309,
			"0.01": 4.22097553583,
			"0.011": 3.86551571624,
			"0.012": 2.27658718567,
			"0.013": 0.161034553287,
			"0.014": 0.0,
			"0.015": 0.0,
			"0.016": 0.0,
			"0.017": 0.0,
			"0.018": 0.0,
			"0.019": 0.0,
			"0.02": 0.0,
			"0.021": 0.0,
			"0.022": 0.0,
			"0.023": 0.0,
			"0.024": 0.0,
			"0.025": 0.0
		}
	}
}
