{
	 "smiles": "CC1=CC2=C(N1)C=CC=C2", 
	 "Tm": 332.65, 
	 "num_atms": 19, 
	 "gaussian": { 
		 "optdone": 1, 
		 "sigma_profile": "yes", 
		 "theory": "DFT", 
		 "functional": "B3LYP", 
		 "basiset": "6-31G**", 
		 "properties": { 
			 "R2extent": 1506.9191, 
			 "electric_dipole_moment_norm": 2.54342947219, 
			 "electric_quadrupole_moment_norm": 8.93241934025, 
			 "total_energy": -403.145671267, 
			 "HOMO_LUMO_gap": 0.19369, 
			 "cosmo_polarized_energy": -8.27, 
			 "cosmo_cavitation_energy": 22.27, 
			 "cosmo_dispersion_energy": -16.84, 
			 "cosmo_repulsion_energy": 1.36, 
			 "cosmo_total_nonelectrostatic_energy": 6.8, 
			 "SMD_solvation_energy": 3.57 
		},
		"coords": [
			{
				"x": -0.4654657014,
				"y": 2.9521919325,
				"z": 0.0917946833,
				"element": "C" 
			},
			{
				"x": -0.1283065695,
				"y": 1.4974759139,
				"z": 0.0364419158,
				"element": "C" 
			},
			{
				"x": 1.0881374631,
				"y": 0.8697276812,
				"z": -0.0678859498,
				"element": "C" 
			},
			{
				"x": 0.8513597144,
				"y": -0.547563263,
				"z": -0.0792222167,
				"element": "C" 
			},
			{
				"x": -0.5568647374,
				"y": -0.7283149898,
				"z": 0.0228447694,
				"element": "C" 
			},
			{
				"x": -1.1230171395,
				"y": 0.5305740243,
				"z": 0.0912950902,
				"element": "N" 
			},
			{
				"x": -1.1500518768,
				"y": -1.9938426373,
				"z": 0.0413709732,
				"element": "C" 
			},
			{
				"x": -0.3089858316,
				"y": -3.0990784604,
				"z": -0.0444966782,
				"element": "C" 
			},
			{
				"x": 1.0883259498,
				"y": -2.9454580736,
				"z": -0.1462634945,
				"element": "C" 
			},
			{
				"x": 1.6731293177,
				"y": -1.6846038384,
				"z": -0.1642879823,
				"element": "C" 
			},
			{
				"x": -1.1153833348,
				"y": 3.2523894839,
				"z": -0.7399893004,
				"element": "H" 
			},
			{
				"x": 0.4462270235,
				"y": 3.5508188516,
				"z": 0.035563657,
				"element": "H" 
			},
			{
				"x": -0.9827523315,
				"y": 3.2160171403,
				"z": 1.0230253318,
				"element": "H" 
			},
			{
				"x": 2.0453541619,
				"y": 1.3688190002,
				"z": -0.1295172361,
				"element": "H" 
			},
			{
				"x": -2.108812875,
				"y": 0.7215781273,
				"z": 0.169277798,
				"element": "H" 
			},
			{
				"x": -2.2273854576,
				"y": -2.1127241303,
				"z": 0.1198151756,
				"element": "H" 
			},
			{
				"x": -0.7374254621,
				"y": -4.0970879743,
				"z": -0.0328318784,
				"element": "H" 
			},
			{
				"x": 1.7157461151,
				"y": -3.8298082872,
				"z": -0.2115444379,
				"element": "H" 
			},
			{
				"x": 2.7516715718,
				"y": -1.5777105009,
				"z": -0.24309022,
				"element": "H" 
			}
		],
		 "valence_orbital": [ 
			{
				"type": "occ",
				"energy": -0.32572,
				"method": "rhf"
			},
			{
				"type": "occ",
				"energy": -0.3191,
				"method": "rhf"
			},
			{
				"type": "occ",
				"energy": -0.26694,
				"method": "rhf"
			},
			{
				"type": "occ",
				"energy": -0.21018,
				"method": "rhf"
			},
			{
				"type": "occ",
				"energy": -0.19389,
				"method": "rhf"
			},
			{
				"type": "unocc",
				"energy": -0.0002,
				"method": "rhf"
			},
			{
				"type": "unocc",
				"energy": 0.03602,
				"method": "rhf"
			},
			{
				"type": "unocc",
				"energy": 0.07683,
				"method": "rhf"
			},
			{
				"type": "unocc",
				"energy": 0.08129,
				"method": "rhf"
			},
			{
				"type": "unocc",
				"energy": 0.10929,
				"method": "rhf"
			}
		],
		"cosmo_sigma_profile": { 
			"-0.025": 0.0,
			"-0.024": 0.0,
			"-0.023": 0.0,
			"-0.022": 0.0,
			"-0.021": 0.0,
			"-0.02": 0.0,
			"-0.019": 0.0,
			"-0.018": 0.0,
			"-0.017": 0.0,
			"-0.016": 0.0601638432224,
			"-0.015": 1.05930224562,
			"-0.014": 1.09771163323,
			"-0.013": 0.967092213318,
			"-0.012": 1.06222119292,
			"-0.011": 1.26144457197,
			"-0.01": 1.07712299824,
			"-0.009": 1.87037750636,
			"-0.008": 1.17546010303,
			"-0.007": 1.35443351892,
			"-0.006": 3.22674175306,
			"-0.005": 10.8350133912,
			"-0.004": 16.361411792,
			"-0.003": 16.4713291038,
			"-0.002": 16.4542255676,
			"-0.001": 14.6791171389,
			"0.0": 12.4682518523,
			"0.001": 8.76740911311,
			"0.002": 7.05901062948,
			"0.003": 8.04610793122,
			"0.004": 9.60644922454,
			"0.005": 11.4137485694,
			"0.006": 12.478647012,
			"0.007": 13.2558225572,
			"0.008": 5.31386404401,
			"0.009": 6.07453321169e-05,
			"0.01": 0.0,
			"0.011": 0.0,
			"0.012": 0.0,
			"0.013": 0.0,
			"0.014": 0.0,
			"0.015": 0.0,
			"0.016": 0.0,
			"0.017": 0.0,
			"0.018": 0.0,
			"0.019": 0.0,
			"0.02": 0.0,
			"0.021": 0.0,
			"0.022": 0.0,
			"0.023": 0.0,
			"0.024": 0.0,
			"0.025": 0.0
		}
	}
}
