{
	 "smiles": "NC1=CC(Cl)=C(C=C1)N1CCSCC1", 
	 "Tm": 375.15, 
	 "num_atms": 27, 
	 "gaussian": { 
		 "optdone": 1, 
		 "sigma_profile": "yes", 
		 "theory": "DFT", 
		 "functional": "B3LYP", 
		 "basiset": "6-31G**", 
		 "properties": { 
			 "R2extent": 4574.7581, 
			 "electric_dipole_moment_norm": 3.49855438431, 
			 "electric_quadrupole_moment_norm": 16.6992143145, 
			 "total_energy": -1356.77338295, 
			 "HOMO_LUMO_gap": 0.17592, 
			 "cosmo_polarized_energy": -12.33, 
			 "cosmo_cavitation_energy": 31.48, 
			 "cosmo_dispersion_energy": -23.71, 
			 "cosmo_repulsion_energy": 1.82, 
			 "cosmo_total_nonelectrostatic_energy": 9.58, 
			 "SMD_solvation_energy": 3.48 
		},
		"coords": [
			{
				"x": -0.2928904802,
				"y": -4.5698225881,
				"z": -3.0400532432,
				"element": "N" 
			},
			{
				"x": -0.3304074132,
				"y": -3.3282128133,
				"z": -2.3992298854,
				"element": "C" 
			},
			{
				"x": -0.1392754712,
				"y": -2.1419693058,
				"z": -3.1236026325,
				"element": "C" 
			},
			{
				"x": -0.1012985146,
				"y": -0.9127046169,
				"z": -2.4728702965,
				"element": "C" 
			},
			{
				"x": 0.2478124133,
				"y": 0.504202673,
				"z": -3.4607618702,
				"element": "Cl" 
			},
			{
				"x": -0.2972437662,
				"y": -0.7811338719,
				"z": -1.0804591855,
				"element": "C" 
			},
			{
				"x": -0.4867666506,
				"y": -1.9883017595,
				"z": -0.3821944908,
				"element": "C" 
			},
			{
				"x": -0.4883925441,
				"y": -3.2298712905,
				"z": -1.0091566543,
				"element": "C" 
			},
			{
				"x": -0.2423340405,
				"y": 0.4788513764,
				"z": -0.443163678,
				"element": "N" 
			},
			{
				"x": -1.2858531724,
				"y": 1.4673160471,
				"z": -0.7212245323,
				"element": "C" 
			},
			{
				"x": -2.454288022,
				"y": 1.4249896373,
				"z": 0.2725087331,
				"element": "C" 
			},
			{
				"x": -1.9107673036,
				"y": 1.7827022862,
				"z": 1.9902049132,
				"element": "S" 
			},
			{
				"x": -0.5745576934,
				"y": 0.5265163914,
				"z": 2.077031117,
				"element": "C" 
			},
			{
				"x": 0.3790002419,
				"y": 0.6025762496,
				"z": 0.8709688038,
				"element": "C" 
			},
			{
				"x": -0.5339832817,
				"y": -4.5516082149,
				"z": -4.021549565,
				"element": "H" 
			},
			{
				"x": -0.7752215519,
				"y": -5.3129062409,
				"z": -2.5530977012,
				"element": "H" 
			},
			{
				"x": 0.0178787216,
				"y": -2.1764135433,
				"z": -4.1968910653,
				"element": "H" 
			},
			{
				"x": -0.6424128781,
				"y": -1.9515586076,
				"z": 0.690230298,
				"element": "H" 
			},
			{
				"x": -0.6293471569,
				"y": -4.1303628406,
				"z": -0.4168704316,
				"element": "H" 
			},
			{
				"x": -0.8366458305,
				"y": 2.4690374393,
				"z": -0.7021036977,
				"element": "H" 
			},
			{
				"x": -1.6663834531,
				"y": 1.2995580052,
				"z": -1.7311364456,
				"element": "H" 
			},
			{
				"x": -2.9527904084,
				"y": 0.4498163342,
				"z": 0.2413422664,
				"element": "H" 
			},
			{
				"x": -3.1939016861,
				"y": 2.1932941259,
				"z": 0.0274401733,
				"element": "H" 
			},
			{
				"x": -1.026219241,
				"y": -0.4657205655,
				"z": 2.1748060831,
				"element": "H" 
			},
			{
				"x": -0.0252653201,
				"y": 0.7359405943,
				"z": 3.0000519862,
				"element": "H" 
			},
			{
				"x": 1.144715219,
				"y": -0.1750145606,
				"z": 0.9609503651,
				"element": "H" 
			},
			{
				"x": 0.8915392838,
				"y": 1.5741996593,
				"z": 0.9099306358,
				"element": "H" 
			}
		],
		 "valence_orbital": [ 
			{
				"type": "occ",
				"energy": -0.29545,
				"method": "rhf"
			},
			{
				"type": "occ",
				"energy": -0.24379,
				"method": "rhf"
			},
			{
				"type": "occ",
				"energy": -0.24165,
				"method": "rhf"
			},
			{
				"type": "occ",
				"energy": -0.21852,
				"method": "rhf"
			},
			{
				"type": "occ",
				"energy": -0.18458,
				"method": "rhf"
			},
			{
				"type": "unocc",
				"energy": -0.00866,
				"method": "rhf"
			},
			{
				"type": "unocc",
				"energy": 0.01103,
				"method": "rhf"
			},
			{
				"type": "unocc",
				"energy": 0.03473,
				"method": "rhf"
			},
			{
				"type": "unocc",
				"energy": 0.04123,
				"method": "rhf"
			},
			{
				"type": "unocc",
				"energy": 0.07579,
				"method": "rhf"
			}
		],
		"cosmo_sigma_profile": { 
			"-0.025": 0.0,
			"-0.024": 0.0,
			"-0.023": 0.0,
			"-0.022": 0.0,
			"-0.021": 0.0,
			"-0.02": 0.0,
			"-0.019": 0.0,
			"-0.018": 0.0,
			"-0.017": 0.0,
			"-0.016": 0.0,
			"-0.015": 0.0,
			"-0.014": 0.0,
			"-0.013": 0.539875568075,
			"-0.012": 2.57563887152,
			"-0.011": 2.72025536423,
			"-0.01": 3.30872667787,
			"-0.009": 3.18993275087,
			"-0.008": 3.22904677349,
			"-0.007": 4.96742165829,
			"-0.006": 9.50525273981,
			"-0.005": 14.4184060755,
			"-0.004": 21.2987400457,
			"-0.003": 23.5415665531,
			"-0.002": 21.3631284392,
			"-0.001": 16.3076025943,
			"0.0": 13.5974726996,
			"0.001": 11.063761332,
			"0.002": 13.0346188059,
			"0.003": 16.0921898222,
			"0.004": 16.8160580887,
			"0.005": 21.2370563848,
			"0.006": 11.2594802413,
			"0.007": 4.84597033608,
			"0.008": 4.55509167946,
			"0.009": 3.85728893222,
			"0.01": 3.62241730598,
			"0.011": 2.76584985083,
			"0.012": 1.03545432165,
			"0.013": 0.382509814771,
			"0.014": 0.933927058952,
			"0.015": 0.109867894674,
			"0.016": 0.0,
			"0.017": 0.0,
			"0.018": 0.0,
			"0.019": 0.0,
			"0.02": 0.0,
			"0.021": 0.0,
			"0.022": 0.0,
			"0.023": 0.0,
			"0.024": 0.0,
			"0.025": 0.0
		}
	}
}
