{
	 "smiles": "CC(CO)NC1=NC2=C(N1)C=CC=C2", 
	 "Tm": 448.15, 
	 "num_atms": 27, 
	 "gaussian": { 
		 "optdone": 1, 
		 "sigma_profile": "yes", 
		 "theory": "DFT", 
		 "functional": "B3LYP", 
		 "basiset": "6-31G**", 
		 "properties": { 
			 "R2extent": 4082.6653, 
			 "electric_dipole_moment_norm": 4.77955150511, 
			 "electric_quadrupole_moment_norm": 11.0656651707, 
			 "total_energy": -628.389178867, 
			 "HOMO_LUMO_gap": 0.19797, 
			 "cosmo_polarized_energy": -17.88, 
			 "cosmo_cavitation_energy": 30.07, 
			 "cosmo_dispersion_energy": -22.32, 
			 "cosmo_repulsion_energy": 1.78, 
			 "cosmo_total_nonelectrostatic_energy": 9.53, 
			 "SMD_solvation_energy": 2.79 
		},
		"coords": [
			{
				"x": 1.0409499905,
				"y": -1.4561923175,
				"z": 2.5205421341,
				"element": "C" 
			},
			{
				"x": 1.7617856162,
				"y": -0.9772883117,
				"z": 1.2519800334,
				"element": "C" 
			},
			{
				"x": 3.0742642891,
				"y": -0.259644985,
				"z": 1.5607500614,
				"element": "C" 
			},
			{
				"x": 2.7496615046,
				"y": 0.9480893919,
				"z": 2.2510724539,
				"element": "O" 
			},
			{
				"x": 0.9521383941,
				"y": -0.062575787,
				"z": 0.4413484845,
				"element": "N" 
			},
			{
				"x": -0.1352960921,
				"y": -0.5371732544,
				"z": -0.2433466215,
				"element": "C" 
			},
			{
				"x": -0.4232532689,
				"y": -1.8046867855,
				"z": -0.4421673478,
				"element": "N" 
			},
			{
				"x": -1.5555613009,
				"y": -1.7883645887,
				"z": -1.2505405716,
				"element": "C" 
			},
			{
				"x": -1.9536002011,
				"y": -0.4573924006,
				"z": -1.5290024909,
				"element": "C" 
			},
			{
				"x": -1.0255113765,
				"y": 0.3315644975,
				"z": -0.8525238616,
				"element": "N" 
			},
			{
				"x": -3.0594594362,
				"y": -0.1493115356,
				"z": -2.3137316412,
				"element": "C" 
			},
			{
				"x": -3.7847217803,
				"y": -1.2258017486,
				"z": -2.834087102,
				"element": "C" 
			},
			{
				"x": -3.4091798289,
				"y": -2.5522237969,
				"z": -2.5669065388,
				"element": "C" 
			},
			{
				"x": -2.2977267334,
				"y": -2.8494261314,
				"z": -1.7758254478,
				"element": "C" 
			},
			{
				"x": 0.1020185546,
				"y": -1.943547878,
				"z": 2.249456129,
				"element": "H" 
			},
			{
				"x": 1.6593769039,
				"y": -2.1803709605,
				"z": 3.0623229567,
				"element": "H" 
			},
			{
				"x": 0.8352436905,
				"y": -0.6154888311,
				"z": 3.1894985341,
				"element": "H" 
			},
			{
				"x": 1.9840690042,
				"y": -1.8435207032,
				"z": 0.6208555736,
				"element": "H" 
			},
			{
				"x": 3.7113695278,
				"y": -0.9122006646,
				"z": 2.1759407248,
				"element": "H" 
			},
			{
				"x": 3.6011807942,
				"y": -0.0445663988,
				"z": 0.6201955001,
				"element": "H" 
			},
			{
				"x": 3.5568814661,
				"y": 1.4634967144,
				"z": 2.3632951401,
				"element": "H" 
			},
			{
				"x": 0.8705002015,
				"y": 0.8600017689,
				"z": 0.8500852241,
				"element": "H" 
			},
			{
				"x": -0.9228761946,
				"y": 1.3312099311,
				"z": -0.9258343814,
				"element": "H" 
			},
			{
				"x": -3.3513206721,
				"y": 0.8769675994,
				"z": -2.5179509831,
				"element": "H" 
			},
			{
				"x": -4.6540689425,
				"y": -1.0295448892,
				"z": -3.4546503057,
				"element": "H" 
			},
			{
				"x": -3.9973800039,
				"y": -3.363726646,
				"z": -2.9858412843,
				"element": "H" 
			},
			{
				"x": -2.0060841058,
				"y": -3.874181289,
				"z": -1.568734372,
				"element": "H" 
			}
		],
		 "valence_orbital": [ 
			{
				"type": "occ",
				"energy": -0.28306,
				"method": "rhf"
			},
			{
				"type": "occ",
				"energy": -0.26739,
				"method": "rhf"
			},
			{
				"type": "occ",
				"energy": -0.25852,
				"method": "rhf"
			},
			{
				"type": "occ",
				"energy": -0.21243,
				"method": "rhf"
			},
			{
				"type": "occ",
				"energy": -0.18723,
				"method": "rhf"
			},
			{
				"type": "unocc",
				"energy": 0.01074,
				"method": "rhf"
			},
			{
				"type": "unocc",
				"energy": 0.03648,
				"method": "rhf"
			},
			{
				"type": "unocc",
				"energy": 0.05909,
				"method": "rhf"
			},
			{
				"type": "unocc",
				"energy": 0.07731,
				"method": "rhf"
			},
			{
				"type": "unocc",
				"energy": 0.08187,
				"method": "rhf"
			}
		],
		"cosmo_sigma_profile": { 
			"-0.025": 0.0,
			"-0.024": 0.0,
			"-0.023": 0.0,
			"-0.022": 0.0,
			"-0.021": 0.0,
			"-0.02": 0.0,
			"-0.019": 0.0,
			"-0.018": 0.0,
			"-0.017": 0.0985942777935,
			"-0.016": 2.5099123721,
			"-0.015": 3.20897057053,
			"-0.014": 2.53100783241,
			"-0.013": 2.73644601647,
			"-0.012": 2.84120952227,
			"-0.011": 2.1644427073,
			"-0.01": 1.88616989387,
			"-0.009": 2.57452124999,
			"-0.008": 2.14481352616,
			"-0.007": 3.00903035691,
			"-0.006": 4.4894987193,
			"-0.005": 8.29794622052,
			"-0.004": 19.6217593789,
			"-0.003": 21.0352158194,
			"-0.002": 18.3864355939,
			"-0.001": 13.5626555278,
			"0.0": 13.9415095317,
			"0.001": 16.6064795981,
			"0.002": 13.3957022266,
			"0.003": 11.9408300759,
			"0.004": 13.6131915196,
			"0.005": 12.1757914989,
			"0.006": 13.3786820294,
			"0.007": 11.802394354,
			"0.008": 5.21622502398,
			"0.009": 2.88583521682,
			"0.01": 3.40615974344,
			"0.011": 2.23256151134,
			"0.012": 1.21873727782,
			"0.013": 1.20644869899,
			"0.014": 1.03992516566,
			"0.015": 0.518793196085,
			"0.016": 0.94488119039,
			"0.017": 0.395815490953,
			"0.018": 0.0411248106521,
			"0.019": 0.0,
			"0.02": 0.0,
			"0.021": 0.0,
			"0.022": 0.0,
			"0.023": 0.0,
			"0.024": 0.0,
			"0.025": 0.0
		}
	}
}
