{
	 "smiles": "FC(F)(F)COC(=O)NC1CC1", 
	 "Tm": 327.15, 
	 "num_atms": 20, 
	 "gaussian": { 
		 "optdone": 1, 
		 "sigma_profile": "yes", 
		 "theory": "DFT", 
		 "functional": "B3LYP", 
		 "basiset": "6-31G**", 
		 "properties": { 
			 "R2extent": 3145.5171, 
			 "electric_dipole_moment_norm": 3.10064263984, 
			 "electric_quadrupole_moment_norm": 10.4717217916, 
			 "total_energy": -738.169722528, 
			 "HOMO_LUMO_gap": 0.30122, 
			 "cosmo_polarized_energy": -9.61, 
			 "cosmo_cavitation_energy": 25.97, 
			 "cosmo_dispersion_energy": -17.79, 
			 "cosmo_repulsion_energy": 1.41, 
			 "cosmo_total_nonelectrostatic_energy": 9.6, 
			 "SMD_solvation_energy": 6.06 
		},
		"coords": [
			{
				"x": 1.6911522017,
				"y": 0.5222917741,
				"z": -2.2938226994,
				"element": "F" 
			},
			{
				"x": 2.4953506218,
				"y": 1.2103633918,
				"z": -1.4598205483,
				"element": "C" 
			},
			{
				"x": 3.3379063054,
				"y": 1.9488883429,
				"z": -2.2139567865,
				"element": "F" 
			},
			{
				"x": 3.2235668211,
				"y": 0.3169741695,
				"z": -0.7654254529,
				"element": "F" 
			},
			{
				"x": 1.7072311803,
				"y": 2.1257653919,
				"z": -0.5391081454,
				"element": "C" 
			},
			{
				"x": 0.8304631394,
				"y": 1.3495659571,
				"z": 0.2648257003,
				"element": "O" 
			},
			{
				"x": 1.2037073683,
				"y": 1.2035311225,
				"z": 1.5781736629,
				"element": "C" 
			},
			{
				"x": 2.1571379642,
				"y": 1.7590099387,
				"z": 2.0876858038,
				"element": "O" 
			},
			{
				"x": 0.3388002563,
				"y": 0.3790862108,
				"z": 2.236065896,
				"element": "N" 
			},
			{
				"x": -0.6751544012,
				"y": -0.4361673715,
				"z": 1.6254462168,
				"element": "C" 
			},
			{
				"x": -1.9731586975,
				"y": 0.2020872734,
				"z": 1.2044887883,
				"element": "C" 
			},
			{
				"x": -1.9298411183,
				"y": -0.6838227321,
				"z": 2.4233254748,
				"element": "C" 
			},
			{
				"x": 1.1028407021,
				"y": 2.8002364728,
				"z": -1.149623673,
				"element": "H" 
			},
			{
				"x": 2.4035304583,
				"y": 2.6899414398,
				"z": 0.0839779986,
				"element": "H" 
			},
			{
				"x": 0.6444634263,
				"y": 0.1530401028,
				"z": 3.1719953458,
				"element": "H" 
			},
			{
				"x": -0.3062148761,
				"y": -1.2552091252,
				"z": 1.0100223236,
				"element": "H" 
			},
			{
				"x": -2.0670780734,
				"y": 1.2710824847,
				"z": 1.3614482332,
				"element": "H" 
			},
			{
				"x": -2.4463143457,
				"y": -0.1701494975,
				"z": 0.3016739877,
				"element": "H" 
			},
			{
				"x": -2.3740833896,
				"y": -1.6726617363,
				"z": 2.3725962441,
				"element": "H" 
			},
			{
				"x": -2.0056055434,
				"y": -0.2040536101,
				"z": 3.3946316295,
				"element": "H" 
			}
		],
		 "valence_orbital": [ 
			{
				"type": "occ",
				"energy": -0.32742,
				"method": "rhf"
			},
			{
				"type": "occ",
				"energy": -0.31539,
				"method": "rhf"
			},
			{
				"type": "occ",
				"energy": -0.3075,
				"method": "rhf"
			},
			{
				"type": "occ",
				"energy": -0.28111,
				"method": "rhf"
			},
			{
				"type": "occ",
				"energy": -0.26053,
				"method": "rhf"
			},
			{
				"type": "unocc",
				"energy": 0.04069,
				"method": "rhf"
			},
			{
				"type": "unocc",
				"energy": 0.07767,
				"method": "rhf"
			},
			{
				"type": "unocc",
				"energy": 0.09461,
				"method": "rhf"
			},
			{
				"type": "unocc",
				"energy": 0.10295,
				"method": "rhf"
			},
			{
				"type": "unocc",
				"energy": 0.10763,
				"method": "rhf"
			}
		],
		"cosmo_sigma_profile": { 
			"-0.025": 0.0,
			"-0.024": 0.0,
			"-0.023": 0.0,
			"-0.022": 0.0,
			"-0.021": 0.0,
			"-0.02": 0.0,
			"-0.019": 0.0,
			"-0.018": 0.0,
			"-0.017": 0.0,
			"-0.016": 0.0,
			"-0.015": 0.0532592876521,
			"-0.014": 0.93546991581,
			"-0.013": 0.961684598533,
			"-0.012": 0.737159592938,
			"-0.011": 1.07832341272,
			"-0.01": 0.730740410967,
			"-0.009": 2.95718598346,
			"-0.008": 4.58912266395,
			"-0.007": 4.60094734555,
			"-0.006": 6.678468202,
			"-0.005": 14.2097492189,
			"-0.004": 13.020186058,
			"-0.003": 12.1006484258,
			"-0.002": 13.7014859539,
			"-0.001": 14.8242942562,
			"0.0": 14.2154571564,
			"0.001": 13.8100265085,
			"0.002": 26.8412145474,
			"0.003": 28.9505650914,
			"0.004": 6.96064343627,
			"0.005": 4.47788687621,
			"0.006": 2.1827264415,
			"0.007": 2.2667252199,
			"0.008": 2.94907729521,
			"0.009": 1.52186521813,
			"0.01": 0.880933330106,
			"0.011": 2.11163536379,
			"0.012": 4.2917362847,
			"0.013": 2.9109064046,
			"0.014": 0.0678753485946,
			"0.015": 0.0,
			"0.016": 0.0,
			"0.017": 0.0,
			"0.018": 0.0,
			"0.019": 0.0,
			"0.02": 0.0,
			"0.021": 0.0,
			"0.022": 0.0,
			"0.023": 0.0,
			"0.024": 0.0,
			"0.025": 0.0
		}
	}
}
