{
	 "smiles": "ClC1=CC(Cl)=C(OCC#CI)C=C1Cl", 
	 "Tm": 387.15, 
	 "num_atms": 18, 
	 "gaussian": { 
		 "optdone": 1, 
		 "sigma_profile": "no", 
		 "theory": "DFT", 
		 "functional": "B3LYP", 
		 "basiset": "6-31G**", 
		 "properties": { 
			 "R2extent": 5439.809, 
			 "electric_dipole_moment_norm": 2.77048857424, 
			 "electric_quadrupole_moment_norm": 8.07420143048, 
			 "total_energy": -1812.45234301, 
			 "HOMO_LUMO_gap": 0.18552, 
			 "cosmo_polarized_energy": -112440.68, 
			 "cosmo_cavitation_energy": 32.86, 
			 "cosmo_dispersion_energy": -25.14, 
			 "cosmo_repulsion_energy": 2.03, 
			 "cosmo_total_nonelectrostatic_energy": 9.75, 
			 "SMD_solvation_energy": 5.09 
		},
		"coords": [
			{
				"x": 3.3695214635,
				"y": 3.0052846748,
				"z": 1.1032566172,
				"element": "Cl" 
			},
			{
				"x": 2.1865811143,
				"y": 1.7344468606,
				"z": 1.2795363305,
				"element": "C" 
			},
			{
				"x": 2.147012402,
				"y": 1.0146281788,
				"z": 2.4767137533,
				"element": "C" 
			},
			{
				"x": 1.2195333183,
				"y": -0.0022628104,
				"z": 2.6580536407,
				"element": "C" 
			},
			{
				"x": 1.1888637777,
				"y": -0.8792115486,
				"z": 4.1671196751,
				"element": "Cl" 
			},
			{
				"x": 0.3017373021,
				"y": -0.3270940103,
				"z": 1.6401493974,
				"element": "C" 
			},
			{
				"x": -0.5779413707,
				"y": -1.3270451503,
				"z": 1.9089502327,
				"element": "O" 
			},
			{
				"x": -1.6223231634,
				"y": -1.6106373504,
				"z": 0.9721632984,
				"element": "C" 
			},
			{
				"x": -1.1686195516,
				"y": -2.3263505154,
				"z": -0.2214473002,
				"element": "C" 
			},
			{
				"x": -0.8063584095,
				"y": -2.9245576806,
				"z": -1.2109248576,
				"element": "C" 
			},
			{
				"x": -0.1962848217,
				"y": -3.9098418708,
				"z": -2.8296171941,
				"element": "I" 
			},
			{
				"x": 0.3510609443,
				"y": 0.390279871,
				"z": 0.4422390643,
				"element": "C" 
			},
			{
				"x": 1.2836276402,
				"y": 1.415640478,
				"z": 0.2618785697,
				"element": "C" 
			},
			{
				"x": 1.2864596423,
				"y": 2.2689139942,
				"z": -1.260731588,
				"element": "Cl" 
			},
			{
				"x": 2.8432432008,
				"y": 1.2546085141,
				"z": 3.2709522496,
				"element": "H" 
			},
			{
				"x": -2.1403684416,
				"y": -0.6829612102,
				"z": 0.6925133039,
				"element": "H" 
			},
			{
				"x": -2.3273824641,
				"y": -2.2295025452,
				"z": 1.5345476808,
				"element": "H" 
			},
			{
				"x": -0.3133625829,
				"y": 0.1490621207,
				"z": -0.3765528738,
				"element": "H" 
			}
		],
		 "valence_orbital": [ 
			{
				"type": "occ",
				"energy": -0.31023,
				"method": "rhf"
			},
			{
				"type": "occ",
				"energy": -0.27096,
				"method": "rhf"
			},
			{
				"type": "occ",
				"energy": -0.26753,
				"method": "rhf"
			},
			{
				"type": "occ",
				"energy": -0.26174,
				"method": "rhf"
			},
			{
				"type": "occ",
				"energy": -0.23675,
				"method": "rhf"
			},
			{
				"type": "unocc",
				"energy": -0.05123,
				"method": "rhf"
			},
			{
				"type": "unocc",
				"energy": -0.03522,
				"method": "rhf"
			},
			{
				"type": "unocc",
				"energy": -0.0214,
				"method": "rhf"
			},
			{
				"type": "unocc",
				"energy": -0.01026,
				"method": "rhf"
			},
			{
				"type": "unocc",
				"energy": -0.00288,
				"method": "rhf"
			}
		],
		"cosmo_sigma_profile": { 
			"0.0": 0.0,
			"0.0": 0.0,
			"0.0": 0.0,
			"0.0": 0.0,
			"0.0": 0.0,
			"0.0": 0.0,
			"0.0": 0.0,
			"0.0": 0.0,
			"0.0": 0.0,
			"0.0": 0.0,
			"0.0": 0.0,
			"0.0": 0.0,
			"0.0": 0.0,
			"0.0": 0.0,
			"0.0": 0.0,
			"0.0": 0.0,
			"0.0": 0.0,
			"0.0": 0.0,
			"0.0": 0.0,
			"0.0": 0.0,
			"0.0": 0.0,
			"0.0": 0.0,
			"0.0": 0.0,
			"0.0": 0.0,
			"0.0": 0.0,
			"0.0": 0.0,
			"0.0": 0.0,
			"0.0": 0.0,
			"0.0": 0.0,
			"0.0": 0.0,
			"0.0": 0.0,
			"0.0": 0.0,
			"0.0": 0.0,
			"0.0": 0.0,
			"0.0": 0.0,
			"0.0": 0.0,
			"0.0": 0.0,
			"0.0": 0.0,
			"0.0": 0.0,
			"0.0": 0.0,
			"0.0": 0.0,
			"0.0": 0.0,
			"0.0": 0.0,
			"0.0": 0.0,
			"0.0": 0.0,
			"0.0": 0.0,
			"0.0": 0.0,
			"0.0": 0.0,
			"0.0": 0.0,
			"0.0": 0.0,
			"0.0": 0.0
		}
	}
}
