{
	 "smiles": "CCOC(=O)C1=C(C)C(C#N)=C(N)S1", 
	 "Tm": 486.15, 
	 "num_atms": 24, 
	 "gaussian": { 
		 "optdone": 1, 
		 "sigma_profile": "yes", 
		 "theory": "DFT", 
		 "functional": "B3LYP", 
		 "basiset": "6-31G**", 
		 "properties": { 
			 "R2extent": 4473.9746, 
			 "electric_dipole_moment_norm": 4.7298447131, 
			 "electric_quadrupole_moment_norm": 21.9327976134, 
			 "total_energy": -1007.12417733, 
			 "HOMO_LUMO_gap": 0.1719, 
			 "cosmo_polarized_energy": -16.02, 
			 "cosmo_cavitation_energy": 30.74, 
			 "cosmo_dispersion_energy": -22.12, 
			 "cosmo_repulsion_energy": 1.74, 
			 "cosmo_total_nonelectrostatic_energy": 10.35, 
			 "SMD_solvation_energy": 7.34 
		},
		"coords": [
			{
				"x": 3.6908478015,
				"y": -1.0362409392,
				"z": -1.6252119545,
				"element": "C" 
			},
			{
				"x": 2.2835028946,
				"y": -1.6092221801,
				"z": -1.6978732573,
				"element": "C" 
			},
			{
				"x": 1.3806535673,
				"y": -0.9035000065,
				"z": -0.8146507685,
				"element": "O" 
			},
			{
				"x": 1.3394280584,
				"y": -1.3227494,
				"z": 0.4780039454,
				"element": "C" 
			},
			{
				"x": 2.0083513517,
				"y": -2.247998101,
				"z": 0.9057876259,
				"element": "O" 
			},
			{
				"x": 0.3926632483,
				"y": -0.5186402326,
				"z": 1.2518115836,
				"element": "C" 
			},
			{
				"x": 0.0654863198,
				"y": -0.6168136846,
				"z": 2.5859946952,
				"element": "C" 
			},
			{
				"x": 0.6249061442,
				"y": -1.606050088,
				"z": 3.5673286293,
				"element": "C" 
			},
			{
				"x": -0.9059774098,
				"y": 0.3686952199,
				"z": 2.9714500854,
				"element": "C" 
			},
			{
				"x": -1.4300912613,
				"y": 0.5378707368,
				"z": 4.2797831815,
				"element": "C" 
			},
			{
				"x": -1.8903676545,
				"y": 0.7288494452,
				"z": 5.334207995,
				"element": "N" 
			},
			{
				"x": -1.3060727321,
				"y": 1.2001364903,
				"z": 1.9240772312,
				"element": "C" 
			},
			{
				"x": -2.243311927,
				"y": 2.1848844834,
				"z": 1.9850556828,
				"element": "N" 
			},
			{
				"x": -0.4975183634,
				"y": 0.7845643366,
				"z": 0.4439708763,
				"element": "S" 
			},
			{
				"x": 4.1168855105,
				"y": -1.1910448254,
				"z": -0.6310282974,
				"element": "H" 
			},
			{
				"x": 4.3336084863,
				"y": -1.5380481845,
				"z": -2.3562593145,
				"element": "H" 
			},
			{
				"x": 3.6882004345,
				"y": 0.0348254528,
				"z": -1.8479445558,
				"element": "H" 
			},
			{
				"x": 1.8471524797,
				"y": -1.4789050338,
				"z": -2.6910094737,
				"element": "H" 
			},
			{
				"x": 2.2748563444,
				"y": -2.6690884628,
				"z": -1.4331729249,
				"element": "H" 
			},
			{
				"x": -0.1798994365,
				"y": -2.2279495887,
				"z": 3.9759073981,
				"element": "H" 
			},
			{
				"x": 1.3670524249,
				"y": -2.2465195804,
				"z": 3.0954965993,
				"element": "H" 
			},
			{
				"x": 1.081046856,
				"y": -1.081647308,
				"z": 4.414567307,
				"element": "H" 
			},
			{
				"x": -2.5534226305,
				"y": 2.4698067188,
				"z": 2.9040639877,
				"element": "H" 
			},
			{
				"x": -2.2652805073,
				"y": 2.8951847318,
				"z": 1.270343723,
				"element": "H" 
			}
		],
		 "valence_orbital": [ 
			{
				"type": "occ",
				"energy": -0.32643,
				"method": "rhf"
			},
			{
				"type": "occ",
				"energy": -0.3014,
				"method": "rhf"
			},
			{
				"type": "occ",
				"energy": -0.27594,
				"method": "rhf"
			},
			{
				"type": "occ",
				"energy": -0.26093,
				"method": "rhf"
			},
			{
				"type": "occ",
				"energy": -0.22091,
				"method": "rhf"
			},
			{
				"type": "unocc",
				"energy": -0.04901,
				"method": "rhf"
			},
			{
				"type": "unocc",
				"energy": -0.01713,
				"method": "rhf"
			},
			{
				"type": "unocc",
				"energy": -0.00853,
				"method": "rhf"
			},
			{
				"type": "unocc",
				"energy": 0.03982,
				"method": "rhf"
			},
			{
				"type": "unocc",
				"energy": 0.05829,
				"method": "rhf"
			}
		],
		"cosmo_sigma_profile": { 
			"-0.025": 0.0,
			"-0.024": 0.0,
			"-0.023": 0.0,
			"-0.022": 0.0,
			"-0.021": 0.0,
			"-0.02": 0.0,
			"-0.019": 0.0,
			"-0.018": 0.0,
			"-0.017": 0.0,
			"-0.016": 1.04017422125,
			"-0.015": 2.08771848188,
			"-0.014": 2.87174632727,
			"-0.013": 2.53196927453,
			"-0.012": 3.11756972859,
			"-0.011": 1.3754108826,
			"-0.01": 2.07617125558,
			"-0.009": 1.77033321683,
			"-0.008": 2.40745664143,
			"-0.007": 1.95147059266,
			"-0.006": 4.57454903481,
			"-0.005": 11.1613744954,
			"-0.004": 16.7308717042,
			"-0.003": 18.9442650661,
			"-0.002": 19.6619541131,
			"-0.001": 23.9873159417,
			"0.0": 28.0843127098,
			"0.001": 21.8287412313,
			"0.002": 15.0570173477,
			"0.003": 12.6211065917,
			"0.004": 8.61376097157,
			"0.005": 7.34239132695,
			"0.006": 5.28867489603,
			"0.007": 5.22633652015,
			"0.008": 3.79698734333,
			"0.009": 4.56711237202,
			"0.01": 5.40334214517,
			"0.011": 5.41415493436,
			"0.012": 5.02053858439,
			"0.013": 2.33056442503,
			"0.014": 0.310423457664,
			"0.015": 0.0,
			"0.016": 0.0,
			"0.017": 0.0,
			"0.018": 0.0,
			"0.019": 0.0,
			"0.02": 0.0,
			"0.021": 0.0,
			"0.022": 0.0,
			"0.023": 0.0,
			"0.024": 0.0,
			"0.025": 0.0
		}
	}
}
