{
	 "smiles": "O=C(CN1CCNCC1)NC1CCCCC1", 
	 "Tm": 373.15, 
	 "num_atms": 39, 
	 "gaussian": { 
		 "optdone": 1, 
		 "sigma_profile": "yes", 
		 "theory": "DFT", 
		 "functional": "B3LYP", 
		 "basiset": "6-31G**", 
		 "properties": { 
			 "R2extent": 5490.2419, 
			 "electric_dipole_moment_norm": 3.69018447506, 
			 "electric_quadrupole_moment_norm": 11.1246834593, 
			 "total_energy": -710.612349862, 
			 "HOMO_LUMO_gap": 0.21887, 
			 "cosmo_polarized_energy": -13.43, 
			 "cosmo_cavitation_energy": 36.98, 
			 "cosmo_dispersion_energy": -27.1, 
			 "cosmo_repulsion_energy": 2.15, 
			 "cosmo_total_nonelectrostatic_energy": 12.04, 
			 "SMD_solvation_energy": 0.17 
		},
		"coords": [
			{
				"x": 0.086624864,
				"y": 0.9364169836,
				"z": -0.0609725514,
				"element": "O" 
			},
			{
				"x": 0.4457862081,
				"y": -0.0168140702,
				"z": -0.7487926671,
				"element": "C" 
			},
			{
				"x": 1.8927834082,
				"y": -0.1576274337,
				"z": -1.2889871207,
				"element": "C" 
			},
			{
				"x": 2.8959918527,
				"y": 0.6602508905,
				"z": -0.6648622846,
				"element": "N" 
			},
			{
				"x": 2.8783056181,
				"y": 2.1037096197,
				"z": -0.9678307338,
				"element": "C" 
			},
			{
				"x": 2.6528113257,
				"y": 2.9705678389,
				"z": 0.2725748775,
				"element": "C" 
			},
			{
				"x": 3.7109821789,
				"y": 2.7230306063,
				"z": 1.2727539588,
				"element": "N" 
			},
			{
				"x": 4.2027698221,
				"y": 1.33499952,
				"z": 1.2748026988,
				"element": "C" 
			},
			{
				"x": 3.1848265447,
				"y": 0.3282807062,
				"z": 0.7304893232,
				"element": "C" 
			},
			{
				"x": -0.3927934144,
				"y": -1.0216344626,
				"z": -1.1314731989,
				"element": "N" 
			},
			{
				"x": -1.8280348705,
				"y": -1.0911434179,
				"z": -0.8171110468,
				"element": "C" 
			},
			{
				"x": -2.620256069,
				"y": 0.0777495033,
				"z": -1.460791462,
				"element": "C" 
			},
			{
				"x": -3.9532326931,
				"y": 0.3534729633,
				"z": -0.7273696193,
				"element": "C" 
			},
			{
				"x": -4.5391907935,
				"y": -0.9318406522,
				"z": -0.1285068923,
				"element": "C" 
			},
			{
				"x": -3.5975403223,
				"y": -1.5228318258,
				"z": 0.950283352,
				"element": "C" 
			},
			{
				"x": -2.1099342665,
				"y": -1.1825961234,
				"z": 0.6922466233,
				"element": "C" 
			},
			{
				"x": 1.8604571578,
				"y": 0.066942097,
				"z": -2.3643088291,
				"element": "H" 
			},
			{
				"x": 2.1932395324,
				"y": -1.213628976,
				"z": -1.2092307753,
				"element": "H" 
			},
			{
				"x": 2.082840384,
				"y": 2.3163159411,
				"z": -1.6881041745,
				"element": "H" 
			},
			{
				"x": 3.8301268606,
				"y": 2.3933872407,
				"z": -1.4388380293,
				"element": "H" 
			},
			{
				"x": 1.6461848912,
				"y": 2.7501106074,
				"z": 0.6506374918,
				"element": "H" 
			},
			{
				"x": 2.6784731188,
				"y": 4.0285117224,
				"z": -0.0216644818,
				"element": "H" 
			},
			{
				"x": 3.3445618103,
				"y": 2.9474986533,
				"z": 2.1919997592,
				"element": "H" 
			},
			{
				"x": 5.1103829373,
				"y": 1.2669052596,
				"z": 0.6587414979,
				"element": "H" 
			},
			{
				"x": 4.492787241,
				"y": 1.0604593175,
				"z": 2.294257281,
				"element": "H" 
			},
			{
				"x": 2.2817642582,
				"y": 0.3379823986,
				"z": 1.3653768293,
				"element": "H" 
			},
			{
				"x": 3.6030673505,
				"y": -0.68847175,
				"z": 0.7722002359,
				"element": "H" 
			},
			{
				"x": -0.0014231068,
				"y": -1.7696819934,
				"z": -1.6843272329,
				"element": "H" 
			},
			{
				"x": -2.1644012597,
				"y": -2.0318168683,
				"z": -1.2708607365,
				"element": "H" 
			},
			{
				"x": -1.9978886608,
				"y": 0.974948626,
				"z": -1.4360326299,
				"element": "H" 
			},
			{
				"x": -2.8072975879,
				"y": -0.1620970751,
				"z": -2.5146282555,
				"element": "H" 
			},
			{
				"x": -4.6663171481,
				"y": 0.82204872,
				"z": -1.4147593822,
				"element": "H" 
			},
			{
				"x": -3.7850148079,
				"y": 1.0773710359,
				"z": 0.0798138377,
				"element": "H" 
			},
			{
				"x": -4.6909116525,
				"y": -1.6624565169,
				"z": -0.9346913833,
				"element": "H" 
			},
			{
				"x": -5.5304474139,
				"y": -0.7440494899,
				"z": 0.2987856526,
				"element": "H" 
			},
			{
				"x": -3.8797071995,
				"y": -1.1417818892,
				"z": 1.9384372761,
				"element": "H" 
			},
			{
				"x": -3.7312532226,
				"y": -2.6106552996,
				"z": 0.9929694061,
				"element": "H" 
			},
			{
				"x": -1.8409972624,
				"y": -0.2261600132,
				"z": 1.1482707269,
				"element": "H" 
			},
			{
				"x": -1.4602256133,
				"y": -1.9403723938,
				"z": 1.1437026591,
				"element": "H" 
			}
		],
		 "valence_orbital": [ 
			{
				"type": "occ",
				"energy": -0.30036,
				"method": "rhf"
			},
			{
				"type": "occ",
				"energy": -0.24945,
				"method": "rhf"
			},
			{
				"type": "occ",
				"energy": -0.24713,
				"method": "rhf"
			},
			{
				"type": "occ",
				"energy": -0.19887,
				"method": "rhf"
			},
			{
				"type": "occ",
				"energy": -0.1905,
				"method": "rhf"
			},
			{
				"type": "unocc",
				"energy": 0.02837,
				"method": "rhf"
			},
			{
				"type": "unocc",
				"energy": 0.06434,
				"method": "rhf"
			},
			{
				"type": "unocc",
				"energy": 0.08249,
				"method": "rhf"
			},
			{
				"type": "unocc",
				"energy": 0.0864,
				"method": "rhf"
			},
			{
				"type": "unocc",
				"energy": 0.10938,
				"method": "rhf"
			}
		],
		"cosmo_sigma_profile": { 
			"-0.025": 0.0,
			"-0.024": 0.0,
			"-0.023": 0.0,
			"-0.022": 0.0,
			"-0.021": 0.0,
			"-0.02": 0.0,
			"-0.019": 0.0,
			"-0.018": 0.0,
			"-0.017": 0.0,
			"-0.016": 0.0,
			"-0.015": 0.0,
			"-0.014": 0.478408903992,
			"-0.013": 1.49783182434,
			"-0.012": 1.03140210397,
			"-0.011": 1.78292916888,
			"-0.01": 1.5429013915,
			"-0.009": 2.75564830967,
			"-0.008": 3.36364368975,
			"-0.007": 3.20198802443,
			"-0.006": 4.46629725627,
			"-0.005": 9.35319988197,
			"-0.004": 11.9244686273,
			"-0.003": 19.4325358099,
			"-0.002": 38.2329022976,
			"-0.001": 46.8073545057,
			"0.0": 41.6633854813,
			"0.001": 32.0496811443,
			"0.002": 16.3862187568,
			"0.003": 7.49612778327,
			"0.004": 4.60627839505,
			"0.005": 3.97174456099,
			"0.006": 4.12285562972,
			"0.007": 4.62969471087,
			"0.008": 3.14224985962,
			"0.009": 3.89289418993,
			"0.01": 3.29778734167,
			"0.011": 2.62067703513,
			"0.012": 2.39197815388,
			"0.013": 3.11402927445,
			"0.014": 2.05011081782,
			"0.015": 0.708682842853,
			"0.016": 0.412787816872,
			"0.017": 0.663701378482,
			"0.018": 0.428028132526,
			"0.019": 0.418650371925,
			"0.02": 0.125303216244,
			"0.021": 0.0,
			"0.022": 0.0,
			"0.023": 0.0,
			"0.024": 0.0,
			"0.025": 0.0
		}
	}
}
