{
	 "smiles": "COC1=CC=C(CNC(N)=S)C=C1", 
	 "Tm": 409.15, 
	 "num_atms": 25, 
	 "gaussian": { 
		 "optdone": 1, 
		 "sigma_profile": "yes", 
		 "theory": "DFT", 
		 "functional": "B3LYP", 
		 "basiset": "6-31G**", 
		 "properties": { 
			 "R2extent": 4614.517, 
			 "electric_dipole_moment_norm": 6.09326152729, 
			 "electric_quadrupole_moment_norm": 42.1209326928, 
			 "total_energy": -933.111402525, 
			 "HOMO_LUMO_gap": 0.17792, 
			 "cosmo_polarized_energy": -19.37, 
			 "cosmo_cavitation_energy": 30.32, 
			 "cosmo_dispersion_energy": -22.33, 
			 "cosmo_repulsion_energy": 1.75, 
			 "cosmo_total_nonelectrostatic_energy": 9.74, 
			 "SMD_solvation_energy": 4.67 
		},
		"coords": [
			{
				"x": -1.8221170453,
				"y": -2.8461330353,
				"z": -2.7387602051,
				"element": "C" 
			},
			{
				"x": -1.2703875439,
				"y": -1.5405089166,
				"z": -2.6527767041,
				"element": "O" 
			},
			{
				"x": -0.5746354403,
				"y": -1.2044989586,
				"z": -1.5306628604,
				"element": "C" 
			},
			{
				"x": -0.3632013158,
				"y": -2.0548505958,
				"z": -0.4372494335,
				"element": "C" 
			},
			{
				"x": 0.3668980881,
				"y": -1.599679686,
				"z": 0.6626092402,
				"element": "C" 
			},
			{
				"x": 0.8940157881,
				"y": -0.3058426258,
				"z": 0.7017664456,
				"element": "C" 
			},
			{
				"x": 1.7376508186,
				"y": 0.1772902226,
				"z": 1.8739627281,
				"element": "C" 
			},
			{
				"x": 1.3173110641,
				"y": -0.3265566506,
				"z": 3.1779965474,
				"element": "N" 
			},
			{
				"x": 0.2273372658,
				"y": 0.0994448538,
				"z": 3.8769223023,
				"element": "C" 
			},
			{
				"x": -0.6514627455,
				"y": 0.8803690392,
				"z": 3.1870756738,
				"element": "N" 
			},
			{
				"x": 0.0098078199,
				"y": -0.2942501847,
				"z": 5.4992431053,
				"element": "S" 
			},
			{
				"x": 0.6648620792,
				"y": 0.5366691399,
				"z": -0.3976195368,
				"element": "C" 
			},
			{
				"x": -0.0554975703,
				"y": 0.0985560258,
				"z": -1.5022009032,
				"element": "C" 
			},
			{
				"x": -2.3254180973,
				"y": -2.8966313797,
				"z": -3.7052499317,
				"element": "H" 
			},
			{
				"x": -2.5533120336,
				"y": -3.0299505679,
				"z": -1.9412723599,
				"element": "H" 
			},
			{
				"x": -1.0432447862,
				"y": -3.6181072216,
				"z": -2.6968326969,
				"element": "H" 
			},
			{
				"x": -0.7604386319,
				"y": -3.0628534995,
				"z": -0.4293622187,
				"element": "H" 
			},
			{
				"x": 0.517463797,
				"y": -2.2611666998,
				"z": 1.510923195,
				"element": "H" 
			},
			{
				"x": 1.7513350856,
				"y": 1.2759887931,
				"z": 1.8822261756,
				"element": "H" 
			},
			{
				"x": 2.7762458458,
				"y": -0.1458269561,
				"z": 1.7414436427,
				"element": "H" 
			},
			{
				"x": 1.9893301278,
				"y": -0.8201712739,
				"z": 3.7457444655,
				"element": "H" 
			},
			{
				"x": -0.6969991157,
				"y": 0.8176553131,
				"z": 2.1777986318,
				"element": "H" 
			},
			{
				"x": -1.5122321777,
				"y": 1.0824836662,
				"z": 3.67195402,
				"element": "H" 
			},
			{
				"x": 1.0590271853,
				"y": 1.5505522865,
				"z": -0.3896929478,
				"element": "H" 
			},
			{
				"x": -0.2361384619,
				"y": 0.7476189117,
				"z": -2.3526863751,
				"element": "H" 
			}
		],
		 "valence_orbital": [ 
			{
				"type": "occ",
				"energy": -0.27215,
				"method": "rhf"
			},
			{
				"type": "occ",
				"energy": -0.26595,
				"method": "rhf"
			},
			{
				"type": "occ",
				"energy": -0.23076,
				"method": "rhf"
			},
			{
				"type": "occ",
				"energy": -0.20441,
				"method": "rhf"
			},
			{
				"type": "occ",
				"energy": -0.19597,
				"method": "rhf"
			},
			{
				"type": "unocc",
				"energy": -0.01805,
				"method": "rhf"
			},
			{
				"type": "unocc",
				"energy": -0.00711,
				"method": "rhf"
			},
			{
				"type": "unocc",
				"energy": 0.00592,
				"method": "rhf"
			},
			{
				"type": "unocc",
				"energy": 0.06669,
				"method": "rhf"
			},
			{
				"type": "unocc",
				"energy": 0.08533,
				"method": "rhf"
			}
		],
		"cosmo_sigma_profile": { 
			"-0.025": 0.0,
			"-0.024": 0.0,
			"-0.023": 0.0,
			"-0.022": 0.0,
			"-0.021": 0.0,
			"-0.02": 0.0,
			"-0.019": 0.0,
			"-0.018": 0.0,
			"-0.017": 0.0,
			"-0.016": 0.0,
			"-0.015": 0.080097312084,
			"-0.014": 1.39526597001,
			"-0.013": 2.35502578591,
			"-0.012": 2.60917282913,
			"-0.011": 3.2482631422,
			"-0.01": 2.33490236425,
			"-0.009": 2.69085921259,
			"-0.008": 2.90963802931,
			"-0.007": 5.99789018084,
			"-0.006": 16.0701578023,
			"-0.005": 22.5018303612,
			"-0.004": 21.458964388,
			"-0.003": 20.0686360788,
			"-0.002": 14.1959214573,
			"-0.001": 10.3052341347,
			"0.0": 11.3944328907,
			"0.001": 9.96027961372,
			"0.002": 9.63285451074,
			"0.003": 11.9153046081,
			"0.004": 13.3013692508,
			"0.005": 12.4087660574,
			"0.006": 6.36108916688,
			"0.007": 4.58848611596,
			"0.008": 4.99184922165,
			"0.009": 5.04881755375,
			"0.01": 5.85143812704,
			"0.011": 7.43274091267,
			"0.012": 7.74143558855,
			"0.013": 3.91461033641,
			"0.014": 0.0309191461039,
			"0.015": 0.0,
			"0.016": 0.0,
			"0.017": 0.0,
			"0.018": 0.0,
			"0.019": 0.0,
			"0.02": 0.0,
			"0.021": 0.0,
			"0.022": 0.0,
			"0.023": 0.0,
			"0.024": 0.0,
			"0.025": 0.0
		}
	}
}
