{
	 "smiles": "CC1=C(C=CC=C1N)C(=O)N1CCCC1", 
	 "Tm": 436.15, 
	 "num_atms": 31, 
	 "gaussian": { 
		 "optdone": 1, 
		 "sigma_profile": "yes", 
		 "theory": "DFT", 
		 "functional": "B3LYP", 
		 "basiset": "6-31G**", 
		 "properties": { 
			 "R2extent": 3554.556, 
			 "electric_dipole_moment_norm": 3.74166519614, 
			 "electric_quadrupole_moment_norm": 18.3008439857, 
			 "total_energy": -651.669860881, 
			 "HOMO_LUMO_gap": 0.19747, 
			 "cosmo_polarized_energy": -15.73, 
			 "cosmo_cavitation_energy": 32.31, 
			 "cosmo_dispersion_energy": -23.1, 
			 "cosmo_repulsion_energy": 1.83, 
			 "cosmo_total_nonelectrostatic_energy": 11.04, 
			 "SMD_solvation_energy": 5.13 
		},
		"coords": [
			{
				"x": 2.3698765292,
				"y": -0.2309720997,
				"z": 0.2497030394,
				"element": "C" 
			},
			{
				"x": 1.5677292471,
				"y": 0.3013347264,
				"z": -0.9148231463,
				"element": "C" 
			},
			{
				"x": 0.1830724666,
				"y": 0.0975384124,
				"z": -1.0412000671,
				"element": "C" 
			},
			{
				"x": -0.5163565165,
				"y": 0.5624311015,
				"z": -2.1636632133,
				"element": "C" 
			},
			{
				"x": 0.1582104272,
				"y": 1.2703479734,
				"z": -3.1542978483,
				"element": "C" 
			},
			{
				"x": 1.5281205359,
				"y": 1.4912668863,
				"z": -3.0456997172,
				"element": "C" 
			},
			{
				"x": 2.2431434711,
				"y": 1.0041039243,
				"z": -1.9416691507,
				"element": "C" 
			},
			{
				"x": 3.6145554722,
				"y": 1.2624278586,
				"z": -1.8268649581,
				"element": "N" 
			},
			{
				"x": -0.6194081223,
				"y": -0.6807232529,
				"z": -0.0237393772,
				"element": "C" 
			},
			{
				"x": -1.1352106981,
				"y": -1.7614715688,
				"z": -0.3045065056,
				"element": "O" 
			},
			{
				"x": -0.7787039646,
				"y": -0.1184373755,
				"z": 1.2129950553,
				"element": "N" 
			},
			{
				"x": -1.6284416255,
				"y": -0.795080752,
				"z": 2.2066236422,
				"element": "C" 
			},
			{
				"x": -1.6366361334,
				"y": 0.17582639,
				"z": 3.3964354431,
				"element": "C" 
			},
			{
				"x": -1.4567944059,
				"y": 1.5521107612,
				"z": 2.7331200575,
				"element": "C" 
			},
			{
				"x": -0.4562344328,
				"y": 1.2636037586,
				"z": 1.6031749025,
				"element": "C" 
			},
			{
				"x": 1.7368257177,
				"y": -0.7168669364,
				"z": 0.9928473387,
				"element": "H" 
			},
			{
				"x": 2.9302789904,
				"y": 0.5704548534,
				"z": 0.7476279876,
				"element": "H" 
			},
			{
				"x": 3.1057294487,
				"y": -0.9782197986,
				"z": -0.080645483,
				"element": "H" 
			},
			{
				"x": -1.5787648211,
				"y": 0.360049617,
				"z": -2.2495293637,
				"element": "H" 
			},
			{
				"x": -0.3796823632,
				"y": 1.6427393579,
				"z": -4.0215235308,
				"element": "H" 
			},
			{
				"x": 2.0580961743,
				"y": 2.0369860265,
				"z": -3.8230965275,
				"element": "H" 
			},
			{
				"x": 4.0648369399,
				"y": 1.5098287586,
				"z": -2.6977562728,
				"element": "H" 
			},
			{
				"x": 4.1460716574,
				"y": 0.56548666,
				"z": -1.3237253441,
				"element": "H" 
			},
			{
				"x": -1.2260204497,
				"y": -1.7826455988,
				"z": 2.4498710069,
				"element": "H" 
			},
			{
				"x": -2.6318129977,
				"y": -0.9515128486,
				"z": 1.7907811755,
				"element": "H" 
			},
			{
				"x": -2.5516529943,
				"y": 0.0982977062,
				"z": 3.9897043082,
				"element": "H" 
			},
			{
				"x": -0.7903934631,
				"y": -0.0330427336,
				"z": 4.061409741,
				"element": "H" 
			},
			{
				"x": -1.098886473,
				"y": 2.3236602894,
				"z": 3.4204116928,
				"element": "H" 
			},
			{
				"x": -2.4084940076,
				"y": 1.8932622619,
				"z": 2.3097268953,
				"element": "H" 
			},
			{
				"x": -0.5553023841,
				"y": 1.942892746,
				"z": 0.7533747993,
				"element": "H" 
			},
			{
				"x": 0.5765487753,
				"y": 1.3371228955,
				"z": 1.9711334201,
				"element": "H" 
			}
		],
		 "valence_orbital": [ 
			{
				"type": "occ",
				"energy": -0.30476,
				"method": "rhf"
			},
			{
				"type": "occ",
				"energy": -0.24586,
				"method": "rhf"
			},
			{
				"type": "occ",
				"energy": -0.23009,
				"method": "rhf"
			},
			{
				"type": "occ",
				"energy": -0.22507,
				"method": "rhf"
			},
			{
				"type": "occ",
				"energy": -0.20009,
				"method": "rhf"
			},
			{
				"type": "unocc",
				"energy": -0.00262,
				"method": "rhf"
			},
			{
				"type": "unocc",
				"energy": 0.0168,
				"method": "rhf"
			},
			{
				"type": "unocc",
				"energy": 0.04477,
				"method": "rhf"
			},
			{
				"type": "unocc",
				"energy": 0.07396,
				"method": "rhf"
			},
			{
				"type": "unocc",
				"energy": 0.08431,
				"method": "rhf"
			}
		],
		"cosmo_sigma_profile": { 
			"-0.025": 0.0,
			"-0.024": 0.0,
			"-0.023": 0.0,
			"-0.022": 0.0,
			"-0.021": 0.0,
			"-0.02": 0.0,
			"-0.019": 0.0,
			"-0.018": 0.0,
			"-0.017": 0.0,
			"-0.016": 0.0,
			"-0.015": 0.0,
			"-0.014": 0.0,
			"-0.013": 0.0462587207769,
			"-0.012": 1.45089496034,
			"-0.011": 2.77139941439,
			"-0.01": 2.62313418505,
			"-0.009": 3.56129698394,
			"-0.008": 3.0579267076,
			"-0.007": 3.14717372115,
			"-0.006": 3.93624130331,
			"-0.005": 8.13786968052,
			"-0.004": 21.4855114239,
			"-0.003": 36.1723619452,
			"-0.002": 35.9806991329,
			"-0.001": 28.3333121316,
			"0.0": 22.6341186916,
			"0.001": 9.89156886227,
			"0.002": 7.90292151338,
			"0.003": 7.01839485169,
			"0.004": 7.20734544974,
			"0.005": 8.66749668951,
			"0.006": 9.32941964898,
			"0.007": 5.3983807886,
			"0.008": 2.4774106643,
			"0.009": 1.85943192641,
			"0.01": 2.63764250628,
			"0.011": 2.27155769024,
			"0.012": 2.64210082691,
			"0.013": 2.47350997612,
			"0.014": 6.21791493766,
			"0.015": 3.41286987963,
			"0.016": 0.489986192999,
			"0.017": 0.0,
			"0.018": 0.0,
			"0.019": 0.0,
			"0.02": 0.0,
			"0.021": 0.0,
			"0.022": 0.0,
			"0.023": 0.0,
			"0.024": 0.0,
			"0.025": 0.0
		}
	}
}
