{
	 "smiles": "CC1=NN(C(C)=C1C=O)C1=CC=C(Br)C=C1", 
	 "Tm": 416.15, 
	 "num_atms": 27, 
	 "gaussian": { 
		 "optdone": 1, 
		 "sigma_profile": "yes", 
		 "theory": "DFT", 
		 "functional": "B3LYP", 
		 "basiset": "6-31G**", 
		 "properties": { 
			 "R2extent": 7673.6671, 
			 "electric_dipole_moment_norm": 1.20628283582, 
			 "electric_quadrupole_moment_norm": 16.2813663822, 
			 "total_energy": -3220.0263095, 
			 "HOMO_LUMO_gap": 0.18391, 
			 "cosmo_polarized_energy": -11.04, 
			 "cosmo_cavitation_energy": 33.64, 
			 "cosmo_dispersion_energy": -24.52, 
			 "cosmo_repulsion_energy": 1.91, 
			 "cosmo_total_nonelectrostatic_energy": 11.03, 
			 "SMD_solvation_energy": 4.86 
		},
		"coords": [
			{
				"x": 3.7479676133,
				"y": -1.5329768875,
				"z": 1.4039483396,
				"element": "C" 
			},
			{
				"x": 2.6120904045,
				"y": -0.8410329436,
				"z": 0.7139623095,
				"element": "C" 
			},
			{
				"x": 1.3773476392,
				"y": -1.2924129108,
				"z": 0.8524040656,
				"element": "N" 
			},
			{
				"x": 0.5937050936,
				"y": -0.4538373656,
				"z": 0.0922701298,
				"element": "N" 
			},
			{
				"x": 1.3171047579,
				"y": 0.5322530754,
				"z": -0.5102397401,
				"element": "C" 
			},
			{
				"x": 0.7516014211,
				"y": 1.6362313519,
				"z": -1.3434937521,
				"element": "C" 
			},
			{
				"x": 2.6459104178,
				"y": 0.3091833395,
				"z": -0.1346831282,
				"element": "C" 
			},
			{
				"x": 3.8120069725,
				"y": 1.101557982,
				"z": -0.4943189485,
				"element": "C" 
			},
			{
				"x": 3.8081594122,
				"y": 2.0955654293,
				"z": -1.2085834018,
				"element": "O" 
			},
			{
				"x": -0.810286622,
				"y": -0.6811893951,
				"z": 0.0854299755,
				"element": "C" 
			},
			{
				"x": -1.5653591211,
				"y": -0.5215042841,
				"z": -1.0805703332,
				"element": "C" 
			},
			{
				"x": -2.9411570226,
				"y": -0.7495428601,
				"z": -1.0576836198,
				"element": "C" 
			},
			{
				"x": -3.5493179188,
				"y": -1.1558348679,
				"z": 0.1277636215,
				"element": "C" 
			},
			{
				"x": -5.4311437658,
				"y": -1.4733295481,
				"z": 0.1592490076,
				"element": "Br" 
			},
			{
				"x": -2.8002744669,
				"y": -1.3417001266,
				"z": 1.2902279143,
				"element": "C" 
			},
			{
				"x": -1.4297175052,
				"y": -1.101174676,
				"z": 1.2685474803,
				"element": "C" 
			},
			{
				"x": 3.3634135581,
				"y": -2.3750052497,
				"z": 1.982908277,
				"element": "H" 
			},
			{
				"x": 4.2763227271,
				"y": -0.8562373346,
				"z": 2.0841403306,
				"element": "H" 
			},
			{
				"x": 4.4816398987,
				"y": -1.9135868618,
				"z": 0.6852384645,
				"element": "H" 
			},
			{
				"x": 0.622377338,
				"y": 1.3278512621,
				"z": -2.3878642525,
				"element": "H" 
			},
			{
				"x": 1.4597607149,
				"y": 2.4650267507,
				"z": -1.3437517533,
				"element": "H" 
			},
			{
				"x": -0.2206189854,
				"y": 1.9677019413,
				"z": -0.9684011169,
				"element": "H" 
			},
			{
				"x": 4.7661724938,
				"y": 0.7371715427,
				"z": -0.0549171908,
				"element": "H" 
			},
			{
				"x": -1.0863993192,
				"y": -0.2450945334,
				"z": -2.0118980637,
				"element": "H" 
			},
			{
				"x": -3.5291253367,
				"y": -0.6269408721,
				"z": -1.9597810322,
				"element": "H" 
			},
			{
				"x": -3.2837604428,
				"y": -1.6653402466,
				"z": 2.2046702199,
				"element": "H" 
			},
			{
				"x": -0.8272199561,
				"y": -1.2441017113,
				"z": 2.1573261974,
				"element": "H" 
			}
		],
		 "valence_orbital": [ 
			{
				"type": "occ",
				"energy": -0.27817,
				"method": "rhf"
			},
			{
				"type": "occ",
				"energy": -0.27786,
				"method": "rhf"
			},
			{
				"type": "occ",
				"energy": -0.25482,
				"method": "rhf"
			},
			{
				"type": "occ",
				"energy": -0.24797,
				"method": "rhf"
			},
			{
				"type": "occ",
				"energy": -0.23714,
				"method": "rhf"
			},
			{
				"type": "unocc",
				"energy": -0.05323,
				"method": "rhf"
			},
			{
				"type": "unocc",
				"energy": -0.02844,
				"method": "rhf"
			},
			{
				"type": "unocc",
				"energy": -0.02495,
				"method": "rhf"
			},
			{
				"type": "unocc",
				"energy": -0.00151,
				"method": "rhf"
			},
			{
				"type": "unocc",
				"energy": 0.01909,
				"method": "rhf"
			}
		],
		"cosmo_sigma_profile": { 
			"-0.025": 0.0,
			"-0.024": 0.0,
			"-0.023": 0.0,
			"-0.022": 0.0,
			"-0.021": 0.0,
			"-0.02": 0.0,
			"-0.019": 0.0,
			"-0.018": 0.0,
			"-0.017": 0.0,
			"-0.016": 0.0,
			"-0.015": 0.0,
			"-0.014": 0.0,
			"-0.013": 0.0,
			"-0.012": 0.0,
			"-0.011": 0.0,
			"-0.01": 0.0,
			"-0.009": 0.478023674476,
			"-0.008": 4.22579151518,
			"-0.007": 7.825306348,
			"-0.006": 12.4519668751,
			"-0.005": 21.9081782837,
			"-0.004": 19.4685384211,
			"-0.003": 21.1559615329,
			"-0.002": 21.3057126851,
			"-0.001": 25.7345707646,
			"0.0": 21.0448626935,
			"0.001": 23.0347085618,
			"0.002": 27.6513256804,
			"0.003": 17.1419687336,
			"0.004": 15.3790160733,
			"0.005": 7.06367147438,
			"0.006": 3.21422722311,
			"0.007": 3.44320077541,
			"0.008": 3.3509255278,
			"0.009": 2.87053018185,
			"0.01": 2.3497782454,
			"0.011": 3.83628140819,
			"0.012": 4.27515943947,
			"0.013": 2.4722223294,
			"0.014": 0.991849194231,
			"0.015": 0.0,
			"0.016": 0.0,
			"0.017": 0.0,
			"0.018": 0.0,
			"0.019": 0.0,
			"0.02": 0.0,
			"0.021": 0.0,
			"0.022": 0.0,
			"0.023": 0.0,
			"0.024": 0.0,
			"0.025": 0.0
		}
	}
}
