{
	 "smiles": "CC(C)(C)C1=CC(C(O)=O)=C(N)C=C1", 
	 "Tm": 418.15, 
	 "num_atms": 29, 
	 "gaussian": { 
		 "optdone": 1, 
		 "sigma_profile": "yes", 
		 "theory": "DFT", 
		 "functional": "B3LYP", 
		 "basiset": "6-31G**", 
		 "properties": { 
			 "R2extent": 3330.4686, 
			 "electric_dipole_moment_norm": 3.94973697479, 
			 "electric_quadrupole_moment_norm": 15.4570563058, 
			 "total_energy": -633.444516574, 
			 "HOMO_LUMO_gap": 0.16321, 
			 "cosmo_polarized_energy": -13.85, 
			 "cosmo_cavitation_energy": 30.65, 
			 "cosmo_dispersion_energy": -22.11, 
			 "cosmo_repulsion_energy": 1.72, 
			 "cosmo_total_nonelectrostatic_energy": 10.26, 
			 "SMD_solvation_energy": 6.25 
		},
		"coords": [
			{
				"x": 2.3444813436,
				"y": -0.8001330104,
				"z": -3.0734042244,
				"element": "C" 
			},
			{
				"x": 2.2287208123,
				"y": 0.1190218048,
				"z": -1.8338332773,
				"element": "C" 
			},
			{
				"x": 2.5141762423,
				"y": 1.5808220927,
				"z": -2.2537926074,
				"element": "C" 
			},
			{
				"x": 3.3063715043,
				"y": -0.3070384431,
				"z": -0.8190237928,
				"element": "C" 
			},
			{
				"x": 0.8086487256,
				"y": 0.0184093307,
				"z": -1.2516297655,
				"element": "C" 
			},
			{
				"x": 0.5358857013,
				"y": -0.3959249793,
				"z": 0.0470729978,
				"element": "C" 
			},
			{
				"x": -0.7677564694,
				"y": -0.4766225437,
				"z": 0.5822454662,
				"element": "C" 
			},
			{
				"x": -0.9967888008,
				"y": -0.9263106356,
				"z": 1.9767047472,
				"element": "C" 
			},
			{
				"x": 0.0121591658,
				"y": -1.5978262928,
				"z": 2.5939691181,
				"element": "O" 
			},
			{
				"x": -2.0260643265,
				"y": -0.7360538936,
				"z": 2.6042556555,
				"element": "O" 
			},
			{
				"x": -1.8740084847,
				"y": -0.0815054581,
				"z": -0.2208007837,
				"element": "C" 
			},
			{
				"x": -3.1612562946,
				"y": -0.129914145,
				"z": 0.2352878074,
				"element": "N" 
			},
			{
				"x": -1.600981087,
				"y": 0.3243048875,
				"z": -1.5474896043,
				"element": "C" 
			},
			{
				"x": -0.3103432216,
				"y": 0.3680876294,
				"z": -2.0386712265,
				"element": "C" 
			},
			{
				"x": 1.6267656995,
				"y": -0.5258038586,
				"z": -3.8525217863,
				"element": "H" 
			},
			{
				"x": 2.1606578035,
				"y": -1.8455819191,
				"z": -2.8046418769,
				"element": "H" 
			},
			{
				"x": 3.3478561049,
				"y": -0.7317314188,
				"z": -3.50879357,
				"element": "H" 
			},
			{
				"x": 2.451185222,
				"y": 2.2545858259,
				"z": -1.3930526148,
				"element": "H" 
			},
			{
				"x": 3.5193125502,
				"y": 1.6678812414,
				"z": -2.6818547714,
				"element": "H" 
			},
			{
				"x": 1.8023187829,
				"y": 1.9340999625,
				"z": -3.0060888336,
				"element": "H" 
			},
			{
				"x": 4.2975478197,
				"y": -0.2242905113,
				"z": -1.2759956809,
				"element": "H" 
			},
			{
				"x": 3.3028664533,
				"y": 0.3291868095,
				"z": 0.0725411541,
				"element": "H" 
			},
			{
				"x": 3.1787449553,
				"y": -1.3475744961,
				"z": -0.5009659231,
				"element": "H" 
			},
			{
				"x": 1.3717958909,
				"y": -0.6256959137,
				"z": 0.7000568073,
				"element": "H" 
			},
			{
				"x": 0.6855534024,
				"y": -1.8466663175,
				"z": 1.9465905143,
				"element": "H" 
			},
			{
				"x": -3.2807298053,
				"y": -0.2115518685,
				"z": 1.2379771141,
				"element": "H" 
			},
			{
				"x": -3.8723428788,
				"y": 0.340642335,
				"z": -0.3006824839,
				"element": "H" 
			},
			{
				"x": -2.43289573,
				"y": 0.611647706,
				"z": -2.1858154301,
				"element": "H" 
			},
			{
				"x": -0.1646810813,
				"y": 0.6959360798,
				"z": -3.0641431291,
				"element": "H" 
			}
		],
		 "valence_orbital": [ 
			{
				"type": "occ",
				"energy": -0.31105,
				"method": "rhf"
			},
			{
				"type": "occ",
				"energy": -0.3066,
				"method": "rhf"
			},
			{
				"type": "occ",
				"energy": -0.27056,
				"method": "rhf"
			},
			{
				"type": "occ",
				"energy": -0.25971,
				"method": "rhf"
			},
			{
				"type": "occ",
				"energy": -0.20491,
				"method": "rhf"
			},
			{
				"type": "unocc",
				"energy": -0.0417,
				"method": "rhf"
			},
			{
				"type": "unocc",
				"energy": 0.00584,
				"method": "rhf"
			},
			{
				"type": "unocc",
				"energy": 0.05287,
				"method": "rhf"
			},
			{
				"type": "unocc",
				"energy": 0.0643,
				"method": "rhf"
			},
			{
				"type": "unocc",
				"energy": 0.08394,
				"method": "rhf"
			}
		],
		"cosmo_sigma_profile": { 
			"-0.025": 0.0,
			"-0.024": 0.0,
			"-0.023": 0.0,
			"-0.022": 0.0,
			"-0.021": 0.0,
			"-0.02": 0.0,
			"-0.019": 0.0,
			"-0.018": 0.211630065282,
			"-0.017": 0.78818801969,
			"-0.016": 0.713025190755,
			"-0.015": 1.15866944373,
			"-0.014": 0.627714784193,
			"-0.013": 2.3857333285,
			"-0.012": 2.2999449432,
			"-0.011": 2.17603978015,
			"-0.01": 2.4797947862,
			"-0.009": 2.27421868519,
			"-0.008": 3.19758500679,
			"-0.007": 4.2859307645,
			"-0.006": 5.61978722507,
			"-0.005": 8.54055043374,
			"-0.004": 9.26687674319,
			"-0.003": 17.5386551507,
			"-0.002": 24.6417061695,
			"-0.001": 23.033881303,
			"0.0": 21.0877381062,
			"0.001": 27.4342165157,
			"0.002": 17.8919998376,
			"0.003": 10.7745738188,
			"0.004": 12.1567511954,
			"0.005": 10.7273577838,
			"0.006": 4.68694986752,
			"0.007": 1.73242482094,
			"0.008": 3.97489033847,
			"0.009": 3.84259169431,
			"0.01": 4.19124401142,
			"0.011": 4.70980022822,
			"0.012": 2.98180368439,
			"0.013": 2.15746331051,
			"0.014": 0.736168728332,
			"0.015": 0.0,
			"0.016": 0.0,
			"0.017": 0.0,
			"0.018": 0.0,
			"0.019": 0.0,
			"0.02": 0.0,
			"0.021": 0.0,
			"0.022": 0.0,
			"0.023": 0.0,
			"0.024": 0.0,
			"0.025": 0.0
		}
	}
}
