{
	 "smiles": "O=CC1=CC(OC2=CC=CC=C2)=CC=C1", 
	 "Tm": 286.15, 
	 "num_atms": 25, 
	 "gaussian": { 
		 "optdone": 1, 
		 "sigma_profile": "yes", 
		 "theory": "DFT", 
		 "functional": "B3LYP", 
		 "basiset": "6-31G**", 
		 "properties": { 
			 "R2extent": 4729.6729, 
			 "electric_dipole_moment_norm": 3.02779635709, 
			 "electric_quadrupole_moment_norm": 24.639032368, 
			 "total_energy": -651.839511522, 
			 "HOMO_LUMO_gap": 0.16534, 
			 "cosmo_polarized_energy": -9.16, 
			 "cosmo_cavitation_energy": 30.15, 
			 "cosmo_dispersion_energy": -21.49, 
			 "cosmo_repulsion_energy": 1.68, 
			 "cosmo_total_nonelectrostatic_energy": 10.33, 
			 "SMD_solvation_energy": 6.41 
		},
		"coords": [
			{
				"x": -3.6089710461,
				"y": 4.846688664,
				"z": 0.6150073358,
				"element": "O" 
			},
			{
				"x": -2.7529238643,
				"y": 4.0996046297,
				"z": 0.1819634433,
				"element": "C" 
			},
			{
				"x": -1.939209752,
				"y": 3.1799349041,
				"z": 1.0120956607,
				"element": "C" 
			},
			{
				"x": -0.9823952873,
				"y": 2.3681075123,
				"z": 0.3895532186,
				"element": "C" 
			},
			{
				"x": -0.2124658483,
				"y": 1.498555324,
				"z": 1.1647603079,
				"element": "C" 
			},
			{
				"x": 0.7909220521,
				"y": 0.7081182118,
				"z": 0.651460354,
				"element": "O" 
			},
			{
				"x": 0.7310864715,
				"y": 0.2461079689,
				"z": -0.6537071191,
				"element": "C" 
			},
			{
				"x": 1.8900318376,
				"y": 0.3606778982,
				"z": -1.4219333932,
				"element": "C" 
			},
			{
				"x": 1.9101819258,
				"y": -0.1663625058,
				"z": -2.7138407472,
				"element": "C" 
			},
			{
				"x": 0.7790894078,
				"y": -0.7956447993,
				"z": -3.2376022936,
				"element": "C" 
			},
			{
				"x": -0.3746282027,
				"y": -0.904518442,
				"z": -2.4574883034,
				"element": "C" 
			},
			{
				"x": -0.405356448,
				"y": -0.3904708048,
				"z": -1.160782523,
				"element": "C" 
			},
			{
				"x": -0.3912361172,
				"y": 1.4492906268,
				"z": 2.5513386741,
				"element": "C" 
			},
			{
				"x": -1.342796614,
				"y": 2.2682592274,
				"z": 3.1629772575,
				"element": "C" 
			},
			{
				"x": -2.1236432718,
				"y": 3.1326898006,
				"z": 2.4010471709,
				"element": "C" 
			},
			{
				"x": -2.5246285241,
				"y": 4.0632652334,
				"z": -0.9069912419,
				"element": "H" 
			},
			{
				"x": -0.840802347,
				"y": 2.4184957509,
				"z": -0.685718452,
				"element": "H" 
			},
			{
				"x": 2.7570571146,
				"y": 0.8538885672,
				"z": -0.995170139,
				"element": "H" 
			},
			{
				"x": 2.8123468342,
				"y": -0.0795411788,
				"z": -3.3122615602,
				"element": "H" 
			},
			{
				"x": 0.7967220818,
				"y": -1.2012221019,
				"z": -4.2444477618,
				"element": "H" 
			},
			{
				"x": -1.2556177627,
				"y": -1.4005444505,
				"z": -2.8544273791,
				"element": "H" 
			},
			{
				"x": -1.2939239405,
				"y": -0.4843781622,
				"z": -0.5452975547,
				"element": "H" 
			},
			{
				"x": 0.2245400255,
				"y": 0.7683308547,
				"z": 3.1297730097,
				"element": "H" 
			},
			{
				"x": -1.4722956335,
				"y": 2.221038925,
				"z": 4.2401341849,
				"element": "H" 
			},
			{
				"x": -2.8732830914,
				"y": 3.7752283461,
				"z": 2.8500578509,
				"element": "H" 
			}
		],
		 "valence_orbital": [ 
			{
				"type": "occ",
				"energy": -0.27035,
				"method": "rhf"
			},
			{
				"type": "occ",
				"energy": -0.26213,
				"method": "rhf"
			},
			{
				"type": "occ",
				"energy": -0.25939,
				"method": "rhf"
			},
			{
				"type": "occ",
				"energy": -0.2554,
				"method": "rhf"
			},
			{
				"type": "occ",
				"energy": -0.22953,
				"method": "rhf"
			},
			{
				"type": "unocc",
				"energy": -0.06419,
				"method": "rhf"
			},
			{
				"type": "unocc",
				"energy": -0.01746,
				"method": "rhf"
			},
			{
				"type": "unocc",
				"energy": -0.011,
				"method": "rhf"
			},
			{
				"type": "unocc",
				"energy": -0.00051,
				"method": "rhf"
			},
			{
				"type": "unocc",
				"energy": 0.04165,
				"method": "rhf"
			}
		],
		"cosmo_sigma_profile": { 
			"-0.025": 0.0,
			"-0.024": 0.0,
			"-0.023": 0.0,
			"-0.022": 0.0,
			"-0.021": 0.0,
			"-0.02": 0.0,
			"-0.019": 0.0,
			"-0.018": 0.0,
			"-0.017": 0.0,
			"-0.016": 0.0,
			"-0.015": 0.0,
			"-0.014": 0.0,
			"-0.013": 0.0,
			"-0.012": 0.0,
			"-0.011": 0.0,
			"-0.01": 0.0,
			"-0.009": 0.128307562441,
			"-0.008": 1.98548139864,
			"-0.007": 6.97688664498,
			"-0.006": 17.0765247468,
			"-0.005": 20.4907446241,
			"-0.004": 19.8134498375,
			"-0.003": 17.4519495245,
			"-0.002": 15.8420877858,
			"-0.001": 15.9737650926,
			"0.0": 15.4956700545,
			"0.001": 18.5066076144,
			"0.002": 21.7918911792,
			"0.003": 21.9737735181,
			"0.004": 15.2231593113,
			"0.005": 11.2031719395,
			"0.006": 3.25576345234,
			"0.007": 3.2167999957,
			"0.008": 3.48583644496,
			"0.009": 1.94563425026,
			"0.01": 3.08120140158,
			"0.011": 4.3749155078,
			"0.012": 2.50826687344,
			"0.013": 0.631728917501,
			"0.014": 0.0,
			"0.015": 0.0,
			"0.016": 0.0,
			"0.017": 0.0,
			"0.018": 0.0,
			"0.019": 0.0,
			"0.02": 0.0,
			"0.021": 0.0,
			"0.022": 0.0,
			"0.023": 0.0,
			"0.024": 0.0,
			"0.025": 0.0
		}
	}
}
