{
	 "smiles": "CC(C)(OC1=CC=C(C=C1)C1CC1(Cl)Cl)C(O)=O", 
	 "Tm": 388.15, 
	 "num_atms": 32, 
	 "gaussian": { 
		 "optdone": 1, 
		 "sigma_profile": "yes", 
		 "theory": "DFT", 
		 "functional": "B3LYP", 
		 "basiset": "6-31G**", 
		 "properties": { 
			 "R2extent": 9127.2318, 
			 "electric_dipole_moment_norm": 3.25194775173, 
			 "electric_quadrupole_moment_norm": 16.1869790505, 
			 "total_energy": -1649.84686175, 
			 "HOMO_LUMO_gap": 0.21937, 
			 "cosmo_polarized_energy": -14.47, 
			 "cosmo_cavitation_energy": 39.2, 
			 "cosmo_dispersion_energy": -26.96, 
			 "cosmo_repulsion_energy": 2.1, 
			 "cosmo_total_nonelectrostatic_energy": 14.34, 
			 "SMD_solvation_energy": 6.97 
		},
		"coords": [
			{
				"x": 2.827884194,
				"y": 1.4408436568,
				"z": 0.3874588677,
				"element": "C" 
			},
			{
				"x": 2.8141602923,
				"y": -0.0806508733,
				"z": 0.2352787802,
				"element": "C" 
			},
			{
				"x": 2.6261067744,
				"y": -0.7828991463,
				"z": 1.5908089763,
				"element": "C" 
			},
			{
				"x": 1.8291720606,
				"y": -0.5135650608,
				"z": -0.7358953922,
				"element": "O" 
			},
			{
				"x": 0.4867193287,
				"y": -0.3404359945,
				"z": -0.4693236341,
				"element": "C" 
			},
			{
				"x": -0.1689011192,
				"y": 0.8294257521,
				"z": -0.8726839498,
				"element": "C" 
			},
			{
				"x": -1.5415153619,
				"y": 0.9600399646,
				"z": -0.6790025722,
				"element": "C" 
			},
			{
				"x": -2.2894650752,
				"y": -0.0714316522,
				"z": -0.0919658849,
				"element": "C" 
			},
			{
				"x": -1.624654351,
				"y": -1.2399259223,
				"z": 0.2951882277,
				"element": "C" 
			},
			{
				"x": -0.2494317224,
				"y": -1.3795366606,
				"z": 0.1069554538,
				"element": "C" 
			},
			{
				"x": -3.7579653401,
				"y": 0.1171365288,
				"z": 0.1330945383,
				"element": "C" 
			},
			{
				"x": -4.7479727106,
				"y": -1.0399437862,
				"z": 0.1687466619,
				"element": "C" 
			},
			{
				"x": -4.7878615728,
				"y": -0.0609630516,
				"z": -0.960550206,
				"element": "C" 
			},
			{
				"x": -6.1411754811,
				"y": 1.1005226165,
				"z": -1.023326003,
				"element": "Cl" 
			},
			{
				"x": -4.2810287185,
				"y": -0.5972125983,
				"z": -2.5746658041,
				"element": "Cl" 
			},
			{
				"x": 4.1537812691,
				"y": -0.5480448295,
				"z": -0.3595594052,
				"element": "C" 
			},
			{
				"x": 4.1085941863,
				"y": -1.8211238588,
				"z": -0.79989185,
				"element": "O" 
			},
			{
				"x": 5.1626310722,
				"y": 0.1219727896,
				"z": -0.3859088685,
				"element": "O" 
			},
			{
				"x": 2.9628533456,
				"y": 1.9216953309,
				"z": -0.5842813936,
				"element": "H" 
			},
			{
				"x": 1.8897359887,
				"y": 1.7847740034,
				"z": 0.8299447136,
				"element": "H" 
			},
			{
				"x": 3.6547252538,
				"y": 1.7459328892,
				"z": 1.0317064037,
				"element": "H" 
			},
			{
				"x": 2.6308681536,
				"y": -1.8680976805,
				"z": 1.466038139,
				"element": "H" 
			},
			{
				"x": 3.4364138308,
				"y": -0.5041869433,
				"z": 2.2711585071,
				"element": "H" 
			},
			{
				"x": 1.6795579837,
				"y": -0.4807510103,
				"z": 2.0464545293,
				"element": "H" 
			},
			{
				"x": 0.4003712396,
				"y": 1.617590792,
				"z": -1.3532038124,
				"element": "H" 
			},
			{
				"x": -2.0431135024,
				"y": 1.8690652169,
				"z": -0.9994746147,
				"element": "H" 
			},
			{
				"x": -2.1833539713,
				"y": -2.0518779245,
				"z": 0.7511853117,
				"element": "H" 
			},
			{
				"x": 0.2596207473,
				"y": -2.2951591365,
				"z": 0.3879302481,
				"element": "H" 
			},
			{
				"x": -4.0055478767,
				"y": 0.9432219152,
				"z": 0.7976776312,
				"element": "H" 
			},
			{
				"x": -5.5541905599,
				"y": -1.0100166559,
				"z": 0.894185709,
				"element": "H" 
			},
			{
				"x": -4.3815545436,
				"y": -2.033083364,
				"z": -0.0708333308,
				"element": "H" 
			},
			{
				"x": 5.0027361862,
				"y": -2.0212153065,
				"z": -1.1250459773,
				"element": "H" 
			}
		],
		 "valence_orbital": [ 
			{
				"type": "occ",
				"energy": -0.28175,
				"method": "rhf"
			},
			{
				"type": "occ",
				"energy": -0.27847,
				"method": "rhf"
			},
			{
				"type": "occ",
				"energy": -0.2773,
				"method": "rhf"
			},
			{
				"type": "occ",
				"energy": -0.26032,
				"method": "rhf"
			},
			{
				"type": "occ",
				"energy": -0.24005,
				"method": "rhf"
			},
			{
				"type": "unocc",
				"energy": -0.02068,
				"method": "rhf"
			},
			{
				"type": "unocc",
				"energy": -0.0123,
				"method": "rhf"
			},
			{
				"type": "unocc",
				"energy": -0.00153,
				"method": "rhf"
			},
			{
				"type": "unocc",
				"energy": 0.00418,
				"method": "rhf"
			},
			{
				"type": "unocc",
				"energy": 0.01903,
				"method": "rhf"
			}
		],
		"cosmo_sigma_profile": { 
			"-0.025": 0.0,
			"-0.024": 0.0,
			"-0.023": 0.0,
			"-0.022": 0.0,
			"-0.021": 0.0,
			"-0.02": 0.0,
			"-0.019": 0.121447968558,
			"-0.018": 1.32761766302,
			"-0.017": 0.50093096195,
			"-0.016": 0.795495262371,
			"-0.015": 0.92644356125,
			"-0.014": 0.636788865079,
			"-0.013": 0.577689057771,
			"-0.012": 0.812918770729,
			"-0.011": 0.433504912428,
			"-0.01": 0.851211640197,
			"-0.009": 0.529164016521,
			"-0.008": 1.79799487169,
			"-0.007": 7.09455549591,
			"-0.006": 12.9485485555,
			"-0.005": 18.2774652832,
			"-0.004": 27.1119702609,
			"-0.003": 26.0620122466,
			"-0.002": 26.6403578607,
			"-0.001": 26.6228085495,
			"0.0": 24.5117453805,
			"0.001": 18.6497158376,
			"0.002": 16.4392580079,
			"0.003": 21.9143642768,
			"0.004": 29.5222264298,
			"0.005": 19.4339563751,
			"0.006": 4.98483270776,
			"0.007": 3.15693247279,
			"0.008": 3.48435452956,
			"0.009": 3.68408015255,
			"0.01": 3.87429887647,
			"0.011": 6.04333126443,
			"0.012": 3.59365607811,
			"0.013": 0.784544945911,
			"0.014": 0.0353051228562,
			"0.015": 0.0,
			"0.016": 0.0,
			"0.017": 0.0,
			"0.018": 0.0,
			"0.019": 0.0,
			"0.02": 0.0,
			"0.021": 0.0,
			"0.022": 0.0,
			"0.023": 0.0,
			"0.024": 0.0,
			"0.025": 0.0
		}
	}
}
