{
	 "smiles": "COC1=CC=C(Br)C(=C1)C(=O)CC#N", 
	 "Tm": 365.65, 
	 "num_atms": 22, 
	 "gaussian": { 
		 "optdone": 1, 
		 "sigma_profile": "yes", 
		 "theory": "DFT", 
		 "functional": "B3LYP", 
		 "basiset": "6-31G**", 
		 "properties": { 
			 "R2extent": 4191.5267, 
			 "electric_dipole_moment_norm": 3.18040724122, 
			 "electric_quadrupole_moment_norm": 13.6333896445, 
			 "total_energy": -3162.44426513, 
			 "HOMO_LUMO_gap": 0.16123, 
			 "cosmo_polarized_energy": -12.91, 
			 "cosmo_cavitation_energy": 29.69, 
			 "cosmo_dispersion_energy": -20.91, 
			 "cosmo_repulsion_energy": 1.65, 
			 "cosmo_total_nonelectrostatic_energy": 10.43, 
			 "SMD_solvation_energy": 6.82 
		},
		"coords": [
			{
				"x": -0.1158377353,
				"y": 1.6340867129,
				"z": 3.4577714446,
				"element": "C" 
			},
			{
				"x": 1.041419135,
				"y": 1.3296172696,
				"z": 2.687959898,
				"element": "O" 
			},
			{
				"x": 0.9110766077,
				"y": 0.478083153,
				"z": 1.6379346282,
				"element": "C" 
			},
			{
				"x": 2.0839428686,
				"y": 0.2089709034,
				"z": 0.9152197438,
				"element": "C" 
			},
			{
				"x": 2.0511169946,
				"y": -0.6598529601,
				"z": -0.164311141,
				"element": "C" 
			},
			{
				"x": 0.8504561695,
				"y": -1.2560251568,
				"z": -0.563135561,
				"element": "C" 
			},
			{
				"x": 0.9802176948,
				"y": -2.5088341428,
				"z": -2.0080234048,
				"element": "Br" 
			},
			{
				"x": -0.337377177,
				"y": -0.9867989261,
				"z": 0.1311066743,
				"element": "C" 
			},
			{
				"x": -0.2814938664,
				"y": -0.1278738924,
				"z": 1.2475786887,
				"element": "C" 
			},
			{
				"x": -1.7134738773,
				"y": -1.5226080935,
				"z": -0.1549539128,
				"element": "C" 
			},
			{
				"x": -2.495795256,
				"y": -1.7202089814,
				"z": 0.7552926752,
				"element": "O" 
			},
			{
				"x": -2.2127752283,
				"y": -1.7542604718,
				"z": -1.5979564787,
				"element": "C" 
			},
			{
				"x": -1.9278908411,
				"y": -0.6466178339,
				"z": -2.5090385344,
				"element": "C" 
			},
			{
				"x": -1.7235972653,
				"y": 0.2504760637,
				"z": -3.216299541,
				"element": "N" 
			},
			{
				"x": 0.2155009685,
				"y": 2.3244493972,
				"z": 4.2341071512,
				"element": "H" 
			},
			{
				"x": -0.5350832787,
				"y": 0.7350776053,
				"z": 3.9258446373,
				"element": "H" 
			},
			{
				"x": -0.8880810045,
				"y": 2.117968648,
				"z": 2.8472886828,
				"element": "H" 
			},
			{
				"x": 3.0099091114,
				"y": 0.6839605966,
				"z": 1.2214785873,
				"element": "H" 
			},
			{
				"x": 2.9624040071,
				"y": -0.8869130168,
				"z": -0.705098066,
				"element": "H" 
			},
			{
				"x": -1.2056447151,
				"y": 0.0403260132,
				"z": 1.7847509882,
				"element": "H" 
			},
			{
				"x": -1.768376205,
				"y": -2.670391945,
				"z": -1.9988385148,
				"element": "H" 
			},
			{
				"x": -3.2935171073,
				"y": -1.9016309423,
				"z": -1.5208786449,
				"element": "H" 
			}
		],
		 "valence_orbital": [ 
			{
				"type": "occ",
				"energy": -0.30503,
				"method": "rhf"
			},
			{
				"type": "occ",
				"energy": -0.30231,
				"method": "rhf"
			},
			{
				"type": "occ",
				"energy": -0.28432,
				"method": "rhf"
			},
			{
				"type": "occ",
				"energy": -0.27203,
				"method": "rhf"
			},
			{
				"type": "occ",
				"energy": -0.23704,
				"method": "rhf"
			},
			{
				"type": "unocc",
				"energy": -0.07581,
				"method": "rhf"
			},
			{
				"type": "unocc",
				"energy": -0.02011,
				"method": "rhf"
			},
			{
				"type": "unocc",
				"energy": -0.01142,
				"method": "rhf"
			},
			{
				"type": "unocc",
				"energy": 0.00651,
				"method": "rhf"
			},
			{
				"type": "unocc",
				"energy": 0.03071,
				"method": "rhf"
			}
		],
		"cosmo_sigma_profile": { 
			"-0.025": 0.0,
			"-0.024": 0.0,
			"-0.023": 0.0,
			"-0.022": 0.0,
			"-0.021": 0.0,
			"-0.02": 0.0,
			"-0.019": 0.0,
			"-0.018": 0.0,
			"-0.017": 0.0,
			"-0.016": 0.0,
			"-0.015": 0.0,
			"-0.014": 0.0,
			"-0.013": 0.0,
			"-0.012": 0.0,
			"-0.011": 0.0,
			"-0.01": 1.10382049357,
			"-0.009": 4.07121614471,
			"-0.008": 6.2717304662,
			"-0.007": 11.1759546217,
			"-0.006": 19.4197711583,
			"-0.005": 16.1718075591,
			"-0.004": 17.1971275569,
			"-0.003": 16.9232485021,
			"-0.002": 11.8213534041,
			"-0.001": 11.3709007184,
			"0.0": 13.9379742505,
			"0.001": 22.4572306434,
			"0.002": 19.6256162749,
			"0.003": 13.5199452693,
			"0.004": 10.8109729709,
			"0.005": 6.75986842028,
			"0.006": 4.66958826665,
			"0.007": 6.21238927901,
			"0.008": 5.53298380694,
			"0.009": 7.87405590939,
			"0.01": 7.33626847652,
			"0.011": 3.98162814327,
			"0.012": 2.36088592899,
			"0.013": 1.06029291379,
			"0.014": 0.0,
			"0.015": 0.0,
			"0.016": 0.0,
			"0.017": 0.0,
			"0.018": 0.0,
			"0.019": 0.0,
			"0.02": 0.0,
			"0.021": 0.0,
			"0.022": 0.0,
			"0.023": 0.0,
			"0.024": 0.0,
			"0.025": 0.0
		}
	}
}
