{
	 "smiles": "O[P+](O)([O-])CCN(CP(C1=CC=CC=C1)C1=CC=CC=C1)CP(C1=CC=CC=C1)C1=CC=CC=C1", 
	 "Tm": 420.15, 
	 "num_atms": 65, 
	 "gaussian": { 
		 "optdone": 1, 
		 "sigma_profile": "yes", 
		 "theory": "DFT", 
		 "functional": "B3LYP", 
		 "basiset": "6-31G**", 
		 "properties": { 
			 "R2extent": 18372.6898, 
			 "electric_dipole_moment_norm": 2.78183422044, 
			 "electric_quadrupole_moment_norm": 8.1399128515, 
			 "total_energy": -2389.58617845, 
			 "HOMO_LUMO_gap": 0.18255, 
			 "cosmo_polarized_energy": -26.32, 
			 "cosmo_cavitation_energy": 71.48, 
			 "cosmo_dispersion_energy": -43.07, 
			 "cosmo_repulsion_energy": 3.39, 
			 "cosmo_total_nonelectrostatic_energy": 31.79, 
			 "SMD_solvation_energy": 13.25 
		},
		"coords": [
			{
				"x": -1.5162233469,
				"y": 0.5562004184,
				"z": 4.9763598415,
				"element": "O" 
			},
			{
				"x": -2.1385577651,
				"y": 1.7740672945,
				"z": 4.0876864697,
				"element": "P" 
			},
			{
				"x": -1.1539570842,
				"y": 3.0377237279,
				"z": 4.3729567762,
				"element": "O" 
			},
			{
				"x": -3.5726508076,
				"y": 2.0303797472,
				"z": 4.3846470723,
				"element": "O" 
			},
			{
				"x": -1.6790507835,
				"y": 1.3376039356,
				"z": 2.3932449671,
				"element": "C" 
			},
			{
				"x": -0.1964509082,
				"y": 0.9844331615,
				"z": 2.1904515217,
				"element": "C" 
			},
			{
				"x": 0.0829808466,
				"y": 0.6377778517,
				"z": 0.7844062351,
				"element": "N" 
			},
			{
				"x": 1.2331825754,
				"y": -0.2591357786,
				"z": 0.6280380234,
				"element": "C" 
			},
			{
				"x": 1.0231626447,
				"y": -1.93006337,
				"z": 1.4848961857,
				"element": "P" 
			},
			{
				"x": 2.6757102643,
				"y": -2.687880132,
				"z": 1.128602313,
				"element": "C" 
			},
			{
				"x": 3.5452472926,
				"y": -2.3039902396,
				"z": 0.0931052212,
				"element": "C" 
			},
			{
				"x": 4.7778191945,
				"y": -2.9390505664,
				"z": -0.0749923213,
				"element": "C" 
			},
			{
				"x": 5.1619349258,
				"y": -3.9715211356,
				"z": 0.7817728146,
				"element": "C" 
			},
			{
				"x": 4.3097358377,
				"y": -4.3630338744,
				"z": 1.8158275218,
				"element": "C" 
			},
			{
				"x": 3.0844026149,
				"y": -3.72001467,
				"z": 1.9909979898,
				"element": "C" 
			},
			{
				"x": -0.107867034,
				"y": -2.8405912424,
				"z": 0.329398301,
				"element": "C" 
			},
			{
				"x": -1.3955170617,
				"y": -3.1367810251,
				"z": 0.8047450004,
				"element": "C" 
			},
			{
				"x": -2.311950926,
				"y": -3.8312473646,
				"z": 0.0108842588,
				"element": "C" 
			},
			{
				"x": -1.9471551183,
				"y": -4.2487969376,
				"z": -1.2697061619,
				"element": "C" 
			},
			{
				"x": -0.6657137109,
				"y": -3.9685882728,
				"z": -1.7511083745,
				"element": "C" 
			},
			{
				"x": 0.2463801328,
				"y": -3.2706455953,
				"z": -0.9591817673,
				"element": "C" 
			},
			{
				"x": 0.2490289478,
				"y": 1.8546624114,
				"z": -0.0228459927,
				"element": "C" 
			},
			{
				"x": -0.2134709622,
				"y": 1.9637110147,
				"z": -1.8528612663,
				"element": "P" 
			},
			{
				"x": 0.8608384478,
				"y": 0.7111059491,
				"z": -2.6946668547,
				"element": "C" 
			},
			{
				"x": 2.2425425319,
				"y": 0.9794225595,
				"z": -2.74935731,
				"element": "C" 
			},
			{
				"x": 3.1125598056,
				"y": 0.1365396383,
				"z": -3.4391910424,
				"element": "C" 
			},
			{
				"x": 2.6154246142,
				"y": -0.9798665906,
				"z": -4.11878352,
				"element": "C" 
			},
			{
				"x": 1.2454972752,
				"y": -1.2409601246,
				"z": -4.0968970513,
				"element": "C" 
			},
			{
				"x": 0.375300922,
				"y": -0.4070981299,
				"z": -3.3887935305,
				"element": "C" 
			},
			{
				"x": -1.9195027476,
				"y": 1.268794589,
				"z": -1.9394502702,
				"element": "C" 
			},
			{
				"x": -2.3413009318,
				"y": 0.0754066113,
				"z": -1.3253341304,
				"element": "C" 
			},
			{
				"x": -3.6660541332,
				"y": -0.3487629639,
				"z": -1.4415030559,
				"element": "C" 
			},
			{
				"x": -4.5883967999,
				"y": 0.4061538765,
				"z": -2.1701364179,
				"element": "C" 
			},
			{
				"x": -4.1834267379,
				"y": 1.5919179559,
				"z": -2.7840682171,
				"element": "C" 
			},
			{
				"x": -2.8594095742,
				"y": 2.0190253281,
				"z": -2.666903747,
				"element": "C" 
			},
			{
				"x": -2.1735188971,
				"y": 0.2689781222,
				"z": 5.6263337507,
				"element": "H" 
			},
			{
				"x": -1.5227150187,
				"y": 3.6012673378,
				"z": 5.0685844091,
				"element": "H" 
			},
			{
				"x": -1.9877442636,
				"y": 2.1832701616,
				"z": 1.7698602145,
				"element": "H" 
			},
			{
				"x": -2.3034792547,
				"y": 0.4871989562,
				"z": 2.1025464118,
				"element": "H" 
			},
			{
				"x": 0.4441843086,
				"y": 1.811785515,
				"z": 2.5385984173,
				"element": "H" 
			},
			{
				"x": 0.0375483608,
				"y": 0.1158822556,
				"z": 2.8094644177,
				"element": "H" 
			},
			{
				"x": 2.1633958073,
				"y": 0.1790740244,
				"z": 1.0407664044,
				"element": "H" 
			},
			{
				"x": 1.3931345987,
				"y": -0.4051504661,
				"z": -0.4411861766,
				"element": "H" 
			},
			{
				"x": 3.2732337052,
				"y": -1.5091869972,
				"z": -0.5941356105,
				"element": "H" 
			},
			{
				"x": 5.4369550347,
				"y": -2.6263240852,
				"z": -0.8802698723,
				"element": "H" 
			},
			{
				"x": 6.1209114166,
				"y": -4.4640136043,
				"z": 0.6476886575,
				"element": "H" 
			},
			{
				"x": 4.6026810048,
				"y": -5.1612301367,
				"z": 2.4921273649,
				"element": "H" 
			},
			{
				"x": 2.4349695901,
				"y": -4.0157960005,
				"z": 2.8109694892,
				"element": "H" 
			},
			{
				"x": -1.6760917279,
				"y": -2.829547826,
				"z": 1.808893838,
				"element": "H" 
			},
			{
				"x": -3.302221986,
				"y": -4.0560084205,
				"z": 0.3977165837,
				"element": "H" 
			},
			{
				"x": -2.6536533524,
				"y": -4.7961922792,
				"z": -1.8873373269,
				"element": "H" 
			},
			{
				"x": -0.3747363456,
				"y": -4.2976842442,
				"z": -2.7449379198,
				"element": "H" 
			},
			{
				"x": 1.2402365053,
				"y": -3.0678306013,
				"z": -1.3456389732,
				"element": "H" 
			},
			{
				"x": 1.2844374499,
				"y": 2.2392857984,
				"z": 0.0378547255,
				"element": "H" 
			},
			{
				"x": -0.3760213337,
				"y": 2.6419049045,
				"z": 0.4102529306,
				"element": "H" 
			},
			{
				"x": 2.6410124045,
				"y": 1.8615849472,
				"z": -2.2531141608,
				"element": "H" 
			},
			{
				"x": 4.1755399755,
				"y": 0.3611112557,
				"z": -3.4624994888,
				"element": "H" 
			},
			{
				"x": 3.28918497,
				"y": -1.6301750012,
				"z": -4.6692581308,
				"element": "H" 
			},
			{
				"x": 0.8468796221,
				"y": -2.0992489011,
				"z": -4.6311467411,
				"element": "H" 
			},
			{
				"x": -0.6853375664,
				"y": -0.6330428028,
				"z": -3.3742135636,
				"element": "H" 
			},
			{
				"x": -1.6372643442,
				"y": -0.5099101139,
				"z": -0.746680174,
				"element": "H" 
			},
			{
				"x": -3.9725854651,
				"y": -1.2747445883,
				"z": -0.96352939,
				"element": "H" 
			},
			{
				"x": -5.6185414688,
				"y": 0.0716758669,
				"z": -2.2575358337,
				"element": "H" 
			},
			{
				"x": -4.8955531617,
				"y": 2.1853729785,
				"z": -3.3506054699,
				"element": "H" 
			},
			{
				"x": -2.5479330091,
				"y": 2.9461958878,
				"z": -3.1407082648,
				"element": "H" 
			}
		],
		 "valence_orbital": [ 
			{
				"type": "occ",
				"energy": -0.24804,
				"method": "rhf"
			},
			{
				"type": "occ",
				"energy": -0.24678,
				"method": "rhf"
			},
			{
				"type": "occ",
				"energy": -0.22826,
				"method": "rhf"
			},
			{
				"type": "occ",
				"energy": -0.21863,
				"method": "rhf"
			},
			{
				"type": "occ",
				"energy": -0.20891,
				"method": "rhf"
			},
			{
				"type": "unocc",
				"energy": -0.02636,
				"method": "rhf"
			},
			{
				"type": "unocc",
				"energy": -0.01948,
				"method": "rhf"
			},
			{
				"type": "unocc",
				"energy": -0.01372,
				"method": "rhf"
			},
			{
				"type": "unocc",
				"energy": -0.00831,
				"method": "rhf"
			},
			{
				"type": "unocc",
				"energy": -0.00521,
				"method": "rhf"
			}
		],
		"cosmo_sigma_profile": { 
			"-0.025": 0.0,
			"-0.024": 0.0,
			"-0.023": 0.0,
			"-0.022": 0.0,
			"-0.021": 0.0,
			"-0.02": 0.0,
			"-0.019": 0.460824423353,
			"-0.018": 1.92524601515,
			"-0.017": 2.4701238388,
			"-0.016": 0.476796665033,
			"-0.015": 1.71340365349,
			"-0.014": 1.29170936489,
			"-0.013": 2.03018900253,
			"-0.012": 2.02227791647,
			"-0.011": 1.06623527224,
			"-0.01": 1.43062856832,
			"-0.009": 1.60157878744,
			"-0.008": 2.27048129371,
			"-0.007": 4.25851595703,
			"-0.006": 21.718642624,
			"-0.005": 40.0872869454,
			"-0.004": 48.4376607916,
			"-0.003": 51.3567708617,
			"-0.002": 42.7111867215,
			"-0.001": 41.3193105043,
			"0.0": 43.9129193415,
			"0.001": 44.3193785474,
			"0.002": 44.0483434762,
			"0.003": 39.5612883203,
			"0.004": 36.2780660161,
			"0.005": 34.7188917808,
			"0.006": 13.5340327499,
			"0.007": 5.50809360927,
			"0.008": 4.98219440977,
			"0.009": 5.00317974209,
			"0.01": 4.46733243012,
			"0.011": 3.04249396047,
			"0.012": 2.10161248314,
			"0.013": 2.69027447028,
			"0.014": 3.54601239995,
			"0.015": 7.1591574991,
			"0.016": 0.599400547641,
			"0.017": 0.0,
			"0.018": 0.0,
			"0.019": 0.0,
			"0.02": 0.0,
			"0.021": 0.0,
			"0.022": 0.0,
			"0.023": 0.0,
			"0.024": 0.0,
			"0.025": 0.0
		}
	}
}
