{
	 "smiles": "OC(=O)CNC(=O)C1=C2C=CC=CC2=NC(=C1)C1=CC=C(Cl)C=C1", 
	 "Tm": 290.15, 
	 "num_atms": 37, 
	 "gaussian": { 
		 "optdone": 1, 
		 "sigma_profile": "yes", 
		 "theory": "DFT", 
		 "functional": "B3LYP", 
		 "basiset": "6-31G**", 
		 "properties": { 
			 "R2extent": 13350.3534, 
			 "electric_dipole_moment_norm": 4.45873823632, 
			 "electric_quadrupole_moment_norm": 16.2697734689, 
			 "total_energy": -1489.16130531, 
			 "HOMO_LUMO_gap": 0.15172, 
			 "cosmo_polarized_energy": -20.4, 
			 "cosmo_cavitation_energy": 44.27, 
			 "cosmo_dispersion_energy": -31.72, 
			 "cosmo_repulsion_energy": 2.38, 
			 "cosmo_total_nonelectrostatic_energy": 14.94, 
			 "SMD_solvation_energy": 7.52 
		},
		"coords": [
			{
				"x": 5.2922312309,
				"y": 0.7016739118,
				"z": 0.1425106199,
				"element": "O" 
			},
			{
				"x": 5.6990575722,
				"y": -0.4531312473,
				"z": 0.7192987571,
				"element": "C" 
			},
			{
				"x": 6.8603697661,
				"y": -0.7163828132,
				"z": 0.9266482084,
				"element": "O" 
			},
			{
				"x": 4.5516909842,
				"y": -1.3833727841,
				"z": 1.0903399257,
				"element": "C" 
			},
			{
				"x": 3.2540526147,
				"y": -1.0261493057,
				"z": 0.5705740051,
				"element": "N" 
			},
			{
				"x": 2.2383167922,
				"y": -0.6187460461,
				"z": 1.3971957815,
				"element": "C" 
			},
			{
				"x": 2.3465879596,
				"y": -0.6102220361,
				"z": 2.6179902276,
				"element": "O" 
			},
			{
				"x": 0.9371041642,
				"y": -0.2702713358,
				"z": 0.7154878959,
				"element": "C" 
			},
			{
				"x": 0.8173871127,
				"y": 0.5161764198,
				"z": -0.4739277408,
				"element": "C" 
			},
			{
				"x": 1.8903720667,
				"y": 1.1792928947,
				"z": -1.1328201971,
				"element": "C" 
			},
			{
				"x": 1.6613352736,
				"y": 1.9206659337,
				"z": -2.2726764854,
				"element": "C" 
			},
			{
				"x": 0.3571069732,
				"y": 2.0422027687,
				"z": -2.808191446,
				"element": "C" 
			},
			{
				"x": -0.7063363161,
				"y": 1.4387409262,
				"z": -2.1782514731,
				"element": "C" 
			},
			{
				"x": -0.5113943566,
				"y": 0.676716939,
				"z": -0.9941289212,
				"element": "C" 
			},
			{
				"x": -1.6119657029,
				"y": 0.1402979109,
				"z": -0.4049674514,
				"element": "N" 
			},
			{
				"x": -1.4795632955,
				"y": -0.5435737123,
				"z": 0.7229329643,
				"element": "C" 
			},
			{
				"x": -0.2033577851,
				"y": -0.7536115015,
				"z": 1.316759733,
				"element": "C" 
			},
			{
				"x": -2.7238959328,
				"y": -1.0808886296,
				"z": 1.3365636072,
				"element": "C" 
			},
			{
				"x": -3.9724679194,
				"y": -0.6528236118,
				"z": 0.8530772874,
				"element": "C" 
			},
			{
				"x": -5.1596430906,
				"y": -1.1275184172,
				"z": 1.3997871525,
				"element": "C" 
			},
			{
				"x": -5.1073686013,
				"y": -2.0497863884,
				"z": 2.4461110276,
				"element": "C" 
			},
			{
				"x": -6.6014230084,
				"y": -2.6553247468,
				"z": 3.1434862764,
				"element": "Cl" 
			},
			{
				"x": -3.8855331138,
				"y": -2.49877911,
				"z": 2.9436935203,
				"element": "C" 
			},
			{
				"x": -2.7041457167,
				"y": -2.0125326385,
				"z": 2.3870576382,
				"element": "C" 
			},
			{
				"x": 6.0996018837,
				"y": 1.2175615796,
				"z": -0.0237749848,
				"element": "H" 
			},
			{
				"x": 4.849415882,
				"y": -2.3923947118,
				"z": 0.7860858736,
				"element": "H" 
			},
			{
				"x": 4.4665297306,
				"y": -1.3825049264,
				"z": 2.1817879993,
				"element": "H" 
			},
			{
				"x": 3.1000635722,
				"y": -1.037997234,
				"z": -0.4261873663,
				"element": "H" 
			},
			{
				"x": 2.8916899769,
				"y": 1.132513262,
				"z": -0.7186962983,
				"element": "H" 
			},
			{
				"x": 2.4901930907,
				"y": 2.426732974,
				"z": -2.7589595547,
				"element": "H" 
			},
			{
				"x": 0.1975308499,
				"y": 2.6267615604,
				"z": -3.7094375942,
				"element": "H" 
			},
			{
				"x": -1.7217312931,
				"y": 1.5303965227,
				"z": -2.5493242282,
				"element": "H" 
			},
			{
				"x": -0.0973122803,
				"y": -1.2919801168,
				"z": 2.2501084018,
				"element": "H" 
			},
			{
				"x": -3.9920357492,
				"y": 0.0611474639,
				"z": 0.0380452007,
				"element": "H" 
			},
			{
				"x": -6.1179090415,
				"y": -0.7871545912,
				"z": 1.0230725506,
				"element": "H" 
			},
			{
				"x": -3.8586973201,
				"y": -3.2209676231,
				"z": 3.7519580243,
				"element": "H" 
			},
			{
				"x": -1.7641569728,
				"y": -2.3857675398,
				"z": 2.778371063,
				"element": "H" 
			}
		],
		 "valence_orbital": [ 
			{
				"type": "occ",
				"energy": -0.26868,
				"method": "rhf"
			},
			{
				"type": "occ",
				"energy": -0.26519,
				"method": "rhf"
			},
			{
				"type": "occ",
				"energy": -0.26252,
				"method": "rhf"
			},
			{
				"type": "occ",
				"energy": -0.2454,
				"method": "rhf"
			},
			{
				"type": "occ",
				"energy": -0.22929,
				"method": "rhf"
			},
			{
				"type": "unocc",
				"energy": -0.07757,
				"method": "rhf"
			},
			{
				"type": "unocc",
				"energy": -0.04405,
				"method": "rhf"
			},
			{
				"type": "unocc",
				"energy": -0.01449,
				"method": "rhf"
			},
			{
				"type": "unocc",
				"energy": -0.00987,
				"method": "rhf"
			},
			{
				"type": "unocc",
				"energy": -0.00644,
				"method": "rhf"
			}
		],
		"cosmo_sigma_profile": { 
			"-0.025": 0.0,
			"-0.024": 0.0,
			"-0.023": 0.0,
			"-0.022": 0.0,
			"-0.021": 0.0,
			"-0.02": 0.0,
			"-0.019": 0.12181200272,
			"-0.018": 1.03881664551,
			"-0.017": 1.11854065389,
			"-0.016": 0.656646292599,
			"-0.015": 0.914618533728,
			"-0.014": 2.62151837746,
			"-0.013": 1.2023720671,
			"-0.012": 1.1361220491,
			"-0.011": 2.24540816326,
			"-0.01": 2.619701543,
			"-0.009": 3.14558899217,
			"-0.008": 7.54885115626,
			"-0.007": 12.4091087985,
			"-0.006": 16.9387229594,
			"-0.005": 19.1604968125,
			"-0.004": 18.7718664222,
			"-0.003": 17.348858111,
			"-0.002": 20.1125627385,
			"-0.001": 23.0357120873,
			"0.0": 28.9833430681,
			"0.001": 30.8333868197,
			"0.002": 35.2830451006,
			"0.003": 37.3471557741,
			"0.004": 23.7261403833,
			"0.005": 10.908733169,
			"0.006": 4.82900900314,
			"0.007": 4.58446028878,
			"0.008": 3.6493496043,
			"0.009": 3.94552666275,
			"0.01": 4.22684500186,
			"0.011": 7.75878027582,
			"0.012": 6.07940854586,
			"0.013": 3.5834587819,
			"0.014": 0.532338792697,
			"0.015": 0.0,
			"0.016": 0.0,
			"0.017": 0.0,
			"0.018": 0.0,
			"0.019": 0.0,
			"0.02": 0.0,
			"0.021": 0.0,
			"0.022": 0.0,
			"0.023": 0.0,
			"0.024": 0.0,
			"0.025": 0.0
		}
	}
}
