{
	 "smiles": "OC(=O)CCCOC1=CC(C=O)=CC=C1", 
	 "Tm": 332.15, 
	 "num_atms": 27, 
	 "gaussian": { 
		 "optdone": 1, 
		 "sigma_profile": "yes", 
		 "theory": "DFT", 
		 "functional": "B3LYP", 
		 "basiset": "6-31G**", 
		 "properties": { 
			 "R2extent": 4759.2877, 
			 "electric_dipole_moment_norm": 2.4092675858, 
			 "electric_quadrupole_moment_norm": 10.9174218161, 
			 "total_energy": -727.299095148, 
			 "HOMO_LUMO_gap": 0.16992, 
			 "cosmo_polarized_energy": -15.81, 
			 "cosmo_cavitation_energy": 32.24, 
			 "cosmo_dispersion_energy": -22.51, 
			 "cosmo_repulsion_energy": 1.81, 
			 "cosmo_total_nonelectrostatic_energy": 11.53, 
			 "SMD_solvation_energy": 7.83 
		},
		"coords": [
			{
				"x": 1.341033153,
				"y": -2.9265527844,
				"z": -1.3681391265,
				"element": "O" 
			},
			{
				"x": 2.1165940878,
				"y": -2.9300316215,
				"z": -0.2557049793,
				"element": "C" 
			},
			{
				"x": 2.5973354321,
				"y": -3.9431154312,
				"z": 0.2002602474,
				"element": "O" 
			},
			{
				"x": 2.2956567931,
				"y": -1.5362963834,
				"z": 0.307755751,
				"element": "C" 
			},
			{
				"x": 0.9641490034,
				"y": -0.8260291009,
				"z": 0.6095856198,
				"element": "C" 
			},
			{
				"x": 1.1993197474,
				"y": 0.5577880125,
				"z": 1.2172980438,
				"element": "C" 
			},
			{
				"x": -0.0217588959,
				"y": 1.2088508765,
				"z": 1.5731652855,
				"element": "O" 
			},
			{
				"x": -0.743591953,
				"y": 1.866236397,
				"z": 0.6204535655,
				"element": "C" 
			},
			{
				"x": -0.3847805442,
				"y": 1.9960590738,
				"z": -0.7205499062,
				"element": "C" 
			},
			{
				"x": -1.2149025761,
				"y": 2.7210946333,
				"z": -1.5912530237,
				"element": "C" 
			},
			{
				"x": -0.8270064515,
				"y": 2.8572763709,
				"z": -3.0136263567,
				"element": "C" 
			},
			{
				"x": 0.1802756622,
				"y": 2.3824211992,
				"z": -3.5046421548,
				"element": "O" 
			},
			{
				"x": -2.3967701559,
				"y": 3.3099432768,
				"z": -1.1345860517,
				"element": "C" 
			},
			{
				"x": -2.7522521905,
				"y": 3.1721241238,
				"z": 0.2098627128,
				"element": "C" 
			},
			{
				"x": -1.9360593505,
				"y": 2.4584842634,
				"z": 1.0796728516,
				"element": "C" 
			},
			{
				"x": 1.2833332946,
				"y": -3.8515433151,
				"z": -1.6610978857,
				"element": "H" 
			},
			{
				"x": 2.8665507522,
				"y": -0.952139464,
				"z": -0.4259267915,
				"element": "H" 
			},
			{
				"x": 2.9084571839,
				"y": -1.6346948108,
				"z": 1.2074034571,
				"element": "H" 
			},
			{
				"x": 0.3731623353,
				"y": -1.4182312285,
				"z": 1.3173446103,
				"element": "H" 
			},
			{
				"x": 0.3767398801,
				"y": -0.7429629059,
				"z": -0.3089670539,
				"element": "H" 
			},
			{
				"x": 1.7935645881,
				"y": 1.1935232147,
				"z": 0.5480450504,
				"element": "H" 
			},
			{
				"x": 1.7487208743,
				"y": 0.4687822349,
				"z": 2.1594309991,
				"element": "H" 
			},
			{
				"x": 0.514411928,
				"y": 1.5577849022,
				"z": -1.1362087011,
				"element": "H" 
			},
			{
				"x": -1.5406771281,
				"y": 3.4447213989,
				"z": -3.6328285322,
				"element": "H" 
			},
			{
				"x": -3.0278966814,
				"y": 3.8656262266,
				"z": -1.8229026646,
				"element": "H" 
			},
			{
				"x": -3.6670286033,
				"y": 3.6226282127,
				"z": 0.5831722961,
				"element": "H" 
			},
			{
				"x": -2.1936801852,
				"y": 2.3431526285,
				"z": 2.1275827376,
				"element": "H" 
			}
		],
		 "valence_orbital": [ 
			{
				"type": "occ",
				"energy": -0.32192,
				"method": "rhf"
			},
			{
				"type": "occ",
				"energy": -0.27682,
				"method": "rhf"
			},
			{
				"type": "occ",
				"energy": -0.26475,
				"method": "rhf"
			},
			{
				"type": "occ",
				"energy": -0.25635,
				"method": "rhf"
			},
			{
				"type": "occ",
				"energy": -0.23391,
				"method": "rhf"
			},
			{
				"type": "unocc",
				"energy": -0.06399,
				"method": "rhf"
			},
			{
				"type": "unocc",
				"energy": -0.00487,
				"method": "rhf"
			},
			{
				"type": "unocc",
				"energy": 0.00483,
				"method": "rhf"
			},
			{
				"type": "unocc",
				"energy": 0.04155,
				"method": "rhf"
			},
			{
				"type": "unocc",
				"energy": 0.06687,
				"method": "rhf"
			}
		],
		"cosmo_sigma_profile": { 
			"-0.025": 0.0,
			"-0.024": 0.0,
			"-0.023": 0.0,
			"-0.022": 0.0,
			"-0.021": 0.0,
			"-0.02": 0.0,
			"-0.019": 0.0,
			"-0.018": 0.520047627022,
			"-0.017": 1.0182673526,
			"-0.016": 0.878015755618,
			"-0.015": 0.871021628908,
			"-0.014": 0.565994115489,
			"-0.013": 0.787251958451,
			"-0.012": 0.675432771033,
			"-0.011": 0.616496955007,
			"-0.01": 0.801811572841,
			"-0.009": 0.546416419306,
			"-0.008": 2.05916036524,
			"-0.007": 9.79191989517,
			"-0.006": 21.4711073406,
			"-0.005": 22.2206425206,
			"-0.004": 21.1996116559,
			"-0.003": 18.0190095795,
			"-0.002": 16.3656088985,
			"-0.001": 12.7206154366,
			"0.0": 13.6510258876,
			"0.001": 12.3809301865,
			"0.002": 17.4281763062,
			"0.003": 18.2272449607,
			"0.004": 11.4814921726,
			"0.005": 6.19544727518,
			"0.006": 4.87060844901,
			"0.007": 5.74661661592,
			"0.008": 5.00288812221,
			"0.009": 6.21158732181,
			"0.01": 5.93132655545,
			"0.011": 7.40401936902,
			"0.012": 7.9772976367,
			"0.013": 1.90332651674,
			"0.014": 0.0,
			"0.015": 0.0,
			"0.016": 0.0,
			"0.017": 0.0,
			"0.018": 0.0,
			"0.019": 0.0,
			"0.02": 0.0,
			"0.021": 0.0,
			"0.022": 0.0,
			"0.023": 0.0,
			"0.024": 0.0,
			"0.025": 0.0
		}
	}
}
