{
	 "smiles": "OC(=O)C(CC1=CC=CC=C1)C(O)=O", 
	 "Tm": 394.15, 
	 "num_atms": 24, 
	 "gaussian": { 
		 "optdone": 1, 
		 "sigma_profile": "yes", 
		 "theory": "DFT", 
		 "functional": "B3LYP", 
		 "basiset": "6-31G**", 
		 "properties": { 
			 "R2extent": 2974.886, 
			 "electric_dipole_moment_norm": 3.61072437885, 
			 "electric_quadrupole_moment_norm": 18.414893445, 
			 "total_energy": -688.003536777, 
			 "HOMO_LUMO_gap": 0.23102, 
			 "cosmo_polarized_energy": -22.62, 
			 "cosmo_cavitation_energy": 28.43, 
			 "cosmo_dispersion_energy": -19.86, 
			 "cosmo_repulsion_energy": 1.57, 
			 "cosmo_total_nonelectrostatic_energy": 10.14, 
			 "SMD_solvation_energy": 6.8 
		},
		"coords": [
			{
				"x": 0.531706845,
				"y": -3.110386119,
				"z": 0.8816073613,
				"element": "O" 
			},
			{
				"x": 1.0208526877,
				"y": -2.3777727198,
				"z": -0.1561263219,
				"element": "C" 
			},
			{
				"x": 0.7188934092,
				"y": -2.6445388034,
				"z": -1.2878232185,
				"element": "O" 
			},
			{
				"x": 1.9196447871,
				"y": -1.2023070277,
				"z": 0.2555808145,
				"element": "C" 
			},
			{
				"x": 1.1075669888,
				"y": -0.0541496096,
				"z": 0.9252044903,
				"element": "C" 
			},
			{
				"x": -0.1853195658,
				"y": 0.3463603122,
				"z": 0.2374338578,
				"element": "C" 
			},
			{
				"x": -1.3983663206,
				"y": -0.2407952379,
				"z": 0.6233944681,
				"element": "C" 
			},
			{
				"x": -2.5982120113,
				"y": 0.1256907582,
				"z": 0.012692234,
				"element": "C" 
			},
			{
				"x": -2.6023104885,
				"y": 1.0933093839,
				"z": -0.9923370597,
				"element": "C" 
			},
			{
				"x": -1.4004682177,
				"y": 1.6874197678,
				"z": -1.382096462,
				"element": "C" 
			},
			{
				"x": -0.2010446654,
				"y": 1.3178689525,
				"z": -0.7731859519,
				"element": "C" 
			},
			{
				"x": 2.7536193287,
				"y": -0.7289339451,
				"z": -0.9297641532,
				"element": "C" 
			},
			{
				"x": 3.5551955917,
				"y": -1.7157078494,
				"z": -1.3764043331,
				"element": "O" 
			},
			{
				"x": 2.7647806948,
				"y": 0.3910159246,
				"z": -1.3880941531,
				"element": "O" 
			},
			{
				"x": 0.8819988619,
				"y": -2.787508488,
				"z": 1.7235710497,
				"element": "H" 
			},
			{
				"x": 2.6489242208,
				"y": -1.5796030945,
				"z": 0.9871245858,
				"element": "H" 
			},
			{
				"x": 0.8801506091,
				"y": -0.3620007495,
				"z": 1.9527784006,
				"element": "H" 
			},
			{
				"x": 1.7768856063,
				"y": 0.8073935389,
				"z": 0.9990971379,
				"element": "H" 
			},
			{
				"x": -1.4065723093,
				"y": -0.9960094554,
				"z": 1.4054923253,
				"element": "H" 
			},
			{
				"x": -3.5272710976,
				"y": -0.3423231425,
				"z": 0.3252704797,
				"element": "H" 
			},
			{
				"x": -3.535124149,
				"y": 1.3834442174,
				"z": -1.4673499995,
				"element": "H" 
			},
			{
				"x": -1.3950799139,
				"y": 2.4425423688,
				"z": -2.163135861,
				"element": "H" 
			},
			{
				"x": 0.7335002077,
				"y": 1.7696769655,
				"z": -1.0871460868,
				"element": "H" 
			},
			{
				"x": 4.0399489003,
				"y": -1.357885948,
				"z": -2.1390836045,
				"element": "H" 
			}
		],
		 "valence_orbital": [ 
			{
				"type": "occ",
				"energy": -0.32156,
				"method": "rhf"
			},
			{
				"type": "occ",
				"energy": -0.28897,
				"method": "rhf"
			},
			{
				"type": "occ",
				"energy": -0.27928,
				"method": "rhf"
			},
			{
				"type": "occ",
				"energy": -0.24602,
				"method": "rhf"
			},
			{
				"type": "occ",
				"energy": -0.24223,
				"method": "rhf"
			},
			{
				"type": "unocc",
				"energy": -0.01121,
				"method": "rhf"
			},
			{
				"type": "unocc",
				"energy": -0.0041,
				"method": "rhf"
			},
			{
				"type": "unocc",
				"energy": -0.00058,
				"method": "rhf"
			},
			{
				"type": "unocc",
				"energy": 0.00638,
				"method": "rhf"
			},
			{
				"type": "unocc",
				"energy": 0.04007,
				"method": "rhf"
			}
		],
		"cosmo_sigma_profile": { 
			"-0.025": 0.0,
			"-0.024": 0.0,
			"-0.023": 0.0,
			"-0.022": 0.0,
			"-0.021": 0.0,
			"-0.02": 0.137297040184,
			"-0.019": 1.23099382025,
			"-0.018": 2.6178330946,
			"-0.017": 2.20493947507,
			"-0.016": 1.74889975614,
			"-0.015": 2.45952846195,
			"-0.014": 2.1375505561,
			"-0.013": 1.28175236535,
			"-0.012": 1.85778195975,
			"-0.011": 2.08999654929,
			"-0.01": 3.00319038883,
			"-0.009": 3.83045794437,
			"-0.008": 3.88975611439,
			"-0.007": 3.96239786849,
			"-0.006": 6.88745418611,
			"-0.005": 12.8695693371,
			"-0.004": 13.8584422719,
			"-0.003": 15.0808221052,
			"-0.002": 14.1326191163,
			"-0.001": 10.1626040499,
			"0.0": 8.70894766947,
			"0.001": 9.25223282362,
			"0.002": 9.89444524437,
			"0.003": 12.0888476945,
			"0.004": 12.8668526037,
			"0.005": 14.0023500703,
			"0.006": 13.6613755654,
			"0.007": 6.60902359136,
			"0.008": 6.86603785906,
			"0.009": 6.56504777056,
			"0.01": 8.37635865091,
			"0.011": 8.08209339759,
			"0.012": 2.52572354134,
			"0.013": 0.209342160469,
			"0.014": 0.0,
			"0.015": 0.0,
			"0.016": 0.0,
			"0.017": 0.0,
			"0.018": 0.0,
			"0.019": 0.0,
			"0.02": 0.0,
			"0.021": 0.0,
			"0.022": 0.0,
			"0.023": 0.0,
			"0.024": 0.0,
			"0.025": 0.0
		}
	}
}
