{
	 "smiles": "CC1=CC(=NC=C1)N1C=C(C=N1)S(Cl)(=O)=O", 
	 "Tm": 378.15, 
	 "num_atms": 24, 
	 "gaussian": { 
		 "optdone": 1, 
		 "sigma_profile": "yes", 
		 "theory": "DFT", 
		 "functional": "B3LYP", 
		 "basiset": "6-31G**", 
		 "properties": { 
			 "R2extent": 7521.1108, 
			 "electric_dipole_moment_norm": 8.10115924359, 
			 "electric_quadrupole_moment_norm": 20.0629737853, 
			 "total_energy": -1520.77532436, 
			 "HOMO_LUMO_gap": 0.17907, 
			 "cosmo_polarized_energy": -11.31, 
			 "cosmo_cavitation_energy": 32.91, 
			 "cosmo_dispersion_energy": -24.48, 
			 "cosmo_repulsion_energy": 1.86, 
			 "cosmo_total_nonelectrostatic_energy": 10.29, 
			 "SMD_solvation_energy": 3.11 
		},
		"coords": [
			{
				"x": -3.9078044439,
				"y": 0.2297512216,
				"z": 0.4329343043,
				"element": "C" 
			},
			{
				"x": -2.4821112558,
				"y": 0.2376047716,
				"z": 0.9223958527,
				"element": "C" 
			},
			{
				"x": -1.4253922035,
				"y": -0.1067287535,
				"z": 0.0768857895,
				"element": "C" 
			},
			{
				"x": -0.1333693857,
				"y": -0.0936279488,
				"z": 0.6052344557,
				"element": "C" 
			},
			{
				"x": 0.1772159633,
				"y": 0.2234545019,
				"z": 1.8572259324,
				"element": "N" 
			},
			{
				"x": -0.8416433431,
				"y": 0.5537575694,
				"z": 2.6614602556,
				"element": "C" 
			},
			{
				"x": -2.1697613343,
				"y": 0.5765709001,
				"z": 2.2478781899,
				"element": "C" 
			},
			{
				"x": 0.9780352939,
				"y": -0.435223523,
				"z": -0.2197722136,
				"element": "N" 
			},
			{
				"x": 2.2783519004,
				"y": -0.4701739712,
				"z": 0.1579966744,
				"element": "C" 
			},
			{
				"x": 2.9756002948,
				"y": -0.8663778265,
				"z": -0.9689337648,
				"element": "C" 
			},
			{
				"x": 2.0052802768,
				"y": -1.043290122,
				"z": -1.988926586,
				"element": "C" 
			},
			{
				"x": 0.7948649961,
				"y": -0.7837998098,
				"z": -1.5265873054,
				"element": "N" 
			},
			{
				"x": 4.7002029885,
				"y": -1.1082920042,
				"z": -1.0791702594,
				"element": "S" 
			},
			{
				"x": 5.3763280858,
				"y": 0.8028624914,
				"z": -1.7539731415,
				"element": "Cl" 
			},
			{
				"x": 5.2490726611,
				"y": -1.2758854305,
				"z": 0.2599517827,
				"element": "O" 
			},
			{
				"x": 4.9777175184,
				"y": -2.033422378,
				"z": -2.1696995435,
				"element": "O" 
			},
			{
				"x": -4.4551442499,
				"y": -0.6224346558,
				"z": 0.8525310894,
				"element": "H" 
			},
			{
				"x": -3.957926103,
				"y": 0.1560022102,
				"z": -0.655978745,
				"element": "H" 
			},
			{
				"x": -4.4360232617,
				"y": 1.137116897,
				"z": 0.7422546917,
				"element": "H" 
			},
			{
				"x": -1.5831102565,
				"y": -0.3773011058,
				"z": -0.9595804074,
				"element": "H" 
			},
			{
				"x": -0.5750706543,
				"y": 0.8132031674,
				"z": 3.6834030081,
				"element": "H" 
			},
			{
				"x": -2.9514020235,
				"y": 0.8559659937,
				"z": 2.947728736,
				"element": "H" 
			},
			{
				"x": 2.5903405515,
				"y": -0.228245025,
				"z": 1.1607499032,
				"element": "H" 
			},
			{
				"x": 2.1580479848,
				"y": -1.3537871699,
				"z": -3.0126086989,
				"element": "H" 
			}
		],
		 "valence_orbital": [ 
			{
				"type": "occ",
				"energy": -0.3085,
				"method": "rhf"
			},
			{
				"type": "occ",
				"energy": -0.29979,
				"method": "rhf"
			},
			{
				"type": "occ",
				"energy": -0.29406,
				"method": "rhf"
			},
			{
				"type": "occ",
				"energy": -0.28914,
				"method": "rhf"
			},
			{
				"type": "occ",
				"energy": -0.26272,
				"method": "rhf"
			},
			{
				"type": "unocc",
				"energy": -0.08365,
				"method": "rhf"
			},
			{
				"type": "unocc",
				"energy": -0.05875,
				"method": "rhf"
			},
			{
				"type": "unocc",
				"energy": -0.04174,
				"method": "rhf"
			},
			{
				"type": "unocc",
				"energy": 0.00275,
				"method": "rhf"
			},
			{
				"type": "unocc",
				"energy": 0.0095,
				"method": "rhf"
			}
		],
		"cosmo_sigma_profile": { 
			"-0.025": 0.0,
			"-0.024": 0.0,
			"-0.023": 0.0,
			"-0.022": 0.0,
			"-0.021": 0.0,
			"-0.02": 0.0,
			"-0.019": 0.0,
			"-0.018": 0.0,
			"-0.017": 0.0,
			"-0.016": 0.0,
			"-0.015": 0.0,
			"-0.014": 0.0,
			"-0.013": 0.0,
			"-0.012": 0.0,
			"-0.011": 0.515357237907,
			"-0.01": 2.30100481674,
			"-0.009": 1.6968703222,
			"-0.008": 3.12349622152,
			"-0.007": 7.40934807126,
			"-0.006": 11.8144146697,
			"-0.005": 16.4375797139,
			"-0.004": 15.1446411879,
			"-0.003": 21.2340178703,
			"-0.002": 24.1441853866,
			"-0.001": 26.9399542176,
			"0.0": 23.8958243075,
			"0.001": 21.3875592749,
			"0.002": 18.0356736243,
			"0.003": 18.2139368054,
			"0.004": 13.4517347077,
			"0.005": 5.95502865257,
			"0.006": 5.40382049998,
			"0.007": 9.136812126,
			"0.008": 13.4558844025,
			"0.009": 6.67584593194,
			"0.01": 1.21236784571,
			"0.011": 0.0019274830307,
			"0.012": 0.0,
			"0.013": 0.0,
			"0.014": 0.0,
			"0.015": 0.0,
			"0.016": 0.0,
			"0.017": 0.0,
			"0.018": 0.0,
			"0.019": 0.0,
			"0.02": 0.0,
			"0.021": 0.0,
			"0.022": 0.0,
			"0.023": 0.0,
			"0.024": 0.0,
			"0.025": 0.0
		}
	}
}
