{
	 "smiles": "FC1=C(OCC2=CC=CC=C2)C=CC=N1", 
	 "Tm": 308.15, 
	 "num_atms": 25, 
	 "gaussian": { 
		 "optdone": 1, 
		 "sigma_profile": "yes", 
		 "theory": "DFT", 
		 "functional": "B3LYP", 
		 "basiset": "6-31G**", 
		 "properties": { 
			 "R2extent": 3258.86, 
			 "electric_dipole_moment_norm": 2.50687900187, 
			 "electric_quadrupole_moment_norm": 4.45877406582, 
			 "total_energy": -693.098666455, 
			 "HOMO_LUMO_gap": 0.20925, 
			 "cosmo_polarized_energy": -8.09, 
			 "cosmo_cavitation_energy": 29.36, 
			 "cosmo_dispersion_energy": -20.89, 
			 "cosmo_repulsion_energy": 1.62, 
			 "cosmo_total_nonelectrostatic_energy": 10.09, 
			 "SMD_solvation_energy": 4.05 
		},
		"coords": [
			{
				"x": 0.1662013768,
				"y": 1.695612412,
				"z": -1.4327997018,
				"element": "F" 
			},
			{
				"x": -0.3071749372,
				"y": 1.3939947138,
				"z": -0.1991212157,
				"element": "C" 
			},
			{
				"x": 0.5208698365,
				"y": 0.6823171102,
				"z": 0.6893321642,
				"element": "C" 
			},
			{
				"x": 1.8063262408,
				"y": 0.2976711307,
				"z": 0.4594158092,
				"element": "O" 
			},
			{
				"x": 2.1919180601,
				"y": -0.2250254014,
				"z": -0.8389693233,
				"element": "C" 
			},
			{
				"x": 1.4519268623,
				"y": -1.4874390129,
				"z": -1.2096786809,
				"element": "C" 
			},
			{
				"x": 1.7627483939,
				"y": -2.6980212925,
				"z": -0.5743641585,
				"element": "C" 
			},
			{
				"x": 1.0755428851,
				"y": -3.8661554583,
				"z": -0.8992689533,
				"element": "C" 
			},
			{
				"x": 0.0668470124,
				"y": -3.8373504644,
				"z": -1.8666136942,
				"element": "C" 
			},
			{
				"x": -0.2518628807,
				"y": -2.6369484637,
				"z": -2.5021329124,
				"element": "C" 
			},
			{
				"x": 0.4356636732,
				"y": -1.4668084847,
				"z": -2.1725197514,
				"element": "C" 
			},
			{
				"x": -0.0243825568,
				"y": 0.424035719,
				"z": 1.9484292406,
				"element": "C" 
			},
			{
				"x": -1.3127647125,
				"y": 0.8641974566,
				"z": 2.253496009,
				"element": "C" 
			},
			{
				"x": -2.0319127049,
				"y": 1.5427760421,
				"z": 1.2742946622,
				"element": "C" 
			},
			{
				"x": -1.5248352927,
				"y": 1.7988280143,
				"z": 0.0587117069,
				"element": "N" 
			},
			{
				"x": 3.258579365,
				"y": -0.4241104941,
				"z": -0.7112102545,
				"element": "H" 
			},
			{
				"x": 2.0681977948,
				"y": 0.5434429638,
				"z": -1.6032156966,
				"element": "H" 
			},
			{
				"x": 2.5487488292,
				"y": -2.7204804833,
				"z": 0.1765562903,
				"element": "H" 
			},
			{
				"x": 1.3281455473,
				"y": -4.7994348359,
				"z": -0.4039680865,
				"element": "H" 
			},
			{
				"x": -0.466486382,
				"y": -4.748218104,
				"z": -2.1234190924,
				"element": "H" 
			},
			{
				"x": -1.0364754038,
				"y": -2.6088562301,
				"z": -3.2527585963,
				"element": "H" 
			},
			{
				"x": 0.1805806508,
				"y": -0.5294111649,
				"z": -2.6580230527,
				"element": "H" 
			},
			{
				"x": 0.5816601204,
				"y": -0.1189394622,
				"z": 2.6662544253,
				"element": "H" 
			},
			{
				"x": -1.7494610892,
				"y": 0.6730697604,
				"z": 3.2281170919,
				"element": "H" 
			},
			{
				"x": -3.0418006889,
				"y": 1.8996540296,
				"z": 1.4590557708,
				"element": "H" 
			}
		],
		 "valence_orbital": [ 
			{
				"type": "occ",
				"energy": -0.28075,
				"method": "rhf"
			},
			{
				"type": "occ",
				"energy": -0.27295,
				"method": "rhf"
			},
			{
				"type": "occ",
				"energy": -0.25477,
				"method": "rhf"
			},
			{
				"type": "occ",
				"energy": -0.25366,
				"method": "rhf"
			},
			{
				"type": "occ",
				"energy": -0.23421,
				"method": "rhf"
			},
			{
				"type": "unocc",
				"energy": -0.02496,
				"method": "rhf"
			},
			{
				"type": "unocc",
				"energy": -0.01532,
				"method": "rhf"
			},
			{
				"type": "unocc",
				"energy": -0.00427,
				"method": "rhf"
			},
			{
				"type": "unocc",
				"energy": -0.00276,
				"method": "rhf"
			},
			{
				"type": "unocc",
				"energy": 0.09019,
				"method": "rhf"
			}
		],
		"cosmo_sigma_profile": { 
			"-0.025": 0.0,
			"-0.024": 0.0,
			"-0.023": 0.0,
			"-0.022": 0.0,
			"-0.021": 0.0,
			"-0.02": 0.0,
			"-0.019": 0.0,
			"-0.018": 0.0,
			"-0.017": 0.0,
			"-0.016": 0.0,
			"-0.015": 0.0,
			"-0.014": 0.0,
			"-0.013": 0.0,
			"-0.012": 0.0,
			"-0.011": 0.0,
			"-0.01": 0.0,
			"-0.009": 0.0,
			"-0.008": 1.02539042671,
			"-0.007": 5.92102856407,
			"-0.006": 14.5383171158,
			"-0.005": 20.1083613745,
			"-0.004": 19.7428453307,
			"-0.003": 19.3093652716,
			"-0.002": 14.1806129824,
			"-0.001": 15.5153755405,
			"0.0": 17.8324830289,
			"0.001": 19.3202463412,
			"0.002": 21.3453864053,
			"0.003": 18.9293637034,
			"0.004": 14.5085459002,
			"0.005": 13.1606609668,
			"0.006": 5.86773500905,
			"0.007": 2.69855409627,
			"0.008": 3.0592455897,
			"0.009": 2.26798123984,
			"0.01": 2.2276229388,
			"0.011": 1.09971317399,
			"0.012": 0.981249261098,
			"0.013": 1.12509724712,
			"0.014": 0.84322558561,
			"0.015": 0.22043755751,
			"0.016": 0.0,
			"0.017": 0.0,
			"0.018": 0.0,
			"0.019": 0.0,
			"0.02": 0.0,
			"0.021": 0.0,
			"0.022": 0.0,
			"0.023": 0.0,
			"0.024": 0.0,
			"0.025": 0.0
		}
	}
}
