{
	 "smiles": "COC1=CC(=CC(OC)=C1)C(C)=O", 
	 "Tm": 313.15, 
	 "num_atms": 25, 
	 "gaussian": { 
		 "optdone": 1, 
		 "sigma_profile": "yes", 
		 "theory": "DFT", 
		 "functional": "B3LYP", 
		 "basiset": "6-31G**", 
		 "properties": { 
			 "R2extent": 3127.5678, 
			 "electric_dipole_moment_norm": 2.74462009939, 
			 "electric_quadrupole_moment_norm": 9.09425443288, 
			 "total_energy": -613.948481439, 
			 "HOMO_LUMO_gap": 0.16775, 
			 "cosmo_polarized_energy": -10.42, 
			 "cosmo_cavitation_energy": 28.86, 
			 "cosmo_dispersion_energy": -20.97, 
			 "cosmo_repulsion_energy": 1.66, 
			 "cosmo_total_nonelectrostatic_energy": 9.54, 
			 "SMD_solvation_energy": 7.24 
		},
		"coords": [
			{
				"x": 1.3558496783,
				"y": -1.6846979204,
				"z": 2.8017071011,
				"element": "C" 
			},
			{
				"x": 0.3999153151,
				"y": -2.0597846776,
				"z": 1.822095446,
				"element": "O" 
			},
			{
				"x": 0.1982248659,
				"y": -1.2236262301,
				"z": 0.7632298122,
				"element": "C" 
			},
			{
				"x": -0.7605744186,
				"y": -1.6522366161,
				"z": -0.17045958,
				"element": "C" 
			},
			{
				"x": -1.0358621526,
				"y": -0.864478426,
				"z": -1.2863674234,
				"element": "C" 
			},
			{
				"x": -0.3637470101,
				"y": 0.3550723837,
				"z": -1.4874363378,
				"element": "C" 
			},
			{
				"x": 0.5838076709,
				"y": 0.7694903342,
				"z": -0.5563513835,
				"element": "C" 
			},
			{
				"x": 1.2992054239,
				"y": 1.9274480201,
				"z": -0.6401175669,
				"element": "O" 
			},
			{
				"x": 1.0649972418,
				"y": 2.7758735186,
				"z": -1.7555022398,
				"element": "C" 
			},
			{
				"x": 0.8699893102,
				"y": -0.0180990262,
				"z": 0.5745599588,
				"element": "C" 
			},
			{
				"x": -2.049433008,
				"y": -1.2701375926,
				"z": -2.3176570315,
				"element": "C" 
			},
			{
				"x": -2.7967563525,
				"y": -2.5807794144,
				"z": -2.1388094513,
				"element": "C" 
			},
			{
				"x": -2.2695753882,
				"y": -0.5586827813,
				"z": -3.2868320362,
				"element": "O" 
			},
			{
				"x": 1.355017484,
				"y": -2.4836423903,
				"z": 3.5446509924,
				"element": "H" 
			},
			{
				"x": 2.3613864357,
				"y": -1.5925604093,
				"z": 2.3715236435,
				"element": "H" 
			},
			{
				"x": 1.0866204287,
				"y": -0.7385391738,
				"z": 3.2884915362,
				"element": "H" 
			},
			{
				"x": -1.2618421912,
				"y": -2.5952997191,
				"z": 0.0106896289,
				"element": "H" 
			},
			{
				"x": -0.6132227025,
				"y": 0.9299177038,
				"z": -2.3692058519,
				"element": "H" 
			},
			{
				"x": 0.0257214556,
				"y": 3.1259613756,
				"z": -1.7850604609,
				"element": "H" 
			},
			{
				"x": 1.2992984893,
				"y": 2.2724811598,
				"z": -2.7016653902,
				"element": "H" 
			},
			{
				"x": 1.7304863718,
				"y": 3.6307849883,
				"z": -1.6268530124,
				"element": "H" 
			},
			{
				"x": 1.6149225534,
				"y": 0.3469396564,
				"z": 1.270071908,
				"element": "H" 
			},
			{
				"x": -3.4832715896,
				"y": -2.707535447,
				"z": -2.9762675205,
				"element": "H" 
			},
			{
				"x": -2.1021004671,
				"y": -3.4270601418,
				"z": -2.1052103872,
				"element": "H" 
			},
			{
				"x": -3.3614574442,
				"y": -2.5854091744,
				"z": -1.2002243538,
				"element": "H" 
			}
		],
		 "valence_orbital": [ 
			{
				"type": "occ",
				"energy": -0.33354,
				"method": "rhf"
			},
			{
				"type": "occ",
				"energy": -0.29846,
				"method": "rhf"
			},
			{
				"type": "occ",
				"energy": -0.24463,
				"method": "rhf"
			},
			{
				"type": "occ",
				"energy": -0.23706,
				"method": "rhf"
			},
			{
				"type": "occ",
				"energy": -0.21714,
				"method": "rhf"
			},
			{
				"type": "unocc",
				"energy": -0.04939,
				"method": "rhf"
			},
			{
				"type": "unocc",
				"energy": 0.0152,
				"method": "rhf"
			},
			{
				"type": "unocc",
				"energy": 0.05069,
				"method": "rhf"
			},
			{
				"type": "unocc",
				"energy": 0.09335,
				"method": "rhf"
			},
			{
				"type": "unocc",
				"energy": 0.10328,
				"method": "rhf"
			}
		],
		"cosmo_sigma_profile": { 
			"-0.025": 0.0,
			"-0.024": 0.0,
			"-0.023": 0.0,
			"-0.022": 0.0,
			"-0.021": 0.0,
			"-0.02": 0.0,
			"-0.019": 0.0,
			"-0.018": 0.0,
			"-0.017": 0.0,
			"-0.016": 0.0,
			"-0.015": 0.0,
			"-0.014": 0.0,
			"-0.013": 0.0,
			"-0.012": 0.0,
			"-0.011": 0.0,
			"-0.01": 0.0,
			"-0.009": 0.0,
			"-0.008": 0.0,
			"-0.007": 1.73254417767,
			"-0.006": 16.3386027071,
			"-0.005": 28.1439986032,
			"-0.004": 24.8230652443,
			"-0.003": 24.128417778,
			"-0.002": 15.7210821309,
			"-0.001": 15.077730945,
			"0.0": 9.81393578054,
			"0.001": 9.58926946761,
			"0.002": 11.5883084083,
			"0.003": 19.2281393224,
			"0.004": 15.2226615123,
			"0.005": 5.25739614084,
			"0.006": 4.98927275753,
			"0.007": 4.89841140396,
			"0.008": 4.20129362872,
			"0.009": 4.31978742686,
			"0.01": 4.76362335672,
			"0.011": 3.21790593292,
			"0.012": 3.96215327886,
			"0.013": 1.47615815144,
			"0.014": 0.142590569804,
			"0.015": 0.0,
			"0.016": 0.0,
			"0.017": 0.0,
			"0.018": 0.0,
			"0.019": 0.0,
			"0.02": 0.0,
			"0.021": 0.0,
			"0.022": 0.0,
			"0.023": 0.0,
			"0.024": 0.0,
			"0.025": 0.0
		}
	}
}
