{
	 "smiles": "CCOC(=O)C1=C(C)C2=C(S1)N=C(CS(=O)(=O)CC(O)=O)NC2=O", 
	 "Tm": 551.15, 
	 "num_atms": 38, 
	 "gaussian": { 
		 "optdone": 1, 
		 "sigma_profile": "yes", 
		 "theory": "DFT", 
		 "functional": "B3LYP", 
		 "basiset": "6-31G**", 
		 "properties": { 
			 "R2extent": 12367.9677, 
			 "electric_dipole_moment_norm": 4.28699474924, 
			 "electric_quadrupole_moment_norm": 14.9906371953, 
			 "total_energy": -1936.25565997, 
			 "HOMO_LUMO_gap": 0.15403, 
			 "cosmo_polarized_energy": -27.98, 
			 "cosmo_cavitation_energy": 46.05, 
			 "cosmo_dispersion_energy": -32.76, 
			 "cosmo_repulsion_energy": 2.43, 
			 "cosmo_total_nonelectrostatic_energy": 15.72, 
			 "SMD_solvation_energy": 7.58 
		},
		"coords": [
			{
				"x": -5.7422109134,
				"y": 1.784040604,
				"z": -1.8495093998,
				"element": "C" 
			},
			{
				"x": -4.4193225563,
				"y": 2.1342774267,
				"z": -2.5034740252,
				"element": "C" 
			},
			{
				"x": -3.395066409,
				"y": 1.3388323085,
				"z": -1.8651447907,
				"element": "O" 
			},
			{
				"x": -2.1330854554,
				"y": 1.5165698835,
				"z": -2.3259832817,
				"element": "C" 
			},
			{
				"x": -1.8460282807,
				"y": 2.2909121097,
				"z": -3.2205826649,
				"element": "O" 
			},
			{
				"x": -1.1761631859,
				"y": 0.661577325,
				"z": -1.6106531007,
				"element": "C" 
			},
			{
				"x": 0.1883953666,
				"y": 0.5979438802,
				"z": -1.8309885341,
				"element": "C" 
			},
			{
				"x": 0.9323294279,
				"y": 1.4078967035,
				"z": -2.8579890498,
				"element": "C" 
			},
			{
				"x": 0.8003254247,
				"y": -0.3502616744,
				"z": -0.9471753352,
				"element": "C" 
			},
			{
				"x": -0.1078508013,
				"y": -0.9724964452,
				"z": -0.0841655374,
				"element": "C" 
			},
			{
				"x": -1.7300032742,
				"y": -0.4155224326,
				"z": -0.3370760487,
				"element": "S" 
			},
			{
				"x": 0.1784871131,
				"y": -1.9078174935,
				"z": 0.8653806956,
				"element": "N" 
			},
			{
				"x": 1.4365972336,
				"y": -2.2411273356,
				"z": 0.9403298271,
				"element": "C" 
			},
			{
				"x": 1.8238514935,
				"y": -3.299859869,
				"z": 1.9345260454,
				"element": "C" 
			},
			{
				"x": 3.1387691123,
				"y": -2.8528456918,
				"z": 3.1288338062,
				"element": "S" 
			},
			{
				"x": 3.2710304296,
				"y": -3.9865941183,
				"z": 4.0489025923,
				"element": "O" 
			},
			{
				"x": 4.2898773383,
				"y": -2.3696225649,
				"z": 2.3453975342,
				"element": "O" 
			},
			{
				"x": 2.4718734535,
				"y": -1.454224678,
				"z": 4.1209417651,
				"element": "C" 
			},
			{
				"x": 2.7390968061,
				"y": -0.1092764865,
				"z": 3.4746261605,
				"element": "C" 
			},
			{
				"x": 3.7285202788,
				"y": 0.5451379496,
				"z": 4.1044758179,
				"element": "O" 
			},
			{
				"x": 2.1415970605,
				"y": 0.3182039606,
				"z": 2.5139812525,
				"element": "O" 
			},
			{
				"x": 2.4098651068,
				"y": -1.7255324205,
				"z": 0.1371722019,
				"element": "N" 
			},
			{
				"x": 2.2074520667,
				"y": -0.7153535535,
				"z": -0.8367464044,
				"element": "C" 
			},
			{
				"x": 3.1645899775,
				"y": -0.2780075937,
				"z": -1.4581734357,
				"element": "O" 
			},
			{
				"x": -5.7206020938,
				"y": 2.0068586978,
				"z": -0.7789300545,
				"element": "H" 
			},
			{
				"x": -5.9723145388,
				"y": 0.7223205826,
				"z": -1.9761424255,
				"element": "H" 
			},
			{
				"x": -6.5469715517,
				"y": 2.367960384,
				"z": -2.3068426448,
				"element": "H" 
			},
			{
				"x": -4.167858929,
				"y": 3.1929574731,
				"z": -2.3844799126,
				"element": "H" 
			},
			{
				"x": -4.4182547715,
				"y": 1.9146312437,
				"z": -3.5758045193,
				"element": "H" 
			},
			{
				"x": 0.5499479376,
				"y": 1.1989134222,
				"z": -3.8613926645,
				"element": "H" 
			},
			{
				"x": 1.9968329642,
				"y": 1.1829592974,
				"z": -2.815009895,
				"element": "H" 
			},
			{
				"x": 0.771641854,
				"y": 2.4768517679,
				"z": -2.6925654584,
				"element": "H" 
			},
			{
				"x": 0.9435084505,
				"y": -3.6047812037,
				"z": 2.5005024134,
				"element": "H" 
			},
			{
				"x": 2.2610581254,
				"y": -4.178936129,
				"z": 1.4469931436,
				"element": "H" 
			},
			{
				"x": 1.3972818581,
				"y": -1.6160755599,
				"z": 4.2291867424,
				"element": "H" 
			},
			{
				"x": 2.9710686497,
				"y": -1.5569953919,
				"z": 5.0855581926,
				"element": "H" 
			},
			{
				"x": 3.8721319676,
				"y": 1.3770129577,
				"z": 3.6204357342,
				"element": "H" 
			},
			{
				"x": 3.3832032644,
				"y": -1.9499273355,
				"z": 0.3310852576,
				"element": "H" 
			}
		],
		 "valence_orbital": [ 
			{
				"type": "occ",
				"energy": -0.29832,
				"method": "rhf"
			},
			{
				"type": "occ",
				"energy": -0.27578,
				"method": "rhf"
			},
			{
				"type": "occ",
				"energy": -0.26696,
				"method": "rhf"
			},
			{
				"type": "occ",
				"energy": -0.26249,
				"method": "rhf"
			},
			{
				"type": "occ",
				"energy": -0.22955,
				"method": "rhf"
			},
			{
				"type": "unocc",
				"energy": -0.07552,
				"method": "rhf"
			},
			{
				"type": "unocc",
				"energy": -0.04502,
				"method": "rhf"
			},
			{
				"type": "unocc",
				"energy": -0.02597,
				"method": "rhf"
			},
			{
				"type": "unocc",
				"energy": -0.00946,
				"method": "rhf"
			},
			{
				"type": "unocc",
				"energy": 0.01961,
				"method": "rhf"
			}
		],
		"cosmo_sigma_profile": { 
			"-0.025": 0.0,
			"-0.024": 0.0,
			"-0.023": 0.0,
			"-0.022": 0.0,
			"-0.021": 0.0,
			"-0.02": 0.045207817739,
			"-0.019": 1.0515267901,
			"-0.018": 0.948208552767,
			"-0.017": 0.720841793459,
			"-0.016": 1.12387377848,
			"-0.015": 0.959846070784,
			"-0.014": 1.0671338306,
			"-0.013": 2.33696292902,
			"-0.012": 5.73840142232,
			"-0.011": 7.01609755377,
			"-0.01": 6.98307466889,
			"-0.009": 7.82747225096,
			"-0.008": 7.44399492697,
			"-0.007": 8.55132537002,
			"-0.006": 7.6370961151,
			"-0.005": 13.9772216659,
			"-0.004": 21.3693923729,
			"-0.003": 23.8104807001,
			"-0.002": 24.1229872588,
			"-0.001": 30.9069398715,
			"0.0": 36.0217214291,
			"0.001": 22.9784179749,
			"0.002": 19.7600916302,
			"0.003": 15.8511178828,
			"0.004": 13.9118484836,
			"0.005": 12.6262761464,
			"0.006": 11.2498114231,
			"0.007": 10.238988379,
			"0.008": 9.01875708738,
			"0.009": 10.8179557361,
			"0.01": 14.6926101729,
			"0.011": 9.53353247559,
			"0.012": 6.90729386445,
			"0.013": 1.1040807834,
			"0.014": 0.0,
			"0.015": 0.0,
			"0.016": 0.0,
			"0.017": 0.0,
			"0.018": 0.0,
			"0.019": 0.0,
			"0.02": 0.0,
			"0.021": 0.0,
			"0.022": 0.0,
			"0.023": 0.0,
			"0.024": 0.0,
			"0.025": 0.0
		}
	}
}
