{
	 "smiles": "CCCCCCCCCCCC(=O)CC", 
	 "Tm": 307.15, 
	 "num_atms": 43, 
	 "gaussian": { 
		 "optdone": 1, 
		 "sigma_profile": "yes", 
		 "theory": "DFT", 
		 "functional": "B3LYP", 
		 "basiset": "6-31G**", 
		 "properties": { 
			 "R2extent": 5639.5314, 
			 "electric_dipole_moment_norm": 2.5840688497, 
			 "electric_quadrupole_moment_norm": 6.85495205162, 
			 "total_energy": -625.623522191, 
			 "HOMO_LUMO_gap": 0.23379, 
			 "cosmo_polarized_energy": -6.88, 
			 "cosmo_cavitation_energy": 42.04, 
			 "cosmo_dispersion_energy": -27.47, 
			 "cosmo_repulsion_energy": 2.24, 
			 "cosmo_total_nonelectrostatic_energy": 16.8, 
			 "SMD_solvation_energy": 6.28 
		},
		"coords": [
			{
				"x": 0.0916840829,
				"y": -1.3319150438,
				"z": 2.2091102624,
				"element": "C" 
			},
			{
				"x": 1.6102624066,
				"y": -1.2244088293,
				"z": 2.0156241994,
				"element": "C" 
			},
			{
				"x": 2.061065556,
				"y": -1.2311880869,
				"z": 0.5448597114,
				"element": "C" 
			},
			{
				"x": 1.7522772451,
				"y": -2.5328773097,
				"z": -0.2070012477,
				"element": "C" 
			},
			{
				"x": 2.2023498819,
				"y": -2.5639323852,
				"z": -1.678818358,
				"element": "C" 
			},
			{
				"x": 1.5008260521,
				"y": -1.5366447443,
				"z": -2.6008012942,
				"element": "C" 
			},
			{
				"x": 2.3317122142,
				"y": -0.2770119233,
				"z": -2.906543567,
				"element": "C" 
			},
			{
				"x": 1.6253672542,
				"y": 0.7597158616,
				"z": -3.8119338013,
				"element": "C" 
			},
			{
				"x": 0.9579473601,
				"y": 1.9379688522,
				"z": -3.0752551118,
				"element": "C" 
			},
			{
				"x": -0.1537574581,
				"y": 1.5902212465,
				"z": -2.0729440247,
				"element": "C" 
			},
			{
				"x": -1.4190963049,
				"y": 1.0037859571,
				"z": -2.7047064712,
				"element": "C" 
			},
			{
				"x": -2.4421637148,
				"y": 0.5124944946,
				"z": -1.6852903764,
				"element": "C" 
			},
			{
				"x": -2.1406980377,
				"y": 0.2879292603,
				"z": -0.5263730848,
				"element": "O" 
			},
			{
				"x": -3.8624090973,
				"y": 0.2994963814,
				"z": -2.1966441624,
				"element": "C" 
			},
			{
				"x": -4.7826077773,
				"y": -0.3891067776,
				"z": -1.1912306571,
				"element": "C" 
			},
			{
				"x": -0.2889512244,
				"y": -2.3118924919,
				"z": 1.9032268802,
				"element": "H" 
			},
			{
				"x": -0.1800327449,
				"y": -1.1924909366,
				"z": 3.2609672571,
				"element": "H" 
			},
			{
				"x": -0.4405954937,
				"y": -0.5772568129,
				"z": 1.6192270894,
				"element": "H" 
			},
			{
				"x": 2.1096858101,
				"y": -2.0424541792,
				"z": 2.5537015266,
				"element": "H" 
			},
			{
				"x": 1.9649290766,
				"y": -0.2958604796,
				"z": 2.4815488494,
				"element": "H" 
			},
			{
				"x": 3.1429358062,
				"y": -1.0421618296,
				"z": 0.4996578721,
				"element": "H" 
			},
			{
				"x": 1.5808824377,
				"y": -0.3867424552,
				"z": 0.0336572624,
				"element": "H" 
			},
			{
				"x": 2.2285019111,
				"y": -3.3686002524,
				"z": 0.3252613547,
				"element": "H" 
			},
			{
				"x": 0.6726031143,
				"y": -2.7280866044,
				"z": -0.172869969,
				"element": "H" 
			},
			{
				"x": 3.2909968845,
				"y": -2.4214218477,
				"z": -1.7340056501,
				"element": "H" 
			},
			{
				"x": 2.0162669303,
				"y": -3.5747492954,
				"z": -2.0622827094,
				"element": "H" 
			},
			{
				"x": 1.2603700555,
				"y": -2.014241928,
				"z": -3.5599774772,
				"element": "H" 
			},
			{
				"x": 0.5360128279,
				"y": -1.2575441946,
				"z": -2.1580478498,
				"element": "H" 
			},
			{
				"x": 2.6440883897,
				"y": 0.2050768891,
				"z": -1.9712484335,
				"element": "H" 
			},
			{
				"x": 3.2600007326,
				"y": -0.6045323406,
				"z": -3.3924190537,
				"element": "H" 
			},
			{
				"x": 2.3594052117,
				"y": 1.1903227858,
				"z": -4.5041256894,
				"element": "H" 
			},
			{
				"x": 0.8931265109,
				"y": 0.2465059578,
				"z": -4.4507600313,
				"element": "H" 
			},
			{
				"x": 1.7403307049,
				"y": 2.4878392354,
				"z": -2.5352053472,
				"element": "H" 
			},
			{
				"x": 0.5619721098,
				"y": 2.6395952165,
				"z": -3.8231205088,
				"element": "H" 
			},
			{
				"x": 0.2157491447,
				"y": 0.8932239145,
				"z": -1.3152180949,
				"element": "H" 
			},
			{
				"x": -0.4302561795,
				"y": 2.4976483041,
				"z": -1.5219405781,
				"element": "H" 
			},
			{
				"x": -1.8984549522,
				"y": 1.7242335668,
				"z": -3.3815591519,
				"element": "H" 
			},
			{
				"x": -1.1758741431,
				"y": 0.1359974782,
				"z": -3.3360678948,
				"element": "H" 
			},
			{
				"x": -4.255576654,
				"y": 1.2888477391,
				"z": -2.4743396669,
				"element": "H" 
			},
			{
				"x": -3.8089024413,
				"y": -0.2582038394,
				"z": -3.142136491,
				"element": "H" 
			},
			{
				"x": -4.8307195046,
				"y": 0.1779182313,
				"z": -0.258386304,
				"element": "H" 
			},
			{
				"x": -4.4142733445,
				"y": -1.3886835853,
				"z": -0.9438482049,
				"element": "H" 
			},
			{
				"x": -5.7950806392,
				"y": -0.4852131996,
				"z": -1.5942410025,
				"element": "H" 
			}
		],
		 "valence_orbital": [ 
			{
				"type": "occ",
				"energy": -0.30848,
				"method": "rhf"
			},
			{
				"type": "occ",
				"energy": -0.30476,
				"method": "rhf"
			},
			{
				"type": "occ",
				"energy": -0.29481,
				"method": "rhf"
			},
			{
				"type": "occ",
				"energy": -0.29247,
				"method": "rhf"
			},
			{
				"type": "occ",
				"energy": -0.24335,
				"method": "rhf"
			},
			{
				"type": "unocc",
				"energy": -0.00956,
				"method": "rhf"
			},
			{
				"type": "unocc",
				"energy": 0.0749,
				"method": "rhf"
			},
			{
				"type": "unocc",
				"energy": 0.08889,
				"method": "rhf"
			},
			{
				"type": "unocc",
				"energy": 0.09769,
				"method": "rhf"
			},
			{
				"type": "unocc",
				"energy": 0.10646,
				"method": "rhf"
			}
		],
		"cosmo_sigma_profile": { 
			"-0.025": 0.0,
			"-0.024": 0.0,
			"-0.023": 0.0,
			"-0.022": 0.0,
			"-0.021": 0.0,
			"-0.02": 0.0,
			"-0.019": 0.0,
			"-0.018": 0.0,
			"-0.017": 0.0,
			"-0.016": 0.0,
			"-0.015": 0.0,
			"-0.014": 0.0,
			"-0.013": 0.0,
			"-0.012": 0.0,
			"-0.011": 0.0,
			"-0.01": 0.0,
			"-0.009": 0.0,
			"-0.008": 0.0,
			"-0.007": 0.0,
			"-0.006": 1.63746359709,
			"-0.005": 9.65996487593,
			"-0.004": 11.0979046154,
			"-0.003": 18.7963570608,
			"-0.002": 42.6452979957,
			"-0.001": 61.5012719637,
			"0.0": 65.7061251112,
			"0.001": 56.9412945404,
			"0.002": 24.794434901,
			"0.003": 4.53235596208,
			"0.004": 3.17880549617,
			"0.005": 3.11565319359,
			"0.006": 3.5933779003,
			"0.007": 3.93530252937,
			"0.008": 3.07890953958,
			"0.009": 2.22856144343,
			"0.01": 2.70273581987,
			"0.011": 2.01685134357,
			"0.012": 1.18765267955,
			"0.013": 0.230315564174,
			"0.014": 0.0,
			"0.015": 0.0,
			"0.016": 0.0,
			"0.017": 0.0,
			"0.018": 0.0,
			"0.019": 0.0,
			"0.02": 0.0,
			"0.021": 0.0,
			"0.022": 0.0,
			"0.023": 0.0,
			"0.024": 0.0,
			"0.025": 0.0
		}
	}
}
