{
	 "smiles": "CC(C)(C)OC(=O)N1CCCCC1C#N", 
	 "Tm": 337.15, 
	 "num_atms": 33, 
	 "gaussian": { 
		 "optdone": 1, 
		 "sigma_profile": "yes", 
		 "theory": "DFT", 
		 "functional": "B3LYP", 
		 "basiset": "6-31G**", 
		 "properties": { 
			 "R2extent": 3797.3732, 
			 "electric_dipole_moment_norm": 5.28550976728, 
			 "electric_quadrupole_moment_norm": 19.6094299109, 
			 "total_energy": -689.988134782, 
			 "HOMO_LUMO_gap": 0.27803, 
			 "cosmo_polarized_energy": -12.47, 
			 "cosmo_cavitation_energy": 34.64, 
			 "cosmo_dispersion_energy": -23.24, 
			 "cosmo_repulsion_energy": 1.86, 
			 "cosmo_total_nonelectrostatic_energy": 13.25, 
			 "SMD_solvation_energy": 7.73 
		},
		"coords": [
			{
				"x": -1.9330741418,
				"y": -2.7363855351,
				"z": -1.4157126414,
				"element": "C" 
			},
			{
				"x": -1.7476107617,
				"y": -1.284715844,
				"z": -1.864439065,
				"element": "C" 
			},
			{
				"x": -1.0250499735,
				"y": -1.2200452222,
				"z": -3.2137702592,
				"element": "C" 
			},
			{
				"x": -3.0887702677,
				"y": -0.544887538,
				"z": -1.8839512014,
				"element": "C" 
			},
			{
				"x": -0.8833194172,
				"y": -0.7332733197,
				"z": -0.803078444,
				"element": "O" 
			},
			{
				"x": -0.5006432331,
				"y": 0.5613320087,
				"z": -0.8261931239,
				"element": "C" 
			},
			{
				"x": -0.7674595066,
				"y": 1.3756600156,
				"z": -1.6983768571,
				"element": "O" 
			},
			{
				"x": 0.2557881396,
				"y": 0.8763703087,
				"z": 0.2805189177,
				"element": "N" 
			},
			{
				"x": 0.6970574635,
				"y": -0.0650409009,
				"z": 1.3103310726,
				"element": "C" 
			},
			{
				"x": 2.2146255366,
				"y": -0.3303731512,
				"z": 1.1919317952,
				"element": "C" 
			},
			{
				"x": 2.9502262069,
				"y": 0.9145038702,
				"z": 0.6412477113,
				"element": "C" 
			},
			{
				"x": 2.2125201768,
				"y": 2.2024101366,
				"z": 1.0273796559,
				"element": "C" 
			},
			{
				"x": 0.8120723811,
				"y": 2.2280227028,
				"z": 0.3551992244,
				"element": "C" 
			},
			{
				"x": -0.0978466051,
				"y": 3.1474236661,
				"z": 1.0769211893,
				"element": "C" 
			},
			{
				"x": -0.7910521503,
				"y": 3.8650595442,
				"z": 1.6700498086,
				"element": "N" 
			},
			{
				"x": -0.9687851612,
				"y": -3.2496833383,
				"z": -1.355789837,
				"element": "H" 
			},
			{
				"x": -2.4103729451,
				"y": -2.7797304031,
				"z": -0.4323776016,
				"element": "H" 
			},
			{
				"x": -2.5652496282,
				"y": -3.271212809,
				"z": -2.1305295949,
				"element": "H" 
			},
			{
				"x": -1.6215843568,
				"y": -1.7359955783,
				"z": -3.9730750872,
				"element": "H" 
			},
			{
				"x": -0.8729990887,
				"y": -0.1870156686,
				"z": -3.5265155189,
				"element": "H" 
			},
			{
				"x": -0.0532891395,
				"y": -1.7201412812,
				"z": -3.1494072926,
				"element": "H" 
			},
			{
				"x": -3.7653817433,
				"y": -1.0342893798,
				"z": -2.5919567892,
				"element": "H" 
			},
			{
				"x": -3.5541147594,
				"y": -0.5748844514,
				"z": -0.8937485332,
				"element": "H" 
			},
			{
				"x": -2.9590141288,
				"y": 0.4954406214,
				"z": -2.182551411,
				"element": "H" 
			},
			{
				"x": 0.4602325937,
				"y": 0.3705166705,
				"z": 2.2889916657,
				"element": "H" 
			},
			{
				"x": 0.1158998145,
				"y": -0.9792083347,
				"z": 1.2147291172,
				"element": "H" 
			},
			{
				"x": 2.6022782279,
				"y": -0.6001506278,
				"z": 2.1812019022,
				"element": "H" 
			},
			{
				"x": 2.3959683748,
				"y": -1.187208255,
				"z": 0.5347939231,
				"element": "H" 
			},
			{
				"x": 3.0118833171,
				"y": 0.8563657666,
				"z": -0.4519939734,
				"element": "H" 
			},
			{
				"x": 3.980472884,
				"y": 0.9470307211,
				"z": 1.0091552307,
				"element": "H" 
			},
			{
				"x": 2.1061172503,
				"y": 2.2634746991,
				"z": 2.1160327402,
				"element": "H" 
			},
			{
				"x": 2.763291265,
				"y": 3.094355253,
				"z": 0.7152882785,
				"element": "H" 
			},
			{
				"x": 0.8933833763,
				"y": 2.5949756536,
				"z": -0.6723050015,
				"element": "H" 
			}
		],
		 "valence_orbital": [ 
			{
				"type": "occ",
				"energy": -0.32581,
				"method": "rhf"
			},
			{
				"type": "occ",
				"energy": -0.31726,
				"method": "rhf"
			},
			{
				"type": "occ",
				"energy": -0.29456,
				"method": "rhf"
			},
			{
				"type": "occ",
				"energy": -0.26939,
				"method": "rhf"
			},
			{
				"type": "occ",
				"energy": -0.25188,
				"method": "rhf"
			},
			{
				"type": "unocc",
				"energy": 0.02615,
				"method": "rhf"
			},
			{
				"type": "unocc",
				"energy": 0.0406,
				"method": "rhf"
			},
			{
				"type": "unocc",
				"energy": 0.04586,
				"method": "rhf"
			},
			{
				"type": "unocc",
				"energy": 0.07249,
				"method": "rhf"
			},
			{
				"type": "unocc",
				"energy": 0.08673,
				"method": "rhf"
			}
		],
		"cosmo_sigma_profile": { 
			"-0.025": 0.0,
			"-0.024": 0.0,
			"-0.023": 0.0,
			"-0.022": 0.0,
			"-0.021": 0.0,
			"-0.02": 0.0,
			"-0.019": 0.0,
			"-0.018": 0.0,
			"-0.017": 0.0,
			"-0.016": 0.0,
			"-0.015": 0.0,
			"-0.014": 0.0,
			"-0.013": 0.0,
			"-0.012": 0.0,
			"-0.011": 0.0,
			"-0.01": 0.0,
			"-0.009": 0.0904354779934,
			"-0.008": 1.76677928857,
			"-0.007": 2.68572704702,
			"-0.006": 5.96415473187,
			"-0.005": 10.7976251035,
			"-0.004": 25.8743769561,
			"-0.003": 37.7908409105,
			"-0.002": 36.4062269151,
			"-0.001": 31.0586628556,
			"0.0": 34.3804648117,
			"0.001": 21.0638322634,
			"0.002": 6.9084962178,
			"0.003": 7.40145445979,
			"0.004": 7.00796817727,
			"0.005": 6.29812327026,
			"0.006": 4.35452703474,
			"0.007": 3.61527164355,
			"0.008": 5.51346324941,
			"0.009": 4.52144795944,
			"0.01": 5.1762740223,
			"0.011": 3.81581455986,
			"0.012": 4.68374122249,
			"0.013": 3.23587765213,
			"0.014": 0.0821011766867,
			"0.015": 0.0,
			"0.016": 0.0,
			"0.017": 0.0,
			"0.018": 0.0,
			"0.019": 0.0,
			"0.02": 0.0,
			"0.021": 0.0,
			"0.022": 0.0,
			"0.023": 0.0,
			"0.024": 0.0,
			"0.025": 0.0
		}
	}
}
