{
	 "smiles": "CC(SC1=NS(=O)(=O)C2=C1C=CC=C2)C(O)=O", 
	 "Tm": 456.15, 
	 "num_atms": 26, 
	 "gaussian": { 
		 "optdone": 1, 
		 "sigma_profile": "yes", 
		 "theory": "DFT", 
		 "functional": "B3LYP", 
		 "basiset": "6-31G**", 
		 "properties": { 
			 "R2extent": 5112.9119, 
			 "electric_dipole_moment_norm": 5.14565868864, 
			 "electric_quadrupole_moment_norm": 28.7727505633, 
			 "total_energy": -1538.4379276, 
			 "HOMO_LUMO_gap": 0.17646, 
			 "cosmo_polarized_energy": -22.91, 
			 "cosmo_cavitation_energy": 33.58, 
			 "cosmo_dispersion_energy": -24.48, 
			 "cosmo_repulsion_energy": 1.83, 
			 "cosmo_total_nonelectrostatic_energy": 10.92, 
			 "SMD_solvation_energy": 5.1 
		},
		"coords": [
			{
				"x": -1.7235850837,
				"y": -2.0071324482,
				"z": -0.7271230246,
				"element": "C" 
			},
			{
				"x": -1.7346708308,
				"y": -0.9937034332,
				"z": 0.4198487338,
				"element": "C" 
			},
			{
				"x": -1.2727954169,
				"y": 0.7159932618,
				"z": -0.1018613731,
				"element": "S" 
			},
			{
				"x": 0.4488640238,
				"y": 0.5652981012,
				"z": -0.3878392008,
				"element": "C" 
			},
			{
				"x": 1.0956256862,
				"y": -0.5391068834,
				"z": -0.2121738858,
				"element": "N" 
			},
			{
				"x": 2.7607364824,
				"y": -0.3074458806,
				"z": -0.595457905,
				"element": "S" 
			},
			{
				"x": 3.0797137603,
				"y": -1.0887878975,
				"z": -1.7894643894,
				"element": "O" 
			},
			{
				"x": 3.5588006092,
				"y": -0.4634165024,
				"z": 0.6185430619,
				"element": "O" 
			},
			{
				"x": 2.5564643354,
				"y": 1.4310927576,
				"z": -1.0115206709,
				"element": "C" 
			},
			{
				"x": 1.2113621445,
				"y": 1.7599437271,
				"z": -0.8487608004,
				"element": "C" 
			},
			{
				"x": 0.7752281079,
				"y": 3.0584449745,
				"z": -1.1084160092,
				"element": "C" 
			},
			{
				"x": 1.7165850936,
				"y": 4.0016864719,
				"z": -1.531323834,
				"element": "C" 
			},
			{
				"x": 3.0627572012,
				"y": 3.6547641825,
				"z": -1.6899509217,
				"element": "C" 
			},
			{
				"x": 3.5034882492,
				"y": 2.3513265943,
				"z": -1.4290408431,
				"element": "C" 
			},
			{
				"x": -0.9615367832,
				"y": -1.3956683259,
				"z": 1.6853051989,
				"element": "C" 
			},
			{
				"x": -0.7246270622,
				"y": -2.7219448871,
				"z": 1.7171236923,
				"element": "O" 
			},
			{
				"x": -0.6650313156,
				"y": -0.6434997939,
				"z": 2.5822463966,
				"element": "O" 
			},
			{
				"x": -0.7110136865,
				"y": -2.1673154917,
				"z": -1.0980494304,
				"element": "H" 
			},
			{
				"x": -2.3556989067,
				"y": -1.6536389637,
				"z": -1.5452238363,
				"element": "H" 
			},
			{
				"x": -2.1144662673,
				"y": -2.9638143463,
				"z": -0.3717075911,
				"element": "H" 
			},
			{
				"x": -2.7672595919,
				"y": -0.8344485105,
				"z": 0.7573945799,
				"element": "H" 
			},
			{
				"x": -0.2669166187,
				"y": 3.3355471834,
				"z": -0.9847504158,
				"element": "H" 
			},
			{
				"x": 1.3977676136,
				"y": 5.0184175656,
				"z": -1.7381153103,
				"element": "H" 
			},
			{
				"x": 3.7754988188,
				"y": 4.4048245543,
				"z": -2.0184926406,
				"element": "H" 
			},
			{
				"x": 4.5458358288,
				"y": 2.0751403057,
				"z": -1.5486332656,
				"element": "H" 
			},
			{
				"x": -0.2450263914,
				"y": -2.8907563154,
				"z": 2.5459436845,
				"element": "H" 
			}
		],
		 "valence_orbital": [ 
			{
				"type": "occ",
				"energy": -0.29368,
				"method": "rhf"
			},
			{
				"type": "occ",
				"energy": -0.28521,
				"method": "rhf"
			},
			{
				"type": "occ",
				"energy": -0.28318,
				"method": "rhf"
			},
			{
				"type": "occ",
				"energy": -0.27968,
				"method": "rhf"
			},
			{
				"type": "occ",
				"energy": -0.26314,
				"method": "rhf"
			},
			{
				"type": "unocc",
				"energy": -0.08668,
				"method": "rhf"
			},
			{
				"type": "unocc",
				"energy": -0.04662,
				"method": "rhf"
			},
			{
				"type": "unocc",
				"energy": -0.01655,
				"method": "rhf"
			},
			{
				"type": "unocc",
				"energy": 0.00765,
				"method": "rhf"
			},
			{
				"type": "unocc",
				"energy": 0.00897,
				"method": "rhf"
			}
		],
		"cosmo_sigma_profile": { 
			"-0.025": 0.0,
			"-0.024": 0.0,
			"-0.023": 0.0,
			"-0.022": 0.0,
			"-0.021": 0.0,
			"-0.02": 0.0,
			"-0.019": 0.382197454518,
			"-0.018": 1.0177534084,
			"-0.017": 0.966559758097,
			"-0.016": 0.697076234108,
			"-0.015": 1.12177619981,
			"-0.014": 0.51512591957,
			"-0.013": 0.184594339655,
			"-0.012": 0.866771459399,
			"-0.011": 1.41161574492,
			"-0.01": 4.22535742675,
			"-0.009": 6.39041792366,
			"-0.008": 10.3319212942,
			"-0.007": 13.8082338424,
			"-0.006": 11.4620165954,
			"-0.005": 14.0201755597,
			"-0.004": 14.4717753395,
			"-0.003": 16.5331554739,
			"-0.002": 16.358968247,
			"-0.001": 20.8014539705,
			"0.0": 21.7966499727,
			"0.001": 19.823473887,
			"0.002": 9.44973244627,
			"0.003": 7.36735549447,
			"0.004": 6.91805688027,
			"0.005": 8.15895818229,
			"0.006": 8.13869123986,
			"0.007": 7.53599180059,
			"0.008": 7.34069778294,
			"0.009": 8.71291262446,
			"0.01": 16.684237994,
			"0.011": 10.5918921384,
			"0.012": 2.5584065607,
			"0.013": 0.0969014836011,
			"0.014": 0.0,
			"0.015": 0.0,
			"0.016": 0.0,
			"0.017": 0.0,
			"0.018": 0.0,
			"0.019": 0.0,
			"0.02": 0.0,
			"0.021": 0.0,
			"0.022": 0.0,
			"0.023": 0.0,
			"0.024": 0.0,
			"0.025": 0.0
		}
	}
}
