{
	 "smiles": "CC1=NOC(=N1)C1=CC=C(CBr)C=C1", 
	 "Tm": 388.15, 
	 "num_atms": 23, 
	 "gaussian": { 
		 "optdone": 1, 
		 "sigma_profile": "yes", 
		 "theory": "DFT", 
		 "functional": "B3LYP", 
		 "basiset": "6-31G**", 
		 "properties": { 
			 "R2extent": 7395.1878, 
			 "electric_dipole_moment_norm": 2.0846352079, 
			 "electric_quadrupole_moment_norm": 14.2789191527, 
			 "total_energy": -3142.59820976, 
			 "HOMO_LUMO_gap": 0.17599, 
			 "cosmo_polarized_energy": -10.46, 
			 "cosmo_cavitation_energy": 30.48, 
			 "cosmo_dispersion_energy": -22.6, 
			 "cosmo_repulsion_energy": 1.78, 
			 "cosmo_total_nonelectrostatic_energy": 9.67, 
			 "SMD_solvation_energy": 2.23 
		},
		"coords": [
			{
				"x": -2.6972612018,
				"y": 1.1735254352,
				"z": 3.7888321693,
				"element": "C" 
			},
			{
				"x": -2.2158289194,
				"y": 1.0700708853,
				"z": 2.3755023707,
				"element": "C" 
			},
			{
				"x": -3.0131189902,
				"y": 1.2389608793,
				"z": 1.345987156,
				"element": "N" 
			},
			{
				"x": -2.1593106759,
				"y": 1.0567781704,
				"z": 0.2431824744,
				"element": "O" 
			},
			{
				"x": -0.9360055854,
				"y": 0.7971523624,
				"z": 0.7393727505,
				"element": "C" 
			},
			{
				"x": -0.9089216797,
				"y": 0.7915854018,
				"z": 2.0468569385,
				"element": "N" 
			},
			{
				"x": 0.1693619039,
				"y": 0.5616616838,
				"z": -0.1851795344,
				"element": "C" 
			},
			{
				"x": 1.4466675879,
				"y": 0.2891102851,
				"z": 0.3299638552,
				"element": "C" 
			},
			{
				"x": 2.5090959073,
				"y": 0.0585589102,
				"z": -0.5350826126,
				"element": "C" 
			},
			{
				"x": 2.3230027037,
				"y": 0.0923434933,
				"z": -1.9254482556,
				"element": "C" 
			},
			{
				"x": 3.4652879606,
				"y": -0.1727112449,
				"z": -2.8511582419,
				"element": "C" 
			},
			{
				"x": 4.4467218157,
				"y": 1.5082800643,
				"z": -3.3317117147,
				"element": "Br" 
			},
			{
				"x": 1.0444997562,
				"y": 0.3679401417,
				"z": -2.4315843022,
				"element": "C" 
			},
			{
				"x": -0.0255275049,
				"y": 0.6001334159,
				"z": -1.5747107835,
				"element": "C" 
			},
			{
				"x": -3.4792240783,
				"y": 0.4356064018,
				"z": 3.9889112316,
				"element": "H" 
			},
			{
				"x": -1.8623185149,
				"y": 0.9994226032,
				"z": 4.4684213224,
				"element": "H" 
			},
			{
				"x": -3.1162213725,
				"y": 2.1642925975,
				"z": 3.9857916388,
				"element": "H" 
			},
			{
				"x": 1.5856141168,
				"y": 0.2603199446,
				"z": 1.4051362651,
				"element": "H" 
			},
			{
				"x": 3.4964537241,
				"y": -0.148018129,
				"z": -0.1315042828,
				"element": "H" 
			},
			{
				"x": 3.145645987,
				"y": -0.5807962464,
				"z": -3.8081865466,
				"element": "H" 
			},
			{
				"x": 4.2268087039,
				"y": -0.8113595849,
				"z": -2.4074848918,
				"element": "H" 
			},
			{
				"x": 0.8894086989,
				"y": 0.4027716267,
				"z": -3.506307987,
				"element": "H" 
			},
			{
				"x": -1.0119303429,
				"y": 0.8091709027,
				"z": -1.9741990196,
				"element": "H" 
			}
		],
		 "valence_orbital": [ 
			{
				"type": "occ",
				"energy": -0.29613,
				"method": "rhf"
			},
			{
				"type": "occ",
				"energy": -0.27894,
				"method": "rhf"
			},
			{
				"type": "occ",
				"energy": -0.27824,
				"method": "rhf"
			},
			{
				"type": "occ",
				"energy": -0.27099,
				"method": "rhf"
			},
			{
				"type": "occ",
				"energy": -0.24872,
				"method": "rhf"
			},
			{
				"type": "unocc",
				"energy": -0.07273,
				"method": "rhf"
			},
			{
				"type": "unocc",
				"energy": -0.02284,
				"method": "rhf"
			},
			{
				"type": "unocc",
				"energy": -0.01298,
				"method": "rhf"
			},
			{
				"type": "unocc",
				"energy": 0.02121,
				"method": "rhf"
			},
			{
				"type": "unocc",
				"energy": 0.06181,
				"method": "rhf"
			}
		],
		"cosmo_sigma_profile": { 
			"-0.025": 0.0,
			"-0.024": 0.0,
			"-0.023": 0.0,
			"-0.022": 0.0,
			"-0.021": 0.0,
			"-0.02": 0.0,
			"-0.019": 0.0,
			"-0.018": 0.0,
			"-0.017": 0.0,
			"-0.016": 0.0,
			"-0.015": 0.0,
			"-0.014": 0.0,
			"-0.013": 0.0,
			"-0.012": 0.0,
			"-0.011": 0.0,
			"-0.01": 0.0,
			"-0.009": 0.0854052185106,
			"-0.008": 6.1589279037,
			"-0.007": 11.5542708785,
			"-0.006": 15.3538226162,
			"-0.005": 15.2445566323,
			"-0.004": 16.0613936165,
			"-0.003": 18.5061278139,
			"-0.002": 22.4503571426,
			"-0.001": 17.5499959689,
			"0.0": 16.5307383537,
			"0.001": 15.3645996074,
			"0.002": 19.1993244123,
			"0.003": 16.3902343525,
			"0.004": 10.8176478554,
			"0.005": 10.8720135628,
			"0.006": 16.2122159003,
			"0.007": 5.06745247117,
			"0.008": 3.50662639739,
			"0.009": 1.85292233959,
			"0.01": 2.7945913567,
			"0.011": 2.22526286884,
			"0.012": 2.24152904439,
			"0.013": 1.43357554604,
			"0.014": 0.183389975303,
			"0.015": 0.0,
			"0.016": 0.0,
			"0.017": 0.0,
			"0.018": 0.0,
			"0.019": 0.0,
			"0.02": 0.0,
			"0.021": 0.0,
			"0.022": 0.0,
			"0.023": 0.0,
			"0.024": 0.0,
			"0.025": 0.0
		}
	}
}
