{
	 "smiles": "NC1=CC(CC2CC3CCC2C3)=NO1", 
	 "Tm": 360.15, 
	 "num_atms": 30, 
	 "gaussian": { 
		 "optdone": 1, 
		 "sigma_profile": "yes", 
		 "theory": "DFT", 
		 "functional": "B3LYP", 
		 "basiset": "6-31G**", 
		 "properties": { 
			 "R2extent": 3687.5429, 
			 "electric_dipole_moment_norm": 3.64186588715, 
			 "electric_quadrupole_moment_norm": 17.7069958333, 
			 "total_energy": -613.495688091, 
			 "HOMO_LUMO_gap": 0.22802, 
			 "cosmo_polarized_energy": -12.78, 
			 "cosmo_cavitation_energy": 30.78, 
			 "cosmo_dispersion_energy": -22.63, 
			 "cosmo_repulsion_energy": 1.8, 
			 "cosmo_total_nonelectrostatic_energy": 9.95, 
			 "SMD_solvation_energy": 4.09 
		},
		"coords": [
			{
				"x": 2.3291565753,
				"y": 3.9611082715,
				"z": -2.3793741739,
				"element": "N" 
			},
			{
				"x": 1.3242132462,
				"y": 3.1472862676,
				"z": -1.9109453817,
				"element": "C" 
			},
			{
				"x": 1.1963081671,
				"y": 1.7890852356,
				"z": -1.7743520791,
				"element": "C" 
			},
			{
				"x": -0.1385702743,
				"y": 1.6272952753,
				"z": -1.302162497,
				"element": "C" 
			},
			{
				"x": -0.8548750833,
				"y": 0.3548829616,
				"z": -0.9405892396,
				"element": "C" 
			},
			{
				"x": -0.7056898583,
				"y": -0.0530401268,
				"z": 0.5425883071,
				"element": "C" 
			},
			{
				"x": -1.5675870566,
				"y": -1.3150541004,
				"z": 0.8941832535,
				"element": "C" 
			},
			{
				"x": -0.5457944497,
				"y": -2.2983847047,
				"z": 1.5086804655,
				"element": "C" 
			},
			{
				"x": -0.0996733831,
				"y": -1.7520621825,
				"z": 2.8856698009,
				"element": "C" 
			},
			{
				"x": 0.788085591,
				"y": -0.521246171,
				"z": 2.5051908301,
				"element": "C" 
			},
			{
				"x": 0.7227261472,
				"y": -0.5034332014,
				"z": 0.9589995609,
				"element": "C" 
			},
			{
				"x": 0.7005142758,
				"y": -2.0157452318,
				"z": 0.6418496442,
				"element": "C" 
			},
			{
				"x": -0.7659342967,
				"y": 2.7765568775,
				"z": -1.1662278291,
				"element": "N" 
			},
			{
				"x": 0.1849676998,
				"y": 3.7612306884,
				"z": -1.5552184742,
				"element": "O" 
			},
			{
				"x": 3.2628610446,
				"y": 3.5902900501,
				"z": -2.2783470387,
				"element": "H" 
			},
			{
				"x": 2.2490400746,
				"y": 4.9276558884,
				"z": -2.0925327137,
				"element": "H" 
			},
			{
				"x": 1.9243181074,
				"y": 1.0244629113,
				"z": -1.9955640099,
				"element": "H" 
			},
			{
				"x": -1.9203043172,
				"y": 0.4922116286,
				"z": -1.1547940398,
				"element": "H" 
			},
			{
				"x": -0.5007153867,
				"y": -0.4544214513,
				"z": -1.5901736962,
				"element": "H" 
			},
			{
				"x": -1.0134633619,
				"y": 0.8097693126,
				"z": 1.1437433445,
				"element": "H" 
			},
			{
				"x": -2.3898869812,
				"y": -1.0830049557,
				"z": 1.5790821861,
				"element": "H" 
			},
			{
				"x": -2.0133216944,
				"y": -1.7423147984,
				"z": -0.0124824538,
				"element": "H" 
			},
			{
				"x": -0.8929254592,
				"y": -3.3352919629,
				"z": 1.5344148419,
				"element": "H" 
			},
			{
				"x": -0.9538711605,
				"y": -1.4795101716,
				"z": 3.5143148806,
				"element": "H" 
			},
			{
				"x": 0.4793359186,
				"y": -2.5026714865,
				"z": 3.4342925091,
				"element": "H" 
			},
			{
				"x": 0.4260394135,
				"y": 0.4149049771,
				"z": 2.9423875889,
				"element": "H" 
			},
			{
				"x": 1.8197107766,
				"y": -0.6606415792,
				"z": 2.8460621044,
				"element": "H" 
			},
			{
				"x": 1.5210577496,
				"y": 0.0818759514,
				"z": 0.4956605138,
				"element": "H" 
			},
			{
				"x": 0.5502665193,
				"y": -2.2448512186,
				"z": -0.4189018358,
				"element": "H" 
			},
			{
				"x": 1.5989114565,
				"y": -2.540342954,
				"z": 0.986045631,
				"element": "H" 
			}
		],
		 "valence_orbital": [ 
			{
				"type": "occ",
				"energy": -0.29978,
				"method": "rhf"
			},
			{
				"type": "occ",
				"energy": -0.29153,
				"method": "rhf"
			},
			{
				"type": "occ",
				"energy": -0.28746,
				"method": "rhf"
			},
			{
				"type": "occ",
				"energy": -0.26868,
				"method": "rhf"
			},
			{
				"type": "occ",
				"energy": -0.21297,
				"method": "rhf"
			},
			{
				"type": "unocc",
				"energy": 0.01505,
				"method": "rhf"
			},
			{
				"type": "unocc",
				"energy": 0.05874,
				"method": "rhf"
			},
			{
				"type": "unocc",
				"energy": 0.08144,
				"method": "rhf"
			},
			{
				"type": "unocc",
				"energy": 0.08368,
				"method": "rhf"
			},
			{
				"type": "unocc",
				"energy": 0.10624,
				"method": "rhf"
			}
		],
		"cosmo_sigma_profile": { 
			"-0.025": 0.0,
			"-0.024": 0.0,
			"-0.023": 0.0,
			"-0.022": 0.0,
			"-0.021": 0.0,
			"-0.02": 0.0,
			"-0.019": 0.0,
			"-0.018": 0.0,
			"-0.017": 0.0,
			"-0.016": 0.0,
			"-0.015": 0.32417577144,
			"-0.014": 2.30843864007,
			"-0.013": 3.05037756297,
			"-0.012": 2.09020187475,
			"-0.011": 3.20708530539,
			"-0.01": 2.34421818529,
			"-0.009": 1.7867571584,
			"-0.008": 1.98286097172,
			"-0.007": 3.45578491977,
			"-0.006": 3.95845194114,
			"-0.005": 1.6883996444,
			"-0.004": 7.77722458381,
			"-0.003": 13.311292594,
			"-0.002": 31.0065863047,
			"-0.001": 34.4903763507,
			"0.0": 30.7887932796,
			"0.001": 28.1842951793,
			"0.002": 19.7982422962,
			"0.003": 8.2643591799,
			"0.004": 7.95207287799,
			"0.005": 4.08338731353,
			"0.006": 3.36215277108,
			"0.007": 3.09377038495,
			"0.008": 2.85818101243,
			"0.009": 5.84560027333,
			"0.01": 3.31916182235,
			"0.011": 2.22372175617,
			"0.012": 2.11255584943,
			"0.013": 1.1663267117,
			"0.014": 1.49416868818,
			"0.015": 1.40869743877,
			"0.016": 0.772132835558,
			"0.017": 0.0,
			"0.018": 0.0,
			"0.019": 0.0,
			"0.02": 0.0,
			"0.021": 0.0,
			"0.022": 0.0,
			"0.023": 0.0,
			"0.024": 0.0,
			"0.025": 0.0
		}
	}
}
