{
	 "smiles": "NC(C#N)C1=CC2=C(C=CC=C2)C=C1", 
	 "Tm": 390.15, 
	 "num_atms": 24, 
	 "gaussian": { 
		 "optdone": 1, 
		 "sigma_profile": "yes", 
		 "theory": "DFT", 
		 "functional": "B3LYP", 
		 "basiset": "6-31G**", 
		 "properties": { 
			 "R2extent": 3324.7938, 
			 "electric_dipole_moment_norm": 5.07363986404, 
			 "electric_quadrupole_moment_norm": 17.6615796086, 
			 "total_energy": -572.790520571, 
			 "HOMO_LUMO_gap": 0.17548, 
			 "cosmo_polarized_energy": -14.36, 
			 "cosmo_cavitation_energy": 28.87, 
			 "cosmo_dispersion_energy": -20.35, 
			 "cosmo_repulsion_energy": 1.59, 
			 "cosmo_total_nonelectrostatic_energy": 10.11, 
			 "SMD_solvation_energy": 4.7 
		},
		"coords": [
			{
				"x": 0.1824476839,
				"y": 2.8747425023,
				"z": 0.7598909167,
				"element": "N" 
			},
			{
				"x": -0.2006216789,
				"y": 2.0466951067,
				"z": -0.3970108745,
				"element": "C" 
			},
			{
				"x": 0.3466503521,
				"y": 2.6702073667,
				"z": -1.6196335783,
				"element": "C" 
			},
			{
				"x": 0.7988291753,
				"y": 3.1401926286,
				"z": -2.5793469211,
				"element": "N" 
			},
			{
				"x": 0.1945070774,
				"y": 0.5727570442,
				"z": -0.3079369484,
				"element": "C" 
			},
			{
				"x": -0.7558980319,
				"y": -0.3807103187,
				"z": -0.0098933189,
				"element": "C" 
			},
			{
				"x": -0.4062427535,
				"y": -1.7476520306,
				"z": 0.1604916298,
				"element": "C" 
			},
			{
				"x": 0.965433674,
				"y": -2.133282226,
				"z": 0.0130344577,
				"element": "C" 
			},
			{
				"x": 1.317526109,
				"y": -3.4988509627,
				"z": 0.1808136475,
				"element": "C" 
			},
			{
				"x": 0.3591325417,
				"y": -4.4410487181,
				"z": 0.4815631332,
				"element": "C" 
			},
			{
				"x": -0.9973564372,
				"y": -4.0598164674,
				"z": 0.6270711536,
				"element": "C" 
			},
			{
				"x": -1.3708889148,
				"y": -2.7437670244,
				"z": 0.4695965969,
				"element": "C" 
			},
			{
				"x": 1.924967631,
				"y": -1.13216869,
				"z": -0.3027860683,
				"element": "C" 
			},
			{
				"x": 1.5537788219,
				"y": 0.1816411755,
				"z": -0.4586463948,
				"element": "C" 
			},
			{
				"x": 1.1922577394,
				"y": 2.8384241006,
				"z": 0.8839521846,
				"element": "H" 
			},
			{
				"x": -0.2250902318,
				"y": 2.461052201,
				"z": 1.5957945143,
				"element": "H" 
			},
			{
				"x": -1.2930698981,
				"y": 2.1021700503,
				"z": -0.4802989985,
				"element": "H" 
			},
			{
				"x": -1.8001899587,
				"y": -0.0940078446,
				"z": 0.0990659993,
				"element": "H" 
			},
			{
				"x": 2.3588065625,
				"y": -3.7888712824,
				"z": 0.0667349552,
				"element": "H" 
			},
			{
				"x": 0.6401128119,
				"y": -5.4825171661,
				"z": 0.6075590417,
				"element": "H" 
			},
			{
				"x": -1.7437763426,
				"y": -4.8126118189,
				"z": 0.8630772459,
				"element": "H" 
			},
			{
				"x": -2.4115856777,
				"y": -2.4497200361,
				"z": 0.5795117383,
				"element": "H" 
			},
			{
				"x": 2.9643703829,
				"y": -1.4243646,
				"z": -0.4276774145,
				"element": "H" 
			},
			{
				"x": 2.298599362,
				"y": 0.9293070103,
				"z": -0.7191266973,
				"element": "H" 
			}
		],
		 "valence_orbital": [ 
			{
				"type": "occ",
				"energy": -0.32279,
				"method": "rhf"
			},
			{
				"type": "occ",
				"energy": -0.29621,
				"method": "rhf"
			},
			{
				"type": "occ",
				"energy": -0.27111,
				"method": "rhf"
			},
			{
				"type": "occ",
				"energy": -0.24812,
				"method": "rhf"
			},
			{
				"type": "occ",
				"energy": -0.22723,
				"method": "rhf"
			},
			{
				"type": "unocc",
				"energy": -0.05175,
				"method": "rhf"
			},
			{
				"type": "unocc",
				"energy": -0.02512,
				"method": "rhf"
			},
			{
				"type": "unocc",
				"energy": 0.01805,
				"method": "rhf"
			},
			{
				"type": "unocc",
				"energy": 0.0245,
				"method": "rhf"
			},
			{
				"type": "unocc",
				"energy": 0.04281,
				"method": "rhf"
			}
		],
		"cosmo_sigma_profile": { 
			"-0.025": 0.0,
			"-0.024": 0.0,
			"-0.023": 0.0,
			"-0.022": 0.0,
			"-0.021": 0.0,
			"-0.02": 0.0,
			"-0.019": 0.0,
			"-0.018": 0.0,
			"-0.017": 0.0,
			"-0.016": 0.0,
			"-0.015": 0.0,
			"-0.014": 0.0,
			"-0.013": 0.0,
			"-0.012": 0.296850051136,
			"-0.011": 2.73714900607,
			"-0.01": 3.80564095732,
			"-0.009": 5.63832468507,
			"-0.008": 7.2928014419,
			"-0.007": 6.62321906851,
			"-0.006": 17.0063200468,
			"-0.005": 16.6362574138,
			"-0.004": 16.0342210009,
			"-0.003": 12.7785517766,
			"-0.002": 10.7121406617,
			"-0.001": 10.1792720391,
			"0.0": 11.5352584703,
			"0.001": 10.7423985161,
			"0.002": 13.4425693664,
			"0.003": 19.7368981793,
			"0.004": 22.9940989964,
			"0.005": 13.1683114914,
			"0.006": 4.02975384254,
			"0.007": 3.52661707059,
			"0.008": 4.34441238925,
			"0.009": 3.60484851647,
			"0.01": 3.68569246099,
			"0.011": 3.27943429381,
			"0.012": 3.20647701822,
			"0.013": 1.99889571817,
			"0.014": 0.548215741254,
			"0.015": 0.54650055484,
			"0.016": 0.60607461928,
			"0.017": 0.55680204472,
			"0.018": 0.0,
			"0.019": 0.0,
			"0.02": 0.0,
			"0.021": 0.0,
			"0.022": 0.0,
			"0.023": 0.0,
			"0.024": 0.0,
			"0.025": 0.0
		}
	}
}
