{
	 "smiles": "CC(C)(C)P(Cl)Cl", 
	 "Tm": 322.15, 
	 "num_atms": 16, 
	 "gaussian": { 
		 "optdone": 1, 
		 "sigma_profile": "yes", 
		 "theory": "DFT", 
		 "functional": "B3LYP", 
		 "basiset": "6-31G**", 
		 "properties": { 
			 "R2extent": 3049.2, 
			 "electric_dipole_moment_norm": 3.13896472264, 
			 "electric_quadrupole_moment_norm": 9.05104868344, 
			 "total_energy": -1419.6442146, 
			 "HOMO_LUMO_gap": 0.21561, 
			 "cosmo_polarized_energy": -4.1, 
			 "cosmo_cavitation_energy": 22.4, 
			 "cosmo_dispersion_energy": -17.21, 
			 "cosmo_repulsion_energy": 1.54, 
			 "cosmo_total_nonelectrostatic_energy": 6.74, 
			 "SMD_solvation_energy": 3.19 
		},
		"coords": [
			{
				"x": 1.9496552667,
				"y": -0.3241071097,
				"z": -0.7811776837,
				"element": "C" 
			},
			{
				"x": 1.0582781408,
				"y": 0.4774347404,
				"z": 0.1749965674,
				"element": "C" 
			},
			{
				"x": 0.0370753322,
				"y": 1.3276953017,
				"z": -0.6122798901,
				"element": "C" 
			},
			{
				"x": 0.3098081779,
				"y": -0.46411556,
				"z": 1.1439810852,
				"element": "C" 
			},
			{
				"x": 1.9752465492,
				"y": 1.7103581973,
				"z": 1.2903024088,
				"element": "P" 
			},
			{
				"x": 3.1041214151,
				"y": 2.7853269844,
				"z": -0.1313910236,
				"element": "Cl" 
			},
			{
				"x": 3.4539489431,
				"y": 0.4691564581,
				"z": 2.1412227747,
				"element": "Cl" 
			},
			{
				"x": 1.3246796479,
				"y": -1.0020857241,
				"z": -1.3746255216,
				"element": "H" 
			},
			{
				"x": 2.6808324204,
				"y": -0.9288777054,
				"z": -0.2385528034,
				"element": "H" 
			},
			{
				"x": 2.4879925976,
				"y": 0.3291612494,
				"z": -1.4726955272,
				"element": "H" 
			},
			{
				"x": 0.5280179772,
				"y": 1.9966260039,
				"z": -1.3240410219,
				"element": "H" 
			},
			{
				"x": -0.6231752153,
				"y": 0.6602398324,
				"z": -1.1776473097,
				"element": "H" 
			},
			{
				"x": -0.5949545447,
				"y": 1.9310871293,
				"z": 0.0494208101,
				"element": "H" 
			},
			{
				"x": -0.3530870617,
				"y": -1.1181107445,
				"z": 0.5660939808,
				"element": "H" 
			},
			{
				"x": -0.3137409246,
				"y": 0.0877868691,
				"z": 1.8567327366,
				"element": "H" 
			},
			{
				"x": 0.9990012783,
				"y": -1.0980759221,
				"z": 1.7080604178,
				"element": "H" 
			}
		],
		 "valence_orbital": [ 
			{
				"type": "occ",
				"energy": -0.35151,
				"method": "rhf"
			},
			{
				"type": "occ",
				"energy": -0.32555,
				"method": "rhf"
			},
			{
				"type": "occ",
				"energy": -0.32462,
				"method": "rhf"
			},
			{
				"type": "occ",
				"energy": -0.31558,
				"method": "rhf"
			},
			{
				"type": "occ",
				"energy": -0.26091,
				"method": "rhf"
			},
			{
				"type": "unocc",
				"energy": -0.0453,
				"method": "rhf"
			},
			{
				"type": "unocc",
				"energy": -0.03733,
				"method": "rhf"
			},
			{
				"type": "unocc",
				"energy": 0.04166,
				"method": "rhf"
			},
			{
				"type": "unocc",
				"energy": 0.07919,
				"method": "rhf"
			},
			{
				"type": "unocc",
				"energy": 0.12729,
				"method": "rhf"
			}
		],
		"cosmo_sigma_profile": { 
			"-0.025": 0.0,
			"-0.024": 0.0,
			"-0.023": 0.0,
			"-0.022": 0.0,
			"-0.021": 0.0,
			"-0.02": 0.0,
			"-0.019": 0.0,
			"-0.018": 0.0,
			"-0.017": 0.0,
			"-0.016": 0.0,
			"-0.015": 0.0,
			"-0.014": 0.0,
			"-0.013": 0.0,
			"-0.012": 0.0,
			"-0.011": 0.0,
			"-0.01": 0.0,
			"-0.009": 0.0,
			"-0.008": 0.0,
			"-0.007": 0.0192245151188,
			"-0.006": 0.874611768488,
			"-0.005": 7.70062045633,
			"-0.004": 15.3025171256,
			"-0.003": 16.815188682,
			"-0.002": 20.3408672513,
			"-0.001": 22.6263242737,
			"0.0": 26.0399999904,
			"0.001": 15.3841198783,
			"0.002": 11.3765477168,
			"0.003": 14.3450275021,
			"0.004": 14.8587519439,
			"0.005": 13.4473636953,
			"0.006": 1.7172904632,
			"0.007": 0.0621388222653,
			"0.008": 0.0,
			"0.009": 0.0,
			"0.01": 0.0,
			"0.011": 0.0,
			"0.012": 0.0,
			"0.013": 0.0,
			"0.014": 0.0,
			"0.015": 0.0,
			"0.016": 0.0,
			"0.017": 0.0,
			"0.018": 0.0,
			"0.019": 0.0,
			"0.02": 0.0,
			"0.021": 0.0,
			"0.022": 0.0,
			"0.023": 0.0,
			"0.024": 0.0,
			"0.025": 0.0
		}
	}
}
