{
	 "smiles": "CC1=CC=C(O)C(=C1)N1N=C2C=CC=CC2=N1", 
	 "Tm": 405.15, 
	 "num_atms": 28, 
	 "gaussian": { 
		 "optdone": 1, 
		 "sigma_profile": "yes", 
		 "theory": "DFT", 
		 "functional": "B3LYP", 
		 "basiset": "6-31G**", 
		 "properties": { 
			 "R2extent": 4922.9653, 
			 "electric_dipole_moment_norm": 2.25857111688, 
			 "electric_quadrupole_moment_norm": 15.111350707, 
			 "total_energy": -741.454770697, 
			 "HOMO_LUMO_gap": 0.16753, 
			 "cosmo_polarized_energy": -14.42, 
			 "cosmo_cavitation_energy": 32.6, 
			 "cosmo_dispersion_energy": -24.1, 
			 "cosmo_repulsion_energy": 1.85, 
			 "cosmo_total_nonelectrostatic_energy": 10.36, 
			 "SMD_solvation_energy": 4.03 
		},
		"coords": [
			{
				"x": -4.2170496677,
				"y": -0.5505749054,
				"z": 1.7700264081,
				"element": "C" 
			},
			{
				"x": -2.7686054832,
				"y": -0.9170327238,
				"z": 1.9937265034,
				"element": "C" 
			},
			{
				"x": -2.3804090079,
				"y": -1.7457498871,
				"z": 3.0535372143,
				"element": "C" 
			},
			{
				"x": -1.0407104988,
				"y": -2.0524652421,
				"z": 3.2770845395,
				"element": "C" 
			},
			{
				"x": -0.03474126,
				"y": -1.5453901868,
				"z": 2.4473220906,
				"element": "C" 
			},
			{
				"x": 1.2832113014,
				"y": -1.7909025572,
				"z": 2.6652901609,
				"element": "O" 
			},
			{
				"x": -0.4197869471,
				"y": -0.733004028,
				"z": 1.3651034433,
				"element": "C" 
			},
			{
				"x": -1.7653208832,
				"y": -0.4248493869,
				"z": 1.1557588426,
				"element": "C" 
			},
			{
				"x": 0.5461764798,
				"y": -0.1862106256,
				"z": 0.470468392,
				"element": "N" 
			},
			{
				"x": 1.5696267058,
				"y": -0.9033395213,
				"z": 0.0047721953,
				"element": "N" 
			},
			{
				"x": 2.181306732,
				"y": -0.0409601242,
				"z": -0.8334884722,
				"element": "C" 
			},
			{
				"x": 3.3366896072,
				"y": -0.204696384,
				"z": -1.6343002081,
				"element": "C" 
			},
			{
				"x": 3.7210580272,
				"y": 0.8708002246,
				"z": -2.4039493457,
				"element": "C" 
			},
			{
				"x": 2.9945296365,
				"y": 2.1013134001,
				"z": -2.4002066948,
				"element": "C" 
			},
			{
				"x": 1.8677726655,
				"y": 2.2813445727,
				"z": -1.6287116281,
				"element": "C" 
			},
			{
				"x": 1.4535128689,
				"y": 1.1871267227,
				"z": -0.832350913,
				"element": "C" 
			},
			{
				"x": 0.4091994208,
				"y": 1.0642886319,
				"z": 0.0130782875,
				"element": "N" 
			},
			{
				"x": -4.4801054059,
				"y": 0.3765785628,
				"z": 2.2945047087,
				"element": "H" 
			},
			{
				"x": -4.8875556991,
				"y": -1.3336466115,
				"z": 2.1366913854,
				"element": "H" 
			},
			{
				"x": -4.4308677274,
				"y": -0.3940880189,
				"z": 0.7085674203,
				"element": "H" 
			},
			{
				"x": -3.1345384483,
				"y": -2.1583018298,
				"z": 3.7185914487,
				"element": "H" 
			},
			{
				"x": -0.7611362285,
				"y": -2.689803074,
				"z": 4.1134381528,
				"element": "H" 
			},
			{
				"x": 1.3704927201,
				"y": -2.3324526396,
				"z": 3.4606095573,
				"element": "H" 
			},
			{
				"x": -2.0103114159,
				"y": 0.21704085,
				"z": 0.3166157507,
				"element": "H" 
			},
			{
				"x": 3.8861667139,
				"y": -1.1399425549,
				"z": -1.6331753586,
				"element": "H" 
			},
			{
				"x": 4.6018179404,
				"y": 0.7907052758,
				"z": -3.0344099226,
				"element": "H" 
			},
			{
				"x": 3.3485827062,
				"y": 2.9140865166,
				"z": -3.027729722,
				"element": "H" 
			},
			{
				"x": 1.315195147,
				"y": 3.2148255441,
				"z": -1.6238642365,
				"element": "H" 
			}
		],
		 "valence_orbital": [ 
			{
				"type": "occ",
				"energy": -0.28658,
				"method": "rhf"
			},
			{
				"type": "occ",
				"energy": -0.27404,
				"method": "rhf"
			},
			{
				"type": "occ",
				"energy": -0.24075,
				"method": "rhf"
			},
			{
				"type": "occ",
				"energy": -0.22124,
				"method": "rhf"
			},
			{
				"type": "occ",
				"energy": -0.21955,
				"method": "rhf"
			},
			{
				"type": "unocc",
				"energy": -0.05202,
				"method": "rhf"
			},
			{
				"type": "unocc",
				"energy": -0.006,
				"method": "rhf"
			},
			{
				"type": "unocc",
				"energy": 0.00604,
				"method": "rhf"
			},
			{
				"type": "unocc",
				"energy": 0.02932,
				"method": "rhf"
			},
			{
				"type": "unocc",
				"energy": 0.04184,
				"method": "rhf"
			}
		],
		"cosmo_sigma_profile": { 
			"-0.025": 0.0,
			"-0.024": 0.0,
			"-0.023": 0.0,
			"-0.022": 0.0,
			"-0.021": 0.0,
			"-0.02": 0.0,
			"-0.019": 0.0757103740702,
			"-0.018": 0.934853358896,
			"-0.017": 1.32224609145,
			"-0.016": 0.87912735277,
			"-0.015": 0.832167672824,
			"-0.014": 1.19569167592,
			"-0.013": 1.62987564941,
			"-0.012": 0.380017402545,
			"-0.011": 0.739499504417,
			"-0.01": 1.54923928569,
			"-0.009": 1.22428362249,
			"-0.008": 1.03985017724,
			"-0.007": 4.54541337616,
			"-0.006": 13.2340382954,
			"-0.005": 15.5642864227,
			"-0.004": 21.6856497655,
			"-0.003": 14.2438564211,
			"-0.002": 18.066199091,
			"-0.001": 17.7873022983,
			"0.0": 20.6767358206,
			"0.001": 19.7625106656,
			"0.002": 22.401128673,
			"0.003": 25.1725886051,
			"0.004": 22.2496001948,
			"0.005": 8.18351734014,
			"0.006": 4.00778245267,
			"0.007": 2.79208471782,
			"0.008": 3.55133778393,
			"0.009": 2.78907577875,
			"0.01": 2.39024306861,
			"0.011": 2.90946125035,
			"0.012": 2.52968504775,
			"0.013": 1.94756454633,
			"0.014": 1.3694208598,
			"0.015": 1.08399767782,
			"0.016": 0.61017645435,
			"0.017": 0.0156342107847,
			"0.018": 0.0,
			"0.019": 0.0,
			"0.02": 0.0,
			"0.021": 0.0,
			"0.022": 0.0,
			"0.023": 0.0,
			"0.024": 0.0,
			"0.025": 0.0
		}
	}
}
