{
	 "smiles": "CC(C)(C)OC(=O)N1CCN(CC#N)CC1", 
	 "Tm": 353.15, 
	 "num_atms": 35, 
	 "gaussian": { 
		 "optdone": 1, 
		 "sigma_profile": "yes", 
		 "theory": "DFT", 
		 "functional": "B3LYP", 
		 "basiset": "6-31G**", 
		 "properties": { 
			 "R2extent": 5817.4043, 
			 "electric_dipole_moment_norm": 5.07551047777, 
			 "electric_quadrupole_moment_norm": 26.9988115898, 
			 "total_energy": -745.319023795, 
			 "HOMO_LUMO_gap": 0.25074, 
			 "cosmo_polarized_energy": -15.86, 
			 "cosmo_cavitation_energy": 36.69, 
			 "cosmo_dispersion_energy": -25.19, 
			 "cosmo_repulsion_energy": 1.98, 
			 "cosmo_total_nonelectrostatic_energy": 13.47, 
			 "SMD_solvation_energy": 5.32 
		},
		"coords": [
			{
				"x": -0.581266808,
				"y": -0.6463974091,
				"z": -3.2636350487,
				"element": "C" 
			},
			{
				"x": -0.0945280002,
				"y": -1.4999976042,
				"z": -2.0894647072,
				"element": "C" 
			},
			{
				"x": -1.1781177218,
				"y": -2.4919396253,
				"z": -1.6534536631,
				"element": "C" 
			},
			{
				"x": 1.2260782664,
				"y": -2.1963373802,
				"z": -2.4347183137,
				"element": "C" 
			},
			{
				"x": 0.1229372427,
				"y": -0.4964833911,
				"z": -1.0347593177,
				"element": "O" 
			},
			{
				"x": 0.5815302455,
				"y": -0.8623908752,
				"z": 0.1881350887,
				"element": "C" 
			},
			{
				"x": 0.8267655552,
				"y": -2.0051567317,
				"z": 0.5498498757,
				"element": "O" 
			},
			{
				"x": 0.7405460132,
				"y": 0.238936262,
				"z": 0.9879756255,
				"element": "N" 
			},
			{
				"x": 1.1289588308,
				"y": 0.0421945162,
				"z": 2.3866442872,
				"element": "C" 
			},
			{
				"x": 0.3701700065,
				"y": 1.020257707,
				"z": 3.2771201209,
				"element": "C" 
			},
			{
				"x": 0.6999142446,
				"y": 2.4132821887,
				"z": 2.9300715316,
				"element": "N" 
			},
			{
				"x": -0.2972125842,
				"y": 3.3545378547,
				"z": 3.4152931723,
				"element": "C" 
			},
			{
				"x": -0.3483564878,
				"y": 3.3782513606,
				"z": 4.8884321012,
				"element": "C" 
			},
			{
				"x": -0.4049111654,
				"y": 3.3903541274,
				"z": 6.047081774,
				"element": "N" 
			},
			{
				"x": 1.0656871629,
				"y": 2.595584837,
				"z": 1.514295694,
				"element": "C" 
			},
			{
				"x": 0.3951803032,
				"y": 1.5979958934,
				"z": 0.5636594684,
				"element": "C" 
			},
			{
				"x": 0.1773615595,
				"y": 0.0885317426,
				"z": -3.5488501611,
				"element": "H" 
			},
			{
				"x": -0.7892889841,
				"y": -1.2820474076,
				"z": -4.129365697,
				"element": "H" 
			},
			{
				"x": -1.4980992571,
				"y": -0.1115469875,
				"z": -2.998783066,
				"element": "H" 
			},
			{
				"x": -2.093224678,
				"y": -1.957790534,
				"z": -1.3781864662,
				"element": "H" 
			},
			{
				"x": -0.8436905116,
				"y": -3.0843674066,
				"z": -0.8017865761,
				"element": "H" 
			},
			{
				"x": -1.415262255,
				"y": -3.1652819621,
				"z": -2.4836068366,
				"element": "H" 
			},
			{
				"x": 1.0787481524,
				"y": -2.8561551055,
				"z": -3.2959301711,
				"element": "H" 
			},
			{
				"x": 1.987447561,
				"y": -1.4561912974,
				"z": -2.7012693242,
				"element": "H" 
			},
			{
				"x": 1.5866684034,
				"y": -2.7884825753,
				"z": -1.5935451987,
				"element": "H" 
			},
			{
				"x": 0.8927340122,
				"y": -0.9869919124,
				"z": 2.6595358435,
				"element": "H" 
			},
			{
				"x": 2.2114495287,
				"y": 0.1769853334,
				"z": 2.5174689566,
				"element": "H" 
			},
			{
				"x": -0.7126678227,
				"y": 0.8245066921,
				"z": 3.1667366312,
				"element": "H" 
			},
			{
				"x": 0.6239252167,
				"y": 0.8396218737,
				"z": 4.3275692512,
				"element": "H" 
			},
			{
				"x": -0.0368583686,
				"y": 4.3644329206,
				"z": 3.0802315428,
				"element": "H" 
			},
			{
				"x": -1.3254489901,
				"y": 3.1465892146,
				"z": 3.0564977119,
				"element": "H" 
			},
			{
				"x": 0.8139039621,
				"y": 3.6140023783,
				"z": 1.2038707843,
				"element": "H" 
			},
			{
				"x": 2.1539012156,
				"y": 2.4964029933,
				"z": 1.412534293,
				"element": "H" 
			},
			{
				"x": 0.7479156801,
				"y": 1.7634517693,
				"z": -0.457217496,
				"element": "H" 
			},
			{
				"x": -0.6952895281,
				"y": 1.7437385404,
				"z": 0.5551682894,
				"element": "H" 
			}
		],
		 "valence_orbital": [ 
			{
				"type": "occ",
				"energy": -0.32807,
				"method": "rhf"
			},
			{
				"type": "occ",
				"energy": -0.28957,
				"method": "rhf"
			},
			{
				"type": "occ",
				"energy": -0.26355,
				"method": "rhf"
			},
			{
				"type": "occ",
				"energy": -0.24151,
				"method": "rhf"
			},
			{
				"type": "occ",
				"energy": -0.23318,
				"method": "rhf"
			},
			{
				"type": "unocc",
				"energy": 0.01756,
				"method": "rhf"
			},
			{
				"type": "unocc",
				"energy": 0.03394,
				"method": "rhf"
			},
			{
				"type": "unocc",
				"energy": 0.05028,
				"method": "rhf"
			},
			{
				"type": "unocc",
				"energy": 0.06756,
				"method": "rhf"
			},
			{
				"type": "unocc",
				"energy": 0.08465,
				"method": "rhf"
			}
		],
		"cosmo_sigma_profile": { 
			"-0.025": 0.0,
			"-0.024": 0.0,
			"-0.023": 0.0,
			"-0.022": 0.0,
			"-0.021": 0.0,
			"-0.02": 0.0,
			"-0.019": 0.0,
			"-0.018": 0.0,
			"-0.017": 0.0,
			"-0.016": 0.0,
			"-0.015": 0.0,
			"-0.014": 0.0,
			"-0.013": 0.0,
			"-0.012": 0.0,
			"-0.011": 0.0,
			"-0.01": 0.0100278339557,
			"-0.009": 3.08951900755,
			"-0.008": 3.57935942646,
			"-0.007": 6.52435787273,
			"-0.006": 12.0375843777,
			"-0.005": 14.2888657822,
			"-0.004": 31.0729593867,
			"-0.003": 34.6334965597,
			"-0.002": 25.2757642169,
			"-0.001": 24.1980663677,
			"0.0": 29.5969883172,
			"0.001": 24.9697262369,
			"0.002": 9.26095568091,
			"0.003": 8.73648184789,
			"0.004": 7.85117946504,
			"0.005": 7.21286335324,
			"0.006": 5.94181837724,
			"0.007": 6.95155584879,
			"0.008": 5.58662562528,
			"0.009": 5.12507220985,
			"0.01": 4.94971359629,
			"0.011": 4.54161341561,
			"0.012": 4.5551089261,
			"0.013": 4.53157264201,
			"0.014": 1.84229032216,
			"0.015": 0.0,
			"0.016": 0.0,
			"0.017": 0.0,
			"0.018": 0.0,
			"0.019": 0.0,
			"0.02": 0.0,
			"0.021": 0.0,
			"0.022": 0.0,
			"0.023": 0.0,
			"0.024": 0.0,
			"0.025": 0.0
		}
	}
}
