{
	 "smiles": "NC1=CC(F)=C(Cl)C=C1", 
	 "Tm": 333.15, 
	 "num_atms": 14, 
	 "gaussian": { 
		 "optdone": 1, 
		 "sigma_profile": "yes", 
		 "theory": "DFT", 
		 "functional": "B3LYP", 
		 "basiset": "6-31G**", 
		 "properties": { 
			 "R2extent": 1701.9355, 
			 "electric_dipole_moment_norm": 4.27353766919, 
			 "electric_quadrupole_moment_norm": 8.2687805552, 
			 "total_energy": -846.429692583, 
			 "HOMO_LUMO_gap": 0.20083, 
			 "cosmo_polarized_energy": -9.11, 
			 "cosmo_cavitation_energy": 20.39, 
			 "cosmo_dispersion_energy": -15.35, 
			 "cosmo_repulsion_energy": 1.25, 
			 "cosmo_total_nonelectrostatic_energy": 6.29, 
			 "SMD_solvation_energy": 3.73 
		},
		"coords": [
			{
				"x": 1.5114214088,
				"y": 1.4115302819,
				"z": -2.2198116682,
				"element": "N" 
			},
			{
				"x": 0.9496534118,
				"y": 0.9446907339,
				"z": -1.0352362648,
				"element": "C" 
			},
			{
				"x": 1.7210103997,
				"y": 0.8600696559,
				"z": 0.1355498641,
				"element": "C" 
			},
			{
				"x": 1.1335844305,
				"y": 0.4474915586,
				"z": 1.3228846924,
				"element": "C" 
			},
			{
				"x": 1.8967195441,
				"y": 0.3738942439,
				"z": 2.4255602697,
				"element": "F" 
			},
			{
				"x": -0.2178145009,
				"y": 0.1075371953,
				"z": 1.3931209248,
				"element": "C" 
			},
			{
				"x": -0.9178043121,
				"y": -0.4118378787,
				"z": 2.9091701892,
				"element": "Cl" 
			},
			{
				"x": -0.9848790104,
				"y": 0.1910637003,
				"z": 0.2311107235,
				"element": "C" 
			},
			{
				"x": -0.4137552418,
				"y": 0.6027857216,
				"z": -0.9688218312,
				"element": "C" 
			},
			{
				"x": 2.5138926151,
				"y": 1.3153714182,
				"z": -2.2987727066,
				"element": "H" 
			},
			{
				"x": 1.0318971137,
				"y": 1.1399520348,
				"z": -3.0664105924,
				"element": "H" 
			},
			{
				"x": 2.7754498503,
				"y": 1.1168874191,
				"z": 0.1398525285,
				"element": "H" 
			},
			{
				"x": -2.0362764555,
				"y": -0.0722858137,
				"z": 0.2731641666,
				"element": "H" 
			},
			{
				"x": -1.0285992533,
				"y": 0.6660497289,
				"z": -1.8620602955,
				"element": "H" 
			}
		],
		 "valence_orbital": [ 
			{
				"type": "occ",
				"energy": -0.35511,
				"method": "rhf"
			},
			{
				"type": "occ",
				"energy": -0.30829,
				"method": "rhf"
			},
			{
				"type": "occ",
				"energy": -0.29492,
				"method": "rhf"
			},
			{
				"type": "occ",
				"energy": -0.25455,
				"method": "rhf"
			},
			{
				"type": "occ",
				"energy": -0.21048,
				"method": "rhf"
			},
			{
				"type": "unocc",
				"energy": -0.00965,
				"method": "rhf"
			},
			{
				"type": "unocc",
				"energy": 0.00557,
				"method": "rhf"
			},
			{
				"type": "unocc",
				"energy": 0.02949,
				"method": "rhf"
			},
			{
				"type": "unocc",
				"energy": 0.07356,
				"method": "rhf"
			},
			{
				"type": "unocc",
				"energy": 0.10918,
				"method": "rhf"
			}
		],
		"cosmo_sigma_profile": { 
			"-0.025": 0.0,
			"-0.024": 0.0,
			"-0.023": 0.0,
			"-0.022": 0.0,
			"-0.021": 0.0,
			"-0.02": 0.0,
			"-0.019": 0.0,
			"-0.018": 0.0,
			"-0.017": 0.0,
			"-0.016": 0.0,
			"-0.015": 0.0,
			"-0.014": 0.0429686680516,
			"-0.013": 1.75783307681,
			"-0.012": 2.88841876127,
			"-0.011": 3.25095589358,
			"-0.01": 3.14423657757,
			"-0.009": 3.46814612952,
			"-0.008": 4.06138736127,
			"-0.007": 5.42256312663,
			"-0.006": 6.2764715744,
			"-0.005": 6.22417511002,
			"-0.004": 5.13065887219,
			"-0.003": 4.76081606054,
			"-0.002": 6.72253694595,
			"-0.001": 6.29109083429,
			"0.0": 9.70479146219,
			"0.001": 13.4459259208,
			"0.002": 14.6857351031,
			"0.003": 19.2015988917,
			"0.004": 25.9022914705,
			"0.005": 14.8788608037,
			"0.006": 2.77177219368,
			"0.007": 1.10292889829,
			"0.008": 0.726320700858,
			"0.009": 0.613158286417,
			"0.01": 0.707922401794,
			"0.011": 0.708179712328,
			"0.012": 0.616698405196,
			"0.013": 0.665997841624,
			"0.014": 0.144677924705,
			"0.015": 0.0,
			"0.016": 0.0,
			"0.017": 0.0,
			"0.018": 0.0,
			"0.019": 0.0,
			"0.02": 0.0,
			"0.021": 0.0,
			"0.022": 0.0,
			"0.023": 0.0,
			"0.024": 0.0,
			"0.025": 0.0
		}
	}
}
