{
	 "smiles": "O=C1NC=NC2=C1C1=C(CCCCC1)S2", 
	 "Tm": 381.15, 
	 "num_atms": 27, 
	 "gaussian": { 
		 "optdone": 1, 
		 "sigma_profile": "yes", 
		 "theory": "DFT", 
		 "functional": "B3LYP", 
		 "basiset": "6-31G**", 
		 "properties": { 
			 "R2extent": 3781.6597, 
			 "electric_dipole_moment_norm": 0.415937699662, 
			 "electric_quadrupole_moment_norm": 17.8932618097, 
			 "total_energy": -1009.34516228, 
			 "HOMO_LUMO_gap": 0.16932, 
			 "cosmo_polarized_energy": -12.6, 
			 "cosmo_cavitation_energy": 29.94, 
			 "cosmo_dispersion_energy": -23.18, 
			 "cosmo_repulsion_energy": 1.74, 
			 "cosmo_total_nonelectrostatic_energy": 8.5, 
			 "SMD_solvation_energy": 2.9 
		},
		"coords": [
			{
				"x": -0.5905197816,
				"y": -2.8957952204,
				"z": 0.4054261114,
				"element": "O" 
			},
			{
				"x": -1.1835947374,
				"y": -2.2278428742,
				"z": -0.4343227294,
				"element": "C" 
			},
			{
				"x": -2.0674682768,
				"y": -2.8677684551,
				"z": -1.3388081358,
				"element": "N" 
			},
			{
				"x": -2.7783668531,
				"y": -2.2409587777,
				"z": -2.3219081587,
				"element": "C" 
			},
			{
				"x": -2.7305197102,
				"y": -0.9634631741,
				"z": -2.5488954973,
				"element": "N" 
			},
			{
				"x": -1.899501251,
				"y": -0.2755469216,
				"z": -1.7115700924,
				"element": "C" 
			},
			{
				"x": -1.1247067343,
				"y": -0.795017979,
				"z": -0.6732838675,
				"element": "C" 
			},
			{
				"x": -0.3476151306,
				"y": 0.1998134389,
				"z": 0.0245282103,
				"element": "C" 
			},
			{
				"x": -0.5511869057,
				"y": 1.4547068597,
				"z": -0.4979316617,
				"element": "C" 
			},
			{
				"x": 0.0275030723,
				"y": 2.782360284,
				"z": -0.0677813199,
				"element": "C" 
			},
			{
				"x": 0.2979586585,
				"y": 2.8663755562,
				"z": 1.4460647793,
				"element": "C" 
			},
			{
				"x": 1.5781753985,
				"y": 2.1470760623,
				"z": 1.9074614726,
				"element": "C" 
			},
			{
				"x": 1.8247023621,
				"y": 0.770571863,
				"z": 1.2639900227,
				"element": "C" 
			},
			{
				"x": 0.5868633858,
				"y": -0.13815883,
				"z": 1.170662851,
				"element": "C" 
			},
			{
				"x": -1.6861754212,
				"y": 1.4448733122,
				"z": -1.8436468833,
				"element": "S" 
			},
			{
				"x": -2.1441000778,
				"y": -3.870177164,
				"z": -1.213433696,
				"element": "H" 
			},
			{
				"x": -3.4128597398,
				"y": -2.8762335136,
				"z": -2.934895289,
				"element": "H" 
			},
			{
				"x": 0.9512438548,
				"y": 2.9944816194,
				"z": -0.6258489063,
				"element": "H" 
			},
			{
				"x": -0.675406609,
				"y": 3.5752227339,
				"z": -0.3491674421,
				"element": "H" 
			},
			{
				"x": 0.3621175022,
				"y": 3.92157097,
				"z": 1.7372986389,
				"element": "H" 
			},
			{
				"x": -0.5729782035,
				"y": 2.4583602697,
				"z": 1.9723669125,
				"element": "H" 
			},
			{
				"x": 2.4474009737,
				"y": 2.7857043642,
				"z": 1.702751212,
				"element": "H" 
			},
			{
				"x": 1.5341413939,
				"y": 2.0363757242,
				"z": 2.9986271161,
				"element": "H" 
			},
			{
				"x": 2.6012395411,
				"y": 0.2540370458,
				"z": 1.8404391047,
				"element": "H" 
			},
			{
				"x": 2.2364950674,
				"y": 0.8993639066,
				"z": 0.255201727,
				"element": "H" 
			},
			{
				"x": 0.0323764804,
				"y": -0.1164603414,
				"z": 2.1203518543,
				"element": "H" 
			},
			{
				"x": 0.894581741,
				"y": -1.1786707591,
				"z": 1.0484236665,
				"element": "H" 
			}
		],
		 "valence_orbital": [ 
			{
				"type": "occ",
				"energy": -0.28649,
				"method": "rhf"
			},
			{
				"type": "occ",
				"energy": -0.28629,
				"method": "rhf"
			},
			{
				"type": "occ",
				"energy": -0.2608,
				"method": "rhf"
			},
			{
				"type": "occ",
				"energy": -0.2515,
				"method": "rhf"
			},
			{
				"type": "occ",
				"energy": -0.21249,
				"method": "rhf"
			},
			{
				"type": "unocc",
				"energy": -0.04317,
				"method": "rhf"
			},
			{
				"type": "unocc",
				"energy": -0.00703,
				"method": "rhf"
			},
			{
				"type": "unocc",
				"energy": 0.01924,
				"method": "rhf"
			},
			{
				"type": "unocc",
				"energy": 0.02896,
				"method": "rhf"
			},
			{
				"type": "unocc",
				"energy": 0.07375,
				"method": "rhf"
			}
		],
		"cosmo_sigma_profile": { 
			"-0.025": 0.0,
			"-0.024": 0.0,
			"-0.023": 0.0,
			"-0.022": 0.0,
			"-0.021": 0.0,
			"-0.02": 0.0,
			"-0.019": 0.0,
			"-0.018": 0.0,
			"-0.017": 0.570907042505,
			"-0.016": 1.53272266054,
			"-0.015": 1.07875915926,
			"-0.014": 1.60044141681,
			"-0.013": 1.18133706668,
			"-0.012": 0.960198876572,
			"-0.011": 1.46311348852,
			"-0.01": 3.0542654122,
			"-0.009": 3.00777910269,
			"-0.008": 2.29693680614,
			"-0.007": 1.85325538917,
			"-0.006": 2.07568226494,
			"-0.005": 3.33481860258,
			"-0.004": 7.69685675702,
			"-0.003": 19.5273137831,
			"-0.002": 34.5377606385,
			"-0.001": 32.5449198506,
			"0.0": 28.4042736808,
			"0.001": 21.7894182623,
			"0.002": 18.1509745849,
			"0.003": 13.377882618,
			"0.004": 8.11448388981,
			"0.005": 3.31741358323,
			"0.006": 2.5745140332,
			"0.007": 3.14964551016,
			"0.008": 2.42929232991,
			"0.009": 3.02973350648,
			"0.01": 1.96238864401,
			"0.011": 2.59374375665,
			"0.012": 3.58310614304,
			"0.013": 5.92770893494,
			"0.014": 1.68640352329,
			"0.015": 0.0733106195129,
			"0.016": 0.0,
			"0.017": 0.0,
			"0.018": 0.0,
			"0.019": 0.0,
			"0.02": 0.0,
			"0.021": 0.0,
			"0.022": 0.0,
			"0.023": 0.0,
			"0.024": 0.0,
			"0.025": 0.0
		}
	}
}
