{
	 "smiles": "ClC1=CC=C(C=C1)C1C2CCC3=C(C=CC=C3)C2=NN1C1=CC=C(Cl)C=C1", 
	 "Tm": 460.15, 
	 "num_atms": 45, 
	 "gaussian": { 
		 "optdone": 1, 
		 "sigma_profile": "yes", 
		 "theory": "DFT", 
		 "functional": "B3LYP", 
		 "basiset": "6-31G**", 
		 "properties": { 
			 "R2extent": 13879.9172, 
			 "electric_dipole_moment_norm": 5.24318764494, 
			 "electric_quadrupole_moment_norm": 20.6285470472, 
			 "total_energy": -1917.17664806, 
			 "HOMO_LUMO_gap": 0.13485, 
			 "cosmo_polarized_energy": -12.23, 
			 "cosmo_cavitation_energy": 50.75, 
			 "cosmo_dispersion_energy": -35.35, 
			 "cosmo_repulsion_energy": 2.67, 
			 "cosmo_total_nonelectrostatic_energy": 18.07, 
			 "SMD_solvation_energy": 6.1 
		},
		"coords": [
			{
				"x": 2.2674535463,
				"y": 3.7417432227,
				"z": -3.992576223,
				"element": "Cl" 
			},
			{
				"x": 1.8369440737,
				"y": 2.4416987899,
				"z": -2.8915252205,
				"element": "C" 
			},
			{
				"x": 0.5115356491,
				"y": 2.2995667092,
				"z": -2.4805405231,
				"element": "C" 
			},
			{
				"x": 0.1751012572,
				"y": 1.2648073767,
				"z": -1.608723814,
				"element": "C" 
			},
			{
				"x": 1.1484067777,
				"y": 0.3717734217,
				"z": -1.1433478392,
				"element": "C" 
			},
			{
				"x": 2.4697894422,
				"y": 0.5330919939,
				"z": -1.5768734002,
				"element": "C" 
			},
			{
				"x": 2.8241834213,
				"y": 1.5633098998,
				"z": -2.4480048897,
				"element": "C" 
			},
			{
				"x": 0.8103849976,
				"y": -0.7361846578,
				"z": -0.1536665009,
				"element": "C" 
			},
			{
				"x": 0.7805521205,
				"y": -0.2988865582,
				"z": 1.3435248099,
				"element": "C" 
			},
			{
				"x": 1.4954113039,
				"y": 0.9757912401,
				"z": 1.7973246656,
				"element": "C" 
			},
			{
				"x": 1.1518015148,
				"y": 1.2273736416,
				"z": 3.2768504663,
				"element": "C" 
			},
			{
				"x": -0.341478783,
				"y": 1.2297398482,
				"z": 3.5622291338,
				"element": "C" 
			},
			{
				"x": -1.2440631549,
				"y": 0.5152647831,
				"z": 2.7399669616,
				"element": "C" 
			},
			{
				"x": -2.6205253318,
				"y": 0.5276135204,
				"z": 3.0332806175,
				"element": "C" 
			},
			{
				"x": -3.1010090595,
				"y": 1.2275834277,
				"z": 4.1320455375,
				"element": "C" 
			},
			{
				"x": -2.2125311011,
				"y": 1.9350448502,
				"z": 4.9501687949,
				"element": "C" 
			},
			{
				"x": -0.8495888489,
				"y": 1.9346453951,
				"z": 4.659239139,
				"element": "C" 
			},
			{
				"x": -0.7113479765,
				"y": -0.196087356,
				"z": 1.5861577696,
				"element": "C" 
			},
			{
				"x": -1.4176426653,
				"y": -0.7714521341,
				"z": 0.6687799185,
				"element": "N" 
			},
			{
				"x": -0.5683645382,
				"y": -1.2506256775,
				"z": -0.3021649467,
				"element": "N" 
			},
			{
				"x": -1.0654887743,
				"y": -1.9710125734,
				"z": -1.3841292248,
				"element": "C" 
			},
			{
				"x": -0.21788968,
				"y": -2.3658145544,
				"z": -2.4361302428,
				"element": "C" 
			},
			{
				"x": -0.7141062518,
				"y": -3.1113961822,
				"z": -3.5036772748,
				"element": "C" 
			},
			{
				"x": -2.0592747862,
				"y": -3.46876694,
				"z": -3.5351702284,
				"element": "C" 
			},
			{
				"x": -2.6852573157,
				"y": -4.4106058525,
				"z": -4.8852953146,
				"element": "Cl" 
			},
			{
				"x": -2.9143501451,
				"y": -3.0829913538,
				"z": -2.5019545798,
				"element": "C" 
			},
			{
				"x": -2.424049347,
				"y": -2.3417356447,
				"z": -1.4332517646,
				"element": "C" 
			},
			{
				"x": -0.2457364024,
				"y": 2.9865474546,
				"z": -2.8417203785,
				"element": "H" 
			},
			{
				"x": -0.8575361317,
				"y": 1.1449937173,
				"z": -1.2964939241,
				"element": "H" 
			},
			{
				"x": 3.2377338106,
				"y": -0.1573404113,
				"z": -1.2355967524,
				"element": "H" 
			},
			{
				"x": 3.8484811051,
				"y": 1.6796791879,
				"z": -2.7843883098,
				"element": "H" 
			},
			{
				"x": 1.5239634695,
				"y": -1.554861007,
				"z": -0.2888706044,
				"element": "H" 
			},
			{
				"x": 1.1575646718,
				"y": -1.137126061,
				"z": 1.9499457294,
				"element": "H" 
			},
			{
				"x": 2.5802303903,
				"y": 0.8918829299,
				"z": 1.6713333921,
				"element": "H" 
			},
			{
				"x": 1.16489088,
				"y": 1.824581101,
				"z": 1.1894675626,
				"element": "H" 
			},
			{
				"x": 1.5865755788,
				"y": 2.1778937639,
				"z": 3.6048484446,
				"element": "H" 
			},
			{
				"x": 1.6321458741,
				"y": 0.449502772,
				"z": 3.8894070851,
				"element": "H" 
			},
			{
				"x": -3.2956087906,
				"y": -0.0210731596,
				"z": 2.3845956304,
				"element": "H" 
			},
			{
				"x": -4.1644622422,
				"y": 1.2276626498,
				"z": 4.3525212005,
				"element": "H" 
			},
			{
				"x": -2.5832364107,
				"y": 2.4898801746,
				"z": 5.8071781963,
				"element": "H" 
			},
			{
				"x": -0.1638675428,
				"y": 2.4937297851,
				"z": 5.2915504974,
				"element": "H" 
			},
			{
				"x": 0.82801278,
				"y": -2.0830772917,
				"z": -2.4383226681,
				"element": "H" 
			},
			{
				"x": -0.052930509,
				"y": -3.40830757,
				"z": -4.310462449,
				"element": "H" 
			},
			{
				"x": -3.9615401816,
				"y": -3.3643335327,
				"z": -2.5311782408,
				"element": "H" 
			},
			{
				"x": -3.0804766941,
				"y": -2.0437231384,
				"z": -0.6259502386,
				"element": "H" 
			}
		],
		 "valence_orbital": [ 
			{
				"type": "occ",
				"energy": -0.25676,
				"method": "rhf"
			},
			{
				"type": "occ",
				"energy": -0.25127,
				"method": "rhf"
			},
			{
				"type": "occ",
				"energy": -0.24939,
				"method": "rhf"
			},
			{
				"type": "occ",
				"energy": -0.24427,
				"method": "rhf"
			},
			{
				"type": "occ",
				"energy": -0.18487,
				"method": "rhf"
			},
			{
				"type": "unocc",
				"energy": -0.05002,
				"method": "rhf"
			},
			{
				"type": "unocc",
				"energy": -0.02453,
				"method": "rhf"
			},
			{
				"type": "unocc",
				"energy": -0.02371,
				"method": "rhf"
			},
			{
				"type": "unocc",
				"energy": -0.00801,
				"method": "rhf"
			},
			{
				"type": "unocc",
				"energy": -0.00375,
				"method": "rhf"
			}
		],
		"cosmo_sigma_profile": { 
			"-0.025": 0.0,
			"-0.024": 0.0,
			"-0.023": 0.0,
			"-0.022": 0.0,
			"-0.021": 0.0,
			"-0.02": 0.0,
			"-0.019": 0.0,
			"-0.018": 0.0,
			"-0.017": 0.0,
			"-0.016": 0.0,
			"-0.015": 0.0,
			"-0.014": 0.0,
			"-0.013": 0.0,
			"-0.012": 0.0,
			"-0.011": 0.0,
			"-0.01": 0.0,
			"-0.009": 0.0,
			"-0.008": 1.13998918412,
			"-0.007": 11.0514311727,
			"-0.006": 19.2434705535,
			"-0.005": 29.5063585857,
			"-0.004": 33.1251365992,
			"-0.003": 29.8315263327,
			"-0.002": 31.2558245274,
			"-0.001": 29.3968919867,
			"0.0": 26.0052486963,
			"0.001": 28.4927537266,
			"0.002": 35.0970235242,
			"0.003": 43.3701342039,
			"0.004": 43.649400881,
			"0.005": 37.4561441044,
			"0.006": 7.97579342273,
			"0.007": 1.97630245296,
			"0.008": 0.848594184367,
			"0.009": 0.60503259168,
			"0.01": 0.0385884386648,
			"0.011": 0.0,
			"0.012": 0.0,
			"0.013": 0.0,
			"0.014": 0.0,
			"0.015": 0.0,
			"0.016": 0.0,
			"0.017": 0.0,
			"0.018": 0.0,
			"0.019": 0.0,
			"0.02": 0.0,
			"0.021": 0.0,
			"0.022": 0.0,
			"0.023": 0.0,
			"0.024": 0.0,
			"0.025": 0.0
		}
	}
}
