{
	 "smiles": "COC1=CC(=CC=C1OCC1=CC=CC=C1)C(C)=O", 
	 "Tm": 359.15, 
	 "num_atms": 35, 
	 "gaussian": { 
		 "optdone": 1, 
		 "sigma_profile": "yes", 
		 "theory": "DFT", 
		 "functional": "B3LYP", 
		 "basiset": "6-31G**", 
		 "properties": { 
			 "R2extent": 7917.0168, 
			 "electric_dipole_moment_norm": 3.19341611914, 
			 "electric_quadrupole_moment_norm": 16.5907598985, 
			 "total_energy": -844.993206085, 
			 "HOMO_LUMO_gap": 0.18672, 
			 "cosmo_polarized_energy": -11.97, 
			 "cosmo_cavitation_energy": 39.24, 
			 "cosmo_dispersion_energy": -27.28, 
			 "cosmo_repulsion_energy": 2.11, 
			 "cosmo_total_nonelectrostatic_energy": 14.07, 
			 "SMD_solvation_energy": 8.08 
		},
		"coords": [
			{
				"x": 0.5479464866,
				"y": -2.0651821191,
				"z": 0.8640325558,
				"element": "C" 
			},
			{
				"x": 0.2452568932,
				"y": -2.0246031807,
				"z": -0.5375277354,
				"element": "O" 
			},
			{
				"x": 0.5813408005,
				"y": -0.8476278672,
				"z": -1.1674172429,
				"element": "C" 
			},
			{
				"x": 1.6214069489,
				"y": -0.8441881321,
				"z": -2.0884257374,
				"element": "C" 
			},
			{
				"x": 1.982599821,
				"y": 0.3293079003,
				"z": -2.7691809612,
				"element": "C" 
			},
			{
				"x": 1.2830779734,
				"y": 1.5145742149,
				"z": -2.4995695601,
				"element": "C" 
			},
			{
				"x": 0.2294418561,
				"y": 1.5166184069,
				"z": -1.5878956058,
				"element": "C" 
			},
			{
				"x": -0.1373768388,
				"y": 0.343714363,
				"z": -0.924853611,
				"element": "C" 
			},
			{
				"x": -1.1606169243,
				"y": 0.393816488,
				"z": -0.0116980831,
				"element": "O" 
			},
			{
				"x": -2.3366690897,
				"y": -0.3725799896,
				"z": -0.3483468583,
				"element": "C" 
			},
			{
				"x": -3.3613662984,
				"y": -0.2108553178,
				"z": 0.7469212722,
				"element": "C" 
			},
			{
				"x": -3.5129909882,
				"y": 1.0063937495,
				"z": 1.4226908892,
				"element": "C" 
			},
			{
				"x": -4.495569945,
				"y": 1.1515544142,
				"z": 2.4019489465,
				"element": "C" 
			},
			{
				"x": -5.3444741865,
				"y": 0.0862882534,
				"z": 2.7113833182,
				"element": "C" 
			},
			{
				"x": -5.1995656597,
				"y": -1.1290979243,
				"z": 2.0409961029,
				"element": "C" 
			},
			{
				"x": -4.2085702826,
				"y": -1.2772286558,
				"z": 1.0690823099,
				"element": "C" 
			},
			{
				"x": 3.1160140705,
				"y": 0.2545543653,
				"z": -3.745085105,
				"element": "C" 
			},
			{
				"x": 3.528821108,
				"y": 1.5159516761,
				"z": -4.4866195116,
				"element": "C" 
			},
			{
				"x": 3.7006888743,
				"y": -0.8002898959,
				"z": -3.9437793636,
				"element": "O" 
			},
			{
				"x": 0.2387878109,
				"y": -3.052035992,
				"z": 1.2134649444,
				"element": "H" 
			},
			{
				"x": 1.6253128383,
				"y": -1.943041747,
				"z": 1.0295882857,
				"element": "H" 
			},
			{
				"x": 0.0027397228,
				"y": -1.2911302338,
				"z": 1.4131523557,
				"element": "H" 
			},
			{
				"x": 2.168064699,
				"y": -1.7601494219,
				"z": -2.2841372575,
				"element": "H" 
			},
			{
				"x": 1.5456087335,
				"y": 2.4379387593,
				"z": -3.0047382069,
				"element": "H" 
			},
			{
				"x": -0.3305746214,
				"y": 2.421674512,
				"z": -1.3752894771,
				"element": "H" 
			},
			{
				"x": -2.7282997054,
				"y": 0.0038557225,
				"z": -1.3051558508,
				"element": "H" 
			},
			{
				"x": -2.0730036971,
				"y": -1.426146784,
				"z": -0.4837703961,
				"element": "H" 
			},
			{
				"x": -2.847592052,
				"y": 1.830115464,
				"z": 1.1862897176,
				"element": "H" 
			},
			{
				"x": -4.5995884536,
				"y": 2.0986563257,
				"z": 2.9240659638,
				"element": "H" 
			},
			{
				"x": -6.110252666,
				"y": 0.2016945166,
				"z": 3.4730852757,
				"element": "H" 
			},
			{
				"x": -5.8500204243,
				"y": -1.9655568849,
				"z": 2.2804646373,
				"element": "H" 
			},
			{
				"x": -4.0914288818,
				"y": -2.2299216905,
				"z": 0.557918736,
				"element": "H" 
			},
			{
				"x": 2.696811014,
				"y": 1.916429637,
				"z": -5.0762750753,
				"element": "H" 
			},
			{
				"x": 4.3588287502,
				"y": 1.2731184978,
				"z": -5.1505612408,
				"element": "H" 
			},
			{
				"x": 3.8405123136,
				"y": 2.2996785699,
				"z": -3.7873584311,
				"element": "H" 
			}
		],
		 "valence_orbital": [ 
			{
				"type": "occ",
				"energy": -0.25345,
				"method": "rhf"
			},
			{
				"type": "occ",
				"energy": -0.2518,
				"method": "rhf"
			},
			{
				"type": "occ",
				"energy": -0.24623,
				"method": "rhf"
			},
			{
				"type": "occ",
				"energy": -0.24469,
				"method": "rhf"
			},
			{
				"type": "occ",
				"energy": -0.23886,
				"method": "rhf"
			},
			{
				"type": "unocc",
				"energy": -0.05214,
				"method": "rhf"
			},
			{
				"type": "unocc",
				"energy": -0.0085,
				"method": "rhf"
			},
			{
				"type": "unocc",
				"energy": -0.00657,
				"method": "rhf"
			},
			{
				"type": "unocc",
				"energy": -0.00323,
				"method": "rhf"
			},
			{
				"type": "unocc",
				"energy": 0.04194,
				"method": "rhf"
			}
		],
		"cosmo_sigma_profile": { 
			"-0.025": 0.0,
			"-0.024": 0.0,
			"-0.023": 0.0,
			"-0.022": 0.0,
			"-0.021": 0.0,
			"-0.02": 0.0,
			"-0.019": 0.0,
			"-0.018": 0.0,
			"-0.017": 0.0,
			"-0.016": 0.0,
			"-0.015": 0.0,
			"-0.014": 0.0,
			"-0.013": 0.0,
			"-0.012": 0.0,
			"-0.011": 0.0,
			"-0.01": 0.0,
			"-0.009": 0.0,
			"-0.008": 0.0,
			"-0.007": 2.32825623366,
			"-0.006": 17.6001163589,
			"-0.005": 27.5930358638,
			"-0.004": 29.6481517176,
			"-0.003": 33.157901328,
			"-0.002": 27.7378326133,
			"-0.001": 28.0159788488,
			"0.0": 18.9360202067,
			"0.001": 18.2946318718,
			"0.002": 23.2498163952,
			"0.003": 22.0902394036,
			"0.004": 14.7695359607,
			"0.005": 12.9169954773,
			"0.006": 12.1072049715,
			"0.007": 3.96899807502,
			"0.008": 3.40500557697,
			"0.009": 3.71978037393,
			"0.01": 2.62271753492,
			"0.011": 3.8237940272,
			"0.012": 4.63150308685,
			"0.013": 1.60234093721,
			"0.014": 0.184973913006,
			"0.015": 0.0,
			"0.016": 0.0,
			"0.017": 0.0,
			"0.018": 0.0,
			"0.019": 0.0,
			"0.02": 0.0,
			"0.021": 0.0,
			"0.022": 0.0,
			"0.023": 0.0,
			"0.024": 0.0,
			"0.025": 0.0
		}
	}
}
