{
	 "smiles": "CC1=CC=CC=C1C=CC1=CC=CC=C1C", 
	 "Tm": 356.15, 
	 "num_atms": 32, 
	 "gaussian": { 
		 "optdone": 1, 
		 "sigma_profile": "yes", 
		 "theory": "DFT", 
		 "functional": "B3LYP", 
		 "basiset": "6-31G**", 
		 "properties": { 
			 "R2extent": 5329.299, 
			 "electric_dipole_moment_norm": 0.0, 
			 "electric_quadrupole_moment_norm": 9.1571498033, 
			 "total_energy": -619.351653111, 
			 "HOMO_LUMO_gap": 0.15528, 
			 "cosmo_polarized_energy": -6.35, 
			 "cosmo_cavitation_energy": 34.89, 
			 "cosmo_dispersion_energy": -24.83, 
			 "cosmo_repulsion_energy": 1.9, 
			 "cosmo_total_nonelectrostatic_energy": 11.96, 
			 "SMD_solvation_energy": 5.75 
		},
		"coords": [
			{
				"x": 3.158251975,
				"y": -1.1532208721,
				"z": -2.4224019521,
				"element": "C" 
			},
			{
				"x": 2.2496773271,
				"y": -2.2904074464,
				"z": -2.0116395293,
				"element": "C" 
			},
			{
				"x": 2.5628494934,
				"y": -3.5963757847,
				"z": -2.4046377531,
				"element": "C" 
			},
			{
				"x": 1.765859185,
				"y": -4.6822656384,
				"z": -2.0434616503,
				"element": "C" 
			},
			{
				"x": 0.6211414947,
				"y": -4.4669185589,
				"z": -1.2750356727,
				"element": "C" 
			},
			{
				"x": 0.2921798243,
				"y": -3.1753734644,
				"z": -0.8763949882,
				"element": "C" 
			},
			{
				"x": 1.0934310812,
				"y": -2.0698908797,
				"z": -1.2195945803,
				"element": "C" 
			},
			{
				"x": 0.7414496068,
				"y": -0.7100393509,
				"z": -0.7848745444,
				"element": "C" 
			},
			{
				"x": -0.032473483,
				"y": -0.3894957884,
				"z": 0.2728717912,
				"element": "C" 
			},
			{
				"x": -0.384452854,
				"y": 0.9703570484,
				"z": 0.7075901699,
				"element": "C" 
			},
			{
				"x": 0.4168112482,
				"y": 2.0758347819,
				"z": 0.364405856,
				"element": "C" 
			},
			{
				"x": 0.0878524476,
				"y": 3.367381261,
				"z": 0.76304535,
				"element": "C" 
			},
			{
				"x": -1.0568750416,
				"y": 3.5827336891,
				"z": 1.5314549996,
				"element": "C" 
			},
			{
				"x": -1.8538782566,
				"y": 2.4968481641,
				"z": 1.8926161843,
				"element": "C" 
			},
			{
				"x": -1.5407093199,
				"y": 1.1908790547,
				"z": 1.4996186767,
				"element": "C" 
			},
			{
				"x": -2.4492969274,
				"y": 0.0536966012,
				"z": 1.9103636595,
				"element": "C" 
			},
			{
				"x": 4.0187328338,
				"y": -1.5294126793,
				"z": -2.9818437146,
				"element": "H" 
			},
			{
				"x": 3.5391916193,
				"y": -0.6013916936,
				"z": -1.5557716689,
				"element": "H" 
			},
			{
				"x": 2.6431483042,
				"y": -0.4275052211,
				"z": -3.0638842287,
				"element": "H" 
			},
			{
				"x": 3.4539248538,
				"y": -3.7627189686,
				"z": -3.0050503925,
				"element": "H" 
			},
			{
				"x": 2.0325680504,
				"y": -5.6845287764,
				"z": -2.3661880794,
				"element": "H" 
			},
			{
				"x": -0.0196098315,
				"y": -5.2991021143,
				"z": -0.9976569268,
				"element": "H" 
			},
			{
				"x": -0.6184578582,
				"y": -3.0114404101,
				"z": -0.3083571883,
				"element": "H" 
			},
			{
				"x": 1.1510880468,
				"y": 0.0989833708,
				"z": -1.3842649274,
				"element": "H" 
			},
			{
				"x": -0.4421139758,
				"y": -1.1985172088,
				"z": 0.8722626796,
				"element": "H" 
			},
			{
				"x": 1.3274567204,
				"y": 1.9118966253,
				"z": -0.2036179948,
				"element": "H" 
			},
			{
				"x": 0.7286137218,
				"y": 4.1995611662,
				"z": 0.4856787245,
				"element": "H" 
			},
			{
				"x": -1.323581933,
				"y": 4.5849976621,
				"z": 1.8541806802,
				"element": "H" 
			},
			{
				"x": -2.7449614003,
				"y": 2.6631958941,
				"z": 2.4930159877,
				"element": "H" 
			},
			{
				"x": -3.3097882349,
				"y": 0.4298921966,
				"z": 2.4697866722,
				"element": "H" 
			},
			{
				"x": -2.8302196465,
				"y": -0.4981328819,
				"z": 1.0437262702,
				"element": "H" 
			},
			{
				"x": -1.9342090709,
				"y": -0.6720197775,
				"z": 2.5518580902,
				"element": "H" 
			}
		],
		 "valence_orbital": [ 
			{
				"type": "occ",
				"energy": -0.30046,
				"method": "rhf"
			},
			{
				"type": "occ",
				"energy": -0.25431,
				"method": "rhf"
			},
			{
				"type": "occ",
				"energy": -0.24069,
				"method": "rhf"
			},
			{
				"type": "occ",
				"energy": -0.23963,
				"method": "rhf"
			},
			{
				"type": "occ",
				"energy": -0.20188,
				"method": "rhf"
			},
			{
				"type": "unocc",
				"energy": -0.0466,
				"method": "rhf"
			},
			{
				"type": "unocc",
				"energy": 0.0052,
				"method": "rhf"
			},
			{
				"type": "unocc",
				"energy": 0.00536,
				"method": "rhf"
			},
			{
				"type": "unocc",
				"energy": 0.01561,
				"method": "rhf"
			},
			{
				"type": "unocc",
				"energy": 0.06932,
				"method": "rhf"
			}
		],
		"cosmo_sigma_profile": { 
			"-0.025": 0.0,
			"-0.024": 0.0,
			"-0.023": 0.0,
			"-0.022": 0.0,
			"-0.021": 0.0,
			"-0.02": 0.0,
			"-0.019": 0.0,
			"-0.018": 0.0,
			"-0.017": 0.0,
			"-0.016": 0.0,
			"-0.015": 0.0,
			"-0.014": 0.0,
			"-0.013": 0.0,
			"-0.012": 0.0,
			"-0.011": 0.0,
			"-0.01": 0.0,
			"-0.009": 0.0,
			"-0.008": 0.0,
			"-0.007": 0.000396060059352,
			"-0.006": 5.06504254174,
			"-0.005": 22.5902149779,
			"-0.004": 29.9033753942,
			"-0.003": 30.7852964595,
			"-0.002": 24.8719286733,
			"-0.001": 23.4886045943,
			"0.0": 24.3672425015,
			"0.001": 20.1092334997,
			"0.002": 15.266118196,
			"0.003": 17.6758191652,
			"0.004": 20.5625166615,
			"0.005": 21.7680223393,
			"0.006": 18.2694678541,
			"0.007": 2.92003501087,
			"0.008": 0.0,
			"0.009": 0.0,
			"0.01": 0.0,
			"0.011": 0.0,
			"0.012": 0.0,
			"0.013": 0.0,
			"0.014": 0.0,
			"0.015": 0.0,
			"0.016": 0.0,
			"0.017": 0.0,
			"0.018": 0.0,
			"0.019": 0.0,
			"0.02": 0.0,
			"0.021": 0.0,
			"0.022": 0.0,
			"0.023": 0.0,
			"0.024": 0.0,
			"0.025": 0.0
		}
	}
}
