{
	 "smiles": "ClC1=CC=CC(Cl)=C1C#N", 
	 "Tm": 417.15, 
	 "num_atms": 13, 
	 "gaussian": { 
		 "optdone": 1, 
		 "sigma_profile": "yes", 
		 "theory": "DFT", 
		 "functional": "B3LYP", 
		 "basiset": "6-31G**", 
		 "properties": { 
			 "R2extent": 2867.5083, 
			 "electric_dipole_moment_norm": 5.51489533808, 
			 "electric_quadrupole_moment_norm": 12.896793648, 
			 "total_energy": -1243.66354666, 
			 "HOMO_LUMO_gap": 0.19944, 
			 "cosmo_polarized_energy": -9.11, 
			 "cosmo_cavitation_energy": 22.21, 
			 "cosmo_dispersion_energy": -16.12, 
			 "cosmo_repulsion_energy": 1.31, 
			 "cosmo_total_nonelectrostatic_energy": 7.39, 
			 "SMD_solvation_energy": 4.53 
		},
		"coords": [
			{
				"x": 0.4872187849,
				"y": 3.6031947775,
				"z": -2.557005739,
				"element": "Cl" 
			},
			{
				"x": 0.7539589178,
				"y": 1.9180798875,
				"z": -2.199402814,
				"element": "C" 
			},
			{
				"x": 1.198510357,
				"y": 1.0727859177,
				"z": -3.2121777094,
				"element": "C" 
			},
			{
				"x": 1.4138395642,
				"y": -0.2759753027,
				"z": -2.9330600757,
				"element": "C" 
			},
			{
				"x": 1.1901136777,
				"y": -0.7874866112,
				"z": -1.6556713206,
				"element": "C" 
			},
			{
				"x": 0.7455898634,
				"y": 0.0626437949,
				"z": -0.6469458396,
				"element": "C" 
			},
			{
				"x": 0.4684370418,
				"y": -0.5851850862,
				"z": 0.9474841338,
				"element": "Cl" 
			},
			{
				"x": 0.5175759149,
				"y": 1.4331532223,
				"z": -0.8952205352,
				"element": "C" 
			},
			{
				"x": 0.0609143648,
				"y": 2.3039961369,
				"z": 0.1431370264,
				"element": "C" 
			},
			{
				"x": -0.3103107985,
				"y": 3.0119231506,
				"z": 0.987204452,
				"element": "N" 
			},
			{
				"x": 1.3715539981,
				"y": 1.4730957334,
				"z": -4.2041115206,
				"element": "H" 
			},
			{
				"x": 1.7604403309,
				"y": -0.9369492962,
				"z": -3.7211617174,
				"element": "H" 
			},
			{
				"x": 1.3566579831,
				"y": -1.8353763246,
				"z": -1.4358683408,
				"element": "H" 
			}
		],
		 "valence_orbital": [ 
			{
				"type": "occ",
				"energy": -0.34332,
				"method": "rhf"
			},
			{
				"type": "occ",
				"energy": -0.33974,
				"method": "rhf"
			},
			{
				"type": "occ",
				"energy": -0.3264,
				"method": "rhf"
			},
			{
				"type": "occ",
				"energy": -0.27901,
				"method": "rhf"
			},
			{
				"type": "occ",
				"energy": -0.27262,
				"method": "rhf"
			},
			{
				"type": "unocc",
				"energy": -0.07318,
				"method": "rhf"
			},
			{
				"type": "unocc",
				"energy": -0.04633,
				"method": "rhf"
			},
			{
				"type": "unocc",
				"energy": -0.01037,
				"method": "rhf"
			},
			{
				"type": "unocc",
				"energy": 0.02026,
				"method": "rhf"
			},
			{
				"type": "unocc",
				"energy": 0.03635,
				"method": "rhf"
			}
		],
		"cosmo_sigma_profile": { 
			"-0.025": 0.0,
			"-0.024": 0.0,
			"-0.023": 0.0,
			"-0.022": 0.0,
			"-0.021": 0.0,
			"-0.02": 0.0,
			"-0.019": 0.0,
			"-0.018": 0.0,
			"-0.017": 0.0,
			"-0.016": 0.0,
			"-0.015": 0.0,
			"-0.014": 0.0,
			"-0.013": 0.0,
			"-0.012": 0.0,
			"-0.011": 0.0,
			"-0.01": 0.00189780404284,
			"-0.009": 3.46832472262,
			"-0.008": 7.56404255623,
			"-0.007": 6.09035727264,
			"-0.006": 5.25509386433,
			"-0.005": 4.53692896827,
			"-0.004": 8.67192924329,
			"-0.003": 13.0590564784,
			"-0.002": 17.5269237596,
			"-0.001": 21.8575170754,
			"0.0": 18.1285480728,
			"0.001": 15.5268598917,
			"0.002": 16.0117392489,
			"0.003": 18.4329290672,
			"0.004": 5.32282459156,
			"0.005": 3.48552143444,
			"0.006": 2.90963650671,
			"0.007": 3.47659456163,
			"0.008": 3.18969077616,
			"0.009": 3.44604014908,
			"0.01": 2.52551951357,
			"0.011": 2.5691524736,
			"0.012": 1.78295697505,
			"0.013": 0.170966076815,
			"0.014": 0.0,
			"0.015": 0.0,
			"0.016": 0.0,
			"0.017": 0.0,
			"0.018": 0.0,
			"0.019": 0.0,
			"0.02": 0.0,
			"0.021": 0.0,
			"0.022": 0.0,
			"0.023": 0.0,
			"0.024": 0.0,
			"0.025": 0.0
		}
	}
}
