{
	 "smiles": "[O-][N+](=O)C1=CC=C(OCC#N)C=C1", 
	 "Tm": 348.15, 
	 "num_atms": 19, 
	 "gaussian": { 
		 "optdone": 1, 
		 "sigma_profile": "yes", 
		 "theory": "DFT", 
		 "functional": "B3LYP", 
		 "basiset": "6-31G**", 
		 "properties": { 
			 "R2extent": 3830.2501, 
			 "electric_dipole_moment_norm": 2.42386073239, 
			 "electric_quadrupole_moment_norm": 40.9867340752, 
			 "total_energy": -643.499565578, 
			 "HOMO_LUMO_gap": 0.17558, 
			 "cosmo_polarized_energy": -16.8, 
			 "cosmo_cavitation_energy": 25.91, 
			 "cosmo_dispersion_energy": -18.49, 
			 "cosmo_repulsion_energy": 1.46, 
			 "cosmo_total_nonelectrostatic_energy": 8.88, 
			 "SMD_solvation_energy": 8.68 
		},
		"coords": [
			{
				"x": 4.2231113064,
				"y": -1.7578453139,
				"z": 1.5756774349,
				"element": "O" 
			},
			{
				"x": 3.7276244821,
				"y": -0.7107655218,
				"z": 1.1573017453,
				"element": "N" 
			},
			{
				"x": 4.336048549,
				"y": 0.3522993016,
				"z": 1.0318950649,
				"element": "O" 
			},
			{
				"x": 2.3115318795,
				"y": -0.730636423,
				"z": 0.7810605607,
				"element": "C" 
			},
			{
				"x": 1.7152333305,
				"y": 0.4395128944,
				"z": 0.301851497,
				"element": "C" 
			},
			{
				"x": 0.3766796898,
				"y": 0.4163607529,
				"z": -0.0525361347,
				"element": "C" 
			},
			{
				"x": -0.3623637702,
				"y": -0.7722062143,
				"z": 0.0718668918,
				"element": "C" 
			},
			{
				"x": -1.670099095,
				"y": -0.6802837996,
				"z": -0.305440947,
				"element": "O" 
			},
			{
				"x": -2.477214116,
				"y": -1.8448694903,
				"z": -0.2056965412,
				"element": "C" 
			},
			{
				"x": -3.827986493,
				"y": -1.5023386441,
				"z": -0.6626706187,
				"element": "C" 
			},
			{
				"x": -4.9058475267,
				"y": -1.2659928277,
				"z": -1.0172306383,
				"element": "N" 
			},
			{
				"x": 0.2455059183,
				"y": -1.9399936023,
				"z": 0.5534972683,
				"element": "C" 
			},
			{
				"x": 1.5924965348,
				"y": -1.9143880336,
				"z": 0.9094917203,
				"element": "C" 
			},
			{
				"x": 2.3081315357,
				"y": 1.3414252065,
				"z": 0.2161041832,
				"element": "H" 
			},
			{
				"x": -0.123208946,
				"y": 1.302127525,
				"z": -0.4283161495,
				"element": "H" 
			},
			{
				"x": -2.0839957526,
				"y": -2.6575561982,
				"z": -0.8317959425,
				"element": "H" 
			},
			{
				"x": -2.5317132725,
				"y": -2.2048430383,
				"z": 0.8308987404,
				"element": "H" 
			},
			{
				"x": -0.3072118047,
				"y": -2.8658141021,
				"z": 0.6565513303,
				"element": "H" 
			},
			{
				"x": 2.0908775506,
				"y": -2.7994924712,
				"z": 1.2846905348,
				"element": "H" 
			}
		],
		 "valence_orbital": [ 
			{
				"type": "occ",
				"energy": -0.31303,
				"method": "rhf"
			},
			{
				"type": "occ",
				"energy": -0.31099,
				"method": "rhf"
			},
			{
				"type": "occ",
				"energy": -0.29405,
				"method": "rhf"
			},
			{
				"type": "occ",
				"energy": -0.29267,
				"method": "rhf"
			},
			{
				"type": "occ",
				"energy": -0.26735,
				"method": "rhf"
			},
			{
				"type": "unocc",
				"energy": -0.09177,
				"method": "rhf"
			},
			{
				"type": "unocc",
				"energy": -0.04148,
				"method": "rhf"
			},
			{
				"type": "unocc",
				"energy": -0.01502,
				"method": "rhf"
			},
			{
				"type": "unocc",
				"energy": -0.00253,
				"method": "rhf"
			},
			{
				"type": "unocc",
				"energy": 0.01509,
				"method": "rhf"
			}
		],
		"cosmo_sigma_profile": { 
			"-0.025": 0.0,
			"-0.024": 0.0,
			"-0.023": 0.0,
			"-0.022": 0.0,
			"-0.021": 0.0,
			"-0.02": 0.0,
			"-0.019": 0.0,
			"-0.018": 0.0,
			"-0.017": 0.0,
			"-0.016": 0.0,
			"-0.015": 0.0,
			"-0.014": 0.0,
			"-0.013": 0.0,
			"-0.012": 0.00208383379276,
			"-0.011": 6.05737907488,
			"-0.01": 9.30704288144,
			"-0.009": 6.13964514051,
			"-0.008": 6.99811738247,
			"-0.007": 7.69144892806,
			"-0.006": 8.84910456031,
			"-0.005": 8.7028529303,
			"-0.004": 8.06390694332,
			"-0.003": 9.09502084582,
			"-0.002": 10.0689779029,
			"-0.001": 13.6083272049,
			"0.0": 17.5184091113,
			"0.001": 18.4500001661,
			"0.002": 11.4790363783,
			"0.003": 6.00927545905,
			"0.004": 7.04020951457,
			"0.005": 6.40639207608,
			"0.006": 8.16167861082,
			"0.007": 9.30907127154,
			"0.008": 12.3703953478,
			"0.009": 7.50873748177,
			"0.01": 6.22515958247,
			"0.011": 2.90308631667,
			"0.012": 1.44469922735,
			"0.013": 0.0487940354743,
			"0.014": 0.0,
			"0.015": 0.0,
			"0.016": 0.0,
			"0.017": 0.0,
			"0.018": 0.0,
			"0.019": 0.0,
			"0.02": 0.0,
			"0.021": 0.0,
			"0.022": 0.0,
			"0.023": 0.0,
			"0.024": 0.0,
			"0.025": 0.0
		}
	}
}
