{
	 "smiles": "OC(=O)C1CCCCC1C(=O)C1=CC=C(Br)C=C1", 
	 "Tm": 446.15, 
	 "num_atms": 33, 
	 "gaussian": { 
		 "optdone": 1, 
		 "sigma_profile": "yes", 
		 "theory": "DFT", 
		 "functional": "B3LYP", 
		 "basiset": "6-31G**", 
		 "properties": { 
			 "R2extent": 10398.3933, 
			 "electric_dipole_moment_norm": 2.58399265285, 
			 "electric_quadrupole_moment_norm": 9.37313710078, 
			 "total_energy": -3339.63108894, 
			 "HOMO_LUMO_gap": 0.18522, 
			 "cosmo_polarized_energy": -11.77, 
			 "cosmo_cavitation_energy": 36.93, 
			 "cosmo_dispersion_energy": -26.74, 
			 "cosmo_repulsion_energy": 2.06, 
			 "cosmo_total_nonelectrostatic_energy": 12.24, 
			 "SMD_solvation_energy": 5.86 
		},
		"coords": [
			{
				"x": 0.6743372565,
				"y": 3.9965645831,
				"z": -2.0244990381,
				"element": "O" 
			},
			{
				"x": 0.0801356936,
				"y": 2.7837263867,
				"z": -2.0865037621,
				"element": "C" 
			},
			{
				"x": -0.4053655203,
				"y": 2.3616897881,
				"z": -3.1174338226,
				"element": "O" 
			},
			{
				"x": 0.1374473967,
				"y": 2.057557673,
				"z": -0.7490344413,
				"element": "C" 
			},
			{
				"x": -0.2620493496,
				"y": 2.9946768519,
				"z": 0.4228618402,
				"element": "C" 
			},
			{
				"x": -0.5286119232,
				"y": 2.1765431012,
				"z": 1.6902301961,
				"element": "C" 
			},
			{
				"x": -1.7717010735,
				"y": 1.2779824354,
				"z": 1.5208564734,
				"element": "C" 
			},
			{
				"x": -1.9857415119,
				"y": 0.8485050501,
				"z": 0.0509672751,
				"element": "C" 
			},
			{
				"x": -0.6933306936,
				"y": 0.7294103992,
				"z": -0.779458235,
				"element": "C" 
			},
			{
				"x": 0.1589161339,
				"y": -0.4684157155,
				"z": -0.3492181555,
				"element": "C" 
			},
			{
				"x": -0.0513512602,
				"y": -1.0493178556,
				"z": 0.7070351986,
				"element": "O" 
			},
			{
				"x": 1.2724427018,
				"y": -0.9413740171,
				"z": -1.2437185598,
				"element": "C" 
			},
			{
				"x": 2.1490192597,
				"y": -1.9116828316,
				"z": -0.7297510515,
				"element": "C" 
			},
			{
				"x": 3.1935450421,
				"y": -2.4139004631,
				"z": -1.4969314676,
				"element": "C" 
			},
			{
				"x": 3.3599137758,
				"y": -1.9446087326,
				"z": -2.8018121025,
				"element": "C" 
			},
			{
				"x": 4.7889901912,
				"y": -2.627531616,
				"z": -3.8668464284,
				"element": "Br" 
			},
			{
				"x": 2.5011011486,
				"y": -0.9888418205,
				"z": -3.3412323678,
				"element": "C" 
			},
			{
				"x": 1.4599883143,
				"y": -0.488017876,
				"z": -2.5592260659,
				"element": "C" 
			},
			{
				"x": 0.6083669203,
				"y": 4.3774946372,
				"z": -2.9165585034,
				"element": "H" 
			},
			{
				"x": 1.201069118,
				"y": 1.8163668135,
				"z": -0.6114196329,
				"element": "H" 
			},
			{
				"x": -1.1611341443,
				"y": 3.5648741609,
				"z": 0.15677374,
				"element": "H" 
			},
			{
				"x": 0.5339500505,
				"y": 3.7278350796,
				"z": 0.5774359576,
				"element": "H" 
			},
			{
				"x": 0.350635844,
				"y": 1.5562632104,
				"z": 1.9049781346,
				"element": "H" 
			},
			{
				"x": -0.6525464732,
				"y": 2.8445040604,
				"z": 2.5494949494,
				"element": "H" 
			},
			{
				"x": -2.6646022239,
				"y": 1.8185541728,
				"z": 1.8577460773,
				"element": "H" 
			},
			{
				"x": -1.6709335208,
				"y": 0.3944885098,
				"z": 2.1539191198,
				"element": "H" 
			},
			{
				"x": -2.5251392612,
				"y": -0.1025919473,
				"z": 0.0131910343,
				"element": "H" 
			},
			{
				"x": -2.6217723164,
				"y": 1.5830202782,
				"z": -0.4575332888,
				"element": "H" 
			},
			{
				"x": -0.9805983333,
				"y": 0.562771995,
				"z": -1.823064609,
				"element": "H" 
			},
			{
				"x": 1.9874649049,
				"y": -2.2636028005,
				"z": 0.2835673681,
				"element": "H" 
			},
			{
				"x": 3.8700769511,
				"y": -3.1596574993,
				"z": -1.0952897151,
				"element": "H" 
			},
			{
				"x": 2.6409956294,
				"y": -0.6420253737,
				"z": -4.3586048002,
				"element": "H" 
			},
			{
				"x": 0.7967812731,
				"y": 0.2519393624,
				"z": -2.9945213173,
				"element": "H" 
			}
		],
		 "valence_orbital": [ 
			{
				"type": "occ",
				"energy": -0.29321,
				"method": "rhf"
			},
			{
				"type": "occ",
				"energy": -0.28735,
				"method": "rhf"
			},
			{
				"type": "occ",
				"energy": -0.2711,
				"method": "rhf"
			},
			{
				"type": "occ",
				"energy": -0.25274,
				"method": "rhf"
			},
			{
				"type": "occ",
				"energy": -0.24875,
				"method": "rhf"
			},
			{
				"type": "unocc",
				"energy": -0.06353,
				"method": "rhf"
			},
			{
				"type": "unocc",
				"energy": -0.02104,
				"method": "rhf"
			},
			{
				"type": "unocc",
				"energy": -0.00524,
				"method": "rhf"
			},
			{
				"type": "unocc",
				"energy": 0.0024,
				"method": "rhf"
			},
			{
				"type": "unocc",
				"energy": 0.02667,
				"method": "rhf"
			}
		],
		"cosmo_sigma_profile": { 
			"-0.025": 0.0,
			"-0.024": 0.0,
			"-0.023": 0.0,
			"-0.022": 0.0,
			"-0.021": 0.0,
			"-0.02": 0.0,
			"-0.019": 0.0751949059544,
			"-0.018": 0.891281388986,
			"-0.017": 0.952933470463,
			"-0.016": 0.87406015078,
			"-0.015": 0.490743742208,
			"-0.014": 1.18709767428,
			"-0.013": 0.491292650333,
			"-0.012": 0.262850645504,
			"-0.011": 0.813570338455,
			"-0.01": 0.7263141913,
			"-0.009": 0.70416396508,
			"-0.008": 1.52323282982,
			"-0.007": 5.25600886705,
			"-0.006": 9.833048917,
			"-0.005": 14.458143221,
			"-0.004": 15.3331573302,
			"-0.003": 24.9572389441,
			"-0.002": 28.3815150334,
			"-0.001": 29.9940851565,
			"0.0": 28.9797230725,
			"0.001": 31.347662174,
			"0.002": 27.1639393676,
			"0.003": 16.7414009228,
			"0.004": 16.5008306057,
			"0.005": 6.04503158583,
			"0.006": 4.4902211512,
			"0.007": 4.26218584276,
			"0.008": 5.25510538661,
			"0.009": 3.38039192899,
			"0.01": 4.07296139886,
			"0.011": 6.1813302512,
			"0.012": 2.97184047748,
			"0.013": 0.0,
			"0.014": 0.0,
			"0.015": 0.0,
			"0.016": 0.0,
			"0.017": 0.0,
			"0.018": 0.0,
			"0.019": 0.0,
			"0.02": 0.0,
			"0.021": 0.0,
			"0.022": 0.0,
			"0.023": 0.0,
			"0.024": 0.0,
			"0.025": 0.0
		}
	}
}
