{
	 "smiles": "ON=C(CC1=CC=CC=C1)C1=CC=CC2=C1C=CC=C2", 
	 "Tm": 423.15, 
	 "num_atms": 35, 
	 "gaussian": { 
		 "optdone": 1, 
		 "sigma_profile": "yes", 
		 "theory": "DFT", 
		 "functional": "B3LYP", 
		 "basiset": "6-31G**", 
		 "properties": { 
			 "R2extent": 6042.3379, 
			 "electric_dipole_moment_norm": 0.475039672028, 
			 "electric_quadrupole_moment_norm": 11.5859145543, 
			 "total_energy": -824.885992802, 
			 "HOMO_LUMO_gap": 0.17175, 
			 "cosmo_polarized_energy": -11.16, 
			 "cosmo_cavitation_energy": 38.75, 
			 "cosmo_dispersion_energy": -26.6, 
			 "cosmo_repulsion_energy": 2.05, 
			 "cosmo_total_nonelectrostatic_energy": 14.2, 
			 "SMD_solvation_energy": 5.88 
		},
		"coords": [
			{
				"x": 0.6744674228,
				"y": 3.3203406338,
				"z": 0.7320112545,
				"element": "O" 
			},
			{
				"x": -0.1792219239,
				"y": 2.2439206888,
				"z": 0.3980794815,
				"element": "N" 
			},
			{
				"x": 0.3633072101,
				"y": 1.103326357,
				"z": 0.6286059755,
				"element": "C" 
			},
			{
				"x": 1.7670930936,
				"y": 0.8979002373,
				"z": 1.1810105719,
				"element": "C" 
			},
			{
				"x": 2.788941933,
				"y": 0.6906938891,
				"z": 0.0717609451,
				"element": "C" 
			},
			{
				"x": 3.2128708959,
				"y": 1.7691844105,
				"z": -0.7192589493,
				"element": "C" 
			},
			{
				"x": 4.1459752161,
				"y": 1.5768217079,
				"z": -1.7377793067,
				"element": "C" 
			},
			{
				"x": 4.6685080618,
				"y": 0.3047147512,
				"z": -1.9844087848,
				"element": "C" 
			},
			{
				"x": 4.2494572061,
				"y": -0.7742113286,
				"z": -1.2055667388,
				"element": "C" 
			},
			{
				"x": 3.3148254058,
				"y": -0.5809029323,
				"z": -0.1860341073,
				"element": "C" 
			},
			{
				"x": -0.440748832,
				"y": -0.088198547,
				"z": 0.2215537177,
				"element": "C" 
			},
			{
				"x": -0.6875118626,
				"y": -0.3042735744,
				"z": -1.1213309737,
				"element": "C" 
			},
			{
				"x": -1.3868516815,
				"y": -1.451430211,
				"z": -1.5631593486,
				"element": "C" 
			},
			{
				"x": -1.834678445,
				"y": -2.380893505,
				"z": -0.6544886618,
				"element": "C" 
			},
			{
				"x": -1.625160887,
				"y": -2.1920117555,
				"z": 0.7382071904,
				"element": "C" 
			},
			{
				"x": -0.9289373373,
				"y": -1.0229490377,
				"z": 1.1929301191,
				"element": "C" 
			},
			{
				"x": -0.7834912238,
				"y": -0.8275945725,
				"z": 2.5945267578,
				"element": "C" 
			},
			{
				"x": -1.2656021922,
				"y": -1.7511753138,
				"z": 3.495832872,
				"element": "C" 
			},
			{
				"x": -1.9263600055,
				"y": -2.9179198651,
				"z": 3.0434025484,
				"element": "C" 
			},
			{
				"x": -2.1057712776,
				"y": -3.1265402832,
				"z": 1.6950108129,
				"element": "C" 
			},
			{
				"x": 0.1093283063,
				"y": 4.0819816836,
				"z": 0.5480243836,
				"element": "H" 
			},
			{
				"x": 1.7620557671,
				"y": 0.0186208743,
				"z": 1.830374667,
				"element": "H" 
			},
			{
				"x": 2.0370293439,
				"y": 1.7685235637,
				"z": 1.7841662394,
				"element": "H" 
			},
			{
				"x": 2.8004249822,
				"y": 2.7555365348,
				"z": -0.5297875138,
				"element": "H" 
			},
			{
				"x": 4.4678537997,
				"y": 2.4225910439,
				"z": -2.3394027438,
				"element": "H" 
			},
			{
				"x": 5.3969886655,
				"y": 0.1568993455,
				"z": -2.7766325114,
				"element": "H" 
			},
			{
				"x": 4.6493895433,
				"y": -1.767686987,
				"z": -1.3888699146,
				"element": "H" 
			},
			{
				"x": 2.9926439123,
				"y": -1.4257471887,
				"z": 0.4175224572,
				"element": "H" 
			},
			{
				"x": -0.3192995284,
				"y": 0.4152488724,
				"z": -1.8451702464,
				"element": "H" 
			},
			{
				"x": -1.5573911538,
				"y": -1.5961810649,
				"z": -2.6258678427,
				"element": "H" 
			},
			{
				"x": -2.3627279297,
				"y": -3.2708002979,
				"z": -0.9873921425,
				"element": "H" 
			},
			{
				"x": -0.3062029006,
				"y": 0.0775313573,
				"z": 2.9564445764,
				"element": "H" 
			},
			{
				"x": -1.1465902879,
				"y": -1.5796594705,
				"z": 4.5617936383,
				"element": "H" 
			},
			{
				"x": -2.3006858762,
				"y": -3.6398494302,
				"z": 3.7633417663,
				"element": "H" 
			},
			{
				"x": -2.6276274203,
				"y": -4.0114105858,
				"z": 1.3393498112,
				"element": "H" 
			}
		],
		 "valence_orbital": [ 
			{
				"type": "occ",
				"energy": -0.2529,
				"method": "rhf"
			},
			{
				"type": "occ",
				"energy": -0.24442,
				"method": "rhf"
			},
			{
				"type": "occ",
				"energy": -0.24347,
				"method": "rhf"
			},
			{
				"type": "occ",
				"energy": -0.23391,
				"method": "rhf"
			},
			{
				"type": "occ",
				"energy": -0.21488,
				"method": "rhf"
			},
			{
				"type": "unocc",
				"energy": -0.04313,
				"method": "rhf"
			},
			{
				"type": "unocc",
				"energy": -0.0122,
				"method": "rhf"
			},
			{
				"type": "unocc",
				"energy": -0.00602,
				"method": "rhf"
			},
			{
				"type": "unocc",
				"energy": 0.00397,
				"method": "rhf"
			},
			{
				"type": "unocc",
				"energy": 0.01279,
				"method": "rhf"
			}
		],
		"cosmo_sigma_profile": { 
			"-0.025": 0.0,
			"-0.024": 0.0,
			"-0.023": 0.0,
			"-0.022": 0.0,
			"-0.021": 0.0,
			"-0.02": 0.0,
			"-0.019": 0.0,
			"-0.018": 0.0404799306971,
			"-0.017": 0.698240160216,
			"-0.016": 1.15566620243,
			"-0.015": 1.05707307926,
			"-0.014": 0.445467652082,
			"-0.013": 0.848225375844,
			"-0.012": 0.930409471086,
			"-0.011": 0.367319556072,
			"-0.01": 0.761326584336,
			"-0.009": 0.877071553409,
			"-0.008": 0.435286236841,
			"-0.007": 0.971803844744,
			"-0.006": 15.5572480534,
			"-0.005": 25.0510533662,
			"-0.004": 27.4433783047,
			"-0.003": 28.4013634163,
			"-0.002": 19.5060145684,
			"-0.001": 19.1223435444,
			"0.0": 17.3037862792,
			"0.001": 19.2103539122,
			"0.002": 20.103915286,
			"0.003": 28.2692241226,
			"0.004": 35.0585654395,
			"0.005": 22.8279102697,
			"0.006": 11.5157966758,
			"0.007": 3.45604632398,
			"0.008": 2.57636651225,
			"0.009": 1.94938244144,
			"0.01": 0.98912365487,
			"0.011": 1.12706065724,
			"0.012": 0.912469048472,
			"0.013": 0.577530384819,
			"0.014": 0.421786613496,
			"0.015": 0.0,
			"0.016": 0.0,
			"0.017": 0.0,
			"0.018": 0.0,
			"0.019": 0.0,
			"0.02": 0.0,
			"0.021": 0.0,
			"0.022": 0.0,
			"0.023": 0.0,
			"0.024": 0.0,
			"0.025": 0.0
		}
	}
}
