{
	 "smiles": "COC1=C(NC(=O)C2CCC2)C=C(Br)C=C1", 
	 "Tm": 358.15, 
	 "num_atms": 30, 
	 "gaussian": { 
		 "optdone": 1, 
		 "sigma_profile": "yes", 
		 "theory": "DFT", 
		 "functional": "B3LYP", 
		 "basiset": "6-31G**", 
		 "properties": { 
			 "R2extent": 9087.9258, 
			 "electric_dipole_moment_norm": 2.19543289125, 
			 "electric_quadrupole_moment_norm": 14.0160765313, 
			 "total_energy": -3242.29127003, 
			 "HOMO_LUMO_gap": 0.19992, 
			 "cosmo_polarized_energy": -13.28, 
			 "cosmo_cavitation_energy": 35.37, 
			 "cosmo_dispersion_energy": -25.3, 
			 "cosmo_repulsion_energy": 1.99, 
			 "cosmo_total_nonelectrostatic_energy": 12.06, 
			 "SMD_solvation_energy": 5.43 
		},
		"coords": [
			{
				"x": 1.4813542361,
				"y": -1.2320335299,
				"z": 1.6180256518,
				"element": "C" 
			},
			{
				"x": 0.082324162,
				"y": -0.9867851214,
				"z": 1.4587627382,
				"element": "O" 
			},
			{
				"x": -0.4764547005,
				"y": -0.0422244728,
				"z": 2.2671377201,
				"element": "C" 
			},
			{
				"x": -1.2979138285,
				"y": 0.9373451085,
				"z": 1.6718799778,
				"element": "C" 
			},
			{
				"x": -1.4513665452,
				"y": 0.9970454548,
				"z": 0.265876073,
				"element": "N" 
			},
			{
				"x": -0.4059935482,
				"y": 1.0988636589,
				"z": -0.6310710813,
				"element": "C" 
			},
			{
				"x": 0.7637148661,
				"y": 1.1772791691,
				"z": -0.2813556062,
				"element": "O" 
			},
			{
				"x": -0.8311400904,
				"y": 1.0471687359,
				"z": -2.0888435823,
				"element": "C" 
			},
			{
				"x": -0.5302517711,
				"y": -0.3575087896,
				"z": -2.7216930428,
				"element": "C" 
			},
			{
				"x": 0.7529641544,
				"y": 0.2343668663,
				"z": -3.3616191316,
				"element": "C" 
			},
			{
				"x": 0.2210994256,
				"y": 1.6595769807,
				"z": -3.0551495741,
				"element": "C" 
			},
			{
				"x": -1.9960121102,
				"y": 1.8409803391,
				"z": 2.4786107812,
				"element": "C" 
			},
			{
				"x": -1.8610146006,
				"y": 1.7874459427,
				"z": 3.862548292,
				"element": "C" 
			},
			{
				"x": -2.8284355522,
				"y": 3.0288286713,
				"z": 4.9487471587,
				"element": "Br" 
			},
			{
				"x": -1.0186630511,
				"y": 0.8549314448,
				"z": 4.4620688368,
				"element": "C" 
			},
			{
				"x": -0.3293575668,
				"y": -0.0519964274,
				"z": 3.6582978838,
				"element": "C" 
			},
			{
				"x": 1.7493880557,
				"y": -1.9507107558,
				"z": 0.8418704149,
				"element": "H" 
			},
			{
				"x": 2.045644665,
				"y": -0.307172767,
				"z": 1.4698808456,
				"element": "H" 
			},
			{
				"x": 1.7138425054,
				"y": -1.668929369,
				"z": 2.5967516884,
				"element": "H" 
			},
			{
				"x": -2.3906141659,
				"y": 1.0785126127,
				"z": -0.0951676717,
				"element": "H" 
			},
			{
				"x": -1.8621079715,
				"y": 1.39953612,
				"z": -2.2080035247,
				"element": "H" 
			},
			{
				"x": -1.2880915862,
				"y": -0.6260465334,
				"z": -3.4634468223,
				"element": "H" 
			},
			{
				"x": -0.4111614405,
				"y": -1.1905686425,
				"z": -2.0235066705,
				"element": "H" 
			},
			{
				"x": 0.9445389829,
				"y": -0.0162635473,
				"z": -4.4087559139,
				"element": "H" 
			},
			{
				"x": 1.6427843393,
				"y": 0.0062629345,
				"z": -2.771092641,
				"element": "H" 
			},
			{
				"x": 0.9261258648,
				"y": 2.3581005127,
				"z": -2.6003489414,
				"element": "H" 
			},
			{
				"x": -0.2545092259,
				"y": 2.1301011447,
				"z": -3.9204325107,
				"element": "H" 
			},
			{
				"x": -2.6222140514,
				"y": 2.596560019,
				"z": 2.0170483845,
				"element": "H" 
			},
			{
				"x": -0.9103868912,
				"y": 0.8262417121,
				"z": 5.5400592076,
				"element": "H" 
			},
			{
				"x": 0.3022074402,
				"y": -0.8016074716,
				"z": 4.12272106,
				"element": "H" 
			}
		],
		 "valence_orbital": [ 
			{
				"type": "occ",
				"energy": -0.28513,
				"method": "rhf"
			},
			{
				"type": "occ",
				"energy": -0.28203,
				"method": "rhf"
			},
			{
				"type": "occ",
				"energy": -0.25036,
				"method": "rhf"
			},
			{
				"type": "occ",
				"energy": -0.2448,
				"method": "rhf"
			},
			{
				"type": "occ",
				"energy": -0.22113,
				"method": "rhf"
			},
			{
				"type": "unocc",
				"energy": -0.02121,
				"method": "rhf"
			},
			{
				"type": "unocc",
				"energy": -0.00756,
				"method": "rhf"
			},
			{
				"type": "unocc",
				"energy": 0.0072,
				"method": "rhf"
			},
			{
				"type": "unocc",
				"energy": 0.02975,
				"method": "rhf"
			},
			{
				"type": "unocc",
				"energy": 0.06917,
				"method": "rhf"
			}
		],
		"cosmo_sigma_profile": { 
			"-0.025": 0.0,
			"-0.024": 0.0,
			"-0.023": 0.0,
			"-0.022": 0.0,
			"-0.021": 0.0,
			"-0.02": 0.0,
			"-0.019": 0.0,
			"-0.018": 0.0,
			"-0.017": 0.0,
			"-0.016": 0.00109028279004,
			"-0.015": 0.740194495725,
			"-0.014": 1.19409839506,
			"-0.013": 1.52836978161,
			"-0.012": 1.08750125622,
			"-0.011": 1.42944139125,
			"-0.01": 1.69451596158,
			"-0.009": 1.88426339521,
			"-0.008": 3.29871853119,
			"-0.007": 6.98096790592,
			"-0.006": 8.25305240471,
			"-0.005": 11.0702960604,
			"-0.004": 14.8808725005,
			"-0.003": 25.3576036367,
			"-0.002": 28.3347660518,
			"-0.001": 23.1665133902,
			"0.0": 26.1454820091,
			"0.001": 24.3273679614,
			"0.002": 24.2090805292,
			"0.003": 22.0694678667,
			"0.004": 17.1386338041,
			"0.005": 11.5666078531,
			"0.006": 4.37409757586,
			"0.007": 4.68252497973,
			"0.008": 4.00064783486,
			"0.009": 2.83367173455,
			"0.01": 3.1480098117,
			"0.011": 1.95027840155,
			"0.012": 1.96196278715,
			"0.013": 2.31979692779,
			"0.014": 1.23597983131,
			"0.015": 0.0,
			"0.016": 0.0,
			"0.017": 0.0,
			"0.018": 0.0,
			"0.019": 0.0,
			"0.02": 0.0,
			"0.021": 0.0,
			"0.022": 0.0,
			"0.023": 0.0,
			"0.024": 0.0,
			"0.025": 0.0
		}
	}
}
