{
	 "smiles": "CC1=CC=C(C=C1)S(=O)(=O)N1CCCCC1C(O)=O", 
	 "Tm": 374.15, 
	 "num_atms": 36, 
	 "gaussian": { 
		 "optdone": 1, 
		 "sigma_profile": "yes", 
		 "theory": "DFT", 
		 "functional": "B3LYP", 
		 "basiset": "6-31G**", 
		 "properties": { 
			 "R2extent": 6448.7414, 
			 "electric_dipole_moment_norm": 6.56183472666, 
			 "electric_quadrupole_moment_norm": 22.7539165679, 
			 "total_energy": -1259.41357202, 
			 "HOMO_LUMO_gap": 0.20802, 
			 "cosmo_polarized_energy": -20.26, 
			 "cosmo_cavitation_energy": 39.08, 
			 "cosmo_dispersion_energy": -27.34, 
			 "cosmo_repulsion_energy": 2.08, 
			 "cosmo_total_nonelectrostatic_energy": 13.82, 
			 "SMD_solvation_energy": 6.03 
		},
		"coords": [
			{
				"x": 2.7246530762,
				"y": -3.4340330832,
				"z": -2.7252837363,
				"element": "C" 
			},
			{
				"x": 1.5155745461,
				"y": -2.5863420877,
				"z": -2.4106576325,
				"element": "C" 
			},
			{
				"x": 0.4574654644,
				"y": -3.0961639902,
				"z": -1.6459535684,
				"element": "C" 
			},
			{
				"x": -0.6513125995,
				"y": -2.3109283347,
				"z": -1.3316567416,
				"element": "C" 
			},
			{
				"x": -0.70507977,
				"y": -0.9919736948,
				"z": -1.7878793252,
				"element": "C" 
			},
			{
				"x": 0.3291351154,
				"y": -0.4642952822,
				"z": -2.566704197,
				"element": "C" 
			},
			{
				"x": 1.4287723936,
				"y": -1.2632912075,
				"z": -2.8703570095,
				"element": "C" 
			},
			{
				"x": -2.1038392465,
				"y": 0.0464547756,
				"z": -1.3469258477,
				"element": "S" 
			},
			{
				"x": -3.1821663529,
				"y": -0.8475039403,
				"z": -0.9147763617,
				"element": "O" 
			},
			{
				"x": -2.2711650376,
				"y": 1.0282066571,
				"z": -2.4200871218,
				"element": "O" 
			},
			{
				"x": -1.6409203673,
				"y": 0.8959151458,
				"z": 0.0174753537,
				"element": "N" 
			},
			{
				"x": -0.8109561615,
				"y": 2.1056327924,
				"z": -0.1128931308,
				"element": "C" 
			},
			{
				"x": -1.0203956414,
				"y": 2.9870062413,
				"z": 1.1207496706,
				"element": "C" 
			},
			{
				"x": -0.6316852238,
				"y": 2.2547751133,
				"z": 2.4296534683,
				"element": "C" 
			},
			{
				"x": -0.6243160877,
				"y": 0.7228987171,
				"z": 2.2541968016,
				"element": "C" 
			},
			{
				"x": -1.7410305028,
				"y": 0.2202747783,
				"z": 1.3130569817,
				"element": "C" 
			},
			{
				"x": -3.1162197939,
				"y": 0.4478233641,
				"z": 1.9514186695,
				"element": "C" 
			},
			{
				"x": -3.4295160011,
				"y": -0.5830750169,
				"z": 2.771818332,
				"element": "O" 
			},
			{
				"x": -3.8198761557,
				"y": 1.4206187195,
				"z": 1.8148105295,
				"element": "O" 
			},
			{
				"x": 3.1231564849,
				"y": -3.2093316833,
				"z": -3.7191648313,
				"element": "H" 
			},
			{
				"x": 2.4871679362,
				"y": -4.5007691434,
				"z": -2.6864660302,
				"element": "H" 
			},
			{
				"x": 3.5307161284,
				"y": -3.2513816017,
				"z": -2.0036369578,
				"element": "H" 
			},
			{
				"x": 0.4949746371,
				"y": -4.1262269324,
				"z": -1.3011772336,
				"element": "H" 
			},
			{
				"x": -1.4835703698,
				"y": -2.7188671874,
				"z": -0.7685396713,
				"element": "H" 
			},
			{
				"x": 0.2533325285,
				"y": 0.5466551881,
				"z": -2.9522990146,
				"element": "H" 
			},
			{
				"x": 2.2281833582,
				"y": -0.8577065161,
				"z": -3.4851750638,
				"element": "H" 
			},
			{
				"x": -1.1343588275,
				"y": 2.6269924057,
				"z": -1.014533912,
				"element": "H" 
			},
			{
				"x": 0.2537151184,
				"y": 1.8472184027,
				"z": -0.2325928535,
				"element": "H" 
			},
			{
				"x": -0.439825348,
				"y": 3.9079888438,
				"z": 1.0030327808,
				"element": "H" 
			},
			{
				"x": -2.0781821348,
				"y": 3.2601089028,
				"z": 1.1526792377,
				"element": "H" 
			},
			{
				"x": -1.3320244306,
				"y": 2.537058311,
				"z": 3.2221166074,
				"element": "H" 
			},
			{
				"x": 0.3622181164,
				"y": 2.5672245854,
				"z": 2.7682816104,
				"element": "H" 
			},
			{
				"x": 0.32792787,
				"y": 0.3973581348,
				"z": 1.8211611296,
				"element": "H" 
			},
			{
				"x": -0.721204931,
				"y": 0.2148155553,
				"z": 3.2184957132,
				"element": "H" 
			},
			{
				"x": -1.6244601487,
				"y": -0.8599747089,
				"z": 1.1882892736,
				"element": "H" 
			},
			{
				"x": -4.2908876419,
				"y": -0.3654622234,
				"z": 3.1662240809,
				"element": "H" 
			}
		],
		 "valence_orbital": [ 
			{
				"type": "occ",
				"energy": -0.29679,
				"method": "rhf"
			},
			{
				"type": "occ",
				"energy": -0.27979,
				"method": "rhf"
			},
			{
				"type": "occ",
				"energy": -0.26827,
				"method": "rhf"
			},
			{
				"type": "occ",
				"energy": -0.26662,
				"method": "rhf"
			},
			{
				"type": "occ",
				"energy": -0.24128,
				"method": "rhf"
			},
			{
				"type": "unocc",
				"energy": -0.03326,
				"method": "rhf"
			},
			{
				"type": "unocc",
				"energy": -0.02086,
				"method": "rhf"
			},
			{
				"type": "unocc",
				"energy": 0.00688,
				"method": "rhf"
			},
			{
				"type": "unocc",
				"energy": 0.06028,
				"method": "rhf"
			},
			{
				"type": "unocc",
				"energy": 0.07102,
				"method": "rhf"
			}
		],
		"cosmo_sigma_profile": { 
			"-0.025": 0.0,
			"-0.024": 0.0,
			"-0.023": 0.0,
			"-0.022": 0.0,
			"-0.021": 0.0,
			"-0.02": 0.0,
			"-0.019": 0.217276007732,
			"-0.018": 0.872207504417,
			"-0.017": 0.866492421702,
			"-0.016": 0.944352064216,
			"-0.015": 0.754204371401,
			"-0.014": 0.916156999688,
			"-0.013": 0.211723197844,
			"-0.012": 0.733478850287,
			"-0.011": 0.988271191729,
			"-0.01": 0.415761510409,
			"-0.009": 0.531495197021,
			"-0.008": 0.80438073739,
			"-0.007": 3.3561085172,
			"-0.006": 11.3144260812,
			"-0.005": 21.2717846991,
			"-0.004": 33.2002142558,
			"-0.003": 34.8736660926,
			"-0.002": 32.6941922414,
			"-0.001": 28.4585753329,
			"0.0": 22.228446302,
			"0.001": 13.4163773222,
			"0.002": 12.4602778989,
			"0.003": 16.0441994414,
			"0.004": 11.0618778714,
			"0.005": 6.21657759159,
			"0.006": 6.53323238202,
			"0.007": 7.04327008449,
			"0.008": 6.72796076763,
			"0.009": 6.95306895138,
			"0.01": 9.29456193038,
			"0.011": 11.0766697812,
			"0.012": 4.91555443256,
			"0.013": 0.0,
			"0.014": 0.0,
			"0.015": 0.0,
			"0.016": 0.0,
			"0.017": 0.0,
			"0.018": 0.0,
			"0.019": 0.0,
			"0.02": 0.0,
			"0.021": 0.0,
			"0.022": 0.0,
			"0.023": 0.0,
			"0.024": 0.0,
			"0.0": 0.0
		}
	}
}
