{
	 "smiles": "NC1=CC=C(OC2=C3C=CC=CC3=NC=C2)C=C1", 
	 "Tm": 409.15, 
	 "num_atms": 30, 
	 "gaussian": { 
		 "optdone": 1, 
		 "sigma_profile": "yes", 
		 "theory": "DFT", 
		 "functional": "B3LYP", 
		 "basiset": "6-31G**", 
		 "properties": { 
			 "R2extent": 6637.7847, 
			 "electric_dipole_moment_norm": 4.35966387925, 
			 "electric_quadrupole_moment_norm": 19.2123717836, 
			 "total_energy": -763.556993291, 
			 "HOMO_LUMO_gap": 0.17282, 
			 "cosmo_polarized_energy": -13.44, 
			 "cosmo_cavitation_energy": 34.5, 
			 "cosmo_dispersion_energy": -25.07, 
			 "cosmo_repulsion_energy": 1.92, 
			 "cosmo_total_nonelectrostatic_energy": 11.35, 
			 "SMD_solvation_energy": 4.31 
		},
		"coords": [
			{
				"x": 0.6833548398,
				"y": 3.8612246951,
				"z": 2.1125954369,
				"element": "N" 
			},
			{
				"x": 0.3669262841,
				"y": 2.8319755949,
				"z": 1.2248706671,
				"element": "C" 
			},
			{
				"x": 1.3812369766,
				"y": 2.0806744684,
				"z": 0.6043946567,
				"element": "C" 
			},
			{
				"x": 1.0687080149,
				"y": 1.0936336156,
				"z": -0.3267542121,
				"element": "C" 
			},
			{
				"x": -0.2634114669,
				"y": 0.8428144073,
				"z": -0.6497452654,
				"element": "C" 
			},
			{
				"x": -0.572614903,
				"y": -0.0923460036,
				"z": -1.6389908632,
				"element": "O" 
			},
			{
				"x": -0.7953561726,
				"y": -1.3935232833,
				"z": -1.2897589789,
				"element": "C" 
			},
			{
				"x": -1.1038636453,
				"y": -2.2799149235,
				"z": -2.3657014351,
				"element": "C" 
			},
			{
				"x": -1.1804920796,
				"y": -1.8609466317,
				"z": -3.7179263792,
				"element": "C" 
			},
			{
				"x": -1.4834674426,
				"y": -2.7704430868,
				"z": -4.7081323423,
				"element": "C" 
			},
			{
				"x": -1.7202848515,
				"y": -4.1282076008,
				"z": -4.3849309714,
				"element": "C" 
			},
			{
				"x": -1.651230085,
				"y": -4.5578628132,
				"z": -3.0780598091,
				"element": "C" 
			},
			{
				"x": -1.3419559183,
				"y": -3.6500534625,
				"z": -2.0311094951,
				"element": "C" 
			},
			{
				"x": -1.2864772034,
				"y": -4.1294377753,
				"z": -0.7512512514,
				"element": "N" 
			},
			{
				"x": -0.9975118589,
				"y": -3.2629528646,
				"z": 0.1978834922,
				"element": "C" 
			},
			{
				"x": -0.7417910991,
				"y": -1.8855009125,
				"z": -0.0024386751,
				"element": "C" 
			},
			{
				"x": -1.2838495679,
				"y": 1.5774259309,
				"z": -0.0491014841,
				"element": "C" 
			},
			{
				"x": -0.9706241878,
				"y": 2.5643527314,
				"z": 0.8819484947,
				"element": "C" 
			},
			{
				"x": 1.5805487172,
				"y": 3.776987036,
				"z": 2.569871293,
				"element": "H" 
			},
			{
				"x": -0.0489753731,
				"y": 4.1120975468,
				"z": 2.7621392485,
				"element": "H" 
			},
			{
				"x": 2.421536471,
				"y": 2.2796651668,
				"z": 0.848577611,
				"element": "H" 
			},
			{
				"x": 1.8529265997,
				"y": 0.5192630531,
				"z": -0.8094084935,
				"element": "H" 
			},
			{
				"x": -0.9973377321,
				"y": -0.8187788353,
				"z": -3.9548052189,
				"element": "H" 
			},
			{
				"x": -1.5413946151,
				"y": -2.4458774587,
				"z": -5.7430133258,
				"element": "H" 
			},
			{
				"x": -1.958016104,
				"y": -4.8335998142,
				"z": -5.1762564549,
				"element": "H" 
			},
			{
				"x": -1.8284505505,
				"y": -5.5927173804,
				"z": -2.8039672105,
				"element": "H" 
			},
			{
				"x": -0.9560624129,
				"y": -3.6559098508,
				"z": 1.2138122329,
				"element": "H" 
			},
			{
				"x": -0.511154902,
				"y": -1.2427858149,
				"z": 0.8379769919,
				"element": "H" 
			},
			{
				"x": -2.3161159608,
				"y": 1.3766614634,
				"z": -0.3173867837,
				"element": "H" 
			},
			{
				"x": -1.7680997709,
				"y": 3.1412828021,
				"z": 1.3430685249,
				"element": "H" 
			}
		],
		 "valence_orbital": [ 
			{
				"type": "occ",
				"energy": -0.25987,
				"method": "rhf"
			},
			{
				"type": "occ",
				"energy": -0.24531,
				"method": "rhf"
			},
			{
				"type": "occ",
				"energy": -0.24348,
				"method": "rhf"
			},
			{
				"type": "occ",
				"energy": -0.21551,
				"method": "rhf"
			},
			{
				"type": "occ",
				"energy": -0.2095,
				"method": "rhf"
			},
			{
				"type": "unocc",
				"energy": -0.03668,
				"method": "rhf"
			},
			{
				"type": "unocc",
				"energy": -0.01415,
				"method": "rhf"
			},
			{
				"type": "unocc",
				"energy": -0.00413,
				"method": "rhf"
			},
			{
				"type": "unocc",
				"energy": 0.00837,
				"method": "rhf"
			},
			{
				"type": "unocc",
				"energy": 0.03652,
				"method": "rhf"
			}
		],
		"cosmo_sigma_profile": { 
			"-0.025": 0.0,
			"-0.024": 0.0,
			"-0.023": 0.0,
			"-0.022": 0.0,
			"-0.021": 0.0,
			"-0.02": 0.0,
			"-0.019": 0.0,
			"-0.018": 0.0,
			"-0.017": 0.0,
			"-0.016": 0.0,
			"-0.015": 0.0,
			"-0.014": 0.0,
			"-0.013": 0.450612501125,
			"-0.012": 2.77432020173,
			"-0.011": 3.01366289111,
			"-0.01": 2.30789307435,
			"-0.009": 4.30332102526,
			"-0.008": 2.56492435221,
			"-0.007": 5.73600589281,
			"-0.006": 16.0266059681,
			"-0.005": 19.9227426451,
			"-0.004": 19.9305059965,
			"-0.003": 15.2043266172,
			"-0.002": 15.2292772058,
			"-0.001": 14.5977065856,
			"0.0": 16.6658265499,
			"0.001": 21.5661185967,
			"0.002": 24.613825806,
			"0.003": 26.3588635472,
			"0.004": 22.9019961075,
			"0.005": 18.7752522412,
			"0.006": 7.10573438245,
			"0.007": 2.16475105703,
			"0.008": 2.11449709358,
			"0.009": 1.81814612088,
			"0.01": 2.26901925994,
			"0.011": 1.63533047293,
			"0.012": 1.65163780037,
			"0.013": 1.72611081335,
			"0.014": 1.11075955996,
			"0.015": 0.904710129559,
			"0.016": 1.08601882448,
			"0.017": 0.198641292056,
			"0.018": 0.0,
			"0.019": 0.0,
			"0.02": 0.0,
			"0.021": 0.0,
			"0.022": 0.0,
			"0.023": 0.0,
			"0.024": 0.0,
			"0.025": 0.0
		}
	}
}
