{
	 "smiles": "CNC(=O)CC1=CC=C(N)C=C1", 
	 "Tm": 358.15, 
	 "num_atms": 24, 
	 "gaussian": { 
		 "optdone": 1, 
		 "sigma_profile": "yes", 
		 "theory": "DFT", 
		 "functional": "B3LYP", 
		 "basiset": "6-31G**", 
		 "properties": { 
			 "R2extent": 2731.1943, 
			 "electric_dipole_moment_norm": 4.59100955455, 
			 "electric_quadrupole_moment_norm": 12.3447064724, 
			 "total_energy": -534.93451074, 
			 "HOMO_LUMO_gap": 0.19948, 
			 "cosmo_polarized_energy": -16.64, 
			 "cosmo_cavitation_energy": 27.38, 
			 "cosmo_dispersion_energy": -19.73, 
			 "cosmo_repulsion_energy": 1.6, 
			 "cosmo_total_nonelectrostatic_energy": 9.25, 
			 "SMD_solvation_energy": 4.73 
		},
		"coords": [
			{
				"x": 0.1491654612,
				"y": 2.4281645896,
				"z": 0.397014725,
				"element": "C" 
			},
			{
				"x": -1.0957088426,
				"y": 1.8704012122,
				"z": 0.8977945217,
				"element": "N" 
			},
			{
				"x": -1.7902265376,
				"y": 0.7992099878,
				"z": 0.4066323395,
				"element": "C" 
			},
			{
				"x": -2.8205366293,
				"y": 0.4083848572,
				"z": 0.9468522696,
				"element": "O" 
			},
			{
				"x": -1.2083612707,
				"y": 0.0868764167,
				"z": -0.8160086902,
				"element": "C" 
			},
			{
				"x": -0.2049307438,
				"y": -0.9874615896,
				"z": -0.425890556,
				"element": "C" 
			},
			{
				"x": -0.5413106343,
				"y": -1.9728986962,
				"z": 0.5144614091,
				"element": "C" 
			},
			{
				"x": 0.3607854529,
				"y": -2.9702391066,
				"z": 0.8670996244,
				"element": "C" 
			},
			{
				"x": 1.6419257509,
				"y": -3.020375053,
				"z": 0.2883120548,
				"element": "C" 
			},
			{
				"x": 2.5264670462,
				"y": -4.0569909593,
				"z": 0.5984692697,
				"element": "N" 
			},
			{
				"x": 1.9836942488,
				"y": -2.0360682257,
				"z": -0.6520815914,
				"element": "C" 
			},
			{
				"x": 1.0710825765,
				"y": -1.0403020249,
				"z": -0.9978647645,
				"element": "C" 
			},
			{
				"x": 0.8951368953,
				"y": 1.6461054884,
				"z": 0.2275864531,
				"element": "H" 
			},
			{
				"x": 0.0146553377,
				"y": 2.99300909,
				"z": -0.5350964136,
				"element": "H" 
			},
			{
				"x": 0.5496940486,
				"y": 3.1137980028,
				"z": 1.147034325,
				"element": "H" 
			},
			{
				"x": -1.5220027218,
				"y": 2.2854506536,
				"z": 1.7146924197,
				"element": "H" 
			},
			{
				"x": -2.0671680516,
				"y": -0.3592944892,
				"z": -1.3270476456,
				"element": "H" 
			},
			{
				"x": -0.7430608254,
				"y": 0.795291851,
				"z": -1.5088527143,
				"element": "H" 
			},
			{
				"x": -1.523458824,
				"y": -1.9458663755,
				"z": 0.978065084,
				"element": "H" 
			},
			{
				"x": 0.0736578282,
				"y": -3.7253770152,
				"z": 1.5952411253,
				"element": "H" 
			},
			{
				"x": 3.5031430349,
				"y": -3.8467011216,
				"z": 0.4447669947,
				"element": "H" 
			},
			{
				"x": 2.3750196929,
				"y": -4.492333282,
				"z": 1.4981092692,
				"element": "H" 
			},
			{
				"x": 2.9661360232,
				"y": -2.0561048665,
				"z": -1.1180143342,
				"element": "H" 
			},
			{
				"x": 1.3600016837,
				"y": -0.2949793439,
				"z": -1.7358751749,
				"element": "H" 
			}
		],
		 "valence_orbital": [ 
			{
				"type": "occ",
				"energy": -0.29964,
				"method": "rhf"
			},
			{
				"type": "occ",
				"energy": -0.24436,
				"method": "rhf"
			},
			{
				"type": "occ",
				"energy": -0.24186,
				"method": "rhf"
			},
			{
				"type": "occ",
				"energy": -0.23753,
				"method": "rhf"
			},
			{
				"type": "occ",
				"energy": -0.19671,
				"method": "rhf"
			},
			{
				"type": "unocc",
				"energy": 0.00277,
				"method": "rhf"
			},
			{
				"type": "unocc",
				"energy": 0.01486,
				"method": "rhf"
			},
			{
				"type": "unocc",
				"energy": 0.03959,
				"method": "rhf"
			},
			{
				"type": "unocc",
				"energy": 0.08215,
				"method": "rhf"
			},
			{
				"type": "unocc",
				"energy": 0.08534,
				"method": "rhf"
			}
		],
		"cosmo_sigma_profile": { 
			"-0.025": 0.0,
			"-0.024": 0.0,
			"-0.023": 0.0,
			"-0.022": 0.0,
			"-0.021": 0.0,
			"-0.02": 0.0,
			"-0.019": 0.0,
			"-0.018": 0.0,
			"-0.017": 0.0,
			"-0.016": 0.0,
			"-0.015": 0.0,
			"-0.014": 0.1040225094,
			"-0.013": 1.26793676998,
			"-0.012": 3.09728150606,
			"-0.011": 4.21468337329,
			"-0.01": 3.12580439269,
			"-0.009": 4.11598248882,
			"-0.008": 5.11370465379,
			"-0.007": 4.01793574958,
			"-0.006": 7.93136924262,
			"-0.005": 16.216701905,
			"-0.004": 16.490827743,
			"-0.003": 18.4732608362,
			"-0.002": 19.4532166294,
			"-0.001": 13.215659497,
			"0.0": 9.51919207513,
			"0.001": 9.73571459092,
			"0.002": 9.396681796,
			"0.003": 9.40019580173,
			"0.004": 10.7883909489,
			"0.005": 8.93931574657,
			"0.006": 10.8295450752,
			"0.007": 7.78768637635,
			"0.008": 1.72888543167,
			"0.009": 2.36106610487,
			"0.01": 2.30164243353,
			"0.011": 1.63042844891,
			"0.012": 2.21490076988,
			"0.013": 2.88803072446,
			"0.014": 5.50783632724,
			"0.015": 3.51277893783,
			"0.016": 0.237956471022,
			"0.017": 0.0,
			"0.018": 0.0,
			"0.019": 0.0,
			"0.02": 0.0,
			"0.021": 0.0,
			"0.022": 0.0,
			"0.023": 0.0,
			"0.024": 0.0,
			"0.025": 0.0
		}
	}
}
