{
	 "smiles": "CCOC(=O)C1=CC(C(O)=O)=C(C)N=C1", 
	 "Tm": 473.15, 
	 "num_atms": 26, 
	 "gaussian": { 
		 "optdone": 1, 
		 "sigma_profile": "yes", 
		 "theory": "DFT", 
		 "functional": "B3LYP", 
		 "basiset": "6-31G**", 
		 "properties": { 
			 "R2extent": 4760.146, 
			 "electric_dipole_moment_norm": 1.42669072682, 
			 "electric_quadrupole_moment_norm": 26.6720750389, 
			 "total_energy": -743.365531844, 
			 "HOMO_LUMO_gap": 0.19753, 
			 "cosmo_polarized_energy": -16.47, 
			 "cosmo_cavitation_energy": 30.83, 
			 "cosmo_dispersion_energy": -22.31, 
			 "cosmo_repulsion_energy": 1.76, 
			 "cosmo_total_nonelectrostatic_energy": 10.28, 
			 "SMD_solvation_energy": 6.28 
		},
		"coords": [
			{
				"x": 0.3382758582,
				"y": 2.9681944113,
				"z": 1.7763108409,
				"element": "C" 
			},
			{
				"x": -0.1421018311,
				"y": 2.8662842163,
				"z": 0.3369563922,
				"element": "C" 
			},
			{
				"x": -0.2044357875,
				"y": 1.4845047989,
				"z": -0.0992458988,
				"element": "O" 
			},
			{
				"x": -1.3361841478,
				"y": 0.8105426345,
				"z": 0.1864620538,
				"element": "C" 
			},
			{
				"x": -2.2933078256,
				"y": 1.2883223315,
				"z": 0.7643610226,
				"element": "O" 
			},
			{
				"x": -1.2839878022,
				"y": -0.5985324143,
				"z": -0.2985416519,
				"element": "C" 
			},
			{
				"x": -0.1824122021,
				"y": -1.1517376853,
				"z": -0.9451483548,
				"element": "C" 
			},
			{
				"x": -0.2280290029,
				"y": -2.4809345684,
				"z": -1.3808224577,
				"element": "C" 
			},
			{
				"x": 1.0160333262,
				"y": -2.9773737963,
				"z": -2.0686822133,
				"element": "C" 
			},
			{
				"x": 0.8860412298,
				"y": -3.9769645212,
				"z": -2.9773918655,
				"element": "O" 
			},
			{
				"x": 2.1057392516,
				"y": -2.5024201113,
				"z": -1.8530830535,
				"element": "O" 
			},
			{
				"x": -1.3858874311,
				"y": -3.241014271,
				"z": -1.0960983617,
				"element": "C" 
			},
			{
				"x": -1.5439631086,
				"y": -4.7076634767,
				"z": -1.4329477842,
				"element": "C" 
			},
			{
				"x": -2.4437494492,
				"y": -2.7029751343,
				"z": -0.4616919296,
				"element": "N" 
			},
			{
				"x": -2.3971873976,
				"y": -1.423962248,
				"z": -0.0923433896,
				"element": "C" 
			},
			{
				"x": 1.3071859053,
				"y": 2.475952254,
				"z": 1.9000178974,
				"element": "H" 
			},
			{
				"x": -0.3831936159,
				"y": 2.5094147449,
				"z": 2.4567664328,
				"element": "H" 
			},
			{
				"x": 0.4496113297,
				"y": 4.0214707989,
				"z": 2.0542300249,
				"element": "H" 
			},
			{
				"x": 0.560163601,
				"y": 3.3346345251,
				"z": -0.3561699166,
				"element": "H" 
			},
			{
				"x": -1.1302817907,
				"y": 3.3156384416,
				"z": 0.2154582215,
				"element": "H" 
			},
			{
				"x": 0.7165505932,
				"y": -0.571940792,
				"z": -1.1172751391,
				"element": "H" 
			},
			{
				"x": -0.0453065677,
				"y": -4.1823363321,
				"z": -3.1339180101,
				"element": "H" 
			},
			{
				"x": -1.9049846879,
				"y": -4.8476556618,
				"z": -2.4628095306,
				"element": "H" 
			},
			{
				"x": -2.3113101766,
				"y": -5.127820127,
				"z": -0.7814068271,
				"element": "H" 
			},
			{
				"x": -0.6174323962,
				"y": -5.2743253171,
				"z": -1.3133729239,
				"element": "H" 
			},
			{
				"x": -3.2754458743,
				"y": -1.0189026999,
				"z": 0.4038864216,
				"element": "H" 
			}
		],
		 "valence_orbital": [ 
			{
				"type": "occ",
				"energy": -0.30746,
				"method": "rhf"
			},
			{
				"type": "occ",
				"energy": -0.29596,
				"method": "rhf"
			},
			{
				"type": "occ",
				"energy": -0.28487,
				"method": "rhf"
			},
			{
				"type": "occ",
				"energy": -0.27718,
				"method": "rhf"
			},
			{
				"type": "occ",
				"energy": -0.26804,
				"method": "rhf"
			},
			{
				"type": "unocc",
				"energy": -0.07051,
				"method": "rhf"
			},
			{
				"type": "unocc",
				"energy": -0.05909,
				"method": "rhf"
			},
			{
				"type": "unocc",
				"energy": 0.00554,
				"method": "rhf"
			},
			{
				"type": "unocc",
				"energy": 0.04848,
				"method": "rhf"
			},
			{
				"type": "unocc",
				"energy": 0.06627,
				"method": "rhf"
			}
		],
		"cosmo_sigma_profile": { 
			"-0.025": 0.0,
			"-0.024": 0.0,
			"-0.023": 0.0,
			"-0.022": 0.0,
			"-0.021": 0.0,
			"-0.02": 0.0,
			"-0.019": 0.0,
			"-0.018": 0.568319646627,
			"-0.017": 1.1199316762,
			"-0.016": 1.31700161355,
			"-0.015": 0.895208407209,
			"-0.014": 0.974743697594,
			"-0.013": 0.574748831452,
			"-0.012": 0.940591847205,
			"-0.011": 0.955650746662,
			"-0.01": 0.952940750699,
			"-0.009": 1.52655499482,
			"-0.008": 2.10011518143,
			"-0.007": 4.39078054196,
			"-0.006": 8.08379133254,
			"-0.005": 14.4286041098,
			"-0.004": 20.6729059202,
			"-0.003": 26.5318444091,
			"-0.002": 30.3739025901,
			"-0.001": 27.6183018178,
			"0.0": 16.1259169885,
			"0.001": 10.8391233302,
			"0.002": 7.03952755642,
			"0.003": 7.80804177211,
			"0.004": 7.05342969399,
			"0.005": 5.9131981447,
			"0.006": 5.52311470724,
			"0.007": 4.59265612399,
			"0.008": 5.02793565978,
			"0.009": 5.80473435354,
			"0.01": 8.2644495191,
			"0.011": 9.73878293984,
			"0.012": 5.7258689459,
			"0.013": 1.02231256561,
			"0.014": 0.599492955716,
			"0.015": 0.198805730348,
			"0.016": 0.0,
			"0.017": 0.0,
			"0.018": 0.0,
			"0.019": 0.0,
			"0.02": 0.0,
			"0.021": 0.0,
			"0.022": 0.0,
			"0.023": 0.0,
			"0.024": 0.0,
			"0.025": 0.0
		}
	}
}
