{
	 "smiles": "OC(=O)C1=CC2=CC=CN=C2S1", 
	 "Tm": 567.15, 
	 "num_atms": 17, 
	 "gaussian": { 
		 "optdone": 1, 
		 "sigma_profile": "yes", 
		 "theory": "DFT", 
		 "functional": "B3LYP", 
		 "basiset": "6-31G**", 
		 "properties": { 
			 "R2extent": 2999.6873, 
			 "electric_dipole_moment_norm": 6.39690586612, 
			 "electric_quadrupole_moment_norm": 4.99084568185, 
			 "total_energy": -911.25045946, 
			 "HOMO_LUMO_gap": 0.17287, 
			 "cosmo_polarized_energy": -17.9, 
			 "cosmo_cavitation_energy": 23.68, 
			 "cosmo_dispersion_energy": -18.33, 
			 "cosmo_repulsion_energy": 1.39, 
			 "cosmo_total_nonelectrostatic_energy": 6.74, 
			 "SMD_solvation_energy": 3.26 
		},
		"coords": [
			{
				"x": 0.0378301746,
				"y": 2.4044104298,
				"z": -0.6603806465,
				"element": "O" 
			},
			{
				"x": 0.4165346253,
				"y": 1.9352263452,
				"z": 0.5570054448,
				"element": "C" 
			},
			{
				"x": 0.7446212239,
				"y": 2.6974022856,
				"z": 1.4355266628,
				"element": "O" 
			},
			{
				"x": 0.4070986486,
				"y": 0.4610885332,
				"z": 0.7291468334,
				"element": "C" 
			},
			{
				"x": 0.332489965,
				"y": -0.5195507012,
				"z": -0.2240163238,
				"element": "C" 
			},
			{
				"x": 0.3858354472,
				"y": -1.8379497509,
				"z": 0.3304499689,
				"element": "C" 
			},
			{
				"x": 0.3395321787,
				"y": -3.1030557842,
				"z": -0.2800608281,
				"element": "C" 
			},
			{
				"x": 0.4117680488,
				"y": -4.2229491961,
				"z": 0.5346476251,
				"element": "C" 
			},
			{
				"x": 0.5287803369,
				"y": -4.0597212982,
				"z": 1.9281390899,
				"element": "C" 
			},
			{
				"x": 0.5788619623,
				"y": -2.8753289384,
				"z": 2.5406095291,
				"element": "N" 
			},
			{
				"x": 0.5097425334,
				"y": -1.8087925656,
				"z": 1.7457982926,
				"element": "C" 
			},
			{
				"x": 0.5700135759,
				"y": -0.1638642,
				"z": 2.3612494281,
				"element": "S" 
			},
			{
				"x": -0.3405707858,
				"y": 1.6936335984,
				"z": -1.1961823338,
				"element": "H" 
			},
			{
				"x": 0.2752415384,
				"y": -0.3324569119,
				"z": -1.292230077,
				"element": "H" 
			},
			{
				"x": 0.2488024759,
				"y": -3.1968814933,
				"z": -1.3586672563,
				"element": "H" 
			},
			{
				"x": 0.3788926902,
				"y": -5.2221278563,
				"z": 0.1132865434,
				"element": "H" 
			},
			{
				"x": 0.5850253609,
				"y": -4.9328824963,
				"z": 2.5746780473,
				"element": "H" 
			}
		],
		 "valence_orbital": [ 
			{
				"type": "occ",
				"energy": -0.32327,
				"method": "rhf"
			},
			{
				"type": "occ",
				"energy": -0.28653,
				"method": "rhf"
			},
			{
				"type": "occ",
				"energy": -0.27783,
				"method": "rhf"
			},
			{
				"type": "occ",
				"energy": -0.26231,
				"method": "rhf"
			},
			{
				"type": "occ",
				"energy": -0.253,
				"method": "rhf"
			},
			{
				"type": "unocc",
				"energy": -0.08013,
				"method": "rhf"
			},
			{
				"type": "unocc",
				"energy": -0.03459,
				"method": "rhf"
			},
			{
				"type": "unocc",
				"energy": -0.00472,
				"method": "rhf"
			},
			{
				"type": "unocc",
				"energy": 0.01196,
				"method": "rhf"
			},
			{
				"type": "unocc",
				"energy": 0.04677,
				"method": "rhf"
			}
		],
		"cosmo_sigma_profile": { 
			"-0.025": 0.0,
			"-0.024": 0.0,
			"-0.023": 0.0,
			"-0.022": 0.0,
			"-0.021": 0.0,
			"-0.02": 0.017163014849,
			"-0.019": 0.998431402026,
			"-0.018": 0.958798260838,
			"-0.017": 1.36950225416,
			"-0.016": 1.05296174538,
			"-0.015": 0.74288674588,
			"-0.014": 1.06894958631,
			"-0.013": 1.50565913919,
			"-0.012": 1.05704854359,
			"-0.011": 1.34044016671,
			"-0.01": 1.66157723331,
			"-0.009": 2.61157446745,
			"-0.008": 5.60721288533,
			"-0.007": 8.87098789571,
			"-0.006": 8.9684502366,
			"-0.005": 7.417324642,
			"-0.004": 6.8870256341,
			"-0.003": 7.67679793332,
			"-0.002": 7.9482210327,
			"-0.001": 12.1872888313,
			"0.0": 20.8987864592,
			"0.001": 21.8832157999,
			"0.002": 15.3091613263,
			"0.003": 9.46835716349,
			"0.004": 6.57260464454,
			"0.005": 4.24693463634,
			"0.006": 3.9247585993,
			"0.007": 4.09004819175,
			"0.008": 3.86506955565,
			"0.009": 4.85326475743,
			"0.01": 6.16538001905,
			"0.011": 6.428603596,
			"0.012": 3.43995213638,
			"0.013": 1.50225885203,
			"0.014": 0.753067065339,
			"0.015": 0.211548542559,
			"0.016": 0.0,
			"0.017": 0.0,
			"0.018": 0.0,
			"0.019": 0.0,
			"0.02": 0.0,
			"0.021": 0.0,
			"0.022": 0.0,
			"0.023": 0.0,
			"0.024": 0.0,
			"0.025": 0.0
		}
	}
}
