{
	 "smiles": "CC1=NC2=C(N=NC3=CC=CC=C3)C(N)=NN2C(=C1)C(F)(F)F", 
	 "Tm": 475.15, 
	 "num_atms": 34, 
	 "gaussian": { 
		 "optdone": 1, 
		 "sigma_profile": "yes", 
		 "theory": "DFT", 
		 "functional": "B3LYP", 
		 "basiset": "6-31G**", 
		 "properties": { 
			 "R2extent": 10763.3517, 
			 "electric_dipole_moment_norm": 1.00889474674, 
			 "electric_quadrupole_moment_norm": 21.8522291517, 
			 "total_energy": -1168.09990857, 
			 "HOMO_LUMO_gap": 0.13075, 
			 "cosmo_polarized_energy": -14.2, 
			 "cosmo_cavitation_energy": 41.09, 
			 "cosmo_dispersion_energy": -29.36, 
			 "cosmo_repulsion_energy": 2.18, 
			 "cosmo_total_nonelectrostatic_energy": 13.91, 
			 "SMD_solvation_energy": 4.82 
		},
		"coords": [
			{
				"x": -3.9867558124,
				"y": -0.3661784448,
				"z": 1.4414156259,
				"element": "C" 
			},
			{
				"x": -2.7879832393,
				"y": -1.2060130792,
				"z": 1.0917415127,
				"element": "C" 
			},
			{
				"x": -1.663840043,
				"y": -0.5748494619,
				"z": 0.7739912737,
				"element": "N" 
			},
			{
				"x": -0.5927481696,
				"y": -1.315065656,
				"z": 0.4616560558,
				"element": "C" 
			},
			{
				"x": 0.7231509326,
				"y": -0.9835673302,
				"z": 0.0867389014,
				"element": "C" 
			},
			{
				"x": 1.1945717814,
				"y": 0.2943180002,
				"z": -0.0389830686,
				"element": "N" 
			},
			{
				"x": 2.4180136464,
				"y": 0.3916794149,
				"z": -0.389061947,
				"element": "N" 
			},
			{
				"x": 2.8877419083,
				"y": 1.721260503,
				"z": -0.5137286129,
				"element": "C" 
			},
			{
				"x": 4.2284046362,
				"y": 1.8667710966,
				"z": -0.8984223334,
				"element": "C" 
			},
			{
				"x": 4.785575682,
				"y": 3.135444913,
				"z": -1.0488260342,
				"element": "C" 
			},
			{
				"x": 4.0074857052,
				"y": 4.2708340281,
				"z": -0.8158893966,
				"element": "C" 
			},
			{
				"x": 2.6682608323,
				"y": 4.1288349957,
				"z": -0.4314950368,
				"element": "C" 
			},
			{
				"x": 2.1054843617,
				"y": 2.8666187538,
				"z": -0.2795006845,
				"element": "C" 
			},
			{
				"x": 1.3744805563,
				"y": -2.2514580249,
				"z": -0.1091354844,
				"element": "C" 
			},
			{
				"x": 2.6585131455,
				"y": -2.4122977564,
				"z": -0.4787216613,
				"element": "N" 
			},
			{
				"x": 0.5602413559,
				"y": -3.295335413,
				"z": 0.1169137072,
				"element": "N" 
			},
			{
				"x": -0.6262851134,
				"y": -2.7195479826,
				"z": 0.4612510251,
				"element": "N" 
			},
			{
				"x": -1.7680052317,
				"y": -3.3734814437,
				"z": 0.7840751517,
				"element": "C" 
			},
			{
				"x": -2.8763460098,
				"y": -2.6253280904,
				"z": 1.1071428176,
				"element": "C" 
			},
			{
				"x": -1.7620496514,
				"y": -4.8868666945,
				"z": 0.7719002901,
				"element": "C" 
			},
			{
				"x": -0.8714131087,
				"y": -5.3829021851,
				"z": 1.645081405,
				"element": "F" 
			},
			{
				"x": -2.9809889815,
				"y": -5.351939821,
				"z": 1.1188333192,
				"element": "F" 
			},
			{
				"x": -1.4723508261,
				"y": -5.3685103291,
				"z": -0.4470456299,
				"element": "F" 
			},
			{
				"x": -3.7270602883,
				"y": 0.6907391983,
				"z": 1.3739077104,
				"element": "H" 
			},
			{
				"x": -4.8219693602,
				"y": -0.5724374059,
				"z": 0.7622665795,
				"element": "H" 
			},
			{
				"x": -4.3353435397,
				"y": -0.5836913265,
				"z": 2.457559162,
				"element": "H" 
			},
			{
				"x": 4.8171634491,
				"y": 0.9715243871,
				"z": -1.0749480025,
				"element": "H" 
			},
			{
				"x": 5.8249861734,
				"y": 3.2375393625,
				"z": -1.3472159718,
				"element": "H" 
			},
			{
				"x": 4.4384641541,
				"y": 5.2610521058,
				"z": -0.9320942074,
				"element": "H" 
			},
			{
				"x": 2.0619078125,
				"y": 5.0120748964,
				"z": -0.2499455507,
				"element": "H" 
			},
			{
				"x": 1.0707831209,
				"y": 2.7396444324,
				"z": 0.0172799745,
				"element": "H" 
			},
			{
				"x": 3.1947465736,
				"y": -1.5666465644,
				"z": -0.6254178732,
				"element": "H" 
			},
			{
				"x": 3.040435167,
				"y": -3.3366193679,
				"z": -0.5934119026,
				"element": "H" 
			},
			{
				"x": -3.7978716193,
				"y": -3.1277997106,
				"z": 1.3678888859,
				"element": "H" 
			}
		],
		 "valence_orbital": [ 
			{
				"type": "occ",
				"energy": -0.26473,
				"method": "rhf"
			},
			{
				"type": "occ",
				"energy": -0.24874,
				"method": "rhf"
			},
			{
				"type": "occ",
				"energy": -0.22998,
				"method": "rhf"
			},
			{
				"type": "occ",
				"energy": -0.22529,
				"method": "rhf"
			},
			{
				"type": "occ",
				"energy": -0.20396,
				"method": "rhf"
			},
			{
				"type": "unocc",
				"energy": -0.07321,
				"method": "rhf"
			},
			{
				"type": "unocc",
				"energy": -0.06357,
				"method": "rhf"
			},
			{
				"type": "unocc",
				"energy": -0.01105,
				"method": "rhf"
			},
			{
				"type": "unocc",
				"energy": 0.00282,
				"method": "rhf"
			},
			{
				"type": "unocc",
				"energy": 0.03331,
				"method": "rhf"
			}
		],
		"cosmo_sigma_profile": { 
			"-0.025": 0.0,
			"-0.024": 0.0,
			"-0.023": 0.0,
			"-0.022": 0.0,
			"-0.021": 0.0,
			"-0.02": 0.0,
			"-0.019": 0.0,
			"-0.018": 0.0,
			"-0.017": 0.0,
			"-0.016": 0.0,
			"-0.015": 0.372483187151,
			"-0.014": 1.10582978292,
			"-0.013": 1.17855119184,
			"-0.012": 1.09933132238,
			"-0.011": 0.776822212763,
			"-0.01": 0.974417947194,
			"-0.009": 2.85623310304,
			"-0.008": 3.20555007334,
			"-0.007": 3.73161724799,
			"-0.006": 14.4192465495,
			"-0.005": 23.1540861648,
			"-0.004": 25.7183547537,
			"-0.003": 24.9534207609,
			"-0.002": 22.954556084,
			"-0.001": 25.0641733017,
			"0.0": 18.2978720339,
			"0.001": 26.0215522823,
			"0.002": 43.2389358442,
			"0.003": 26.4106706806,
			"0.004": 21.9165466643,
			"0.005": 16.5912166321,
			"0.006": 5.80864465306,
			"0.007": 4.28613929671,
			"0.008": 3.34272568478,
			"0.009": 3.1571336408,
			"0.01": 2.8424207195,
			"0.011": 2.76140583368,
			"0.012": 2.36461712066,
			"0.013": 0.924350989477,
			"0.014": 1.00064774646,
			"0.015": 0.127941466248,
			"0.016": 0.0,
			"0.017": 0.0,
			"0.018": 0.0,
			"0.019": 0.0,
			"0.02": 0.0,
			"0.021": 0.0,
			"0.022": 0.0,
			"0.023": 0.0,
			"0.024": 0.0,
			"0.025": 0.0
		}
	}
}
