{
	 "smiles": "NC(=O)N1C(=O)C=CC1=O", 
	 "Tm": 432.15, 
	 "num_atms": 14, 
	 "gaussian": { 
		 "optdone": 1, 
		 "sigma_profile": "yes", 
		 "theory": "DFT", 
		 "functional": "B3LYP", 
		 "basiset": "6-31G**", 
		 "properties": { 
			 "R2extent": 2444.0884, 
			 "electric_dipole_moment_norm": 4.13090017551, 
			 "electric_quadrupole_moment_norm": 16.0541292103, 
			 "total_energy": -528.129801369, 
			 "HOMO_LUMO_gap": 0.15497, 
			 "cosmo_polarized_energy": -17.1, 
			 "cosmo_cavitation_energy": 19.46, 
			 "cosmo_dispersion_energy": -14.61, 
			 "cosmo_repulsion_energy": 1.19, 
			 "cosmo_total_nonelectrostatic_energy": 6.03, 
			 "SMD_solvation_energy": 6.06 
		},
		"coords": [
			{
				"x": -1.0461639148,
				"y": -1.1837271155,
				"z": -3.5903983468,
				"element": "N" 
			},
			{
				"x": -0.5544853722,
				"y": -0.056699383,
				"z": -3.0202658511,
				"element": "C" 
			},
			{
				"x": -0.9546568083,
				"y": 1.0683934605,
				"z": -3.2209861543,
				"element": "O" 
			},
			{
				"x": 0.5378146459,
				"y": -0.3133855631,
				"z": -2.100174426,
				"element": "N" 
			},
			{
				"x": 1.1330145898,
				"y": -1.557161082,
				"z": -1.8072616342,
				"element": "C" 
			},
			{
				"x": 0.8237628142,
				"y": -2.641033732,
				"z": -2.2718381462,
				"element": "O" 
			},
			{
				"x": 2.218806623,
				"y": -1.2989206669,
				"z": -0.8167227217,
				"element": "C" 
			},
			{
				"x": 2.2557201151,
				"y": 0.0074969013,
				"z": -0.5469419946,
				"element": "C" 
			},
			{
				"x": 1.1944454889,
				"y": 0.7103377436,
				"z": -1.3403947263,
				"element": "C" 
			},
			{
				"x": 0.9511976542,
				"y": 1.8888828146,
				"z": -1.3296469671,
				"element": "O" 
			},
			{
				"x": -1.7874308307,
				"y": -1.0552483562,
				"z": -4.2597866415,
				"element": "H" 
			},
			{
				"x": -0.6386429223,
				"y": -2.0921971292,
				"z": -3.4065558542,
				"element": "H" 
			},
			{
				"x": 2.8304261826,
				"y": -2.1035314926,
				"z": -0.4307832358,
				"element": "H" 
			},
			{
				"x": 2.9074917347,
				"y": 0.5550936006,
				"z": 0.1208566999,
				"element": "H" 
			}
		],
		 "valence_orbital": [ 
			{
				"type": "occ",
				"energy": -0.3211,
				"method": "rhf"
			},
			{
				"type": "occ",
				"energy": -0.30444,
				"method": "rhf"
			},
			{
				"type": "occ",
				"energy": -0.29277,
				"method": "rhf"
			},
			{
				"type": "occ",
				"energy": -0.27647,
				"method": "rhf"
			},
			{
				"type": "occ",
				"energy": -0.26692,
				"method": "rhf"
			},
			{
				"type": "unocc",
				"energy": -0.11195,
				"method": "rhf"
			},
			{
				"type": "unocc",
				"energy": -0.00093,
				"method": "rhf"
			},
			{
				"type": "unocc",
				"energy": 0.05169,
				"method": "rhf"
			},
			{
				"type": "unocc",
				"energy": 0.08647,
				"method": "rhf"
			},
			{
				"type": "unocc",
				"energy": 0.09079,
				"method": "rhf"
			}
		],
		"cosmo_sigma_profile": { 
			"-0.025": 0.0,
			"-0.024": 0.0,
			"-0.023": 0.0,
			"-0.022": 0.0,
			"-0.021": 0.0,
			"-0.02": 0.0,
			"-0.019": 0.0,
			"-0.018": 0.0,
			"-0.017": 0.0,
			"-0.016": 0.0,
			"-0.015": 0.826686198917,
			"-0.014": 0.851239828899,
			"-0.013": 1.43222529058,
			"-0.012": 0.773975900459,
			"-0.011": 2.14517034787,
			"-0.01": 5.6433621923,
			"-0.009": 5.05798792166,
			"-0.008": 5.85272305358,
			"-0.007": 6.65858755621,
			"-0.006": 9.38921306325,
			"-0.005": 10.2060586575,
			"-0.004": 11.7782209979,
			"-0.003": 10.2410259786,
			"-0.002": 8.39972164001,
			"-0.001": 9.10356557895,
			"0.0": 6.24948021205,
			"0.001": 4.09835117934,
			"0.002": 4.9788893474,
			"0.003": 4.16811670949,
			"0.004": 4.46214360199,
			"0.005": 2.88788991948,
			"0.006": 3.65285028569,
			"0.007": 4.03538313264,
			"0.008": 4.30500218669,
			"0.009": 5.40920488018,
			"0.01": 7.56152218272,
			"0.011": 3.36725810965,
			"0.012": 4.68446827705,
			"0.013": 4.93991186738,
			"0.014": 1.89090030348,
			"0.015": 1.18699996428,
			"0.016": 0.781833627089,
			"0.017": 0.00320658679451,
			"0.018": 0.0,
			"0.019": 0.0,
			"0.02": 0.0,
			"0.021": 0.0,
			"0.022": 0.0,
			"0.023": 0.0,
			"0.024": 0.0,
			"0.025": 0.0
		}
	}
}
