{
	 "smiles": "CC1=CC2=C(O1)C1=C(CCC2(C)C2=CC=CC=C2)OC2=CC=C(Br)C=C12", 
	 "Tm": 400.15, 
	 "num_atms": 45, 
	 "gaussian": { 
		 "optdone": 1, 
		 "sigma_profile": "yes", 
		 "theory": "DFT", 
		 "functional": "B3LYP", 
		 "basiset": "6-31G**", 
		 "properties": { 
			 "R2extent": 16201.4237, 
			 "electric_dipole_moment_norm": 3.36180340591, 
			 "electric_quadrupole_moment_norm": 15.4521473301, 
			 "total_energy": -3609.7513483, 
			 "HOMO_LUMO_gap": 0.16153, 
			 "cosmo_polarized_energy": -8.5, 
			 "cosmo_cavitation_energy": 48.5, 
			 "cosmo_dispersion_energy": -34.15, 
			 "cosmo_repulsion_energy": 2.57, 
			 "cosmo_total_nonelectrostatic_energy": 16.92, 
			 "SMD_solvation_energy": 7.08 
		},
		"coords": [
			{
				"x": 0.1262508695,
				"y": 3.0755358976,
				"z": 3.0008970881,
				"element": "C" 
			},
			{
				"x": 0.2885606137,
				"y": 1.8760131908,
				"z": 2.1361381502,
				"element": "C" 
			},
			{
				"x": -0.4353832284,
				"y": 0.736620032,
				"z": 1.954838663,
				"element": "C" 
			},
			{
				"x": 0.2452937159,
				"y": -0.0640235909,
				"z": 0.9703826549,
				"element": "C" 
			},
			{
				"x": 1.355636282,
				"y": 0.6685167429,
				"z": 0.6160485453,
				"element": "C" 
			},
			{
				"x": 1.3886907475,
				"y": 1.8458792245,
				"z": 1.3234089885,
				"element": "O" 
			},
			{
				"x": 2.4269371731,
				"y": 0.4618856837,
				"z": -0.3303987703,
				"element": "C" 
			},
			{
				"x": 2.5881212976,
				"y": -0.6433954027,
				"z": -1.1219920145,
				"element": "C" 
			},
			{
				"x": 1.8013271906,
				"y": -1.9000860398,
				"z": -1.2448197642,
				"element": "C" 
			},
			{
				"x": 1.0383891636,
				"y": -2.2961532061,
				"z": 0.0315298789,
				"element": "C" 
			},
			{
				"x": -0.1912476955,
				"y": -1.4272054409,
				"z": 0.4500150043,
				"element": "C" 
			},
			{
				"x": -0.8887802283,
				"y": -2.1821321198,
				"z": 1.6142338495,
				"element": "C" 
			},
			{
				"x": -1.1768368353,
				"y": -1.3089426175,
				"z": -0.7363827653,
				"element": "C" 
			},
			{
				"x": -1.5109584165,
				"y": -0.0780908415,
				"z": -1.3162598566,
				"element": "C" 
			},
			{
				"x": -2.4008677284,
				"y": -0.0022620688,
				"z": -2.3911907514,
				"element": "C" 
			},
			{
				"x": -2.9753618433,
				"y": -1.1586728441,
				"z": -2.915184176,
				"element": "C" 
			},
			{
				"x": -2.6493699698,
				"y": -2.394793058,
				"z": -2.3533507366,
				"element": "C" 
			},
			{
				"x": -1.763010024,
				"y": -2.4661611751,
				"z": -1.2795488067,
				"element": "C" 
			},
			{
				"x": 3.691710927,
				"y": -0.5270864066,
				"z": -1.9369139753,
				"element": "O" 
			},
			{
				"x": 4.2564162749,
				"y": 0.6884472398,
				"z": -1.6610668726,
				"element": "C" 
			},
			{
				"x": 5.395016453,
				"y": 1.2126192146,
				"z": -2.2574684101,
				"element": "C" 
			},
			{
				"x": 5.8082458747,
				"y": 2.4737475494,
				"z": -1.829453032,
				"element": "C" 
			},
			{
				"x": 5.0817268961,
				"y": 3.1531303866,
				"z": -0.8381675277,
				"element": "C" 
			},
			{
				"x": 5.694688412,
				"y": 4.8846385584,
				"z": -0.2879534736,
				"element": "Br" 
			},
			{
				"x": 3.9419398105,
				"y": 2.6251833514,
				"z": -0.2420433727,
				"element": "C" 
			},
			{
				"x": 3.5200402749,
				"y": 1.3570437754,
				"z": -0.6673213671,
				"element": "C" 
			},
			{
				"x": 0.9716935403,
				"y": 3.1925933022,
				"z": 3.6890838131,
				"element": "H" 
			},
			{
				"x": 0.0587023471,
				"y": 3.9940666843,
				"z": 2.4061521728,
				"element": "H" 
			},
			{
				"x": -0.7866874755,
				"y": 2.9845416107,
				"z": 3.5938260079,
				"element": "H" 
			},
			{
				"x": -1.3549865646,
				"y": 0.494113828,
				"z": 2.466811618,
				"element": "H" 
			},
			{
				"x": 1.100624743,
				"y": -1.8232658966,
				"z": -2.087571332,
				"element": "H" 
			},
			{
				"x": 2.4983596137,
				"y": -2.7057647567,
				"z": -1.5042018834,
				"element": "H" 
			},
			{
				"x": 0.6803076994,
				"y": -3.3199045634,
				"z": -0.1179979561,
				"element": "H" 
			},
			{
				"x": 1.735942144,
				"y": -2.3333539477,
				"z": 0.8763493137,
				"element": "H" 
			},
			{
				"x": -0.2220969446,
				"y": -2.2500749292,
				"z": 2.4797015584,
				"element": "H" 
			},
			{
				"x": -1.8050228377,
				"y": -1.6739830161,
				"z": 1.9247790304,
				"element": "H" 
			},
			{
				"x": -1.1627998902,
				"y": -3.1977535024,
				"z": 1.3173290515,
				"element": "H" 
			},
			{
				"x": -1.0742202294,
				"y": 0.8325763424,
				"z": -0.9225203565,
				"element": "H" 
			},
			{
				"x": -2.6413412368,
				"y": 0.9677147578,
				"z": -2.8177375454,
				"element": "H" 
			},
			{
				"x": -3.6668867831,
				"y": -1.1004812061,
				"z": -3.7507694216,
				"element": "H" 
			},
			{
				"x": -3.0867710901,
				"y": -3.307012455,
				"z": -2.7499042234,
				"element": "H" 
			},
			{
				"x": -1.5287724366,
				"y": -3.4415478376,
				"z": -0.8629402092,
				"element": "H" 
			},
			{
				"x": 5.9366469328,
				"y": 0.6656870371,
				"z": -3.0212544192,
				"element": "H" 
			},
			{
				"x": 6.6899361781,
				"y": 2.9340485106,
				"z": -2.259101221,
				"element": "H" 
			},
			{
				"x": 3.401296283,
				"y": 3.1701440025,
				"z": 0.5197888518,
				"element": "H" 
			}
		],
		 "valence_orbital": [ 
			{
				"type": "occ",
				"energy": -0.25003,
				"method": "rhf"
			},
			{
				"type": "occ",
				"energy": -0.24482,
				"method": "rhf"
			},
			{
				"type": "occ",
				"energy": -0.24269,
				"method": "rhf"
			},
			{
				"type": "occ",
				"energy": -0.22625,
				"method": "rhf"
			},
			{
				"type": "occ",
				"energy": -0.19021,
				"method": "rhf"
			},
			{
				"type": "unocc",
				"energy": -0.02868,
				"method": "rhf"
			},
			{
				"type": "unocc",
				"energy": -0.00672,
				"method": "rhf"
			},
			{
				"type": "unocc",
				"energy": 0.00016,
				"method": "rhf"
			},
			{
				"type": "unocc",
				"energy": 0.00177,
				"method": "rhf"
			},
			{
				"type": "unocc",
				"energy": 0.00653,
				"method": "rhf"
			}
		],
		"cosmo_sigma_profile": { 
			"-0.025": 0.0,
			"-0.024": 0.0,
			"-0.023": 0.0,
			"-0.022": 0.0,
			"-0.021": 0.0,
			"-0.02": 0.0,
			"-0.019": 0.0,
			"-0.018": 0.0,
			"-0.017": 0.0,
			"-0.016": 0.0,
			"-0.015": 0.0,
			"-0.014": 0.0,
			"-0.013": 0.0,
			"-0.012": 0.0,
			"-0.011": 0.0,
			"-0.01": 0.0,
			"-0.009": 0.0,
			"-0.008": 0.742079031136,
			"-0.007": 4.11975368647,
			"-0.006": 9.99671664569,
			"-0.005": 23.1960865974,
			"-0.004": 30.1982325069,
			"-0.003": 37.452600336,
			"-0.002": 33.0665838528,
			"-0.001": 35.8215931343,
			"0.0": 34.8557721473,
			"0.001": 35.9608827449,
			"0.002": 39.9472080861,
			"0.003": 42.0525638015,
			"0.004": 26.7801207404,
			"0.005": 22.6091016341,
			"0.006": 9.0258530297,
			"0.007": 3.06677045995,
			"0.008": 0.834084867132,
			"0.009": 0.110213171214,
			"0.01": 0.0,
			"0.011": 0.0,
			"0.012": 0.0,
			"0.013": 0.0,
			"0.014": 0.0,
			"0.015": 0.0,
			"0.016": 0.0,
			"0.017": 0.0,
			"0.018": 0.0,
			"0.019": 0.0,
			"0.02": 0.0,
			"0.021": 0.0,
			"0.022": 0.0,
			"0.023": 0.0,
			"0.024": 0.0,
			"0.025": 0.0
		}
	}
}
