{
	 "smiles": "CC1=CC=C(C#N)C(=C1)C#N", 
	 "Tm": 393.15, 
	 "num_atms": 17, 
	 "gaussian": { 
		 "optdone": 1, 
		 "sigma_profile": "yes", 
		 "theory": "DFT", 
		 "functional": "B3LYP", 
		 "basiset": "6-31G**", 
		 "properties": { 
			 "R2extent": 1910.2151, 
			 "electric_dipole_moment_norm": 7.72233620415, 
			 "electric_quadrupole_moment_norm": 9.72750211257, 
			 "total_energy": -456.045613967, 
			 "HOMO_LUMO_gap": 0.19306, 
			 "cosmo_polarized_energy": -14.17, 
			 "cosmo_cavitation_energy": 23.73, 
			 "cosmo_dispersion_energy": -16.06, 
			 "cosmo_repulsion_energy": 1.3, 
			 "cosmo_total_nonelectrostatic_energy": 8.96, 
			 "SMD_solvation_energy": 6.83 
		},
		"coords": [
			{
				"x": 0.2871261333,
				"y": -0.7938094629,
				"z": 3.1502507858,
				"element": "C" 
			},
			{
				"x": 0.5740139194,
				"y": -0.5711024121,
				"z": 1.6860347936,
				"element": "C" 
			},
			{
				"x": 1.4620471397,
				"y": -1.4095392954,
				"z": 0.9936552747,
				"element": "C" 
			},
			{
				"x": 1.7249219206,
				"y": -1.223982213,
				"z": -0.3586814774,
				"element": "C" 
			},
			{
				"x": 1.1037942817,
				"y": -0.1844988648,
				"z": -1.067283846,
				"element": "C" 
			},
			{
				"x": 1.3867376012,
				"y": -0.006321739,
				"z": -2.459705594,
				"element": "C" 
			},
			{
				"x": 1.6363933803,
				"y": 0.1127947093,
				"z": -3.5892779226,
				"element": "N" 
			},
			{
				"x": 0.2080893743,
				"y": 0.6698720776,
				"z": -0.3837572149,
				"element": "C" 
			},
			{
				"x": -0.0432052788,
				"y": 0.4653698464,
				"z": 0.9804743741,
				"element": "C" 
			},
			{
				"x": -0.449361474,
				"y": 1.7474326461,
				"z": -1.0625632601,
				"element": "C" 
			},
			{
				"x": -0.9979040814,
				"y": 2.6293720278,
				"z": -1.5853902226,
				"element": "N" 
			},
			{
				"x": -0.2840110357,
				"y": -1.7174228678,
				"z": 3.2999765468,
				"element": "H" 
			},
			{
				"x": -0.2919148152,
				"y": 0.0291870331,
				"z": 3.5757898258,
				"element": "H" 
			},
			{
				"x": 1.2144548997,
				"y": -0.8904940884,
				"z": 3.7241761633,
				"element": "H" 
			},
			{
				"x": 1.9555197819,
				"y": -2.2196472269,
				"z": 1.5234284405,
				"element": "H" 
			},
			{
				"x": 2.4138629816,
				"y": -1.8791201669,
				"z": -0.8806120739,
				"element": "H" 
			},
			{
				"x": -0.7324647285,
				"y": 1.1325099969,
				"z": 1.487885407,
				"element": "H" 
			}
		],
		 "valence_orbital": [ 
			{
				"type": "occ",
				"energy": -0.35146,
				"method": "rhf"
			},
			{
				"type": "occ",
				"energy": -0.34454,
				"method": "rhf"
			},
			{
				"type": "occ",
				"energy": -0.34092,
				"method": "rhf"
			},
			{
				"type": "occ",
				"energy": -0.28914,
				"method": "rhf"
			},
			{
				"type": "occ",
				"energy": -0.2761,
				"method": "rhf"
			},
			{
				"type": "unocc",
				"energy": -0.08304,
				"method": "rhf"
			},
			{
				"type": "unocc",
				"energy": -0.05499,
				"method": "rhf"
			},
			{
				"type": "unocc",
				"energy": 0.01369,
				"method": "rhf"
			},
			{
				"type": "unocc",
				"energy": 0.03226,
				"method": "rhf"
			},
			{
				"type": "unocc",
				"energy": 0.04929,
				"method": "rhf"
			}
		],
		"cosmo_sigma_profile": { 
			"-0.025": 0.0,
			"-0.024": 0.0,
			"-0.023": 0.0,
			"-0.022": 0.0,
			"-0.021": 0.0,
			"-0.02": 0.0,
			"-0.019": 0.0,
			"-0.018": 0.0,
			"-0.017": 0.0,
			"-0.016": 0.0,
			"-0.015": 0.0,
			"-0.014": 0.0,
			"-0.013": 0.0,
			"-0.012": 0.0,
			"-0.011": 0.0,
			"-0.01": 0.0,
			"-0.009": 1.82432911064,
			"-0.008": 7.04601983476,
			"-0.007": 9.17331395624,
			"-0.006": 8.4157843903,
			"-0.005": 14.6787133031,
			"-0.004": 13.9014665049,
			"-0.003": 17.1550685013,
			"-0.002": 19.2934261608,
			"-0.001": 20.2171803958,
			"0.0": 14.4167970172,
			"0.001": 8.72927677263,
			"0.002": 5.0306223366,
			"0.003": 3.83638795763,
			"0.004": 4.61786601449,
			"0.005": 4.95680148051,
			"0.006": 5.39074855985,
			"0.007": 5.79107752526,
			"0.008": 7.15495964509,
			"0.009": 5.70346785607,
			"0.01": 6.04815309541,
			"0.011": 4.61205876346,
			"0.012": 4.14105070926,
			"0.013": 0.521266027655,
			"0.014": 0.0,
			"0.015": 0.0,
			"0.016": 0.0,
			"0.017": 0.0,
			"0.018": 0.0,
			"0.019": 0.0,
			"0.02": 0.0,
			"0.021": 0.0,
			"0.022": 0.0,
			"0.023": 0.0,
			"0.024": 0.0,
			"0.025": 0.0
		}
	}
}
