{
	 "smiles": "CC(=O)OC[C@H]1O[C@@H](OC(C)=O)[C@H](OC(C)=O)[C@@H](OC(C)=O)[C@H]1OC(C)=O", 
	 "Tm": 417.15, 
	 "num_atms": 49, 
	 "gaussian": { 
		 "optdone": 1, 
		 "sigma_profile": "yes", 
		 "theory": "DFT", 
		 "functional": "B3LYP", 
		 "basiset": "6-31G**", 
		 "properties": { 
			 "R2extent": 10540.676, 
			 "electric_dipole_moment_norm": 3.01912894889, 
			 "electric_quadrupole_moment_norm": 19.6740714032, 
			 "total_energy": -1450.48757079, 
			 "HOMO_LUMO_gap": 0.27166, 
			 "cosmo_polarized_energy": -24.75, 
			 "cosmo_cavitation_energy": 54.75, 
			 "cosmo_dispersion_energy": -33.1, 
			 "cosmo_repulsion_energy": 2.65, 
			 "cosmo_total_nonelectrostatic_energy": 24.3, 
			 "SMD_solvation_energy": 14.57 
		},
		"coords": [
			{
				"x": 1.4452253886,
				"y": 5.0119459687,
				"z": -2.7192745094,
				"element": "C" 
			},
			{
				"x": 0.3837070966,
				"y": 4.3818025359,
				"z": -1.8530851788,
				"element": "C" 
			},
			{
				"x": -0.0042946496,
				"y": 4.7998434428,
				"z": -0.7856849816,
				"element": "O" 
			},
			{
				"x": -0.1011815743,
				"y": 3.2504114169,
				"z": -2.4364481338,
				"element": "O" 
			},
			{
				"x": -1.1518504253,
				"y": 2.5660490315,
				"z": -1.7335824483,
				"element": "C" 
			},
			{
				"x": -0.5893067214,
				"y": 1.6450113118,
				"z": -0.6508276859,
				"element": "C" 
			},
			{
				"x": -1.7197640432,
				"y": 0.9429691936,
				"z": -0.1349871807,
				"element": "O" 
			},
			{
				"x": -1.4060751682,
				"y": 0.1217943919,
				"z": 0.9696268641,
				"element": "C" 
			},
			{
				"x": -2.602798211,
				"y": -0.5206588637,
				"z": 1.3524361457,
				"element": "O" 
			},
			{
				"x": -3.364353733,
				"y": 0.096808967,
				"z": 2.3137978377,
				"element": "C" 
			},
			{
				"x": -4.6417803755,
				"y": -0.6720087811,
				"z": 2.5291379239,
				"element": "C" 
			},
			{
				"x": -3.0328652175,
				"y": 1.1056048485,
				"z": 2.8857500732,
				"element": "O" 
			},
			{
				"x": -0.4003493066,
				"y": -0.9631500845,
				"z": 0.5670786011,
				"element": "C" 
			},
			{
				"x": -0.0166738153,
				"y": -1.6730454365,
				"z": 1.7529331204,
				"element": "O" 
			},
			{
				"x": -0.2453815771,
				"y": -3.0179275431,
				"z": 1.7904350643,
				"element": "C" 
			},
			{
				"x": 0.2318215511,
				"y": -3.5850657606,
				"z": 3.1045397829,
				"element": "C" 
			},
			{
				"x": -0.7531927257,
				"y": -3.6465171027,
				"z": 0.8925836299,
				"element": "O" 
			},
			{
				"x": 0.842263899,
				"y": -0.3061547598,
				"z": -0.028450528,
				"element": "C" 
			},
			{
				"x": 1.70074396,
				"y": -1.3467242641,
				"z": -0.5111740775,
				"element": "O" 
			},
			{
				"x": 3.0379074288,
				"y": -1.0641908635,
				"z": -0.5305597607,
				"element": "C" 
			},
			{
				"x": 3.8016221122,
				"y": -2.1655072844,
				"z": -1.2147436333,
				"element": "C" 
			},
			{
				"x": 3.5078452323,
				"y": -0.0465461756,
				"z": -0.0763782071,
				"element": "O" 
			},
			{
				"x": 0.4670355072,
				"y": 0.6593148859,
				"z": -1.1612802517,
				"element": "C" 
			},
			{
				"x": -0.1079033099,
				"y": -0.0818016727,
				"z": -2.2571585621,
				"element": "O" 
			},
			{
				"x": 0.7147336873,
				"y": -0.4350972526,
				"z": -3.2810980198,
				"element": "C" 
			},
			{
				"x": -0.0453291095,
				"y": -1.2318441642,
				"z": -4.3117047731,
				"element": "C" 
			},
			{
				"x": 1.8896511117,
				"y": -0.1476968649,
				"z": -3.3393449602,
				"element": "O" 
			},
			{
				"x": 1.0261491164,
				"y": 5.2694184669,
				"z": -3.6964514098,
				"element": "H" 
			},
			{
				"x": 1.8277536105,
				"y": 5.9066398477,
				"z": -2.2296003976,
				"element": "H" 
			},
			{
				"x": 2.2588397764,
				"y": 4.3012048117,
				"z": -2.8913014141,
				"element": "H" 
			},
			{
				"x": -1.6741477778,
				"y": 1.9723973798,
				"z": -2.4839674579,
				"element": "H" 
			},
			{
				"x": -1.8331163142,
				"y": 3.2847598285,
				"z": -1.2750105111,
				"element": "H" 
			},
			{
				"x": -0.1292560154,
				"y": 2.260363856,
				"z": 0.1372641374,
				"element": "H" 
			},
			{
				"x": -1.0265273505,
				"y": 0.7255748989,
				"z": 1.804361166,
				"element": "H" 
			},
			{
				"x": -4.4245349568,
				"y": -1.7284719988,
				"z": 2.7079013528,
				"element": "H" 
			},
			{
				"x": -5.2570491462,
				"y": -0.6150950809,
				"z": 1.6257149199,
				"element": "H" 
			},
			{
				"x": -5.1847978005,
				"y": -0.2456867443,
				"z": 3.371825822,
				"element": "H" 
			},
			{
				"x": -0.861315881,
				"y": -1.6507922249,
				"z": -0.1436082349,
				"element": "H" 
			},
			{
				"x": 0.0173341689,
				"y": -4.6525887479,
				"z": 3.1379187971,
				"element": "H" 
			},
			{
				"x": 1.3073833327,
				"y": -3.4167912209,
				"z": 3.2135374652,
				"element": "H" 
			},
			{
				"x": -0.2623545454,
				"y": -3.0750005095,
				"z": 3.9363705818,
				"element": "H" 
			},
			{
				"x": 1.3725795222,
				"y": 0.2602098319,
				"z": 0.7440772767,
				"element": "H" 
			},
			{
				"x": 3.6919009577,
				"y": -2.0254863895,
				"z": -2.2953525822,
				"element": "H" 
			},
			{
				"x": 3.3978162288,
				"y": -3.1468431455,
				"z": -0.9566810723,
				"element": "H" 
			},
			{
				"x": 4.8566411142,
				"y": -2.0972455346,
				"z": -0.9499088356,
				"element": "H" 
			},
			{
				"x": 1.3586573308,
				"y": 1.1822551423,
				"z": -1.5113535418,
				"element": "H" 
			},
			{
				"x": -0.9545356858,
				"y": -0.7033834607,
				"z": -4.6101671531,
				"element": "H" 
			},
			{
				"x": 0.592399039,
				"y": -1.4071513934,
				"z": -5.1774155732,
				"element": "H" 
			},
			{
				"x": -0.3510757357,
				"y": -2.1894067336,
				"z": -3.8784894864,
				"element": "H" 
			}
		],
		 "valence_orbital": [ 
			{
				"type": "occ",
				"energy": -0.28187,
				"method": "rhf"
			},
			{
				"type": "occ",
				"energy": -0.28156,
				"method": "rhf"
			},
			{
				"type": "occ",
				"energy": -0.27951,
				"method": "rhf"
			},
			{
				"type": "occ",
				"energy": -0.27814,
				"method": "rhf"
			},
			{
				"type": "occ",
				"energy": -0.27296,
				"method": "rhf"
			},
			{
				"type": "unocc",
				"energy": -0.0013,
				"method": "rhf"
			},
			{
				"type": "unocc",
				"energy": -0.00028,
				"method": "rhf"
			},
			{
				"type": "unocc",
				"energy": 0.00395,
				"method": "rhf"
			},
			{
				"type": "unocc",
				"energy": 0.00518,
				"method": "rhf"
			},
			{
				"type": "unocc",
				"energy": 0.00921,
				"method": "rhf"
			}
		],
		"cosmo_sigma_profile": { 
			"-0.025": 0.0,
			"-0.024": 0.0,
			"-0.023": 0.0,
			"-0.022": 0.0,
			"-0.021": 0.0,
			"-0.02": 0.0,
			"-0.019": 0.0,
			"-0.018": 0.0,
			"-0.017": 0.0,
			"-0.016": 0.0,
			"-0.015": 0.0,
			"-0.014": 0.0,
			"-0.013": 0.0553837703778,
			"-0.012": 0.663147235145,
			"-0.011": 1.25598193739,
			"-0.01": 1.72900437611,
			"-0.009": 2.0023270788,
			"-0.008": 3.30647768969,
			"-0.007": 14.0466948015,
			"-0.006": 31.3974091376,
			"-0.005": 34.7666641133,
			"-0.004": 39.2562261761,
			"-0.003": 46.914462781,
			"-0.002": 50.2218231579,
			"-0.001": 29.3080429768,
			"0.0": 18.3488244916,
			"0.001": 17.4254260689,
			"0.002": 15.7866046151,
			"0.003": 12.7542637931,
			"0.004": 13.9570278563,
			"0.005": 14.0485318504,
			"0.006": 12.9879306088,
			"0.007": 12.4636431704,
			"0.008": 7.94506465982,
			"0.009": 10.0759076707,
			"0.01": 11.2585344085,
			"0.011": 18.1850308041,
			"0.012": 9.8623068954,
			"0.013": 1.02196835512,
			"0.014": 0.0,
			"0.015": 0.0,
			"0.016": 0.0,
			"0.017": 0.0,
			"0.018": 0.0,
			"0.019": 0.0,
			"0.02": 0.0,
			"0.021": 0.0,
			"0.022": 0.0,
			"0.023": 0.0,
			"0.024": 0.0,
			"0.025": 0.0
		}
	}
}
