{
	 "smiles": "CC1=CC(C)=C(C=C1)N1C(S)=NC=C1C1=CC=CC=C1", 
	 "Tm": 521.15, 
	 "num_atms": 36, 
	 "gaussian": { 
		 "optdone": 1, 
		 "sigma_profile": "yes", 
		 "theory": "DFT", 
		 "functional": "B3LYP", 
		 "basiset": "6-31G**", 
		 "properties": { 
			 "R2extent": 6100.0967, 
			 "electric_dipole_moment_norm": 5.23488404838, 
			 "electric_quadrupole_moment_norm": 11.4403794408, 
			 "total_energy": -1165.14989041, 
			 "HOMO_LUMO_gap": 0.17165, 
			 "cosmo_polarized_energy": -12.23, 
			 "cosmo_cavitation_energy": 40.6, 
			 "cosmo_dispersion_energy": -27.71, 
			 "cosmo_repulsion_energy": 2.09, 
			 "cosmo_total_nonelectrostatic_energy": 14.98, 
			 "SMD_solvation_energy": 4.81 
		},
		"coords": [
			{
				"x": -2.4998992723,
				"y": -0.6426453124,
				"z": -4.5226218561,
				"element": "C" 
			},
			{
				"x": -1.6775731038,
				"y": -0.4260685196,
				"z": -3.27449226,
				"element": "C" 
			},
			{
				"x": -2.0805736904,
				"y": 0.498208811,
				"z": -2.3021961676,
				"element": "C" 
			},
			{
				"x": -1.3369183854,
				"y": 0.7485352577,
				"z": -1.1430081632,
				"element": "C" 
			},
			{
				"x": -1.8134034712,
				"y": 1.7462422282,
				"z": -0.1159736106,
				"element": "C" 
			},
			{
				"x": -0.137033239,
				"y": 0.0319435643,
				"z": -0.9730375752,
				"element": "C" 
			},
			{
				"x": 0.2823204316,
				"y": -0.8982715442,
				"z": -1.9273485294,
				"element": "C" 
			},
			{
				"x": -0.4834568285,
				"y": -1.1275740438,
				"z": -3.0675217784,
				"element": "C" 
			},
			{
				"x": 0.6727085613,
				"y": 0.2452570261,
				"z": 0.19138258,
				"element": "N" 
			},
			{
				"x": 1.5763203135,
				"y": 1.2747816476,
				"z": 0.3744971045,
				"element": "C" 
			},
			{
				"x": 1.8100971987,
				"y": 2.639259825,
				"z": -0.7312461648,
				"element": "S" 
			},
			{
				"x": 2.2472372365,
				"y": 1.1650408395,
				"z": 1.4974933345,
				"element": "N" 
			},
			{
				"x": 1.7876719327,
				"y": 0.0092974208,
				"z": 2.0755273443,
				"element": "C" 
			},
			{
				"x": 0.8287753591,
				"y": -0.6062917525,
				"z": 1.3002487099,
				"element": "C" 
			},
			{
				"x": 0.1159273167,
				"y": -1.8679308535,
				"z": 1.5321963329,
				"element": "C" 
			},
			{
				"x": 0.795539777,
				"y": -2.9123260014,
				"z": 2.1890571062,
				"element": "C" 
			},
			{
				"x": 0.1515699944,
				"y": -4.1102577471,
				"z": 2.4889919008,
				"element": "C" 
			},
			{
				"x": -1.1826580137,
				"y": -4.3028693361,
				"z": 2.1242669242,
				"element": "C" 
			},
			{
				"x": -1.8659731692,
				"y": -3.2802292217,
				"z": 1.4643023564,
				"element": "C" 
			},
			{
				"x": -1.2293307183,
				"y": -2.0739600738,
				"z": 1.1757417316,
				"element": "C" 
			},
			{
				"x": -3.5596523006,
				"y": -0.4381155244,
				"z": -4.3448675209,
				"element": "H" 
			},
			{
				"x": -2.4079036597,
				"y": -1.669377671,
				"z": -4.8888323102,
				"element": "H" 
			},
			{
				"x": -2.1709239738,
				"y": 0.0218979003,
				"z": -5.3312928611,
				"element": "H" 
			},
			{
				"x": -3.0123542267,
				"y": 1.0407266399,
				"z": -2.4455868171,
				"element": "H" 
			},
			{
				"x": -1.1761543864,
				"y": 2.6374726481,
				"z": -0.1036412022,
				"element": "H" 
			},
			{
				"x": -1.7883972599,
				"y": 1.325465263,
				"z": 0.8943564433,
				"element": "H" 
			},
			{
				"x": -2.8366298697,
				"y": 2.0640202472,
				"z": -0.3311754158,
				"element": "H" 
			},
			{
				"x": 1.2068297246,
				"y": -1.44220274,
				"z": -1.7610138694,
				"element": "H" 
			},
			{
				"x": -0.1505525751,
				"y": -1.8578773554,
				"z": -3.799980233,
				"element": "H" 
			},
			{
				"x": 1.3281421618,
				"y": 2.021554795,
				"z": -1.8284261548,
				"element": "H" 
			},
			{
				"x": 2.1538537668,
				"y": -0.3185626433,
				"z": 3.0387492343,
				"element": "H" 
			},
			{
				"x": 1.8415263912,
				"y": -2.7804410243,
				"z": 2.4480047144,
				"element": "H" 
			},
			{
				"x": 0.6979350494,
				"y": -4.9002278692,
				"z": 2.9966100355,
				"element": "H" 
			},
			{
				"x": -1.6831623713,
				"y": -5.2399711871,
				"z": 2.34978393,
				"element": "H" 
			},
			{
				"x": -2.9056824496,
				"y": -3.4160228452,
				"z": 1.1798035221,
				"element": "H" 
			},
			{
				"x": -1.7854222507,
				"y": -1.2864808476,
				"z": 0.6805491849,
				"element": "H" 
			}
		],
		 "valence_orbital": [ 
			{
				"type": "occ",
				"energy": -0.26115,
				"method": "rhf"
			},
			{
				"type": "occ",
				"energy": -0.25512,
				"method": "rhf"
			},
			{
				"type": "occ",
				"energy": -0.25249,
				"method": "rhf"
			},
			{
				"type": "occ",
				"energy": -0.24647,
				"method": "rhf"
			},
			{
				"type": "occ",
				"energy": -0.19691,
				"method": "rhf"
			},
			{
				"type": "unocc",
				"energy": -0.02526,
				"method": "rhf"
			},
			{
				"type": "unocc",
				"energy": -0.02097,
				"method": "rhf"
			},
			{
				"type": "unocc",
				"energy": -0.01571,
				"method": "rhf"
			},
			{
				"type": "unocc",
				"energy": -0.00144,
				"method": "rhf"
			},
			{
				"type": "unocc",
				"energy": 0.02625,
				"method": "rhf"
			}
		],
		"cosmo_sigma_profile": { 
			"-0.025": 0.0,
			"-0.024": 0.0,
			"-0.023": 0.0,
			"-0.022": 0.0,
			"-0.021": 0.0,
			"-0.02": 0.0,
			"-0.019": 0.0,
			"-0.018": 0.0,
			"-0.017": 0.0,
			"-0.016": 0.0,
			"-0.015": 0.0,
			"-0.014": 0.0,
			"-0.013": 0.0,
			"-0.012": 0.00781995956519,
			"-0.011": 0.500787985991,
			"-0.01": 0.767061226291,
			"-0.009": 1.09553662034,
			"-0.008": 1.28945077845,
			"-0.007": 2.57232652117,
			"-0.006": 11.4802199747,
			"-0.005": 24.7702929692,
			"-0.004": 33.9747176072,
			"-0.003": 28.7435748112,
			"-0.002": 27.0260705129,
			"-0.001": 30.5336387,
			"0.0": 30.6371912744,
			"0.001": 21.3623969963,
			"0.002": 22.4091967778,
			"0.003": 22.6032082023,
			"0.004": 23.2020377794,
			"0.005": 17.6411066606,
			"0.006": 8.88802517295,
			"0.007": 3.78096419761,
			"0.008": 2.86468709933,
			"0.009": 2.09286847768,
			"0.01": 0.755371424315,
			"0.011": 1.21720413173,
			"0.012": 1.75637805185,
			"0.013": 0.837566463365,
			"0.014": 1.04535737647,
			"0.015": 1.14829831945,
			"0.016": 0.862745224599,
			"0.017": 0.682775020673,
			"0.018": 0.0,
			"0.019": 0.0,
			"0.02": 0.0,
			"0.021": 0.0,
			"0.022": 0.0,
			"0.023": 0.0,
			"0.024": 0.0,
			"0.025": 0.0
		}
	}
}
