{
	 "smiles": "CN1C(=O)C(C2=NNC(=O)C2=C/CC2=CC=CC=C2)=C(O)C2=CC=CC=C12", 
	 "Tm": 522.15, 
	 "num_atms": 44, 
	 "gaussian": { 
		 "optdone": 1, 
		 "sigma_profile": "yes", 
		 "theory": "DFT", 
		 "functional": "B3LYP", 
		 "basiset": "6-31G**", 
		 "properties": { 
			 "R2extent": 11938.205, 
			 "electric_dipole_moment_norm": 7.36995850735, 
			 "electric_quadrupole_moment_norm": 11.0496485822, 
			 "total_energy": -1200.39464474, 
			 "HOMO_LUMO_gap": 0.14278, 
			 "cosmo_polarized_energy": -25.84, 
			 "cosmo_cavitation_energy": 48.43, 
			 "cosmo_dispersion_energy": -33.91, 
			 "cosmo_repulsion_energy": 2.55, 
			 "cosmo_total_nonelectrostatic_energy": 17.07, 
			 "SMD_solvation_energy": 7.99 
		},
		"coords": [
			{
				"x": -1.344933161,
				"y": 0.1348926018,
				"z": -3.4125617653,
				"element": "C" 
			},
			{
				"x": -0.2154754517,
				"y": -0.4407011412,
				"z": -2.6822343781,
				"element": "N" 
			},
			{
				"x": 0.4838998557,
				"y": 0.423567983,
				"z": -1.8103941826,
				"element": "C" 
			},
			{
				"x": 0.1264947847,
				"y": 1.5947924693,
				"z": -1.6828155294,
				"element": "O" 
			},
			{
				"x": 1.6065426696,
				"y": -0.151077754,
				"z": -1.0720706199,
				"element": "C" 
			},
			{
				"x": 2.3568862533,
				"y": 0.7333874642,
				"z": -0.1577063732,
				"element": "C" 
			},
			{
				"x": 3.6509340711,
				"y": 0.849525984,
				"z": -0.2703928799,
				"element": "N" 
			},
			{
				"x": 4.0724035759,
				"y": 1.6929358816,
				"z": 0.7363496843,
				"element": "N" 
			},
			{
				"x": 3.0700690721,
				"y": 2.1456207496,
				"z": 1.5690543277,
				"element": "C" 
			},
			{
				"x": 3.2174471526,
				"y": 2.8649259575,
				"z": 2.5522195558,
				"element": "O" 
			},
			{
				"x": 1.8453656342,
				"y": 1.5237368642,
				"z": 0.9709318403,
				"element": "C" 
			},
			{
				"x": 0.5762061274,
				"y": 1.683157374,
				"z": 1.3942260096,
				"element": "C" 
			},
			{
				"x": 0.1380216299,
				"y": 2.5195834115,
				"z": 2.5648800097,
				"element": "C" 
			},
			{
				"x": -0.2464292148,
				"y": 1.6328514938,
				"z": 3.7436333564,
				"element": "C" 
			},
			{
				"x": 0.7421075957,
				"y": 1.1947252636,
				"z": 4.6365561025,
				"element": "C" 
			},
			{
				"x": 0.4089338797,
				"y": 0.3681504065,
				"z": 5.7095284285,
				"element": "C" 
			},
			{
				"x": -0.9142108462,
				"y": -0.037299103,
				"z": 5.9018304005,
				"element": "C" 
			},
			{
				"x": -1.9033275803,
				"y": 0.3919888252,
				"z": 5.0157140816,
				"element": "C" 
			},
			{
				"x": -1.5695291938,
				"y": 1.2212251401,
				"z": 3.9429002032,
				"element": "C" 
			},
			{
				"x": 1.9466564662,
				"y": -1.4695551221,
				"z": -1.2329467404,
				"element": "C" 
			},
			{
				"x": 2.9576382649,
				"y": -1.9824542828,
				"z": -0.4946424884,
				"element": "O" 
			},
			{
				"x": 1.2417302137,
				"y": -2.3148378079,
				"z": -2.1768529084,
				"element": "C" 
			},
			{
				"x": 1.6166539072,
				"y": -3.6485733577,
				"z": -2.4279888578,
				"element": "C" 
			},
			{
				"x": 0.9141622312,
				"y": -4.4445070922,
				"z": -3.3186358724,
				"element": "C" 
			},
			{
				"x": -0.1892163989,
				"y": -3.9039981173,
				"z": -3.9902621366,
				"element": "C" 
			},
			{
				"x": -0.5704401555,
				"y": -2.585747726,
				"z": -3.7835640322,
				"element": "C" 
			},
			{
				"x": 0.1395441856,
				"y": -1.7642706773,
				"z": -2.8834608447,
				"element": "C" 
			},
			{
				"x": -1.1742868842,
				"y": 0.0834520487,
				"z": -4.4923769473,
				"element": "H" 
			},
			{
				"x": -1.424071875,
				"y": 1.1751042246,
				"z": -3.1052935311,
				"element": "H" 
			},
			{
				"x": -2.2723372211,
				"y": -0.3929212192,
				"z": -3.1689301577,
				"element": "H" 
			},
			{
				"x": 5.0547961693,
				"y": 1.8967468488,
				"z": 0.8315993757,
				"element": "H" 
			},
			{
				"x": -0.2096088064,
				"y": 1.1619183133,
				"z": 0.8527210444,
				"element": "H" 
			},
			{
				"x": -0.7329092873,
				"y": 3.1109284373,
				"z": 2.2568422824,
				"element": "H" 
			},
			{
				"x": 0.9408744764,
				"y": 3.1990619443,
				"z": 2.854692935,
				"element": "H" 
			},
			{
				"x": 1.7687195294,
				"y": 1.5169728871,
				"z": 4.4853226035,
				"element": "H" 
			},
			{
				"x": 1.1831538347,
				"y": 0.0428920799,
				"z": 6.3990678831,
				"element": "H" 
			},
			{
				"x": -1.172858578,
				"y": -0.6790497538,
				"z": 6.7393675831,
				"element": "H" 
			},
			{
				"x": -2.935901682,
				"y": 0.0864238543,
				"z": 5.1611428894,
				"element": "H" 
			},
			{
				"x": -2.3454365347,
				"y": 1.5593267916,
				"z": 3.2596826303,
				"element": "H" 
			},
			{
				"x": 2.9256740248,
				"y": -2.947011021,
				"z": -0.5225435682,
				"element": "H" 
			},
			{
				"x": 2.4944356883,
				"y": -4.0693399393,
				"z": -1.9435275891,
				"element": "H" 
			},
			{
				"x": 1.2228597949,
				"y": -5.4687899244,
				"z": -3.4984661806,
				"element": "H" 
			},
			{
				"x": -0.7519387771,
				"y": -4.5146177166,
				"z": -4.6899667244,
				"element": "H" 
			},
			{
				"x": -1.4193994403,
				"y": -2.1895435445,
				"z": -4.3248289191,
				"element": "H" 
			}
		],
		 "valence_orbital": [ 
			{
				"type": "occ",
				"energy": -0.24484,
				"method": "rhf"
			},
			{
				"type": "occ",
				"energy": -0.24327,
				"method": "rhf"
			},
			{
				"type": "occ",
				"energy": -0.23435,
				"method": "rhf"
			},
			{
				"type": "occ",
				"energy": -0.22648,
				"method": "rhf"
			},
			{
				"type": "occ",
				"energy": -0.21123,
				"method": "rhf"
			},
			{
				"type": "unocc",
				"energy": -0.06845,
				"method": "rhf"
			},
			{
				"type": "unocc",
				"energy": -0.05685,
				"method": "rhf"
			},
			{
				"type": "unocc",
				"energy": -0.01938,
				"method": "rhf"
			},
			{
				"type": "unocc",
				"energy": 0.005,
				"method": "rhf"
			},
			{
				"type": "unocc",
				"energy": 0.00797,
				"method": "rhf"
			}
		],
		"cosmo_sigma_profile": { 
			"-0.025": 0.0,
			"-0.024": 0.0,
			"-0.023": 0.0,
			"-0.022": 0.0,
			"-0.021": 0.0,
			"-0.02": 0.0,
			"-0.019": 0.551976927282,
			"-0.018": 0.599745923169,
			"-0.017": 1.15342887158,
			"-0.016": 2.05621404146,
			"-0.015": 2.23403530581,
			"-0.014": 1.32963556082,
			"-0.013": 1.63858488731,
			"-0.012": 1.89367540196,
			"-0.011": 2.2995588439,
			"-0.01": 2.16970251452,
			"-0.009": 2.12068161803,
			"-0.008": 2.1437543197,
			"-0.007": 6.50627066505,
			"-0.006": 23.7820431342,
			"-0.005": 27.8413050405,
			"-0.004": 25.6413463972,
			"-0.003": 25.9470358299,
			"-0.002": 29.5076308544,
			"-0.001": 30.2685733935,
			"0.0": 31.458889506,
			"0.001": 26.6636566118,
			"0.002": 24.6477214449,
			"0.003": 22.8640389151,
			"0.004": 22.222485156,
			"0.005": 14.5857522119,
			"0.006": 12.5504917879,
			"0.007": 5.41330451501,
			"0.008": 4.58519657813,
			"0.009": 4.69551748253,
			"0.01": 5.68856625366,
			"0.011": 5.48388228793,
			"0.012": 5.96153279249,
			"0.013": 7.65428893569,
			"0.014": 3.99096330983,
			"0.015": 0.324206725945,
			"0.016": 0.0,
			"0.017": 0.0,
			"0.018": 0.0,
			"0.019": 0.0,
			"0.02": 0.0,
			"0.021": 0.0,
			"0.022": 0.0,
			"0.023": 0.0,
			"0.024": 0.0,
			"0.025": 0.0
		}
	}
}
