{
	 "smiles": "N1C2=CC3=C(C=C(N3)C3=CC=CC=C3)C=C2C=C1C1=CC=CC=C1", 
	 "Tm": 543.15, 
	 "num_atms": 40, 
	 "gaussian": { 
		 "optdone": 1, 
		 "sigma_profile": "yes", 
		 "theory": "DFT", 
		 "functional": "B3LYP", 
		 "basiset": "6-31G**", 
		 "properties": { 
			 "R2extent": 14249.7024, 
			 "electric_dipole_moment_norm": 2.41652606235, 
			 "electric_quadrupole_moment_norm": 18.1701955972, 
			 "total_energy": -957.514431451, 
			 "HOMO_LUMO_gap": 0.13599, 
			 "cosmo_polarized_energy": -15.65, 
			 "cosmo_cavitation_energy": 44.26, 
			 "cosmo_dispersion_energy": -32.57, 
			 "cosmo_repulsion_energy": 2.39, 
			 "cosmo_total_nonelectrostatic_energy": 14.07, 
			 "SMD_solvation_energy": 6.09 
		},
		"coords": [
			{
				"x": -1.726012185,
				"y": 1.9804098156,
				"z": 0.3319117318,
				"element": "N" 
			},
			{
				"x": -0.695486122,
				"y": 1.0790560663,
				"z": 0.1423000599,
				"element": "C" 
			},
			{
				"x": 0.408714479,
				"y": 1.1582121999,
				"z": -0.7051677717,
				"element": "C" 
			},
			{
				"x": 1.2862777311,
				"y": 0.0769964355,
				"z": -0.6376302762,
				"element": "C" 
			},
			{
				"x": 1.0844744815,
				"y": -1.0504248658,
				"z": 0.2280184918,
				"element": "C" 
			},
			{
				"x": 2.1818229258,
				"y": -1.9468473434,
				"z": -0.0090355595,
				"element": "C" 
			},
			{
				"x": 2.9982246556,
				"y": -1.3829053427,
				"z": -0.9630767648,
				"element": "C" 
			},
			{
				"x": 2.4690114369,
				"y": -0.1406724413,
				"z": -1.3188990031,
				"element": "N" 
			},
			{
				"x": 4.243936155,
				"y": -1.874619956,
				"z": -1.5524521531,
				"element": "C" 
			},
			{
				"x": 4.5153513593,
				"y": -3.2550148575,
				"z": -1.5966497242,
				"element": "C" 
			},
			{
				"x": 5.7010676765,
				"y": -3.731306533,
				"z": -2.1485614319,
				"element": "C" 
			},
			{
				"x": 6.639697022,
				"y": -2.8437451869,
				"z": -2.6825678073,
				"element": "C" 
			},
			{
				"x": 6.381846573,
				"y": -1.4724373858,
				"z": -2.6498955789,
				"element": "C" 
			},
			{
				"x": 5.2002926255,
				"y": -0.9917024286,
				"z": -2.087487549,
				"element": "C" 
			},
			{
				"x": -0.0305732483,
				"y": -1.0938626787,
				"z": 1.0721478645,
				"element": "C" 
			},
			{
				"x": -0.93641675,
				"y": -0.0285772733,
				"z": 1.0233475057,
				"element": "C" 
			},
			{
				"x": -2.1700338185,
				"y": 0.2535182071,
				"z": 1.7034681117,
				"element": "C" 
			},
			{
				"x": -2.6392984515,
				"y": 1.4674566082,
				"z": 1.2552820395,
				"element": "C" 
			},
			{
				"x": -3.8415611462,
				"y": 2.2130861646,
				"z": 1.6288318761,
				"element": "C" 
			},
			{
				"x": -3.9071665162,
				"y": 3.6125265795,
				"z": 1.4959204696,
				"element": "C" 
			},
			{
				"x": -5.0597983921,
				"y": 4.3114311949,
				"z": 1.8515288589,
				"element": "C" 
			},
			{
				"x": -6.1689102052,
				"y": 3.6309196355,
				"z": 2.3563188415,
				"element": "C" 
			},
			{
				"x": -6.1146087558,
				"y": 2.2415132792,
				"z": 2.4996621592,
				"element": "C" 
			},
			{
				"x": -4.9692858595,
				"y": 1.539754305,
				"z": 2.1347698253,
				"element": "C" 
			},
			{
				"x": -1.9341901805,
				"y": 2.7436714904,
				"z": -0.29151156,
				"element": "H" 
			},
			{
				"x": 0.5783664411,
				"y": 2.0057136867,
				"z": -1.3629539713,
				"element": "H" 
			},
			{
				"x": 2.3698950724,
				"y": -2.8777408208,
				"z": 0.5068854917,
				"element": "H" 
			},
			{
				"x": 2.7554268957,
				"y": 0.3725074435,
				"z": -2.1369274616,
				"element": "H" 
			},
			{
				"x": 3.7775991738,
				"y": -3.9524430023,
				"z": -1.2121613591,
				"element": "H" 
			},
			{
				"x": 5.8887483712,
				"y": -4.8010879453,
				"z": -2.1738459631,
				"element": "H" 
			},
			{
				"x": 7.561046132,
				"y": -3.217860859,
				"z": -3.1190024991,
				"element": "H" 
			},
			{
				"x": 7.107740321,
				"y": -0.7717434521,
				"z": -3.0529658042,
				"element": "H" 
			},
			{
				"x": 5.0344749432,
				"y": 0.0806742358,
				"z": -2.0318978281,
				"element": "H" 
			},
			{
				"x": -0.1949472654,
				"y": -1.936786692,
				"z": 1.7374478756,
				"element": "H" 
			},
			{
				"x": -2.6282385243,
				"y": -0.3506927573,
				"z": 2.4735876357,
				"element": "H" 
			},
			{
				"x": -3.0380720864,
				"y": 4.1619083299,
				"z": 1.1446018507,
				"element": "H" 
			},
			{
				"x": -5.0860226737,
				"y": 5.3922598692,
				"z": 1.7443747375,
				"element": "H" 
			},
			{
				"x": -7.0659804866,
				"y": 4.1757975847,
				"z": 2.6350540427,
				"element": "H" 
			},
			{
				"x": -6.9740917334,
				"y": 1.7009142661,
				"z": 2.8861060291,
				"element": "H" 
			},
			{
				"x": -4.9461200709,
				"y": 0.457744424,
				"z": 2.2198245677,
				"element": "H" 
			}
		],
		 "valence_orbital": [ 
			{
				"type": "occ",
				"energy": -0.2517,
				"method": "rhf"
			},
			{
				"type": "occ",
				"energy": -0.24123,
				"method": "rhf"
			},
			{
				"type": "occ",
				"energy": -0.23913,
				"method": "rhf"
			},
			{
				"type": "occ",
				"energy": -0.18376,
				"method": "rhf"
			},
			{
				"type": "occ",
				"energy": -0.17457,
				"method": "rhf"
			},
			{
				"type": "unocc",
				"energy": -0.03858,
				"method": "rhf"
			},
			{
				"type": "unocc",
				"energy": -0.01617,
				"method": "rhf"
			},
			{
				"type": "unocc",
				"energy": -0.00252,
				"method": "rhf"
			},
			{
				"type": "unocc",
				"energy": -0.00234,
				"method": "rhf"
			},
			{
				"type": "unocc",
				"energy": 0.02333,
				"method": "rhf"
			}
		],
		"cosmo_sigma_profile": { 
			"-0.025": 0.0,
			"-0.024": 0.0,
			"-0.023": 0.0,
			"-0.022": 0.0,
			"-0.021": 0.0,
			"-0.02": 0.0,
			"-0.019": 0.0,
			"-0.018": 0.0,
			"-0.017": 0.0,
			"-0.016": 0.0,
			"-0.015": 0.585835430153,
			"-0.014": 2.37570247774,
			"-0.013": 2.05585436468,
			"-0.012": 2.85474555289,
			"-0.011": 2.24197832994,
			"-0.01": 2.61672993038,
			"-0.009": 3.50813391084,
			"-0.008": 2.92543486582,
			"-0.007": 4.55433294495,
			"-0.006": 16.2154484374,
			"-0.005": 27.0559023246,
			"-0.004": 28.8897810537,
			"-0.003": 26.6421840852,
			"-0.002": 20.7136489203,
			"-0.001": 18.9232085995,
			"0.0": 17.1143513284,
			"0.001": 18.4638115926,
			"0.002": 20.9808004431,
			"0.003": 24.8093931978,
			"0.004": 30.2215480633,
			"0.005": 36.7850957264,
			"0.006": 33.3410957626,
			"0.007": 11.8231981125,
			"0.008": 0.158071308296,
			"0.009": 0.0,
			"0.01": 0.0,
			"0.011": 0.0,
			"0.012": 0.0,
			"0.013": 0.0,
			"0.014": 0.0,
			"0.015": 0.0,
			"0.016": 0.0,
			"0.017": 0.0,
			"0.018": 0.0,
			"0.019": 0.0,
			"0.02": 0.0,
			"0.021": 0.0,
			"0.022": 0.0,
			"0.023": 0.0,
			"0.024": 0.0,
			"0.025": 0.0
		}
	}
}
