{
	 "smiles": "COC(=O)CC[C@H](C)[C@H]1CCC2C3C(CC[C@]12C)[C@@]1(C)CCCC[C@H]1[C@@H](Br)C3=O", 
	 "Tm": 397.15, 
	 "num_atms": 68, 
	 "gaussian": { 
		 "optdone": 1, 
		 "sigma_profile": "yes", 
		 "theory": "DFT", 
		 "functional": "B3LYP", 
		 "basiset": "6-31G**", 
		 "properties": { 
			 "R2extent": 16102.752, 
			 "electric_dipole_moment_norm": 2.57008205706, 
			 "electric_quadrupole_moment_norm": 14.1429120156, 
			 "total_energy": -3773.24968592, 
			 "HOMO_LUMO_gap": 0.19015, 
			 "cosmo_polarized_energy": -13.54, 
			 "cosmo_cavitation_energy": 58.61, 
			 "cosmo_dispersion_energy": -40.11, 
			 "cosmo_repulsion_energy": 2.95, 
			 "cosmo_total_nonelectrostatic_energy": 21.45, 
			 "SMD_solvation_energy": 9.3 
		},
		"coords": [
			{
				"x": -6.1940829567,
				"y": -3.1120833223,
				"z": 2.4615070464,
				"element": "C" 
			},
			{
				"x": -5.4760964315,
				"y": -1.8741152452,
				"z": 2.580856217,
				"element": "O" 
			},
			{
				"x": -5.3806653862,
				"y": -1.1479348066,
				"z": 1.4432016414,
				"element": "C" 
			},
			{
				"x": -5.8701698107,
				"y": -1.4940721691,
				"z": 0.3890680228,
				"element": "O" 
			},
			{
				"x": -4.5898980984,
				"y": 0.1243589126,
				"z": 1.6823375961,
				"element": "C" 
			},
			{
				"x": -4.4837769295,
				"y": 0.9882614654,
				"z": 0.4216998955,
				"element": "C" 
			},
			{
				"x": -3.8626004447,
				"y": 2.3958985679,
				"z": 0.6005603695,
				"element": "C" 
			},
			{
				"x": -4.3525513919,
				"y": 3.3121801957,
				"z": -0.5412520027,
				"element": "C" 
			},
			{
				"x": -2.3239272742,
				"y": 2.5391783821,
				"z": 0.8641487246,
				"element": "C" 
			},
			{
				"x": -1.9001682715,
				"y": 2.0416508391,
				"z": 2.2803002072,
				"element": "C" 
			},
			{
				"x": -1.0630279357,
				"y": 0.7501371094,
				"z": 2.0949961738,
				"element": "C" 
			},
			{
				"x": -1.0442461744,
				"y": 0.471560567,
				"z": 0.5687710845,
				"element": "C" 
			},
			{
				"x": 0.1912936579,
				"y": -0.3205576681,
				"z": 0.0136959909,
				"element": "C" 
			},
			{
				"x": 1.3235625686,
				"y": 0.5815552364,
				"z": -0.5551175851,
				"element": "C" 
			},
			{
				"x": 1.3839184607,
				"y": 1.9011449084,
				"z": 0.2374204827,
				"element": "C" 
			},
			{
				"x": 0.0761973174,
				"y": 2.7065897891,
				"z": 0.0374920475,
				"element": "C" 
			},
			{
				"x": -1.2538563061,
				"y": 1.8695122634,
				"z": -0.0764424936,
				"element": "C" 
			},
			{
				"x": -1.6685660777,
				"y": 1.7802215297,
				"z": -1.5564727744,
				"element": "C" 
			},
			{
				"x": 2.6594650568,
				"y": -0.2002113134,
				"z": -0.8894502887,
				"element": "C" 
			},
			{
				"x": 2.4562102396,
				"y": -0.7854867327,
				"z": -2.3127442869,
				"element": "C" 
			},
			{
				"x": 3.8724222765,
				"y": 0.7608940031,
				"z": -0.9180250914,
				"element": "C" 
			},
			{
				"x": 5.1832168494,
				"y": 0.1012110412,
				"z": -1.3978793745,
				"element": "C" 
			},
			{
				"x": 5.3813188933,
				"y": -1.3249989622,
				"z": -0.8242484971,
				"element": "C" 
			},
			{
				"x": 4.4924378203,
				"y": -1.5560384107,
				"z": 0.4008294154,
				"element": "C" 
			},
			{
				"x": 2.9900324574,
				"y": -1.4155947523,
				"z": 0.0688207672,
				"element": "C" 
			},
			{
				"x": 2.1148507063,
				"y": -1.5579491293,
				"z": 1.3109312824,
				"element": "C" 
			},
			{
				"x": 2.6034037993,
				"y": -0.3227037164,
				"z": 2.8268641625,
				"element": "Br" 
			},
			{
				"x": 0.6269858643,
				"y": -1.3797663947,
				"z": 1.0246464754,
				"element": "C" 
			},
			{
				"x": -0.1766434612,
				"y": -2.1335981675,
				"z": 1.5415782616,
				"element": "O" 
			},
			{
				"x": -7.2242390784,
				"y": -2.9329418428,
				"z": 2.1425941475,
				"element": "H" 
			},
			{
				"x": -6.1740666334,
				"y": -3.5617778671,
				"z": 3.4542998961,
				"element": "H" 
			},
			{
				"x": -5.7111662578,
				"y": -3.7697263512,
				"z": 1.7341932332,
				"element": "H" 
			},
			{
				"x": -5.0815636477,
				"y": 0.671711636,
				"z": 2.4970157044,
				"element": "H" 
			},
			{
				"x": -3.6141498693,
				"y": -0.1748875615,
				"z": 2.0765575584,
				"element": "H" 
			},
			{
				"x": -3.9663826513,
				"y": 0.4215839545,
				"z": -0.3578068302,
				"element": "H" 
			},
			{
				"x": -5.5017659974,
				"y": 1.1226559716,
				"z": 0.0384315455,
				"element": "H" 
			},
			{
				"x": -4.3116684647,
				"y": 2.8119396803,
				"z": 1.5160926311,
				"element": "H" 
			},
			{
				"x": -3.9078151847,
				"y": 4.3108511082,
				"z": -0.4703336423,
				"element": "H" 
			},
			{
				"x": -4.1188469387,
				"y": 2.913010179,
				"z": -1.5313475766,
				"element": "H" 
			},
			{
				"x": -5.4404488275,
				"y": 3.4300251502,
				"z": -0.4898510113,
				"element": "H" 
			},
			{
				"x": -2.1621711833,
				"y": 3.62345665,
				"z": 0.8138110378,
				"element": "H" 
			},
			{
				"x": -1.2996161778,
				"y": 2.8064714188,
				"z": 2.7833685981,
				"element": "H" 
			},
			{
				"x": -2.771820848,
				"y": 1.8798588807,
				"z": 2.9205014424,
				"element": "H" 
			},
			{
				"x": -0.0528181474,
				"y": 0.8895748644,
				"z": 2.4867179832,
				"element": "H" 
			},
			{
				"x": -1.4753110416,
				"y": -0.103188812,
				"z": 2.6392291056,
				"element": "H" 
			},
			{
				"x": -1.922877819,
				"y": -0.139344889,
				"z": 0.3422038841,
				"element": "H" 
			},
			{
				"x": -0.1850785749,
				"y": -0.9327254734,
				"z": -0.8190036827,
				"element": "H" 
			},
			{
				"x": 0.9744636278,
				"y": 0.8939085933,
				"z": -1.5455875288,
				"element": "H" 
			},
			{
				"x": 2.2155941256,
				"y": 2.5227242674,
				"z": -0.1039036909,
				"element": "H" 
			},
			{
				"x": 1.5643395184,
				"y": 1.7122390801,
				"z": 1.2971412603,
				"element": "H" 
			},
			{
				"x": 0.1709171265,
				"y": 3.3089619266,
				"z": -0.8746538673,
				"element": "H" 
			},
			{
				"x": -0.0051094458,
				"y": 3.4279406105,
				"z": 0.857309703,
				"element": "H" 
			},
			{
				"x": -1.8498423619,
				"y": 2.7759529214,
				"z": -1.9732870804,
				"element": "H" 
			},
			{
				"x": -2.5733188176,
				"y": 1.1850350868,
				"z": -1.7001372549,
				"element": "H" 
			},
			{
				"x": -0.8829860882,
				"y": 1.3216162768,
				"z": -2.1647178287,
				"element": "H" 
			},
			{
				"x": 2.3662245247,
				"y": 0.0166797419,
				"z": -3.0536554345,
				"element": "H" 
			},
			{
				"x": 1.5425948151,
				"y": -1.3888488036,
				"z": -2.3633164065,
				"element": "H" 
			},
			{
				"x": 3.2836912901,
				"y": -1.4304347455,
				"z": -2.6195890868,
				"element": "H" 
			},
			{
				"x": 3.6457161493,
				"y": 1.6173749542,
				"z": -1.5643077706,
				"element": "H" 
			},
			{
				"x": 4.0223844648,
				"y": 1.1681253769,
				"z": 0.0874612461,
				"element": "H" 
			},
			{
				"x": 6.0174274989,
				"y": 0.7452534719,
				"z": -1.0975575226,
				"element": "H" 
			},
			{
				"x": 5.2098351289,
				"y": 0.0676275014,
				"z": -2.4923652601,
				"element": "H" 
			},
			{
				"x": 5.1497442408,
				"y": -2.0798354997,
				"z": -1.5860225388,
				"element": "H" 
			},
			{
				"x": 6.4304651832,
				"y": -1.4856334731,
				"z": -0.5536717424,
				"element": "H" 
			},
			{
				"x": 4.6700136979,
				"y": -2.5520859313,
				"z": 0.8245231019,
				"element": "H" 
			},
			{
				"x": 4.7588564753,
				"y": -0.8391538116,
				"z": 1.1844203146,
				"element": "H" 
			},
			{
				"x": 2.719356655,
				"y": -2.3254377751,
				"z": -0.4919333397,
				"element": "H" 
			},
			{
				"x": 2.2475005167,
				"y": -2.5333004857,
				"z": 1.7779832328,
				"element": "H" 
			}
		],
		 "valence_orbital": [ 
			{
				"type": "occ",
				"energy": -0.27938,
				"method": "rhf"
			},
			{
				"type": "occ",
				"energy": -0.27592,
				"method": "rhf"
			},
			{
				"type": "occ",
				"energy": -0.27491,
				"method": "rhf"
			},
			{
				"type": "occ",
				"energy": -0.26421,
				"method": "rhf"
			},
			{
				"type": "occ",
				"energy": -0.24289,
				"method": "rhf"
			},
			{
				"type": "unocc",
				"energy": -0.05274,
				"method": "rhf"
			},
			{
				"type": "unocc",
				"energy": 0.02069,
				"method": "rhf"
			},
			{
				"type": "unocc",
				"energy": 0.02372,
				"method": "rhf"
			},
			{
				"type": "unocc",
				"energy": 0.05621,
				"method": "rhf"
			},
			{
				"type": "unocc",
				"energy": 0.06968,
				"method": "rhf"
			}
		],
		"cosmo_sigma_profile": { 
			"-0.025": 0.0,
			"-0.024": 0.0,
			"-0.023": 0.0,
			"-0.022": 0.0,
			"-0.021": 0.0,
			"-0.02": 0.0,
			"-0.019": 0.0,
			"-0.018": 0.0,
			"-0.017": 0.0,
			"-0.016": 0.0,
			"-0.015": 0.0,
			"-0.014": 0.00506862240916,
			"-0.013": 0.0100788974063,
			"-0.012": 0.0236035248324,
			"-0.011": 0.00357351635212,
			"-0.01": 0.0,
			"-0.009": 0.0,
			"-0.008": 0.300248002366,
			"-0.007": 4.1496833963,
			"-0.006": 9.597417852,
			"-0.005": 15.4389986546,
			"-0.004": 26.2270184229,
			"-0.003": 44.4885507408,
			"-0.002": 68.6045881088,
			"-0.001": 70.3954419865,
			"0.0": 60.3376892391,
			"0.001": 50.6240636618,
			"0.002": 30.7510546581,
			"0.003": 12.8286588193,
			"0.004": 10.5776090417,
			"0.005": 9.67686044374,
			"0.006": 6.71343849334,
			"0.007": 3.84114961682,
			"0.008": 4.59381798458,
			"0.009": 4.58254996258,
			"0.01": 4.18225028145,
			"0.011": 5.6049676543,
			"0.012": 8.09029379235,
			"0.013": 2.09586712003,
			"0.014": 0.0158931066193,
			"0.015": 0.0,
			"0.016": 0.0,
			"0.017": 0.0,
			"0.018": 0.0,
			"0.019": 0.0,
			"0.02": 0.0,
			"0.021": 0.0,
			"0.022": 0.0,
			"0.023": 0.0,
			"0.024": 0.0,
			"0.025": 0.0
		}
	}
}
