{
	 "smiles": "COC1=NC(C)=NC(N)=N1", 
	 "Tm": 533.15, 
	 "num_atms": 18, 
	 "gaussian": { 
		 "optdone": 1, 
		 "sigma_profile": "yes", 
		 "theory": "DFT", 
		 "functional": "B3LYP", 
		 "basiset": "6-31G**", 
		 "properties": { 
			 "R2extent": 1571.5075, 
			 "electric_dipole_moment_norm": 3.15212856813, 
			 "electric_quadrupole_moment_norm": 6.46270535999, 
			 "total_energy": -489.612217487, 
			 "HOMO_LUMO_gap": 0.23002, 
			 "cosmo_polarized_energy": -12.49, 
			 "cosmo_cavitation_energy": 22.35, 
			 "cosmo_dispersion_energy": -16.99, 
			 "cosmo_repulsion_energy": 1.42, 
			 "cosmo_total_nonelectrostatic_energy": 6.78, 
			 "SMD_solvation_energy": 1.05 
		},
		"coords": [
			{
				"x": -1.8655729399,
				"y": -1.0088911159,
				"z": -2.9211773538,
				"element": "C" 
			},
			{
				"x": -0.541136183,
				"y": -0.55424626,
				"z": -2.6249813204,
				"element": "O" 
			},
			{
				"x": -0.2264117374,
				"y": -0.3597718609,
				"z": -1.3389680697,
				"element": "C" 
			},
			{
				"x": 1.0271688357,
				"y": 0.0636255353,
				"z": -1.1389646568,
				"element": "N" 
			},
			{
				"x": 1.3365958664,
				"y": 0.2591623185,
				"z": 0.1494624186,
				"element": "C" 
			},
			{
				"x": 2.7328359111,
				"y": 0.7301044437,
				"z": 0.4475383177,
				"element": "C" 
			},
			{
				"x": 0.5142851166,
				"y": 0.0662873792,
				"z": 1.1878821779,
				"element": "N" 
			},
			{
				"x": -0.7164193652,
				"y": -0.3630454406,
				"z": 0.8474381437,
				"element": "C" 
			},
			{
				"x": -1.5902311321,
				"y": -0.5935982956,
				"z": 1.8548924163,
				"element": "N" 
			},
			{
				"x": -1.1497480083,
				"y": -0.5926925152,
				"z": -0.4072160303,
				"element": "N" 
			},
			{
				"x": -2.0644455285,
				"y": -1.9758739116,
				"z": -2.4511707223,
				"element": "H" 
			},
			{
				"x": -2.6148139815,
				"y": -0.2911143981,
				"z": -2.5761583536,
				"element": "H" 
			},
			{
				"x": -1.9005195189,
				"y": -1.1006783375,
				"z": -4.0072981745,
				"element": "H" 
			},
			{
				"x": 2.9630375245,
				"y": 1.6185743781,
				"z": -0.1475834568,
				"element": "H" 
			},
			{
				"x": 2.8453135855,
				"y": 0.9499747457,
				"z": 1.5095328324,
				"element": "H" 
			},
			{
				"x": 3.453116724,
				"y": -0.0424757178,
				"z": 0.1579571088,
				"element": "H" 
			},
			{
				"x": -2.544120433,
				"y": -0.8257881687,
				"z": 1.6353201812,
				"element": "H" 
			},
			{
				"x": -1.3224347359,
				"y": -0.3466527788,
				"z": 2.7927945415,
				"element": "H" 
			}
		],
		 "valence_orbital": [ 
			{
				"type": "occ",
				"energy": -0.3159,
				"method": "rhf"
			},
			{
				"type": "occ",
				"energy": -0.27277,
				"method": "rhf"
			},
			{
				"type": "occ",
				"energy": -0.26098,
				"method": "rhf"
			},
			{
				"type": "occ",
				"energy": -0.25554,
				"method": "rhf"
			},
			{
				"type": "occ",
				"energy": -0.24424,
				"method": "rhf"
			},
			{
				"type": "unocc",
				"energy": -0.01422,
				"method": "rhf"
			},
			{
				"type": "unocc",
				"energy": 0.00354,
				"method": "rhf"
			},
			{
				"type": "unocc",
				"energy": 0.08477,
				"method": "rhf"
			},
			{
				"type": "unocc",
				"energy": 0.11932,
				"method": "rhf"
			},
			{
				"type": "unocc",
				"energy": 0.12865,
				"method": "rhf"
			}
		],
		"cosmo_sigma_profile": { 
			"-0.025": 0.0,
			"-0.024": 0.0,
			"-0.023": 0.0,
			"-0.022": 0.0,
			"-0.021": 0.0,
			"-0.02": 0.0,
			"-0.019": 0.0,
			"-0.018": 0.0,
			"-0.017": 0.0,
			"-0.016": 0.0,
			"-0.015": 0.514702092493,
			"-0.014": 2.13764606216,
			"-0.013": 1.95981305349,
			"-0.012": 1.67694711393,
			"-0.011": 2.22454465467,
			"-0.01": 2.43215538881,
			"-0.009": 1.76342488199,
			"-0.008": 0.857245921485,
			"-0.007": 2.11154925709,
			"-0.006": 5.48354538763,
			"-0.005": 11.1054625566,
			"-0.004": 14.4714339115,
			"-0.003": 17.0916879864,
			"-0.002": 15.4698878509,
			"-0.001": 17.0957561455,
			"0.0": 12.1290100111,
			"0.001": 9.27381326769,
			"0.002": 7.70746749996,
			"0.003": 6.77667812413,
			"0.004": 6.41073173854,
			"0.005": 6.71613783112,
			"0.006": 3.57131461631,
			"0.007": 5.15248618059,
			"0.008": 3.91877573831,
			"0.009": 3.69644018123,
			"0.01": 3.78961214541,
			"0.011": 2.84801386135,
			"0.012": 2.67344400571,
			"0.013": 2.33366318149,
			"0.014": 2.05261158406,
			"0.015": 0.728349637004,
			"0.016": 0.955907288489,
			"0.017": 0.0739537690053,
			"0.018": 0.0,
			"0.019": 0.0,
			"0.02": 0.0,
			"0.021": 0.0,
			"0.022": 0.0,
			"0.023": 0.0,
			"0.024": 0.0,
			"0.025": 0.0
		}
	}
}
