{
	 "smiles": "NC1=C(F)C(F)=C(C(O)=O)C(F)=C1F", 
	 "Tm": 456.15, 
	 "num_atms": 17, 
	 "gaussian": { 
		 "optdone": 1, 
		 "sigma_profile": "yes", 
		 "theory": "DFT", 
		 "functional": "B3LYP", 
		 "basiset": "6-31G**", 
		 "properties": { 
			 "R2extent": 3036.7912, 
			 "electric_dipole_moment_norm": 3.53096577582, 
			 "electric_quadrupole_moment_norm": 13.2345757544, 
			 "total_energy": -873.080219105, 
			 "HOMO_LUMO_gap": 0.18715, 
			 "cosmo_polarized_energy": -13.72, 
			 "cosmo_cavitation_energy": 24.3, 
			 "cosmo_dispersion_energy": -17.7, 
			 "cosmo_repulsion_energy": 1.32, 
			 "cosmo_total_nonelectrostatic_energy": 7.92, 
			 "SMD_solvation_energy": 7.18 
		},
		"coords": [
			{
				"x": -2.3792176663,
				"y": -0.4646198554,
				"z": -1.4699332252,
				"element": "N" 
			},
			{
				"x": -1.1523623429,
				"y": -0.6661218347,
				"z": -0.8926513868,
				"element": "C" 
			},
			{
				"x": -0.7843844316,
				"y": -1.9085700698,
				"z": -0.3600331387,
				"element": "C" 
			},
			{
				"x": -1.6503794164,
				"y": -2.9365536554,
				"z": -0.4950417396,
				"element": "F" 
			},
			{
				"x": 0.4336434623,
				"y": -2.1034273995,
				"z": 0.2714063747,
				"element": "C" 
			},
			{
				"x": 0.6860471089,
				"y": -3.3354777012,
				"z": 0.7221054831,
				"element": "F" 
			},
			{
				"x": 1.3723764301,
				"y": -1.0612784789,
				"z": 0.409607641,
				"element": "C" 
			},
			{
				"x": 2.6983097749,
				"y": -1.2160747063,
				"z": 1.0620124886,
				"element": "C" 
			},
			{
				"x": 2.7827974324,
				"y": -2.3242349829,
				"z": 1.8363596712,
				"element": "O" 
			},
			{
				"x": 3.6253983267,
				"y": -0.4423631648,
				"z": 0.9414729872,
				"element": "O" 
			},
			{
				"x": 1.0022997584,
				"y": 0.1845590961,
				"z": -0.1386153773,
				"element": "C" 
			},
			{
				"x": 1.8086468949,
				"y": 1.2428483069,
				"z": -0.0585594298,
				"element": "F" 
			},
			{
				"x": -0.2211981342,
				"y": 0.3725048296,
				"z": -0.7611111482,
				"element": "C" 
			},
			{
				"x": -0.5433045137,
				"y": 1.5796523278,
				"z": -1.2734547973,
				"element": "F" 
			},
			{
				"x": -2.4769752548,
				"y": 0.3521840665,
				"z": -2.0530867197,
				"element": "H" 
			},
			{
				"x": -2.882094228,
				"y": -1.2874858028,
				"z": -1.7645196043,
				"element": "H" 
			},
			{
				"x": 3.6872967993,
				"y": -2.3138409751,
				"z": 2.1920419211,
				"element": "H" 
			}
		],
		 "valence_orbital": [ 
			{
				"type": "occ",
				"energy": -0.33133,
				"method": "rhf"
			},
			{
				"type": "occ",
				"energy": -0.31472,
				"method": "rhf"
			},
			{
				"type": "occ",
				"energy": -0.27797,
				"method": "rhf"
			},
			{
				"type": "occ",
				"energy": -0.25188,
				"method": "rhf"
			},
			{
				"type": "occ",
				"energy": -0.23673,
				"method": "rhf"
			},
			{
				"type": "unocc",
				"energy": -0.04958,
				"method": "rhf"
			},
			{
				"type": "unocc",
				"energy": -0.00928,
				"method": "rhf"
			},
			{
				"type": "unocc",
				"energy": 0.02695,
				"method": "rhf"
			},
			{
				"type": "unocc",
				"energy": 0.04962,
				"method": "rhf"
			},
			{
				"type": "unocc",
				"energy": 0.08164,
				"method": "rhf"
			}
		],
		"cosmo_sigma_profile": { 
			"-0.025": 0.0,
			"-0.024": 0.0,
			"-0.023": 0.0,
			"-0.022": 0.0,
			"-0.021": 0.0,
			"-0.02": 0.0,
			"-0.019": 0.036077690074,
			"-0.018": 0.628737333037,
			"-0.017": 1.27947499737,
			"-0.016": 0.765320101505,
			"-0.015": 0.562811882827,
			"-0.014": 2.81930799733,
			"-0.013": 2.59216063585,
			"-0.012": 3.0108607178,
			"-0.011": 3.46695694268,
			"-0.01": 2.85029935006,
			"-0.009": 1.90217909383,
			"-0.008": 3.28399855408,
			"-0.007": 2.40153691848,
			"-0.006": 3.29247927152,
			"-0.005": 2.63811520884,
			"-0.004": 4.2914716479,
			"-0.003": 12.2201063008,
			"-0.002": 23.5934006103,
			"-0.001": 15.8053582902,
			"0.0": 11.4602425647,
			"0.001": 9.54198582746,
			"0.002": 14.1155685372,
			"0.003": 30.0134946724,
			"0.004": 11.7553192345,
			"0.005": 4.56883482006,
			"0.006": 3.37531525646,
			"0.007": 4.53345106855,
			"0.008": 4.27311892843,
			"0.009": 3.94137037292,
			"0.01": 2.2497077547,
			"0.011": 4.74321569574,
			"0.012": 3.78187909545,
			"0.013": 0.0443846308855,
			"0.014": 0.0,
			"0.015": 0.0,
			"0.016": 0.0,
			"0.017": 0.0,
			"0.018": 0.0,
			"0.019": 0.0,
			"0.02": 0.0,
			"0.021": 0.0,
			"0.022": 0.0,
			"0.023": 0.0,
			"0.024": 0.0,
			"0.025": 0.0
		}
	}
}
