{
	 "smiles": "CN(C)C1=C(N)N(C)C(=O)NC1=O", 
	 "Tm": 435.15, 
	 "num_atms": 25, 
	 "gaussian": { 
		 "optdone": 1, 
		 "sigma_profile": "yes", 
		 "theory": "DFT", 
		 "functional": "B3LYP", 
		 "basiset": "6-31G**", 
		 "properties": { 
			 "R2extent": 3610.7828, 
			 "electric_dipole_moment_norm": 5.14329805864, 
			 "electric_quadrupole_moment_norm": 12.4777197164, 
			 "total_energy": -643.463544734, 
			 "HOMO_LUMO_gap": 0.20263, 
			 "cosmo_polarized_energy": -17.72, 
			 "cosmo_cavitation_energy": 27.63, 
			 "cosmo_dispersion_energy": -20.15, 
			 "cosmo_repulsion_energy": 1.59, 
			 "cosmo_total_nonelectrostatic_energy": 9.07, 
			 "SMD_solvation_energy": 6.59 
		},
		"coords": [
			{
				"x": -2.0094891646,
				"y": -1.9669784158,
				"z": 3.0579927568,
				"element": "C" 
			},
			{
				"x": -1.3923219219,
				"y": -1.8734043306,
				"z": 1.7264334481,
				"element": "N" 
			},
			{
				"x": -1.5873414307,
				"y": -3.1053722551,
				"z": 0.9470260515,
				"element": "C" 
			},
			{
				"x": -1.7577257543,
				"y": -0.6890355258,
				"z": 1.0100398624,
				"element": "C" 
			},
			{
				"x": -0.7482777723,
				"y": 0.1850997485,
				"z": 0.6583630702,
				"element": "C" 
			},
			{
				"x": 0.5599850662,
				"y": -0.1267603134,
				"z": 0.924507254,
				"element": "N" 
			},
			{
				"x": -0.9980809973,
				"y": 1.3669177765,
				"z": -0.0214857329,
				"element": "N" 
			},
			{
				"x": 0.0942803349,
				"y": 2.2497390608,
				"z": -0.4277500031,
				"element": "C" 
			},
			{
				"x": -2.3022797246,
				"y": 1.7445532121,
				"z": -0.390301393,
				"element": "C" 
			},
			{
				"x": -2.5410635104,
				"y": 2.784852457,
				"z": -0.9848265966,
				"element": "O" 
			},
			{
				"x": -3.2738134739,
				"y": 0.8405215864,
				"z": -0.0310317381,
				"element": "N" 
			},
			{
				"x": -3.1213066421,
				"y": -0.392225786,
				"z": 0.647687819,
				"element": "C" 
			},
			{
				"x": -4.1128713358,
				"y": -1.0793687191,
				"z": 0.8790493274,
				"element": "O" 
			},
			{
				"x": -3.099035148,
				"y": -2.094399565,
				"z": 3.0106716832,
				"element": "H" 
			},
			{
				"x": -1.7868888112,
				"y": -1.0581006696,
				"z": 3.6245473483,
				"element": "H" 
			},
			{
				"x": -1.5751372592,
				"y": -2.8186419563,
				"z": 3.5931313393,
				"element": "H" 
			},
			{
				"x": -2.6475071444,
				"y": -3.3116890312,
				"z": 0.7449457599,
				"element": "H" 
			},
			{
				"x": -1.1624798692,
				"y": -3.9509549448,
				"z": 1.4992778825,
				"element": "H" 
			},
			{
				"x": -1.0577497602,
				"y": -3.01848847,
				"z": -0.0058494556,
				"element": "H" 
			},
			{
				"x": 1.1975518956,
				"y": 0.624376836,
				"z": 1.1429389136,
				"element": "H" 
			},
			{
				"x": 0.6050932685,
				"y": -0.9420298783,
				"z": 1.5307463184,
				"element": "H" 
			},
			{
				"x": 0.8510611552,
				"y": 1.6849479756,
				"z": -0.9784013199,
				"element": "H" 
			},
			{
				"x": -0.3374051167,
				"y": 3.018488203,
				"z": -1.0654498744,
				"element": "H" 
			},
			{
				"x": 0.5572543022,
				"y": 2.7348518276,
				"z": 0.4398615774,
				"element": "H" 
			},
			{
				"x": -4.2188511858,
				"y": 1.0894011772,
				"z": -0.2957242984,
				"element": "H" 
			}
		],
		 "valence_orbital": [ 
			{
				"type": "occ",
				"energy": -0.28729,
				"method": "rhf"
			},
			{
				"type": "occ",
				"energy": -0.27248,
				"method": "rhf"
			},
			{
				"type": "occ",
				"energy": -0.25681,
				"method": "rhf"
			},
			{
				"type": "occ",
				"energy": -0.22031,
				"method": "rhf"
			},
			{
				"type": "occ",
				"energy": -0.2137,
				"method": "rhf"
			},
			{
				"type": "unocc",
				"energy": -0.01107,
				"method": "rhf"
			},
			{
				"type": "unocc",
				"energy": 0.02068,
				"method": "rhf"
			},
			{
				"type": "unocc",
				"energy": 0.0599,
				"method": "rhf"
			},
			{
				"type": "unocc",
				"energy": 0.09758,
				"method": "rhf"
			},
			{
				"type": "unocc",
				"energy": 0.10074,
				"method": "rhf"
			}
		],
		"cosmo_sigma_profile": { 
			"-0.025": 0.0,
			"-0.024": 0.0,
			"-0.023": 0.0,
			"-0.022": 0.0,
			"-0.021": 0.0,
			"-0.02": 0.0,
			"-0.019": 0.0,
			"-0.018": 0.0,
			"-0.017": 0.0,
			"-0.016": 0.00558459769507,
			"-0.015": 0.979704926757,
			"-0.014": 1.74095686158,
			"-0.013": 2.04918735019,
			"-0.012": 2.3855569727,
			"-0.011": 2.22640606371,
			"-0.01": 3.93664074983,
			"-0.009": 3.28868042961,
			"-0.008": 2.75864368557,
			"-0.007": 3.92691193758,
			"-0.006": 6.81549718731,
			"-0.005": 6.60141177872,
			"-0.004": 13.7059464404,
			"-0.003": 21.8472749567,
			"-0.002": 20.8119474654,
			"-0.001": 22.9643312814,
			"0.0": 26.0659954069,
			"0.001": 14.7330472292,
			"0.002": 7.04788428225,
			"0.003": 5.92915554949,
			"0.004": 4.57796273315,
			"0.005": 4.11675814667,
			"0.006": 3.21119478997,
			"0.007": 3.36994037362,
			"0.008": 4.05142843463,
			"0.009": 3.53747362802,
			"0.01": 3.08087634733,
			"0.011": 3.99903391599,
			"0.012": 5.00357407553,
			"0.013": 6.31142075541,
			"0.014": 5.05931350326,
			"0.015": 1.03895473337,
			"0.016": 0.0,
			"0.017": 0.0,
			"0.018": 0.0,
			"0.019": 0.0,
			"0.02": 0.0,
			"0.021": 0.0,
			"0.022": 0.0,
			"0.023": 0.0,
			"0.024": 0.0,
			"0.025": 0.0
		}
	}
}
