{
	 "smiles": "CC1=C(C=NC=C1)C(O)=O", 
	 "Tm": 473.15, 
	 "num_atms": 17, 
	 "gaussian": { 
		 "optdone": 1, 
		 "sigma_profile": "yes", 
		 "theory": "DFT", 
		 "functional": "B3LYP", 
		 "basiset": "6-31G**", 
		 "properties": { 
			 "R2extent": 1946.4144, 
			 "electric_dipole_moment_norm": 3.05287888066, 
			 "electric_quadrupole_moment_norm": 10.9392821894, 
			 "total_energy": -476.168424119, 
			 "HOMO_LUMO_gap": 0.2058, 
			 "cosmo_polarized_energy": -13.65, 
			 "cosmo_cavitation_energy": 21.16, 
			 "cosmo_dispersion_energy": -15.76, 
			 "cosmo_repulsion_energy": 1.26, 
			 "cosmo_total_nonelectrostatic_energy": 6.66, 
			 "SMD_solvation_energy": 3.36 
		},
		"coords": [
			{
				"x": -0.0022233696,
				"y": 0.1933535755,
				"z": 1.6396834786,
				"element": "C" 
			},
			{
				"x": -0.3114089134,
				"y": -0.3461310118,
				"z": 0.2678242359,
				"element": "C" 
			},
			{
				"x": -1.5993729917,
				"y": -0.775388517,
				"z": -0.126570967,
				"element": "C" 
			},
			{
				"x": -1.7654137628,
				"y": -1.293427481,
				"z": -1.4200790057,
				"element": "C" 
			},
			{
				"x": -0.7971896913,
				"y": -1.3911112444,
				"z": -2.3335955676,
				"element": "N" 
			},
			{
				"x": 0.4125264487,
				"y": -0.9549432363,
				"z": -1.963257012,
				"element": "C" 
			},
			{
				"x": 0.694628022,
				"y": -0.4399492399,
				"z": -0.698667999,
				"element": "C" 
			},
			{
				"x": -2.7576726245,
				"y": -0.7421839602,
				"z": 0.8240943206,
				"element": "C" 
			},
			{
				"x": -3.9888941023,
				"y": -0.5921505377,
				"z": 0.2646553338,
				"element": "O" 
			},
			{
				"x": -2.654865195,
				"y": -0.8519505573,
				"z": 2.0236387751,
				"element": "O" 
			},
			{
				"x": 1.0155644063,
				"y": 0.5898142413,
				"z": 1.6735657698,
				"element": "H" 
			},
			{
				"x": -0.7005433408,
				"y": 0.9835089382,
				"z": 1.9292498122,
				"element": "H" 
			},
			{
				"x": -0.1074631235,
				"y": -0.5910281409,
				"z": 2.3937602037,
				"element": "H" 
			},
			{
				"x": -2.7351720316,
				"y": -1.6861056841,
				"z": -1.7270685715,
				"element": "H" 
			},
			{
				"x": 1.1980475592,
				"y": -1.0231897783,
				"z": -2.7136975856,
				"element": "H" 
			},
			{
				"x": 1.7027126042,
				"y": -0.111285622,
				"z": -0.463757024,
				"element": "H" 
			},
			{
				"x": -3.907159894,
				"y": -0.363731744,
				"z": -0.6718781975,
				"element": "H" 
			}
		],
		 "valence_orbital": [ 
			{
				"type": "occ",
				"energy": -0.32407,
				"method": "rhf"
			},
			{
				"type": "occ",
				"energy": -0.29401,
				"method": "rhf"
			},
			{
				"type": "occ",
				"energy": -0.28924,
				"method": "rhf"
			},
			{
				"type": "occ",
				"energy": -0.27882,
				"method": "rhf"
			},
			{
				"type": "occ",
				"energy": -0.26542,
				"method": "rhf"
			},
			{
				"type": "unocc",
				"energy": -0.05962,
				"method": "rhf"
			},
			{
				"type": "unocc",
				"energy": -0.03817,
				"method": "rhf"
			},
			{
				"type": "unocc",
				"energy": 0.03267,
				"method": "rhf"
			},
			{
				"type": "unocc",
				"energy": 0.06675,
				"method": "rhf"
			},
			{
				"type": "unocc",
				"energy": 0.09791,
				"method": "rhf"
			}
		],
		"cosmo_sigma_profile": { 
			"-0.025": 0.0,
			"-0.024": 0.0,
			"-0.023": 0.0,
			"-0.022": 0.0,
			"-0.021": 0.0,
			"-0.02": 0.0,
			"-0.019": 0.467937656256,
			"-0.018": 0.751045829632,
			"-0.017": 1.23237565423,
			"-0.016": 0.963362182923,
			"-0.015": 0.803558081876,
			"-0.014": 0.885296562482,
			"-0.013": 0.744253523688,
			"-0.012": 1.10240255928,
			"-0.011": 1.05446705956,
			"-0.01": 1.39871861502,
			"-0.009": 1.29999835896,
			"-0.008": 2.43860022872,
			"-0.007": 6.36668949319,
			"-0.006": 9.05262961599,
			"-0.005": 10.9821792205,
			"-0.004": 10.2216915582,
			"-0.003": 10.7301377005,
			"-0.002": 10.2355513022,
			"-0.001": 15.405932369,
			"0.0": 16.0890405622,
			"0.001": 11.9472047607,
			"0.002": 6.02040970565,
			"0.003": 5.39483937657,
			"0.004": 4.19351253471,
			"0.005": 3.29049603081,
			"0.006": 4.25275309717,
			"0.007": 3.84812805592,
			"0.008": 3.44114817981,
			"0.009": 4.87335620272,
			"0.01": 5.59099243028,
			"0.011": 5.60676883563,
			"0.012": 3.83173574193,
			"0.013": 2.27863816165,
			"0.014": 0.913508668835,
			"0.015": 0.702561386262,
			"0.016": 0.525129479245,
			"0.017": 0.0143914705733,
			"0.018": 0.0,
			"0.019": 0.0,
			"0.02": 0.0,
			"0.021": 0.0,
			"0.022": 0.0,
			"0.023": 0.0,
			"0.024": 0.0,
			"0.025": 0.0
		}
	}
}
