{
	 "smiles": "CC1=CC(OCC(=O)NN)=C(C)C=C1", 
	 "Tm": 427.15, 
	 "num_atms": 28, 
	 "gaussian": { 
		 "optdone": 1, 
		 "sigma_profile": "yes", 
		 "theory": "DFT", 
		 "functional": "B3LYP", 
		 "basiset": "6-31G**", 
		 "properties": { 
			 "R2extent": 4051.6294, 
			 "electric_dipole_moment_norm": 3.75935386603, 
			 "electric_quadrupole_moment_norm": 20.7137349949, 
			 "total_energy": -649.427575531, 
			 "HOMO_LUMO_gap": 0.21266, 
			 "cosmo_polarized_energy": -15.63, 
			 "cosmo_cavitation_energy": 31.46, 
			 "cosmo_dispersion_energy": -22.09, 
			 "cosmo_repulsion_energy": 1.79, 
			 "cosmo_total_nonelectrostatic_energy": 11.16, 
			 "SMD_solvation_energy": 7.09 
		},
		"coords": [
			{
				"x": 0.5545170132,
				"y": -0.3158836057,
				"z": -3.1890597222,
				"element": "C" 
			},
			{
				"x": 0.7051460025,
				"y": -0.6443602883,
				"z": -1.7216551617,
				"element": "C" 
			},
			{
				"x": -0.4194293114,
				"y": -0.6153537314,
				"z": -0.8800236639,
				"element": "C" 
			},
			{
				"x": -0.2896505762,
				"y": -0.9010884585,
				"z": 0.4795271089,
				"element": "C" 
			},
			{
				"x": -1.3352267399,
				"y": -0.8915407101,
				"z": 1.3765309934,
				"element": "O" 
			},
			{
				"x": -2.5859485625,
				"y": -0.3361645802,
				"z": 0.9867633957,
				"element": "C" 
			},
			{
				"x": -3.4365646154,
				"y": -1.2910324482,
				"z": 0.1383580797,
				"element": "C" 
			},
			{
				"x": -3.708849748,
				"y": -1.0721602694,
				"z": -1.0355836837,
				"element": "O" 
			},
			{
				"x": -3.8768439507,
				"y": -2.4260487607,
				"z": 0.7631006073,
				"element": "N" 
			},
			{
				"x": -3.6176913597,
				"y": -2.6980608431,
				"z": 2.1103080798,
				"element": "N" 
			},
			{
				"x": 0.9599964638,
				"y": -1.2366935172,
				"z": 1.042193431,
				"element": "C" 
			},
			{
				"x": 1.0756783501,
				"y": -1.5426308495,
				"z": 2.5137118531,
				"element": "C" 
			},
			{
				"x": 2.0608793952,
				"y": -1.2662222711,
				"z": 0.188410226,
				"element": "C" 
			},
			{
				"x": 1.9453661724,
				"y": -0.9732501815,
				"z": -1.1740494578,
				"element": "C" 
			},
			{
				"x": 0.3587583269,
				"y": 0.7528606952,
				"z": -3.3403094147,
				"element": "H" 
			},
			{
				"x": -0.2840539175,
				"y": -0.860127285,
				"z": -3.6366410292,
				"element": "H" 
			},
			{
				"x": 1.4597431696,
				"y": -0.5682252691,
				"z": -3.7486559013,
				"element": "H" 
			},
			{
				"x": -1.3931319109,
				"y": -0.397322399,
				"z": -1.305390935,
				"element": "H" 
			},
			{
				"x": -2.4540447345,
				"y": 0.581176314,
				"z": 0.4053184031,
				"element": "H" 
			},
			{
				"x": -3.1040393784,
				"y": -0.1142874454,
				"z": 1.9219659823,
				"element": "H" 
			},
			{
				"x": -4.3493560233,
				"y": -3.09769191,
				"z": 0.1650132582,
				"element": "H" 
			},
			{
				"x": -4.477451784,
				"y": -2.9677277599,
				"z": 2.5789121117,
				"element": "H" 
			},
			{
				"x": -2.9320020353,
				"y": -3.4432970541,
				"z": 2.2029382891,
				"element": "H" 
			},
			{
				"x": 2.1124212862,
				"y": -1.760403049,
				"z": 2.7846318008,
				"element": "H" 
			},
			{
				"x": 0.4596694386,
				"y": -2.4041385321,
				"z": 2.7963275525,
				"element": "H" 
			},
			{
				"x": 0.7279158628,
				"y": -0.702298975,
				"z": 3.1247053154,
				"element": "H" 
			},
			{
				"x": 3.0341438399,
				"y": -1.5218789603,
				"z": 0.600960767,
				"element": "H" 
			},
			{
				"x": 2.8260493266,
				"y": -1.0057478552,
				"z": -1.8099082855,
				"element": "H" 
			}
		],
		 "valence_orbital": [ 
			{
				"type": "occ",
				"energy": -0.29226,
				"method": "rhf"
			},
			{
				"type": "occ",
				"energy": -0.26122,
				"method": "rhf"
			},
			{
				"type": "occ",
				"energy": -0.25252,
				"method": "rhf"
			},
			{
				"type": "occ",
				"energy": -0.22609,
				"method": "rhf"
			},
			{
				"type": "occ",
				"energy": -0.20399,
				"method": "rhf"
			},
			{
				"type": "unocc",
				"energy": 0.00867,
				"method": "rhf"
			},
			{
				"type": "unocc",
				"energy": 0.01337,
				"method": "rhf"
			},
			{
				"type": "unocc",
				"energy": 0.02465,
				"method": "rhf"
			},
			{
				"type": "unocc",
				"energy": 0.05984,
				"method": "rhf"
			},
			{
				"type": "unocc",
				"energy": 0.09588,
				"method": "rhf"
			}
		],
		"cosmo_sigma_profile": { 
			"-0.025": 0.0,
			"-0.024": 0.0,
			"-0.023": 0.0,
			"-0.022": 0.0,
			"-0.021": 0.0,
			"-0.02": 0.0,
			"-0.019": 0.0,
			"-0.018": 0.0,
			"-0.017": 0.0,
			"-0.016": 0.0,
			"-0.015": 0.0,
			"-0.014": 0.612301192806,
			"-0.013": 1.77861800545,
			"-0.012": 4.00534725105,
			"-0.011": 4.71188692731,
			"-0.01": 5.4834460179,
			"-0.009": 3.49936731023,
			"-0.008": 3.47065662988,
			"-0.007": 2.68455363032,
			"-0.006": 5.4685197831,
			"-0.005": 8.30005190089,
			"-0.004": 17.8350893568,
			"-0.003": 21.1702751493,
			"-0.002": 19.5244736395,
			"-0.001": 19.1385805815,
			"0.0": 23.6576722252,
			"0.001": 19.9033771823,
			"0.002": 12.9090947077,
			"0.003": 12.4115974538,
			"0.004": 11.511304911,
			"0.005": 10.0407170319,
			"0.006": 10.5771697234,
			"0.007": 7.84706310302,
			"0.008": 2.4124448372,
			"0.009": 1.90646285954,
			"0.01": 2.8859396367,
			"0.011": 2.65465769483,
			"0.012": 2.55674023061,
			"0.013": 5.20819076437,
			"0.014": 2.95921915685,
			"0.015": 0.060382470405,
			"0.016": 0.0,
			"0.017": 0.0,
			"0.018": 0.0,
			"0.019": 0.0,
			"0.02": 0.0,
			"0.021": 0.0,
			"0.022": 0.0,
			"0.023": 0.0,
			"0.024": 0.0,
			"0.025": 0.0
		}
	}
}
