{
	 "smiles": "N(N=N/C1=CC=CC=C1)C1=CC=CC=C1", 
	 "Tm": 371.15, 
	 "num_atms": 26, 
	 "gaussian": { 
		 "optdone": 1, 
		 "sigma_profile": "yes", 
		 "theory": "DFT", 
		 "functional": "B3LYP", 
		 "basiset": "6-31G**", 
		 "properties": { 
			 "R2extent": 5515.3499, 
			 "electric_dipole_moment_norm": 0.911836312065, 
			 "electric_quadrupole_moment_norm": 10.5798720063, 
			 "total_energy": -628.110608127, 
			 "HOMO_LUMO_gap": 0.14462, 
			 "cosmo_polarized_energy": -8.65, 
			 "cosmo_cavitation_energy": 31.11, 
			 "cosmo_dispersion_energy": -22.96, 
			 "cosmo_repulsion_energy": 1.79, 
			 "cosmo_total_nonelectrostatic_energy": 9.95, 
			 "SMD_solvation_energy": 4.32 
		},
		"coords": [
			{
				"x": -0.1023620196,
				"y": -1.7153227051,
				"z": 1.1005706882,
				"element": "N" 
			},
			{
				"x": -0.9810311,
				"y": -1.0124043232,
				"z": 0.3835181631,
				"element": "N" 
			},
			{
				"x": -2.1756312256,
				"y": -1.2694480275,
				"z": 0.7109156956,
				"element": "N" 
			},
			{
				"x": -3.1558200655,
				"y": -0.5529833162,
				"z": -0.0145315421,
				"element": "C" 
			},
			{
				"x": -2.8933999494,
				"y": 0.3888436264,
				"z": -1.0256119007,
				"element": "C" 
			},
			{
				"x": -3.9494823676,
				"y": 1.0287375313,
				"z": -1.6662309466,
				"element": "C" 
			},
			{
				"x": -5.2742973683,
				"y": 0.7449991334,
				"z": -1.3147441329,
				"element": "C" 
			},
			{
				"x": -5.5372502405,
				"y": -0.1891462595,
				"z": -0.3114675756,
				"element": "C" 
			},
			{
				"x": -4.4844264828,
				"y": -0.834276938,
				"z": 0.3350035486,
				"element": "C" 
			},
			{
				"x": 1.2793322108,
				"y": -1.6079003982,
				"z": 0.924058691,
				"element": "C" 
			},
			{
				"x": 2.1154856228,
				"y": -2.3918232109,
				"z": 1.7335384434,
				"element": "C" 
			},
			{
				"x": 3.4984501642,
				"y": -2.3130072568,
				"z": 1.5878278538,
				"element": "C" 
			},
			{
				"x": 4.0640132629,
				"y": -1.4579760645,
				"z": 0.6401929534,
				"element": "C" 
			},
			{
				"x": 3.2254049481,
				"y": -0.6801734543,
				"z": -0.1626295679,
				"element": "C" 
			},
			{
				"x": 1.8406372687,
				"y": -0.7460717391,
				"z": -0.0308984008,
				"element": "C" 
			},
			{
				"x": -0.4904632333,
				"y": -2.3483540257,
				"z": 1.7978306341,
				"element": "H" 
			},
			{
				"x": -1.8665334247,
				"y": 0.6067737419,
				"z": -1.2954902781,
				"element": "H" 
			},
			{
				"x": -3.7405960802,
				"y": 1.7555239256,
				"z": -2.446520739,
				"element": "H" 
			},
			{
				"x": -6.0922050316,
				"y": 1.2497558085,
				"z": -1.820500745,
				"element": "H" 
			},
			{
				"x": -6.5619827193,
				"y": -0.4159826727,
				"z": -0.0315576199,
				"element": "H" 
			},
			{
				"x": -4.6647639954,
				"y": -1.5640103387,
				"z": 1.1179635256,
				"element": "H" 
			},
			{
				"x": 1.6798039896,
				"y": -3.0591272986,
				"z": 2.473009707,
				"element": "H" 
			},
			{
				"x": 4.1346713213,
				"y": -2.9250517469,
				"z": 2.2205510824,
				"element": "H" 
			},
			{
				"x": 5.1419832613,
				"y": -1.3982327143,
				"z": 0.5284704804,
				"element": "H" 
			},
			{
				"x": 3.6525754665,
				"y": -0.0107742145,
				"z": -0.9039720503,
				"element": "H" 
			},
			{
				"x": 1.1902877874,
				"y": -0.1437670623,
				"z": -0.6527959679,
				"element": "H" 
			}
		],
		 "valence_orbital": [ 
			{
				"type": "occ",
				"energy": -0.25571,
				"method": "rhf"
			},
			{
				"type": "occ",
				"energy": -0.25114,
				"method": "rhf"
			},
			{
				"type": "occ",
				"energy": -0.24862,
				"method": "rhf"
			},
			{
				"type": "occ",
				"energy": -0.24781,
				"method": "rhf"
			},
			{
				"type": "occ",
				"energy": -0.20103,
				"method": "rhf"
			},
			{
				"type": "unocc",
				"energy": -0.05641,
				"method": "rhf"
			},
			{
				"type": "unocc",
				"energy": -0.00507,
				"method": "rhf"
			},
			{
				"type": "unocc",
				"energy": 0.00223,
				"method": "rhf"
			},
			{
				"type": "unocc",
				"energy": 0.0156,
				"method": "rhf"
			},
			{
				"type": "unocc",
				"energy": 0.04233,
				"method": "rhf"
			}
		],
		"cosmo_sigma_profile": { 
			"-0.025": 0.0,
			"-0.024": 0.0,
			"-0.023": 0.0,
			"-0.022": 0.0,
			"-0.021": 0.0,
			"-0.02": 0.0,
			"-0.019": 0.0,
			"-0.018": 0.0,
			"-0.017": 0.0,
			"-0.016": 0.0,
			"-0.015": 0.261878212638,
			"-0.014": 1.04686367818,
			"-0.013": 0.9723535143,
			"-0.012": 1.36685949288,
			"-0.011": 1.46313563136,
			"-0.01": 1.57413647711,
			"-0.009": 0.399723023113,
			"-0.008": 1.41921054226,
			"-0.007": 1.42914755431,
			"-0.006": 11.1370288517,
			"-0.005": 18.4034993887,
			"-0.004": 22.0247384847,
			"-0.003": 19.1766215181,
			"-0.002": 13.6554321368,
			"-0.001": 13.4234338652,
			"0.0": 11.71690459,
			"0.001": 20.888989445,
			"0.002": 25.2418224936,
			"0.003": 24.178188384,
			"0.004": 23.1051385395,
			"0.005": 23.3741694304,
			"0.006": 8.94923556049,
			"0.007": 0.184373758388,
			"0.008": 1.01887751915,
			"0.009": 1.57773115088,
			"0.01": 0.830374123452,
			"0.011": 0.880025976869,
			"0.012": 0.142395752861,
			"0.013": 0.0,
			"0.014": 0.0,
			"0.015": 0.0,
			"0.016": 0.0,
			"0.017": 0.0,
			"0.018": 0.0,
			"0.019": 0.0,
			"0.02": 0.0,
			"0.021": 0.0,
			"0.022": 0.0,
			"0.023": 0.0,
			"0.024": 0.0,
			"0.025": 0.0
		}
	}
}
