{
	 "smiles": "CC(C)CCNC(=O)C1CCN(CC1)C(=O)CCl", 
	 "Tm": 393.15, 
	 "num_atms": 41, 
	 "gaussian": { 
		 "optdone": 1, 
		 "sigma_profile": "yes", 
		 "theory": "DFT", 
		 "functional": "B3LYP", 
		 "basiset": "6-31G**", 
		 "properties": { 
			 "R2extent": 8317.9748, 
			 "electric_dipole_moment_norm": 6.94348083313, 
			 "electric_quadrupole_moment_norm": 23.9210203668, 
			 "total_energy": -1229.41543275, 
			 "HOMO_LUMO_gap": 0.25785, 
			 "cosmo_polarized_energy": -24.62, 
			 "cosmo_cavitation_energy": 42.26, 
			 "cosmo_dispersion_energy": -28.94, 
			 "cosmo_repulsion_energy": 2.27, 
			 "cosmo_total_nonelectrostatic_energy": 15.59, 
			 "SMD_solvation_energy": 6.73 
		},
		"coords": [
			{
				"x": 0.704532637,
				"y": -3.651969836,
				"z": 2.3334967094,
				"element": "C" 
			},
			{
				"x": 0.9717719675,
				"y": -3.8575802452,
				"z": 0.8337272498,
				"element": "C" 
			},
			{
				"x": 2.194748116,
				"y": -3.0498717768,
				"z": 0.3731805116,
				"element": "C" 
			},
			{
				"x": -0.2649301472,
				"y": -3.6215997698,
				"z": -0.065973964,
				"element": "C" 
			},
			{
				"x": -0.7924972406,
				"y": -2.1872512899,
				"z": -0.2367165624,
				"element": "C" 
			},
			{
				"x": -1.4427762653,
				"y": -1.6891563945,
				"z": 0.9704137889,
				"element": "N" 
			},
			{
				"x": -1.7471776196,
				"y": -0.414350641,
				"z": 1.3883249804,
				"element": "C" 
			},
			{
				"x": -2.4443315971,
				"y": -0.2546844573,
				"z": 2.3851164341,
				"element": "O" 
			},
			{
				"x": -1.1771822819,
				"y": 0.8052981172,
				"z": 0.6509466553,
				"element": "C" 
			},
			{
				"x": -1.575175167,
				"y": 0.9273055636,
				"z": -0.8525956358,
				"element": "C" 
			},
			{
				"x": -0.3898031033,
				"y": 1.3454192134,
				"z": -1.73786297,
				"element": "C" 
			},
			{
				"x": 0.3530991272,
				"y": 2.4555237168,
				"z": -1.142957915,
				"element": "N" 
			},
			{
				"x": 0.8228041656,
				"y": 2.2957672835,
				"z": 0.2471912777,
				"element": "C" 
			},
			{
				"x": 0.3460860904,
				"y": 0.968723636,
				"z": 0.8421876672,
				"element": "C" 
			},
			{
				"x": 0.7310983064,
				"y": 3.6130867115,
				"z": -1.7735630367,
				"element": "C" 
			},
			{
				"x": 1.3930607724,
				"y": 4.4648218921,
				"z": -1.2014531906,
				"element": "O" 
			},
			{
				"x": 0.2674854959,
				"y": 3.7686921305,
				"z": -3.2352929113,
				"element": "C" 
			},
			{
				"x": 0.8041205007,
				"y": 5.3182616427,
				"z": -3.9530324626,
				"element": "Cl" 
			},
			{
				"x": -0.1536520255,
				"y": -4.2440290241,
				"z": 2.6718174485,
				"element": "H" 
			},
			{
				"x": 1.5725278375,
				"y": -3.9663487567,
				"z": 2.9231151838,
				"element": "H" 
			},
			{
				"x": 0.501190052,
				"y": -2.6039029142,
				"z": 2.5705083667,
				"element": "H" 
			},
			{
				"x": 1.2195797341,
				"y": -4.9201309111,
				"z": 0.6967712977,
				"element": "H" 
			},
			{
				"x": 2.3972915788,
				"y": -3.1947379592,
				"z": -0.694199624,
				"element": "H" 
			},
			{
				"x": 2.0610788582,
				"y": -1.9762884074,
				"z": 0.5488413627,
				"element": "H" 
			},
			{
				"x": 3.089582903,
				"y": -3.3546920095,
				"z": 0.9254490757,
				"element": "H" 
			},
			{
				"x": -1.0918636083,
				"y": -4.2549655697,
				"z": 0.2859965867,
				"element": "H" 
			},
			{
				"x": -0.0245569194,
				"y": -3.9838480863,
				"z": -1.0738075744,
				"element": "H" 
			},
			{
				"x": -1.4955286357,
				"y": -2.192018191,
				"z": -1.0840089544,
				"element": "H" 
			},
			{
				"x": 0.0261594776,
				"y": -1.5193048978,
				"z": -0.5150291646,
				"element": "H" 
			},
			{
				"x": -1.9211868881,
				"y": -2.3794045047,
				"z": 1.5368435045,
				"element": "H" 
			},
			{
				"x": -1.642678467,
				"y": 1.6349734197,
				"z": 1.1891552113,
				"element": "H" 
			},
			{
				"x": -1.9851846495,
				"y": -0.0085565617,
				"z": -1.2440816623,
				"element": "H" 
			},
			{
				"x": -2.3699933056,
				"y": 1.67358691,
				"z": -0.9468040849,
				"element": "H" 
			},
			{
				"x": 0.2831937219,
				"y": 0.4903141486,
				"z": -1.8987553159,
				"element": "H" 
			},
			{
				"x": -0.757533272,
				"y": 1.633435953,
				"z": -2.72268123,
				"element": "H" 
			},
			{
				"x": 0.4433320944,
				"y": 3.1356883084,
				"z": 0.8401647006,
				"element": "H" 
			},
			{
				"x": 1.9158716069,
				"y": 2.3693556458,
				"z": 0.271175843,
				"element": "H" 
			},
			{
				"x": 0.585936704,
				"y": 0.9610711128,
				"z": 1.9100484905,
				"element": "H" 
			},
			{
				"x": 0.89843901,
				"y": 0.1356345087,
				"z": 0.3946894633,
				"element": "H" 
			},
			{
				"x": 0.6709724809,
				"y": 2.9681256843,
				"z": -3.8592547184,
				"element": "H" 
			},
			{
				"x": -0.8225120453,
				"y": 3.7439066051,
				"z": -3.3029908322,
				"element": "H" 
			}
		],
		 "valence_orbital": [ 
			{
				"type": "occ",
				"energy": -0.29482,
				"method": "rhf"
			},
			{
				"type": "occ",
				"energy": -0.25737,
				"method": "rhf"
			},
			{
				"type": "occ",
				"energy": -0.25339,
				"method": "rhf"
			},
			{
				"type": "occ",
				"energy": -0.2484,
				"method": "rhf"
			},
			{
				"type": "occ",
				"energy": -0.24291,
				"method": "rhf"
			},
			{
				"type": "unocc",
				"energy": 0.01494,
				"method": "rhf"
			},
			{
				"type": "unocc",
				"energy": 0.0176,
				"method": "rhf"
			},
			{
				"type": "unocc",
				"energy": 0.02416,
				"method": "rhf"
			},
			{
				"type": "unocc",
				"energy": 0.04597,
				"method": "rhf"
			},
			{
				"type": "unocc",
				"energy": 0.06617,
				"method": "rhf"
			}
		],
		"cosmo_sigma_profile": { 
			"-0.025": 0.0,
			"-0.024": 0.0,
			"-0.023": 0.0,
			"-0.022": 0.0,
			"-0.021": 0.0,
			"-0.02": 0.0,
			"-0.019": 0.0,
			"-0.018": 0.0,
			"-0.017": 0.0,
			"-0.016": 0.0,
			"-0.015": 0.0,
			"-0.014": 0.0,
			"-0.013": 0.0,
			"-0.012": 0.158534682092,
			"-0.011": 0.746822735759,
			"-0.01": 1.38640497996,
			"-0.009": 6.58906926256,
			"-0.008": 8.79559064689,
			"-0.007": 6.81244574885,
			"-0.006": 9.23416900873,
			"-0.005": 16.2638634617,
			"-0.004": 33.0400899277,
			"-0.003": 37.2818026561,
			"-0.002": 38.6185991292,
			"-0.001": 33.0396611629,
			"0.0": 28.8046067674,
			"0.001": 21.0403002819,
			"0.002": 15.6895486268,
			"0.003": 5.86035738924,
			"0.004": 7.13267121589,
			"0.005": 7.55642905808,
			"0.006": 9.92039825857,
			"0.007": 3.76659450158,
			"0.008": 3.55172823797,
			"0.009": 3.40085025925,
			"0.01": 2.74187925639,
			"0.011": 3.54237342438,
			"0.012": 3.75829752895,
			"0.013": 6.24878747324,
			"0.014": 9.68749196233,
			"0.015": 5.1512823955,
			"0.016": 0.274492700995,
			"0.017": 0.0,
			"0.018": 0.0,
			"0.019": 0.0,
			"0.02": 0.0,
			"0.021": 0.0,
			"0.022": 0.0,
			"0.023": 0.0,
			"0.024": 0.0,
			"0.025": 0.0
		}
	}
}
