{
	 "smiles": "CNC(=O)ON=C(/SC)C(=O)N(C)C", 
	 "Tm": 374.15, 
	 "num_atms": 27, 
	 "gaussian": { 
		 "optdone": 1, 
		 "sigma_profile": "yes", 
		 "theory": "DFT", 
		 "functional": "B3LYP", 
		 "basiset": "6-31G**", 
		 "properties": { 
			 "R2extent": 4404.6586, 
			 "electric_dipole_moment_norm": 3.73625228538, 
			 "electric_quadrupole_moment_norm": 15.9046371115, 
			 "total_energy": -1062.65452874, 
			 "HOMO_LUMO_gap": 0.20334, 
			 "cosmo_polarized_energy": -16.95, 
			 "cosmo_cavitation_energy": 33.23, 
			 "cosmo_dispersion_energy": -23.33, 
			 "cosmo_repulsion_energy": 1.87, 
			 "cosmo_total_nonelectrostatic_energy": 11.77, 
			 "SMD_solvation_energy": 7.39 
		},
		"coords": [
			{
				"x": -2.1013553416,
				"y": -1.9440597029,
				"z": -4.4538444896,
				"element": "C" 
			},
			{
				"x": -1.7899016438,
				"y": -1.4406101179,
				"z": -3.1294186547,
				"element": "N" 
			},
			{
				"x": -2.5470606027,
				"y": -0.4907196597,
				"z": -2.5383245308,
				"element": "C" 
			},
			{
				"x": -3.5237852558,
				"y": 0.0669737138,
				"z": -2.9901336629,
				"element": "O" 
			},
			{
				"x": -2.1458861333,
				"y": -0.1155735395,
				"z": -1.2538516974,
				"element": "O" 
			},
			{
				"x": -0.9899770024,
				"y": -0.7713984011,
				"z": -0.7817836428,
				"element": "N" 
			},
			{
				"x": -0.7033386132,
				"y": -0.4661409271,
				"z": 0.4304068583,
				"element": "C" 
			},
			{
				"x": -1.4907323197,
				"y": 0.5980765435,
				"z": 1.603872502,
				"element": "S" 
			},
			{
				"x": -3.2899313255,
				"y": 0.5540009491,
				"z": 1.2407382466,
				"element": "C" 
			},
			{
				"x": 0.520247034,
				"y": -1.1962266493,
				"z": 0.987911211,
				"element": "C" 
			},
			{
				"x": 0.3431310094,
				"y": -2.2113311579,
				"z": 1.647379527,
				"element": "O" 
			},
			{
				"x": 1.7425028395,
				"y": -0.6539045112,
				"z": 0.7156885092,
				"element": "N" 
			},
			{
				"x": 1.9718947276,
				"y": 0.5470878282,
				"z": -0.0739917454,
				"element": "C" 
			},
			{
				"x": 2.9327796308,
				"y": -1.3316488698,
				"z": 1.2140655411,
				"element": "C" 
			},
			{
				"x": -2.3443648922,
				"y": -3.0121642151,
				"z": -4.424840978,
				"element": "H" 
			},
			{
				"x": -2.9660370451,
				"y": -1.3949176105,
				"z": -4.8272787239,
				"element": "H" 
			},
			{
				"x": -1.260438269,
				"y": -1.793216787,
				"z": -5.1396448351,
				"element": "H" 
			},
			{
				"x": -1.0160519545,
				"y": -1.8093457595,
				"z": -2.5954261426,
				"element": "H" 
			},
			{
				"x": -3.6391452264,
				"y": -0.477581497,
				"z": 1.2017632069,
				"element": "H" 
			},
			{
				"x": -3.5295347644,
				"y": 1.0719390646,
				"z": 0.3158224155,
				"element": "H" 
			},
			{
				"x": -3.7439388752,
				"y": 1.0562771202,
				"z": 2.0982438805,
				"element": "H" 
			},
			{
				"x": 2.5696286051,
				"y": 1.2639726974,
				"z": 0.5012990107,
				"element": "H" 
			},
			{
				"x": 1.0306129087,
				"y": 1.0207890198,
				"z": -0.3461385336,
				"element": "H" 
			},
			{
				"x": 2.5184283139,
				"y": 0.3059702064,
				"z": -0.9945713958,
				"element": "H" 
			},
			{
				"x": 3.5231632267,
				"y": -0.6500876484,
				"z": 1.8375508578,
				"element": "H" 
			},
			{
				"x": 2.6198581838,
				"y": -2.191085363,
				"z": 1.8046943121,
				"element": "H" 
			},
			{
				"x": 3.5592327855,
				"y": -1.6693747262,
				"z": 0.379312954,
				"element": "H" 
			}
		],
		 "valence_orbital": [ 
			{
				"type": "occ",
				"energy": -0.27693,
				"method": "rhf"
			},
			{
				"type": "occ",
				"energy": -0.26228,
				"method": "rhf"
			},
			{
				"type": "occ",
				"energy": -0.25753,
				"method": "rhf"
			},
			{
				"type": "occ",
				"energy": -0.25499,
				"method": "rhf"
			},
			{
				"type": "occ",
				"energy": -0.23953,
				"method": "rhf"
			},
			{
				"type": "unocc",
				"energy": -0.03619,
				"method": "rhf"
			},
			{
				"type": "unocc",
				"energy": -0.00073,
				"method": "rhf"
			},
			{
				"type": "unocc",
				"energy": 0.03233,
				"method": "rhf"
			},
			{
				"type": "unocc",
				"energy": 0.06062,
				"method": "rhf"
			},
			{
				"type": "unocc",
				"energy": 0.07643,
				"method": "rhf"
			}
		],
		"cosmo_sigma_profile": { 
			"-0.025": 0.0,
			"-0.024": 0.0,
			"-0.023": 0.0,
			"-0.022": 0.0,
			"-0.021": 0.0,
			"-0.02": 0.0,
			"-0.019": 0.0,
			"-0.018": 0.0,
			"-0.017": 0.0,
			"-0.016": 0.0,
			"-0.015": 0.0,
			"-0.014": 0.0,
			"-0.013": 0.282823200907,
			"-0.012": 0.706603512027,
			"-0.011": 0.650976054229,
			"-0.01": 0.889615005661,
			"-0.009": 0.652585641949,
			"-0.008": 1.52306441128,
			"-0.007": 4.33024935159,
			"-0.006": 11.671480122,
			"-0.005": 26.9046757273,
			"-0.004": 27.3916428953,
			"-0.003": 33.137188153,
			"-0.002": 31.4768534215,
			"-0.001": 18.6418394513,
			"0.0": 14.684415999,
			"0.001": 13.2311496251,
			"0.002": 10.4687558165,
			"0.003": 10.1371301935,
			"0.004": 8.22585096366,
			"0.005": 5.87351705847,
			"0.006": 6.49189690119,
			"0.007": 4.28321379598,
			"0.008": 3.96624630933,
			"0.009": 2.69243826005,
			"0.01": 3.43587788258,
			"0.011": 4.38967866129,
			"0.012": 7.60619023518,
			"0.013": 9.31658917297,
			"0.014": 1.69930474824,
			"0.015": 0.0,
			"0.016": 0.0,
			"0.017": 0.0,
			"0.018": 0.0,
			"0.019": 0.0,
			"0.02": 0.0,
			"0.021": 0.0,
			"0.022": 0.0,
			"0.023": 0.0,
			"0.024": 0.0,
			"0.025": 0.0
		}
	}
}
