{
	 "smiles": "CN1C=C(C=O)C(=N1)C1=CC=NC=C1", 
	 "Tm": 405.15, 
	 "num_atms": 23, 
	 "gaussian": { 
		 "optdone": 1, 
		 "sigma_profile": "yes", 
		 "theory": "DFT", 
		 "functional": "B3LYP", 
		 "basiset": "6-31G**", 
		 "properties": { 
			 "R2extent": 3515.8532, 
			 "electric_dipole_moment_norm": 4.55699902787, 
			 "electric_quadrupole_moment_norm": 16.1450014673, 
			 "total_energy": -625.934561826, 
			 "HOMO_LUMO_gap": 0.19326, 
			 "cosmo_polarized_energy": -14.65, 
			 "cosmo_cavitation_energy": 28.14, 
			 "cosmo_dispersion_energy": -20.34, 
			 "cosmo_repulsion_energy": 1.59, 
			 "cosmo_total_nonelectrostatic_energy": 9.4, 
			 "SMD_solvation_energy": 3.99 
		},
		"coords": [
			{
				"x": -1.1810187026,
				"y": 2.888819864,
				"z": -1.3351892801,
				"element": "C" 
			},
			{
				"x": -1.3769234416,
				"y": 1.6214630529,
				"z": -0.6520617921,
				"element": "N" 
			},
			{
				"x": -2.5249845429,
				"y": 0.9438401542,
				"z": -0.4652192271,
				"element": "C" 
			},
			{
				"x": -2.2099328313,
				"y": -0.1993595253,
				"z": 0.2633449796,
				"element": "C" 
			},
			{
				"x": -3.1682276251,
				"y": -1.2555825551,
				"z": 0.5872908463,
				"element": "C" 
			},
			{
				"x": -4.3647533844,
				"y": -1.1727663663,
				"z": 0.3587384415,
				"element": "O" 
			},
			{
				"x": -0.7972229905,
				"y": -0.1020136253,
				"z": 0.4763132774,
				"element": "C" 
			},
			{
				"x": -0.309782894,
				"y": 1.0066402853,
				"z": -0.0880907736,
				"element": "N" 
			},
			{
				"x": 0.1173869631,
				"y": -1.0119139933,
				"z": 1.1883048988,
				"element": "C" 
			},
			{
				"x": -0.2807639636,
				"y": -1.7509086058,
				"z": 2.3112072798,
				"element": "C" 
			},
			{
				"x": 0.6452449201,
				"y": -2.5880919095,
				"z": 2.9339125573,
				"element": "C" 
			},
			{
				"x": 1.9137205272,
				"y": -2.7307368616,
				"z": 2.5325937548,
				"element": "N" 
			},
			{
				"x": 2.2927287253,
				"y": -2.0091114298,
				"z": 1.4682422093,
				"element": "C" 
			},
			{
				"x": 1.4491978235,
				"y": -1.1494924871,
				"z": 0.7693955516,
				"element": "C" 
			},
			{
				"x": -2.1300890845,
				"y": 3.207348103,
				"z": -1.7679699565,
				"element": "H" 
			},
			{
				"x": -0.8286487928,
				"y": 3.643817699,
				"z": -0.6280545749,
				"element": "H" 
			},
			{
				"x": -0.4385543731,
				"y": 2.7678120246,
				"z": -2.1270110746,
				"element": "H" 
			},
			{
				"x": -3.4750195655,
				"y": 1.2767927194,
				"z": -0.8559059963,
				"element": "H" 
			},
			{
				"x": -2.7413119573,
				"y": -2.1703835662,
				"z": 1.0450878498,
				"element": "H" 
			},
			{
				"x": -1.2823021502,
				"y": -1.6581886338,
				"z": 2.7170875648,
				"element": "H" 
			},
			{
				"x": 0.3495113156,
				"y": -3.1685372956,
				"z": 3.8062164253,
				"element": "H" 
			},
			{
				"x": 3.3282580236,
				"y": -2.1283660603,
				"z": 1.1541066141,
				"element": "H" 
			},
			{
				"x": 1.8081880011,
				"y": -0.5930809873,
				"z": -0.0891395754,
				"element": "H" 
			}
		],
		 "valence_orbital": [ 
			{
				"type": "occ",
				"energy": -0.26678,
				"method": "rhf"
			},
			{
				"type": "occ",
				"energy": -0.26473,
				"method": "rhf"
			},
			{
				"type": "occ",
				"energy": -0.25616,
				"method": "rhf"
			},
			{
				"type": "occ",
				"energy": -0.25409,
				"method": "rhf"
			},
			{
				"type": "occ",
				"energy": -0.24998,
				"method": "rhf"
			},
			{
				"type": "unocc",
				"energy": -0.05672,
				"method": "rhf"
			},
			{
				"type": "unocc",
				"energy": -0.03702,
				"method": "rhf"
			},
			{
				"type": "unocc",
				"energy": -0.01368,
				"method": "rhf"
			},
			{
				"type": "unocc",
				"energy": 0.01878,
				"method": "rhf"
			},
			{
				"type": "unocc",
				"energy": 0.08067,
				"method": "rhf"
			}
		],
		"cosmo_sigma_profile": { 
			"-0.025": 0.0,
			"-0.024": 0.0,
			"-0.023": 0.0,
			"-0.022": 0.0,
			"-0.021": 0.0,
			"-0.02": 0.0,
			"-0.019": 0.0,
			"-0.018": 0.0,
			"-0.017": 0.0,
			"-0.016": 0.0,
			"-0.015": 0.0,
			"-0.014": 0.0,
			"-0.013": 0.0,
			"-0.012": 0.0,
			"-0.011": 0.607235958561,
			"-0.01": 2.78444976222,
			"-0.009": 2.6798613042,
			"-0.008": 4.92706705875,
			"-0.007": 10.2584209069,
			"-0.006": 17.2244613411,
			"-0.005": 18.7958795592,
			"-0.004": 19.5306172486,
			"-0.003": 14.2542887602,
			"-0.002": 10.8821655224,
			"-0.001": 12.2309274974,
			"0.0": 14.8218547763,
			"0.001": 18.2483939471,
			"0.002": 21.0069014832,
			"0.003": 8.51241253962,
			"0.004": 6.36074853876,
			"0.005": 5.57892037039,
			"0.006": 4.26017649049,
			"0.007": 3.72184891073,
			"0.008": 4.02146996378,
			"0.009": 3.5667820718,
			"0.01": 3.98850812746,
			"0.011": 5.39114724655,
			"0.012": 6.66317705513,
			"0.013": 2.8116366603,
			"0.014": 1.06535791565,
			"0.015": 1.08998594739,
			"0.016": 0.833525449004,
			"0.017": 0.293521164835,
			"0.018": 0.0,
			"0.019": 0.0,
			"0.02": 0.0,
			"0.021": 0.0,
			"0.022": 0.0,
			"0.023": 0.0,
			"0.024": 0.0,
			"0.025": 0.0
		}
	}
}
