{
	 "smiles": "CC1=C(N)C=C(C=C1)C(=O)NC1CC1", 
	 "Tm": 388.15, 
	 "num_atms": 28, 
	 "gaussian": { 
		 "optdone": 1, 
		 "sigma_profile": "yes", 
		 "theory": "DFT", 
		 "functional": "B3LYP", 
		 "basiset": "6-31G**", 
		 "properties": { 
			 "R2extent": 4066.7709, 
			 "electric_dipole_moment_norm": 5.16850411338, 
			 "electric_quadrupole_moment_norm": 11.0694679285, 
			 "total_energy": -612.329042944, 
			 "HOMO_LUMO_gap": 0.1819, 
			 "cosmo_polarized_energy": -18.53, 
			 "cosmo_cavitation_energy": 31.34, 
			 "cosmo_dispersion_energy": -22.72, 
			 "cosmo_repulsion_energy": 1.81, 
			 "cosmo_total_nonelectrostatic_energy": 10.43, 
			 "SMD_solvation_energy": 4.9 
		},
		"coords": [
			{
				"x": 1.4182809403,
				"y": 3.0608908134,
				"z": -2.8373949017,
				"element": "C" 
			},
			{
				"x": 0.6195139766,
				"y": 2.1864965351,
				"z": -1.9042465415,
				"element": "C" 
			},
			{
				"x": 1.2306516956,
				"y": 1.0822750576,
				"z": -1.2661942579,
				"element": "C" 
			},
			{
				"x": 2.5642695206,
				"y": 0.7608922307,
				"z": -1.5419892752,
				"element": "N" 
			},
			{
				"x": 0.4704139694,
				"y": 0.2713826952,
				"z": -0.4109541494,
				"element": "C" 
			},
			{
				"x": -0.8856963655,
				"y": 0.5314994201,
				"z": -0.1806376808,
				"element": "C" 
			},
			{
				"x": -1.4935207906,
				"y": 1.6138244897,
				"z": -0.82474327,
				"element": "C" 
			},
			{
				"x": -0.7366989449,
				"y": 2.4255103345,
				"z": -1.6655756436,
				"element": "C" 
			},
			{
				"x": -1.7487864176,
				"y": -0.310411979,
				"z": 0.7195289495,
				"element": "C" 
			},
			{
				"x": -2.9684484876,
				"y": -0.3519771622,
				"z": 0.5954468627,
				"element": "O" 
			},
			{
				"x": -1.094433499,
				"y": -1.0121856216,
				"z": 1.7025430584,
				"element": "N" 
			},
			{
				"x": -1.7813447377,
				"y": -1.9097586384,
				"z": 2.5852748727,
				"element": "C" 
			},
			{
				"x": -1.2992981792,
				"y": -2.0048235737,
				"z": 4.0097475961,
				"element": "C" 
			},
			{
				"x": -2.6244480798,
				"y": -1.3509353321,
				"z": 3.7011757422,
				"element": "C" 
			},
			{
				"x": 0.7892207896,
				"y": 3.8333613941,
				"z": -3.2862238869,
				"element": "H" 
			},
			{
				"x": 2.2416436058,
				"y": 3.5741059746,
				"z": -2.3196407983,
				"element": "H" 
			},
			{
				"x": 1.8664276761,
				"y": 2.475380102,
				"z": -3.6499977851,
				"element": "H" 
			},
			{
				"x": 3.1587311714,
				"y": 1.5418429397,
				"z": -1.7821244148,
				"element": "H" 
			},
			{
				"x": 3.0036877786,
				"y": 0.1545917441,
				"z": -0.8630098153,
				"element": "H" 
			},
			{
				"x": 0.9501964649,
				"y": -0.5991450187,
				"z": 0.0316539034,
				"element": "H" 
			},
			{
				"x": -2.5487715768,
				"y": 1.7951857403,
				"z": -0.6568744712,
				"element": "H" 
			},
			{
				"x": -1.2090521272,
				"y": 3.2709277218,
				"z": -2.1601132811,
				"element": "H" 
			},
			{
				"x": -0.0955147133,
				"y": -0.9162175121,
				"z": 1.7959181531,
				"element": "H" 
			},
			{
				"x": -2.1402228532,
				"y": -2.8233316661,
				"z": 2.1145248037,
				"element": "H" 
			},
			{
				"x": -0.4778474393,
				"y": -1.3585238561,
				"z": 4.3075105359,
				"element": "H" 
			},
			{
				"x": -1.2900421986,
				"y": -2.9832229146,
				"z": 4.4797762628,
				"element": "H" 
			},
			{
				"x": -3.5397012341,
				"y": -1.8767115758,
				"z": 3.9528402982,
				"element": "H" 
			},
			{
				"x": -2.6861099444,
				"y": -0.2708223426,
				"z": 3.774579134,
				"element": "H" 
			}
		],
		 "valence_orbital": [ 
			{
				"type": "occ",
				"energy": -0.29761,
				"method": "rhf"
			},
			{
				"type": "occ",
				"energy": -0.24598,
				"method": "rhf"
			},
			{
				"type": "occ",
				"energy": -0.24025,
				"method": "rhf"
			},
			{
				"type": "occ",
				"energy": -0.23534,
				"method": "rhf"
			},
			{
				"type": "occ",
				"energy": -0.20378,
				"method": "rhf"
			},
			{
				"type": "unocc",
				"energy": -0.02188,
				"method": "rhf"
			},
			{
				"type": "unocc",
				"energy": 0.01227,
				"method": "rhf"
			},
			{
				"type": "unocc",
				"energy": 0.06731,
				"method": "rhf"
			},
			{
				"type": "unocc",
				"energy": 0.07492,
				"method": "rhf"
			},
			{
				"type": "unocc",
				"energy": 0.08285,
				"method": "rhf"
			}
		],
		"cosmo_sigma_profile": { 
			"-0.025": 0.0,
			"-0.024": 0.0,
			"-0.023": 0.0,
			"-0.022": 0.0,
			"-0.021": 0.0,
			"-0.02": 0.0,
			"-0.019": 0.0,
			"-0.018": 0.0,
			"-0.017": 0.0,
			"-0.016": 0.0,
			"-0.015": 0.0,
			"-0.014": 0.0733100240238,
			"-0.013": 1.25873216851,
			"-0.012": 2.38585966026,
			"-0.011": 4.04301973779,
			"-0.01": 4.47635216315,
			"-0.009": 5.17520320848,
			"-0.008": 5.13391734462,
			"-0.007": 4.10714189664,
			"-0.006": 5.23159441827,
			"-0.005": 15.3862341812,
			"-0.004": 21.2792034399,
			"-0.003": 19.1836575376,
			"-0.002": 18.6621267276,
			"-0.001": 16.6255119539,
			"0.0": 20.3167610083,
			"0.001": 18.481680527,
			"0.002": 13.6819945836,
			"0.003": 11.1560861887,
			"0.004": 10.5636217391,
			"0.005": 13.0389864025,
			"0.006": 9.53214541226,
			"0.007": 2.31902023194,
			"0.008": 3.08770570417,
			"0.009": 3.14417333101,
			"0.01": 2.18734497922,
			"0.011": 2.55242805215,
			"0.012": 2.32606766226,
			"0.013": 3.15541114132,
			"0.014": 6.47890505507,
			"0.015": 2.11117339774,
			"0.016": 0.0304137937558,
			"0.017": 0.0,
			"0.018": 0.0,
			"0.019": 0.0,
			"0.02": 0.0,
			"0.021": 0.0,
			"0.022": 0.0,
			"0.023": 0.0,
			"0.024": 0.0,
			"0.025": 0.0
		}
	}
}
