{
	 "smiles": "NC1=CC(OC2=CC=C(C=C2)C#N)=CC=C1", 
	 "Tm": 360.15, 
	 "num_atms": 26, 
	 "gaussian": { 
		 "optdone": 1, 
		 "sigma_profile": "yes", 
		 "theory": "DFT", 
		 "functional": "B3LYP", 
		 "basiset": "6-31G**", 
		 "properties": { 
			 "R2extent": 5497.0776, 
			 "electric_dipole_moment_norm": 6.45740098569, 
			 "electric_quadrupole_moment_norm": 29.9927847317, 
			 "total_energy": -686.116425814, 
			 "HOMO_LUMO_gap": 0.1761, 
			 "cosmo_polarized_energy": -14.97, 
			 "cosmo_cavitation_energy": 32.12, 
			 "cosmo_dispersion_energy": -22.63, 
			 "cosmo_repulsion_energy": 1.77, 
			 "cosmo_total_nonelectrostatic_energy": 11.26, 
			 "SMD_solvation_energy": 7.05 
		},
		"coords": [
			{
				"x": 0.311459298,
				"y": 4.6169799108,
				"z": -0.3631921549,
				"element": "N" 
			},
			{
				"x": -0.5034780044,
				"y": 3.5742762388,
				"z": -0.7927586943,
				"element": "C" 
			},
			{
				"x": -0.8071358935,
				"y": 2.5057727286,
				"z": 0.0693328653,
				"element": "C" 
			},
			{
				"x": -1.6736542877,
				"y": 1.5036832794,
				"z": -0.352467728,
				"element": "C" 
			},
			{
				"x": -2.0053567,
				"y": 0.5167318928,
				"z": 0.5727969677,
				"element": "O" 
			},
			{
				"x": -1.6409245235,
				"y": -0.7838383576,
				"z": 0.3604186486,
				"element": "C" 
			},
			{
				"x": -2.240174092,
				"y": -1.7287284348,
				"z": 1.2059117437,
				"element": "C" 
			},
			{
				"x": -1.9088887636,
				"y": -3.0703583293,
				"z": 1.0911482747,
				"element": "C" 
			},
			{
				"x": -0.9729741915,
				"y": -3.4899518274,
				"z": 0.1270268284,
				"element": "C" 
			},
			{
				"x": -0.3769774931,
				"y": -2.5345616252,
				"z": -0.7127299492,
				"element": "C" 
			},
			{
				"x": -0.7045930709,
				"y": -1.1875457561,
				"z": -0.6002664746,
				"element": "C" 
			},
			{
				"x": -0.6310607373,
				"y": -4.874797456,
				"z": 0.0042663964,
				"element": "C" 
			},
			{
				"x": -0.3527185829,
				"y": -6.0006037451,
				"z": -0.0953373096,
				"element": "N" 
			},
			{
				"x": -2.2591497316,
				"y": 1.5156204909,
				"z": -1.6190765898,
				"element": "C" 
			},
			{
				"x": -1.9452712636,
				"y": 2.5748839145,
				"z": -2.4725916745,
				"element": "C" 
			},
			{
				"x": -1.0816661122,
				"y": 3.5924225918,
				"z": -2.0754599765,
				"element": "C" 
			},
			{
				"x": 0.7549912288,
				"y": 5.1568048021,
				"z": -1.0925775931,
				"element": "H" 
			},
			{
				"x": 0.9411929565,
				"y": 4.4016047689,
				"z": 0.3965270679,
				"element": "H" 
			},
			{
				"x": -0.3876959824,
				"y": 2.456188101,
				"z": 1.0694363301,
				"element": "H" 
			},
			{
				"x": -2.9596263419,
				"y": -1.3872034893,
				"z": 1.9421117092,
				"element": "H" 
			},
			{
				"x": -2.372357919,
				"y": -3.8033723034,
				"z": 1.7428978775,
				"element": "H" 
			},
			{
				"x": 0.3487520213,
				"y": -2.8531426963,
				"z": -1.4537178508,
				"element": "H" 
			},
			{
				"x": -0.2395438987,
				"y": -0.455488536,
				"z": -1.2492481433,
				"element": "H" 
			},
			{
				"x": -2.9417424726,
				"y": 0.727350933,
				"z": -1.9154220645,
				"element": "H" 
			},
			{
				"x": -2.3869250979,
				"y": 2.6102883639,
				"z": -3.464276008,
				"element": "H" 
			},
			{
				"x": -0.8579803444,
				"y": 4.4129845401,
				"z": -2.7518524985,
				"element": "H" 
			}
		],
		 "valence_orbital": [ 
			{
				"type": "occ",
				"energy": -0.31377,
				"method": "rhf"
			},
			{
				"type": "occ",
				"energy": -0.2736,
				"method": "rhf"
			},
			{
				"type": "occ",
				"energy": -0.2567,
				"method": "rhf"
			},
			{
				"type": "occ",
				"energy": -0.2372,
				"method": "rhf"
			},
			{
				"type": "occ",
				"energy": -0.21458,
				"method": "rhf"
			},
			{
				"type": "unocc",
				"energy": -0.03848,
				"method": "rhf"
			},
			{
				"type": "unocc",
				"energy": -0.02271,
				"method": "rhf"
			},
			{
				"type": "unocc",
				"energy": -0.00766,
				"method": "rhf"
			},
			{
				"type": "unocc",
				"energy": 0.0045,
				"method": "rhf"
			},
			{
				"type": "unocc",
				"energy": 0.04418,
				"method": "rhf"
			}
		],
		"cosmo_sigma_profile": { 
			"-0.025": 0.0,
			"-0.024": 0.0,
			"-0.023": 0.0,
			"-0.022": 0.0,
			"-0.021": 0.0,
			"-0.02": 0.0,
			"-0.019": 0.0,
			"-0.018": 0.0,
			"-0.017": 0.0,
			"-0.016": 0.0,
			"-0.015": 0.0,
			"-0.014": 0.0,
			"-0.013": 0.618789690015,
			"-0.012": 2.99202665913,
			"-0.011": 2.76467263946,
			"-0.01": 3.56394954374,
			"-0.009": 2.91590488489,
			"-0.008": 6.30312955008,
			"-0.007": 11.1612417865,
			"-0.006": 15.5520541535,
			"-0.005": 14.1685052361,
			"-0.004": 13.9609241463,
			"-0.003": 15.4072862684,
			"-0.002": 11.5099117427,
			"-0.001": 16.870248936,
			"0.0": 18.4688775198,
			"0.001": 19.4339885818,
			"0.002": 22.9563891859,
			"0.003": 16.3594880682,
			"0.004": 12.4976798693,
			"0.005": 12.3201319636,
			"0.006": 10.0929568335,
			"0.007": 4.25093459205,
			"0.008": 4.91162994199,
			"0.009": 5.24798029599,
			"0.01": 4.01607265665,
			"0.011": 3.5541353835,
			"0.012": 2.91459859984,
			"0.013": 3.02745485095,
			"0.014": 0.690540024138,
			"0.015": 0.0,
			"0.016": 0.0,
			"0.017": 0.0,
			"0.018": 0.0,
			"0.019": 0.0,
			"0.02": 0.0,
			"0.021": 0.0,
			"0.022": 0.0,
			"0.023": 0.0,
			"0.024": 0.0,
			"0.025": 0.0
		}
	}
}
