{
	 "smiles": "NC1=C(C=CC=C1)N1C(=O)CCC1=O", 
	 "Tm": 505.15, 
	 "num_atms": 24, 
	 "gaussian": { 
		 "optdone": 1, 
		 "sigma_profile": "yes", 
		 "theory": "DFT", 
		 "functional": "B3LYP", 
		 "basiset": "6-31G**", 
		 "properties": { 
			 "R2extent": 2921.9495, 
			 "electric_dipole_moment_norm": 1.93160566887, 
			 "electric_quadrupole_moment_norm": 16.9597696668, 
			 "total_energy": -647.076845022, 
			 "HOMO_LUMO_gap": 0.18218, 
			 "cosmo_polarized_energy": -15.43, 
			 "cosmo_cavitation_energy": 27.4, 
			 "cosmo_dispersion_energy": -20.24, 
			 "cosmo_repulsion_energy": 1.6, 
			 "cosmo_total_nonelectrostatic_energy": 8.76, 
			 "SMD_solvation_energy": 5.66 
		},
		"coords": [
			{
				"x": 1.4156201918,
				"y": -0.5206747897,
				"z": 1.224723176,
				"element": "N" 
			},
			{
				"x": 1.0759377271,
				"y": 0.829385424,
				"z": 1.3279405036,
				"element": "C" 
			},
			{
				"x": -0.1064238488,
				"y": 1.3410282224,
				"z": 0.7465796549,
				"element": "C" 
			},
			{
				"x": -0.4078150738,
				"y": 2.7033972208,
				"z": 0.8260613269,
				"element": "C" 
			},
			{
				"x": 0.4572642221,
				"y": 3.5905659975,
				"z": 1.4589469652,
				"element": "C" 
			},
			{
				"x": 1.6384392252,
				"y": 3.1020617682,
				"z": 2.0215276526,
				"element": "C" 
			},
			{
				"x": 1.9340875985,
				"y": 1.7450505555,
				"z": 1.964366102,
				"element": "C" 
			},
			{
				"x": -0.9954193341,
				"y": 0.4912960976,
				"z": 0.0041873852,
				"element": "N" 
			},
			{
				"x": -1.3961875787,
				"y": 0.7883759327,
				"z": -1.3216780152,
				"element": "C" 
			},
			{
				"x": -1.050371072,
				"y": 1.7594162325,
				"z": -1.9518699368,
				"element": "O" 
			},
			{
				"x": -2.3302502508,
				"y": -0.3209010195,
				"z": -1.7908793602,
				"element": "C" 
			},
			{
				"x": -2.4817897913,
				"y": -1.2596071783,
				"z": -0.5897428063,
				"element": "C" 
			},
			{
				"x": -1.573028391,
				"y": -0.6829301609,
				"z": 0.487020512,
				"element": "C" 
			},
			{
				"x": -1.3676228068,
				"y": -1.1640722263,
				"z": 1.5874478329,
				"element": "O" 
			},
			{
				"x": 0.6454232288,
				"y": -1.1392327351,
				"z": 1.4627624102,
				"element": "H" 
			},
			{
				"x": 2.2433018107,
				"y": -0.7543562675,
				"z": 1.7586047193,
				"element": "H" 
			},
			{
				"x": -1.3214356729,
				"y": 3.0635959201,
				"z": 0.3673862763,
				"element": "H" 
			},
			{
				"x": 0.2129457962,
				"y": 4.6464143286,
				"z": 1.5087762538,
				"element": "H" 
			},
			{
				"x": 2.3278076075,
				"y": 3.7782063638,
				"z": 2.5191208027,
				"element": "H" 
			},
			{
				"x": 2.8462790983,
				"y": 1.3677189894,
				"z": 2.4204327478,
				"element": "H" 
			},
			{
				"x": -1.8790923196,
				"y": -0.8025353563,
				"z": -2.6633022014,
				"element": "H" 
			},
			{
				"x": -3.2694066442,
				"y": 0.1285938405,
				"z": -2.1246225867,
				"element": "H" 
			},
			{
				"x": -2.1769989144,
				"y": -2.290111743,
				"z": -0.7914504456,
				"element": "H" 
			},
			{
				"x": -3.5009648078,
				"y": -1.3005854169,
				"z": -0.1938389693,
				"element": "H" 
			}
		],
		 "valence_orbital": [ 
			{
				"type": "occ",
				"energy": -0.29702,
				"method": "rhf"
			},
			{
				"type": "occ",
				"energy": -0.28652,
				"method": "rhf"
			},
			{
				"type": "occ",
				"energy": -0.26386,
				"method": "rhf"
			},
			{
				"type": "occ",
				"energy": -0.24282,
				"method": "rhf"
			},
			{
				"type": "occ",
				"energy": -0.20689,
				"method": "rhf"
			},
			{
				"type": "unocc",
				"energy": -0.02471,
				"method": "rhf"
			},
			{
				"type": "unocc",
				"energy": -0.01115,
				"method": "rhf"
			},
			{
				"type": "unocc",
				"energy": 0.01355,
				"method": "rhf"
			},
			{
				"type": "unocc",
				"energy": 0.02816,
				"method": "rhf"
			},
			{
				"type": "unocc",
				"energy": 0.08084,
				"method": "rhf"
			}
		],
		"cosmo_sigma_profile": { 
			"-0.025": 0.0,
			"-0.024": 0.0,
			"-0.023": 0.0,
			"-0.022": 0.0,
			"-0.021": 0.0,
			"-0.02": 0.0,
			"-0.019": 0.0,
			"-0.018": 0.0,
			"-0.017": 0.0,
			"-0.016": 0.0,
			"-0.015": 0.0,
			"-0.014": 0.0,
			"-0.013": 0.113821549925,
			"-0.012": 1.29442657327,
			"-0.011": 1.63405375915,
			"-0.01": 1.46663652642,
			"-0.009": 1.62089491228,
			"-0.008": 5.07384090039,
			"-0.007": 17.8972448203,
			"-0.006": 18.7004282966,
			"-0.005": 16.9145269257,
			"-0.004": 17.0699076159,
			"-0.003": 15.6892325193,
			"-0.002": 11.3868758441,
			"-0.001": 8.26460035398,
			"0.0": 7.20109829804,
			"0.001": 7.3093503941,
			"0.002": 8.91692285205,
			"0.003": 8.86668838225,
			"0.004": 11.310340443,
			"0.005": 13.3038701907,
			"0.006": 8.86393986116,
			"0.007": 4.10224631097,
			"0.008": 4.39318243413,
			"0.009": 4.69552077638,
			"0.01": 5.50584363963,
			"0.011": 8.38492674254,
			"0.012": 6.11917837765,
			"0.013": 1.44897976875,
			"0.014": 0.498883657138,
			"0.015": 0.189974624089,
			"0.016": 0.0,
			"0.017": 0.0,
			"0.018": 0.0,
			"0.019": 0.0,
			"0.02": 0.0,
			"0.021": 0.0,
			"0.022": 0.0,
			"0.023": 0.0,
			"0.024": 0.0,
			"0.025": 0.0
		}
	}
}
