{
	 "smiles": "OC(=O)C1=CN(N=C1C1=CC=C(C=C1)C1=CC=CC=C1)C1=CC=CC=C1", 
	 "Tm": 529.15, 
	 "num_atms": 42, 
	 "gaussian": { 
		 "optdone": 1, 
		 "sigma_profile": "yes", 
		 "theory": "DFT", 
		 "functional": "B3LYP", 
		 "basiset": "6-31G**", 
		 "properties": { 
			 "R2extent": 15079.8604, 
			 "electric_dipole_moment_norm": 1.38163770577, 
			 "electric_quadrupole_moment_norm": 21.1814852383, 
			 "total_energy": -1107.94842465, 
			 "HOMO_LUMO_gap": 0.17168, 
			 "cosmo_polarized_energy": -15.74, 
			 "cosmo_cavitation_energy": 47.41, 
			 "cosmo_dispersion_energy": -33.95, 
			 "cosmo_repulsion_energy": 2.53, 
			 "cosmo_total_nonelectrostatic_energy": 15.98, 
			 "SMD_solvation_energy": 8.33 
		},
		"coords": [
			{
				"x": 3.6204668217,
				"y": -2.3553836568,
				"z": 1.512651484,
				"element": "O" 
			},
			{
				"x": 3.1528177836,
				"y": -3.3043699327,
				"z": 0.666406565,
				"element": "C" 
			},
			{
				"x": 3.6207268095,
				"y": -4.4293031339,
				"z": 0.6440308691,
				"element": "O" 
			},
			{
				"x": 2.071471859,
				"y": -2.8548237239,
				"z": -0.2186031355,
				"element": "C" 
			},
			{
				"x": 1.6038258505,
				"y": -3.6898701657,
				"z": -1.2209102874,
				"element": "C" 
			},
			{
				"x": 0.6827037377,
				"y": -2.9969239022,
				"z": -1.9265489592,
				"element": "N" 
			},
			{
				"x": 0.5042854925,
				"y": -1.7426323564,
				"z": -1.4287772883,
				"element": "N" 
			},
			{
				"x": 1.3365135967,
				"y": -1.6313720627,
				"z": -0.3922809033,
				"element": "C" 
			},
			{
				"x": 1.3569456101,
				"y": -0.3504935531,
				"z": 0.3427807349,
				"element": "C" 
			},
			{
				"x": 1.4940819612,
				"y": -0.2824469539,
				"z": 1.7369789124,
				"element": "C" 
			},
			{
				"x": 1.4542662833,
				"y": 0.9428275039,
				"z": 2.3953979329,
				"element": "C" 
			},
			{
				"x": 1.2757788193,
				"y": 2.1456892799,
				"z": 1.691732731,
				"element": "C" 
			},
			{
				"x": 1.1312911094,
				"y": 2.0701517495,
				"z": 0.2955318986,
				"element": "C" 
			},
			{
				"x": 1.1672672961,
				"y": 0.8478142171,
				"z": -0.365845842,
				"element": "C" 
			},
			{
				"x": 1.2394492527,
				"y": 3.4504294926,
				"z": 2.3985222098,
				"element": "C" 
			},
			{
				"x": 2.0739953124,
				"y": 3.6980938183,
				"z": 3.5022470747,
				"element": "C" 
			},
			{
				"x": 2.0392161362,
				"y": 4.9230072869,
				"z": 4.1670263119,
				"element": "C" 
			},
			{
				"x": 1.1696581909,
				"y": 5.9295070738,
				"z": 3.7424983499,
				"element": "C" 
			},
			{
				"x": 0.334988247,
				"y": 5.6988784136,
				"z": 2.6472126574,
				"element": "C" 
			},
			{
				"x": 0.3692431349,
				"y": 4.4734402429,
				"z": 1.9834483215,
				"element": "C" 
			},
			{
				"x": -0.0847495767,
				"y": -3.4342156285,
				"z": -3.042420566,
				"element": "C" 
			},
			{
				"x": -1.2759928984,
				"y": -2.7710681362,
				"z": -3.354281238,
				"element": "C" 
			},
			{
				"x": -2.032945662,
				"y": -3.2025884612,
				"z": -4.4416139273,
				"element": "C" 
			},
			{
				"x": -1.6158626307,
				"y": -4.2897435629,
				"z": -5.2126495427,
				"element": "C" 
			},
			{
				"x": -0.4230545621,
				"y": -4.9414378881,
				"z": -4.8952758055,
				"element": "C" 
			},
			{
				"x": 0.3510083187,
				"y": -4.5143525633,
				"z": -3.8171896032,
				"element": "C" 
			},
			{
				"x": 4.335418027,
				"y": -2.7849740448,
				"z": 2.0114852983,
				"element": "H" 
			},
			{
				"x": 1.879557282,
				"y": -4.7093847185,
				"z": -1.4375005278,
				"element": "H" 
			},
			{
				"x": 1.6194918501,
				"y": -1.1923278825,
				"z": 2.3106931297,
				"element": "H" 
			},
			{
				"x": 1.5306921489,
				"y": 0.9645985283,
				"z": 3.4784098789,
				"element": "H" 
			},
			{
				"x": 1.0188060529,
				"y": 2.9835797749,
				"z": -0.2808733758,
				"element": "H" 
			},
			{
				"x": 1.0592403135,
				"y": 0.8083170056,
				"z": -1.4444810785,
				"element": "H" 
			},
			{
				"x": 2.7734204596,
				"y": 2.9320158421,
				"z": 3.8237426806,
				"element": "H" 
			},
			{
				"x": 2.6993678722,
				"y": 5.0946018018,
				"z": 5.0127074922,
				"element": "H" 
			},
			{
				"x": 1.1427832047,
				"y": 6.8841013775,
				"z": 4.2599646167,
				"element": "H" 
			},
			{
				"x": -0.3517023316,
				"y": 6.471876992,
				"z": 2.313541941,
				"element": "H" 
			},
			{
				"x": -0.3035159954,
				"y": 4.2952591845,
				"z": 1.1497396694,
				"element": "H" 
			},
			{
				"x": -1.5861030261,
				"y": -1.9319932466,
				"z": -2.7441181751,
				"element": "H" 
			},
			{
				"x": -2.9580612189,
				"y": -2.687280378,
				"z": -4.6821201393,
				"element": "H" 
			},
			{
				"x": -2.2121671013,
				"y": -4.6231929044,
				"z": -6.0563276903,
				"element": "H" 
			},
			{
				"x": -0.0819920716,
				"y": -5.7799533758,
				"z": -5.4948955672,
				"element": "H" 
			},
			{
				"x": 1.2923682403,
				"y": -5.0067573531,
				"z": -3.5984371073,
				"element": "H" 
			}
		],
		 "valence_orbital": [ 
			{
				"type": "occ",
				"energy": -0.25892,
				"method": "rhf"
			},
			{
				"type": "occ",
				"energy": -0.24895,
				"method": "rhf"
			},
			{
				"type": "occ",
				"energy": -0.24755,
				"method": "rhf"
			},
			{
				"type": "occ",
				"energy": -0.23958,
				"method": "rhf"
			},
			{
				"type": "occ",
				"energy": -0.21386,
				"method": "rhf"
			},
			{
				"type": "unocc",
				"energy": -0.04218,
				"method": "rhf"
			},
			{
				"type": "unocc",
				"energy": -0.04002,
				"method": "rhf"
			},
			{
				"type": "unocc",
				"energy": -0.0148,
				"method": "rhf"
			},
			{
				"type": "unocc",
				"energy": -0.00409,
				"method": "rhf"
			},
			{
				"type": "unocc",
				"energy": -0.00166,
				"method": "rhf"
			}
		],
		"cosmo_sigma_profile": { 
			"-0.025": 0.0,
			"-0.024": 0.0,
			"-0.023": 0.0,
			"-0.022": 0.0,
			"-0.021": 0.0,
			"-0.02": 0.0,
			"-0.019": 0.023949035345,
			"-0.018": 0.67077338188,
			"-0.017": 0.936657194639,
			"-0.016": 0.741328108923,
			"-0.015": 0.718238847282,
			"-0.014": 0.805413590673,
			"-0.013": 0.511019051787,
			"-0.012": 0.693108399337,
			"-0.011": 1.74259580148,
			"-0.01": 2.25581436254,
			"-0.009": 2.96613669867,
			"-0.008": 2.24921505212,
			"-0.007": 4.18911327778,
			"-0.006": 18.5652231158,
			"-0.005": 28.9915275821,
			"-0.004": 31.810099779,
			"-0.003": 25.9891449068,
			"-0.002": 24.1373316609,
			"-0.001": 24.1311642741,
			"0.0": 26.8124268944,
			"0.001": 30.9872710107,
			"0.002": 29.104369881,
			"0.003": 29.339646726,
			"0.004": 33.0195829197,
			"0.005": 25.8533681236,
			"0.006": 10.9320411056,
			"0.007": 4.68639726535,
			"0.008": 3.79612497675,
			"0.009": 3.73308488593,
			"0.01": 2.61204978484,
			"0.011": 3.15834223017,
			"0.012": 4.94518643059,
			"0.013": 0.506403484387,
			"0.014": 0.0,
			"0.015": 0.0,
			"0.016": 0.0,
			"0.017": 0.0,
			"0.018": 0.0,
			"0.019": 0.0,
			"0.02": 0.0,
			"0.021": 0.0,
			"0.022": 0.0,
			"0.023": 0.0,
			"0.024": 0.0,
			"0.025": 0.0
		}
	}
}
