{
	 "smiles": "OC(=O)CCNS(=O)(=O)C1=CC(=CC=C1)C(F)(F)F", 
	 "Tm": 387.15, 
	 "num_atms": 29, 
	 "gaussian": { 
		 "optdone": 1, 
		 "sigma_profile": "yes", 
		 "theory": "DFT", 
		 "functional": "B3LYP", 
		 "basiset": "6-31G**", 
		 "properties": { 
			 "R2extent": 8317.1951, 
			 "electric_dipole_moment_norm": 7.25713888389, 
			 "electric_quadrupole_moment_norm": 27.2486432793, 
			 "total_energy": -1440.39329769, 
			 "HOMO_LUMO_gap": 0.18623, 
			 "cosmo_polarized_energy": -23.36, 
			 "cosmo_cavitation_energy": 36.01, 
			 "cosmo_dispersion_energy": -25.27, 
			 "cosmo_repulsion_energy": 1.84, 
			 "cosmo_total_nonelectrostatic_energy": 12.58, 
			 "SMD_solvation_energy": 7.31 
		},
		"coords": [
			{
				"x": -3.0271626512,
				"y": -2.490432307,
				"z": -2.4432549452,
				"element": "O" 
			},
			{
				"x": -3.3510362316,
				"y": -1.2468754318,
				"z": -2.0490494365,
				"element": "C" 
			},
			{
				"x": -4.0069175166,
				"y": -0.5112067918,
				"z": -2.7493163825,
				"element": "O" 
			},
			{
				"x": -2.8343684251,
				"y": -0.8145082257,
				"z": -0.673620964,
				"element": "C" 
			},
			{
				"x": -1.4747373258,
				"y": -0.1021376803,
				"z": -0.7646013758,
				"element": "C" 
			},
			{
				"x": -0.4402026256,
				"y": -0.8813241436,
				"z": -1.4678365854,
				"element": "N" 
			},
			{
				"x": 0.2057603581,
				"y": -2.2974203158,
				"z": -0.8693672054,
				"element": "S" 
			},
			{
				"x": -0.9339355798,
				"y": -3.2010791456,
				"z": -0.6235908097,
				"element": "O" 
			},
			{
				"x": 1.2917323725,
				"y": -2.6486993416,
				"z": -1.7800252643,
				"element": "O" 
			},
			{
				"x": 0.9193907215,
				"y": -1.9435636431,
				"z": 0.7429665464,
				"element": "C" 
			},
			{
				"x": 2.23083614,
				"y": -1.4670772967,
				"z": 0.7993031944,
				"element": "C" 
			},
			{
				"x": 2.7801607162,
				"y": -1.1589238257,
				"z": 2.0426692113,
				"element": "C" 
			},
			{
				"x": 2.0283855868,
				"y": -1.3275743239,
				"z": 3.2108754369,
				"element": "C" 
			},
			{
				"x": 0.7249723838,
				"y": -1.815135058,
				"z": 3.1380278606,
				"element": "C" 
			},
			{
				"x": 0.1604637598,
				"y": -2.1293187467,
				"z": 1.9000672326,
				"element": "C" 
			},
			{
				"x": 4.2118276713,
				"y": -0.6936046752,
				"z": 2.141603572,
				"element": "C" 
			},
			{
				"x": 5.0404432211,
				"y": -1.7144277469,
				"z": 2.446368659,
				"element": "F" 
			},
			{
				"x": 4.3581914416,
				"y": 0.2378286529,
				"z": 3.1086209144,
				"element": "F" 
			},
			{
				"x": 4.6440695444,
				"y": -0.1557912611,
				"z": 0.9826566211,
				"element": "F" 
			},
			{
				"x": -2.3984202804,
				"y": -2.9024693455,
				"z": -1.818540518,
				"element": "H" 
			},
			{
				"x": -3.553660217,
				"y": -0.0980416586,
				"z": -0.2689940553,
				"element": "H" 
			},
			{
				"x": -2.776909936,
				"y": -1.6662807077,
				"z": 0.0080080998,
				"element": "H" 
			},
			{
				"x": -1.1456760527,
				"y": 0.1955993006,
				"z": 0.2409982451,
				"element": "H" 
			},
			{
				"x": -1.5963369116,
				"y": 0.8094023374,
				"z": -1.355820469,
				"element": "H" 
			},
			{
				"x": 0.2683808493,
				"y": -0.3450839066,
				"z": -1.9567408945,
				"element": "H" 
			},
			{
				"x": 2.8143173788,
				"y": -1.3559165063,
				"z": -0.1073537671,
				"element": "H" 
			},
			{
				"x": 2.4666304331,
				"y": -1.0768961268,
				"z": 4.1709986178,
				"element": "H" 
			},
			{
				"x": 0.1473513501,
				"y": -1.9561772041,
				"z": 4.0458237284,
				"element": "H" 
			},
			{
				"x": -0.8419501752,
				"y": -2.5360648749,
				"z": 1.8290247329,
				"element": "H" 
			}
		],
		 "valence_orbital": [ 
			{
				"type": "occ",
				"energy": -0.31726,
				"method": "rhf"
			},
			{
				"type": "occ",
				"energy": -0.30475,
				"method": "rhf"
			},
			{
				"type": "occ",
				"energy": -0.30033,
				"method": "rhf"
			},
			{
				"type": "occ",
				"energy": -0.29171,
				"method": "rhf"
			},
			{
				"type": "occ",
				"energy": -0.259,
				"method": "rhf"
			},
			{
				"type": "unocc",
				"energy": -0.07277,
				"method": "rhf"
			},
			{
				"type": "unocc",
				"energy": -0.05974,
				"method": "rhf"
			},
			{
				"type": "unocc",
				"energy": 0.01334,
				"method": "rhf"
			},
			{
				"type": "unocc",
				"energy": 0.03367,
				"method": "rhf"
			},
			{
				"type": "unocc",
				"energy": 0.04854,
				"method": "rhf"
			}
		],
		"cosmo_sigma_profile": { 
			"-0.025": 0.0,
			"-0.024": 0.0,
			"-0.023": 0.0,
			"-0.022": 0.0,
			"-0.021": 0.0,
			"-0.02": 0.0,
			"-0.019": 0.0,
			"-0.018": 0.0,
			"-0.017": 0.0,
			"-0.016": 0.74331774275,
			"-0.015": 1.59767531742,
			"-0.014": 1.26153796624,
			"-0.013": 0.987694086467,
			"-0.012": 1.49520936734,
			"-0.011": 1.37123085187,
			"-0.01": 1.4158633551,
			"-0.009": 2.52600760299,
			"-0.008": 8.10644296766,
			"-0.007": 13.6632708803,
			"-0.006": 20.0729233209,
			"-0.005": 20.3318098594,
			"-0.004": 18.0872729004,
			"-0.003": 14.1825998132,
			"-0.002": 12.64792011,
			"-0.001": 15.3132105149,
			"0.0": 23.43244371,
			"0.001": 19.4452320264,
			"0.002": 28.2279083965,
			"0.003": 21.528657167,
			"0.004": 5.18687997632,
			"0.005": 5.23709923407,
			"0.006": 5.44685446345,
			"0.007": 4.78081440625,
			"0.008": 5.94339544075,
			"0.009": 6.45786046069,
			"0.01": 9.79233753427,
			"0.011": 7.61062871434,
			"0.012": 6.17106756193,
			"0.013": 3.77910037434,
			"0.014": 0.595800479814,
			"0.015": 0.0,
			"0.016": 0.0,
			"0.017": 0.0,
			"0.018": 0.0,
			"0.019": 0.0,
			"0.02": 0.0,
			"0.021": 0.0,
			"0.022": 0.0,
			"0.023": 0.0,
			"0.024": 0.0,
			"0.025": 0.0
		}
	}
}
