{
	 "smiles": "CC1=C(C(=O)NC2=CC=CC=C2)S(=O)(=O)CCO1", 
	 "Tm": 393.15, 
	 "num_atms": 31, 
	 "gaussian": { 
		 "optdone": 1, 
		 "sigma_profile": "yes", 
		 "theory": "DFT", 
		 "functional": "B3LYP", 
		 "basiset": "6-31G**", 
		 "properties": { 
			 "R2extent": 5120.0556, 
			 "electric_dipole_moment_norm": 7.25165278333, 
			 "electric_quadrupole_moment_norm": 26.2816750045, 
			 "total_energy": -1218.86341276, 
			 "HOMO_LUMO_gap": 0.20495, 
			 "cosmo_polarized_energy": -25.52, 
			 "cosmo_cavitation_energy": 35.17, 
			 "cosmo_dispersion_energy": -24.76, 
			 "cosmo_repulsion_energy": 1.87, 
			 "cosmo_total_nonelectrostatic_energy": 12.28, 
			 "SMD_solvation_energy": 6.26 
		},
		"coords": [
			{
				"x": 1.408130535,
				"y": -0.1633356133,
				"z": 1.0780839507,
				"element": "C" 
			},
			{
				"x": 0.7078320419,
				"y": -1.3410856157,
				"z": 0.464268696,
				"element": "C" 
			},
			{
				"x": -0.6327838837,
				"y": -1.5439718318,
				"z": 0.4977710816,
				"element": "C" 
			},
			{
				"x": -1.6105078851,
				"y": -0.6863180592,
				"z": 1.2580610785,
				"element": "C" 
			},
			{
				"x": -2.2476956479,
				"y": -1.1437075966,
				"z": 2.194089358,
				"element": "O" 
			},
			{
				"x": -1.7418348919,
				"y": 0.6360362366,
				"z": 0.887365349,
				"element": "N" 
			},
			{
				"x": -1.360665308,
				"y": 1.2954048958,
				"z": -0.3146885568,
				"element": "C" 
			},
			{
				"x": -1.5715644874,
				"y": 0.7097067496,
				"z": -1.5703681271,
				"element": "C" 
			},
			{
				"x": -1.1997241801,
				"y": 1.402236586,
				"z": -2.7232101101,
				"element": "C" 
			},
			{
				"x": -0.6504941361,
				"y": 2.6836225809,
				"z": -2.6401547452,
				"element": "C" 
			},
			{
				"x": -0.46927611,
				"y": 3.2758290971,
				"z": -1.3889296568,
				"element": "C" 
			},
			{
				"x": -0.8137991063,
				"y": 2.5826368787,
				"z": -0.2288238828,
				"element": "C" 
			},
			{
				"x": -1.3878482859,
				"y": -2.9695943779,
				"z": -0.2730493416,
				"element": "S" 
			},
			{
				"x": -2.5658954687,
				"y": -2.498837383,
				"z": -1.022380479,
				"element": "O" 
			},
			{
				"x": -1.5074963374,
				"y": -4.1074313718,
				"z": 0.6486834848,
				"element": "O" 
			},
			{
				"x": -0.0560566329,
				"y": -3.3762601286,
				"z": -1.433264719,
				"element": "C" 
			},
			{
				"x": 1.2407351131,
				"y": -3.4282305311,
				"z": -0.6435655605,
				"element": "C" 
			},
			{
				"x": 1.6232393537,
				"y": -2.142031656,
				"z": -0.1342478683,
				"element": "O" 
			},
			{
				"x": 0.7295083568,
				"y": 0.460934783,
				"z": 1.655436222,
				"element": "H" 
			},
			{
				"x": 2.2107829512,
				"y": -0.5265074975,
				"z": 1.7270181032,
				"element": "H" 
			},
			{
				"x": 1.8662633874,
				"y": 0.444323494,
				"z": 0.290764549,
				"element": "H" 
			},
			{
				"x": -2.3477051506,
				"y": 1.1450785034,
				"z": 1.5211634685,
				"element": "H" 
			},
			{
				"x": -2.0478627852,
				"y": -0.2632125123,
				"z": -1.6364379432,
				"element": "H" 
			},
			{
				"x": -1.3663693276,
				"y": 0.9447805687,
				"z": -3.6943343286,
				"element": "H" 
			},
			{
				"x": -0.3762247547,
				"y": 3.2206328184,
				"z": -3.5431953648,
				"element": "H" 
			},
			{
				"x": -0.051201871,
				"y": 4.2753323129,
				"z": -1.3123824467,
				"element": "H" 
			},
			{
				"x": -0.6592864129,
				"y": 3.0327610303,
				"z": 0.74805063,
				"element": "H" 
			},
			{
				"x": -0.0375879662,
				"y": -2.6213398148,
				"z": -2.222860766,
				"element": "H" 
			},
			{
				"x": -0.3049054205,
				"y": -4.35449103,
				"z": -1.8523307322,
				"element": "H" 
			},
			{
				"x": 2.0735423645,
				"y": -3.7426108937,
				"z": -1.2760241325,
				"element": "H" 
			},
			{
				"x": 1.1427519467,
				"y": -4.1297506221,
				"z": 0.1928927899,
				"element": "H" 
			}
		],
		 "valence_orbital": [ 
			{
				"type": "occ",
				"energy": -0.29348,
				"method": "rhf"
			},
			{
				"type": "occ",
				"energy": -0.2695,
				"method": "rhf"
			},
			{
				"type": "occ",
				"energy": -0.2619,
				"method": "rhf"
			},
			{
				"type": "occ",
				"energy": -0.24804,
				"method": "rhf"
			},
			{
				"type": "occ",
				"energy": -0.23746,
				"method": "rhf"
			},
			{
				"type": "unocc",
				"energy": -0.03251,
				"method": "rhf"
			},
			{
				"type": "unocc",
				"energy": -0.01794,
				"method": "rhf"
			},
			{
				"type": "unocc",
				"energy": -0.01305,
				"method": "rhf"
			},
			{
				"type": "unocc",
				"energy": 0.01536,
				"method": "rhf"
			},
			{
				"type": "unocc",
				"energy": 0.04864,
				"method": "rhf"
			}
		],
		"cosmo_sigma_profile": { 
			"-0.025": 0.0,
			"-0.024": 0.0,
			"-0.023": 0.0,
			"-0.022": 0.0,
			"-0.021": 0.0,
			"-0.02": 0.0,
			"-0.019": 0.0,
			"-0.018": 0.0,
			"-0.017": 0.0,
			"-0.016": 0.0,
			"-0.015": 0.312518970787,
			"-0.014": 1.08267703487,
			"-0.013": 1.24808013829,
			"-0.012": 0.971181772508,
			"-0.011": 0.774485999044,
			"-0.01": 3.13425587959,
			"-0.009": 6.00642493002,
			"-0.008": 9.21173426094,
			"-0.007": 12.2935345114,
			"-0.006": 21.0959211719,
			"-0.005": 20.2938425549,
			"-0.004": 21.2481465632,
			"-0.003": 21.1276016417,
			"-0.002": 18.8856604522,
			"-0.001": 13.7209240118,
			"0.0": 12.5448022302,
			"0.001": 13.8252064255,
			"0.002": 11.0732360124,
			"0.003": 11.6139651116,
			"0.004": 11.8729641303,
			"0.005": 11.5257671815,
			"0.006": 5.68204446683,
			"0.007": 5.14661952951,
			"0.008": 4.22708906201,
			"0.009": 5.53895222491,
			"0.01": 7.89806713427,
			"0.011": 11.6843422711,
			"0.012": 11.2685783752,
			"0.013": 4.01214877927,
			"0.014": 0.318592570352,
			"0.015": 0.0,
			"0.016": 0.0,
			"0.017": 0.0,
			"0.018": 0.0,
			"0.019": 0.0,
			"0.02": 0.0,
			"0.021": 0.0,
			"0.022": 0.0,
			"0.023": 0.0,
			"0.024": 0.0,
			"0.025": 0.0
		}
	}
}
