{
	 "smiles": "CO[Si](CCCCl)(OC)OC", 
	 "Tm": 223.15, 
	 "num_atms": 26, 
	 "gaussian": { 
		 "optdone": 1, 
		 "sigma_profile": "yes", 
		 "theory": "DFT", 
		 "functional": "B3LYP", 
		 "basiset": "6-31G**", 
		 "properties": { 
			 "R2extent": 2761.1454, 
			 "electric_dipole_moment_norm": 1.66379821493, 
			 "electric_quadrupole_moment_norm": 10.7445529246, 
			 "total_energy": -1213.15490335, 
			 "HOMO_LUMO_gap": 0.30011, 
			 "cosmo_polarized_energy": -9.86, 
			 "cosmo_cavitation_energy": 31.5, 
			 "cosmo_dispersion_energy": -19.83, 
			 "cosmo_repulsion_energy": 1.72, 
			 "cosmo_total_nonelectrostatic_energy": 13.39, 
			 "SMD_solvation_energy": 6.6 
		},
		"coords": [
			{
				"x": -0.4045539358,
				"y": 1.8576927684,
				"z": -1.1374947986,
				"element": "C" 
			},
			{
				"x": 0.4948961529,
				"y": 1.2993930193,
				"z": -0.1907732428,
				"element": "O" 
			},
			{
				"x": 0.2408779256,
				"y": -0.0903554954,
				"z": 0.6712146618,
				"element": "Si" 
			},
			{
				"x": 1.9002247126,
				"y": -0.899791065,
				"z": 0.9978934467,
				"element": "C" 
			},
			{
				"x": 2.516255391,
				"y": -1.8463069084,
				"z": -0.0526625523,
				"element": "C" 
			},
			{
				"x": 3.093337191,
				"y": -1.1944069001,
				"z": -1.3067842006,
				"element": "C" 
			},
			{
				"x": 1.8437948921,
				"y": -0.7667825554,
				"z": -2.5625970486,
				"element": "Cl" 
			},
			{
				"x": -0.5070711485,
				"y": 0.2925004836,
				"z": 2.1074216251,
				"element": "O" 
			},
			{
				"x": -0.169392664,
				"y": 1.4067537684,
				"z": 2.9193484353,
				"element": "C" 
			},
			{
				"x": -0.7559819603,
				"y": -1.1734649718,
				"z": -0.0667159338,
				"element": "O" 
			},
			{
				"x": -2.1740729958,
				"y": -1.217914299,
				"z": 0.0177530755,
				"element": "C" 
			},
			{
				"x": -0.5786903111,
				"y": 1.1666531316,
				"z": -1.9697927342,
				"element": "H" 
			},
			{
				"x": -1.3692992547,
				"y": 2.117290825,
				"z": -0.6810046894,
				"element": "H" 
			},
			{
				"x": 0.0439754321,
				"y": 2.7732820567,
				"z": -1.5338353864,
				"element": "H" 
			},
			{
				"x": 2.6213827257,
				"y": -0.1094167397,
				"z": 1.24838211,
				"element": "H" 
			},
			{
				"x": 1.7584662009,
				"y": -1.4728663412,
				"z": 1.9236500425,
				"element": "H" 
			},
			{
				"x": 3.3597173121,
				"y": -2.3750643889,
				"z": 0.414472641,
				"element": "H" 
			},
			{
				"x": 1.7947925584,
				"y": -2.6160706944,
				"z": -0.3449980983,
				"element": "H" 
			},
			{
				"x": 3.6203818052,
				"y": -0.2658589534,
				"z": -1.0780526062,
				"element": "H" 
			},
			{
				"x": 3.7781744749,
				"y": -1.8748450103,
				"z": -1.8148724453,
				"element": "H" 
			},
			{
				"x": 0.7243978769,
				"y": 1.2007587328,
				"z": 3.5237881996,
				"element": "H" 
			},
			{
				"x": -1.0028429628,
				"y": 1.6044171482,
				"z": 3.6006070773,
				"element": "H" 
			},
			{
				"x": 0.0154941522,
				"y": 2.3058420216,
				"z": 2.3192987041,
				"element": "H" 
			},
			{
				"x": -2.6295955604,
				"y": -0.5705280204,
				"z": -0.7424365113,
				"element": "H" 
			},
			{
				"x": -2.5294670523,
				"y": -0.908451415,
				"z": 1.0062714729,
				"element": "H" 
			},
			{
				"x": -2.496300958,
				"y": -2.2465601974,
				"z": -0.170381244,
				"element": "H" 
			}
		],
		 "valence_orbital": [ 
			{
				"type": "occ",
				"energy": -0.28624,
				"method": "rhf"
			},
			{
				"type": "occ",
				"energy": -0.28354,
				"method": "rhf"
			},
			{
				"type": "occ",
				"energy": -0.27695,
				"method": "rhf"
			},
			{
				"type": "occ",
				"energy": -0.27107,
				"method": "rhf"
			},
			{
				"type": "occ",
				"energy": -0.26724,
				"method": "rhf"
			},
			{
				"type": "unocc",
				"energy": 0.03287,
				"method": "rhf"
			},
			{
				"type": "unocc",
				"energy": 0.06849,
				"method": "rhf"
			},
			{
				"type": "unocc",
				"energy": 0.07836,
				"method": "rhf"
			},
			{
				"type": "unocc",
				"energy": 0.09092,
				"method": "rhf"
			},
			{
				"type": "unocc",
				"energy": 0.10589,
				"method": "rhf"
			}
		],
		"cosmo_sigma_profile": { 
			"-0.025": 0.0,
			"-0.024": 0.0,
			"-0.023": 0.0,
			"-0.022": 0.0,
			"-0.021": 0.0,
			"-0.02": 0.0,
			"-0.019": 0.0,
			"-0.018": 0.0,
			"-0.017": 0.0,
			"-0.016": 0.0,
			"-0.015": 0.0,
			"-0.014": 0.0,
			"-0.013": 0.0,
			"-0.012": 0.0,
			"-0.011": 0.0,
			"-0.01": 0.0,
			"-0.009": 0.0,
			"-0.008": 0.0,
			"-0.007": 1.37372301263,
			"-0.006": 5.12262533922,
			"-0.005": 11.7586230069,
			"-0.004": 32.1747331047,
			"-0.003": 37.5012654527,
			"-0.002": 38.7252927516,
			"-0.001": 19.532498782,
			"0.0": 14.3243904169,
			"0.001": 10.5768844307,
			"0.002": 8.51491009515,
			"0.003": 7.85237574721,
			"0.004": 7.96151922372,
			"0.005": 8.2990527784,
			"0.006": 9.1773394506,
			"0.007": 10.669909627,
			"0.008": 5.40092591754,
			"0.009": 4.19508679253,
			"0.01": 3.57164981085,
			"0.011": 2.54798210746,
			"0.012": 2.44295676333,
			"0.013": 0.853170735255,
			"0.014": 0.0531136246358,
			"0.015": 0.0,
			"0.016": 0.0,
			"0.017": 0.0,
			"0.018": 0.0,
			"0.019": 0.0,
			"0.02": 0.0,
			"0.021": 0.0,
			"0.022": 0.0,
			"0.023": 0.0,
			"0.024": 0.0,
			"0.025": 0.0
		}
	}
}
