{
	 "smiles": "OC(=O)C1=CC=C(NC(=O)C2=CC=C(Br)C=C2)C=C1", 
	 "Tm": 601.15, 
	 "num_atms": 29, 
	 "gaussian": { 
		 "optdone": 1, 
		 "sigma_profile": "yes", 
		 "theory": "DFT", 
		 "functional": "B3LYP", 
		 "basiset": "6-31G**", 
		 "properties": { 
			 "R2extent": 10714.9061, 
			 "electric_dipole_moment_norm": 2.5228884141, 
			 "electric_quadrupole_moment_norm": 32.0961011405, 
			 "total_energy": -3391.36591813, 
			 "HOMO_LUMO_gap": 0.17636, 
			 "cosmo_polarized_energy": -21.96, 
			 "cosmo_cavitation_energy": 37.04, 
			 "cosmo_dispersion_energy": -26.56, 
			 "cosmo_repulsion_energy": 2.05, 
			 "cosmo_total_nonelectrostatic_energy": 12.53, 
			 "SMD_solvation_energy": 6.82 
		},
		"coords": [
			{
				"x": -1.7449431338,
				"y": -4.2000260478,
				"z": 0.7960420363,
				"element": "O" 
			},
			{
				"x": -0.6999779605,
				"y": -3.7068255692,
				"z": 1.5148698078,
				"element": "C" 
			},
			{
				"x": -0.1793319651,
				"y": -4.3895778433,
				"z": 2.3660931967,
				"element": "O" 
			},
			{
				"x": -0.2527752064,
				"y": -2.315535368,
				"z": 1.1932715408,
				"element": "C" 
			},
			{
				"x": -1.0497463517,
				"y": -1.3791554315,
				"z": 0.5194702044,
				"element": "C" 
			},
			{
				"x": -0.5899868009,
				"y": -0.0898837779,
				"z": 0.2696147676,
				"element": "C" 
			},
			{
				"x": 0.7023943406,
				"y": 0.2830785507,
				"z": 0.6709733675,
				"element": "C" 
			},
			{
				"x": 1.2223702266,
				"y": 1.5763329449,
				"z": 0.4645361207,
				"element": "N" 
			},
			{
				"x": 0.8802092646,
				"y": 2.5746744555,
				"z": -0.4427621731,
				"element": "C" 
			},
			{
				"x": 1.1021426754,
				"y": 3.7441714198,
				"z": -0.1583813161,
				"element": "O" 
			},
			{
				"x": 0.3319841014,
				"y": 2.1948120647,
				"z": -1.7837404535,
				"element": "C" 
			},
			{
				"x": -0.5138201721,
				"y": 3.1138804269,
				"z": -2.4197118458,
				"element": "C" 
			},
			{
				"x": -1.0029528322,
				"y": 2.8634454604,
				"z": -3.6988753992,
				"element": "C" 
			},
			{
				"x": -0.6150719124,
				"y": 1.6948257534,
				"z": -4.3555064086,
				"element": "C" 
			},
			{
				"x": -1.272382733,
				"y": 1.3443144902,
				"z": -6.1118323376,
				"element": "Br" 
			},
			{
				"x": 0.2511578741,
				"y": 0.7809424654,
				"z": -3.7550273564,
				"element": "C" 
			},
			{
				"x": 0.7179664142,
				"y": 1.0325812392,
				"z": -2.4663332319,
				"element": "C" 
			},
			{
				"x": 1.4971576198,
				"y": -0.646465876,
				"z": 1.3646196471,
				"element": "C" 
			},
			{
				"x": 1.0187722561,
				"y": -1.9208230497,
				"z": 1.6333142883,
				"element": "C" 
			},
			{
				"x": -1.9444179088,
				"y": -3.618631191,
				"z": 0.049690944,
				"element": "H" 
			},
			{
				"x": -2.069082219,
				"y": -1.6221017463,
				"z": 0.2287156503,
				"element": "H" 
			},
			{
				"x": -1.2380724727,
				"y": 0.6295295617,
				"z": -0.2156394569,
				"element": "H" 
			},
			{
				"x": 1.7697391042,
				"y": 1.9574624518,
				"z": 1.2279383352,
				"element": "H" 
			},
			{
				"x": -0.7751865695,
				"y": 4.0297578859,
				"z": -1.900431808,
				"element": "H" 
			},
			{
				"x": -1.6676531843,
				"y": 3.5678701049,
				"z": -4.1853962393,
				"element": "H" 
			},
			{
				"x": 0.5586124386,
				"y": -0.1107413775,
				"z": -4.2890312968,
				"element": "H" 
			},
			{
				"x": 1.3986676969,
				"y": 0.326816279,
				"z": -2.0027637639,
				"element": "H" 
			},
			{
				"x": 2.494684266,
				"y": -0.3589883698,
				"z": 1.6849437061,
				"element": "H" 
			},
			{
				"x": 1.6222431439,
				"y": -2.6389399066,
				"z": 2.1777394743,
				"element": "H" 
			}
		],
		 "valence_orbital": [ 
			{
				"type": "occ",
				"energy": -0.28172,
				"method": "rhf"
			},
			{
				"type": "occ",
				"energy": -0.2777,
				"method": "rhf"
			},
			{
				"type": "occ",
				"energy": -0.27616,
				"method": "rhf"
			},
			{
				"type": "occ",
				"energy": -0.25771,
				"method": "rhf"
			},
			{
				"type": "occ",
				"energy": -0.24628,
				"method": "rhf"
			},
			{
				"type": "unocc",
				"energy": -0.06992,
				"method": "rhf"
			},
			{
				"type": "unocc",
				"energy": -0.04885,
				"method": "rhf"
			},
			{
				"type": "unocc",
				"energy": -0.03817,
				"method": "rhf"
			},
			{
				"type": "unocc",
				"energy": -0.02525,
				"method": "rhf"
			},
			{
				"type": "unocc",
				"energy": -0.00599,
				"method": "rhf"
			}
		],
		"cosmo_sigma_profile": { 
			"-0.025": 0.0,
			"-0.024": 0.0,
			"-0.023": 0.0,
			"-0.022": 0.0,
			"-0.021": 0.0,
			"-0.02": 0.0,
			"-0.019": 0.176888572167,
			"-0.018": 0.849008962053,
			"-0.017": 0.686976083322,
			"-0.016": 1.19549481517,
			"-0.015": 1.79294796719,
			"-0.014": 1.79573383684,
			"-0.013": 1.84842120611,
			"-0.012": 2.83525180585,
			"-0.011": 2.53567326917,
			"-0.01": 2.42265488791,
			"-0.009": 2.26491724345,
			"-0.008": 4.65750556003,
			"-0.007": 13.1017769921,
			"-0.006": 15.7802892205,
			"-0.005": 15.9668561109,
			"-0.004": 15.0835503573,
			"-0.003": 17.3439819276,
			"-0.002": 16.2919986987,
			"-0.001": 18.910313924,
			"0.0": 20.7404235635,
			"0.001": 24.9427126923,
			"0.002": 32.6975181617,
			"0.003": 21.2893404245,
			"0.004": 15.0272694956,
			"0.005": 5.85667539903,
			"0.006": 4.213754559,
			"0.007": 3.33164523857,
			"0.008": 3.41034895323,
			"0.009": 5.56850491245,
			"0.01": 5.94534441512,
			"0.011": 7.20052355795,
			"0.012": 10.2342884584,
			"0.013": 4.67699708374,
			"0.014": 0.143634142379,
			"0.015": 0.0,
			"0.016": 0.0,
			"0.017": 0.0,
			"0.018": 0.0,
			"0.019": 0.0,
			"0.02": 0.0,
			"0.021": 0.0,
			"0.022": 0.0,
			"0.023": 0.0,
			"0.024": 0.0,
			"0.025": 0.0
		}
	}
}
