{
	 "smiles": "NC(=O)C1=C2C=CC=CC2=NC(N)=C1", 
	 "Tm": 473.15, 
	 "num_atms": 23, 
	 "gaussian": { 
		 "optdone": 1, 
		 "sigma_profile": "yes", 
		 "theory": "DFT", 
		 "functional": "B3LYP", 
		 "basiset": "6-31G**", 
		 "properties": { 
			 "R2extent": 3003.4509, 
			 "electric_dipole_moment_norm": 3.10882754909, 
			 "electric_quadrupole_moment_norm": 20.6430373879, 
			 "total_energy": -626.000660441, 
			 "HOMO_LUMO_gap": 0.15553, 
			 "cosmo_polarized_energy": -17.95, 
			 "cosmo_cavitation_energy": 27.14, 
			 "cosmo_dispersion_energy": -20.36, 
			 "cosmo_repulsion_energy": 1.6, 
			 "cosmo_total_nonelectrostatic_energy": 8.39, 
			 "SMD_solvation_energy": 3.86 
		},
		"coords": [
			{
				"x": 1.026919094,
				"y": -1.6500160434,
				"z": -2.5602957866,
				"element": "N" 
			},
			{
				"x": 1.0729245052,
				"y": -0.2927886869,
				"z": -2.744471352,
				"element": "C" 
			},
			{
				"x": 1.3854901777,
				"y": 0.203330432,
				"z": -3.8186361907,
				"element": "O" 
			},
			{
				"x": 0.768929026,
				"y": 0.5620680487,
				"z": -1.5339116098,
				"element": "C" 
			},
			{
				"x": -0.1949706906,
				"y": 0.2580498024,
				"z": -0.5116545622,
				"element": "C" 
			},
			{
				"x": -1.1116552205,
				"y": -0.8271569604,
				"z": -0.5458846357,
				"element": "C" 
			},
			{
				"x": -2.002883833,
				"y": -1.0375123865,
				"z": 0.4864757486,
				"element": "C" 
			},
			{
				"x": -2.0218656432,
				"y": -0.168684929,
				"z": 1.6002228795,
				"element": "C" 
			},
			{
				"x": -1.1681354338,
				"y": 0.9108869309,
				"z": 1.6518813644,
				"element": "C" 
			},
			{
				"x": -0.2487238911,
				"y": 1.1656949168,
				"z": 0.6002832757,
				"element": "C" 
			},
			{
				"x": 0.537595203,
				"y": 2.2736337856,
				"z": 0.7058911061,
				"element": "N" 
			},
			{
				"x": 1.3623451031,
				"y": 2.5527847037,
				"z": -0.287696553,
				"element": "C" 
			},
			{
				"x": 2.0860920609,
				"y": 3.721509179,
				"z": -0.2043604083,
				"element": "N" 
			},
			{
				"x": 1.5071276494,
				"y": 1.7143915225,
				"z": -1.4343945533,
				"element": "C" 
			},
			{
				"x": 1.0024926372,
				"y": -2.0500296028,
				"z": -1.6352804665,
				"element": "H" 
			},
			{
				"x": 1.3809242304,
				"y": -2.2155135307,
				"z": -3.3183554791,
				"element": "H" 
			},
			{
				"x": -1.1306119414,
				"y": -1.4811463062,
				"z": -1.4103323446,
				"element": "H" 
			},
			{
				"x": -2.7002794808,
				"y": -1.8684374852,
				"z": 0.4363373343,
				"element": "H" 
			},
			{
				"x": -2.7242825949,
				"y": -0.3453380415,
				"z": 2.4099063043,
				"element": "H" 
			},
			{
				"x": -1.1770242285,
				"y": 1.607932209,
				"z": 2.4834062089,
				"element": "H" 
			},
			{
				"x": 2.0931545394,
				"y": 4.154356398,
				"z": 0.7078935966,
				"element": "H" 
			},
			{
				"x": 2.9398939715,
				"y": 3.7942834702,
				"z": -0.7351987516,
				"element": "H" 
			},
			{
				"x": 2.20324476,
				"y": 1.9682025736,
				"z": -2.227025125,
				"element": "H" 
			}
		],
		 "valence_orbital": [ 
			{
				"type": "occ",
				"energy": -0.27517,
				"method": "rhf"
			},
			{
				"type": "occ",
				"energy": -0.26127,
				"method": "rhf"
			},
			{
				"type": "occ",
				"energy": -0.25339,
				"method": "rhf"
			},
			{
				"type": "occ",
				"energy": -0.23489,
				"method": "rhf"
			},
			{
				"type": "occ",
				"energy": -0.21163,
				"method": "rhf"
			},
			{
				"type": "unocc",
				"energy": -0.0561,
				"method": "rhf"
			},
			{
				"type": "unocc",
				"energy": -0.00698,
				"method": "rhf"
			},
			{
				"type": "unocc",
				"energy": 0.00354,
				"method": "rhf"
			},
			{
				"type": "unocc",
				"energy": 0.05366,
				"method": "rhf"
			},
			{
				"type": "unocc",
				"energy": 0.08183,
				"method": "rhf"
			}
		],
		"cosmo_sigma_profile": { 
			"-0.025": 0.0,
			"-0.024": 0.0,
			"-0.023": 0.0,
			"-0.022": 0.0,
			"-0.021": 0.0,
			"-0.02": 0.0,
			"-0.019": 0.0,
			"-0.018": 0.0,
			"-0.017": 0.0,
			"-0.016": 0.0,
			"-0.015": 0.0930242817151,
			"-0.014": 2.29060817125,
			"-0.013": 4.29402699795,
			"-0.012": 5.04651712595,
			"-0.011": 3.93371231937,
			"-0.01": 4.79406950506,
			"-0.009": 5.4161001484,
			"-0.008": 4.51842827404,
			"-0.007": 4.51868076584,
			"-0.006": 7.05133394633,
			"-0.005": 10.6885499735,
			"-0.004": 11.9479528431,
			"-0.003": 10.8219075664,
			"-0.002": 11.3795051665,
			"-0.001": 10.465685904,
			"0.0": 13.4952250242,
			"0.001": 14.5704546805,
			"0.002": 14.3835010935,
			"0.003": 14.8917117071,
			"0.004": 15.0545041447,
			"0.005": 11.9343406142,
			"0.006": 4.30097813423,
			"0.007": 3.80596065445,
			"0.008": 3.79310946354,
			"0.009": 2.82121377921,
			"0.01": 3.68874776235,
			"0.011": 3.45870961454,
			"0.012": 3.26448536389,
			"0.013": 5.95197058388,
			"0.014": 3.60704962013,
			"0.015": 0.373722860142,
			"0.016": 0.0,
			"0.017": 0.0,
			"0.018": 0.0,
			"0.019": 0.0,
			"0.02": 0.0,
			"0.021": 0.0,
			"0.022": 0.0,
			"0.023": 0.0,
			"0.024": 0.0,
			"0.025": 0.0
		}
	}
}
