{
	 "smiles": "CC1(CC(O)=O)OCCC2=C1C=CS2", 
	 "Tm": 366.15, 
	 "num_atms": 26, 
	 "gaussian": { 
		 "optdone": 1, 
		 "sigma_profile": "yes", 
		 "theory": "DFT", 
		 "functional": "B3LYP", 
		 "basiset": "6-31G**", 
		 "properties": { 
			 "R2extent": 3148.8411, 
			 "electric_dipole_moment_norm": 0.795681299265, 
			 "electric_quadrupole_moment_norm": 8.01766248791, 
			 "total_energy": -1012.15098241, 
			 "HOMO_LUMO_gap": 0.21676, 
			 "cosmo_polarized_energy": -12.91, 
			 "cosmo_cavitation_energy": 29.61, 
			 "cosmo_dispersion_energy": -21.42, 
			 "cosmo_repulsion_energy": 1.64, 
			 "cosmo_total_nonelectrostatic_energy": 9.84, 
			 "SMD_solvation_energy": 5.74 
		},
		"coords": [
			{
				"x": -0.3716048139,
				"y": -3.4161018389,
				"z": -1.3911200009,
				"element": "C" 
			},
			{
				"x": -0.5538849884,
				"y": -1.9251105675,
				"z": -1.0556631649,
				"element": "C" 
			},
			{
				"x": -1.877046281,
				"y": -1.7805220651,
				"z": -0.2322108463,
				"element": "C" 
			},
			{
				"x": -2.1392566621,
				"y": -0.4221455354,
				"z": 0.3763537064,
				"element": "C" 
			},
			{
				"x": -2.8597736999,
				"y": 0.3866372197,
				"z": -0.4447564667,
				"element": "O" 
			},
			{
				"x": -1.7751100091,
				"y": -0.0634120729,
				"z": 1.474554229,
				"element": "O" 
			},
			{
				"x": -0.7049559483,
				"y": -1.295745461,
				"z": -2.3369136127,
				"element": "O" 
			},
			{
				"x": -0.2527150392,
				"y": 0.0472016507,
				"z": -2.4828287238,
				"element": "C" 
			},
			{
				"x": 1.2501699253,
				"y": 0.1609694319,
				"z": -2.2084200303,
				"element": "C" 
			},
			{
				"x": 1.4985570001,
				"y": -0.4750790616,
				"z": -0.8744351407,
				"element": "C" 
			},
			{
				"x": 0.66126315,
				"y": -1.4020116692,
				"z": -0.3103657683,
				"element": "C" 
			},
			{
				"x": 1.1004325507,
				"y": -1.8267364493,
				"z": 0.9880398298,
				"element": "C" 
			},
			{
				"x": 2.2604487263,
				"y": -1.2241208767,
				"z": 1.3771606338,
				"element": "C" 
			},
			{
				"x": 2.8419693733,
				"y": -0.1129500061,
				"z": 0.1734626547,
				"element": "S" 
			},
			{
				"x": -0.2694260715,
				"y": -4.0178679304,
				"z": -0.4838029933,
				"element": "H" 
			},
			{
				"x": 0.5265260053,
				"y": -3.5437088561,
				"z": -1.9995086102,
				"element": "H" 
			},
			{
				"x": -1.2323386259,
				"y": -3.7781042445,
				"z": -1.9618068965,
				"element": "H" 
			},
			{
				"x": -2.6995919724,
				"y": -2.0531643974,
				"z": -0.897858585,
				"element": "H" 
			},
			{
				"x": -1.8452951832,
				"y": -2.485282099,
				"z": 0.6023522922,
				"element": "H" 
			},
			{
				"x": -2.9701065288,
				"y": 1.2226928307,
				"z": 0.0397337137,
				"element": "H" 
			},
			{
				"x": -0.4867695307,
				"y": 0.3152100404,
				"z": -3.5170801859,
				"element": "H" 
			},
			{
				"x": -0.8067782503,
				"y": 0.7251073708,
				"z": -1.8224683106,
				"element": "H" 
			},
			{
				"x": 1.8135810345,
				"y": -0.3482619035,
				"z": -3.001468143,
				"element": "H" 
			},
			{
				"x": 1.5536889855,
				"y": 1.2144884807,
				"z": -2.2195773362,
				"element": "H" 
			},
			{
				"x": 0.5698018099,
				"y": -2.5400037216,
				"z": 1.608088932,
				"element": "H" 
			},
			{
				"x": 2.8049150439,
				"y": -1.3539782686,
				"z": 2.3018388239,
				"element": "H" 
			}
		],
		 "valence_orbital": [ 
			{
				"type": "occ",
				"energy": -0.30341,
				"method": "rhf"
			},
			{
				"type": "occ",
				"energy": -0.27403,
				"method": "rhf"
			},
			{
				"type": "occ",
				"energy": -0.25867,
				"method": "rhf"
			},
			{
				"type": "occ",
				"energy": -0.24055,
				"method": "rhf"
			},
			{
				"type": "occ",
				"energy": -0.22443,
				"method": "rhf"
			},
			{
				"type": "unocc",
				"energy": -0.00767,
				"method": "rhf"
			},
			{
				"type": "unocc",
				"energy": 0.00363,
				"method": "rhf"
			},
			{
				"type": "unocc",
				"energy": 0.02962,
				"method": "rhf"
			},
			{
				"type": "unocc",
				"energy": 0.06215,
				"method": "rhf"
			},
			{
				"type": "unocc",
				"energy": 0.07345,
				"method": "rhf"
			}
		],
		"cosmo_sigma_profile": { 
			"-0.025": 0.0,
			"-0.024": 0.0,
			"-0.023": 0.0,
			"-0.022": 0.0,
			"-0.021": 0.0,
			"-0.02": 0.0,
			"-0.019": 0.0,
			"-0.018": 0.364250789338,
			"-0.017": 1.34347756148,
			"-0.016": 0.561261810564,
			"-0.015": 0.738640337301,
			"-0.014": 0.67450749772,
			"-0.013": 0.89590633057,
			"-0.012": 0.294199452,
			"-0.011": 0.849345343563,
			"-0.01": 1.17369350499,
			"-0.009": 0.816312245149,
			"-0.008": 2.08891535657,
			"-0.007": 5.53609823186,
			"-0.006": 8.61735027636,
			"-0.005": 16.0461622197,
			"-0.004": 24.6803050888,
			"-0.003": 23.6112646646,
			"-0.002": 20.5810711621,
			"-0.001": 14.7745015414,
			"0.0": 14.366527252,
			"0.001": 11.9063548108,
			"0.002": 12.4167912795,
			"0.003": 10.5672733391,
			"0.004": 12.2176642558,
			"0.005": 13.2451961343,
			"0.006": 6.0346670816,
			"0.007": 5.39848877458,
			"0.008": 4.20749595224,
			"0.009": 4.97122083923,
			"0.01": 4.44025403707,
			"0.011": 4.69273439463,
			"0.012": 5.78083898432,
			"0.013": 1.10566508071,
			"0.014": 0.0,
			"0.015": 0.0,
			"0.016": 0.0,
			"0.017": 0.0,
			"0.018": 0.0,
			"0.019": 0.0,
			"0.02": 0.0,
			"0.021": 0.0,
			"0.022": 0.0,
			"0.023": 0.0,
			"0.024": 0.0,
			"0.025": 0.0
		}
	}
}
