{
	 "smiles": "CCC(C(O)=O)C1=CC=CC=C1", 
	 "Tm": 320.65, 
	 "num_atms": 24, 
	 "gaussian": { 
		 "optdone": 1, 
		 "sigma_profile": "yes", 
		 "theory": "DFT", 
		 "functional": "B3LYP", 
		 "basiset": "6-31G**", 
		 "properties": { 
			 "R2extent": 2732.1362, 
			 "electric_dipole_moment_norm": 1.70431439001, 
			 "electric_quadrupole_moment_norm": 9.40589974697, 
			 "total_energy": -538.768153839, 
			 "HOMO_LUMO_gap": 0.23123, 
			 "cosmo_polarized_energy": -9.49, 
			 "cosmo_cavitation_energy": 27.28, 
			 "cosmo_dispersion_energy": -19.31, 
			 "cosmo_repulsion_energy": 1.57, 
			 "cosmo_total_nonelectrostatic_energy": 9.55, 
			 "SMD_solvation_energy": 5.79 
		},
		"coords": [
			{
				"x": 0.7856285958,
				"y": -1.8870690019,
				"z": -1.2085367562,
				"element": "C" 
			},
			{
				"x": 0.8862974431,
				"y": -0.4835831697,
				"z": -0.6029292228,
				"element": "C" 
			},
			{
				"x": -0.1506472722,
				"y": -0.2136482424,
				"z": 0.5122401363,
				"element": "C" 
			},
			{
				"x": -0.0363580317,
				"y": -1.1877068179,
				"z": 1.67981082,
				"element": "C" 
			},
			{
				"x": 1.2484818782,
				"y": -1.381112775,
				"z": 2.080976882,
				"element": "O" 
			},
			{
				"x": -0.9673689675,
				"y": -1.7361907899,
				"z": 2.2248442901,
				"element": "O" 
			},
			{
				"x": -0.099034414,
				"y": 1.2286600938,
				"z": 1.0136187778,
				"element": "C" 
			},
			{
				"x": -1.1840685952,
				"y": 2.0834682751,
				"z": 0.7818634226,
				"element": "C" 
			},
			{
				"x": -1.1486955681,
				"y": 3.4150655228,
				"z": 1.1989590273,
				"element": "C" 
			},
			{
				"x": -0.0247022456,
				"y": 3.9112004952,
				"z": 1.8600189183,
				"element": "C" 
			},
			{
				"x": 1.0606960631,
				"y": 3.0663103617,
				"z": 2.1009949602,
				"element": "C" 
			},
			{
				"x": 1.0250909694,
				"y": 1.7361019899,
				"z": 1.6821040385,
				"element": "C" 
			},
			{
				"x": 0.9946861786,
				"y": -2.6612428413,
				"z": -0.4629279846,
				"element": "H" 
			},
			{
				"x": 1.5066227494,
				"y": -2.0106290844,
				"z": -2.0226793232,
				"element": "H" 
			},
			{
				"x": -0.2135961548,
				"y": -2.0755179735,
				"z": -1.6168858231,
				"element": "H" 
			},
			{
				"x": 1.8930025901,
				"y": -0.3191720392,
				"z": -0.2055987808,
				"element": "H" 
			},
			{
				"x": 0.73067588,
				"y": 0.2710561734,
				"z": -1.3825359273,
				"element": "H" 
			},
			{
				"x": -1.1533859738,
				"y": -0.3920803864,
				"z": 0.1115627362,
				"element": "H" 
			},
			{
				"x": 1.1999054242,
				"y": -1.9825934977,
				"z": 2.8432978995,
				"element": "H" 
			},
			{
				"x": -2.0643803415,
				"y": 1.7024297694,
				"z": 0.270493195,
				"element": "H" 
			},
			{
				"x": -2.0005910943,
				"y": 4.0618862605,
				"z": 1.0089885211,
				"element": "H" 
			},
			{
				"x": 0.0049319564,
				"y": 4.9464692268,
				"z": 2.187398619,
				"element": "H" 
			},
			{
				"x": 1.9383990175,
				"y": 3.4427430363,
				"z": 2.61906191,
				"element": "H" 
			},
			{
				"x": 1.868809913,
				"y": 1.0841554145,
				"z": 1.8850596642,
				"element": "H" 
			}
		],
		 "valence_orbital": [ 
			{
				"type": "occ",
				"energy": -0.33347,
				"method": "rhf"
			},
			{
				"type": "occ",
				"energy": -0.3149,
				"method": "rhf"
			},
			{
				"type": "occ",
				"energy": -0.27519,
				"method": "rhf"
			},
			{
				"type": "occ",
				"energy": -0.25058,
				"method": "rhf"
			},
			{
				"type": "occ",
				"energy": -0.2424,
				"method": "rhf"
			},
			{
				"type": "unocc",
				"energy": -0.01117,
				"method": "rhf"
			},
			{
				"type": "unocc",
				"energy": -0.00297,
				"method": "rhf"
			},
			{
				"type": "unocc",
				"energy": 0.02027,
				"method": "rhf"
			},
			{
				"type": "unocc",
				"energy": 0.06987,
				"method": "rhf"
			},
			{
				"type": "unocc",
				"energy": 0.09736,
				"method": "rhf"
			}
		],
		"cosmo_sigma_profile": { 
			"-0.025": 0.0,
			"-0.024": 0.0,
			"-0.023": 0.0,
			"-0.022": 0.0,
			"-0.021": 0.0,
			"-0.02": 0.0,
			"-0.019": 0.0323111702217,
			"-0.018": 0.677788774354,
			"-0.017": 0.87093932392,
			"-0.016": 1.09830749431,
			"-0.015": 0.573902208565,
			"-0.014": 0.342891720399,
			"-0.013": 0.632790164534,
			"-0.012": 0.634353958153,
			"-0.011": 0.730036451591,
			"-0.01": 0.887300175093,
			"-0.009": 0.732002047044,
			"-0.008": 0.499226712293,
			"-0.007": 1.12443292918,
			"-0.006": 6.69344445904,
			"-0.005": 11.3532263745,
			"-0.004": 15.750382405,
			"-0.003": 23.2004931622,
			"-0.002": 19.7455864987,
			"-0.001": 21.6924468656,
			"0.0": 18.4472227645,
			"0.001": 17.8300551816,
			"0.002": 13.5445837841,
			"0.003": 10.5057957297,
			"0.004": 10.7029771756,
			"0.005": 11.6525447131,
			"0.006": 8.03106819443,
			"0.007": 2.02449029744,
			"0.008": 2.04385752335,
			"0.009": 1.43883340899,
			"0.01": 2.03892246701,
			"0.011": 4.02513428677,
			"0.012": 4.36588052603,
			"0.013": 1.04390551675,
			"0.014": 0.0,
			"0.015": 0.0,
			"0.016": 0.0,
			"0.017": 0.0,
			"0.018": 0.0,
			"0.019": 0.0,
			"0.02": 0.0,
			"0.021": 0.0,
			"0.022": 0.0,
			"0.023": 0.0,
			"0.024": 0.0,
			"0.025": 0.0
		}
	}
}
