{
	 "smiles": "CC1=CC=C(C=C1)C1=CSC(=O)N1", 
	 "Tm": 493.15, 
	 "num_atms": 22, 
	 "gaussian": { 
		 "optdone": 1, 
		 "sigma_profile": "yes", 
		 "theory": "DFT", 
		 "functional": "B3LYP", 
		 "basiset": "6-31G**", 
		 "properties": { 
			 "R2extent": 4858.1566, 
			 "electric_dipole_moment_norm": 5.37551936933, 
			 "electric_quadrupole_moment_norm": 20.9553422618, 
			 "total_energy": -914.668359076, 
			 "HOMO_LUMO_gap": 0.16884, 
			 "cosmo_polarized_energy": -11.74, 
			 "cosmo_cavitation_energy": 28.04, 
			 "cosmo_dispersion_energy": -21.15, 
			 "cosmo_repulsion_energy": 1.61, 
			 "cosmo_total_nonelectrostatic_energy": 8.5, 
			 "SMD_solvation_energy": 5.51 
		},
		"coords": [
			{
				"x": 0.871915808,
				"y": 3.0470794019,
				"z": -1.3597163629,
				"element": "C" 
			},
			{
				"x": 0.4898785942,
				"y": 1.9443827216,
				"z": -0.4019513098,
				"element": "C" 
			},
			{
				"x": -0.7575771403,
				"y": 1.9467958098,
				"z": 0.2405003096,
				"element": "C" 
			},
			{
				"x": -1.132139833,
				"y": 0.9168469316,
				"z": 1.0962981825,
				"element": "C" 
			},
			{
				"x": -0.260089862,
				"y": -0.1540575861,
				"z": 1.3569026421,
				"element": "C" 
			},
			{
				"x": 0.9915563472,
				"y": -0.1577640689,
				"z": 0.7201062919,
				"element": "C" 
			},
			{
				"x": 1.354485832,
				"y": 0.873942036,
				"z": -0.143715166,
				"element": "C" 
			},
			{
				"x": -0.6506960847,
				"y": -1.2285021016,
				"z": 2.2805966275,
				"element": "C" 
			},
			{
				"x": -1.4612671946,
				"y": -1.1409623807,
				"z": 3.3625707851,
				"element": "C" 
			},
			{
				"x": -1.6300477284,
				"y": -2.672237149,
				"z": 4.204292203,
				"element": "S" 
			},
			{
				"x": -0.5386506094,
				"y": -3.4946124914,
				"z": 3.0041726403,
				"element": "C" 
			},
			{
				"x": -0.2328005892,
				"y": -4.6659668208,
				"z": 2.9900198992,
				"element": "O" 
			},
			{
				"x": -0.1417097229,
				"y": -2.5198636064,
				"z": 2.108580375,
				"element": "N" 
			},
			{
				"x": 1.9558050867,
				"y": 3.1022374896,
				"z": -1.4947157104,
				"element": "H" 
			},
			{
				"x": 0.5238900504,
				"y": 4.0227617751,
				"z": -1.0061154672,
				"element": "H" 
			},
			{
				"x": 0.4262166139,
				"y": 2.8842973253,
				"z": -2.3490525686,
				"element": "H" 
			},
			{
				"x": -1.4516547009,
				"y": 2.7629989113,
				"z": 0.055686992,
				"element": "H" 
			},
			{
				"x": -2.1165938912,
				"y": 0.9268913994,
				"z": 1.5542284243,
				"element": "H" 
			},
			{
				"x": 1.705129943,
				"y": -0.95091336,
				"z": 0.9261652114,
				"element": "H" 
			},
			{
				"x": 2.3326851586,
				"y": 0.8507000481,
				"z": -0.6172276229,
				"element": "H" 
			},
			{
				"x": -1.9240062962,
				"y": -0.243521898,
				"z": 3.7444306572,
				"element": "H" 
			},
			{
				"x": 0.3832702187,
				"y": -2.8042323868,
				"z": 1.2936429668,
				"element": "H" 
			}
		],
		 "valence_orbital": [ 
			{
				"type": "occ",
				"energy": -0.29713,
				"method": "rhf"
			},
			{
				"type": "occ",
				"energy": -0.269,
				"method": "rhf"
			},
			{
				"type": "occ",
				"energy": -0.26499,
				"method": "rhf"
			},
			{
				"type": "occ",
				"energy": -0.26157,
				"method": "rhf"
			},
			{
				"type": "occ",
				"energy": -0.2066,
				"method": "rhf"
			},
			{
				"type": "unocc",
				"energy": -0.03776,
				"method": "rhf"
			},
			{
				"type": "unocc",
				"energy": -0.01755,
				"method": "rhf"
			},
			{
				"type": "unocc",
				"energy": 0.01494,
				"method": "rhf"
			},
			{
				"type": "unocc",
				"energy": 0.01949,
				"method": "rhf"
			},
			{
				"type": "unocc",
				"energy": 0.05096,
				"method": "rhf"
			}
		],
		"cosmo_sigma_profile": { 
			"-0.025": 0.0,
			"-0.024": 0.0,
			"-0.023": 0.0,
			"-0.022": 0.0,
			"-0.021": 0.0,
			"-0.02": 0.0,
			"-0.019": 0.0,
			"-0.018": 0.0,
			"-0.017": 0.0,
			"-0.016": 0.936730753723,
			"-0.015": 0.946518379179,
			"-0.014": 0.88284160155,
			"-0.013": 1.09581292897,
			"-0.012": 0.863677383163,
			"-0.011": 1.5688139374,
			"-0.01": 0.686703610148,
			"-0.009": 2.66163269461,
			"-0.008": 2.93284056041,
			"-0.007": 4.06918179977,
			"-0.006": 6.59010215299,
			"-0.005": 12.9618205717,
			"-0.004": 17.674046631,
			"-0.003": 15.6976663078,
			"-0.002": 15.1659206822,
			"-0.001": 18.6218357699,
			"0.0": 22.2568621962,
			"0.001": 18.3927058289,
			"0.002": 17.5796861276,
			"0.003": 17.1503019112,
			"0.004": 15.1210299575,
			"0.005": 13.2732894512,
			"0.006": 1.95685876527,
			"0.007": 1.23413411233,
			"0.008": 1.35435195335,
			"0.009": 1.50479652072,
			"0.01": 1.69599388749,
			"0.011": 2.56629975375,
			"0.012": 6.61060379425,
			"0.013": 2.43464751269,
			"0.014": 0.0,
			"0.015": 0.0,
			"0.016": 0.0,
			"0.017": 0.0,
			"0.018": 0.0,
			"0.019": 0.0,
			"0.02": 0.0,
			"0.021": 0.0,
			"0.022": 0.0,
			"0.023": 0.0,
			"0.024": 0.0,
			"0.025": 0.0
		}
	}
}
