{
	 "smiles": "OC(=O)C1=CC2=C(N1)C=C(Cl)C(Cl)=C2", 
	 "Tm": 595.15, 
	 "num_atms": 19, 
	 "gaussian": { 
		 "optdone": 1, 
		 "sigma_profile": "yes", 
		 "theory": "DFT", 
		 "functional": "B3LYP", 
		 "basiset": "6-31G**", 
		 "properties": { 
			 "R2extent": 5163.9127, 
			 "electric_dipole_moment_norm": 2.87317843685, 
			 "electric_quadrupole_moment_norm": 23.7061760457, 
			 "total_energy": -1471.55927581, 
			 "HOMO_LUMO_gap": 0.16852, 
			 "cosmo_polarized_energy": -19.65, 
			 "cosmo_cavitation_energy": 28.04, 
			 "cosmo_dispersion_energy": -21.01, 
			 "cosmo_repulsion_energy": 1.64, 
			 "cosmo_total_nonelectrostatic_energy": 8.68, 
			 "SMD_solvation_energy": 5.13 
		},
		"coords": [
			{
				"x": 2.2452689742,
				"y": -1.9748942397,
				"z": -3.1182856474,
				"element": "O" 
			},
			{
				"x": 2.2547915035,
				"y": -0.6100146099,
				"z": -3.2028116454,
				"element": "C" 
			},
			{
				"x": 2.9763983844,
				"y": -0.0432814867,
				"z": -3.9861615023,
				"element": "O" 
			},
			{
				"x": 1.3463150324,
				"y": 0.0885449409,
				"z": -2.2713323786,
				"element": "C" 
			},
			{
				"x": 0.8250031646,
				"y": 1.3521721413,
				"z": -2.3964346841,
				"element": "C" 
			},
			{
				"x": -0.0314399716,
				"y": 1.5712337923,
				"z": -1.2701746988,
				"element": "C" 
			},
			{
				"x": 0.0198520046,
				"y": 0.3956570951,
				"z": -0.4735181489,
				"element": "C" 
			},
			{
				"x": 0.8290538861,
				"y": -0.5196215068,
				"z": -1.1210777341,
				"element": "N" 
			},
			{
				"x": -0.6740246779,
				"y": 0.283648881,
				"z": 0.7323958787,
				"element": "C" 
			},
			{
				"x": -1.4474162901,
				"y": 1.3663091355,
				"z": 1.1349640834,
				"element": "C" 
			},
			{
				"x": -2.3235400395,
				"y": 1.2362987555,
				"z": 2.640382239,
				"element": "Cl" 
			},
			{
				"x": -1.5293910971,
				"y": 2.5423173355,
				"z": 0.3447540278,
				"element": "C" 
			},
			{
				"x": -2.5130065046,
				"y": 3.8943424924,
				"z": 0.8579374341,
				"element": "Cl" 
			},
			{
				"x": -0.8301649848,
				"y": 2.646549544,
				"z": -0.8488351292,
				"element": "C" 
			},
			{
				"x": 1.4353225339,
				"y": -2.2731276594,
				"z": -2.6785865115,
				"element": "H" 
			},
			{
				"x": 1.018573818,
				"y": 2.0203541036,
				"z": -3.2225882368,
				"element": "H" 
			},
			{
				"x": 1.2932653884,
				"y": -1.2787976509,
				"z": -0.6430226523,
				"element": "H" 
			},
			{
				"x": -0.6301692085,
				"y": -0.6094163188,
				"z": 1.345369389,
				"element": "H" 
			},
			{
				"x": -0.901791916,
				"y": 3.555925255,
				"z": -1.4346740824,
				"element": "H" 
			}
		],
		 "valence_orbital": [ 
			{
				"type": "occ",
				"energy": -0.31391,
				"method": "rhf"
			},
			{
				"type": "occ",
				"energy": -0.30536,
				"method": "rhf"
			},
			{
				"type": "occ",
				"energy": -0.28869,
				"method": "rhf"
			},
			{
				"type": "occ",
				"energy": -0.24771,
				"method": "rhf"
			},
			{
				"type": "occ",
				"energy": -0.23906,
				"method": "rhf"
			},
			{
				"type": "unocc",
				"energy": -0.07054,
				"method": "rhf"
			},
			{
				"type": "unocc",
				"energy": -0.01968,
				"method": "rhf"
			},
			{
				"type": "unocc",
				"energy": -0.0038,
				"method": "rhf"
			},
			{
				"type": "unocc",
				"energy": -0.00203,
				"method": "rhf"
			},
			{
				"type": "unocc",
				"energy": 0.03083,
				"method": "rhf"
			}
		],
		"cosmo_sigma_profile": { 
			"-0.025": 0.0,
			"-0.024": 0.0,
			"-0.023": 0.0,
			"-0.022": 0.0,
			"-0.021": 0.0,
			"-0.02": 0.0,
			"-0.019": 0.57785124483,
			"-0.018": 1.76806148559,
			"-0.017": 2.54701508838,
			"-0.016": 2.60296736727,
			"-0.015": 2.31916759744,
			"-0.014": 2.06623138535,
			"-0.013": 2.18590734447,
			"-0.012": 1.99761837987,
			"-0.011": 1.89789036956,
			"-0.01": 1.67779489361,
			"-0.009": 2.17653435695,
			"-0.008": 5.6160703744,
			"-0.007": 6.09353667401,
			"-0.006": 7.34563708619,
			"-0.005": 5.03258498454,
			"-0.004": 6.5802979082,
			"-0.003": 8.59078015887,
			"-0.002": 8.76430184799,
			"-0.001": 11.9626156815,
			"0.0": 16.9250869181,
			"0.001": 28.4076667598,
			"0.002": 27.1066299633,
			"0.003": 18.5207969164,
			"0.004": 18.9148467239,
			"0.005": 9.48590542129,
			"0.006": 3.27477039375,
			"0.007": 3.07476865087,
			"0.008": 3.05935769558,
			"0.009": 3.49670610574,
			"0.01": 5.2349564209,
			"0.011": 5.90865458294,
			"0.012": 4.37610794998,
			"0.013": 0.635101875397,
			"0.014": 0.0,
			"0.015": 0.0,
			"0.016": 0.0,
			"0.017": 0.0,
			"0.018": 0.0,
			"0.019": 0.0,
			"0.02": 0.0,
			"0.021": 0.0,
			"0.022": 0.0,
			"0.023": 0.0,
			"0.024": 0.0,
			"0.025": 0.0
		}
	}
}
