{
	 "smiles": "CCC1CCC2C3CCC4CCCCC4(C)C3CCC12C", 
	 "Tm": 357.15, 
	 "num_atms": 57, 
	 "gaussian": { 
		 "optdone": 1, 
		 "sigma_profile": "yes", 
		 "theory": "DFT", 
		 "functional": "B3LYP", 
		 "basiset": "6-31G**", 
		 "properties": { 
			 "R2extent": 8539.9833, 
			 "electric_dipole_moment_norm": 0.113595950632, 
			 "electric_quadrupole_moment_norm": 0.880532497981, 
			 "total_energy": -821.974354683, 
			 "HOMO_LUMO_gap": 0.33505, 
			 "cosmo_polarized_energy": -1.2, 
			 "cosmo_cavitation_energy": 46.16, 
			 "cosmo_dispersion_energy": -33.0, 
			 "cosmo_repulsion_energy": 2.45, 
			 "cosmo_total_nonelectrostatic_energy": 15.61, 
			 "SMD_solvation_energy": 5.8 
		},
		"coords": [
			{
				"x": 4.0412347005,
				"y": -2.4635732233,
				"z": -2.7816475161,
				"element": "C" 
			},
			{
				"x": 2.6613488644,
				"y": -1.8420905239,
				"z": -2.5294907231,
				"element": "C" 
			},
			{
				"x": 2.2962982601,
				"y": -1.743664997,
				"z": -1.041202026,
				"element": "C" 
			},
			{
				"x": 2.1104056605,
				"y": -3.0882741847,
				"z": -0.3142469903,
				"element": "C" 
			},
			{
				"x": 1.5244198715,
				"y": -2.6612727249,
				"z": 1.0365702063,
				"element": "C" 
			},
			{
				"x": 0.4927886195,
				"y": -1.5713224161,
				"z": 0.6685211019,
				"element": "C" 
			},
			{
				"x": 0.0994375091,
				"y": -0.5756466475,
				"z": 1.7963983693,
				"element": "C" 
			},
			{
				"x": 1.2076998537,
				"y": -0.0554739594,
				"z": 2.7319938564,
				"element": "C" 
			},
			{
				"x": 0.5923348634,
				"y": 0.8035838354,
				"z": 3.8458512105,
				"element": "C" 
			},
			{
				"x": -0.2523928115,
				"y": 1.9866750489,
				"z": 3.324181728,
				"element": "C" 
			},
			{
				"x": -0.8790954798,
				"y": 2.7736964015,
				"z": 4.4991603062,
				"element": "C" 
			},
			{
				"x": -2.0213929411,
				"y": 2.0124184751,
				"z": 5.1922007601,
				"element": "C" 
			},
			{
				"x": -3.0938387697,
				"y": 1.5675720636,
				"z": 4.1867367075,
				"element": "C" 
			},
			{
				"x": -2.483054605,
				"y": 0.7930195666,
				"z": 3.004822866,
				"element": "C" 
			},
			{
				"x": -1.3300900044,
				"y": 1.5466463233,
				"z": 2.2798561535,
				"element": "C" 
			},
			{
				"x": -1.9395456881,
				"y": 2.7826536669,
				"z": 1.5767883714,
				"element": "C" 
			},
			{
				"x": -0.6903359023,
				"y": 0.6121786878,
				"z": 1.191861621,
				"element": "C" 
			},
			{
				"x": 0.178551995,
				"y": 1.3850409841,
				"z": 0.1518405952,
				"element": "C" 
			},
			{
				"x": 1.3229076479,
				"y": 0.5639722793,
				"z": -0.4834182745,
				"element": "C" 
			},
			{
				"x": 1.0003478656,
				"y": -0.9276006524,
				"z": -0.6843924805,
				"element": "C" 
			},
			{
				"x": -0.0860650729,
				"y": -1.0824739865,
				"z": -1.7693778823,
				"element": "C" 
			},
			{
				"x": 4.8301687299,
				"y": -1.8961617382,
				"z": -2.2741721456,
				"element": "H" 
			},
			{
				"x": 4.2782869477,
				"y": -2.4775423545,
				"z": -3.8507084883,
				"element": "H" 
			},
			{
				"x": 4.0927408679,
				"y": -3.4957424832,
				"z": -2.4198206514,
				"element": "H" 
			},
			{
				"x": 1.9015778823,
				"y": -2.427223811,
				"z": -3.0625978438,
				"element": "H" 
			},
			{
				"x": 2.6407368828,
				"y": -0.8381120574,
				"z": -2.9743435735,
				"element": "H" 
			},
			{
				"x": 3.1337671269,
				"y": -1.2327069156,
				"z": -0.5401410415,
				"element": "H" 
			},
			{
				"x": 3.0408801234,
				"y": -3.6566721152,
				"z": -0.215414161,
				"element": "H" 
			},
			{
				"x": 1.3989067668,
				"y": -3.7219431193,
				"z": -0.8624977516,
				"element": "H" 
			},
			{
				"x": 2.3302445613,
				"y": -2.2479316823,
				"z": 1.6541039336,
				"element": "H" 
			},
			{
				"x": 1.0776975023,
				"y": -3.4855263164,
				"z": 1.6035624483,
				"element": "H" 
			},
			{
				"x": -0.4406679681,
				"y": -2.0962594377,
				"z": 0.4232895002,
				"element": "H" 
			},
			{
				"x": -0.5839077783,
				"y": -1.138641972,
				"z": 2.4464232536,
				"element": "H" 
			},
			{
				"x": 1.7506962905,
				"y": -0.8914859822,
				"z": 3.1868068813,
				"element": "H" 
			},
			{
				"x": 1.952786312,
				"y": 0.5333466785,
				"z": 2.1843830275,
				"element": "H" 
			},
			{
				"x": 1.3853314215,
				"y": 1.1996544794,
				"z": 4.4935286474,
				"element": "H" 
			},
			{
				"x": -0.0204116194,
				"y": 0.154991112,
				"z": 4.4844658312,
				"element": "H" 
			},
			{
				"x": 0.4426397896,
				"y": 2.6675765866,
				"z": 2.810936296,
				"element": "H" 
			},
			{
				"x": -0.0948206032,
				"y": 3.0160722627,
				"z": 5.2279732436,
				"element": "H" 
			},
			{
				"x": -1.2602625205,
				"y": 3.7359016304,
				"z": 4.1352269545,
				"element": "H" 
			},
			{
				"x": -1.6211874507,
				"y": 1.1305949015,
				"z": 5.7091743968,
				"element": "H" 
			},
			{
				"x": -2.4695947354,
				"y": 2.6421844842,
				"z": 5.9704499674,
				"element": "H" 
			},
			{
				"x": -3.8411758409,
				"y": 0.9384254308,
				"z": 4.6858343356,
				"element": "H" 
			},
			{
				"x": -3.6378652696,
				"y": 2.4478668331,
				"z": 3.822142851,
				"element": "H" 
			},
			{
				"x": -3.2661752283,
				"y": 0.5568870988,
				"z": 2.2720203411,
				"element": "H" 
			},
			{
				"x": -2.1226246848,
				"y": -0.1706493363,
				"z": 3.3813458346,
				"element": "H" 
			},
			{
				"x": -2.6170611663,
				"y": 2.4684753251,
				"z": 0.7737028041,
				"element": "H" 
			},
			{
				"x": -1.1728453329,
				"y": 3.4236298103,
				"z": 1.1333939542,
				"element": "H" 
			},
			{
				"x": -2.5189827879,
				"y": 3.4050056919,
				"z": 2.2619377598,
				"element": "H" 
			},
			{
				"x": -1.5373396362,
				"y": 0.175938663,
				"z": 0.6414468087,
				"element": "H" 
			},
			{
				"x": 0.6280275818,
				"y": 2.2703203473,
				"z": 0.6145968547,
				"element": "H" 
			},
			{
				"x": -0.4793070568,
				"y": 1.7691143071,
				"z": -0.6347235512,
				"element": "H" 
			},
			{
				"x": 1.6039218474,
				"y": 1.0190495157,
				"z": -1.4424811469,
				"element": "H" 
			},
			{
				"x": 2.2146335273,
				"y": 0.63849703,
				"z": 0.1486788037,
				"element": "H" 
			},
			{
				"x": -1.0218523744,
				"y": -0.6076108154,
				"z": -1.4579990474,
				"element": "H" 
			},
			{
				"x": 0.2159653937,
				"y": -0.6222683052,
				"z": -2.7161668479,
				"element": "H" 
			},
			{
				"x": -0.3105919381,
				"y": -2.1369177635,
				"z": -1.9655664389,
				"element": "H" 
			}
		],
		 "valence_orbital": [ 
			{
				"type": "occ",
				"energy": -0.2877,
				"method": "rhf"
			},
			{
				"type": "occ",
				"energy": -0.28429,
				"method": "rhf"
			},
			{
				"type": "occ",
				"energy": -0.27114,
				"method": "rhf"
			},
			{
				"type": "occ",
				"energy": -0.26643,
				"method": "rhf"
			},
			{
				"type": "occ",
				"energy": -0.2636,
				"method": "rhf"
			},
			{
				"type": "unocc",
				"energy": 0.07145,
				"method": "rhf"
			},
			{
				"type": "unocc",
				"energy": 0.08304,
				"method": "rhf"
			},
			{
				"type": "unocc",
				"energy": 0.08432,
				"method": "rhf"
			},
			{
				"type": "unocc",
				"energy": 0.09737,
				"method": "rhf"
			},
			{
				"type": "unocc",
				"energy": 0.1008,
				"method": "rhf"
			}
		],
		"cosmo_sigma_profile": { 
			"-0.025": 0.0,
			"-0.024": 0.0,
			"-0.023": 0.0,
			"-0.022": 0.0,
			"-0.021": 0.0,
			"-0.02": 0.0,
			"-0.019": 0.0,
			"-0.018": 0.0,
			"-0.017": 0.0,
			"-0.016": 0.0,
			"-0.015": 0.0,
			"-0.014": 0.0,
			"-0.013": 0.0,
			"-0.012": 0.0,
			"-0.011": 0.0,
			"-0.01": 0.0,
			"-0.009": 0.0,
			"-0.008": 0.0,
			"-0.007": 0.0,
			"-0.006": 0.0,
			"-0.005": 0.0,
			"-0.004": 0.0,
			"-0.003": 2.84695872163,
			"-0.002": 45.125081962,
			"-0.001": 85.7916858927,
			"0.0": 86.7060464132,
			"0.001": 79.837539496,
			"0.002": 45.7600428609,
			"0.003": 4.30718605257,
			"0.004": 0.0,
			"0.005": 0.0,
			"0.006": 0.0,
			"0.007": 0.0,
			"0.008": 0.0,
			"0.009": 0.0,
			"0.01": 0.0,
			"0.011": 0.0,
			"0.012": 0.0,
			"0.013": 0.0,
			"0.014": 0.0,
			"0.015": 0.0,
			"0.016": 0.0,
			"0.017": 0.0,
			"0.018": 0.0,
			"0.019": 0.0,
			"0.02": 0.0,
			"0.021": 0.0,
			"0.022": 0.0,
			"0.023": 0.0,
			"0.024": 0.0,
			"0.025": 0.0
		}
	}
}
