{
	 "smiles": "OC(=O)C1=C(OC(=C1)C1=CC=C(Cl)C=C1)C(F)(F)F", 
	 "Tm": 465.15, 
	 "num_atms": 25, 
	 "gaussian": { 
		 "optdone": 1, 
		 "sigma_profile": "yes", 
		 "theory": "DFT", 
		 "functional": "B3LYP", 
		 "basiset": "6-31G**", 
		 "properties": { 
			 "R2extent": 8279.0112, 
			 "electric_dipole_moment_norm": 0.526243622289, 
			 "electric_quadrupole_moment_norm": 0.813720412673, 
			 "total_energy": -1446.27738589, 
			 "HOMO_LUMO_gap": 0.16578, 
			 "cosmo_polarized_energy": -10.93, 
			 "cosmo_cavitation_energy": 34.62, 
			 "cosmo_dispersion_energy": -24.56, 
			 "cosmo_repulsion_energy": 1.82, 
			 "cosmo_total_nonelectrostatic_energy": 11.89, 
			 "SMD_solvation_energy": 8.32 
		},
		"coords": [
			{
				"x": 1.2763797345,
				"y": 2.394529656,
				"z": 2.7391299795,
				"element": "O" 
			},
			{
				"x": 0.2783000513,
				"y": 1.4941580547,
				"z": 2.8651414938,
				"element": "C" 
			},
			{
				"x": -0.2343194633,
				"y": 1.2104379236,
				"z": 3.9283638838,
				"element": "O" 
			},
			{
				"x": -0.122347527,
				"y": 0.8935372284,
				"z": 1.5789677378,
				"element": "C" 
			},
			{
				"x": 0.3542019629,
				"y": 1.106306809,
				"z": 0.3078659737,
				"element": "C" 
			},
			{
				"x": -0.316825181,
				"y": 0.3287680056,
				"z": -0.572513292,
				"element": "O" 
			},
			{
				"x": -1.2456681989,
				"y": -0.4041615469,
				"z": 0.1271363122,
				"element": "C" 
			},
			{
				"x": -1.1565456929,
				"y": -0.0841256895,
				"z": 1.454925611,
				"element": "C" 
			},
			{
				"x": -2.0828260036,
				"y": -1.3154992825,
				"z": -0.6430119387,
				"element": "C" 
			},
			{
				"x": -3.0550944048,
				"y": -2.10051433,
				"z": 0.0007780731,
				"element": "C" 
			},
			{
				"x": -3.8602897218,
				"y": -2.9739008183,
				"z": -0.722154715,
				"element": "C" 
			},
			{
				"x": -3.696440059,
				"y": -3.0681853143,
				"z": -2.1053157225,
				"element": "C" 
			},
			{
				"x": -4.7097185765,
				"y": -4.1685046005,
				"z": -3.0219739238,
				"element": "Cl" 
			},
			{
				"x": -2.7389004696,
				"y": -2.300054487,
				"z": -2.7674025076,
				"element": "C" 
			},
			{
				"x": -1.9370905591,
				"y": -1.4283016632,
				"z": -2.0361125919,
				"element": "C" 
			},
			{
				"x": 1.4219949101,
				"y": 1.9884188693,
				"z": -0.275831931,
				"element": "C" 
			},
			{
				"x": 2.6319326586,
				"y": 1.7083047423,
				"z": 0.2438936946,
				"element": "F" 
			},
			{
				"x": 1.1696540065,
				"y": 3.2898692157,
				"z": -0.041053145,
				"element": "F" 
			},
			{
				"x": 1.4925518549,
				"y": 1.8137469865,
				"z": -1.6075486168,
				"element": "F" 
			},
			{
				"x": 1.4627156949,
				"y": 2.7268158431,
				"z": 3.6329601723,
				"element": "H" 
			},
			{
				"x": -1.7385648903,
				"y": -0.4748493083,
				"z": 2.275298355,
				"element": "H" 
			},
			{
				"x": -3.186159266,
				"y": -2.0307661308,
				"z": 1.0759534056,
				"element": "H" 
			},
			{
				"x": -4.6087097515,
				"y": -3.577204631,
				"z": -0.2208655948,
				"element": "H" 
			},
			{
				"x": -2.6230950154,
				"y": -2.3839535122,
				"z": -3.8421481313,
				"element": "H" 
			},
			{
				"x": -1.1917360929,
				"y": -0.8296720197,
				"z": -2.5476825818,
				"element": "H" 
			}
		],
		 "valence_orbital": [ 
			{
				"type": "occ",
				"energy": -0.30935,
				"method": "rhf"
			},
			{
				"type": "occ",
				"energy": -0.29314,
				"method": "rhf"
			},
			{
				"type": "occ",
				"energy": -0.29074,
				"method": "rhf"
			},
			{
				"type": "occ",
				"energy": -0.27777,
				"method": "rhf"
			},
			{
				"type": "occ",
				"energy": -0.23256,
				"method": "rhf"
			},
			{
				"type": "unocc",
				"energy": -0.06678,
				"method": "rhf"
			},
			{
				"type": "unocc",
				"energy": -0.04708,
				"method": "rhf"
			},
			{
				"type": "unocc",
				"energy": -0.02603,
				"method": "rhf"
			},
			{
				"type": "unocc",
				"energy": 0.02105,
				"method": "rhf"
			},
			{
				"type": "unocc",
				"energy": 0.03631,
				"method": "rhf"
			}
		],
		"cosmo_sigma_profile": { 
			"-0.025": 0.0,
			"-0.024": 0.0,
			"-0.023": 0.0,
			"-0.022": 0.0,
			"-0.021": 0.0,
			"-0.02": 0.0,
			"-0.019": 0.547006507781,
			"-0.018": 0.997985324031,
			"-0.017": 0.984067874214,
			"-0.016": 0.814415354868,
			"-0.015": 0.587682471755,
			"-0.014": 0.331308680244,
			"-0.013": 0.890979725132,
			"-0.012": 0.880928942469,
			"-0.011": 0.993506460242,
			"-0.01": 1.02275535497,
			"-0.009": 3.17905981765,
			"-0.008": 4.56326756074,
			"-0.007": 8.42380098352,
			"-0.006": 9.48200162676,
			"-0.005": 8.84878043727,
			"-0.004": 9.97457825086,
			"-0.003": 14.3679378299,
			"-0.002": 16.2117650999,
			"-0.001": 23.9678666184,
			"0.0": 25.8515864441,
			"0.001": 30.7570292777,
			"0.002": 45.6143994822,
			"0.003": 29.6648404227,
			"0.004": 16.3896079268,
			"0.005": 7.49222767246,
			"0.006": 4.20403026009,
			"0.007": 2.67400444263,
			"0.008": 1.11989430159,
			"0.009": 1.7560826939,
			"0.01": 2.46095343697,
			"0.011": 5.4075485516,
			"0.012": 1.17626901059,
			"0.013": 0.0,
			"0.014": 0.0,
			"0.015": 0.0,
			"0.016": 0.0,
			"0.017": 0.0,
			"0.018": 0.0,
			"0.019": 0.0,
			"0.02": 0.0,
			"0.021": 0.0,
			"0.022": 0.0,
			"0.023": 0.0,
			"0.024": 0.0,
			"0.025": 0.0
		}
	}
}
