{
	 "smiles": "CCC(=O)C1=CC=CC(=C1)[N+]([O-])=O", 
	 "Tm": 374.15, 
	 "num_atms": 22, 
	 "gaussian": { 
		 "optdone": 1, 
		 "sigma_profile": "yes", 
		 "theory": "DFT", 
		 "functional": "B3LYP", 
		 "basiset": "6-31G**", 
		 "properties": { 
			 "R2extent": 3276.0792, 
			 "electric_dipole_moment_norm": 6.12401131449, 
			 "electric_quadrupole_moment_norm": 9.60711781077, 
			 "total_energy": -628.708055765, 
			 "HOMO_LUMO_gap": 0.16676, 
			 "cosmo_polarized_energy": -12.29, 
			 "cosmo_cavitation_energy": 26.97, 
			 "cosmo_dispersion_energy": -19.38, 
			 "cosmo_repulsion_energy": 1.54, 
			 "cosmo_total_nonelectrostatic_energy": 9.12, 
			 "SMD_solvation_energy": 7.54 
		},
		"coords": [
			{
				"x": 0.8552819833,
				"y": 0.4184631648,
				"z": 3.7070646802,
				"element": "C" 
			},
			{
				"x": 0.9684111296,
				"y": -1.0302003771,
				"z": 3.19201608,
				"element": "C" 
			},
			{
				"x": 1.6062386202,
				"y": -1.0886191351,
				"z": 1.8108131177,
				"element": "C" 
			},
			{
				"x": 2.7986511799,
				"y": -1.3195359257,
				"z": 1.6889230997,
				"element": "O" 
			},
			{
				"x": 0.7681107056,
				"y": -0.8194423392,
				"z": 0.5870406794,
				"element": "C" 
			},
			{
				"x": -0.6136002913,
				"y": -0.5784658854,
				"z": 0.6319497437,
				"element": "C" 
			},
			{
				"x": -1.3359530487,
				"y": -0.3374408216,
				"z": -0.5393642678,
				"element": "C" 
			},
			{
				"x": -0.6906764741,
				"y": -0.3340796246,
				"z": -1.77292573,
				"element": "C" 
			},
			{
				"x": 0.6837148267,
				"y": -0.5751602024,
				"z": -1.8036431116,
				"element": "C" 
			},
			{
				"x": 1.4211091222,
				"y": -0.8159957229,
				"z": -0.6534066697,
				"element": "C" 
			},
			{
				"x": 1.3737910994,
				"y": -0.5726233911,
				"z": -3.1086258755,
				"element": "N" 
			},
			{
				"x": 2.5837087798,
				"y": -0.7848591626,
				"z": -3.113710905,
				"element": "O" 
			},
			{
				"x": 0.691091319,
				"y": -0.3572900657,
				"z": -4.1095327174,
				"element": "O" 
			},
			{
				"x": 1.8415057216,
				"y": 0.8902513184,
				"z": 3.7416525919,
				"element": "H" 
			},
			{
				"x": 0.2114042405,
				"y": 1.0306209545,
				"z": 3.0680085741,
				"element": "H" 
			},
			{
				"x": 0.4374492488,
				"y": 0.4306351809,
				"z": 4.7178028721,
				"element": "H" 
			},
			{
				"x": 1.6177454647,
				"y": -1.6077493294,
				"z": 3.8547578785,
				"element": "H" 
			},
			{
				"x": -0.0171553884,
				"y": -1.5087627105,
				"z": 3.1892185881,
				"element": "H" 
			},
			{
				"x": -1.137387927,
				"y": -0.5776594206,
				"z": 1.5816886867,
				"element": "H" 
			},
			{
				"x": -2.4042630506,
				"y": -0.1530416263,
				"z": -0.4898639104,
				"element": "H" 
			},
			{
				"x": -1.2203461586,
				"y": -0.151764261,
				"z": -2.6995155926,
				"element": "H" 
			},
			{
				"x": 2.4867688973,
				"y": -1.0013806175,
				"z": -0.7017478121,
				"element": "H" 
			}
		],
		 "valence_orbital": [ 
			{
				"type": "occ",
				"energy": -0.31143,
				"method": "rhf"
			},
			{
				"type": "occ",
				"energy": -0.29556,
				"method": "rhf"
			},
			{
				"type": "occ",
				"energy": -0.29298,
				"method": "rhf"
			},
			{
				"type": "occ",
				"energy": -0.28467,
				"method": "rhf"
			},
			{
				"type": "occ",
				"energy": -0.26216,
				"method": "rhf"
			},
			{
				"type": "unocc",
				"energy": -0.0954,
				"method": "rhf"
			},
			{
				"type": "unocc",
				"energy": -0.07439,
				"method": "rhf"
			},
			{
				"type": "unocc",
				"energy": -0.01612,
				"method": "rhf"
			},
			{
				"type": "unocc",
				"energy": 0.02501,
				"method": "rhf"
			},
			{
				"type": "unocc",
				"energy": 0.06813,
				"method": "rhf"
			}
		],
		"cosmo_sigma_profile": { 
			"-0.025": 0.0,
			"-0.024": 0.0,
			"-0.023": 0.0,
			"-0.022": 0.0,
			"-0.021": 0.0,
			"-0.02": 0.0,
			"-0.019": 0.0,
			"-0.018": 0.0,
			"-0.017": 0.0,
			"-0.016": 0.0,
			"-0.015": 0.0,
			"-0.014": 0.0,
			"-0.013": 0.0,
			"-0.012": 0.0,
			"-0.011": 0.0,
			"-0.01": 0.0,
			"-0.009": 0.65527235848,
			"-0.008": 5.28875563343,
			"-0.007": 8.74223617402,
			"-0.006": 9.30373053437,
			"-0.005": 10.3747468715,
			"-0.004": 15.94170476,
			"-0.003": 22.0847391714,
			"-0.002": 23.7292199983,
			"-0.001": 23.1041168784,
			"0.0": 24.2876409043,
			"0.001": 12.8581381526,
			"0.002": 5.34454707773,
			"0.003": 3.94806441146,
			"0.004": 4.8069964577,
			"0.005": 4.09105284758,
			"0.006": 5.61219222205,
			"0.007": 10.4269196124,
			"0.008": 7.88159260054,
			"0.009": 5.79507591728,
			"0.01": 4.25376535754,
			"0.011": 3.62182302234,
			"0.012": 2.36526313507,
			"0.013": 0.651827727532,
			"0.014": 0.0,
			"0.015": 0.0,
			"0.016": 0.0,
			"0.017": 0.0,
			"0.018": 0.0,
			"0.019": 0.0,
			"0.02": 0.0,
			"0.021": 0.0,
			"0.022": 0.0,
			"0.023": 0.0,
			"0.024": 0.0,
			"0.025": 0.0
		}
	}
}
