{
	 "smiles": "O=C1NN=C(C=C1)C1=CC2=C(OCCCO2)C=C1", 
	 "Tm": 473.15, 
	 "num_atms": 30, 
	 "gaussian": { 
		 "optdone": 1, 
		 "sigma_profile": "yes", 
		 "theory": "DFT", 
		 "functional": "B3LYP", 
		 "basiset": "6-31G**", 
		 "properties": { 
			 "R2extent": 6782.6351, 
			 "electric_dipole_moment_norm": 5.50359609074, 
			 "electric_quadrupole_moment_norm": 17.9633481367, 
			 "total_energy": -837.749531838, 
			 "HOMO_LUMO_gap": 0.14905, 
			 "cosmo_polarized_energy": -16.47, 
			 "cosmo_cavitation_energy": 33.63, 
			 "cosmo_dispersion_energy": -25.31, 
			 "cosmo_repulsion_energy": 1.94, 
			 "cosmo_total_nonelectrostatic_energy": 10.26, 
			 "SMD_solvation_energy": 5.82 
		},
		"coords": [
			{
				"x": 5.4567325998,
				"y": -1.5333035225,
				"z": 3.9820994722,
				"element": "O" 
			},
			{
				"x": 4.5185614987,
				"y": -1.3029176193,
				"z": 3.228002432,
				"element": "C" 
			},
			{
				"x": 4.3797397718,
				"y": -1.9984303117,
				"z": 2.0185516251,
				"element": "N" 
			},
			{
				"x": 3.4230525005,
				"y": -1.890977008,
				"z": 1.0876871897,
				"element": "N" 
			},
			{
				"x": 2.4695113905,
				"y": -1.0098373903,
				"z": 1.2960381944,
				"element": "C" 
			},
			{
				"x": 2.4717075066,
				"y": -0.1945916014,
				"z": 2.4860081428,
				"element": "C" 
			},
			{
				"x": 3.4502092364,
				"y": -0.3316987247,
				"z": 3.4161999928,
				"element": "C" 
			},
			{
				"x": 1.4234618148,
				"y": -0.8893623021,
				"z": 0.2526959495,
				"element": "C" 
			},
			{
				"x": 0.1861446806,
				"y": -0.291141839,
				"z": 0.5257326717,
				"element": "C" 
			},
			{
				"x": -0.8108328971,
				"y": -0.1848089439,
				"z": -0.4467657443,
				"element": "C" 
			},
			{
				"x": -0.5694011382,
				"y": -0.6784939147,
				"z": -1.743410281,
				"element": "C" 
			},
			{
				"x": -1.5085557526,
				"y": -0.6917420369,
				"z": -2.7429020493,
				"element": "O" 
			},
			{
				"x": -2.1186208267,
				"y": 0.5492149426,
				"z": -3.1123107819,
				"element": "C" 
			},
			{
				"x": -3.1597035485,
				"y": 1.0327411899,
				"z": -2.1095607488,
				"element": "C" 
			},
			{
				"x": -2.5615998693,
				"y": 1.4309169573,
				"z": -0.7653694024,
				"element": "C" 
			},
			{
				"x": -2.0212052553,
				"y": 0.3230831733,
				"z": -0.0389035147,
				"element": "O" 
			},
			{
				"x": 0.6687113935,
				"y": -1.2710423142,
				"z": -2.0191042923,
				"element": "C" 
			},
			{
				"x": 1.649826814,
				"y": -1.3833066663,
				"z": -1.0435776676,
				"element": "C" 
			},
			{
				"x": 5.091321224,
				"y": -2.6934138367,
				"z": 1.8226444602,
				"element": "H" 
			},
			{
				"x": 1.6930020622,
				"y": 0.5480591046,
				"z": 2.6229440923,
				"element": "H" 
			},
			{
				"x": 3.4865416101,
				"y": 0.2701856452,
				"z": 4.3173804876,
				"element": "H" 
			},
			{
				"x": -0.0666392832,
				"y": 0.075333735,
				"z": 1.5146515912,
				"element": "H" 
			},
			{
				"x": -1.3403890274,
				"y": 1.3131286613,
				"z": -3.2587948577,
				"element": "H" 
			},
			{
				"x": -2.5864766442,
				"y": 0.3509116432,
				"z": -4.0804606526,
				"element": "H" 
			},
			{
				"x": -3.6745688561,
				"y": 1.9047825662,
				"z": -2.5350949773,
				"element": "H" 
			},
			{
				"x": -3.9093931594,
				"y": 0.2485297254,
				"z": -1.9560463901,
				"element": "H" 
			},
			{
				"x": -3.3358235077,
				"y": 1.8419272057,
				"z": -0.1115707452,
				"element": "H" 
			},
			{
				"x": -1.7852532143,
				"y": 2.1990025752,
				"z": -0.9007757548,
				"element": "H" 
			},
			{
				"x": 0.8324678866,
				"y": -1.6495065559,
				"z": -3.0230100223,
				"element": "H" 
			},
			{
				"x": 2.6015709898,
				"y": -1.846942537,
				"z": -1.274978419,
				"element": "H" 
			}
		],
		 "valence_orbital": [ 
			{
				"type": "occ",
				"energy": -0.28978,
				"method": "rhf"
			},
			{
				"type": "occ",
				"energy": -0.25605,
				"method": "rhf"
			},
			{
				"type": "occ",
				"energy": -0.24911,
				"method": "rhf"
			},
			{
				"type": "occ",
				"energy": -0.24181,
				"method": "rhf"
			},
			{
				"type": "occ",
				"energy": -0.21434,
				"method": "rhf"
			},
			{
				"type": "unocc",
				"energy": -0.06529,
				"method": "rhf"
			},
			{
				"type": "unocc",
				"energy": -0.0301,
				"method": "rhf"
			},
			{
				"type": "unocc",
				"energy": -0.00437,
				"method": "rhf"
			},
			{
				"type": "unocc",
				"energy": 0.03627,
				"method": "rhf"
			},
			{
				"type": "unocc",
				"energy": 0.07822,
				"method": "rhf"
			}
		],
		"cosmo_sigma_profile": { 
			"-0.025": 0.0,
			"-0.024": 0.0,
			"-0.023": 0.0,
			"-0.022": 0.0,
			"-0.021": 0.0,
			"-0.02": 0.0,
			"-0.019": 0.0,
			"-0.018": 0.0,
			"-0.017": 0.0108186034917,
			"-0.016": 0.723073866702,
			"-0.015": 1.40638377517,
			"-0.014": 0.893240311766,
			"-0.013": 0.591394805235,
			"-0.012": 0.526295760101,
			"-0.011": 0.76731023967,
			"-0.01": 1.60089355902,
			"-0.009": 3.12680030133,
			"-0.008": 4.16318408386,
			"-0.007": 5.77481715458,
			"-0.006": 10.6996954301,
			"-0.005": 23.6755912426,
			"-0.004": 24.9935551784,
			"-0.003": 22.0428910162,
			"-0.002": 20.5451496232,
			"-0.001": 20.5680778609,
			"0.0": 16.8045066464,
			"0.001": 15.9520507147,
			"0.002": 12.6432506612,
			"0.003": 16.652645097,
			"0.004": 15.2390821064,
			"0.005": 8.98520449548,
			"0.006": 4.91541699198,
			"0.007": 4.21989858799,
			"0.008": 4.77457481631,
			"0.009": 4.74570634553,
			"0.01": 4.45795989599,
			"0.011": 3.0735272507,
			"0.012": 3.07626776248,
			"0.013": 4.25073973847,
			"0.014": 5.31908423653,
			"0.015": 0.781146307583,
			"0.016": 0.0,
			"0.017": 0.0,
			"0.018": 0.0,
			"0.019": 0.0,
			"0.02": 0.0,
			"0.021": 0.0,
			"0.022": 0.0,
			"0.023": 0.0,
			"0.024": 0.0,
			"0.025": 0.0
		}
	}
}
