{
	 "smiles": "OC(=O)C1=CC2=C(O1)C(F)=CC=C2", 
	 "Tm": 516.15, 
	 "num_atms": 18, 
	 "gaussian": { 
		 "optdone": 1, 
		 "sigma_profile": "yes", 
		 "theory": "DFT", 
		 "functional": "B3LYP", 
		 "basiset": "6-31G**", 
		 "properties": { 
			 "R2extent": 2998.4908, 
			 "electric_dipole_moment_norm": 4.6534520552, 
			 "electric_quadrupole_moment_norm": 5.97147163353, 
			 "total_energy": -671.468505479, 
			 "HOMO_LUMO_gap": 0.17632, 
			 "cosmo_polarized_energy": -11.4, 
			 "cosmo_cavitation_energy": 24.08, 
			 "cosmo_dispersion_energy": -17.79, 
			 "cosmo_repulsion_energy": 1.38, 
			 "cosmo_total_nonelectrostatic_energy": 7.67, 
			 "SMD_solvation_energy": 6.22 
		},
		"coords": [
			{
				"x": 2.0528240169,
				"y": -2.1557829048,
				"z": 1.5559973,
				"element": "O" 
			},
			{
				"x": 1.8963103168,
				"y": -0.9450944392,
				"z": 0.9747674765,
				"element": "C" 
			},
			{
				"x": 2.8204571494,
				"y": -0.1823926525,
				"z": 0.8172794287,
				"element": "O" 
			},
			{
				"x": 0.5209745303,
				"y": -0.6204657662,
				"z": 0.543869363,
				"element": "C" 
			},
			{
				"x": 0.0154228902,
				"y": 0.4864408153,
				"z": -0.0635555205,
				"element": "C" 
			},
			{
				"x": -1.3921716396,
				"y": 0.2473471813,
				"z": -0.2447634086,
				"element": "C" 
			},
			{
				"x": -1.6166588926,
				"y": -1.0350180808,
				"z": 0.2920041139,
				"element": "C" 
			},
			{
				"x": -0.4587707048,
				"y": -1.5724065524,
				"z": 0.7747863634,
				"element": "O" 
			},
			{
				"x": -2.87824025,
				"y": -1.6225645013,
				"z": 0.299216427,
				"element": "C" 
			},
			{
				"x": -3.0533212707,
				"y": -2.8484546856,
				"z": 0.8204965968,
				"element": "F" 
			},
			{
				"x": -3.9361968994,
				"y": -0.9106556997,
				"z": -0.2424544375,
				"element": "C" 
			},
			{
				"x": -3.7257092746,
				"y": 0.3743966629,
				"z": -0.7833417125,
				"element": "C" 
			},
			{
				"x": -2.4691154082,
				"y": 0.9663854073,
				"z": -0.7935516427,
				"element": "C" 
			},
			{
				"x": 1.2006885836,
				"y": -2.6192723616,
				"z": 1.5912560979,
				"element": "H" 
			},
			{
				"x": 0.5881611359,
				"y": 1.3585101057,
				"z": -0.3420694172,
				"element": "H" 
			},
			{
				"x": -4.9222508309,
				"y": -1.3621894384,
				"z": -0.240375226,
				"element": "H" 
			},
			{
				"x": -4.5745358971,
				"y": 0.9068201603,
				"z": -1.200320728,
				"element": "H" 
			},
			{
				"x": -2.3208675553,
				"y": 1.9557967497,
				"z": -1.2128410743,
				"element": "H" 
			}
		],
		 "valence_orbital": [ 
			{
				"type": "occ",
				"energy": -0.32643,
				"method": "rhf"
			},
			{
				"type": "occ",
				"energy": -0.31023,
				"method": "rhf"
			},
			{
				"type": "occ",
				"energy": -0.28509,
				"method": "rhf"
			},
			{
				"type": "occ",
				"energy": -0.26315,
				"method": "rhf"
			},
			{
				"type": "occ",
				"energy": -0.24605,
				"method": "rhf"
			},
			{
				"type": "unocc",
				"energy": -0.06973,
				"method": "rhf"
			},
			{
				"type": "unocc",
				"energy": -0.01345,
				"method": "rhf"
			},
			{
				"type": "unocc",
				"energy": 0.00615,
				"method": "rhf"
			},
			{
				"type": "unocc",
				"energy": 0.05914,
				"method": "rhf"
			},
			{
				"type": "unocc",
				"energy": 0.08636,
				"method": "rhf"
			}
		],
		"cosmo_sigma_profile": { 
			"-0.025": 0.0,
			"-0.024": 0.0,
			"-0.023": 0.0,
			"-0.022": 0.0,
			"-0.021": 0.0,
			"-0.02": 0.0,
			"-0.019": 0.0,
			"-0.018": 0.00664499200178,
			"-0.017": 0.456213187709,
			"-0.016": 1.08518578777,
			"-0.015": 0.399913447153,
			"-0.014": 0.244454415366,
			"-0.013": 0.521023991995,
			"-0.012": 1.20355638533,
			"-0.011": 1.14805685707,
			"-0.01": 1.30248993006,
			"-0.009": 2.51237756958,
			"-0.008": 3.58514176767,
			"-0.007": 8.35281657586,
			"-0.006": 10.0553148721,
			"-0.005": 10.4936032424,
			"-0.004": 8.25810217657,
			"-0.003": 9.9981976773,
			"-0.002": 11.6609852132,
			"-0.001": 15.3500739981,
			"0.0": 18.1183421316,
			"0.001": 18.8617734571,
			"0.002": 14.7428005387,
			"0.003": 16.749165176,
			"0.004": 11.3343567629,
			"0.005": 1.80897596321,
			"0.006": 2.44458814495,
			"0.007": 2.55795920397,
			"0.008": 3.38215668366,
			"0.009": 3.86458465717,
			"0.01": 4.94092362604,
			"0.011": 5.22690482468,
			"0.012": 3.59728753479,
			"0.013": 0.552197940932,
			"0.014": 0.0,
			"0.015": 0.0,
			"0.016": 0.0,
			"0.017": 0.0,
			"0.018": 0.0,
			"0.019": 0.0,
			"0.02": 0.0,
			"0.021": 0.0,
			"0.022": 0.0,
			"0.023": 0.0,
			"0.024": 0.0,
			"0.025": 0.0
		}
	}
}
