{
	 "smiles": "C1CNC(C1)C1=NN=C2CCCCCN12", 
	 "Tm": 365.15, 
	 "num_atms": 33, 
	 "gaussian": { 
		 "optdone": 1, 
		 "sigma_profile": "yes", 
		 "theory": "DFT", 
		 "functional": "B3LYP", 
		 "basiset": "6-31G**", 
		 "properties": { 
			 "R2extent": 3713.389, 
			 "electric_dipole_moment_norm": 5.49301113871, 
			 "electric_quadrupole_moment_norm": 10.4067377866, 
			 "total_energy": -649.01034604, 
			 "HOMO_LUMO_gap": 0.25372, 
			 "cosmo_polarized_energy": -16.67, 
			 "cosmo_cavitation_energy": 32.23, 
			 "cosmo_dispersion_energy": -23.75, 
			 "cosmo_repulsion_energy": 1.87, 
			 "cosmo_total_nonelectrostatic_energy": 10.35, 
			 "SMD_solvation_energy": 0.89 
		},
		"coords": [
			{
				"x": 4.0759257793,
				"y": -0.8433509388,
				"z": -0.0269602268,
				"element": "C" 
			},
			{
				"x": 3.8674273302,
				"y": -0.1561421048,
				"z": -1.3852818195,
				"element": "C" 
			},
			{
				"x": 2.4537578943,
				"y": 0.2252479232,
				"z": -1.3264814086,
				"element": "N" 
			},
			{
				"x": 1.7368098477,
				"y": -0.9584673162,
				"z": -0.8148158776,
				"element": "C" 
			},
			{
				"x": 2.7235615555,
				"y": -1.5519779175,
				"z": 0.2424342618,
				"element": "C" 
			},
			{
				"x": 0.3570784778,
				"y": -0.6327802154,
				"z": -0.3289152779,
				"element": "C" 
			},
			{
				"x": -0.7100986864,
				"y": -1.2970208548,
				"z": -0.713327015,
				"element": "N" 
			},
			{
				"x": -1.7986939977,
				"y": -0.7442302009,
				"z": -0.0785237025,
				"element": "N" 
			},
			{
				"x": -1.3652506845,
				"y": 0.2489135326,
				"z": 0.6671620159,
				"element": "C" 
			},
			{
				"x": -2.2562463734,
				"y": 1.1319204401,
				"z": 1.4812588979,
				"element": "C" 
			},
			{
				"x": -1.9638706959,
				"y": 1.1397707095,
				"z": 2.9961510336,
				"element": "C" 
			},
			{
				"x": -0.4703464751,
				"y": 1.3140836463,
				"z": 3.3564248928,
				"element": "C" 
			},
			{
				"x": 0.3217748654,
				"y": 2.1518088497,
				"z": 2.3354409514,
				"element": "C" 
			},
			{
				"x": 0.9243206386,
				"y": 1.3288402805,
				"z": 1.1879929557,
				"element": "C" 
			},
			{
				"x": 0.0045322392,
				"y": 0.3684199791,
				"z": 0.5543891612,
				"element": "N" 
			},
			{
				"x": 4.2726721145,
				"y": -0.0885558112,
				"z": 0.7406854448,
				"element": "H" 
			},
			{
				"x": 4.9228259234,
				"y": -1.5346617814,
				"z": -0.0367111073,
				"element": "H" 
			},
			{
				"x": 4.0887560466,
				"y": -0.8658516989,
				"z": -2.203159806,
				"element": "H" 
			},
			{
				"x": 4.5028782914,
				"y": 0.7244756911,
				"z": -1.5253955395,
				"element": "H" 
			},
			{
				"x": 2.0901288287,
				"y": 0.5060161542,
				"z": -2.2334837582,
				"element": "H" 
			},
			{
				"x": 1.5767214424,
				"y": -1.7177805157,
				"z": -1.5956171661,
				"element": "H" 
			},
			{
				"x": 2.3743291044,
				"y": -1.3836879978,
				"z": 1.2645694722,
				"element": "H" 
			},
			{
				"x": 2.7923130889,
				"y": -2.6344654674,
				"z": 0.1091056569,
				"element": "H" 
			},
			{
				"x": -2.2055797653,
				"y": 2.1566566067,
				"z": 1.0920851241,
				"element": "H" 
			},
			{
				"x": -3.2760218079,
				"y": 0.7838905203,
				"z": 1.2983123387,
				"element": "H" 
			},
			{
				"x": -2.5473287489,
				"y": 1.9544514535,
				"z": 3.4415293814,
				"element": "H" 
			},
			{
				"x": -2.3369306407,
				"y": 0.211921418,
				"z": 3.4430514712,
				"element": "H" 
			},
			{
				"x": -0.3962486083,
				"y": 1.7735320623,
				"z": 4.3480376073,
				"element": "H" 
			},
			{
				"x": 0.0063961963,
				"y": 0.3298486729,
				"z": 3.446094223,
				"element": "H" 
			},
			{
				"x": 1.1717760416,
				"y": 2.6376290497,
				"z": 2.8279585,
				"element": "H" 
			},
			{
				"x": -0.2980716865,
				"y": 2.9664119415,
				"z": 1.944597087,
				"element": "H" 
			},
			{
				"x": 1.3390857161,
				"y": 1.9764622452,
				"z": 0.4112787293,
				"element": "H" 
			},
			{
				"x": 1.7634167482,
				"y": 0.7496716447,
				"z": 1.5843134987,
				"element": "H" 
			}
		],
		 "valence_orbital": [ 
			{
				"type": "occ",
				"energy": -0.28388,
				"method": "rhf"
			},
			{
				"type": "occ",
				"energy": -0.26768,
				"method": "rhf"
			},
			{
				"type": "occ",
				"energy": -0.23557,
				"method": "rhf"
			},
			{
				"type": "occ",
				"energy": -0.23181,
				"method": "rhf"
			},
			{
				"type": "occ",
				"energy": -0.22847,
				"method": "rhf"
			},
			{
				"type": "unocc",
				"energy": 0.02525,
				"method": "rhf"
			},
			{
				"type": "unocc",
				"energy": 0.0571,
				"method": "rhf"
			},
			{
				"type": "unocc",
				"energy": 0.06037,
				"method": "rhf"
			},
			{
				"type": "unocc",
				"energy": 0.07974,
				"method": "rhf"
			},
			{
				"type": "unocc",
				"energy": 0.09328,
				"method": "rhf"
			}
		],
		"cosmo_sigma_profile": { 
			"-0.025": 0.0,
			"-0.024": 0.0,
			"-0.023": 0.0,
			"-0.022": 0.0,
			"-0.021": 0.0,
			"-0.02": 0.0,
			"-0.019": 0.0,
			"-0.018": 0.0,
			"-0.017": 0.0,
			"-0.016": 0.0,
			"-0.015": 0.0,
			"-0.014": 0.0,
			"-0.013": 0.0,
			"-0.012": 0.0,
			"-0.011": 0.362073381353,
			"-0.01": 1.25896422564,
			"-0.009": 1.40468243517,
			"-0.008": 1.07283205374,
			"-0.007": 1.37863544396,
			"-0.006": 3.65158895915,
			"-0.005": 10.7117058138,
			"-0.004": 22.5141311824,
			"-0.003": 41.5975253012,
			"-0.002": 45.0448252741,
			"-0.001": 35.4361930675,
			"0.0": 26.4432539764,
			"0.001": 12.0238845986,
			"0.002": 3.37578040785,
			"0.003": 2.55003796334,
			"0.004": 4.35060214214,
			"0.005": 3.46773559714,
			"0.006": 2.82194159,
			"0.007": 2.49815208381,
			"0.008": 2.57645033329,
			"0.009": 2.7168846031,
			"0.01": 2.25019537832,
			"0.011": 2.37810605382,
			"0.012": 2.37309000695,
			"0.013": 2.17389960794,
			"0.014": 2.8424427516,
			"0.015": 4.39721525086,
			"0.016": 2.31363566952,
			"0.017": 2.62300451304,
			"0.018": 1.48773189863,
			"0.019": 0.179287041521,
			"0.02": 0.0,
			"0.021": 0.0,
			"0.022": 0.0,
			"0.023": 0.0,
			"0.024": 0.0,
			"0.025": 0.0
		}
	}
}
