{
	 "smiles": "CC1=CC=C(C=C1)C(N)C(O)=O", 
	 "Tm": 543.15, 
	 "num_atms": 23, 
	 "gaussian": { 
		 "optdone": 1, 
		 "sigma_profile": "yes", 
		 "theory": "DFT", 
		 "functional": "B3LYP", 
		 "basiset": "6-31G**", 
		 "properties": { 
			 "R2extent": 3106.97, 
			 "electric_dipole_moment_norm": 4.25978183831, 
			 "electric_quadrupole_moment_norm": 10.6960138631, 
			 "total_energy": -554.79233867, 
			 "HOMO_LUMO_gap": 0.22738, 
			 "cosmo_polarized_energy": -17.83, 
			 "cosmo_cavitation_energy": 26.82, 
			 "cosmo_dispersion_energy": -19.17, 
			 "cosmo_repulsion_energy": 1.55, 
			 "cosmo_total_nonelectrostatic_energy": 9.19, 
			 "SMD_solvation_energy": 4.86 
		},
		"coords": [
			{
				"x": -3.8748158263,
				"y": 4.0178915547,
				"z": 0.0171374995,
				"element": "C" 
			},
			{
				"x": -2.7626298228,
				"y": 3.0214247642,
				"z": 0.2436098546,
				"element": "C" 
			},
			{
				"x": -2.9843572661,
				"y": 1.6459345462,
				"z": 0.1066569573,
				"element": "C" 
			},
			{
				"x": -1.9490480802,
				"y": 0.7274650783,
				"z": 0.2821580798,
				"element": "C" 
			},
			{
				"x": -0.6575637429,
				"y": 1.1620242188,
				"z": 0.6021962361,
				"element": "C" 
			},
			{
				"x": -0.4312796247,
				"y": 2.5353392537,
				"z": 0.7467878594,
				"element": "C" 
			},
			{
				"x": -1.4677360875,
				"y": 3.448922175,
				"z": 0.569885281,
				"element": "C" 
			},
			{
				"x": 0.4697073844,
				"y": 0.1705346484,
				"z": 0.8613885524,
				"element": "C" 
			},
			{
				"x": 0.4468392712,
				"y": -0.2257538163,
				"z": 2.266847899,
				"element": "N" 
			},
			{
				"x": 0.4182716358,
				"y": -0.9829813747,
				"z": -0.169528765,
				"element": "C" 
			},
			{
				"x": -0.1214522431,
				"y": -2.1422172626,
				"z": 0.2855640667,
				"element": "O" 
			},
			{
				"x": 0.8099431493,
				"y": -0.8726803955,
				"z": -1.3035534871,
				"element": "O" 
			},
			{
				"x": -3.7815848576,
				"y": 4.880790167,
				"z": 0.6838590234,
				"element": "H" 
			},
			{
				"x": -3.8591464684,
				"y": 4.3998585559,
				"z": -1.0112674841,
				"element": "H" 
			},
			{
				"x": -4.8573201134,
				"y": 3.566054695,
				"z": 0.1817445812,
				"element": "H" 
			},
			{
				"x": -3.9786846262,
				"y": 1.2866403686,
				"z": -0.1465299955,
				"element": "H" 
			},
			{
				"x": -2.1507275618,
				"y": -0.3330616769,
				"z": 0.1539047206,
				"element": "H" 
			},
			{
				"x": 0.5632781183,
				"y": 2.8890792934,
				"z": 1.0047129841,
				"element": "H" 
			},
			{
				"x": -1.2688349394,
				"y": 4.5116303383,
				"z": 0.6853433928,
				"element": "H" 
			},
			{
				"x": 1.4216415115,
				"y": 0.6736362368,
				"z": 0.6598765895,
				"element": "H" 
			},
			{
				"x": 1.1181573627,
				"y": -0.9325811868,
				"z": 2.5410548827,
				"element": "H" 
			},
			{
				"x": -0.47373206,
				"y": -0.3753475832,
				"z": 2.6594660265,
				"element": "H" 
			},
			{
				"x": -0.2962251126,
				"y": -2.0207025985,
				"z": 1.2345852451,
				"element": "H" 
			}
		],
		 "valence_orbital": [ 
			{
				"type": "occ",
				"energy": -0.30989,
				"method": "rhf"
			},
			{
				"type": "occ",
				"energy": -0.29466,
				"method": "rhf"
			},
			{
				"type": "occ",
				"energy": -0.2561,
				"method": "rhf"
			},
			{
				"type": "occ",
				"energy": -0.2448,
				"method": "rhf"
			},
			{
				"type": "occ",
				"energy": -0.24066,
				"method": "rhf"
			},
			{
				"type": "unocc",
				"energy": -0.01328,
				"method": "rhf"
			},
			{
				"type": "unocc",
				"energy": -0.00875,
				"method": "rhf"
			},
			{
				"type": "unocc",
				"energy": 0.01655,
				"method": "rhf"
			},
			{
				"type": "unocc",
				"energy": 0.05154,
				"method": "rhf"
			},
			{
				"type": "unocc",
				"energy": 0.09533,
				"method": "rhf"
			}
		],
		"cosmo_sigma_profile": { 
			"-0.025": 0.0,
			"-0.024": 0.0,
			"-0.023": 0.0,
			"-0.022": 0.0,
			"-0.021": 0.0,
			"-0.02": 0.0,
			"-0.019": 0.0,
			"-0.018": 0.0,
			"-0.017": 0.0,
			"-0.016": 0.768633558758,
			"-0.015": 1.5260462204,
			"-0.014": 2.07102302146,
			"-0.013": 2.13898340385,
			"-0.012": 3.99768928835,
			"-0.011": 4.234779455,
			"-0.01": 3.2591044442,
			"-0.009": 2.19750563711,
			"-0.008": 2.22223460389,
			"-0.007": 2.19838573662,
			"-0.006": 8.57840502691,
			"-0.005": 12.7679540508,
			"-0.004": 17.3375233453,
			"-0.003": 15.378028239,
			"-0.002": 13.9783623956,
			"-0.001": 14.3060182144,
			"0.0": 14.4274723952,
			"0.001": 10.4912182819,
			"0.002": 7.92559589294,
			"0.003": 8.97751510326,
			"0.004": 9.03313662124,
			"0.005": 13.2481578414,
			"0.006": 7.66470826079,
			"0.007": 3.19713141831,
			"0.008": 2.94001583173,
			"0.009": 4.76403666216,
			"0.01": 5.39237896816,
			"0.011": 4.87161610969,
			"0.012": 6.84500478483,
			"0.013": 3.13927222144,
			"0.014": 0.830105227736,
			"0.015": 0.498242148641,
			"0.016": 0.178552780773,
			"0.017": 0.0,
			"0.018": 0.0,
			"0.019": 0.0,
			"0.02": 0.0,
			"0.021": 0.0,
			"0.022": 0.0,
			"0.023": 0.0,
			"0.024": 0.0,
			"0.025": 0.0
		}
	}
}
