{
	 "smiles": "CC1CCCCC1", 
	 "Tm": 147.15, 
	 "num_atms": 21, 
	 "gaussian": { 
		 "optdone": 1, 
		 "sigma_profile": "yes", 
		 "theory": "DFT", 
		 "functional": "B3LYP", 
		 "basiset": "6-31G**", 
		 "properties": { 
			 "R2extent": 964.2278, 
			 "electric_dipole_moment_norm": 0.0303277101015, 
			 "electric_quadrupole_moment_norm": 0.182898168389, 
			 "total_energy": -275.206690867, 
			 "HOMO_LUMO_gap": 0.36705, 
			 "cosmo_polarized_energy": -0.48, 
			 "cosmo_cavitation_energy": 20.54, 
			 "cosmo_dispersion_energy": -15.69, 
			 "cosmo_repulsion_energy": 1.32, 
			 "cosmo_total_nonelectrostatic_energy": 6.17, 
			 "SMD_solvation_energy": 2.76 
		},
		"coords": [
			{
				"x": -2.692089446,
				"y": 1.0804456817,
				"z": -0.3508109632,
				"element": "C" 
			},
			{
				"x": -1.244385302,
				"y": 1.0558754737,
				"z": -0.8692753666,
				"element": "C" 
			},
			{
				"x": -0.3046408785,
				"y": 1.9588628448,
				"z": -0.0384691046,
				"element": "C" 
			},
			{
				"x": 0.0223185609,
				"y": 1.3750387658,
				"z": 1.3465297236,
				"element": "C" 
			},
			{
				"x": 0.5961603703,
				"y": -0.0460010773,
				"z": 1.233234209,
				"element": "C" 
			},
			{
				"x": -0.3427987173,
				"y": -0.96713422,
				"z": 0.4386529751,
				"element": "C" 
			},
			{
				"x": -0.6685765126,
				"y": -0.3764789758,
				"z": -0.9436996527,
				"element": "C" 
			},
			{
				"x": -3.0891529931,
				"y": 2.1017469848,
				"z": -0.351758827,
				"element": "H" 
			},
			{
				"x": -2.7780174662,
				"y": 0.6975058457,
				"z": 0.6710145822,
				"element": "H" 
			},
			{
				"x": -3.3436624504,
				"y": 0.4689745949,
				"z": -0.9850561315,
				"element": "H" 
			},
			{
				"x": -1.2669251001,
				"y": 1.4560450734,
				"z": -1.8925566496,
				"element": "H" 
			},
			{
				"x": -0.7431373872,
				"y": 2.9596080044,
				"z": 0.0654279186,
				"element": "H" 
			},
			{
				"x": 0.6355747221,
				"y": 2.0888774699,
				"z": -0.5928421876,
				"element": "H" 
			},
			{
				"x": 0.7313926,
				"y": 2.0301777616,
				"z": 1.8671578103,
				"element": "H" 
			},
			{
				"x": -0.8840867645,
				"y": 1.352168444,
				"z": 1.9663399476,
				"element": "H" 
			},
			{
				"x": 0.7854266014,
				"y": -0.462013306,
				"z": 2.2303205848,
				"element": "H" 
			},
			{
				"x": 1.5701196033,
				"y": -0.0005461327,
				"z": 0.7243463859,
				"element": "H" 
			},
			{
				"x": 0.1095899137,
				"y": -1.9593380668,
				"z": 0.320599917,
				"element": "H" 
			},
			{
				"x": -1.2693232837,
				"y": -1.1198082902,
				"z": 1.0083773671,
				"element": "H" 
			},
			{
				"x": -1.3650361483,
				"y": -1.0319809872,
				"z": -1.4820451866,
				"element": "H" 
			},
			{
				"x": 0.2554500783,
				"y": -0.3513258885,
				"z": -1.5384873517,
				"element": "H" 
			}
		],
		 "valence_orbital": [ 
			{
				"type": "occ",
				"energy": -0.33102,
				"method": "rhf"
			},
			{
				"type": "occ",
				"energy": -0.328,
				"method": "rhf"
			},
			{
				"type": "occ",
				"energy": -0.30273,
				"method": "rhf"
			},
			{
				"type": "occ",
				"energy": -0.28835,
				"method": "rhf"
			},
			{
				"type": "occ",
				"energy": -0.28791,
				"method": "rhf"
			},
			{
				"type": "unocc",
				"energy": 0.07914,
				"method": "rhf"
			},
			{
				"type": "unocc",
				"energy": 0.10486,
				"method": "rhf"
			},
			{
				"type": "unocc",
				"energy": 0.12975,
				"method": "rhf"
			},
			{
				"type": "unocc",
				"energy": 0.13856,
				"method": "rhf"
			},
			{
				"type": "unocc",
				"energy": 0.14917,
				"method": "rhf"
			}
		],
		"cosmo_sigma_profile": { 
			"-0.025": 0.0,
			"-0.024": 0.0,
			"-0.023": 0.0,
			"-0.022": 0.0,
			"-0.021": 0.0,
			"-0.02": 0.0,
			"-0.019": 0.0,
			"-0.018": 0.0,
			"-0.017": 0.0,
			"-0.016": 0.0,
			"-0.015": 0.0,
			"-0.014": 0.0,
			"-0.013": 0.0,
			"-0.012": 0.0,
			"-0.011": 0.0,
			"-0.01": 0.0,
			"-0.009": 0.0,
			"-0.008": 0.0,
			"-0.007": 0.0,
			"-0.006": 0.0,
			"-0.005": 0.0,
			"-0.004": 0.0,
			"-0.003": 1.13379509154,
			"-0.002": 20.4744015245,
			"-0.001": 36.2461385352,
			"0.0": 39.0031419893,
			"0.001": 39.491101909,
			"0.002": 19.9828119265,
			"0.003": 0.54678659391,
			"0.004": 0.0,
			"0.005": 0.0,
			"0.006": 0.0,
			"0.007": 0.0,
			"0.008": 0.0,
			"0.009": 0.0,
			"0.01": 0.0,
			"0.011": 0.0,
			"0.012": 0.0,
			"0.013": 0.0,
			"0.014": 0.0,
			"0.015": 0.0,
			"0.016": 0.0,
			"0.017": 0.0,
			"0.018": 0.0,
			"0.019": 0.0,
			"0.02": 0.0,
			"0.021": 0.0,
			"0.022": 0.0,
			"0.023": 0.0,
			"0.024": 0.0,
			"0.025": 0.0
		}
	}
}
