{
	 "smiles": "O=C1NC2=CC=CC=C2C=N[C@@H]2CCCC[C@H]2N=CC2=C(NC1=O)C=CC=C2", 
	 "Tm": 497.15, 
	 "num_atms": 50, 
	 "gaussian": { 
		 "optdone": 1, 
		 "sigma_profile": "yes", 
		 "theory": "DFT", 
		 "functional": "B3LYP", 
		 "basiset": "6-31G**", 
		 "properties": { 
			 "R2extent": 10896.772, 
			 "electric_dipole_moment_norm": 0.933155431855, 
			 "electric_quadrupole_moment_norm": 11.0535509295, 
			 "total_energy": -1221.03729968, 
			 "HOMO_LUMO_gap": 0.16469, 
			 "cosmo_polarized_energy": -21.34, 
			 "cosmo_cavitation_energy": 50.1, 
			 "cosmo_dispersion_energy": -34.57, 
			 "cosmo_repulsion_energy": 2.58, 
			 "cosmo_total_nonelectrostatic_energy": 18.12, 
			 "SMD_solvation_energy": 6.0 
		},
		"coords": [
			{
				"x": 0.5537092731,
				"y": -2.0100733603,
				"z": 0.9745886886,
				"element": "O" 
			},
			{
				"x": 0.4093118842,
				"y": -0.8059704632,
				"z": 1.1461355489,
				"element": "C" 
			},
			{
				"x": -0.7461781201,
				"y": -0.3141269024,
				"z": 1.6897013304,
				"element": "N" 
			},
			{
				"x": -1.1993677612,
				"y": 0.9899164048,
				"z": 2.0514755729,
				"element": "C" 
			},
			{
				"x": -1.5421576639,
				"y": 1.1830678834,
				"z": 3.3924914533,
				"element": "C" 
			},
			{
				"x": -2.0299692796,
				"y": 2.4094290898,
				"z": 3.844388217,
				"element": "C" 
			},
			{
				"x": -2.1557568304,
				"y": 3.4716514947,
				"z": 2.9517498199,
				"element": "C" 
			},
			{
				"x": -1.8119582024,
				"y": 3.2826817123,
				"z": 1.6145536213,
				"element": "C" 
			},
			{
				"x": -1.3679616644,
				"y": 2.0444711798,
				"z": 1.1296177353,
				"element": "C" 
			},
			{
				"x": -1.1048184882,
				"y": 1.959379515,
				"z": -0.3229657289,
				"element": "C" 
			},
			{
				"x": -1.2699072149,
				"y": 0.9167095147,
				"z": -1.0346804723,
				"element": "N" 
			},
			{
				"x": -1.034165681,
				"y": 1.0599063443,
				"z": -2.4651024335,
				"element": "C" 
			},
			{
				"x": -2.3962890109,
				"y": 1.209915939,
				"z": -3.1918012611,
				"element": "C" 
			},
			{
				"x": -2.3343053121,
				"y": 0.7989601022,
				"z": -4.682143286,
				"element": "C" 
			},
			{
				"x": -0.9247621192,
				"y": 1.0000916127,
				"z": -5.2553378634,
				"element": "C" 
			},
			{
				"x": 0.1138873943,
				"y": 0.1338391256,
				"z": -4.5039879023,
				"element": "C" 
			},
			{
				"x": -0.2914633754,
				"y": -0.1607840134,
				"z": -3.0360027084,
				"element": "C" 
			},
			{
				"x": 0.9051470762,
				"y": -0.4632336917,
				"z": -2.262222326,
				"element": "N" 
			},
			{
				"x": 1.1464664296,
				"y": -1.6939739345,
				"z": -2.0430650551,
				"element": "C" 
			},
			{
				"x": 2.3453012281,
				"y": -2.2119766582,
				"z": -1.3496579414,
				"element": "C" 
			},
			{
				"x": 3.0341565835,
				"y": -1.5521471595,
				"z": -0.3101624293,
				"element": "C" 
			},
			{
				"x": 2.6521652869,
				"y": -0.2793964079,
				"z": 0.2105349366,
				"element": "N" 
			},
			{
				"x": 1.5392963966,
				"y": 0.1939838808,
				"z": 0.8507251441,
				"element": "C" 
			},
			{
				"x": 1.4885230674,
				"y": 1.3557315413,
				"z": 1.235257444,
				"element": "O" 
			},
			{
				"x": 4.193638768,
				"y": -2.1229883612,
				"z": 0.2215785546,
				"element": "C" 
			},
			{
				"x": 4.6742656996,
				"y": -3.3478706257,
				"z": -0.2419361372,
				"element": "C" 
			},
			{
				"x": 3.9754444566,
				"y": -4.0305018034,
				"z": -1.2352099032,
				"element": "C" 
			},
			{
				"x": 2.8174010159,
				"y": -3.4648880286,
				"z": -1.7653374025,
				"element": "C" 
			},
			{
				"x": -1.3817502678,
				"y": -1.074475751,
				"z": 1.9004740955,
				"element": "H" 
			},
			{
				"x": -1.4006418962,
				"y": 0.3604503274,
				"z": 4.0875462208,
				"element": "H" 
			},
			{
				"x": -2.2883563572,
				"y": 2.5343288866,
				"z": 4.8916948281,
				"element": "H" 
			},
			{
				"x": -2.5142404426,
				"y": 4.4386941361,
				"z": 3.2909481927,
				"element": "H" 
			},
			{
				"x": -1.9082937452,
				"y": 4.1076015155,
				"z": 0.9129499173,
				"element": "H" 
			},
			{
				"x": -0.7892966332,
				"y": 2.9159420147,
				"z": -0.7734353884,
				"element": "H" 
			},
			{
				"x": -0.4154795129,
				"y": 1.9517901789,
				"z": -2.6642010009,
				"element": "H" 
			},
			{
				"x": -3.1332563311,
				"y": 0.599083003,
				"z": -2.6589273214,
				"element": "H" 
			},
			{
				"x": -2.7238810345,
				"y": 2.2513054245,
				"z": -3.0916180194,
				"element": "H" 
			},
			{
				"x": -2.6151531475,
				"y": -0.2562554721,
				"z": -4.7901264589,
				"element": "H" 
			},
			{
				"x": -3.0705107646,
				"y": 1.3700239443,
				"z": -5.2585484239,
				"element": "H" 
			},
			{
				"x": -0.6552579247,
				"y": 2.0605893223,
				"z": -5.1733293717,
				"element": "H" 
			},
			{
				"x": -0.9055758252,
				"y": 0.7633526184,
				"z": -6.3248917887,
				"element": "H" 
			},
			{
				"x": 0.2610328772,
				"y": -0.8240477927,
				"z": -5.0164741065,
				"element": "H" 
			},
			{
				"x": 1.0887398648,
				"y": 0.6335547505,
				"z": -4.4920959916,
				"element": "H" 
			},
			{
				"x": -0.9878635776,
				"y": -1.0166335943,
				"z": -3.0156091868,
				"element": "H" 
			},
			{
				"x": 0.4726632264,
				"y": -2.4846063397,
				"z": -2.4150903714,
				"element": "H" 
			},
			{
				"x": 3.3473861409,
				"y": 0.453667076,
				"z": 0.1344542568,
				"element": "H" 
			},
			{
				"x": 4.7069858515,
				"y": -1.6017469532,
				"z": 1.0244414331,
				"element": "H" 
			},
			{
				"x": 5.5771119481,
				"y": -3.7708057698,
				"z": 0.1884254607,
				"element": "H" 
			},
			{
				"x": 4.3241860666,
				"y": -4.9944747415,
				"z": -1.5928065694,
				"element": "H" 
			},
			{
				"x": 2.2678976483,
				"y": -3.9924407143,
				"z": -2.5410656228,
				"element": "H" 
			}
		],
		 "valence_orbital": [ 
			{
				"type": "occ",
				"energy": -0.24599,
				"method": "rhf"
			},
			{
				"type": "occ",
				"energy": -0.24434,
				"method": "rhf"
			},
			{
				"type": "occ",
				"energy": -0.23839,
				"method": "rhf"
			},
			{
				"type": "occ",
				"energy": -0.22776,
				"method": "rhf"
			},
			{
				"type": "occ",
				"energy": -0.21643,
				"method": "rhf"
			},
			{
				"type": "unocc",
				"energy": -0.05174,
				"method": "rhf"
			},
			{
				"type": "unocc",
				"energy": -0.03234,
				"method": "rhf"
			},
			{
				"type": "unocc",
				"energy": -0.02276,
				"method": "rhf"
			},
			{
				"type": "unocc",
				"energy": -0.00686,
				"method": "rhf"
			},
			{
				"type": "unocc",
				"energy": 0.00078,
				"method": "rhf"
			}
		],
		"cosmo_sigma_profile": { 
			"-0.025": 0.0,
			"-0.024": 0.0,
			"-0.023": 0.0,
			"-0.022": 0.0,
			"-0.021": 0.0,
			"-0.02": 0.0,
			"-0.019": 0.0,
			"-0.018": 0.0,
			"-0.017": 0.0,
			"-0.016": 0.0,
			"-0.015": 0.680678123186,
			"-0.014": 1.74689050007,
			"-0.013": 2.21266082774,
			"-0.012": 1.63525943467,
			"-0.011": 1.84164047239,
			"-0.01": 2.19460490318,
			"-0.009": 1.88383180724,
			"-0.008": 1.97946781616,
			"-0.007": 7.92490646236,
			"-0.006": 22.7729679709,
			"-0.005": 24.1116375985,
			"-0.004": 25.4643000941,
			"-0.003": 32.9344343067,
			"-0.002": 44.7934636344,
			"-0.001": 35.802683958,
			"0.0": 31.059676984,
			"0.001": 29.8671686268,
			"0.002": 16.2999399411,
			"0.003": 20.9741688844,
			"0.004": 21.2530203172,
			"0.005": 12.4329006194,
			"0.006": 8.67920610593,
			"0.007": 7.28022118027,
			"0.008": 6.03928391048,
			"0.009": 6.17006227492,
			"0.01": 6.27264622684,
			"0.011": 5.49670090571,
			"0.012": 8.29422455604,
			"0.013": 5.44853877715,
			"0.014": 1.12758560299,
			"0.015": 0.65298686786,
			"0.016": 0.00837694136802,
			"0.017": 0.0,
			"0.018": 0.0,
			"0.019": 0.0,
			"0.02": 0.0,
			"0.021": 0.0,
			"0.022": 0.0,
			"0.023": 0.0,
			"0.024": 0.0,
			"0.025": 0.0
		}
	}
}
