{
	 "smiles": "CNS(=O)(=O)C1=CC=C(C=C1)S(Cl)(=O)=O", 
	 "Tm": 373.15, 
	 "num_atms": 23, 
	 "gaussian": { 
		 "optdone": 1, 
		 "sigma_profile": "yes", 
		 "theory": "DFT", 
		 "functional": "B3LYP", 
		 "basiset": "6-31G**", 
		 "properties": { 
			 "R2extent": 6635.4799, 
			 "electric_dipole_moment_norm": 4.79686605713, 
			 "electric_quadrupole_moment_norm": 19.7177328709, 
			 "total_energy": -1883.63415815, 
			 "HOMO_LUMO_gap": 0.18093, 
			 "cosmo_polarized_energy": -17.38, 
			 "cosmo_cavitation_energy": 32.61, 
			 "cosmo_dispersion_energy": -24.27, 
			 "cosmo_repulsion_energy": 1.83, 
			 "cosmo_total_nonelectrostatic_energy": 10.17, 
			 "SMD_solvation_energy": 3.31 
		},
		"coords": [
			{
				"x": -2.3915158238,
				"y": 0.1783855119,
				"z": 1.5428226517,
				"element": "C" 
			},
			{
				"x": -1.8973078153,
				"y": 1.3797481448,
				"z": 0.8563468675,
				"element": "N" 
			},
			{
				"x": -1.7980557179,
				"y": 1.3382085498,
				"z": -0.8261572616,
				"element": "S" 
			},
			{
				"x": -2.7222855658,
				"y": 0.3459187419,
				"z": -1.384164066,
				"element": "O" 
			},
			{
				"x": -1.822142094,
				"y": 2.741486769,
				"z": -1.2444655461,
				"element": "O" 
			},
			{
				"x": -0.1324667432,
				"y": 0.6982234991,
				"z": -1.0821132834,
				"element": "C" 
			},
			{
				"x": 0.9588167278,
				"y": 1.5364395371,
				"z": -0.8369950745,
				"element": "C" 
			},
			{
				"x": 2.2469253719,
				"y": 1.0515562635,
				"z": -1.0432201831,
				"element": "C" 
			},
			{
				"x": 2.3989444449,
				"y": -0.2621383877,
				"z": -1.493554295,
				"element": "C" 
			},
			{
				"x": 1.3171562594,
				"y": -1.100607577,
				"z": -1.7562114885,
				"element": "C" 
			},
			{
				"x": 0.0286546586,
				"y": -0.6065818562,
				"z": -1.5477946012,
				"element": "C" 
			},
			{
				"x": 4.0555852747,
				"y": -0.8858991291,
				"z": -1.7751077187,
				"element": "S" 
			},
			{
				"x": 4.5125639722,
				"y": -1.6907006768,
				"z": 0.1446186053,
				"element": "Cl" 
			},
			{
				"x": 4.962382861,
				"y": 0.2363169101,
				"z": -1.9753544545,
				"element": "O" 
			},
			{
				"x": 3.9928064682,
				"y": -2.0177289901,
				"z": -2.6898477341,
				"element": "O" 
			},
			{
				"x": -3.3913938463,
				"y": -0.1280216952,
				"z": 1.2185263598,
				"element": "H" 
			},
			{
				"x": -2.4005174167,
				"y": 0.3905820834,
				"z": 2.6141649512,
				"element": "H" 
			},
			{
				"x": -1.6960977626,
				"y": -0.6472249168,
				"z": 1.3716756022,
				"element": "H" 
			},
			{
				"x": -2.3829322413,
				"y": 2.2388194959,
				"z": 1.1040844423,
				"element": "H" 
			},
			{
				"x": 0.7981842652,
				"y": 2.5553074483,
				"z": -0.5027695694,
				"element": "H" 
			},
			{
				"x": 3.1163726484,
				"y": 1.6762689579,
				"z": -0.8731222462,
				"element": "H" 
			},
			{
				"x": 1.4797741334,
				"y": -2.1067097143,
				"z": -2.1256744058,
				"element": "H" 
			},
			{
				"x": -0.8448520587,
				"y": -1.2136489697,
				"z": -1.7571875519,
				"element": "H" 
			}
		],
		 "valence_orbital": [ 
			{
				"type": "occ",
				"energy": -0.32297,
				"method": "rhf"
			},
			{
				"type": "occ",
				"energy": -0.32069,
				"method": "rhf"
			},
			{
				"type": "occ",
				"energy": -0.31387,
				"method": "rhf"
			},
			{
				"type": "occ",
				"energy": -0.30436,
				"method": "rhf"
			},
			{
				"type": "occ",
				"energy": -0.28514,
				"method": "rhf"
			},
			{
				"type": "unocc",
				"energy": -0.10421,
				"method": "rhf"
			},
			{
				"type": "unocc",
				"energy": -0.06673,
				"method": "rhf"
			},
			{
				"type": "unocc",
				"energy": -0.05388,
				"method": "rhf"
			},
			{
				"type": "unocc",
				"energy": 0.02889,
				"method": "rhf"
			},
			{
				"type": "unocc",
				"energy": 0.04579,
				"method": "rhf"
			}
		],
		"cosmo_sigma_profile": { 
			"-0.025": 0.0,
			"-0.024": 0.0,
			"-0.023": 0.0,
			"-0.022": 0.0,
			"-0.021": 0.0,
			"-0.02": 0.0,
			"-0.019": 0.0,
			"-0.018": 0.0,
			"-0.017": 0.0,
			"-0.016": 0.0,
			"-0.015": 0.834242955503,
			"-0.014": 1.17505314624,
			"-0.013": 1.0434980266,
			"-0.012": 0.985849500559,
			"-0.011": 1.27136681723,
			"-0.01": 1.41300385797,
			"-0.009": 6.88754331728,
			"-0.008": 8.40941834614,
			"-0.007": 9.31711758089,
			"-0.006": 11.461008603,
			"-0.005": 14.9424236283,
			"-0.004": 15.6649153104,
			"-0.003": 17.4679309988,
			"-0.002": 23.0760921856,
			"-0.001": 23.8027082879,
			"0.0": 15.272630156,
			"0.001": 10.7823458006,
			"0.002": 13.4214435219,
			"0.003": 17.898369165,
			"0.004": 9.24539864876,
			"0.005": 6.16624003625,
			"0.006": 7.09607683539,
			"0.007": 10.9422300954,
			"0.008": 12.3510180576,
			"0.009": 6.74208175429,
			"0.01": 8.73403543892,
			"0.011": 6.72360044574,
			"0.012": 0.608315603613,
			"0.013": 0.0,
			"0.014": 0.0,
			"0.015": 0.0,
			"0.016": 0.0,
			"0.017": 0.0,
			"0.018": 0.0,
			"0.019": 0.0,
			"0.02": 0.0,
			"0.021": 0.0,
			"0.022": 0.0,
			"0.023": 0.0,
			"0.024": 0.0,
			"0.025": 0.0
		}
	}
}
