{
	 "smiles": "CC(C)(C)NCCC(N)=O", 
	 "Tm": 369.15, 
	 "num_atms": 26, 
	 "gaussian": { 
		 "optdone": 1, 
		 "sigma_profile": "yes", 
		 "theory": "DFT", 
		 "functional": "B3LYP", 
		 "basiset": "6-31G**", 
		 "properties": { 
			 "R2extent": 2627.0425, 
			 "electric_dipole_moment_norm": 5.01689954952, 
			 "electric_quadrupole_moment_norm": 21.2792854253, 
			 "total_energy": -461.145612556, 
			 "HOMO_LUMO_gap": 0.27139, 
			 "cosmo_polarized_energy": -12.44, 
			 "cosmo_cavitation_energy": 27.2, 
			 "cosmo_dispersion_energy": -19.07, 
			 "cosmo_repulsion_energy": 1.56, 
			 "cosmo_total_nonelectrostatic_energy": 9.69, 
			 "SMD_solvation_energy": 5.46 
		},
		"coords": [
			{
				"x": -1.3602482276,
				"y": 1.2107096082,
				"z": -0.9546573709,
				"element": "C" 
			},
			{
				"x": -1.1916232761,
				"y": 1.0071770485,
				"z": 0.5666346169,
				"element": "C" 
			},
			{
				"x": -1.0489862918,
				"y": 2.3693093917,
				"z": 1.2671772829,
				"element": "C" 
			},
			{
				"x": -2.4255505911,
				"y": 0.2771378329,
				"z": 1.1237422724,
				"element": "C" 
			},
			{
				"x": -0.0223043576,
				"y": 0.1533510855,
				"z": 0.9052462937,
				"element": "N" 
			},
			{
				"x": 1.3045857524,
				"y": 0.5718857638,
				"z": 0.4278447479,
				"element": "C" 
			},
			{
				"x": 2.4022350714,
				"y": -0.3983110163,
				"z": 0.8933326135,
				"element": "C" 
			},
			{
				"x": 2.7149575338,
				"y": -0.4282498341,
				"z": 2.395879423,
				"element": "C" 
			},
			{
				"x": 1.6357883978,
				"y": -0.2703691856,
				"z": 3.2094323399,
				"element": "N" 
			},
			{
				"x": 3.8544238213,
				"y": -0.6094869158,
				"z": 2.8067016995,
				"element": "O" 
			},
			{
				"x": -2.2622905942,
				"y": 1.7927966872,
				"z": -1.1707835282,
				"element": "H" 
			},
			{
				"x": -0.511860448,
				"y": 1.7475073236,
				"z": -1.3899206278,
				"element": "H" 
			},
			{
				"x": -1.4537038694,
				"y": 0.2477711308,
				"z": -1.4704420126,
				"element": "H" 
			},
			{
				"x": -1.9606387424,
				"y": 2.9595388936,
				"z": 1.1319111793,
				"element": "H" 
			},
			{
				"x": -0.2186323394,
				"y": 2.955648892,
				"z": 0.8624276378,
				"element": "H" 
			},
			{
				"x": -0.8816227061,
				"y": 2.2352864827,
				"z": 2.3403031682,
				"element": "H" 
			},
			{
				"x": -3.3371654482,
				"y": 0.8514501037,
				"z": 0.9328583453,
				"element": "H" 
			},
			{
				"x": -2.3304285357,
				"y": 0.1254212349,
				"z": 2.2031703259,
				"element": "H" 
			},
			{
				"x": -2.5482193591,
				"y": -0.7054563715,
				"z": 0.6521292392,
				"element": "H" 
			},
			{
				"x": -0.2052766787,
				"y": -0.7835324101,
				"z": 0.5469389503,
				"element": "H" 
			},
			{
				"x": 1.5170433555,
				"y": 1.5689655588,
				"z": 0.8267760976,
				"element": "H" 
			},
			{
				"x": 1.3588360373,
				"y": 0.6516816298,
				"z": -0.6696147831,
				"element": "H" 
			},
			{
				"x": 2.1455689881,
				"y": -1.4216718071,
				"z": 0.5827404993,
				"element": "H" 
			},
			{
				"x": 3.3437600376,
				"y": -0.1542924434,
				"z": 0.3952562789,
				"element": "H" 
			},
			{
				"x": 1.7858995112,
				"y": -0.2901670367,
				"z": 4.2065015796,
				"element": "H" 
			},
			{
				"x": 0.7176529591,
				"y": -0.1183016473,
				"z": 2.7976137314,
				"element": "H" 
			}
		],
		 "valence_orbital": [ 
			{
				"type": "occ",
				"energy": -0.3414,
				"method": "rhf"
			},
			{
				"type": "occ",
				"energy": -0.33346,
				"method": "rhf"
			},
			{
				"type": "occ",
				"energy": -0.24563,
				"method": "rhf"
			},
			{
				"type": "occ",
				"energy": -0.24117,
				"method": "rhf"
			},
			{
				"type": "occ",
				"energy": -0.22765,
				"method": "rhf"
			},
			{
				"type": "unocc",
				"energy": 0.04374,
				"method": "rhf"
			},
			{
				"type": "unocc",
				"energy": 0.06218,
				"method": "rhf"
			},
			{
				"type": "unocc",
				"energy": 0.10082,
				"method": "rhf"
			},
			{
				"type": "unocc",
				"energy": 0.10615,
				"method": "rhf"
			},
			{
				"type": "unocc",
				"energy": 0.11393,
				"method": "rhf"
			}
		],
		"cosmo_sigma_profile": { 
			"-0.025": 0.0,
			"-0.024": 0.0,
			"-0.023": 0.0,
			"-0.022": 0.0,
			"-0.021": 0.0,
			"-0.02": 0.0,
			"-0.019": 0.0,
			"-0.018": 0.0,
			"-0.017": 0.0,
			"-0.016": 0.0,
			"-0.015": 0.0,
			"-0.014": 0.0,
			"-0.013": 0.401595813375,
			"-0.012": 1.66603416293,
			"-0.011": 0.142235179377,
			"-0.01": 1.55062824176,
			"-0.009": 2.75002410724,
			"-0.008": 2.93865419671,
			"-0.007": 2.82997899473,
			"-0.006": 5.1150263177,
			"-0.005": 4.82308916027,
			"-0.004": 11.1853162109,
			"-0.003": 26.2784194355,
			"-0.002": 31.3378534493,
			"-0.001": 25.2113296975,
			"0.0": 20.7332551988,
			"0.001": 25.5277448841,
			"0.002": 12.6978940556,
			"0.003": 3.9725175733,
			"0.004": 3.77999497994,
			"0.005": 3.09071826762,
			"0.006": 2.33877787254,
			"0.007": 1.22904436978,
			"0.008": 1.20171033177,
			"0.009": 1.72205080229,
			"0.01": 1.2824344358,
			"0.011": 0.847363579602,
			"0.012": 1.39516217094,
			"0.013": 2.10303680893,
			"0.014": 4.71929438179,
			"0.015": 5.35517882944,
			"0.016": 1.3516507785,
			"0.017": 0.0,
			"0.018": 0.0,
			"0.019": 0.0,
			"0.02": 0.0,
			"0.021": 0.0,
			"0.022": 0.0,
			"0.023": 0.0,
			"0.024": 0.0,
			"0.025": 0.0
		}
	}
}
