{
	 "smiles": "S=C=NCC(C1=CC=CC=C1)C1=CC=CC=C1", 
	 "Tm": 310.15, 
	 "num_atms": 30, 
	 "gaussian": { 
		 "optdone": 1, 
		 "sigma_profile": "yes", 
		 "theory": "DFT", 
		 "functional": "B3LYP", 
		 "basiset": "6-31G**", 
		 "properties": { 
			 "R2extent": 5092.7403, 
			 "electric_dipole_moment_norm": 3.49579843526, 
			 "electric_quadrupole_moment_norm": 16.2987998865, 
			 "total_energy": -1032.36404238, 
			 "HOMO_LUMO_gap": 0.225, 
			 "cosmo_polarized_energy": -9.73, 
			 "cosmo_cavitation_energy": 36.15, 
			 "cosmo_dispersion_energy": -24.71, 
			 "cosmo_repulsion_energy": 1.91, 
			 "cosmo_total_nonelectrostatic_energy": 13.36, 
			 "SMD_solvation_energy": 5.62 
		},
		"coords": [
			{
				"x": 1.2938701128,
				"y": 4.2455746272,
				"z": 1.5613741402,
				"element": "S" 
			},
			{
				"x": 1.8899833527,
				"y": 2.8316985836,
				"z": 1.1332974556,
				"element": "C" 
			},
			{
				"x": 2.3618889045,
				"y": 1.7599880491,
				"z": 0.9050446024,
				"element": "N" 
			},
			{
				"x": 2.7687706254,
				"y": 0.7273470184,
				"z": -0.0006186436,
				"element": "C" 
			},
			{
				"x": 1.6807369159,
				"y": -0.3395091865,
				"z": -0.2957748358,
				"element": "C" 
			},
			{
				"x": 1.3750009249,
				"y": -1.2848518063,
				"z": 0.8649036246,
				"element": "C" 
			},
			{
				"x": 0.6836655057,
				"y": -2.4741205966,
				"z": 0.5813559257,
				"element": "C" 
			},
			{
				"x": 0.3862402587,
				"y": -3.3911277373,
				"z": 1.5861493705,
				"element": "C" 
			},
			{
				"x": 0.7744660079,
				"y": -3.1363060182,
				"z": 2.9044515009,
				"element": "C" 
			},
			{
				"x": 1.4588632606,
				"y": -1.959471821,
				"z": 3.2003500305,
				"element": "C" 
			},
			{
				"x": 1.7574764504,
				"y": -1.040142433,
				"z": 2.1892865217,
				"element": "C" 
			},
			{
				"x": 0.4364636165,
				"y": 0.2961371338,
				"z": -0.911298713,
				"element": "C" 
			},
			{
				"x": -0.6113291138,
				"y": 0.7793370664,
				"z": -0.1160248332,
				"element": "C" 
			},
			{
				"x": -1.7163801442,
				"y": 1.4008816071,
				"z": -0.6985894109,
				"element": "C" 
			},
			{
				"x": -1.794900607,
				"y": 1.5433324683,
				"z": -2.085151249,
				"element": "C" 
			},
			{
				"x": -0.7603001443,
				"y": 1.0598803641,
				"z": -2.8874263843,
				"element": "C" 
			},
			{
				"x": 0.3456611431,
				"y": 0.4420331934,
				"z": -2.3021528352,
				"element": "C" 
			},
			{
				"x": 3.0634580908,
				"y": 1.1938794109,
				"z": -0.9476269167,
				"element": "H" 
			},
			{
				"x": 3.6508200838,
				"y": 0.2324704749,
				"z": 0.4193695044,
				"element": "H" 
			},
			{
				"x": 2.1422661375,
				"y": -0.9537967719,
				"z": -1.081421424,
				"element": "H" 
			},
			{
				"x": 0.3739762982,
				"y": -2.6773473093,
				"z": -0.4409098906,
				"element": "H" 
			},
			{
				"x": -0.1464670943,
				"y": -4.3056840956,
				"z": 1.3411053169,
				"element": "H" 
			},
			{
				"x": 0.5442758499,
				"y": -3.8493822616,
				"z": 3.6907179889,
				"element": "H" 
			},
			{
				"x": 1.7642543899,
				"y": -1.7479804126,
				"z": 4.2212151024,
				"element": "H" 
			},
			{
				"x": 2.2835134183,
				"y": -0.1274015742,
				"z": 2.4477848936,
				"element": "H" 
			},
			{
				"x": -0.565489774,
				"y": 0.660117271,
				"z": 0.9619283133,
				"element": "H" 
			},
			{
				"x": -2.5175385786,
				"y": 1.7729535827,
				"z": -0.0666490175,
				"element": "H" 
			},
			{
				"x": -2.6576232579,
				"y": 2.0241258166,
				"z": -2.5370426983,
				"element": "H" 
			},
			{
				"x": -0.8146501688,
				"y": 1.1588706979,
				"z": -3.9679079172,
				"element": "H" 
			},
			{
				"x": 1.1469275354,
				"y": 0.0643946588,
				"z": -2.9341395223,
				"element": "H" 
			}
		],
		 "valence_orbital": [ 
			{
				"type": "occ",
				"energy": -0.25441,
				"method": "rhf"
			},
			{
				"type": "occ",
				"energy": -0.25203,
				"method": "rhf"
			},
			{
				"type": "occ",
				"energy": -0.24726,
				"method": "rhf"
			},
			{
				"type": "occ",
				"energy": -0.2419,
				"method": "rhf"
			},
			{
				"type": "occ",
				"energy": -0.23813,
				"method": "rhf"
			},
			{
				"type": "unocc",
				"energy": -0.01313,
				"method": "rhf"
			},
			{
				"type": "unocc",
				"energy": -0.01145,
				"method": "rhf"
			},
			{
				"type": "unocc",
				"energy": -0.00811,
				"method": "rhf"
			},
			{
				"type": "unocc",
				"energy": -0.00418,
				"method": "rhf"
			},
			{
				"type": "unocc",
				"energy": 0.00283,
				"method": "rhf"
			}
		],
		"cosmo_sigma_profile": { 
			"-0.025": 0.0,
			"-0.024": 0.0,
			"-0.023": 0.0,
			"-0.022": 0.0,
			"-0.021": 0.0,
			"-0.02": 0.0,
			"-0.019": 0.0,
			"-0.018": 0.0,
			"-0.017": 0.0,
			"-0.016": 0.0,
			"-0.015": 0.0,
			"-0.014": 0.0,
			"-0.013": 0.0,
			"-0.012": 0.0,
			"-0.011": 0.0,
			"-0.01": 0.0,
			"-0.009": 0.0,
			"-0.008": 0.194778191283,
			"-0.007": 6.8227044341,
			"-0.006": 17.1638308727,
			"-0.005": 25.6471252519,
			"-0.004": 26.1340403146,
			"-0.003": 24.9269303527,
			"-0.002": 17.9283363287,
			"-0.001": 17.2333758583,
			"0.0": 19.2631272327,
			"0.001": 22.369808042,
			"0.002": 18.3002000029,
			"0.003": 20.3610995029,
			"0.004": 22.2454854082,
			"0.005": 24.0925986892,
			"0.006": 25.9597296057,
			"0.007": 3.94798506913,
			"0.008": 0.0,
			"0.009": 0.0,
			"0.01": 0.0,
			"0.011": 0.0,
			"0.012": 0.0,
			"0.013": 0.0,
			"0.014": 0.0,
			"0.015": 0.0,
			"0.016": 0.0,
			"0.017": 0.0,
			"0.018": 0.0,
			"0.019": 0.0,
			"0.02": 0.0,
			"0.021": 0.0,
			"0.022": 0.0,
			"0.023": 0.0,
			"0.024": 0.0,
			"0.025": 0.0
		}
	}
}
