{
	 "smiles": "COC(=O)C1=C(O)C2=C(C=CC=C2)C(Cl)=N1", 
	 "Tm": 436.15, 
	 "num_atms": 24, 
	 "gaussian": { 
		 "optdone": 1, 
		 "sigma_profile": "yes", 
		 "theory": "DFT", 
		 "functional": "B3LYP", 
		 "basiset": "6-31G**", 
		 "properties": { 
			 "R2extent": 4866.5795, 
			 "electric_dipole_moment_norm": 1.60235379676, 
			 "electric_quadrupole_moment_norm": 24.5211297166, 
			 "total_energy": -1164.63348837, 
			 "HOMO_LUMO_gap": 0.1603, 
			 "cosmo_polarized_energy": -10.0, 
			 "cosmo_cavitation_energy": 30.28, 
			 "cosmo_dispersion_energy": -22.98, 
			 "cosmo_repulsion_energy": 1.77, 
			 "cosmo_total_nonelectrostatic_energy": 9.07, 
			 "SMD_solvation_energy": 5.38 
		},
		"coords": [
			{
				"x": 0.3641414085,
				"y": 5.1993562808,
				"z": -0.8261855265,
				"element": "C" 
			},
			{
				"x": 0.2242226782,
				"y": 3.8362463972,
				"z": -1.2644066312,
				"element": "O" 
			},
			{
				"x": 0.2964050466,
				"y": 2.9112505828,
				"z": -0.3103924765,
				"element": "C" 
			},
			{
				"x": 0.4725749608,
				"y": 3.1942036576,
				"z": 0.8820588387,
				"element": "O" 
			},
			{
				"x": 0.1511612015,
				"y": 1.5217399264,
				"z": -0.7779717131,
				"element": "C" 
			},
			{
				"x": 0.2153691498,
				"y": 0.4893834245,
				"z": 0.1628428679,
				"element": "C" 
			},
			{
				"x": 0.4018871667,
				"y": 0.6928134313,
				"z": 1.4689156839,
				"element": "O" 
			},
			{
				"x": 0.0738474069,
				"y": -0.8620337095,
				"z": -0.2949619358,
				"element": "C" 
			},
			{
				"x": -0.125890476,
				"y": -1.0928211802,
				"z": -1.6879359675,
				"element": "C" 
			},
			{
				"x": -0.266229379,
				"y": -2.4224808841,
				"z": -2.1468603799,
				"element": "C" 
			},
			{
				"x": -0.209778099,
				"y": -3.4756465875,
				"z": -1.2552791749,
				"element": "C" 
			},
			{
				"x": -0.0119022604,
				"y": -3.2439333044,
				"z": 0.1232014355,
				"element": "C" 
			},
			{
				"x": 0.1281797746,
				"y": -1.956447165,
				"z": 0.599018708,
				"element": "C" 
			},
			{
				"x": -0.1684723196,
				"y": 0.0749859654,
				"z": -2.5268796752,
				"element": "C" 
			},
			{
				"x": -0.413867981,
				"y": -0.1396101864,
				"z": -4.2687696615,
				"element": "Cl" 
			},
			{
				"x": -0.0404921567,
				"y": 1.2877648894,
				"z": -2.1087946712,
				"element": "N" 
			},
			{
				"x": 1.3357011659,
				"y": 5.3516929054,
				"z": -0.350100281,
				"element": "H" 
			},
			{
				"x": 0.2794491963,
				"y": 5.8015635761,
				"z": -1.7298035663,
				"element": "H" 
			},
			{
				"x": -0.4244213436,
				"y": 5.4568075577,
				"z": -0.1150755056,
				"element": "H" 
			},
			{
				"x": 0.4762776163,
				"y": 1.678286627,
				"z": 1.5868018343,
				"element": "H" 
			},
			{
				"x": -0.4181210101,
				"y": -2.6013291102,
				"z": -3.2045588191,
				"element": "H" 
			},
			{
				"x": -0.3187705554,
				"y": -4.4932088899,
				"z": -1.6183733353,
				"element": "H" 
			},
			{
				"x": 0.0298692533,
				"y": -4.0840297035,
				"z": 0.8098180385,
				"element": "H" 
			},
			{
				"x": 0.2808595557,
				"y": -1.7582545007,
				"z": 1.6536919139,
				"element": "H" 
			}
		],
		 "valence_orbital": [ 
			{
				"type": "occ",
				"energy": -0.30301,
				"method": "rhf"
			},
			{
				"type": "occ",
				"energy": -0.28017,
				"method": "rhf"
			},
			{
				"type": "occ",
				"energy": -0.27735,
				"method": "rhf"
			},
			{
				"type": "occ",
				"energy": -0.27122,
				"method": "rhf"
			},
			{
				"type": "occ",
				"energy": -0.22733,
				"method": "rhf"
			},
			{
				"type": "unocc",
				"energy": -0.06703,
				"method": "rhf"
			},
			{
				"type": "unocc",
				"energy": -0.05581,
				"method": "rhf"
			},
			{
				"type": "unocc",
				"energy": 0.01139,
				"method": "rhf"
			},
			{
				"type": "unocc",
				"energy": 0.02641,
				"method": "rhf"
			},
			{
				"type": "unocc",
				"energy": 0.03589,
				"method": "rhf"
			}
		],
		"cosmo_sigma_profile": { 
			"-0.025": 0.0,
			"-0.024": 0.0,
			"-0.023": 0.0,
			"-0.022": 0.0,
			"-0.021": 0.0,
			"-0.02": 0.0,
			"-0.019": 0.0,
			"-0.018": 0.0,
			"-0.017": 0.0,
			"-0.016": 0.0,
			"-0.015": 0.0,
			"-0.014": 0.0,
			"-0.013": 0.0,
			"-0.012": 0.0,
			"-0.011": 0.0,
			"-0.01": 0.0,
			"-0.009": 0.0,
			"-0.008": 0.632825148287,
			"-0.007": 8.59613145859,
			"-0.006": 15.6576020491,
			"-0.005": 16.324483887,
			"-0.004": 20.5318407577,
			"-0.003": 18.3476734524,
			"-0.002": 19.2982709434,
			"-0.001": 22.3675595718,
			"0.0": 18.5355023318,
			"0.001": 23.7073713844,
			"0.002": 20.3350754672,
			"0.003": 14.596232985,
			"0.004": 9.82535581707,
			"0.005": 8.80671210387,
			"0.006": 6.05991805892,
			"0.007": 5.28066405091,
			"0.008": 4.60395152707,
			"0.009": 3.91397165486,
			"0.01": 2.30614283634,
			"0.011": 2.51855596109,
			"0.012": 1.35185456471,
			"0.013": 0.900541231752,
			"0.014": 1.15156367638,
			"0.015": 0.530653992486,
			"0.016": 0.0,
			"0.017": 0.0,
			"0.018": 0.0,
			"0.019": 0.0,
			"0.02": 0.0,
			"0.021": 0.0,
			"0.022": 0.0,
			"0.023": 0.0,
			"0.024": 0.0,
			"0.025": 0.0
		}
	}
}
