{
	 "smiles": "CC1=C(C=CC=C1N)S(=O)(=O)NC1CC1", 
	 "Tm": 385.15, 
	 "num_atms": 29, 
	 "gaussian": { 
		 "optdone": 1, 
		 "sigma_profile": "yes", 
		 "theory": "DFT", 
		 "functional": "B3LYP", 
		 "basiset": "6-31G**", 
		 "properties": { 
			 "R2extent": 4286.8518, 
			 "electric_dipole_moment_norm": 6.06863937798, 
			 "electric_quadrupole_moment_norm": 17.3936774441, 
			 "total_energy": -1047.54266588, 
			 "HOMO_LUMO_gap": 0.18624, 
			 "cosmo_polarized_energy": -18.94, 
			 "cosmo_cavitation_energy": 32.72, 
			 "cosmo_dispersion_energy": -23.71, 
			 "cosmo_repulsion_energy": 1.81, 
			 "cosmo_total_nonelectrostatic_energy": 10.82, 
			 "SMD_solvation_energy": 4.27 
		},
		"coords": [
			{
				"x": 0.3820908352,
				"y": -1.5499696348,
				"z": -1.4480334011,
				"element": "C" 
			},
			{
				"x": -0.6560548621,
				"y": -1.3847291878,
				"z": -0.3645140595,
				"element": "C" 
			},
			{
				"x": -1.5211094133,
				"y": -0.2829260312,
				"z": -0.2407870367,
				"element": "C" 
			},
			{
				"x": -2.4969644602,
				"y": -0.1901208898,
				"z": 0.756422958,
				"element": "C" 
			},
			{
				"x": -2.6140857366,
				"y": -1.2277021851,
				"z": 1.6780717124,
				"element": "C" 
			},
			{
				"x": -1.7617062306,
				"y": -2.3227626447,
				"z": 1.6071267179,
				"element": "C" 
			},
			{
				"x": -0.7839789433,
				"y": -2.4131498817,
				"z": 0.6028094354,
				"element": "C" 
			},
			{
				"x": 0.0220787196,
				"y": -3.5484825751,
				"z": 0.5204762392,
				"element": "N" 
			},
			{
				"x": -1.4593053989,
				"y": 1.1171882751,
				"z": -1.3795882567,
				"element": "S" 
			},
			{
				"x": -1.4063510056,
				"y": 0.6724574305,
				"z": -2.7769125808,
				"element": "O" 
			},
			{
				"x": -2.5032416792,
				"y": 2.0731981232,
				"z": -0.9796653709,
				"element": "O" 
			},
			{
				"x": 0.0960928199,
				"y": 1.729191725,
				"z": -0.9912135955,
				"element": "N" 
			},
			{
				"x": 0.4531512341,
				"y": 2.9453467421,
				"z": -1.7014092199,
				"element": "C" 
			},
			{
				"x": 1.0590664707,
				"y": 2.7985547473,
				"z": -3.0704871452,
				"element": "C" 
			},
			{
				"x": 1.9291915619,
				"y": 3.1892782939,
				"z": -1.9049873555,
				"element": "C" 
			},
			{
				"x": 1.3987141691,
				"y": -1.4532606812,
				"z": -1.0414304302,
				"element": "H" 
			},
			{
				"x": 0.2988806416,
				"y": -2.5493152289,
				"z": -1.8910202404,
				"element": "H" 
			},
			{
				"x": 0.2688872495,
				"y": -0.8193859302,
				"z": -2.2443612792,
				"element": "H" 
			},
			{
				"x": -3.1424436144,
				"y": 0.6784822524,
				"z": 0.79116995,
				"element": "H" 
			},
			{
				"x": -3.3672522249,
				"y": -1.1785027977,
				"z": 2.4585504508,
				"element": "H" 
			},
			{
				"x": -1.8486573484,
				"y": -3.128350623,
				"z": 2.3324826209,
				"element": "H" 
			},
			{
				"x": 0.0540969377,
				"y": -4.1118562277,
				"z": 1.3584112546,
				"element": "H" 
			},
			{
				"x": 0.9364705299,
				"y": -3.4178655535,
				"z": 0.1130032721,
				"element": "H" 
			},
			{
				"x": 0.1113362073,
				"y": 1.8774193169,
				"z": 0.0184443484,
				"element": "H" 
			},
			{
				"x": -0.1832249003,
				"y": 3.8111327826,
				"z": -1.5237863073,
				"element": "H" 
			},
			{
				"x": 0.8038224786,
				"y": 3.5502048555,
				"z": -3.8101356917,
				"element": "H" 
			},
			{
				"x": 1.1496933522,
				"y": 1.791398529,
				"z": -3.459161785,
				"element": "H" 
			},
			{
				"x": 2.6085672794,
				"y": 2.4397343118,
				"z": -1.5120094706,
				"element": "H" 
			},
			{
				"x": 2.283735331,
				"y": 4.212592687,
				"z": -1.8301657336,
				"element": "H" 
			}
		],
		 "valence_orbital": [ 
			{
				"type": "occ",
				"energy": -0.29508,
				"method": "rhf"
			},
			{
				"type": "occ",
				"energy": -0.2853,
				"method": "rhf"
			},
			{
				"type": "occ",
				"energy": -0.26304,
				"method": "rhf"
			},
			{
				"type": "occ",
				"energy": -0.25516,
				"method": "rhf"
			},
			{
				"type": "occ",
				"energy": -0.2157,
				"method": "rhf"
			},
			{
				"type": "unocc",
				"energy": -0.02946,
				"method": "rhf"
			},
			{
				"type": "unocc",
				"energy": 0.00155,
				"method": "rhf"
			},
			{
				"type": "unocc",
				"energy": 0.06507,
				"method": "rhf"
			},
			{
				"type": "unocc",
				"energy": 0.069,
				"method": "rhf"
			},
			{
				"type": "unocc",
				"energy": 0.08146,
				"method": "rhf"
			}
		],
		"cosmo_sigma_profile": { 
			"-0.025": 0.0,
			"-0.024": 0.0,
			"-0.023": 0.0,
			"-0.022": 0.0,
			"-0.021": 0.0,
			"-0.02": 0.0,
			"-0.019": 0.0,
			"-0.018": 0.0,
			"-0.017": 0.0,
			"-0.016": 0.0,
			"-0.015": 0.33011057806,
			"-0.014": 0.790719544964,
			"-0.013": 1.81692553095,
			"-0.012": 3.67689845022,
			"-0.011": 3.84802603214,
			"-0.01": 3.80301180524,
			"-0.009": 4.03134343191,
			"-0.008": 4.64530533273,
			"-0.007": 4.8204319916,
			"-0.006": 8.62466504879,
			"-0.005": 17.7753284561,
			"-0.004": 20.3254981111,
			"-0.003": 15.1310642307,
			"-0.002": 16.3819685157,
			"-0.001": 19.0078636614,
			"0.0": 18.9490155076,
			"0.001": 16.5820439041,
			"0.002": 15.609637836,
			"0.003": 17.1507915786,
			"0.004": 14.9605991181,
			"0.005": 9.95361175026,
			"0.006": 4.78854378476,
			"0.007": 4.69509982252,
			"0.008": 4.31600964591,
			"0.009": 4.42216126663,
			"0.01": 5.99545975319,
			"0.011": 8.75474045524,
			"0.012": 6.11795178609,
			"0.013": 1.08343055717,
			"0.014": 0.0983219423039,
			"0.015": 0.0,
			"0.016": 0.0,
			"0.017": 0.0,
			"0.018": 0.0,
			"0.019": 0.0,
			"0.02": 0.0,
			"0.021": 0.0,
			"0.022": 0.0,
			"0.023": 0.0,
			"0.024": 0.0,
			"0.025": 0.0
		}
	}
}
