{
	 "smiles": "COC1=CC(C(O)=O)=C(OC)C(=C1)[N+]([O-])=O", 
	 "Tm": 455.15, 
	 "num_atms": 25, 
	 "gaussian": { 
		 "optdone": 1, 
		 "sigma_profile": "yes", 
		 "theory": "DFT", 
		 "functional": "B3LYP", 
		 "basiset": "6-31G**", 
		 "properties": { 
			 "R2extent": 3869.0622, 
			 "electric_dipole_moment_norm": 2.55358877073, 
			 "electric_quadrupole_moment_norm": 23.5969375119, 
			 "total_energy": -854.351502283, 
			 "HOMO_LUMO_gap": 0.15471, 
			 "cosmo_polarized_energy": -15.29, 
			 "cosmo_cavitation_energy": 29.92, 
			 "cosmo_dispersion_energy": -21.74, 
			 "cosmo_repulsion_energy": 1.68, 
			 "cosmo_total_nonelectrostatic_energy": 9.86, 
			 "SMD_solvation_energy": 9.81 
		},
		"coords": [
			{
				"x": 0.4446629088,
				"y": -3.2595932709,
				"z": 2.4405064149,
				"element": "C" 
			},
			{
				"x": 0.0183027085,
				"y": -1.9000294577,
				"z": 2.4199667165,
				"element": "O" 
			},
			{
				"x": -0.0466838265,
				"y": -1.2666030973,
				"z": 1.2233539199,
				"element": "C" 
			},
			{
				"x": 0.2743514694,
				"y": -1.8421418711,
				"z": -0.006888026,
				"element": "C" 
			},
			{
				"x": 0.176129821,
				"y": -1.1035522619,
				"z": -1.1933287332,
				"element": "C" 
			},
			{
				"x": 0.6247516256,
				"y": -1.8286979098,
				"z": -2.4471599486,
				"element": "C" 
			},
			{
				"x": 0.8187966359,
				"y": -1.0867437045,
				"z": -3.5484284691,
				"element": "O" 
			},
			{
				"x": 0.8239227364,
				"y": -3.0231215495,
				"z": -2.4477236526,
				"element": "O" 
			},
			{
				"x": -0.2862280851,
				"y": 0.2236568694,
				"z": -1.1722433101,
				"element": "C" 
			},
			{
				"x": -0.3426544422,
				"y": 0.9497666974,
				"z": -2.3441558196,
				"element": "O" 
			},
			{
				"x": -1.6220650783,
				"y": 0.9280259866,
				"z": -3.0287608916,
				"element": "C" 
			},
			{
				"x": -0.5820623283,
				"y": 0.794322465,
				"z": 0.0835222473,
				"element": "C" 
			},
			{
				"x": -0.454380125,
				"y": 0.0717647585,
				"z": 1.2625370972,
				"element": "C" 
			},
			{
				"x": -1.0057323291,
				"y": 2.1988192867,
				"z": 0.2266066589,
				"element": "N" 
			},
			{
				"x": -0.7441272947,
				"y": 2.7532785812,
				"z": 1.2919852236,
				"element": "O" 
			},
			{
				"x": -1.6002018816,
				"y": 2.7300760009,
				"z": -0.7094190058,
				"element": "O" 
			},
			{
				"x": 0.4190694334,
				"y": -3.5621006972,
				"z": 3.4875185816,
				"element": "H" 
			},
			{
				"x": 1.4660094426,
				"y": -3.3646195901,
				"z": 2.0556728999,
				"element": "H" 
			},
			{
				"x": -0.2298622422,
				"y": -3.8995027114,
				"z": 1.8592804866,
				"element": "H" 
			},
			{
				"x": 0.6158841114,
				"y": -2.8653386649,
				"z": -0.0991730167,
				"element": "H" 
			},
			{
				"x": 0.6175692863,
				"y": -0.1503103774,
				"z": -3.3387754843,
				"element": "H" 
			},
			{
				"x": -1.4964006355,
				"y": 1.5683877192,
				"z": -3.9021705486,
				"element": "H" 
			},
			{
				"x": -2.3962424675,
				"y": 1.3347379489,
				"z": -2.3796115666,
				"element": "H" 
			},
			{
				"x": -1.8637293657,
				"y": -0.0921195278,
				"z": -3.3437046764,
				"element": "H" 
			},
			{
				"x": -0.6657800775,
				"y": 0.5495383778,
				"z": 2.2105929029,
				"element": "H" 
			}
		],
		 "valence_orbital": [ 
			{
				"type": "occ",
				"energy": -0.31079,
				"method": "rhf"
			},
			{
				"type": "occ",
				"energy": -0.30527,
				"method": "rhf"
			},
			{
				"type": "occ",
				"energy": -0.2897,
				"method": "rhf"
			},
			{
				"type": "occ",
				"energy": -0.28167,
				"method": "rhf"
			},
			{
				"type": "occ",
				"energy": -0.25407,
				"method": "rhf"
			},
			{
				"type": "unocc",
				"energy": -0.09936,
				"method": "rhf"
			},
			{
				"type": "unocc",
				"energy": -0.06406,
				"method": "rhf"
			},
			{
				"type": "unocc",
				"energy": -0.0139,
				"method": "rhf"
			},
			{
				"type": "unocc",
				"energy": 0.04148,
				"method": "rhf"
			},
			{
				"type": "unocc",
				"energy": 0.05627,
				"method": "rhf"
			}
		],
		"cosmo_sigma_profile": { 
			"-0.025": 0.0,
			"-0.024": 0.0,
			"-0.023": 0.0,
			"-0.022": 0.0,
			"-0.021": 0.0,
			"-0.02": 0.0,
			"-0.019": 0.0,
			"-0.018": 0.0,
			"-0.017": 0.0,
			"-0.016": 0.0,
			"-0.015": 0.0,
			"-0.014": 0.0,
			"-0.013": 0.0,
			"-0.012": 0.0,
			"-0.011": 0.124911440305,
			"-0.01": 1.16664979867,
			"-0.009": 1.9037592581,
			"-0.008": 3.59071032764,
			"-0.007": 12.4601871574,
			"-0.006": 20.1229457571,
			"-0.005": 21.699090497,
			"-0.004": 25.2181542783,
			"-0.003": 17.1834397201,
			"-0.002": 15.642948174,
			"-0.001": 15.8104204065,
			"0.0": 12.6083903571,
			"0.001": 9.06454665532,
			"0.002": 7.06684172186,
			"0.003": 6.47465405412,
			"0.004": 6.96469238067,
			"0.005": 7.48393001463,
			"0.006": 8.33613366359,
			"0.007": 12.4568323414,
			"0.008": 10.2450386882,
			"0.009": 7.95084405296,
			"0.01": 5.66405248761,
			"0.011": 5.68858823237,
			"0.012": 3.35521683786,
			"0.013": 1.01296676827,
			"0.014": 0.0,
			"0.015": 0.0,
			"0.016": 0.0,
			"0.017": 0.0,
			"0.018": 0.0,
			"0.019": 0.0,
			"0.02": 0.0,
			"0.021": 0.0,
			"0.022": 0.0,
			"0.023": 0.0,
			"0.024": 0.0,
			"0.025": 0.0
		}
	}
}
