{
	 "smiles": "CC1=C(C=NN1C1=CC=C(F)C=C1)S(Cl)(=O)=O", 
	 "Tm": 370.15, 
	 "num_atms": 25, 
	 "gaussian": { 
		 "optdone": 1, 
		 "sigma_profile": "yes", 
		 "theory": "DFT", 
		 "functional": "B3LYP", 
		 "basiset": "6-31G**", 
		 "properties": { 
			 "R2extent": 6817.5452, 
			 "electric_dipole_moment_norm": 5.3482245755, 
			 "electric_quadrupole_moment_norm": 19.873734055, 
			 "total_energy": -1603.96288679, 
			 "HOMO_LUMO_gap": 0.17546, 
			 "cosmo_polarized_energy": -12.29, 
			 "cosmo_cavitation_energy": 33.71, 
			 "cosmo_dispersion_energy": -24.36, 
			 "cosmo_repulsion_energy": 1.81, 
			 "cosmo_total_nonelectrostatic_energy": 11.16, 
			 "SMD_solvation_energy": 4.42 
		},
		"coords": [
			{
				"x": -0.8010944881,
				"y": -2.1126588664,
				"z": -0.4247625408,
				"element": "C" 
			},
			{
				"x": -0.6456330622,
				"y": -0.9761718392,
				"z": 0.5324543483,
				"element": "C" 
			},
			{
				"x": -0.6214068776,
				"y": -0.9607286483,
				"z": 1.928027011,
				"element": "C" 
			},
			{
				"x": -0.4021913753,
				"y": 0.3826800636,
				"z": 2.3150111244,
				"element": "C" 
			},
			{
				"x": -0.2865978547,
				"y": 1.1586978717,
				"z": 1.254026963,
				"element": "N" 
			},
			{
				"x": -0.4496350713,
				"y": 0.3255323733,
				"z": 0.1778887024,
				"element": "N" 
			},
			{
				"x": -0.3436759016,
				"y": 0.8868670045,
				"z": -1.1313757807,
				"element": "C" 
			},
			{
				"x": 0.6991735258,
				"y": 1.7810276405,
				"z": -1.3959540065,
				"element": "C" 
			},
			{
				"x": 0.8130527962,
				"y": 2.3564518868,
				"z": -2.6578876328,
				"element": "C" 
			},
			{
				"x": -0.1172639629,
				"y": 2.0205702938,
				"z": -3.6374809178,
				"element": "C" 
			},
			{
				"x": -0.0035346175,
				"y": 2.5696119895,
				"z": -4.8601996338,
				"element": "F" 
			},
			{
				"x": -1.1644347319,
				"y": 1.1404783252,
				"z": -3.3889215853,
				"element": "C" 
			},
			{
				"x": -1.2832284391,
				"y": 0.5777682258,
				"z": -2.118866748,
				"element": "C" 
			},
			{
				"x": -0.8078777508,
				"y": -2.3042236927,
				"z": 3.0203447189,
				"element": "S" 
			},
			{
				"x": -2.9351864549,
				"y": -2.5562140105,
				"z": 3.0759512586,
				"element": "Cl" 
			},
			{
				"x": -0.4186069254,
				"y": -1.8730421834,
				"z": 4.3561276892,
				"element": "O" 
			},
			{
				"x": -0.2933517644,
				"y": -3.5289789853,
				"z": 2.4161108919,
				"element": "O" 
			},
			{
				"x": -0.4323238747,
				"y": -3.0285047261,
				"z": 0.0388142665,
				"element": "H" 
			},
			{
				"x": -0.2490783916,
				"y": -1.9261916219,
				"z": -1.3487175232,
				"element": "H" 
			},
			{
				"x": -1.8535753642,
				"y": -2.2741552828,
				"z": -0.6844883709,
				"element": "H" 
			},
			{
				"x": -0.319239867,
				"y": 0.7826202401,
				"z": 3.3152907551,
				"element": "H" 
			},
			{
				"x": 1.402812217,
				"y": 2.0235306122,
				"z": -0.6084489923,
				"element": "H" 
			},
			{
				"x": 1.6105682605,
				"y": 3.052659169,
				"z": -2.891858354,
				"element": "H" 
			},
			{
				"x": -1.8788700139,
				"y": 0.9195813223,
				"z": -4.1738095943,
				"element": "H" 
			},
			{
				"x": -2.1159000106,
				"y": -0.0792071616,
				"z": -1.8952760487,
				"element": "H" 
			}
		],
		 "valence_orbital": [ 
			{
				"type": "occ",
				"energy": -0.31083,
				"method": "rhf"
			},
			{
				"type": "occ",
				"energy": -0.30779,
				"method": "rhf"
			},
			{
				"type": "occ",
				"energy": -0.28934,
				"method": "rhf"
			},
			{
				"type": "occ",
				"energy": -0.28033,
				"method": "rhf"
			},
			{
				"type": "occ",
				"energy": -0.26012,
				"method": "rhf"
			},
			{
				"type": "unocc",
				"energy": -0.08466,
				"method": "rhf"
			},
			{
				"type": "unocc",
				"energy": -0.04426,
				"method": "rhf"
			},
			{
				"type": "unocc",
				"energy": -0.03974,
				"method": "rhf"
			},
			{
				"type": "unocc",
				"energy": -0.00619,
				"method": "rhf"
			},
			{
				"type": "unocc",
				"energy": 0.00676,
				"method": "rhf"
			}
		],
		"cosmo_sigma_profile": { 
			"-0.025": 0.0,
			"-0.024": 0.0,
			"-0.023": 0.0,
			"-0.022": 0.0,
			"-0.021": 0.0,
			"-0.02": 0.0,
			"-0.019": 0.0,
			"-0.018": 0.0,
			"-0.017": 0.0,
			"-0.016": 0.0,
			"-0.015": 0.0,
			"-0.014": 0.0,
			"-0.013": 0.0,
			"-0.012": 0.0,
			"-0.011": 0.0,
			"-0.01": 0.572292015264,
			"-0.009": 3.02355985647,
			"-0.008": 8.22066696751,
			"-0.007": 10.4186778949,
			"-0.006": 12.4517083698,
			"-0.005": 15.2941426656,
			"-0.004": 16.3066315074,
			"-0.003": 20.4287709142,
			"-0.002": 19.5008878285,
			"-0.001": 18.7690278774,
			"0.0": 22.3991666949,
			"0.001": 22.8148046794,
			"0.002": 21.8302305331,
			"0.003": 20.9003204049,
			"0.004": 24.2559313297,
			"0.005": 5.21443446233,
			"0.006": 5.36370569381,
			"0.007": 7.05556493735,
			"0.008": 9.61803706196,
			"0.009": 6.28013089888,
			"0.01": 1.06896267915,
			"0.011": 0.813239730706,
			"0.012": 0.963563935255,
			"0.013": 0.551958942469,
			"0.014": 0.0,
			"0.015": 0.0,
			"0.016": 0.0,
			"0.017": 0.0,
			"0.018": 0.0,
			"0.019": 0.0,
			"0.02": 0.0,
			"0.021": 0.0,
			"0.022": 0.0,
			"0.023": 0.0,
			"0.024": 0.0,
			"0.025": 0.0
		}
	}
}
