{
	 "smiles": "CN(C)C(=S)N(C)C", 
	 "Tm": 352.45, 
	 "num_atms": 20, 
	 "gaussian": { 
		 "optdone": 1, 
		 "sigma_profile": "yes", 
		 "theory": "DFT", 
		 "functional": "B3LYP", 
		 "basiset": "6-31G**", 
		 "properties": { 
			 "R2extent": 1752.852, 
			 "electric_dipole_moment_norm": 4.86301803513, 
			 "electric_quadrupole_moment_norm": 16.5531244329, 
			 "total_energy": -705.448819234, 
			 "HOMO_LUMO_gap": 0.18455, 
			 "cosmo_polarized_energy": -11.88, 
			 "cosmo_cavitation_energy": 23.11, 
			 "cosmo_dispersion_energy": -17.16, 
			 "cosmo_repulsion_energy": 1.36, 
			 "cosmo_total_nonelectrostatic_energy": 7.32, 
			 "SMD_solvation_energy": 3.64 
		},
		"coords": [
			{
				"x": -0.76702053,
				"y": 1.7992242459,
				"z": 0.1120984918,
				"element": "C" 
			},
			{
				"x": 0.5607354323,
				"y": 1.5601313455,
				"z": 0.6816516222,
				"element": "N" 
			},
			{
				"x": 1.0295180145,
				"y": 2.6352217365,
				"z": 1.5478696011,
				"element": "C" 
			},
			{
				"x": 1.473330104,
				"y": 0.7413621802,
				"z": 0.049857023,
				"element": "C" 
			},
			{
				"x": 3.1176517609,
				"y": 1.098943928,
				"z": -0.0222277741,
				"element": "S" 
			},
			{
				"x": 0.9329721247,
				"y": -0.3934371138,
				"z": -0.5181213697,
				"element": "N" 
			},
			{
				"x": -0.1234718782,
				"y": -1.1509234766,
				"z": 0.1561505062,
				"element": "C" 
			},
			{
				"x": 1.7310053145,
				"y": -1.1931726544,
				"z": -1.4397966266,
				"element": "C" 
			},
			{
				"x": -0.8490893124,
				"y": 2.8491083676,
				"z": -0.1984595069,
				"element": "H" 
			},
			{
				"x": -0.9194622112,
				"y": 1.1735915814,
				"z": -0.7660578736,
				"element": "H" 
			},
			{
				"x": -1.5632095006,
				"y": 1.5959472599,
				"z": 0.8386751519,
				"element": "H" 
			},
			{
				"x": 1.3399479814,
				"y": 3.5178480565,
				"z": 0.9728688083,
				"element": "H" 
			},
			{
				"x": 0.2115802439,
				"y": 2.9164830326,
				"z": 2.2194038197,
				"element": "H" 
			},
			{
				"x": 1.883084247,
				"y": 2.2968029348,
				"z": 2.1336310068,
				"element": "H" 
			},
			{
				"x": 0.2635172578,
				"y": -2.1342618815,
				"z": 0.4540285315,
				"element": "H" 
			},
			{
				"x": -0.4479060511,
				"y": -0.6284513575,
				"z": 1.0547982655,
				"element": "H" 
			},
			{
				"x": -0.9897390801,
				"y": -1.3098035716,
				"z": -0.4976683568,
				"element": "H" 
			},
			{
				"x": 2.4260969467,
				"y": -1.8571747771,
				"z": -0.9087871111,
				"element": "H" 
			},
			{
				"x": 2.3154006176,
				"y": -0.5421500309,
				"z": -2.0885375046,
				"element": "H" 
			},
			{
				"x": 1.0502585184,
				"y": -1.8002898056,
				"z": -2.0456767045,
				"element": "H" 
			}
		],
		 "valence_orbital": [ 
			{
				"type": "occ",
				"energy": -0.35106,
				"method": "rhf"
			},
			{
				"type": "occ",
				"energy": -0.32963,
				"method": "rhf"
			},
			{
				"type": "occ",
				"energy": -0.23326,
				"method": "rhf"
			},
			{
				"type": "occ",
				"energy": -0.21169,
				"method": "rhf"
			},
			{
				"type": "occ",
				"energy": -0.19149,
				"method": "rhf"
			},
			{
				"type": "unocc",
				"energy": -0.00694,
				"method": "rhf"
			},
			{
				"type": "unocc",
				"energy": 0.07436,
				"method": "rhf"
			},
			{
				"type": "unocc",
				"energy": 0.1048,
				"method": "rhf"
			},
			{
				"type": "unocc",
				"energy": 0.11415,
				"method": "rhf"
			},
			{
				"type": "unocc",
				"energy": 0.12903,
				"method": "rhf"
			}
		],
		"cosmo_sigma_profile": { 
			"-0.025": 0.0,
			"-0.024": 0.0,
			"-0.023": 0.0,
			"-0.022": 0.0,
			"-0.021": 0.0,
			"-0.02": 0.0,
			"-0.019": 0.0,
			"-0.018": 0.0,
			"-0.017": 0.0,
			"-0.016": 0.0,
			"-0.015": 0.0,
			"-0.014": 0.0,
			"-0.013": 0.0,
			"-0.012": 0.0,
			"-0.011": 0.0,
			"-0.01": 0.0,
			"-0.009": 0.0,
			"-0.008": 0.0,
			"-0.007": 0.0,
			"-0.006": 1.01004239129,
			"-0.005": 18.493952281,
			"-0.004": 28.0553256311,
			"-0.003": 29.8784827436,
			"-0.002": 29.3024223451,
			"-0.001": 14.0686730032,
			"0.0": 7.63556096032,
			"0.001": 6.2759892795,
			"0.002": 4.87206929529,
			"0.003": 2.58762673476,
			"0.004": 2.72788616419,
			"0.005": 3.79253750657,
			"0.006": 3.94040404615,
			"0.007": 3.91328715552,
			"0.008": 4.61515817114,
			"0.009": 4.39258582152,
			"0.01": 6.16095953411,
			"0.011": 5.26441901163,
			"0.012": 4.30711141664,
			"0.013": 1.64506408134,
			"0.014": 0.0,
			"0.015": 0.0,
			"0.016": 0.0,
			"0.017": 0.0,
			"0.018": 0.0,
			"0.019": 0.0,
			"0.02": 0.0,
			"0.021": 0.0,
			"0.022": 0.0,
			"0.023": 0.0,
			"0.024": 0.0,
			"0.025": 0.0
		}
	}
}
