{
	 "smiles": "ClCC(=O)N(CC1=CC=CS1)C1CCS(=O)(=O)C1", 
	 "Tm": 290.15, 
	 "num_atms": 32, 
	 "gaussian": { 
		 "optdone": 1, 
		 "sigma_profile": "yes", 
		 "theory": "DFT", 
		 "functional": "B3LYP", 
		 "basiset": "6-31G**", 
		 "properties": { 
			 "R2extent": 6585.6286, 
			 "electric_dipole_moment_norm": 6.03506637992, 
			 "electric_quadrupole_moment_norm": 27.0770936027, 
			 "total_energy": -1964.52243165, 
			 "HOMO_LUMO_gap": 0.20586, 
			 "cosmo_polarized_energy": -22.14, 
			 "cosmo_cavitation_energy": 38.52, 
			 "cosmo_dispersion_energy": -27.48, 
			 "cosmo_repulsion_energy": 2.04, 
			 "cosmo_total_nonelectrostatic_energy": 13.08, 
			 "SMD_solvation_energy": 5.35 
		},
		"coords": [
			{
				"x": -2.8285133652,
				"y": -0.6592342114,
				"z": -2.5025168587,
				"element": "Cl" 
			},
			{
				"x": -2.9196748103,
				"y": -0.808930403,
				"z": -0.695050323,
				"element": "C" 
			},
			{
				"x": -1.8875816762,
				"y": 0.0519800963,
				"z": 0.0395218746,
				"element": "C" 
			},
			{
				"x": -2.2962023484,
				"y": 0.9958574092,
				"z": 0.7140634062,
				"element": "O" 
			},
			{
				"x": -0.5582453434,
				"y": -0.2552477151,
				"z": -0.0416073989,
				"element": "N" 
			},
			{
				"x": -0.0044292191,
				"y": -1.4342477079,
				"z": -0.7260623569,
				"element": "C" 
			},
			{
				"x": 1.042140554,
				"y": -1.0871749173,
				"z": -1.7569310719,
				"element": "C" 
			},
			{
				"x": 0.956617467,
				"y": -0.2090621096,
				"z": -2.8071537574,
				"element": "C" 
			},
			{
				"x": 2.1438942642,
				"y": -0.1614154085,
				"z": -3.5975533135,
				"element": "C" 
			},
			{
				"x": 3.1201363432,
				"y": -1.0046097539,
				"z": -3.1420710089,
				"element": "C" 
			},
			{
				"x": 2.6038784427,
				"y": -1.8672371654,
				"z": -1.7316469736,
				"element": "S" 
			},
			{
				"x": 0.3955671989,
				"y": 0.5708538696,
				"z": 0.7232120967,
				"element": "C" 
			},
			{
				"x": 0.3706754075,
				"y": 2.0958011008,
				"z": 0.3318678913,
				"element": "C" 
			},
			{
				"x": 0.0614193143,
				"y": 2.9490817014,
				"z": 1.5658558123,
				"element": "C" 
			},
			{
				"x": 0.7807543387,
				"y": 2.0027649864,
				"z": 2.941695622,
				"element": "S" 
			},
			{
				"x": 0.1318103058,
				"y": 2.2989431795,
				"z": 4.225947604,
				"element": "O" 
			},
			{
				"x": 2.2492535704,
				"y": 2.0473632905,
				"z": 2.8158096775,
				"element": "O" 
			},
			{
				"x": 0.2128649066,
				"y": 0.4155429964,
				"z": 2.2508349599,
				"element": "C" 
			},
			{
				"x": -2.8416934603,
				"y": -1.8711088211,
				"z": -0.4568081538,
				"element": "H" 
			},
			{
				"x": -3.8951707147,
				"y": -0.4331355117,
				"z": -0.3959904697,
				"element": "H" 
			},
			{
				"x": 0.4258906282,
				"y": -2.1126287712,
				"z": 0.0223847635,
				"element": "H" 
			},
			{
				"x": -0.8204444008,
				"y": -1.973635485,
				"z": -1.2072366633,
				"element": "H" 
			},
			{
				"x": 0.0692066316,
				"y": 0.3793733002,
				"z": -3.0096305381,
				"element": "H" 
			},
			{
				"x": 2.2637509735,
				"y": 0.472471426,
				"z": -4.4687084957,
				"element": "H" 
			},
			{
				"x": 4.108318864,
				"y": -1.1722764945,
				"z": -3.5470090519,
				"element": "H" 
			},
			{
				"x": 1.3811123272,
				"y": 0.1882618257,
				"z": 0.4590240935,
				"element": "H" 
			},
			{
				"x": -0.3754932825,
				"y": 2.2748234434,
				"z": -0.4422845789,
				"element": "H" 
			},
			{
				"x": 1.3500198954,
				"y": 2.3630678687,
				"z": -0.0710248082,
				"element": "H" 
			},
			{
				"x": 0.5181949288,
				"y": 3.9401775458,
				"z": 1.5549699744,
				"element": "H" 
			},
			{
				"x": -1.0108449637,
				"y": 3.0170796246,
				"z": 1.7571299314,
				"element": "H" 
			},
			{
				"x": 0.8151509865,
				"y": -0.3827047016,
				"z": 2.6875902111,
				"element": "H" 
			},
			{
				"x": -0.8354637638,
				"y": 0.3103055128,
				"z": 2.530077904,
				"element": "H" 
			}
		],
		 "valence_orbital": [ 
			{
				"type": "occ",
				"energy": -0.285,
				"method": "rhf"
			},
			{
				"type": "occ",
				"energy": -0.27684,
				"method": "rhf"
			},
			{
				"type": "occ",
				"energy": -0.27032,
				"method": "rhf"
			},
			{
				"type": "occ",
				"energy": -0.2659,
				"method": "rhf"
			},
			{
				"type": "occ",
				"energy": -0.24624,
				"method": "rhf"
			},
			{
				"type": "unocc",
				"energy": -0.04038,
				"method": "rhf"
			},
			{
				"type": "unocc",
				"energy": -0.03123,
				"method": "rhf"
			},
			{
				"type": "unocc",
				"energy": 0.00753,
				"method": "rhf"
			},
			{
				"type": "unocc",
				"energy": 0.03047,
				"method": "rhf"
			},
			{
				"type": "unocc",
				"energy": 0.04059,
				"method": "rhf"
			}
		],
		"cosmo_sigma_profile": { 
			"-0.025": 0.0,
			"-0.024": 0.0,
			"-0.023": 0.0,
			"-0.022": 0.0,
			"-0.021": 0.0,
			"-0.02": 0.0,
			"-0.019": 0.0,
			"-0.018": 0.0,
			"-0.017": 0.0,
			"-0.016": 0.0,
			"-0.015": 0.0,
			"-0.014": 0.0,
			"-0.013": 0.0,
			"-0.012": 0.0,
			"-0.011": 0.260553876208,
			"-0.01": 2.46477173411,
			"-0.009": 5.24139149025,
			"-0.008": 13.1528345654,
			"-0.007": 17.2558950342,
			"-0.006": 18.762846011,
			"-0.005": 25.589659514,
			"-0.004": 23.9416158845,
			"-0.003": 21.7002455549,
			"-0.002": 16.4831225837,
			"-0.001": 14.8061338058,
			"0.0": 16.6291793871,
			"0.001": 16.1081599717,
			"0.002": 15.8316272822,
			"0.003": 17.5025614255,
			"0.004": 20.1066315049,
			"0.005": 14.9067654583,
			"0.006": 6.17201389049,
			"0.007": 2.70332365312,
			"0.008": 3.32393029446,
			"0.009": 4.65265650133,
			"0.01": 5.14863362595,
			"0.011": 11.2425779137,
			"0.012": 11.7846776346,
			"0.013": 3.78730468584,
			"0.014": 0.204490938859,
			"0.015": 0.0,
			"0.016": 0.0,
			"0.017": 0.0,
			"0.018": 0.0,
			"0.019": 0.0,
			"0.02": 0.0,
			"0.021": 0.0,
			"0.022": 0.0,
			"0.023": 0.0,
			"0.024": 0.0,
			"0.025": 0.0
		}
	}
}
