{
	 "smiles": "[O-][N+](=O)C=CC1=CC=C(SC(F)(F)F)C=C1", 
	 "Tm": 410.15, 
	 "num_atms": 22, 
	 "gaussian": { 
		 "optdone": 1, 
		 "sigma_profile": "yes", 
		 "theory": "DFT", 
		 "functional": "B3LYP", 
		 "basiset": "6-31G**", 
		 "properties": { 
			 "R2extent": 6148.1045, 
			 "electric_dipole_moment_norm": 3.53104223707, 
			 "electric_quadrupole_moment_norm": 22.1045413782, 
			 "total_energy": -1249.34487163, 
			 "HOMO_LUMO_gap": 0.14656, 
			 "cosmo_polarized_energy": -10.05, 
			 "cosmo_cavitation_energy": 30.86, 
			 "cosmo_dispersion_energy": -22.26, 
			 "cosmo_repulsion_energy": 1.62, 
			 "cosmo_total_nonelectrostatic_energy": 10.23, 
			 "SMD_solvation_energy": 8.54 
		},
		"coords": [
			{
				"x": 0.0953681455,
				"y": -3.3436027871,
				"z": -4.6995298816,
				"element": "O" 
			},
			{
				"x": -0.0994508758,
				"y": -2.6712677539,
				"z": -3.6836372361,
				"element": "N" 
			},
			{
				"x": -1.184803179,
				"y": -2.164763777,
				"z": -3.3848216468,
				"element": "O" 
			},
			{
				"x": 1.0504057012,
				"y": -2.5242982524,
				"z": -2.8170036182,
				"element": "C" 
			},
			{
				"x": 1.2063554547,
				"y": -1.8056618738,
				"z": -1.685614298,
				"element": "C" 
			},
			{
				"x": 0.4354331748,
				"y": -0.8822240562,
				"z": -0.8510956119,
				"element": "C" 
			},
			{
				"x": 1.0451027651,
				"y": -0.5148424231,
				"z": 0.3701349844,
				"element": "C" 
			},
			{
				"x": 0.4318242448,
				"y": 0.3549704265,
				"z": 1.2614600446,
				"element": "C" 
			},
			{
				"x": -0.8054869036,
				"y": 0.9225300172,
				"z": 0.9283547487,
				"element": "C" 
			},
			{
				"x": -1.6842185725,
				"y": 2.0028718712,
				"z": 2.0582973977,
				"element": "S" 
			},
			{
				"x": -0.4896972515,
				"y": 3.3755491236,
				"z": 2.2085111333,
				"element": "C" 
			},
			{
				"x": -0.1665380666,
				"y": 3.9158453775,
				"z": 1.0252327279,
				"element": "F" 
			},
			{
				"x": 0.6629563049,
				"y": 3.0096207005,
				"z": 2.8043810506,
				"element": "F" 
			},
			{
				"x": -1.0674859187,
				"y": 4.3174509974,
				"z": 2.9688344146,
				"element": "F" 
			},
			{
				"x": -1.4179395083,
				"y": 0.5861919614,
				"z": -0.2851004857,
				"element": "C" 
			},
			{
				"x": -0.8158922315,
				"y": -0.3129094053,
				"z": -1.1601633043,
				"element": "C" 
			},
			{
				"x": 1.8663520416,
				"y": -3.1209548111,
				"z": -3.2014163619,
				"element": "H" 
			},
			{
				"x": 2.2071909207,
				"y": -1.9643357455,
				"z": -1.2846177553,
				"element": "H" 
			},
			{
				"x": 2.0127947957,
				"y": -0.9360897853,
				"z": 0.6289872832,
				"element": "H" 
			},
			{
				"x": 0.9101551701,
				"y": 0.6002314472,
				"z": 2.2020510289,
				"element": "H" 
			},
			{
				"x": -2.3705972668,
				"y": 1.0340966654,
				"z": -0.5477784552,
				"element": "H" 
			},
			{
				"x": -1.3033289449,
				"y": -0.5705079171,
				"z": -2.0879661588,
				"element": "H" 
			}
		],
		 "valence_orbital": [ 
			{
				"type": "occ",
				"energy": -0.31035,
				"method": "rhf"
			},
			{
				"type": "occ",
				"energy": -0.29141,
				"method": "rhf"
			},
			{
				"type": "occ",
				"energy": -0.28641,
				"method": "rhf"
			},
			{
				"type": "occ",
				"energy": -0.28168,
				"method": "rhf"
			},
			{
				"type": "occ",
				"energy": -0.25641,
				"method": "rhf"
			},
			{
				"type": "unocc",
				"energy": -0.10985,
				"method": "rhf"
			},
			{
				"type": "unocc",
				"energy": -0.04595,
				"method": "rhf"
			},
			{
				"type": "unocc",
				"energy": -0.0314,
				"method": "rhf"
			},
			{
				"type": "unocc",
				"energy": 0.0027,
				"method": "rhf"
			},
			{
				"type": "unocc",
				"energy": 0.03092,
				"method": "rhf"
			}
		],
		"cosmo_sigma_profile": { 
			"-0.025": 0.0,
			"-0.024": 0.0,
			"-0.023": 0.0,
			"-0.022": 0.0,
			"-0.021": 0.0,
			"-0.02": 0.0,
			"-0.019": 0.0,
			"-0.018": 0.0,
			"-0.017": 0.0,
			"-0.016": 0.0,
			"-0.015": 0.0,
			"-0.014": 0.0,
			"-0.013": 0.0,
			"-0.012": 0.0,
			"-0.011": 0.0123957205303,
			"-0.01": 2.51381738889,
			"-0.009": 5.29659530508,
			"-0.008": 5.94061201108,
			"-0.007": 6.62026183037,
			"-0.006": 8.96271103013,
			"-0.005": 9.60804227543,
			"-0.004": 11.3904816408,
			"-0.003": 12.8381742592,
			"-0.002": 16.0334349951,
			"-0.001": 20.8842678707,
			"0.0": 28.0471803296,
			"0.001": 36.3568220851,
			"0.002": 42.3023404347,
			"0.003": 8.10782189811,
			"0.004": 5.55808220007,
			"0.005": 4.70483143078,
			"0.006": 3.41384588847,
			"0.007": 4.19099733642,
			"0.008": 7.97256193167,
			"0.009": 5.4702092508,
			"0.01": 3.91955907325,
			"0.011": 0.788062340686,
			"0.012": 0.0,
			"0.013": 0.0,
			"0.014": 0.0,
			"0.015": 0.0,
			"0.016": 0.0,
			"0.017": 0.0,
			"0.018": 0.0,
			"0.019": 0.0,
			"0.02": 0.0,
			"0.021": 0.0,
			"0.022": 0.0,
			"0.023": 0.0,
			"0.024": 0.0,
			"0.025": 0.0
		}
	}
}
