{
	 "smiles": "CC(CCC(O)=O)CC1=CC=CC=C1", 
	 "Tm": 329.15, 
	 "num_atms": 30, 
	 "gaussian": { 
		 "optdone": 1, 
		 "sigma_profile": "yes", 
		 "theory": "DFT", 
		 "functional": "B3LYP", 
		 "basiset": "6-31G**", 
		 "properties": { 
			 "R2extent": 3310.4407, 
			 "electric_dipole_moment_norm": 5.23530605314, 
			 "electric_quadrupole_moment_norm": 16.2997051065, 
			 "total_energy": -617.391802003, 
			 "HOMO_LUMO_gap": 0.23531, 
			 "cosmo_polarized_energy": -13.3, 
			 "cosmo_cavitation_energy": 31.69, 
			 "cosmo_dispersion_energy": -21.89, 
			 "cosmo_repulsion_energy": 1.72, 
			 "cosmo_total_nonelectrostatic_energy": 11.52, 
			 "SMD_solvation_energy": 5.95 
		},
		"coords": [
			{
				"x": 1.3292298652,
				"y": -0.5256065705,
				"z": -3.3744044403,
				"element": "C" 
			},
			{
				"x": 0.8004914991,
				"y": 0.1479486052,
				"z": -2.1001560112,
				"element": "C" 
			},
			{
				"x": 1.2187762179,
				"y": -0.5972202151,
				"z": -0.8154890945,
				"element": "C" 
			},
			{
				"x": 0.6720965692,
				"y": -2.0360359724,
				"z": -0.6727296548,
				"element": "C" 
			},
			{
				"x": 0.765042807,
				"y": -2.54991196,
				"z": 0.757875287,
				"element": "C" 
			},
			{
				"x": -0.025287134,
				"y": -1.905751963,
				"z": 1.6607781122,
				"element": "O" 
			},
			{
				"x": 1.4776137942,
				"y": -3.4544566866,
				"z": 1.1160849885,
				"element": "O" 
			},
			{
				"x": -0.7332031977,
				"y": 0.373153832,
				"z": -2.2042007685,
				"element": "C" 
			},
			{
				"x": -1.36742475,
				"y": 0.9671828578,
				"z": -0.9633377411,
				"element": "C" 
			},
			{
				"x": -2.237969138,
				"y": 0.2113358199,
				"z": -0.1620028035,
				"element": "C" 
			},
			{
				"x": -2.792052273,
				"y": 0.7439232976,
				"z": 1.0068020482,
				"element": "C" 
			},
			{
				"x": -2.4853349429,
				"y": 2.0492314883,
				"z": 1.3931020858,
				"element": "C" 
			},
			{
				"x": -1.6315531798,
				"y": 2.8177000265,
				"z": 0.598417161,
				"element": "C" 
			},
			{
				"x": -1.0803514716,
				"y": 2.2816321838,
				"z": -0.5658498541,
				"element": "C" 
			},
			{
				"x": 0.8902242414,
				"y": -1.5195587191,
				"z": -3.5166597187,
				"element": "H" 
			},
			{
				"x": 2.4172205549,
				"y": -0.6445239259,
				"z": -3.3360433383,
				"element": "H" 
			},
			{
				"x": 1.0886674326,
				"y": 0.0683671783,
				"z": -4.2626901722,
				"element": "H" 
			},
			{
				"x": 1.2661328389,
				"y": 1.1413318758,
				"z": -2.0325933458,
				"element": "H" 
			},
			{
				"x": 2.3132081642,
				"y": -0.6350844537,
				"z": -0.7641537161,
				"element": "H" 
			},
			{
				"x": 0.8993166475,
				"y": 0.0012382818,
				"z": 0.0445620577,
				"element": "H" 
			},
			{
				"x": -0.3810926145,
				"y": -2.0752164594,
				"z": -0.9773825546,
				"element": "H" 
			},
			{
				"x": 1.2232929186,
				"y": -2.7344481495,
				"z": -1.3044516631,
				"element": "H" 
			},
			{
				"x": -0.5525516779,
				"y": -1.213163173,
				"z": 1.2306045144,
				"element": "H" 
			},
			{
				"x": -0.9163020826,
				"y": 1.0307459908,
				"z": -3.0635979321,
				"element": "H" 
			},
			{
				"x": -1.227539329,
				"y": -0.5759989394,
				"z": -2.4440203092,
				"element": "H" 
			},
			{
				"x": -2.5088407904,
				"y": -0.7960816097,
				"z": -0.4716469771,
				"element": "H" 
			},
			{
				"x": -3.4680095793,
				"y": 0.141279291,
				"z": 1.6069220105,
				"element": "H" 
			},
			{
				"x": -2.9129150084,
				"y": 2.4663484814,
				"z": 2.2998365156,
				"element": "H" 
			},
			{
				"x": -1.3953027744,
				"y": 3.8385366924,
				"z": 0.8852968641,
				"element": "H" 
			},
			{
				"x": -0.4195836073,
				"y": 2.8925028946,
				"z": -1.1762715499,
				"element": "H" 
			}
		],
		 "valence_orbital": [ 
			{
				"type": "occ",
				"energy": -0.32941,
				"method": "rhf"
			},
			{
				"type": "occ",
				"energy": -0.30219,
				"method": "rhf"
			},
			{
				"type": "occ",
				"energy": -0.26581,
				"method": "rhf"
			},
			{
				"type": "occ",
				"energy": -0.25755,
				"method": "rhf"
			},
			{
				"type": "occ",
				"energy": -0.25441,
				"method": "rhf"
			},
			{
				"type": "unocc",
				"energy": -0.0191,
				"method": "rhf"
			},
			{
				"type": "unocc",
				"energy": -0.01678,
				"method": "rhf"
			},
			{
				"type": "unocc",
				"energy": 0.01885,
				"method": "rhf"
			},
			{
				"type": "unocc",
				"energy": 0.06435,
				"method": "rhf"
			},
			{
				"type": "unocc",
				"energy": 0.07997,
				"method": "rhf"
			}
		],
		"cosmo_sigma_profile": { 
			"-0.025": 0.0,
			"-0.024": 0.0,
			"-0.023": 0.0,
			"-0.022": 0.0,
			"-0.021": 0.0,
			"-0.02": 0.0,
			"-0.019": 0.0,
			"-0.018": 0.0,
			"-0.017": 0.0,
			"-0.016": 0.0,
			"-0.015": 0.0,
			"-0.014": 0.0,
			"-0.013": 0.0258767665438,
			"-0.012": 0.114196252567,
			"-0.011": 0.525517303821,
			"-0.01": 0.601846397453,
			"-0.009": 1.29892160321,
			"-0.008": 2.3405161748,
			"-0.007": 3.78549264597,
			"-0.006": 8.52022363083,
			"-0.005": 15.5557804818,
			"-0.004": 21.9058714088,
			"-0.003": 34.4193896388,
			"-0.002": 29.9065903104,
			"-0.001": 23.8358840521,
			"0.0": 18.5635286588,
			"0.001": 16.5220873195,
			"0.002": 10.2865365229,
			"0.003": 8.7855759716,
			"0.004": 8.70656263771,
			"0.005": 8.45221739515,
			"0.006": 6.68858363817,
			"0.007": 2.29468922347,
			"0.008": 2.49432068724,
			"0.009": 2.76252375218,
			"0.01": 3.75606274476,
			"0.011": 5.90333938653,
			"0.012": 6.35444316887,
			"0.013": 3.66426611275,
			"0.014": 0.325046745196,
			"0.015": 0.0,
			"0.016": 0.0,
			"0.017": 0.0,
			"0.018": 0.0,
			"0.019": 0.0,
			"0.02": 0.0,
			"0.021": 0.0,
			"0.022": 0.0,
			"0.023": 0.0,
			"0.024": 0.0,
			"0.025": 0.0
		}
	}
}
