{
	 "smiles": "OC1=C(C=CC=C1)S(=O)(=O)C(F)(F)F", 
	 "Tm": 321.15, 
	 "num_atms": 19, 
	 "gaussian": { 
		 "optdone": 1, 
		 "sigma_profile": "yes", 
		 "theory": "DFT", 
		 "functional": "B3LYP", 
		 "basiset": "6-31G**", 
		 "properties": { 
			 "R2extent": 4837.2216, 
			 "electric_dipole_moment_norm": 5.70746546551, 
			 "electric_quadrupole_moment_norm": 22.9463493809, 
			 "total_energy": -1193.03532218, 
			 "HOMO_LUMO_gap": 0.20676, 
			 "cosmo_polarized_energy": -16.97, 
			 "cosmo_cavitation_energy": 26.37, 
			 "cosmo_dispersion_energy": -19.22, 
			 "cosmo_repulsion_energy": 1.4, 
			 "cosmo_total_nonelectrostatic_energy": 8.54, 
			 "SMD_solvation_energy": 5.41 
		},
		"coords": [
			{
				"x": -3.3769833564,
				"y": -0.1970180614,
				"z": 1.0652769263,
				"element": "O" 
			},
			{
				"x": -2.0415427371,
				"y": -0.0866484975,
				"z": 0.8733672485,
				"element": "C" 
			},
			{
				"x": -1.5932897932,
				"y": 0.3388962657,
				"z": -0.3929159611,
				"element": "C" 
			},
			{
				"x": -0.2250926098,
				"y": 0.4698583887,
				"z": -0.6449828722,
				"element": "C" 
			},
			{
				"x": 0.7021247766,
				"y": 0.1800340225,
				"z": 0.3555000642,
				"element": "C" 
			},
			{
				"x": 0.2591139688,
				"y": -0.2411669715,
				"z": 1.6091059524,
				"element": "C" 
			},
			{
				"x": -1.1027631707,
				"y": -0.3744367926,
				"z": 1.8688620989,
				"element": "C" 
			},
			{
				"x": -2.8750868584,
				"y": 0.6875031907,
				"z": -1.6138294843,
				"element": "S" 
			},
			{
				"x": -3.543210289,
				"y": -0.5558298906,
				"z": -2.0016896181,
				"element": "O" 
			},
			{
				"x": -3.6305403457,
				"y": 1.8763293449,
				"z": -1.2154536779,
				"element": "O" 
			},
			{
				"x": -1.9194128797,
				"y": 1.2183044421,
				"z": -3.1494186966,
				"element": "C" 
			},
			{
				"x": -2.8209926659,
				"y": 1.4900115455,
				"z": -4.0881713429,
				"element": "F" 
			},
			{
				"x": -1.1131834894,
				"y": 0.2400321162,
				"z": -3.5800638307,
				"element": "F" 
			},
			{
				"x": -1.1868701088,
				"y": 2.3129638235,
				"z": -2.9093070675,
				"element": "F" 
			},
			{
				"x": -3.5620435826,
				"y": -0.4946761036,
				"z": 1.9652719178,
				"element": "H" 
			},
			{
				"x": 0.1316907658,
				"y": 0.7954184125,
				"z": -1.6122738077,
				"element": "H" 
			},
			{
				"x": 1.7622167683,
				"y": 0.2843269773,
				"z": 0.1516122569,
				"element": "H" 
			},
			{
				"x": 0.9751496161,
				"y": -0.4685301017,
				"z": 2.3928926041,
				"element": "H" 
			},
			{
				"x": -1.449084009,
				"y": -0.7027721109,
				"z": 2.8460172898,
				"element": "H" 
			}
		],
		 "valence_orbital": [ 
			{
				"type": "occ",
				"energy": -0.33261,
				"method": "rhf"
			},
			{
				"type": "occ",
				"energy": -0.31809,
				"method": "rhf"
			},
			{
				"type": "occ",
				"energy": -0.30005,
				"method": "rhf"
			},
			{
				"type": "occ",
				"energy": -0.28119,
				"method": "rhf"
			},
			{
				"type": "occ",
				"energy": -0.25209,
				"method": "rhf"
			},
			{
				"type": "unocc",
				"energy": -0.04533,
				"method": "rhf"
			},
			{
				"type": "unocc",
				"energy": -0.01998,
				"method": "rhf"
			},
			{
				"type": "unocc",
				"energy": 0.01778,
				"method": "rhf"
			},
			{
				"type": "unocc",
				"energy": 0.04547,
				"method": "rhf"
			},
			{
				"type": "unocc",
				"energy": 0.05433,
				"method": "rhf"
			}
		],
		"cosmo_sigma_profile": { 
			"-0.025": 0.0,
			"-0.024": 0.0,
			"-0.023": 0.0,
			"-0.022": 0.0,
			"-0.021": 0.0,
			"-0.02": 0.244540063545,
			"-0.019": 1.18035116913,
			"-0.018": 1.09946897341,
			"-0.017": 1.39447090364,
			"-0.016": 0.906922479853,
			"-0.015": 0.871618036827,
			"-0.014": 1.3990751654,
			"-0.013": 0.933173580151,
			"-0.012": 0.647995862128,
			"-0.011": 1.10390513963,
			"-0.01": 1.14524131249,
			"-0.009": 1.26265671002,
			"-0.008": 3.86490814101,
			"-0.007": 8.29951899865,
			"-0.006": 9.84681089866,
			"-0.005": 8.55733232718,
			"-0.004": 7.23348502596,
			"-0.003": 8.05066502303,
			"-0.002": 11.8612585186,
			"-0.001": 16.5394147337,
			"0.0": 29.1045901211,
			"0.001": 28.1316470562,
			"0.002": 12.8205767372,
			"0.003": 9.63115442722,
			"0.004": 3.42608163588,
			"0.005": 2.68029678934,
			"0.006": 4.32812037403,
			"0.007": 3.55524428182,
			"0.008": 6.90969302044,
			"0.009": 12.1533696831,
			"0.01": 11.2356495679,
			"0.011": 1.63963357778,
			"0.012": 0.0,
			"0.013": 0.0,
			"0.014": 0.0,
			"0.015": 0.0,
			"0.016": 0.0,
			"0.017": 0.0,
			"0.018": 0.0,
			"0.019": 0.0,
			"0.02": 0.0,
			"0.021": 0.0,
			"0.022": 0.0,
			"0.023": 0.0,
			"0.024": 0.0,
			"0.025": 0.0
		}
	}
}
