{
	 "smiles": "OC(=O)C1CCCN1C(=O)C1=CC=C(Cl)S1", 
	 "Tm": 401.15, 
	 "num_atms": 26, 
	 "gaussian": { 
		 "optdone": 1, 
		 "sigma_profile": "yes", 
		 "theory": "DFT", 
		 "functional": "B3LYP", 
		 "basiset": "6-31G**", 
		 "properties": { 
			 "R2extent": 7026.7577, 
			 "electric_dipole_moment_norm": 5.77641445708, 
			 "electric_quadrupole_moment_norm": 15.3563773886, 
			 "total_energy": -1525.87960924, 
			 "HOMO_LUMO_gap": 0.1798, 
			 "cosmo_polarized_energy": -19.05, 
			 "cosmo_cavitation_energy": 33.1, 
			 "cosmo_dispersion_energy": -24.05, 
			 "cosmo_repulsion_energy": 1.85, 
			 "cosmo_total_nonelectrostatic_energy": 10.89, 
			 "SMD_solvation_energy": 5.17 
		},
		"coords": [
			{
				"x": -2.0078144209,
				"y": 0.5705468199,
				"z": -1.9495249707,
				"element": "O" 
			},
			{
				"x": -0.7637132706,
				"y": 0.0334615304,
				"z": -1.9844081534,
				"element": "C" 
			},
			{
				"x": -0.3958375066,
				"y": -0.6341533731,
				"z": -2.9158870467,
				"element": "O" 
			},
			{
				"x": 0.176826003,
				"y": 0.4966253697,
				"z": -0.8739553802,
				"element": "C" 
			},
			{
				"x": 1.5070866716,
				"y": -0.2532107655,
				"z": -0.7457740863,
				"element": "C" 
			},
			{
				"x": 2.0173092309,
				"y": 0.1787925981,
				"z": 0.6543248073,
				"element": "C" 
			},
			{
				"x": 0.8003388428,
				"y": 0.8732343987,
				"z": 1.3393029946,
				"element": "C" 
			},
			{
				"x": -0.3772456676,
				"y": 0.5176282351,
				"z": 0.5022244186,
				"element": "N" 
			},
			{
				"x": -1.1623744177,
				"y": -0.5832051594,
				"z": 0.8788624847,
				"element": "C" 
			},
			{
				"x": -1.442551423,
				"y": -1.4874099543,
				"z": 0.1014824421,
				"element": "O" 
			},
			{
				"x": -1.7392289308,
				"y": -0.5711605848,
				"z": 2.2445841134,
				"element": "C" 
			},
			{
				"x": -2.2866830636,
				"y": -1.6745429983,
				"z": 2.8566569921,
				"element": "C" 
			},
			{
				"x": -2.8693005852,
				"y": -1.3995209369,
				"z": 4.1219369549,
				"element": "C" 
			},
			{
				"x": -2.7737601291,
				"y": -0.0710855954,
				"z": 4.4468026123,
				"element": "C" 
			},
			{
				"x": -3.3627950045,
				"y": 0.6856197933,
				"z": 5.8846179593,
				"element": "Cl" 
			},
			{
				"x": -1.9673145749,
				"y": 0.8657507608,
				"z": 3.2237715427,
				"element": "S" 
			},
			{
				"x": -2.138981778,
				"y": 1.0374554627,
				"z": -1.1104798776,
				"element": "H" 
			},
			{
				"x": 0.3875594154,
				"y": 1.5520394629,
				"z": -1.108890305,
				"element": "H" 
			},
			{
				"x": 1.3130384863,
				"y": -1.3271093856,
				"z": -0.7953827542,
				"element": "H" 
			},
			{
				"x": 2.1968678528,
				"y": -0.0014135365,
				"z": -1.5533248987,
				"element": "H" 
			},
			{
				"x": 2.8614570052,
				"y": 0.8710284784,
				"z": 0.5869344127,
				"element": "H" 
			},
			{
				"x": 2.3522185605,
				"y": -0.6836922071,
				"z": 1.2366492231,
				"element": "H" 
			},
			{
				"x": 0.9146456574,
				"y": 1.961866231,
				"z": 1.3375971838,
				"element": "H" 
			},
			{
				"x": 0.6499882874,
				"y": 0.5526387648,
				"z": 2.3689048778,
				"element": "H" 
			},
			{
				"x": -2.2699088726,
				"y": -2.6499011409,
				"z": 2.3855864922,
				"element": "H" 
			},
			{
				"x": -3.3412263681,
				"y": -2.136182268,
				"z": 4.7596879609,
				"element": "H" 
			}
		],
		 "valence_orbital": [ 
			{
				"type": "occ",
				"energy": -0.29201,
				"method": "rhf"
			},
			{
				"type": "occ",
				"energy": -0.28257,
				"method": "rhf"
			},
			{
				"type": "occ",
				"energy": -0.26785,
				"method": "rhf"
			},
			{
				"type": "occ",
				"energy": -0.26397,
				"method": "rhf"
			},
			{
				"type": "occ",
				"energy": -0.25112,
				"method": "rhf"
			},
			{
				"type": "unocc",
				"energy": -0.07132,
				"method": "rhf"
			},
			{
				"type": "unocc",
				"energy": -0.00657,
				"method": "rhf"
			},
			{
				"type": "unocc",
				"energy": 0.00209,
				"method": "rhf"
			},
			{
				"type": "unocc",
				"energy": 0.01347,
				"method": "rhf"
			},
			{
				"type": "unocc",
				"energy": 0.01731,
				"method": "rhf"
			}
		],
		"cosmo_sigma_profile": { 
			"-0.025": 0.0,
			"-0.024": 0.0,
			"-0.023": 0.0,
			"-0.022": 0.0,
			"-0.021": 0.0,
			"-0.02": 0.0,
			"-0.019": 0.0,
			"-0.018": 0.0,
			"-0.017": 0.472420856036,
			"-0.016": 0.848279629209,
			"-0.015": 0.695917127832,
			"-0.014": 0.814238024672,
			"-0.013": 1.16254686269,
			"-0.012": 0.617336246464,
			"-0.011": 0.865674337639,
			"-0.01": 1.66666026562,
			"-0.009": 2.71335598498,
			"-0.008": 7.25095227967,
			"-0.007": 6.72569800018,
			"-0.006": 9.32588801483,
			"-0.005": 14.8294453926,
			"-0.004": 22.5700943502,
			"-0.003": 21.1822460114,
			"-0.002": 19.1938613296,
			"-0.001": 21.3363276667,
			"0.0": 25.4450434696,
			"0.001": 22.8926466539,
			"0.002": 19.9659645892,
			"0.003": 15.6139370802,
			"0.004": 4.15505903652,
			"0.005": 3.18374119691,
			"0.006": 2.66815290552,
			"0.007": 3.82180011087,
			"0.008": 6.20804541819,
			"0.009": 6.06547813158,
			"0.01": 7.79780938071,
			"0.011": 8.23472549243,
			"0.012": 6.96073123514,
			"0.013": 1.5993611629,
			"0.014": 0.0,
			"0.015": 0.0,
			"0.016": 0.0,
			"0.017": 0.0,
			"0.018": 0.0,
			"0.019": 0.0,
			"0.02": 0.0,
			"0.021": 0.0,
			"0.022": 0.0,
			"0.023": 0.0,
			"0.024": 0.0,
			"0.025": 0.0
		}
	}
}
