{
	 "smiles": "CSC1=C(C#N)C(O)=NS1", 
	 "Tm": 504.15, 
	 "num_atms": 14, 
	 "gaussian": { 
		 "optdone": 1, 
		 "sigma_profile": "yes", 
		 "theory": "DFT", 
		 "functional": "B3LYP", 
		 "basiset": "6-31G**", 
		 "properties": { 
			 "R2extent": 3022.0747, 
			 "electric_dipole_moment_norm": 4.30769023027, 
			 "electric_quadrupole_moment_norm": 15.5891451267, 
			 "total_energy": -1174.00002493, 
			 "HOMO_LUMO_gap": 0.18395, 
			 "cosmo_polarized_energy": -14.23, 
			 "cosmo_cavitation_energy": 22.84, 
			 "cosmo_dispersion_energy": -17.44, 
			 "cosmo_repulsion_energy": 1.32, 
			 "cosmo_total_nonelectrostatic_energy": 6.71, 
			 "SMD_solvation_energy": 4.23 
		},
		"coords": [
			{
				"x": 3.1880659852,
				"y": 0.2160771218,
				"z": -0.2945995467,
				"element": "C" 
			},
			{
				"x": 1.3801832416,
				"y": 0.2706861178,
				"z": -0.0400269338,
				"element": "S" 
			},
			{
				"x": 0.8237359867,
				"y": -0.8307118228,
				"z": -1.2743413121,
				"element": "C" 
			},
			{
				"x": -0.4998982942,
				"y": -1.1651221389,
				"z": -1.527563917,
				"element": "C" 
			},
			{
				"x": -1.647239558,
				"y": -0.688125473,
				"z": -0.8471802621,
				"element": "C" 
			},
			{
				"x": -2.6382507181,
				"y": -0.343803439,
				"z": -0.3385538817,
				"element": "N" 
			},
			{
				"x": -0.5852538283,
				"y": -2.1064156254,
				"z": -2.6235539439,
				"element": "C" 
			},
			{
				"x": -1.741588249,
				"y": -2.6071945148,
				"z": -3.089974766,
				"element": "O" 
			},
			{
				"x": 0.5383084633,
				"y": -2.478908851,
				"z": -3.1788941066,
				"element": "N" 
			},
			{
				"x": 1.8122339153,
				"y": -1.7055031411,
				"z": -2.4050384639,
				"element": "S" 
			},
			{
				"x": 3.6099959134,
				"y": 0.8902712658,
				"z": 0.4526611168,
				"element": "H" 
			},
			{
				"x": 3.5774211391,
				"y": -0.7907702989,
				"z": -0.1290001482,
				"element": "H" 
			},
			{
				"x": 3.4549547406,
				"y": 0.5740628578,
				"z": -1.2912775441,
				"element": "H" 
			},
			{
				"x": -2.4824687376,
				"y": -2.2429420583,
				"z": -2.5829562908,
				"element": "H" 
			}
		],
		 "valence_orbital": [ 
			{
				"type": "occ",
				"energy": -0.35473,
				"method": "rhf"
			},
			{
				"type": "occ",
				"energy": -0.32187,
				"method": "rhf"
			},
			{
				"type": "occ",
				"energy": -0.31112,
				"method": "rhf"
			},
			{
				"type": "occ",
				"energy": -0.2615,
				"method": "rhf"
			},
			{
				"type": "occ",
				"energy": -0.24732,
				"method": "rhf"
			},
			{
				"type": "unocc",
				"energy": -0.06337,
				"method": "rhf"
			},
			{
				"type": "unocc",
				"energy": -0.02653,
				"method": "rhf"
			},
			{
				"type": "unocc",
				"energy": -0.01274,
				"method": "rhf"
			},
			{
				"type": "unocc",
				"energy": 0.00559,
				"method": "rhf"
			},
			{
				"type": "unocc",
				"energy": 0.02049,
				"method": "rhf"
			}
		],
		"cosmo_sigma_profile": { 
			"-0.025": 0.0,
			"-0.024": 0.0,
			"-0.023": 0.0,
			"-0.022": 0.0,
			"-0.021": 0.0,
			"-0.02": 0.0,
			"-0.019": 0.0,
			"-0.018": 0.329636178046,
			"-0.017": 0.625874744614,
			"-0.016": 1.03477373005,
			"-0.015": 0.756926517088,
			"-0.014": 0.671387718981,
			"-0.013": 1.60767164668,
			"-0.012": 1.52918163506,
			"-0.011": 0.584127145844,
			"-0.01": 0.998494400604,
			"-0.009": 2.50326674365,
			"-0.008": 4.99198051004,
			"-0.007": 8.54900622274,
			"-0.006": 9.13656313872,
			"-0.005": 9.56000336608,
			"-0.004": 10.3936952824,
			"-0.003": 14.2632521603,
			"-0.002": 14.7501182257,
			"-0.001": 14.7133820932,
			"0.0": 11.6646417798,
			"0.001": 12.5785138697,
			"0.002": 9.46065562023,
			"0.003": 7.10040379866,
			"0.004": 6.43671093804,
			"0.005": 6.63404210109,
			"0.006": 3.57989854478,
			"0.007": 5.13302059308,
			"0.008": 6.34762094139,
			"0.009": 7.85735851593,
			"0.01": 5.47184916865,
			"0.011": 3.94450925955,
			"0.012": 3.43869355433,
			"0.013": 1.49467011307,
			"0.014": 0.433947870767,
			"0.015": 0.0,
			"0.016": 0.0,
			"0.017": 0.0,
			"0.018": 0.0,
			"0.019": 0.0,
			"0.02": 0.0,
			"0.021": 0.0,
			"0.022": 0.0,
			"0.023": 0.0,
			"0.024": 0.0,
			"0.025": 0.0
		}
	}
}
