{
	 "smiles": "N#CCC1=NC2=C(S1)C=CC=C2", 
	 "Tm": 375.15, 
	 "num_atms": 18, 
	 "gaussian": { 
		 "optdone": 1, 
		 "sigma_profile": "yes", 
		 "theory": "DFT", 
		 "functional": "B3LYP", 
		 "basiset": "6-31G**", 
		 "properties": { 
			 "R2extent": 3488.454, 
			 "electric_dipole_moment_norm": 3.7384089918, 
			 "electric_quadrupole_moment_norm": 23.5236181892, 
			 "total_energy": -854.249460718, 
			 "HOMO_LUMO_gap": 0.19672, 
			 "cosmo_polarized_energy": -11.06, 
			 "cosmo_cavitation_energy": 25.16, 
			 "cosmo_dispersion_energy": -18.61, 
			 "cosmo_repulsion_energy": 1.43, 
			 "cosmo_total_nonelectrostatic_energy": 7.98, 
			 "SMD_solvation_energy": 3.45 
		},
		"coords": [
			{
				"x": 1.6509358736,
				"y": 3.4765097003,
				"z": 4.6321232016,
				"element": "N" 
			},
			{
				"x": 1.9624936742,
				"y": 3.0476756298,
				"z": 3.6001907798,
				"element": "C" 
			},
			{
				"x": 2.3665552939,
				"y": 2.4957356406,
				"z": 2.303330521,
				"element": "C" 
			},
			{
				"x": 1.2265402682,
				"y": 1.9383803041,
				"z": 1.4820769439,
				"element": "C" 
			},
			{
				"x": 1.1337785244,
				"y": 2.1457109617,
				"z": 0.2105565981,
				"element": "N" 
			},
			{
				"x": 0.0411606648,
				"y": 1.4775375464,
				"z": -0.3244315334,
				"element": "C" 
			},
			{
				"x": -0.7236960395,
				"y": 0.7312053265,
				"z": 0.6047490812,
				"element": "C" 
			},
			{
				"x": -0.0186365605,
				"y": 0.8981840971,
				"z": 2.2011244952,
				"element": "S" 
			},
			{
				"x": -1.8557578551,
				"y": 0.0148370382,
				"z": 0.2077907472,
				"element": "C" 
			},
			{
				"x": -2.2117662777,
				"y": 0.0501971227,
				"z": -1.1377888888,
				"element": "C" 
			},
			{
				"x": -1.4592058822,
				"y": 0.7861864703,
				"z": -2.0703829821,
				"element": "C" 
			},
			{
				"x": -0.3358010127,
				"y": 1.5013571439,
				"z": -1.6750004035,
				"element": "C" 
			},
			{
				"x": 3.1169030561,
				"y": 1.7140170721,
				"z": 2.4822335035,
				"element": "H" 
			},
			{
				"x": 2.8471585493,
				"y": 3.275598783,
				"z": 1.7047690149,
				"element": "H" 
			},
			{
				"x": -2.4413021494,
				"y": -0.5535012486,
				"z": 0.9230205906,
				"element": "H" 
			},
			{
				"x": -3.0865266765,
				"y": -0.500381538,
				"z": -1.4704227222,
				"element": "H" 
			},
			{
				"x": -1.7625828768,
				"y": 0.7949587421,
				"z": -3.1127426058,
				"element": "H" 
			},
			{
				"x": 0.2546494259,
				"y": 2.0754912077,
				"z": -2.3811963411,
				"element": "H" 
			}
		],
		 "valence_orbital": [ 
			{
				"type": "occ",
				"energy": -0.33354,
				"method": "rhf"
			},
			{
				"type": "occ",
				"energy": -0.31393,
				"method": "rhf"
			},
			{
				"type": "occ",
				"energy": -0.29217,
				"method": "rhf"
			},
			{
				"type": "occ",
				"energy": -0.25093,
				"method": "rhf"
			},
			{
				"type": "occ",
				"energy": -0.24604,
				"method": "rhf"
			},
			{
				"type": "unocc",
				"energy": -0.04932,
				"method": "rhf"
			},
			{
				"type": "unocc",
				"energy": -0.01627,
				"method": "rhf"
			},
			{
				"type": "unocc",
				"energy": -0.00706,
				"method": "rhf"
			},
			{
				"type": "unocc",
				"energy": 0.01709,
				"method": "rhf"
			},
			{
				"type": "unocc",
				"energy": 0.03069,
				"method": "rhf"
			}
		],
		"cosmo_sigma_profile": { 
			"-0.025": 0.0,
			"-0.024": 0.0,
			"-0.023": 0.0,
			"-0.022": 0.0,
			"-0.021": 0.0,
			"-0.02": 0.0,
			"-0.019": 0.0,
			"-0.018": 0.0,
			"-0.017": 0.0,
			"-0.016": 0.0,
			"-0.015": 0.0,
			"-0.014": 0.0,
			"-0.013": 0.0,
			"-0.012": 0.0,
			"-0.011": 1.2056492981,
			"-0.01": 4.73434716513,
			"-0.009": 5.32452037563,
			"-0.008": 4.33286240532,
			"-0.007": 9.26642361831,
			"-0.006": 12.6458256161,
			"-0.005": 11.7178088343,
			"-0.004": 10.9940922843,
			"-0.003": 9.71447296828,
			"-0.002": 11.1857901638,
			"-0.001": 12.1876974826,
			"0.0": 13.0813901153,
			"0.001": 16.242802479,
			"0.002": 17.8079148498,
			"0.003": 17.218981931,
			"0.004": 13.320540325,
			"0.005": 6.74319871464,
			"0.006": 3.7855203549,
			"0.007": 4.16316626455,
			"0.008": 4.42946072201,
			"0.009": 3.98064396035,
			"0.01": 4.10543650695,
			"0.011": 3.20342530269,
			"0.012": 2.90224493441,
			"0.013": 1.42862647061,
			"0.014": 0.24493330286,
			"0.015": 0.0,
			"0.016": 0.0,
			"0.017": 0.0,
			"0.018": 0.0,
			"0.019": 0.0,
			"0.02": 0.0,
			"0.021": 0.0,
			"0.022": 0.0,
			"0.023": 0.0,
			"0.024": 0.0,
			"0.025": 0.0
		}
	}
}
