{
	 "smiles": "CSC1=CC(Cl)=C(C=C1)C#N", 
	 "Tm": 391.15, 
	 "num_atms": 17, 
	 "gaussian": { 
		 "optdone": 1, 
		 "sigma_profile": "yes", 
		 "theory": "DFT", 
		 "functional": "B3LYP", 
		 "basiset": "6-31G**", 
		 "properties": { 
			 "R2extent": 3219.8967, 
			 "electric_dipole_moment_norm": 6.26382677363, 
			 "electric_quadrupole_moment_norm": 8.5309161331, 
			 "total_energy": -1221.57935275, 
			 "HOMO_LUMO_gap": 0.17663, 
			 "cosmo_polarized_energy": -11.31, 
			 "cosmo_cavitation_energy": 25.68, 
			 "cosmo_dispersion_energy": -18.9, 
			 "cosmo_repulsion_energy": 1.47, 
			 "cosmo_total_nonelectrostatic_energy": 8.25, 
			 "SMD_solvation_energy": 5.44 
		},
		"coords": [
			{
				"x": -0.4179083388,
				"y": -3.8671296374,
				"z": 1.300389829,
				"element": "C" 
			},
			{
				"x": 0.9345129011,
				"y": -3.4321417077,
				"z": 0.1604044729,
				"element": "S" 
			},
			{
				"x": 0.7380923938,
				"y": -1.6857100138,
				"z": -0.076015004,
				"element": "C" 
			},
			{
				"x": 1.6681655613,
				"y": -1.0680265313,
				"z": -0.930563258,
				"element": "C" 
			},
			{
				"x": 1.5947942836,
				"y": 0.2953167726,
				"z": -1.177049883,
				"element": "C" 
			},
			{
				"x": 2.7688553546,
				"y": 1.0243307789,
				"z": -2.2443752908,
				"element": "Cl" 
			},
			{
				"x": 0.5928357284,
				"y": 1.0884288778,
				"z": -0.5806833145,
				"element": "C" 
			},
			{
				"x": -0.3291764182,
				"y": 0.4574123683,
				"z": 0.2706462898,
				"element": "C" 
			},
			{
				"x": -0.2638351156,
				"y": -0.9074930474,
				"z": 0.5236223693,
				"element": "C" 
			},
			{
				"x": 0.4927441046,
				"y": 2.4948338682,
				"z": -0.8162316002,
				"element": "C" 
			},
			{
				"x": 0.3773967232,
				"y": 3.6405526712,
				"z": -0.9819966106,
				"element": "N" 
			},
			{
				"x": -0.3213519348,
				"y": -4.9421296116,
				"z": 1.4648006018,
				"element": "H" 
			},
			{
				"x": -0.3159922452,
				"y": -3.3531101291,
				"z": 2.258666175,
				"element": "H" 
			},
			{
				"x": -1.3960416998,
				"y": -3.664204947,
				"z": 0.8588140115,
				"element": "H" 
			},
			{
				"x": 2.4506542419,
				"y": -1.6507769498,
				"z": -1.4043805464,
				"element": "H" 
			},
			{
				"x": -1.1043646048,
				"y": 1.0578444677,
				"z": 0.7349326232,
				"element": "H" 
			},
			{
				"x": -0.9949809353,
				"y": -1.3531972294,
				"z": 1.186419135,
				"element": "H" 
			}
		],
		 "valence_orbital": [ 
			{
				"type": "occ",
				"energy": -0.33574,
				"method": "rhf"
			},
			{
				"type": "occ",
				"energy": -0.32407,
				"method": "rhf"
			},
			{
				"type": "occ",
				"energy": -0.301,
				"method": "rhf"
			},
			{
				"type": "occ",
				"energy": -0.27134,
				"method": "rhf"
			},
			{
				"type": "occ",
				"energy": -0.23613,
				"method": "rhf"
			},
			{
				"type": "unocc",
				"energy": -0.0595,
				"method": "rhf"
			},
			{
				"type": "unocc",
				"energy": -0.03648,
				"method": "rhf"
			},
			{
				"type": "unocc",
				"energy": 0.00702,
				"method": "rhf"
			},
			{
				"type": "unocc",
				"energy": 0.01583,
				"method": "rhf"
			},
			{
				"type": "unocc",
				"energy": 0.03532,
				"method": "rhf"
			}
		],
		"cosmo_sigma_profile": { 
			"-0.025": 0.0,
			"-0.024": 0.0,
			"-0.023": 0.0,
			"-0.022": 0.0,
			"-0.021": 0.0,
			"-0.02": 0.0,
			"-0.019": 0.0,
			"-0.018": 0.0,
			"-0.017": 0.0,
			"-0.016": 0.0,
			"-0.015": 0.0,
			"-0.014": 0.0,
			"-0.013": 0.0,
			"-0.012": 0.0,
			"-0.011": 0.0,
			"-0.01": 0.0,
			"-0.009": 1.31284440299,
			"-0.008": 6.93446764003,
			"-0.007": 13.1388279612,
			"-0.006": 11.9144004104,
			"-0.005": 10.7905654725,
			"-0.004": 9.5806262162,
			"-0.003": 12.661096784,
			"-0.002": 16.3780923044,
			"-0.001": 15.8586917215,
			"0.0": 17.9325337659,
			"0.001": 21.0520022584,
			"0.002": 14.9374220403,
			"0.003": 15.3343530388,
			"0.004": 10.4091535988,
			"0.005": 5.11489168946,
			"0.006": 6.63746789886,
			"0.007": 4.6119837958,
			"0.008": 3.94594981961,
			"0.009": 3.43047019649,
			"0.01": 3.08131315833,
			"0.011": 2.75376881197,
			"0.012": 2.51246280589,
			"0.013": 1.15192540016,
			"0.014": 0.0,
			"0.015": 0.0,
			"0.016": 0.0,
			"0.017": 0.0,
			"0.018": 0.0,
			"0.019": 0.0,
			"0.02": 0.0,
			"0.021": 0.0,
			"0.022": 0.0,
			"0.023": 0.0,
			"0.024": 0.0,
			"0.025": 0.0
		}
	}
}
