{
	 "smiles": "CC1=NN=C(SCC(O)=O)N1CC1=CC=CC=C1", 
	 "Tm": 441.15, 
	 "num_atms": 31, 
	 "gaussian": { 
		 "optdone": 1, 
		 "sigma_profile": "yes", 
		 "theory": "DFT", 
		 "functional": "B3LYP", 
		 "basiset": "6-31G**", 
		 "properties": { 
			 "R2extent": 5121.9654, 
			 "electric_dipole_moment_norm": 7.74164398109, 
			 "electric_quadrupole_moment_norm": 11.4187162207, 
			 "total_energy": -1177.98958322, 
			 "HOMO_LUMO_gap": 0.21246, 
			 "cosmo_polarized_energy": -23.81, 
			 "cosmo_cavitation_energy": 36.44, 
			 "cosmo_dispersion_energy": -25.15, 
			 "cosmo_repulsion_energy": 1.9, 
			 "cosmo_total_nonelectrostatic_energy": 13.2, 
			 "SMD_solvation_energy": 4.79 
		},
		"coords": [
			{
				"x": 1.9209588357,
				"y": -2.499575384,
				"z": -1.080413443,
				"element": "C" 
			},
			{
				"x": 0.6066091013,
				"y": -2.1789696172,
				"z": -0.4530985197,
				"element": "C" 
			},
			{
				"x": 0.1514458919,
				"y": -2.6993442246,
				"z": 0.6627201852,
				"element": "N" 
			},
			{
				"x": -1.099809327,
				"y": -2.1615183918,
				"z": 0.9025918536,
				"element": "N" 
			},
			{
				"x": -1.3538417597,
				"y": -1.3264175745,
				"z": -0.0733204234,
				"element": "C" 
			},
			{
				"x": -2.8281582367,
				"y": -0.359965764,
				"z": -0.2645245706,
				"element": "S" 
			},
			{
				"x": -3.3047636872,
				"y": -0.2271838912,
				"z": 1.5038684677,
				"element": "C" 
			},
			{
				"x": -2.6423061651,
				"y": 0.889746335,
				"z": 2.3246121744,
				"element": "C" 
			},
			{
				"x": -1.8348356166,
				"y": 1.7538813379,
				"z": 1.6849447861,
				"element": "O" 
			},
			{
				"x": -2.8673026454,
				"y": 0.9797745271,
				"z": 3.5051154677,
				"element": "O" 
			},
			{
				"x": -0.3146719164,
				"y": -1.2899948059,
				"z": -0.9736373329,
				"element": "N" 
			},
			{
				"x": -0.1681337641,
				"y": -0.4283681154,
				"z": -2.1402119629,
				"element": "C" 
			},
			{
				"x": 0.275120155,
				"y": 0.9952065019,
				"z": -1.8281514342,
				"element": "C" 
			},
			{
				"x": 0.2281795843,
				"y": 1.9479569656,
				"z": -2.854726108,
				"element": "C" 
			},
			{
				"x": 0.639398074,
				"y": 3.2592792269,
				"z": -2.6235832583,
				"element": "C" 
			},
			{
				"x": 1.0959907335,
				"y": 3.6384096883,
				"z": -1.3583410088,
				"element": "C" 
			},
			{
				"x": 1.1417200193,
				"y": 2.6965169495,
				"z": -0.331611061,
				"element": "C" 
			},
			{
				"x": 0.7378228574,
				"y": 1.3781285908,
				"z": -0.5653042091,
				"element": "C" 
			},
			{
				"x": 2.4356088652,
				"y": -3.2130434518,
				"z": -0.435395036,
				"element": "H" 
			},
			{
				"x": 1.8018402372,
				"y": -2.953883156,
				"z": -2.0708452621,
				"element": "H" 
			},
			{
				"x": 2.5508194034,
				"y": -1.6099537918,
				"z": -1.189567692,
				"element": "H" 
			},
			{
				"x": -4.385884067,
				"y": -0.0691030341,
				"z": 1.5168747163,
				"element": "H" 
			},
			{
				"x": -3.0880615691,
				"y": -1.1819558588,
				"z": 1.9858188393,
				"element": "H" 
			},
			{
				"x": -1.7966820752,
				"y": 1.5351258983,
				"z": 0.7356928072,
				"element": "H" 
			},
			{
				"x": -1.1204719441,
				"y": -0.4127334215,
				"z": -2.6805446189,
				"element": "H" 
			},
			{
				"x": 0.5536270482,
				"y": -0.9108784653,
				"z": -2.8069754282,
				"element": "H" 
			},
			{
				"x": -0.135863742,
				"y": 1.6630094736,
				"z": -3.8394682738,
				"element": "H" 
			},
			{
				"x": 0.5957970005,
				"y": 3.9873257024,
				"z": -3.4283834262,
				"element": "H" 
			},
			{
				"x": 1.4086066275,
				"y": 4.661930532,
				"z": -1.1750285468,
				"element": "H" 
			},
			{
				"x": 1.4866880595,
				"y": 2.9814765928,
				"z": 0.6575615225,
				"element": "H" 
			},
			{
				"x": 0.7796540216,
				"y": 0.6561206259,
				"z": 0.244230796,
				"element": "H" 
			}
		],
		 "valence_orbital": [ 
			{
				"type": "occ",
				"energy": -0.27425,
				"method": "rhf"
			},
			{
				"type": "occ",
				"energy": -0.26951,
				"method": "rhf"
			},
			{
				"type": "occ",
				"energy": -0.26603,
				"method": "rhf"
			},
			{
				"type": "occ",
				"energy": -0.26071,
				"method": "rhf"
			},
			{
				"type": "occ",
				"energy": -0.23777,
				"method": "rhf"
			},
			{
				"type": "unocc",
				"energy": -0.02531,
				"method": "rhf"
			},
			{
				"type": "unocc",
				"energy": -0.02166,
				"method": "rhf"
			},
			{
				"type": "unocc",
				"energy": -0.01192,
				"method": "rhf"
			},
			{
				"type": "unocc",
				"energy": 0.00812,
				"method": "rhf"
			},
			{
				"type": "unocc",
				"energy": 0.01612,
				"method": "rhf"
			}
		],
		"cosmo_sigma_profile": { 
			"-0.025": 0.0,
			"-0.024": 0.0,
			"-0.023": 0.0,
			"-0.022": 0.0,
			"-0.021": 0.0,
			"-0.02": 0.0,
			"-0.019": 0.0,
			"-0.018": 0.0,
			"-0.017": 0.0,
			"-0.016": 0.0,
			"-0.015": 0.0,
			"-0.014": 0.00121513121277,
			"-0.013": 0.0255935827013,
			"-0.012": 0.0745671887051,
			"-0.011": 0.585514727113,
			"-0.01": 4.32423558055,
			"-0.009": 4.34449684397,
			"-0.008": 9.96422695714,
			"-0.007": 11.8651891808,
			"-0.006": 21.8209975632,
			"-0.005": 26.2597284512,
			"-0.004": 24.5264925421,
			"-0.003": 19.6216464106,
			"-0.002": 19.5686873656,
			"-0.001": 16.3055632161,
			"0.0": 14.6092012985,
			"0.001": 13.1811117036,
			"0.002": 15.5896513276,
			"0.003": 12.530365462,
			"0.004": 12.2690999204,
			"0.005": 13.2700314367,
			"0.006": 6.05456894616,
			"0.007": 4.24904941652,
			"0.008": 4.51307868216,
			"0.009": 5.76376039032,
			"0.01": 7.04181358902,
			"0.011": 6.93500558867,
			"0.012": 6.89137397989,
			"0.013": 4.25707523675,
			"0.014": 2.94642455527,
			"0.015": 1.41445675545,
			"0.016": 1.16564862789,
			"0.017": 0.605684776133,
			"0.018": 0.0,
			"0.019": 0.0,
			"0.02": 0.0,
			"0.021": 0.0,
			"0.022": 0.0,
			"0.023": 0.0,
			"0.024": 0.0,
			"0.025": 0.0
		}
	}
}
