{
	 "smiles": "COC1=CC(=CC(Br)=C1)[N+]([O-])=O", 
	 "Tm": 360.15, 
	 "num_atms": 18, 
	 "gaussian": { 
		 "optdone": 1, 
		 "sigma_profile": "yes", 
		 "theory": "DFT", 
		 "functional": "B3LYP", 
		 "basiset": "6-31G**", 
		 "properties": { 
			 "R2extent": 5045.6501, 
			 "electric_dipole_moment_norm": 4.009533625, 
			 "electric_quadrupole_moment_norm": 10.0360837845, 
			 "total_energy": -3122.07292627, 
			 "HOMO_LUMO_gap": 0.15655, 
			 "cosmo_polarized_energy": -8.4, 
			 "cosmo_cavitation_energy": 25.65, 
			 "cosmo_dispersion_energy": -19.23, 
			 "cosmo_repulsion_energy": 1.54, 
			 "cosmo_total_nonelectrostatic_energy": 7.96, 
			 "SMD_solvation_energy": 6.4 
		},
		"coords": [
			{
				"x": -0.1736389748,
				"y": -0.7043344637,
				"z": -2.707390122,
				"element": "C" 
			},
			{
				"x": 0.0454963957,
				"y": -1.7151569633,
				"z": -1.7283259032,
				"element": "O" 
			},
			{
				"x": 0.5063380193,
				"y": -1.3418709848,
				"z": -0.5093840706,
				"element": "C" 
			},
			{
				"x": 0.7857383188,
				"y": -0.0234907712,
				"z": -0.1379487571,
				"element": "C" 
			},
			{
				"x": 1.2551966169,
				"y": 0.2063020375,
				"z": 1.1545614221,
				"element": "C" 
			},
			{
				"x": 1.4594310779,
				"y": -0.8005056577,
				"z": 2.0896077172,
				"element": "C" 
			},
			{
				"x": 1.1704112819,
				"y": -2.1041915749,
				"z": 1.6851841393,
				"element": "C" 
			},
			{
				"x": 1.4281379303,
				"y": -3.5347738128,
				"z": 2.9193337375,
				"element": "Br" 
			},
			{
				"x": 0.700612651,
				"y": -2.3882897725,
				"z": 0.4098405995,
				"element": "C" 
			},
			{
				"x": 1.5506932527,
				"y": 1.5984295089,
				"z": 1.547982008,
				"element": "N" 
			},
			{
				"x": 1.9643131959,
				"y": 1.7928453028,
				"z": 2.6888356159,
				"element": "O" 
			},
			{
				"x": 1.3647397556,
				"y": 2.4782898807,
				"z": 0.7080598565,
				"element": "O" 
			},
			{
				"x": -0.9274253342,
				"y": 0.0191360799,
				"z": -2.3741970485,
				"element": "H" 
			},
			{
				"x": -0.5375853025,
				"y": -1.2239535584,
				"z": -3.5939402155,
				"element": "H" 
			},
			{
				"x": 0.7552948206,
				"y": -0.174954579,
				"z": -2.951235855,
				"element": "H" 
			},
			{
				"x": 0.6549647282,
				"y": 0.8177967377,
				"z": -0.8027473288,
				"element": "H" 
			},
			{
				"x": 1.8254971606,
				"y": -0.5664762838,
				"z": 3.07906375,
				"element": "H" 
			},
			{
				"x": 0.4783844059,
				"y": -3.4030011255,
				"z": 0.1030004546,
				"element": "H" 
			}
		],
		 "valence_orbital": [ 
			{
				"type": "occ",
				"energy": -0.31478,
				"method": "rhf"
			},
			{
				"type": "occ",
				"energy": -0.30139,
				"method": "rhf"
			},
			{
				"type": "occ",
				"energy": -0.29694,
				"method": "rhf"
			},
			{
				"type": "occ",
				"energy": -0.26931,
				"method": "rhf"
			},
			{
				"type": "occ",
				"energy": -0.25296,
				"method": "rhf"
			},
			{
				"type": "unocc",
				"energy": -0.09641,
				"method": "rhf"
			},
			{
				"type": "unocc",
				"energy": -0.02773,
				"method": "rhf"
			},
			{
				"type": "unocc",
				"energy": -0.0097,
				"method": "rhf"
			},
			{
				"type": "unocc",
				"energy": -0.00479,
				"method": "rhf"
			},
			{
				"type": "unocc",
				"energy": 0.08351,
				"method": "rhf"
			}
		],
		"cosmo_sigma_profile": { 
			"-0.025": 0.0,
			"-0.024": 0.0,
			"-0.023": 0.0,
			"-0.022": 0.0,
			"-0.021": 0.0,
			"-0.02": 0.0,
			"-0.019": 0.0,
			"-0.018": 0.0,
			"-0.017": 0.0,
			"-0.016": 0.0,
			"-0.015": 0.0,
			"-0.014": 0.0,
			"-0.013": 0.0,
			"-0.012": 0.0,
			"-0.011": 0.0,
			"-0.01": 0.0,
			"-0.009": 0.286645817457,
			"-0.008": 3.57289935532,
			"-0.007": 7.25040666159,
			"-0.006": 13.8557282421,
			"-0.005": 13.4774175077,
			"-0.004": 15.4717367277,
			"-0.003": 12.2783126342,
			"-0.002": 13.559786874,
			"-0.001": 18.0033350981,
			"0.0": 25.6025922222,
			"0.001": 15.7195736098,
			"0.002": 9.97499355812,
			"0.003": 12.1659389188,
			"0.004": 13.5272878308,
			"0.005": 5.00156656279,
			"0.006": 4.99389108302,
			"0.007": 10.6883632448,
			"0.008": 7.29575925581,
			"0.009": 4.86064638248,
			"0.01": 1.51066749618,
			"0.011": 0.0,
			"0.012": 0.0,
			"0.013": 0.0,
			"0.014": 0.0,
			"0.015": 0.0,
			"0.016": 0.0,
			"0.017": 0.0,
			"0.018": 0.0,
			"0.019": 0.0,
			"0.02": 0.0,
			"0.021": 0.0,
			"0.022": 0.0,
			"0.023": 0.0,
			"0.024": 0.0,
			"0.025": 0.0
		}
	}
}
