{
	 "smiles": "CCOC(=O)C1=CC=C(F)C=C1F", 
	 "Tm": 339.15, 
	 "num_atms": 21, 
	 "gaussian": { 
		 "optdone": 1, 
		 "sigma_profile": "yes", 
		 "theory": "DFT", 
		 "functional": "B3LYP", 
		 "basiset": "6-31G**", 
		 "properties": { 
			 "R2extent": 4098.1256, 
			 "electric_dipole_moment_norm": 2.59813229263, 
			 "electric_quadrupole_moment_norm": 8.83449215518, 
			 "total_energy": -697.908366272, 
			 "HOMO_LUMO_gap": 0.20928, 
			 "cosmo_polarized_energy": -7.71, 
			 "cosmo_cavitation_energy": 26.69, 
			 "cosmo_dispersion_energy": -19.14, 
			 "cosmo_repulsion_energy": 1.49, 
			 "cosmo_total_nonelectrostatic_energy": 9.04, 
			 "SMD_solvation_energy": 6.68 
		},
		"coords": [
			{
				"x": 3.7881162825,
				"y": 0.7390679827,
				"z": 1.283171603,
				"element": "C" 
			},
			{
				"x": 2.768275651,
				"y": 0.5232287021,
				"z": 0.1750222299,
				"element": "C" 
			},
			{
				"x": 1.4943607058,
				"y": 0.0891945144,
				"z": 0.7068642579,
				"element": "O" 
			},
			{
				"x": 0.6508140236,
				"y": 1.0688199461,
				"z": 1.1206473038,
				"element": "C" 
			},
			{
				"x": 0.9162984593,
				"y": 2.2513128743,
				"z": 1.0554227291,
				"element": "O" 
			},
			{
				"x": -0.6197949837,
				"y": 0.4968741026,
				"z": 1.6490720023,
				"element": "C" 
			},
			{
				"x": -0.843342716,
				"y": -0.891484471,
				"z": 1.6797796821,
				"element": "C" 
			},
			{
				"x": -2.0244667512,
				"y": -1.4351439095,
				"z": 2.1703550791,
				"element": "C" 
			},
			{
				"x": -3.0048316311,
				"y": -0.565926147,
				"z": 2.6418143609,
				"element": "C" 
			},
			{
				"x": -4.1536300421,
				"y": -1.0722959534,
				"z": 3.1201673211,
				"element": "F" 
			},
			{
				"x": -2.8372589202,
				"y": 0.8123175792,
				"z": 2.6357098266,
				"element": "C" 
			},
			{
				"x": -1.6440905434,
				"y": 1.3258935765,
				"z": 2.1383889341,
				"element": "C" 
			},
			{
				"x": -1.5063531904,
				"y": 2.6552939801,
				"z": 2.1436395737,
				"element": "F" 
			},
			{
				"x": 4.7607686408,
				"y": 0.9912202615,
				"z": 0.8476267417,
				"element": "H" 
			},
			{
				"x": 3.9064345258,
				"y": -0.1657198616,
				"z": 1.8867540108,
				"element": "H" 
			},
			{
				"x": 3.480189783,
				"y": 1.5617093676,
				"z": 1.9328864221,
				"element": "H" 
			},
			{
				"x": 2.615112941,
				"y": 1.4378380071,
				"z": -0.4023664928,
				"element": "H" 
			},
			{
				"x": 3.070045351,
				"y": -0.2846952231,
				"z": -0.4959805576,
				"element": "H" 
			},
			{
				"x": -0.0630968466,
				"y": -1.543197861,
				"z": 1.3071272367,
				"element": "H" 
			},
			{
				"x": -2.1957540085,
				"y": -2.5050196275,
				"z": 2.1933226208,
				"element": "H" 
			},
			{
				"x": -3.6087967308,
				"y": 1.47591216,
				"z": 3.0060751147,
				"element": "H" 
			}
		],
		 "valence_orbital": [ 
			{
				"type": "occ",
				"energy": -0.34176,
				"method": "rhf"
			},
			{
				"type": "occ",
				"energy": -0.29974,
				"method": "rhf"
			},
			{
				"type": "occ",
				"energy": -0.27218,
				"method": "rhf"
			},
			{
				"type": "occ",
				"energy": -0.27067,
				"method": "rhf"
			},
			{
				"type": "occ",
				"energy": -0.25868,
				"method": "rhf"
			},
			{
				"type": "unocc",
				"energy": -0.0494,
				"method": "rhf"
			},
			{
				"type": "unocc",
				"energy": -0.01889,
				"method": "rhf"
			},
			{
				"type": "unocc",
				"energy": 0.05325,
				"method": "rhf"
			},
			{
				"type": "unocc",
				"energy": 0.07628,
				"method": "rhf"
			},
			{
				"type": "unocc",
				"energy": 0.10769,
				"method": "rhf"
			}
		],
		"cosmo_sigma_profile": { 
			"-0.025": 0.0,
			"-0.024": 0.0,
			"-0.023": 0.0,
			"-0.022": 0.0,
			"-0.021": 0.0,
			"-0.02": 0.0,
			"-0.019": 0.0,
			"-0.018": 0.0,
			"-0.017": 0.0,
			"-0.016": 0.0,
			"-0.015": 0.0,
			"-0.014": 0.0,
			"-0.013": 0.0,
			"-0.012": 0.0,
			"-0.011": 0.0,
			"-0.01": 0.0283082735128,
			"-0.009": 1.37545124377,
			"-0.008": 3.174506061,
			"-0.007": 3.78914079494,
			"-0.006": 7.29015048577,
			"-0.005": 8.87042864733,
			"-0.004": 13.545876811,
			"-0.003": 17.8093251352,
			"-0.002": 19.4191493128,
			"-0.001": 26.8071100153,
			"0.0": 29.8085984087,
			"0.001": 18.1043252326,
			"0.002": 13.40195122,
			"0.003": 16.8495415344,
			"0.004": 12.0902318937,
			"0.005": 3.69042604954,
			"0.006": 1.95632882667,
			"0.007": 2.84044539722,
			"0.008": 1.33524146959,
			"0.009": 1.52005497857,
			"0.01": 2.35293267859,
			"0.011": 3.38738970559,
			"0.012": 3.87244316814,
			"0.013": 0.113343070272,
			"0.014": 0.0,
			"0.015": 0.0,
			"0.016": 0.0,
			"0.017": 0.0,
			"0.018": 0.0,
			"0.019": 0.0,
			"0.02": 0.0,
			"0.021": 0.0,
			"0.022": 0.0,
			"0.023": 0.0,
			"0.024": 0.0,
			"0.025": 0.0
		}
	}
}
