{
	 "smiles": "CC1(C)CC(=O)NC1=O", 
	 "Tm": 377.15, 
	 "num_atms": 18, 
	 "gaussian": { 
		 "optdone": 1, 
		 "sigma_profile": "yes", 
		 "theory": "DFT", 
		 "functional": "B3LYP", 
		 "basiset": "6-31G**", 
		 "properties": { 
			 "R2extent": 1300.736, 
			 "electric_dipole_moment_norm": 2.0405485488, 
			 "electric_quadrupole_moment_norm": 10.1395488189, 
			 "total_energy": -439.3033441, 
			 "HOMO_LUMO_gap": 0.23571, 
			 "cosmo_polarized_energy": -12.55, 
			 "cosmo_cavitation_energy": 21.22, 
			 "cosmo_dispersion_energy": -15.34, 
			 "cosmo_repulsion_energy": 1.27, 
			 "cosmo_total_nonelectrostatic_energy": 7.15, 
			 "SMD_solvation_energy": 5.19 
		},
		"coords": [
			{
				"x": -1.7728358654,
				"y": 0.3333093394,
				"z": -1.1130133341,
				"element": "C" 
			},
			{
				"x": -0.5470437709,
				"y": -0.0574112649,
				"z": -0.2667764831,
				"element": "C" 
			},
			{
				"x": 0.4697440759,
				"y": -0.8330619429,
				"z": -1.1246578933,
				"element": "C" 
			},
			{
				"x": 0.0865598912,
				"y": 1.1534748553,
				"z": 0.4647572309,
				"element": "C" 
			},
			{
				"x": -0.0485695097,
				"y": 0.8760583108,
				"z": 1.9592842771,
				"element": "C" 
			},
			{
				"x": 0.3165417207,
				"y": 1.5668424408,
				"z": 2.8846761152,
				"element": "O" 
			},
			{
				"x": -0.6887097765,
				"y": -0.3553894741,
				"z": 2.0835315225,
				"element": "N" 
			},
			{
				"x": -1.01679872,
				"y": -0.972425102,
				"z": 0.881513831,
				"element": "C" 
			},
			{
				"x": -1.5750913523,
				"y": -2.043976787,
				"z": 0.7776601982,
				"element": "O" 
			},
			{
				"x": -1.4661585627,
				"y": 0.9573977838,
				"z": -1.9587038896,
				"element": "H" 
			},
			{
				"x": -2.5038715943,
				"y": 0.8959490226,
				"z": -0.5227030258,
				"element": "H" 
			},
			{
				"x": -2.2665240141,
				"y": -0.5618962786,
				"z": -1.5002231982,
				"element": "H" 
			},
			{
				"x": 1.3553115107,
				"y": -1.1103153795,
				"z": -0.5429812322,
				"element": "H" 
			},
			{
				"x": 0.0172700823,
				"y": -1.7500207651,
				"z": -1.5113192716,
				"element": "H" 
			},
			{
				"x": 0.7970559812,
				"y": -0.2204060182,
				"z": -1.970972049,
				"element": "H" 
			},
			{
				"x": -0.4130856359,
				"y": 2.100935777,
				"z": 0.2398066847,
				"element": "H" 
			},
			{
				"x": 1.1467697106,
				"y": 1.29073199,
				"z": 0.2302148126,
				"element": "H" 
			},
			{
				"x": -0.8988641709,
				"y": -0.7694965074,
				"z": 2.9834057045,
				"element": "H" 
			}
		],
		 "valence_orbital": [ 
			{
				"type": "occ",
				"energy": -0.36316,
				"method": "rhf"
			},
			{
				"type": "occ",
				"energy": -0.34353,
				"method": "rhf"
			},
			{
				"type": "occ",
				"energy": -0.29266,
				"method": "rhf"
			},
			{
				"type": "occ",
				"energy": -0.28496,
				"method": "rhf"
			},
			{
				"type": "occ",
				"energy": -0.25682,
				"method": "rhf"
			},
			{
				"type": "unocc",
				"energy": -0.02111,
				"method": "rhf"
			},
			{
				"type": "unocc",
				"energy": 0.02625,
				"method": "rhf"
			},
			{
				"type": "unocc",
				"energy": 0.07323,
				"method": "rhf"
			},
			{
				"type": "unocc",
				"energy": 0.09376,
				"method": "rhf"
			},
			{
				"type": "unocc",
				"energy": 0.12119,
				"method": "rhf"
			}
		],
		"cosmo_sigma_profile": { 
			"-0.025": 0.0,
			"-0.024": 0.0,
			"-0.023": 0.0,
			"-0.022": 0.0,
			"-0.021": 0.0,
			"-0.02": 0.0,
			"-0.019": 0.0,
			"-0.018": 0.0,
			"-0.017": 0.0478389059016,
			"-0.016": 1.10651396589,
			"-0.015": 1.17931242115,
			"-0.014": 0.894747234756,
			"-0.013": 1.15845764945,
			"-0.012": 0.666359160948,
			"-0.011": 0.845499499461,
			"-0.01": 1.09133428321,
			"-0.009": 0.656669525336,
			"-0.008": 1.27699630134,
			"-0.007": 4.88188418567,
			"-0.006": 8.62921170955,
			"-0.005": 9.3169194753,
			"-0.004": 18.4957702575,
			"-0.003": 17.8227094131,
			"-0.002": 16.1755952871,
			"-0.001": 13.3887945434,
			"0.0": 15.1123769886,
			"0.001": 5.84775008954,
			"0.002": 3.00364094127,
			"0.003": 3.72673410911,
			"0.004": 2.29603224475,
			"0.005": 3.33786000452,
			"0.006": 2.42961283921,
			"0.007": 2.29551016183,
			"0.008": 2.99763774653,
			"0.009": 2.95598231362,
			"0.01": 3.45092135859,
			"0.011": 6.71188452621,
			"0.012": 10.5822301193,
			"0.013": 3.6109108196,
			"0.014": 0.067279791312,
			"0.015": 0.0,
			"0.016": 0.0,
			"0.017": 0.0,
			"0.018": 0.0,
			"0.019": 0.0,
			"0.02": 0.0,
			"0.021": 0.0,
			"0.022": 0.0,
			"0.023": 0.0,
			"0.024": 0.0,
			"0.025": 0.0
		}
	}
}
