{
	 "smiles": "NC1=CC=C(SC#N)C=C1", 
	 "Tm": 322.65, 
	 "num_atms": 16, 
	 "gaussian": { 
		 "optdone": 1, 
		 "sigma_profile": "yes", 
		 "theory": "DFT", 
		 "functional": "B3LYP", 
		 "basiset": "6-31G**", 
		 "properties": { 
			 "R2extent": 2269.971, 
			 "electric_dipole_moment_norm": 6.11763163651, 
			 "electric_quadrupole_moment_norm": 18.9467987742, 
			 "total_energy": -778.02269757, 
			 "HOMO_LUMO_gap": 0.20381, 
			 "cosmo_polarized_energy": -13.06, 
			 "cosmo_cavitation_energy": 23.34, 
			 "cosmo_dispersion_energy": -16.99, 
			 "cosmo_repulsion_energy": 1.35, 
			 "cosmo_total_nonelectrostatic_energy": 7.71, 
			 "SMD_solvation_energy": 5.87 
		},
		"coords": [
			{
				"x": -1.9682915956,
				"y": 1.8099439696,
				"z": 0.730328437,
				"element": "N" 
			},
			{
				"x": -0.9449497609,
				"y": 0.9499683015,
				"z": 0.3683602197,
				"element": "C" 
			},
			{
				"x": -1.2016196901,
				"y": -0.4159877029,
				"z": 0.1386213532,
				"element": "C" 
			},
			{
				"x": -0.1846421239,
				"y": -1.2681341433,
				"z": -0.2727567442,
				"element": "C" 
			},
			{
				"x": 1.113502106,
				"y": -0.7783407922,
				"z": -0.4604854295,
				"element": "C" 
			},
			{
				"x": 2.4145711418,
				"y": -1.8696337589,
				"z": -1.0558322126,
				"element": "S" 
			},
			{
				"x": 3.074407216,
				"y": -2.4505195439,
				"z": 0.4109039806,
				"element": "C" 
			},
			{
				"x": 3.5642093293,
				"y": -2.8796488019,
				"z": 1.3785886324,
				"element": "N" 
			},
			{
				"x": 1.3782854137,
				"y": 0.5792610947,
				"z": -0.2433538836,
				"element": "C" 
			},
			{
				"x": 0.3629888266,
				"y": 1.4333708341,
				"z": 0.1681069551,
				"element": "C" 
			},
			{
				"x": -2.7862106332,
				"y": 1.3906268651,
				"z": 1.1477137024,
				"element": "H" 
			},
			{
				"x": -1.6970460961,
				"y": 2.6780857681,
				"z": 1.1682579193,
				"element": "H" 
			},
			{
				"x": -2.2065120446,
				"y": -0.8043051143,
				"z": 0.2818318492,
				"element": "H" 
			},
			{
				"x": -0.396431934,
				"y": -2.3186353646,
				"z": -0.443751914,
				"element": "H" 
			},
			{
				"x": 2.3816888929,
				"y": 0.9651250027,
				"z": -0.3914639369,
				"element": "H" 
			},
			{
				"x": 0.577050952,
				"y": 2.4858233861,
				"z": 0.334331072,
				"element": "H" 
			}
		],
		 "valence_orbital": [ 
			{
				"type": "occ",
				"energy": -0.32748,
				"method": "rhf"
			},
			{
				"type": "occ",
				"energy": -0.31689,
				"method": "rhf"
			},
			{
				"type": "occ",
				"energy": -0.26978,
				"method": "rhf"
			},
			{
				"type": "occ",
				"energy": -0.25795,
				"method": "rhf"
			},
			{
				"type": "occ",
				"energy": -0.22504,
				"method": "rhf"
			},
			{
				"type": "unocc",
				"energy": -0.02123,
				"method": "rhf"
			},
			{
				"type": "unocc",
				"energy": -0.01932,
				"method": "rhf"
			},
			{
				"type": "unocc",
				"energy": -0.00992,
				"method": "rhf"
			},
			{
				"type": "unocc",
				"energy": 0.05444,
				"method": "rhf"
			},
			{
				"type": "unocc",
				"energy": 0.05506,
				"method": "rhf"
			}
		],
		"cosmo_sigma_profile": { 
			"-0.025": 0.0,
			"-0.024": 0.0,
			"-0.023": 0.0,
			"-0.022": 0.0,
			"-0.021": 0.0,
			"-0.02": 0.0,
			"-0.019": 0.0,
			"-0.018": 0.0,
			"-0.017": 0.0,
			"-0.016": 0.0,
			"-0.015": 0.0,
			"-0.014": 0.0432430780223,
			"-0.013": 2.6766688179,
			"-0.012": 2.5988215034,
			"-0.011": 2.93066583187,
			"-0.01": 3.78381182207,
			"-0.009": 3.19792086747,
			"-0.008": 2.95243069861,
			"-0.007": 6.45274493476,
			"-0.006": 8.59355085121,
			"-0.005": 8.8381132133,
			"-0.004": 9.95902192311,
			"-0.003": 10.3958757303,
			"-0.002": 11.7523615881,
			"-0.001": 12.0552005328,
			"0.0": 12.7257143473,
			"0.001": 14.0176563349,
			"0.002": 12.0756792866,
			"0.003": 13.2441755781,
			"0.004": 16.5243357197,
			"0.005": 7.32927868949,
			"0.006": 3.91896372982,
			"0.007": 3.4721868641,
			"0.008": 5.01837208382,
			"0.009": 3.71741864931,
			"0.01": 4.09207622939,
			"0.011": 2.88848925121,
			"0.012": 3.53718787867,
			"0.013": 1.14003140552,
			"0.014": 0.0,
			"0.015": 0.0,
			"0.016": 0.0,
			"0.017": 0.0,
			"0.018": 0.0,
			"0.019": 0.0,
			"0.02": 0.0,
			"0.021": 0.0,
			"0.022": 0.0,
			"0.023": 0.0,
			"0.024": 0.0,
			"0.025": 0.0
		}
	}
}
