{
	 "smiles": "CN1C(=O)OC2=C1C=CC(Br)=C2", 
	 "Tm": 418.15, 
	 "num_atms": 18, 
	 "gaussian": { 
		 "optdone": 1, 
		 "sigma_profile": "yes", 
		 "theory": "DFT", 
		 "functional": "B3LYP", 
		 "basiset": "6-31G**", 
		 "properties": { 
			 "R2extent": 4450.1798, 
			 "electric_dipole_moment_norm": 3.85794799991, 
			 "electric_quadrupole_moment_norm": 18.8706894341, 
			 "total_energy": -3085.08931449, 
			 "HOMO_LUMO_gap": 0.1976, 
			 "cosmo_polarized_energy": -10.31, 
			 "cosmo_cavitation_energy": 24.97, 
			 "cosmo_dispersion_energy": -19.06, 
			 "cosmo_repulsion_energy": 1.5, 
			 "cosmo_total_nonelectrostatic_energy": 7.41, 
			 "SMD_solvation_energy": 4.53 
		},
		"coords": [
			{
				"x": 0.6985395983,
				"y": -1.6699557658,
				"z": 3.4497746805,
				"element": "C" 
			},
			{
				"x": 1.1962482616,
				"y": -0.9494681437,
				"z": 2.2944668625,
				"element": "N" 
			},
			{
				"x": 2.3553622135,
				"y": -1.3098329395,
				"z": 1.6233598898,
				"element": "C" 
			},
			{
				"x": 3.1109156573,
				"y": -2.2188198533,
				"z": 1.8540217262,
				"element": "O" 
			},
			{
				"x": 2.5225251324,
				"y": -0.4036102969,
				"z": 0.5772037893,
				"element": "O" 
			},
			{
				"x": 1.47855771,
				"y": 0.4880577764,
				"z": 0.6195261334,
				"element": "C" 
			},
			{
				"x": 0.6325979587,
				"y": 0.1676991608,
				"z": 1.6873656672,
				"element": "C" 
			},
			{
				"x": -0.5031941579,
				"y": 0.9228417082,
				"z": 1.9464378179,
				"element": "C" 
			},
			{
				"x": -0.7631839242,
				"y": 2.0100719463,
				"z": 1.0995478952,
				"element": "C" 
			},
			{
				"x": 0.0967412606,
				"y": 2.3082784677,
				"z": 0.0412559927,
				"element": "C" 
			},
			{
				"x": -0.3007294298,
				"y": 3.8002479621,
				"z": -1.0849116954,
				"element": "Br" 
			},
			{
				"x": 1.2462328439,
				"y": 1.5521449126,
				"z": -0.2289683817,
				"element": "C" 
			},
			{
				"x": 0.6530773635,
				"y": -1.0143436371,
				"z": 4.3254884623,
				"element": "H" 
			},
			{
				"x": -0.2984652237,
				"y": -2.077258294,
				"z": 3.2526521689,
				"element": "H" 
			},
			{
				"x": 1.391232882,
				"y": -2.4887342596,
				"z": 3.646619591,
				"element": "H" 
			},
			{
				"x": -1.1709455878,
				"y": 0.6905978594,
				"z": 2.7688413156,
				"element": "H" 
			},
			{
				"x": -1.638978389,
				"y": 2.6256554745,
				"z": 1.2662535242,
				"element": "H" 
			},
			{
				"x": 1.9106658305,
				"y": 1.7865279217,
				"z": -1.0506354396,
				"element": "H" 
			}
		],
		 "valence_orbital": [ 
			{
				"type": "occ",
				"energy": -0.29905,
				"method": "rhf"
			},
			{
				"type": "occ",
				"energy": -0.29318,
				"method": "rhf"
			},
			{
				"type": "occ",
				"energy": -0.29171,
				"method": "rhf"
			},
			{
				"type": "occ",
				"energy": -0.26562,
				"method": "rhf"
			},
			{
				"type": "occ",
				"energy": -0.22591,
				"method": "rhf"
			},
			{
				"type": "unocc",
				"energy": -0.02831,
				"method": "rhf"
			},
			{
				"type": "unocc",
				"energy": -0.01342,
				"method": "rhf"
			},
			{
				"type": "unocc",
				"energy": -0.00214,
				"method": "rhf"
			},
			{
				"type": "unocc",
				"energy": 0.03919,
				"method": "rhf"
			},
			{
				"type": "unocc",
				"energy": 0.08594,
				"method": "rhf"
			}
		],
		"cosmo_sigma_profile": { 
			"-0.025": 0.0,
			"-0.024": 0.0,
			"-0.023": 0.0,
			"-0.022": 0.0,
			"-0.021": 0.0,
			"-0.02": 0.0,
			"-0.019": 0.0,
			"-0.018": 0.0,
			"-0.017": 0.0,
			"-0.016": 0.0,
			"-0.015": 0.0,
			"-0.014": 0.0,
			"-0.013": 0.0,
			"-0.012": 0.0,
			"-0.011": 0.0,
			"-0.01": 0.0,
			"-0.009": 0.799381303939,
			"-0.008": 3.08346224986,
			"-0.007": 8.76788860863,
			"-0.006": 15.2182506911,
			"-0.005": 13.7626238109,
			"-0.004": 15.9786995756,
			"-0.003": 18.7487256566,
			"-0.002": 11.0182991384,
			"-0.001": 11.3295421586,
			"0.0": 12.2930479708,
			"0.001": 15.8390974743,
			"0.002": 18.8174954978,
			"0.003": 15.1990689724,
			"0.004": 12.6989353626,
			"0.005": 7.41638838405,
			"0.006": 2.95495100526,
			"0.007": 3.70383634128,
			"0.008": 3.0258865492,
			"0.009": 1.35330813262,
			"0.01": 2.4597119689,
			"0.011": 5.13667221858,
			"0.012": 4.23873267774,
			"0.013": 0.417346719897,
			"0.014": 0.0,
			"0.015": 0.0,
			"0.016": 0.0,
			"0.017": 0.0,
			"0.018": 0.0,
			"0.019": 0.0,
			"0.02": 0.0,
			"0.021": 0.0,
			"0.022": 0.0,
			"0.023": 0.0,
			"0.024": 0.0,
			"0.025": 0.0
		}
	}
}
