{
	 "smiles": "CCOC(=O)CSC1=C(C#N)C(N)=C(S1)C(=O)OCC", 
	 "Tm": 414.15, 
	 "num_atms": 34, 
	 "gaussian": { 
		 "optdone": 1, 
		 "sigma_profile": "yes", 
		 "theory": "DFT", 
		 "functional": "B3LYP", 
		 "basiset": "6-31G**", 
		 "properties": { 
			 "R2extent": 8984.0141, 
			 "electric_dipole_moment_norm": 2.25440974315, 
			 "electric_quadrupole_moment_norm": 27.7167157571, 
			 "total_energy": -1672.49230468, 
			 "HOMO_LUMO_gap": 0.14744, 
			 "cosmo_polarized_energy": -17.87, 
			 "cosmo_cavitation_energy": 43.38, 
			 "cosmo_dispersion_energy": -29.81, 
			 "cosmo_repulsion_energy": 2.3, 
			 "cosmo_total_nonelectrostatic_energy": 15.87, 
			 "SMD_solvation_energy": 9.64 
		},
		"coords": [
			{
				"x": -2.7745289133,
				"y": 5.0859734463,
				"z": 3.3361260323,
				"element": "C" 
			},
			{
				"x": -2.1369000601,
				"y": 3.7176512031,
				"z": 3.1949467445,
				"element": "C" 
			},
			{
				"x": -3.1026846938,
				"y": 2.8523368342,
				"z": 2.5464087681,
				"element": "O" 
			},
			{
				"x": -2.7012413281,
				"y": 1.5877995551,
				"z": 2.3265714657,
				"element": "C" 
			},
			{
				"x": -1.623384252,
				"y": 1.1395241916,
				"z": 2.654052532,
				"element": "O" 
			},
			{
				"x": -3.7563566845,
				"y": 0.7966845676,
				"z": 1.5814320994,
				"element": "C" 
			},
			{
				"x": -3.4981031746,
				"y": 0.8943874481,
				"z": -0.2498014292,
				"element": "S" 
			},
			{
				"x": -1.9606893675,
				"y": 0.0506517265,
				"z": -0.4470235262,
				"element": "C" 
			},
			{
				"x": -1.6682354822,
				"y": -1.278731759,
				"z": -0.1730838836,
				"element": "C" 
			},
			{
				"x": -2.5836297999,
				"y": -2.2105146318,
				"z": 0.3844942227,
				"element": "C" 
			},
			{
				"x": -3.294789823,
				"y": -3.0047698049,
				"z": 0.8552715021,
				"element": "N" 
			},
			{
				"x": -0.3128718218,
				"y": -1.6454948677,
				"z": -0.5080121042,
				"element": "C" 
			},
			{
				"x": 0.158875516,
				"y": -2.9115767463,
				"z": -0.3490535795,
				"element": "N" 
			},
			{
				"x": 0.3813010487,
				"y": -0.5636866025,
				"z": -1.0497140953,
				"element": "C" 
			},
			{
				"x": -0.6063998442,
				"y": 0.8788703611,
				"z": -1.1164637272,
				"element": "S" 
			},
			{
				"x": 1.7482248848,
				"y": -0.468647655,
				"z": -1.5355484162,
				"element": "C" 
			},
			{
				"x": 2.242909566,
				"y": 0.5394931806,
				"z": -2.0093948311,
				"element": "O" 
			},
			{
				"x": 2.4297154447,
				"y": -1.6445341139,
				"z": -1.3891401326,
				"element": "O" 
			},
			{
				"x": 3.8042401395,
				"y": -1.6478457644,
				"z": -1.8535617543,
				"element": "C" 
			},
			{
				"x": 3.8851011433,
				"y": -1.9428281486,
				"z": -3.343212355,
				"element": "C" 
			},
			{
				"x": -3.6825518524,
				"y": 5.0346766769,
				"z": 3.9437393609,
				"element": "H" 
			},
			{
				"x": -3.0363256083,
				"y": 5.4984101033,
				"z": 2.3576673328,
				"element": "H" 
			},
			{
				"x": -2.0736116162,
				"y": 5.7714794391,
				"z": 3.8223377071,
				"element": "H" 
			},
			{
				"x": -1.8720508773,
				"y": 3.2819883796,
				"z": 4.1633141602,
				"element": "H" 
			},
			{
				"x": -1.2288142932,
				"y": 3.7446334821,
				"z": 2.584948993,
				"element": "H" 
			},
			{
				"x": -4.752042283,
				"y": 1.2180290863,
				"z": 1.7327303376,
				"element": "H" 
			},
			{
				"x": -3.7380967659,
				"y": -0.2461699374,
				"z": 1.898120612,
				"element": "H" 
			},
			{
				"x": -0.3549608278,
				"y": -3.5506350155,
				"z": 0.2375483386,
				"element": "H" 
			},
			{
				"x": 1.1494232649,
				"y": -3.0558481527,
				"z": -0.4719756008,
				"element": "H" 
			},
			{
				"x": 4.2532811187,
				"y": -0.6812150668,
				"z": -1.6164533037,
				"element": "H" 
			},
			{
				"x": 4.2877605391,
				"y": -2.4283041475,
				"z": -1.2609746729,
				"element": "H" 
			},
			{
				"x": 3.3945862419,
				"y": -2.8910491665,
				"z": -3.582409901,
				"element": "H" 
			},
			{
				"x": 3.4115118953,
				"y": -1.1433213217,
				"z": -3.9176409664,
				"element": "H" 
			},
			{
				"x": 4.9341385663,
				"y": -2.0115167792,
				"z": -3.6500459299,
				"element": "H" 
			}
		],
		 "valence_orbital": [ 
			{
				"type": "occ",
				"energy": -0.28676,
				"method": "rhf"
			},
			{
				"type": "occ",
				"energy": -0.28131,
				"method": "rhf"
			},
			{
				"type": "occ",
				"energy": -0.272,
				"method": "rhf"
			},
			{
				"type": "occ",
				"energy": -0.24695,
				"method": "rhf"
			},
			{
				"type": "occ",
				"energy": -0.22156,
				"method": "rhf"
			},
			{
				"type": "unocc",
				"energy": -0.07412,
				"method": "rhf"
			},
			{
				"type": "unocc",
				"energy": -0.02153,
				"method": "rhf"
			},
			{
				"type": "unocc",
				"energy": -0.01169,
				"method": "rhf"
			},
			{
				"type": "unocc",
				"energy": -0.00295,
				"method": "rhf"
			},
			{
				"type": "unocc",
				"energy": 0.03379,
				"method": "rhf"
			}
		],
		"cosmo_sigma_profile": { 
			"-0.025": 0.0,
			"-0.024": 0.0,
			"-0.023": 0.0,
			"-0.022": 0.0,
			"-0.021": 0.0,
			"-0.02": 0.0,
			"-0.019": 0.0,
			"-0.018": 0.0,
			"-0.017": 0.0,
			"-0.016": 0.0,
			"-0.015": 0.0790939043525,
			"-0.014": 0.798191228577,
			"-0.013": 0.928303584006,
			"-0.012": 1.30924951949,
			"-0.011": 2.25335794524,
			"-0.01": 3.07941440039,
			"-0.009": 4.29523989776,
			"-0.008": 3.3591450649,
			"-0.007": 4.4337266449,
			"-0.006": 9.63299266057,
			"-0.005": 19.4447739573,
			"-0.004": 30.174441979,
			"-0.003": 32.0243054042,
			"-0.002": 32.9976678893,
			"-0.001": 36.2576492411,
			"0.0": 36.8904005073,
			"0.001": 26.2836325963,
			"0.002": 19.5034567392,
			"0.003": 12.166951813,
			"0.004": 12.229871718,
			"0.005": 9.95975640032,
			"0.006": 8.29127299831,
			"0.007": 6.82671654093,
			"0.008": 6.22908739956,
			"0.009": 6.93930574846,
			"0.01": 5.39432377822,
			"0.011": 8.68929611474,
			"0.012": 8.11402143212,
			"0.013": 0.585254346441,
			"0.014": 0.0,
			"0.015": 0.0,
			"0.016": 0.0,
			"0.017": 0.0,
			"0.018": 0.0,
			"0.019": 0.0,
			"0.02": 0.0,
			"0.021": 0.0,
			"0.022": 0.0,
			"0.023": 0.0,
			"0.024": 0.0,
			"0.025": 0.0
		}
	}
}
