{
	 "smiles": "CSC(N1CCOCC1)=C(C#N)C#N", 
	 "Tm": 417.15, 
	 "num_atms": 25, 
	 "gaussian": { 
		 "optdone": 1, 
		 "sigma_profile": "yes", 
		 "theory": "DFT", 
		 "functional": "B3LYP", 
		 "basiset": "6-31G**", 
		 "properties": { 
			 "R2extent": 4301.7316, 
			 "electric_dipole_moment_norm": 6.10155632359, 
			 "electric_quadrupole_moment_norm": 18.3473204624, 
			 "total_energy": -987.177387632, 
			 "HOMO_LUMO_gap": 0.16563, 
			 "cosmo_polarized_energy": -17.54, 
			 "cosmo_cavitation_energy": 30.25, 
			 "cosmo_dispersion_energy": -21.21, 
			 "cosmo_repulsion_energy": 1.63, 
			 "cosmo_total_nonelectrostatic_energy": 10.67, 
			 "SMD_solvation_energy": 7.2 
		},
		"coords": [
			{
				"x": 3.0294939274,
				"y": -1.3299424033,
				"z": -0.315087225,
				"element": "C" 
			},
			{
				"x": 2.919037391,
				"y": 0.458760986,
				"z": 0.0661275895,
				"element": "S" 
			},
			{
				"x": 1.5257897198,
				"y": 0.6124253154,
				"z": 1.1584571148,
				"element": "C" 
			},
			{
				"x": 0.7829779198,
				"y": 1.7373623278,
				"z": 0.9908362837,
				"element": "N" 
			},
			{
				"x": 0.1318725955,
				"y": 2.4603226987,
				"z": 2.1017153516,
				"element": "C" 
			},
			{
				"x": -1.3442588457,
				"y": 2.7021436666,
				"z": 1.786785946,
				"element": "C" 
			},
			{
				"x": -1.4811168055,
				"y": 3.4043028185,
				"z": 0.555676378,
				"element": "O" 
			},
			{
				"x": -0.9047123831,
				"y": 2.676745299,
				"z": -0.514158836,
				"element": "C" 
			},
			{
				"x": 0.5935836786,
				"y": 2.4338898939,
				"z": -0.2926518472,
				"element": "C" 
			},
			{
				"x": 1.2657148128,
				"y": -0.3301087548,
				"z": 2.1617641478,
				"element": "C" 
			},
			{
				"x": 2.2659019492,
				"y": -1.2258889058,
				"z": 2.6329210177,
				"element": "C" 
			},
			{
				"x": 3.081540133,
				"y": -1.9616642787,
				"z": 3.0241220433,
				"element": "N" 
			},
			{
				"x": -0.0270127032,
				"y": -0.4464939563,
				"z": 2.7488899809,
				"element": "C" 
			},
			{
				"x": -1.0970962343,
				"y": -0.5397814849,
				"z": 3.203956458,
				"element": "N" 
			},
			{
				"x": 3.5898147904,
				"y": -1.3856057957,
				"z": -1.2506798619,
				"element": "H" 
			},
			{
				"x": 2.0307828925,
				"y": -1.7421703706,
				"z": -0.4650103902,
				"element": "H" 
			},
			{
				"x": 3.5498133468,
				"y": -1.8746279197,
				"z": 0.4712692394,
				"element": "H" 
			},
			{
				"x": 0.2536470941,
				"y": 1.9142251469,
				"z": 3.0341713904,
				"element": "H" 
			},
			{
				"x": 0.6395099945,
				"y": 3.4304127529,
				"z": 2.1948989473,
				"element": "H" 
			},
			{
				"x": -1.8818633453,
				"y": 1.7442143307,
				"z": 1.7539499691,
				"element": "H" 
			},
			{
				"x": -1.7934746088,
				"y": 3.3318192604,
				"z": 2.5591716065,
				"element": "H" 
			},
			{
				"x": -1.415259348,
				"y": 1.7087510358,
				"z": -0.644367281,
				"element": "H" 
			},
			{
				"x": -1.0508091991,
				"y": 3.2736192167,
				"z": -1.419206852,
				"element": "H" 
			},
			{
				"x": 1.1215420378,
				"y": 3.396144185,
				"z": -0.2655900951,
				"element": "H" 
			},
			{
				"x": 1.0087811898,
				"y": 1.8328449354,
				"z": -1.101061076,
				"element": "H" 
			}
		],
		 "valence_orbital": [ 
			{
				"type": "occ",
				"energy": -0.32909,
				"method": "rhf"
			},
			{
				"type": "occ",
				"energy": -0.32761,
				"method": "rhf"
			},
			{
				"type": "occ",
				"energy": -0.2893,
				"method": "rhf"
			},
			{
				"type": "occ",
				"energy": -0.26453,
				"method": "rhf"
			},
			{
				"type": "occ",
				"energy": -0.23302,
				"method": "rhf"
			},
			{
				"type": "unocc",
				"energy": -0.06739,
				"method": "rhf"
			},
			{
				"type": "unocc",
				"energy": -0.00609,
				"method": "rhf"
			},
			{
				"type": "unocc",
				"energy": 0.01999,
				"method": "rhf"
			},
			{
				"type": "unocc",
				"energy": 0.03803,
				"method": "rhf"
			},
			{
				"type": "unocc",
				"energy": 0.04367,
				"method": "rhf"
			}
		],
		"cosmo_sigma_profile": { 
			"-0.025": 0.0,
			"-0.024": 0.0,
			"-0.023": 0.0,
			"-0.022": 0.0,
			"-0.021": 0.0,
			"-0.02": 0.0,
			"-0.019": 0.0,
			"-0.018": 0.0,
			"-0.017": 0.0,
			"-0.016": 0.0,
			"-0.015": 0.0,
			"-0.014": 0.0,
			"-0.013": 0.0,
			"-0.012": 0.0,
			"-0.011": 0.0,
			"-0.01": 0.0,
			"-0.009": 0.00355589053111,
			"-0.008": 1.93047958633,
			"-0.007": 10.2210352635,
			"-0.006": 25.2063651829,
			"-0.005": 26.5552322427,
			"-0.004": 24.6666299505,
			"-0.003": 21.042157306,
			"-0.002": 18.6355382831,
			"-0.001": 13.9261185453,
			"0.0": 11.0236511913,
			"0.001": 8.47156336124,
			"0.002": 10.109147242,
			"0.003": 9.59569616301,
			"0.004": 6.44491674904,
			"0.005": 6.27346046505,
			"0.006": 5.95437035761,
			"0.007": 5.35819484271,
			"0.008": 6.25851149547,
			"0.009": 6.54950656497,
			"0.01": 6.33962633593,
			"0.011": 6.50320590461,
			"0.012": 6.7869101834,
			"0.013": 4.59255424864,
			"0.014": 0.573486731155,
			"0.015": 0.0,
			"0.016": 0.0,
			"0.017": 0.0,
			"0.018": 0.0,
			"0.019": 0.0,
			"0.02": 0.0,
			"0.021": 0.0,
			"0.022": 0.0,
			"0.023": 0.0,
			"0.024": 0.0,
			"0.025": 0.0
		}
	}
}
