{
	 "smiles": "CCC(OC1=C(I)C=C(I)C=C1I)C(O)=O", 
	 "Tm": 397.15, 
	 "num_atms": 25, 
	 "gaussian": { 
		 "optdone": 1, 
		 "sigma_profile": "no", 
		 "theory": "DFT", 
		 "functional": "B3LYP", 
		 "basiset": "6-31G**", 
		 "properties": { 
			 "R2extent": 4387.2422, 
			 "electric_dipole_moment_norm": 3.4586551288, 
			 "electric_quadrupole_moment_norm": 16.602300103, 
			 "total_energy": -646.305000308, 
			 "HOMO_LUMO_gap": 0.15905, 
			 "cosmo_polarized_energy": -278668.37, 
			 "cosmo_cavitation_energy": 37.8, 
			 "cosmo_dispersion_energy": -29.8, 
			 "cosmo_repulsion_energy": 2.25, 
			 "cosmo_total_nonelectrostatic_energy": 10.24, 
			 "SMD_solvation_energy": 5.06 
		},
		"coords": [
			{
				"x": 2.5900181971,
				"y": 2.3108158866,
				"z": 2.4767095921,
				"element": "C" 
			},
			{
				"x": 1.0636589012,
				"y": 2.3177663638,
				"z": 2.616224561,
				"element": "C" 
			},
			{
				"x": 0.3541507268,
				"y": 1.1662392158,
				"z": 1.8913327029,
				"element": "C" 
			},
			{
				"x": 0.6978593327,
				"y": 1.2422976594,
				"z": 0.4777683851,
				"element": "O" 
			},
			{
				"x": -0.2174973533,
				"y": 0.9117303531,
				"z": -0.4816123421,
				"element": "C" 
			},
			{
				"x": 0.1691235707,
				"y": 0.010355573,
				"z": -1.4969098887,
				"element": "C" 
			},
			{
				"x": 2.1588805743,
				"y": -0.7118169362,
				"z": -1.5964596722,
				"element": "I" 
			},
			{
				"x": -0.6999824515,
				"y": -0.3903159967,
				"z": -2.5100884551,
				"element": "C" 
			},
			{
				"x": -1.993125073,
				"y": 0.1281776476,
				"z": -2.5375691337,
				"element": "C" 
			},
			{
				"x": -3.3450368056,
				"y": -0.5002317651,
				"z": -4.0360713219,
				"element": "I" 
			},
			{
				"x": -2.3878628144,
				"y": 1.0853874311,
				"z": -1.6067578033,
				"element": "C" 
			},
			{
				"x": -1.4970489386,
				"y": 1.4940745636,
				"z": -0.609715513,
				"element": "C" 
			},
			{
				"x": -2.1388683739,
				"y": 3.1549582687,
				"z": 0.5479014341,
				"element": "I" 
			},
			{
				"x": 0.750397426,
				"y": -0.1774495462,
				"z": 2.5231159135,
				"element": "C" 
			},
			{
				"x": 1.6895357495,
				"y": -0.9024606029,
				"z": 1.897460093,
				"element": "O" 
			},
			{
				"x": 0.2684835328,
				"y": -0.5168699339,
				"z": 3.5766921468,
				"element": "O" 
			},
			{
				"x": 3.0198194846,
				"y": 3.1650226587,
				"z": 3.0076025811,
				"element": "H" 
			},
			{
				"x": 2.8903117854,
				"y": 2.3841689062,
				"z": 1.4273966846,
				"element": "H" 
			},
			{
				"x": 3.033449011,
				"y": 1.4029711552,
				"z": 2.8983712596,
				"element": "H" 
			},
			{
				"x": 0.7752013,
				"y": 2.2465666196,
				"z": 3.6702868694,
				"element": "H" 
			},
			{
				"x": 0.6538330502,
				"y": 3.2550243244,
				"z": 2.227191242,
				"element": "H" 
			},
			{
				"x": -0.7240093482,
				"y": 1.2536297238,
				"z": 2.0227540123,
				"element": "H" 
			},
			{
				"x": -0.3688566339,
				"y": -1.0954144363,
				"z": -3.261535887,
				"element": "H" 
			},
			{
				"x": -3.3704082755,
				"y": 1.5356214635,
				"z": -1.6651522408,
				"element": "H" 
			},
			{
				"x": 1.9336734257,
				"y": -0.4739485966,
				"z": 1.0575647803,
				"element": "H" 
			}
		],
		 "valence_orbital": [ 
			{
				"type": "occ",
				"energy": -0.28604,
				"method": "rhf"
			},
			{
				"type": "occ",
				"energy": -0.28454,
				"method": "rhf"
			},
			{
				"type": "occ",
				"energy": -0.27434,
				"method": "rhf"
			},
			{
				"type": "occ",
				"energy": -0.26305,
				"method": "rhf"
			},
			{
				"type": "occ",
				"energy": -0.24909,
				"method": "rhf"
			},
			{
				"type": "unocc",
				"energy": -0.09004,
				"method": "rhf"
			},
			{
				"type": "unocc",
				"energy": -0.05475,
				"method": "rhf"
			},
			{
				"type": "unocc",
				"energy": -0.04906,
				"method": "rhf"
			},
			{
				"type": "unocc",
				"energy": -0.0459,
				"method": "rhf"
			},
			{
				"type": "unocc",
				"energy": -0.04132,
				"method": "rhf"
			}
		],
		"cosmo_sigma_profile": { 
			"0.0": 0.0,
			"0.0": 0.0,
			"0.0": 0.0,
			"0.0": 0.0,
			"0.0": 0.0,
			"0.0": 0.0,
			"0.0": 0.0,
			"0.0": 0.0,
			"0.0": 0.0,
			"0.0": 0.0,
			"0.0": 0.0,
			"0.0": 0.0,
			"0.0": 0.0,
			"0.0": 0.0,
			"0.0": 0.0,
			"0.0": 0.0,
			"0.0": 0.0,
			"0.0": 0.0,
			"0.0": 0.0,
			"0.0": 0.0,
			"0.0": 0.0,
			"0.0": 0.0,
			"0.0": 0.0,
			"0.0": 0.0,
			"0.0": 0.0,
			"0.0": 0.0,
			"0.0": 0.0,
			"0.0": 0.0,
			"0.0": 0.0,
			"0.0": 0.0,
			"0.0": 0.0,
			"0.0": 0.0,
			"0.0": 0.0,
			"0.0": 0.0,
			"0.0": 0.0,
			"0.0": 0.0,
			"0.0": 0.0,
			"0.0": 0.0,
			"0.0": 0.0,
			"0.0": 0.0,
			"0.0": 0.0,
			"0.0": 0.0,
			"0.0": 0.0,
			"0.0": 0.0,
			"0.0": 0.0,
			"0.0": 0.0,
			"0.0": 0.0,
			"0.0": 0.0,
			"0.0": 0.0,
			"0.0": 0.0,
			"0.0": 0.0
		}
	}
}
