{
	 "smiles": "CCCC(O)CCC=CC=CC#CC#CC=CCO", 
	 "Tm": 360.15, 
	 "num_atms": 41, 
	 "gaussian": { 
		 "optdone": 1, 
		 "sigma_profile": "yes", 
		 "theory": "DFT", 
		 "functional": "B3LYP", 
		 "basiset": "6-31G**", 
		 "properties": { 
			 "R2extent": 18088.0371, 
			 "electric_dipole_moment_norm": 1.65771417621, 
			 "electric_quadrupole_moment_norm": 42.5862105054, 
			 "total_energy": -811.348983151, 
			 "HOMO_LUMO_gap": 0.12943, 
			 "cosmo_polarized_energy": -16.37, 
			 "cosmo_cavitation_energy": 47.51, 
			 "cosmo_dispersion_energy": -32.64, 
			 "cosmo_repulsion_energy": 2.64, 
			 "cosmo_total_nonelectrostatic_energy": 17.5, 
			 "SMD_solvation_energy": 8.62 
		},
		"coords": [
			{
				"x": -0.2310163349,
				"y": -2.4734678183,
				"z": 6.0655467384,
				"element": "C" 
			},
			{
				"x": -1.0153407764,
				"y": -1.2545396653,
				"z": 6.5683364829,
				"element": "C" 
			},
			{
				"x": -0.5735853662,
				"y": 0.0960492934,
				"z": 5.9750497947,
				"element": "C" 
			},
			{
				"x": -0.9146596012,
				"y": 0.367577654,
				"z": 4.4969298684,
				"element": "C" 
			},
			{
				"x": -0.2497746426,
				"y": -0.5353444957,
				"z": 3.6067001852,
				"element": "O" 
			},
			{
				"x": -2.4086782632,
				"y": 0.2614755113,
				"z": 4.17692872,
				"element": "C" 
			},
			{
				"x": -2.838560658,
				"y": 0.9934777308,
				"z": 2.8874866415,
				"element": "C" 
			},
			{
				"x": -2.1577332198,
				"y": 0.53169824,
				"z": 1.6325665147,
				"element": "C" 
			},
			{
				"x": -1.6025984343,
				"y": 1.3473827397,
				"z": 0.7148576044,
				"element": "C" 
			},
			{
				"x": -0.9788207012,
				"y": 0.8844820281,
				"z": -0.5026403761,
				"element": "C" 
			},
			{
				"x": -0.4221126025,
				"y": 1.7061429583,
				"z": -1.4315886647,
				"element": "C" 
			},
			{
				"x": 0.1904247361,
				"y": 1.2673357162,
				"z": -2.6199447789,
				"element": "C" 
			},
			{
				"x": 0.7321039591,
				"y": 0.9254038542,
				"z": -3.6640294941,
				"element": "C" 
			},
			{
				"x": 1.3296326845,
				"y": 0.5344213235,
				"z": -4.8174098212,
				"element": "C" 
			},
			{
				"x": 1.871222375,
				"y": 0.19587838,
				"z": -5.8611594568,
				"element": "C" 
			},
			{
				"x": 2.4850473794,
				"y": -0.2532873494,
				"z": -7.0520678746,
				"element": "C" 
			},
			{
				"x": 3.0317854585,
				"y": 0.5606905869,
				"z": -7.9744884935,
				"element": "C" 
			},
			{
				"x": 3.6811599885,
				"y": 0.0818163365,
				"z": -9.2353261055,
				"element": "C" 
			},
			{
				"x": 3.6342218611,
				"y": -1.3313045462,
				"z": -9.3060105263,
				"element": "O" 
			},
			{
				"x": -0.3364624693,
				"y": -2.5961251119,
				"z": 4.9858384789,
				"element": "H" 
			},
			{
				"x": 0.8385130668,
				"y": -2.3653742784,
				"z": 6.2843367437,
				"element": "H" 
			},
			{
				"x": -0.5753928541,
				"y": -3.3893466344,
				"z": 6.5578805997,
				"element": "H" 
			},
			{
				"x": -0.9102748734,
				"y": -1.1906736264,
				"z": 7.6591110641,
				"element": "H" 
			},
			{
				"x": -2.0867299703,
				"y": -1.4043895724,
				"z": 6.3841449091,
				"element": "H" 
			},
			{
				"x": 0.5144926928,
				"y": 0.2044010571,
				"z": 6.1004236165,
				"element": "H" 
			},
			{
				"x": -1.0209372354,
				"y": 0.9088639046,
				"z": 6.5637203356,
				"element": "H" 
			},
			{
				"x": -0.5926280254,
				"y": 1.400389981,
				"z": 4.2765127738,
				"element": "H" 
			},
			{
				"x": 0.7005898173,
				"y": -0.3735280245,
				"z": 3.6654371681,
				"element": "H" 
			},
			{
				"x": -2.986615902,
				"y": 0.6727096609,
				"z": 5.0132847949,
				"element": "H" 
			},
			{
				"x": -2.6689270896,
				"y": -0.8011553611,
				"z": 4.1038072143,
				"element": "H" 
			},
			{
				"x": -3.9241215343,
				"y": 0.8469536516,
				"z": 2.7750547499,
				"element": "H" 
			},
			{
				"x": -2.6891801254,
				"y": 2.0742043343,
				"z": 3.0090498914,
				"element": "H" 
			},
			{
				"x": -2.1341450725,
				"y": -0.5438029008,
				"z": 1.4607530364,
				"element": "H" 
			},
			{
				"x": -1.6135667561,
				"y": 2.4251610836,
				"z": 0.8830578987,
				"element": "H" 
			},
			{
				"x": -0.9577652425,
				"y": -0.190133547,
				"z": -0.6752180419,
				"element": "H" 
			},
			{
				"x": -0.4427595566,
				"y": 2.7833364896,
				"z": -1.2603594975,
				"element": "H" 
			},
			{
				"x": 2.5130157006,
				"y": -1.3270579893,
				"z": -7.2266578473,
				"element": "H" 
			},
			{
				"x": 3.019552787,
				"y": 1.6386011974,
				"z": -7.8289518764,
				"element": "H" 
			},
			{
				"x": 4.7214926965,
				"y": 0.4549362667,
				"z": -9.2614057013,
				"element": "H" 
			},
			{
				"x": 3.1685512128,
				"y": 0.548335428,
				"z": -10.0965711036,
				"element": "H" 
			},
			{
				"x": 4.0561808913,
				"y": -1.6069944867,
				"z": -10.1278861655,
				"element": "H" 
			}
		],
		 "valence_orbital": [ 
			{
				"type": "occ",
				"energy": -0.27802,
				"method": "rhf"
			},
			{
				"type": "occ",
				"energy": -0.26206,
				"method": "rhf"
			},
			{
				"type": "occ",
				"energy": -0.23739,
				"method": "rhf"
			},
			{
				"type": "occ",
				"energy": -0.22537,
				"method": "rhf"
			},
			{
				"type": "occ",
				"energy": -0.18678,
				"method": "rhf"
			},
			{
				"type": "unocc",
				"energy": -0.05735,
				"method": "rhf"
			},
			{
				"type": "unocc",
				"energy": -0.00183,
				"method": "rhf"
			},
			{
				"type": "unocc",
				"energy": -0.00071,
				"method": "rhf"
			},
			{
				"type": "unocc",
				"energy": 0.06261,
				"method": "rhf"
			},
			{
				"type": "unocc",
				"energy": 0.06734,
				"method": "rhf"
			}
		],
		"cosmo_sigma_profile": { 
			"-0.025": 0.0,
			"-0.024": 0.0,
			"-0.023": 0.0,
			"-0.022": 0.0,
			"-0.021": 0.0,
			"-0.02": 0.0,
			"-0.019": 0.0,
			"-0.018": 0.0,
			"-0.017": 0.0943390170358,
			"-0.016": 1.16005006827,
			"-0.015": 1.47870390239,
			"-0.014": 1.76714132467,
			"-0.013": 2.00468524619,
			"-0.012": 1.78099736439,
			"-0.011": 2.23947683848,
			"-0.01": 1.18664453181,
			"-0.009": 1.47180222897,
			"-0.008": 1.79659691886,
			"-0.007": 4.66359614859,
			"-0.006": 11.312798624,
			"-0.005": 22.6064772055,
			"-0.004": 20.0165439787,
			"-0.003": 28.1869612775,
			"-0.002": 40.5032643163,
			"-0.001": 33.5981375058,
			"0.0": 30.6823188759,
			"0.001": 28.2232763301,
			"0.002": 22.0025278612,
			"0.003": 18.47060788,
			"0.004": 39.299498507,
			"0.005": 33.4086698473,
			"0.006": 6.69313877411,
			"0.007": 3.93965278664,
			"0.008": 3.24901593668,
			"0.009": 3.11678314428,
			"0.01": 3.7858190129,
			"0.011": 2.75695893245,
			"0.012": 1.83895345906,
			"0.013": 0.735013990579,
			"0.014": 0.0285941173749,
			"0.015": 0.0,
			"0.016": 0.0,
			"0.017": 0.0,
			"0.018": 0.0,
			"0.019": 0.0,
			"0.02": 0.0,
			"0.021": 0.0,
			"0.022": 0.0,
			"0.023": 0.0,
			"0.024": 0.0,
			"0.025": 0.0
		}
	}
}
