{
	 "smiles": "COC1=CC=C(C=C1)C(=O)C1=NOC(=C1S(=O)(=O)C1=CC=CC=C1)C1=CC=C(Br)C=C1", 
	 "Tm": 423.15, 
	 "num_atms": 47, 
	 "gaussian": { 
		 "optdone": 1, 
		 "sigma_profile": "yes", 
		 "theory": "DFT", 
		 "functional": "B3LYP", 
		 "basiset": "6-31G**", 
		 "properties": { 
			 "R2extent": 22655.8522, 
			 "electric_dipole_moment_norm": 2.20713469911, 
			 "electric_quadrupole_moment_norm": 37.2781568756, 
			 "total_energy": -4286.41551438, 
			 "HOMO_LUMO_gap": 0.16463, 
			 "cosmo_polarized_energy": -19.26, 
			 "cosmo_cavitation_energy": 56.19, 
			 "cosmo_dispersion_energy": -39.16, 
			 "cosmo_repulsion_energy": 2.9, 
			 "cosmo_total_nonelectrostatic_energy": 19.92, 
			 "SMD_solvation_energy": 8.54 
		},
		"coords": [
			{
				"x": 3.8161273139,
				"y": -1.2009110261,
				"z": 7.0135639718,
				"element": "C" 
			},
			{
				"x": 2.9911772682,
				"y": -0.2481236459,
				"z": 6.3530191491,
				"element": "O" 
			},
			{
				"x": 2.8015336862,
				"y": -0.3640425993,
				"z": 5.0161692444,
				"element": "C" 
			},
			{
				"x": 3.3732591647,
				"y": -1.3682352503,
				"z": 4.2155122791,
				"element": "C" 
			},
			{
				"x": 3.106625069,
				"y": -1.3880267601,
				"z": 2.8531823646,
				"element": "C" 
			},
			{
				"x": 2.2772362199,
				"y": -0.422496767,
				"z": 2.2595535952,
				"element": "C" 
			},
			{
				"x": 1.7098999563,
				"y": 0.5766852221,
				"z": 3.0744320055,
				"element": "C" 
			},
			{
				"x": 1.9689674908,
				"y": 0.6076265349,
				"z": 4.4341583058,
				"element": "C" 
			},
			{
				"x": 2.0310875078,
				"y": -0.5158713964,
				"z": 0.8113213351,
				"element": "C" 
			},
			{
				"x": 2.534173974,
				"y": -1.3730711305,
				"z": 0.0964767509,
				"element": "O" 
			},
			{
				"x": 1.152201598,
				"y": 0.5266634534,
				"z": 0.1403462665,
				"element": "C" 
			},
			{
				"x": 1.5988111613,
				"y": 1.7560077165,
				"z": 0.0537223013,
				"element": "N" 
			},
			{
				"x": 0.6714734885,
				"y": 2.4379611748,
				"z": -0.7381723601,
				"element": "O" 
			},
			{
				"x": -0.3303088804,
				"y": 1.6127966297,
				"z": -1.1155651336,
				"element": "C" 
			},
			{
				"x": -0.0815977406,
				"y": 0.3655501122,
				"z": -0.572080309,
				"element": "C" 
			},
			{
				"x": -0.9956956665,
				"y": -1.1679167217,
				"z": -0.6551322962,
				"element": "S" 
			},
			{
				"x": -0.4330051146,
				"y": -2.0141602432,
				"z": 0.4029817917,
				"element": "O" 
			},
			{
				"x": -2.4357878594,
				"y": -0.8585319778,
				"z": -0.6653042136,
				"element": "O" 
			},
			{
				"x": -0.577897469,
				"y": -1.8590985733,
				"z": -2.2599873466,
				"element": "C" 
			},
			{
				"x": -1.5740540695,
				"y": -1.9394713025,
				"z": -3.2344411476,
				"element": "C" 
			},
			{
				"x": -1.2584988229,
				"y": -2.5019077864,
				"z": -4.4721848098,
				"element": "C" 
			},
			{
				"x": 0.0340090675,
				"y": -2.9685852069,
				"z": -4.7191139346,
				"element": "C" 
			},
			{
				"x": 1.0189133104,
				"y": -2.879579677,
				"z": -3.730961151,
				"element": "C" 
			},
			{
				"x": 0.7206588441,
				"y": -2.325857243,
				"z": -2.4865030307,
				"element": "C" 
			},
			{
				"x": -1.3266812647,
				"y": 2.2362829886,
				"z": -1.9944251778,
				"element": "C" 
			},
			{
				"x": -2.676176931,
				"y": 1.8466397175,
				"z": -2.0085872925,
				"element": "C" 
			},
			{
				"x": -3.5837310273,
				"y": 2.4878623151,
				"z": -2.8491082287,
				"element": "C" 
			},
			{
				"x": -3.1464746236,
				"y": 3.5208250649,
				"z": -3.6762009622,
				"element": "C" 
			},
			{
				"x": -4.3902126545,
				"y": 4.393494161,
				"z": -4.8289927365,
				"element": "Br" 
			},
			{
				"x": -1.8124894068,
				"y": 3.9298549608,
				"z": -3.672164556,
				"element": "C" 
			},
			{
				"x": -0.9096244475,
				"y": 3.2903287493,
				"z": -2.8301505229,
				"element": "C" 
			},
			{
				"x": 4.8428456767,
				"y": -1.1786805336,
				"z": 6.6287344866,
				"element": "H" 
			},
			{
				"x": 3.4137720979,
				"y": -2.2163852049,
				"z": 6.9162047337,
				"element": "H" 
			},
			{
				"x": 3.8192864553,
				"y": -0.9136137667,
				"z": 8.0655589638,
				"element": "H" 
			},
			{
				"x": 4.0152351267,
				"y": -2.1267831403,
				"z": 4.6465450037,
				"element": "H" 
			},
			{
				"x": 3.5349950996,
				"y": -2.1572350371,
				"z": 2.2194991672,
				"element": "H" 
			},
			{
				"x": 1.0712393935,
				"y": 1.3359934637,
				"z": 2.6379638433,
				"element": "H" 
			},
			{
				"x": 1.5406138797,
				"y": 1.3710253187,
				"z": 5.0745289661,
				"element": "H" 
			},
			{
				"x": -2.5719752321,
				"y": -1.5779783561,
				"z": -3.0143849159,
				"element": "H" 
			},
			{
				"x": -2.0225722854,
				"y": -2.5759996514,
				"z": -5.2400128826,
				"element": "H" 
			},
			{
				"x": 0.2753244239,
				"y": -3.4043758754,
				"z": -5.68433308,
				"element": "H" 
			},
			{
				"x": 2.0222247191,
				"y": -3.2451922207,
				"z": -3.9272480586,
				"element": "H" 
			},
			{
				"x": 1.4769524803,
				"y": -2.244261352,
				"z": -1.7114354394,
				"element": "H" 
			},
			{
				"x": -3.0146536112,
				"y": 1.0501719013,
				"z": -1.358229867,
				"element": "H" 
			},
			{
				"x": -4.6256998178,
				"y": 2.1894343823,
				"z": -2.8536056193,
				"element": "H" 
			},
			{
				"x": -1.485029989,
				"y": 4.7350273366,
				"z": -4.3194674378,
				"element": "H" 
			},
			{
				"x": 0.1284224408,
				"y": 3.6031612424,
				"z": -2.8229820157,
				"element": "H" 
			}
		],
		 "valence_orbital": [ 
			{
				"type": "occ",
				"energy": -0.26802,
				"method": "rhf"
			},
			{
				"type": "occ",
				"energy": -0.26625,
				"method": "rhf"
			},
			{
				"type": "occ",
				"energy": -0.26534,
				"method": "rhf"
			},
			{
				"type": "occ",
				"energy": -0.24598,
				"method": "rhf"
			},
			{
				"type": "occ",
				"energy": -0.23533,
				"method": "rhf"
			},
			{
				"type": "unocc",
				"energy": -0.0707,
				"method": "rhf"
			},
			{
				"type": "unocc",
				"energy": -0.06505,
				"method": "rhf"
			},
			{
				"type": "unocc",
				"energy": -0.03869,
				"method": "rhf"
			},
			{
				"type": "unocc",
				"energy": -0.02654,
				"method": "rhf"
			},
			{
				"type": "unocc",
				"energy": -0.01733,
				"method": "rhf"
			}
		],
		"cosmo_sigma_profile": { 
			"-0.025": 0.0,
			"-0.024": 0.0,
			"-0.023": 0.0,
			"-0.022": 0.0,
			"-0.021": 0.0,
			"-0.02": 0.0,
			"-0.019": 0.0,
			"-0.018": 0.0,
			"-0.017": 0.0,
			"-0.016": 0.0,
			"-0.015": 0.0,
			"-0.014": 0.0,
			"-0.013": 0.0,
			"-0.012": 0.0,
			"-0.011": 0.0,
			"-0.01": 0.0,
			"-0.009": 0.0,
			"-0.008": 3.00716357256,
			"-0.007": 19.5884339209,
			"-0.006": 31.3458375618,
			"-0.005": 32.3217070316,
			"-0.004": 32.1158061128,
			"-0.003": 32.8365138095,
			"-0.002": 27.3643881999,
			"-0.001": 28.5920062569,
			"0.0": 35.3867344099,
			"0.001": 45.6305742412,
			"0.002": 48.6839540115,
			"0.003": 38.095024931,
			"0.004": 22.2295845034,
			"0.005": 9.89129913001,
			"0.006": 8.59538425032,
			"0.007": 6.96384735775,
			"0.008": 9.08755821352,
			"0.009": 8.95257521979,
			"0.01": 8.34973265135,
			"0.011": 7.16617239045,
			"0.012": 0.847281113028,
			"0.013": 0.0,
			"0.014": 0.0,
			"0.015": 0.0,
			"0.016": 0.0,
			"0.017": 0.0,
			"0.018": 0.0,
			"0.019": 0.0,
			"0.02": 0.0,
			"0.021": 0.0,
			"0.022": 0.0,
			"0.023": 0.0,
			"0.024": 0.0,
			"0.025": 0.0
		}
	}
}
