{
	 "smiles": "CCCCC1=NC(=NO1)C1=CC(O)=CC=C1", 
	 "Tm": 325.15, 
	 "num_atms": 30, 
	 "gaussian": { 
		 "optdone": 1, 
		 "sigma_profile": "yes", 
		 "theory": "DFT", 
		 "functional": "B3LYP", 
		 "basiset": "6-31G**", 
		 "properties": { 
			 "R2extent": 6323.1722, 
			 "electric_dipole_moment_norm": 2.78332508522, 
			 "electric_quadrupole_moment_norm": 4.09028538369, 
			 "total_energy": -725.644813868, 
			 "HOMO_LUMO_gap": 0.18051, 
			 "cosmo_polarized_energy": -11.84, 
			 "cosmo_cavitation_energy": 34.15, 
			 "cosmo_dispersion_energy": -24.34, 
			 "cosmo_repulsion_energy": 1.92, 
			 "cosmo_total_nonelectrostatic_energy": 11.73, 
			 "SMD_solvation_energy": 4.24 
		},
		"coords": [
			{
				"x": 2.8247133702,
				"y": -0.768873473,
				"z": -1.0622499629,
				"element": "C" 
			},
			{
				"x": 1.4742429099,
				"y": -1.4878855763,
				"z": -1.1588360096,
				"element": "C" 
			},
			{
				"x": 1.0497087288,
				"y": -2.2215208744,
				"z": 0.1232613817,
				"element": "C" 
			},
			{
				"x": 0.8829307298,
				"y": -1.3198642587,
				"z": 1.3686078228,
				"element": "C" 
			},
			{
				"x": -0.1395324975,
				"y": -0.2478485197,
				"z": 1.1904309355,
				"element": "C" 
			},
			{
				"x": 0.0347338694,
				"y": 1.0385361252,
				"z": 1.1048511197,
				"element": "N" 
			},
			{
				"x": -1.2549852496,
				"y": 1.5090364121,
				"z": 0.9279732087,
				"element": "C" 
			},
			{
				"x": -2.172558677,
				"y": 0.567585966,
				"z": 0.9041377354,
				"element": "N" 
			},
			{
				"x": -1.4307623947,
				"y": -0.6122956978,
				"z": 1.0787673976,
				"element": "O" 
			},
			{
				"x": -1.5701023218,
				"y": 2.9367201193,
				"z": 0.7802129022,
				"element": "C" 
			},
			{
				"x": -0.5256768649,
				"y": 3.869702557,
				"z": 0.8233645649,
				"element": "C" 
			},
			{
				"x": -0.8024090737,
				"y": 5.2312611738,
				"z": 0.6850223547,
				"element": "C" 
			},
			{
				"x": 0.1753434974,
				"y": 6.184608177,
				"z": 0.7192787094,
				"element": "O" 
			},
			{
				"x": -2.1202689892,
				"y": 5.6660299922,
				"z": 0.5031042154,
				"element": "C" 
			},
			{
				"x": -3.1525222138,
				"y": 4.7300860818,
				"z": 0.4614584159,
				"element": "C" 
			},
			{
				"x": -2.8918780839,
				"y": 3.3676297357,
				"z": 0.5982218086,
				"element": "C" 
			},
			{
				"x": 3.6203381382,
				"y": -1.4561044237,
				"z": -0.7506973939,
				"element": "H" 
			},
			{
				"x": 2.7929169594,
				"y": 0.0582962955,
				"z": -0.3459939923,
				"element": "H" 
			},
			{
				"x": 3.1114272117,
				"y": -0.348101814,
				"z": -2.0311977425,
				"element": "H" 
			},
			{
				"x": 1.5119768864,
				"y": -2.2245489824,
				"z": -1.970749964,
				"element": "H" 
			},
			{
				"x": 0.6973946776,
				"y": -0.7664967916,
				"z": -1.4428899376,
				"element": "H" 
			},
			{
				"x": 1.7940369833,
				"y": -2.9889868913,
				"z": 0.3701882099,
				"element": "H" 
			},
			{
				"x": 0.1052067775,
				"y": -2.7480192235,
				"z": -0.0555016509,
				"element": "H" 
			},
			{
				"x": 1.8232668308,
				"y": -0.8275893319,
				"z": 1.6262682673,
				"element": "H" 
			},
			{
				"x": 0.591187849,
				"y": -1.9411307108,
				"z": 2.223096374,
				"element": "H" 
			},
			{
				"x": 0.4922924526,
				"y": 3.5176852432,
				"z": 0.9652557244,
				"element": "H" 
			},
			{
				"x": 1.0304854678,
				"y": 5.7547065145,
				"z": 0.8504555441,
				"element": "H" 
			},
			{
				"x": -2.3125443049,
				"y": 6.7285677658,
				"z": 0.397765301,
				"element": "H" 
			},
			{
				"x": -4.1741580645,
				"y": 5.0703141435,
				"z": 0.3202636947,
				"element": "H" 
			},
			{
				"x": -3.6946046041,
				"y": 2.6398002662,
				"z": 0.5659309658,
				"element": "H" 
			}
		],
		 "valence_orbital": [ 
			{
				"type": "occ",
				"energy": -0.32105,
				"method": "rhf"
			},
			{
				"type": "occ",
				"energy": -0.2939,
				"method": "rhf"
			},
			{
				"type": "occ",
				"energy": -0.2886,
				"method": "rhf"
			},
			{
				"type": "occ",
				"energy": -0.24687,
				"method": "rhf"
			},
			{
				"type": "occ",
				"energy": -0.22299,
				"method": "rhf"
			},
			{
				"type": "unocc",
				"energy": -0.04248,
				"method": "rhf"
			},
			{
				"type": "unocc",
				"energy": -0.00698,
				"method": "rhf"
			},
			{
				"type": "unocc",
				"energy": 0.0118,
				"method": "rhf"
			},
			{
				"type": "unocc",
				"energy": 0.0706,
				"method": "rhf"
			},
			{
				"type": "unocc",
				"energy": 0.0739,
				"method": "rhf"
			}
		],
		"cosmo_sigma_profile": { 
			"-0.025": 0.0,
			"-0.024": 0.0,
			"-0.023": 0.0,
			"-0.022": 0.0,
			"-0.021": 0.0,
			"-0.02": 0.0,
			"-0.019": 0.0,
			"-0.018": 0.584882489316,
			"-0.017": 1.24496133582,
			"-0.016": 0.908813559406,
			"-0.015": 1.1453000567,
			"-0.014": 1.30805293577,
			"-0.013": 0.538089336422,
			"-0.012": 0.843462441053,
			"-0.011": 0.577660431805,
			"-0.01": 1.64003170442,
			"-0.009": 1.04083283569,
			"-0.008": 0.83776094161,
			"-0.007": 2.97530938355,
			"-0.006": 8.83962914894,
			"-0.005": 10.1466636476,
			"-0.004": 16.467277975,
			"-0.003": 25.656405477,
			"-0.002": 27.9787301831,
			"-0.001": 25.3941298543,
			"0.0": 25.6704653465,
			"0.001": 22.8526852263,
			"0.002": 19.5817490047,
			"0.003": 18.5216561049,
			"0.004": 16.3091780689,
			"0.005": 8.51554200341,
			"0.006": 5.56828802161,
			"0.007": 7.3799929711,
			"0.008": 3.73154829776,
			"0.009": 4.56628087321,
			"0.01": 3.6262527405,
			"0.011": 3.72072132239,
			"0.012": 1.86952888207,
			"0.013": 0.216582049053,
			"0.014": 0.0,
			"0.015": 0.0,
			"0.016": 0.0,
			"0.017": 0.0,
			"0.018": 0.0,
			"0.019": 0.0,
			"0.02": 0.0,
			"0.021": 0.0,
			"0.022": 0.0,
			"0.023": 0.0,
			"0.024": 0.0,
			"0.025": 0.0
		}
	}
}
