{
	 "smiles": "CC1=C(C)C2=C(NC(=NC2=N)C2=CN=C(Cl)C=C2)S1", 
	 "Tm": 407.15, 
	 "num_atms": 30, 
	 "gaussian": { 
		 "optdone": 1, 
		 "sigma_profile": "yes", 
		 "theory": "DFT", 
		 "functional": "B3LYP", 
		 "basiset": "6-31G**", 
		 "properties": { 
			 "R2extent": 10184.575, 
			 "electric_dipole_moment_norm": 5.5955019882, 
			 "electric_quadrupole_moment_norm": 13.111056451, 
			 "total_energy": -1579.39415335, 
			 "HOMO_LUMO_gap": 0.13413, 
			 "cosmo_polarized_energy": -20.66, 
			 "cosmo_cavitation_energy": 37.56, 
			 "cosmo_dispersion_energy": -28.25, 
			 "cosmo_repulsion_energy": 2.11, 
			 "cosmo_total_nonelectrostatic_energy": 11.42, 
			 "SMD_solvation_energy": 2.36 
		},
		"coords": [
			{
				"x": -0.4079088178,
				"y": -3.2173795921,
				"z": 2.6252059081,
				"element": "C" 
			},
			{
				"x": -0.3336430434,
				"y": -2.1466733681,
				"z": 1.5773851719,
				"element": "C" 
			},
			{
				"x": -0.2959501612,
				"y": -2.2406270534,
				"z": 0.2103614392,
				"element": "C" 
			},
			{
				"x": -0.3270875223,
				"y": -3.5297136545,
				"z": -0.5647512076,
				"element": "C" 
			},
			{
				"x": -0.2187539447,
				"y": -0.9418431638,
				"z": -0.428443515,
				"element": "C" 
			},
			{
				"x": -0.202473243,
				"y": 0.0845630728,
				"z": 0.4841487281,
				"element": "C" 
			},
			{
				"x": -0.1520728025,
				"y": 1.4116249245,
				"z": 0.098874108,
				"element": "N" 
			},
			{
				"x": -0.0845241399,
				"y": 1.6881133243,
				"z": -1.2545866933,
				"element": "C" 
			},
			{
				"x": -0.0934924729,
				"y": 0.7786504865,
				"z": -2.1740167482,
				"element": "N" 
			},
			{
				"x": -0.1431678599,
				"y": -0.6004672431,
				"z": -1.8566474297,
				"element": "C" 
			},
			{
				"x": -0.1245950475,
				"y": -1.5016656773,
				"z": -2.7724884277,
				"element": "N" 
			},
			{
				"x": -0.0069559918,
				"y": 3.1188428035,
				"z": -1.6356482766,
				"element": "C" 
			},
			{
				"x": 0.5545759104,
				"y": 3.4713673382,
				"z": -2.8719963733,
				"element": "C" 
			},
			{
				"x": 0.6696266709,
				"y": 4.7322973874,
				"z": -3.2991068479,
				"element": "N" 
			},
			{
				"x": 0.2197872337,
				"y": 5.6906486089,
				"z": -2.5065691362,
				"element": "C" 
			},
			{
				"x": 0.3823423749,
				"y": 7.3413202147,
				"z": -3.0879489808,
				"element": "Cl" 
			},
			{
				"x": -0.3710539548,
				"y": 5.4758181053,
				"z": -1.2586912207,
				"element": "C" 
			},
			{
				"x": -0.4829613239,
				"y": 4.1597012858,
				"z": -0.82515038,
				"element": "C" 
			},
			{
				"x": -0.2840606816,
				"y": -0.4626504232,
				"z": 2.1270869194,
				"element": "S" 
			},
			{
				"x": -1.3169629364,
				"y": -3.1325274899,
				"z": 3.2323476598,
				"element": "H" 
			},
			{
				"x": 0.4486783535,
				"y": -3.1787581793,
				"z": 3.308379474,
				"element": "H" 
			},
			{
				"x": -0.4135548174,
				"y": -4.205163046,
				"z": 2.1606109309,
				"element": "H" 
			},
			{
				"x": -1.181443808,
				"y": -3.5485838239,
				"z": -1.2466563184,
				"element": "H" 
			},
			{
				"x": -0.3828061379,
				"y": -4.3975907099,
				"z": 0.0959196276,
				"element": "H" 
			},
			{
				"x": 0.5585492527,
				"y": -3.620167622,
				"z": -1.1987948975,
				"element": "H" 
			},
			{
				"x": 0.0623765298,
				"y": 2.1307406604,
				"z": 0.7731764814,
				"element": "H" 
			},
			{
				"x": -0.0727267588,
				"y": -1.0333481752,
				"z": -3.681045991,
				"element": "H" 
			},
			{
				"x": 0.9209173896,
				"y": 2.6904668637,
				"z": -3.5311223965,
				"element": "H" 
			},
			{
				"x": -0.7359622475,
				"y": 6.3053189103,
				"z": -0.6654129829,
				"element": "H" 
			},
			{
				"x": -0.972096002,
				"y": 3.9536852355,
				"z": 0.1229813748,
				"element": "H" 
			}
		],
		 "valence_orbital": [ 
			{
				"type": "occ",
				"energy": -0.27445,
				"method": "rhf"
			},
			{
				"type": "occ",
				"energy": -0.26045,
				"method": "rhf"
			},
			{
				"type": "occ",
				"energy": -0.25417,
				"method": "rhf"
			},
			{
				"type": "occ",
				"energy": -0.24368,
				"method": "rhf"
			},
			{
				"type": "occ",
				"energy": -0.20435,
				"method": "rhf"
			},
			{
				"type": "unocc",
				"energy": -0.07022,
				"method": "rhf"
			},
			{
				"type": "unocc",
				"energy": -0.0501,
				"method": "rhf"
			},
			{
				"type": "unocc",
				"energy": -0.0182,
				"method": "rhf"
			},
			{
				"type": "unocc",
				"energy": -0.00395,
				"method": "rhf"
			},
			{
				"type": "unocc",
				"energy": 0.00367,
				"method": "rhf"
			}
		],
		"cosmo_sigma_profile": { 
			"-0.025": 0.0,
			"-0.024": 0.0,
			"-0.023": 0.0,
			"-0.022": 0.0,
			"-0.021": 0.0,
			"-0.02": 0.0,
			"-0.019": 0.0,
			"-0.018": 0.663278099196,
			"-0.017": 1.19789837687,
			"-0.016": 1.38045768171,
			"-0.015": 1.37357872011,
			"-0.014": 1.71044089823,
			"-0.013": 1.5733492991,
			"-0.012": 1.26369051357,
			"-0.011": 1.53912362739,
			"-0.01": 2.11137435747,
			"-0.009": 3.02147863293,
			"-0.008": 5.53980350053,
			"-0.007": 6.07802816037,
			"-0.006": 7.41622688184,
			"-0.005": 11.756510597,
			"-0.004": 14.8287979717,
			"-0.003": 19.7244214438,
			"-0.002": 26.7747190136,
			"-0.001": 34.4342618145,
			"0.0": 27.905834012,
			"0.001": 26.2177159056,
			"0.002": 21.6189333761,
			"0.003": 23.4440285606,
			"0.004": 20.1048614652,
			"0.005": 10.1413179258,
			"0.006": 5.26074984163,
			"0.007": 5.58604754511,
			"0.008": 4.64513387437,
			"0.009": 3.36691305955,
			"0.01": 2.89755625345,
			"0.011": 3.5392669193,
			"0.012": 3.19736998017,
			"0.013": 1.55417700848,
			"0.014": 2.05133139347,
			"0.015": 1.01291025119,
			"0.016": 0.80817279594,
			"0.017": 0.0224623562086,
			"0.018": 0.0,
			"0.019": 0.0,
			"0.02": 0.0,
			"0.021": 0.0,
			"0.022": 0.0,
			"0.023": 0.0,
			"0.024": 0.0,
			"0.025": 0.0
		}
	}
}
