{
	 "smiles": "ClC(=O)C(Cl)(C1=CC=CC=C1)C1=CC=CC=C1", 
	 "Tm": 322.65, 
	 "num_atms": 27, 
	 "gaussian": { 
		 "optdone": 1, 
		 "sigma_profile": "yes", 
		 "theory": "DFT", 
		 "functional": "B3LYP", 
		 "basiset": "6-31G**", 
		 "properties": { 
			 "R2extent": 4623.7419, 
			 "electric_dipole_moment_norm": 3.70354443473, 
			 "electric_quadrupole_moment_norm": 12.8440529881, 
			 "total_energy": -1535.11236134, 
			 "HOMO_LUMO_gap": 0.17883, 
			 "cosmo_polarized_energy": -7.43, 
			 "cosmo_cavitation_energy": 33.87, 
			 "cosmo_dispersion_energy": -23.73, 
			 "cosmo_repulsion_energy": 1.85, 
			 "cosmo_total_nonelectrostatic_energy": 11.99, 
			 "SMD_solvation_energy": 5.91 
		},
		"coords": [
			{
				"x": 3.0012567837,
				"y": 2.0758354089,
				"z": 0.7881076955,
				"element": "Cl" 
			},
			{
				"x": 2.563957195,
				"y": 0.5116416616,
				"z": -0.0069528312,
				"element": "C" 
			},
			{
				"x": 3.4267825833,
				"y": -0.2215529869,
				"z": -0.3704150415,
				"element": "O" 
			},
			{
				"x": 1.035302568,
				"y": 0.2991199301,
				"z": -0.1977536529,
				"element": "C" 
			},
			{
				"x": 0.7828220903,
				"y": 1.2717532136,
				"z": -1.7626726828,
				"element": "Cl" 
			},
			{
				"x": 0.2111362958,
				"y": 0.8698890596,
				"z": 0.9611178883,
				"element": "C" 
			},
			{
				"x": 0.2163792861,
				"y": 0.1485252741,
				"z": 2.1660280139,
				"element": "C" 
			},
			{
				"x": -0.4862489752,
				"y": 0.614768341,
				"z": 3.2745125444,
				"element": "C" 
			},
			{
				"x": -1.220054261,
				"y": 1.7998534773,
				"z": 3.1930635088,
				"element": "C" 
			},
			{
				"x": -1.237632563,
				"y": 2.5142800003,
				"z": 1.9963601945,
				"element": "C" 
			},
			{
				"x": -0.5228404792,
				"y": 2.0570138235,
				"z": 0.887526592,
				"element": "C" 
			},
			{
				"x": 0.637590637,
				"y": -1.1574212366,
				"z": -0.4680439332,
				"element": "C" 
			},
			{
				"x": -0.6428416244,
				"y": -1.3953903453,
				"z": -0.9946630426,
				"element": "C" 
			},
			{
				"x": -1.1070253263,
				"y": -2.6928649122,
				"z": -1.1846361466,
				"element": "C" 
			},
			{
				"x": -0.3055196167,
				"y": -3.7839951395,
				"z": -0.8390041572,
				"element": "C" 
			},
			{
				"x": 0.9588159593,
				"y": -3.5583191272,
				"z": -0.3019524688,
				"element": "C" 
			},
			{
				"x": 1.4322366375,
				"y": -2.2558503748,
				"z": -0.1156844406,
				"element": "C" 
			},
			{
				"x": 0.7647813096,
				"y": -0.785621197,
				"z": 2.2364851532,
				"element": "H" 
			},
			{
				"x": -0.4663383595,
				"y": 0.0455229968,
				"z": 4.1991027944,
				"element": "H" 
			},
			{
				"x": -1.7750365238,
				"y": 2.159837101,
				"z": 4.0543101899,
				"element": "H" 
			},
			{
				"x": -1.8063931489,
				"y": 3.4362319464,
				"z": 1.9191935653,
				"element": "H" 
			},
			{
				"x": -0.5356792564,
				"y": 2.6285575941,
				"z": -0.0320112156,
				"element": "H" 
			},
			{
				"x": -1.276389397,
				"y": -0.556152887,
				"z": -1.2610922318,
				"element": "H" 
			},
			{
				"x": -2.097388141,
				"y": -2.8513239992,
				"z": -1.6011057225,
				"element": "H" 
			},
			{
				"x": -0.6660524093,
				"y": -4.7976314693,
				"z": -0.9871451844,
				"element": "H" 
			},
			{
				"x": 1.5935304223,
				"y": -4.3956483293,
				"z": -0.0272582504,
				"element": "H" 
			},
			{
				"x": 2.4241483138,
				"y": -2.1138578241,
				"z": 0.2899828621,
				"element": "H" 
			}
		],
		 "valence_orbital": [ 
			{
				"type": "occ",
				"energy": -0.3,
				"method": "rhf"
			},
			{
				"type": "occ",
				"energy": -0.26783,
				"method": "rhf"
			},
			{
				"type": "occ",
				"energy": -0.26138,
				"method": "rhf"
			},
			{
				"type": "occ",
				"energy": -0.26031,
				"method": "rhf"
			},
			{
				"type": "occ",
				"energy": -0.24839,
				"method": "rhf"
			},
			{
				"type": "unocc",
				"energy": -0.06956,
				"method": "rhf"
			},
			{
				"type": "unocc",
				"energy": -0.03052,
				"method": "rhf"
			},
			{
				"type": "unocc",
				"energy": -0.0215,
				"method": "rhf"
			},
			{
				"type": "unocc",
				"energy": -0.01117,
				"method": "rhf"
			},
			{
				"type": "unocc",
				"energy": -0.00568,
				"method": "rhf"
			}
		],
		"cosmo_sigma_profile": { 
			"-0.025": 0.0,
			"-0.024": 0.0,
			"-0.023": 0.0,
			"-0.022": 0.0,
			"-0.021": 0.0,
			"-0.02": 0.0,
			"-0.019": 0.0,
			"-0.018": 0.0,
			"-0.017": 0.0,
			"-0.016": 0.0,
			"-0.015": 0.0,
			"-0.014": 0.0,
			"-0.013": 0.0,
			"-0.012": 0.00104821687749,
			"-0.011": 0.0960860445854,
			"-0.01": 0.325150291955,
			"-0.009": 0.755156972217,
			"-0.008": 0.688135626624,
			"-0.007": 2.99227023061,
			"-0.006": 18.0024359271,
			"-0.005": 20.8307485423,
			"-0.004": 22.0487450349,
			"-0.003": 15.5228742929,
			"-0.002": 18.0936671425,
			"-0.001": 18.2386784402,
			"0.0": 19.1534057662,
			"0.001": 23.9066881687,
			"0.002": 24.3860686479,
			"0.003": 33.6092114183,
			"0.004": 35.0140739454,
			"0.005": 14.4714437583,
			"0.006": 2.71803492499,
			"0.007": 3.48558156695,
			"0.008": 1.76508008443,
			"0.009": 0.0901935129893,
			"0.01": 0.0,
			"0.011": 0.0,
			"0.012": 0.0,
			"0.013": 0.0,
			"0.014": 0.0,
			"0.015": 0.0,
			"0.016": 0.0,
			"0.017": 0.0,
			"0.018": 0.0,
			"0.019": 0.0,
			"0.02": 0.0,
			"0.021": 0.0,
			"0.022": 0.0,
			"0.023": 0.0,
			"0.024": 0.0,
			"0.025": 0.0
		}
	}
}
