{
	 "smiles": "CN(CC1=CC=C(C)C=C1)C(N)=O", 
	 "Tm": 420.15, 
	 "num_atms": 27, 
	 "gaussian": { 
		 "optdone": 1, 
		 "sigma_profile": "yes", 
		 "theory": "DFT", 
		 "functional": "B3LYP", 
		 "basiset": "6-31G**", 
		 "properties": { 
			 "R2extent": 3184.312, 
			 "electric_dipole_moment_norm": 3.39490564817, 
			 "electric_quadrupole_moment_norm": 17.5223931379, 
			 "total_energy": -574.260825836, 
			 "HOMO_LUMO_gap": 0.22848, 
			 "cosmo_polarized_energy": -13.66, 
			 "cosmo_cavitation_energy": 29.77, 
			 "cosmo_dispersion_energy": -21.36, 
			 "cosmo_repulsion_energy": 1.71, 
			 "cosmo_total_nonelectrostatic_energy": 10.12, 
			 "SMD_solvation_energy": 5.7 
		},
		"coords": [
			{
				"x": 0.2468877267,
				"y": -2.6501171372,
				"z": -1.3474107851,
				"element": "C" 
			},
			{
				"x": 0.6879250773,
				"y": -2.2861454043,
				"z": -0.0104260223,
				"element": "N" 
			},
			{
				"x": 1.3805063523,
				"y": -1.00443585,
				"z": 0.1527189287,
				"element": "C" 
			},
			{
				"x": 0.4685254952,
				"y": 0.202195037,
				"z": 0.0330203619,
				"element": "C" 
			},
			{
				"x": 0.5933087111,
				"y": 1.1079067021,
				"z": -1.0227676916,
				"element": "C" 
			},
			{
				"x": -0.2545202027,
				"y": 2.2156198809,
				"z": -1.1216013891,
				"element": "C" 
			},
			{
				"x": -1.2499954796,
				"y": 2.4459337401,
				"z": -0.1682361723,
				"element": "C" 
			},
			{
				"x": -2.1689235583,
				"y": 3.6414987406,
				"z": -0.2631956354,
				"element": "C" 
			},
			{
				"x": -1.3709341096,
				"y": 1.5319101032,
				"z": 0.8922423173,
				"element": "C" 
			},
			{
				"x": -0.529012643,
				"y": 0.4296123368,
				"z": 0.9950521369,
				"element": "C" 
			},
			{
				"x": 0.3846119505,
				"y": -3.0130062966,
				"z": 1.1192756667,
				"element": "C" 
			},
			{
				"x": -0.1857240076,
				"y": -4.2658498045,
				"z": 0.8941764064,
				"element": "N" 
			},
			{
				"x": 0.5626461444,
				"y": -2.5889343903,
				"z": 2.2601462317,
				"element": "O" 
			},
			{
				"x": -0.0094880575,
				"y": -1.741082761,
				"z": -1.8998504938,
				"element": "H" 
			},
			{
				"x": -0.6523910764,
				"y": -3.2674789074,
				"z": -1.297811262,
				"element": "H" 
			},
			{
				"x": 1.0206890517,
				"y": -3.1877700603,
				"z": -1.9160084273,
				"element": "H" 
			},
			{
				"x": 2.1767288619,
				"y": -0.9443385195,
				"z": -0.5999577989,
				"element": "H" 
			},
			{
				"x": 1.8456464956,
				"y": -1.0297681738,
				"z": 1.1398457314,
				"element": "H" 
			},
			{
				"x": 1.3648849157,
				"y": 0.9545820456,
				"z": -1.7746418723,
				"element": "H" 
			},
			{
				"x": -0.1383036703,
				"y": 2.9077348607,
				"z": -1.9522633524,
				"element": "H" 
			},
			{
				"x": -1.9618837257,
				"y": 4.2353567342,
				"z": -1.157890732,
				"element": "H" 
			},
			{
				"x": -2.0585205118,
				"y": 4.2996680296,
				"z": 0.6066927856,
				"element": "H" 
			},
			{
				"x": -3.2208605141,
				"y": 3.335468401,
				"z": -0.3007100025,
				"element": "H" 
			},
			{
				"x": -2.1349280147,
				"y": 1.6931697664,
				"z": 1.6496988383,
				"element": "H" 
			},
			{
				"x": -0.6280410853,
				"y": -0.2663711358,
				"z": 1.8235101248,
				"element": "H" 
			},
			{
				"x": -0.2383221595,
				"y": -4.7969175166,
				"z": 1.7522225415,
				"element": "H" 
			},
			{
				"x": 0.1403880337,
				"y": -4.8020404211,
				"z": 0.1021695657,
				"element": "H" 
			}
		],
		 "valence_orbital": [ 
			{
				"type": "occ",
				"energy": -0.27045,
				"method": "rhf"
			},
			{
				"type": "occ",
				"energy": -0.24915,
				"method": "rhf"
			},
			{
				"type": "occ",
				"energy": -0.24292,
				"method": "rhf"
			},
			{
				"type": "occ",
				"energy": -0.23447,
				"method": "rhf"
			},
			{
				"type": "occ",
				"energy": -0.22521,
				"method": "rhf"
			},
			{
				"type": "unocc",
				"energy": 0.00327,
				"method": "rhf"
			},
			{
				"type": "unocc",
				"energy": 0.00494,
				"method": "rhf"
			},
			{
				"type": "unocc",
				"energy": 0.05778,
				"method": "rhf"
			},
			{
				"type": "unocc",
				"energy": 0.08082,
				"method": "rhf"
			},
			{
				"type": "unocc",
				"energy": 0.10462,
				"method": "rhf"
			}
		],
		"cosmo_sigma_profile": { 
			"-0.025": 0.0,
			"-0.024": 0.0,
			"-0.023": 0.0,
			"-0.022": 0.0,
			"-0.021": 0.0,
			"-0.02": 0.0,
			"-0.019": 0.0,
			"-0.018": 0.0,
			"-0.017": 0.0,
			"-0.016": 0.0,
			"-0.015": 0.0,
			"-0.014": 0.072596928134,
			"-0.013": 1.23898139466,
			"-0.012": 2.64561889353,
			"-0.011": 1.54132619491,
			"-0.01": 3.20198796688,
			"-0.009": 2.64721526496,
			"-0.008": 2.0192811494,
			"-0.007": 1.86291689327,
			"-0.006": 2.5770347981,
			"-0.005": 13.714190004,
			"-0.004": 23.0002619538,
			"-0.003": 25.1517656573,
			"-0.002": 25.7592126413,
			"-0.001": 20.1420239962,
			"0.0": 17.0724938791,
			"0.001": 15.8601308922,
			"0.002": 12.8649727289,
			"0.003": 11.0105427374,
			"0.004": 9.32544188853,
			"0.005": 10.5907624438,
			"0.006": 10.137964552,
			"0.007": 4.14429425495,
			"0.008": 1.94281811949,
			"0.009": 1.19372379559,
			"0.01": 2.17531693407,
			"0.011": 1.72755820412,
			"0.012": 1.81085008151,
			"0.013": 1.92242856037,
			"0.014": 2.90435389566,
			"0.015": 3.84786331372,
			"0.016": 0.295594493077,
			"0.017": 0.0,
			"0.018": 0.0,
			"0.019": 0.0,
			"0.02": 0.0,
			"0.021": 0.0,
			"0.022": 0.0,
			"0.023": 0.0,
			"0.024": 0.0,
			"0.025": 0.0
		}
	}
}
