{
	 "smiles": "CCNC1=NN=C2CCNCC2=C1", 
	 "Tm": 414.15, 
	 "num_atms": 27, 
	 "gaussian": { 
		 "optdone": 1, 
		 "sigma_profile": "yes", 
		 "theory": "DFT", 
		 "functional": "B3LYP", 
		 "basiset": "6-31G**", 
		 "properties": { 
			 "R2extent": 3528.6551, 
			 "electric_dipole_moment_norm": 3.40168419169, 
			 "electric_quadrupole_moment_norm": 12.2852661343, 
			 "total_energy": -570.371209732, 
			 "HOMO_LUMO_gap": 0.17371, 
			 "cosmo_polarized_energy": -15.38, 
			 "cosmo_cavitation_energy": 28.83, 
			 "cosmo_dispersion_energy": -21.56, 
			 "cosmo_repulsion_energy": 1.73, 
			 "cosmo_total_nonelectrostatic_energy": 9.0, 
			 "SMD_solvation_energy": -0.87 
		},
		"coords": [
			{
				"x": 0.9135102546,
				"y": -2.776893649,
				"z": -0.0269941433,
				"element": "C" 
			},
			{
				"x": -0.1989003917,
				"y": -2.231534406,
				"z": 0.8796813627,
				"element": "C" 
			},
			{
				"x": 0.1271632023,
				"y": -0.993426232,
				"z": 1.5684156973,
				"element": "N" 
			},
			{
				"x": 0.2453225322,
				"y": 0.2317779418,
				"z": 0.9533956728,
				"element": "C" 
			},
			{
				"x": 0.9357728745,
				"y": 1.1482855575,
				"z": 1.6667040241,
				"element": "N" 
			},
			{
				"x": 1.0612358412,
				"y": 2.385900463,
				"z": 1.2124323854,
				"element": "N" 
			},
			{
				"x": 0.522754754,
				"y": 2.7476498136,
				"z": 0.043084257,
				"element": "C" 
			},
			{
				"x": 0.7034271373,
				"y": 4.1905135126,
				"z": -0.3778939776,
				"element": "C" 
			},
			{
				"x": 0.4348794065,
				"y": 4.3748851224,
				"z": -1.8804449043,
				"element": "C" 
			},
			{
				"x": -0.7976027216,
				"y": 3.715946307,
				"z": -2.3284284084,
				"element": "N" 
			},
			{
				"x": -0.7377602622,
				"y": 2.2719311778,
				"z": -2.1152829434,
				"element": "C" 
			},
			{
				"x": -0.1900815191,
				"y": 1.8368389908,
				"z": -0.7633501493,
				"element": "C" 
			},
			{
				"x": -0.3271666634,
				"y": 0.5425417217,
				"z": -0.2957624628,
				"element": "C" 
			},
			{
				"x": 1.8192015826,
				"y": -2.9859393054,
				"z": 0.5513832904,
				"element": "H" 
			},
			{
				"x": 1.1740483486,
				"y": -2.0574509681,
				"z": -0.809380724,
				"element": "H" 
			},
			{
				"x": 0.5961864125,
				"y": -3.7069294353,
				"z": -0.5110376804,
				"element": "H" 
			},
			{
				"x": -1.1180274176,
				"y": -2.0811810509,
				"z": 0.3013876812,
				"element": "H" 
			},
			{
				"x": -0.44903386,
				"y": -2.9702421153,
				"z": 1.648302708,
				"element": "H" 
			},
			{
				"x": 0.7167952148,
				"y": -1.0601082291,
				"z": 2.3885854152,
				"element": "H" 
			},
			{
				"x": 1.7105156849,
				"y": 4.5231345483,
				"z": -0.1036585838,
				"element": "H" 
			},
			{
				"x": 0.0084150235,
				"y": 4.8226585288,
				"z": 0.1940271025,
				"element": "H" 
			},
			{
				"x": 1.2631522318,
				"y": 3.9528370432,
				"z": -2.4646962634,
				"element": "H" 
			},
			{
				"x": 0.3785966673,
				"y": 5.4387215565,
				"z": -2.133670417,
				"element": "H" 
			},
			{
				"x": -1.5838189405,
				"y": 4.0982924434,
				"z": -1.8063440346,
				"element": "H" 
			},
			{
				"x": -0.0999254273,
				"y": 1.8366813146,
				"z": -2.899284087,
				"element": "H" 
			},
			{
				"x": -1.7370087148,
				"y": 1.848592876,
				"z": -2.2686721347,
				"element": "H" 
			},
			{
				"x": -0.8636512504,
				"y": -0.2042835276,
				"z": -0.8741986829,
				"element": "H" 
			}
		],
		 "valence_orbital": [ 
			{
				"type": "occ",
				"energy": -0.29738,
				"method": "rhf"
			},
			{
				"type": "occ",
				"energy": -0.27662,
				"method": "rhf"
			},
			{
				"type": "occ",
				"energy": -0.23048,
				"method": "rhf"
			},
			{
				"type": "occ",
				"energy": -0.21326,
				"method": "rhf"
			},
			{
				"type": "occ",
				"energy": -0.20787,
				"method": "rhf"
			},
			{
				"type": "unocc",
				"energy": -0.03416,
				"method": "rhf"
			},
			{
				"type": "unocc",
				"energy": 0.00655,
				"method": "rhf"
			},
			{
				"type": "unocc",
				"energy": 0.0817,
				"method": "rhf"
			},
			{
				"type": "unocc",
				"energy": 0.08489,
				"method": "rhf"
			},
			{
				"type": "unocc",
				"energy": 0.0992,
				"method": "rhf"
			}
		],
		"cosmo_sigma_profile": { 
			"-0.025": 0.0,
			"-0.024": 0.0,
			"-0.023": 0.0,
			"-0.022": 0.0,
			"-0.021": 0.0,
			"-0.02": 0.0,
			"-0.019": 0.0,
			"-0.018": 0.0,
			"-0.017": 0.0,
			"-0.016": 0.0,
			"-0.015": 0.0,
			"-0.014": 0.0,
			"-0.013": 0.00424456604411,
			"-0.012": 0.879171445501,
			"-0.011": 0.894065201055,
			"-0.01": 2.50031581944,
			"-0.009": 2.32504892083,
			"-0.008": 2.67017168266,
			"-0.007": 5.37338784455,
			"-0.006": 8.74418946124,
			"-0.005": 12.2003132129,
			"-0.004": 23.2900494765,
			"-0.003": 27.395105449,
			"-0.002": 25.6429540099,
			"-0.001": 21.0808476695,
			"0.0": 16.3861207097,
			"0.001": 17.3519027844,
			"0.002": 9.77841831327,
			"0.003": 6.41099571214,
			"0.004": 3.69328181784,
			"0.005": 3.49981779311,
			"0.006": 4.36443325149,
			"0.007": 3.44337295004,
			"0.008": 2.99892378652,
			"0.009": 3.09207787532,
			"0.01": 3.036514233,
			"0.011": 2.72495054489,
			"0.012": 2.36060419103,
			"0.013": 2.17947496236,
			"0.014": 2.12474346,
			"0.015": 3.90829756028,
			"0.016": 3.3019260313,
			"0.017": 1.61761320306,
			"0.018": 0.425140312178,
			"0.019": 0.0,
			"0.02": 0.0,
			"0.021": 0.0,
			"0.022": 0.0,
			"0.023": 0.0,
			"0.024": 0.0,
			"0.025": 0.0
		}
	}
}
