{
	 "smiles": "NC(=O)CN1C(S)=NN=C1C1=CC=CS1", 
	 "Tm": 593.15, 
	 "num_atms": 23, 
	 "gaussian": { 
		 "optdone": 1, 
		 "sigma_profile": "yes", 
		 "theory": "DFT", 
		 "functional": "B3LYP", 
		 "basiset": "6-31G**", 
		 "properties": { 
			 "R2extent": 4439.8399, 
			 "electric_dipole_moment_norm": 8.65145887698, 
			 "electric_quadrupole_moment_norm": 14.9230689508, 
			 "total_energy": -1400.24649918, 
			 "HOMO_LUMO_gap": 0.17125, 
			 "cosmo_polarized_energy": -25.46, 
			 "cosmo_cavitation_energy": 30.33, 
			 "cosmo_dispersion_energy": -23.03, 
			 "cosmo_repulsion_energy": 1.7, 
			 "cosmo_total_nonelectrostatic_energy": 8.99, 
			 "SMD_solvation_energy": 3.19 
		},
		"coords": [
			{
				"x": 1.6372524236,
				"y": 2.8452639749,
				"z": -1.8624277366,
				"element": "N" 
			},
			{
				"x": 1.9121183296,
				"y": 2.5822457157,
				"z": -0.5580617438,
				"element": "C" 
			},
			{
				"x": 3.0211536634,
				"y": 2.7366429601,
				"z": -0.0629140866,
				"element": "O" 
			},
			{
				"x": 0.7046062037,
				"y": 2.1508703236,
				"z": 0.2928543507,
				"element": "C" 
			},
			{
				"x": 0.9864652804,
				"y": 0.986983407,
				"z": 1.1150149051,
				"element": "N" 
			},
			{
				"x": 1.6047709778,
				"y": 0.9809272501,
				"z": 2.3511636523,
				"element": "C" 
			},
			{
				"x": 2.280737029,
				"y": 2.4042709482,
				"z": 3.1424261397,
				"element": "S" 
			},
			{
				"x": 1.5481413206,
				"y": -0.2161609995,
				"z": 2.8884390596,
				"element": "N" 
			},
			{
				"x": 0.8900030825,
				"y": -1.0359782249,
				"z": 2.0058021903,
				"element": "N" 
			},
			{
				"x": 0.5621374306,
				"y": -0.3202786061,
				"z": 0.94593807,
				"element": "C" 
			},
			{
				"x": -0.1767900874,
				"y": -0.869523593,
				"z": -0.1811247434,
				"element": "C" 
			},
			{
				"x": -1.0616333462,
				"y": -1.9196213841,
				"z": -0.1000901119,
				"element": "C" 
			},
			{
				"x": -1.5800390276,
				"y": -2.3236655876,
				"z": -1.3628895678,
				"element": "C" 
			},
			{
				"x": -1.0882394282,
				"y": -1.5861067504,
				"z": -2.4039920651,
				"element": "C" 
			},
			{
				"x": 0.0424553774,
				"y": -0.3901822434,
				"z": -1.8568890285,
				"element": "S" 
			},
			{
				"x": 2.4110320476,
				"y": 3.1045345879,
				"z": -2.4581740404,
				"element": "H" 
			},
			{
				"x": 0.7839373638,
				"y": 2.5306640928,
				"z": -2.2974931268,
				"element": "H" 
			},
			{
				"x": 0.4706750294,
				"y": 2.9877329814,
				"z": 0.9605229409,
				"element": "H" 
			},
			{
				"x": -0.1792335062,
				"y": 1.9422274319,
				"z": -0.3123512105,
				"element": "H" 
			},
			{
				"x": 2.9552133599,
				"y": 2.8214998118,
				"z": 2.0432901393,
				"element": "H" 
			},
			{
				"x": -1.3143039235,
				"y": -2.3771029069,
				"z": 0.8482819947,
				"element": "H" 
			},
			{
				"x": -2.2966000577,
				"y": -3.1267897571,
				"z": -1.4902756301,
				"element": "H" 
			},
			{
				"x": -1.3180595426,
				"y": -1.6650534324,
				"z": -3.4573503511,
				"element": "H" 
			}
		],
		 "valence_orbital": [ 
			{
				"type": "occ",
				"energy": -0.27675,
				"method": "rhf"
			},
			{
				"type": "occ",
				"energy": -0.27123,
				"method": "rhf"
			},
			{
				"type": "occ",
				"energy": -0.26122,
				"method": "rhf"
			},
			{
				"type": "occ",
				"energy": -0.25234,
				"method": "rhf"
			},
			{
				"type": "occ",
				"energy": -0.2205,
				"method": "rhf"
			},
			{
				"type": "unocc",
				"energy": -0.04925,
				"method": "rhf"
			},
			{
				"type": "unocc",
				"energy": -0.01596,
				"method": "rhf"
			},
			{
				"type": "unocc",
				"energy": 0.00476,
				"method": "rhf"
			},
			{
				"type": "unocc",
				"energy": 0.01462,
				"method": "rhf"
			},
			{
				"type": "unocc",
				"energy": 0.03236,
				"method": "rhf"
			}
		],
		"cosmo_sigma_profile": { 
			"-0.025": 0.0,
			"-0.024": 0.0,
			"-0.023": 0.0,
			"-0.022": 0.0,
			"-0.021": 0.0,
			"-0.02": 0.0,
			"-0.019": 0.0,
			"-0.018": 0.0,
			"-0.017": 0.0,
			"-0.016": 0.0,
			"-0.015": 0.764810257372,
			"-0.014": 3.29691675554,
			"-0.013": 2.18092463789,
			"-0.012": 2.44473920182,
			"-0.011": 2.94171910798,
			"-0.01": 3.49981255474,
			"-0.009": 6.61266022251,
			"-0.008": 7.54992329486,
			"-0.007": 12.702507197,
			"-0.006": 12.6253564626,
			"-0.005": 12.3897547569,
			"-0.004": 12.6251708093,
			"-0.003": 11.7204083877,
			"-0.002": 12.1520239221,
			"-0.001": 13.4478382758,
			"0.0": 15.0900559302,
			"0.001": 14.9442658435,
			"0.002": 17.9037874875,
			"0.003": 17.9542103062,
			"0.004": 13.4367012458,
			"0.005": 7.40698892244,
			"0.006": 5.33747588547,
			"0.007": 5.48163248243,
			"0.008": 4.45441935735,
			"0.009": 2.97821733193,
			"0.01": 4.82469615275,
			"0.011": 4.02932995846,
			"0.012": 5.36753738631,
			"0.013": 4.51218233269,
			"0.014": 3.25198750894,
			"0.015": 2.23559910914,
			"0.016": 1.71624413884,
			"0.017": 0.0336891868299,
			"0.018": 0.0,
			"0.019": 0.0,
			"0.02": 0.0,
			"0.021": 0.0,
			"0.022": 0.0,
			"0.023": 0.0,
			"0.024": 0.0,
			"0.025": 0.0
		}
	}
}
