{
	 "smiles": "CN(C)C(=O)C1=CC(=CN1C)S(Cl)(=O)=O", 
	 "Tm": 379.15, 
	 "num_atms": 26, 
	 "gaussian": { 
		 "optdone": 1, 
		 "sigma_profile": "yes", 
		 "theory": "DFT", 
		 "functional": "B3LYP", 
		 "basiset": "6-31G**", 
		 "properties": { 
			 "R2extent": 6763.7676, 
			 "electric_dipole_moment_norm": 6.05404922428, 
			 "electric_quadrupole_moment_norm": 28.2089523223, 
			 "total_energy": -1504.96803876, 
			 "HOMO_LUMO_gap": 0.17591, 
			 "cosmo_polarized_energy": -15.77, 
			 "cosmo_cavitation_energy": 33.23, 
			 "cosmo_dispersion_energy": -24.09, 
			 "cosmo_repulsion_energy": 1.86, 
			 "cosmo_total_nonelectrostatic_energy": 11.01, 
			 "SMD_solvation_energy": 5.12 
		},
		"coords": [
			{
				"x": -2.20836734,
				"y": 0.922279969,
				"z": -0.044355844,
				"element": "C" 
			},
			{
				"x": -2.2107141321,
				"y": -0.5301568981,
				"z": 0.0713581889,
				"element": "N" 
			},
			{
				"x": -3.4298330434,
				"y": -1.190871147,
				"z": -0.3808731042,
				"element": "C" 
			},
			{
				"x": -1.1348967818,
				"y": -1.3160686929,
				"z": 0.3964460238,
				"element": "C" 
			},
			{
				"x": -1.1315322237,
				"y": -2.5356168649,
				"z": 0.2055110741,
				"element": "O" 
			},
			{
				"x": 0.0395671403,
				"y": -0.6754077991,
				"z": 1.0505945702,
				"element": "C" 
			},
			{
				"x": 0.1255110243,
				"y": 0.35711071,
				"z": 1.9689946768,
				"element": "C" 
			},
			{
				"x": 1.481051926,
				"y": 0.4276050456,
				"z": 2.3695263404,
				"element": "C" 
			},
			{
				"x": 2.1863817419,
				"y": -0.5627502581,
				"z": 1.7010555863,
				"element": "C" 
			},
			{
				"x": 1.3117361822,
				"y": -1.2310722913,
				"z": 0.9118528608,
				"element": "N" 
			},
			{
				"x": 1.6895043863,
				"y": -2.3524649664,
				"z": 0.0482674296,
				"element": "C" 
			},
			{
				"x": 2.1844937694,
				"y": 1.5534403783,
				"z": 3.4957041501,
				"element": "S" 
			},
			{
				"x": 1.8251843085,
				"y": 0.6080372075,
				"z": 5.3848297492,
				"element": "Cl" 
			},
			{
				"x": 3.6334149885,
				"y": 1.5581792871,
				"z": 3.3275301388,
				"element": "O" 
			},
			{
				"x": 1.391857863,
				"y": 2.776670345,
				"z": 3.5191875685,
				"element": "O" 
			},
			{
				"x": -2.8088411354,
				"y": 1.3933536253,
				"z": 0.7447885725,
				"element": "H" 
			},
			{
				"x": -1.1942407466,
				"y": 1.3141497018,
				"z": 0.0026908049,
				"element": "H" 
			},
			{
				"x": -2.6412396735,
				"y": 1.2065385107,
				"z": -1.0107688414,
				"element": "H" 
			},
			{
				"x": -4.2956133608,
				"y": -0.7578333505,
				"z": 0.1323921868,
				"element": "H" 
			},
			{
				"x": -3.5680255472,
				"y": -1.0627274432,
				"z": -1.4623684873,
				"element": "H" 
			},
			{
				"x": -3.3591820043,
				"y": -2.2536922796,
				"z": -0.1581451323,
				"element": "H" 
			},
			{
				"x": -0.6796251462,
				"y": 0.9772005014,
				"z": 2.3308175498,
				"element": "H" 
			},
			{
				"x": 3.2371603393,
				"y": -0.8064282473,
				"z": 1.7348746493,
				"element": "H" 
			},
			{
				"x": 1.3811036229,
				"y": -2.1580291438,
				"z": -0.9803845321,
				"element": "H" 
			},
			{
				"x": 2.7748052692,
				"y": -2.4557393478,
				"z": 0.0868578892,
				"element": "H" 
			},
			{
				"x": 1.2018385731,
				"y": -3.2652065517,
				"z": 0.3867159314,
				"element": "H" 
			}
		],
		 "valence_orbital": [ 
			{
				"type": "occ",
				"energy": -0.30351,
				"method": "rhf"
			},
			{
				"type": "occ",
				"energy": -0.28033,
				"method": "rhf"
			},
			{
				"type": "occ",
				"energy": -0.27514,
				"method": "rhf"
			},
			{
				"type": "occ",
				"energy": -0.25527,
				"method": "rhf"
			},
			{
				"type": "occ",
				"energy": -0.25266,
				"method": "rhf"
			},
			{
				"type": "unocc",
				"energy": -0.07675,
				"method": "rhf"
			},
			{
				"type": "unocc",
				"energy": -0.03754,
				"method": "rhf"
			},
			{
				"type": "unocc",
				"energy": -5e-05,
				"method": "rhf"
			},
			{
				"type": "unocc",
				"energy": 0.06167,
				"method": "rhf"
			},
			{
				"type": "unocc",
				"energy": 0.06968,
				"method": "rhf"
			}
		],
		"cosmo_sigma_profile": { 
			"-0.025": 0.0,
			"-0.024": 0.0,
			"-0.023": 0.0,
			"-0.022": 0.0,
			"-0.021": 0.0,
			"-0.02": 0.0,
			"-0.019": 0.0,
			"-0.018": 0.0,
			"-0.017": 0.0,
			"-0.016": 0.0,
			"-0.015": 0.0,
			"-0.014": 0.0,
			"-0.013": 0.0,
			"-0.012": 0.00824972544319,
			"-0.011": 1.92960900117,
			"-0.01": 2.11140777136,
			"-0.009": 2.35892492182,
			"-0.008": 3.48824359105,
			"-0.007": 5.64592448129,
			"-0.006": 9.58824162115,
			"-0.005": 21.8300655203,
			"-0.004": 26.8874236454,
			"-0.003": 28.9702801893,
			"-0.002": 22.5730228903,
			"-0.001": 17.0883213216,
			"0.0": 16.8162568328,
			"0.001": 15.3661970482,
			"0.002": 13.2284760137,
			"0.003": 12.7726042679,
			"0.004": 17.2138112164,
			"0.005": 7.20985162572,
			"0.006": 4.37278655547,
			"0.007": 6.2817718522,
			"0.008": 12.1701211796,
			"0.009": 8.70777707182,
			"0.01": 2.34862806,
			"0.011": 1.7627048166,
			"0.012": 1.91670466964,
			"0.013": 3.19400046272,
			"0.014": 1.03429552687,
			"0.015": 0.0,
			"0.016": 0.0,
			"0.017": 0.0,
			"0.018": 0.0,
			"0.019": 0.0,
			"0.02": 0.0,
			"0.021": 0.0,
			"0.022": 0.0,
			"0.023": 0.0,
			"0.024": 0.0,
			"0.025": 0.0
		}
	}
}
