{
	 "smiles": "COC(=O)C1=CC=C(N)S1", 
	 "Tm": 389.15, 
	 "num_atms": 17, 
	 "gaussian": { 
		 "optdone": 1, 
		 "sigma_profile": "yes", 
		 "theory": "DFT", 
		 "functional": "B3LYP", 
		 "basiset": "6-31G**", 
		 "properties": { 
			 "R2extent": 2207.1109, 
			 "electric_dipole_moment_norm": 3.69163802938, 
			 "electric_quadrupole_moment_norm": 18.2378749667, 
			 "total_energy": -836.237220565, 
			 "HOMO_LUMO_gap": 0.16826, 
			 "cosmo_polarized_energy": -14.24, 
			 "cosmo_cavitation_energy": 23.29, 
			 "cosmo_dispersion_energy": -17.8, 
			 "cosmo_repulsion_energy": 1.41, 
			 "cosmo_total_nonelectrostatic_energy": 6.9, 
			 "SMD_solvation_energy": 5.42 
		},
		"coords": [
			{
				"x": 2.3269763766,
				"y": 1.7342371913,
				"z": -0.6018796939,
				"element": "C" 
			},
			{
				"x": 1.073299216,
				"y": 1.2651327121,
				"z": -0.0879447253,
				"element": "O" 
			},
			{
				"x": 0.8375695986,
				"y": -0.0591983604,
				"z": -0.2800452528,
				"element": "C" 
			},
			{
				"x": 1.6213224917,
				"y": -0.8055953672,
				"z": -0.8426202467,
				"element": "O" 
			},
			{
				"x": -0.4515412873,
				"y": -0.4645715621,
				"z": 0.264720444,
				"element": "C" 
			},
			{
				"x": -1.4144581568,
				"y": 0.2669700289,
				"z": 0.9196040515,
				"element": "C" 
			},
			{
				"x": -2.540648768,
				"y": -0.494631023,
				"z": 1.314604971,
				"element": "C" 
			},
			{
				"x": -2.4324237781,
				"y": -1.8247667305,
				"z": 0.9515154602,
				"element": "C" 
			},
			{
				"x": -3.3708806286,
				"y": -2.8260232804,
				"z": 1.1195309637,
				"element": "N" 
			},
			{
				"x": -0.9357279142,
				"y": -2.1468460668,
				"z": 0.1091245244,
				"element": "S" 
			},
			{
				"x": 2.3593670707,
				"y": 2.799296175,
				"z": -0.3707035712,
				"element": "H" 
			},
			{
				"x": 3.1618625497,
				"y": 1.2138995779,
				"z": -0.1249010265,
				"element": "H" 
			},
			{
				"x": 2.3882156738,
				"y": 1.5753662967,
				"z": -1.6818081843,
				"element": "H" 
			},
			{
				"x": -1.2982023076,
				"y": 1.3267496481,
				"z": 1.1123290292,
				"element": "H" 
			},
			{
				"x": -3.3977823632,
				"y": -0.0916812849,
				"z": 1.8424261226,
				"element": "H" 
			},
			{
				"x": -4.0670916779,
				"y": -2.6359544719,
				"z": 1.827602175,
				"element": "H" 
			},
			{
				"x": -3.0165560952,
				"y": -3.7710834827,
				"z": 1.1715449593,
				"element": "H" 
			}
		],
		 "valence_orbital": [ 
			{
				"type": "occ",
				"energy": -0.31533,
				"method": "rhf"
			},
			{
				"type": "occ",
				"energy": -0.29032,
				"method": "rhf"
			},
			{
				"type": "occ",
				"energy": -0.26413,
				"method": "rhf"
			},
			{
				"type": "occ",
				"energy": -0.25396,
				"method": "rhf"
			},
			{
				"type": "occ",
				"energy": -0.20409,
				"method": "rhf"
			},
			{
				"type": "unocc",
				"energy": -0.03583,
				"method": "rhf"
			},
			{
				"type": "unocc",
				"energy": 0.01768,
				"method": "rhf"
			},
			{
				"type": "unocc",
				"energy": 0.04769,
				"method": "rhf"
			},
			{
				"type": "unocc",
				"energy": 0.06814,
				"method": "rhf"
			},
			{
				"type": "unocc",
				"energy": 0.10151,
				"method": "rhf"
			}
		],
		"cosmo_sigma_profile": { 
			"-0.025": 0.0,
			"-0.024": 0.0,
			"-0.023": 0.0,
			"-0.022": 0.0,
			"-0.021": 0.0,
			"-0.02": 0.0,
			"-0.019": 0.0,
			"-0.018": 0.0,
			"-0.017": 0.0,
			"-0.016": 0.0,
			"-0.015": 0.216430495607,
			"-0.014": 2.33105050239,
			"-0.013": 3.11328847057,
			"-0.012": 3.25294895555,
			"-0.011": 3.0855037471,
			"-0.01": 2.40228461781,
			"-0.009": 2.18871858841,
			"-0.008": 2.53090858644,
			"-0.007": 4.66665139782,
			"-0.006": 8.15178586144,
			"-0.005": 10.3367207449,
			"-0.004": 11.5741246237,
			"-0.003": 12.5057181307,
			"-0.002": 10.4047953969,
			"-0.001": 7.90615169976,
			"0.0": 8.00323215752,
			"0.001": 10.1753890315,
			"0.002": 12.4332614407,
			"0.003": 18.7159256701,
			"0.004": 17.1141771849,
			"0.005": 9.0419524915,
			"0.006": 5.2739563317,
			"0.007": 4.57663176032,
			"0.008": 2.51307073301,
			"0.009": 2.6864760982,
			"0.01": 1.09523623055,
			"0.011": 3.43260317217,
			"0.012": 4.6467299752,
			"0.013": 3.02987564465,
			"0.014": 0.0,
			"0.015": 0.0,
			"0.016": 0.0,
			"0.017": 0.0,
			"0.018": 0.0,
			"0.019": 0.0,
			"0.02": 0.0,
			"0.021": 0.0,
			"0.022": 0.0,
			"0.023": 0.0,
			"0.024": 0.0,
			"0.025": 0.0
		}
	}
}
