{
	 "smiles": "CCOC1=CC=C(C=C1)C1=NN=C2SC(NN12)C1=CC=C(C=C1)[N+]([O-])=O", 
	 "Tm": 371.15, 
	 "num_atms": 41, 
	 "gaussian": { 
		 "optdone": 1, 
		 "sigma_profile": "yes", 
		 "theory": "DFT", 
		 "functional": "B3LYP", 
		 "basiset": "6-31G**", 
		 "properties": { 
			 "R2extent": 13990.0817, 
			 "electric_dipole_moment_norm": 6.45394678085, 
			 "electric_quadrupole_moment_norm": 53.7412521079, 
			 "total_energy": -1554.2894631, 
			 "HOMO_LUMO_gap": 0.11436, 
			 "cosmo_polarized_energy": -28.13, 
			 "cosmo_cavitation_energy": 47.69, 
			 "cosmo_dispersion_energy": -34.03, 
			 "cosmo_repulsion_energy": 2.51, 
			 "cosmo_total_nonelectrostatic_energy": 16.16, 
			 "SMD_solvation_energy": 7.99 
		},
		"coords": [
			{
				"x": -5.0813563673,
				"y": -3.5384025487,
				"z": -0.0295773256,
				"element": "C" 
			},
			{
				"x": -4.0766259185,
				"y": -4.2636493202,
				"z": -0.9180881188,
				"element": "C" 
			},
			{
				"x": -2.7199069149,
				"y": -3.9933981187,
				"z": -0.5459802769,
				"element": "O" 
			},
			{
				"x": -2.1163685391,
				"y": -2.8424205837,
				"z": -0.9488794069,
				"element": "C" 
			},
			{
				"x": -2.6975500081,
				"y": -1.864138098,
				"z": -1.7714129591,
				"element": "C" 
			},
			{
				"x": -1.9670209939,
				"y": -0.736481125,
				"z": -2.1312363571,
				"element": "C" 
			},
			{
				"x": -0.6492419493,
				"y": -0.5486844197,
				"z": -1.6852670882,
				"element": "C" 
			},
			{
				"x": -0.0764568805,
				"y": -1.5344000417,
				"z": -0.860408552,
				"element": "C" 
			},
			{
				"x": -0.7999610204,
				"y": -2.6618800073,
				"z": -0.4969996136,
				"element": "C" 
			},
			{
				"x": 0.0566962833,
				"y": 0.6641932052,
				"z": -2.09515786,
				"element": "C" 
			},
			{
				"x": -0.446634114,
				"y": 1.6214309287,
				"z": -2.858298099,
				"element": "N" 
			},
			{
				"x": 0.4904538986,
				"y": 2.6348101267,
				"z": -3.0164253249,
				"element": "N" 
			},
			{
				"x": 1.5512304834,
				"y": 2.2492908381,
				"z": -2.3628646282,
				"element": "C" 
			},
			{
				"x": 3.1525979235,
				"y": 2.8912655707,
				"z": -2.0077388152,
				"element": "S" 
			},
			{
				"x": 3.2204400504,
				"y": 1.6065360159,
				"z": -0.5876819694,
				"element": "C" 
			},
			{
				"x": 2.4064309661,
				"y": 0.4714985734,
				"z": -1.0242548239,
				"element": "N" 
			},
			{
				"x": 1.3469640427,
				"y": 1.0304897182,
				"z": -1.7662919558,
				"element": "N" 
			},
			{
				"x": 2.7652463461,
				"y": 2.20488787,
				"z": 0.7293264197,
				"element": "C" 
			},
			{
				"x": 3.4612499388,
				"y": 3.303599597,
				"z": 1.2566913767,
				"element": "C" 
			},
			{
				"x": 3.099319181,
				"y": 3.8553051145,
				"z": 2.4790181174,
				"element": "C" 
			},
			{
				"x": 2.0223304082,
				"y": 3.2990905874,
				"z": 3.1685689674,
				"element": "C" 
			},
			{
				"x": 1.3117258247,
				"y": 2.2123667239,
				"z": 2.6701755498,
				"element": "C" 
			},
			{
				"x": 1.6932130573,
				"y": 1.6620873273,
				"z": 1.4476361299,
				"element": "C" 
			},
			{
				"x": 1.6302414932,
				"y": 3.8771147889,
				"z": 4.464680056,
				"element": "N" 
			},
			{
				"x": 2.2814898889,
				"y": 4.834503621,
				"z": 4.8806057162,
				"element": "O" 
			},
			{
				"x": 0.6781058491,
				"y": 3.3657512314,
				"z": 5.0519121878,
				"element": "O" 
			},
			{
				"x": -4.9986131074,
				"y": -2.4523964281,
				"z": -0.1246690966,
				"element": "H" 
			},
			{
				"x": -4.9190677999,
				"y": -3.8026171027,
				"z": 1.0191628377,
				"element": "H" 
			},
			{
				"x": -6.1008035626,
				"y": -3.8286572935,
				"z": -0.3046326498,
				"element": "H" 
			},
			{
				"x": -4.2320186026,
				"y": -4.0335558985,
				"z": -1.9793469369,
				"element": "H" 
			},
			{
				"x": -4.1770087539,
				"y": -5.3460432833,
				"z": -0.8003407891,
				"element": "H" 
			},
			{
				"x": -3.7134460066,
				"y": -1.9674336271,
				"z": -2.1327737671,
				"element": "H" 
			},
			{
				"x": -2.4135514454,
				"y": 0.0225217319,
				"z": -2.7643060934,
				"element": "H" 
			},
			{
				"x": 0.9386857096,
				"y": -1.418351788,
				"z": -0.4966566645,
				"element": "H" 
			},
			{
				"x": -0.3637276,
				"y": -3.426197778,
				"z": 0.1375110108,
				"element": "H" 
			},
			{
				"x": 4.2596963473,
				"y": 1.2774001666,
				"z": -0.5189897966,
				"element": "H" 
			},
			{
				"x": 2.9552348021,
				"y": -0.1023988079,
				"z": -1.6671892242,
				"element": "H" 
			},
			{
				"x": 4.2878130841,
				"y": 3.7389028431,
				"z": 0.7025924949,
				"element": "H" 
			},
			{
				"x": 3.6262469737,
				"y": 4.7006361675,
				"z": 2.9029111622,
				"element": "H" 
			},
			{
				"x": 0.4815507187,
				"y": 1.8115290291,
				"z": 3.2380020391,
				"element": "H" 
			},
			{
				"x": 1.1598963134,
				"y": 0.8045944938,
				"z": 1.0559741275,
				"element": "H" 
			}
		],
		 "valence_orbital": [ 
			{
				"type": "occ",
				"energy": -0.28292,
				"method": "rhf"
			},
			{
				"type": "occ",
				"energy": -0.26393,
				"method": "rhf"
			},
			{
				"type": "occ",
				"energy": -0.25778,
				"method": "rhf"
			},
			{
				"type": "occ",
				"energy": -0.25328,
				"method": "rhf"
			},
			{
				"type": "occ",
				"energy": -0.21122,
				"method": "rhf"
			},
			{
				"type": "unocc",
				"energy": -0.09686,
				"method": "rhf"
			},
			{
				"type": "unocc",
				"energy": -0.0422,
				"method": "rhf"
			},
			{
				"type": "unocc",
				"energy": -0.03512,
				"method": "rhf"
			},
			{
				"type": "unocc",
				"energy": -0.02857,
				"method": "rhf"
			},
			{
				"type": "unocc",
				"energy": -0.01494,
				"method": "rhf"
			}
		],
		"cosmo_sigma_profile": { 
			"-0.025": 0.0,
			"-0.024": 0.0,
			"-0.023": 0.0,
			"-0.022": 0.0,
			"-0.021": 0.0,
			"-0.02": 0.0,
			"-0.019": 0.0,
			"-0.018": 0.0,
			"-0.017": 0.0,
			"-0.016": 1.11775597906,
			"-0.015": 2.4675832541,
			"-0.014": 1.53197728924,
			"-0.013": 2.16513053741,
			"-0.012": 1.78527074217,
			"-0.011": 4.26284086012,
			"-0.01": 4.55820199721,
			"-0.009": 3.16933545246,
			"-0.008": 5.57185924466,
			"-0.007": 9.4142109269,
			"-0.006": 16.5029749992,
			"-0.005": 20.6019820638,
			"-0.004": 28.4676743329,
			"-0.003": 27.8357294527,
			"-0.002": 27.8520300911,
			"-0.001": 27.8949407079,
			"0.0": 32.1901350442,
			"0.001": 30.6178112725,
			"0.002": 21.7833303647,
			"0.003": 22.0549773062,
			"0.004": 21.3868383436,
			"0.005": 11.7677903641,
			"0.006": 8.6292283114,
			"0.007": 10.5838033576,
			"0.008": 10.6782614188,
			"0.009": 7.89277060757,
			"0.01": 6.17822004868,
			"0.011": 2.11928262533,
			"0.012": 2.43979149036,
			"0.013": 3.7256545789,
			"0.014": 3.30833002231,
			"0.015": 2.55746570319,
			"0.016": 1.24586077983,
			"0.017": 0.144602750981,
			"0.018": 0.0,
			"0.019": 0.0,
			"0.02": 0.0,
			"0.021": 0.0,
			"0.022": 0.0,
			"0.023": 0.0,
			"0.024": 0.0,
			"0.025": 0.0
		}
	}
}
