{
	 "smiles": "CCC(CC)C(O)CN", 
	 "Tm": 313.15, 
	 "num_atms": 26, 
	 "gaussian": { 
		 "optdone": 1, 
		 "sigma_profile": "yes", 
		 "theory": "DFT", 
		 "functional": "B3LYP", 
		 "basiset": "6-31G**", 
		 "properties": { 
			 "R2extent": 1573.7304, 
			 "electric_dipole_moment_norm": 1.6686210894, 
			 "electric_quadrupole_moment_norm": 6.72034171229, 
			 "total_energy": -406.964290237, 
			 "HOMO_LUMO_gap": 0.2897, 
			 "cosmo_polarized_energy": -9.22, 
			 "cosmo_cavitation_energy": 25.94, 
			 "cosmo_dispersion_energy": -18.56, 
			 "cosmo_repulsion_energy": 1.54, 
			 "cosmo_total_nonelectrostatic_energy": 8.91, 
			 "SMD_solvation_energy": 2.78 
		},
		"coords": [
			{
				"x": 1.6495787234,
				"y": 0.2263302169,
				"z": 2.1298420025,
				"element": "C" 
			},
			{
				"x": 0.1729637947,
				"y": -0.1183918871,
				"z": 1.8950528909,
				"element": "C" 
			},
			{
				"x": -0.1172571387,
				"y": -0.8828748664,
				"z": 0.5850330623,
				"element": "C" 
			},
			{
				"x": -1.5393208574,
				"y": -1.503737471,
				"z": 0.583349609,
				"element": "C" 
			},
			{
				"x": -2.7168551306,
				"y": -0.6107308076,
				"z": 1.0024884248,
				"element": "C" 
			},
			{
				"x": 0.2565931207,
				"y": -0.0847629279,
				"z": -0.6915449155,
				"element": "C" 
			},
			{
				"x": 0.28110843,
				"y": -0.9381848048,
				"z": -1.8446213861,
				"element": "O" 
			},
			{
				"x": -0.5619497305,
				"y": 1.1796348898,
				"z": -1.0122641327,
				"element": "C" 
			},
			{
				"x": -0.0589365621,
				"y": 1.9471042873,
				"z": -2.1540328557,
				"element": "N" 
			},
			{
				"x": 2.0307768154,
				"y": 0.9485744135,
				"z": 1.4008886222,
				"element": "H" 
			},
			{
				"x": 2.2797844793,
				"y": -0.6683144222,
				"z": 2.0689773839,
				"element": "H" 
			},
			{
				"x": 1.791575973,
				"y": 0.6651848285,
				"z": 3.1228096566,
				"element": "H" 
			},
			{
				"x": -0.425161989,
				"y": 0.7998855564,
				"z": 1.9427221071,
				"element": "H" 
			},
			{
				"x": -0.1753687767,
				"y": -0.7411486549,
				"z": 2.7298175332,
				"element": "H" 
			},
			{
				"x": 0.5739699613,
				"y": -1.737572483,
				"z": 0.5578398645,
				"element": "H" 
			},
			{
				"x": -1.7456418349,
				"y": -1.9349170248,
				"z": -0.4065632195,
				"element": "H" 
			},
			{
				"x": -1.5160272506,
				"y": -2.3666875893,
				"z": 1.2612373912,
				"element": "H" 
			},
			{
				"x": -2.8436554514,
				"y": 0.2598550669,
				"z": 0.353377757,
				"element": "H" 
			},
			{
				"x": -3.6507167173,
				"y": -1.1819056213,
				"z": 0.9698894573,
				"element": "H" 
			},
			{
				"x": -2.5980057403,
				"y": -0.2428330276,
				"z": 2.0261418808,
				"element": "H" 
			},
			{
				"x": 1.3034735323,
				"y": 0.2252366122,
				"z": -0.5844409075,
				"element": "H" 
			},
			{
				"x": -0.6227440126,
				"y": -1.2452781492,
				"z": -1.9994392288,
				"element": "H" 
			},
			{
				"x": -1.5968976046,
				"y": 0.889226793,
				"z": -1.2371972573,
				"element": "H" 
			},
			{
				"x": -0.6093149211,
				"y": 1.8403605831,
				"z": -0.1391260717,
				"element": "H" 
			},
			{
				"x": 0.84753062,
				"y": 2.3468710109,
				"z": -1.9170766487,
				"element": "H" 
			},
			{
				"x": 0.1245982677,
				"y": 1.2881754786,
				"z": -2.9093610198,
				"element": "H" 
			}
		],
		 "valence_orbital": [ 
			{
				"type": "occ",
				"energy": -0.32373,
				"method": "rhf"
			},
			{
				"type": "occ",
				"energy": -0.31723,
				"method": "rhf"
			},
			{
				"type": "occ",
				"energy": -0.30312,
				"method": "rhf"
			},
			{
				"type": "occ",
				"energy": -0.27238,
				"method": "rhf"
			},
			{
				"type": "occ",
				"energy": -0.22601,
				"method": "rhf"
			},
			{
				"type": "unocc",
				"energy": 0.06369,
				"method": "rhf"
			},
			{
				"type": "unocc",
				"energy": 0.07908,
				"method": "rhf"
			},
			{
				"type": "unocc",
				"energy": 0.09247,
				"method": "rhf"
			},
			{
				"type": "unocc",
				"energy": 0.11087,
				"method": "rhf"
			},
			{
				"type": "unocc",
				"energy": 0.12636,
				"method": "rhf"
			}
		],
		"cosmo_sigma_profile": { 
			"-0.025": 0.0,
			"-0.024": 0.0,
			"-0.023": 0.0,
			"-0.022": 0.0,
			"-0.021": 0.0,
			"-0.02": 0.0,
			"-0.019": 0.0,
			"-0.018": 0.0,
			"-0.017": 0.0,
			"-0.016": 0.0,
			"-0.015": 0.0,
			"-0.014": 0.407476077101,
			"-0.013": 1.05370037337,
			"-0.012": 0.570344968872,
			"-0.011": 1.36784192034,
			"-0.01": 1.37918511773,
			"-0.009": 2.00657089727,
			"-0.008": 2.47182761094,
			"-0.007": 2.94589783915,
			"-0.006": 4.38635966249,
			"-0.005": 4.7013599663,
			"-0.004": 8.17704207902,
			"-0.003": 17.0687849837,
			"-0.002": 26.5466207399,
			"-0.001": 32.3818427934,
			"0.0": 28.2147547408,
			"0.001": 24.5064303133,
			"0.002": 11.6403251693,
			"0.003": 2.70646854076,
			"0.004": 2.20602967122,
			"0.005": 1.67088784981,
			"0.006": 1.54504762252,
			"0.007": 2.03711013958,
			"0.008": 2.27961472268,
			"0.009": 1.66800501044,
			"0.01": 1.89535820527,
			"0.011": 1.84733441232,
			"0.012": 1.13039754197,
			"0.013": 2.11980174011,
			"0.014": 2.50183745708,
			"0.015": 1.68054453594,
			"0.016": 0.691073062865,
			"0.017": 0.90165285976,
			"0.018": 0.228669585817,
			"0.019": 0.863103517924,
			"0.02": 0.611177285304,
			"0.021": 0.0709129106694,
			"0.022": 0.0,
			"0.023": 0.0,
			"0.024": 0.0,
			"0.025": 0.0
		}
	}
}
