{
	 "smiles": "CC1=C(CCC1(C)C)C(O)=O", 
	 "Tm": 408.15, 
	 "num_atms": 25, 
	 "gaussian": { 
		 "optdone": 1, 
		 "sigma_profile": "yes", 
		 "theory": "DFT", 
		 "functional": "B3LYP", 
		 "basiset": "6-31G**", 
		 "properties": { 
			 "R2extent": 1961.0264, 
			 "electric_dipole_moment_norm": 2.45155327701, 
			 "electric_quadrupole_moment_norm": 7.13694287423, 
			 "total_energy": -501.86384187, 
			 "HOMO_LUMO_gap": 0.20859, 
			 "cosmo_polarized_energy": -8.27, 
			 "cosmo_cavitation_energy": 26.39, 
			 "cosmo_dispersion_energy": -18.93, 
			 "cosmo_repulsion_energy": 1.52, 
			 "cosmo_total_nonelectrostatic_energy": 8.98, 
			 "SMD_solvation_energy": 5.67 
		},
		"coords": [
			{
				"x": 0.0211456034,
				"y": 1.5904077421,
				"z": -0.8587945925,
				"element": "C" 
			},
			{
				"x": 0.2993499288,
				"y": 0.1550786383,
				"z": -0.5296167085,
				"element": "C" 
			},
			{
				"x": 0.222820434,
				"y": -0.4828418943,
				"z": 0.6610364297,
				"element": "C" 
			},
			{
				"x": 0.5549964348,
				"y": -1.9575438828,
				"z": 0.5418187448,
				"element": "C" 
			},
			{
				"x": 1.2289436379,
				"y": -2.0423652061,
				"z": -0.8404233679,
				"element": "C" 
			},
			{
				"x": 0.684563825,
				"y": -0.8290146999,
				"z": -1.6447392104,
				"element": "C" 
			},
			{
				"x": 1.7376237991,
				"y": -0.262884235,
				"z": -2.6126180661,
				"element": "C" 
			},
			{
				"x": -0.5858044109,
				"y": -1.22154752,
				"z": -2.4368760619,
				"element": "C" 
			},
			{
				"x": -0.1790386013,
				"y": 0.0233148748,
				"z": 1.9848465055,
				"element": "C" 
			},
			{
				"x": -0.3669276098,
				"y": 1.3697740639,
				"z": 2.071488205,
				"element": "O" 
			},
			{
				"x": -0.3299833106,
				"y": -0.6936969425,
				"z": 2.9584686577,
				"element": "O" 
			},
			{
				"x": 0.9527625572,
				"y": 2.1040539011,
				"z": -1.1290322782,
				"element": "H" 
			},
			{
				"x": -0.4335282423,
				"y": 2.1266928557,
				"z": -0.0288475209,
				"element": "H" 
			},
			{
				"x": -0.6347369709,
				"y": 1.6622532642,
				"z": -1.7347727705,
				"element": "H" 
			},
			{
				"x": -0.3610550358,
				"y": -2.5610326191,
				"z": 0.5983700381,
				"element": "H" 
			},
			{
				"x": 1.1958943187,
				"y": -2.3038181692,
				"z": 1.3578165387,
				"element": "H" 
			},
			{
				"x": 2.313388011,
				"y": -1.9341831693,
				"z": -0.721445154,
				"element": "H" 
			},
			{
				"x": 1.0513912349,
				"y": -2.9932453325,
				"z": -1.3528691571,
				"element": "H" 
			},
			{
				"x": 1.3484891476,
				"y": 0.5807967819,
				"z": -3.1925337251,
				"element": "H" 
			},
			{
				"x": 2.0491142488,
				"y": -1.0352868425,
				"z": -3.3246221611,
				"element": "H" 
			},
			{
				"x": 2.6302256384,
				"y": 0.075988729,
				"z": -2.0756485325,
				"element": "H" 
			},
			{
				"x": -0.3325777304,
				"y": -1.9367433533,
				"z": -3.2274287526,
				"element": "H" 
			},
			{
				"x": -1.3336059006,
				"y": -1.6855853605,
				"z": -1.7858901607,
				"element": "H" 
			},
			{
				"x": -1.0493890829,
				"y": -0.3514876477,
				"z": -2.9140076092,
				"element": "H" 
			},
			{
				"x": -0.6270619242,
				"y": 1.5275160236,
				"z": 2.9944207098,
				"element": "H" 
			}
		],
		 "valence_orbital": [ 
			{
				"type": "occ",
				"energy": -0.32585,
				"method": "rhf"
			},
			{
				"type": "occ",
				"energy": -0.31485,
				"method": "rhf"
			},
			{
				"type": "occ",
				"energy": -0.30854,
				"method": "rhf"
			},
			{
				"type": "occ",
				"energy": -0.26679,
				"method": "rhf"
			},
			{
				"type": "occ",
				"energy": -0.24303,
				"method": "rhf"
			},
			{
				"type": "unocc",
				"energy": -0.03444,
				"method": "rhf"
			},
			{
				"type": "unocc",
				"energy": 0.07434,
				"method": "rhf"
			},
			{
				"type": "unocc",
				"energy": 0.08734,
				"method": "rhf"
			},
			{
				"type": "unocc",
				"energy": 0.08934,
				"method": "rhf"
			},
			{
				"type": "unocc",
				"energy": 0.11217,
				"method": "rhf"
			}
		],
		"cosmo_sigma_profile": { 
			"-0.025": 0.0,
			"-0.024": 0.0,
			"-0.023": 0.0,
			"-0.022": 0.0,
			"-0.021": 0.0,
			"-0.02": 0.0,
			"-0.019": 0.0,
			"-0.018": 0.143074318937,
			"-0.017": 0.949212645948,
			"-0.016": 0.609029088825,
			"-0.015": 0.829463161057,
			"-0.014": 1.04402366004,
			"-0.013": 1.13675569325,
			"-0.012": 0.16242537381,
			"-0.011": 0.199138474522,
			"-0.01": 0.787782259179,
			"-0.009": 0.578959218685,
			"-0.008": 0.460381299306,
			"-0.007": 0.795166318568,
			"-0.006": 1.08082567473,
			"-0.005": 2.90596327639,
			"-0.004": 6.46541932669,
			"-0.003": 21.7944908022,
			"-0.002": 31.0248712422,
			"-0.001": 32.4458956946,
			"0.0": 29.7620664056,
			"0.001": 28.4089310243,
			"0.002": 9.19304453478,
			"0.003": 5.69834306381,
			"0.004": 4.10404188821,
			"0.005": 3.52821738399,
			"0.006": 2.59509210635,
			"0.007": 1.9694259902,
			"0.008": 3.08509875927,
			"0.009": 1.22548489818,
			"0.01": 1.64359620042,
			"0.011": 2.39322982915,
			"0.012": 4.73216438555,
			"0.013": 3.15427156179,
			"0.014": 0.0922586634746,
			"0.015": 0.0,
			"0.016": 0.0,
			"0.017": 0.0,
			"0.018": 0.0,
			"0.019": 0.0,
			"0.02": 0.0,
			"0.021": 0.0,
			"0.022": 0.0,
			"0.023": 0.0,
			"0.024": 0.0,
			"0.025": 0.0
		}
	}
}
