{
	 "smiles": "CC1=NC(=NO1)C1=CC(C=O)=CC=C1", 
	 "Tm": 371.65, 
	 "num_atms": 22, 
	 "gaussian": { 
		 "optdone": 1, 
		 "sigma_profile": "yes", 
		 "theory": "DFT", 
		 "functional": "B3LYP", 
		 "basiset": "6-31G**", 
		 "properties": { 
			 "R2extent": 3724.4306, 
			 "electric_dipole_moment_norm": 1.75099212163, 
			 "electric_quadrupole_moment_norm": 25.6373175732, 
			 "total_energy": -645.799891569, 
			 "HOMO_LUMO_gap": 0.18634, 
			 "cosmo_polarized_energy": -12.05, 
			 "cosmo_cavitation_energy": 27.81, 
			 "cosmo_dispersion_energy": -20.33, 
			 "cosmo_repulsion_energy": 1.59, 
			 "cosmo_total_nonelectrostatic_energy": 9.06, 
			 "SMD_solvation_energy": 4.52 
		},
		"coords": [
			{
				"x": 1.5184078295,
				"y": -2.161747816,
				"z": 4.1739256708,
				"element": "C" 
			},
			{
				"x": 0.7143392953,
				"y": -1.9239300626,
				"z": 2.9454781193,
				"element": "C" 
			},
			{
				"x": 0.4108496447,
				"y": -0.7942578029,
				"z": 2.3787485628,
				"element": "N" 
			},
			{
				"x": -0.3413692895,
				"y": -1.1966919491,
				"z": 1.2913745908,
				"element": "C" 
			},
			{
				"x": -0.4943266181,
				"y": -2.4984183151,
				"z": 1.1912852403,
				"element": "N" 
			},
			{
				"x": 0.2112604822,
				"y": -2.9925933225,
				"z": 2.2975139198,
				"element": "O" 
			},
			{
				"x": -0.9222399718,
				"y": -0.2509719064,
				"z": 0.3270450709,
				"element": "C" 
			},
			{
				"x": -0.7214597575,
				"y": 1.1205824234,
				"z": 0.4917320635,
				"element": "C" 
			},
			{
				"x": -1.2739554824,
				"y": 2.02416166,
				"z": -0.4261197998,
				"element": "C" 
			},
			{
				"x": -1.0629293722,
				"y": 3.4813384626,
				"z": -0.2546144478,
				"element": "C" 
			},
			{
				"x": -0.4263580573,
				"y": 3.9862107265,
				"z": 0.6494234778,
				"element": "O" 
			},
			{
				"x": -2.0271142399,
				"y": 1.5528580841,
				"z": -1.5081392419,
				"element": "C" 
			},
			{
				"x": -2.2290517858,
				"y": 0.181768346,
				"z": -1.6745512769,
				"element": "C" 
			},
			{
				"x": -1.680744767,
				"y": -0.7167887799,
				"z": -0.7634763282,
				"element": "C" 
			},
			{
				"x": 2.390934979,
				"y": -2.7824441507,
				"z": 3.9484869502,
				"element": "H" 
			},
			{
				"x": 0.9230487859,
				"y": -2.685409736,
				"z": 4.9280546899,
				"element": "H" 
			},
			{
				"x": 1.8494350275,
				"y": -1.2040239803,
				"z": 4.5751028006,
				"element": "H" 
			},
			{
				"x": -0.1399645515,
				"y": 1.4976128358,
				"z": 1.3258130025,
				"element": "H" 
			},
			{
				"x": -1.5430676674,
				"y": 4.1113167022,
				"z": -1.0369817092,
				"element": "H" 
			},
			{
				"x": -2.452116442,
				"y": 2.261236187,
				"z": -2.2155275228,
				"element": "H" 
			},
			{
				"x": -2.8125325038,
				"y": -0.1872096029,
				"z": -2.5124077686,
				"element": "H" 
			},
			{
				"x": -1.8320455378,
				"y": -1.7844980032,
				"z": -0.8841660641,
				"element": "H" 
			}
		],
		 "valence_orbital": [ 
			{
				"type": "occ",
				"energy": -0.30174,
				"method": "rhf"
			},
			{
				"type": "occ",
				"energy": -0.3004,
				"method": "rhf"
			},
			{
				"type": "occ",
				"energy": -0.26896,
				"method": "rhf"
			},
			{
				"type": "occ",
				"energy": -0.25759,
				"method": "rhf"
			},
			{
				"type": "occ",
				"energy": -0.25579,
				"method": "rhf"
			},
			{
				"type": "unocc",
				"energy": -0.06945,
				"method": "rhf"
			},
			{
				"type": "unocc",
				"energy": -0.04818,
				"method": "rhf"
			},
			{
				"type": "unocc",
				"energy": -0.01285,
				"method": "rhf"
			},
			{
				"type": "unocc",
				"energy": 0.02699,
				"method": "rhf"
			},
			{
				"type": "unocc",
				"energy": 0.0773,
				"method": "rhf"
			}
		],
		"cosmo_sigma_profile": { 
			"-0.025": 0.0,
			"-0.024": 0.0,
			"-0.023": 0.0,
			"-0.022": 0.0,
			"-0.021": 0.0,
			"-0.02": 0.0,
			"-0.019": 0.0,
			"-0.018": 0.0,
			"-0.017": 0.0,
			"-0.016": 0.0,
			"-0.015": 0.0,
			"-0.014": 0.0,
			"-0.013": 0.0,
			"-0.012": 0.0,
			"-0.011": 0.0,
			"-0.01": 0.0,
			"-0.009": 0.327760109614,
			"-0.008": 3.98459585873,
			"-0.007": 14.382980951,
			"-0.006": 15.5774693239,
			"-0.005": 15.4484653248,
			"-0.004": 15.2816378462,
			"-0.003": 16.8655036156,
			"-0.002": 15.770795403,
			"-0.001": 14.7026995017,
			"0.0": 18.4576638633,
			"0.001": 19.6850912723,
			"0.002": 16.3723723364,
			"0.003": 7.56539479224,
			"0.004": 6.19934212723,
			"0.005": 5.36474920773,
			"0.006": 6.95370945907,
			"0.007": 6.6895634125,
			"0.008": 4.16403283515,
			"0.009": 4.17557622309,
			"0.01": 5.22941197282,
			"0.011": 6.42889851987,
			"0.012": 3.6256316393,
			"0.013": 0.68606757934,
			"0.014": 0.0,
			"0.015": 0.0,
			"0.016": 0.0,
			"0.017": 0.0,
			"0.018": 0.0,
			"0.019": 0.0,
			"0.02": 0.0,
			"0.021": 0.0,
			"0.022": 0.0,
			"0.023": 0.0,
			"0.024": 0.0,
			"0.025": 0.0
		}
	}
}
