{
	 "smiles": "CC1=C(SC(=N1)N1CCOCC1)C=O", 
	 "Tm": 440.15, 
	 "num_atms": 26, 
	 "gaussian": { 
		 "optdone": 1, 
		 "sigma_profile": "yes", 
		 "theory": "DFT", 
		 "functional": "B3LYP", 
		 "basiset": "6-31G**", 
		 "properties": { 
			 "R2extent": 4213.9541, 
			 "electric_dipole_moment_norm": 4.54155077589, 
			 "electric_quadrupole_moment_norm": 23.2476372296, 
			 "total_energy": -1008.306761, 
			 "HOMO_LUMO_gap": 0.15986, 
			 "cosmo_polarized_energy": -12.39, 
			 "cosmo_cavitation_energy": 30.0, 
			 "cosmo_dispersion_energy": -22.89, 
			 "cosmo_repulsion_energy": 1.77, 
			 "cosmo_total_nonelectrostatic_energy": 8.88, 
			 "SMD_solvation_energy": 3.92 
		},
		"coords": [
			{
				"x": 0.5527676295,
				"y": 2.5420988382,
				"z": 2.3111814813,
				"element": "C" 
			},
			{
				"x": 0.1301712901,
				"y": 2.0158992108,
				"z": 0.9731415684,
				"element": "C" 
			},
			{
				"x": 0.0182369711,
				"y": 2.766343978,
				"z": -0.1869649862,
				"element": "C" 
			},
			{
				"x": -0.5042574456,
				"y": 1.7135974304,
				"z": -1.5144063976,
				"element": "S" 
			},
			{
				"x": -0.5374160823,
				"y": 0.3736346988,
				"z": -0.3656230443,
				"element": "C" 
			},
			{
				"x": -0.1743087646,
				"y": 0.6895378597,
				"z": 0.8617031882,
				"element": "N" 
			},
			{
				"x": -0.9327285881,
				"y": -0.8770231392,
				"z": -0.7263628605,
				"element": "N" 
			},
			{
				"x": -1.1207475387,
				"y": -1.258054731,
				"z": -2.1244537916,
				"element": "C" 
			},
			{
				"x": -2.153234438,
				"y": -2.384452378,
				"z": -2.2142628317,
				"element": "C" 
			},
			{
				"x": -1.8044010048,
				"y": -3.4762109738,
				"z": -1.3799148732,
				"element": "O" 
			},
			{
				"x": -1.7469796692,
				"y": -3.0709355737,
				"z": -0.0176185196,
				"element": "C" 
			},
			{
				"x": -0.6870226194,
				"y": -1.9943189084,
				"z": 0.1953688967,
				"element": "C" 
			},
			{
				"x": 0.2585370927,
				"y": 4.1780217,
				"z": -0.4281504872,
				"element": "C" 
			},
			{
				"x": 0.6273865473,
				"y": 4.992790657,
				"z": 0.4081691309,
				"element": "O" 
			},
			{
				"x": -0.2370664953,
				"y": 2.3572748615,
				"z": 3.0476839737,
				"element": "H" 
			},
			{
				"x": 0.765271916,
				"y": 3.608414832,
				"z": 2.2583794888,
				"element": "H" 
			},
			{
				"x": 1.4426712821,
				"y": 2.0034872359,
				"z": 2.6553949173,
				"element": "H" 
			},
			{
				"x": -0.1667019456,
				"y": -1.5892844058,
				"z": -2.5623453998,
				"element": "H" 
			},
			{
				"x": -1.4779634522,
				"y": -0.3958399711,
				"z": -2.6950806368,
				"element": "H" 
			},
			{
				"x": -2.200474248,
				"y": -2.7677160716,
				"z": -3.2372360489,
				"element": "H" 
			},
			{
				"x": -3.1457327809,
				"y": -1.9930878105,
				"z": -1.9377994406,
				"element": "H" 
			},
			{
				"x": -1.5005592285,
				"y": -3.9622796349,
				"z": 0.5656155725,
				"element": "H" 
			},
			{
				"x": -2.7305607528,
				"y": -2.6966674392,
				"z": 0.3087535374,
				"element": "H" 
			},
			{
				"x": 0.3121445518,
				"y": -2.4151680884,
				"z": 0.0078960799,
				"element": "H" 
			},
			{
				"x": -0.7102822393,
				"y": -1.6078706368,
				"z": 1.2146259385,
				"element": "H" 
			},
			{
				"x": 0.0789500126,
				"y": 4.5011084604,
				"z": -1.4775944555,
				"element": "H" 
			}
		],
		 "valence_orbital": [ 
			{
				"type": "occ",
				"energy": -0.28461,
				"method": "rhf"
			},
			{
				"type": "occ",
				"energy": -0.28214,
				"method": "rhf"
			},
			{
				"type": "occ",
				"energy": -0.27131,
				"method": "rhf"
			},
			{
				"type": "occ",
				"energy": -0.24302,
				"method": "rhf"
			},
			{
				"type": "occ",
				"energy": -0.21236,
				"method": "rhf"
			},
			{
				"type": "unocc",
				"energy": -0.0525,
				"method": "rhf"
			},
			{
				"type": "unocc",
				"energy": 0.0016,
				"method": "rhf"
			},
			{
				"type": "unocc",
				"energy": 0.01681,
				"method": "rhf"
			},
			{
				"type": "unocc",
				"energy": 0.06917,
				"method": "rhf"
			},
			{
				"type": "unocc",
				"energy": 0.08565,
				"method": "rhf"
			}
		],
		"cosmo_sigma_profile": { 
			"-0.025": 0.0,
			"-0.024": 0.0,
			"-0.023": 0.0,
			"-0.022": 0.0,
			"-0.021": 0.0,
			"-0.02": 0.0,
			"-0.019": 0.0,
			"-0.018": 0.0,
			"-0.017": 0.0,
			"-0.016": 0.0,
			"-0.015": 0.0,
			"-0.014": 0.0,
			"-0.013": 0.0,
			"-0.012": 0.0,
			"-0.011": 0.0,
			"-0.01": 0.0,
			"-0.009": 0.0,
			"-0.008": 0.280430919061,
			"-0.007": 4.41762019515,
			"-0.006": 14.5827478964,
			"-0.005": 29.5023998097,
			"-0.004": 26.9533587549,
			"-0.003": 20.1032016966,
			"-0.002": 15.6934545274,
			"-0.001": 17.5513193724,
			"0.0": 17.3015872216,
			"0.001": 17.8428875462,
			"0.002": 15.5048122794,
			"0.003": 10.0263636024,
			"0.004": 8.16678578599,
			"0.005": 5.80958859345,
			"0.006": 4.67603959647,
			"0.007": 3.72764141827,
			"0.008": 4.15144996862,
			"0.009": 4.42436149429,
			"0.01": 3.85414945062,
			"0.011": 5.36514379101,
			"0.012": 5.15154322402,
			"0.013": 3.60049182894,
			"0.014": 0.669844703046,
			"0.015": 0.0,
			"0.016": 0.0,
			"0.017": 0.0,
			"0.018": 0.0,
			"0.019": 0.0,
			"0.02": 0.0,
			"0.021": 0.0,
			"0.022": 0.0,
			"0.023": 0.0,
			"0.024": 0.0,
			"0.025": 0.0
		}
	}
}
