{
	 "smiles": "OC(=O)C1=CN=C(OC2=CC=C(Br)C=C2)C=C1", 
	 "Tm": 449.15, 
	 "num_atms": 25, 
	 "gaussian": { 
		 "optdone": 1, 
		 "sigma_profile": "yes", 
		 "theory": "DFT", 
		 "functional": "B3LYP", 
		 "basiset": "6-31G**", 
		 "properties": { 
			 "R2extent": 10099.6819, 
			 "electric_dipole_moment_norm": 4.99451080487, 
			 "electric_quadrupole_moment_norm": 30.6056728121, 
			 "total_energy": -3313.91881157, 
			 "HOMO_LUMO_gap": 0.19608, 
			 "cosmo_polarized_energy": -20.11, 
			 "cosmo_cavitation_energy": 33.53, 
			 "cosmo_dispersion_energy": -24.62, 
			 "cosmo_repulsion_energy": 1.9, 
			 "cosmo_total_nonelectrostatic_energy": 10.81, 
			 "SMD_solvation_energy": 4.46 
		},
		"coords": [
			{
				"x": -3.5141262341,
				"y": 0.2371681333,
				"z": 4.0074652897,
				"element": "O" 
			},
			{
				"x": -3.7319196775,
				"y": 0.2231643343,
				"z": 2.6632221956,
				"element": "C" 
			},
			{
				"x": -4.8581781513,
				"y": 0.1272568588,
				"z": 2.236079147,
				"element": "O" 
			},
			{
				"x": -2.5298258999,
				"y": 0.3283777959,
				"z": 1.7837708513,
				"element": "C" 
			},
			{
				"x": -2.7179467955,
				"y": 0.7002127832,
				"z": 0.444015005,
				"element": "C" 
			},
			{
				"x": -1.7308829192,
				"y": 0.8229111761,
				"z": -0.4410257247,
				"element": "N" 
			},
			{
				"x": -0.4929234069,
				"y": 0.5574190336,
				"z": -0.0285554008,
				"element": "C" 
			},
			{
				"x": 0.4391526914,
				"y": 0.7106674136,
				"z": -1.0126352783,
				"element": "O" 
			},
			{
				"x": 1.7822515384,
				"y": 0.4795439643,
				"z": -0.7430996654,
				"element": "C" 
			},
			{
				"x": 2.5896291734,
				"y": 1.5361181288,
				"z": -0.3228960343,
				"element": "C" 
			},
			{
				"x": 3.9546286619,
				"y": 1.3240762988,
				"z": -0.1281967582,
				"element": "C" 
			},
			{
				"x": 4.4898509803,
				"y": 0.0567627279,
				"z": -0.3589825834,
				"element": "C" 
			},
			{
				"x": 6.3576253208,
				"y": -0.235357061,
				"z": -0.0920191397,
				"element": "Br" 
			},
			{
				"x": 3.6851194656,
				"y": -0.9994943444,
				"z": -0.7860997749,
				"element": "C" 
			},
			{
				"x": 2.3203397049,
				"y": -0.7849279868,
				"z": -0.9799824016,
				"element": "C" 
			},
			{
				"x": -0.1740454635,
				"y": 0.1534854428,
				"z": 1.2780420414,
				"element": "C" 
			},
			{
				"x": -1.2182890914,
				"y": 0.0424436591,
				"z": 2.1864638426,
				"element": "C" 
			},
			{
				"x": -2.6027698516,
				"y": 0.4947330684,
				"z": 4.2017212994,
				"element": "H" 
			},
			{
				"x": -3.7248647955,
				"y": 0.9080674908,
				"z": 0.0917534999,
				"element": "H" 
			},
			{
				"x": 2.150701983,
				"y": 2.5154095745,
				"z": -0.1631401843,
				"element": "H" 
			},
			{
				"x": 4.5954355621,
				"y": 2.1364272853,
				"z": 0.1945538214,
				"element": "H" 
			},
			{
				"x": 4.1182726346,
				"y": -1.9759653558,
				"z": -0.9693259904,
				"element": "H" 
			},
			{
				"x": 1.6744683436,
				"y": -1.5861810047,
				"z": -1.3234822131,
				"element": "H" 
			},
			{
				"x": 0.8451406311,
				"y": -0.0733027404,
				"z": 1.5635512345,
				"element": "H" 
			},
			{
				"x": -0.9988444047,
				"y": -0.3007166761,
				"z": 3.1950029211,
				"element": "H" 
			}
		],
		 "valence_orbital": [ 
			{
				"type": "occ",
				"energy": -0.28976,
				"method": "rhf"
			},
			{
				"type": "occ",
				"energy": -0.2857,
				"method": "rhf"
			},
			{
				"type": "occ",
				"energy": -0.27558,
				"method": "rhf"
			},
			{
				"type": "occ",
				"energy": -0.25992,
				"method": "rhf"
			},
			{
				"type": "occ",
				"energy": -0.25502,
				"method": "rhf"
			},
			{
				"type": "unocc",
				"energy": -0.05894,
				"method": "rhf"
			},
			{
				"type": "unocc",
				"energy": -0.04664,
				"method": "rhf"
			},
			{
				"type": "unocc",
				"energy": -0.03271,
				"method": "rhf"
			},
			{
				"type": "unocc",
				"energy": -0.03151,
				"method": "rhf"
			},
			{
				"type": "unocc",
				"energy": -0.00677,
				"method": "rhf"
			}
		],
		"cosmo_sigma_profile": { 
			"-0.025": 0.0,
			"-0.024": 0.0,
			"-0.023": 0.0,
			"-0.022": 0.0,
			"-0.021": 0.0,
			"-0.02": 0.0538980402597,
			"-0.019": 0.887656847885,
			"-0.018": 1.09013117253,
			"-0.017": 0.851828375011,
			"-0.016": 1.40974493748,
			"-0.015": 0.834470059022,
			"-0.014": 0.822513953892,
			"-0.013": 0.973504061752,
			"-0.012": 1.49601533656,
			"-0.011": 1.24470952982,
			"-0.01": 1.22809873804,
			"-0.009": 2.24050799813,
			"-0.008": 7.84202644172,
			"-0.007": 12.170970535,
			"-0.006": 11.9684382275,
			"-0.005": 13.2296747876,
			"-0.004": 15.5831231219,
			"-0.003": 14.625643529,
			"-0.002": 17.8683291407,
			"-0.001": 20.6544573455,
			"0.0": 20.5189175214,
			"0.001": 23.4775566215,
			"0.002": 24.0737024613,
			"0.003": 14.1340672702,
			"0.004": 14.7365235817,
			"0.005": 7.68946217011,
			"0.006": 4.85105894563,
			"0.007": 3.37027246168,
			"0.008": 5.05856139633,
			"0.009": 5.17634894293,
			"0.01": 7.02429165277,
			"0.011": 6.99187824849,
			"0.012": 5.40599214953,
			"0.013": 2.44658296146,
			"0.014": 1.14003746387,
			"0.015": 0.534006711816,
			"0.016": 0.0,
			"0.017": 0.0,
			"0.018": 0.0,
			"0.019": 0.0,
			"0.02": 0.0,
			"0.021": 0.0,
			"0.022": 0.0,
			"0.023": 0.0,
			"0.024": 0.0,
			"0.025": 0.0
		}
	}
}
