{
	 "smiles": "CCCCCCCCCCCC(O)CC", 
	 "Tm": 304.65, 
	 "num_atms": 45, 
	 "gaussian": { 
		 "optdone": 1, 
		 "sigma_profile": "yes", 
		 "theory": "DFT", 
		 "functional": "B3LYP", 
		 "basiset": "6-31G**", 
		 "properties": { 
			 "R2extent": 5622.0313, 
			 "electric_dipole_moment_norm": 1.65570742585, 
			 "electric_quadrupole_moment_norm": 4.83518649795, 
			 "total_energy": -626.826504545, 
			 "HOMO_LUMO_gap": 0.31948, 
			 "cosmo_polarized_energy": -5.33, 
			 "cosmo_cavitation_energy": 43.15, 
			 "cosmo_dispersion_energy": -28.19, 
			 "cosmo_repulsion_energy": 2.29, 
			 "cosmo_total_nonelectrostatic_energy": 17.26, 
			 "SMD_solvation_energy": 5.77 
		},
		"coords": [
			{
				"x": 4.4951052634,
				"y": -0.4712590165,
				"z": -1.0073414713,
				"element": "C" 
			},
			{
				"x": 3.5291242245,
				"y": 0.682736583,
				"z": -1.3020430984,
				"element": "C" 
			},
			{
				"x": 2.94248943,
				"y": 1.3606216786,
				"z": -0.0520331796,
				"element": "C" 
			},
			{
				"x": 2.0302780775,
				"y": 0.4585376379,
				"z": 0.793074874,
				"element": "C" 
			},
			{
				"x": 1.4153272263,
				"y": 1.1630957195,
				"z": 2.0192000658,
				"element": "C" 
			},
			{
				"x": 0.3376359249,
				"y": 2.2362415122,
				"z": 1.7352453363,
				"element": "C" 
			},
			{
				"x": -1.1190004477,
				"y": 1.7379484962,
				"z": 1.7517346337,
				"element": "C" 
			},
			{
				"x": -1.4943671408,
				"y": 0.7397060486,
				"z": 0.6480010946,
				"element": "C" 
			},
			{
				"x": -2.9823996357,
				"y": 0.3514128484,
				"z": 0.6652619379,
				"element": "C" 
			},
			{
				"x": -3.4404590894,
				"y": -0.5798602378,
				"z": -0.4774697928,
				"element": "C" 
			},
			{
				"x": -3.2456920518,
				"y": -2.0936208912,
				"z": -0.2652729588,
				"element": "C" 
			},
			{
				"x": -1.7994861601,
				"y": -2.5904850691,
				"z": -0.1060568807,
				"element": "C" 
			},
			{
				"x": -0.9674579975,
				"y": -2.1616923096,
				"z": -1.1872194222,
				"element": "O" 
			},
			{
				"x": -1.7234610837,
				"y": -4.1186925923,
				"z": -0.0766028299,
				"element": "C" 
			},
			{
				"x": -0.3139179566,
				"y": -4.6530414577,
				"z": 0.1919409423,
				"element": "C" 
			},
			{
				"x": 5.3272609294,
				"y": -0.137044516,
				"z": -0.3763261178,
				"element": "H" 
			},
			{
				"x": 4.9213210934,
				"y": -0.8729851927,
				"z": -1.932533748,
				"element": "H" 
			},
			{
				"x": 3.9988864164,
				"y": -1.298854636,
				"z": -0.4905513755,
				"element": "H" 
			},
			{
				"x": 4.0533554667,
				"y": 1.4412318187,
				"z": -1.8976017391,
				"element": "H" 
			},
			{
				"x": 2.7074923387,
				"y": 0.3174401801,
				"z": -1.9336298362,
				"element": "H" 
			},
			{
				"x": 2.384419383,
				"y": 2.2508860572,
				"z": -0.3699381754,
				"element": "H" 
			},
			{
				"x": 3.7646613276,
				"y": 1.7295308267,
				"z": 0.5787692387,
				"element": "H" 
			},
			{
				"x": 2.6081214158,
				"y": -0.4025768152,
				"z": 1.150714233,
				"element": "H" 
			},
			{
				"x": 1.242389454,
				"y": 0.0418805779,
				"z": 0.1521873259,
				"element": "H" 
			},
			{
				"x": 2.2374048942,
				"y": 1.6260657775,
				"z": 2.5811559899,
				"element": "H" 
			},
			{
				"x": 0.9895810653,
				"y": 0.4067637795,
				"z": 2.6928007939,
				"element": "H" 
			},
			{
				"x": 0.4212515788,
				"y": 3.0250406001,
				"z": 2.4929790149,
				"element": "H" 
			},
			{
				"x": 0.5405753549,
				"y": 2.7298824506,
				"z": 0.7753920298,
				"element": "H" 
			},
			{
				"x": -1.7857438761,
				"y": 2.6081826835,
				"z": 1.6759892123,
				"element": "H" 
			},
			{
				"x": -1.3282137783,
				"y": 1.282739844,
				"z": 2.7305394847,
				"element": "H" 
			},
			{
				"x": -0.8705991744,
				"y": -0.154920296,
				"z": 0.7498214848,
				"element": "H" 
			},
			{
				"x": -1.2529465811,
				"y": 1.1829398163,
				"z": -0.3304088304,
				"element": "H" 
			},
			{
				"x": -3.2307137092,
				"y": -0.1059669693,
				"z": 1.633607195,
				"element": "H" 
			},
			{
				"x": -3.5696975571,
				"y": 1.2779423573,
				"z": 0.6146672091,
				"element": "H" 
			},
			{
				"x": -4.5115126128,
				"y": -0.4174736401,
				"z": -0.6482458041,
				"element": "H" 
			},
			{
				"x": -2.9521981172,
				"y": -0.2766268525,
				"z": -1.4145254936,
				"element": "H" 
			},
			{
				"x": -3.6905020514,
				"y": -2.617569745,
				"z": -1.1216339178,
				"element": "H" 
			},
			{
				"x": -3.8128747805,
				"y": -2.4051479779,
				"z": 0.6228298831,
				"element": "H" 
			},
			{
				"x": -1.3944645756,
				"y": -2.2132335333,
				"z": 0.848507252,
				"element": "H" 
			},
			{
				"x": -0.9167865162,
				"y": -1.198362435,
				"z": -1.164752111,
				"element": "H" 
			},
			{
				"x": -2.0878404733,
				"y": -4.4938766747,
				"z": -1.0416871398,
				"element": "H" 
			},
			{
				"x": -2.4191163306,
				"y": -4.4851881399,
				"z": 0.6890113206,
				"element": "H" 
			},
			{
				"x": 0.3851989647,
				"y": -4.2829133372,
				"z": -0.5620470608,
				"element": "H" 
			},
			{
				"x": 0.0506082564,
				"y": -4.3320062842,
				"z": 1.1749167076,
				"element": "H" 
			},
			{
				"x": -0.2957363887,
				"y": -5.7475286746,
				"z": 0.1722737233,
				"element": "H" 
			}
		],
		 "valence_orbital": [ 
			{
				"type": "occ",
				"energy": -0.30579,
				"method": "rhf"
			},
			{
				"type": "occ",
				"energy": -0.30275,
				"method": "rhf"
			},
			{
				"type": "occ",
				"energy": -0.3,
				"method": "rhf"
			},
			{
				"type": "occ",
				"energy": -0.29844,
				"method": "rhf"
			},
			{
				"type": "occ",
				"energy": -0.25797,
				"method": "rhf"
			},
			{
				"type": "unocc",
				"energy": 0.06151,
				"method": "rhf"
			},
			{
				"type": "unocc",
				"energy": 0.08508,
				"method": "rhf"
			},
			{
				"type": "unocc",
				"energy": 0.0897,
				"method": "rhf"
			},
			{
				"type": "unocc",
				"energy": 0.09861,
				"method": "rhf"
			},
			{
				"type": "unocc",
				"energy": 0.10694,
				"method": "rhf"
			}
		],
		"cosmo_sigma_profile": { 
			"-0.025": 0.0,
			"-0.024": 0.0,
			"-0.023": 0.0,
			"-0.022": 0.0,
			"-0.021": 0.0,
			"-0.02": 0.0,
			"-0.019": 0.0,
			"-0.018": 0.0,
			"-0.017": 0.0,
			"-0.016": 0.0,
			"-0.015": 0.0,
			"-0.014": 0.0,
			"-0.013": 0.0,
			"-0.012": 0.0,
			"-0.011": 0.160317829624,
			"-0.01": 0.738050955174,
			"-0.009": 1.07369368758,
			"-0.008": 0.732500805938,
			"-0.007": 1.59286289121,
			"-0.006": 2.12320858855,
			"-0.005": 1.2773388034,
			"-0.004": 2.02807477582,
			"-0.003": 12.8462655437,
			"-0.002": 50.3978706441,
			"-0.001": 73.7984984552,
			"0.0": 72.5389689445,
			"0.001": 62.4590457864,
			"0.002": 28.4003534319,
			"0.003": 2.6255064821,
			"0.004": 1.33732212176,
			"0.005": 2.18959054161,
			"0.006": 1.75628606585,
			"0.007": 1.3882273208,
			"0.008": 1.04784612726,
			"0.009": 1.60973292593,
			"0.01": 1.6051258033,
			"0.011": 1.46114691155,
			"0.012": 1.47475791539,
			"0.013": 0.894041078737,
			"0.014": 1.30521347075,
			"0.015": 0.54044510791,
			"0.016": 0.0,
			"0.017": 0.0,
			"0.018": 0.0,
			"0.019": 0.0,
			"0.02": 0.0,
			"0.021": 0.0,
			"0.022": 0.0,
			"0.023": 0.0,
			"0.024": 0.0,
			"0.025": 0.0
		}
	}
}
