{
	 "smiles": "NS(=O)(=O)C1=CC=CC(=C1)C(F)(F)F", 
	 "Tm": 397.15, 
	 "num_atms": 20, 
	 "gaussian": { 
		 "optdone": 1, 
		 "sigma_profile": "yes", 
		 "theory": "DFT", 
		 "functional": "B3LYP", 
		 "basiset": "6-31G**", 
		 "properties": { 
			 "R2extent": 3523.1346, 
			 "electric_dipole_moment_norm": 3.52771642426, 
			 "electric_quadrupole_moment_norm": 18.3000213781, 
			 "total_energy": -1173.20493655, 
			 "HOMO_LUMO_gap": 0.22551, 
			 "cosmo_polarized_energy": -14.37, 
			 "cosmo_cavitation_energy": 27.54, 
			 "cosmo_dispersion_energy": -20.14, 
			 "cosmo_repulsion_energy": 1.49, 
			 "cosmo_total_nonelectrostatic_energy": 8.88, 
			 "SMD_solvation_energy": 5.54 
		},
		"coords": [
			{
				"x": 2.3973720657,
				"y": -2.2465807829,
				"z": -0.2268198427,
				"element": "N" 
			},
			{
				"x": 0.7257216698,
				"y": -2.4601896702,
				"z": -0.0642422673,
				"element": "S" 
			},
			{
				"x": 0.524615386,
				"y": -3.6086299582,
				"z": 0.8232729432,
				"element": "O" 
			},
			{
				"x": 0.142778959,
				"y": -2.3856932501,
				"z": -1.4062130433,
				"element": "O" 
			},
			{
				"x": 0.208947532,
				"y": -0.9910435537,
				"z": 0.8302868947,
				"element": "C" 
			},
			{
				"x": 0.1711295936,
				"y": -1.018950368,
				"z": 2.2244647961,
				"element": "C" 
			},
			{
				"x": -0.235346857,
				"y": 0.12480711,
				"z": 2.912618254,
				"element": "C" 
			},
			{
				"x": -0.5981582384,
				"y": 1.2736652966,
				"z": 2.2110663725,
				"element": "C" 
			},
			{
				"x": -0.5633889112,
				"y": 1.2803711576,
				"z": 0.8129711384,
				"element": "C" 
			},
			{
				"x": -0.1624502011,
				"y": 0.1435999797,
				"z": 0.1109217536,
				"element": "C" 
			},
			{
				"x": -0.9197779514,
				"y": 2.540312815,
				"z": 0.0665300815,
				"element": "C" 
			},
			{
				"x": 0.1337971239,
				"y": 3.3858749376,
				"z": -0.001259798,
				"element": "F" 
			},
			{
				"x": -1.9217813826,
				"y": 3.2108779025,
				"z": 0.6758144438,
				"element": "F" 
			},
			{
				"x": -1.3064975617,
				"y": 2.2835649856,
				"z": -1.1995916379,
				"element": "F" 
			},
			{
				"x": 2.8811996072,
				"y": -3.0200194129,
				"z": 0.2217653744,
				"element": "H" 
			},
			{
				"x": 2.637480763,
				"y": -2.1772460315,
				"z": -1.2122889902,
				"element": "H" 
			},
			{
				"x": 0.4367075231,
				"y": -1.9281675709,
				"z": 2.7523405757,
				"element": "H" 
			},
			{
				"x": -0.2780069326,
				"y": 0.1163687391,
				"z": 3.9970313457,
				"element": "H" 
			},
			{
				"x": -0.9243295262,
				"y": 2.1606970315,
				"z": 2.7435522888,
				"element": "H" 
			},
			{
				"x": -0.1613126612,
				"y": 0.1296806431,
				"z": -0.9725206832,
				"element": "H" 
			}
		],
		 "valence_orbital": [ 
			{
				"type": "occ",
				"energy": -0.32609,
				"method": "rhf"
			},
			{
				"type": "occ",
				"energy": -0.315,
				"method": "rhf"
			},
			{
				"type": "occ",
				"energy": -0.3135,
				"method": "rhf"
			},
			{
				"type": "occ",
				"energy": -0.28748,
				"method": "rhf"
			},
			{
				"type": "occ",
				"energy": -0.2799,
				"method": "rhf"
			},
			{
				"type": "unocc",
				"energy": -0.05439,
				"method": "rhf"
			},
			{
				"type": "unocc",
				"energy": -0.04203,
				"method": "rhf"
			},
			{
				"type": "unocc",
				"energy": 0.0446,
				"method": "rhf"
			},
			{
				"type": "unocc",
				"energy": 0.07141,
				"method": "rhf"
			},
			{
				"type": "unocc",
				"energy": 0.07661,
				"method": "rhf"
			}
		],
		"cosmo_sigma_profile": { 
			"-0.025": 0.0,
			"-0.024": 0.0,
			"-0.023": 0.0,
			"-0.022": 0.0,
			"-0.021": 0.0,
			"-0.02": 0.0,
			"-0.019": 0.0,
			"-0.018": 0.0,
			"-0.017": 0.0,
			"-0.016": 0.0354731747681,
			"-0.015": 1.55700183267,
			"-0.014": 2.31579642962,
			"-0.013": 3.13124151795,
			"-0.012": 1.93604208489,
			"-0.011": 1.76019057034,
			"-0.01": 1.99445981491,
			"-0.009": 2.26692372987,
			"-0.008": 5.81746693164,
			"-0.007": 8.61888989029,
			"-0.006": 9.90385032804,
			"-0.005": 9.8014060395,
			"-0.004": 7.12537293067,
			"-0.003": 9.8541964154,
			"-0.002": 10.646797521,
			"-0.001": 12.8197665388,
			"0.0": 18.9167925291,
			"0.001": 21.7433431304,
			"0.002": 27.9624576425,
			"0.003": 22.4752784704,
			"0.004": 3.13544511076,
			"0.005": 3.63386706201,
			"0.006": 3.20140290992,
			"0.007": 3.20476432203,
			"0.008": 3.68767558744,
			"0.009": 4.25035018961,
			"0.01": 8.99725700049,
			"0.011": 8.64630016066,
			"0.012": 1.32672600072,
			"0.013": 0.00507694755478,
			"0.014": 0.0,
			"0.015": 0.0,
			"0.016": 0.0,
			"0.017": 0.0,
			"0.018": 0.0,
			"0.019": 0.0,
			"0.02": 0.0,
			"0.021": 0.0,
			"0.022": 0.0,
			"0.023": 0.0,
			"0.024": 0.0,
			"0.025": 0.0
		}
	}
}
