{
	 "smiles": "COC1=CC=C(C=C1)C1=CN=C(CCC(O)=O)O1", 
	 "Tm": 432.15, 
	 "num_atms": 31, 
	 "gaussian": { 
		 "optdone": 1, 
		 "sigma_profile": "yes", 
		 "theory": "DFT", 
		 "functional": "B3LYP", 
		 "basiset": "6-31G**", 
		 "properties": { 
			 "R2extent": 6803.8472, 
			 "electric_dipole_moment_norm": 2.88357468605, 
			 "electric_quadrupole_moment_norm": 10.0178523372, 
			 "total_energy": -858.867503581, 
			 "HOMO_LUMO_gap": 0.17162, 
			 "cosmo_polarized_energy": -16.39, 
			 "cosmo_cavitation_energy": 36.39, 
			 "cosmo_dispersion_energy": -25.62, 
			 "cosmo_repulsion_energy": 1.99, 
			 "cosmo_total_nonelectrostatic_energy": 12.75, 
			 "SMD_solvation_energy": 6.36 
		},
		"coords": [
			{
				"x": 2.4782012837,
				"y": -4.1718953156,
				"z": 1.4698876646,
				"element": "C" 
			},
			{
				"x": 1.0903339223,
				"y": -3.9215963026,
				"z": 1.3121871209,
				"element": "O" 
			},
			{
				"x": 0.7031450382,
				"y": -2.6992262483,
				"z": 0.8486196412,
				"element": "C" 
			},
			{
				"x": 1.5764365543,
				"y": -1.65945384,
				"z": 0.5083816937,
				"element": "C" 
			},
			{
				"x": 1.0651966009,
				"y": -0.4472199417,
				"z": 0.0439788382,
				"element": "C" 
			},
			{
				"x": -0.315717845,
				"y": -0.2449803093,
				"z": -0.0924386332,
				"element": "C" 
			},
			{
				"x": -1.1809085174,
				"y": -1.3029462691,
				"z": 0.2521994675,
				"element": "C" 
			},
			{
				"x": -0.6823211404,
				"y": -2.5089668471,
				"z": 0.7158769562,
				"element": "C" 
			},
			{
				"x": -0.8457808962,
				"y": 1.0217818252,
				"z": -0.5720354749,
				"element": "C" 
			},
			{
				"x": -2.0898764383,
				"y": 1.5622421939,
				"z": -0.7395012808,
				"element": "C" 
			},
			{
				"x": -1.9818456978,
				"y": 2.8504820368,
				"z": -1.2429287152,
				"element": "N" 
			},
			{
				"x": -0.7035236156,
				"y": 3.052662271,
				"z": -1.3580454815,
				"element": "C" 
			},
			{
				"x": 0.0023712442,
				"y": 4.2693955599,
				"z": -1.8560411669,
				"element": "C" 
			},
			{
				"x": 0.8580710434,
				"y": 4.0205060524,
				"z": -3.1108972288,
				"element": "C" 
			},
			{
				"x": 2.1762451944,
				"y": 3.3365452774,
				"z": -2.8043815111,
				"element": "C" 
			},
			{
				"x": 2.6592548492,
				"y": 2.6831684909,
				"z": -3.8870080971,
				"element": "O" 
			},
			{
				"x": 2.7700060442,
				"y": 3.3841979314,
				"z": -1.7497662769,
				"element": "O" 
			},
			{
				"x": 0.0537771845,
				"y": 1.986607885,
				"z": -0.9724925069,
				"element": "O" 
			},
			{
				"x": 2.934468505,
				"y": -3.4829517443,
				"z": 2.1922880204,
				"element": "H" 
			},
			{
				"x": 2.5594311879,
				"y": -5.1924616959,
				"z": 1.8469475433,
				"element": "H" 
			},
			{
				"x": 3.0143925931,
				"y": -4.0963995388,
				"z": 0.5150940606,
				"element": "H" 
			},
			{
				"x": 2.6492835483,
				"y": -1.7780084203,
				"z": 0.6025726417,
				"element": "H" 
			},
			{
				"x": 1.7474611477,
				"y": 0.3562050023,
				"z": -0.2132640087,
				"element": "H" 
			},
			{
				"x": -2.2549609993,
				"y": -1.1780169471,
				"z": 0.1518516687,
				"element": "H" 
			},
			{
				"x": -1.3446440279,
				"y": -3.3261096552,
				"z": 0.981921034,
				"element": "H" 
			},
			{
				"x": -3.052342157,
				"y": 1.1192500256,
				"z": -0.5301292884,
				"element": "H" 
			},
			{
				"x": -0.7697545737,
				"y": 5.0102113322,
				"z": -2.0729358397,
				"element": "H" 
			},
			{
				"x": 0.6513680773,
				"y": 4.670040795,
				"z": -1.0692295937,
				"element": "H" 
			},
			{
				"x": 1.1121526929,
				"y": 4.9826799925,
				"z": -3.5744066995,
				"element": "H" 
			},
			{
				"x": 0.3158079231,
				"y": 3.4462761009,
				"z": -3.8669829112,
				"element": "H" 
			},
			{
				"x": 3.5173712739,
				"y": 2.312980303,
				"z": -3.6190216368,
				"element": "H" 
			}
		],
		 "valence_orbital": [ 
			{
				"type": "occ",
				"energy": -0.28003,
				"method": "rhf"
			},
			{
				"type": "occ",
				"energy": -0.27969,
				"method": "rhf"
			},
			{
				"type": "occ",
				"energy": -0.26081,
				"method": "rhf"
			},
			{
				"type": "occ",
				"energy": -0.25386,
				"method": "rhf"
			},
			{
				"type": "occ",
				"energy": -0.19828,
				"method": "rhf"
			},
			{
				"type": "unocc",
				"energy": -0.02666,
				"method": "rhf"
			},
			{
				"type": "unocc",
				"energy": -0.00441,
				"method": "rhf"
			},
			{
				"type": "unocc",
				"energy": 0.00587,
				"method": "rhf"
			},
			{
				"type": "unocc",
				"energy": 0.03331,
				"method": "rhf"
			},
			{
				"type": "unocc",
				"energy": 0.07585,
				"method": "rhf"
			}
		],
		"cosmo_sigma_profile": { 
			"-0.025": 0.0,
			"-0.024": 0.0,
			"-0.023": 0.0,
			"-0.022": 0.0,
			"-0.021": 0.0,
			"-0.02": 0.0,
			"-0.019": 0.0619924183007,
			"-0.018": 0.715348010481,
			"-0.017": 0.961385475564,
			"-0.016": 0.596469607344,
			"-0.015": 1.48717179341,
			"-0.014": 0.542036481425,
			"-0.013": 0.418008780471,
			"-0.012": 0.181728068342,
			"-0.011": 1.10078163107,
			"-0.01": 0.71136743494,
			"-0.009": 0.347465185115,
			"-0.008": 3.63298829422,
			"-0.007": 9.8891466737,
			"-0.006": 17.8498936585,
			"-0.005": 26.7740481651,
			"-0.004": 25.9148190483,
			"-0.003": 23.0548275848,
			"-0.002": 15.5032689153,
			"-0.001": 13.675349937,
			"0.0": 13.6518115009,
			"0.001": 17.7502257432,
			"0.002": 20.6849954446,
			"0.003": 19.5090926196,
			"0.004": 18.3714856968,
			"0.005": 14.2599681817,
			"0.006": 5.82878945376,
			"0.007": 5.88554308265,
			"0.008": 6.40016327081,
			"0.009": 6.13202845851,
			"0.01": 5.1380903169,
			"0.011": 3.79943580474,
			"0.012": 4.37169965744,
			"0.013": 1.51670795145,
			"0.014": 0.950170202307,
			"0.015": 1.02524132646,
			"0.016": 0.730272913473,
			"0.017": 0.197812299403,
			"0.018": 0.0,
			"0.019": 0.0,
			"0.02": 0.0,
			"0.021": 0.0,
			"0.022": 0.0,
			"0.023": 0.0,
			"0.024": 0.0,
			"0.025": 0.0
		}
	}
}
