{
	 "smiles": "ClC1=CC(Cl)=C(C=C1)S(Cl)(=O)=O", 
	 "Tm": 327.15, 
	 "num_atms": 15, 
	 "gaussian": { 
		 "optdone": 1, 
		 "sigma_profile": "yes", 
		 "theory": "DFT", 
		 "functional": "B3LYP", 
		 "basiset": "6-31G**", 
		 "properties": { 
			 "R2extent": 4548.7355, 
			 "electric_dipole_moment_norm": 4.06057380797, 
			 "electric_quadrupole_moment_norm": 5.20535309465, 
			 "total_energy": -2159.57645708, 
			 "HOMO_LUMO_gap": 0.18791, 
			 "cosmo_polarized_energy": -8.5, 
			 "cosmo_cavitation_energy": 26.56, 
			 "cosmo_dispersion_energy": -20.34, 
			 "cosmo_repulsion_energy": 1.57, 
			 "cosmo_total_nonelectrostatic_energy": 7.79, 
			 "SMD_solvation_energy": 2.81 
		},
		"coords": [
			{
				"x": -2.8183797098,
				"y": 4.0770334768,
				"z": -1.0249143007,
				"element": "Cl" 
			},
			{
				"x": -1.710051048,
				"y": 2.8925629974,
				"z": -0.3788200873,
				"element": "C" 
			},
			{
				"x": -2.1728223919,
				"y": 1.9845247604,
				"z": 0.5730127429,
				"element": "C" 
			},
			{
				"x": -1.2990802197,
				"y": 1.0311072458,
				"z": 1.097170621,
				"element": "C" 
			},
			{
				"x": -1.9242650566,
				"y": -0.0606901838,
				"z": 2.297892912,
				"element": "Cl" 
			},
			{
				"x": 0.0341798085,
				"y": 1.001194242,
				"z": 0.6562564938,
				"element": "C" 
			},
			{
				"x": 0.482217236,
				"y": 1.9252036506,
				"z": -0.2935702068,
				"element": "C" 
			},
			{
				"x": -0.3867525034,
				"y": 2.8750019693,
				"z": -0.8195302201,
				"element": "C" 
			},
			{
				"x": 1.2491604139,
				"y": -0.2076061426,
				"z": 1.2028376516,
				"element": "S" 
			},
			{
				"x": 1.5959029872,
				"y": 0.4135034412,
				"z": 3.2008940937,
				"element": "Cl" 
			},
			{
				"x": 0.6613032682,
				"y": -1.5365134822,
				"z": 1.2612080198,
				"element": "O" 
			},
			{
				"x": 2.4874949386,
				"y": 0.0511869673,
				"z": 0.4788143275,
				"element": "O" 
			},
			{
				"x": -3.2018122329,
				"y": 2.0133515088,
				"z": 0.90942205,
				"element": "H" 
			},
			{
				"x": 1.5159433468,
				"y": 1.8864880567,
				"z": -0.6161119414,
				"element": "H" 
			},
			{
				"x": -0.0438388369,
				"y": 3.5895514922,
				"z": -1.558262156,
				"element": "H" 
			}
		],
		 "valence_orbital": [ 
			{
				"type": "occ",
				"energy": -0.33967,
				"method": "rhf"
			},
			{
				"type": "occ",
				"energy": -0.33125,
				"method": "rhf"
			},
			{
				"type": "occ",
				"energy": -0.32077,
				"method": "rhf"
			},
			{
				"type": "occ",
				"energy": -0.295,
				"method": "rhf"
			},
			{
				"type": "occ",
				"energy": -0.28621,
				"method": "rhf"
			},
			{
				"type": "unocc",
				"energy": -0.0983,
				"method": "rhf"
			},
			{
				"type": "unocc",
				"energy": -0.06398,
				"method": "rhf"
			},
			{
				"type": "unocc",
				"energy": -0.0576,
				"method": "rhf"
			},
			{
				"type": "unocc",
				"energy": -0.01689,
				"method": "rhf"
			},
			{
				"type": "unocc",
				"energy": 0.02039,
				"method": "rhf"
			}
		],
		"cosmo_sigma_profile": { 
			"-0.025": 0.0,
			"-0.024": 0.0,
			"-0.023": 0.0,
			"-0.022": 0.0,
			"-0.021": 0.0,
			"-0.02": 0.0,
			"-0.019": 0.0,
			"-0.018": 0.0,
			"-0.017": 0.0,
			"-0.016": 0.0,
			"-0.015": 0.0,
			"-0.014": 0.0,
			"-0.013": 0.0,
			"-0.012": 0.0,
			"-0.011": 0.0,
			"-0.01": 0.928172755544,
			"-0.009": 5.2574703662,
			"-0.008": 5.5346213612,
			"-0.007": 4.84898737231,
			"-0.006": 5.74033801129,
			"-0.005": 6.56412867227,
			"-0.004": 10.4138632658,
			"-0.003": 14.9714874171,
			"-0.002": 25.508510338,
			"-0.001": 24.5334038735,
			"0.0": 16.9301613827,
			"0.001": 15.3288178278,
			"0.002": 24.1845889789,
			"0.003": 28.0095109002,
			"0.004": 5.6581912053,
			"0.005": 3.72491769439,
			"0.006": 3.88722024988,
			"0.007": 8.30334354523,
			"0.008": 9.36905412593,
			"0.009": 1.83125797632,
			"0.01": 0.0,
			"0.011": 0.0,
			"0.012": 0.0,
			"0.013": 0.0,
			"0.014": 0.0,
			"0.015": 0.0,
			"0.016": 0.0,
			"0.017": 0.0,
			"0.018": 0.0,
			"0.019": 0.0,
			"0.02": 0.0,
			"0.021": 0.0,
			"0.022": 0.0,
			"0.023": 0.0,
			"0.024": 0.0,
			"0.025": 0.0
		}
	}
}
