{
	 "smiles": "CC1CCCCN1S(=O)(=O)C1=CC(C(O)=O)=C(C)C=C1", 
	 "Tm": 423.15, 
	 "num_atms": 39, 
	 "gaussian": { 
		 "optdone": 1, 
		 "sigma_profile": "yes", 
		 "theory": "DFT", 
		 "functional": "B3LYP", 
		 "basiset": "6-31G**", 
		 "properties": { 
			 "R2extent": 8364.4956, 
			 "electric_dipole_moment_norm": 3.93524110189, 
			 "electric_quadrupole_moment_norm": 10.1509183506, 
			 "total_energy": -1298.7420726, 
			 "HOMO_LUMO_gap": 0.17674, 
			 "cosmo_polarized_energy": -16.34, 
			 "cosmo_cavitation_energy": 41.1, 
			 "cosmo_dispersion_energy": -28.99, 
			 "cosmo_repulsion_energy": 2.18, 
			 "cosmo_total_nonelectrostatic_energy": 14.29, 
			 "SMD_solvation_energy": 6.49 
		},
		"coords": [
			{
				"x": 0.7537825613,
				"y": 1.8645760151,
				"z": -1.0199175512,
				"element": "C" 
			},
			{
				"x": 0.1389174902,
				"y": 1.3170346602,
				"z": 0.2751925619,
				"element": "C" 
			},
			{
				"x": -0.7542834507,
				"y": 2.3334395576,
				"z": 1.0180367835,
				"element": "C" 
			},
			{
				"x": -2.1058228769,
				"y": 2.5555676239,
				"z": 0.3205759407,
				"element": "C" 
			},
			{
				"x": -2.8273559811,
				"y": 1.2186396214,
				"z": 0.0967589491,
				"element": "C" 
			},
			{
				"x": -1.9263842025,
				"y": 0.2332527599,
				"z": -0.657129269,
				"element": "C" 
			},
			{
				"x": -0.6029480632,
				"y": 0.057287109,
				"z": -0.0182191274,
				"element": "N" 
			},
			{
				"x": -0.4893738552,
				"y": -1.1483057868,
				"z": 1.1618950027,
				"element": "S" 
			},
			{
				"x": -0.4944373717,
				"y": -0.5895305368,
				"z": 2.5232829179,
				"element": "O" 
			},
			{
				"x": -1.4567950297,
				"y": -2.1871522142,
				"z": 0.7887149278,
				"element": "O" 
			},
			{
				"x": 1.1679782466,
				"y": -1.7787646149,
				"z": 0.866305945,
				"element": "C" 
			},
			{
				"x": 2.1192118829,
				"y": -1.7035636261,
				"z": 1.8745998783,
				"element": "C" 
			},
			{
				"x": 3.4041022811,
				"y": -2.2361939486,
				"z": 1.673905504,
				"element": "C" 
			},
			{
				"x": 4.4022419915,
				"y": -2.1327530391,
				"z": 2.7752103722,
				"element": "C" 
			},
			{
				"x": 3.9125329538,
				"y": -1.4940650736,
				"z": 3.8675605371,
				"element": "O" 
			},
			{
				"x": 5.5425681979,
				"y": -2.5556898401,
				"z": 2.7481913009,
				"element": "O" 
			},
			{
				"x": 3.7335106044,
				"y": -2.8602374731,
				"z": 0.4463077264,
				"element": "C" 
			},
			{
				"x": 5.0855824904,
				"y": -3.459038263,
				"z": 0.148962193,
				"element": "C" 
			},
			{
				"x": 2.7384800828,
				"y": -2.9226117957,
				"z": -0.5435934321,
				"element": "C" 
			},
			{
				"x": 1.4671904372,
				"y": -2.395803737,
				"z": -0.3504070845,
				"element": "C" 
			},
			{
				"x": 1.3798148565,
				"y": 1.1047136153,
				"z": -1.4954467247,
				"element": "H" 
			},
			{
				"x": -0.005016876,
				"y": 2.179401406,
				"z": -1.7419852323,
				"element": "H" 
			},
			{
				"x": 1.3765357689,
				"y": 2.7365596254,
				"z": -0.7954955394,
				"element": "H" 
			},
			{
				"x": 0.966444071,
				"y": 1.0440391437,
				"z": 0.9375250176,
				"element": "H" 
			},
			{
				"x": -0.9290224195,
				"y": 1.9502914156,
				"z": 2.0290547314,
				"element": "H" 
			},
			{
				"x": -0.2117880719,
				"y": 3.281311927,
				"z": 1.1181685551,
				"element": "H" 
			},
			{
				"x": -2.7261761718,
				"y": 3.228258361,
				"z": 0.9233002597,
				"element": "H" 
			},
			{
				"x": -1.9576624933,
				"y": 3.0567640383,
				"z": -0.645810877,
				"element": "H" 
			},
			{
				"x": -3.1096225547,
				"y": 0.7807872212,
				"z": 1.0624218337,
				"element": "H" 
			},
			{
				"x": -3.7535873339,
				"y": 1.366651957,
				"z": -0.471676787,
				"element": "H" 
			},
			{
				"x": -1.7377361351,
				"y": 0.5973599549,
				"z": -1.6745575076,
				"element": "H" 
			},
			{
				"x": -2.3880687459,
				"y": -0.7507553064,
				"z": -0.7427482765,
				"element": "H" 
			},
			{
				"x": 1.8624304888,
				"y": -1.235703778,
				"z": 2.8164989615,
				"element": "H" 
			},
			{
				"x": 4.6359358964,
				"y": -1.4908168399,
				"z": 4.5153114287,
				"element": "H" 
			},
			{
				"x": 5.3383595953,
				"y": -4.2469986887,
				"z": 0.8631859031,
				"element": "H" 
			},
			{
				"x": 5.8811302219,
				"y": -2.7144767672,
				"z": 0.2364197362,
				"element": "H" 
			},
			{
				"x": 5.0985563674,
				"y": -3.8770380667,
				"z": -0.8609622286,
				"element": "H" 
			},
			{
				"x": 2.9747979809,
				"y": -3.4024706554,
				"z": -1.4888323685,
				"element": "H" 
			},
			{
				"x": 0.7150771658,
				"y": -2.4610659611,
				"z": -1.1294049617,
				"element": "H" 
			}
		],
		 "valence_orbital": [ 
			{
				"type": "occ",
				"energy": -0.29548,
				"method": "rhf"
			},
			{
				"type": "occ",
				"energy": -0.28038,
				"method": "rhf"
			},
			{
				"type": "occ",
				"energy": -0.27694,
				"method": "rhf"
			},
			{
				"type": "occ",
				"energy": -0.27154,
				"method": "rhf"
			},
			{
				"type": "occ",
				"energy": -0.23998,
				"method": "rhf"
			},
			{
				"type": "unocc",
				"energy": -0.06324,
				"method": "rhf"
			},
			{
				"type": "unocc",
				"energy": -0.03334,
				"method": "rhf"
			},
			{
				"type": "unocc",
				"energy": 0.03435,
				"method": "rhf"
			},
			{
				"type": "unocc",
				"energy": 0.05986,
				"method": "rhf"
			},
			{
				"type": "unocc",
				"energy": 0.07301,
				"method": "rhf"
			}
		],
		"cosmo_sigma_profile": { 
			"-0.025": 0.0,
			"-0.024": 0.0,
			"-0.023": 0.0,
			"-0.022": 0.0,
			"-0.021": 0.0,
			"-0.02": 0.0,
			"-0.019": 0.0831257016765,
			"-0.018": 0.718201593967,
			"-0.017": 0.855315327527,
			"-0.016": 1.04002948176,
			"-0.015": 0.894803079726,
			"-0.014": 0.596334718264,
			"-0.013": 0.23920314288,
			"-0.012": 0.635978203047,
			"-0.011": 1.22668611798,
			"-0.01": 0.871202318167,
			"-0.009": 0.338741627017,
			"-0.008": 1.74018298376,
			"-0.007": 5.21804766645,
			"-0.006": 6.11837509145,
			"-0.005": 9.20451128435,
			"-0.004": 20.3978837131,
			"-0.003": 35.9526824979,
			"-0.002": 41.7340919315,
			"-0.001": 45.7695248505,
			"0.0": 42.1733888804,
			"0.001": 27.863163303,
			"0.002": 12.5833695776,
			"0.003": 7.80785239042,
			"0.004": 7.8977175518,
			"0.005": 6.55510492093,
			"0.006": 5.72048449504,
			"0.007": 4.4714791992,
			"0.008": 5.08046897908,
			"0.009": 5.42811329922,
			"0.01": 7.58751498653,
			"0.011": 10.0778126526,
			"0.012": 5.94349351296,
			"0.013": 0.0703495001494,
			"0.014": 0.0,
			"0.015": 0.0,
			"0.016": 0.0,
			"0.017": 0.0,
			"0.018": 0.0,
			"0.019": 0.0,
			"0.02": 0.0,
			"0.021": 0.0,
			"0.022": 0.0,
			"0.023": 0.0,
			"0.024": 0.0,
			"0.025": 0.0
		}
	}
}
