{
	 "smiles": "COC1=CC(C(O)CN)=C(OC)C=C1", 
	 "Tm": 370.15, 
	 "num_atms": 29, 
	 "gaussian": { 
		 "optdone": 1, 
		 "sigma_profile": "yes", 
		 "theory": "DFT", 
		 "functional": "B3LYP", 
		 "basiset": "6-31G**", 
		 "properties": { 
			 "R2extent": 4003.6964, 
			 "electric_dipole_moment_norm": 1.3333068814, 
			 "electric_quadrupole_moment_norm": 18.8971600951, 
			 "total_energy": -670.490339082, 
			 "HOMO_LUMO_gap": 0.19502, 
			 "cosmo_polarized_energy": -13.69, 
			 "cosmo_cavitation_energy": 31.37, 
			 "cosmo_dispersion_energy": -22.26, 
			 "cosmo_repulsion_energy": 1.78, 
			 "cosmo_total_nonelectrostatic_energy": 10.89, 
			 "SMD_solvation_energy": 5.36 
		},
		"coords": [
			{
				"x": -1.3554846243,
				"y": -0.7931129367,
				"z": -3.146204776,
				"element": "C" 
			},
			{
				"x": -0.0635418673,
				"y": -0.2359237374,
				"z": -3.3129774444,
				"element": "O" 
			},
			{
				"x": 0.7439932001,
				"y": -0.1422049685,
				"z": -2.2100932272,
				"element": "C" 
			},
			{
				"x": 0.3869537879,
				"y": -0.5753745467,
				"z": -0.9273187504,
				"element": "C" 
			},
			{
				"x": 1.271657342,
				"y": -0.4387212869,
				"z": 0.1463867437,
				"element": "C" 
			},
			{
				"x": 0.9008028349,
				"y": -0.9267700145,
				"z": 1.5317908173,
				"element": "C" 
			},
			{
				"x": -0.5201696834,
				"y": -1.0975473955,
				"z": 1.578921599,
				"element": "O" 
			},
			{
				"x": 1.6000340719,
				"y": -2.262915783,
				"z": 1.8949798966,
				"element": "C" 
			},
			{
				"x": 1.2424678399,
				"y": -3.4075481653,
				"z": 1.063791987,
				"element": "N" 
			},
			{
				"x": 2.5346998221,
				"y": 0.1399962018,
				"z": -0.0735243487,
				"element": "C" 
			},
			{
				"x": 3.3502602633,
				"y": 0.2401800713,
				"z": 1.030184487,
				"element": "O" 
			},
			{
				"x": 4.6123230832,
				"y": 0.8654821949,
				"z": 0.8762226463,
				"element": "C" 
			},
			{
				"x": 2.8911817541,
				"y": 0.5738351218,
				"z": -1.3546724415,
				"element": "C" 
			},
			{
				"x": 2.0007019732,
				"y": 0.4312027058,
				"z": -2.4170176819,
				"element": "C" 
			},
			{
				"x": -1.8249753593,
				"y": -0.7684850922,
				"z": -4.1312599399,
				"element": "H" 
			},
			{
				"x": -1.9637541118,
				"y": -0.2098410377,
				"z": -2.4424376654,
				"element": "H" 
			},
			{
				"x": -1.3093862376,
				"y": -1.8331668801,
				"z": -2.7964397015,
				"element": "H" 
			},
			{
				"x": -0.5863856597,
				"y": -1.0013316869,
				"z": -0.7252224566,
				"element": "H" 
			},
			{
				"x": 1.2187197895,
				"y": -0.1669966684,
				"z": 2.2614959025,
				"element": "H" 
			},
			{
				"x": -0.7498840607,
				"y": -1.3321524542,
				"z": 2.4870521767,
				"element": "H" 
			},
			{
				"x": 2.6836819975,
				"y": -2.1163200699,
				"z": 1.8668935908,
				"element": "H" 
			},
			{
				"x": 1.3426710231,
				"y": -2.5016109453,
				"z": 2.9379830601,
				"element": "H" 
			},
			{
				"x": 1.5633428269,
				"y": -3.2427006932,
				"z": 0.111694672,
				"element": "H" 
			},
			{
				"x": 0.2264672364,
				"y": -3.4526316224,
				"z": 1.004976978,
				"element": "H" 
			},
			{
				"x": 5.2553217567,
				"y": 0.3172783912,
				"z": 0.1750607955,
				"element": "H" 
			},
			{
				"x": 4.5118872345,
				"y": 1.9028757872,
				"z": 0.5310237119,
				"element": "H" 
			},
			{
				"x": 5.075953698,
				"y": 0.8598492556,
				"z": 1.8642487547,
				"element": "H" 
			},
			{
				"x": 3.8589742968,
				"y": 1.0254559821,
				"z": -1.5374399627,
				"element": "H" 
			},
			{
				"x": 2.2670857719,
				"y": 0.7656002729,
				"z": -3.4141994228,
				"element": "H" 
			}
		],
		 "valence_orbital": [ 
			{
				"type": "occ",
				"energy": -0.28511,
				"method": "rhf"
			},
			{
				"type": "occ",
				"energy": -0.27902,
				"method": "rhf"
			},
			{
				"type": "occ",
				"energy": -0.24437,
				"method": "rhf"
			},
			{
				"type": "occ",
				"energy": -0.22543,
				"method": "rhf"
			},
			{
				"type": "occ",
				"energy": -0.19407,
				"method": "rhf"
			},
			{
				"type": "unocc",
				"energy": 0.00095,
				"method": "rhf"
			},
			{
				"type": "unocc",
				"energy": 0.02771,
				"method": "rhf"
			},
			{
				"type": "unocc",
				"energy": 0.06891,
				"method": "rhf"
			},
			{
				"type": "unocc",
				"energy": 0.097,
				"method": "rhf"
			},
			{
				"type": "unocc",
				"energy": 0.10205,
				"method": "rhf"
			}
		],
		"cosmo_sigma_profile": { 
			"-0.025": 0.0,
			"-0.024": 0.0,
			"-0.023": 0.0,
			"-0.022": 0.0,
			"-0.021": 0.0,
			"-0.02": 0.0,
			"-0.019": 0.0,
			"-0.018": 0.0,
			"-0.017": 0.0,
			"-0.016": 0.240685253003,
			"-0.015": 0.892870454139,
			"-0.014": 1.28045031396,
			"-0.013": 0.870888469002,
			"-0.012": 0.736832953359,
			"-0.011": 1.29374619382,
			"-0.01": 0.765171775124,
			"-0.009": 1.44536013812,
			"-0.008": 2.29324247764,
			"-0.007": 3.16440194728,
			"-0.006": 8.89368252636,
			"-0.005": 24.4158434433,
			"-0.004": 25.7511387011,
			"-0.003": 27.4058551636,
			"-0.002": 18.7623688394,
			"-0.001": 15.7053600303,
			"0.0": 11.9476267784,
			"0.001": 11.277494774,
			"0.002": 9.89057255928,
			"0.003": 12.8285726612,
			"0.004": 13.9908105666,
			"0.005": 14.755947754,
			"0.006": 10.3197827555,
			"0.007": 4.51346657524,
			"0.008": 4.53812193243,
			"0.009": 3.20399869843,
			"0.01": 4.12270497574,
			"0.011": 3.29120590037,
			"0.012": 1.03031143476,
			"0.013": 1.03115346352,
			"0.014": 1.19435887636,
			"0.015": 0.975682457622,
			"0.016": 0.655215987192,
			"0.017": 0.693020455063,
			"0.018": 0.247649044564,
			"0.019": 0.883015902399,
			"0.02": 0.417278813601,
			"0.021": 0.0,
			"0.022": 0.0,
			"0.023": 0.0,
			"0.024": 0.0,
			"0.025": 0.0
		}
	}
}
