{
	 "smiles": "NC1=NC=C(S1)C1=CC=C(F)C=C1", 
	 "Tm": 483.15, 
	 "num_atms": 20, 
	 "gaussian": { 
		 "optdone": 1, 
		 "sigma_profile": "yes", 
		 "theory": "DFT", 
		 "functional": "B3LYP", 
		 "basiset": "6-31G**", 
		 "properties": { 
			 "R2extent": 3797.7658, 
			 "electric_dipole_moment_norm": 2.51464796145, 
			 "electric_quadrupole_moment_norm": 11.9151198928, 
			 "total_energy": -954.698963919, 
			 "HOMO_LUMO_gap": 0.16684, 
			 "cosmo_polarized_energy": -11.21, 
			 "cosmo_cavitation_energy": 26.73, 
			 "cosmo_dispersion_energy": -20.24, 
			 "cosmo_repulsion_energy": 1.52, 
			 "cosmo_total_nonelectrostatic_energy": 8.01, 
			 "SMD_solvation_energy": 3.07 
		},
		"coords": [
			{
				"x": 0.7715746176,
				"y": -0.758248591,
				"z": -3.8255592302,
				"element": "N" 
			},
			{
				"x": 0.5098812094,
				"y": -0.7195626405,
				"z": -2.4752617913,
				"element": "C" 
			},
			{
				"x": 1.0683356952,
				"y": -1.5124043051,
				"z": -1.6043667206,
				"element": "N" 
			},
			{
				"x": 0.5457085489,
				"y": -1.2944860719,
				"z": -0.3513965232,
				"element": "C" 
			},
			{
				"x": -0.4115165265,
				"y": -0.3250313507,
				"z": -0.2160350244,
				"element": "C" 
			},
			{
				"x": -0.7117172925,
				"y": 0.3736657432,
				"z": -1.8142775134,
				"element": "S" 
			},
			{
				"x": -1.111727664,
				"y": 0.128966454,
				"z": 0.9874089764,
				"element": "C" 
			},
			{
				"x": -0.5060827164,
				"y": -0.0021892876,
				"z": 2.2526950497,
				"element": "C" 
			},
			{
				"x": -1.1645855796,
				"y": 0.3940983753,
				"z": 3.4130830898,
				"element": "C" 
			},
			{
				"x": -2.4354843438,
				"y": 0.949464655,
				"z": 3.3087500334,
				"element": "C" 
			},
			{
				"x": -3.0732784148,
				"y": 1.3465314938,
				"z": 4.4299835827,
				"element": "F" 
			},
			{
				"x": -3.0614616786,
				"y": 1.1121369558,
				"z": 2.0787818432,
				"element": "C" 
			},
			{
				"x": -2.3984264488,
				"y": 0.6958413907,
				"z": 0.9265957746,
				"element": "C" 
			},
			{
				"x": 0.6853690542,
				"y": 0.1090914699,
				"z": -4.3358577678,
				"element": "H" 
			},
			{
				"x": 1.6064865578,
				"y": -1.2854533547,
				"z": -4.0468889363,
				"element": "H" 
			},
			{
				"x": 0.9016311527,
				"y": -1.90582656,
				"z": 0.4703600982,
				"element": "H" 
			},
			{
				"x": 0.4999429898,
				"y": -0.402605127,
				"z": 2.3247329481,
				"element": "H" 
			},
			{
				"x": -0.7011096312,
				"y": 0.295479573,
				"z": 4.3887883364,
				"element": "H" 
			},
			{
				"x": -4.0535633687,
				"y": 1.5482428746,
				"z": 2.0349062339,
				"element": "H" 
			},
			{
				"x": -2.8958761606,
				"y": 0.7979883032,
				"z": -0.0333424594,
				"element": "H" 
			}
		],
		 "valence_orbital": [ 
			{
				"type": "occ",
				"energy": -0.28019,
				"method": "rhf"
			},
			{
				"type": "occ",
				"energy": -0.27419,
				"method": "rhf"
			},
			{
				"type": "occ",
				"energy": -0.26269,
				"method": "rhf"
			},
			{
				"type": "occ",
				"energy": -0.25552,
				"method": "rhf"
			},
			{
				"type": "occ",
				"energy": -0.19921,
				"method": "rhf"
			},
			{
				"type": "unocc",
				"energy": -0.03237,
				"method": "rhf"
			},
			{
				"type": "unocc",
				"energy": -0.01468,
				"method": "rhf"
			},
			{
				"type": "unocc",
				"energy": 0.00656,
				"method": "rhf"
			},
			{
				"type": "unocc",
				"energy": 0.02651,
				"method": "rhf"
			},
			{
				"type": "unocc",
				"energy": 0.06452,
				"method": "rhf"
			}
		],
		"cosmo_sigma_profile": { 
			"-0.025": 0.0,
			"-0.024": 0.0,
			"-0.023": 0.0,
			"-0.022": 0.0,
			"-0.021": 0.0,
			"-0.02": 0.0,
			"-0.019": 0.0,
			"-0.018": 0.0,
			"-0.017": 0.0,
			"-0.016": 0.0,
			"-0.015": 0.454334089781,
			"-0.014": 2.26569567743,
			"-0.013": 2.67458004056,
			"-0.012": 2.09213965058,
			"-0.011": 2.55752100322,
			"-0.01": 2.9303272075,
			"-0.009": 2.51896165247,
			"-0.008": 1.85628282738,
			"-0.007": 8.52434227553,
			"-0.006": 10.4684190843,
			"-0.005": 9.81330233859,
			"-0.004": 10.8315164969,
			"-0.003": 8.8770753766,
			"-0.002": 9.68085239186,
			"-0.001": 8.33808210863,
			"0.0": 13.5035427445,
			"0.001": 19.1205548777,
			"0.002": 20.656411627,
			"0.003": 25.4157299112,
			"0.004": 29.1628490045,
			"0.005": 8.33922067376,
			"0.006": 2.23125580509,
			"0.007": 2.8192216396,
			"0.008": 2.13301570126,
			"0.009": 1.97153506415,
			"0.01": 1.5116593823,
			"0.011": 1.89756169244,
			"0.012": 0.953626072619,
			"0.013": 1.41144057679,
			"0.014": 0.64177839086,
			"0.015": 0.91726929133,
			"0.016": 0.325983355593,
			"0.017": 0.0,
			"0.018": 0.0,
			"0.019": 0.0,
			"0.02": 0.0,
			"0.021": 0.0,
			"0.022": 0.0,
			"0.023": 0.0,
			"0.024": 0.0,
			"0.025": 0.0
		}
	}
}
