{
	 "smiles": "CC1=NN=NN1C(CC1=CC=CC=C1)C(O)=O", 
	 "Tm": 441.15, 
	 "num_atms": 29, 
	 "gaussian": { 
		 "optdone": 1, 
		 "sigma_profile": "yes", 
		 "theory": "DFT", 
		 "functional": "B3LYP", 
		 "basiset": "6-31G**", 
		 "properties": { 
			 "R2extent": 4523.8262, 
			 "electric_dipole_moment_norm": 6.60945877815, 
			 "electric_quadrupole_moment_norm": 18.1896022856, 
			 "total_energy": -795.821544696, 
			 "HOMO_LUMO_gap": 0.2247, 
			 "cosmo_polarized_energy": -21.91, 
			 "cosmo_cavitation_energy": 33.65, 
			 "cosmo_dispersion_energy": -22.68, 
			 "cosmo_repulsion_energy": 1.75, 
			 "cosmo_total_nonelectrostatic_energy": 12.72, 
			 "SMD_solvation_energy": 4.9 
		},
		"coords": [
			{
				"x": 1.0978185112,
				"y": -1.3462079982,
				"z": -3.2307155046,
				"element": "C" 
			},
			{
				"x": 0.3887436306,
				"y": -0.2241264729,
				"z": -2.5514071277,
				"element": "C" 
			},
			{
				"x": 0.6661361839,
				"y": 1.0556421211,
				"z": -2.7314055948,
				"element": "N" 
			},
			{
				"x": -0.202788877,
				"y": 1.7547288165,
				"z": -1.9539081829,
				"element": "N" 
			},
			{
				"x": -0.9910469107,
				"y": 0.964476781,
				"z": -1.3136964841,
				"element": "N" 
			},
			{
				"x": -0.6413319897,
				"y": -0.3050338918,
				"z": -1.6684243534,
				"element": "N" 
			},
			{
				"x": -1.3786626056,
				"y": -1.4097919318,
				"z": -1.0757480554,
				"element": "C" 
			},
			{
				"x": -0.4983982056,
				"y": -2.3640027071,
				"z": -0.2193894947,
				"element": "C" 
			},
			{
				"x": 0.1472847146,
				"y": -1.6751974389,
				"z": 0.9636783739,
				"element": "C" 
			},
			{
				"x": -0.5964998035,
				"y": -1.4252675538,
				"z": 2.1253871171,
				"element": "C" 
			},
			{
				"x": -0.0188148832,
				"y": -0.7759359178,
				"z": 3.2154647927,
				"element": "C" 
			},
			{
				"x": 1.3158404265,
				"y": -0.3679962731,
				"z": 3.160208898,
				"element": "C" 
			},
			{
				"x": 2.0668792644,
				"y": -0.6154216488,
				"z": 2.0110313911,
				"element": "C" 
			},
			{
				"x": 1.4848768806,
				"y": -1.2652676051,
				"z": 0.9211551816,
				"element": "C" 
			},
			{
				"x": -2.1673482552,
				"y": -2.1785200199,
				"z": -2.1365414262,
				"element": "C" 
			},
			{
				"x": -3.0864946563,
				"y": -2.9717891443,
				"z": -1.5459706378,
				"element": "O" 
			},
			{
				"x": -2.0081072014,
				"y": -2.1191880425,
				"z": -3.3331582316,
				"element": "O" 
			},
			{
				"x": 1.8043261812,
				"y": -0.9148043394,
				"z": -3.9410712965,
				"element": "H" 
			},
			{
				"x": 1.6598212711,
				"y": -1.9634039307,
				"z": -2.5216636229,
				"element": "H" 
			},
			{
				"x": 0.3909412404,
				"y": -1.9853177752,
				"z": -3.7641626387,
				"element": "H" 
			},
			{
				"x": -2.1057340187,
				"y": -0.9310389172,
				"z": -0.4142636974,
				"element": "H" 
			},
			{
				"x": 0.2610727339,
				"y": -2.8256981517,
				"z": -0.8578712375,
				"element": "H" 
			},
			{
				"x": -1.1560150741,
				"y": -3.1684358753,
				"z": 0.123624772,
				"element": "H" 
			},
			{
				"x": -1.6347347005,
				"y": -1.745821213,
				"z": 2.178625126,
				"element": "H" 
			},
			{
				"x": -0.6087350359,
				"y": -0.5915837602,
				"z": 4.1085792004,
				"element": "H" 
			},
			{
				"x": 1.7670495618,
				"y": 0.1378759231,
				"z": 4.0086216613,
				"element": "H" 
			},
			{
				"x": 3.1056641429,
				"y": -0.3028398002,
				"z": 1.9600094101,
				"element": "H" 
			},
			{
				"x": 2.079714314,
				"y": -1.4573200396,
				"z": 0.0318587088,
				"element": "H" 
			},
			{
				"x": -3.5474568395,
				"y": -3.4457131933,
				"z": -2.259047047,
				"element": "H" 
			}
		],
		 "valence_orbital": [ 
			{
				"type": "occ",
				"energy": -0.28519,
				"method": "rhf"
			},
			{
				"type": "occ",
				"energy": -0.28324,
				"method": "rhf"
			},
			{
				"type": "occ",
				"energy": -0.27192,
				"method": "rhf"
			},
			{
				"type": "occ",
				"energy": -0.25951,
				"method": "rhf"
			},
			{
				"type": "occ",
				"energy": -0.25497,
				"method": "rhf"
			},
			{
				"type": "unocc",
				"energy": -0.03027,
				"method": "rhf"
			},
			{
				"type": "unocc",
				"energy": -0.01187,
				"method": "rhf"
			},
			{
				"type": "unocc",
				"energy": -0.00953,
				"method": "rhf"
			},
			{
				"type": "unocc",
				"energy": -0.00616,
				"method": "rhf"
			},
			{
				"type": "unocc",
				"energy": 0.03441,
				"method": "rhf"
			}
		],
		"cosmo_sigma_profile": { 
			"-0.025": 0.0,
			"-0.024": 0.0,
			"-0.023": 0.0,
			"-0.022": 0.0,
			"-0.021": 0.0,
			"-0.02": 0.00609167302967,
			"-0.019": 0.867731896886,
			"-0.018": 0.977185141724,
			"-0.017": 0.894883217609,
			"-0.016": 0.901600045865,
			"-0.015": 1.17391268329,
			"-0.014": 0.316144497594,
			"-0.013": 0.152273017939,
			"-0.012": 1.24996448986,
			"-0.011": 0.870047355346,
			"-0.01": 0.767956127486,
			"-0.009": 3.13545548565,
			"-0.008": 6.5936419029,
			"-0.007": 8.88203229747,
			"-0.006": 16.4176804773,
			"-0.005": 19.5193436682,
			"-0.004": 23.2156717339,
			"-0.003": 20.7223330117,
			"-0.002": 18.6047870207,
			"-0.001": 14.5379945522,
			"0.0": 13.0891341553,
			"0.001": 12.2738377206,
			"0.002": 12.2311899639,
			"0.003": 12.6625757234,
			"0.004": 12.5742989043,
			"0.005": 13.6053946891,
			"0.006": 10.9031629909,
			"0.007": 5.63018319559,
			"0.008": 6.91991522336,
			"0.009": 6.60265700643,
			"0.01": 7.52834262713,
			"0.011": 5.95653743548,
			"0.012": 2.89586964965,
			"0.013": 2.55901560568,
			"0.014": 1.93977980898,
			"0.015": 0.727116955173,
			"0.016": 0.169843003583,
			"0.017": 0.0,
			"0.018": 0.0,
			"0.019": 0.0,
			"0.02": 0.0,
			"0.021": 0.0,
			"0.022": 0.0,
			"0.023": 0.0,
			"0.024": 0.0,
			"0.025": 0.0
		}
	}
}
