{
	 "smiles": "OC(=O)C1=C(Cl)N=CC(F)=C1", 
	 "Tm": 417.15, 
	 "num_atms": 14, 
	 "gaussian": { 
		 "optdone": 1, 
		 "sigma_profile": "yes", 
		 "theory": "DFT", 
		 "functional": "B3LYP", 
		 "basiset": "6-31G**", 
		 "properties": { 
			 "R2extent": 2129.8996, 
			 "electric_dipole_moment_norm": 4.51260862584, 
			 "electric_quadrupole_moment_norm": 6.41864069956, 
			 "total_energy": -995.657596703, 
			 "HOMO_LUMO_gap": 0.19603, 
			 "cosmo_polarized_energy": -16.69, 
			 "cosmo_cavitation_energy": 21.89, 
			 "cosmo_dispersion_energy": -16.09, 
			 "cosmo_repulsion_energy": 1.28, 
			 "cosmo_total_nonelectrostatic_energy": 7.09, 
			 "SMD_solvation_energy": 3.95 
		},
		"coords": [
			{
				"x": 0.5067214249,
				"y": -2.1032643077,
				"z": -1.1244435646,
				"element": "O" 
			},
			{
				"x": -0.1380195686,
				"y": -0.9156702396,
				"z": -1.2762687936,
				"element": "C" 
			},
			{
				"x": -1.067323115,
				"y": -0.809547515,
				"z": -2.031259177,
				"element": "O" 
			},
			{
				"x": 0.4495943768,
				"y": 0.2289152702,
				"z": -0.4904347571,
				"element": "C" 
			},
			{
				"x": -0.3206366315,
				"y": 1.1584839489,
				"z": 0.2391113685,
				"element": "C" 
			},
			{
				"x": -2.0493307114,
				"y": 0.9488086738,
				"z": 0.3994442318,
				"element": "Cl" 
			},
			{
				"x": 0.1929432779,
				"y": 2.2003901983,
				"z": 0.8716249916,
				"element": "N" 
			},
			{
				"x": 1.5116272603,
				"y": 2.4096241758,
				"z": 0.8157258319,
				"element": "C" 
			},
			{
				"x": 2.3560790049,
				"y": 1.5473969594,
				"z": 0.1269977411,
				"element": "C" 
			},
			{
				"x": 3.6761678318,
				"y": 1.7836311422,
				"z": 0.0959760663,
				"element": "F" 
			},
			{
				"x": 1.832319211,
				"y": 0.4415682726,
				"z": -0.5281848146,
				"element": "C" 
			},
			{
				"x": 1.1243393825,
				"y": -2.0589113141,
				"z": -0.3804257995,
				"element": "H" 
			},
			{
				"x": 1.9087811147,
				"y": 3.2805176082,
				"z": 1.3303893188,
				"element": "H" 
			},
			{
				"x": 2.4909371418,
				"y": -0.2195428732,
				"z": -1.0828526435,
				"element": "H" 
			}
		],
		 "valence_orbital": [ 
			{
				"type": "occ",
				"energy": -0.33157,
				"method": "rhf"
			},
			{
				"type": "occ",
				"energy": -0.32047,
				"method": "rhf"
			},
			{
				"type": "occ",
				"energy": -0.30324,
				"method": "rhf"
			},
			{
				"type": "occ",
				"energy": -0.28822,
				"method": "rhf"
			},
			{
				"type": "occ",
				"energy": -0.2738,
				"method": "rhf"
			},
			{
				"type": "unocc",
				"energy": -0.07777,
				"method": "rhf"
			},
			{
				"type": "unocc",
				"energy": -0.054,
				"method": "rhf"
			},
			{
				"type": "unocc",
				"energy": 0.00538,
				"method": "rhf"
			},
			{
				"type": "unocc",
				"energy": 0.02425,
				"method": "rhf"
			},
			{
				"type": "unocc",
				"energy": 0.05341,
				"method": "rhf"
			}
		],
		"cosmo_sigma_profile": { 
			"-0.025": 0.0,
			"-0.024": 0.0,
			"-0.023": 0.0,
			"-0.022": 0.0,
			"-0.021": 0.0,
			"-0.02": 0.197340262468,
			"-0.019": 0.964448058857,
			"-0.018": 1.235313251,
			"-0.017": 1.00411211012,
			"-0.016": 1.02025930848,
			"-0.015": 1.18673896505,
			"-0.014": 1.09322347192,
			"-0.013": 0.953758562817,
			"-0.012": 1.75050150364,
			"-0.011": 1.98076576829,
			"-0.01": 3.32290276001,
			"-0.009": 4.50127774393,
			"-0.008": 4.1419656623,
			"-0.007": 4.25312501365,
			"-0.006": 4.61700655596,
			"-0.005": 5.50105053644,
			"-0.004": 8.27958099815,
			"-0.003": 16.1319320561,
			"-0.002": 12.2207574853,
			"-0.001": 7.9715376292,
			"0.0": 8.8962802594,
			"0.001": 8.12803388327,
			"0.002": 11.3146447261,
			"0.003": 18.6540904765,
			"0.004": 8.4145208592,
			"0.005": 5.15053141358,
			"0.006": 5.55717667962,
			"0.007": 4.04117835476,
			"0.008": 4.56822285977,
			"0.009": 7.00865407973,
			"0.01": 6.58555688653,
			"0.011": 5.9146524781,
			"0.012": 1.86228816843,
			"0.013": 0.618194503199,
			"0.014": 0.043185453122,
			"0.015": 0.0,
			"0.016": 0.0,
			"0.017": 0.0,
			"0.018": 0.0,
			"0.019": 0.0,
			"0.02": 0.0,
			"0.021": 0.0,
			"0.022": 0.0,
			"0.023": 0.0,
			"0.024": 0.0,
			"0.025": 0.0
		}
	}
}
