{
	 "smiles": "CCC(Br)CBr", 
	 "Tm": 207.95, 
	 "num_atms": 14, 
	 "gaussian": { 
		 "optdone": 1, 
		 "sigma_profile": "yes", 
		 "theory": "DFT", 
		 "functional": "B3LYP", 
		 "basiset": "6-31G**", 
		 "properties": { 
			 "R2extent": 2672.9427, 
			 "electric_dipole_moment_norm": 0.699601843908, 
			 "electric_quadrupole_moment_norm": 4.5984791736, 
			 "total_energy": -5300.07346002, 
			 "HOMO_LUMO_gap": 0.24645, 
			 "cosmo_polarized_energy": -4.33, 
			 "cosmo_cavitation_energy": 20.7, 
			 "cosmo_dispersion_energy": -15.93, 
			 "cosmo_repulsion_energy": 1.36, 
			 "cosmo_total_nonelectrostatic_energy": 6.13, 
			 "SMD_solvation_energy": 1.22 
		},
		"coords": [
			{
				"x": -0.5267870846,
				"y": -0.6641051501,
				"z": 2.4009136998,
				"element": "C" 
			},
			{
				"x": -0.268924021,
				"y": -1.4806901121,
				"z": 1.1324267082,
				"element": "C" 
			},
			{
				"x": 1.1110367457,
				"y": -1.3149360904,
				"z": 0.4968923955,
				"element": "C" 
			},
			{
				"x": 2.5330505227,
				"y": -2.0703006745,
				"z": 1.7076204734,
				"element": "Br" 
			},
			{
				"x": 1.5666155033,
				"y": 0.1011938626,
				"z": 0.1952339668,
				"element": "C" 
			},
			{
				"x": 0.3771197227,
				"y": 0.947507686,
				"z": -1.1566950476,
				"element": "Br" 
			},
			{
				"x": -0.503574864,
				"y": 0.4122193947,
				"z": 2.2028714923,
				"element": "H" 
			},
			{
				"x": -1.5174107356,
				"y": -0.8983650221,
				"z": 2.8013006591,
				"element": "H" 
			},
			{
				"x": 0.2119471961,
				"y": -0.8895616767,
				"z": 3.1754279902,
				"element": "H" 
			},
			{
				"x": -0.4183426323,
				"y": -2.5461956048,
				"z": 1.33339021,
				"element": "H" 
			},
			{
				"x": -0.9972031766,
				"y": -1.2019618868,
				"z": 0.3603839204,
				"element": "H" 
			},
			{
				"x": 1.1958157749,
				"y": -1.93511544,
				"z": -0.3954985045,
				"element": "H" 
			},
			{
				"x": 1.5326760785,
				"y": 0.7480399319,
				"z": 1.069201853,
				"element": "H" 
			},
			{
				"x": 2.5600809702,
				"y": 0.1205707824,
				"z": -0.2458698168,
				"element": "H" 
			}
		],
		 "valence_orbital": [ 
			{
				"type": "occ",
				"energy": -0.33769,
				"method": "rhf"
			},
			{
				"type": "occ",
				"energy": -0.28889,
				"method": "rhf"
			},
			{
				"type": "occ",
				"energy": -0.2837,
				"method": "rhf"
			},
			{
				"type": "occ",
				"energy": -0.27985,
				"method": "rhf"
			},
			{
				"type": "occ",
				"energy": -0.2794,
				"method": "rhf"
			},
			{
				"type": "unocc",
				"energy": -0.03295,
				"method": "rhf"
			},
			{
				"type": "unocc",
				"energy": 0.01276,
				"method": "rhf"
			},
			{
				"type": "unocc",
				"energy": 0.08617,
				"method": "rhf"
			},
			{
				"type": "unocc",
				"energy": 0.10491,
				"method": "rhf"
			},
			{
				"type": "unocc",
				"energy": 0.13608,
				"method": "rhf"
			}
		],
		"cosmo_sigma_profile": { 
			"-0.025": 0.0,
			"-0.024": 0.0,
			"-0.023": 0.0,
			"-0.022": 0.0,
			"-0.021": 0.0,
			"-0.02": 0.0,
			"-0.019": 0.0,
			"-0.018": 0.0,
			"-0.017": 0.0,
			"-0.016": 0.0,
			"-0.015": 0.0,
			"-0.014": 0.0,
			"-0.013": 0.0,
			"-0.012": 0.0,
			"-0.011": 0.0,
			"-0.01": 0.0,
			"-0.009": 0.0,
			"-0.008": 1.8442698767,
			"-0.007": 6.81282220532,
			"-0.006": 5.56632101259,
			"-0.005": 6.83184243317,
			"-0.004": 10.964844349,
			"-0.003": 13.0367177262,
			"-0.002": 16.4876980537,
			"-0.001": 16.9808472606,
			"0.0": 16.2033618242,
			"0.001": 14.9775279709,
			"0.002": 9.64775592941,
			"0.003": 9.00384852652,
			"0.004": 11.8393960923,
			"0.005": 16.8468828294,
			"0.006": 11.4016634617,
			"0.007": 0.0957518662229,
			"0.008": 0.0,
			"0.009": 0.0,
			"0.01": 0.0,
			"0.011": 0.0,
			"0.012": 0.0,
			"0.013": 0.0,
			"0.014": 0.0,
			"0.015": 0.0,
			"0.016": 0.0,
			"0.017": 0.0,
			"0.018": 0.0,
			"0.019": 0.0,
			"0.02": 0.0,
			"0.021": 0.0,
			"0.022": 0.0,
			"0.023": 0.0,
			"0.024": 0.0,
			"0.025": 0.0
		}
	}
}
