{
	 "smiles": "OC(=O)CCCC1=NN=C(O1)C1=C(I)C=CC=C1", 
	 "Tm": 343.15, 
	 "num_atms": 29, 
	 "gaussian": { 
		 "optdone": 1, 
		 "sigma_profile": "yes", 
		 "theory": "DFT", 
		 "functional": "B3LYP", 
		 "basiset": "6-31G**", 
		 "properties": { 
			 "R2extent": 6552.146, 
			 "electric_dipole_moment_norm": 9.8459247783, 
			 "electric_quadrupole_moment_norm": 29.7524760796, 
			 "total_energy": -810.456210105, 
			 "HOMO_LUMO_gap": 0.17053, 
			 "cosmo_polarized_energy": -21.01, 
			 "cosmo_cavitation_energy": 36.39, 
			 "cosmo_dispersion_energy": -27.86, 
			 "cosmo_repulsion_energy": 2.14, 
			 "cosmo_total_nonelectrostatic_energy": 10.67, 
			 "SMD_solvation_energy": 5.37 
		},
		"coords": [
			{
				"x": -0.9156765676,
				"y": 4.1552082115,
				"z": -0.313841023,
				"element": "O" 
			},
			{
				"x": -1.6367116316,
				"y": 4.3676911874,
				"z": -1.429215291,
				"element": "C" 
			},
			{
				"x": -1.9014124551,
				"y": 5.486075536,
				"z": -1.8064730768,
				"element": "O" 
			},
			{
				"x": -2.101021442,
				"y": 3.1087631457,
				"z": -2.1662765162,
				"element": "C" 
			},
			{
				"x": -3.0399736248,
				"y": 2.2101959883,
				"z": -1.3133257306,
				"element": "C" 
			},
			{
				"x": -2.6533058011,
				"y": 0.7227081729,
				"z": -1.3015228735,
				"element": "C" 
			},
			{
				"x": -1.3614849952,
				"y": 0.4759029108,
				"z": -0.598828573,
				"element": "C" 
			},
			{
				"x": -0.5519804477,
				"y": 1.3356418267,
				"z": -0.0584747696,
				"element": "N" 
			},
			{
				"x": 0.5160212899,
				"y": 0.6239756286,
				"z": 0.4752649445,
				"element": "N" 
			},
			{
				"x": 0.2867009578,
				"y": -0.6282790323,
				"z": 0.2186810482,
				"element": "C" 
			},
			{
				"x": -0.8990228749,
				"y": -0.7911118629,
				"z": -0.4652518559,
				"element": "O" 
			},
			{
				"x": 1.0391260742,
				"y": -1.8367966276,
				"z": 0.5575638017,
				"element": "C" 
			},
			{
				"x": 2.3973113257,
				"y": -1.8556116887,
				"z": 0.9448021132,
				"element": "C" 
			},
			{
				"x": 3.6434141141,
				"y": -0.1469863701,
				"z": 1.0476278534,
				"element": "I" 
			},
			{
				"x": 3.0123315452,
				"y": -3.0714513879,
				"z": 1.2620515093,
				"element": "C" 
			},
			{
				"x": 2.3038977121,
				"y": -4.2696522404,
				"z": 1.1972426033,
				"element": "C" 
			},
			{
				"x": 0.9645415229,
				"y": -4.2660914543,
				"z": 0.8080917612,
				"element": "C" 
			},
			{
				"x": 0.3459309538,
				"y": -3.0636088207,
				"z": 0.493431598,
				"element": "C" 
			},
			{
				"x": -0.7347225018,
				"y": 3.195785614,
				"z": -0.1720961604,
				"element": "H" 
			},
			{
				"x": -2.5994893226,
				"y": 3.4394067612,
				"z": -3.0785008077,
				"element": "H" 
			},
			{
				"x": -1.2076337128,
				"y": 2.5474124603,
				"z": -2.4656884828,
				"element": "H" 
			},
			{
				"x": -4.0621556553,
				"y": 2.2889423986,
				"z": -1.6933582248,
				"element": "H" 
			},
			{
				"x": -3.0698656287,
				"y": 2.5679677013,
				"z": -0.2793105928,
				"element": "H" 
			},
			{
				"x": -2.5756469035,
				"y": 0.3301848084,
				"z": -2.3241826345,
				"element": "H" 
			},
			{
				"x": -3.4310419166,
				"y": 0.1279576717,
				"z": -0.8060237556,
				"element": "H" 
			},
			{
				"x": 4.0554312962,
				"y": -3.0772730074,
				"z": 1.5560835786,
				"element": "H" 
			},
			{
				"x": 2.8036684599,
				"y": -5.200247761,
				"z": 1.4483978895,
				"element": "H" 
			},
			{
				"x": 0.4027773735,
				"y": -5.1929591591,
				"z": 0.7526717072,
				"element": "H" 
			},
			{
				"x": -0.6965071441,
				"y": -3.0547506109,
				"z": 0.19665996,
				"element": "H" 
			}
		],
		 "valence_orbital": [ 
			{
				"type": "occ",
				"energy": -0.28509,
				"method": "rhf"
			},
			{
				"type": "occ",
				"energy": -0.26931,
				"method": "rhf"
			},
			{
				"type": "occ",
				"energy": -0.26232,
				"method": "rhf"
			},
			{
				"type": "occ",
				"energy": -0.25092,
				"method": "rhf"
			},
			{
				"type": "occ",
				"energy": -0.24378,
				"method": "rhf"
			},
			{
				"type": "unocc",
				"energy": -0.07325,
				"method": "rhf"
			},
			{
				"type": "unocc",
				"energy": -0.04753,
				"method": "rhf"
			},
			{
				"type": "unocc",
				"energy": -0.03675,
				"method": "rhf"
			},
			{
				"type": "unocc",
				"energy": -0.01494,
				"method": "rhf"
			},
			{
				"type": "unocc",
				"energy": 0.02893,
				"method": "rhf"
			}
		],
		"cosmo_sigma_profile": { 
			"-0.025": 0.0,
			"-0.024": 0.0,
			"-0.023": 0.0,
			"-0.022": 0.0,
			"-0.021": 0.0,
			"-0.02": 0.0,
			"-0.019": 0.0,
			"-0.018": 0.0,
			"-0.017": 0.0,
			"-0.016": 0.0,
			"-0.015": 0.0,
			"-0.014": 0.0,
			"-0.013": 0.0,
			"-0.012": 0.0,
			"-0.011": 0.0,
			"-0.01": 0.0,
			"-0.009": 0.0,
			"-0.008": 2.13480976051,
			"-0.007": 17.0567517649,
			"-0.006": 22.2243020888,
			"-0.005": 28.8033350904,
			"-0.004": 28.2437206314,
			"-0.003": 21.1840867167,
			"-0.002": 19.5247742059,
			"-0.001": 16.4699905143,
			"0.0": 18.3031788735,
			"0.001": 19.6252195055,
			"0.002": 22.1682319159,
			"0.003": 17.5092046649,
			"0.004": 12.2893002698,
			"0.005": 6.20440131907,
			"0.006": 4.80672478997,
			"0.007": 4.4648915773,
			"0.008": 3.76929994474,
			"0.009": 3.82341697539,
			"0.01": 4.7092830445,
			"0.011": 5.76468292578,
			"0.012": 8.15916079882,
			"0.013": 6.44391611027,
			"0.014": 2.14939947425,
			"0.015": 0.0993938483062,
			"0.016": 0.0,
			"0.017": 0.0,
			"0.018": 0.0,
			"0.019": 0.0,
			"0.02": 0.0,
			"0.021": 0.0,
			"0.022": 0.0,
			"0.023": 0.0,
			"0.024": 0.0,
			"0.025": 0.0
		}
	}
}
