{
	 "smiles": "OC(=O)C1=C(SC(F)F)N=CC=C1", 
	 "Tm": 459.15, 
	 "num_atms": 18, 
	 "gaussian": { 
		 "optdone": 1, 
		 "sigma_profile": "yes", 
		 "theory": "DFT", 
		 "functional": "B3LYP", 
		 "basiset": "6-31G**", 
		 "properties": { 
			 "R2extent": 2800.5529, 
			 "electric_dipole_moment_norm": 4.52793667138, 
			 "electric_quadrupole_moment_norm": 13.6774465504, 
			 "total_energy": -1072.80847161, 
			 "HOMO_LUMO_gap": 0.1959, 
			 "cosmo_polarized_energy": -11.27, 
			 "cosmo_cavitation_energy": 25.41, 
			 "cosmo_dispersion_energy": -18.83, 
			 "cosmo_repulsion_energy": 1.4, 
			 "cosmo_total_nonelectrostatic_energy": 7.99, 
			 "SMD_solvation_energy": 5.6 
		},
		"coords": [
			{
				"x": -0.9464341021,
				"y": -0.3598060817,
				"z": -2.1394511426,
				"element": "O" 
			},
			{
				"x": -0.0130067505,
				"y": 0.5940926859,
				"z": -1.9955675203,
				"element": "C" 
			},
			{
				"x": 0.4104325501,
				"y": 1.1863899772,
				"z": -2.9627954118,
				"element": "O" 
			},
			{
				"x": 0.5322464964,
				"y": 0.8941248154,
				"z": -0.6125015858,
				"element": "C" 
			},
			{
				"x": -0.000317708,
				"y": 0.5343266346,
				"z": 0.6433326392,
				"element": "C" 
			},
			{
				"x": -1.6086837797,
				"y": -0.275339572,
				"z": 0.7988565283,
				"element": "S" 
			},
			{
				"x": -1.2196806706,
				"y": -1.421429747,
				"z": 2.1893309668,
				"element": "C" 
			},
			{
				"x": -2.4076263194,
				"y": -1.8423438568,
				"z": 2.6789296687,
				"element": "F" 
			},
			{
				"x": -0.5300104763,
				"y": -2.4985790932,
				"z": 1.7490102636,
				"element": "F" 
			},
			{
				"x": 0.5972166869,
				"y": 0.8179335286,
				"z": 1.8023612838,
				"element": "N" 
			},
			{
				"x": 1.7599972627,
				"y": 1.4749946908,
				"z": 1.7834775469,
				"element": "C" 
			},
			{
				"x": 2.3592859311,
				"y": 1.9204905164,
				"z": 0.6059501287,
				"element": "C" 
			},
			{
				"x": 1.7298334004,
				"y": 1.6258208204,
				"z": -0.5957784334,
				"element": "C" 
			},
			{
				"x": -1.1875152017,
				"y": -0.7672178938,
				"z": -1.2844035037,
				"element": "H" 
			},
			{
				"x": -0.639921007,
				"y": -0.8923399052,
				"z": 2.9474809219,
				"element": "H" 
			},
			{
				"x": 2.217764706,
				"y": 1.6614008132,
				"z": 2.752450988,
				"element": "H" 
			},
			{
				"x": 3.2904236019,
				"y": 2.4758915618,
				"z": 0.6342277799,
				"element": "H" 
			},
			{
				"x": 2.1399953799,
				"y": 1.9366901055,
				"z": -1.550311118,
				"element": "H" 
			}
		],
		 "valence_orbital": [ 
			{
				"type": "occ",
				"energy": -0.32325,
				"method": "rhf"
			},
			{
				"type": "occ",
				"energy": -0.30805,
				"method": "rhf"
			},
			{
				"type": "occ",
				"energy": -0.29934,
				"method": "rhf"
			},
			{
				"type": "occ",
				"energy": -0.27927,
				"method": "rhf"
			},
			{
				"type": "occ",
				"energy": -0.26957,
				"method": "rhf"
			},
			{
				"type": "unocc",
				"energy": -0.07367,
				"method": "rhf"
			},
			{
				"type": "unocc",
				"energy": -0.06072,
				"method": "rhf"
			},
			{
				"type": "unocc",
				"energy": -0.0069,
				"method": "rhf"
			},
			{
				"type": "unocc",
				"energy": 0.02877,
				"method": "rhf"
			},
			{
				"type": "unocc",
				"energy": 0.04439,
				"method": "rhf"
			}
		],
		"cosmo_sigma_profile": { 
			"-0.025": 0.0,
			"-0.024": 0.0,
			"-0.023": 0.0,
			"-0.022": 0.0,
			"-0.021": 0.0,
			"-0.02": 0.0,
			"-0.019": 0.0,
			"-0.018": 0.0,
			"-0.017": 0.0,
			"-0.016": 0.0,
			"-0.015": 0.0,
			"-0.014": 0.0,
			"-0.013": 0.015811452524,
			"-0.012": 0.215290535627,
			"-0.011": 1.02938118388,
			"-0.01": 1.39910906431,
			"-0.009": 3.42380424302,
			"-0.008": 8.28451851303,
			"-0.007": 9.59598889909,
			"-0.006": 8.49330704904,
			"-0.005": 8.97294096202,
			"-0.004": 10.7271270112,
			"-0.003": 10.5567571504,
			"-0.002": 18.1293088122,
			"-0.001": 18.6222380332,
			"0.0": 18.0507258236,
			"0.001": 12.6252105382,
			"0.002": 13.5805834208,
			"0.003": 23.9098568754,
			"0.004": 8.32477317417,
			"0.005": 4.10349561248,
			"0.006": 2.29099906883,
			"0.007": 3.1594908409,
			"0.008": 3.49735350809,
			"0.009": 4.39609241148,
			"0.01": 4.80042200254,
			"0.011": 5.19789780573,
			"0.012": 2.8259694294,
			"0.013": 0.685030678025,
			"0.014": 0.0,
			"0.015": 0.0,
			"0.016": 0.0,
			"0.017": 0.0,
			"0.018": 0.0,
			"0.019": 0.0,
			"0.02": 0.0,
			"0.021": 0.0,
			"0.022": 0.0,
			"0.023": 0.0,
			"0.024": 0.0,
			"0.025": 0.0
		}
	}
}
