{
	 "smiles": "COC(=O)C=CC1=CC=C(O)C(OC)=C1", 
	 "Tm": 337.15, 
	 "num_atms": 27, 
	 "gaussian": { 
		 "optdone": 1, 
		 "sigma_profile": "yes", 
		 "theory": "DFT", 
		 "functional": "B3LYP", 
		 "basiset": "6-31G**", 
		 "properties": { 
			 "R2extent": 5444.9686, 
			 "electric_dipole_moment_norm": 4.07814250609, 
			 "electric_quadrupole_moment_norm": 7.84609328966, 
			 "total_energy": -727.281922708, 
			 "HOMO_LUMO_gap": 0.15252, 
			 "cosmo_polarized_energy": -13.02, 
			 "cosmo_cavitation_energy": 32.07, 
			 "cosmo_dispersion_energy": -23.3, 
			 "cosmo_repulsion_energy": 1.83, 
			 "cosmo_total_nonelectrostatic_energy": 10.6, 
			 "SMD_solvation_energy": 8.25 
		},
		"coords": [
			{
				"x": 4.9240125546,
				"y": 1.2738735805,
				"z": -4.1361792233,
				"element": "C" 
			},
			{
				"x": 4.1247427988,
				"y": 1.1321993185,
				"z": -2.9551528202,
				"element": "O" 
			},
			{
				"x": 2.9335505438,
				"y": 0.5024357845,
				"z": -3.1392612157,
				"element": "C" 
			},
			{
				"x": 2.5650350053,
				"y": 0.0863732905,
				"z": -4.2231651156,
				"element": "O" 
			},
			{
				"x": 2.1925989645,
				"y": 0.4085385495,
				"z": -1.8701496012,
				"element": "C" 
			},
			{
				"x": 0.9822098127,
				"y": -0.1840189798,
				"z": -1.8365157509,
				"element": "C" 
			},
			{
				"x": 0.1023570843,
				"y": -0.373080251,
				"z": -0.690376781,
				"element": "C" 
			},
			{
				"x": -1.1274907817,
				"y": -1.0227194265,
				"z": -0.8795203954,
				"element": "C" 
			},
			{
				"x": -2.0097598783,
				"y": -1.2315559948,
				"z": 0.1798316033,
				"element": "C" 
			},
			{
				"x": -1.6747661416,
				"y": -0.7911266874,
				"z": 1.4555016578,
				"element": "C" 
			},
			{
				"x": -2.522093775,
				"y": -0.9868724047,
				"z": 2.4958523042,
				"element": "O" 
			},
			{
				"x": -0.4381858014,
				"y": -0.1339495332,
				"z": 1.66427999,
				"element": "C" 
			},
			{
				"x": -0.2407230854,
				"y": 0.2449893487,
				"z": 2.9692298431,
				"element": "O" 
			},
			{
				"x": 0.9690247234,
				"y": 0.9120969621,
				"z": 3.3006858661,
				"element": "C" 
			},
			{
				"x": 0.4358297659,
				"y": 0.0720342343,
				"z": 0.6107180381,
				"element": "C" 
			},
			{
				"x": 4.3956161934,
				"y": 1.8573667222,
				"z": -4.8950676402,
				"element": "H" 
			},
			{
				"x": 5.1691086451,
				"y": 0.2957216624,
				"z": -4.5589361554,
				"element": "H" 
			},
			{
				"x": 5.8307411831,
				"y": 1.7909043017,
				"z": -3.8206288244,
				"element": "H" 
			},
			{
				"x": 2.6724832776,
				"y": 0.8347677261,
				"z": -0.9953298864,
				"element": "H" 
			},
			{
				"x": 0.614321043,
				"y": -0.5706922972,
				"z": -2.7858899386,
				"element": "H" 
			},
			{
				"x": -1.3954698523,
				"y": -1.3693047796,
				"z": -1.873255202,
				"element": "H" 
			},
			{
				"x": -2.9604498816,
				"y": -1.733432468,
				"z": 0.0352884143,
				"element": "H" 
			},
			{
				"x": -2.1001236654,
				"y": -0.6086696963,
				"z": 3.283462645,
				"element": "H" 
			},
			{
				"x": 1.0648013515,
				"y": 1.8574417267,
				"z": 2.752669971,
				"element": "H" 
			},
			{
				"x": 1.8414317447,
				"y": 0.2814351735,
				"z": 3.0901246971,
				"element": "H" 
			},
			{
				"x": 0.9202776959,
				"y": 1.1172467938,
				"z": 4.370840664,
				"element": "H" 
			},
			{
				"x": 1.3798204751,
				"y": 0.5756973434,
				"z": 0.7793428564,
				"element": "H" 
			}
		],
		 "valence_orbital": [ 
			{
				"type": "occ",
				"energy": -0.29002,
				"method": "rhf"
			},
			{
				"type": "occ",
				"energy": -0.27885,
				"method": "rhf"
			},
			{
				"type": "occ",
				"energy": -0.26207,
				"method": "rhf"
			},
			{
				"type": "occ",
				"energy": -0.24499,
				"method": "rhf"
			},
			{
				"type": "occ",
				"energy": -0.20806,
				"method": "rhf"
			},
			{
				"type": "unocc",
				"energy": -0.05554,
				"method": "rhf"
			},
			{
				"type": "unocc",
				"energy": 0.0002,
				"method": "rhf"
			},
			{
				"type": "unocc",
				"energy": 0.03384,
				"method": "rhf"
			},
			{
				"type": "unocc",
				"energy": 0.06962,
				"method": "rhf"
			},
			{
				"type": "unocc",
				"energy": 0.08404,
				"method": "rhf"
			}
		],
		"cosmo_sigma_profile": { 
			"-0.025": 0.0,
			"-0.024": 0.0,
			"-0.023": 0.0,
			"-0.022": 0.0,
			"-0.021": 0.0,
			"-0.02": 0.0,
			"-0.019": 0.0,
			"-0.018": 0.0,
			"-0.017": 0.0,
			"-0.016": 0.0,
			"-0.015": 0.121661635431,
			"-0.014": 0.552232836699,
			"-0.013": 0.865660535076,
			"-0.012": 0.475944359794,
			"-0.011": 0.231459800151,
			"-0.01": 0.964610032354,
			"-0.009": 0.974426945875,
			"-0.008": 2.27710504652,
			"-0.007": 6.86209296134,
			"-0.006": 18.0102295599,
			"-0.005": 20.5777365855,
			"-0.004": 23.8026978818,
			"-0.003": 21.8005823284,
			"-0.002": 14.915962245,
			"-0.001": 12.1394671002,
			"0.0": 15.1271544264,
			"0.001": 17.5445623556,
			"0.002": 18.494415426,
			"0.003": 22.1209511149,
			"0.004": 18.6539987342,
			"0.005": 7.60467487094,
			"0.006": 4.45840944216,
			"0.007": 3.53487674041,
			"0.008": 4.89818048312,
			"0.009": 3.46515040879,
			"0.01": 3.78695459987,
			"0.011": 3.66711867505,
			"0.012": 3.9715892655,
			"0.013": 3.28922793104,
			"0.014": 0.0,
			"0.015": 0.0,
			"0.016": 0.0,
			"0.017": 0.0,
			"0.018": 0.0,
			"0.019": 0.0,
			"0.02": 0.0,
			"0.021": 0.0,
			"0.022": 0.0,
			"0.023": 0.0,
			"0.024": 0.0,
			"0.025": 0.0
		}
	}
}
