{
	 "smiles": "CC1=C(Cl)C=NN1", 
	 "Tm": 338.15, 
	 "num_atms": 12, 
	 "gaussian": { 
		 "optdone": 1, 
		 "sigma_profile": "yes", 
		 "theory": "DFT", 
		 "functional": "B3LYP", 
		 "basiset": "6-31G**", 
		 "properties": { 
			 "R2extent": 1996.1728, 
			 "electric_dipole_moment_norm": 2.99963229913, 
			 "electric_quadrupole_moment_norm": 6.19738716396, 
			 "total_energy": -725.111961813, 
			 "HOMO_LUMO_gap": 0.24798, 
			 "cosmo_polarized_energy": -9.28, 
			 "cosmo_cavitation_energy": 17.81, 
			 "cosmo_dispersion_energy": -13.49, 
			 "cosmo_repulsion_energy": 1.15, 
			 "cosmo_total_nonelectrostatic_energy": 5.47, 
			 "SMD_solvation_energy": 2.26 
		},
		"coords": [
			{
				"x": -1.1119712648,
				"y": 0.284135227,
				"z": -0.9357669095,
				"element": "C" 
			},
			{
				"x": -0.0053517411,
				"y": 1.2601324875,
				"z": -1.1646948479,
				"element": "C" 
			},
			{
				"x": 1.0432613906,
				"y": 1.277074959,
				"z": -2.0711335971,
				"element": "C" 
			},
			{
				"x": 1.3690846286,
				"y": 0.0686815504,
				"z": -3.2746523711,
				"element": "Cl" 
			},
			{
				"x": 1.7730387044,
				"y": 2.4570633298,
				"z": -1.814739735,
				"element": "C" 
			},
			{
				"x": 1.2276749171,
				"y": 3.1446099032,
				"z": -0.8143565789,
				"element": "N" 
			},
			{
				"x": 0.1614491259,
				"y": 2.4024516215,
				"z": -0.4432852539,
				"element": "N" 
			},
			{
				"x": -1.7619808941,
				"y": 0.6096223449,
				"z": -0.1182903597,
				"element": "H" 
			},
			{
				"x": -0.7186049405,
				"y": -0.705390893,
				"z": -0.6813462007,
				"element": "H" 
			},
			{
				"x": -1.7287715993,
				"y": 0.1697861006,
				"z": -1.8330485629,
				"element": "H" 
			},
			{
				"x": 2.6592187349,
				"y": 2.8191351096,
				"z": -2.3166795701,
				"element": "H" 
			},
			{
				"x": -0.4197470619,
				"y": 2.7284982595,
				"z": 0.3139939867,
				"element": "H" 
			}
		],
		 "valence_orbital": [ 
			{
				"type": "occ",
				"energy": -0.35035,
				"method": "rhf"
			},
			{
				"type": "occ",
				"energy": -0.32232,
				"method": "rhf"
			},
			{
				"type": "occ",
				"energy": -0.28737,
				"method": "rhf"
			},
			{
				"type": "occ",
				"energy": -0.26016,
				"method": "rhf"
			},
			{
				"type": "occ",
				"energy": -0.23353,
				"method": "rhf"
			},
			{
				"type": "unocc",
				"energy": 0.01445,
				"method": "rhf"
			},
			{
				"type": "unocc",
				"energy": 0.04022,
				"method": "rhf"
			},
			{
				"type": "unocc",
				"energy": 0.06017,
				"method": "rhf"
			},
			{
				"type": "unocc",
				"energy": 0.07841,
				"method": "rhf"
			},
			{
				"type": "unocc",
				"energy": 0.115,
				"method": "rhf"
			}
		],
		"cosmo_sigma_profile": { 
			"-0.025": 0.0,
			"-0.024": 0.0,
			"-0.023": 0.0,
			"-0.022": 0.0,
			"-0.021": 0.0,
			"-0.02": 0.0,
			"-0.019": 0.0,
			"-0.018": 0.0,
			"-0.017": 0.45625897996,
			"-0.016": 1.6556912894,
			"-0.015": 1.13933178483,
			"-0.014": 0.849018842446,
			"-0.013": 1.64478377701,
			"-0.012": 0.95233638369,
			"-0.011": 1.31567800269,
			"-0.01": 1.25433589833,
			"-0.009": 0.769741723091,
			"-0.008": 2.23334605677,
			"-0.007": 3.17776029734,
			"-0.006": 4.92395497995,
			"-0.005": 7.04926301687,
			"-0.004": 7.95079638723,
			"-0.003": 7.89607822838,
			"-0.002": 12.6102647265,
			"-0.001": 10.5646306778,
			"0.0": 8.20066929356,
			"0.001": 6.94050634918,
			"0.002": 9.73621735015,
			"0.003": 13.7925673729,
			"0.004": 14.2072408839,
			"0.005": 10.4151822438,
			"0.006": 2.42297951816,
			"0.007": 1.63374184566,
			"0.008": 1.46902989514,
			"0.009": 1.11563715793,
			"0.01": 1.35441444913,
			"0.011": 1.4204504424,
			"0.012": 1.25737495448,
			"0.013": 0.991450319089,
			"0.014": 1.47129096972,
			"0.015": 0.955742717422,
			"0.016": 0.454933565138,
			"0.017": 0.0,
			"0.018": 0.0,
			"0.019": 0.0,
			"0.02": 0.0,
			"0.021": 0.0,
			"0.022": 0.0,
			"0.023": 0.0,
			"0.024": 0.0,
			"0.025": 0.0
		}
	}
}
