{
	 "smiles": "CCC1=NC2=C(C=CS2)C(=O)N1", 
	 "Tm": 473.15, 
	 "num_atms": 20, 
	 "gaussian": { 
		 "optdone": 1, 
		 "sigma_profile": "yes", 
		 "theory": "DFT", 
		 "functional": "B3LYP", 
		 "basiset": "6-31G**", 
		 "properties": { 
			 "R2extent": 3615.4133, 
			 "electric_dipole_moment_norm": 2.32660724017, 
			 "electric_quadrupole_moment_norm": 14.9619459797, 
			 "total_energy": -892.611914285, 
			 "HOMO_LUMO_gap": 0.17707, 
			 "cosmo_polarized_energy": -13.14, 
			 "cosmo_cavitation_energy": 25.83, 
			 "cosmo_dispersion_energy": -19.62, 
			 "cosmo_repulsion_energy": 1.52, 
			 "cosmo_total_nonelectrostatic_energy": 7.74, 
			 "SMD_solvation_energy": 3.31 
		},
		"coords": [
			{
				"x": 0.207040578,
				"y": 1.5850823731,
				"z": -2.4980478588,
				"element": "C" 
			},
			{
				"x": 1.1359100642,
				"y": 0.8528829442,
				"z": -1.5115272499,
				"element": "C" 
			},
			{
				"x": 0.5134073248,
				"y": -0.391764188,
				"z": -0.9334007447,
				"element": "C" 
			},
			{
				"x": 0.8794396971,
				"y": -1.5699415666,
				"z": -1.3615839295,
				"element": "N" 
			},
			{
				"x": 0.224991179,
				"y": -2.6215033858,
				"z": -0.7915192104,
				"element": "C" 
			},
			{
				"x": -0.7725909116,
				"y": -2.5597002981,
				"z": 0.1793288481,
				"element": "C" 
			},
			{
				"x": -1.2578614637,
				"y": -3.8439667802,
				"z": 0.5736325449,
				"element": "C" 
			},
			{
				"x": -0.6325636512,
				"y": -4.8549976762,
				"z": -0.0933096287,
				"element": "C" 
			},
			{
				"x": 0.5701120384,
				"y": -4.279536264,
				"z": -1.2247047496,
				"element": "S" 
			},
			{
				"x": -1.1865616787,
				"y": -1.2569935267,
				"z": 0.6623669853,
				"element": "C" 
			},
			{
				"x": -2.0339951563,
				"y": -0.9926523869,
				"z": 1.5032612967,
				"element": "O" 
			},
			{
				"x": -0.4582143258,
				"y": -0.2231517816,
				"z": 0.0222529417,
				"element": "N" 
			},
			{
				"x": -0.7195179816,
				"y": 1.9153275393,
				"z": -2.0169569743,
				"element": "H" 
			},
			{
				"x": -0.0612033958,
				"y": 0.9315256994,
				"z": -3.332917974,
				"element": "H" 
			},
			{
				"x": 0.7066939177,
				"y": 2.4696714117,
				"z": -2.9031767271,
				"element": "H" 
			},
			{
				"x": 1.4218695157,
				"y": 1.5300265131,
				"z": -0.6962252424,
				"element": "H" 
			},
			{
				"x": 2.0516009363,
				"y": 0.5413397373,
				"z": -2.0183545992,
				"element": "H" 
			},
			{
				"x": -2.0326360652,
				"y": -3.9850495064,
				"z": 1.3168700814,
				"element": "H" 
			},
			{
				"x": -0.7996210766,
				"y": -5.9187958718,
				"z": 0.0044465329,
				"element": "H" 
			},
			{
				"x": -0.7063995444,
				"y": 0.7104970143,
				"z": 0.3282656574,
				"element": "H" 
			}
		],
		 "valence_orbital": [ 
			{
				"type": "occ",
				"energy": -0.29463,
				"method": "rhf"
			},
			{
				"type": "occ",
				"energy": -0.28585,
				"method": "rhf"
			},
			{
				"type": "occ",
				"energy": -0.26159,
				"method": "rhf"
			},
			{
				"type": "occ",
				"energy": -0.26013,
				"method": "rhf"
			},
			{
				"type": "occ",
				"energy": -0.22119,
				"method": "rhf"
			},
			{
				"type": "unocc",
				"energy": -0.04412,
				"method": "rhf"
			},
			{
				"type": "unocc",
				"energy": -0.00691,
				"method": "rhf"
			},
			{
				"type": "unocc",
				"energy": 0.0218,
				"method": "rhf"
			},
			{
				"type": "unocc",
				"energy": 0.02561,
				"method": "rhf"
			},
			{
				"type": "unocc",
				"energy": 0.06443,
				"method": "rhf"
			}
		],
		"cosmo_sigma_profile": { 
			"-0.025": 0.0,
			"-0.024": 0.0,
			"-0.023": 0.0,
			"-0.022": 0.0,
			"-0.021": 0.0,
			"-0.02": 0.0,
			"-0.019": 0.0,
			"-0.018": 0.0,
			"-0.017": 0.0,
			"-0.016": 0.428700297607,
			"-0.015": 0.850608039078,
			"-0.014": 1.03296879701,
			"-0.013": 1.7251992375,
			"-0.012": 0.894787850476,
			"-0.011": 1.36280155837,
			"-0.01": 1.5301775532,
			"-0.009": 2.97426798082,
			"-0.008": 3.39812083446,
			"-0.007": 5.33287328138,
			"-0.006": 6.95863369031,
			"-0.005": 7.93696197436,
			"-0.004": 12.5023777298,
			"-0.003": 16.7878415906,
			"-0.002": 22.1301920973,
			"-0.001": 17.3574294436,
			"0.0": 17.3295490679,
			"0.001": 18.4930770062,
			"0.002": 16.1162373711,
			"0.003": 13.4196066126,
			"0.004": 9.33082640145,
			"0.005": 3.55993457923,
			"0.006": 2.20055260298,
			"0.007": 2.82960951413,
			"0.008": 1.89615291913,
			"0.009": 2.71474393549,
			"0.01": 2.43958778834,
			"0.011": 2.04654777763,
			"0.012": 3.54959944263,
			"0.013": 7.07808526346,
			"0.014": 2.16090035794,
			"0.015": 0.0040565939461,
			"0.016": 0.0,
			"0.017": 0.0,
			"0.018": 0.0,
			"0.019": 0.0,
			"0.02": 0.0,
			"0.021": 0.0,
			"0.022": 0.0,
			"0.023": 0.0,
			"0.024": 0.0,
			"0.025": 0.0
		}
	}
}
