{
	 "smiles": "CC(C)CCNC(=O)CC(=O)NCCC(C)C", 
	 "Tm": 343.15, 
	 "num_atms": 43, 
	 "gaussian": { 
		 "optdone": 1, 
		 "sigma_profile": "yes", 
		 "theory": "DFT", 
		 "functional": "B3LYP", 
		 "basiset": "6-31G**", 
		 "properties": { 
			 "R2extent": 9464.3549, 
			 "electric_dipole_moment_norm": 3.84734817894, 
			 "electric_quadrupole_moment_norm": 15.5447192905, 
			 "total_energy": -771.068954744, 
			 "HOMO_LUMO_gap": 0.24585, 
			 "cosmo_polarized_energy": -14.98, 
			 "cosmo_cavitation_energy": 44.0, 
			 "cosmo_dispersion_energy": -30.43, 
			 "cosmo_repulsion_energy": 2.45, 
			 "cosmo_total_nonelectrostatic_energy": 16.03, 
			 "SMD_solvation_energy": 7.08 
		},
		"coords": [
			{
				"x": -2.2261631805,
				"y": -4.6831120296,
				"z": -2.1730503401,
				"element": "C" 
			},
			{
				"x": -1.9605511773,
				"y": -3.8249194886,
				"z": -3.4203715252,
				"element": "C" 
			},
			{
				"x": -0.6630318518,
				"y": -4.2519394402,
				"z": -4.1252520033,
				"element": "C" 
			},
			{
				"x": -2.0048259233,
				"y": -2.3100881472,
				"z": -3.1211335748,
				"element": "C" 
			},
			{
				"x": -0.931434413,
				"y": -1.7945300573,
				"z": -2.1555713284,
				"element": "C" 
			},
			{
				"x": -1.1011973011,
				"y": -0.3539680892,
				"z": -1.9624157517,
				"element": "N" 
			},
			{
				"x": -0.3649062677,
				"y": 0.5005154127,
				"z": -1.2028372918,
				"element": "C" 
			},
			{
				"x": -0.6563042838,
				"y": 1.6998375222,
				"z": -1.1448353127,
				"element": "O" 
			},
			{
				"x": 0.835684102,
				"y": -0.0661823162,
				"z": -0.4570515435,
				"element": "C" 
			},
			{
				"x": 0.9456968427,
				"y": 0.3062952133,
				"z": 1.0373916582,
				"element": "C" 
			},
			{
				"x": 1.406032009,
				"y": -0.506983866,
				"z": 1.8327262807,
				"element": "O" 
			},
			{
				"x": 0.5593300223,
				"y": 1.5666114162,
				"z": 1.3497414838,
				"element": "N" 
			},
			{
				"x": 0.6307895382,
				"y": 2.0973931652,
				"z": 2.7035228694,
				"element": "C" 
			},
			{
				"x": 1.6608667113,
				"y": 3.2321586614,
				"z": 2.8232841373,
				"element": "C" 
			},
			{
				"x": 1.7828406926,
				"y": 3.8782709499,
				"z": 4.2215338756,
				"element": "C" 
			},
			{
				"x": 0.4987769333,
				"y": 4.6057403876,
				"z": 4.6530772635,
				"element": "C" 
			},
			{
				"x": 2.2406853884,
				"y": 2.8769866966,
				"z": 5.2942920145,
				"element": "C" 
			},
			{
				"x": -3.1536435725,
				"y": -4.3856322951,
				"z": -1.6714445246,
				"element": "H" 
			},
			{
				"x": -2.3184533666,
				"y": -5.7399430513,
				"z": -2.4441876761,
				"element": "H" 
			},
			{
				"x": -1.411905801,
				"y": -4.6068003215,
				"z": -1.4437724743,
				"element": "H" 
			},
			{
				"x": -2.7861260938,
				"y": -4.0083550092,
				"z": -4.1221155891,
				"element": "H" 
			},
			{
				"x": 0.207662905,
				"y": -4.1628318545,
				"z": -3.4658321598,
				"element": "H" 
			},
			{
				"x": -0.4719158987,
				"y": -3.6447291906,
				"z": -5.0170449767,
				"element": "H" 
			},
			{
				"x": -0.7219834971,
				"y": -5.2985729734,
				"z": -4.4414084261,
				"element": "H" 
			},
			{
				"x": -2.9909995756,
				"y": -2.0608645294,
				"z": -2.7061308372,
				"element": "H" 
			},
			{
				"x": -1.9122452271,
				"y": -1.758985863,
				"z": -4.0668651554,
				"element": "H" 
			},
			{
				"x": -1.0107258306,
				"y": -2.3139185531,
				"z": -1.1934136098,
				"element": "H" 
			},
			{
				"x": 0.0661544408,
				"y": -2.0025694946,
				"z": -2.5596907802,
				"element": "H" 
			},
			{
				"x": -1.8727649052,
				"y": 0.0993253352,
				"z": -2.4361309908,
				"element": "H" 
			},
			{
				"x": 1.7287193047,
				"y": 0.3347570617,
				"z": -0.9541055396,
				"element": "H" 
			},
			{
				"x": 0.8997992844,
				"y": -1.1522342328,
				"z": -0.5023310861,
				"element": "H" 
			},
			{
				"x": 0.135012712,
				"y": 2.1068224843,
				"z": 0.5992608555,
				"element": "H" 
			},
			{
				"x": 0.8967722936,
				"y": 1.2583821035,
				"z": 3.3495980677,
				"element": "H" 
			},
			{
				"x": -0.3653134847,
				"y": 2.4481650901,
				"z": 2.9997085543,
				"element": "H" 
			},
			{
				"x": 1.4100491659,
				"y": 4.0142217542,
				"z": 2.0932606537,
				"element": "H" 
			},
			{
				"x": 2.638619713,
				"y": 2.8333397902,
				"z": 2.5250088116,
				"element": "H" 
			},
			{
				"x": 2.5701054536,
				"y": 4.6405507606,
				"z": 4.1315975088,
				"element": "H" 
			},
			{
				"x": 0.6583292603,
				"y": 5.1549814244,
				"z": 5.5873920453,
				"element": "H" 
			},
			{
				"x": 0.1726897164,
				"y": 5.3262020623,
				"z": 3.8944388188,
				"element": "H" 
			},
			{
				"x": -0.326931823,
				"y": 3.9064167845,
				"z": 4.8262357912,
				"element": "H" 
			},
			{
				"x": 1.4797138608,
				"y": 2.1126151581,
				"z": 5.4870195653,
				"element": "H" 
			},
			{
				"x": 2.4376291211,
				"y": 3.3866882223,
				"z": 6.2437838506,
				"element": "H" 
			},
			{
				"x": 3.1593640031,
				"y": 2.3615833462,
				"z": 4.9936183914,
				"element": "H" 
			}
		],
		 "valence_orbital": [ 
			{
				"type": "occ",
				"energy": -0.31336,
				"method": "rhf"
			},
			{
				"type": "occ",
				"energy": -0.2607,
				"method": "rhf"
			},
			{
				"type": "occ",
				"energy": -0.25845,
				"method": "rhf"
			},
			{
				"type": "occ",
				"energy": -0.23557,
				"method": "rhf"
			},
			{
				"type": "occ",
				"energy": -0.23304,
				"method": "rhf"
			},
			{
				"type": "unocc",
				"energy": 0.01281,
				"method": "rhf"
			},
			{
				"type": "unocc",
				"energy": 0.04516,
				"method": "rhf"
			},
			{
				"type": "unocc",
				"energy": 0.06397,
				"method": "rhf"
			},
			{
				"type": "unocc",
				"energy": 0.08469,
				"method": "rhf"
			},
			{
				"type": "unocc",
				"energy": 0.08882,
				"method": "rhf"
			}
		],
		"cosmo_sigma_profile": { 
			"-0.025": 0.0,
			"-0.024": 0.0,
			"-0.023": 0.0,
			"-0.022": 0.0,
			"-0.021": 0.0,
			"-0.02": 0.0,
			"-0.019": 0.0,
			"-0.018": 0.0,
			"-0.017": 0.0,
			"-0.016": 0.0,
			"-0.015": 0.0,
			"-0.014": 0.0,
			"-0.013": 0.435557259411,
			"-0.012": 1.05836098638,
			"-0.011": 0.797803063002,
			"-0.01": 0.82861370633,
			"-0.009": 0.705405171944,
			"-0.008": 2.20119168719,
			"-0.007": 4.49063220865,
			"-0.006": 6.91015231966,
			"-0.005": 11.3638510463,
			"-0.004": 18.7179665143,
			"-0.003": 35.9784359877,
			"-0.002": 53.0170936637,
			"-0.001": 51.3027430763,
			"0.0": 42.8525393986,
			"0.001": 38.9715523908,
			"0.002": 22.7577864118,
			"0.003": 6.22976179199,
			"0.004": 3.47687144773,
			"0.005": 3.10004066927,
			"0.006": 2.14808283694,
			"0.007": 2.05513762242,
			"0.008": 3.33836121777,
			"0.009": 1.90684453887,
			"0.01": 2.82735830909,
			"0.011": 3.12008517599,
			"0.012": 3.32117174956,
			"0.013": 5.18611390302,
			"0.014": 7.45380018734,
			"0.015": 3.06320624929,
			"0.016": 0.174243626708,
			"0.017": 0.0,
			"0.018": 0.0,
			"0.019": 0.0,
			"0.02": 0.0,
			"0.021": 0.0,
			"0.022": 0.0,
			"0.023": 0.0,
			"0.024": 0.0,
			"0.0": 0.0
		}
	}
}
