{
	 "smiles": "CC1=CC(C(=O)CC#N)=C(C)N1CC(F)(F)F", 
	 "Tm": 424.15, 
	 "num_atms": 28, 
	 "gaussian": { 
		 "optdone": 1, 
		 "sigma_profile": "yes", 
		 "theory": "DFT", 
		 "functional": "B3LYP", 
		 "basiset": "6-31G**", 
		 "properties": { 
			 "R2extent": 4741.6462, 
			 "electric_dipole_moment_norm": 5.95100100907, 
			 "electric_quadrupole_moment_norm": 10.011608186, 
			 "total_energy": -910.04237133, 
			 "HOMO_LUMO_gap": 0.17543, 
			 "cosmo_polarized_energy": -16.39, 
			 "cosmo_cavitation_energy": 33.41, 
			 "cosmo_dispersion_energy": -22.56, 
			 "cosmo_repulsion_energy": 1.69, 
			 "cosmo_total_nonelectrostatic_energy": 12.55, 
			 "SMD_solvation_energy": 8.54 
		},
		"coords": [
			{
				"x": 0.5625761254,
				"y": -2.0819978183,
				"z": -2.7369018221,
				"element": "C" 
			},
			{
				"x": 0.1575107738,
				"y": -1.3487222208,
				"z": -1.4987159022,
				"element": "C" 
			},
			{
				"x": -1.0624531057,
				"y": -0.8559548559,
				"z": -1.1294914076,
				"element": "C" 
			},
			{
				"x": -0.9353586457,
				"y": -0.2627310396,
				"z": 0.1733360703,
				"element": "C" 
			},
			{
				"x": -1.989079991,
				"y": 0.3663177534,
				"z": 0.963545343,
				"element": "C" 
			},
			{
				"x": -1.8453941142,
				"y": 0.8215871583,
				"z": 2.0908099889,
				"element": "O" 
			},
			{
				"x": -3.4154564768,
				"y": 0.4187242907,
				"z": 0.3455550148,
				"element": "C" 
			},
			{
				"x": -3.509634483,
				"y": 1.1983528025,
				"z": -0.8874290004,
				"element": "C" 
			},
			{
				"x": -3.5797519843,
				"y": 1.8198440017,
				"z": -1.8657027271,
				"element": "N" 
			},
			{
				"x": 0.3952362993,
				"y": -0.4164465917,
				"z": 0.5706917776,
				"element": "C" 
			},
			{
				"x": 1.0762193495,
				"y": -0.0180915682,
				"z": 1.8401687813,
				"element": "C" 
			},
			{
				"x": 1.0471757332,
				"y": -1.0733290293,
				"z": -0.4495677608,
				"element": "N" 
			},
			{
				"x": 2.4541771117,
				"y": -1.4085273245,
				"z": -0.45211936,
				"element": "C" 
			},
			{
				"x": 3.3477425041,
				"y": -0.3269848556,
				"z": -1.0566156779,
				"element": "C" 
			},
			{
				"x": 4.632045532,
				"y": -0.7359301899,
				"z": -1.0050781312,
				"element": "F" 
			},
			{
				"x": 3.2553173625,
				"y": 0.8386410538,
				"z": -0.3883013608,
				"element": "F" 
			},
			{
				"x": 3.0433324541,
				"y": -0.0788425671,
				"z": -2.3456874266,
				"element": "F" 
			},
			{
				"x": 0.8923905446,
				"y": -3.1081602323,
				"z": -2.5258939291,
				"element": "H" 
			},
			{
				"x": -0.2968767938,
				"y": -2.1491515718,
				"z": -3.4072525725,
				"element": "H" 
			},
			{
				"x": 1.3701139556,
				"y": -1.5765344447,
				"z": -3.2748753413,
				"element": "H" 
			},
			{
				"x": -1.9534435452,
				"y": -0.9016229161,
				"z": -1.7387392046,
				"element": "H" 
			},
			{
				"x": -4.0679081273,
				"y": 0.8567104277,
				"z": 1.1051554787,
				"element": "H" 
			},
			{
				"x": -3.7616795535,
				"y": -0.6023410266,
				"z": 0.1430272893,
				"element": "H" 
			},
			{
				"x": 1.441686613,
				"y": -0.8940428654,
				"z": 2.3932677793,
				"element": "H" 
			},
			{
				"x": 1.9314737996,
				"y": 0.63766921,
				"z": 1.6516923507,
				"element": "H" 
			},
			{
				"x": 0.3578561861,
				"y": 0.5035213985,
				"z": 2.4703798173,
				"element": "H" 
			},
			{
				"x": 2.6184195885,
				"y": -2.3243077787,
				"z": -1.0234738925,
				"element": "H" 
			},
			{
				"x": 2.7992628876,
				"y": -1.5832491998,
				"z": 0.5686158254,
				"element": "H" 
			}
		],
		 "valence_orbital": [ 
			{
				"type": "occ",
				"energy": -0.33137,
				"method": "rhf"
			},
			{
				"type": "occ",
				"energy": -0.32248,
				"method": "rhf"
			},
			{
				"type": "occ",
				"energy": -0.26305,
				"method": "rhf"
			},
			{
				"type": "occ",
				"energy": -0.25504,
				"method": "rhf"
			},
			{
				"type": "occ",
				"energy": -0.22293,
				"method": "rhf"
			},
			{
				"type": "unocc",
				"energy": -0.0475,
				"method": "rhf"
			},
			{
				"type": "unocc",
				"energy": 0.01687,
				"method": "rhf"
			},
			{
				"type": "unocc",
				"energy": 0.03761,
				"method": "rhf"
			},
			{
				"type": "unocc",
				"energy": 0.04178,
				"method": "rhf"
			},
			{
				"type": "unocc",
				"energy": 0.0678,
				"method": "rhf"
			}
		],
		"cosmo_sigma_profile": { 
			"-0.025": 0.0,
			"-0.024": 0.0,
			"-0.023": 0.0,
			"-0.022": 0.0,
			"-0.021": 0.0,
			"-0.02": 0.0,
			"-0.019": 0.0,
			"-0.018": 0.0,
			"-0.017": 0.0,
			"-0.016": 0.0,
			"-0.015": 0.0,
			"-0.014": 0.0,
			"-0.013": 0.0,
			"-0.012": 0.0,
			"-0.011": 0.0,
			"-0.01": 2.02894082313,
			"-0.009": 9.30597626805,
			"-0.008": 11.376271409,
			"-0.007": 10.2984885639,
			"-0.006": 12.3443531952,
			"-0.005": 13.8870931124,
			"-0.004": 12.5517452113,
			"-0.003": 15.7106720104,
			"-0.002": 16.8342911195,
			"-0.001": 21.2790051882,
			"0.0": 18.5692403452,
			"0.001": 18.9565444904,
			"0.002": 31.0354152072,
			"0.003": 18.7293265518,
			"0.004": 8.92724202116,
			"0.005": 7.64081960409,
			"0.006": 6.01018479766,
			"0.007": 3.61982927063,
			"0.008": 4.4291199406,
			"0.009": 5.12033634392,
			"0.01": 5.62670827999,
			"0.011": 5.15843284178,
			"0.012": 5.10949902682,
			"0.013": 2.24516554687,
			"0.014": 0.10311373073,
			"0.015": 0.0,
			"0.016": 0.0,
			"0.017": 0.0,
			"0.018": 0.0,
			"0.019": 0.0,
			"0.02": 0.0,
			"0.021": 0.0,
			"0.022": 0.0,
			"0.023": 0.0,
			"0.024": 0.0,
			"0.025": 0.0
		}
	}
}
