{
	 "smiles": "CC(=O)OCCC1=CC=C(CCOC(C)=O)C=C1", 
	 "Tm": 338.15, 
	 "num_atms": 36, 
	 "gaussian": { 
		 "optdone": 1, 
		 "sigma_profile": "yes", 
		 "theory": "DFT", 
		 "functional": "B3LYP", 
		 "basiset": "6-31G**", 
		 "properties": { 
			 "R2extent": 9206.2459, 
			 "electric_dipole_moment_norm": 3.09853288671, 
			 "electric_quadrupole_moment_norm": 13.202789386, 
			 "total_energy": -845.274950986, 
			 "HOMO_LUMO_gap": 0.23258, 
			 "cosmo_polarized_energy": -13.85, 
			 "cosmo_cavitation_energy": 40.91, 
			 "cosmo_dispersion_energy": -27.91, 
			 "cosmo_repulsion_energy": 2.23, 
			 "cosmo_total_nonelectrostatic_energy": 15.23, 
			 "SMD_solvation_energy": 9.02 
		},
		"coords": [
			{
				"x": -2.7632588565,
				"y": -2.5353802145,
				"z": 5.1582517738,
				"element": "C" 
			},
			{
				"x": -2.5384432247,
				"y": -1.9305314324,
				"z": 3.7926128607,
				"element": "C" 
			},
			{
				"x": -2.9224228239,
				"y": -2.4016788867,
				"z": 2.7438163143,
				"element": "O" 
			},
			{
				"x": -1.8435855949,
				"y": -0.7712947157,
				"z": 3.8912291722,
				"element": "O" 
			},
			{
				"x": -1.5645485084,
				"y": -0.0822622067,
				"z": 2.652416772,
				"element": "C" 
			},
			{
				"x": -0.3055289554,
				"y": -0.6351319042,
				"z": 1.9728282535,
				"element": "C" 
			},
			{
				"x": 0.0164394768,
				"y": 0.128796741,
				"z": 0.7068657597,
				"element": "C" 
			},
			{
				"x": 0.8888481562,
				"y": 1.2250340246,
				"z": 0.7231226482,
				"element": "C" 
			},
			{
				"x": 1.1522012505,
				"y": 1.9525041623,
				"z": -0.4368142741,
				"element": "C" 
			},
			{
				"x": 0.5484467413,
				"y": 1.6088755152,
				"z": -1.653389682,
				"element": "C" 
			},
			{
				"x": 0.8530781735,
				"y": 2.3764189951,
				"z": -2.9229917641,
				"element": "C" 
			},
			{
				"x": 2.1019744796,
				"y": 1.891811911,
				"z": -3.6585867344,
				"element": "C" 
			},
			{
				"x": 3.2477944947,
				"y": 2.1865942809,
				"z": -2.8323005227,
				"element": "O" 
			},
			{
				"x": 4.4383315213,
				"y": 1.7309945669,
				"z": -3.2891535387,
				"element": "C" 
			},
			{
				"x": 5.5510606525,
				"y": 2.07944433,
				"z": -2.328874351,
				"element": "C" 
			},
			{
				"x": 4.5678120452,
				"y": 1.1261678411,
				"z": -4.3306174529,
				"element": "O" 
			},
			{
				"x": -0.3256389563,
				"y": 0.5143140908,
				"z": -1.6693134188,
				"element": "C" 
			},
			{
				"x": -0.587832528,
				"y": -0.2144735986,
				"z": -0.5097151386,
				"element": "C" 
			},
			{
				"x": -3.3253932579,
				"y": -3.4630033668,
				"z": 5.0561052096,
				"element": "H" 
			},
			{
				"x": -3.3109824903,
				"y": -1.8335899205,
				"z": 5.7940543933,
				"element": "H" 
			},
			{
				"x": -1.8026843084,
				"y": -2.732010452,
				"z": 5.6435768798,
				"element": "H" 
			},
			{
				"x": -2.4281333293,
				"y": -0.1694390438,
				"z": 1.9888360369,
				"element": "H" 
			},
			{
				"x": -1.427921072,
				"y": 0.963874697,
				"z": 2.9363004439,
				"element": "H" 
			},
			{
				"x": 0.5300018253,
				"y": -0.5759766718,
				"z": 2.6790805929,
				"element": "H" 
			},
			{
				"x": -0.4747706502,
				"y": -1.6921718476,
				"z": 1.7456499835,
				"element": "H" 
			},
			{
				"x": 1.3719427243,
				"y": 1.5098706274,
				"z": 1.6552219749,
				"element": "H" 
			},
			{
				"x": 1.8398642892,
				"y": 2.7925804369,
				"z": -0.4022514283,
				"element": "H" 
			},
			{
				"x": 0.0120413867,
				"y": 2.2876027445,
				"z": -3.6208652818,
				"element": "H" 
			},
			{
				"x": 0.9717770443,
				"y": 3.4439411748,
				"z": -2.7043397203,
				"element": "H" 
			},
			{
				"x": 2.2176474829,
				"y": 2.4024412764,
				"z": -4.6205959593,
				"element": "H" 
			},
			{
				"x": 2.0660091418,
				"y": 0.8155502557,
				"z": -3.8521477211,
				"element": "H" 
			},
			{
				"x": 6.4999577264,
				"y": 1.7252513516,
				"z": -2.7301949243,
				"element": "H" 
			},
			{
				"x": 5.3622228456,
				"y": 1.6167067845,
				"z": -1.3555535015,
				"element": "H" 
			},
			{
				"x": 5.5909327361,
				"y": 3.1615978208,
				"z": -2.1736799073,
				"element": "H" 
			},
			{
				"x": -0.8086698831,
				"y": 0.2277224115,
				"z": -2.6008638195,
				"element": "H" 
			},
			{
				"x": -1.2697697552,
				"y": -1.0606517787,
				"z": -0.5478199283,
				"element": "H" 
			}
		],
		 "valence_orbital": [ 
			{
				"type": "occ",
				"energy": -0.29761,
				"method": "rhf"
			},
			{
				"type": "occ",
				"energy": -0.27051,
				"method": "rhf"
			},
			{
				"type": "occ",
				"energy": -0.26831,
				"method": "rhf"
			},
			{
				"type": "occ",
				"energy": -0.25003,
				"method": "rhf"
			},
			{
				"type": "occ",
				"energy": -0.23777,
				"method": "rhf"
			},
			{
				"type": "unocc",
				"energy": -0.00519,
				"method": "rhf"
			},
			{
				"type": "unocc",
				"energy": -0.00324,
				"method": "rhf"
			},
			{
				"type": "unocc",
				"energy": 0.01325,
				"method": "rhf"
			},
			{
				"type": "unocc",
				"energy": 0.01544,
				"method": "rhf"
			},
			{
				"type": "unocc",
				"energy": 0.08895,
				"method": "rhf"
			}
		],
		"cosmo_sigma_profile": { 
			"-0.025": 0.0,
			"-0.024": 0.0,
			"-0.023": 0.0,
			"-0.022": 0.0,
			"-0.021": 0.0,
			"-0.02": 0.0,
			"-0.019": 0.0,
			"-0.018": 0.0,
			"-0.017": 0.0,
			"-0.016": 0.0,
			"-0.015": 0.0,
			"-0.014": 0.0,
			"-0.013": 0.0,
			"-0.012": 0.0,
			"-0.011": 0.0,
			"-0.01": 0.0,
			"-0.009": 0.0,
			"-0.008": 0.0,
			"-0.007": 1.49829241292,
			"-0.006": 11.485407537,
			"-0.005": 30.940543718,
			"-0.004": 40.4835564636,
			"-0.003": 40.0445757441,
			"-0.002": 39.7850719643,
			"-0.001": 28.2565465789,
			"0.0": 17.0197614563,
			"0.001": 12.847118456,
			"0.002": 13.5456947482,
			"0.003": 12.6459701415,
			"0.004": 12.3231148245,
			"0.005": 13.0769980683,
			"0.006": 13.2725091294,
			"0.007": 5.79246320464,
			"0.008": 3.91658887253,
			"0.009": 3.70191999799,
			"0.01": 3.77663010775,
			"0.011": 4.81668239462,
			"0.012": 9.4374324102,
			"0.013": 3.28143250586,
			"0.014": 0.0945231596189,
			"0.015": 0.0,
			"0.016": 0.0,
			"0.017": 0.0,
			"0.018": 0.0,
			"0.019": 0.0,
			"0.02": 0.0,
			"0.021": 0.0,
			"0.022": 0.0,
			"0.023": 0.0,
			"0.024": 0.0,
			"0.025": 0.0
		}
	}
}
