{
	 "smiles": "CC(=O)N1CCC2=CC=CC=C12", 
	 "Tm": 376.15, 
	 "num_atms": 23, 
	 "gaussian": { 
		 "optdone": 1, 
		 "sigma_profile": "yes", 
		 "theory": "DFT", 
		 "functional": "B3LYP", 
		 "basiset": "6-31G**", 
		 "properties": { 
			 "R2extent": 2092.3686, 
			 "electric_dipole_moment_norm": 2.81793918671, 
			 "electric_quadrupole_moment_norm": 11.5343326864, 
			 "total_energy": -517.688210071, 
			 "HOMO_LUMO_gap": 0.19772, 
			 "cosmo_polarized_energy": -9.53, 
			 "cosmo_cavitation_energy": 25.41, 
			 "cosmo_dispersion_energy": -19.04, 
			 "cosmo_repulsion_energy": 1.5, 
			 "cosmo_total_nonelectrostatic_energy": 7.87, 
			 "SMD_solvation_energy": 4.42 
		},
		"coords": [
			{
				"x": 0.3894501132,
				"y": 2.0989920957,
				"z": 2.3231310743,
				"element": "C" 
			},
			{
				"x": -0.9052188235,
				"y": 1.3785076418,
				"z": 1.9995348636,
				"element": "C" 
			},
			{
				"x": -1.9266719446,
				"y": 1.5831171736,
				"z": 2.6473054068,
				"element": "O" 
			},
			{
				"x": -0.9329920144,
				"y": 0.490700155,
				"z": 0.9411058763,
				"element": "N" 
			},
			{
				"x": -2.2337792387,
				"y": -0.1285684993,
				"z": 0.5939753343,
				"element": "C" 
			},
			{
				"x": -2.0293755635,
				"y": -0.6920309253,
				"z": -0.8275642877,
				"element": "C" 
			},
			{
				"x": -0.5252332832,
				"y": -0.720529556,
				"z": -0.9749812078,
				"element": "C" 
			},
			{
				"x": 0.2519783532,
				"y": -1.3149909807,
				"z": -1.9584037563,
				"element": "C" 
			},
			{
				"x": 1.6460324263,
				"y": -1.1929133656,
				"z": -1.903665379,
				"element": "C" 
			},
			{
				"x": 2.2357247658,
				"y": -0.4807458907,
				"z": -0.8603864407,
				"element": "C" 
			},
			{
				"x": 1.4643245532,
				"y": 0.1219798125,
				"z": 0.1405945233,
				"element": "C" 
			},
			{
				"x": 0.0725375082,
				"y": 0.0070860957,
				"z": 0.0715590263,
				"element": "C" 
			},
			{
				"x": 0.8660247836,
				"y": 2.5181846395,
				"z": 1.4328181688,
				"element": "H" 
			},
			{
				"x": 1.103321514,
				"y": 1.4237136852,
				"z": 2.8068489451,
				"element": "H" 
			},
			{
				"x": 0.1448234025,
				"y": 2.899358069,
				"z": 3.0214146276,
				"element": "H" 
			},
			{
				"x": -3.0208028975,
				"y": 0.6217361936,
				"z": 0.6695744901,
				"element": "H" 
			},
			{
				"x": -2.4623638955,
				"y": -0.9187438807,
				"z": 1.3184928977,
				"element": "H" 
			},
			{
				"x": -2.4875175023,
				"y": -1.6784926255,
				"z": -0.9453087121,
				"element": "H" 
			},
			{
				"x": -2.4802251102,
				"y": -0.0350557653,
				"z": -1.5824918635,
				"element": "H" 
			},
			{
				"x": -0.2198646087,
				"y": -1.8734163209,
				"z": -2.7627420541,
				"element": "H" 
			},
			{
				"x": 2.2642803144,
				"y": -1.6569009179,
				"z": -2.6658505239,
				"element": "H" 
			},
			{
				"x": 3.3173340004,
				"y": -0.3948235899,
				"z": -0.8090097795,
				"element": "H" 
			},
			{
				"x": 1.9591131473,
				"y": 0.6452367563,
				"z": 0.9463487704,
				"element": "H" 
			}
		],
		 "valence_orbital": [ 
			{
				"type": "occ",
				"energy": -0.34192,
				"method": "rhf"
			},
			{
				"type": "occ",
				"energy": -0.29715,
				"method": "rhf"
			},
			{
				"type": "occ",
				"energy": -0.25163,
				"method": "rhf"
			},
			{
				"type": "occ",
				"energy": -0.24825,
				"method": "rhf"
			},
			{
				"type": "occ",
				"energy": -0.2097,
				"method": "rhf"
			},
			{
				"type": "unocc",
				"energy": -0.01198,
				"method": "rhf"
			},
			{
				"type": "unocc",
				"energy": -0.00702,
				"method": "rhf"
			},
			{
				"type": "unocc",
				"energy": 0.04274,
				"method": "rhf"
			},
			{
				"type": "unocc",
				"energy": 0.09047,
				"method": "rhf"
			},
			{
				"type": "unocc",
				"energy": 0.10352,
				"method": "rhf"
			}
		],
		"cosmo_sigma_profile": { 
			"-0.025": 0.0,
			"-0.024": 0.0,
			"-0.023": 0.0,
			"-0.022": 0.0,
			"-0.021": 0.0,
			"-0.02": 0.0,
			"-0.019": 0.0,
			"-0.018": 0.0,
			"-0.017": 0.0,
			"-0.016": 0.0,
			"-0.015": 0.0,
			"-0.014": 0.0,
			"-0.013": 0.0,
			"-0.012": 0.0,
			"-0.011": 0.0,
			"-0.01": 0.0,
			"-0.009": 0.0,
			"-0.008": 0.0955671496061,
			"-0.007": 2.27126518305,
			"-0.006": 7.15182911348,
			"-0.005": 20.0286391758,
			"-0.004": 24.6460183916,
			"-0.003": 24.8838436824,
			"-0.002": 21.4361323611,
			"-0.001": 17.2672893503,
			"0.0": 12.9576355453,
			"0.001": 9.54145763423,
			"0.002": 8.7026223767,
			"0.003": 8.09303045248,
			"0.004": 8.68837685591,
			"0.005": 9.59872371714,
			"0.006": 7.63662614408,
			"0.007": 1.88678807188,
			"0.008": 1.23493607864,
			"0.009": 1.36180973205,
			"0.01": 1.91380715487,
			"0.011": 1.28877319251,
			"0.012": 2.25060111138,
			"0.013": 3.86450064656,
			"0.014": 4.03636986947,
			"0.015": 0.750168418516,
			"0.016": 0.0,
			"0.017": 0.0,
			"0.018": 0.0,
			"0.019": 0.0,
			"0.02": 0.0,
			"0.021": 0.0,
			"0.022": 0.0,
			"0.023": 0.0,
			"0.024": 0.0,
			"0.025": 0.0
		}
	}
}
