{
	 "smiles": "BrCC1=CC=CC(C=O)=C1", 
	 "Tm": 323.15, 
	 "num_atms": 17, 
	 "gaussian": { 
		 "optdone": 1, 
		 "sigma_profile": "yes", 
		 "theory": "DFT", 
		 "functional": "B3LYP", 
		 "basiset": "6-31G**", 
		 "properties": { 
			 "R2extent": 3132.8277, 
			 "electric_dipole_moment_norm": 2.80439523784, 
			 "electric_quadrupole_moment_norm": 16.623301737, 
			 "total_energy": -2955.69481438, 
			 "HOMO_LUMO_gap": 0.1889, 
			 "cosmo_polarized_energy": -10.21, 
			 "cosmo_cavitation_energy": 24.05, 
			 "cosmo_dispersion_energy": -17.58, 
			 "cosmo_repulsion_energy": 1.43, 
			 "cosmo_total_nonelectrostatic_energy": 7.9, 
			 "SMD_solvation_energy": 3.94 
		},
		"coords": [
			{
				"x": -2.580982273,
				"y": -1.9514135538,
				"z": 0.3303727177,
				"element": "Br" 
			},
			{
				"x": -0.7901933398,
				"y": -1.230234553,
				"z": 0.8700171357,
				"element": "C" 
			},
			{
				"x": -0.307482223,
				"y": -0.1652532664,
				"z": -0.0611407597,
				"element": "C" 
			},
			{
				"x": 0.4644551552,
				"y": -0.4934833735,
				"z": -1.1846324572,
				"element": "C" 
			},
			{
				"x": 0.9316100002,
				"y": 0.4989862334,
				"z": -2.0506756658,
				"element": "C" 
			},
			{
				"x": 0.6310985921,
				"y": 1.8348096771,
				"z": -1.8057910433,
				"element": "C" 
			},
			{
				"x": -0.1426216158,
				"y": 2.1788974488,
				"z": -0.6869799958,
				"element": "C" 
			},
			{
				"x": -0.4677038224,
				"y": 3.5989534956,
				"z": -0.4130203834,
				"element": "C" 
			},
			{
				"x": -0.1037981794,
				"y": 4.5332721545,
				"z": -1.100452114,
				"element": "O" 
			},
			{
				"x": -0.6070257097,
				"y": 1.1812178434,
				"z": 0.175703797,
				"element": "C" 
			},
			{
				"x": -0.140851164,
				"y": -2.1036592646,
				"z": 0.882458535,
				"element": "H" 
			},
			{
				"x": -0.9417424297,
				"y": -0.8646445162,
				"z": 1.8839486956,
				"element": "H" 
			},
			{
				"x": 0.698717539,
				"y": -1.5362344108,
				"z": -1.3827172767,
				"element": "H" 
			},
			{
				"x": 1.5306493936,
				"y": 0.2230711251,
				"z": -2.9132194666,
				"element": "H" 
			},
			{
				"x": 0.9806155209,
				"y": 2.6282491495,
				"z": -2.4585369354,
				"element": "H" 
			},
			{
				"x": -1.0889752976,
				"y": 3.7649174809,
				"z": 0.4952253859,
				"element": "H" 
			},
			{
				"x": -1.2099701466,
				"y": 1.4578483299,
				"z": 1.0385398312,
				"element": "H" 
			}
		],
		 "valence_orbital": [ 
			{
				"type": "occ",
				"energy": -0.28347,
				"method": "rhf"
			},
			{
				"type": "occ",
				"energy": -0.2804,
				"method": "rhf"
			},
			{
				"type": "occ",
				"energy": -0.27303,
				"method": "rhf"
			},
			{
				"type": "occ",
				"energy": -0.26352,
				"method": "rhf"
			},
			{
				"type": "occ",
				"energy": -0.26118,
				"method": "rhf"
			},
			{
				"type": "unocc",
				"energy": -0.07228,
				"method": "rhf"
			},
			{
				"type": "unocc",
				"energy": -0.0456,
				"method": "rhf"
			},
			{
				"type": "unocc",
				"energy": 0.00404,
				"method": "rhf"
			},
			{
				"type": "unocc",
				"energy": 0.04077,
				"method": "rhf"
			},
			{
				"type": "unocc",
				"energy": 0.08178,
				"method": "rhf"
			}
		],
		"cosmo_sigma_profile": { 
			"-0.025": 0.0,
			"-0.024": 0.0,
			"-0.023": 0.0,
			"-0.022": 0.0,
			"-0.021": 0.0,
			"-0.02": 0.0,
			"-0.019": 0.0,
			"-0.018": 0.0,
			"-0.017": 0.0,
			"-0.016": 0.0,
			"-0.015": 0.0,
			"-0.014": 0.0,
			"-0.013": 0.0,
			"-0.012": 0.0,
			"-0.011": 0.0,
			"-0.01": 0.0,
			"-0.009": 0.223429210899,
			"-0.008": 8.07853005246,
			"-0.007": 14.0351370665,
			"-0.006": 13.143043597,
			"-0.005": 13.83344566,
			"-0.004": 11.7632757498,
			"-0.003": 10.2660636918,
			"-0.002": 10.2304208402,
			"-0.001": 10.7923475169,
			"0.0": 11.014835693,
			"0.001": 12.5553842809,
			"0.002": 16.4539666585,
			"0.003": 15.7956884551,
			"0.004": 7.79749640373,
			"0.005": 8.47031757249,
			"0.006": 13.1218772596,
			"0.007": 4.09181871856,
			"0.008": 1.80072669436,
			"0.009": 2.33589115217,
			"0.01": 2.62279790102,
			"0.011": 4.28021675927,
			"0.012": 2.48354404551,
			"0.013": 0.616689144398,
			"0.014": 0.0,
			"0.015": 0.0,
			"0.016": 0.0,
			"0.017": 0.0,
			"0.018": 0.0,
			"0.019": 0.0,
			"0.02": 0.0,
			"0.021": 0.0,
			"0.022": 0.0,
			"0.023": 0.0,
			"0.024": 0.0,
			"0.025": 0.0
		}
	}
}
