{
	 "smiles": "C(NC1=NC2=C(S1)C=CC=C2)C1CCCO1", 
	 "Tm": 404.15, 
	 "num_atms": 30, 
	 "gaussian": { 
		 "optdone": 1, 
		 "sigma_profile": "yes", 
		 "theory": "DFT", 
		 "functional": "B3LYP", 
		 "basiset": "6-31G**", 
		 "properties": { 
			 "R2extent": 5462.7706, 
			 "electric_dipole_moment_norm": 2.23050198386, 
			 "electric_quadrupole_moment_norm": 3.73676672405, 
			 "total_energy": -1048.63606316, 
			 "HOMO_LUMO_gap": 0.19486, 
			 "cosmo_polarized_energy": -9.72, 
			 "cosmo_cavitation_energy": 33.83, 
			 "cosmo_dispersion_energy": -25.05, 
			 "cosmo_repulsion_energy": 1.92, 
			 "cosmo_total_nonelectrostatic_energy": 10.7, 
			 "SMD_solvation_energy": 2.83 
		},
		"coords": [
			{
				"x": -1.3563426998,
				"y": 0.1541137591,
				"z": 0.6792107469,
				"element": "C" 
			},
			{
				"x": -0.5206729138,
				"y": -0.5137523183,
				"z": -0.3089361375,
				"element": "N" 
			},
			{
				"x": 0.3851154618,
				"y": 0.1442929589,
				"z": -1.0779840633,
				"element": "C" 
			},
			{
				"x": 0.5289445368,
				"y": 1.4350716895,
				"z": -1.128844031,
				"element": "N" 
			},
			{
				"x": 1.5100324597,
				"y": 1.7884538742,
				"z": -2.0426416738,
				"element": "C" 
			},
			{
				"x": 2.1504918887,
				"y": 0.7162506092,
				"z": -2.7125726065,
				"element": "C" 
			},
			{
				"x": 1.4553410776,
				"y": -0.8091564491,
				"z": -2.1606237859,
				"element": "S" 
			},
			{
				"x": 3.1604598245,
				"y": 0.9289155985,
				"z": -3.6470964839,
				"element": "C" 
			},
			{
				"x": 3.5392972581,
				"y": 2.2447714377,
				"z": -3.92167721,
				"element": "C" 
			},
			{
				"x": 2.9158099682,
				"y": 3.3172828728,
				"z": -3.2691116881,
				"element": "C" 
			},
			{
				"x": 1.9065462127,
				"y": 3.100222368,
				"z": -2.3335141213,
				"element": "C" 
			},
			{
				"x": -0.9174191955,
				"y": -0.1677025435,
				"z": 2.1088729658,
				"element": "C" 
			},
			{
				"x": 0.5195713996,
				"y": 0.2872155478,
				"z": 2.4906973077,
				"element": "C" 
			},
			{
				"x": 1.2599919405,
				"y": -1.0297397489,
				"z": 2.8048188878,
				"element": "C" 
			},
			{
				"x": 0.1037078216,
				"y": -1.9753647434,
				"z": 3.1403051334,
				"element": "C" 
			},
			{
				"x": -0.9418083603,
				"y": -1.5988586499,
				"z": 2.245488282,
				"element": "O" 
			},
			{
				"x": -2.394004892,
				"y": -0.1734897161,
				"z": 0.5434280943,
				"element": "H" 
			},
			{
				"x": -1.3077396536,
				"y": 1.2281536014,
				"z": 0.4933524417,
				"element": "H" 
			},
			{
				"x": -0.4085868893,
				"y": -1.5080058375,
				"z": -0.1743703636,
				"element": "H" 
			},
			{
				"x": 3.6417513174,
				"y": 0.0971576824,
				"z": -4.1520328562,
				"element": "H" 
			},
			{
				"x": 4.3236317535,
				"y": 2.4343138674,
				"z": -4.6481665408,
				"element": "H" 
			},
			{
				"x": 3.2237494661,
				"y": 4.3338277525,
				"z": -3.4961854807,
				"element": "H" 
			},
			{
				"x": 1.4188407396,
				"y": 3.9248568844,
				"z": -1.8238807856,
				"element": "H" 
			},
			{
				"x": -1.6531941314,
				"y": 0.2740392449,
				"z": 2.7991446995,
				"element": "H" 
			},
			{
				"x": 0.994011866,
				"y": 0.8521170115,
				"z": 1.6849396884,
				"element": "H" 
			},
			{
				"x": 0.4840623959,
				"y": 0.935664059,
				"z": 3.3712878168,
				"element": "H" 
			},
			{
				"x": 1.9835417494,
				"y": -0.9335590304,
				"z": 3.6192228242,
				"element": "H" 
			},
			{
				"x": 1.7931176448,
				"y": -1.3925639212,
				"z": 1.9201594102,
				"element": "H" 
			},
			{
				"x": 0.3217881279,
				"y": -3.0340275262,
				"z": 2.9735454461,
				"element": "H" 
			},
			{
				"x": -0.2196361747,
				"y": -1.848400335,
				"z": 4.1864640832,
				"element": "H" 
			}
		],
		 "valence_orbital": [ 
			{
				"type": "occ",
				"energy": -0.27981,
				"method": "rhf"
			},
			{
				"type": "occ",
				"energy": -0.2695,
				"method": "rhf"
			},
			{
				"type": "occ",
				"energy": -0.26076,
				"method": "rhf"
			},
			{
				"type": "occ",
				"energy": -0.22551,
				"method": "rhf"
			},
			{
				"type": "occ",
				"energy": -0.20053,
				"method": "rhf"
			},
			{
				"type": "unocc",
				"energy": -0.00567,
				"method": "rhf"
			},
			{
				"type": "unocc",
				"energy": 0.00411,
				"method": "rhf"
			},
			{
				"type": "unocc",
				"energy": 0.00522,
				"method": "rhf"
			},
			{
				"type": "unocc",
				"energy": 0.05246,
				"method": "rhf"
			},
			{
				"type": "unocc",
				"energy": 0.07707,
				"method": "rhf"
			}
		],
		"cosmo_sigma_profile": { 
			"-0.025": 0.0,
			"-0.024": 0.0,
			"-0.023": 0.0,
			"-0.022": 0.0,
			"-0.021": 0.0,
			"-0.02": 0.0,
			"-0.019": 0.0,
			"-0.018": 0.0,
			"-0.017": 0.0,
			"-0.016": 0.0,
			"-0.015": 0.0,
			"-0.014": 0.348736242122,
			"-0.013": 0.539993661423,
			"-0.012": 0.809265564396,
			"-0.011": 0.553514351897,
			"-0.01": 1.36058603321,
			"-0.009": 0.726728182674,
			"-0.008": 0.660135766551,
			"-0.007": 2.41865091858,
			"-0.006": 6.39656579937,
			"-0.005": 14.0912720045,
			"-0.004": 25.5810183563,
			"-0.003": 33.9783876228,
			"-0.002": 28.8332807623,
			"-0.001": 23.8480017098,
			"0.0": 20.6995260507,
			"0.001": 18.1287556198,
			"0.002": 14.5308541064,
			"0.003": 17.1504842764,
			"0.004": 16.891412841,
			"0.005": 17.0441285515,
			"0.006": 10.5151097358,
			"0.007": 2.45055295317,
			"0.008": 2.56893085464,
			"0.009": 2.50777396949,
			"0.01": 1.8031163515,
			"0.011": 1.67814768457,
			"0.012": 1.71639396404,
			"0.013": 1.82349243309,
			"0.014": 0.410820185041,
			"0.015": 0.0,
			"0.016": 0.0,
			"0.017": 0.0,
			"0.018": 0.0,
			"0.019": 0.0,
			"0.02": 0.0,
			"0.021": 0.0,
			"0.022": 0.0,
			"0.023": 0.0,
			"0.024": 0.0,
			"0.025": 0.0
		}
	}
}
