{
	 "smiles": "COC1=CC(Br)=C(C=O)C=C1OC", 
	 "Tm": 422.65, 
	 "num_atms": 22, 
	 "gaussian": { 
		 "optdone": 1, 
		 "sigma_profile": "yes", 
		 "theory": "DFT", 
		 "functional": "B3LYP", 
		 "basiset": "6-31G**", 
		 "properties": { 
			 "R2extent": 4346.9906, 
			 "electric_dipole_moment_norm": 5.16735832026, 
			 "electric_quadrupole_moment_norm": 10.1034780388, 
			 "total_energy": -3145.40680788, 
			 "HOMO_LUMO_gap": 0.17457, 
			 "cosmo_polarized_energy": -10.72, 
			 "cosmo_cavitation_energy": 28.5, 
			 "cosmo_dispersion_energy": -20.83, 
			 "cosmo_repulsion_energy": 1.65, 
			 "cosmo_total_nonelectrostatic_energy": 9.33, 
			 "SMD_solvation_energy": 6.41 
		},
		"coords": [
			{
				"x": 2.2131356705,
				"y": 0.6536999583,
				"z": 2.0201187921,
				"element": "C" 
			},
			{
				"x": 2.014428929,
				"y": 1.2940995704,
				"z": 0.7484604856,
				"element": "O" 
			},
			{
				"x": 1.1886536795,
				"y": 0.6402030407,
				"z": -0.1237963766,
				"element": "C" 
			},
			{
				"x": 0.0111795177,
				"y": 1.2798264522,
				"z": -0.5204329096,
				"element": "C" 
			},
			{
				"x": -0.86125463,
				"y": 0.6789644812,
				"z": -1.4240003967,
				"element": "C" 
			},
			{
				"x": -2.4317549692,
				"y": 1.6549300043,
				"z": -1.8772530831,
				"element": "Br" 
			},
			{
				"x": -0.5755374235,
				"y": -0.5958758247,
				"z": -1.9485087098,
				"element": "C" 
			},
			{
				"x": -1.4147008302,
				"y": -1.3635654806,
				"z": -2.9021596844,
				"element": "C" 
			},
			{
				"x": -2.4768021914,
				"y": -1.0250903229,
				"z": -3.3804235573,
				"element": "O" 
			},
			{
				"x": 0.6227955607,
				"y": -1.2140028759,
				"z": -1.5516692731,
				"element": "C" 
			},
			{
				"x": 1.5118482023,
				"y": -0.6213945013,
				"z": -0.66468689,
				"element": "C" 
			},
			{
				"x": 2.6590225286,
				"y": -1.290907192,
				"z": -0.3112542327,
				"element": "O" 
			},
			{
				"x": 3.8724868903,
				"y": -0.706672874,
				"z": -0.8079843906,
				"element": "C" 
			},
			{
				"x": 2.9059572549,
				"y": 1.2914600519,
				"z": 2.5711206132,
				"element": "H" 
			},
			{
				"x": 1.264671716,
				"y": 0.5900366868,
				"z": 2.5661396327,
				"element": "H" 
			},
			{
				"x": 2.6369547328,
				"y": -0.3469117733,
				"z": 1.9018670377,
				"element": "H" 
			},
			{
				"x": -0.2116907819,
				"y": 2.2542116396,
				"z": -0.1022905736,
				"element": "H" 
			},
			{
				"x": -0.9637612564,
				"y": -2.347657507,
				"z": -3.1649498671,
				"element": "H" 
			},
			{
				"x": 0.8770429702,
				"y": -2.1921754068,
				"z": -1.9517434695,
				"element": "H" 
			},
			{
				"x": 4.684963032,
				"y": -1.3371871973,
				"z": -0.442682438,
				"element": "H" 
			},
			{
				"x": 3.8786558262,
				"y": -0.704238893,
				"z": -1.9046320867,
				"element": "H" 
			},
			{
				"x": 4.002505572,
				"y": 0.3160479634,
				"z": -0.4406386227,
				"element": "H" 
			}
		],
		 "valence_orbital": [ 
			{
				"type": "occ",
				"energy": -0.29367,
				"method": "rhf"
			},
			{
				"type": "occ",
				"energy": -0.28191,
				"method": "rhf"
			},
			{
				"type": "occ",
				"energy": -0.26157,
				"method": "rhf"
			},
			{
				"type": "occ",
				"energy": -0.24651,
				"method": "rhf"
			},
			{
				"type": "occ",
				"energy": -0.24091,
				"method": "rhf"
			},
			{
				"type": "unocc",
				"energy": -0.06634,
				"method": "rhf"
			},
			{
				"type": "unocc",
				"energy": -0.02352,
				"method": "rhf"
			},
			{
				"type": "unocc",
				"energy": 0.00744,
				"method": "rhf"
			},
			{
				"type": "unocc",
				"energy": 0.0339,
				"method": "rhf"
			},
			{
				"type": "unocc",
				"energy": 0.07387,
				"method": "rhf"
			}
		],
		"cosmo_sigma_profile": { 
			"-0.025": 0.0,
			"-0.024": 0.0,
			"-0.023": 0.0,
			"-0.022": 0.0,
			"-0.021": 0.0,
			"-0.02": 0.0,
			"-0.019": 0.0,
			"-0.018": 0.0,
			"-0.017": 0.0,
			"-0.016": 0.0,
			"-0.015": 0.0,
			"-0.014": 0.0,
			"-0.013": 0.0,
			"-0.012": 0.0,
			"-0.011": 0.0,
			"-0.01": 0.0,
			"-0.009": 0.963449722527,
			"-0.008": 3.70482787521,
			"-0.007": 4.88306890532,
			"-0.006": 9.67221695518,
			"-0.005": 14.3429080431,
			"-0.004": 20.8316229415,
			"-0.003": 27.6209325087,
			"-0.002": 21.590005194,
			"-0.001": 17.3763131827,
			"0.0": 18.5453075431,
			"0.001": 22.1106865021,
			"0.002": 10.089339147,
			"0.003": 9.83130349101,
			"0.004": 12.4816471056,
			"0.005": 6.16405650205,
			"0.006": 4.31214015538,
			"0.007": 3.67424075968,
			"0.008": 4.15499666649,
			"0.009": 3.84475271375,
			"0.01": 5.24022936908,
			"0.011": 5.7377985078,
			"0.012": 3.13822478358,
			"0.013": 0.353503583271,
			"0.014": 0.0,
			"0.015": 0.0,
			"0.016": 0.0,
			"0.017": 0.0,
			"0.018": 0.0,
			"0.019": 0.0,
			"0.02": 0.0,
			"0.021": 0.0,
			"0.022": 0.0,
			"0.023": 0.0,
			"0.024": 0.0,
			"0.025": 0.0
		}
	}
}
