{
	 "smiles": "CC1=C(C)C=C(C=C1)S(=O)(=O)N1CCC(CC1)C(O)=O", 
	 "Tm": 464.15, 
	 "num_atms": 39, 
	 "gaussian": { 
		 "optdone": 1, 
		 "sigma_profile": "yes", 
		 "theory": "DFT", 
		 "functional": "B3LYP", 
		 "basiset": "6-31G**", 
		 "properties": { 
			 "R2extent": 7708.578, 
			 "electric_dipole_moment_norm": 7.14507977632, 
			 "electric_quadrupole_moment_norm": 29.6822394007, 
			 "total_energy": -1298.72568884, 
			 "HOMO_LUMO_gap": 0.20866, 
			 "cosmo_polarized_energy": -26.02, 
			 "cosmo_cavitation_energy": 41.61, 
			 "cosmo_dispersion_energy": -29.11, 
			 "cosmo_repulsion_energy": 2.19, 
			 "cosmo_total_nonelectrostatic_energy": 14.69, 
			 "SMD_solvation_energy": 5.73 
		},
		"coords": [
			{
				"x": -2.2391542966,
				"y": 3.5360905465,
				"z": 0.7193167425,
				"element": "C" 
			},
			{
				"x": -1.7273183875,
				"y": 2.3331695474,
				"z": -0.0345004974,
				"element": "C" 
			},
			{
				"x": -0.5604488315,
				"y": 2.421796049,
				"z": -0.8282687901,
				"element": "C" 
			},
			{
				"x": 0.1970034765,
				"y": 3.7221773467,
				"z": -0.9513250917,
				"element": "C" 
			},
			{
				"x": -0.1174799642,
				"y": 1.2880793376,
				"z": -1.5150574508,
				"element": "C" 
			},
			{
				"x": -0.8149146326,
				"y": 0.0803522926,
				"z": -1.4223666477,
				"element": "C" 
			},
			{
				"x": -1.9755389521,
				"y": -0.0140937729,
				"z": -0.654539992,
				"element": "C" 
			},
			{
				"x": -2.4161047594,
				"y": 1.1163922893,
				"z": 0.0329032725,
				"element": "C" 
			},
			{
				"x": -0.1898310687,
				"y": -1.3723602616,
				"z": -2.2771430692,
				"element": "S" 
			},
			{
				"x": 0.6463997521,
				"y": -0.9015474058,
				"z": -3.3834430744,
				"element": "O" 
			},
			{
				"x": -1.3260659409,
				"y": -2.27538985,
				"z": -2.4772150403,
				"element": "O" 
			},
			{
				"x": 0.83917449,
				"y": -2.1660950308,
				"z": -1.2117238768,
				"element": "N" 
			},
			{
				"x": 2.2004379014,
				"y": -1.6266055488,
				"z": -0.9921526518,
				"element": "C" 
			},
			{
				"x": 2.4258122023,
				"y": -1.2560918041,
				"z": 0.4751881576,
				"element": "C" 
			},
			{
				"x": 2.2471409514,
				"y": -2.4803222825,
				"z": 1.4021424901,
				"element": "C" 
			},
			{
				"x": 1.2880357859,
				"y": -3.5319779592,
				"z": 0.7681688785,
				"element": "C" 
			},
			{
				"x": 0.2046218804,
				"y": -2.8585857224,
				"z": -0.0761005233,
				"element": "C" 
			},
			{
				"x": 3.5926371901,
				"y": -3.1263886581,
				"z": 1.7472816046,
				"element": "C" 
			},
			{
				"x": 3.5260963575,
				"y": -4.1918670303,
				"z": 2.5910081041,
				"element": "O" 
			},
			{
				"x": 4.6625014889,
				"y": -2.7660602329,
				"z": 1.3241439444,
				"element": "O" 
			},
			{
				"x": -1.4941011436,
				"y": 3.9139044313,
				"z": 1.4297403482,
				"element": "H" 
			},
			{
				"x": -3.1453919146,
				"y": 3.2952933198,
				"z": 1.2804039898,
				"element": "H" 
			},
			{
				"x": -2.4749100038,
				"y": 4.3649830199,
				"z": 0.0412492971,
				"element": "H" 
			},
			{
				"x": 1.0655068978,
				"y": 3.6120089562,
				"z": -1.6050320763,
				"element": "H" 
			},
			{
				"x": 0.5530794573,
				"y": 4.0763875831,
				"z": 0.0235275284,
				"element": "H" 
			},
			{
				"x": -0.4339894807,
				"y": 4.5178565581,
				"z": -1.3648283667,
				"element": "H" 
			},
			{
				"x": 0.7569918621,
				"y": 1.3481087891,
				"z": -2.1549137387,
				"element": "H" 
			},
			{
				"x": -2.5350070473,
				"y": -0.9423608503,
				"z": -0.6257736719,
				"element": "H" 
			},
			{
				"x": -3.3235605584,
				"y": 1.05576204,
				"z": 0.6280159507,
				"element": "H" 
			},
			{
				"x": 2.3461819596,
				"y": -0.7667226631,
				"z": -1.6470923854,
				"element": "H" 
			},
			{
				"x": 2.9328610675,
				"y": -2.3804758543,
				"z": -1.3044835445,
				"element": "H" 
			},
			{
				"x": 1.717826426,
				"y": -0.4711825724,
				"z": 0.7604054953,
				"element": "H" 
			},
			{
				"x": 3.4361542903,
				"y": -0.858304562,
				"z": 0.5970053182,
				"element": "H" 
			},
			{
				"x": 1.8068740996,
				"y": -2.1435615565,
				"z": 2.3514161477,
				"element": "H" 
			},
			{
				"x": 0.7974213368,
				"y": -4.1377179385,
				"z": 1.5388908228,
				"element": "H" 
			},
			{
				"x": 1.8489693758,
				"y": -4.2240802749,
				"z": 0.1303313332,
				"element": "H" 
			},
			{
				"x": -0.3704076561,
				"y": -2.1617243391,
				"z": 0.5560982472,
				"element": "H" 
			},
			{
				"x": -0.4920369194,
				"y": -3.6000441569,
				"z": -0.4713319909,
				"element": "H" 
			},
			{
				"x": 2.6104333083,
				"y": -4.3574017792,
				"z": 2.8559548069,
				"element": "H" 
			}
		],
		 "valence_orbital": [ 
			{
				"type": "occ",
				"energy": -0.29748,
				"method": "rhf"
			},
			{
				"type": "occ",
				"energy": -0.27882,
				"method": "rhf"
			},
			{
				"type": "occ",
				"energy": -0.27096,
				"method": "rhf"
			},
			{
				"type": "occ",
				"energy": -0.26048,
				"method": "rhf"
			},
			{
				"type": "occ",
				"energy": -0.24364,
				"method": "rhf"
			},
			{
				"type": "unocc",
				"energy": -0.03498,
				"method": "rhf"
			},
			{
				"type": "unocc",
				"energy": -0.01887,
				"method": "rhf"
			},
			{
				"type": "unocc",
				"energy": 0.00018,
				"method": "rhf"
			},
			{
				"type": "unocc",
				"energy": 0.03429,
				"method": "rhf"
			},
			{
				"type": "unocc",
				"energy": 0.06359,
				"method": "rhf"
			}
		],
		"cosmo_sigma_profile": { 
			"-0.025": 0.0,
			"-0.024": 0.0,
			"-0.023": 0.0,
			"-0.022": 0.0,
			"-0.021": 0.0,
			"-0.02": 0.0,
			"-0.019": 0.12003397029,
			"-0.018": 0.994239819124,
			"-0.017": 1.16817026194,
			"-0.016": 1.11617733099,
			"-0.015": 1.13815015347,
			"-0.014": 0.716678412896,
			"-0.013": 1.46549040863,
			"-0.012": 0.818232707272,
			"-0.011": 1.66191252412,
			"-0.01": 0.841508587383,
			"-0.009": 1.34571444079,
			"-0.008": 2.15825183915,
			"-0.007": 4.21125315124,
			"-0.006": 14.291700319,
			"-0.005": 28.0875688692,
			"-0.004": 37.2277664311,
			"-0.003": 30.8205710863,
			"-0.002": 28.3121853914,
			"-0.001": 26.6123446343,
			"0.0": 23.4740742933,
			"0.001": 15.0426721088,
			"0.002": 12.238709939,
			"0.003": 13.0156976612,
			"0.004": 11.8764692874,
			"0.005": 6.13447014511,
			"0.006": 6.49390936208,
			"0.007": 6.46343725018,
			"0.008": 6.53681799118,
			"0.009": 6.94601675659,
			"0.01": 10.5320702953,
			"0.011": 13.0234716503,
			"0.012": 10.5850507497,
			"0.013": 1.2670834048,
			"0.014": 0.0136721445075,
			"0.015": 0.0,
			"0.016": 0.0,
			"0.017": 0.0,
			"0.018": 0.0,
			"0.019": 0.0,
			"0.02": 0.0,
			"0.021": 0.0,
			"0.022": 0.0,
			"0.023": 0.0,
			"0.024": 0.0,
			"0.025": 0.0
		}
	}
}
