{
	 "smiles": "O=C1NC(=NO1)C1=CC=NC=C1", 
	 "Tm": 533.15, 
	 "num_atms": 17, 
	 "gaussian": { 
		 "optdone": 1, 
		 "sigma_profile": "yes", 
		 "theory": "DFT", 
		 "functional": "B3LYP", 
		 "basiset": "6-31G**", 
		 "properties": { 
			 "R2extent": 2412.703, 
			 "electric_dipole_moment_norm": 3.77162099501, 
			 "electric_quadrupole_moment_norm": 20.4323335466, 
			 "total_energy": -584.422080149, 
			 "HOMO_LUMO_gap": 0.18162, 
			 "cosmo_polarized_energy": -18.32, 
			 "cosmo_cavitation_energy": 22.63, 
			 "cosmo_dispersion_energy": -17.12, 
			 "cosmo_repulsion_energy": 1.34, 
			 "cosmo_total_nonelectrostatic_energy": 6.85, 
			 "SMD_solvation_energy": 3.58 
		},
		"coords": [
			{
				"x": -1.1004812521,
				"y": 4.1643151397,
				"z": -0.3932375103,
				"element": "O" 
			},
			{
				"x": -0.8884309387,
				"y": 3.0001109418,
				"z": -0.6040287104,
				"element": "C" 
			},
			{
				"x": 0.0026291635,
				"y": 2.1285917147,
				"z": 0.010506748,
				"element": "N" 
			},
			{
				"x": -0.1179073428,
				"y": 0.8921726065,
				"z": -0.5778762654,
				"element": "C" 
			},
			{
				"x": -1.0151463293,
				"y": 0.9040328753,
				"z": -1.5195760259,
				"element": "N" 
			},
			{
				"x": -1.5149077991,
				"y": 2.2233110161,
				"z": -1.5543286434,
				"element": "O" 
			},
			{
				"x": 0.6505048682,
				"y": -0.3041054953,
				"z": -0.2138801364,
				"element": "C" 
			},
			{
				"x": 1.6105523339,
				"y": -0.2892806079,
				"z": 0.8040755306,
				"element": "C" 
			},
			{
				"x": 2.2998078516,
				"y": -1.4685722088,
				"z": 1.0909794261,
				"element": "C" 
			},
			{
				"x": 2.0984805257,
				"y": -2.6227601663,
				"z": 0.4480858948,
				"element": "N" 
			},
			{
				"x": 1.1762667152,
				"y": -2.6259445729,
				"z": -0.5256592902,
				"element": "C" 
			},
			{
				"x": 0.431334082,
				"y": -1.5099020599,
				"z": -0.8948765782,
				"element": "C" 
			},
			{
				"x": 0.6135762813,
				"y": 2.4097816852,
				"z": 0.7596595589,
				"element": "H" 
			},
			{
				"x": 1.8331711775,
				"y": 0.6078315992,
				"z": 1.3735302484,
				"element": "H" 
			},
			{
				"x": 3.0505808066,
				"y": -1.479556559,
				"z": 1.8786324251,
				"element": "H" 
			},
			{
				"x": 1.0249868433,
				"y": -3.5733091577,
				"z": -1.0386433878,
				"element": "H" 
			},
			{
				"x": -0.3035169868,
				"y": -1.5638167505,
				"z": -1.6899632839,
				"element": "H" 
			}
		],
		 "valence_orbital": [ 
			{
				"type": "occ",
				"energy": -0.31595,
				"method": "rhf"
			},
			{
				"type": "occ",
				"energy": -0.2957,
				"method": "rhf"
			},
			{
				"type": "occ",
				"energy": -0.28976,
				"method": "rhf"
			},
			{
				"type": "occ",
				"energy": -0.27803,
				"method": "rhf"
			},
			{
				"type": "occ",
				"energy": -0.26261,
				"method": "rhf"
			},
			{
				"type": "unocc",
				"energy": -0.08099,
				"method": "rhf"
			},
			{
				"type": "unocc",
				"energy": -0.03719,
				"method": "rhf"
			},
			{
				"type": "unocc",
				"energy": 0.01728,
				"method": "rhf"
			},
			{
				"type": "unocc",
				"energy": 0.03669,
				"method": "rhf"
			},
			{
				"type": "unocc",
				"energy": 0.03954,
				"method": "rhf"
			}
		],
		"cosmo_sigma_profile": { 
			"-0.025": 0.0,
			"-0.024": 0.0,
			"-0.023": 0.0,
			"-0.022": 0.0,
			"-0.021": 0.0,
			"-0.02": 0.0,
			"-0.019": 0.601363979016,
			"-0.018": 2.1013940242,
			"-0.017": 1.02758577687,
			"-0.016": 1.28255937802,
			"-0.015": 1.37886220047,
			"-0.014": 1.31082529562,
			"-0.013": 1.39838771997,
			"-0.012": 1.17461519502,
			"-0.011": 0.843680104308,
			"-0.01": 1.51530204761,
			"-0.009": 2.20834487087,
			"-0.008": 2.75616213162,
			"-0.007": 9.24207718953,
			"-0.006": 10.1453863285,
			"-0.005": 10.6472342371,
			"-0.004": 10.8597731202,
			"-0.003": 8.99729288437,
			"-0.002": 8.72309741322,
			"-0.001": 10.9302701589,
			"0.0": 16.4394753094,
			"0.001": 13.7969533448,
			"0.002": 5.2793437591,
			"0.003": 5.06031553122,
			"0.004": 5.80731486936,
			"0.005": 4.57988282897,
			"0.006": 7.00800947437,
			"0.007": 8.0203154865,
			"0.008": 5.03012794135,
			"0.009": 4.68114096562,
			"0.01": 5.12911124188,
			"0.011": 8.52894230139,
			"0.012": 3.58815457499,
			"0.013": 1.04293289507,
			"0.014": 0.856975464599,
			"0.015": 0.773139781318,
			"0.016": 0.44043208455,
			"0.017": 0.0,
			"0.018": 0.0,
			"0.019": 0.0,
			"0.02": 0.0,
			"0.021": 0.0,
			"0.022": 0.0,
			"0.023": 0.0,
			"0.024": 0.0,
			"0.025": 0.0
		}
	}
}
