{
	 "smiles": "CC1(C)C(CCC2(C)C1CCC1(C)C2C(=O)C=C2C3CC(C)(CCC3(C)CCC12C)C(O)=O)OC(=O)CCC(O)=O", 
	 "Tm": 565.15, 
	 "num_atms": 91, 
	 "gaussian": { 
		 "optdone": 1, 
		 "sigma_profile": "yes", 
		 "theory": "DFT", 
		 "functional": "B3LYP", 
		 "basiset": "6-31G**", 
		 "properties": { 
			 "R2extent": 25425.1793, 
			 "electric_dipole_moment_norm": 7.22970524019, 
			 "electric_quadrupole_moment_norm": 24.2892095575, 
			 "total_energy": -1852.35222633, 
			 "HOMO_LUMO_gap": 0.18232, 
			 "cosmo_polarized_energy": -31.68, 
			 "cosmo_cavitation_energy": 75.04, 
			 "cosmo_dispersion_energy": -47.42, 
			 "cosmo_repulsion_energy": 3.38, 
			 "cosmo_total_nonelectrostatic_energy": 31.0, 
			 "SMD_solvation_energy": 13.99 
		},
		"coords": [
			{
				"x": -4.2948601879,
				"y": -2.8111364708,
				"z": -0.6324228511,
				"element": "C" 
			},
			{
				"x": -3.6552589032,
				"y": -2.095265569,
				"z": 0.5893322762,
				"element": "C" 
			},
			{
				"x": -4.6247863366,
				"y": -0.9272214706,
				"z": 0.8963461011,
				"element": "C" 
			},
			{
				"x": -3.6722182381,
				"y": -3.0979723053,
				"z": 1.777462196,
				"element": "C" 
			},
			{
				"x": -2.5402888751,
				"y": -4.1278877176,
				"z": 1.7531441945,
				"element": "C" 
			},
			{
				"x": -1.1492832963,
				"y": -3.5199063214,
				"z": 1.5086686278,
				"element": "C" 
			},
			{
				"x": -1.0733940413,
				"y": -2.6587868608,
				"z": 0.2139142117,
				"element": "C" 
			},
			{
				"x": -1.2790546369,
				"y": -3.6243517171,
				"z": -0.9787913324,
				"element": "C" 
			},
			{
				"x": -2.1936400123,
				"y": -1.5555776966,
				"z": 0.2812613184,
				"element": "C" 
			},
			{
				"x": -1.7910082682,
				"y": -0.4428520933,
				"z": 1.270570339,
				"element": "C" 
			},
			{
				"x": -0.4672890763,
				"y": 0.2236209146,
				"z": 0.9162337042,
				"element": "C" 
			},
			{
				"x": 0.7531205044,
				"y": -0.7215328695,
				"z": 0.9110418698,
				"element": "C" 
			},
			{
				"x": 1.1078389328,
				"y": -1.0958230857,
				"z": 2.3696289552,
				"element": "C" 
			},
			{
				"x": 0.4206902049,
				"y": -2.0371747876,
				"z": 0.0886594995,
				"element": "C" 
			},
			{
				"x": 0.9138538163,
				"y": -1.9422826598,
				"z": -1.3775250102,
				"element": "C" 
			},
			{
				"x": 1.1808875888,
				"y": -2.9446133605,
				"z": -2.0305007186,
				"element": "O" 
			},
			{
				"x": 1.1504741389,
				"y": -0.6109338779,
				"z": -1.961643323,
				"element": "C" 
			},
			{
				"x": 1.6836421751,
				"y": 0.3651110271,
				"z": -1.2078149369,
				"element": "C" 
			},
			{
				"x": 1.9664249985,
				"y": 1.7344189281,
				"z": -1.8175123433,
				"element": "C" 
			},
			{
				"x": 0.6754768834,
				"y": 2.5961354207,
				"z": -1.805886092,
				"element": "C" 
			},
			{
				"x": 0.7891533935,
				"y": 3.8661371932,
				"z": -2.7099229932,
				"element": "C" 
			},
			{
				"x": -0.2545368135,
				"y": 4.9048326519,
				"z": -2.2480003367,
				"element": "C" 
			},
			{
				"x": 2.2206445148,
				"y": 4.4617396478,
				"z": -2.6051551443,
				"element": "C" 
			},
			{
				"x": 2.9070689038,
				"y": 4.046871707,
				"z": -1.3020311752,
				"element": "C" 
			},
			{
				"x": 3.1901942363,
				"y": 2.5197075794,
				"z": -1.214270478,
				"element": "C" 
			},
			{
				"x": 4.4441124765,
				"y": 2.1890359797,
				"z": -2.050743981,
				"element": "C" 
			},
			{
				"x": 3.4654198102,
				"y": 2.1488772648,
				"z": 0.2772333847,
				"element": "C" 
			},
			{
				"x": 2.3299657104,
				"y": 1.3858705064,
				"z": 0.9740617699,
				"element": "C" 
			},
			{
				"x": 1.9977592523,
				"y": 0.0506489208,
				"z": 0.257201621,
				"element": "C" 
			},
			{
				"x": 3.2677644506,
				"y": -0.8498009646,
				"z": 0.3045706197,
				"element": "C" 
			},
			{
				"x": 0.5327860389,
				"y": 3.4017907141,
				"z": -4.1605067305,
				"element": "C" 
			},
			{
				"x": -0.7662459652,
				"y": 3.2967976913,
				"z": -4.5472803263,
				"element": "O" 
			},
			{
				"x": 1.4020751058,
				"y": 3.0741959659,
				"z": -4.9331190862,
				"element": "O" 
			},
			{
				"x": -3.5624816737,
				"y": -2.3886288074,
				"z": 3.0574564782,
				"element": "O" 
			},
			{
				"x": -4.6333446776,
				"y": -2.4019356285,
				"z": 3.8821895342,
				"element": "C" 
			},
			{
				"x": -5.7053405377,
				"y": -2.9020873994,
				"z": 3.6200710046,
				"element": "O" 
			},
			{
				"x": -4.3534472125,
				"y": -1.6972299311,
				"z": 5.2018013669,
				"element": "C" 
			},
			{
				"x": -2.901576327,
				"y": -1.2874400963,
				"z": 5.4674017296,
				"element": "C" 
			},
			{
				"x": -1.902363011,
				"y": -2.4253999708,
				"z": 5.4755141164,
				"element": "C" 
			},
			{
				"x": -2.4230472854,
				"y": -3.5655053788,
				"z": 5.9896508156,
				"element": "O" 
			},
			{
				"x": -0.7498426814,
				"y": -2.3477475683,
				"z": 5.1089165696,
				"element": "O" 
			},
			{
				"x": -4.1600062903,
				"y": -2.212623834,
				"z": -1.5389904504,
				"element": "H" 
			},
			{
				"x": -5.3714426813,
				"y": -2.9262497633,
				"z": -0.469816612,
				"element": "H" 
			},
			{
				"x": -3.8953285295,
				"y": -3.8032406735,
				"z": -0.8331312401,
				"element": "H" 
			},
			{
				"x": -5.6376720988,
				"y": -1.3158913453,
				"z": 1.0389474546,
				"element": "H" 
			},
			{
				"x": -4.3615911076,
				"y": -0.3707112515,
				"z": 1.7954686048,
				"element": "H" 
			},
			{
				"x": -4.6510950254,
				"y": -0.22358527,
				"z": 0.0565174597,
				"element": "H" 
			},
			{
				"x": -4.6410132603,
				"y": -3.6022504355,
				"z": 1.7954907667,
				"element": "H" 
			},
			{
				"x": -2.5481033889,
				"y": -4.6621421009,
				"z": 2.7098920966,
				"element": "H" 
			},
			{
				"x": -2.7775332127,
				"y": -4.8774411624,
				"z": 0.9919246839,
				"element": "H" 
			},
			{
				"x": -0.8730365236,
				"y": -2.9370404779,
				"z": 2.3881270895,
				"element": "H" 
			},
			{
				"x": -0.4152022638,
				"y": -4.3319691577,
				"z": 1.4367542413,
				"element": "H" 
			},
			{
				"x": -0.3868572071,
				"y": -4.2292144316,
				"z": -1.1377764509,
				"element": "H" 
			},
			{
				"x": -2.1094237306,
				"y": -4.3047262174,
				"z": -0.8107655967,
				"element": "H" 
			},
			{
				"x": -1.4734655683,
				"y": -3.0924699602,
				"z": -1.9141640022,
				"element": "H" 
			},
			{
				"x": -2.2500614285,
				"y": -1.0883853094,
				"z": -0.7144474957,
				"element": "H" 
			},
			{
				"x": -2.5513563941,
				"y": 0.3414385591,
				"z": 1.2683563348,
				"element": "H" 
			},
			{
				"x": -1.7657924224,
				"y": -0.8344257714,
				"z": 2.2917163043,
				"element": "H" 
			},
			{
				"x": -0.5770374603,
				"y": 0.6871143408,
				"z": -0.0703354427,
				"element": "H" 
			},
			{
				"x": -0.292288873,
				"y": 1.0386785041,
				"z": 1.627607193,
				"element": "H" 
			},
			{
				"x": 1.4934831261,
				"y": -0.2316058329,
				"z": 2.9175576401,
				"element": "H" 
			},
			{
				"x": 1.8643603039,
				"y": -1.884194474,
				"z": 2.4164372646,
				"element": "H" 
			},
			{
				"x": 0.2455088842,
				"y": -1.4480324055,
				"z": 2.9343224311,
				"element": "H" 
			},
			{
				"x": 1.0476464588,
				"y": -2.8400292344,
				"z": 0.4933445448,
				"element": "H" 
			},
			{
				"x": 1.0225998527,
				"y": -0.5152013031,
				"z": -3.0376063407,
				"element": "H" 
			},
			{
				"x": 2.1859625664,
				"y": 1.5586085259,
				"z": -2.8767439209,
				"element": "H" 
			},
			{
				"x": 0.4399736048,
				"y": 2.9194254048,
				"z": -0.7861512165,
				"element": "H" 
			},
			{
				"x": -0.1720021033,
				"y": 1.9859506349,
				"z": -2.1368909562,
				"element": "H" 
			},
			{
				"x": 0.0372739308,
				"y": 5.3069271991,
				"z": -1.272853374,
				"element": "H" 
			},
			{
				"x": -0.3297469815,
				"y": 5.7451830683,
				"z": -2.9459170453,
				"element": "H" 
			},
			{
				"x": -1.2566505021,
				"y": 4.4758035728,
				"z": -2.1084289417,
				"element": "H" 
			},
			{
				"x": 2.8051366846,
				"y": 4.1212516763,
				"z": -3.4626520463,
				"element": "H" 
			},
			{
				"x": 2.1679602813,
				"y": 5.5543731774,
				"z": -2.6773733807,
				"element": "H" 
			},
			{
				"x": 3.8555693526,
				"y": 4.5858016521,
				"z": -1.1888238459,
				"element": "H" 
			},
			{
				"x": 2.2875983461,
				"y": 4.3542009792,
				"z": -0.4479406896,
				"element": "H" 
			},
			{
				"x": 5.3337948588,
				"y": 2.6649623738,
				"z": -1.6227676272,
				"element": "H" 
			},
			{
				"x": 4.6238718588,
				"y": 1.1087066779,
				"z": -2.0787056316,
				"element": "H" 
			},
			{
				"x": 4.3437235984,
				"y": 2.5291082462,
				"z": -3.0865728019,
				"element": "H" 
			},
			{
				"x": 3.6733569978,
				"y": 3.0657285361,
				"z": 0.8420011376,
				"element": "H" 
			},
			{
				"x": 4.3828776535,
				"y": 1.5562577991,
				"z": 0.3441687946,
				"element": "H" 
			},
			{
				"x": 2.6269712189,
				"y": 1.1939050076,
				"z": 2.0093589812,
				"element": "H" 
			},
			{
				"x": 1.4434444511,
				"y": 2.025708301,
				"z": 1.0240017437,
				"element": "H" 
			},
			{
				"x": 4.0652585344,
				"y": -0.4493738677,
				"z": -0.3245739762,
				"element": "H" 
			},
			{
				"x": 3.6563047527,
				"y": -0.9230472214,
				"z": 1.3249495909,
				"element": "H" 
			},
			{
				"x": 3.0680315037,
				"y": -1.860569406,
				"z": -0.0558580793,
				"element": "H" 
			},
			{
				"x": -1.353457878,
				"y": 3.6117175013,
				"z": -3.846512667,
				"element": "H" 
			},
			{
				"x": -4.9968191273,
				"y": -0.8100819594,
				"z": 5.2272502435,
				"element": "H" 
			},
			{
				"x": -4.722017931,
				"y": -2.3625726627,
				"z": 5.9869439243,
				"element": "H" 
			},
			{
				"x": -2.5442570992,
				"y": -0.5583826685,
				"z": 4.7387522389,
				"element": "H" 
			},
			{
				"x": -2.8453675823,
				"y": -0.8104248754,
				"z": 6.4546307189,
				"element": "H" 
			},
			{
				"x": -1.7066272281,
				"y": -4.2223661691,
				"z": 5.9730729033,
				"element": "H" 
			}
		],
		 "valence_orbital": [ 
			{
				"type": "occ",
				"energy": -0.27713,
				"method": "rhf"
			},
			{
				"type": "occ",
				"energy": -0.27175,
				"method": "rhf"
			},
			{
				"type": "occ",
				"energy": -0.26728,
				"method": "rhf"
			},
			{
				"type": "occ",
				"energy": -0.24591,
				"method": "rhf"
			},
			{
				"type": "occ",
				"energy": -0.22244,
				"method": "rhf"
			},
			{
				"type": "unocc",
				"energy": -0.04012,
				"method": "rhf"
			},
			{
				"type": "unocc",
				"energy": -0.00108,
				"method": "rhf"
			},
			{
				"type": "unocc",
				"energy": 0.00741,
				"method": "rhf"
			},
			{
				"type": "unocc",
				"energy": 0.00809,
				"method": "rhf"
			},
			{
				"type": "unocc",
				"energy": 0.04262,
				"method": "rhf"
			}
		],
		"cosmo_sigma_profile": { 
			"-0.025": 0.0,
			"-0.024": 0.0,
			"-0.023": 0.0,
			"-0.022": 0.0,
			"-0.021": 0.0,
			"-0.02": 0.0,
			"-0.019": 0.0,
			"-0.018": 0.630880586802,
			"-0.017": 1.33107846598,
			"-0.016": 1.81605961508,
			"-0.015": 2.16635496495,
			"-0.014": 1.19209168469,
			"-0.013": 1.4995010154,
			"-0.012": 1.51425546725,
			"-0.011": 1.82695421947,
			"-0.01": 2.29604180757,
			"-0.009": 1.38535755688,
			"-0.008": 2.65598561162,
			"-0.007": 7.51284216543,
			"-0.006": 10.8086905658,
			"-0.005": 19.7561179553,
			"-0.004": 34.2426979779,
			"-0.003": 60.4953723198,
			"-0.002": 83.6877466903,
			"-0.001": 81.733654859,
			"0.0": 68.5011908421,
			"0.001": 53.494953406,
			"0.002": 26.9916627852,
			"0.003": 13.922807005,
			"0.004": 10.653128195,
			"0.005": 10.0726958237,
			"0.006": 8.56150741673,
			"0.007": 8.09036410961,
			"0.008": 9.0310208185,
			"0.009": 7.78887604331,
			"0.01": 9.53966053885,
			"0.011": 12.0472380702,
			"0.012": 13.3822700927,
			"0.013": 7.50934154428,
			"0.014": 1.925576645,
			"0.015": 0.208192186584,
			"0.016": 0.0,
			"0.017": 0.0,
			"0.018": 0.0,
			"0.019": 0.0,
			"0.02": 0.0,
			"0.021": 0.0,
			"0.022": 0.0,
			"0.023": 0.0,
			"0.024": 0.0,
			"0.025": 0.0
		}
	}
}
