{
	 "smiles": "O=C(C1=CC2=C(O1)C=CC=C2)C1=NC=CC=C1", 
	 "Tm": 370.15, 
	 "num_atms": 26, 
	 "gaussian": { 
		 "optdone": 1, 
		 "sigma_profile": "yes", 
		 "theory": "DFT", 
		 "functional": "B3LYP", 
		 "basiset": "6-31G**", 
		 "properties": { 
			 "R2extent": 4967.5519, 
			 "electric_dipole_moment_norm": 2.00523238304, 
			 "electric_quadrupole_moment_norm": 18.6829226421, 
			 "total_energy": -744.094288523, 
			 "HOMO_LUMO_gap": 0.14619, 
			 "cosmo_polarized_energy": -11.41, 
			 "cosmo_cavitation_energy": 31.59, 
			 "cosmo_dispersion_energy": -23.18, 
			 "cosmo_repulsion_energy": 1.77, 
			 "cosmo_total_nonelectrostatic_energy": 10.19, 
			 "SMD_solvation_energy": 5.25 
		},
		"coords": [
			{
				"x": 1.5550982411,
				"y": -1.6238376891,
				"z": -0.8232028547,
				"element": "O" 
			},
			{
				"x": 0.6600773355,
				"y": -0.7956431056,
				"z": -0.976939847,
				"element": "C" 
			},
			{
				"x": 0.4427966872,
				"y": 0.2071118268,
				"z": 0.0811902045,
				"element": "C" 
			},
			{
				"x": 1.2462341022,
				"y": 0.4351396135,
				"z": 1.1672187127,
				"element": "C" 
			},
			{
				"x": 0.6149201953,
				"y": 1.4658310122,
				"z": 1.9333649328,
				"element": "C" 
			},
			{
				"x": -0.5673098792,
				"y": 1.7787769534,
				"z": 1.2281223406,
				"element": "C" 
			},
			{
				"x": -0.6720497292,
				"y": 1.018098092,
				"z": 0.1048193444,
				"element": "O" 
			},
			{
				"x": -1.4814024837,
				"y": 2.7407010789,
				"z": 1.649671799,
				"element": "C" 
			},
			{
				"x": -1.1753742371,
				"y": 3.4069564534,
				"z": 2.8327565652,
				"element": "C" 
			},
			{
				"x": -0.0010142528,
				"y": 3.118091461,
				"z": 3.5613739326,
				"element": "C" 
			},
			{
				"x": 0.8996807714,
				"y": 2.1550021309,
				"z": 3.126809453,
				"element": "C" 
			},
			{
				"x": -0.178403446,
				"y": -0.8310793494,
				"z": -2.2272760868,
				"element": "C" 
			},
			{
				"x": -0.8619087071,
				"y": 0.2660761004,
				"z": -2.58540779,
				"element": "N" 
			},
			{
				"x": -1.5616508223,
				"y": 0.2148782516,
				"z": -3.7218775761,
				"element": "C" 
			},
			{
				"x": -1.6239642426,
				"y": -0.9156214269,
				"z": -4.540733814,
				"element": "C" 
			},
			{
				"x": -0.9079708559,
				"y": -2.0513792325,
				"z": -4.1617325805,
				"element": "C" 
			},
			{
				"x": -0.1637734701,
				"y": -2.0094070416,
				"z": -2.9867215645,
				"element": "C" 
			},
			{
				"x": 2.1703276406,
				"y": -0.0856628367,
				"z": 1.3690360684,
				"element": "H" 
			},
			{
				"x": -2.3785092603,
				"y": 2.9532488682,
				"z": 1.0789790268,
				"element": "H" 
			},
			{
				"x": -1.8551760994,
				"y": 4.1679582922,
				"z": 3.2040967755,
				"element": "H" 
			},
			{
				"x": 0.1971609949,
				"y": 3.6628803503,
				"z": 4.4794857964,
				"element": "H" 
			},
			{
				"x": 1.8005986553,
				"y": 1.9373055957,
				"z": 3.6923148304,
				"element": "H" 
			},
			{
				"x": -2.0997378652,
				"y": 1.1212538783,
				"z": -3.9939280703,
				"element": "H" 
			},
			{
				"x": -2.2165257561,
				"y": -0.9000197673,
				"z": -5.4501871894,
				"element": "H" 
			},
			{
				"x": -0.9274638834,
				"y": -2.9496378327,
				"z": -4.7719960714,
				"element": "H" 
			},
			{
				"x": 0.4282403668,
				"y": -2.8499216771,
				"z": -2.6438363378,
				"element": "H" 
			}
		],
		 "valence_orbital": [ 
			{
				"type": "occ",
				"energy": -0.27528,
				"method": "rhf"
			},
			{
				"type": "occ",
				"energy": -0.26719,
				"method": "rhf"
			},
			{
				"type": "occ",
				"energy": -0.2498,
				"method": "rhf"
			},
			{
				"type": "occ",
				"energy": -0.24153,
				"method": "rhf"
			},
			{
				"type": "occ",
				"energy": -0.22583,
				"method": "rhf"
			},
			{
				"type": "unocc",
				"energy": -0.07964,
				"method": "rhf"
			},
			{
				"type": "unocc",
				"energy": -0.03036,
				"method": "rhf"
			},
			{
				"type": "unocc",
				"energy": -0.02003,
				"method": "rhf"
			},
			{
				"type": "unocc",
				"energy": 0.00743,
				"method": "rhf"
			},
			{
				"type": "unocc",
				"energy": 0.02653,
				"method": "rhf"
			}
		],
		"cosmo_sigma_profile": { 
			"-0.025": 0.0,
			"-0.024": 0.0,
			"-0.023": 0.0,
			"-0.022": 0.0,
			"-0.021": 0.0,
			"-0.02": 0.0,
			"-0.019": 0.0,
			"-0.018": 0.0,
			"-0.017": 0.0,
			"-0.016": 0.0,
			"-0.015": 0.0,
			"-0.014": 0.0,
			"-0.013": 0.0,
			"-0.012": 0.0,
			"-0.011": 0.0,
			"-0.01": 0.0,
			"-0.009": 0.0818700906169,
			"-0.008": 2.9244493108,
			"-0.007": 12.4380264723,
			"-0.006": 18.7716658096,
			"-0.005": 18.7965852241,
			"-0.004": 16.8857265459,
			"-0.003": 13.6030558323,
			"-0.002": 15.285674022,
			"-0.001": 17.1009047954,
			"0.0": 22.1215581007,
			"0.001": 29.9229818196,
			"0.002": 25.370709875,
			"0.003": 14.7786232473,
			"0.004": 13.477852168,
			"0.005": 7.08681815242,
			"0.006": 3.60039838675,
			"0.007": 1.99018268088,
			"0.008": 3.42529385736,
			"0.009": 3.88825787778,
			"0.01": 2.94549782493,
			"0.011": 5.09279718391,
			"0.012": 3.17334271773,
			"0.013": 0.846117691753,
			"0.014": 1.13784757298,
			"0.015": 0.740089356884,
			"0.016": 0.211133189974,
			"0.017": 0.0,
			"0.018": 0.0,
			"0.019": 0.0,
			"0.02": 0.0,
			"0.021": 0.0,
			"0.022": 0.0,
			"0.023": 0.0,
			"0.024": 0.0,
			"0.025": 0.0
		}
	}
}
