{
	 "smiles": "CN(C)C1=C(Cl)C=C(N)C=C1", 
	 "Tm": 345.65, 
	 "num_atms": 22, 
	 "gaussian": { 
		 "optdone": 1, 
		 "sigma_profile": "yes", 
		 "theory": "DFT", 
		 "functional": "B3LYP", 
		 "basiset": "6-31G**", 
		 "properties": { 
			 "R2extent": 2596.5101, 
			 "electric_dipole_moment_norm": 3.00281420338, 
			 "electric_quadrupole_moment_norm": 12.2066515097, 
			 "total_energy": -881.165562965, 
			 "HOMO_LUMO_gap": 0.18277, 
			 "cosmo_polarized_energy": -9.99, 
			 "cosmo_cavitation_energy": 26.28, 
			 "cosmo_dispersion_energy": -19.37, 
			 "cosmo_repulsion_energy": 1.56, 
			 "cosmo_total_nonelectrostatic_energy": 8.47, 
			 "SMD_solvation_energy": 3.56 
		},
		"coords": [
			{
				"x": 2.0359728529,
				"y": -0.7692832141,
				"z": -0.7103131656,
				"element": "C" 
			},
			{
				"x": 1.0105707466,
				"y": -0.2333946811,
				"z": -1.6064609175,
				"element": "N" 
			},
			{
				"x": 0.6973169693,
				"y": -1.155564359,
				"z": -2.6868202569,
				"element": "C" 
			},
			{
				"x": -0.0994752322,
				"y": 0.3721326323,
				"z": -0.9579957618,
				"element": "C" 
			},
			{
				"x": 0.0046413619,
				"y": 1.6486954137,
				"z": -0.3698991042,
				"element": "C" 
			},
			{
				"x": 1.5216797726,
				"y": 2.5402817031,
				"z": -0.4472118506,
				"element": "Cl" 
			},
			{
				"x": -1.0656923329,
				"y": 2.2667031341,
				"z": 0.2684306674,
				"element": "C" 
			},
			{
				"x": -2.3206585454,
				"y": 1.6406435743,
				"z": 0.3239895336,
				"element": "C" 
			},
			{
				"x": -3.4167447571,
				"y": 2.2918534401,
				"z": 0.8983816142,
				"element": "N" 
			},
			{
				"x": -2.4549273735,
				"y": 0.3796263693,
				"z": -0.2744820873,
				"element": "C" 
			},
			{
				"x": -1.3653156797,
				"y": -0.2331872494,
				"z": -0.885676658,
				"element": "C" 
			},
			{
				"x": 1.710204601,
				"y": -1.6940794015,
				"z": -0.2012586894,
				"element": "H" 
			},
			{
				"x": 2.9377418225,
				"y": -0.9967937008,
				"z": -1.2887696642,
				"element": "H" 
			},
			{
				"x": 2.3002355813,
				"y": -0.0313859566,
				"z": 0.0479654595,
				"element": "H" 
			},
			{
				"x": 1.610535987,
				"y": -1.3483498412,
				"z": -3.2598772312,
				"element": "H" 
			},
			{
				"x": -0.0396955538,
				"y": -0.7073181544,
				"z": -3.3579889984,
				"element": "H" 
			},
			{
				"x": 0.3106283788,
				"y": -2.134465951,
				"z": -2.347198546,
				"element": "H" 
			},
			{
				"x": -0.9269525935,
				"y": 3.2531560149,
				"z": 0.6991533157,
				"element": "H" 
			},
			{
				"x": -3.1825201157,
				"y": 2.9874560612,
				"z": 1.593522502,
				"element": "H" 
			},
			{
				"x": -4.1510159133,
				"y": 1.6771247532,
				"z": 1.2224917652,
				"element": "H" 
			},
			{
				"x": -3.4168902298,
				"y": -0.1263972287,
				"z": -0.2560403802,
				"element": "H" 
			},
			{
				"x": -1.5004397471,
				"y": -1.2180533587,
				"z": -1.3203415463,
				"element": "H" 
			}
		],
		 "valence_orbital": [ 
			{
				"type": "occ",
				"energy": -0.29886,
				"method": "rhf"
			},
			{
				"type": "occ",
				"energy": -0.29797,
				"method": "rhf"
			},
			{
				"type": "occ",
				"energy": -0.23961,
				"method": "rhf"
			},
			{
				"type": "occ",
				"energy": -0.23425,
				"method": "rhf"
			},
			{
				"type": "occ",
				"energy": -0.18635,
				"method": "rhf"
			},
			{
				"type": "unocc",
				"energy": -0.00358,
				"method": "rhf"
			},
			{
				"type": "unocc",
				"energy": 0.01557,
				"method": "rhf"
			},
			{
				"type": "unocc",
				"energy": 0.04152,
				"method": "rhf"
			},
			{
				"type": "unocc",
				"energy": 0.07911,
				"method": "rhf"
			},
			{
				"type": "unocc",
				"energy": 0.09705,
				"method": "rhf"
			}
		],
		"cosmo_sigma_profile": { 
			"-0.025": 0.0,
			"-0.024": 0.0,
			"-0.023": 0.0,
			"-0.022": 0.0,
			"-0.021": 0.0,
			"-0.02": 0.0,
			"-0.019": 0.0,
			"-0.018": 0.0,
			"-0.017": 0.0,
			"-0.016": 0.0,
			"-0.015": 0.0,
			"-0.014": 0.0,
			"-0.013": 0.324955666931,
			"-0.012": 2.60443199447,
			"-0.011": 3.30552880831,
			"-0.01": 2.52948792077,
			"-0.009": 3.6802705121,
			"-0.008": 2.98042718711,
			"-0.007": 3.31692219908,
			"-0.006": 5.23304816441,
			"-0.005": 7.1483667482,
			"-0.004": 13.3840646874,
			"-0.003": 15.3041944275,
			"-0.002": 19.3548583238,
			"-0.001": 23.7294232783,
			"0.0": 17.8601615536,
			"0.001": 10.5052717566,
			"0.002": 11.0851393877,
			"0.003": 11.8235977166,
			"0.004": 15.0987039692,
			"0.005": 17.4510847313,
			"0.006": 9.31086611367,
			"0.007": 2.71264644412,
			"0.008": 1.90869183103,
			"0.009": 1.51886726746,
			"0.01": 1.47204597802,
			"0.011": 1.73089397656,
			"0.012": 1.31648102454,
			"0.013": 1.47412486073,
			"0.014": 0.772748582394,
			"0.015": 0.265761570138,
			"0.016": 0.0,
			"0.017": 0.0,
			"0.018": 0.0,
			"0.019": 0.0,
			"0.02": 0.0,
			"0.021": 0.0,
			"0.022": 0.0,
			"0.023": 0.0,
			"0.024": 0.0,
			"0.025": 0.0
		}
	}
}
