{
	 "smiles": "COC1=C(C=C(C=C1[N+]([O-])=O)[N+]([O-])=O)[N+]([O-])=O", 
	 "Tm": 342.15, 
	 "num_atms": 22, 
	 "gaussian": { 
		 "optdone": 1, 
		 "sigma_profile": "yes", 
		 "theory": "DFT", 
		 "functional": "B3LYP", 
		 "basiset": "6-31G**", 
		 "properties": { 
			 "R2extent": 5820.2069, 
			 "electric_dipole_moment_norm": 2.31836062337, 
			 "electric_quadrupole_moment_norm": 20.3429588344, 
			 "total_energy": -960.230479433, 
			 "HOMO_LUMO_gap": 0.18261, 
			 "cosmo_polarized_energy": -14.38, 
			 "cosmo_cavitation_energy": 29.12, 
			 "cosmo_dispersion_energy": -20.98, 
			 "cosmo_repulsion_energy": 1.61, 
			 "cosmo_total_nonelectrostatic_energy": 9.76, 
			 "SMD_solvation_energy": 12.39 
		},
		"coords": [
			{
				"x": 2.4117545551,
				"y": 0.0454446622,
				"z": -1.4129665927,
				"element": "C" 
			},
			{
				"x": 1.1599369919,
				"y": 0.0711232832,
				"z": -0.675329508,
				"element": "O" 
			},
			{
				"x": 1.1457769102,
				"y": -0.3272606238,
				"z": 0.6033237061,
				"element": "C" 
			},
			{
				"x": 1.2769576816,
				"y": 0.5899335868,
				"z": 1.676075299,
				"element": "C" 
			},
			{
				"x": 1.1263405536,
				"y": 0.2167946462,
				"z": 3.0057585209,
				"element": "C" 
			},
			{
				"x": 0.8454415684,
				"y": -1.1105676773,
				"z": 3.2967832366,
				"element": "C" 
			},
			{
				"x": 0.6597774641,
				"y": -2.0515828017,
				"z": 2.2940405471,
				"element": "C" 
			},
			{
				"x": 0.8151254635,
				"y": -1.6555139323,
				"z": 0.9715493385,
				"element": "C" 
			},
			{
				"x": 0.5650577692,
				"y": -2.6956301793,
				"z": -0.0468733734,
				"element": "N" 
			},
			{
				"x": -0.2456225245,
				"y": -3.567992886,
				"z": 0.2530591167,
				"element": "O" 
			},
			{
				"x": 1.186587244,
				"y": -2.6379934517,
				"z": -1.1025520709,
				"element": "O" 
			},
			{
				"x": 0.7078528872,
				"y": -1.5239772527,
				"z": 4.7045407738,
				"element": "N" 
			},
			{
				"x": 0.4461112971,
				"y": -2.7043222537,
				"z": 4.9185408813,
				"element": "O" 
			},
			{
				"x": 0.8673946565,
				"y": -0.6583541709,
				"z": 5.560560583,
				"element": "O" 
			},
			{
				"x": 1.5355043972,
				"y": 2.0238302792,
				"z": 1.4338727464,
				"element": "N" 
			},
			{
				"x": 2.2099699171,
				"y": 2.3371455586,
				"z": 0.4586776776,
				"element": "O" 
			},
			{
				"x": 1.065004019,
				"y": 2.8081834519,
				"z": 2.2533961086,
				"element": "O" 
			},
			{
				"x": 2.7803113386,
				"y": -0.9780150681,
				"z": -1.4763298163,
				"element": "H" 
			},
			{
				"x": 3.1307454087,
				"y": 0.7142980505,
				"z": -0.940724538,
				"element": "H" 
			},
			{
				"x": 2.1549183858,
				"y": 0.4129686432,
				"z": -2.4055515507,
				"element": "H" 
			},
			{
				"x": 1.2150038343,
				"y": 0.9513842328,
				"z": 3.795458426,
				"element": "H" 
			},
			{
				"x": 0.3876501814,
				"y": -3.0712960972,
				"z": 2.5332904885,
				"element": "H" 
			}
		],
		 "valence_orbital": [ 
			{
				"type": "occ",
				"energy": -0.33009,
				"method": "rhf"
			},
			{
				"type": "occ",
				"energy": -0.32207,
				"method": "rhf"
			},
			{
				"type": "occ",
				"energy": -0.31572,
				"method": "rhf"
			},
			{
				"type": "occ",
				"energy": -0.3105,
				"method": "rhf"
			},
			{
				"type": "occ",
				"energy": -0.3089,
				"method": "rhf"
			},
			{
				"type": "unocc",
				"energy": -0.12629,
				"method": "rhf"
			},
			{
				"type": "unocc",
				"energy": -0.125,
				"method": "rhf"
			},
			{
				"type": "unocc",
				"energy": -0.106,
				"method": "rhf"
			},
			{
				"type": "unocc",
				"energy": -0.04081,
				"method": "rhf"
			},
			{
				"type": "unocc",
				"energy": -0.03111,
				"method": "rhf"
			}
		],
		"cosmo_sigma_profile": { 
			"-0.025": 0.0,
			"-0.024": 0.0,
			"-0.023": 0.0,
			"-0.022": 0.0,
			"-0.021": 0.0,
			"-0.02": 0.0,
			"-0.019": 0.0,
			"-0.018": 0.0,
			"-0.017": 0.0,
			"-0.016": 0.0,
			"-0.015": 0.0,
			"-0.014": 0.0,
			"-0.013": 0.0,
			"-0.012": 0.0,
			"-0.011": 0.0201485367509,
			"-0.01": 1.57565108569,
			"-0.009": 5.6440060474,
			"-0.008": 6.34556562061,
			"-0.007": 13.0232539794,
			"-0.006": 20.1566692022,
			"-0.005": 22.7589205485,
			"-0.004": 19.1376384969,
			"-0.003": 12.6112146133,
			"-0.002": 7.83083473395,
			"-0.001": 9.04869215847,
			"0.0": 7.70039214635,
			"0.001": 7.79384172531,
			"0.002": 7.72308586823,
			"0.003": 8.79995236382,
			"0.004": 10.6816050549,
			"0.005": 14.7508704139,
			"0.006": 22.1847110598,
			"0.007": 19.4994363225,
			"0.008": 12.5881929225,
			"0.009": 4.87548722853,
			"0.01": 0.0107779460569,
			"0.011": 0.0,
			"0.012": 0.0,
			"0.013": 0.0,
			"0.014": 0.0,
			"0.015": 0.0,
			"0.016": 0.0,
			"0.017": 0.0,
			"0.018": 0.0,
			"0.019": 0.0,
			"0.02": 0.0,
			"0.021": 0.0,
			"0.022": 0.0,
			"0.023": 0.0,
			"0.024": 0.0,
			"0.025": 0.0
		}
	}
}
