{
	 "smiles": "CCCCOC1OC(CON(=O)=O)C(ON(=O)=O)C(ON(=O)=O)C1ON(=O)=O", 
	 "Tm": 472.15, 
	 "num_atms": 44, 
	 "gaussian": { 
		 "optdone": 1, 
		 "sigma_profile": "yes", 
		 "theory": "DFT", 
		 "functional": "B3LYP", 
		 "basiset": "6-31G**", 
		 "properties": { 
			 "R2extent": 12460.7813, 
			 "electric_dipole_moment_norm": 5.26102903718, 
			 "electric_quadrupole_moment_norm": 16.4408700229, 
			 "total_energy": -1662.24995451, 
			 "HOMO_LUMO_gap": 0.2104, 
			 "cosmo_polarized_energy": -19.86, 
			 "cosmo_cavitation_energy": 52.58, 
			 "cosmo_dispersion_energy": -32.64, 
			 "cosmo_repulsion_energy": 2.61, 
			 "cosmo_total_nonelectrostatic_energy": 22.55, 
			 "SMD_solvation_energy": 19.86 
		},
		"coords": [
			{
				"x": -4.4165487399,
				"y": 3.6047981477,
				"z": 1.840371901,
				"element": "C" 
			},
			{
				"x": -2.9621756998,
				"y": 3.1316398294,
				"z": 1.7621547293,
				"element": "C" 
			},
			{
				"x": -2.7293039263,
				"y": 1.8007386381,
				"z": 2.4887983036,
				"element": "C" 
			},
			{
				"x": -1.2934050144,
				"y": 1.3016840028,
				"z": 2.4192522268,
				"element": "C" 
			},
			{
				"x": -0.9695379791,
				"y": 1.0327843278,
				"z": 1.0440573737,
				"element": "O" 
			},
			{
				"x": 0.3427352782,
				"y": 0.6188941515,
				"z": 0.8280491762,
				"element": "C" 
			},
			{
				"x": 0.5891761443,
				"y": -0.7008463432,
				"z": 1.2930911856,
				"element": "O" 
			},
			{
				"x": 0.0701924464,
				"y": -1.7199493738,
				"z": 0.4456882758,
				"element": "C" 
			},
			{
				"x": 0.0725094837,
				"y": -3.0244216086,
				"z": 1.2268763317,
				"element": "C" 
			},
			{
				"x": 1.4513200076,
				"y": -3.3564845651,
				"z": 1.4735485993,
				"element": "O" 
			},
			{
				"x": 1.6270601593,
				"y": -4.6280861615,
				"z": 2.0888453038,
				"element": "N" 
			},
			{
				"x": 2.7864912509,
				"y": -4.9003314467,
				"z": 2.2609717863,
				"element": "O" 
			},
			{
				"x": 0.6237066909,
				"y": -5.2543993857,
				"z": 2.3594664702,
				"element": "O" 
			},
			{
				"x": 0.8964517534,
				"y": -1.7688613698,
				"z": -0.8668897757,
				"element": "C" 
			},
			{
				"x": 0.0285215431,
				"y": -2.0828079801,
				"z": -1.9765916763,
				"element": "O" 
			},
			{
				"x": 0.0273666678,
				"y": -3.4611040186,
				"z": -2.3948871795,
				"element": "N" 
			},
			{
				"x": -0.6622922132,
				"y": -3.631974453,
				"z": -3.3623293142,
				"element": "O" 
			},
			{
				"x": 0.6810061937,
				"y": -4.2467566836,
				"z": -1.7438965775,
				"element": "O" 
			},
			{
				"x": 1.5073956281,
				"y": -0.3881192137,
				"z": -1.1997374043,
				"element": "C" 
			},
			{
				"x": 2.7657213642,
				"y": -0.2015392197,
				"z": -0.5305060365,
				"element": "O" 
			},
			{
				"x": 3.8905141551,
				"y": -0.7818268808,
				"z": -1.210437151,
				"element": "N" 
			},
			{
				"x": 4.9254678804,
				"y": -0.5538786102,
				"z": -0.6474776473,
				"element": "O" 
			},
			{
				"x": 3.6637564414,
				"y": -1.4095100856,
				"z": -2.2238539173,
				"element": "O" 
			},
			{
				"x": 0.5842975095,
				"y": 0.7199092191,
				"z": -0.6921878326,
				"element": "C" 
			},
			{
				"x": 1.1170325073,
				"y": 2.0318294893,
				"z": -0.9138588044,
				"element": "O" 
			},
			{
				"x": 0.845596935,
				"y": 2.5784371992,
				"z": -2.2155259498,
				"element": "N" 
			},
			{
				"x": 1.2758613019,
				"y": 3.693338818,
				"z": -2.3330511772,
				"element": "O" 
			},
			{
				"x": 0.24701036,
				"y": 1.877382864,
				"z": -3.0034805457,
				"element": "O" 
			},
			{
				"x": -5.096203765,
				"y": 2.8748875357,
				"z": 1.386074283,
				"element": "H" 
			},
			{
				"x": -4.7337279038,
				"y": 3.7489465686,
				"z": 2.8796092417,
				"element": "H" 
			},
			{
				"x": -4.5534969375,
				"y": 4.5559603158,
				"z": 1.3165261772,
				"element": "H" 
			},
			{
				"x": -2.6615080713,
				"y": 3.0227658403,
				"z": 0.7141654127,
				"element": "H" 
			},
			{
				"x": -2.3019261195,
				"y": 3.8963568187,
				"z": 2.1936549431,
				"element": "H" 
			},
			{
				"x": -3.3899539435,
				"y": 1.0278338537,
				"z": 2.0748726745,
				"element": "H" 
			},
			{
				"x": -2.9953303176,
				"y": 1.9020797519,
				"z": 3.5494054147,
				"element": "H" 
			},
			{
				"x": -1.1642255407,
				"y": 0.3868880089,
				"z": 3.0104248167,
				"element": "H" 
			},
			{
				"x": -0.5959688212,
				"y": 2.0588410478,
				"z": 2.8095846259,
				"element": "H" 
			},
			{
				"x": 1.0615813636,
				"y": 1.2406153982,
				"z": 1.3744843667,
				"element": "H" 
			},
			{
				"x": -0.9757993271,
				"y": -1.5032783963,
				"z": 0.1846407147,
				"element": "H" 
			},
			{
				"x": -0.4574058173,
				"y": -2.8936629312,
				"z": 2.1738319249,
				"element": "H" 
			},
			{
				"x": -0.404816435,
				"y": -3.8199237361,
				"z": 0.6499670934,
				"element": "H" 
			},
			{
				"x": 1.6931564685,
				"y": -2.5091235996,
				"z": -0.8081176183,
				"element": "H" 
			},
			{
				"x": 1.6432296352,
				"y": -0.3123306823,
				"z": -2.2792404682,
				"element": "H" 
			},
			{
				"x": -0.3733325973,
				"y": 0.6205049185,
				"z": -1.2095442768,
				"element": "H" 
			}
		],
		 "valence_orbital": [ 
			{
				"type": "occ",
				"energy": -0.33619,
				"method": "rhf"
			},
			{
				"type": "occ",
				"energy": -0.33148,
				"method": "rhf"
			},
			{
				"type": "occ",
				"energy": -0.32657,
				"method": "rhf"
			},
			{
				"type": "occ",
				"energy": -0.31011,
				"method": "rhf"
			},
			{
				"type": "occ",
				"energy": -0.30298,
				"method": "rhf"
			},
			{
				"type": "unocc",
				"energy": -0.09258,
				"method": "rhf"
			},
			{
				"type": "unocc",
				"energy": -0.0881,
				"method": "rhf"
			},
			{
				"type": "unocc",
				"energy": -0.08578,
				"method": "rhf"
			},
			{
				"type": "unocc",
				"energy": -0.07578,
				"method": "rhf"
			},
			{
				"type": "unocc",
				"energy": -0.00398,
				"method": "rhf"
			}
		],
		"cosmo_sigma_profile": { 
			"-0.025": 0.0,
			"-0.024": 0.0,
			"-0.023": 0.0,
			"-0.022": 0.0,
			"-0.021": 0.0,
			"-0.02": 0.0,
			"-0.019": 0.0,
			"-0.018": 0.0,
			"-0.017": 0.0,
			"-0.016": 0.0,
			"-0.015": 0.0,
			"-0.014": 0.0614247974652,
			"-0.013": 0.349646962202,
			"-0.012": 1.50493195006,
			"-0.011": 3.29463097141,
			"-0.01": 4.0290203846,
			"-0.009": 7.94281177638,
			"-0.008": 13.7180190196,
			"-0.007": 14.5680838174,
			"-0.006": 14.570125655,
			"-0.005": 14.1205610676,
			"-0.004": 21.1433282921,
			"-0.003": 29.1059683687,
			"-0.002": 32.6887140977,
			"-0.001": 29.6312766216,
			"0.0": 30.5533331822,
			"0.001": 29.7057356129,
			"0.002": 19.2411790449,
			"0.003": 22.9016196499,
			"0.004": 27.5055383355,
			"0.005": 45.8630056062,
			"0.006": 35.8665330284,
			"0.007": 11.6896503644,
			"0.008": 2.41543192019,
			"0.009": 1.40463658939,
			"0.01": 0.470568367025,
			"0.011": 0.0,
			"0.012": 0.0,
			"0.013": 0.0,
			"0.014": 0.0,
			"0.015": 0.0,
			"0.016": 0.0,
			"0.017": 0.0,
			"0.018": 0.0,
			"0.019": 0.0,
			"0.02": 0.0,
			"0.021": 0.0,
			"0.022": 0.0,
			"0.023": 0.0,
			"0.024": 0.0,
			"0.025": 0.0
		}
	}
}
