{
	 "smiles": "OC1=CC=C(C2=C1C(=O)C1=C(O)C=CC(=C1C2=O)[N+]([O-])=O)[N+]([O-])=O", 
	 "Tm": 569.15, 
	 "num_atms": 30, 
	 "gaussian": { 
		 "optdone": 1, 
		 "sigma_profile": "yes", 
		 "theory": "DFT", 
		 "functional": "B3LYP", 
		 "basiset": "6-31G**", 
		 "properties": { 
			 "R2extent": 7060.9101, 
			 "electric_dipole_moment_norm": 7.10058397387, 
			 "electric_quadrupole_moment_norm": 18.9947499718, 
			 "total_energy": -1248.19489812, 
			 "HOMO_LUMO_gap": 0.12333, 
			 "cosmo_polarized_energy": -21.98, 
			 "cosmo_cavitation_energy": 36.46, 
			 "cosmo_dispersion_energy": -26.55, 
			 "cosmo_repulsion_energy": 1.91, 
			 "cosmo_total_nonelectrostatic_energy": 11.83, 
			 "SMD_solvation_energy": 11.58 
		},
		"coords": [
			{
				"x": -0.5417932659,
				"y": 4.1043843229,
				"z": -0.7351929898,
				"element": "O" 
			},
			{
				"x": -0.4134814255,
				"y": 3.0878054316,
				"z": 0.1144180958,
				"element": "C" 
			},
			{
				"x": -0.2548007375,
				"y": 3.389714099,
				"z": 1.4796892786,
				"element": "C" 
			},
			{
				"x": -0.1072251309,
				"y": 2.3732893854,
				"z": 2.4028082417,
				"element": "C" 
			},
			{
				"x": -0.1149794885,
				"y": 1.0336349575,
				"z": 1.9912695009,
				"element": "C" 
			},
			{
				"x": -0.303522341,
				"y": 0.6905965349,
				"z": 0.6556881626,
				"element": "C" 
			},
			{
				"x": -0.437949311,
				"y": 1.7253627608,
				"z": -0.3013596274,
				"element": "C" 
			},
			{
				"x": -0.5592485366,
				"y": 1.4013449937,
				"z": -1.7241860813,
				"element": "C" 
			},
			{
				"x": -0.7003809626,
				"y": 2.3278279938,
				"z": -2.5706062328,
				"element": "O" 
			},
			{
				"x": -0.4445521299,
				"y": 0.0129123083,
				"z": -2.174914813,
				"element": "C" 
			},
			{
				"x": -0.4264133715,
				"y": -0.278853417,
				"z": -3.5692541518,
				"element": "C" 
			},
			{
				"x": -0.5550246318,
				"y": 0.6591065275,
				"z": -4.5049142499,
				"element": "O" 
			},
			{
				"x": -0.2742263429,
				"y": -1.6120513417,
				"z": -3.9931836707,
				"element": "C" 
			},
			{
				"x": -0.1273066795,
				"y": -2.6233118218,
				"z": -3.0643284047,
				"element": "C" 
			},
			{
				"x": -0.1289972727,
				"y": -2.3338179723,
				"z": -1.6930830592,
				"element": "C" 
			},
			{
				"x": -0.3106285388,
				"y": -1.0337020165,
				"z": -1.2307222881,
				"element": "C" 
			},
			{
				"x": -0.5785570677,
				"y": -0.7156913182,
				"z": 0.2109072604,
				"element": "C" 
			},
			{
				"x": -1.139002533,
				"y": -1.5102029754,
				"z": 0.9394254354,
				"element": "O" 
			},
			{
				"x": 0.1520671593,
				"y": -3.4603680462,
				"z": -0.7852755453,
				"element": "N" 
			},
			{
				"x": -0.3497901837,
				"y": -4.5424641073,
				"z": -1.0869426767,
				"element": "O" 
			},
			{
				"x": 0.9093179971,
				"y": -3.2555974613,
				"z": 0.1548207721,
				"element": "O" 
			},
			{
				"x": 0.1673562493,
				"y": 0.0271030061,
				"z": 3.0301826341,
				"element": "N" 
			},
			{
				"x": -0.3276616644,
				"y": 0.232405845,
				"z": 4.1377061229,
				"element": "O" 
			},
			{
				"x": 0.9189803195,
				"y": -0.8941266463,
				"z": 2.7376270074,
				"element": "O" 
			},
			{
				"x": -0.6457415012,
				"y": 3.7193907591,
				"z": -1.6409525824,
				"element": "H" 
			},
			{
				"x": -0.2441508454,
				"y": 4.4319269281,
				"z": 1.7777890472,
				"element": "H" 
			},
			{
				"x": 0.0237558128,
				"y": 2.5895140402,
				"z": 3.4566762603,
				"element": "H" 
			},
			{
				"x": -0.6548322203,
				"y": 1.5269184832,
				"z": -4.0397749046,
				"element": "H" 
			},
			{
				"x": -0.26820143,
				"y": -1.8153536405,
				"z": -5.057989625,
				"element": "H" 
			},
			{
				"x": -0.001509926,
				"y": -3.6539976127,
				"z": -3.3748269167,
				"element": "H" 
			}
		],
		 "valence_orbital": [ 
			{
				"type": "occ",
				"energy": -0.30335,
				"method": "rhf"
			},
			{
				"type": "occ",
				"energy": -0.30296,
				"method": "rhf"
			},
			{
				"type": "occ",
				"energy": -0.29095,
				"method": "rhf"
			},
			{
				"type": "occ",
				"energy": -0.27412,
				"method": "rhf"
			},
			{
				"type": "occ",
				"energy": -0.26481,
				"method": "rhf"
			},
			{
				"type": "unocc",
				"energy": -0.14148,
				"method": "rhf"
			},
			{
				"type": "unocc",
				"energy": -0.10147,
				"method": "rhf"
			},
			{
				"type": "unocc",
				"energy": -0.0872,
				"method": "rhf"
			},
			{
				"type": "unocc",
				"energy": -0.06061,
				"method": "rhf"
			},
			{
				"type": "unocc",
				"energy": -0.0597,
				"method": "rhf"
			}
		],
		"cosmo_sigma_profile": { 
			"-0.025": 0.0,
			"-0.024": 0.0,
			"-0.023": 0.0,
			"-0.022": 0.0,
			"-0.021": 0.0,
			"-0.02": 0.0,
			"-0.019": 0.0,
			"-0.018": 0.0,
			"-0.017": 0.0,
			"-0.016": 0.0,
			"-0.015": 0.0,
			"-0.014": 0.0,
			"-0.013": 0.0,
			"-0.012": 0.0,
			"-0.011": 0.0202855633029,
			"-0.01": 1.37606295716,
			"-0.009": 9.75663457102,
			"-0.008": 12.3787835555,
			"-0.007": 14.5402943664,
			"-0.006": 17.3054322274,
			"-0.005": 15.1961522027,
			"-0.004": 20.3303202378,
			"-0.003": 22.6124182593,
			"-0.002": 22.5643122651,
			"-0.001": 22.8602509659,
			"0.0": 15.0043145519,
			"0.001": 10.3968031562,
			"0.002": 10.1047562196,
			"0.003": 8.5612306847,
			"0.004": 8.70915300443,
			"0.005": 10.0367274296,
			"0.006": 13.4909479863,
			"0.007": 27.5682986024,
			"0.008": 19.0325262708,
			"0.009": 12.3886699394,
			"0.01": 1.46678337785,
			"0.011": 0.0,
			"0.012": 0.0,
			"0.013": 0.0,
			"0.014": 0.0,
			"0.015": 0.0,
			"0.016": 0.0,
			"0.017": 0.0,
			"0.018": 0.0,
			"0.019": 0.0,
			"0.02": 0.0,
			"0.021": 0.0,
			"0.022": 0.0,
			"0.023": 0.0,
			"0.024": 0.0,
			"0.025": 0.0
		}
	}
}
