{
	 "smiles": "CNC(=O)NC(=O)CCCCl", 
	 "Tm": 396.15, 
	 "num_atms": 22, 
	 "gaussian": { 
		 "optdone": 1, 
		 "sigma_profile": "yes", 
		 "theory": "DFT", 
		 "functional": "B3LYP", 
		 "basiset": "6-31G**", 
		 "properties": { 
			 "R2extent": 3539.1131, 
			 "electric_dipole_moment_norm": 4.72698699914, 
			 "electric_quadrupole_moment_norm": 15.9315021423, 
			 "total_energy": -955.452231878, 
			 "HOMO_LUMO_gap": 0.24447, 
			 "cosmo_polarized_energy": -18.64, 
			 "cosmo_cavitation_energy": 27.5, 
			 "cosmo_dispersion_energy": -20.14, 
			 "cosmo_repulsion_energy": 1.67, 
			 "cosmo_total_nonelectrostatic_energy": 9.03, 
			 "SMD_solvation_energy": 5.65 
		},
		"coords": [
			{
				"x": -2.2607535,
				"y": 3.2525820052,
				"z": -0.4554971672,
				"element": "C" 
			},
			{
				"x": -1.600690648,
				"y": 2.0034517353,
				"z": -0.0951893907,
				"element": "N" 
			},
			{
				"x": -1.9296594639,
				"y": 1.3979367231,
				"z": 1.087741462,
				"element": "C" 
			},
			{
				"x": -2.6877020031,
				"y": 1.8869590231,
				"z": 1.9096283069,
				"element": "O" 
			},
			{
				"x": -1.350486336,
				"y": 0.1306194156,
				"z": 1.3483495757,
				"element": "N" 
			},
			{
				"x": -0.1667155616,
				"y": -0.5191029641,
				"z": 1.0006458886,
				"element": "C" 
			},
			{
				"x": 0.1233688114,
				"y": -1.5506896335,
				"z": 1.586299786,
				"element": "O" 
			},
			{
				"x": 0.7232858475,
				"y": 0.0757193292,
				"z": -0.0841029942,
				"element": "C" 
			},
			{
				"x": 2.1142531928,
				"y": -0.5758026347,
				"z": -0.1504471941,
				"element": "C" 
			},
			{
				"x": 2.081560833,
				"y": -1.9935061958,
				"z": -0.7115083164,
				"element": "C" 
			},
			{
				"x": 3.7645727907,
				"y": -2.6530949494,
				"z": -0.9088316883,
				"element": "Cl" 
			},
			{
				"x": -1.6969047268,
				"y": 3.7320179779,
				"z": -1.2587153716,
				"element": "H" 
			},
			{
				"x": -3.2964350409,
				"y": 3.0990775739,
				"z": -0.7822100683,
				"element": "H" 
			},
			{
				"x": -2.2747957009,
				"y": 3.9075751683,
				"z": 0.4157883842,
				"element": "H" 
			},
			{
				"x": -1.2784799478,
				"y": 1.4196457241,
				"z": -0.8510477204,
				"element": "H" 
			},
			{
				"x": -1.7839234825,
				"y": -0.297418897,
				"z": 2.1596242231,
				"element": "H" 
			},
			{
				"x": 0.8219299541,
				"y": 1.1530013767,
				"z": 0.0836701282,
				"element": "H" 
			},
			{
				"x": 0.2172483333,
				"y": -0.0380328814,
				"z": -1.0549609676,
				"element": "H" 
			},
			{
				"x": 2.559363951,
				"y": -0.593206587,
				"z": 0.8482484701,
				"element": "H" 
			},
			{
				"x": 2.7554396361,
				"y": 0.0451197841,
				"z": -0.7843915657,
				"element": "H" 
			},
			{
				"x": 1.5532680483,
				"y": -2.670525058,
				"z": -0.0436255893,
				"element": "H" 
			},
			{
				"x": 1.6277550131,
				"y": -2.0245260357,
				"z": -1.7051681908,
				"element": "H" 
			}
		],
		 "valence_orbital": [ 
			{
				"type": "occ",
				"energy": -0.29299,
				"method": "rhf"
			},
			{
				"type": "occ",
				"energy": -0.29236,
				"method": "rhf"
			},
			{
				"type": "occ",
				"energy": -0.28291,
				"method": "rhf"
			},
			{
				"type": "occ",
				"energy": -0.27783,
				"method": "rhf"
			},
			{
				"type": "occ",
				"energy": -0.26551,
				"method": "rhf"
			},
			{
				"type": "unocc",
				"energy": -0.02104,
				"method": "rhf"
			},
			{
				"type": "unocc",
				"energy": 0.02534,
				"method": "rhf"
			},
			{
				"type": "unocc",
				"energy": 0.03319,
				"method": "rhf"
			},
			{
				"type": "unocc",
				"energy": 0.06468,
				"method": "rhf"
			},
			{
				"type": "unocc",
				"energy": 0.09239,
				"method": "rhf"
			}
		],
		"cosmo_sigma_profile": { 
			"-0.025": 0.0,
			"-0.024": 0.0,
			"-0.023": 0.0,
			"-0.022": 0.0,
			"-0.021": 0.0,
			"-0.02": 0.0,
			"-0.019": 0.0,
			"-0.018": 0.0,
			"-0.017": 0.0,
			"-0.016": 0.0,
			"-0.015": 0.810748088633,
			"-0.014": 1.9043828567,
			"-0.013": 2.73247983377,
			"-0.012": 1.70451985555,
			"-0.011": 1.88630522195,
			"-0.01": 2.62118214632,
			"-0.009": 2.40859137136,
			"-0.008": 3.03405532711,
			"-0.007": 7.02630860993,
			"-0.006": 10.3194865548,
			"-0.005": 14.127768999,
			"-0.004": 20.2521646707,
			"-0.003": 19.5875922409,
			"-0.002": 18.5522396908,
			"-0.001": 12.0316918168,
			"0.0": 10.490708254,
			"0.001": 9.72282569141,
			"0.002": 8.36074076387,
			"0.003": 6.8938789318,
			"0.004": 7.42277431333,
			"0.005": 8.49280345552,
			"0.006": 10.1092115814,
			"0.007": 11.3210890221,
			"0.008": 3.28287257541,
			"0.009": 2.00211090795,
			"0.01": 2.28622006393,
			"0.011": 4.92570938316,
			"0.012": 5.68848144041,
			"0.013": 6.96899418825,
			"0.014": 1.22238962511,
			"0.015": 0.0,
			"0.016": 0.0,
			"0.017": 0.0,
			"0.018": 0.0,
			"0.019": 0.0,
			"0.02": 0.0,
			"0.021": 0.0,
			"0.022": 0.0,
			"0.023": 0.0,
			"0.024": 0.0,
			"0.025": 0.0
		}
	}
}
