{
	 "smiles": "COC(=O)C1=C(N)N=C(Cl)C(Cl)=N1", 
	 "Tm": 504.65, 
	 "num_atms": 18, 
	 "gaussian": { 
		 "optdone": 1, 
		 "sigma_profile": "yes", 
		 "theory": "DFT", 
		 "functional": "B3LYP", 
		 "basiset": "6-31G**", 
		 "properties": { 
			 "R2extent": 4751.2073, 
			 "electric_dipole_moment_norm": 3.24082671397, 
			 "electric_quadrupole_moment_norm": 9.3727785272, 
			 "total_energy": -1466.74710674, 
			 "HOMO_LUMO_gap": 0.15349, 
			 "cosmo_polarized_energy": -10.5, 
			 "cosmo_cavitation_energy": 26.97, 
			 "cosmo_dispersion_energy": -20.58, 
			 "cosmo_repulsion_energy": 1.66, 
			 "cosmo_total_nonelectrostatic_energy": 8.05, 
			 "SMD_solvation_energy": 3.15 
		},
		"coords": [
			{
				"x": -2.2835021886,
				"y": 1.9965030451,
				"z": -1.0697615756,
				"element": "C" 
			},
			{
				"x": -1.169800616,
				"y": 1.7086594797,
				"z": -0.2071122015,
				"element": "O" 
			},
			{
				"x": -0.847545592,
				"y": 0.4167036518,
				"z": -0.0971617051,
				"element": "C" 
			},
			{
				"x": -1.447333462,
				"y": -0.4793973021,
				"z": -0.6833393477,
				"element": "O" 
			},
			{
				"x": 0.3061579089,
				"y": 0.1697809985,
				"z": 0.80277131,
				"element": "C" 
			},
			{
				"x": 0.7834787474,
				"y": -1.1570722789,
				"z": 1.0334024637,
				"element": "C" 
			},
			{
				"x": 0.2416896331,
				"y": -2.2521870661,
				"z": 0.4696516006,
				"element": "N" 
			},
			{
				"x": 1.8369439557,
				"y": -1.3475024163,
				"z": 1.8600610297,
				"element": "N" 
			},
			{
				"x": 2.3914909354,
				"y": -0.304592301,
				"z": 2.4276308094,
				"element": "C" 
			},
			{
				"x": 3.7467070462,
				"y": -0.6076517289,
				"z": 3.4839976929,
				"element": "Cl" 
			},
			{
				"x": 1.9185502923,
				"y": 1.0110495631,
				"z": 2.1990158553,
				"element": "C" 
			},
			{
				"x": 2.6555513299,
				"y": 2.405724883,
				"z": 2.9540456059,
				"element": "Cl" 
			},
			{
				"x": 0.898257766,
				"y": 1.2082151376,
				"z": 1.3999816022,
				"element": "N" 
			},
			{
				"x": -3.1874313434,
				"y": 1.4995128145,
				"z": -0.7092003523,
				"element": "H" 
			},
			{
				"x": -2.4006911612,
				"y": 3.0789828556,
				"z": -1.0376361342,
				"element": "H" 
			},
			{
				"x": -2.076977563,
				"y": 1.6607581895,
				"z": -2.088951806,
				"element": "H" 
			},
			{
				"x": 0.6398360871,
				"y": -3.1513276801,
				"z": 0.6885746133,
				"element": "H" 
			},
			{
				"x": -0.5487817758,
				"y": -2.1335598447,
				"z": -0.1514694604,
				"element": "H" 
			}
		],
		 "valence_orbital": [ 
			{
				"type": "occ",
				"energy": -0.30482,
				"method": "rhf"
			},
			{
				"type": "occ",
				"energy": -0.30479,
				"method": "rhf"
			},
			{
				"type": "occ",
				"energy": -0.30282,
				"method": "rhf"
			},
			{
				"type": "occ",
				"energy": -0.27947,
				"method": "rhf"
			},
			{
				"type": "occ",
				"energy": -0.23641,
				"method": "rhf"
			},
			{
				"type": "unocc",
				"energy": -0.08292,
				"method": "rhf"
			},
			{
				"type": "unocc",
				"energy": -0.0332,
				"method": "rhf"
			},
			{
				"type": "unocc",
				"energy": 0.01235,
				"method": "rhf"
			},
			{
				"type": "unocc",
				"energy": 0.02571,
				"method": "rhf"
			},
			{
				"type": "unocc",
				"energy": 0.04666,
				"method": "rhf"
			}
		],
		"cosmo_sigma_profile": { 
			"-0.025": 0.0,
			"-0.024": 0.0,
			"-0.023": 0.0,
			"-0.022": 0.0,
			"-0.021": 0.0,
			"-0.02": 0.0,
			"-0.019": 0.0,
			"-0.018": 0.0,
			"-0.017": 0.0,
			"-0.016": 0.0,
			"-0.015": 0.726827456968,
			"-0.014": 1.04463046826,
			"-0.013": 1.05224230622,
			"-0.012": 1.16816376279,
			"-0.011": 1.77885272043,
			"-0.01": 1.91766559226,
			"-0.009": 1.30700526391,
			"-0.008": 1.68949153416,
			"-0.007": 3.39920589197,
			"-0.006": 8.43582704588,
			"-0.005": 11.9618378005,
			"-0.004": 21.7587938432,
			"-0.003": 18.6913986944,
			"-0.002": 15.8491700076,
			"-0.001": 14.4046617265,
			"0.0": 14.8139996309,
			"0.001": 13.6670463973,
			"0.002": 17.4365019043,
			"0.003": 20.5812826469,
			"0.004": 17.0287581452,
			"0.005": 5.91308144263,
			"0.006": 5.11804282431,
			"0.007": 4.072323627,
			"0.008": 3.95884375527,
			"0.009": 3.9971178361,
			"0.01": 3.88014533258,
			"0.011": 2.91630007129,
			"0.012": 0.958231969319,
			"0.013": 1.20693488051,
			"0.014": 0.544496736383,
			"0.015": 0.0107484490447,
			"0.016": 0.0,
			"0.017": 0.0,
			"0.018": 0.0,
			"0.019": 0.0,
			"0.02": 0.0,
			"0.021": 0.0,
			"0.022": 0.0,
			"0.023": 0.0,
			"0.024": 0.0,
			"0.025": 0.0
		}
	}
}
