{
	 "smiles": "NC(=S)N1CCN(CC1)C1=NC=CC=C1", 
	 "Tm": 438.15, 
	 "num_atms": 29, 
	 "gaussian": { 
		 "optdone": 1, 
		 "sigma_profile": "yes", 
		 "theory": "DFT", 
		 "functional": "B3LYP", 
		 "basiset": "6-31G**", 
		 "properties": { 
			 "R2extent": 4839.1362, 
			 "electric_dipole_moment_norm": 4.15324932673, 
			 "electric_quadrupole_moment_norm": 25.9987414461, 
			 "total_energy": -1006.702114, 
			 "HOMO_LUMO_gap": 0.17927, 
			 "cosmo_polarized_energy": -19.41, 
			 "cosmo_cavitation_energy": 32.25, 
			 "cosmo_dispersion_energy": -24.27, 
			 "cosmo_repulsion_energy": 1.84, 
			 "cosmo_total_nonelectrostatic_energy": 9.83, 
			 "SMD_solvation_energy": 2.25 
		},
		"coords": [
			{
				"x": 0.8324237276,
				"y": -3.0448887368,
				"z": -1.7087741637,
				"element": "N" 
			},
			{
				"x": -0.2273718644,
				"y": -2.1741501107,
				"z": -1.8194628423,
				"element": "C" 
			},
			{
				"x": -1.5200706653,
				"y": -2.5739112627,
				"z": -2.8300990094,
				"element": "S" 
			},
			{
				"x": -0.1316968878,
				"y": -1.0139431963,
				"z": -1.108233456,
				"element": "N" 
			},
			{
				"x": 1.1075162065,
				"y": -0.5039423213,
				"z": -0.5015119237,
				"element": "C" 
			},
			{
				"x": 0.8329505272,
				"y": 0.0286127706,
				"z": 0.9116829894,
				"element": "C" 
			},
			{
				"x": -0.2252197021,
				"y": 1.0331382044,
				"z": 0.8951997112,
				"element": "N" 
			},
			{
				"x": -1.4503877325,
				"y": 0.523364438,
				"z": 0.2868499809,
				"element": "C" 
			},
			{
				"x": -1.2005317494,
				"y": -0.0126870858,
				"z": -1.1313739814,
				"element": "C" 
			},
			{
				"x": 0.0974833412,
				"y": 2.3867642533,
				"z": 0.9359442589,
				"element": "C" 
			},
			{
				"x": 1.4002090919,
				"y": 2.688821008,
				"z": 1.0812550916,
				"element": "N" 
			},
			{
				"x": 1.7585217305,
				"y": 3.9742741751,
				"z": 1.1739855246,
				"element": "C" 
			},
			{
				"x": 0.8673468564,
				"y": 5.039154487,
				"z": 1.1144117813,
				"element": "C" 
			},
			{
				"x": -0.4878343563,
				"y": 4.7257037045,
				"z": 0.9649205323,
				"element": "C" 
			},
			{
				"x": -0.8891377902,
				"y": 3.4016101808,
				"z": 0.8786835432,
				"element": "C" 
			},
			{
				"x": 0.6561223148,
				"y": -3.9330013567,
				"z": -2.1550814235,
				"element": "H" 
			},
			{
				"x": 1.3396180512,
				"y": -3.1014469714,
				"z": -0.8365341949,
				"element": "H" 
			},
			{
				"x": 1.4943103228,
				"y": 0.3155381764,
				"z": -1.1239733061,
				"element": "H" 
			},
			{
				"x": 1.8765652762,
				"y": -1.2747713643,
				"z": -0.4748231041,
				"element": "H" 
			},
			{
				"x": 0.5128769749,
				"y": -0.8013987924,
				"z": 1.5562808701,
				"element": "H" 
			},
			{
				"x": 1.7349577917,
				"y": 0.4786465784,
				"z": 1.322739311,
				"element": "H" 
			},
			{
				"x": -1.8397412506,
				"y": -0.2898551677,
				"z": 0.9133079915,
				"element": "H" 
			},
			{
				"x": -2.2162611379,
				"y": 1.2966509687,
				"z": 0.2470688683,
				"element": "H" 
			},
			{
				"x": -2.096156354,
				"y": -0.4805917525,
				"z": -1.5400226389,
				"element": "H" 
			},
			{
				"x": -0.9115456215,
				"y": 0.8147386631,
				"z": -1.7956407728,
				"element": "H" 
			},
			{
				"x": 2.8257874836,
				"y": 4.1544915584,
				"z": 1.2964094776,
				"element": "H" 
			},
			{
				"x": 1.2142488025,
				"y": 6.0639794499,
				"z": 1.1846737684,
				"element": "H" 
			},
			{
				"x": -1.23495647,
				"y": 5.5136539046,
				"z": 0.9240160876,
				"element": "H" 
			},
			{
				"x": -1.9424269169,
				"y": 3.1663455974,
				"z": 0.7909010287,
				"element": "H" 
			}
		],
		 "valence_orbital": [ 
			{
				"type": "occ",
				"energy": -0.26429,
				"method": "rhf"
			},
			{
				"type": "occ",
				"energy": -0.25677,
				"method": "rhf"
			},
			{
				"type": "occ",
				"energy": -0.21645,
				"method": "rhf"
			},
			{
				"type": "occ",
				"energy": -0.20188,
				"method": "rhf"
			},
			{
				"type": "occ",
				"energy": -0.19915,
				"method": "rhf"
			},
			{
				"type": "unocc",
				"energy": -0.01988,
				"method": "rhf"
			},
			{
				"type": "unocc",
				"energy": -0.00384,
				"method": "rhf"
			},
			{
				"type": "unocc",
				"energy": 0.00485,
				"method": "rhf"
			},
			{
				"type": "unocc",
				"energy": 0.06209,
				"method": "rhf"
			},
			{
				"type": "unocc",
				"energy": 0.08572,
				"method": "rhf"
			}
		],
		"cosmo_sigma_profile": { 
			"-0.025": 0.0,
			"-0.024": 0.0,
			"-0.023": 0.0,
			"-0.022": 0.0,
			"-0.021": 0.0,
			"-0.02": 0.0,
			"-0.019": 0.0,
			"-0.018": 0.0,
			"-0.017": 0.0,
			"-0.016": 0.0890958013392,
			"-0.015": 0.945056368165,
			"-0.014": 1.83228741675,
			"-0.013": 2.08235351349,
			"-0.012": 2.40305915352,
			"-0.011": 3.11842276313,
			"-0.01": 1.78122868783,
			"-0.009": 3.56430768672,
			"-0.008": 3.30321326308,
			"-0.007": 4.79962775063,
			"-0.006": 10.6385428093,
			"-0.005": 24.9287186269,
			"-0.004": 26.8046475903,
			"-0.003": 20.4561489504,
			"-0.002": 16.5492900899,
			"-0.001": 10.9723937284,
			"0.0": 11.3017476065,
			"0.001": 10.5314854261,
			"0.002": 10.1175771442,
			"0.003": 12.6819577267,
			"0.004": 17.9783389783,
			"0.005": 13.4711155491,
			"0.006": 7.94613912394,
			"0.007": 5.64091914855,
			"0.008": 5.32412402072,
			"0.009": 7.54901109144,
			"0.01": 6.7306358872,
			"0.011": 6.84880623282,
			"0.012": 6.79738417717,
			"0.013": 0.804455997388,
			"0.014": 0.0,
			"0.015": 0.0,
			"0.016": 0.0,
			"0.017": 0.0,
			"0.018": 0.0,
			"0.019": 0.0,
			"0.02": 0.0,
			"0.021": 0.0,
			"0.022": 0.0,
			"0.023": 0.0,
			"0.024": 0.0,
			"0.025": 0.0
		}
	}
}
