{
	 "smiles": "CC(Cl)C(=O)NC(C1=CC=CC=C1)C1=CC=CC=C1", 
	 "Tm": 407.15, 
	 "num_atms": 35, 
	 "gaussian": { 
		 "optdone": 1, 
		 "sigma_profile": "yes", 
		 "theory": "DFT", 
		 "functional": "B3LYP", 
		 "basiset": "6-31G**", 
		 "properties": { 
			 "R2extent": 5594.8466, 
			 "electric_dipole_moment_norm": 4.65866172307, 
			 "electric_quadrupole_moment_norm": 12.7393366503, 
			 "total_energy": -1209.52455257, 
			 "HOMO_LUMO_gap": 0.21833, 
			 "cosmo_polarized_energy": -15.46, 
			 "cosmo_cavitation_energy": 39.09, 
			 "cosmo_dispersion_energy": -26.13, 
			 "cosmo_repulsion_energy": 2.02, 
			 "cosmo_total_nonelectrostatic_energy": 14.98, 
			 "SMD_solvation_energy": 6.54 
		},
		"coords": [
			{
				"x": 0.055053171,
				"y": 1.6827803072,
				"z": -2.1185571318,
				"element": "C" 
			},
			{
				"x": -0.4760099819,
				"y": 0.541725928,
				"z": -1.2644593209,
				"element": "C" 
			},
			{
				"x": -2.2970109231,
				"y": 0.676983875,
				"z": -1.1187462496,
				"element": "Cl" 
			},
			{
				"x": -0.1660517701,
				"y": -0.8178970474,
				"z": -1.9083353039,
				"element": "C" 
			},
			{
				"x": -0.276381213,
				"y": -0.9713100935,
				"z": -3.117078701,
				"element": "O" 
			},
			{
				"x": 0.2380511081,
				"y": -1.8639499012,
				"z": -1.1125915867,
				"element": "N" 
			},
			{
				"x": 0.6504906912,
				"y": -1.9589249999,
				"z": 0.2976610774,
				"element": "C" 
			},
			{
				"x": -0.4311468797,
				"y": -1.4691590058,
				"z": 1.2736322962,
				"element": "C" 
			},
			{
				"x": -1.6620824965,
				"y": -2.1410537116,
				"z": 1.2844833811,
				"element": "C" 
			},
			{
				"x": -2.675131183,
				"y": -1.7622133874,
				"z": 2.1615089479,
				"element": "C" 
			},
			{
				"x": -2.4749743154,
				"y": -0.6985117048,
				"z": 3.0452131021,
				"element": "C" 
			},
			{
				"x": -1.2561783803,
				"y": -0.0227832935,
				"z": 3.041977984,
				"element": "C" 
			},
			{
				"x": -0.2383303075,
				"y": -0.407810438,
				"z": 2.1645128498,
				"element": "C" 
			},
			{
				"x": 2.0653581529,
				"y": -1.4355327716,
				"z": 0.5729491584,
				"element": "C" 
			},
			{
				"x": 2.799192774,
				"y": -0.7025114768,
				"z": -0.3639227419,
				"element": "C" 
			},
			{
				"x": 4.1001180822,
				"y": -0.2762002796,
				"z": -0.0777254693,
				"element": "C" 
			},
			{
				"x": 4.6892525379,
				"y": -0.5861399924,
				"z": 1.1461593503,
				"element": "C" 
			},
			{
				"x": 3.9709120226,
				"y": -1.3333480738,
				"z": 2.0840009858,
				"element": "C" 
			},
			{
				"x": 2.6746212037,
				"y": -1.755064652,
				"z": 1.7974715586,
				"element": "C" 
			},
			{
				"x": -0.255227855,
				"y": 2.6454579089,
				"z": -1.7067969505,
				"element": "H" 
			},
			{
				"x": -0.3083786961,
				"y": 1.5822849742,
				"z": -3.1421384317,
				"element": "H" 
			},
			{
				"x": 1.1505598318,
				"y": 1.6489448709,
				"z": -2.1342486978,
				"element": "H" 
			},
			{
				"x": -0.1146095434,
				"y": 0.6040696816,
				"z": -0.2405775469,
				"element": "H" 
			},
			{
				"x": 0.4572604991,
				"y": -2.670561237,
				"z": -1.6843874987,
				"element": "H" 
			},
			{
				"x": 0.7047193944,
				"y": -3.0426634699,
				"z": 0.4619661531,
				"element": "H" 
			},
			{
				"x": -1.827598514,
				"y": -2.9608875394,
				"z": 0.5903881679,
				"element": "H" 
			},
			{
				"x": -3.621431129,
				"y": -2.2952462886,
				"z": 2.1546123396,
				"element": "H" 
			},
			{
				"x": -3.2641543595,
				"y": -0.4004714791,
				"z": 3.7292123691,
				"element": "H" 
			},
			{
				"x": -1.0902843159,
				"y": 0.8067557829,
				"z": 3.7233419891,
				"element": "H" 
			},
			{
				"x": 0.7103858649,
				"y": 0.1184690406,
				"z": 2.1825188416,
				"element": "H" 
			},
			{
				"x": 2.3718345485,
				"y": -0.4803222127,
				"z": -1.3354597571,
				"element": "H" 
			},
			{
				"x": 4.652252242,
				"y": 0.2921160777,
				"z": -0.8207645085,
				"element": "H" 
			},
			{
				"x": 5.7006405508,
				"y": -0.2577819557,
				"z": 1.366824903,
				"element": "H" 
			},
			{
				"x": 4.4227488585,
				"y": -1.5916947525,
				"z": 3.0374962062,
				"element": "H" 
			},
			{
				"x": 2.1238303298,
				"y": -2.3351486829,
				"z": 2.5335582352,
				"element": "H" 
			}
		],
		 "valence_orbital": [ 
			{
				"type": "occ",
				"energy": -0.26124,
				"method": "rhf"
			},
			{
				"type": "occ",
				"energy": -0.2604,
				"method": "rhf"
			},
			{
				"type": "occ",
				"energy": -0.25507,
				"method": "rhf"
			},
			{
				"type": "occ",
				"energy": -0.25316,
				"method": "rhf"
			},
			{
				"type": "occ",
				"energy": -0.2417,
				"method": "rhf"
			},
			{
				"type": "unocc",
				"energy": -0.02337,
				"method": "rhf"
			},
			{
				"type": "unocc",
				"energy": -0.01618,
				"method": "rhf"
			},
			{
				"type": "unocc",
				"energy": -0.01374,
				"method": "rhf"
			},
			{
				"type": "unocc",
				"energy": -0.00986,
				"method": "rhf"
			},
			{
				"type": "unocc",
				"energy": -0.0006,
				"method": "rhf"
			}
		],
		"cosmo_sigma_profile": { 
			"-0.025": 0.0,
			"-0.024": 0.0,
			"-0.023": 0.0,
			"-0.022": 0.0,
			"-0.021": 0.0,
			"-0.02": 0.0,
			"-0.019": 0.0,
			"-0.018": 0.0,
			"-0.017": 0.0,
			"-0.016": 0.0,
			"-0.015": 0.0532454362199,
			"-0.014": 0.890237327514,
			"-0.013": 1.58306445656,
			"-0.012": 0.927818699605,
			"-0.011": 1.34480041017,
			"-0.01": 0.944244086999,
			"-0.009": 1.44541246755,
			"-0.008": 1.91714098022,
			"-0.007": 3.62255378334,
			"-0.006": 15.4385666045,
			"-0.005": 27.6681122877,
			"-0.004": 31.5230162282,
			"-0.003": 27.634676693,
			"-0.002": 20.0091799045,
			"-0.001": 21.7577243588,
			"0.0": 18.5510143837,
			"0.001": 18.5959578224,
			"0.002": 18.7555050077,
			"0.003": 18.2107655295,
			"0.004": 20.2656921567,
			"0.005": 23.247798469,
			"0.006": 16.9764778796,
			"0.007": 4.91358429658,
			"0.008": 1.74501000758,
			"0.009": 2.02010220712,
			"0.01": 1.61837149534,
			"0.011": 1.68001257361,
			"0.012": 2.7221171281,
			"0.013": 5.27570994794,
			"0.014": 1.1636114833,
			"0.015": 0.0,
			"0.016": 0.0,
			"0.017": 0.0,
			"0.018": 0.0,
			"0.019": 0.0,
			"0.02": 0.0,
			"0.021": 0.0,
			"0.022": 0.0,
			"0.023": 0.0,
			"0.024": 0.0,
			"0.025": 0.0
		}
	}
}
