{
	 "smiles": "CC1CCC(CC1)NC1CCC(O)CC1", 
	 "Tm": 417.15, 
	 "num_atms": 40, 
	 "gaussian": { 
		 "optdone": 1, 
		 "sigma_profile": "yes", 
		 "theory": "DFT", 
		 "functional": "B3LYP", 
		 "basiset": "6-31G**", 
		 "properties": { 
			 "R2extent": 5318.4791, 
			 "electric_dipole_moment_norm": 1.15178105558, 
			 "electric_quadrupole_moment_norm": 8.71999835034, 
			 "total_energy": -640.443240494, 
			 "HOMO_LUMO_gap": 0.27556, 
			 "cosmo_polarized_energy": -8.24, 
			 "cosmo_cavitation_energy": 37.16, 
			 "cosmo_dispersion_energy": -26.69, 
			 "cosmo_repulsion_energy": 2.12, 
			 "cosmo_total_nonelectrostatic_energy": 12.59, 
			 "SMD_solvation_energy": 3.3 
		},
		"coords": [
			{
				"x": 5.2504950327,
				"y": 1.7410582692,
				"z": -0.8531715162,
				"element": "C" 
			},
			{
				"x": 3.947003663,
				"y": 1.2422458316,
				"z": -0.2195541444,
				"element": "C" 
			},
			{
				"x": 2.7115524438,
				"y": 1.9018409408,
				"z": -0.8585264105,
				"element": "C" 
			},
			{
				"x": 1.398104101,
				"y": 1.3897375652,
				"z": -0.2470589832,
				"element": "C" 
			},
			{
				"x": 1.2765824384,
				"y": -0.1469635307,
				"z": -0.3331069091,
				"element": "C" 
			},
			{
				"x": 2.5090140431,
				"y": -0.8062964971,
				"z": 0.3061123887,
				"element": "C" 
			},
			{
				"x": 3.8241237955,
				"y": -0.290543043,
				"z": -0.2962998995,
				"element": "C" 
			},
			{
				"x": 0.0573152477,
				"y": -0.7010392817,
				"z": 0.2690605472,
				"element": "N" 
			},
			{
				"x": -1.1996188271,
				"y": -0.4744743893,
				"z": -0.4597865242,
				"element": "C" 
			},
			{
				"x": -1.3808950384,
				"y": -1.512381967,
				"z": -1.5785153729,
				"element": "C" 
			},
			{
				"x": -2.6435622933,
				"y": -1.2230874972,
				"z": -2.4199259684,
				"element": "C" 
			},
			{
				"x": -3.7873575086,
				"y": -0.5735549226,
				"z": -1.6035745188,
				"element": "C" 
			},
			{
				"x": -3.7147963901,
				"y": 0.8567820972,
				"z": -1.610520839,
				"element": "O" 
			},
			{
				"x": -3.7105716016,
				"y": -1.0017021121,
				"z": -0.1389173451,
				"element": "C" 
			},
			{
				"x": -2.3831990976,
				"y": -0.5688903557,
				"z": 0.5285567255,
				"element": "C" 
			},
			{
				"x": 5.2902209968,
				"y": 1.4873210572,
				"z": -1.9196549842,
				"element": "H" 
			},
			{
				"x": 5.3455856328,
				"y": 2.8293313534,
				"z": -0.7679219618,
				"element": "H" 
			},
			{
				"x": 6.1259360643,
				"y": 1.2899880655,
				"z": -0.3728316609,
				"element": "H" 
			},
			{
				"x": 3.9569869121,
				"y": 1.5215133462,
				"z": 0.8461395547,
				"element": "H" 
			},
			{
				"x": 2.7749680531,
				"y": 2.9929702752,
				"z": -0.7583124035,
				"element": "H" 
			},
			{
				"x": 2.7165247566,
				"y": 1.6917830119,
				"z": -1.9389152939,
				"element": "H" 
			},
			{
				"x": 1.3534576913,
				"y": 1.6805767847,
				"z": 0.8137877969,
				"element": "H" 
			},
			{
				"x": 0.5420754293,
				"y": 1.8676750062,
				"z": -0.7375505525,
				"element": "H" 
			},
			{
				"x": 1.264780303,
				"y": -0.4263399365,
				"z": -1.3965877584,
				"element": "H" 
			},
			{
				"x": 2.427751544,
				"y": -1.893207142,
				"z": 0.1989668874,
				"element": "H" 
			},
			{
				"x": 2.4962014722,
				"y": -0.5987737479,
				"z": 1.3870446514,
				"element": "H" 
			},
			{
				"x": 4.6782962719,
				"y": -0.7598636118,
				"z": 0.2082111638,
				"element": "H" 
			},
			{
				"x": 3.8846156747,
				"y": -0.5968829631,
				"z": -1.351692723,
				"element": "H" 
			},
			{
				"x": -0.0335828703,
				"y": -0.3269948972,
				"z": 1.211943468,
				"element": "H" 
			},
			{
				"x": -1.2360239763,
				"y": 0.5247447462,
				"z": -0.922452893,
				"element": "H" 
			},
			{
				"x": -1.4484771384,
				"y": -2.5029208861,
				"z": -1.1114315376,
				"element": "H" 
			},
			{
				"x": -0.4989469629,
				"y": -1.5428706805,
				"z": -2.227541843,
				"element": "H" 
			},
			{
				"x": -3.0052614034,
				"y": -2.1559597269,
				"z": -2.8690355381,
				"element": "H" 
			},
			{
				"x": -2.400811876,
				"y": -0.5571047352,
				"z": -3.2593162214,
				"element": "H" 
			},
			{
				"x": -4.7547941885,
				"y": -0.8907491096,
				"z": -2.0249724482,
				"element": "H" 
			},
			{
				"x": -3.7148022925,
				"y": 1.1474874333,
				"z": -2.5314643414,
				"element": "H" 
			},
			{
				"x": -3.8123643206,
				"y": -2.0931832417,
				"z": -0.1071553168,
				"element": "H" 
			},
			{
				"x": -4.5639021776,
				"y": -0.5891551532,
				"z": 0.4085153314,
				"element": "H" 
			},
			{
				"x": -2.5123920712,
				"y": 0.3984999685,
				"z": 1.0249144566,
				"element": "H" 
			},
			{
				"x": -2.1213315327,
				"y": -1.299616324,
				"z": 1.3042429376,
				"element": "H" 
			}
		],
		 "valence_orbital": [ 
			{
				"type": "occ",
				"energy": -0.29735,
				"method": "rhf"
			},
			{
				"type": "occ",
				"energy": -0.28939,
				"method": "rhf"
			},
			{
				"type": "occ",
				"energy": -0.2887,
				"method": "rhf"
			},
			{
				"type": "occ",
				"energy": -0.25908,
				"method": "rhf"
			},
			{
				"type": "occ",
				"energy": -0.20457,
				"method": "rhf"
			},
			{
				"type": "unocc",
				"energy": 0.07099,
				"method": "rhf"
			},
			{
				"type": "unocc",
				"energy": 0.08965,
				"method": "rhf"
			},
			{
				"type": "unocc",
				"energy": 0.09536,
				"method": "rhf"
			},
			{
				"type": "unocc",
				"energy": 0.09641,
				"method": "rhf"
			},
			{
				"type": "unocc",
				"energy": 0.10777,
				"method": "rhf"
			}
		],
		"cosmo_sigma_profile": { 
			"-0.025": 0.0,
			"-0.024": 0.0,
			"-0.023": 0.0,
			"-0.022": 0.0,
			"-0.021": 0.0,
			"-0.02": 0.0,
			"-0.019": 0.0,
			"-0.018": 0.0,
			"-0.017": 0.0,
			"-0.016": 0.0,
			"-0.015": 0.347191666683,
			"-0.014": 0.796484965433,
			"-0.013": 0.877953638521,
			"-0.012": 1.53780726296,
			"-0.011": 0.763477625857,
			"-0.01": 0.606442353389,
			"-0.009": 0.739170726057,
			"-0.008": 1.67322990448,
			"-0.007": 2.93187326376,
			"-0.006": 2.16150462639,
			"-0.005": 2.60388939301,
			"-0.004": 3.74148337405,
			"-0.003": 14.9880610491,
			"-0.002": 45.1223821305,
			"-0.001": 61.7028883005,
			"0.0": 50.1759328207,
			"0.001": 41.2827059493,
			"0.002": 19.5981090807,
			"0.003": 4.64808501544,
			"0.004": 3.21044710212,
			"0.005": 2.46734628572,
			"0.006": 2.39139530722,
			"0.007": 2.17949967316,
			"0.008": 2.47175807246,
			"0.009": 2.01947662074,
			"0.01": 2.03453228006,
			"0.011": 1.60346088528,
			"0.012": 2.37411594491,
			"0.013": 1.66443077639,
			"0.014": 1.81678247497,
			"0.015": 1.35379496498,
			"0.016": 0.446685762721,
			"0.017": 0.534878825262,
			"0.018": 0.17430152014,
			"0.019": 0.0,
			"0.02": 0.0,
			"0.021": 0.0,
			"0.022": 0.0,
			"0.023": 0.0,
			"0.024": 0.0,
			"0.025": 0.0
		}
	}
}
