{
	 "smiles": "NC1=CC=C(OC2=C(C#N)C(F)=CC=C2)C=C1", 
	 "Tm": 430.15, 
	 "num_atms": 26, 
	 "gaussian": { 
		 "optdone": 1, 
		 "sigma_profile": "yes", 
		 "theory": "DFT", 
		 "functional": "B3LYP", 
		 "basiset": "6-31G**", 
		 "properties": { 
			 "R2extent": 5213.3351, 
			 "electric_dipole_moment_norm": 8.51577681777, 
			 "electric_quadrupole_moment_norm": 18.386502225, 
			 "total_energy": -785.3412215, 
			 "HOMO_LUMO_gap": 0.16652, 
			 "cosmo_polarized_energy": -16.31, 
			 "cosmo_cavitation_energy": 32.84, 
			 "cosmo_dispersion_energy": -22.74, 
			 "cosmo_repulsion_energy": 1.76, 
			 "cosmo_total_nonelectrostatic_energy": 11.86, 
			 "SMD_solvation_energy": 7.53 
		},
		"coords": [
			{
				"x": -1.7491079317,
				"y": -5.2858917952,
				"z": -1.4059270286,
				"element": "N" 
			},
			{
				"x": -1.4880056154,
				"y": -4.0400481572,
				"z": -0.8388023128,
				"element": "C" 
			},
			{
				"x": -0.9607113786,
				"y": -3.938392488,
				"z": 0.4616438879,
				"element": "C" 
			},
			{
				"x": -0.7562765257,
				"y": -2.6944478711,
				"z": 1.0525432032,
				"element": "C" 
			},
			{
				"x": -1.073503407,
				"y": -1.5347686266,
				"z": 0.3486278029,
				"element": "C" 
			},
			{
				"x": -0.9424919176,
				"y": -0.2897293888,
				"z": 0.9709530368,
				"element": "O" 
			},
			{
				"x": 0.2194952816,
				"y": 0.4063680459,
				"z": 0.8515300025,
				"element": "C" 
			},
			{
				"x": 0.2503499441,
				"y": 1.6545275006,
				"z": 1.5176184192,
				"element": "C" 
			},
			{
				"x": -0.873547209,
				"y": 2.1296274817,
				"z": 2.2581434447,
				"element": "C" 
			},
			{
				"x": -1.7814416631,
				"y": 2.529320257,
				"z": 2.8651388609,
				"element": "N" 
			},
			{
				"x": 1.4204357822,
				"y": 2.4220166524,
				"z": 1.4335525161,
				"element": "C" 
			},
			{
				"x": 1.4461619082,
				"y": 3.6043616701,
				"z": 2.0659208648,
				"element": "F" 
			},
			{
				"x": 2.5374740671,
				"y": 2.0032037132,
				"z": 0.7265907511,
				"element": "C" 
			},
			{
				"x": 2.4777473922,
				"y": 0.7680719913,
				"z": 0.0801006576,
				"element": "C" 
			},
			{
				"x": 1.3361465929,
				"y": -0.03208638,
				"z": 0.1341903922,
				"element": "C" 
			},
			{
				"x": -1.6011744445,
				"y": -1.6109568738,
				"z": -0.9385221666,
				"element": "C" 
			},
			{
				"x": -1.8050910047,
				"y": -2.8554496006,
				"z": -1.5284871674,
				"element": "C" 
			},
			{
				"x": -1.7994895756,
				"y": -5.3057851274,
				"z": -2.4146344621,
				"element": "H" 
			},
			{
				"x": -1.2131816678,
				"y": -6.0571649379,
				"z": -1.0339791014,
				"element": "H" 
			},
			{
				"x": -0.7215375743,
				"y": -4.8423994049,
				"z": 1.0155233456,
				"element": "H" 
			},
			{
				"x": -0.3606216022,
				"y": -2.6178916353,
				"z": 2.0601938178,
				"element": "H" 
			},
			{
				"x": 3.4174354734,
				"y": 2.634253801,
				"z": 0.6925963048,
				"element": "H" 
			},
			{
				"x": 3.3402462132,
				"y": 0.4192032356,
				"z": -0.4795511158,
				"element": "H" 
			},
			{
				"x": 1.3054633016,
				"y": -0.9880336868,
				"z": -0.372840625,
				"element": "H" 
			},
			{
				"x": -1.8574185304,
				"y": -0.6984673079,
				"z": -1.4671686174,
				"element": "H" 
			},
			{
				"x": -2.225455909,
				"y": -2.9135410672,
				"z": -2.529054711,
				"element": "H" 
			}
		],
		 "valence_orbital": [ 
			{
				"type": "occ",
				"energy": -0.3138,
				"method": "rhf"
			},
			{
				"type": "occ",
				"energy": -0.2659,
				"method": "rhf"
			},
			{
				"type": "occ",
				"energy": -0.25873,
				"method": "rhf"
			},
			{
				"type": "occ",
				"energy": -0.24263,
				"method": "rhf"
			},
			{
				"type": "occ",
				"energy": -0.21386,
				"method": "rhf"
			},
			{
				"type": "unocc",
				"energy": -0.04734,
				"method": "rhf"
			},
			{
				"type": "unocc",
				"energy": -0.01432,
				"method": "rhf"
			},
			{
				"type": "unocc",
				"energy": -0.00704,
				"method": "rhf"
			},
			{
				"type": "unocc",
				"energy": 0.00288,
				"method": "rhf"
			},
			{
				"type": "unocc",
				"energy": 0.04143,
				"method": "rhf"
			}
		],
		"cosmo_sigma_profile": { 
			"-0.025": 0.0,
			"-0.024": 0.0,
			"-0.023": 0.0,
			"-0.022": 0.0,
			"-0.021": 0.0,
			"-0.02": 0.0,
			"-0.019": 0.0,
			"-0.018": 0.0,
			"-0.017": 0.0,
			"-0.016": 0.0,
			"-0.015": 0.0,
			"-0.014": 0.0,
			"-0.013": 0.779794857442,
			"-0.012": 2.82174662758,
			"-0.011": 2.30964967306,
			"-0.01": 3.39691524406,
			"-0.009": 3.49499758409,
			"-0.008": 5.82944789557,
			"-0.007": 10.7358488655,
			"-0.006": 15.0897435928,
			"-0.005": 12.3872643299,
			"-0.004": 13.3089041306,
			"-0.003": 12.5975804582,
			"-0.002": 16.3642988972,
			"-0.001": 24.4478113439,
			"0.0": 20.0559342184,
			"0.001": 16.2028154374,
			"0.002": 20.2161078417,
			"0.003": 21.8996119965,
			"0.004": 14.659675587,
			"0.005": 13.1941753617,
			"0.006": 6.85045536852,
			"0.007": 6.18154014094,
			"0.008": 5.25054738414,
			"0.009": 4.09456442393,
			"0.01": 3.80069985072,
			"0.011": 3.5262199196,
			"0.012": 2.9581342519,
			"0.013": 1.90525275442,
			"0.014": 0.431825581284,
			"0.015": 0.0458456830965,
			"0.016": 0.0,
			"0.017": 0.0,
			"0.018": 0.0,
			"0.019": 0.0,
			"0.02": 0.0,
			"0.021": 0.0,
			"0.022": 0.0,
			"0.023": 0.0,
			"0.024": 0.0,
			"0.025": 0.0
		}
	}
}
