{
	 "smiles": "NS(=O)(=O)C1=CC(C(O)=O)=C(C=C1)N1CCOCC1", 
	 "Tm": 551.15, 
	 "num_atms": 33, 
	 "gaussian": { 
		 "optdone": 1, 
		 "sigma_profile": "yes", 
		 "theory": "DFT", 
		 "functional": "B3LYP", 
		 "basiset": "6-31G**", 
		 "properties": { 
			 "R2extent": 9752.8178, 
			 "electric_dipole_moment_norm": 4.06302299403, 
			 "electric_quadrupole_moment_norm": 33.9471656307, 
			 "total_energy": -1311.3392538, 
			 "HOMO_LUMO_gap": 0.15895, 
			 "cosmo_polarized_energy": -23.96, 
			 "cosmo_cavitation_energy": 37.04, 
			 "cosmo_dispersion_energy": -27.44, 
			 "cosmo_repulsion_energy": 2.07, 
			 "cosmo_total_nonelectrostatic_energy": 11.68, 
			 "SMD_solvation_energy": 6.43 
		},
		"coords": [
			{
				"x": 5.6580282486,
				"y": -0.0844654606,
				"z": -1.6510690948,
				"element": "N" 
			},
			{
				"x": 5.6454406625,
				"y": 0.2047360714,
				"z": 0.0241671579,
				"element": "S" 
			},
			{
				"x": 6.4365395178,
				"y": -0.8325012357,
				"z": 0.695895729,
				"element": "O" 
			},
			{
				"x": 5.9570556579,
				"y": 1.630673665,
				"z": 0.164963338,
				"element": "O" 
			},
			{
				"x": 3.9382754013,
				"y": -0.0480782825,
				"z": 0.4643945924,
				"element": "C" 
			},
			{
				"x": 3.5535449537,
				"y": -1.2180185907,
				"z": 1.098966683,
				"element": "C" 
			},
			{
				"x": 2.2153209866,
				"y": -1.427837179,
				"z": 1.4766250422,
				"element": "C" 
			},
			{
				"x": 1.9434424232,
				"y": -2.5449749497,
				"z": 2.4169332966,
				"element": "C" 
			},
			{
				"x": 2.8854090901,
				"y": -3.5236043143,
				"z": 2.3514021068,
				"element": "O" 
			},
			{
				"x": 1.031056173,
				"y": -2.6031909669,
				"z": 3.2206105658,
				"element": "O" 
			},
			{
				"x": 1.2218599948,
				"y": -0.4608174369,
				"z": 1.1294425564,
				"element": "C" 
			},
			{
				"x": 1.6682204898,
				"y": 0.7454689813,
				"z": 0.5262690694,
				"element": "C" 
			},
			{
				"x": 2.9941261505,
				"y": 0.9556648808,
				"z": 0.2040510603,
				"element": "C" 
			},
			{
				"x": -0.1313744567,
				"y": -0.6636200825,
				"z": 1.3072966651,
				"element": "N" 
			},
			{
				"x": -0.790497043,
				"y": -1.9630296446,
				"z": 1.1954041279,
				"element": "C" 
			},
			{
				"x": -2.0061624151,
				"y": -1.8308982716,
				"z": 0.2699440605,
				"element": "C" 
			},
			{
				"x": -2.9006322584,
				"y": -0.8179326931,
				"z": 0.7087242715,
				"element": "O" 
			},
			{
				"x": -2.2580126893,
				"y": 0.4473538077,
				"z": 0.7501634629,
				"element": "C" 
			},
			{
				"x": -1.0527925847,
				"y": 0.4076106306,
				"z": 1.6897881427,
				"element": "C" 
			},
			{
				"x": 6.2542556422,
				"y": 0.6177712544,
				"z": -2.0833179863,
				"element": "H" 
			},
			{
				"x": 6.0099834368,
				"y": -1.0205042978,
				"z": -1.8383605734,
				"element": "H" 
			},
			{
				"x": 4.3019800702,
				"y": -1.9552939843,
				"z": 1.3612230333,
				"element": "H" 
			},
			{
				"x": 2.6678407275,
				"y": -4.14110602,
				"z": 3.0688304977,
				"element": "H" 
			},
			{
				"x": 0.9398736044,
				"y": 1.4994153432,
				"z": 0.250840676,
				"element": "H" 
			},
			{
				"x": 3.3029776162,
				"y": 1.8817895968,
				"z": -0.2688926891,
				"element": "H" 
			},
			{
				"x": -1.0946517523,
				"y": -2.3312673162,
				"z": 2.1818122577,
				"element": "H" 
			},
			{
				"x": -0.0957353875,
				"y": -2.6883150243,
				"z": 0.7667252205,
				"element": "H" 
			},
			{
				"x": -1.6665557221,
				"y": -1.6174369033,
				"z": -0.7573522345,
				"element": "H" 
			},
			{
				"x": -2.5740158894,
				"y": -2.7660719201,
				"z": 0.2627238572,
				"element": "H" 
			},
			{
				"x": -1.9357372628,
				"y": 0.7469776416,
				"z": -0.2613644758,
				"element": "H" 
			},
			{
				"x": -3.0012870923,
				"y": 1.1659744336,
				"z": 1.1082763035,
				"element": "H" 
			},
			{
				"x": -1.40961605,
				"y": 0.2085664559,
				"z": 2.7116713853,
				"element": "H" 
			},
			{
				"x": -0.5357602436,
				"y": 1.3678618118,
				"z": 1.7049118944,
				"element": "H" 
			}
		],
		 "valence_orbital": [ 
			{
				"type": "occ",
				"energy": -0.28731,
				"method": "rhf"
			},
			{
				"type": "occ",
				"energy": -0.27989,
				"method": "rhf"
			},
			{
				"type": "occ",
				"energy": -0.27235,
				"method": "rhf"
			},
			{
				"type": "occ",
				"energy": -0.26793,
				"method": "rhf"
			},
			{
				"type": "occ",
				"energy": -0.21342,
				"method": "rhf"
			},
			{
				"type": "unocc",
				"energy": -0.05447,
				"method": "rhf"
			},
			{
				"type": "unocc",
				"energy": -0.03004,
				"method": "rhf"
			},
			{
				"type": "unocc",
				"energy": 0.0281,
				"method": "rhf"
			},
			{
				"type": "unocc",
				"energy": 0.05921,
				"method": "rhf"
			},
			{
				"type": "unocc",
				"energy": 0.07492,
				"method": "rhf"
			}
		],
		"cosmo_sigma_profile": { 
			"-0.025": 0.0,
			"-0.024": 0.0,
			"-0.023": 0.0,
			"-0.022": 0.0,
			"-0.021": 0.0,
			"-0.02": 0.0,
			"-0.019": 0.0,
			"-0.018": 0.543828580467,
			"-0.017": 1.00377324901,
			"-0.016": 0.600376012757,
			"-0.015": 1.53263331524,
			"-0.014": 4.06319481226,
			"-0.013": 2.81084273484,
			"-0.012": 2.99320877628,
			"-0.011": 2.8315890348,
			"-0.01": 3.42724508851,
			"-0.009": 2.79286203965,
			"-0.008": 4.52352466434,
			"-0.007": 8.8444278067,
			"-0.006": 12.8557161067,
			"-0.005": 19.559676023,
			"-0.004": 24.8550548755,
			"-0.003": 21.5278710069,
			"-0.002": 22.0614426768,
			"-0.001": 14.6354347018,
			"0.0": 15.2900853796,
			"0.001": 17.1730657144,
			"0.002": 17.0495560146,
			"0.003": 11.0277346867,
			"0.004": 7.58874033421,
			"0.005": 6.70885757053,
			"0.006": 8.86327695169,
			"0.007": 7.37955021144,
			"0.008": 7.96345980179,
			"0.009": 6.51609986802,
			"0.01": 9.78437102888,
			"0.011": 13.9766635531,
			"0.012": 9.9752935716,
			"0.013": 1.78899563324,
			"0.014": 0.0945996066398,
			"0.015": 0.0,
			"0.016": 0.0,
			"0.017": 0.0,
			"0.018": 0.0,
			"0.019": 0.0,
			"0.02": 0.0,
			"0.021": 0.0,
			"0.022": 0.0,
			"0.023": 0.0,
			"0.024": 0.0,
			"0.025": 0.0
		}
	}
}
