{
	 "smiles": "CC(C)NC1=CC=C(NC2=CC=CC=C2)C=C1", 
	 "Tm": 348.65, 
	 "num_atms": 35, 
	 "gaussian": { 
		 "optdone": 1, 
		 "sigma_profile": "yes", 
		 "theory": "DFT", 
		 "functional": "B3LYP", 
		 "basiset": "6-31G**", 
		 "properties": { 
			 "R2extent": 6531.9781, 
			 "electric_dipole_moment_norm": 2.0268430255, 
			 "electric_quadrupole_moment_norm": 9.3581200938, 
			 "total_energy": -691.952692552, 
			 "HOMO_LUMO_gap": 0.17472, 
			 "cosmo_polarized_energy": -10.51, 
			 "cosmo_cavitation_energy": 37.18, 
			 "cosmo_dispersion_energy": -26.63, 
			 "cosmo_repulsion_energy": 2.06, 
			 "cosmo_total_nonelectrostatic_energy": 12.6, 
			 "SMD_solvation_energy": 4.9 
		},
		"coords": [
			{
				"x": 2.9619038117,
				"y": -0.9688769797,
				"z": 3.8907824046,
				"element": "C" 
			},
			{
				"x": 1.9480725195,
				"y": 0.0209423366,
				"z": 4.4748391951,
				"element": "C" 
			},
			{
				"x": 2.4839515699,
				"y": 1.4618283436,
				"z": 4.4346353935,
				"element": "C" 
			},
			{
				"x": 0.597644797,
				"y": -0.1234789643,
				"z": 3.8727394768,
				"element": "N" 
			},
			{
				"x": 0.3444337069,
				"y": 0.3277489396,
				"z": 2.5504909452,
				"element": "C" 
			},
			{
				"x": 0.8745357272,
				"y": -0.3346438714,
				"z": 1.4298117446,
				"element": "C" 
			},
			{
				"x": 0.5898859733,
				"y": 0.0868244969,
				"z": 0.1336971962,
				"element": "C" 
			},
			{
				"x": -0.2899333412,
				"y": 1.1575307321,
				"z": -0.09886647,
				"element": "C" 
			},
			{
				"x": -0.588890886,
				"y": 1.6374836848,
				"z": -1.3835450089,
				"element": "N" 
			},
			{
				"x": -0.6614969637,
				"y": 0.9442835303,
				"z": -2.5931964644,
				"element": "C" 
			},
			{
				"x": -0.621147603,
				"y": 1.6832124224,
				"z": -3.7915276133,
				"element": "C" 
			},
			{
				"x": -0.7283796028,
				"y": 1.0466981525,
				"z": -5.024151715,
				"element": "C" 
			},
			{
				"x": -0.8642921307,
				"y": -0.3417887118,
				"z": -5.0988325818,
				"element": "C" 
			},
			{
				"x": -0.9078921078,
				"y": -1.0779687353,
				"z": -3.9137945167,
				"element": "C" 
			},
			{
				"x": -0.8163923722,
				"y": -0.4520109907,
				"z": -2.6713462527,
				"element": "C" 
			},
			{
				"x": -0.8465143894,
				"y": 1.80426528,
				"z": 1.0159097617,
				"element": "C" 
			},
			{
				"x": -0.5156237184,
				"y": 1.4120349294,
				"z": 2.3092558525,
				"element": "C" 
			},
			{
				"x": 2.5493949489,
				"y": -1.9817305608,
				"z": 3.8757714212,
				"element": "H" 
			},
			{
				"x": 3.8707117295,
				"y": -0.9739675919,
				"z": 4.5016916862,
				"element": "H" 
			},
			{
				"x": 3.2542651955,
				"y": -0.6952776324,
				"z": 2.8727213988,
				"element": "H" 
			},
			{
				"x": 1.7975970238,
				"y": -0.2578316616,
				"z": 5.5258175564,
				"element": "H" 
			},
			{
				"x": 2.6246558876,
				"y": 1.7955654234,
				"z": 3.4014126186,
				"element": "H" 
			},
			{
				"x": 3.4479111305,
				"y": 1.5355430277,
				"z": 4.9499005901,
				"element": "H" 
			},
			{
				"x": 1.7892986378,
				"y": 2.1559037575,
				"z": 4.9208345701,
				"element": "H" 
			},
			{
				"x": -0.0748297753,
				"y": 0.3048919605,
				"z": 4.5008285287,
				"element": "H" 
			},
			{
				"x": 1.5091178377,
				"y": -1.201177624,
				"z": 1.573175968,
				"element": "H" 
			},
			{
				"x": 1.0514768734,
				"y": -0.4231600864,
				"z": -0.7042414329,
				"element": "H" 
			},
			{
				"x": -0.8366774794,
				"y": 2.6139841857,
				"z": -1.4321716445,
				"element": "H" 
			},
			{
				"x": -0.4986833276,
				"y": 2.7630618044,
				"z": -3.7451654151,
				"element": "H" 
			},
			{
				"x": -0.6960251585,
				"y": 1.6414610659,
				"z": -5.933019237,
				"element": "H" 
			},
			{
				"x": -0.9379779883,
				"y": -0.8385177424,
				"z": -6.0611174826,
				"element": "H" 
			},
			{
				"x": -1.0289557833,
				"y": -2.1573882385,
				"z": -3.9498635452,
				"element": "H" 
			},
			{
				"x": -0.8889014102,
				"y": -1.0395355845,
				"z": -1.763766597,
				"element": "H" 
			},
			{
				"x": -1.5377884604,
				"y": 2.6300068729,
				"z": 0.8641069139,
				"element": "H" 
			},
			{
				"x": -0.9450548718,
				"y": 1.9492840295,
				"z": 3.1521827549,
				"element": "H" 
			}
		],
		 "valence_orbital": [ 
			{
				"type": "occ",
				"energy": -0.26477,
				"method": "rhf"
			},
			{
				"type": "occ",
				"energy": -0.24606,
				"method": "rhf"
			},
			{
				"type": "occ",
				"energy": -0.24268,
				"method": "rhf"
			},
			{
				"type": "occ",
				"energy": -0.2181,
				"method": "rhf"
			},
			{
				"type": "occ",
				"energy": -0.17407,
				"method": "rhf"
			},
			{
				"type": "unocc",
				"energy": 0.00065,
				"method": "rhf"
			},
			{
				"type": "unocc",
				"energy": 0.00142,
				"method": "rhf"
			},
			{
				"type": "unocc",
				"energy": 0.00645,
				"method": "rhf"
			},
			{
				"type": "unocc",
				"energy": 0.03702,
				"method": "rhf"
			},
			{
				"type": "unocc",
				"energy": 0.077,
				"method": "rhf"
			}
		],
		"cosmo_sigma_profile": { 
			"-0.025": 0.0,
			"-0.024": 0.0,
			"-0.023": 0.0,
			"-0.022": 0.0,
			"-0.021": 0.0,
			"-0.02": 0.0,
			"-0.019": 0.0,
			"-0.018": 0.0,
			"-0.017": 0.0,
			"-0.016": 0.0,
			"-0.015": 0.0,
			"-0.014": 0.286809128809,
			"-0.013": 0.89564172038,
			"-0.012": 1.27162191732,
			"-0.011": 1.64420617778,
			"-0.01": 2.60421862788,
			"-0.009": 3.14305384264,
			"-0.008": 3.42034221725,
			"-0.007": 3.2867345413,
			"-0.006": 6.47330086977,
			"-0.005": 13.3485854308,
			"-0.004": 20.0802871475,
			"-0.003": 30.2574296721,
			"-0.002": 28.9863628833,
			"-0.001": 26.7458634886,
			"0.0": 22.9978892288,
			"0.001": 26.2921082123,
			"0.002": 17.5875369858,
			"0.003": 14.5365080227,
			"0.004": 16.749604301,
			"0.005": 18.2504646648,
			"0.006": 17.9569533669,
			"0.007": 10.8581779912,
			"0.008": 1.41121221041,
			"0.009": 0.645833902098,
			"0.01": 0.516064126841,
			"0.011": 0.870456312381,
			"0.012": 0.633791614715,
			"0.013": 0.466093933951,
			"0.014": 0.585784192756,
			"0.015": 0.567921337018,
			"0.016": 0.169493852785,
			"0.017": 0.0,
			"0.018": 0.0,
			"0.019": 0.0,
			"0.02": 0.0,
			"0.021": 0.0,
			"0.022": 0.0,
			"0.023": 0.0,
			"0.024": 0.0,
			"0.025": 0.0
		}
	}
}
