{
	 "smiles": "CC(C)(C(O)=O)C1=CC[C@@]2(C)[C@@H](CCC3C4CC[C@H](O)[C@@]4(C)CCC23)C1", 
	 "Tm": 537.15, 
	 "num_atms": 62, 
	 "gaussian": { 
		 "optdone": 1, 
		 "sigma_profile": "yes", 
		 "theory": "DFT", 
		 "functional": "B3LYP", 
		 "basiset": "6-31G**", 
		 "properties": { 
			 "R2extent": 12623.6837, 
			 "electric_dipole_moment_norm": 1.93737588248, 
			 "electric_quadrupole_moment_norm": 18.5072649684, 
			 "total_energy": -1123.83787741, 
			 "HOMO_LUMO_gap": 0.23706, 
			 "cosmo_polarized_energy": -13.41, 
			 "cosmo_cavitation_energy": 53.57, 
			 "cosmo_dispersion_energy": -36.44, 
			 "cosmo_repulsion_energy": 2.69, 
			 "cosmo_total_nonelectrostatic_energy": 19.83, 
			 "SMD_solvation_energy": 8.62 
		},
		"coords": [
			{
				"x": 2.7240404892,
				"y": 3.2643606024,
				"z": 3.2910729573,
				"element": "C" 
			},
			{
				"x": 3.0639283815,
				"y": 2.7102533216,
				"z": 1.8946554097,
				"element": "C" 
			},
			{
				"x": 4.4593871717,
				"y": 2.0472835937,
				"z": 1.9554181231,
				"element": "C" 
			},
			{
				"x": 3.115247357,
				"y": 3.8769123032,
				"z": 0.9012038183,
				"element": "C" 
			},
			{
				"x": 3.5734507441,
				"y": 3.4913597425,
				"z": -0.3201443854,
				"element": "O" 
			},
			{
				"x": 2.7770343104,
				"y": 5.0193911129,
				"z": 1.1220148452,
				"element": "O" 
			},
			{
				"x": 1.958958093,
				"y": 1.7569732871,
				"z": 1.3676764545,
				"element": "C" 
			},
			{
				"x": 0.6671423674,
				"y": 2.118064131,
				"z": 1.4278343833,
				"element": "C" 
			},
			{
				"x": -0.4894859562,
				"y": 1.3333698141,
				"z": 0.8491829126,
				"element": "C" 
			},
			{
				"x": -0.0346651283,
				"y": 0.2779207873,
				"z": -0.1875293238,
				"element": "C" 
			},
			{
				"x": 0.4169551371,
				"y": 1.0139608027,
				"z": -1.4701120154,
				"element": "C" 
			},
			{
				"x": 1.1445862408,
				"y": -0.4696423747,
				"z": 0.5004340493,
				"element": "C" 
			},
			{
				"x": 1.4639396276,
				"y": -1.7838049759,
				"z": -0.2104603861,
				"element": "C" 
			},
			{
				"x": 0.2828426386,
				"y": -2.7714881464,
				"z": -0.0642636369,
				"element": "C" 
			},
			{
				"x": -1.0927050778,
				"y": -2.0823607266,
				"z": 0.1627310669,
				"element": "C" 
			},
			{
				"x": -2.2276491697,
				"y": -3.0842859881,
				"z": -0.1993712513,
				"element": "C" 
			},
			{
				"x": -2.4069533878,
				"y": -4.1627390833,
				"z": 0.9148521479,
				"element": "C" 
			},
			{
				"x": -3.6500795774,
				"y": -3.7298131447,
				"z": 1.7426618349,
				"element": "C" 
			},
			{
				"x": -4.1307370106,
				"y": -2.4040939874,
				"z": 1.1113422227,
				"element": "C" 
			},
			{
				"x": -5.5385166873,
				"y": -2.1986866733,
				"z": 1.1617448611,
				"element": "O" 
			},
			{
				"x": -3.6490262082,
				"y": -2.4728456791,
				"z": -0.3570469361,
				"element": "C" 
			},
			{
				"x": -4.552330916,
				"y": -3.433933948,
				"z": -1.1590254096,
				"element": "C" 
			},
			{
				"x": -3.6445032548,
				"y": -1.1069341827,
				"z": -1.066243844,
				"element": "C" 
			},
			{
				"x": -2.5805314316,
				"y": -0.1391409775,
				"z": -0.5446484328,
				"element": "C" 
			},
			{
				"x": -1.1672446734,
				"y": -0.7435555332,
				"z": -0.6071527067,
				"element": "C" 
			},
			{
				"x": 2.3538979784,
				"y": 0.4500191965,
				"z": 0.7097906531,
				"element": "C" 
			},
			{
				"x": 2.6158921515,
				"y": 2.4377770355,
				"z": 3.9991990273,
				"element": "H" 
			},
			{
				"x": 3.5221699663,
				"y": 3.9244502248,
				"z": 3.6437044086,
				"element": "H" 
			},
			{
				"x": 1.8021688795,
				"y": 3.8464542026,
				"z": 3.2886497867,
				"element": "H" 
			},
			{
				"x": 4.4623377842,
				"y": 1.2334331588,
				"z": 2.6869341783,
				"element": "H" 
			},
			{
				"x": 5.2045938026,
				"y": 2.7818250254,
				"z": 2.2770972093,
				"element": "H" 
			},
			{
				"x": 4.7746752677,
				"y": 1.650977633,
				"z": 0.989308462,
				"element": "H" 
			},
			{
				"x": 3.5343394203,
				"y": 4.2853340589,
				"z": -0.8791918047,
				"element": "H" 
			},
			{
				"x": 0.399156727,
				"y": 3.062348917,
				"z": 1.897388036,
				"element": "H" 
			},
			{
				"x": -1.1974003185,
				"y": 2.0415214978,
				"z": 0.4005237091,
				"element": "H" 
			},
			{
				"x": -1.0400825632,
				"y": 0.8489350374,
				"z": 1.670007879,
				"element": "H" 
			},
			{
				"x": -0.4538083379,
				"y": 1.434817536,
				"z": -1.9854210606,
				"element": "H" 
			},
			{
				"x": 0.9102352165,
				"y": 0.3327683102,
				"z": -2.171870563,
				"element": "H" 
			},
			{
				"x": 1.1026522898,
				"y": 1.8382244569,
				"z": -1.258647597,
				"element": "H" 
			},
			{
				"x": 0.7967702466,
				"y": -0.7337848543,
				"z": 1.5105330576,
				"element": "H" 
			},
			{
				"x": 2.3806107575,
				"y": -2.2278303455,
				"z": 0.1966827617,
				"element": "H" 
			},
			{
				"x": 1.6703939422,
				"y": -1.5881039003,
				"z": -1.2702632882,
				"element": "H" 
			},
			{
				"x": 0.480200071,
				"y": -3.4587730272,
				"z": 0.7664525298,
				"element": "H" 
			},
			{
				"x": 0.2207702293,
				"y": -3.3972043481,
				"z": -0.9633298767,
				"element": "H" 
			},
			{
				"x": -1.185888801,
				"y": -1.8479469114,
				"z": 1.2343501749,
				"element": "H" 
			},
			{
				"x": -1.9452813,
				"y": -3.5564070281,
				"z": -1.149496086,
				"element": "H" 
			},
			{
				"x": -2.5649027802,
				"y": -5.1528614096,
				"z": 0.4771257197,
				"element": "H" 
			},
			{
				"x": -1.5116564967,
				"y": -4.2429139169,
				"z": 1.5380365908,
				"element": "H" 
			},
			{
				"x": -3.4256843178,
				"y": -3.6176018866,
				"z": 2.8089403326,
				"element": "H" 
			},
			{
				"x": -4.4586229257,
				"y": -4.4633345042,
				"z": 1.6613056659,
				"element": "H" 
			},
			{
				"x": -3.6226858641,
				"y": -1.5645064138,
				"z": 1.6100818168,
				"element": "H" 
			},
			{
				"x": -5.7909569509,
				"y": -2.0883036934,
				"z": 2.0866917941,
				"element": "H" 
			},
			{
				"x": -4.1717755203,
				"y": -3.5402818892,
				"z": -2.1808550914,
				"element": "H" 
			},
			{
				"x": -5.5732830945,
				"y": -3.0473318498,
				"z": -1.2090666166,
				"element": "H" 
			},
			{
				"x": -4.6010493441,
				"y": -4.4335485004,
				"z": -0.7173471788,
				"element": "H" 
			},
			{
				"x": -3.4749011118,
				"y": -1.2731283986,
				"z": -2.139336932,
				"element": "H" 
			},
			{
				"x": -4.6420672662,
				"y": -0.6599368158,
				"z": -0.9760990078,
				"element": "H" 
			},
			{
				"x": -2.8189035818,
				"y": 0.1468933643,
				"z": 0.4864987097,
				"element": "H" 
			},
			{
				"x": -2.6198175672,
				"y": 0.7876408673,
				"z": -1.1303653509,
				"element": "H" 
			},
			{
				"x": -0.9805204622,
				"y": -0.9901967761,
				"z": -1.6647745559,
				"element": "H" 
			},
			{
				"x": 2.8659667025,
				"y": 0.6507275977,
				"z": -0.2428211585,
				"element": "H" 
			},
			{
				"x": 3.087473092,
				"y": -0.0790757282,
				"z": 1.3303569063,
				"element": "H" 
			}
		],
		 "valence_orbital": [ 
			{
				"type": "occ",
				"energy": -0.27444,
				"method": "rhf"
			},
			{
				"type": "occ",
				"energy": -0.26674,
				"method": "rhf"
			},
			{
				"type": "occ",
				"energy": -0.26574,
				"method": "rhf"
			},
			{
				"type": "occ",
				"energy": -0.25697,
				"method": "rhf"
			},
			{
				"type": "occ",
				"energy": -0.23055,
				"method": "rhf"
			},
			{
				"type": "unocc",
				"energy": 0.00651,
				"method": "rhf"
			},
			{
				"type": "unocc",
				"energy": 0.03184,
				"method": "rhf"
			},
			{
				"type": "unocc",
				"energy": 0.06716,
				"method": "rhf"
			},
			{
				"type": "unocc",
				"energy": 0.07155,
				"method": "rhf"
			},
			{
				"type": "unocc",
				"energy": 0.07773,
				"method": "rhf"
			}
		],
		"cosmo_sigma_profile": { 
			"-0.025": 0.0,
			"-0.024": 0.0,
			"-0.023": 0.0,
			"-0.022": 0.0,
			"-0.021": 0.0,
			"-0.02": 0.0,
			"-0.019": 0.0,
			"-0.018": 0.275206347375,
			"-0.017": 0.910551532017,
			"-0.016": 1.01897064632,
			"-0.015": 1.98061230743,
			"-0.014": 0.990648027592,
			"-0.013": 1.48874053647,
			"-0.012": 1.96114199739,
			"-0.011": 1.05280421231,
			"-0.01": 2.1095955244,
			"-0.009": 1.66156641891,
			"-0.008": 0.866648611319,
			"-0.007": 1.40046493525,
			"-0.006": 1.93821087768,
			"-0.005": 3.00253332656,
			"-0.004": 9.93506809797,
			"-0.003": 27.3319844459,
			"-0.002": 65.0681153447,
			"-0.001": 72.0922024318,
			"0.0": 67.4766071194,
			"0.001": 50.7257160003,
			"0.002": 36.5996130385,
			"0.003": 12.176470055,
			"0.004": 7.27509080184,
			"0.005": 5.87718741412,
			"0.006": 5.96647140201,
			"0.007": 3.21252700345,
			"0.008": 4.37188229492,
			"0.009": 3.55202356243,
			"0.01": 2.75295518623,
			"0.011": 4.1953721382,
			"0.012": 7.22303445373,
			"0.013": 2.53413961366,
			"0.014": 0.281426449727,
			"0.015": 0.0,
			"0.016": 0.0,
			"0.017": 0.0,
			"0.018": 0.0,
			"0.019": 0.0,
			"0.02": 0.0,
			"0.021": 0.0,
			"0.022": 0.0,
			"0.023": 0.0,
			"0.024": 0.0,
			"0.025": 0.0
		}
	}
}
