{
	 "smiles": "O=C(CC#N)NC1=NC=CC=N1", 
	 "Tm": 433.15, 
	 "num_atms": 18, 
	 "gaussian": { 
		 "optdone": 1, 
		 "sigma_profile": "yes", 
		 "theory": "DFT", 
		 "functional": "B3LYP", 
		 "basiset": "6-31G**", 
		 "properties": { 
			 "R2extent": 2074.3622, 
			 "electric_dipole_moment_norm": 5.12544523334, 
			 "electric_quadrupole_moment_norm": 15.1921125328, 
			 "total_energy": -564.581460952, 
			 "HOMO_LUMO_gap": 0.20354, 
			 "cosmo_polarized_energy": -15.16, 
			 "cosmo_cavitation_energy": 24.23, 
			 "cosmo_dispersion_energy": -17.05, 
			 "cosmo_repulsion_energy": 1.37, 
			 "cosmo_total_nonelectrostatic_energy": 8.55, 
			 "SMD_solvation_energy": 4.74 
		},
		"coords": [
			{
				"x": -1.4780415861,
				"y": 2.2135070431,
				"z": -1.2100719714,
				"element": "O" 
			},
			{
				"x": -1.1145971734,
				"y": 1.1382635827,
				"z": -0.7728982757,
				"element": "C" 
			},
			{
				"x": -2.0905237396,
				"y": 0.223478226,
				"z": -0.0184884632,
				"element": "C" 
			},
			{
				"x": -1.7704296668,
				"y": 0.1040726211,
				"z": 1.4049006963,
				"element": "C" 
			},
			{
				"x": -1.5294508467,
				"y": 0.0287047242,
				"z": 2.5374435052,
				"element": "N" 
			},
			{
				"x": 0.2010203212,
				"y": 0.7353868956,
				"z": -0.9491459855,
				"element": "N" 
			},
			{
				"x": 0.8910848301,
				"y": -0.438261363,
				"z": -0.6558110434,
				"element": "C" 
			},
			{
				"x": 2.2085872191,
				"y": -0.3636794699,
				"z": -0.9076727293,
				"element": "N" 
			},
			{
				"x": 2.9131144422,
				"y": -1.4636472872,
				"z": -0.6389578144,
				"element": "C" 
			},
			{
				"x": 2.3327959534,
				"y": -2.6240268484,
				"z": -0.1249646705,
				"element": "C" 
			},
			{
				"x": 0.9571881701,
				"y": -2.5802726185,
				"z": 0.0799404588,
				"element": "C" 
			},
			{
				"x": 0.2214087254,
				"y": -1.4962129866,
				"z": -0.1895467669,
				"element": "N" 
			},
			{
				"x": -2.0905914708,
				"y": -0.7783338782,
				"z": -0.4548305985,
				"element": "H" 
			},
			{
				"x": -3.0743407719,
				"y": 0.6849918587,
				"z": -0.1327967733,
				"element": "H" 
			},
			{
				"x": 0.7779858027,
				"y": 1.4463611295,
				"z": -1.3844031027,
				"element": "H" 
			},
			{
				"x": 3.9809567574,
				"y": -1.410203054,
				"z": -0.8425071933,
				"element": "H" 
			},
			{
				"x": 2.9176472279,
				"y": -3.5085236643,
				"z": 0.0966163427,
				"element": "H" 
			},
			{
				"x": 0.4157858058,
				"y": -3.4397049108,
				"z": 0.4695943853,
				"element": "H" 
			}
		],
		 "valence_orbital": [ 
			{
				"type": "occ",
				"energy": -0.33314,
				"method": "rhf"
			},
			{
				"type": "occ",
				"energy": -0.3237,
				"method": "rhf"
			},
			{
				"type": "occ",
				"energy": -0.28093,
				"method": "rhf"
			},
			{
				"type": "occ",
				"energy": -0.27499,
				"method": "rhf"
			},
			{
				"type": "occ",
				"energy": -0.26415,
				"method": "rhf"
			},
			{
				"type": "unocc",
				"energy": -0.06061,
				"method": "rhf"
			},
			{
				"type": "unocc",
				"energy": -0.04972,
				"method": "rhf"
			},
			{
				"type": "unocc",
				"energy": 0.00507,
				"method": "rhf"
			},
			{
				"type": "unocc",
				"energy": 0.03875,
				"method": "rhf"
			},
			{
				"type": "unocc",
				"energy": 0.04623,
				"method": "rhf"
			}
		],
		"cosmo_sigma_profile": { 
			"-0.025": 0.0,
			"-0.024": 0.0,
			"-0.023": 0.0,
			"-0.022": 0.0,
			"-0.021": 0.0,
			"-0.02": 0.0,
			"-0.019": 0.0,
			"-0.018": 0.0,
			"-0.017": 0.0,
			"-0.016": 0.0,
			"-0.015": 0.308816757719,
			"-0.014": 0.988402424945,
			"-0.013": 0.462455733721,
			"-0.012": 0.613504400241,
			"-0.011": 0.384547416529,
			"-0.01": 2.09154845403,
			"-0.009": 4.12810390289,
			"-0.008": 11.5191080401,
			"-0.007": 12.0617832751,
			"-0.006": 12.7255006926,
			"-0.005": 9.24030823145,
			"-0.004": 9.15062482576,
			"-0.003": 12.1738541721,
			"-0.002": 15.4339246009,
			"-0.001": 13.9087663665,
			"0.0": 13.1777370975,
			"0.001": 8.00787185172,
			"0.002": 6.51054127742,
			"0.003": 6.49423280991,
			"0.004": 6.19559621845,
			"0.005": 5.80535357228,
			"0.006": 5.47038813922,
			"0.007": 5.01708661778,
			"0.008": 5.29295400643,
			"0.009": 5.96731512944,
			"0.01": 6.35395383917,
			"0.011": 8.22732981361,
			"0.012": 6.09294347675,
			"0.013": 1.94061673233,
			"0.014": 0.000597606357535,
			"0.015": 0.0,
			"0.016": 0.0,
			"0.017": 0.0,
			"0.018": 0.0,
			"0.019": 0.0,
			"0.02": 0.0,
			"0.021": 0.0,
			"0.022": 0.0,
			"0.023": 0.0,
			"0.024": 0.0,
			"0.025": 0.0
		}
	}
}
