{
	 "smiles": "CCOC(=O)C1=C(NC(=O)NC2=CC=C(Cl)C(Cl)=C2)N=C(SC)S1", 
	 "Tm": 433.15, 
	 "num_atms": 37, 
	 "gaussian": { 
		 "optdone": 1, 
		 "sigma_profile": "yes", 
		 "theory": "DFT", 
		 "functional": "B3LYP", 
		 "basiset": "6-31G**", 
		 "properties": { 
			 "R2extent": 11200.5499, 
			 "electric_dipole_moment_norm": 2.7282998314, 
			 "electric_quadrupole_moment_norm": 32.2559409238, 
			 "total_energy": -2648.04341112, 
			 "HOMO_LUMO_gap": 0.15544, 
			 "cosmo_polarized_energy": -16.91, 
			 "cosmo_cavitation_energy": 48.95, 
			 "cosmo_dispersion_energy": -33.15, 
			 "cosmo_repulsion_energy": 2.52, 
			 "cosmo_total_nonelectrostatic_energy": 18.33, 
			 "SMD_solvation_energy": 8.85 
		},
		"coords": [
			{
				"x": -4.4122018375,
				"y": -3.341916264,
				"z": 1.5314565965,
				"element": "C" 
			},
			{
				"x": -3.5467743355,
				"y": -3.0549044397,
				"z": 2.7486013151,
				"element": "C" 
			},
			{
				"x": -2.2095911005,
				"y": -2.6500911695,
				"z": 2.3605375677,
				"element": "O" 
			},
			{
				"x": -2.0252549822,
				"y": -1.3421217301,
				"z": 2.0861590965,
				"element": "C" 
			},
			{
				"x": -2.9138386633,
				"y": -0.4955930034,
				"z": 2.1527408322,
				"element": "O" 
			},
			{
				"x": -0.6578221489,
				"y": -1.0369758662,
				"z": 1.7165143408,
				"element": "C" 
			},
			{
				"x": -0.1703294169,
				"y": 0.2184226691,
				"z": 1.3698856731,
				"element": "C" 
			},
			{
				"x": -0.9881490379,
				"y": 1.3316043035,
				"z": 1.3065582229,
				"element": "N" 
			},
			{
				"x": -0.6583992825,
				"y": 2.6866562453,
				"z": 1.1801009656,
				"element": "C" 
			},
			{
				"x": -1.2444619546,
				"y": 3.5299738162,
				"z": 1.8391496766,
				"element": "O" 
			},
			{
				"x": 0.3304269209,
				"y": 3.051187558,
				"z": 0.2790011922,
				"element": "N" 
			},
			{
				"x": 0.7233208247,
				"y": 2.4962455672,
				"z": -0.9531443939,
				"element": "C" 
			},
			{
				"x": 1.8923415597,
				"y": 2.9930880072,
				"z": -1.5498713886,
				"element": "C" 
			},
			{
				"x": 2.3058120871,
				"y": 2.5243713133,
				"z": -2.7911294151,
				"element": "C" 
			},
			{
				"x": 1.5742631087,
				"y": 1.541737053,
				"z": -3.4619605464,
				"element": "C" 
			},
			{
				"x": 2.140788268,
				"y": 0.968437881,
				"z": -5.0111365809,
				"element": "Cl" 
			},
			{
				"x": 0.4044250996,
				"y": 1.0484457927,
				"z": -2.8702942149,
				"element": "C" 
			},
			{
				"x": -0.5692579906,
				"y": -0.1646533881,
				"z": -3.6652300446,
				"element": "Cl" 
			},
			{
				"x": -0.0255896683,
				"y": 1.528743098,
				"z": -1.6333045913,
				"element": "C" 
			},
			{
				"x": 1.1708956852,
				"y": 0.2926929326,
				"z": 1.1134603259,
				"element": "N" 
			},
			{
				"x": 1.7313188426,
				"y": -0.8834732741,
				"z": 1.2515490409,
				"element": "C" 
			},
			{
				"x": 3.4403913808,
				"y": -1.2030455278,
				"z": 1.0147321137,
				"element": "S" 
			},
			{
				"x": 4.03628613,
				"y": 0.4766107947,
				"z": 0.6172463761,
				"element": "C" 
			},
			{
				"x": 0.6611897225,
				"y": -2.1925612074,
				"z": 1.7139782225,
				"element": "S" 
			},
			{
				"x": -3.9459974466,
				"y": -4.0955145086,
				"z": 0.8901952996,
				"element": "H" 
			},
			{
				"x": -4.5729740174,
				"y": -2.4309040935,
				"z": 0.9499867037,
				"element": "H" 
			},
			{
				"x": -5.3881638102,
				"y": -3.720115706,
				"z": 1.8533963585,
				"element": "H" 
			},
			{
				"x": -3.3894648763,
				"y": -3.9518797942,
				"z": 3.3516981093,
				"element": "H" 
			},
			{
				"x": -3.9835954116,
				"y": -2.2702575276,
				"z": 3.370382885,
				"element": "H" 
			},
			{
				"x": -1.8935285936,
				"y": 1.1775667279,
				"z": 1.7516799229,
				"element": "H" 
			},
			{
				"x": 0.5633847518,
				"y": 4.0275412037,
				"z": 0.4064352897,
				"element": "H" 
			},
			{
				"x": 2.4799401436,
				"y": 3.7483344993,
				"z": -1.0362360375,
				"element": "H" 
			},
			{
				"x": 3.2075462084,
				"y": 2.9147479792,
				"z": -3.24984292,
				"element": "H" 
			},
			{
				"x": -0.9481795949,
				"y": 1.1486857342,
				"z": -1.2157064847,
				"element": "H" 
			},
			{
				"x": 3.5640430039,
				"y": 0.8435676109,
				"z": -0.2936424428,
				"element": "H" 
			},
			{
				"x": 3.8297234877,
				"y": 1.1556862839,
				"z": 1.444637642,
				"element": "H" 
			},
			{
				"x": 5.1135769442,
				"y": 0.3751604293,
				"z": 0.4719152913,
				"element": "H" 
			}
		],
		 "valence_orbital": [ 
			{
				"type": "occ",
				"energy": -0.28433,
				"method": "rhf"
			},
			{
				"type": "occ",
				"energy": -0.26771,
				"method": "rhf"
			},
			{
				"type": "occ",
				"energy": -0.26442,
				"method": "rhf"
			},
			{
				"type": "occ",
				"energy": -0.23262,
				"method": "rhf"
			},
			{
				"type": "occ",
				"energy": -0.22014,
				"method": "rhf"
			},
			{
				"type": "unocc",
				"energy": -0.0647,
				"method": "rhf"
			},
			{
				"type": "unocc",
				"energy": -0.03185,
				"method": "rhf"
			},
			{
				"type": "unocc",
				"energy": -0.03041,
				"method": "rhf"
			},
			{
				"type": "unocc",
				"energy": -0.01103,
				"method": "rhf"
			},
			{
				"type": "unocc",
				"energy": -0.00038,
				"method": "rhf"
			}
		],
		"cosmo_sigma_profile": { 
			"-0.025": 0.0,
			"-0.024": 0.0,
			"-0.023": 0.0,
			"-0.022": 0.0,
			"-0.021": 0.0,
			"-0.02": 0.0,
			"-0.019": 0.0,
			"-0.018": 0.0,
			"-0.017": 0.0,
			"-0.016": 0.231267440831,
			"-0.015": 0.916270390419,
			"-0.014": 1.13069752787,
			"-0.013": 1.20822196262,
			"-0.012": 0.883294634977,
			"-0.011": 1.23256906424,
			"-0.01": 1.32788593746,
			"-0.009": 1.47995257143,
			"-0.008": 5.71345429345,
			"-0.007": 8.34986081779,
			"-0.006": 11.6551662448,
			"-0.005": 18.6544167746,
			"-0.004": 24.5169104638,
			"-0.003": 31.4106137826,
			"-0.002": 38.8548127904,
			"-0.001": 38.8485035453,
			"0.0": 42.4501930464,
			"0.001": 38.7183935308,
			"0.002": 32.7662342876,
			"0.003": 24.3039465145,
			"0.004": 26.9942513424,
			"0.005": 14.8905816055,
			"0.006": 7.47884696287,
			"0.007": 2.97898112467,
			"0.008": 2.67302629359,
			"0.009": 3.43087427584,
			"0.01": 3.79193916431,
			"0.011": 4.18259446161,
			"0.012": 5.44811783113,
			"0.013": 3.42100663408,
			"0.014": 0.0797079552671,
			"0.015": 0.0,
			"0.016": 0.0,
			"0.017": 0.0,
			"0.018": 0.0,
			"0.019": 0.0,
			"0.02": 0.0,
			"0.021": 0.0,
			"0.022": 0.0,
			"0.023": 0.0,
			"0.024": 0.0,
			"0.025": 0.0
		}
	}
}
