{
	 "smiles": "CCCCCCCC(=O)OCCCCC", 
	 "Tm": 238.35, 
	 "num_atms": 41, 
	 "gaussian": { 
		 "optdone": 1, 
		 "sigma_profile": "yes", 
		 "theory": "DFT", 
		 "functional": "B3LYP", 
		 "basiset": "6-31G**", 
		 "properties": { 
			 "R2extent": 6102.9893, 
			 "electric_dipole_moment_norm": 1.8525768729, 
			 "electric_quadrupole_moment_norm": 5.43786745885, 
			 "total_energy": -661.547392193, 
			 "HOMO_LUMO_gap": 0.28264, 
			 "cosmo_polarized_energy": -6.02, 
			 "cosmo_cavitation_energy": 40.81, 
			 "cosmo_dispersion_energy": -27.68, 
			 "cosmo_repulsion_energy": 2.26, 
			 "cosmo_total_nonelectrostatic_energy": 15.38, 
			 "SMD_solvation_energy": 6.7 
		},
		"coords": [
			{
				"x": 3.1737366089,
				"y": -3.1113070234,
				"z": 2.3827805741,
				"element": "C" 
			},
			{
				"x": 3.3686570555,
				"y": -2.0092455352,
				"z": 1.3343686548,
				"element": "C" 
			},
			{
				"x": 3.7972875435,
				"y": -0.6511067314,
				"z": 1.916929682,
				"element": "C" 
			},
			{
				"x": 2.7844886888,
				"y": 0.0737500032,
				"z": 2.8252382923,
				"element": "C" 
			},
			{
				"x": 1.4603700541,
				"y": 0.4812073571,
				"z": 2.1405757574,
				"element": "C" 
			},
			{
				"x": 0.3143627576,
				"y": -0.5289187699,
				"z": 2.3120687709,
				"element": "C" 
			},
			{
				"x": -0.9465781082,
				"y": -0.1561682879,
				"z": 1.5267371922,
				"element": "C" 
			},
			{
				"x": -0.7937483522,
				"y": -0.3479527829,
				"z": 0.0283897861,
				"element": "C" 
			},
			{
				"x": 0.0906878568,
				"y": -0.9748453669,
				"z": -0.5184594047,
				"element": "O" 
			},
			{
				"x": -1.8011686462,
				"y": 0.2511978591,
				"z": -0.6446946748,
				"element": "O" 
			},
			{
				"x": -1.7889284395,
				"y": 0.0868854988,
				"z": -2.0842794223,
				"element": "C" 
			},
			{
				"x": -3.018865003,
				"y": 0.7656734772,
				"z": -2.6722564379,
				"element": "C" 
			},
			{
				"x": -2.9860779319,
				"y": 2.3043449663,
				"z": -2.7187004395,
				"element": "C" 
			},
			{
				"x": -2.9852410685,
				"y": 3.0438086693,
				"z": -1.3688121839,
				"element": "C" 
			},
			{
				"x": -4.2164522043,
				"y": 2.770868629,
				"z": -0.4980827538,
				"element": "C" 
			},
			{
				"x": 2.917628363,
				"y": -4.0650685163,
				"z": 1.9093291535,
				"element": "H" 
			},
			{
				"x": 4.0884624565,
				"y": -3.266004601,
				"z": 2.9676019278,
				"element": "H" 
			},
			{
				"x": 2.3712884343,
				"y": -2.8717232525,
				"z": 3.0886253051,
				"element": "H" 
			},
			{
				"x": 4.1434397532,
				"y": -2.3329018172,
				"z": 0.6269225791,
				"element": "H" 
			},
			{
				"x": 2.4557237585,
				"y": -1.8890915313,
				"z": 0.7389477459,
				"element": "H" 
			},
			{
				"x": 4.7300548144,
				"y": -0.7898639878,
				"z": 2.4820588288,
				"element": "H" 
			},
			{
				"x": 4.0468225299,
				"y": 0.0208106027,
				"z": 1.0842341407,
				"element": "H" 
			},
			{
				"x": 3.2786271052,
				"y": 0.9768032398,
				"z": 3.2047203446,
				"element": "H" 
			},
			{
				"x": 2.5668249231,
				"y": -0.5347869861,
				"z": 3.7135175316,
				"element": "H" 
			},
			{
				"x": 1.6425558932,
				"y": 0.6450906041,
				"z": 1.0711031855,
				"element": "H" 
			},
			{
				"x": 1.1235063415,
				"y": 1.4454779233,
				"z": 2.5447996007,
				"element": "H" 
			},
			{
				"x": 0.0563296481,
				"y": -0.60010102,
				"z": 3.3761963859,
				"element": "H" 
			},
			{
				"x": 0.635397093,
				"y": -1.5260535569,
				"z": 1.9984700698,
				"element": "H" 
			},
			{
				"x": -1.7967267026,
				"y": -0.7782888703,
				"z": 1.8371516915,
				"element": "H" 
			},
			{
				"x": -1.2527838322,
				"y": 0.8794877724,
				"z": 1.7152821012,
				"element": "H" 
			},
			{
				"x": -1.7805036682,
				"y": -0.9847248335,
				"z": -2.3070868257,
				"element": "H" 
			},
			{
				"x": -0.8590075475,
				"y": 0.5107040752,
				"z": -2.4797999257,
				"element": "H" 
			},
			{
				"x": -3.9068089575,
				"y": 0.4093240944,
				"z": -2.1368384289,
				"element": "H" 
			},
			{
				"x": -3.1175268864,
				"y": 0.3954993598,
				"z": -3.7010583623,
				"element": "H" 
			},
			{
				"x": -3.8552928187,
				"y": 2.6405876247,
				"z": -3.3004127438,
				"element": "H" 
			},
			{
				"x": -2.1019241964,
				"y": 2.6145523769,
				"z": -3.2927513416,
				"element": "H" 
			},
			{
				"x": -2.9231806977,
				"y": 4.1200057199,
				"z": -1.5765865644,
				"element": "H" 
			},
			{
				"x": -2.0810404302,
				"y": 2.7864872218,
				"z": -0.8066447696,
				"element": "H" 
			},
			{
				"x": -4.2062017394,
				"y": 3.3956059885,
				"z": 0.4013351223,
				"element": "H" 
			},
			{
				"x": -5.1448343299,
				"y": 2.9875285113,
				"z": -1.0402373393,
				"element": "H" 
			},
			{
				"x": -4.2521601185,
				"y": 1.727251896,
				"z": -0.1714828052,
				"element": "H" 
			}
		],
		 "valence_orbital": [ 
			{
				"type": "occ",
				"energy": -0.30702,
				"method": "rhf"
			},
			{
				"type": "occ",
				"energy": -0.30119,
				"method": "rhf"
			},
			{
				"type": "occ",
				"energy": -0.29957,
				"method": "rhf"
			},
			{
				"type": "occ",
				"energy": -0.29359,
				"method": "rhf"
			},
			{
				"type": "occ",
				"energy": -0.26853,
				"method": "rhf"
			},
			{
				"type": "unocc",
				"energy": 0.01411,
				"method": "rhf"
			},
			{
				"type": "unocc",
				"energy": 0.07984,
				"method": "rhf"
			},
			{
				"type": "unocc",
				"energy": 0.08991,
				"method": "rhf"
			},
			{
				"type": "unocc",
				"energy": 0.10261,
				"method": "rhf"
			},
			{
				"type": "unocc",
				"energy": 0.11578,
				"method": "rhf"
			}
		],
		"cosmo_sigma_profile": { 
			"-0.025": 0.0,
			"-0.024": 0.0,
			"-0.023": 0.0,
			"-0.022": 0.0,
			"-0.021": 0.0,
			"-0.02": 0.0,
			"-0.019": 0.0,
			"-0.018": 0.0,
			"-0.017": 0.0,
			"-0.016": 0.0,
			"-0.015": 0.0,
			"-0.014": 0.0,
			"-0.013": 0.0,
			"-0.012": 0.0,
			"-0.011": 0.0,
			"-0.01": 0.0,
			"-0.009": 0.0,
			"-0.008": 0.0,
			"-0.007": 0.0,
			"-0.006": 1.74748624109,
			"-0.005": 5.40774085406,
			"-0.004": 12.4092467678,
			"-0.003": 22.3974978949,
			"-0.002": 47.7378080199,
			"-0.001": 59.7581860998,
			"0.0": 57.35834501,
			"0.001": 48.6505370885,
			"0.002": 26.2623509775,
			"0.003": 5.84526530968,
			"0.004": 4.46036304094,
			"0.005": 4.30928105929,
			"0.006": 3.92878931928,
			"0.007": 2.42160439054,
			"0.008": 2.10854966567,
			"0.009": 2.0945014524,
			"0.01": 1.75900877284,
			"0.011": 2.29958455517,
			"0.012": 2.25021583097,
			"0.013": 0.610337531749,
			"0.014": 0.0,
			"0.015": 0.0,
			"0.016": 0.0,
			"0.017": 0.0,
			"0.018": 0.0,
			"0.019": 0.0,
			"0.02": 0.0,
			"0.021": 0.0,
			"0.022": 0.0,
			"0.023": 0.0,
			"0.024": 0.0,
			"0.025": 0.0
		}
	}
}
