{
	 "smiles": "CC(Br)C(Br)C1=NN(C(O)=N1)C1=CC=CC=C1", 
	 "Tm": 401.15, 
	 "num_atms": 28, 
	 "gaussian": { 
		 "optdone": 1, 
		 "sigma_profile": "yes", 
		 "theory": "DFT", 
		 "functional": "B3LYP", 
		 "basiset": "6-31G**", 
		 "properties": { 
			 "R2extent": 11150.1279, 
			 "electric_dipole_moment_norm": 3.77546750085, 
			 "electric_quadrupole_moment_norm": 17.3903673457, 
			 "total_energy": -5808.08231071, 
			 "HOMO_LUMO_gap": 0.19809, 
			 "cosmo_polarized_energy": -15.65, 
			 "cosmo_cavitation_energy": 36.56, 
			 "cosmo_dispersion_energy": -26.57, 
			 "cosmo_repulsion_energy": 2.09, 
			 "cosmo_total_nonelectrostatic_energy": 12.08, 
			 "SMD_solvation_energy": 2.21 
		},
		"coords": [
			{
				"x": 0.1901394627,
				"y": 4.0393822502,
				"z": -1.4867444567,
				"element": "C" 
			},
			{
				"x": -0.5326401918,
				"y": 3.5720314587,
				"z": -2.7475173779,
				"element": "C" 
			},
			{
				"x": 0.7496492832,
				"y": 3.5545775466,
				"z": -4.2655211965,
				"element": "Br" 
			},
			{
				"x": -1.2508544754,
				"y": 2.2358725491,
				"z": -2.5295183643,
				"element": "C" 
			},
			{
				"x": -2.3676204517,
				"y": 1.7535189754,
				"z": -4.1077568055,
				"element": "Br" 
			},
			{
				"x": -0.4256982359,
				"y": 1.0700120337,
				"z": -2.0991679646,
				"element": "C" 
			},
			{
				"x": -0.6258256,
				"y": 0.5480033907,
				"z": -0.8999903031,
				"element": "N" 
			},
			{
				"x": 0.2984627589,
				"y": -0.4688862407,
				"z": -0.8461338564,
				"element": "N" 
			},
			{
				"x": 0.972708758,
				"y": -0.4767123304,
				"z": -2.0295726418,
				"element": "C" 
			},
			{
				"x": 1.9332828653,
				"y": -1.368541445,
				"z": -2.2999354808,
				"element": "O" 
			},
			{
				"x": 0.5549951778,
				"y": 0.4703092725,
				"z": -2.8376648192,
				"element": "N" 
			},
			{
				"x": 0.3809237175,
				"y": -1.320817703,
				"z": 0.2926362693,
				"element": "C" 
			},
			{
				"x": 1.5352664648,
				"y": -2.0690235336,
				"z": 0.549122735,
				"element": "C" 
			},
			{
				"x": 1.5762226021,
				"y": -2.8917836362,
				"z": 1.674973907,
				"element": "C" 
			},
			{
				"x": 0.488908711,
				"y": -2.963257877,
				"z": 2.546087106,
				"element": "C" 
			},
			{
				"x": -0.6529128525,
				"y": -2.2029884397,
				"z": 2.2842224484,
				"element": "C" 
			},
			{
				"x": -0.7159666177,
				"y": -1.3834022765,
				"z": 1.1597761346,
				"element": "C" 
			},
			{
				"x": 0.6225910801,
				"y": 5.0292960525,
				"z": -1.6454837072,
				"element": "H" 
			},
			{
				"x": -0.5163609411,
				"y": 4.0980033659,
				"z": -0.6502778572,
				"element": "H" 
			},
			{
				"x": 0.9927147837,
				"y": 3.3516938199,
				"z": -1.2107774676,
				"element": "H" 
			},
			{
				"x": -1.2765391166,
				"y": 4.303936512,
				"z": -3.0619366187,
				"element": "H" 
			},
			{
				"x": -1.9881349066,
				"y": 2.4040283926,
				"z": -1.7418869764,
				"element": "H" 
			},
			{
				"x": 2.2231783999,
				"y": -1.1851945959,
				"z": -3.2072473007,
				"element": "H" 
			},
			{
				"x": 2.3862671174,
				"y": -2.011028793,
				"z": -0.1167779225,
				"element": "H" 
			},
			{
				"x": 2.4718692201,
				"y": -3.4734927498,
				"z": 1.8715413765,
				"element": "H" 
			},
			{
				"x": 0.5309353208,
				"y": -3.6038456338,
				"z": 3.4216218141,
				"element": "H" 
			},
			{
				"x": -1.5053024069,
				"y": -2.2495038582,
				"z": 2.9554321569,
				"element": "H" 
			},
			{
				"x": -1.594559927,
				"y": -0.788386507,
				"z": 0.9441971691,
				"element": "H" 
			}
		],
		 "valence_orbital": [ 
			{
				"type": "occ",
				"energy": -0.26984,
				"method": "rhf"
			},
			{
				"type": "occ",
				"energy": -0.26319,
				"method": "rhf"
			},
			{
				"type": "occ",
				"energy": -0.25952,
				"method": "rhf"
			},
			{
				"type": "occ",
				"energy": -0.25874,
				"method": "rhf"
			},
			{
				"type": "occ",
				"energy": -0.23673,
				"method": "rhf"
			},
			{
				"type": "unocc",
				"energy": -0.03864,
				"method": "rhf"
			},
			{
				"type": "unocc",
				"energy": -0.01648,
				"method": "rhf"
			},
			{
				"type": "unocc",
				"energy": -0.01278,
				"method": "rhf"
			},
			{
				"type": "unocc",
				"energy": 0.0084,
				"method": "rhf"
			},
			{
				"type": "unocc",
				"energy": 0.03584,
				"method": "rhf"
			}
		],
		"cosmo_sigma_profile": { 
			"-0.025": 0.0,
			"-0.024": 0.0,
			"-0.023": 0.0,
			"-0.022": 0.0,
			"-0.021": 0.0,
			"-0.02": 0.534081806571,
			"-0.019": 0.832665157,
			"-0.018": 0.928797266571,
			"-0.017": 1.04854528068,
			"-0.016": 0.562128409624,
			"-0.015": 0.698119975518,
			"-0.014": 0.405294800176,
			"-0.013": 0.961484792035,
			"-0.012": 0.84145491646,
			"-0.011": 0.444994752503,
			"-0.01": 1.06339841159,
			"-0.009": 3.46802873926,
			"-0.008": 5.13572298443,
			"-0.007": 5.07406175904,
			"-0.006": 11.7420139688,
			"-0.005": 18.0597448538,
			"-0.004": 21.3298051817,
			"-0.003": 20.9545268605,
			"-0.002": 22.0554554476,
			"-0.001": 21.603933155,
			"0.0": 18.5367401367,
			"0.001": 18.5236209239,
			"0.002": 19.6057443943,
			"0.003": 21.4906528943,
			"0.004": 25.9147658848,
			"0.005": 20.3876011183,
			"0.006": 13.4967695587,
			"0.007": 6.10206801269,
			"0.008": 4.05603205746,
			"0.009": 4.1144632423,
			"0.01": 2.75044831962,
			"0.011": 1.28981085582,
			"0.012": 1.56741389845,
			"0.013": 1.40673294892,
			"0.014": 0.691651795524,
			"0.015": 0.058970715415,
			"0.016": 0.0,
			"0.017": 0.0,
			"0.018": 0.0,
			"0.019": 0.0,
			"0.02": 0.0,
			"0.021": 0.0,
			"0.022": 0.0,
			"0.023": 0.0,
			"0.024": 0.0,
			"0.025": 0.0
		}
	}
}
