{
	 "smiles": "C[C@H](C[C@H](I)C(C)(C)C)S(=O)(=O)C1=CC=CC=C1", 
	 "Tm": 347.15, 
	 "num_atms": 39, 
	 "gaussian": { 
		 "optdone": 1, 
		 "sigma_profile": "no", 
		 "theory": "DFT", 
		 "functional": "B3LYP", 
		 "basiset": "6-31G**", 
		 "properties": { 
			 "R2extent": 5189.4791, 
			 "electric_dipole_moment_norm": 4.1391774521, 
			 "electric_quadrupole_moment_norm": 19.5390346307, 
			 "total_energy": -1106.12798284, 
			 "HOMO_LUMO_gap": 0.20817, 
			 "cosmo_polarized_energy": -72580.5, 
			 "cosmo_cavitation_energy": 42.73, 
			 "cosmo_dispersion_energy": -28.81, 
			 "cosmo_repulsion_energy": 2.14, 
			 "cosmo_total_nonelectrostatic_energy": 16.06, 
			 "SMD_solvation_energy": 5.62 
		},
		"coords": [
			{
				"x": 3.34288094,
				"y": -1.2198112776,
				"z": 0.572859911,
				"element": "C" 
			},
			{
				"x": 1.9500151986,
				"y": -0.5775237486,
				"z": 0.6145803671,
				"element": "C" 
			},
			{
				"x": 0.8891911676,
				"y": -1.4695087222,
				"z": -0.0557258205,
				"element": "C" 
			},
			{
				"x": -0.5606406421,
				"y": -1.3215524144,
				"z": 0.4203760904,
				"element": "C" 
			},
			{
				"x": -0.6337906359,
				"y": -1.9814731221,
				"z": 2.5725110487,
				"element": "I" 
			},
			{
				"x": -1.6367592953,
				"y": -2.0313601359,
				"z": -0.4492959462,
				"element": "C" 
			},
			{
				"x": -3.0450798015,
				"y": -1.8100180256,
				"z": 0.1384598936,
				"element": "C" 
			},
			{
				"x": -1.3725228272,
				"y": -3.5395247589,
				"z": -0.6090881812,
				"element": "C" 
			},
			{
				"x": -1.615463964,
				"y": -1.3597136233,
				"z": -1.849304842,
				"element": "C" 
			},
			{
				"x": 2.1100436374,
				"y": 1.078193173,
				"z": -0.2020967931,
				"element": "S" 
			},
			{
				"x": 2.1183007909,
				"y": 0.8667114069,
				"z": -1.6638022423,
				"element": "O" 
			},
			{
				"x": 3.2269788701,
				"y": 1.7686302161,
				"z": 0.4671968098,
				"element": "O" 
			},
			{
				"x": 0.607667987,
				"y": 1.9922861808,
				"z": 0.1993929721,
				"element": "C" 
			},
			{
				"x": 0.4134315993,
				"y": 2.4600562702,
				"z": 1.5019577371,
				"element": "C" 
			},
			{
				"x": -0.7405674364,
				"y": 3.1871057671,
				"z": 1.793562697,
				"element": "C" 
			},
			{
				"x": -1.67368476,
				"y": 3.4543315386,
				"z": 0.7875346417,
				"element": "C" 
			},
			{
				"x": -1.4556372246,
				"y": 3.0016484124,
				"z": -0.5157447439,
				"element": "C" 
			},
			{
				"x": -0.3091491347,
				"y": 2.2639128048,
				"z": -0.8177097228,
				"element": "C" 
			},
			{
				"x": 3.6282074541,
				"y": -1.4631330146,
				"z": -0.4551126833,
				"element": "H" 
			},
			{
				"x": 3.3198124259,
				"y": -2.1456536979,
				"z": 1.1553409874,
				"element": "H" 
			},
			{
				"x": 4.0979541509,
				"y": -0.5555642453,
				"z": 0.995877445,
				"element": "H" 
			},
			{
				"x": 1.6829391338,
				"y": -0.3480570696,
				"z": 1.6507031155,
				"element": "H" 
			},
			{
				"x": 1.2032936018,
				"y": -2.5092431377,
				"z": 0.0735843747,
				"element": "H" 
			},
			{
				"x": 0.9269326364,
				"y": -1.2722611957,
				"z": -1.1334310207,
				"element": "H" 
			},
			{
				"x": -0.8357011191,
				"y": -0.2724484117,
				"z": 0.5299217903,
				"element": "H" 
			},
			{
				"x": -3.1730382681,
				"y": -2.3228328229,
				"z": 1.094326262,
				"element": "H" 
			},
			{
				"x": -3.2460601573,
				"y": -0.7443989518,
				"z": 0.2966853834,
				"element": "H" 
			},
			{
				"x": -3.800950821,
				"y": -2.1944312609,
				"z": -0.5541122344,
				"element": "H" 
			},
			{
				"x": -2.156659502,
				"y": -3.9908330892,
				"z": -1.225681981,
				"element": "H" 
			},
			{
				"x": -1.3721072933,
				"y": -4.0490030127,
				"z": 0.3590359665,
				"element": "H" 
			},
			{
				"x": -0.4152632187,
				"y": -3.7389437585,
				"z": -1.1009830932,
				"element": "H" 
			},
			{
				"x": -2.4317818627,
				"y": -1.765638215,
				"z": -2.4551354537,
				"element": "H" 
			},
			{
				"x": -0.6849081957,
				"y": -1.5419496349,
				"z": -2.3927045243,
				"element": "H" 
			},
			{
				"x": -1.7619598389,
				"y": -0.277089695,
				"z": -1.7755576887,
				"element": "H" 
			},
			{
				"x": 1.1604683289,
				"y": 2.274994058,
				"z": 2.2668391417,
				"element": "H" 
			},
			{
				"x": -0.9059718446,
				"y": 3.5532829309,
				"z": 2.8020840131,
				"element": "H" 
			},
			{
				"x": -2.5680168564,
				"y": 4.0252080096,
				"z": 1.0191895884,
				"element": "H" 
			},
			{
				"x": -2.1736971241,
				"y": 3.2269321506,
				"z": -1.298526472,
				"element": "H" 
			},
			{
				"x": -0.1066060989,
				"y": 1.9115741229,
				"z": -1.8233067933,
				"element": "H" 
			}
		],
		 "valence_orbital": [ 
			{
				"type": "occ",
				"energy": -0.28203,
				"method": "rhf"
			},
			{
				"type": "occ",
				"energy": -0.27716,
				"method": "rhf"
			},
			{
				"type": "occ",
				"energy": -0.27535,
				"method": "rhf"
			},
			{
				"type": "occ",
				"energy": -0.25845,
				"method": "rhf"
			},
			{
				"type": "occ",
				"energy": -0.2582,
				"method": "rhf"
			},
			{
				"type": "unocc",
				"energy": -0.05003,
				"method": "rhf"
			},
			{
				"type": "unocc",
				"energy": -0.04408,
				"method": "rhf"
			},
			{
				"type": "unocc",
				"energy": -0.02728,
				"method": "rhf"
			},
			{
				"type": "unocc",
				"energy": 0.03669,
				"method": "rhf"
			},
			{
				"type": "unocc",
				"energy": 0.03774,
				"method": "rhf"
			}
		],
		"cosmo_sigma_profile": { 
			"0.0": 0.0,
			"0.0": 0.0,
			"0.0": 0.0,
			"0.0": 0.0,
			"0.0": 0.0,
			"0.0": 0.0,
			"0.0": 0.0,
			"0.0": 0.0,
			"0.0": 0.0,
			"0.0": 0.0,
			"0.0": 0.0,
			"0.0": 0.0,
			"0.0": 0.0,
			"0.0": 0.0,
			"0.0": 0.0,
			"0.0": 0.0,
			"0.0": 0.0,
			"0.0": 0.0,
			"0.0": 0.0,
			"0.0": 0.0,
			"0.0": 0.0,
			"0.0": 0.0,
			"0.0": 0.0,
			"0.0": 0.0,
			"0.0": 0.0,
			"0.0": 0.0,
			"0.0": 0.0,
			"0.0": 0.0,
			"0.0": 0.0,
			"0.0": 0.0,
			"0.0": 0.0,
			"0.0": 0.0,
			"0.0": 0.0,
			"0.0": 0.0,
			"0.0": 0.0,
			"0.0": 0.0,
			"0.0": 0.0,
			"0.0": 0.0,
			"0.0": 0.0,
			"0.0": 0.0,
			"0.0": 0.0,
			"0.0": 0.0,
			"0.0": 0.0,
			"0.0": 0.0,
			"0.0": 0.0,
			"0.0": 0.0,
			"0.0": 0.0,
			"0.0": 0.0,
			"0.0": 0.0,
			"0.0": 0.0,
			"0.0": 0.0
		}
	}
}
