{
	 "smiles": "OC1=C(O)C=C(C=C1)C(=O)CCl", 
	 "Tm": 447.15, 
	 "num_atms": 19, 
	 "gaussian": { 
		 "optdone": 1, 
		 "sigma_profile": "yes", 
		 "theory": "DFT", 
		 "functional": "B3LYP", 
		 "basiset": "6-31G**", 
		 "properties": { 
			 "R2extent": 3371.5728, 
			 "electric_dipole_moment_norm": 3.97321476641, 
			 "electric_quadrupole_moment_norm": 10.4930672794, 
			 "total_energy": -994.925183536, 
			 "HOMO_LUMO_gap": 0.16137, 
			 "cosmo_polarized_energy": -15.13, 
			 "cosmo_cavitation_energy": 25.36, 
			 "cosmo_dispersion_energy": -18.83, 
			 "cosmo_repulsion_energy": 1.51, 
			 "cosmo_total_nonelectrostatic_energy": 8.04, 
			 "SMD_solvation_energy": 5.3 
		},
		"coords": [
			{
				"x": -2.6625522421,
				"y": -1.609897214,
				"z": 1.6030227913,
				"element": "O" 
			},
			{
				"x": -1.5743047804,
				"y": -1.5993160428,
				"z": 0.7980073097,
				"element": "C" 
			},
			{
				"x": -1.5736551433,
				"y": -0.8315376589,
				"z": -0.3843852856,
				"element": "C" 
			},
			{
				"x": -2.7380586361,
				"y": -0.1364769662,
				"z": -0.6137209105,
				"element": "O" 
			},
			{
				"x": -0.4641224041,
				"y": -0.8157487561,
				"z": -1.2131051758,
				"element": "C" 
			},
			{
				"x": 0.6799051568,
				"y": -1.5661814541,
				"z": -0.874601871,
				"element": "C" 
			},
			{
				"x": 0.6712550783,
				"y": -2.3268241535,
				"z": 0.3056262624,
				"element": "C" 
			},
			{
				"x": -0.4437661488,
				"y": -2.3456768354,
				"z": 1.1348675761,
				"element": "C" 
			},
			{
				"x": 1.8938690944,
				"y": -1.615341628,
				"z": -1.7246897453,
				"element": "C" 
			},
			{
				"x": 2.8660222112,
				"y": -2.2970854044,
				"z": -1.4338582912,
				"element": "O" 
			},
			{
				"x": 1.9389601785,
				"y": -0.8387780755,
				"z": -3.0471571825,
				"element": "C" 
			},
			{
				"x": 1.9970776288,
				"y": 0.9621414492,
				"z": -2.7989434486,
				"element": "Cl" 
			},
			{
				"x": -3.3283057512,
				"y": -1.0246684537,
				"z": 1.2092131055,
				"element": "H" 
			},
			{
				"x": -2.6420794878,
				"y": 0.4275486521,
				"z": -1.3909406864,
				"element": "H" 
			},
			{
				"x": -0.4823342069,
				"y": -0.2010753185,
				"z": -2.1081447187,
				"element": "H" 
			},
			{
				"x": 1.5569579232,
				"y": -2.9014610684,
				"z": 0.551612092,
				"element": "H" 
			},
			{
				"x": -0.4617283108,
				"y": -2.9288281183,
				"z": 2.0493870996,
				"element": "H" 
			},
			{
				"x": 2.8543307365,
				"y": -1.117600403,
				"z": -3.5650689427,
				"element": "H" 
			},
			{
				"x": 1.0698291037,
				"y": -1.0434925504,
				"z": -3.6757199783,
				"element": "H" 
			}
		],
		 "valence_orbital": [ 
			{
				"type": "occ",
				"energy": -0.31774,
				"method": "rhf"
			},
			{
				"type": "occ",
				"energy": -0.30729,
				"method": "rhf"
			},
			{
				"type": "occ",
				"energy": -0.25812,
				"method": "rhf"
			},
			{
				"type": "occ",
				"energy": -0.25672,
				"method": "rhf"
			},
			{
				"type": "occ",
				"energy": -0.22723,
				"method": "rhf"
			},
			{
				"type": "unocc",
				"energy": -0.06586,
				"method": "rhf"
			},
			{
				"type": "unocc",
				"energy": -0.0087,
				"method": "rhf"
			},
			{
				"type": "unocc",
				"energy": 0.00826,
				"method": "rhf"
			},
			{
				"type": "unocc",
				"energy": 0.04098,
				"method": "rhf"
			},
			{
				"type": "unocc",
				"energy": 0.05711,
				"method": "rhf"
			}
		],
		"cosmo_sigma_profile": { 
			"-0.025": 0.0,
			"-0.024": 0.0,
			"-0.023": 0.0,
			"-0.022": 0.0,
			"-0.021": 0.0,
			"-0.02": 0.0,
			"-0.019": 0.259339086007,
			"-0.018": 1.19687473697,
			"-0.017": 1.25790946834,
			"-0.016": 1.42038400728,
			"-0.015": 1.19958671934,
			"-0.014": 2.2637085548,
			"-0.013": 0.804780299748,
			"-0.012": 1.44755380921,
			"-0.011": 2.30458994371,
			"-0.01": 1.68443281219,
			"-0.009": 4.18492578774,
			"-0.008": 5.36810758776,
			"-0.007": 7.02191743989,
			"-0.006": 8.9182066182,
			"-0.005": 9.08220172907,
			"-0.004": 8.44580462927,
			"-0.003": 7.3489732102,
			"-0.002": 6.60164461985,
			"-0.001": 9.48061712614,
			"0.0": 12.0310645913,
			"0.001": 14.4782259223,
			"0.002": 19.9886146114,
			"0.003": 20.2486958732,
			"0.004": 15.3904019866,
			"0.005": 12.6816110038,
			"0.006": 7.70190952664,
			"0.007": 3.24260333693,
			"0.008": 3.17509493356,
			"0.009": 4.09817442492,
			"0.01": 3.96067103501,
			"0.011": 4.62626263557,
			"0.012": 2.44134040753,
			"0.013": 0.16320969246,
			"0.014": 0.0,
			"0.015": 0.0,
			"0.016": 0.0,
			"0.017": 0.0,
			"0.018": 0.0,
			"0.019": 0.0,
			"0.02": 0.0,
			"0.021": 0.0,
			"0.022": 0.0,
			"0.023": 0.0,
			"0.024": 0.0,
			"0.025": 0.0
		}
	}
}
