{
	 "smiles": "CC1=C(C=CC=C1)C(=O)CC1=CC=C(C=C1)C(N)=O", 
	 "Tm": 461.15, 
	 "num_atms": 34, 
	 "gaussian": { 
		 "optdone": 1, 
		 "sigma_profile": "yes", 
		 "theory": "DFT", 
		 "functional": "B3LYP", 
		 "basiset": "6-31G**", 
		 "properties": { 
			 "R2extent": 7199.4032, 
			 "electric_dipole_moment_norm": 4.8806265438, 
			 "electric_quadrupole_moment_norm": 22.1438269292, 
			 "total_energy": -823.970357725, 
			 "HOMO_LUMO_gap": 0.17989, 
			 "cosmo_polarized_energy": -18.25, 
			 "cosmo_cavitation_energy": 37.89, 
			 "cosmo_dispersion_energy": -26.9, 
			 "cosmo_repulsion_energy": 2.06, 
			 "cosmo_total_nonelectrostatic_energy": 13.06, 
			 "SMD_solvation_energy": 7.33 
		},
		"coords": [
			{
				"x": -3.5452572495,
				"y": -0.8471598597,
				"z": -1.0436184558,
				"element": "C" 
			},
			{
				"x": -2.8858118226,
				"y": -1.0280239894,
				"z": 0.3025064525,
				"element": "C" 
			},
			{
				"x": -1.7619901001,
				"y": -0.275051893,
				"z": 0.7395312298,
				"element": "C" 
			},
			{
				"x": -1.2173696717,
				"y": -0.5253881663,
				"z": 2.0124289301,
				"element": "C" 
			},
			{
				"x": -1.7478715694,
				"y": -1.4964464077,
				"z": 2.8550940722,
				"element": "C" 
			},
			{
				"x": -2.8586882265,
				"y": -2.2268622586,
				"z": 2.4351543714,
				"element": "C" 
			},
			{
				"x": -3.4127892012,
				"y": -1.9856556233,
				"z": 1.1788127861,
				"element": "C" 
			},
			{
				"x": -1.1391727026,
				"y": 0.7660172504,
				"z": -0.1327129027,
				"element": "C" 
			},
			{
				"x": -1.3830191279,
				"y": 0.8448767318,
				"z": -1.3300761991,
				"element": "O" 
			},
			{
				"x": -0.1506896742,
				"y": 1.7791235512,
				"z": 0.4721793942,
				"element": "C" 
			},
			{
				"x": 1.2914161206,
				"y": 1.2980121959,
				"z": 0.4346768553,
				"element": "C" 
			},
			{
				"x": 2.0976516667,
				"y": 1.3579773191,
				"z": 1.5782472879,
				"element": "C" 
			},
			{
				"x": 3.4285852532,
				"y": 0.9429656175,
				"z": 1.5388123529,
				"element": "C" 
			},
			{
				"x": 3.9825982405,
				"y": 0.4534631299,
				"z": 0.3493527285,
				"element": "C" 
			},
			{
				"x": 3.1723716,
				"y": 0.375399265,
				"z": -0.7918155144,
				"element": "C" 
			},
			{
				"x": 1.8484950064,
				"y": 0.7988708404,
				"z": -0.7532994773,
				"element": "C" 
			},
			{
				"x": 5.4028275882,
				"y": -0.0186115717,
				"z": 0.227586142,
				"element": "C" 
			},
			{
				"x": 6.2671936917,
				"y": 0.3849886875,
				"z": 1.2205799277,
				"element": "N" 
			},
			{
				"x": 5.7708106467,
				"y": -0.7413131152,
				"z": -0.6902488793,
				"element": "O" 
			},
			{
				"x": -2.8768340057,
				"y": -1.1415476894,
				"z": -1.8569575303,
				"element": "H" 
			},
			{
				"x": -3.80240845,
				"y": 0.1978798529,
				"z": -1.2359553282,
				"element": "H" 
			},
			{
				"x": -4.4557602415,
				"y": -1.4508848242,
				"z": -1.0981025814,
				"element": "H" 
			},
			{
				"x": -0.3451631917,
				"y": 0.0289048787,
				"z": 2.3387600472,
				"element": "H" 
			},
			{
				"x": -1.3004062998,
				"y": -1.6787096722,
				"z": 3.8273451184,
				"element": "H" 
			},
			{
				"x": -3.2943098582,
				"y": -2.983488655,
				"z": 3.081712847,
				"element": "H" 
			},
			{
				"x": -4.2796505847,
				"y": -2.5585991081,
				"z": 0.8605117662,
				"element": "H" 
			},
			{
				"x": -0.4293974106,
				"y": 2.0515774929,
				"z": 1.4934723587,
				"element": "H" 
			},
			{
				"x": -0.249867908,
				"y": 2.6740494544,
				"z": -0.1508014268,
				"element": "H" 
			},
			{
				"x": 1.6822268243,
				"y": 1.7343221829,
				"z": 2.5100212431,
				"element": "H" 
			},
			{
				"x": 4.0181962954,
				"y": 0.9714689811,
				"z": 2.4506516291,
				"element": "H" 
			},
			{
				"x": 3.606990612,
				"y": -0.0232596735,
				"z": -1.7023015581,
				"element": "H" 
			},
			{
				"x": 1.2323205001,
				"y": 0.7429418095,
				"z": -1.6456557346,
				"element": "H" 
			},
			{
				"x": 7.23898235,
				"y": 0.1651192603,
				"z": 1.054454652,
				"element": "H" 
			},
			{
				"x": 6.0772909001,
				"y": 1.2236440058,
				"z": 1.7468533957,
				"element": "H" 
			}
		],
		 "valence_orbital": [ 
			{
				"type": "occ",
				"energy": -0.25982,
				"method": "rhf"
			},
			{
				"type": "occ",
				"energy": -0.25735,
				"method": "rhf"
			},
			{
				"type": "occ",
				"energy": -0.25043,
				"method": "rhf"
			},
			{
				"type": "occ",
				"energy": -0.24787,
				"method": "rhf"
			},
			{
				"type": "occ",
				"energy": -0.23958,
				"method": "rhf"
			},
			{
				"type": "unocc",
				"energy": -0.05969,
				"method": "rhf"
			},
			{
				"type": "unocc",
				"energy": -0.0368,
				"method": "rhf"
			},
			{
				"type": "unocc",
				"energy": -0.01179,
				"method": "rhf"
			},
			{
				"type": "unocc",
				"energy": -0.00736,
				"method": "rhf"
			},
			{
				"type": "unocc",
				"energy": 0.03386,
				"method": "rhf"
			}
		],
		"cosmo_sigma_profile": { 
			"-0.025": 0.0,
			"-0.024": 0.0,
			"-0.023": 0.0,
			"-0.022": 0.0,
			"-0.021": 0.0,
			"-0.02": 0.0,
			"-0.019": 0.0,
			"-0.018": 0.0,
			"-0.017": 0.0,
			"-0.016": 0.0,
			"-0.015": 0.0501291420737,
			"-0.014": 1.24205720023,
			"-0.013": 2.65964096349,
			"-0.012": 1.69988953924,
			"-0.011": 2.54849877954,
			"-0.01": 2.78176402516,
			"-0.009": 3.45793289409,
			"-0.008": 3.15904271131,
			"-0.007": 5.75886568063,
			"-0.006": 14.060918843,
			"-0.005": 19.8334850767,
			"-0.004": 23.2945498432,
			"-0.003": 20.3622785547,
			"-0.002": 20.6063300056,
			"-0.001": 20.3400388539,
			"0.0": 26.2793617664,
			"0.001": 24.8342394189,
			"0.002": 19.8431888051,
			"0.003": 20.7991662094,
			"0.004": 26.0132360045,
			"0.005": 7.42400546712,
			"0.006": 3.75059932946,
			"0.007": 4.18093446444,
			"0.008": 3.19753170437,
			"0.009": 3.05363391749,
			"0.01": 3.18470594708,
			"0.011": 3.93600506115,
			"0.012": 3.77543410778,
			"0.013": 5.34912991713,
			"0.014": 3.97386888251,
			"0.015": 0.293848268297,
			"0.016": 0.0,
			"0.017": 0.0,
			"0.018": 0.0,
			"0.019": 0.0,
			"0.02": 0.0,
			"0.021": 0.0,
			"0.022": 0.0,
			"0.023": 0.0,
			"0.024": 0.0,
			"0.025": 0.0
		}
	}
}
