{
	 "smiles": "COC1=CC=C(C=C1OCC1=CC=CC=C1)C(O)=O", 
	 "Tm": 452.65, 
	 "num_atms": 33, 
	 "gaussian": { 
		 "optdone": 1, 
		 "sigma_profile": "yes", 
		 "theory": "DFT", 
		 "functional": "B3LYP", 
		 "basiset": "6-31G**", 
		 "properties": { 
			 "R2extent": 5624.2999, 
			 "electric_dipole_moment_norm": 5.2776512219, 
			 "electric_quadrupole_moment_norm": 29.5342453931, 
			 "total_energy": -880.913630541, 
			 "HOMO_LUMO_gap": 0.18254, 
			 "cosmo_polarized_energy": -18.8, 
			 "cosmo_cavitation_energy": 37.5, 
			 "cosmo_dispersion_energy": -25.96, 
			 "cosmo_repulsion_energy": 2.01, 
			 "cosmo_total_nonelectrostatic_energy": 13.55, 
			 "SMD_solvation_energy": 8.42 
		},
		"coords": [
			{
				"x": -2.6076300171,
				"y": -3.9564823411,
				"z": 1.050490967,
				"element": "C" 
			},
			{
				"x": -1.4685920204,
				"y": -3.1092734865,
				"z": 1.0018985218,
				"element": "O" 
			},
			{
				"x": -1.4474557969,
				"y": -2.116196214,
				"z": 0.0779253748,
				"element": "C" 
			},
			{
				"x": -2.4696757875,
				"y": -1.8457240963,
				"z": -0.8342269557,
				"element": "C" 
			},
			{
				"x": -2.3491120857,
				"y": -0.7949695338,
				"z": -1.7452372413,
				"element": "C" 
			},
			{
				"x": -1.2123410249,
				"y": 0.0104290152,
				"z": -1.7430903844,
				"element": "C" 
			},
			{
				"x": -0.1693624456,
				"y": -0.2679991304,
				"z": -0.8379228881,
				"element": "C" 
			},
			{
				"x": -0.2713721719,
				"y": -1.3195983919,
				"z": 0.0648619117,
				"element": "C" 
			},
			{
				"x": 0.687424626,
				"y": -1.682210816,
				"z": 0.9660188175,
				"element": "O" 
			},
			{
				"x": 1.9482387019,
				"y": -1.0147673835,
				"z": 0.9389415722,
				"element": "C" 
			},
			{
				"x": 1.9217946584,
				"y": 0.3876955219,
				"z": 1.5171733221,
				"element": "C" 
			},
			{
				"x": 1.094307777,
				"y": 0.6944063037,
				"z": 2.6042159312,
				"element": "C" 
			},
			{
				"x": 1.1043804346,
				"y": 1.9745749472,
				"z": 3.1578764495,
				"element": "C" 
			},
			{
				"x": 1.9456597492,
				"y": 2.9608299115,
				"z": 2.6366051189,
				"element": "C" 
			},
			{
				"x": 2.7753550649,
				"y": 2.6611963757,
				"z": 1.5550349977,
				"element": "C" 
			},
			{
				"x": 2.7595505493,
				"y": 1.3811175339,
				"z": 0.9963735394,
				"element": "C" 
			},
			{
				"x": -1.1426259375,
				"y": 1.1383861175,
				"z": -2.7194198485,
				"element": "C" 
			},
			{
				"x": -0.2714775039,
				"y": 2.1466356552,
				"z": -2.4263926795,
				"element": "O" 
			},
			{
				"x": -1.8080849708,
				"y": 1.1961819382,
				"z": -3.7280369389,
				"element": "O" 
			},
			{
				"x": -3.5199421221,
				"y": -3.393590494,
				"z": 1.2848091321,
				"element": "H" 
			},
			{
				"x": -2.7497867363,
				"y": -4.4958751134,
				"z": 0.1056625442,
				"element": "H" 
			},
			{
				"x": -2.4116587791,
				"y": -4.6733592601,
				"z": 1.8488084502,
				"element": "H" 
			},
			{
				"x": -3.3660790785,
				"y": -2.4539015835,
				"z": -0.8402707192,
				"element": "H" 
			},
			{
				"x": -3.1382161597,
				"y": -0.5846281716,
				"z": -2.4581911113,
				"element": "H" 
			},
			{
				"x": 0.7383803413,
				"y": 0.322389756,
				"z": -0.8551246782,
				"element": "H" 
			},
			{
				"x": 2.3547311225,
				"y": -1.0049337246,
				"z": -0.0815862411,
				"element": "H" 
			},
			{
				"x": 2.5956611824,
				"y": -1.6593714721,
				"z": 1.5426254726,
				"element": "H" 
			},
			{
				"x": 0.4375886007,
				"y": -0.0726374454,
				"z": 3.0033851064,
				"element": "H" 
			},
			{
				"x": 0.4547371999,
				"y": 2.2033092593,
				"z": 3.9979425945,
				"element": "H" 
			},
			{
				"x": 1.9518269783,
				"y": 3.957128612,
				"z": 3.0688988094,
				"element": "H" 
			},
			{
				"x": 3.4294460982,
				"y": 3.4231709943,
				"z": 1.1409708614,
				"element": "H" 
			},
			{
				"x": 3.4047131191,
				"y": 1.1537177095,
				"z": 0.1501911562,
				"element": "H" 
			},
			{
				"x": 0.0355164339,
				"y": 2.064649007,
				"z": -1.5125109645,
				"element": "H" 
			}
		],
		 "valence_orbital": [ 
			{
				"type": "occ",
				"energy": -0.2623,
				"method": "rhf"
			},
			{
				"type": "occ",
				"energy": -0.26222,
				"method": "rhf"
			},
			{
				"type": "occ",
				"energy": -0.25818,
				"method": "rhf"
			},
			{
				"type": "occ",
				"energy": -0.25161,
				"method": "rhf"
			},
			{
				"type": "occ",
				"energy": -0.21747,
				"method": "rhf"
			},
			{
				"type": "unocc",
				"energy": -0.03493,
				"method": "rhf"
			},
			{
				"type": "unocc",
				"energy": -0.01644,
				"method": "rhf"
			},
			{
				"type": "unocc",
				"energy": -0.01487,
				"method": "rhf"
			},
			{
				"type": "unocc",
				"energy": -0.00492,
				"method": "rhf"
			},
			{
				"type": "unocc",
				"energy": 0.0612,
				"method": "rhf"
			}
		],
		"cosmo_sigma_profile": { 
			"-0.025": 0.0,
			"-0.024": 0.0,
			"-0.023": 0.0,
			"-0.022": 0.0,
			"-0.021": 0.0,
			"-0.02": 0.0,
			"-0.019": 0.0,
			"-0.018": 0.0,
			"-0.017": 0.0,
			"-0.016": 0.11651638839,
			"-0.015": 0.521367648182,
			"-0.014": 0.449272843302,
			"-0.013": 1.00295077477,
			"-0.012": 1.22183839956,
			"-0.011": 2.14970026629,
			"-0.01": 1.55801468289,
			"-0.009": 1.54345285973,
			"-0.008": 2.16185943725,
			"-0.007": 7.75524644432,
			"-0.006": 22.4163492398,
			"-0.005": 26.8842916324,
			"-0.004": 28.2939997585,
			"-0.003": 24.0039164763,
			"-0.002": 17.5545157387,
			"-0.001": 15.0925427336,
			"0.0": 14.5481464681,
			"0.001": 18.5223473134,
			"0.002": 20.400231086,
			"0.003": 20.7368709267,
			"0.004": 16.5930296314,
			"0.005": 11.3664853658,
			"0.006": 7.88207974512,
			"0.007": 3.45244420741,
			"0.008": 4.63549846961,
			"0.009": 4.71038716801,
			"0.01": 4.8491714247,
			"0.011": 6.51777609646,
			"0.012": 7.53278258318,
			"0.013": 3.8183155253,
			"0.014": 0.95921018433,
			"0.015": 0.000620456420295,
			"0.016": 0.0,
			"0.017": 0.0,
			"0.018": 0.0,
			"0.019": 0.0,
			"0.02": 0.0,
			"0.021": 0.0,
			"0.022": 0.0,
			"0.023": 0.0,
			"0.024": 0.0,
			"0.025": 0.0
		}
	}
}
