{
	 "smiles": "CC(C)NS(=O)(=O)C1=CC=C(C=CC(O)=O)C=C1", 
	 "Tm": 497.15, 
	 "num_atms": 33, 
	 "gaussian": { 
		 "optdone": 1, 
		 "sigma_profile": "yes", 
		 "theory": "DFT", 
		 "functional": "B3LYP", 
		 "basiset": "6-31G**", 
		 "properties": { 
			 "R2extent": 7700.7405, 
			 "electric_dipole_moment_norm": 4.17551556697, 
			 "electric_quadrupole_moment_norm": 18.0879011146, 
			 "total_energy": -1220.08709273, 
			 "HOMO_LUMO_gap": 0.16291, 
			 "cosmo_polarized_energy": -18.22, 
			 "cosmo_cavitation_energy": 38.07, 
			 "cosmo_dispersion_energy": -27.16, 
			 "cosmo_repulsion_energy": 2.06, 
			 "cosmo_total_nonelectrostatic_energy": 12.97, 
			 "SMD_solvation_energy": 6.76 
		},
		"coords": [
			{
				"x": -2.0647191123,
				"y": -1.9595043371,
				"z": -3.1551813322,
				"element": "C" 
			},
			{
				"x": -1.4657914379,
				"y": -0.8138736552,
				"z": -3.9752591978,
				"element": "C" 
			},
			{
				"x": -0.9896461513,
				"y": -1.2665586319,
				"z": -5.3625201906,
				"element": "C" 
			},
			{
				"x": -0.4249927132,
				"y": -0.0798038643,
				"z": -3.2057478713,
				"element": "N" 
			},
			{
				"x": 0.9479117616,
				"y": -0.8233220311,
				"z": -2.5706467986,
				"element": "S" 
			},
			{
				"x": 1.2094566735,
				"y": -2.1250224456,
				"z": -3.201060635,
				"element": "O" 
			},
			{
				"x": 1.9671392171,
				"y": 0.232615966,
				"z": -2.5733389637,
				"element": "O" 
			},
			{
				"x": 0.4824659446,
				"y": -1.157881889,
				"z": -0.8670288404,
				"element": "C" 
			},
			{
				"x": -0.0075249519,
				"y": -0.1280092696,
				"z": -0.0593053933,
				"element": "C" 
			},
			{
				"x": -0.3051404781,
				"y": -0.3758029181,
				"z": 1.2757488697,
				"element": "C" 
			},
			{
				"x": -0.10515758,
				"y": -1.6601933897,
				"z": 1.8266971307,
				"element": "C" 
			},
			{
				"x": -0.3752821382,
				"y": -2.0488910381,
				"z": 3.2147751912,
				"element": "C" 
			},
			{
				"x": -0.8585381086,
				"y": -1.4353883691,
				"z": 4.3210363702,
				"element": "C" 
			},
			{
				"x": -1.3257537538,
				"y": -0.0541087141,
				"z": 4.5387031532,
				"element": "C" 
			},
			{
				"x": -1.7217792708,
				"y": 0.0969415622,
				"z": 5.8301011109,
				"element": "O" 
			},
			{
				"x": -1.3873947105,
				"y": 0.8743486438,
				"z": 3.7507932121,
				"element": "O" 
			},
			{
				"x": 0.4004585296,
				"y": -2.6753557926,
				"z": 0.9874417425,
				"element": "C" 
			},
			{
				"x": 0.6956094632,
				"y": -2.4351941333,
				"z": -0.3506231026,
				"element": "C" 
			},
			{
				"x": -2.9260362949,
				"y": -2.3743527733,
				"z": -3.6870111937,
				"element": "H" 
			},
			{
				"x": -1.340268447,
				"y": -2.765024223,
				"z": -3.010688852,
				"element": "H" 
			},
			{
				"x": -2.4019379621,
				"y": -1.6071849139,
				"z": -2.1765489168,
				"element": "H" 
			},
			{
				"x": -2.2506593903,
				"y": -0.0580833001,
				"z": -4.1079537674,
				"element": "H" 
			},
			{
				"x": -0.5970955136,
				"y": -0.4202381387,
				"z": -5.9369974174,
				"element": "H" 
			},
			{
				"x": -0.2022797894,
				"y": -2.0185463997,
				"z": -5.276121714,
				"element": "H" 
			},
			{
				"x": -1.8253653804,
				"y": -1.693803729,
				"z": -5.9272013169,
				"element": "H" 
			},
			{
				"x": -0.0968037413,
				"y": 0.7609350383,
				"z": -3.674973967,
				"element": "H" 
			},
			{
				"x": -0.1660163764,
				"y": 0.8599740298,
				"z": -0.4775982573,
				"element": "H" 
			},
			{
				"x": -0.6929587409,
				"y": 0.4150519588,
				"z": 1.9037788266,
				"element": "H" 
			},
			{
				"x": -0.1201613156,
				"y": -3.093439117,
				"z": 3.3923355571,
				"element": "H" 
			},
			{
				"x": -0.9264945956,
				"y": -2.0438677258,
				"z": 5.2174158326,
				"element": "H" 
			},
			{
				"x": -2.0152739904,
				"y": 1.0193946465,
				"z": 5.911416136,
				"element": "H" 
			},
			{
				"x": 0.5635234547,
				"y": -3.6697147347,
				"z": 1.3941788373,
				"element": "H" 
			},
			{
				"x": 1.0814069001,
				"y": -3.2179963116,
				"z": -0.9936142421,
				"element": "H" 
			}
		],
		 "valence_orbital": [ 
			{
				"type": "occ",
				"energy": -0.29895,
				"method": "rhf"
			},
			{
				"type": "occ",
				"energy": -0.28135,
				"method": "rhf"
			},
			{
				"type": "occ",
				"energy": -0.27322,
				"method": "rhf"
			},
			{
				"type": "occ",
				"energy": -0.26814,
				"method": "rhf"
			},
			{
				"type": "occ",
				"energy": -0.24832,
				"method": "rhf"
			},
			{
				"type": "unocc",
				"energy": -0.08541,
				"method": "rhf"
			},
			{
				"type": "unocc",
				"energy": -0.01991,
				"method": "rhf"
			},
			{
				"type": "unocc",
				"energy": -0.00883,
				"method": "rhf"
			},
			{
				"type": "unocc",
				"energy": 0.05854,
				"method": "rhf"
			},
			{
				"type": "unocc",
				"energy": 0.06768,
				"method": "rhf"
			}
		],
		"cosmo_sigma_profile": { 
			"-0.025": 0.0,
			"-0.024": 0.0,
			"-0.023": 0.0,
			"-0.022": 0.0,
			"-0.021": 0.0,
			"-0.02": 0.0,
			"-0.019": 0.00545023906658,
			"-0.018": 0.537076678298,
			"-0.017": 1.10337687334,
			"-0.016": 0.772536042828,
			"-0.015": 0.979362871718,
			"-0.014": 1.28384887964,
			"-0.013": 1.4882307853,
			"-0.012": 1.35826939236,
			"-0.011": 1.48341490865,
			"-0.01": 2.10081655528,
			"-0.009": 3.35619071843,
			"-0.008": 5.14931638011,
			"-0.007": 10.0585206401,
			"-0.006": 11.6794870315,
			"-0.005": 11.9748415726,
			"-0.004": 16.5488361982,
			"-0.003": 20.9528669614,
			"-0.002": 21.9576503158,
			"-0.001": 26.4017068078,
			"0.0": 32.03668688,
			"0.001": 32.4962166489,
			"0.002": 25.7590263624,
			"0.003": 11.0071096432,
			"0.004": 7.37920351953,
			"0.005": 5.61363261044,
			"0.006": 5.86863713871,
			"0.007": 5.87360891091,
			"0.008": 6.79702201321,
			"0.009": 6.75982628037,
			"0.01": 8.08437075725,
			"0.011": 10.2711375544,
			"0.012": 4.70325219631,
			"0.013": 0.0,
			"0.014": 0.0,
			"0.015": 0.0,
			"0.016": 0.0,
			"0.017": 0.0,
			"0.018": 0.0,
			"0.019": 0.0,
			"0.02": 0.0,
			"0.021": 0.0,
			"0.022": 0.0,
			"0.023": 0.0,
			"0.024": 0.0,
			"0.025": 0.0
		}
	}
}
