{
	 "smiles": "[O-]C(=O)C([O-])=O", 
	 "Tm": 462.65, 
	 "num_atms": 6, 
	 "gaussian": { 
		 "optdone": 1, 
		 "sigma_profile": "yes", 
		 "theory": "DFT", 
		 "functional": "B3LYP", 
		 "basiset": "6-31G**", 
		 "properties": { 
			 "R2extent": 1335.2803, 
			 "electric_dipole_moment_norm": 21.7465565295, 
			 "electric_quadrupole_moment_norm": 29.4319346291, 
			 "total_energy": -377.006415955, 
			 "HOMO_LUMO_gap": 0.25845, 
			 "cosmo_polarized_energy": -2.82, 
			 "cosmo_cavitation_energy": 12.97, 
			 "cosmo_dispersion_energy": -8.82, 
			 "cosmo_repulsion_energy": 0.82, 
			 "cosmo_total_nonelectrostatic_energy": 4.97, 
			 "SMD_solvation_energy": 5.25 
		},
		"coords": [
			{
				"x": -1.4151359041,
				"y": 2.8181324453,
				"z": -0.0493404476,
				"element": "O" 
			},
			{
				"x": -1.1242152877,
				"y": 1.6831792541,
				"z": 0.4495306162,
				"element": "C" 
			},
			{
				"x": -1.1062040619,
				"y": 0.5755761879,
				"z": -0.178564557,
				"element": "O" 
			},
			{
				"x": -0.7540506828,
				"y": 1.6462726353,
				"z": 1.9766587617,
				"element": "C" 
			},
			{
				"x": 0.4731609634,
				"y": 1.8000398107,
				"z": 2.2798686037,
				"element": "O" 
			},
			{
				"x": -1.708155027,
				"y": 1.4649996667,
				"z": 2.8003470231,
				"element": "O" 
			}
		],
		 "valence_orbital": [ 
			{
				"type": "occ",
				"energy": 0.15655,
				"method": "rhf"
			},
			{
				"type": "occ",
				"energy": 0.16618,
				"method": "rhf"
			},
			{
				"type": "occ",
				"energy": 0.17884,
				"method": "rhf"
			},
			{
				"type": "occ",
				"energy": 0.1789,
				"method": "rhf"
			},
			{
				"type": "occ",
				"energy": 0.21305,
				"method": "rhf"
			},
			{
				"type": "unocc",
				"energy": 0.4715,
				"method": "rhf"
			},
			{
				"type": "unocc",
				"energy": 0.47173,
				"method": "rhf"
			},
			{
				"type": "unocc",
				"energy": 0.64493,
				"method": "rhf"
			},
			{
				"type": "unocc",
				"energy": 0.70591,
				"method": "rhf"
			},
			{
				"type": "unocc",
				"energy": 0.79016,
				"method": "rhf"
			}
		],
		"cosmo_sigma_profile": { 
			"-0.025": 0.0,
			"-0.024": 0.0,
			"-0.023": 0.0,
			"-0.022": 0.0,
			"-0.021": 0.0,
			"-0.02": 0.0,
			"-0.019": 0.0,
			"-0.018": 0.0,
			"-0.017": 0.0,
			"-0.016": 0.0,
			"-0.015": 0.0,
			"-0.014": 0.0,
			"-0.013": 0.0,
			"-0.012": 0.0,
			"-0.011": 0.0,
			"-0.01": 0.0,
			"-0.009": 0.00824162192877,
			"-0.008": 1.80662831633,
			"-0.007": 3.88398413976,
			"-0.006": 6.43982052777,
			"-0.005": 6.37655044246,
			"-0.004": 5.10823760435,
			"-0.003": 6.44707065476,
			"-0.002": 9.12743110349,
			"-0.001": 5.56832793447,
			"0.0": 6.06422017334,
			"0.001": 8.67679020212,
			"0.002": 11.3856999932,
			"0.003": 11.6246615819,
			"0.004": 11.9358769896,
			"0.005": 10.0295244697,
			"0.006": 1.1344626848,
			"0.007": 0.0,
			"0.008": 0.0,
			"0.009": 0.0,
			"0.01": 0.0,
			"0.011": 0.0,
			"0.012": 0.0,
			"0.013": 0.0,
			"0.014": 0.0,
			"0.015": 0.0,
			"0.016": 0.0,
			"0.017": 0.0,
			"0.018": 0.0,
			"0.019": 0.0,
			"0.02": 0.0,
			"0.021": 0.0,
			"0.022": 0.0,
			"0.023": 0.0,
			"0.024": 0.0,
			"0.025": 0.0
		}
	}
}
