{
	 "smiles": "NNC(=O)C1=CC=C(C=C1)S(=O)(=O)N1CCN(CC2=CC=CC=C2)CC1", 
	 "Tm": 409.15, 
	 "num_atms": 48, 
	 "gaussian": { 
		 "optdone": 1, 
		 "sigma_profile": "yes", 
		 "theory": "DFT", 
		 "functional": "B3LYP", 
		 "basiset": "6-31G**", 
		 "properties": { 
			 "R2extent": 9753.5486, 
			 "electric_dipole_moment_norm": 4.48929750518, 
			 "electric_quadrupole_moment_norm": 26.8537396251, 
			 "total_energy": -1541.94187862, 
			 "HOMO_LUMO_gap": 0.1549, 
			 "cosmo_polarized_energy": -24.12, 
			 "cosmo_cavitation_energy": 50.19, 
			 "cosmo_dispersion_energy": -32.55, 
			 "cosmo_repulsion_energy": 2.37, 
			 "cosmo_total_nonelectrostatic_energy": 20.0, 
			 "SMD_solvation_energy": 4.29 
		},
		"coords": [
			{
				"x": 3.6055841785,
				"y": -4.707006013,
				"z": -0.9313576656,
				"element": "N" 
			},
			{
				"x": 2.3574580204,
				"y": -4.1187347455,
				"z": -0.6295069133,
				"element": "N" 
			},
			{
				"x": 2.3068035072,
				"y": -2.911030729,
				"z": 0.0229032622,
				"element": "C" 
			},
			{
				"x": 3.3213982685,
				"y": -2.2543659398,
				"z": 0.2433965551,
				"element": "O" 
			},
			{
				"x": 0.9423114953,
				"y": -2.4531462605,
				"z": 0.4468132866,
				"element": "C" 
			},
			{
				"x": 0.8594731728,
				"y": -1.5843661432,
				"z": 1.5430624281,
				"element": "C" 
			},
			{
				"x": -0.3739423642,
				"y": -1.0964578687,
				"z": 1.9638550735,
				"element": "C" 
			},
			{
				"x": -1.5283305721,
				"y": -1.460425858,
				"z": 1.2637048247,
				"element": "C" 
			},
			{
				"x": -1.4656985957,
				"y": -2.3353858841,
				"z": 0.1775910379,
				"element": "C" 
			},
			{
				"x": -0.227183832,
				"y": -2.8310173336,
				"z": -0.2276262917,
				"element": "C" 
			},
			{
				"x": -3.1140037501,
				"y": -0.7302247708,
				"z": 1.7248501071,
				"element": "S" 
			},
			{
				"x": -4.1525445542,
				"y": -1.6294280594,
				"z": 1.2156975329,
				"element": "O" 
			},
			{
				"x": -3.0051798323,
				"y": -0.3705832994,
				"z": 3.1404709745,
				"element": "O" 
			},
			{
				"x": -3.2956129803,
				"y": 0.7087169861,
				"z": 0.8918479529,
				"element": "N" 
			},
			{
				"x": -2.5309849449,
				"y": 1.900471139,
				"z": 1.2841080856,
				"element": "C" 
			},
			{
				"x": -1.3609013229,
				"y": 2.1583886537,
				"z": 0.3294830049,
				"element": "C" 
			},
			{
				"x": -1.8423728511,
				"y": 2.2365117402,
				"z": -1.0510425587,
				"element": "N" 
			},
			{
				"x": -0.8192642781,
				"y": 2.6793549001,
				"z": -2.0149673144,
				"element": "C" 
			},
			{
				"x": 0.3095819467,
				"y": 1.6979641149,
				"z": -2.3069433234,
				"element": "C" 
			},
			{
				"x": 1.4101991233,
				"y": 1.5738152125,
				"z": -1.4450109681,
				"element": "C" 
			},
			{
				"x": 2.4013394628,
				"y": 0.6187654493,
				"z": -1.6762451755,
				"element": "C" 
			},
			{
				"x": 2.3190310878,
				"y": -0.2159377052,
				"z": -2.7928091021,
				"element": "C" 
			},
			{
				"x": 1.2447752201,
				"y": -0.0877846946,
				"z": -3.6745386491,
				"element": "C" 
			},
			{
				"x": 0.2482222253,
				"y": 0.8583472183,
				"z": -3.4278953552,
				"element": "C" 
			},
			{
				"x": -2.52940049,
				"y": 1.0076689198,
				"z": -1.454795517,
				"element": "C" 
			},
			{
				"x": -3.707855827,
				"y": 0.7210708918,
				"z": -0.518475922,
				"element": "C" 
			},
			{
				"x": 3.9142714501,
				"y": -4.3229263499,
				"z": -1.8239317508,
				"element": "H" 
			},
			{
				"x": 4.2676853845,
				"y": -4.3497332245,
				"z": -0.2401895855,
				"element": "H" 
			},
			{
				"x": 1.6163771768,
				"y": -4.7886596297,
				"z": -0.4776852943,
				"element": "H" 
			},
			{
				"x": 1.7748523887,
				"y": -1.301168567,
				"z": 2.0513687295,
				"element": "H" 
			},
			{
				"x": -0.4516914006,
				"y": -0.4483861885,
				"z": 2.8297992361,
				"element": "H" 
			},
			{
				"x": -2.3769054421,
				"y": -2.623732106,
				"z": -0.3345875606,
				"element": "H" 
			},
			{
				"x": -0.1723201602,
				"y": -3.483008904,
				"z": -1.0939457817,
				"element": "H" 
			},
			{
				"x": -3.2230482934,
				"y": 2.751161826,
				"z": 1.2507760347,
				"element": "H" 
			},
			{
				"x": -2.1931862416,
				"y": 1.7840982544,
				"z": 2.3149137449,
				"element": "H" 
			},
			{
				"x": -0.5978900981,
				"y": 1.3734284783,
				"z": 0.4683277679,
				"element": "H" 
			},
			{
				"x": -0.8962182754,
				"y": 3.1174610063,
				"z": 0.5893361704,
				"element": "H" 
			},
			{
				"x": -1.3394136647,
				"y": 2.915370804,
				"z": -2.9513946341,
				"element": "H" 
			},
			{
				"x": -0.4057448768,
				"y": 3.6199315377,
				"z": -1.631956574,
				"element": "H" 
			},
			{
				"x": 1.4950227587,
				"y": 2.233939297,
				"z": -0.5855588666,
				"element": "H" 
			},
			{
				"x": 3.2305204078,
				"y": 0.5134258267,
				"z": -0.9836863281,
				"element": "H" 
			},
			{
				"x": 3.0925375677,
				"y": -0.9567506904,
				"z": -2.9728442015,
				"element": "H" 
			},
			{
				"x": 1.1807280701,
				"y": -0.7234282478,
				"z": -4.5536309036,
				"element": "H" 
			},
			{
				"x": -0.5873225527,
				"y": 0.9517368138,
				"z": -4.1181734264,
				"element": "H" 
			},
			{
				"x": -2.9126085867,
				"y": 1.1429678586,
				"z": -2.4737093304,
				"element": "H" 
			},
			{
				"x": -1.8538859343,
				"y": 0.1349703082,
				"z": -1.4737283772,
				"element": "H" 
			},
			{
				"x": -4.1880540406,
				"y": -0.229167809,
				"z": -0.7559153037,
				"element": "H" 
			},
			{
				"x": -4.4587071508,
				"y": 1.5142897848,
				"z": -0.6233531346,
				"element": "H" 
			}
		],
		 "valence_orbital": [ 
			{
				"type": "occ",
				"energy": -0.26426,
				"method": "rhf"
			},
			{
				"type": "occ",
				"energy": -0.25271,
				"method": "rhf"
			},
			{
				"type": "occ",
				"energy": -0.25173,
				"method": "rhf"
			},
			{
				"type": "occ",
				"energy": -0.24876,
				"method": "rhf"
			},
			{
				"type": "occ",
				"energy": -0.21856,
				"method": "rhf"
			},
			{
				"type": "unocc",
				"energy": -0.06366,
				"method": "rhf"
			},
			{
				"type": "unocc",
				"energy": -0.03126,
				"method": "rhf"
			},
			{
				"type": "unocc",
				"energy": -0.00801,
				"method": "rhf"
			},
			{
				"type": "unocc",
				"energy": -0.00456,
				"method": "rhf"
			},
			{
				"type": "unocc",
				"energy": 0.02531,
				"method": "rhf"
			}
		],
		"cosmo_sigma_profile": { 
			"-0.025": 0.0,
			"-0.024": 0.0,
			"-0.023": 0.0,
			"-0.022": 0.0,
			"-0.021": 0.0,
			"-0.02": 0.0,
			"-0.019": 0.0,
			"-0.018": 0.0,
			"-0.017": 0.0,
			"-0.016": 0.0,
			"-0.015": 0.286259191543,
			"-0.014": 1.26346639181,
			"-0.013": 0.821902448684,
			"-0.012": 1.9259623819,
			"-0.011": 3.01908066806,
			"-0.01": 3.16778420799,
			"-0.009": 3.77778016724,
			"-0.008": 4.8039328454,
			"-0.007": 7.96732925884,
			"-0.006": 13.9875757684,
			"-0.005": 36.5467398162,
			"-0.004": 42.1438507793,
			"-0.003": 33.6572964212,
			"-0.002": 27.5085267465,
			"-0.001": 25.3346136629,
			"0.0": 22.4224471715,
			"0.001": 28.1243569169,
			"0.002": 22.8389761234,
			"0.003": 18.4992609606,
			"0.004": 20.644201396,
			"0.005": 15.2217953698,
			"0.006": 11.4988631709,
			"0.007": 6.84488910496,
			"0.008": 5.71148368921,
			"0.009": 7.53277378359,
			"0.01": 8.66248256175,
			"0.011": 10.5319408395,
			"0.012": 5.74447853059,
			"0.013": 3.42284677454,
			"0.014": 1.16920140513,
			"0.015": 0.669059477103,
			"0.016": 0.585985118387,
			"0.017": 0.111366386118,
			"0.018": 0.0,
			"0.019": 0.0,
			"0.02": 0.0,
			"0.021": 0.0,
			"0.022": 0.0,
			"0.023": 0.0,
			"0.024": 0.0,
			"0.025": 0.0
		}
	}
}
