{
	 "smiles": "OC(=O)C1=CC(=CC=C1)C1=NNC=C1", 
	 "Tm": 477.15, 
	 "num_atms": 22, 
	 "gaussian": { 
		 "optdone": 1, 
		 "sigma_profile": "yes", 
		 "theory": "DFT", 
		 "functional": "B3LYP", 
		 "basiset": "6-31G**", 
		 "properties": { 
			 "R2extent": 3385.0619, 
			 "electric_dipole_moment_norm": 7.48369898513, 
			 "electric_quadrupole_moment_norm": 20.6328880419, 
			 "total_energy": -645.828822322, 
			 "HOMO_LUMO_gap": 0.18727, 
			 "cosmo_polarized_energy": -19.09, 
			 "cosmo_cavitation_energy": 27.07, 
			 "cosmo_dispersion_energy": -20.16, 
			 "cosmo_repulsion_energy": 1.56, 
			 "cosmo_total_nonelectrostatic_energy": 8.47, 
			 "SMD_solvation_energy": 5.27 
		},
		"coords": [
			{
				"x": -0.1677399224,
				"y": -2.7468788617,
				"z": -2.5741822194,
				"element": "O" 
			},
			{
				"x": -1.1248350237,
				"y": -2.4805979302,
				"z": -1.6465691691,
				"element": "C" 
			},
			{
				"x": -2.0433436039,
				"y": -3.2513261809,
				"z": -1.4900244619,
				"element": "O" 
			},
			{
				"x": -0.9743928202,
				"y": -1.2099168814,
				"z": -0.8623424775,
				"element": "C" 
			},
			{
				"x": 0.2400828618,
				"y": -0.5267178596,
				"z": -0.7555812381,
				"element": "C" 
			},
			{
				"x": 0.3423326177,
				"y": 0.6558016191,
				"z": -0.0061840877,
				"element": "C" 
			},
			{
				"x": -0.8063707279,
				"y": 1.1384555524,
				"z": 0.6375045477,
				"element": "C" 
			},
			{
				"x": -2.0179486478,
				"y": 0.4513062487,
				"z": 0.5467369759,
				"element": "C" 
			},
			{
				"x": -2.1067832971,
				"y": -0.7238503399,
				"z": -0.1927284898,
				"element": "C" 
			},
			{
				"x": 1.6331273446,
				"y": 1.3572188501,
				"z": 0.0935811376,
				"element": "C" 
			},
			{
				"x": 2.6896314881,
				"y": 0.9300354868,
				"z": -0.6115300717,
				"element": "N" 
			},
			{
				"x": 3.6826455601,
				"y": 1.7765391291,
				"z": -0.2867732868,
				"element": "N" 
			},
			{
				"x": 3.3025714029,
				"y": 2.7333504217,
				"z": 0.6001427719,
				"element": "C" 
			},
			{
				"x": 1.972816989,
				"y": 2.4960293694,
				"z": 0.8743807942,
				"element": "C" 
			},
			{
				"x": 0.4172948865,
				"y": -1.9836244309,
				"z": -2.6785970375,
				"element": "H" 
			},
			{
				"x": 1.1492527362,
				"y": -0.9036266072,
				"z": -1.2153376524,
				"element": "H" 
			},
			{
				"x": -0.756023129,
				"y": 2.0563492762,
				"z": 1.2150204163,
				"element": "H" 
			},
			{
				"x": -2.8946656344,
				"y": 0.8381839016,
				"z": 1.0575489548,
				"element": "H" 
			},
			{
				"x": -3.0344654267,
				"y": -1.2799060133,
				"z": -0.2694992544,
				"element": "H" 
			},
			{
				"x": 4.5902370675,
				"y": 1.6475971887,
				"z": -0.7062312589,
				"element": "H" 
			},
			{
				"x": 3.9887946849,
				"y": 3.486198017,
				"z": 0.9590930032,
				"element": "H" 
			},
			{
				"x": 1.3447805937,
				"y": 3.0591800442,
				"z": 1.5471721036,
				"element": "H" 
			}
		],
		 "valence_orbital": [ 
			{
				"type": "occ",
				"energy": -0.29972,
				"method": "rhf"
			},
			{
				"type": "occ",
				"energy": -0.26977,
				"method": "rhf"
			},
			{
				"type": "occ",
				"energy": -0.26411,
				"method": "rhf"
			},
			{
				"type": "occ",
				"energy": -0.26014,
				"method": "rhf"
			},
			{
				"type": "occ",
				"energy": -0.23279,
				"method": "rhf"
			},
			{
				"type": "unocc",
				"energy": -0.04552,
				"method": "rhf"
			},
			{
				"type": "unocc",
				"energy": -0.03375,
				"method": "rhf"
			},
			{
				"type": "unocc",
				"energy": 0.01615,
				"method": "rhf"
			},
			{
				"type": "unocc",
				"energy": 0.04342,
				"method": "rhf"
			},
			{
				"type": "unocc",
				"energy": 0.0669,
				"method": "rhf"
			}
		],
		"cosmo_sigma_profile": { 
			"-0.025": 0.0,
			"-0.024": 0.0,
			"-0.023": 0.0,
			"-0.022": 0.0,
			"-0.021": 0.0,
			"-0.02": 0.0,
			"-0.019": 0.0326396211545,
			"-0.018": 0.872675142631,
			"-0.017": 1.70343344364,
			"-0.016": 2.72875200742,
			"-0.015": 2.5761480933,
			"-0.014": 1.19546657642,
			"-0.013": 1.63035943309,
			"-0.012": 2.89227691959,
			"-0.011": 1.9226238078,
			"-0.01": 1.99153037294,
			"-0.009": 4.64669963519,
			"-0.008": 4.80623515648,
			"-0.007": 6.76806076046,
			"-0.006": 9.50635361184,
			"-0.005": 11.7479011528,
			"-0.004": 10.0716832392,
			"-0.003": 9.34768022522,
			"-0.002": 10.1997935926,
			"-0.001": 10.2540796243,
			"0.0": 10.3168125998,
			"0.001": 11.1672876494,
			"0.002": 17.3752334365,
			"0.003": 23.0710519115,
			"0.004": 14.1128909576,
			"0.005": 8.42208868723,
			"0.006": 5.23403484119,
			"0.007": 4.04697955796,
			"0.008": 3.50425413322,
			"0.009": 4.86068419983,
			"0.01": 5.55657843203,
			"0.011": 6.56160346785,
			"0.012": 6.2154056939,
			"0.013": 2.25896343657,
			"0.014": 0.201565362372,
			"0.015": 0.0,
			"0.016": 0.0,
			"0.017": 0.0,
			"0.018": 0.0,
			"0.019": 0.0,
			"0.02": 0.0,
			"0.021": 0.0,
			"0.022": 0.0,
			"0.023": 0.0,
			"0.024": 0.0,
			"0.025": 0.0
		}
	}
}
