{
	 "smiles": "OCC(NC(=O)OCC1=CC=CC=C1)C(O)=O", 
	 "Tm": 397.15, 
	 "num_atms": 30, 
	 "gaussian": { 
		 "optdone": 1, 
		 "sigma_profile": "yes", 
		 "theory": "DFT", 
		 "functional": "B3LYP", 
		 "basiset": "6-31G**", 
		 "properties": { 
			 "R2extent": 6031.3752, 
			 "electric_dipole_moment_norm": 6.02120206354, 
			 "electric_quadrupole_moment_norm": 17.7937175309, 
			 "total_energy": -857.903976455, 
			 "HOMO_LUMO_gap": 0.23301, 
			 "cosmo_polarized_energy": -18.59, 
			 "cosmo_cavitation_energy": 34.44, 
			 "cosmo_dispersion_energy": -24.74, 
			 "cosmo_repulsion_energy": 1.95, 
			 "cosmo_total_nonelectrostatic_energy": 11.65, 
			 "SMD_solvation_energy": 7.15 
		},
		"coords": [
			{
				"x": -0.197935306,
				"y": 3.7292697279,
				"z": 2.545286358,
				"element": "O" 
			},
			{
				"x": 1.152263922,
				"y": 3.5080180344,
				"z": 2.1531632236,
				"element": "C" 
			},
			{
				"x": 1.2606211681,
				"y": 2.4370853446,
				"z": 1.053373404,
				"element": "C" 
			},
			{
				"x": 0.4033100782,
				"y": 1.3142013053,
				"z": 1.4440755744,
				"element": "N" 
			},
			{
				"x": 0.0083764895,
				"y": 0.3623091227,
				"z": 0.5625200188,
				"element": "C" 
			},
			{
				"x": 0.5663548274,
				"y": 0.1439815072,
				"z": -0.5190801619,
				"element": "O" 
			},
			{
				"x": -1.0460083163,
				"y": -0.3294424206,
				"z": 1.0229224862,
				"element": "O" 
			},
			{
				"x": -1.5414462209,
				"y": -1.4143648611,
				"z": 0.1820140146,
				"element": "C" 
			},
			{
				"x": -2.6419354964,
				"y": -0.9486225179,
				"z": -0.736961834,
				"element": "C" 
			},
			{
				"x": -2.3423106287,
				"y": -0.4414085171,
				"z": -2.0091752384,
				"element": "C" 
			},
			{
				"x": -3.3645720393,
				"y": -0.0023702226,
				"z": -2.8508125607,
				"element": "C" 
			},
			{
				"x": -4.6952008343,
				"y": -0.0655194761,
				"z": -2.4306619995,
				"element": "C" 
			},
			{
				"x": -5.0018511458,
				"y": -0.5693826414,
				"z": -1.1650898686,
				"element": "C" 
			},
			{
				"x": -3.9789041579,
				"y": -1.0084595819,
				"z": -0.3240481269,
				"element": "C" 
			},
			{
				"x": 2.7484670887,
				"y": 2.0553804683,
				"z": 0.852530331,
				"element": "C" 
			},
			{
				"x": 2.9974546338,
				"y": 1.0644238259,
				"z": -0.001671359,
				"element": "O" 
			},
			{
				"x": 3.6313923441,
				"y": 2.666669036,
				"z": 1.4133703834,
				"element": "O" 
			},
			{
				"x": -0.6510250096,
				"y": 4.2047460113,
				"z": 1.8362132257,
				"element": "H" 
			},
			{
				"x": 1.6785391806,
				"y": 3.1609362642,
				"z": 3.0444365864,
				"element": "H" 
			},
			{
				"x": 1.6487621413,
				"y": 4.4230061587,
				"z": 1.8156933015,
				"element": "H" 
			},
			{
				"x": 0.9036950354,
				"y": 2.8456872072,
				"z": 0.0936038003,
				"element": "H" 
			},
			{
				"x": -0.2497156446,
				"y": 1.5347043347,
				"z": 2.1885527682,
				"element": "H" 
			},
			{
				"x": -0.6999671277,
				"y": -1.8288541739,
				"z": -0.374878825,
				"element": "H" 
			},
			{
				"x": -1.9095524962,
				"y": -2.1519108409,
				"z": 0.8975891714,
				"element": "H" 
			},
			{
				"x": -1.3057119259,
				"y": -0.3868740899,
				"z": -2.3272928446,
				"element": "H" 
			},
			{
				"x": -3.1231634319,
				"y": 0.3852498998,
				"z": -3.8364198388,
				"element": "H" 
			},
			{
				"x": -5.4905028137,
				"y": 0.2729992552,
				"z": -3.0886243894,
				"element": "H" 
			},
			{
				"x": -6.0353288338,
				"y": -0.6241306377,
				"z": -0.8353959885,
				"element": "H" 
			},
			{
				"x": -4.2189100392,
				"y": -1.4042291029,
				"z": 0.6598724905,
				"element": "H" 
			},
			{
				"x": 2.1511045592,
				"y": 0.6838015805,
				"z": -0.3530041024,
				"element": "H" 
			}
		],
		 "valence_orbital": [ 
			{
				"type": "occ",
				"energy": -0.29983,
				"method": "rhf"
			},
			{
				"type": "occ",
				"energy": -0.29256,
				"method": "rhf"
			},
			{
				"type": "occ",
				"energy": -0.26136,
				"method": "rhf"
			},
			{
				"type": "occ",
				"energy": -0.26017,
				"method": "rhf"
			},
			{
				"type": "occ",
				"energy": -0.25555,
				"method": "rhf"
			},
			{
				"type": "unocc",
				"energy": -0.02254,
				"method": "rhf"
			},
			{
				"type": "unocc",
				"energy": -0.01234,
				"method": "rhf"
			},
			{
				"type": "unocc",
				"energy": 0.00976,
				"method": "rhf"
			},
			{
				"type": "unocc",
				"energy": 0.02014,
				"method": "rhf"
			},
			{
				"type": "unocc",
				"energy": 0.05571,
				"method": "rhf"
			}
		],
		"cosmo_sigma_profile": { 
			"-0.025": 0.0,
			"-0.024": 0.0,
			"-0.023": 0.0,
			"-0.022": 0.0,
			"-0.021": 0.0,
			"-0.02": 0.0,
			"-0.019": 0.0,
			"-0.018": 0.0,
			"-0.017": 0.411857647551,
			"-0.016": 1.30600293113,
			"-0.015": 1.05219041915,
			"-0.014": 1.19587408864,
			"-0.013": 1.37272570161,
			"-0.012": 0.732420563785,
			"-0.011": 1.45722509474,
			"-0.01": 1.71317529047,
			"-0.009": 2.88490959891,
			"-0.008": 6.06687501984,
			"-0.007": 7.23390086485,
			"-0.006": 16.0557423907,
			"-0.005": 20.2240464824,
			"-0.004": 23.7783832564,
			"-0.003": 21.565647638,
			"-0.002": 17.1483117478,
			"-0.001": 15.2939812294,
			"0.0": 13.588237581,
			"0.001": 13.6173875562,
			"0.002": 15.4813829601,
			"0.003": 13.7236902033,
			"0.004": 13.839879476,
			"0.005": 16.9281052137,
			"0.006": 8.92105881293,
			"0.007": 5.9549035726,
			"0.008": 5.14370829174,
			"0.009": 4.37988775536,
			"0.01": 5.41950977961,
			"0.011": 7.15470861493,
			"0.012": 6.04062791024,
			"0.013": 2.9965827464,
			"0.014": 0.264193821562,
			"0.015": 0.0,
			"0.016": 0.0,
			"0.017": 0.0,
			"0.018": 0.0,
			"0.019": 0.0,
			"0.02": 0.0,
			"0.021": 0.0,
			"0.022": 0.0,
			"0.023": 0.0,
			"0.024": 0.0,
			"0.025": 0.0
		}
	}
}
