{
	 "smiles": "NN1C(S)=NN=C1SCC1=CC=CC=C1", 
	 "Tm": 431.15, 
	 "num_atms": 25, 
	 "gaussian": { 
		 "optdone": 1, 
		 "sigma_profile": "yes", 
		 "theory": "DFT", 
		 "functional": "B3LYP", 
		 "basiset": "6-31G**", 
		 "properties": { 
			 "R2extent": 4504.165, 
			 "electric_dipole_moment_norm": 5.12923746574, 
			 "electric_quadrupole_moment_norm": 19.2823362918, 
			 "total_energy": -1364.29285501, 
			 "HOMO_LUMO_gap": 0.20541, 
			 "cosmo_polarized_energy": -22.9, 
			 "cosmo_cavitation_energy": 33.22, 
			 "cosmo_dispersion_energy": -23.41, 
			 "cosmo_repulsion_energy": 1.77, 
			 "cosmo_total_nonelectrostatic_energy": 11.58, 
			 "SMD_solvation_energy": 3.05 
		},
		"coords": [
			{
				"x": -1.5800670163,
				"y": 0.3384974575,
				"z": 2.8551278478,
				"element": "N" 
			},
			{
				"x": -0.6775328815,
				"y": 1.1267635367,
				"z": 2.1382555097,
				"element": "N" 
			},
			{
				"x": 0.3789105184,
				"y": 1.8690153354,
				"z": 2.6017315004,
				"element": "C" 
			},
			{
				"x": 0.7771919931,
				"y": 1.9268403423,
				"z": 4.3211043146,
				"element": "S" 
			},
			{
				"x": 1.0009980899,
				"y": 2.4627120516,
				"z": 1.6137383986,
				"element": "N" 
			},
			{
				"x": 0.3470791113,
				"y": 2.0988752433,
				"z": 0.4456210464,
				"element": "N" 
			},
			{
				"x": -0.6491475639,
				"y": 1.305041282,
				"z": 0.7618927569,
				"element": "C" 
			},
			{
				"x": -1.8591481489,
				"y": 0.7174110041,
				"z": -0.3660942176,
				"element": "S" 
			},
			{
				"x": -1.7213895697,
				"y": -1.1291209699,
				"z": -0.177996776,
				"element": "C" 
			},
			{
				"x": -0.3485556285,
				"y": -1.7004612109,
				"z": -0.4191393977,
				"element": "C" 
			},
			{
				"x": 0.2608054976,
				"y": -1.6243729643,
				"z": -1.6800057056,
				"element": "C" 
			},
			{
				"x": 1.5236738587,
				"y": -2.1724674118,
				"z": -1.891104852,
				"element": "C" 
			},
			{
				"x": 2.2011192497,
				"y": -2.8041080968,
				"z": -0.8438966626,
				"element": "C" 
			},
			{
				"x": 1.6061407854,
				"y": -2.8832254567,
				"z": 0.4145096546,
				"element": "C" 
			},
			{
				"x": 0.3394859058,
				"y": -2.3328376412,
				"z": 0.6233409024,
				"element": "C" 
			},
			{
				"x": -1.0613425274,
				"y": -0.2914419748,
				"z": 3.462883083,
				"element": "H" 
			},
			{
				"x": -2.1791590452,
				"y": 0.9356418755,
				"z": 3.4211797274,
				"element": "H" 
			},
			{
				"x": 1.9125155068,
				"y": 2.6184645477,
				"z": 4.1099770073,
				"element": "H" 
			},
			{
				"x": -2.0954714984,
				"y": -1.3948073068,
				"z": 0.8117486545,
				"element": "H" 
			},
			{
				"x": -2.4414523076,
				"y": -1.4861874345,
				"z": -0.9218328314,
				"element": "H" 
			},
			{
				"x": -0.2549395308,
				"y": -1.1210310585,
				"z": -2.4932284579,
				"element": "H" 
			},
			{
				"x": 1.9828497822,
				"y": -2.1051127741,
				"z": -2.8731455588,
				"element": "H" 
			},
			{
				"x": 3.1867222605,
				"y": -3.2291446104,
				"z": -1.0098957691,
				"element": "H" 
			},
			{
				"x": 2.1251009701,
				"y": -3.3717838266,
				"z": 1.2343494672,
				"element": "H" 
			},
			{
				"x": -0.1258878114,
				"y": -2.4046599389,
				"z": 1.6036803578,
				"element": "H" 
			}
		],
		 "valence_orbital": [ 
			{
				"type": "occ",
				"energy": -0.25915,
				"method": "rhf"
			},
			{
				"type": "occ",
				"energy": -0.25392,
				"method": "rhf"
			},
			{
				"type": "occ",
				"energy": -0.2508,
				"method": "rhf"
			},
			{
				"type": "occ",
				"energy": -0.24734,
				"method": "rhf"
			},
			{
				"type": "occ",
				"energy": -0.22498,
				"method": "rhf"
			},
			{
				"type": "unocc",
				"energy": -0.01957,
				"method": "rhf"
			},
			{
				"type": "unocc",
				"energy": -0.00711,
				"method": "rhf"
			},
			{
				"type": "unocc",
				"energy": -0.00479,
				"method": "rhf"
			},
			{
				"type": "unocc",
				"energy": 0.00168,
				"method": "rhf"
			},
			{
				"type": "unocc",
				"energy": 0.02802,
				"method": "rhf"
			}
		],
		"cosmo_sigma_profile": { 
			"-0.025": 0.0,
			"-0.024": 0.0,
			"-0.023": 0.0,
			"-0.022": 0.0,
			"-0.021": 0.0,
			"-0.02": 0.0,
			"-0.019": 0.0,
			"-0.018": 0.0,
			"-0.017": 0.0,
			"-0.016": 0.0,
			"-0.015": 0.0,
			"-0.014": 1.88847577445,
			"-0.013": 4.46535871507,
			"-0.012": 4.82203300136,
			"-0.011": 4.30695402728,
			"-0.01": 4.4047757031,
			"-0.009": 3.11773444332,
			"-0.008": 4.17823140761,
			"-0.007": 6.31627088599,
			"-0.006": 11.0523049308,
			"-0.005": 17.5917796702,
			"-0.004": 18.6874788866,
			"-0.003": 20.1582848022,
			"-0.002": 14.9303268809,
			"-0.001": 14.4899340162,
			"0.0": 14.1996165439,
			"0.001": 15.6564224014,
			"0.002": 15.5815844131,
			"0.003": 15.394047373,
			"0.004": 15.5840211976,
			"0.005": 16.9264416633,
			"0.006": 13.0544805113,
			"0.007": 5.39836978715,
			"0.008": 5.11846086461,
			"0.009": 3.41515043785,
			"0.01": 2.69244601808,
			"0.011": 2.05328441549,
			"0.012": 3.2075566705,
			"0.013": 3.79081574895,
			"0.014": 3.216933599,
			"0.015": 2.03941589313,
			"0.016": 1.82217709362,
			"0.017": 0.0933538809168,
			"0.018": 0.0,
			"0.019": 0.0,
			"0.02": 0.0,
			"0.021": 0.0,
			"0.022": 0.0,
			"0.023": 0.0,
			"0.024": 0.0,
			"0.025": 0.0
		}
	}
}
