{
	 "smiles": "CC1=NN(CC2=CC(C)=CC(CN3N=C(C)C=C3C)=C2O)C(C)=C1", 
	 "Tm": 398.0, 
	 "num_atms": 48, 
	 "gaussian": { 
		 "optdone": 1, 
		 "sigma_profile": "yes", 
		 "theory": "DFT", 
		 "functional": "B3LYP", 
		 "basiset": "6-31G**", 
		 "properties": { 
			 "R2extent": 9602.0285, 
			 "electric_dipole_moment_norm": 2.8339826852, 
			 "electric_quadrupole_moment_norm": 13.8031823461, 
			 "total_energy": -1032.70901531, 
			 "HOMO_LUMO_gap": 0.20356, 
			 "cosmo_polarized_energy": -18.69, 
			 "cosmo_cavitation_energy": 50.37, 
			 "cosmo_dispersion_energy": -33.59, 
			 "cosmo_repulsion_energy": 2.63, 
			 "cosmo_total_nonelectrostatic_energy": 19.41, 
			 "SMD_solvation_energy": 6.95 
		},
		"coords": [
			{
				"x": 3.1536275876,
				"y": 3.5391343398,
				"z": -2.552370303,
				"element": "C" 
			},
			{
				"x": 3.1908674143,
				"y": 2.1929554241,
				"z": -1.8935247249,
				"element": "C" 
			},
			{
				"x": 2.3160059588,
				"y": 1.2502452101,
				"z": -2.2399408218,
				"element": "N" 
			},
			{
				"x": 2.6175652713,
				"y": 0.176514705,
				"z": -1.4633715897,
				"element": "N" 
			},
			{
				"x": 1.8544921345,
				"y": -1.0575445617,
				"z": -1.6444555087,
				"element": "C" 
			},
			{
				"x": 1.0548198989,
				"y": -1.5100514187,
				"z": -0.4382672347,
				"element": "C" 
			},
			{
				"x": 1.4044218025,
				"y": -2.6670537883,
				"z": 0.2641814991,
				"element": "C" 
			},
			{
				"x": 0.6642560416,
				"y": -3.1335753182,
				"z": 1.3557370836,
				"element": "C" 
			},
			{
				"x": 1.0345667581,
				"y": -4.4151223084,
				"z": 2.0654907607,
				"element": "C" 
			},
			{
				"x": -0.4477142629,
				"y": -2.3831111961,
				"z": 1.7504285631,
				"element": "C" 
			},
			{
				"x": -0.8296656003,
				"y": -1.2173834246,
				"z": 1.0833063797,
				"element": "C" 
			},
			{
				"x": -1.973691384,
				"y": -0.3800337819,
				"z": 1.6165304627,
				"element": "C" 
			},
			{
				"x": -3.0108169397,
				"y": -0.0667486604,
				"z": 0.6321502749,
				"element": "N" 
			},
			{
				"x": -3.6959566839,
				"y": -1.0868766373,
				"z": 0.048130618,
				"element": "N" 
			},
			{
				"x": -4.635692669,
				"y": -0.5003624845,
				"z": -0.690440987,
				"element": "C" 
			},
			{
				"x": -5.5846308625,
				"y": -1.3245128383,
				"z": -1.5065743134,
				"element": "C" 
			},
			{
				"x": -4.5672021167,
				"y": 0.9115437057,
				"z": -0.5725971212,
				"element": "C" 
			},
			{
				"x": -3.5214460778,
				"y": 1.1660092439,
				"z": 0.2943132333,
				"element": "C" 
			},
			{
				"x": -2.9716069782,
				"y": 2.4618481942,
				"z": 0.8071716334,
				"element": "C" 
			},
			{
				"x": -0.0843400468,
				"y": -0.7963694374,
				"z": -0.0323458271,
				"element": "C" 
			},
			{
				"x": -0.4154080951,
				"y": 0.3226391031,
				"z": -0.7446967683,
				"element": "O" 
			},
			{
				"x": 3.6820662699,
				"y": 0.4166476795,
				"z": -0.6375403817,
				"element": "C" 
			},
			{
				"x": 4.2573799325,
				"y": -0.5969759951,
				"z": 0.3003611422,
				"element": "C" 
			},
			{
				"x": 4.07129405,
				"y": 1.7200370954,
				"z": -0.8902132587,
				"element": "C" 
			},
			{
				"x": 2.9619908064,
				"y": 4.3381981218,
				"z": -1.8265963924,
				"element": "H" 
			},
			{
				"x": 2.3599581647,
				"y": 3.5608155758,
				"z": -3.3028267773,
				"element": "H" 
			},
			{
				"x": 4.1032772365,
				"y": 3.7721445428,
				"z": -3.0477881836,
				"element": "H" 
			},
			{
				"x": 1.1895156533,
				"y": -0.8442190533,
				"z": -2.4833651213,
				"element": "H" 
			},
			{
				"x": 2.5375502087,
				"y": -1.8614392161,
				"z": -1.9434087459,
				"element": "H" 
			},
			{
				"x": 2.2776308453,
				"y": -3.2281206118,
				"z": -0.0628965332,
				"element": "H" 
			},
			{
				"x": 0.7857432339,
				"y": -4.3699365639,
				"z": 3.1304753355,
				"element": "H" 
			},
			{
				"x": 2.1049998382,
				"y": -4.6255238519,
				"z": 1.9796661169,
				"element": "H" 
			},
			{
				"x": 0.4991377342,
				"y": -5.2755790508,
				"z": 1.6445653612,
				"element": "H" 
			},
			{
				"x": -1.0362626755,
				"y": -2.7103491568,
				"z": 2.605126625,
				"element": "H" 
			},
			{
				"x": -1.5956401695,
				"y": 0.5787365059,
				"z": 1.9854147463,
				"element": "H" 
			},
			{
				"x": -2.4402578651,
				"y": -0.8961912013,
				"z": 2.4612940915,
				"element": "H" 
			},
			{
				"x": -5.4851416931,
				"y": -1.1079697331,
				"z": -2.5762157789,
				"element": "H" 
			},
			{
				"x": -6.6259612114,
				"y": -1.1258049962,
				"z": -1.2296353548,
				"element": "H" 
			},
			{
				"x": -5.3814329154,
				"y": -2.386160965,
				"z": -1.3504356348,
				"element": "H" 
			},
			{
				"x": -5.1907847938,
				"y": 1.6486188096,
				"z": -1.0583066589,
				"element": "H" 
			},
			{
				"x": -3.4943710936,
				"y": 3.292929289,
				"z": 0.3291725086,
				"element": "H" 
			},
			{
				"x": -1.9028427003,
				"y": 2.5704906587,
				"z": 0.5896386213,
				"element": "H" 
			},
			{
				"x": -3.1020062138,
				"y": 2.5661887857,
				"z": 1.8908646262,
				"element": "H" 
			},
			{
				"x": -1.3737237118,
				"y": 0.4537059076,
				"z": -0.6964691477,
				"element": "H" 
			},
			{
				"x": 3.5490136864,
				"y": -0.8879997111,
				"z": 1.082928886,
				"element": "H" 
			},
			{
				"x": 5.1470718571,
				"y": -0.1845513674,
				"z": 0.7820298627,
				"element": "H" 
			},
			{
				"x": 4.5584215899,
				"y": -1.5138322452,
				"z": -0.2215907591,
				"element": "H" 
			},
			{
				"x": 4.8852227857,
				"y": 2.249796677,
				"z": -0.4150045039,
				"element": "H" 
			}
		],
		 "valence_orbital": [ 
			{
				"type": "occ",
				"energy": -0.23891,
				"method": "rhf"
			},
			{
				"type": "occ",
				"energy": -0.23849,
				"method": "rhf"
			},
			{
				"type": "occ",
				"energy": -0.22086,
				"method": "rhf"
			},
			{
				"type": "occ",
				"energy": -0.21706,
				"method": "rhf"
			},
			{
				"type": "occ",
				"energy": -0.21168,
				"method": "rhf"
			},
			{
				"type": "unocc",
				"energy": -0.00812,
				"method": "rhf"
			},
			{
				"type": "unocc",
				"energy": 0.00454,
				"method": "rhf"
			},
			{
				"type": "unocc",
				"energy": 0.01449,
				"method": "rhf"
			},
			{
				"type": "unocc",
				"energy": 0.0415,
				"method": "rhf"
			},
			{
				"type": "unocc",
				"energy": 0.06711,
				"method": "rhf"
			}
		],
		"cosmo_sigma_profile": { 
			"-0.025": 0.0,
			"-0.024": 0.0,
			"-0.023": 0.0,
			"-0.022": 0.0,
			"-0.021": 0.0,
			"-0.02": 0.0,
			"-0.019": 0.0,
			"-0.018": 0.0,
			"-0.017": 0.0,
			"-0.016": 0.0,
			"-0.015": 0.0,
			"-0.014": 0.0,
			"-0.013": 0.0,
			"-0.012": 0.0,
			"-0.011": 0.0,
			"-0.01": 0.0,
			"-0.009": 0.234629385039,
			"-0.008": 1.64192527489,
			"-0.007": 4.78938475652,
			"-0.006": 18.2677967366,
			"-0.005": 26.5264419981,
			"-0.004": 40.9910306504,
			"-0.003": 39.4726913773,
			"-0.002": 39.6862340931,
			"-0.001": 44.7510808736,
			"0.0": 43.3677887204,
			"0.001": 24.4410764961,
			"0.002": 16.9024082011,
			"0.003": 18.0406343285,
			"0.004": 14.8761146144,
			"0.005": 16.6497448446,
			"0.006": 11.5736401295,
			"0.007": 7.18915929398,
			"0.008": 3.33159683051,
			"0.009": 4.25583205757,
			"0.01": 4.23832197079,
			"0.011": 2.37147161422,
			"0.012": 3.27599415678,
			"0.013": 2.8456708044,
			"0.014": 2.4761093301,
			"0.015": 3.08424464674,
			"0.016": 1.61309942407,
			"0.017": 0.400044812644,
			"0.018": 0.0,
			"0.019": 0.0,
			"0.02": 0.0,
			"0.021": 0.0,
			"0.022": 0.0,
			"0.023": 0.0,
			"0.024": 0.0,
			"0.025": 0.0
		}
	}
}
