{
	 "smiles": "NC1=C(C#N)C(C(C#N)C#N)C2=CC(Cl)=CC=C2O1", 
	 "Tm": 429.15, 
	 "num_atms": 26, 
	 "gaussian": { 
		 "optdone": 1, 
		 "sigma_profile": "yes", 
		 "theory": "DFT", 
		 "functional": "B3LYP", 
		 "basiset": "6-31G**", 
		 "properties": { 
			 "R2extent": 5424.9339, 
			 "electric_dipole_moment_norm": 5.57252667019, 
			 "electric_quadrupole_moment_norm": 10.4127897453, 
			 "total_energy": -1253.94921277, 
			 "HOMO_LUMO_gap": 0.18993, 
			 "cosmo_polarized_energy": -22.91, 
			 "cosmo_cavitation_energy": 35.48, 
			 "cosmo_dispersion_energy": -23.09, 
			 "cosmo_repulsion_energy": 1.8, 
			 "cosmo_total_nonelectrostatic_energy": 14.19, 
			 "SMD_solvation_energy": 9.66 
		},
		"coords": [
			{
				"x": 1.5898421426,
				"y": -2.6321216874,
				"z": 0.4781677827,
				"element": "N" 
			},
			{
				"x": 0.9829880882,
				"y": -1.4848814668,
				"z": 0.0896016397,
				"element": "C" 
			},
			{
				"x": 0.5693062367,
				"y": -1.1855167864,
				"z": -1.1841560923,
				"element": "C" 
			},
			{
				"x": 0.7490779956,
				"y": -2.1496637587,
				"z": -2.2042551847,
				"element": "C" 
			},
			{
				"x": 0.8836804853,
				"y": -2.9538044791,
				"z": -3.040734958,
				"element": "N" 
			},
			{
				"x": -0.1841674695,
				"y": 0.0876636577,
				"z": -1.4881818459,
				"element": "C" 
			},
			{
				"x": -1.7269002967,
				"y": -0.2490915733,
				"z": -1.7181572941,
				"element": "C" 
			},
			{
				"x": -2.4772719217,
				"y": 0.8915841263,
				"z": -2.2634797666,
				"element": "C" 
			},
			{
				"x": -3.0259621195,
				"y": 1.8041844943,
				"z": -2.7238184698,
				"element": "N" 
			},
			{
				"x": -2.3537638432,
				"y": -0.759734472,
				"z": -0.4902101934,
				"element": "C" 
			},
			{
				"x": -2.8074901613,
				"y": -1.1748865576,
				"z": 0.4930598391,
				"element": "N" 
			},
			{
				"x": 0.0408369519,
				"y": 1.106084898,
				"z": -0.391581395,
				"element": "C" 
			},
			{
				"x": -0.2229656936,
				"y": 2.4692758886,
				"z": -0.5806004145,
				"element": "C" 
			},
			{
				"x": -0.0363616168,
				"y": 3.370336981,
				"z": 0.464449314,
				"element": "C" 
			},
			{
				"x": -0.3728641943,
				"y": 5.0704230744,
				"z": 0.2062562654,
				"element": "Cl" 
			},
			{
				"x": 0.4177654367,
				"y": 2.9416872334,
				"z": 1.7137183973,
				"element": "C" 
			},
			{
				"x": 0.7041367355,
				"y": 1.5945550454,
				"z": 1.9054199802,
				"element": "C" 
			},
			{
				"x": 0.5199029494,
				"y": 0.6981657999,
				"z": 0.8555592452,
				"element": "C" 
			},
			{
				"x": 0.8647761818,
				"y": -0.6190259705,
				"z": 1.1201608651,
				"element": "O" 
			},
			{
				"x": 1.5350483385,
				"y": -3.4366889746,
				"z": -0.1278895517,
				"element": "H" 
			},
			{
				"x": 1.6987336984,
				"y": -2.79083185,
				"z": 1.4676757733,
				"element": "H" 
			},
			{
				"x": 0.150411939,
				"y": 0.502401438,
				"z": -2.4457026604,
				"element": "H" 
			},
			{
				"x": -1.7588174172,
				"y": -1.050967544,
				"z": -2.4685598347,
				"element": "H" 
			},
			{
				"x": -0.5840907546,
				"y": 2.825083294,
				"z": -1.5387170103,
				"element": "H" 
			},
			{
				"x": 0.5558544521,
				"y": 3.6545524432,
				"z": 2.5183551993,
				"element": "H" 
			},
			{
				"x": 1.0763938566,
				"y": 1.2280167463,
				"z": 2.85562037,
				"element": "H" 
			}
		],
		 "valence_orbital": [ 
			{
				"type": "occ",
				"energy": -0.33154,
				"method": "rhf"
			},
			{
				"type": "occ",
				"energy": -0.32654,
				"method": "rhf"
			},
			{
				"type": "occ",
				"energy": -0.28836,
				"method": "rhf"
			},
			{
				"type": "occ",
				"energy": -0.26005,
				"method": "rhf"
			},
			{
				"type": "occ",
				"energy": -0.23993,
				"method": "rhf"
			},
			{
				"type": "unocc",
				"energy": -0.05,
				"method": "rhf"
			},
			{
				"type": "unocc",
				"energy": -0.04396,
				"method": "rhf"
			},
			{
				"type": "unocc",
				"energy": -0.02248,
				"method": "rhf"
			},
			{
				"type": "unocc",
				"energy": -0.01029,
				"method": "rhf"
			},
			{
				"type": "unocc",
				"energy": -0.00621,
				"method": "rhf"
			}
		],
		"cosmo_sigma_profile": { 
			"-0.025": 0.0,
			"-0.024": 0.0,
			"-0.023": 0.0,
			"-0.022": 0.0,
			"-0.021": 0.0,
			"-0.02": 0.0,
			"-0.019": 0.0,
			"-0.018": 0.0,
			"-0.017": 0.0,
			"-0.016": 0.649574788341,
			"-0.015": 2.07395085359,
			"-0.014": 2.15265232463,
			"-0.013": 3.4668106293,
			"-0.012": 5.5032798201,
			"-0.011": 4.28133474752,
			"-0.01": 5.21791084871,
			"-0.009": 7.62015327753,
			"-0.008": 9.14934353587,
			"-0.007": 10.5507869973,
			"-0.006": 9.34368491914,
			"-0.005": 8.08442097688,
			"-0.004": 11.2130784175,
			"-0.003": 12.1757397025,
			"-0.002": 15.2986460077,
			"-0.001": 18.8046635239,
			"0.0": 23.8482593152,
			"0.001": 28.5500715036,
			"0.002": 17.5415437133,
			"0.003": 13.4636847141,
			"0.004": 17.6651026721,
			"0.005": 8.82492284589,
			"0.006": 7.29456982616,
			"0.007": 7.92900276335,
			"0.008": 7.61892891503,
			"0.009": 7.953797013,
			"0.01": 8.20949623467,
			"0.011": 7.34808782525,
			"0.012": 4.75771741333,
			"0.013": 2.34578605497,
			"0.014": 1.11731894953,
			"0.015": 0.0,
			"0.016": 0.0,
			"0.017": 0.0,
			"0.018": 0.0,
			"0.019": 0.0,
			"0.02": 0.0,
			"0.021": 0.0,
			"0.022": 0.0,
			"0.023": 0.0,
			"0.024": 0.0,
			"0.025": 0.0
		}
	}
}
