{
	 "smiles": "CC1=CC(C(=O)CCl)=C(C)N1C1=CC(F)=CC=C1", 
	 "Tm": 365.15, 
	 "num_atms": 31, 
	 "gaussian": { 
		 "optdone": 1, 
		 "sigma_profile": "yes", 
		 "theory": "DFT", 
		 "functional": "B3LYP", 
		 "basiset": "6-31G**", 
		 "properties": { 
			 "R2extent": 7253.3296, 
			 "electric_dipole_moment_norm": 5.57269684623, 
			 "electric_quadrupole_moment_norm": 14.5047235241, 
			 "total_energy": -1231.33263404, 
			 "HOMO_LUMO_gap": 0.16785, 
			 "cosmo_polarized_energy": -11.65, 
			 "cosmo_cavitation_energy": 37.33, 
			 "cosmo_dispersion_energy": -25.42, 
			 "cosmo_repulsion_energy": 1.97, 
			 "cosmo_total_nonelectrostatic_energy": 13.89, 
			 "SMD_solvation_energy": 7.28 
		},
		"coords": [
			{
				"x": -0.5292508012,
				"y": 2.8887928674,
				"z": -0.2093254668,
				"element": "C" 
			},
			{
				"x": -1.3579446366,
				"y": 1.652826407,
				"z": -0.3468676074,
				"element": "C" 
			},
			{
				"x": -2.6940143633,
				"y": 1.4980963598,
				"z": -0.5954937745,
				"element": "C" 
			},
			{
				"x": -2.9940293288,
				"y": 0.0925418748,
				"z": -0.5990473912,
				"element": "C" 
			},
			{
				"x": -4.2883160069,
				"y": -0.5343174903,
				"z": -0.8549393698,
				"element": "C" 
			},
			{
				"x": -4.4819749628,
				"y": -1.7464453079,
				"z": -0.8889218531,
				"element": "O" 
			},
			{
				"x": -5.4855666687,
				"y": 0.3813669569,
				"z": -1.1490722218,
				"element": "C" 
			},
			{
				"x": -6.0405008415,
				"y": 1.2826531577,
				"z": 0.3300302436,
				"element": "Cl" 
			},
			{
				"x": -1.7987006026,
				"y": -0.5856103696,
				"z": -0.3425715951,
				"element": "C" 
			},
			{
				"x": -1.5072831509,
				"y": -2.0480267905,
				"z": -0.2466363148,
				"element": "C" 
			},
			{
				"x": -0.8169019113,
				"y": 0.3681054948,
				"z": -0.1920733476,
				"element": "N" 
			},
			{
				"x": 0.561646937,
				"y": 0.0923361035,
				"z": 0.0780525816,
				"element": "C" 
			},
			{
				"x": 0.9593042656,
				"y": -0.2059122702,
				"z": 1.3844523931,
				"element": "C" 
			},
			{
				"x": 2.3036581479,
				"y": -0.4688058559,
				"z": 1.6220548578,
				"element": "C" 
			},
			{
				"x": 2.6930832284,
				"y": -0.7577167025,
				"z": 2.8782260532,
				"element": "F" 
			},
			{
				"x": 3.2570938179,
				"y": -0.4374436068,
				"z": 0.6098370264,
				"element": "C" 
			},
			{
				"x": 2.8411078423,
				"y": -0.1340959724,
				"z": -0.6869252393,
				"element": "C" 
			},
			{
				"x": 1.4976012443,
				"y": 0.1289425842,
				"z": -0.9603463932,
				"element": "C" 
			},
			{
				"x": 0.2677089807,
				"y": 2.9461224162,
				"z": -0.9600491955,
				"element": "H" 
			},
			{
				"x": -0.0503036514,
				"y": 2.9571929801,
				"z": 0.7747241008,
				"element": "H" 
			},
			{
				"x": -1.1686000013,
				"y": 3.765932854,
				"z": -0.331954945,
				"element": "H" 
			},
			{
				"x": -3.3953948501,
				"y": 2.3084285217,
				"z": -0.7323635503,
				"element": "H" 
			},
			{
				"x": -5.251713721,
				"y": 1.1338520387,
				"z": -1.9045919477,
				"element": "H" 
			},
			{
				"x": -6.3170064131,
				"y": -0.2421957381,
				"z": -1.4721417633,
				"element": "H" 
			},
			{
				"x": -1.1943251804,
				"y": -2.3329455296,
				"z": 0.7650336529,
				"element": "H" 
			},
			{
				"x": -0.6992645755,
				"y": -2.3400726123,
				"z": -0.9275093427,
				"element": "H" 
			},
			{
				"x": -2.409920662,
				"y": -2.6018516298,
				"z": -0.4992571395,
				"element": "H" 
			},
			{
				"x": 0.2437547272,
				"y": -0.2292256205,
				"z": 2.198333045,
				"element": "H" 
			},
			{
				"x": 4.2944797172,
				"y": -0.6478793274,
				"z": 0.8450194644,
				"element": "H" 
			},
			{
				"x": 3.5700871001,
				"y": -0.1074069569,
				"z": -1.490691292,
				"element": "H" 
			},
			{
				"x": 1.1667863208,
				"y": 0.3553611639,
				"z": -1.9682836685,
				"element": "H" 
			}
		],
		 "valence_orbital": [ 
			{
				"type": "occ",
				"energy": -0.28205,
				"method": "rhf"
			},
			{
				"type": "occ",
				"energy": -0.26681,
				"method": "rhf"
			},
			{
				"type": "occ",
				"energy": -0.24977,
				"method": "rhf"
			},
			{
				"type": "occ",
				"energy": -0.24156,
				"method": "rhf"
			},
			{
				"type": "occ",
				"energy": -0.21198,
				"method": "rhf"
			},
			{
				"type": "unocc",
				"energy": -0.04413,
				"method": "rhf"
			},
			{
				"type": "unocc",
				"energy": -0.03529,
				"method": "rhf"
			},
			{
				"type": "unocc",
				"energy": -0.02236,
				"method": "rhf"
			},
			{
				"type": "unocc",
				"energy": 0.02627,
				"method": "rhf"
			},
			{
				"type": "unocc",
				"energy": 0.0417,
				"method": "rhf"
			}
		],
		"cosmo_sigma_profile": { 
			"-0.025": 0.0,
			"-0.024": 0.0,
			"-0.023": 0.0,
			"-0.022": 0.0,
			"-0.021": 0.0,
			"-0.02": 0.0,
			"-0.019": 0.0,
			"-0.018": 0.0,
			"-0.017": 0.0,
			"-0.016": 0.0,
			"-0.015": 0.0,
			"-0.014": 0.0,
			"-0.013": 0.0,
			"-0.012": 0.0,
			"-0.011": 0.0,
			"-0.01": 0.0,
			"-0.009": 0.128559234301,
			"-0.008": 4.94983461164,
			"-0.007": 11.2776818322,
			"-0.006": 12.9318833613,
			"-0.005": 18.8195559959,
			"-0.004": 22.8765557809,
			"-0.003": 22.1067569583,
			"-0.002": 22.421740918,
			"-0.001": 25.5175672907,
			"0.0": 28.6488047627,
			"0.001": 24.1155632061,
			"0.002": 20.9945369228,
			"0.003": 20.136401535,
			"0.004": 20.9350704929,
			"0.005": 15.4629610106,
			"0.006": 13.3737479091,
			"0.007": 2.87395197164,
			"0.008": 1.87825687244,
			"0.009": 1.42198322023,
			"0.01": 1.90370281794,
			"0.011": 2.65811181253,
			"0.012": 2.69941774718,
			"0.013": 1.55980866379,
			"0.014": 0.122624961682,
			"0.015": 0.0,
			"0.016": 0.0,
			"0.017": 0.0,
			"0.018": 0.0,
			"0.019": 0.0,
			"0.02": 0.0,
			"0.021": 0.0,
			"0.022": 0.0,
			"0.023": 0.0,
			"0.024": 0.0,
			"0.025": 0.0
		}
	}
}
