{
	 "smiles": "NNC(=O)C1CCN(CC1)C1=CC=C(C=C1)C#N", 
	 "Tm": 473.15, 
	 "num_atms": 34, 
	 "gaussian": { 
		 "optdone": 1, 
		 "sigma_profile": "yes", 
		 "theory": "DFT", 
		 "functional": "B3LYP", 
		 "basiset": "6-31G**", 
		 "properties": { 
			 "R2extent": 7600.4527, 
			 "electric_dipole_moment_norm": 11.7388403111, 
			 "electric_quadrupole_moment_norm": 34.747887883, 
			 "total_energy": -799.2200138, 
			 "HOMO_LUMO_gap": 0.17745, 
			 "cosmo_polarized_energy": -23.11, 
			 "cosmo_cavitation_energy": 37.13, 
			 "cosmo_dispersion_energy": -26.37, 
			 "cosmo_repulsion_energy": 2.06, 
			 "cosmo_total_nonelectrostatic_energy": 12.81, 
			 "SMD_solvation_energy": 7.63 
		},
		"coords": [
			{
				"x": -4.195362666,
				"y": 1.9759624066,
				"z": 0.8141525118,
				"element": "N" 
			},
			{
				"x": -4.2727982573,
				"y": 0.5904012626,
				"z": 0.6354683819,
				"element": "N" 
			},
			{
				"x": -3.2588406426,
				"y": -0.1772865268,
				"z": 0.1122817338,
				"element": "C" 
			},
			{
				"x": -3.4132149123,
				"y": -1.3895438605,
				"z": 0.015497334,
				"element": "O" 
			},
			{
				"x": -1.9643791139,
				"y": 0.538452991,
				"z": -0.2721900765,
				"element": "C" 
			},
			{
				"x": -1.0080621353,
				"y": 0.5481328589,
				"z": 0.9542680008,
				"element": "C" 
			},
			{
				"x": -0.1183944529,
				"y": -0.6970231829,
				"z": 0.9956729799,
				"element": "C" 
			},
			{
				"x": 0.7439721372,
				"y": -0.7421901078,
				"z": -0.1889998273,
				"element": "N" 
			},
			{
				"x": 0.2365085605,
				"y": -0.1152124556,
				"z": -1.4116084689,
				"element": "C" 
			},
			{
				"x": -1.292896089,
				"y": -0.1812968608,
				"z": -1.4617242726,
				"element": "C" 
			},
			{
				"x": 1.9871901144,
				"y": -1.3323679149,
				"z": -0.1480729107,
				"element": "C" 
			},
			{
				"x": 2.9465247593,
				"y": -1.1062935891,
				"z": -1.1685960155,
				"element": "C" 
			},
			{
				"x": 4.1966094862,
				"y": -1.7018188717,
				"z": -1.1227383939,
				"element": "C" 
			},
			{
				"x": 4.5580309231,
				"y": -2.5471999603,
				"z": -0.0585119764,
				"element": "C" 
			},
			{
				"x": 3.6150929781,
				"y": -2.7786902503,
				"z": 0.9591260224,
				"element": "C" 
			},
			{
				"x": 2.3611580324,
				"y": -2.1913775241,
				"z": 0.9174428123,
				"element": "C" 
			},
			{
				"x": 5.8500368061,
				"y": -3.1551633259,
				"z": -0.0123831649,
				"element": "C" 
			},
			{
				"x": 6.9040435143,
				"y": -3.6499154212,
				"z": 0.0256996549,
				"element": "N" 
			},
			{
				"x": -4.9361794919,
				"y": 2.4395550076,
				"z": 0.2940264104,
				"element": "H" 
			},
			{
				"x": -4.2899185476,
				"y": 2.2118047086,
				"z": 1.7989405621,
				"element": "H" 
			},
			{
				"x": -5.0985011868,
				"y": 0.0689162697,
				"z": 0.9149383,
				"element": "H" 
			},
			{
				"x": -2.2013777346,
				"y": 1.5743440735,
				"z": -0.5208341611,
				"element": "H" 
			},
			{
				"x": -0.3692380748,
				"y": 1.4368458878,
				"z": 0.9067875469,
				"element": "H" 
			},
			{
				"x": -1.5736241769,
				"y": 0.6193559118,
				"z": 1.8891325082,
				"element": "H" 
			},
			{
				"x": -0.7427623106,
				"y": -1.5990654845,
				"z": 1.0778235986,
				"element": "H" 
			},
			{
				"x": 0.5148352586,
				"y": -0.6504175929,
				"z": 1.8867239158,
				"element": "H" 
			},
			{
				"x": 0.583805503,
				"y": 0.9275771026,
				"z": -1.5027876729,
				"element": "H" 
			},
			{
				"x": 0.6350405372,
				"y": -0.6585432108,
				"z": -2.2733978364,
				"element": "H" 
			},
			{
				"x": -1.6349710857,
				"y": 0.248140803,
				"z": -2.409343036,
				"element": "H" 
			},
			{
				"x": -1.6010957862,
				"y": -1.2308478534,
				"z": -1.4514824941,
				"element": "H" 
			},
			{
				"x": 2.7222859995,
				"y": -0.4346601594,
				"z": -1.988062417,
				"element": "H" 
			},
			{
				"x": 4.9137094589,
				"y": -1.5034247992,
				"z": -1.9129941413,
				"element": "H" 
			},
			{
				"x": 3.8702509689,
				"y": -3.4387749806,
				"z": 1.7820759784,
				"element": "H" 
			},
			{
				"x": 1.6516216269,
				"y": -2.4273753509,
				"z": 1.7008686132,
				"element": "H" 
			}
		],
		 "valence_orbital": [ 
			{
				"type": "occ",
				"energy": -0.27758,
				"method": "rhf"
			},
			{
				"type": "occ",
				"energy": -0.26985,
				"method": "rhf"
			},
			{
				"type": "occ",
				"energy": -0.25858,
				"method": "rhf"
			},
			{
				"type": "occ",
				"energy": -0.25692,
				"method": "rhf"
			},
			{
				"type": "occ",
				"energy": -0.19667,
				"method": "rhf"
			},
			{
				"type": "unocc",
				"energy": -0.01922,
				"method": "rhf"
			},
			{
				"type": "unocc",
				"energy": -0.00653,
				"method": "rhf"
			},
			{
				"type": "unocc",
				"energy": 0.0154,
				"method": "rhf"
			},
			{
				"type": "unocc",
				"energy": 0.04695,
				"method": "rhf"
			},
			{
				"type": "unocc",
				"energy": 0.0577,
				"method": "rhf"
			}
		],
		"cosmo_sigma_profile": { 
			"-0.025": 0.0,
			"-0.024": 0.0,
			"-0.023": 0.0,
			"-0.022": 0.0,
			"-0.021": 0.0,
			"-0.02": 0.0,
			"-0.019": 0.0,
			"-0.018": 0.0,
			"-0.017": 0.0,
			"-0.016": 0.0,
			"-0.015": 0.0,
			"-0.014": 0.0780201965147,
			"-0.013": 1.1914507973,
			"-0.012": 3.67993962453,
			"-0.011": 4.57244881618,
			"-0.01": 4.93711677592,
			"-0.009": 4.29886170755,
			"-0.008": 4.18998188048,
			"-0.007": 6.96811735206,
			"-0.006": 11.2650331261,
			"-0.005": 15.8114914285,
			"-0.004": 26.350112093,
			"-0.003": 32.7650874991,
			"-0.002": 24.0847887001,
			"-0.001": 16.2966670762,
			"0.0": 16.2974421112,
			"0.001": 16.6870899408,
			"0.002": 14.8408259852,
			"0.003": 14.9413322459,
			"0.004": 16.9825218968,
			"0.005": 9.06406811959,
			"0.006": 4.03685370649,
			"0.007": 5.28591718547,
			"0.008": 4.99353965256,
			"0.009": 5.17145915333,
			"0.01": 5.40681633775,
			"0.011": 5.14076139477,
			"0.012": 5.39389132717,
			"0.013": 4.9077706565,
			"0.014": 6.64044232776,
			"0.015": 0.774221782319,
			"0.016": 0.0,
			"0.017": 0.0,
			"0.018": 0.0,
			"0.019": 0.0,
			"0.02": 0.0,
			"0.021": 0.0,
			"0.022": 0.0,
			"0.023": 0.0,
			"0.024": 0.0,
			"0.025": 0.0
		}
	}
}
