{
	 "smiles": "NC(CC1=CC=C(Cl)C=C1)=NO", 
	 "Tm": 370.15, 
	 "num_atms": 21, 
	 "gaussian": { 
		 "optdone": 1, 
		 "sigma_profile": "yes", 
		 "theory": "DFT", 
		 "functional": "B3LYP", 
		 "basiset": "6-31G**", 
		 "properties": { 
			 "R2extent": 4053.4659, 
			 "electric_dipole_moment_norm": 0.866893476732, 
			 "electric_quadrupole_moment_norm": 13.7450803377, 
			 "total_energy": -955.150321354, 
			 "HOMO_LUMO_gap": 0.19351, 
			 "cosmo_polarized_energy": -11.97, 
			 "cosmo_cavitation_energy": 27.3, 
			 "cosmo_dispersion_energy": -19.83, 
			 "cosmo_repulsion_energy": 1.62, 
			 "cosmo_total_nonelectrostatic_energy": 9.09, 
			 "SMD_solvation_energy": 4.09 
		},
		"coords": [
			{
				"x": -1.5333447336,
				"y": 1.7169570265,
				"z": -1.6767379434,
				"element": "N" 
			},
			{
				"x": -0.5750502836,
				"y": 1.9547888222,
				"z": -0.7176396558,
				"element": "C" 
			},
			{
				"x": 0.8662211028,
				"y": 1.6873054598,
				"z": -1.0794433122,
				"element": "C" 
			},
			{
				"x": 1.1426464406,
				"y": 0.2220752924,
				"z": -1.3734339325,
				"element": "C" 
			},
			{
				"x": 0.9446243934,
				"y": -0.7473039468,
				"z": -0.3789805307,
				"element": "C" 
			},
			{
				"x": 1.194393453,
				"y": -2.0949196725,
				"z": -0.6265259865,
				"element": "C" 
			},
			{
				"x": 1.6469156417,
				"y": -2.4818759307,
				"z": -1.8894112185,
				"element": "C" 
			},
			{
				"x": 1.9641074887,
				"y": -4.1815860745,
				"z": -2.2109628735,
				"element": "Cl" 
			},
			{
				"x": 1.8504461305,
				"y": -1.5428154946,
				"z": -2.8971798908,
				"element": "C" 
			},
			{
				"x": 1.5949731507,
				"y": -0.1955332927,
				"z": -2.6297459819,
				"element": "C" 
			},
			{
				"x": -0.8064762012,
				"y": 2.4358077341,
				"z": 0.4571995278,
				"element": "N" 
			},
			{
				"x": -2.2146335997,
				"y": 2.6151768792,
				"z": 0.6241848903,
				"element": "O" 
			},
			{
				"x": -2.4809084445,
				"y": 1.7090672955,
				"z": -1.3241220456,
				"element": "H" 
			},
			{
				"x": -1.3199153756,
				"y": 0.9903174378,
				"z": -2.3449356821,
				"element": "H" 
			},
			{
				"x": 1.1328998562,
				"y": 2.2938872272,
				"z": -1.9530219537,
				"element": "H" 
			},
			{
				"x": 1.4754638424,
				"y": 2.0328881463,
				"z": -0.2394494757,
				"element": "H" 
			},
			{
				"x": 0.5865130431,
				"y": -0.4387965562,
				"z": 0.5995835302,
				"element": "H" 
			},
			{
				"x": 1.0422331406,
				"y": -2.8393466693,
				"z": 0.1473129663,
				"element": "H" 
			},
			{
				"x": 2.2033138679,
				"y": -1.858000236,
				"z": -3.8729621636,
				"element": "H" 
			},
			{
				"x": 1.7603462949,
				"y": 0.5395886489,
				"z": -3.4134712528,
				"element": "H" 
			},
			{
				"x": -2.2650692083,
				"y": 2.9494179033,
				"z": 1.5274429847,
				"element": "H" 
			}
		],
		 "valence_orbital": [ 
			{
				"type": "occ",
				"energy": -0.31061,
				"method": "rhf"
			},
			{
				"type": "occ",
				"energy": -0.27223,
				"method": "rhf"
			},
			{
				"type": "occ",
				"energy": -0.26794,
				"method": "rhf"
			},
			{
				"type": "occ",
				"energy": -0.24605,
				"method": "rhf"
			},
			{
				"type": "occ",
				"energy": -0.21462,
				"method": "rhf"
			},
			{
				"type": "unocc",
				"energy": -0.02111,
				"method": "rhf"
			},
			{
				"type": "unocc",
				"energy": -0.01791,
				"method": "rhf"
			},
			{
				"type": "unocc",
				"energy": 0.02593,
				"method": "rhf"
			},
			{
				"type": "unocc",
				"energy": 0.04031,
				"method": "rhf"
			},
			{
				"type": "unocc",
				"energy": 0.07403,
				"method": "rhf"
			}
		],
		"cosmo_sigma_profile": { 
			"-0.025": 0.0,
			"-0.024": 0.0,
			"-0.023": 0.0,
			"-0.022": 0.0,
			"-0.021": 0.0,
			"-0.02": 0.0,
			"-0.019": 0.0,
			"-0.018": 0.0,
			"-0.017": 0.134756024505,
			"-0.016": 0.949019140555,
			"-0.015": 0.897176381285,
			"-0.014": 0.601901709187,
			"-0.013": 0.975872569138,
			"-0.012": 1.59010577929,
			"-0.011": 2.62874915412,
			"-0.01": 2.39495647746,
			"-0.009": 2.11716087264,
			"-0.008": 2.91118327982,
			"-0.007": 8.06066760717,
			"-0.006": 13.1756598143,
			"-0.005": 14.0948351664,
			"-0.004": 10.5995759175,
			"-0.003": 11.780385373,
			"-0.002": 12.4782340943,
			"-0.001": 13.3932272096,
			"0.0": 12.2381107659,
			"0.001": 14.9216592517,
			"0.002": 17.5806909068,
			"0.003": 18.6075223392,
			"0.004": 17.9916100019,
			"0.005": 10.9667035116,
			"0.006": 3.95238007079,
			"0.007": 4.63428634674,
			"0.008": 4.35939122595,
			"0.009": 4.58030535314,
			"0.01": 3.52038001579,
			"0.011": 2.65901870966,
			"0.012": 1.35460480413,
			"0.013": 0.613854312307,
			"0.014": 1.25495131095,
			"0.015": 0.770694623202,
			"0.016": 0.0748479569893,
			"0.017": 0.0,
			"0.018": 0.0,
			"0.019": 0.0,
			"0.02": 0.0,
			"0.021": 0.0,
			"0.022": 0.0,
			"0.023": 0.0,
			"0.024": 0.0,
			"0.025": 0.0
		}
	}
}
