{
	 "smiles": "CC(=O)CC(=O)CC(C)=O", 
	 "Tm": 322.15, 
	 "num_atms": 20, 
	 "gaussian": { 
		 "optdone": 1, 
		 "sigma_profile": "yes", 
		 "theory": "DFT", 
		 "functional": "B3LYP", 
		 "basiset": "6-31G**", 
		 "properties": { 
			 "R2extent": 2765.4218, 
			 "electric_dipole_moment_norm": 0.9455629593, 
			 "electric_quadrupole_moment_norm": 19.0275386015, 
			 "total_energy": -498.439049716, 
			 "HOMO_LUMO_gap": 0.22208, 
			 "cosmo_polarized_energy": -12.32, 
			 "cosmo_cavitation_energy": 24.35, 
			 "cosmo_dispersion_energy": -17.13, 
			 "cosmo_repulsion_energy": 1.43, 
			 "cosmo_total_nonelectrostatic_energy": 8.66, 
			 "SMD_solvation_energy": 6.39 
		},
		"coords": [
			{
				"x": 1.1747830579,
				"y": -1.6790197911,
				"z": 2.2647038801,
				"element": "C" 
			},
			{
				"x": 1.0254012177,
				"y": -0.2424929599,
				"z": 1.8070457121,
				"element": "C" 
			},
			{
				"x": 0.1387495739,
				"y": 0.4755614617,
				"z": 2.2326321107,
				"element": "O" 
			},
			{
				"x": 2.0482365968,
				"y": 0.2251703747,
				"z": 0.7669602963,
				"element": "C" 
			},
			{
				"x": 2.3725672952,
				"y": 1.7119732012,
				"z": 0.7986492122,
				"element": "C" 
			},
			{
				"x": 3.4924701154,
				"y": 2.1043303139,
				"z": 1.0613113317,
				"element": "O" 
			},
			{
				"x": 1.248995465,
				"y": 2.6914780262,
				"z": 0.4905622921,
				"element": "C" 
			},
			{
				"x": 0.6715359782,
				"y": 2.5984555798,
				"z": -0.9252817167,
				"element": "C" 
			},
			{
				"x": 0.1043046872,
				"y": 3.8885096568,
				"z": -1.4814926338,
				"element": "C" 
			},
			{
				"x": 0.6490912815,
				"y": 1.5619352301,
				"z": -1.5640373345,
				"element": "O" 
			},
			{
				"x": 1.2575223485,
				"y": -2.3534431444,
				"z": 1.4051532748,
				"element": "H" 
			},
			{
				"x": 0.3232142199,
				"y": -1.9617656802,
				"z": 2.8848450234,
				"element": "H" 
			},
			{
				"x": 2.1004039246,
				"y": -1.7849498647,
				"z": 2.8432374258,
				"element": "H" 
			},
			{
				"x": 1.6069027486,
				"y": 0.0089354066,
				"z": -0.2171447106,
				"element": "H" 
			},
			{
				"x": 2.9818655613,
				"y": -0.3345294967,
				"z": 0.8657923242,
				"element": "H" 
			},
			{
				"x": 0.4200115378,
				"y": 2.4626558786,
				"z": 1.176427675,
				"element": "H" 
			},
			{
				"x": 1.6070852512,
				"y": 3.7037508028,
				"z": 0.6949511348,
				"element": "H" 
			},
			{
				"x": -0.4121727696,
				"y": 3.6922186455,
				"z": -2.4219261252,
				"element": "H" 
			},
			{
				"x": 0.9186521052,
				"y": 4.6027270066,
				"z": -1.6531223473,
				"element": "H" 
			},
			{
				"x": -0.5805201964,
				"y": 4.3528993526,
				"z": -0.7632668253,
				"element": "H" 
			}
		],
		 "valence_orbital": [ 
			{
				"type": "occ",
				"energy": -0.3616,
				"method": "rhf"
			},
			{
				"type": "occ",
				"energy": -0.35846,
				"method": "rhf"
			},
			{
				"type": "occ",
				"energy": -0.26562,
				"method": "rhf"
			},
			{
				"type": "occ",
				"energy": -0.26252,
				"method": "rhf"
			},
			{
				"type": "occ",
				"energy": -0.24677,
				"method": "rhf"
			},
			{
				"type": "unocc",
				"energy": -0.02469,
				"method": "rhf"
			},
			{
				"type": "unocc",
				"energy": -0.02463,
				"method": "rhf"
			},
			{
				"type": "unocc",
				"energy": -0.02226,
				"method": "rhf"
			},
			{
				"type": "unocc",
				"energy": 0.08727,
				"method": "rhf"
			},
			{
				"type": "unocc",
				"energy": 0.10074,
				"method": "rhf"
			}
		],
		"cosmo_sigma_profile": { 
			"-0.025": 0.0,
			"-0.024": 0.0,
			"-0.023": 0.0,
			"-0.022": 0.0,
			"-0.021": 0.0,
			"-0.02": 0.0,
			"-0.019": 0.0,
			"-0.018": 0.0,
			"-0.017": 0.0,
			"-0.016": 0.0,
			"-0.015": 0.0,
			"-0.014": 0.0,
			"-0.013": 0.0,
			"-0.012": 0.0,
			"-0.011": 0.0,
			"-0.01": 0.0,
			"-0.009": 0.0,
			"-0.008": 0.810890181505,
			"-0.007": 11.1072524731,
			"-0.006": 19.3666130603,
			"-0.005": 17.8630204863,
			"-0.004": 17.2686490221,
			"-0.003": 18.6724969301,
			"-0.002": 18.5178720855,
			"-0.001": 15.6416339565,
			"0.0": 7.46134710254,
			"0.001": 5.23427613814,
			"0.002": 5.34561276408,
			"0.003": 3.92909931851,
			"0.004": 4.63157290502,
			"0.005": 4.1230678324,
			"0.006": 4.44564187608,
			"0.007": 4.49854535665,
			"0.008": 4.30088349747,
			"0.009": 5.37498961967,
			"0.01": 6.73893535439,
			"0.011": 9.15021880046,
			"0.012": 6.2985187314,
			"0.013": 1.24440196788,
			"0.014": 0.0,
			"0.015": 0.0,
			"0.016": 0.0,
			"0.017": 0.0,
			"0.018": 0.0,
			"0.019": 0.0,
			"0.02": 0.0,
			"0.021": 0.0,
			"0.022": 0.0,
			"0.023": 0.0,
			"0.024": 0.0,
			"0.025": 0.0
		}
	}
}
