{
	 "smiles": "CCC1=CC=C(OCC2=NN=C(S)N2CC2=CC=CC=C2)C=C1", 
	 "Tm": 411.15, 
	 "num_atms": 42, 
	 "gaussian": { 
		 "optdone": 1, 
		 "sigma_profile": "yes", 
		 "theory": "DFT", 
		 "functional": "B3LYP", 
		 "basiset": "6-31G**", 
		 "properties": { 
			 "R2extent": 9960.9585, 
			 "electric_dipole_moment_norm": 5.47085593303, 
			 "electric_quadrupole_moment_norm": 16.6949349672, 
			 "total_energy": -1334.99632883, 
			 "HOMO_LUMO_gap": 0.19798, 
			 "cosmo_polarized_energy": -20.75, 
			 "cosmo_cavitation_energy": 47.66, 
			 "cosmo_dispersion_energy": -31.86, 
			 "cosmo_repulsion_energy": 2.46, 
			 "cosmo_total_nonelectrostatic_energy": 18.26, 
			 "SMD_solvation_energy": 5.68 
		},
		"coords": [
			{
				"x": 2.0585081074,
				"y": -0.2755293639,
				"z": -4.1551618264,
				"element": "C" 
			},
			{
				"x": 2.2975347833,
				"y": -1.7147307678,
				"z": -3.6641493044,
				"element": "C" 
			},
			{
				"x": 1.7824673323,
				"y": -1.9531550288,
				"z": -2.2599475354,
				"element": "C" 
			},
			{
				"x": 2.5946240236,
				"y": -1.7115169033,
				"z": -1.1427427127,
				"element": "C" 
			},
			{
				"x": 2.1194563325,
				"y": -1.8888868264,
				"z": 0.1564471546,
				"element": "C" 
			},
			{
				"x": 0.8079521702,
				"y": -2.3233479902,
				"z": 0.3487831476,
				"element": "C" 
			},
			{
				"x": 0.3521970999,
				"y": -2.5786209424,
				"z": 1.6371645881,
				"element": "O" 
			},
			{
				"x": -0.5174620459,
				"y": -1.6161677488,
				"z": 2.1961890042,
				"element": "C" 
			},
			{
				"x": 0.2202734177,
				"y": -0.4721882426,
				"z": 2.847692996,
				"element": "C" 
			},
			{
				"x": 1.5158368106,
				"y": -0.3477120976,
				"z": 2.9839314381,
				"element": "N" 
			},
			{
				"x": 1.7617363802,
				"y": 0.8412610317,
				"z": 3.6529106047,
				"element": "N" 
			},
			{
				"x": 0.5965282129,
				"y": 1.3834715021,
				"z": 3.9042397193,
				"element": "C" 
			},
			{
				"x": 0.3275892303,
				"y": 2.914829982,
				"z": 4.7512603828,
				"element": "S" 
			},
			{
				"x": -0.4296712772,
				"y": 0.6053291093,
				"z": 3.4220803118,
				"element": "N" 
			},
			{
				"x": -1.8699580735,
				"y": 0.8453211839,
				"z": 3.5109315981,
				"element": "C" 
			},
			{
				"x": -2.5195261275,
				"y": 1.2658679645,
				"z": 2.2028221559,
				"element": "C" 
			},
			{
				"x": -3.777667978,
				"y": 0.7565468254,
				"z": 1.8618717883,
				"element": "C" 
			},
			{
				"x": -4.4165284038,
				"y": 1.1678602299,
				"z": 0.6905447128,
				"element": "C" 
			},
			{
				"x": -3.7970308563,
				"y": 2.0879851852,
				"z": -0.1555701151,
				"element": "C" 
			},
			{
				"x": -2.538456362,
				"y": 2.5954280966,
				"z": 0.1758314572,
				"element": "C" 
			},
			{
				"x": -1.9032608361,
				"y": 2.1895411366,
				"z": 1.3491413034,
				"element": "C" 
			},
			{
				"x": -0.0199980692,
				"y": -2.5795438574,
				"z": -0.745937717,
				"element": "C" 
			},
			{
				"x": 0.4692410449,
				"y": -2.3894313206,
				"z": -2.0385283794,
				"element": "C" 
			},
			{
				"x": 2.4431499139,
				"y": -0.1370352668,
				"z": -5.1713647156,
				"element": "H" 
			},
			{
				"x": 0.9899520797,
				"y": -0.0361516168,
				"z": -4.1606434745,
				"element": "H" 
			},
			{
				"x": 2.5559754143,
				"y": 0.4486091875,
				"z": -3.5017672969,
				"element": "H" 
			},
			{
				"x": 1.8143136111,
				"y": -2.4157444261,
				"z": -4.355557012,
				"element": "H" 
			},
			{
				"x": 3.3714729975,
				"y": -1.9334918878,
				"z": -3.7015317603,
				"element": "H" 
			},
			{
				"x": 3.6188515397,
				"y": -1.3769157458,
				"z": -1.2910088635,
				"element": "H" 
			},
			{
				"x": 2.7322553092,
				"y": -1.6837668549,
				"z": 1.0266273076,
				"element": "H" 
			},
			{
				"x": -1.1137070016,
				"y": -2.1434319111,
				"z": 2.9528184755,
				"element": "H" 
			},
			{
				"x": -1.2171677099,
				"y": -1.2238537566,
				"z": 1.4440551708,
				"element": "H" 
			},
			{
				"x": 1.6300199324,
				"y": 3.0385229134,
				"z": 5.0677982804,
				"element": "H" 
			},
			{
				"x": -2.350349179,
				"y": -0.061678335,
				"z": 3.892459148,
				"element": "H" 
			},
			{
				"x": -2.0173000055,
				"y": 1.6141567794,
				"z": 4.2772167782,
				"element": "H" 
			},
			{
				"x": -4.2621384986,
				"y": 0.0347732433,
				"z": 2.5155678746,
				"element": "H" 
			},
			{
				"x": -5.3920343894,
				"y": 0.7630196839,
				"z": 0.4374713015,
				"element": "H" 
			},
			{
				"x": -4.2890332458,
				"y": 2.4051869303,
				"z": -1.0702556812,
				"element": "H" 
			},
			{
				"x": -2.0489877769,
				"y": 3.3089230369,
				"z": -0.4804408901,
				"element": "H" 
			},
			{
				"x": -0.9234026733,
				"y": 2.5870351291,
				"z": 1.5974842492,
				"element": "H" 
			},
			{
				"x": -1.0291516391,
				"y": -2.9462181185,
				"z": -0.5809991909,
				"element": "H" 
			},
			{
				"x": -0.176003595,
				"y": -2.5980501419,
				"z": -2.8889344733,
				"element": "H" 
			}
		],
		 "valence_orbital": [ 
			{
				"type": "occ",
				"energy": -0.26219,
				"method": "rhf"
			},
			{
				"type": "occ",
				"energy": -0.25337,
				"method": "rhf"
			},
			{
				"type": "occ",
				"energy": -0.24161,
				"method": "rhf"
			},
			{
				"type": "occ",
				"energy": -0.2302,
				"method": "rhf"
			},
			{
				"type": "occ",
				"energy": -0.22274,
				"method": "rhf"
			},
			{
				"type": "unocc",
				"energy": -0.02476,
				"method": "rhf"
			},
			{
				"type": "unocc",
				"energy": -0.0183,
				"method": "rhf"
			},
			{
				"type": "unocc",
				"energy": 0.00392,
				"method": "rhf"
			},
			{
				"type": "unocc",
				"energy": 0.00589,
				"method": "rhf"
			},
			{
				"type": "unocc",
				"energy": 0.01083,
				"method": "rhf"
			}
		],
		"cosmo_sigma_profile": { 
			"-0.025": 0.0,
			"-0.024": 0.0,
			"-0.023": 0.0,
			"-0.022": 0.0,
			"-0.021": 0.0,
			"-0.02": 0.0,
			"-0.019": 0.0,
			"-0.018": 0.0,
			"-0.017": 0.0,
			"-0.016": 0.0,
			"-0.015": 0.0,
			"-0.014": 0.0,
			"-0.013": 0.183888572875,
			"-0.012": 1.42763318371,
			"-0.011": 1.49845154744,
			"-0.01": 2.12555512087,
			"-0.009": 3.1268788764,
			"-0.008": 7.60523135495,
			"-0.007": 8.92774028244,
			"-0.006": 15.862447194,
			"-0.005": 25.8648908867,
			"-0.004": 30.0647710366,
			"-0.003": 33.8905430007,
			"-0.002": 32.3495256299,
			"-0.001": 31.8715769368,
			"0.0": 27.773736552,
			"0.001": 28.4198039087,
			"0.002": 22.305884302,
			"0.003": 20.5978665844,
			"0.004": 21.865199218,
			"0.005": 22.6840396528,
			"0.006": 11.407173412,
			"0.007": 4.55905417964,
			"0.008": 2.99452896485,
			"0.009": 3.4955850469,
			"0.01": 3.90048092864,
			"0.011": 4.3974587253,
			"0.012": 3.39718767248,
			"0.013": 3.497556533,
			"0.014": 2.97641267062,
			"0.015": 1.3147280885,
			"0.016": 1.08696430379,
			"0.017": 0.160478313946,
			"0.018": 0.0,
			"0.019": 0.0,
			"0.02": 0.0,
			"0.021": 0.0,
			"0.022": 0.0,
			"0.023": 0.0,
			"0.024": 0.0,
			"0.025": 0.0
		}
	}
}
