{
	 "smiles": "CC1=CC=C(O1)C(C1=CC=C(C)O1)C1=CC=C(C=C1)C(C1=CC=C(C)O1)C1=CC=C(C)O1", 
	 "Tm": 429.15, 
	 "num_atms": 58, 
	 "gaussian": { 
		 "optdone": 1, 
		 "sigma_profile": "yes", 
		 "theory": "DFT", 
		 "functional": "B3LYP", 
		 "basiset": "6-31G**", 
		 "properties": { 
			 "R2extent": 18185.385, 
			 "electric_dipole_moment_norm": 0.419419575127, 
			 "electric_quadrupole_moment_norm": 7.16444205225, 
			 "total_energy": -1383.48580259, 
			 "HOMO_LUMO_gap": 0.1957, 
			 "cosmo_polarized_energy": -14.41, 
			 "cosmo_cavitation_energy": 63.33, 
			 "cosmo_dispersion_energy": -40.98, 
			 "cosmo_repulsion_energy": 3.23, 
			 "cosmo_total_nonelectrostatic_energy": 25.58, 
			 "SMD_solvation_energy": 12.41 
		},
		"coords": [
			{
				"x": 3.2888658291,
				"y": -1.3851952631,
				"z": 4.8499114053,
				"element": "C" 
			},
			{
				"x": 3.7119937191,
				"y": -0.6133680721,
				"z": 3.6498420409,
				"element": "C" 
			},
			{
				"x": 4.8984978649,
				"y": -0.4553190638,
				"z": 2.9976532169,
				"element": "C" 
			},
			{
				"x": 4.6472936531,
				"y": 0.4286316186,
				"z": 1.8956743073,
				"element": "C" 
			},
			{
				"x": 3.324004553,
				"y": 0.7507386323,
				"z": 1.9501590641,
				"element": "C" 
			},
			{
				"x": 2.7418489768,
				"y": 0.1210505272,
				"z": 3.0173944702,
				"element": "O" 
			},
			{
				"x": 2.4566702822,
				"y": 1.6222429729,
				"z": 1.0792047362,
				"element": "C" 
			},
			{
				"x": 1.9334051786,
				"y": 2.8389232269,
				"z": 1.7974045042,
				"element": "C" 
			},
			{
				"x": 2.1227659121,
				"y": 4.1733859417,
				"z": 1.5949368483,
				"element": "C" 
			},
			{
				"x": 1.3534532621,
				"y": 4.8524620588,
				"z": 2.5977840262,
				"element": "C" 
			},
			{
				"x": 0.7466425607,
				"y": 3.8872643889,
				"z": 3.3448170023,
				"element": "C" 
			},
			{
				"x": -0.1690321209,
				"y": 3.9133733914,
				"z": 4.5177265597,
				"element": "C" 
			},
			{
				"x": 1.0956506769,
				"y": 2.6510172883,
				"z": 2.8642622885,
				"element": "O" 
			},
			{
				"x": 1.3595771811,
				"y": 0.8332366308,
				"z": 0.351986316,
				"element": "C" 
			},
			{
				"x": 0.3053192765,
				"y": 0.2214928849,
				"z": 1.0443693823,
				"element": "C" 
			},
			{
				"x": -0.6746206928,
				"y": -0.4886856188,
				"z": 0.3541841502,
				"element": "C" 
			},
			{
				"x": -0.6358199707,
				"y": -0.6095050126,
				"z": -1.0400550263,
				"element": "C" 
			},
			{
				"x": 0.4133730016,
				"y": 0.0028641801,
				"z": -1.7309494918,
				"element": "C" 
			},
			{
				"x": 1.3972394683,
				"y": 0.7126781799,
				"z": -1.0410519496,
				"element": "C" 
			},
			{
				"x": -1.7070305541,
				"y": -1.4273146141,
				"z": -1.7677074935,
				"element": "C" 
			},
			{
				"x": -2.1280399211,
				"y": -0.8218238109,
				"z": -3.0793004498,
				"element": "C" 
			},
			{
				"x": -1.8840121266,
				"y": -1.1188388107,
				"z": -4.3867268587,
				"element": "C" 
			},
			{
				"x": -2.5651952653,
				"y": -0.1219723676,
				"z": -5.1636103118,
				"element": "C" 
			},
			{
				"x": -3.1783426835,
				"y": 0.7142051064,
				"z": -4.2786257788,
				"element": "C" 
			},
			{
				"x": -4.0325509724,
				"y": 1.9243479353,
				"z": -4.4252956013,
				"element": "C" 
			},
			{
				"x": -2.9184749766,
				"y": 0.2955481386,
				"z": -2.9992542481,
				"element": "O" 
			},
			{
				"x": -1.2659820552,
				"y": -2.8551915438,
				"z": -1.9435784364,
				"element": "C" 
			},
			{
				"x": -0.064154229,
				"y": -3.4936299149,
				"z": -1.873481562,
				"element": "C" 
			},
			{
				"x": -0.3220717628,
				"y": -4.8781354948,
				"z": -2.1510319825,
				"element": "C" 
			},
			{
				"x": -1.6630470873,
				"y": -4.9918945666,
				"z": -2.3688897061,
				"element": "C" 
			},
			{
				"x": -2.5616699827,
				"y": -6.1334899958,
				"z": -2.6932080556,
				"element": "C" 
			},
			{
				"x": -2.25235412,
				"y": -3.7609332961,
				"z": -2.244658318,
				"element": "O" 
			},
			{
				"x": 4.1442697221,
				"y": -1.9245035407,
				"z": 5.2635958103,
				"element": "H" 
			},
			{
				"x": 2.5093755506,
				"y": -2.1159998004,
				"z": 4.6044451557,
				"element": "H" 
			},
			{
				"x": 2.8879984639,
				"y": -0.7280185073,
				"z": 5.6305030993,
				"element": "H" 
			},
			{
				"x": 5.8393822433,
				"y": -0.913194138,
				"z": 3.2686451194,
				"element": "H" 
			},
			{
				"x": 5.3588685133,
				"y": 0.7773778291,
				"z": 1.1604971367,
				"element": "H" 
			},
			{
				"x": 3.1314898829,
				"y": 2.016215542,
				"z": 0.3122376883,
				"element": "H" 
			},
			{
				"x": 2.7347078326,
				"y": 4.6209388767,
				"z": 0.8244535311,
				"element": "H" 
			},
			{
				"x": 1.264377107,
				"y": 5.919755662,
				"z": 2.7436788794,
				"element": "H" 
			},
			{
				"x": -0.3703138408,
				"y": 4.9475469339,
				"z": 4.8069791894,
				"element": "H" 
			},
			{
				"x": -1.1261704499,
				"y": 3.4285035585,
				"z": 4.2924196189,
				"element": "H" 
			},
			{
				"x": 0.2662408695,
				"y": 3.3948609012,
				"z": 5.3800441331,
				"element": "H" 
			},
			{
				"x": 0.2525671082,
				"y": 0.306032523,
				"z": 2.1237083474,
				"element": "H" 
			},
			{
				"x": -1.4840459866,
				"y": -0.957903579,
				"z": 0.9085987174,
				"element": "H" 
			},
			{
				"x": 0.4532884802,
				"y": -0.0652658434,
				"z": -2.814161981,
				"element": "H" 
			},
			{
				"x": 2.2034711927,
				"y": 1.1828827454,
				"z": -1.5995074708,
				"element": "H" 
			},
			{
				"x": -2.5987286492,
				"y": -1.4390015861,
				"z": -1.1248844068,
				"element": "H" 
			},
			{
				"x": -1.3006295988,
				"y": -1.9520563435,
				"z": -4.7503339108,
				"element": "H" 
			},
			{
				"x": -2.5975043725,
				"y": -0.0423664339,
				"z": -6.2411607109,
				"element": "H" 
			},
			{
				"x": -4.1648262851,
				"y": 2.1581472037,
				"z": -5.4843451081,
				"element": "H" 
			},
			{
				"x": -3.5831592127,
				"y": 2.7959026488,
				"z": -3.9351152701,
				"element": "H" 
			},
			{
				"x": -5.0237377896,
				"y": 1.7742274897,
				"z": -3.9813655093,
				"element": "H" 
			},
			{
				"x": 0.8857375479,
				"y": -3.0348340022,
				"z": -1.6433546195,
				"element": "H" 
			},
			{
				"x": 0.398052437,
				"y": -5.6837856128,
				"z": -2.1789222854,
				"element": "H" 
			},
			{
				"x": -1.9783511083,
				"y": -7.0542377739,
				"z": -2.7684716556,
				"element": "H" 
			},
			{
				"x": -3.327439536,
				"y": -6.2753169696,
				"z": -1.9215192634,
				"element": "H" 
			},
			{
				"x": -3.0822229966,
				"y": -5.9782734407,
				"z": -3.6454492833,
				"element": "H" 
			}
		],
		 "valence_orbital": [ 
			{
				"type": "occ",
				"energy": -0.23794,
				"method": "rhf"
			},
			{
				"type": "occ",
				"energy": -0.21107,
				"method": "rhf"
			},
			{
				"type": "occ",
				"energy": -0.20868,
				"method": "rhf"
			},
			{
				"type": "occ",
				"energy": -0.20086,
				"method": "rhf"
			},
			{
				"type": "occ",
				"energy": -0.19743,
				"method": "rhf"
			},
			{
				"type": "unocc",
				"energy": -0.00173,
				"method": "rhf"
			},
			{
				"type": "unocc",
				"energy": 0.00319,
				"method": "rhf"
			},
			{
				"type": "unocc",
				"energy": 0.01513,
				"method": "rhf"
			},
			{
				"type": "unocc",
				"energy": 0.02417,
				"method": "rhf"
			},
			{
				"type": "unocc",
				"energy": 0.02533,
				"method": "rhf"
			}
		],
		"cosmo_sigma_profile": { 
			"-0.025": 0.0,
			"-0.024": 0.0,
			"-0.023": 0.0,
			"-0.022": 0.0,
			"-0.021": 0.0,
			"-0.02": 0.0,
			"-0.019": 0.0,
			"-0.018": 0.0,
			"-0.017": 0.0,
			"-0.016": 0.0,
			"-0.015": 0.0,
			"-0.014": 0.0,
			"-0.013": 0.0,
			"-0.012": 0.0,
			"-0.011": 0.0,
			"-0.01": 0.0,
			"-0.009": 0.0,
			"-0.008": 0.135061077381,
			"-0.007": 5.20222707895,
			"-0.006": 21.9619909985,
			"-0.005": 37.7606185786,
			"-0.004": 45.6752315381,
			"-0.003": 45.8083678023,
			"-0.002": 42.9496372505,
			"-0.001": 52.5737175192,
			"0.0": 41.5589894903,
			"0.001": 26.7273229131,
			"0.002": 29.3272990777,
			"0.003": 33.6263243431,
			"0.004": 41.7295105964,
			"0.005": 38.0781346399,
			"0.006": 25.2627424318,
			"0.007": 8.25314144513,
			"0.008": 4.28220512169,
			"0.009": 2.34712654608,
			"0.01": 0.883534628502,
			"0.011": 0.115157533745,
			"0.012": 0.0,
			"0.013": 0.0,
			"0.014": 0.0,
			"0.015": 0.0,
			"0.016": 0.0,
			"0.017": 0.0,
			"0.018": 0.0,
			"0.019": 0.0,
			"0.02": 0.0,
			"0.021": 0.0,
			"0.022": 0.0,
			"0.023": 0.0,
			"0.024": 0.0,
			"0.025": 0.0
		}
	}
}
