{
	 "smiles": "SC1=NN=C(N1CC1CCCO1)N1CCOCC1", 
	 "Tm": 460.15, 
	 "num_atms": 36, 
	 "gaussian": { 
		 "optdone": 1, 
		 "sigma_profile": "yes", 
		 "theory": "DFT", 
		 "functional": "B3LYP", 
		 "basiset": "6-31G**", 
		 "properties": { 
			 "R2extent": 5873.2436, 
			 "electric_dipole_moment_norm": 4.47725770087, 
			 "electric_quadrupole_moment_norm": 15.0767974252, 
			 "total_energy": -1197.59201951, 
			 "HOMO_LUMO_gap": 0.23183, 
			 "cosmo_polarized_energy": -18.79, 
			 "cosmo_cavitation_energy": 37.06, 
			 "cosmo_dispersion_energy": -26.74, 
			 "cosmo_repulsion_energy": 2.02, 
			 "cosmo_total_nonelectrostatic_energy": 12.33, 
			 "SMD_solvation_energy": 2.57 
		},
		"coords": [
			{
				"x": -3.1412233039,
				"y": -1.6742512339,
				"z": 2.6783273731,
				"element": "S" 
			},
			{
				"x": -1.8925071978,
				"y": -1.9799109428,
				"z": 1.4592534241,
				"element": "C" 
			},
			{
				"x": -1.8139930046,
				"y": -3.0528415925,
				"z": 0.7076873198,
				"element": "N" 
			},
			{
				"x": -0.6537020887,
				"y": -2.9461177609,
				"z": -0.037394683,
				"element": "N" 
			},
			{
				"x": -0.0875055272,
				"y": -1.8012725489,
				"z": 0.2660010564,
				"element": "C" 
			},
			{
				"x": -0.8309317109,
				"y": -1.1312832959,
				"z": 1.2208776083,
				"element": "N" 
			},
			{
				"x": -0.6180871085,
				"y": 0.2127067659,
				"z": 1.7468107535,
				"element": "C" 
			},
			{
				"x": -1.462634022,
				"y": 1.2929906008,
				"z": 1.0549205982,
				"element": "C" 
			},
			{
				"x": -1.3176901543,
				"y": 1.3767546233,
				"z": -0.4853506549,
				"element": "C" 
			},
			{
				"x": -2.6339931244,
				"y": 0.770255377,
				"z": -1.004565386,
				"element": "C" 
			},
			{
				"x": -3.6055704695,
				"y": 1.1339357209,
				"z": 0.1188837168,
				"element": "C" 
			},
			{
				"x": -2.8407552584,
				"y": 1.0207809999,
				"z": 1.3247344177,
				"element": "O" 
			},
			{
				"x": 1.0954169017,
				"y": -1.2813407757,
				"z": -0.2699595451,
				"element": "N" 
			},
			{
				"x": 2.2782829774,
				"y": -1.4516213517,
				"z": 0.6150984122,
				"element": "C" 
			},
			{
				"x": 3.5570939198,
				"y": -1.2982443693,
				"z": -0.2005452632,
				"element": "C" 
			},
			{
				"x": 3.6963808595,
				"y": -2.3063211912,
				"z": -1.1920802281,
				"element": "O" 
			},
			{
				"x": 2.4565327417,
				"y": -2.7591871771,
				"z": -1.7467675727,
				"element": "C" 
			},
			{
				"x": 1.3704231073,
				"y": -1.6917604088,
				"z": -1.6701859906,
				"element": "C" 
			},
			{
				"x": -3.2348088681,
				"y": -2.9775154001,
				"z": 3.0118221105,
				"element": "H" 
			},
			{
				"x": 0.4398873463,
				"y": 0.4558921759,
				"z": 1.6358489748,
				"element": "H" 
			},
			{
				"x": -0.8612288092,
				"y": 0.2003818484,
				"z": 2.8135406227,
				"element": "H" 
			},
			{
				"x": -1.1833012768,
				"y": 2.2494870899,
				"z": 1.5228663476,
				"element": "H" 
			},
			{
				"x": -0.4279005665,
				"y": 0.8534719676,
				"z": -0.8430172929,
				"element": "H" 
			},
			{
				"x": -1.2352691069,
				"y": 2.4251179298,
				"z": -0.7899470723,
				"element": "H" 
			},
			{
				"x": -2.9366316672,
				"y": 1.173886839,
				"z": -1.9748178337,
				"element": "H" 
			},
			{
				"x": -2.5548452795,
				"y": -0.3173393073,
				"z": -1.0965620776,
				"element": "H" 
			},
			{
				"x": -4.4611497406,
				"y": 0.4599279799,
				"z": 0.2079514287,
				"element": "H" 
			},
			{
				"x": -3.9785298916,
				"y": 2.1637354852,
				"z": 0.0046842763,
				"element": "H" 
			},
			{
				"x": 2.2638848752,
				"y": -0.7004185036,
				"z": 1.4138123045,
				"element": "H" 
			},
			{
				"x": 2.2715312037,
				"y": -2.4426437314,
				"z": 1.0920051675,
				"element": "H" 
			},
			{
				"x": 3.5796678306,
				"y": -0.2951323035,
				"z": -0.6565433462,
				"element": "H" 
			},
			{
				"x": 4.4260300971,
				"y": -1.3799388777,
				"z": 0.4604689508,
				"element": "H" 
			},
			{
				"x": 2.1144972094,
				"y": -3.6637930451,
				"z": -1.2249965749,
				"element": "H" 
			},
			{
				"x": 2.6542907817,
				"y": -3.0247471289,
				"z": -2.7910255376,
				"element": "H" 
			},
			{
				"x": 0.4478741824,
				"y": -2.0743443883,
				"z": -2.108894459,
				"element": "H" 
			},
			{
				"x": 1.6832641427,
				"y": -0.8091000687,
				"z": -2.2419413455,
				"element": "H" 
			}
		],
		 "valence_orbital": [ 
			{
				"type": "occ",
				"energy": -0.26506,
				"method": "rhf"
			},
			{
				"type": "occ",
				"energy": -0.2593,
				"method": "rhf"
			},
			{
				"type": "occ",
				"energy": -0.25025,
				"method": "rhf"
			},
			{
				"type": "occ",
				"energy": -0.24289,
				"method": "rhf"
			},
			{
				"type": "occ",
				"energy": -0.21578,
				"method": "rhf"
			},
			{
				"type": "unocc",
				"energy": 0.01605,
				"method": "rhf"
			},
			{
				"type": "unocc",
				"energy": 0.02647,
				"method": "rhf"
			},
			{
				"type": "unocc",
				"energy": 0.04248,
				"method": "rhf"
			},
			{
				"type": "unocc",
				"energy": 0.06569,
				"method": "rhf"
			},
			{
				"type": "unocc",
				"energy": 0.07997,
				"method": "rhf"
			}
		],
		"cosmo_sigma_profile": { 
			"-0.025": 0.0,
			"-0.024": 0.0,
			"-0.023": 0.0,
			"-0.022": 0.0,
			"-0.021": 0.0,
			"-0.02": 0.0,
			"-0.019": 0.0,
			"-0.018": 0.0,
			"-0.017": 0.0,
			"-0.016": 0.0,
			"-0.015": 0.0,
			"-0.014": 0.0,
			"-0.013": 0.0,
			"-0.012": 0.0,
			"-0.011": 0.929914933779,
			"-0.01": 1.67781479303,
			"-0.009": 1.60510459321,
			"-0.008": 2.75123221461,
			"-0.007": 4.6330288811,
			"-0.006": 8.70387588444,
			"-0.005": 23.3697941449,
			"-0.004": 38.0109973919,
			"-0.003": 39.1314001179,
			"-0.002": 33.7190879868,
			"-0.001": 26.2062260394,
			"0.0": 18.6401070573,
			"0.001": 11.167635267,
			"0.002": 8.4586050498,
			"0.003": 7.37394575198,
			"0.004": 8.34501458786,
			"0.005": 8.37634864713,
			"0.006": 7.79205245914,
			"0.007": 5.95806749061,
			"0.008": 4.76020411297,
			"0.009": 3.8622234028,
			"0.01": 3.37879752405,
			"0.011": 4.6066810479,
			"0.012": 4.16637142732,
			"0.013": 6.12948002661,
			"0.014": 3.30954348597,
			"0.015": 2.62715303758,
			"0.016": 1.70838482821,
			"0.017": 0.694411400822,
			"0.018": 0.00465130988739,
			"0.019": 0.0,
			"0.02": 0.0,
			"0.021": 0.0,
			"0.022": 0.0,
			"0.023": 0.0,
			"0.024": 0.0,
			"0.025": 0.0
		}
	}
}
