{
	 "smiles": "COS(=O)(=O)C1=CC(=CC=C1C#CC1=C(C=C(C=C1)[N+]([O-])=O)S(=O)(=O)OC)[N+]([O-])=O", 
	 "Tm": 501.15, 
	 "num_atms": 42, 
	 "gaussian": { 
		 "optdone": 1, 
		 "sigma_profile": "yes", 
		 "theory": "DFT", 
		 "functional": "B3LYP", 
		 "basiset": "6-31G**", 
		 "properties": { 
			 "R2extent": 18034.7047, 
			 "electric_dipole_moment_norm": 0.00283901391332, 
			 "electric_quadrupole_moment_norm": 61.6478531711, 
			 "total_energy": -2274.62605078, 
			 "HOMO_LUMO_gap": 0.13419, 
			 "cosmo_polarized_energy": -25.44, 
			 "cosmo_cavitation_energy": 54.48, 
			 "cosmo_dispersion_energy": -36.63, 
			 "cosmo_repulsion_energy": 2.67, 
			 "cosmo_total_nonelectrostatic_energy": 20.52, 
			 "SMD_solvation_energy": 13.33 
		},
		"coords": [
			{
				"x": 1.63015169,
				"y": 3.6831412159,
				"z": 1.8538984205,
				"element": "C" 
			},
			{
				"x": 1.1005527593,
				"y": 2.3436678524,
				"z": 2.0223919805,
				"element": "O" 
			},
			{
				"x": 2.1534039921,
				"y": 1.136241018,
				"z": 1.68427784,
				"element": "S" 
			},
			{
				"x": 3.3463806312,
				"y": 1.2975775117,
				"z": 2.512391265,
				"element": "O" 
			},
			{
				"x": 2.2860576844,
				"y": 1.0049878025,
				"z": 0.2352428139,
				"element": "O" 
			},
			{
				"x": 1.1620166359,
				"y": -0.201911264,
				"z": 2.3594689344,
				"element": "C" 
			},
			{
				"x": 1.5951629709,
				"y": -0.7474909195,
				"z": 3.5615982266,
				"element": "C" 
			},
			{
				"x": 0.8491236382,
				"y": -1.776944729,
				"z": 4.1278676696,
				"element": "C" 
			},
			{
				"x": -0.3133618609,
				"y": -2.2641159419,
				"z": 3.533321208,
				"element": "C" 
			},
			{
				"x": -0.7336687401,
				"y": -1.7138554742,
				"z": 2.3301007803,
				"element": "C" 
			},
			{
				"x": -0.0020132565,
				"y": -0.6779084383,
				"z": 1.7092915222,
				"element": "C" 
			},
			{
				"x": -0.4662912248,
				"y": -0.1760446763,
				"z": 0.4685158246,
				"element": "C" 
			},
			{
				"x": -0.949679838,
				"y": 0.1724082751,
				"z": -0.5888142039,
				"element": "C" 
			},
			{
				"x": -1.4144672405,
				"y": 0.6739642925,
				"z": -1.8295182747,
				"element": "C" 
			},
			{
				"x": -2.5784082295,
				"y": 0.1971977998,
				"z": -2.4793237008,
				"element": "C" 
			},
			{
				"x": -3.0122893692,
				"y": 0.7424485289,
				"z": -3.6813307784,
				"element": "C" 
			},
			{
				"x": -2.2670896567,
				"y": 1.772365498,
				"z": -4.2478770308,
				"element": "C" 
			},
			{
				"x": -1.1047151915,
				"y": 2.2602766466,
				"z": -3.6537320335,
				"element": "C" 
			},
			{
				"x": -0.6836638433,
				"y": 1.7103151588,
				"z": -2.4506301221,
				"element": "C" 
			},
			{
				"x": -2.7216795191,
				"y": 2.3585334091,
				"z": -5.5207568639,
				"element": "N" 
			},
			{
				"x": -2.0436278614,
				"y": 3.2677321057,
				"z": -5.995662564,
				"element": "O" 
			},
			{
				"x": -3.7457960216,
				"y": 1.9002914887,
				"z": -6.0214462885,
				"element": "O" 
			},
			{
				"x": -3.5687715026,
				"y": -1.1415637043,
				"z": -1.803806742,
				"element": "S" 
			},
			{
				"x": -4.7616298754,
				"y": -1.3039473817,
				"z": -2.6318831497,
				"element": "O" 
			},
			{
				"x": -3.7015369894,
				"y": -1.0099772064,
				"z": -0.3548031092,
				"element": "O" 
			},
			{
				"x": -2.5150632463,
				"y": -2.3482957407,
				"z": -2.1415817594,
				"element": "O" 
			},
			{
				"x": -3.0442105199,
				"y": -3.688100708,
				"z": -1.9742669019,
				"element": "C" 
			},
			{
				"x": 1.3029269409,
				"y": -2.3634433983,
				"z": 5.4008838052,
				"element": "N" 
			},
			{
				"x": 2.3272680122,
				"y": -1.9059900989,
				"z": 5.9018321057,
				"element": "O" 
			},
			{
				"x": 0.6240157689,
				"y": -3.2720669414,
				"z": 5.8756573863,
				"element": "O" 
			},
			{
				"x": 0.8092799158,
				"y": 4.3454297834,
				"z": 2.1270216739,
				"element": "H" 
			},
			{
				"x": 2.4831807858,
				"y": 3.8391672694,
				"z": 2.5179861087,
				"element": "H" 
			},
			{
				"x": 1.9197389256,
				"y": 3.8522866327,
				"z": 0.8133429783,
				"element": "H" 
			},
			{
				"x": 2.4904619351,
				"y": -0.3829175391,
				"z": 4.0492688395,
				"element": "H" 
			},
			{
				"x": -0.8649070738,
				"y": -3.0603360965,
				"z": 4.0174409118,
				"element": "H" 
			},
			{
				"x": -1.6371850159,
				"y": -2.0659276832,
				"z": 1.8448712329,
				"element": "H" 
			},
			{
				"x": -3.9074882143,
				"y": 0.3772584322,
				"z": -4.1687260436,
				"element": "H" 
			},
			{
				"x": -0.5538285105,
				"y": 3.0568299796,
				"z": -4.1380528422,
				"element": "H" 
			},
			{
				"x": 0.2197910542,
				"y": 2.0629919823,
				"z": -1.9657330605,
				"element": "H" 
			},
			{
				"x": -3.8946966153,
				"y": -3.8451231042,
				"z": -2.6413613969,
				"element": "H" 
			},
			{
				"x": -2.2217838875,
				"y": -4.3498603159,
				"z": -2.2439723615,
				"element": "H" 
			},
			{
				"x": -3.3374600369,
				"y": -3.8569913217,
				"z": -0.9346923,
				"element": "H" 
			}
		],
		 "valence_orbital": [ 
			{
				"type": "occ",
				"energy": -0.3105,
				"method": "rhf"
			},
			{
				"type": "occ",
				"energy": -0.3098,
				"method": "rhf"
			},
			{
				"type": "occ",
				"energy": -0.30979,
				"method": "rhf"
			},
			{
				"type": "occ",
				"energy": -0.29871,
				"method": "rhf"
			},
			{
				"type": "occ",
				"energy": -0.2673,
				"method": "rhf"
			},
			{
				"type": "unocc",
				"energy": -0.13311,
				"method": "rhf"
			},
			{
				"type": "unocc",
				"energy": -0.10456,
				"method": "rhf"
			},
			{
				"type": "unocc",
				"energy": -0.07497,
				"method": "rhf"
			},
			{
				"type": "unocc",
				"energy": -0.07008,
				"method": "rhf"
			},
			{
				"type": "unocc",
				"energy": -0.05499,
				"method": "rhf"
			}
		],
		"cosmo_sigma_profile": { 
			"-0.025": 0.0,
			"-0.024": 0.0,
			"-0.023": 0.0,
			"-0.022": 0.0,
			"-0.021": 0.0,
			"-0.02": 0.0,
			"-0.019": 0.0,
			"-0.018": 0.0,
			"-0.017": 0.0,
			"-0.016": 0.0,
			"-0.015": 0.0,
			"-0.014": 0.0,
			"-0.013": 0.0,
			"-0.012": 0.0,
			"-0.011": 0.0,
			"-0.01": 0.707506743152,
			"-0.009": 4.90314773995,
			"-0.008": 12.5589176544,
			"-0.007": 18.0523788589,
			"-0.006": 26.3909219522,
			"-0.005": 34.8717924431,
			"-0.004": 39.9903473533,
			"-0.003": 41.0736530696,
			"-0.002": 35.4551125929,
			"-0.001": 24.7279515896,
			"0.0": 19.5307013014,
			"0.001": 16.2357821701,
			"0.002": 20.8222623034,
			"0.003": 15.8175533797,
			"0.004": 16.6570379937,
			"0.005": 14.4137945437,
			"0.006": 23.9294884163,
			"0.007": 24.7047294555,
			"0.008": 16.1114061548,
			"0.009": 21.187832466,
			"0.01": 10.6102808998,
			"0.011": 0.592116007445,
			"0.012": 0.0,
			"0.013": 0.0,
			"0.014": 0.0,
			"0.015": 0.0,
			"0.016": 0.0,
			"0.017": 0.0,
			"0.018": 0.0,
			"0.019": 0.0,
			"0.02": 0.0,
			"0.021": 0.0,
			"0.022": 0.0,
			"0.023": 0.0,
			"0.024": 0.0,
			"0.025": 0.0
		}
	}
}
