{
	 "smiles": "OC(=O)CC(CC1=CC=CC=C1)C(O)=O", 
	 "Tm": 435.15, 
	 "num_atms": 27, 
	 "gaussian": { 
		 "optdone": 1, 
		 "sigma_profile": "yes", 
		 "theory": "DFT", 
		 "functional": "B3LYP", 
		 "basiset": "6-31G**", 
		 "properties": { 
			 "R2extent": 4473.7236, 
			 "electric_dipole_moment_norm": 2.52015781649, 
			 "electric_quadrupole_moment_norm": 16.0851391707, 
			 "total_energy": -727.331879198, 
			 "HOMO_LUMO_gap": 0.23382, 
			 "cosmo_polarized_energy": -16.89, 
			 "cosmo_cavitation_energy": 31.44, 
			 "cosmo_dispersion_energy": -21.53, 
			 "cosmo_repulsion_energy": 1.72, 
			 "cosmo_total_nonelectrostatic_energy": 11.63, 
			 "SMD_solvation_energy": 7.28 
		},
		"coords": [
			{
				"x": -0.3991760699,
				"y": 0.5737295098,
				"z": 3.558672119,
				"element": "O" 
			},
			{
				"x": 0.5091595944,
				"y": 1.5718231224,
				"z": 3.4193509097,
				"element": "C" 
			},
			{
				"x": 1.4304651332,
				"y": 1.7262652707,
				"z": 4.188875111,
				"element": "O" 
			},
			{
				"x": 0.2284227422,
				"y": 2.4348090937,
				"z": 2.2057471412,
				"element": "C" 
			},
			{
				"x": 0.8226751942,
				"y": 1.8843042175,
				"z": 0.8746626957,
				"element": "C" 
			},
			{
				"x": 0.1659029887,
				"y": 0.5641325747,
				"z": 0.4090542762,
				"element": "C" 
			},
			{
				"x": 0.5638652755,
				"y": 0.162286504,
				"z": -0.9975098789,
				"element": "C" 
			},
			{
				"x": -0.0427794152,
				"y": 0.7688201239,
				"z": -2.1070400288,
				"element": "C" 
			},
			{
				"x": 0.3248684772,
				"y": 0.419414757,
				"z": -3.4063070083,
				"element": "C" 
			},
			{
				"x": 1.3080257403,
				"y": -0.5494424945,
				"z": -3.6183857586,
				"element": "C" 
			},
			{
				"x": 1.91707358,
				"y": -1.1633617843,
				"z": -2.5232141757,
				"element": "C" 
			},
			{
				"x": 1.547579134,
				"y": -0.8094084299,
				"z": -1.2241561857,
				"element": "C" 
			},
			{
				"x": 2.3408195682,
				"y": 1.820645322,
				"z": 0.9964668773,
				"element": "C" 
			},
			{
				"x": 2.7767978673,
				"y": 0.636395682,
				"z": 1.4901750811,
				"element": "O" 
			},
			{
				"x": 3.0896206267,
				"y": 2.7331814037,
				"z": 0.7317858851,
				"element": "O" 
			},
			{
				"x": -0.1221925001,
				"y": 0.0649387008,
				"z": 4.3398313703,
				"element": "H" 
			},
			{
				"x": -0.8530687761,
				"y": 2.5422843744,
				"z": 2.0801599272,
				"element": "H" 
			},
			{
				"x": 0.6629609615,
				"y": 3.416812702,
				"z": 2.4050154589,
				"element": "H" 
			},
			{
				"x": 0.636705936,
				"y": 2.6562591328,
				"z": 0.121697332,
				"element": "H" 
			},
			{
				"x": 0.4060120649,
				"y": -0.2344300287,
				"z": 1.1145717463,
				"element": "H" 
			},
			{
				"x": -0.9206143446,
				"y": 0.7050406022,
				"z": 0.4542871229,
				"element": "H" 
			},
			{
				"x": -0.8169529396,
				"y": 1.5172317479,
				"z": -1.9509902116,
				"element": "H" 
			},
			{
				"x": -0.1594817655,
				"y": 0.8988904894,
				"z": -4.2523817113,
				"element": "H" 
			},
			{
				"x": 1.5937923062,
				"y": -0.825645461,
				"z": -4.6292659259,
				"element": "H" 
			},
			{
				"x": 2.6797670547,
				"y": -1.9213868141,
				"z": -2.6788053014,
				"element": "H" 
			},
			{
				"x": 2.0275699447,
				"y": -1.2863300051,
				"z": -0.3745758443,
				"element": "H" 
			},
			{
				"x": 3.7383816212,
				"y": 0.7273396867,
				"z": 1.6005789765,
				"element": "H" 
			}
		],
		 "valence_orbital": [ 
			{
				"type": "occ",
				"energy": -0.31607,
				"method": "rhf"
			},
			{
				"type": "occ",
				"energy": -0.27933,
				"method": "rhf"
			},
			{
				"type": "occ",
				"energy": -0.2744,
				"method": "rhf"
			},
			{
				"type": "occ",
				"energy": -0.24984,
				"method": "rhf"
			},
			{
				"type": "occ",
				"energy": -0.24343,
				"method": "rhf"
			},
			{
				"type": "unocc",
				"energy": -0.00961,
				"method": "rhf"
			},
			{
				"type": "unocc",
				"energy": -0.00265,
				"method": "rhf"
			},
			{
				"type": "unocc",
				"energy": 0.00042,
				"method": "rhf"
			},
			{
				"type": "unocc",
				"energy": 0.01081,
				"method": "rhf"
			},
			{
				"type": "unocc",
				"energy": 0.06903,
				"method": "rhf"
			}
		],
		"cosmo_sigma_profile": { 
			"-0.025": 0.0,
			"-0.024": 0.0,
			"-0.023": 0.0,
			"-0.022": 0.0,
			"-0.021": 0.0,
			"-0.02": 0.0,
			"-0.019": 0.0775291181549,
			"-0.018": 1.74653254349,
			"-0.017": 1.59223780008,
			"-0.016": 1.39607710368,
			"-0.015": 1.87278071002,
			"-0.014": 1.9444427226,
			"-0.013": 1.14867178879,
			"-0.012": 1.21878070594,
			"-0.011": 1.46591276797,
			"-0.01": 1.67906153155,
			"-0.009": 0.95174429005,
			"-0.008": 0.766859022728,
			"-0.007": 3.48437234297,
			"-0.006": 13.2824909411,
			"-0.005": 21.2045188136,
			"-0.004": 20.2674940219,
			"-0.003": 18.8355993592,
			"-0.002": 14.6167101266,
			"-0.001": 14.4589547442,
			"0.0": 13.0902695388,
			"0.001": 14.2939710603,
			"0.002": 13.3049841539,
			"0.003": 13.230279376,
			"0.004": 12.3363998424,
			"0.005": 12.2363694204,
			"0.006": 12.8235904781,
			"0.007": 5.71658158527,
			"0.008": 4.23627858255,
			"0.009": 4.0387119515,
			"0.01": 4.3985051372,
			"0.011": 8.35823296587,
			"0.012": 7.19931665269,
			"0.013": 0.602385190383,
			"0.014": 0.0,
			"0.015": 0.0,
			"0.016": 0.0,
			"0.017": 0.0,
			"0.018": 0.0,
			"0.019": 0.0,
			"0.02": 0.0,
			"0.021": 0.0,
			"0.022": 0.0,
			"0.023": 0.0,
			"0.024": 0.0,
			"0.025": 0.0
		}
	}
}
