{
	 "smiles": "CC1=NC2=C(O1)C=CC(N)=C2", 
	 "Tm": 346.15, 
	 "num_atms": 19, 
	 "gaussian": { 
		 "optdone": 1, 
		 "sigma_profile": "yes", 
		 "theory": "DFT", 
		 "functional": "B3LYP", 
		 "basiset": "6-31G**", 
		 "properties": { 
			 "R2extent": 1993.5152, 
			 "electric_dipole_moment_norm": 1.59693940085, 
			 "electric_quadrupole_moment_norm": 12.6931446576, 
			 "total_energy": -494.406567994, 
			 "HOMO_LUMO_gap": 0.17983, 
			 "cosmo_polarized_energy": -11.18, 
			 "cosmo_cavitation_energy": 23.12, 
			 "cosmo_dispersion_energy": -17.62, 
			 "cosmo_repulsion_energy": 1.41, 
			 "cosmo_total_nonelectrostatic_energy": 6.91, 
			 "SMD_solvation_energy": 2.39 
		},
		"coords": [
			{
				"x": -2.4362837306,
				"y": 1.3896794949,
				"z": 2.0674081536,
				"element": "C" 
			},
			{
				"x": -1.6202892688,
				"y": 0.7978429628,
				"z": 0.9742759319,
				"element": "C" 
			},
			{
				"x": -1.3626201986,
				"y": 1.3029650954,
				"z": -0.191119633,
				"element": "N" 
			},
			{
				"x": -0.5625114556,
				"y": 0.3420247409,
				"z": -0.8175473619,
				"element": "C" 
			},
			{
				"x": -0.3832588288,
				"y": -0.7318481676,
				"z": 0.0612717364,
				"element": "C" 
			},
			{
				"x": -1.0677430231,
				"y": -0.437373529,
				"z": 1.2213499705,
				"element": "O" 
			},
			{
				"x": 0.3679772063,
				"y": -1.8514006049,
				"z": -0.2572021973,
				"element": "C" 
			},
			{
				"x": 0.951983971,
				"y": -1.8632963499,
				"z": -1.5241050865,
				"element": "C" 
			},
			{
				"x": 0.7910038026,
				"y": -0.7931366788,
				"z": -2.4378957523,
				"element": "C" 
			},
			{
				"x": 1.3529424537,
				"y": -0.8910524625,
				"z": -3.7192155819,
				"element": "N" 
			},
			{
				"x": 0.0246711625,
				"y": 0.3274226724,
				"z": -2.082725679,
				"element": "C" 
			},
			{
				"x": -3.2819594791,
				"y": 0.7401971789,
				"z": 2.3170089552,
				"element": "H" 
			},
			{
				"x": -1.8378405828,
				"y": 1.5150108464,
				"z": 2.9759500747,
				"element": "H" 
			},
			{
				"x": -2.8112217069,
				"y": 2.3614279823,
				"z": 1.7459359475,
				"element": "H" 
			},
			{
				"x": 0.4996979833,
				"y": -2.675687649,
				"z": 0.4350319327,
				"element": "H" 
			},
			{
				"x": 1.5443191018,
				"y": -2.7228346973,
				"z": -1.826376492,
				"element": "H" 
			},
			{
				"x": 1.5068023311,
				"y": -0.0025081753,
				"z": -4.1767109703,
				"element": "H" 
			},
			{
				"x": 2.1764664577,
				"y": -1.4753464777,
				"z": -3.7727259941,
				"element": "H" 
			},
			{
				"x": -0.1138361955,
				"y": 1.157313818,
				"z": -2.7688079542,
				"element": "H" 
			}
		],
		 "valence_orbital": [ 
			{
				"type": "occ",
				"energy": -0.31939,
				"method": "rhf"
			},
			{
				"type": "occ",
				"energy": -0.29485,
				"method": "rhf"
			},
			{
				"type": "occ",
				"energy": -0.27891,
				"method": "rhf"
			},
			{
				"type": "occ",
				"energy": -0.22895,
				"method": "rhf"
			},
			{
				"type": "occ",
				"energy": -0.19668,
				"method": "rhf"
			},
			{
				"type": "unocc",
				"energy": -0.01685,
				"method": "rhf"
			},
			{
				"type": "unocc",
				"energy": 0.02663,
				"method": "rhf"
			},
			{
				"type": "unocc",
				"energy": 0.0505,
				"method": "rhf"
			},
			{
				"type": "unocc",
				"energy": 0.08349,
				"method": "rhf"
			},
			{
				"type": "unocc",
				"energy": 0.10577,
				"method": "rhf"
			}
		],
		"cosmo_sigma_profile": { 
			"-0.025": 0.0,
			"-0.024": 0.0,
			"-0.023": 0.0,
			"-0.022": 0.0,
			"-0.021": 0.0,
			"-0.02": 0.0,
			"-0.019": 0.0,
			"-0.018": 0.0,
			"-0.017": 0.0,
			"-0.016": 0.0,
			"-0.015": 0.0,
			"-0.014": 0.0,
			"-0.013": 0.108637899416,
			"-0.012": 2.06187120708,
			"-0.011": 3.11565126659,
			"-0.01": 2.53019568569,
			"-0.009": 3.50012081068,
			"-0.008": 3.69598403036,
			"-0.007": 5.50679367273,
			"-0.006": 11.8303244724,
			"-0.005": 11.8985368228,
			"-0.004": 12.269131248,
			"-0.003": 12.1436119235,
			"-0.002": 13.6347827906,
			"-0.001": 10.601345933,
			"0.0": 7.94591563721,
			"0.001": 9.3730679037,
			"0.002": 10.8842491799,
			"0.003": 10.0039784918,
			"0.004": 11.2203874957,
			"0.005": 14.1450689531,
			"0.006": 7.43882829066,
			"0.007": 4.66240018495,
			"0.008": 2.47933395393,
			"0.009": 2.11637673615,
			"0.01": 1.84851843731,
			"0.011": 1.96962626866,
			"0.012": 1.88434256823,
			"0.013": 1.57448279227,
			"0.014": 1.24017354381,
			"0.015": 1.67399751775,
			"0.016": 0.910636573564,
			"0.017": 0.10154307956,
			"0.018": 0.0,
			"0.019": 0.0,
			"0.02": 0.0,
			"0.021": 0.0,
			"0.022": 0.0,
			"0.023": 0.0,
			"0.024": 0.0,
			"0.025": 0.0
		}
	}
}
