{
	 "smiles": "OC(=O)C1CCNC(=O)C1", 
	 "Tm": 438.15, 
	 "num_atms": 19, 
	 "gaussian": { 
		 "optdone": 1, 
		 "sigma_profile": "yes", 
		 "theory": "DFT", 
		 "functional": "B3LYP", 
		 "basiset": "6-31G**", 
		 "properties": { 
			 "R2extent": 1445.7732, 
			 "electric_dipole_moment_norm": 3.09357854272, 
			 "electric_quadrupole_moment_norm": 13.080653129, 
			 "total_energy": -514.51972399, 
			 "HOMO_LUMO_gap": 0.23346, 
			 "cosmo_polarized_energy": -16.31, 
			 "cosmo_cavitation_energy": 21.85, 
			 "cosmo_dispersion_energy": -16.43, 
			 "cosmo_repulsion_energy": 1.36, 
			 "cosmo_total_nonelectrostatic_energy": 6.78, 
			 "SMD_solvation_energy": 4.59 
		},
		"coords": [
			{
				"x": 0.1213563802,
				"y": 1.8851688185,
				"z": -1.6903922096,
				"element": "O" 
			},
			{
				"x": -0.8856304991,
				"y": 1.1104068827,
				"z": -1.2240796548,
				"element": "C" 
			},
			{
				"x": -2.0211636165,
				"y": 1.5227669175,
				"z": -1.114274816,
				"element": "O" 
			},
			{
				"x": -0.412351387,
				"y": -0.3043438673,
				"z": -0.9140345369,
				"element": "C" 
			},
			{
				"x": -1.538263215,
				"y": -1.1656198536,
				"z": -0.327437638,
				"element": "C" 
			},
			{
				"x": -1.9409151568,
				"y": -0.6915672854,
				"z": 1.0703215702,
				"element": "C" 
			},
			{
				"x": -0.766230804,
				"y": -0.4698693844,
				"z": 1.9146308319,
				"element": "N" 
			},
			{
				"x": 0.5037046004,
				"y": -0.1608907989,
				"z": 1.5090559764,
				"element": "C" 
			},
			{
				"x": 1.372982965,
				"y": 0.1755777921,
				"z": 2.3034701472,
				"element": "O" 
			},
			{
				"x": 0.8143830248,
				"y": -0.333315557,
				"z": 0.0233888717,
				"element": "C" 
			},
			{
				"x": -0.2669184307,
				"y": 2.757550173,
				"z": -1.8725321472,
				"element": "H" 
			},
			{
				"x": -0.1016821366,
				"y": -0.7150018744,
				"z": -1.8841494303,
				"element": "H" 
			},
			{
				"x": -2.419293113,
				"y": -1.1418857715,
				"z": -0.9740604008,
				"element": "H" 
			},
			{
				"x": -1.1852803161,
				"y": -2.2021227594,
				"z": -0.2791245688,
				"element": "H" 
			},
			{
				"x": -2.5306653227,
				"y": 0.2285397268,
				"z": 0.9837446642,
				"element": "H" 
			},
			{
				"x": -2.5743313828,
				"y": -1.4478691285,
				"z": 1.5475655651,
				"element": "H" 
			},
			{
				"x": -0.916735384,
				"y": -0.3051076922,
				"z": 2.9020839025,
				"element": "H" 
			},
			{
				"x": 1.5508778727,
				"y": 0.4250747869,
				"z": -0.245659799,
				"element": "H" 
			},
			{
				"x": 1.3119559212,
				"y": -1.3055911246,
				"z": -0.0763163279,
				"element": "H" 
			}
		],
		 "valence_orbital": [ 
			{
				"type": "occ",
				"energy": -0.3466,
				"method": "rhf"
			},
			{
				"type": "occ",
				"energy": -0.32824,
				"method": "rhf"
			},
			{
				"type": "occ",
				"energy": -0.28486,
				"method": "rhf"
			},
			{
				"type": "occ",
				"energy": -0.24539,
				"method": "rhf"
			},
			{
				"type": "occ",
				"energy": -0.23936,
				"method": "rhf"
			},
			{
				"type": "unocc",
				"energy": -0.0059,
				"method": "rhf"
			},
			{
				"type": "unocc",
				"energy": 0.03077,
				"method": "rhf"
			},
			{
				"type": "unocc",
				"energy": 0.06756,
				"method": "rhf"
			},
			{
				"type": "unocc",
				"energy": 0.08096,
				"method": "rhf"
			},
			{
				"type": "unocc",
				"energy": 0.10879,
				"method": "rhf"
			}
		],
		"cosmo_sigma_profile": { 
			"-0.025": 0.0,
			"-0.024": 0.0,
			"-0.023": 0.0,
			"-0.022": 0.0,
			"-0.021": 0.0,
			"-0.02": 0.0,
			"-0.019": 0.13969407156,
			"-0.018": 0.739546297541,
			"-0.017": 0.79839237478,
			"-0.016": 1.16361044679,
			"-0.015": 0.640128047962,
			"-0.014": 0.496604814277,
			"-0.013": 1.44647226895,
			"-0.012": 2.39870499654,
			"-0.011": 1.8645660924,
			"-0.01": 1.47546923066,
			"-0.009": 1.29209927337,
			"-0.008": 1.6644150066,
			"-0.007": 4.78505712499,
			"-0.006": 9.86861893663,
			"-0.005": 13.6322573793,
			"-0.004": 15.4278274553,
			"-0.003": 16.9193172241,
			"-0.002": 15.9989938739,
			"-0.001": 9.90001588721,
			"0.0": 6.66266461505,
			"0.001": 5.26218003252,
			"0.002": 4.83757525334,
			"0.003": 4.80690799708,
			"0.004": 5.40376590265,
			"0.005": 4.39147224947,
			"0.006": 3.54785085726,
			"0.007": 3.2936612481,
			"0.008": 4.13088368612,
			"0.009": 3.72411418321,
			"0.01": 3.37847266204,
			"0.011": 4.84504869095,
			"0.012": 3.6053537285,
			"0.013": 1.93313439373,
			"0.014": 6.66835651892,
			"0.015": 3.26977770463,
			"0.016": 0.287370408527,
			"0.017": 0.0,
			"0.018": 0.0,
			"0.019": 0.0,
			"0.02": 0.0,
			"0.021": 0.0,
			"0.022": 0.0,
			"0.023": 0.0,
			"0.024": 0.0,
			"0.025": 0.0
		}
	}
}
