{
	 "smiles": "ClC1=CC=C(C=C2SC(=S)N(CN3CCOCC3)C2=O)C=C1", 
	 "Tm": 422.15, 
	 "num_atms": 37, 
	 "gaussian": { 
		 "optdone": 1, 
		 "sigma_profile": "yes", 
		 "theory": "DFT", 
		 "functional": "B3LYP", 
		 "basiset": "6-31G**", 
		 "properties": { 
			 "R2extent": 12779.9949, 
			 "electric_dipole_moment_norm": 2.34359767452, 
			 "electric_quadrupole_moment_norm": 8.65020748768, 
			 "total_energy": -2097.13294437, 
			 "HOMO_LUMO_gap": 0.11797, 
			 "cosmo_polarized_energy": -12.82, 
			 "cosmo_cavitation_energy": 44.59, 
			 "cosmo_dispersion_energy": -32.68, 
			 "cosmo_repulsion_energy": 2.38, 
			 "cosmo_total_nonelectrostatic_energy": 14.3, 
			 "SMD_solvation_energy": 4.34 
		},
		"coords": [
			{
				"x": -3.1262800813,
				"y": 6.5777639315,
				"z": 2.1066583023,
				"element": "Cl" 
			},
			{
				"x": -2.4491137669,
				"y": 4.9819396025,
				"z": 1.8581127594,
				"element": "C" 
			},
			{
				"x": -2.8471869158,
				"y": 4.230731955,
				"z": 0.7501150603,
				"element": "C" 
			},
			{
				"x": -2.3095478402,
				"y": 2.9638139495,
				"z": 0.5531404212,
				"element": "C" 
			},
			{
				"x": -1.3677349455,
				"y": 2.4225285568,
				"z": 1.4533156808,
				"element": "C" 
			},
			{
				"x": -0.7575493101,
				"y": 1.1104219264,
				"z": 1.3223860856,
				"element": "C" 
			},
			{
				"x": -0.9084964298,
				"y": 0.1367484444,
				"z": 0.3933282066,
				"element": "C" 
			},
			{
				"x": -1.9235302141,
				"y": 0.0639179977,
				"z": -1.0463406075,
				"element": "S" 
			},
			{
				"x": -1.3573802241,
				"y": -1.5779038418,
				"z": -1.4559854624,
				"element": "C" 
			},
			{
				"x": -1.959373102,
				"y": -2.3931195478,
				"z": -2.7571639074,
				"element": "S" 
			},
			{
				"x": -0.4175524637,
				"y": -1.9960604074,
				"z": -0.5471216552,
				"element": "N" 
			},
			{
				"x": 0.2380704062,
				"y": -3.371993714,
				"z": -0.5911136474,
				"element": "C" 
			},
			{
				"x": 1.5433803999,
				"y": -3.4469202136,
				"z": -1.1338622683,
				"element": "N" 
			},
			{
				"x": 1.6966977252,
				"y": -3.1233762214,
				"z": -2.5540676355,
				"element": "C" 
			},
			{
				"x": 3.1686902926,
				"y": -3.2300946625,
				"z": -2.9374121367,
				"element": "C" 
			},
			{
				"x": 3.9874490059,
				"y": -2.2989186109,
				"z": -2.2338448759,
				"element": "O" 
			},
			{
				"x": 3.5278736002,
				"y": -1.9797427201,
				"z": -0.9203428375,
				"element": "C" 
			},
			{
				"x": 2.7067662286,
				"y": -3.1061730484,
				"z": -0.2965319795,
				"element": "C" 
			},
			{
				"x": -0.1372757616,
				"y": -1.1273039448,
				"z": 0.521207501,
				"element": "C" 
			},
			{
				"x": 0.6365142899,
				"y": -1.4031772932,
				"z": 1.4243169287,
				"element": "O" 
			},
			{
				"x": -0.9897627076,
				"y": 3.2112374418,
				"z": 2.561002263,
				"element": "C" 
			},
			{
				"x": -1.5194491647,
				"y": 4.4785915192,
				"z": 2.7696946174,
				"element": "C" 
			},
			{
				"x": -3.5702744492,
				"y": 4.6364844932,
				"z": 0.0516119727,
				"element": "H" 
			},
			{
				"x": -2.6346077109,
				"y": 2.4008992194,
				"z": -0.3139445055,
				"element": "H" 
			},
			{
				"x": -0.0480676812,
				"y": 0.8426578888,
				"z": 2.1040829514,
				"element": "H" 
			},
			{
				"x": 0.2441419044,
				"y": -3.7062622142,
				"z": 0.447062037,
				"element": "H" 
			},
			{
				"x": -0.457196903,
				"y": -3.9722402665,
				"z": -1.1808933452,
				"element": "H" 
			},
			{
				"x": 1.3413734731,
				"y": -2.1075673579,
				"z": -2.7938612687,
				"element": "H" 
			},
			{
				"x": 1.0999798202,
				"y": -3.8190491529,
				"z": -3.1563124926,
				"element": "H" 
			},
			{
				"x": 3.5175046829,
				"y": -4.2591948303,
				"z": -2.7577841974,
				"element": "H" 
			},
			{
				"x": 3.2932306865,
				"y": -3.0162387196,
				"z": -4.0036613164,
				"element": "H" 
			},
			{
				"x": 4.4164927509,
				"y": -1.7785086447,
				"z": -0.3117435888,
				"element": "H" 
			},
			{
				"x": 2.9274665266,
				"y": -1.0569142324,
				"z": -0.9460704381,
				"element": "H" 
			},
			{
				"x": 3.3492322542,
				"y": -3.9906149516,
				"z": -0.178734889,
				"element": "H" 
			},
			{
				"x": 2.3697108106,
				"y": -2.7998113852,
				"z": 0.6954425199,
				"element": "H" 
			},
			{
				"x": -0.2660418465,
				"y": 2.8166005855,
				"z": 3.2684853944,
				"element": "H" 
			},
			{
				"x": -1.2191533396,
				"y": 5.0723484695,
				"z": 3.6256303534,
				"element": "H" 
			}
		],
		 "valence_orbital": [ 
			{
				"type": "occ",
				"energy": -0.26674,
				"method": "rhf"
			},
			{
				"type": "occ",
				"energy": -0.24888,
				"method": "rhf"
			},
			{
				"type": "occ",
				"energy": -0.23859,
				"method": "rhf"
			},
			{
				"type": "occ",
				"energy": -0.23163,
				"method": "rhf"
			},
			{
				"type": "occ",
				"energy": -0.22043,
				"method": "rhf"
			},
			{
				"type": "unocc",
				"energy": -0.10246,
				"method": "rhf"
			},
			{
				"type": "unocc",
				"energy": -0.04774,
				"method": "rhf"
			},
			{
				"type": "unocc",
				"energy": -0.03201,
				"method": "rhf"
			},
			{
				"type": "unocc",
				"energy": -0.00764,
				"method": "rhf"
			},
			{
				"type": "unocc",
				"energy": 0.00029,
				"method": "rhf"
			}
		],
		"cosmo_sigma_profile": { 
			"-0.025": 0.0,
			"-0.024": 0.0,
			"-0.023": 0.0,
			"-0.022": 0.0,
			"-0.021": 0.0,
			"-0.02": 0.0,
			"-0.019": 0.0,
			"-0.018": 0.0,
			"-0.017": 0.0,
			"-0.016": 0.0,
			"-0.015": 0.0,
			"-0.014": 0.0,
			"-0.013": 0.0,
			"-0.012": 0.0,
			"-0.011": 0.0,
			"-0.01": 0.157304648874,
			"-0.009": 1.52516371313,
			"-0.008": 5.09994269211,
			"-0.007": 10.2140827193,
			"-0.006": 12.8590581513,
			"-0.005": 19.1221066849,
			"-0.004": 30.1236070831,
			"-0.003": 35.8753356393,
			"-0.002": 31.849073204,
			"-0.001": 26.8963492994,
			"0.0": 32.5407045326,
			"0.001": 33.4617217168,
			"0.002": 32.174814492,
			"0.003": 21.8716817112,
			"0.004": 19.6223749271,
			"0.005": 11.4357008586,
			"0.006": 9.44954715574,
			"0.007": 7.20109276947,
			"0.008": 4.15108470952,
			"0.009": 5.47785770568,
			"0.01": 3.90266358828,
			"0.011": 2.70035388632,
			"0.012": 1.67025865593,
			"0.013": 1.824830245,
			"0.014": 1.03551869126,
			"0.015": 0.0,
			"0.016": 0.0,
			"0.017": 0.0,
			"0.018": 0.0,
			"0.019": 0.0,
			"0.02": 0.0,
			"0.021": 0.0,
			"0.022": 0.0,
			"0.023": 0.0,
			"0.024": 0.0,
			"0.025": 0.0
		}
	}
}
