{
	 "smiles": "CCOC(=O)CC1=CSC(NC(=O)OCC(F)(F)F)=N1", 
	 "Tm": 394.15, 
	 "num_atms": 31, 
	 "gaussian": { 
		 "optdone": 1, 
		 "sigma_profile": "yes", 
		 "theory": "DFT", 
		 "functional": "B3LYP", 
		 "basiset": "6-31G**", 
		 "properties": { 
			 "R2extent": 12443.4142, 
			 "electric_dipole_moment_norm": 2.09796004252, 
			 "electric_quadrupole_moment_norm": 23.348739694, 
			 "total_energy": -1495.82617693, 
			 "HOMO_LUMO_gap": 0.1997, 
			 "cosmo_polarized_energy": -17.83, 
			 "cosmo_cavitation_energy": 40.53, 
			 "cosmo_dispersion_energy": -29.21, 
			 "cosmo_repulsion_energy": 2.21, 
			 "cosmo_total_nonelectrostatic_energy": 13.52, 
			 "SMD_solvation_energy": 8.78 
		},
		"coords": [
			{
				"x": 0.6778320896,
				"y": -8.0957357338,
				"z": 0.8333780325,
				"element": "C" 
			},
			{
				"x": -0.385993883,
				"y": -7.0152072104,
				"z": 0.8662707317,
				"element": "C" 
			},
			{
				"x": 0.2735844636,
				"y": -5.7494856577,
				"z": 0.6242114202,
				"element": "O" 
			},
			{
				"x": -0.5205495698,
				"y": -4.6592081793,
				"z": 0.6169689904,
				"element": "C" 
			},
			{
				"x": -1.7196037001,
				"y": -4.7076789421,
				"z": 0.7991944164,
				"element": "O" 
			},
			{
				"x": 0.3170028456,
				"y": -3.4237167712,
				"z": 0.3511317419,
				"element": "C" 
			},
			{
				"x": -0.3944200566,
				"y": -2.0984233968,
				"z": 0.3187134155,
				"element": "C" 
			},
			{
				"x": -1.7203643652,
				"y": -1.8406313613,
				"z": 0.5020477306,
				"element": "C" 
			},
			{
				"x": -2.0218088404,
				"y": -0.1287650596,
				"z": 0.3732506032,
				"element": "S" 
			},
			{
				"x": -0.2969052169,
				"y": 0.0906076972,
				"z": 0.0594221986,
				"element": "C" 
			},
			{
				"x": 0.1825261415,
				"y": 1.3774805558,
				"z": -0.1638677318,
				"element": "N" 
			},
			{
				"x": 1.5057998543,
				"y": 1.7669969471,
				"z": -0.1789803251,
				"element": "C" 
			},
			{
				"x": 2.4813971121,
				"y": 1.0908800345,
				"z": 0.0248578519,
				"element": "O" 
			},
			{
				"x": 1.5197162659,
				"y": 3.1087069057,
				"z": -0.4942210928,
				"element": "O" 
			},
			{
				"x": 2.792054466,
				"y": 3.7410267302,
				"z": -0.4368409476,
				"element": "C" 
			},
			{
				"x": 2.87558686,
				"y": 4.6015572897,
				"z": 0.8126110295,
				"element": "C" 
			},
			{
				"x": 1.9452370851,
				"y": 5.5757098426,
				"z": 0.8117739322,
				"element": "F" 
			},
			{
				"x": 4.0899673918,
				"y": 5.1864776168,
				"z": 0.8733941306,
				"element": "F" 
			},
			{
				"x": 2.7007434412,
				"y": 3.8690489375,
				"z": 1.9272981563,
				"element": "F" 
			},
			{
				"x": 0.4054309587,
				"y": -0.9949412244,
				"z": 0.0612822496,
				"element": "N" 
			},
			{
				"x": 0.2187789177,
				"y": -9.0728475163,
				"z": 1.0129988408,
				"element": "H" 
			},
			{
				"x": 1.1775019125,
				"y": -8.1237709191,
				"z": -0.1391329394,
				"element": "H" 
			},
			{
				"x": 1.4342864662,
				"y": -7.9238956138,
				"z": 1.6043802778,
				"element": "H" 
			},
			{
				"x": -1.1513022188,
				"y": -7.1662904038,
				"z": 0.098484694,
				"element": "H" 
			},
			{
				"x": -0.8956514294,
				"y": -6.9675100076,
				"z": 1.8337033034,
				"element": "H" 
			},
			{
				"x": 1.1135252264,
				"y": -3.389672211,
				"z": 1.105005997,
				"element": "H" 
			},
			{
				"x": 0.8465535445,
				"y": -3.5760945957,
				"z": -0.5978145775,
				"element": "H" 
			},
			{
				"x": -2.5140595356,
				"y": -2.5432887117,
				"z": 0.6965863589,
				"element": "H" 
			},
			{
				"x": -0.4901556891,
				"y": 2.1173644907,
				"z": -0.3051945988,
				"element": "H" 
			},
			{
				"x": 3.5897044345,
				"y": 2.9962802411,
				"z": -0.4129184581,
				"element": "H" 
			},
			{
				"x": 2.8912850276,
				"y": 4.3822262265,
				"z": -1.3149954318,
				"element": "H" 
			}
		],
		 "valence_orbital": [ 
			{
				"type": "occ",
				"energy": -0.30532,
				"method": "rhf"
			},
			{
				"type": "occ",
				"energy": -0.28272,
				"method": "rhf"
			},
			{
				"type": "occ",
				"energy": -0.27839,
				"method": "rhf"
			},
			{
				"type": "occ",
				"energy": -0.27253,
				"method": "rhf"
			},
			{
				"type": "occ",
				"energy": -0.22542,
				"method": "rhf"
			},
			{
				"type": "unocc",
				"energy": -0.02572,
				"method": "rhf"
			},
			{
				"type": "unocc",
				"energy": -0.00155,
				"method": "rhf"
			},
			{
				"type": "unocc",
				"energy": 0.007,
				"method": "rhf"
			},
			{
				"type": "unocc",
				"energy": 0.0313,
				"method": "rhf"
			},
			{
				"type": "unocc",
				"energy": 0.06527,
				"method": "rhf"
			}
		],
		"cosmo_sigma_profile": { 
			"-0.025": 0.0,
			"-0.024": 0.0,
			"-0.023": 0.0,
			"-0.022": 0.0,
			"-0.021": 0.0,
			"-0.02": 0.0,
			"-0.019": 0.0,
			"-0.018": 0.136295152449,
			"-0.017": 0.941895623848,
			"-0.016": 1.36721422418,
			"-0.015": 0.874813722981,
			"-0.014": 0.906286857714,
			"-0.013": 1.02695812703,
			"-0.012": 0.864127430241,
			"-0.011": 1.08504569002,
			"-0.01": 1.69273976242,
			"-0.009": 3.60704347286,
			"-0.008": 5.86318408385,
			"-0.007": 10.0111940163,
			"-0.006": 11.1859594454,
			"-0.005": 16.1167245638,
			"-0.004": 22.9342928038,
			"-0.003": 24.5734907944,
			"-0.002": 22.6414358109,
			"-0.001": 22.0779340164,
			"0.0": 25.1736809253,
			"0.001": 23.1382947975,
			"0.002": 39.9310941007,
			"0.003": 34.4231683738,
			"0.004": 10.4561254454,
			"0.005": 6.37314597961,
			"0.006": 4.85161736943,
			"0.007": 4.81906651203,
			"0.008": 4.1967117638,
			"0.009": 4.25397255514,
			"0.01": 5.11743005817,
			"0.011": 5.59473068379,
			"0.012": 2.64462518328,
			"0.013": 2.08874302507,
			"0.014": 1.03490136613,
			"0.015": 1.27956033024,
			"0.016": 1.04772640815,
			"0.017": 0.652712322134,
			"0.018": 0.000939470739843,
			"0.019": 0.0,
			"0.02": 0.0,
			"0.021": 0.0,
			"0.022": 0.0,
			"0.023": 0.0,
			"0.024": 0.0,
			"0.025": 0.0
		}
	}
}
