{
	 "smiles": "COC1=C(OC)C=C(N)C(C)=C1", 
	 "Tm": 313.15, 
	 "num_atms": 25, 
	 "gaussian": { 
		 "optdone": 1, 
		 "sigma_profile": "yes", 
		 "theory": "DFT", 
		 "functional": "B3LYP", 
		 "basiset": "6-31G**", 
		 "properties": { 
			 "R2extent": 2548.4279, 
			 "electric_dipole_moment_norm": 1.69492932596, 
			 "electric_quadrupole_moment_norm": 11.9974145219, 
			 "total_energy": -555.966477156, 
			 "HOMO_LUMO_gap": 0.19319, 
			 "cosmo_polarized_energy": -11.33, 
			 "cosmo_cavitation_energy": 27.71, 
			 "cosmo_dispersion_energy": -20.25, 
			 "cosmo_repulsion_energy": 1.63, 
			 "cosmo_total_nonelectrostatic_energy": 9.08, 
			 "SMD_solvation_energy": 6.22 
		},
		"coords": [
			{
				"x": 1.1532086317,
				"y": 1.5861998481,
				"z": -2.7945079094,
				"element": "C" 
			},
			{
				"x": 1.438961868,
				"y": 0.2969604184,
				"z": -2.2857378094,
				"element": "O" 
			},
			{
				"x": 0.6996944379,
				"y": -0.1491277847,
				"z": -1.2168328807,
				"element": "C" 
			},
			{
				"x": 0.9784928042,
				"y": -1.4527224726,
				"z": -0.7586588364,
				"element": "C" 
			},
			{
				"x": 1.909944054,
				"y": -2.2573606347,
				"z": -1.3725618227,
				"element": "O" 
			},
			{
				"x": 3.2694685365,
				"y": -1.8361286536,
				"z": -1.2519424985,
				"element": "C" 
			},
			{
				"x": 0.2482144892,
				"y": -1.9803217085,
				"z": 0.3006035811,
				"element": "C" 
			},
			{
				"x": -0.7650149747,
				"y": -1.2461897388,
				"z": 0.9350227853,
				"element": "C" 
			},
			{
				"x": -1.446519004,
				"y": -1.7859444668,
				"z": 2.0409127536,
				"element": "N" 
			},
			{
				"x": -1.0366281516,
				"y": 0.0630367755,
				"z": 0.4966202515,
				"element": "C" 
			},
			{
				"x": -2.1017381264,
				"y": 0.8884963653,
				"z": 1.1754720616,
				"element": "C" 
			},
			{
				"x": -0.2989430297,
				"y": 0.5850353545,
				"z": -0.5750564823,
				"element": "C" 
			},
			{
				"x": 1.8274755869,
				"y": 1.7351024676,
				"z": -3.6399105251,
				"element": "H" 
			},
			{
				"x": 1.3346630922,
				"y": 2.3714568573,
				"z": -2.0478111071,
				"element": "H" 
			},
			{
				"x": 0.1151412033,
				"y": 1.6638179877,
				"z": -3.1448372443,
				"element": "H" 
			},
			{
				"x": 3.8702683955,
				"y": -2.6019312762,
				"z": -1.7479115186,
				"element": "H" 
			},
			{
				"x": 3.5682228713,
				"y": -1.7722940404,
				"z": -0.1969952123,
				"element": "H" 
			},
			{
				"x": 3.4362525268,
				"y": -0.8698320452,
				"z": -1.7366942911,
				"element": "H" 
			},
			{
				"x": 0.483331249,
				"y": -2.9919234976,
				"z": 0.6198107453,
				"element": "H" 
			},
			{
				"x": -2.406358826,
				"y": -1.4782490011,
				"z": 2.1298294458,
				"element": "H" 
			},
			{
				"x": -1.3920430675,
				"y": -2.7948048414,
				"z": 2.0961007287,
				"element": "H" 
			},
			{
				"x": -2.1407973999,
				"y": 1.9004428721,
				"z": 0.7639886263,
				"element": "H" 
			},
			{
				"x": -3.1044493421,
				"y": 0.4529093141,
				"z": 1.0537086339,
				"element": "H" 
			},
			{
				"x": -1.9189625354,
				"y": 0.9696310012,
				"z": 2.2542281369,
				"element": "H" 
			},
			{
				"x": -0.527385289,
				"y": 1.5915408998,
				"z": -0.9082396119,
				"element": "H" 
			}
		],
		 "valence_orbital": [ 
			{
				"type": "occ",
				"energy": -0.31492,
				"method": "rhf"
			},
			{
				"type": "occ",
				"energy": -0.26992,
				"method": "rhf"
			},
			{
				"type": "occ",
				"energy": -0.26142,
				"method": "rhf"
			},
			{
				"type": "occ",
				"energy": -0.22236,
				"method": "rhf"
			},
			{
				"type": "occ",
				"energy": -0.1788,
				"method": "rhf"
			},
			{
				"type": "unocc",
				"energy": 0.01439,
				"method": "rhf"
			},
			{
				"type": "unocc",
				"energy": 0.03398,
				"method": "rhf"
			},
			{
				"type": "unocc",
				"energy": 0.07977,
				"method": "rhf"
			},
			{
				"type": "unocc",
				"energy": 0.09746,
				"method": "rhf"
			},
			{
				"type": "unocc",
				"energy": 0.10469,
				"method": "rhf"
			}
		],
		"cosmo_sigma_profile": { 
			"-0.025": 0.0,
			"-0.024": 0.0,
			"-0.023": 0.0,
			"-0.022": 0.0,
			"-0.021": 0.0,
			"-0.02": 0.0,
			"-0.019": 0.0,
			"-0.018": 0.0,
			"-0.017": 0.0,
			"-0.016": 0.0,
			"-0.015": 0.0,
			"-0.014": 0.0,
			"-0.013": 0.0020837953991,
			"-0.012": 0.791173876177,
			"-0.011": 2.22134915612,
			"-0.01": 2.52562021829,
			"-0.009": 3.28937926016,
			"-0.008": 3.11760125553,
			"-0.007": 2.78631470826,
			"-0.006": 6.19554490275,
			"-0.005": 14.8602426838,
			"-0.004": 20.7868942404,
			"-0.003": 23.2668968474,
			"-0.002": 21.8021345171,
			"-0.001": 14.850588493,
			"0.0": 15.1694530886,
			"0.001": 11.3512585551,
			"0.002": 8.5497946082,
			"0.003": 9.22383093922,
			"0.004": 10.4682976759,
			"0.005": 11.7230159332,
			"0.006": 11.1722297441,
			"0.007": 5.54970635051,
			"0.008": 3.23481417018,
			"0.009": 2.78981178756,
			"0.01": 3.53922732755,
			"0.011": 2.64905834462,
			"0.012": 3.45035016645,
			"0.013": 1.13344326497,
			"0.014": 0.45885621398,
			"0.015": 0.575943571914,
			"0.016": 0.313845537552,
			"0.017": 0.0,
			"0.018": 0.0,
			"0.019": 0.0,
			"0.02": 0.0,
			"0.021": 0.0,
			"0.022": 0.0,
			"0.023": 0.0,
			"0.024": 0.0,
			"0.025": 0.0
		}
	}
}
