{
	 "smiles": "COC(=O)CC[C@H](C)[C@H]1CCC2C3CC[C@@H]4CC(=O)CC[C@]4(C)C3CC[C@]12C", 
	 "Tm": 390.15, 
	 "num_atms": 68, 
	 "gaussian": { 
		 "optdone": 1, 
		 "sigma_profile": "yes", 
		 "theory": "DFT", 
		 "functional": "B3LYP", 
		 "basiset": "6-31G**", 
		 "properties": { 
			 "R2extent": 15241.536, 
			 "electric_dipole_moment_norm": 2.93755229741, 
			 "electric_quadrupole_moment_norm": 35.054180894, 
			 "total_energy": -1202.4687382, 
			 "HOMO_LUMO_gap": 0.22342, 
			 "cosmo_polarized_energy": -13.62, 
			 "cosmo_cavitation_energy": 57.53, 
			 "cosmo_dispersion_energy": -39.4, 
			 "cosmo_repulsion_energy": 2.89, 
			 "cosmo_total_nonelectrostatic_energy": 21.02, 
			 "SMD_solvation_energy": 9.76 
		},
		"coords": [
			{
				"x": 6.2765895637,
				"y": -2.2020756956,
				"z": -3.6352217081,
				"element": "C" 
			},
			{
				"x": 5.0881636158,
				"y": -2.0404221145,
				"z": -2.8432210624,
				"element": "O" 
			},
			{
				"x": 3.9264693091,
				"y": -2.304507006,
				"z": -3.4848933777,
				"element": "C" 
			},
			{
				"x": 3.872515272,
				"y": -2.637786206,
				"z": -4.6499969999,
				"element": "O" 
			},
			{
				"x": 2.7372030897,
				"y": -2.1757303109,
				"z": -2.551068369,
				"element": "C" 
			},
			{
				"x": 1.4660966766,
				"y": -1.6467008947,
				"z": -3.2422664095,
				"element": "C" 
			},
			{
				"x": 1.3452601454,
				"y": -0.1068235272,
				"z": -3.3683301366,
				"element": "C" 
			},
			{
				"x": 2.532037862,
				"y": 0.4635620871,
				"z": -4.1702082536,
				"element": "C" 
			},
			{
				"x": 1.164329637,
				"y": 0.635907458,
				"z": -2.0183053904,
				"element": "C" 
			},
			{
				"x": 1.2036578313,
				"y": 2.1747217541,
				"z": -2.1392516337,
				"element": "C" 
			},
			{
				"x": 0.7736439146,
				"y": 2.6448623901,
				"z": -0.7493145916,
				"element": "C" 
			},
			{
				"x": -0.4047962301,
				"y": 1.717722316,
				"z": -0.3954637486,
				"element": "C" 
			},
			{
				"x": -0.7608324511,
				"y": 1.6054539731,
				"z": 1.1151016349,
				"element": "C" 
			},
			{
				"x": 0.3880136035,
				"y": 1.546528793,
				"z": 2.1407275649,
				"element": "C" 
			},
			{
				"x": -0.1882073954,
				"y": 1.6870908618,
				"z": 3.5557221237,
				"element": "C" 
			},
			{
				"x": -1.2582418887,
				"y": 0.6355672519,
				"z": 3.9239966427,
				"element": "C" 
			},
			{
				"x": -0.6519408507,
				"y": -0.6784185124,
				"z": 4.4541091353,
				"element": "C" 
			},
			{
				"x": -1.7173742176,
				"y": -1.6119423933,
				"z": 5.0265909429,
				"element": "C" 
			},
			{
				"x": -1.4468851466,
				"y": -2.5058059787,
				"z": 5.805100771,
				"element": "O" 
			},
			{
				"x": -3.1351023026,
				"y": -1.3372833921,
				"z": 4.5419619907,
				"element": "C" 
			},
			{
				"x": -3.1264606546,
				"y": -0.9061346427,
				"z": 3.0657697495,
				"element": "C" 
			},
			{
				"x": -2.340542453,
				"y": 0.4199867915,
				"z": 2.8007375966,
				"element": "C" 
			},
			{
				"x": -3.3588674717,
				"y": 1.5812189146,
				"z": 2.9106105412,
				"element": "C" 
			},
			{
				"x": -1.7318347051,
				"y": 0.4216715102,
				"z": 1.3469724277,
				"element": "C" 
			},
			{
				"x": -1.0784896152,
				"y": -0.9193012009,
				"z": 0.8868500114,
				"element": "C" 
			},
			{
				"x": 0.064716645,
				"y": -0.7736847169,
				"z": -0.1427311396,
				"element": "C" 
			},
			{
				"x": -0.1422970972,
				"y": 0.3583591834,
				"z": -1.1676359787,
				"element": "C" 
			},
			{
				"x": -1.3598429678,
				"y": 0.0494655989,
				"z": -2.0648620198,
				"element": "C" 
			},
			{
				"x": 7.1072665294,
				"y": -1.9520140347,
				"z": -2.9752119904,
				"element": "H" 
			},
			{
				"x": 6.2574138525,
				"y": -1.5330158157,
				"z": -4.4991068633,
				"element": "H" 
			},
			{
				"x": 6.3660785891,
				"y": -3.2315637834,
				"z": -3.9913254859,
				"element": "H" 
			},
			{
				"x": 3.0256355842,
				"y": -1.5828692427,
				"z": -1.67969039,
				"element": "H" 
			},
			{
				"x": 2.5466751445,
				"y": -3.1918837819,
				"z": -2.1804471444,
				"element": "H" 
			},
			{
				"x": 0.5959804616,
				"y": -2.038784569,
				"z": -2.7096907705,
				"element": "H" 
			},
			{
				"x": 1.4341831937,
				"y": -2.0839299143,
				"z": -4.2464265307,
				"element": "H" 
			},
			{
				"x": 0.4446796906,
				"y": 0.075346471,
				"z": -3.9698224988,
				"element": "H" 
			},
			{
				"x": 2.6998247284,
				"y": -0.1207610881,
				"z": -5.0795900789,
				"element": "H" 
			},
			{
				"x": 3.4609940301,
				"y": 0.4428741016,
				"z": -3.5868909218,
				"element": "H" 
			},
			{
				"x": 2.3573920334,
				"y": 1.501200426,
				"z": -4.4662802586,
				"element": "H" 
			},
			{
				"x": 2.0171212306,
				"y": 0.3640499767,
				"z": -1.377119997,
				"element": "H" 
			},
			{
				"x": 2.1880820954,
				"y": 2.5548569264,
				"z": -2.4257410002,
				"element": "H" 
			},
			{
				"x": 0.4888321733,
				"y": 2.5161184642,
				"z": -2.901584324,
				"element": "H" 
			},
			{
				"x": 0.5004224226,
				"y": 3.7051037634,
				"z": -0.7074202195,
				"element": "H" 
			},
			{
				"x": 1.6108177209,
				"y": 2.5018607638,
				"z": -0.0563067435,
				"element": "H" 
			},
			{
				"x": -1.2975920553,
				"y": 2.1597701645,
				"z": -0.8586143033,
				"element": "H" 
			},
			{
				"x": -1.3024571424,
				"y": 2.5332517287,
				"z": 1.3458874337,
				"element": "H" 
			},
			{
				"x": 1.1014582181,
				"y": 2.360089508,
				"z": 1.9729936462,
				"element": "H" 
			},
			{
				"x": 0.9591081494,
				"y": 0.615174047,
				"z": 2.0558882892,
				"element": "H" 
			},
			{
				"x": -0.6319472099,
				"y": 2.6875378605,
				"z": 3.6414001758,
				"element": "H" 
			},
			{
				"x": 0.6162463054,
				"y": 1.6523270683,
				"z": 4.3009298502,
				"element": "H" 
			},
			{
				"x": -1.8003978173,
				"y": 1.0585000375,
				"z": 4.7814811733,
				"element": "H" 
			},
			{
				"x": 0.0774061487,
				"y": -0.4831887565,
				"z": 5.2482648059,
				"element": "H" 
			},
			{
				"x": -0.105951887,
				"y": -1.2286755479,
				"z": 3.6774650932,
				"element": "H" 
			},
			{
				"x": -3.7379107633,
				"y": -2.2346140512,
				"z": 4.7067873111,
				"element": "H" 
			},
			{
				"x": -3.5619574491,
				"y": -0.5465902748,
				"z": 5.1760096428,
				"element": "H" 
			},
			{
				"x": -2.699148217,
				"y": -1.7316248713,
				"z": 2.4915063103,
				"element": "H" 
			},
			{
				"x": -4.1559560992,
				"y": -0.7954583471,
				"z": 2.7060069686,
				"element": "H" 
			},
			{
				"x": -3.9039944458,
				"y": 1.5263581336,
				"z": 3.8598683007,
				"element": "H" 
			},
			{
				"x": -4.0973255303,
				"y": 1.5318160557,
				"z": 2.1028145594,
				"element": "H" 
			},
			{
				"x": -2.8847272643,
				"y": 2.5657298778,
				"z": 2.8679440306,
				"element": "H" 
			},
			{
				"x": -2.5879457642,
				"y": 0.5907474311,
				"z": 0.6790003122,
				"element": "H" 
			},
			{
				"x": -1.8595363217,
				"y": -1.558738513,
				"z": 0.4615669555,
				"element": "H" 
			},
			{
				"x": -0.6801942256,
				"y": -1.4783069925,
				"z": 1.7382615561,
				"element": "H" 
			},
			{
				"x": 1.0084839002,
				"y": -0.5891941756,
				"z": 0.3824951465,
				"element": "H" 
			},
			{
				"x": 0.1950361945,
				"y": -1.7359668928,
				"z": -0.6504708439,
				"element": "H" 
			},
			{
				"x": -1.5033721806,
				"y": 0.8277280776,
				"z": -2.8224031074,
				"element": "H" 
			},
			{
				"x": -1.2639749248,
				"y": -0.9085963242,
				"z": -2.585070741,
				"element": "H" 
			},
			{
				"x": -2.2802308177,
				"y": 0.0072338015,
				"z": -1.4741376614,
				"element": "H" 
			}
		],
		 "valence_orbital": [ 
			{
				"type": "occ",
				"energy": -0.28298,
				"method": "rhf"
			},
			{
				"type": "occ",
				"energy": -0.27832,
				"method": "rhf"
			},
			{
				"type": "occ",
				"energy": -0.27324,
				"method": "rhf"
			},
			{
				"type": "occ",
				"energy": -0.2688,
				"method": "rhf"
			},
			{
				"type": "occ",
				"energy": -0.23282,
				"method": "rhf"
			},
			{
				"type": "unocc",
				"energy": -0.0094,
				"method": "rhf"
			},
			{
				"type": "unocc",
				"energy": 0.01353,
				"method": "rhf"
			},
			{
				"type": "unocc",
				"energy": 0.05709,
				"method": "rhf"
			},
			{
				"type": "unocc",
				"energy": 0.07132,
				"method": "rhf"
			},
			{
				"type": "unocc",
				"energy": 0.07754,
				"method": "rhf"
			}
		],
		"cosmo_sigma_profile": { 
			"-0.025": 0.0,
			"-0.024": 0.0,
			"-0.023": 0.0,
			"-0.022": 0.0,
			"-0.021": 0.0,
			"-0.02": 0.0,
			"-0.019": 0.0,
			"-0.018": 0.0,
			"-0.017": 0.0,
			"-0.016": 0.0,
			"-0.015": 0.0,
			"-0.014": 0.0,
			"-0.013": 0.0,
			"-0.012": 0.0,
			"-0.011": 0.0,
			"-0.01": 0.0,
			"-0.009": 0.0,
			"-0.008": 0.0,
			"-0.007": 0.534339409163,
			"-0.006": 7.85216608535,
			"-0.005": 16.8268616194,
			"-0.004": 23.4019385953,
			"-0.003": 40.3364055876,
			"-0.002": 67.6095508908,
			"-0.001": 84.432224788,
			"0.0": 70.8909533755,
			"0.001": 47.2889863807,
			"0.002": 25.085174687,
			"0.003": 6.4278791967,
			"0.004": 4.67532061382,
			"0.005": 5.12822841266,
			"0.006": 4.21070972305,
			"0.007": 4.42899095534,
			"0.008": 4.38965711122,
			"0.009": 3.97673857109,
			"0.01": 3.5378873129,
			"0.011": 4.91054574381,
			"0.012": 8.13420189337,
			"0.013": 5.72391755948,
			"0.014": 1.44796878979,
			"0.015": 0.0,
			"0.016": 0.0,
			"0.017": 0.0,
			"0.018": 0.0,
			"0.019": 0.0,
			"0.02": 0.0,
			"0.021": 0.0,
			"0.022": 0.0,
			"0.023": 0.0,
			"0.024": 0.0,
			"0.025": 0.0
		}
	}
}
