{
	 "smiles": "NC1=CC=CC=C1C#N", 
	 "Tm": 322.15, 
	 "num_atms": 15, 
	 "gaussian": { 
		 "optdone": 1, 
		 "sigma_profile": "yes", 
		 "theory": "DFT", 
		 "functional": "B3LYP", 
		 "basiset": "6-31G**", 
		 "properties": { 
			 "R2extent": 1247.0716, 
			 "electric_dipole_moment_norm": 4.17369415985, 
			 "electric_quadrupole_moment_norm": 15.4311308422, 
			 "total_energy": -379.854281307, 
			 "HOMO_LUMO_gap": 0.17865, 
			 "cosmo_polarized_energy": -11.23, 
			 "cosmo_cavitation_energy": 19.94, 
			 "cosmo_dispersion_energy": -14.44, 
			 "cosmo_repulsion_energy": 1.19, 
			 "cosmo_total_nonelectrostatic_energy": 6.69, 
			 "SMD_solvation_energy": 4.68 
		},
		"coords": [
			{
				"x": -2.0963530008,
				"y": 1.4385346845,
				"z": -0.5798775286,
				"element": "N" 
			},
			{
				"x": -1.2200059389,
				"y": 0.3799449907,
				"z": -0.5052122691,
				"element": "C" 
			},
			{
				"x": -1.6210802186,
				"y": -0.8618956034,
				"z": 0.0240380186,
				"element": "C" 
			},
			{
				"x": -0.7179841121,
				"y": -1.9101269035,
				"z": 0.1421750542,
				"element": "C" 
			},
			{
				"x": 0.6167844942,
				"y": -1.7661109401,
				"z": -0.259793446,
				"element": "C" 
			},
			{
				"x": 1.0334374849,
				"y": -0.5520764465,
				"z": -0.7875412077,
				"element": "C" 
			},
			{
				"x": 0.1323656813,
				"y": 0.5195853077,
				"z": -0.918094245,
				"element": "C" 
			},
			{
				"x": 0.5536420009,
				"y": 1.7637476659,
				"z": -1.479079238,
				"element": "C" 
			},
			{
				"x": 0.8391019009,
				"y": 2.7960778398,
				"z": -1.9382864732,
				"element": "N" 
			},
			{
				"x": -3.0825993306,
				"y": 1.2316401989,
				"z": -0.5580923494,
				"element": "H" 
			},
			{
				"x": -1.8355637761,
				"y": 2.227405304,
				"z": -1.1542004643,
				"element": "H" 
			},
			{
				"x": -2.6507685911,
				"y": -0.9883138547,
				"z": 0.347430569,
				"element": "H" 
			},
			{
				"x": -1.0587055419,
				"y": -2.8556680339,
				"z": 0.5544910235,
				"element": "H" 
			},
			{
				"x": 1.3151169964,
				"y": -2.5901634706,
				"z": -0.1624207607,
				"element": "H" 
			},
			{
				"x": 2.0590119516,
				"y": -0.4106807391,
				"z": -1.1128366833,
				"element": "H" 
			}
		],
		 "valence_orbital": [ 
			{
				"type": "occ",
				"energy": -0.34692,
				"method": "rhf"
			},
			{
				"type": "occ",
				"energy": -0.32871,
				"method": "rhf"
			},
			{
				"type": "occ",
				"energy": -0.327,
				"method": "rhf"
			},
			{
				"type": "occ",
				"energy": -0.26131,
				"method": "rhf"
			},
			{
				"type": "occ",
				"energy": -0.21949,
				"method": "rhf"
			},
			{
				"type": "unocc",
				"energy": -0.04084,
				"method": "rhf"
			},
			{
				"type": "unocc",
				"energy": -0.00212,
				"method": "rhf"
			},
			{
				"type": "unocc",
				"energy": 0.03456,
				"method": "rhf"
			},
			{
				"type": "unocc",
				"energy": 0.07356,
				"method": "rhf"
			},
			{
				"type": "unocc",
				"energy": 0.08348,
				"method": "rhf"
			}
		],
		"cosmo_sigma_profile": { 
			"-0.025": 0.0,
			"-0.024": 0.0,
			"-0.023": 0.0,
			"-0.022": 0.0,
			"-0.021": 0.0,
			"-0.02": 0.0,
			"-0.019": 0.0,
			"-0.018": 0.0,
			"-0.017": 0.0,
			"-0.016": 0.0,
			"-0.015": 0.0189654385376,
			"-0.014": 0.912400047611,
			"-0.013": 1.3776512978,
			"-0.012": 2.48963991579,
			"-0.011": 2.31407299128,
			"-0.01": 2.50999802445,
			"-0.009": 2.6017796047,
			"-0.008": 2.40311227935,
			"-0.007": 6.35942315388,
			"-0.006": 9.06562209175,
			"-0.005": 10.4785048203,
			"-0.004": 10.4120882038,
			"-0.003": 6.83266968615,
			"-0.002": 8.28713021543,
			"-0.001": 7.39906958796,
			"0.0": 10.661361547,
			"0.001": 9.61451696894,
			"0.002": 10.2269414657,
			"0.003": 12.7772863336,
			"0.004": 11.4806130874,
			"0.005": 7.05633426617,
			"0.006": 3.4152822297,
			"0.007": 2.53870886974,
			"0.008": 3.24667407176,
			"0.009": 4.13776225469,
			"0.01": 3.56639405506,
			"0.011": 3.23293382513,
			"0.012": 2.6311334356,
			"0.013": 2.14272253246,
			"0.014": 0.381623752337,
			"0.015": 0.0,
			"0.016": 0.0,
			"0.017": 0.0,
			"0.018": 0.0,
			"0.019": 0.0,
			"0.02": 0.0,
			"0.021": 0.0,
			"0.022": 0.0,
			"0.023": 0.0,
			"0.024": 0.0,
			"0.025": 0.0
		}
	}
}
