{
	 "smiles": "CC(=O)NC1=CC(NC(=O)C2CCNCC2)=CC=C1", 
	 "Tm": 473.15, 
	 "num_atms": 38, 
	 "gaussian": { 
		 "optdone": 1, 
		 "sigma_profile": "yes", 
		 "theory": "DFT", 
		 "functional": "B3LYP", 
		 "basiset": "6-31G**", 
		 "properties": { 
			 "R2extent": 7406.9129, 
			 "electric_dipole_moment_norm": 6.8096346319, 
			 "electric_quadrupole_moment_norm": 15.9472743963, 
			 "total_energy": -859.671643453, 
			 "HOMO_LUMO_gap": 0.19029, 
			 "cosmo_polarized_energy": -22.13, 
			 "cosmo_cavitation_energy": 40.02, 
			 "cosmo_dispersion_energy": -28.48, 
			 "cosmo_repulsion_energy": 2.2, 
			 "cosmo_total_nonelectrostatic_energy": 13.73, 
			 "SMD_solvation_energy": 4.86 
		},
		"coords": [
			{
				"x": 0.4843395943,
				"y": -2.0506577173,
				"z": 3.1877442624,
				"element": "C" 
			},
			{
				"x": -0.7109862906,
				"y": -1.5630376706,
				"z": 3.9806435814,
				"element": "C" 
			},
			{
				"x": -0.7311856223,
				"y": -1.5841880035,
				"z": 5.2031936959,
				"element": "O" 
			},
			{
				"x": -1.8318493206,
				"y": -1.1001240966,
				"z": 3.3032082913,
				"element": "N" 
			},
			{
				"x": -2.1376897115,
				"y": -0.9651288215,
				"z": 1.934251617,
				"element": "C" 
			},
			{
				"x": -1.1698056357,
				"y": -0.6020375382,
				"z": 0.9885456856,
				"element": "C" 
			},
			{
				"x": -1.5315455672,
				"y": -0.4719385754,
				"z": -0.3589410629,
				"element": "C" 
			},
			{
				"x": -0.6015278232,
				"y": -0.1201057227,
				"z": -1.3595959756,
				"element": "N" 
			},
			{
				"x": 0.7600797854,
				"y": 0.0772421037,
				"z": -1.2578681044,
				"element": "C" 
			},
			{
				"x": 1.390496014,
				"y": -0.0489165993,
				"z": -0.2148372584,
				"element": "O" 
			},
			{
				"x": 1.4193355314,
				"y": 0.5254553903,
				"z": -2.5656658029,
				"element": "C" 
			},
			{
				"x": 2.9216425918,
				"y": 0.1403841521,
				"z": -2.6052498389,
				"element": "C" 
			},
			{
				"x": 3.8061084753,
				"y": 1.3398271751,
				"z": -2.2357247408,
				"element": "C" 
			},
			{
				"x": 3.6265438018,
				"y": 2.5054771602,
				"z": -3.1191869638,
				"element": "N" 
			},
			{
				"x": 2.2775091211,
				"y": 2.6344943836,
				"z": -3.6910380528,
				"element": "C" 
			},
			{
				"x": 1.238681227,
				"y": 2.0649295868,
				"z": -2.7232805132,
				"element": "C" 
			},
			{
				"x": -2.8637976931,
				"y": -0.6670237845,
				"z": -0.7542538298,
				"element": "C" 
			},
			{
				"x": -3.8226564764,
				"y": -0.9943223452,
				"z": 0.2002226685,
				"element": "C" 
			},
			{
				"x": -3.4717199544,
				"y": -1.1527914021,
				"z": 1.5377033861,
				"element": "C" 
			},
			{
				"x": 1.1288484511,
				"y": -1.2132331547,
				"z": 2.9013532291,
				"element": "H" 
			},
			{
				"x": 0.2006464191,
				"y": -2.5778329498,
				"z": 2.2741422594,
				"element": "H" 
			},
			{
				"x": 1.0552835638,
				"y": -2.710010241,
				"z": 3.8422001135,
				"element": "H" 
			},
			{
				"x": -2.5918104007,
				"y": -0.9234339055,
				"z": 3.9490599176,
				"element": "H" 
			},
			{
				"x": -0.1506998907,
				"y": -0.3985226471,
				"z": 1.2719217778,
				"element": "H" 
			},
			{
				"x": -0.9953213803,
				"y": -0.00788003,
				"z": -2.2828149863,
				"element": "H" 
			},
			{
				"x": 0.9053692456,
				"y": 0.036577103,
				"z": -3.4045179481,
				"element": "H" 
			},
			{
				"x": 3.1115366868,
				"y": -0.6872430807,
				"z": -1.9160785376,
				"element": "H" 
			},
			{
				"x": 3.1781482152,
				"y": -0.2036036448,
				"z": -3.6144130202,
				"element": "H" 
			},
			{
				"x": 4.8631701129,
				"y": 1.0561400211,
				"z": -2.2555072312,
				"element": "H" 
			},
			{
				"x": 3.5839745583,
				"y": 1.6257594857,
				"z": -1.2004003151,
				"element": "H" 
			},
			{
				"x": 4.3082276819,
				"y": 2.4750967578,
				"z": -3.8695650248,
				"element": "H" 
			},
			{
				"x": 2.0657464479,
				"y": 3.6946524863,
				"z": -3.8815648638,
				"element": "H" 
			},
			{
				"x": 2.1675700869,
				"y": 2.1142933785,
				"z": -4.6605756739,
				"element": "H" 
			},
			{
				"x": 1.3584700751,
				"y": 2.5542003591,
				"z": -1.7498613881,
				"element": "H" 
			},
			{
				"x": 0.2281518209,
				"y": 2.2987638444,
				"z": -3.0745528132,
				"element": "H" 
			},
			{
				"x": -3.1450471957,
				"y": -0.5574845223,
				"z": -1.7986032546,
				"element": "H" 
			},
			{
				"x": -4.8544528442,
				"y": -1.1403094031,
				"z": -0.1052523679,
				"element": "H" 
			},
			{
				"x": -4.2189837008,
				"y": -1.433267532,
				"z": 2.2742590828,
				"element": "H" 
			}
		],
		 "valence_orbital": [ 
			{
				"type": "occ",
				"energy": -0.2587,
				"method": "rhf"
			},
			{
				"type": "occ",
				"energy": -0.24669,
				"method": "rhf"
			},
			{
				"type": "occ",
				"energy": -0.23647,
				"method": "rhf"
			},
			{
				"type": "occ",
				"energy": -0.21816,
				"method": "rhf"
			},
			{
				"type": "occ",
				"energy": -0.21183,
				"method": "rhf"
			},
			{
				"type": "unocc",
				"energy": -0.02154,
				"method": "rhf"
			},
			{
				"type": "unocc",
				"energy": -0.01252,
				"method": "rhf"
			},
			{
				"type": "unocc",
				"energy": 0.02806,
				"method": "rhf"
			},
			{
				"type": "unocc",
				"energy": 0.04496,
				"method": "rhf"
			},
			{
				"type": "unocc",
				"energy": 0.05203,
				"method": "rhf"
			}
		],
		"cosmo_sigma_profile": { 
			"-0.025": 0.0,
			"-0.024": 0.0,
			"-0.023": 0.0,
			"-0.022": 0.0,
			"-0.021": 0.0,
			"-0.02": 0.0,
			"-0.019": 0.0,
			"-0.018": 0.0,
			"-0.017": 0.0,
			"-0.016": 0.308121626966,
			"-0.015": 1.08615384202,
			"-0.014": 1.83993000224,
			"-0.013": 2.51046734035,
			"-0.012": 2.32932714641,
			"-0.011": 2.61937888814,
			"-0.01": 3.45512276297,
			"-0.009": 4.32061948534,
			"-0.008": 3.86659131664,
			"-0.007": 5.87162175492,
			"-0.006": 10.2359169797,
			"-0.005": 15.1535941874,
			"-0.004": 19.8198138622,
			"-0.003": 28.2520215407,
			"-0.002": 35.0760350228,
			"-0.001": 32.8120822813,
			"0.0": 24.8894416534,
			"0.001": 16.3070778196,
			"0.002": 17.2187757514,
			"0.003": 16.1645974195,
			"0.004": 13.7318436567,
			"0.005": 12.0353384095,
			"0.006": 5.23876365629,
			"0.007": 4.36698948738,
			"0.008": 4.76578206179,
			"0.009": 2.6698227113,
			"0.01": 3.18029130943,
			"0.011": 4.7841852125,
			"0.012": 4.35393825875,
			"0.013": 7.171103067,
			"0.014": 4.47818300527,
			"0.015": 1.12388037992,
			"0.016": 0.76339926773,
			"0.017": 0.310823530403,
			"0.018": 0.508778345418,
			"0.019": 0.346909015129,
			"0.02": 0.0195662054394,
			"0.021": 0.0,
			"0.022": 0.0,
			"0.023": 0.0,
			"0.024": 0.0,
			"0.025": 0.0
		}
	}
}
