{
	 "smiles": "CCOC=CC(=O)C(F)(F)F", 
	 "Tm": 243.15, 
	 "num_atms": 18, 
	 "gaussian": { 
		 "optdone": 1, 
		 "sigma_profile": "yes", 
		 "theory": "DFT", 
		 "functional": "B3LYP", 
		 "basiset": "6-31G**", 
		 "properties": { 
			 "R2extent": 2390.8433, 
			 "electric_dipole_moment_norm": 5.78471915394, 
			 "electric_quadrupole_moment_norm": 4.68918482894, 
			 "total_energy": -682.79350493, 
			 "HOMO_LUMO_gap": 0.19199, 
			 "cosmo_polarized_energy": -9.7, 
			 "cosmo_cavitation_energy": 24.26, 
			 "cosmo_dispersion_energy": -16.81, 
			 "cosmo_repulsion_energy": 1.34, 
			 "cosmo_total_nonelectrostatic_energy": 8.8, 
			 "SMD_solvation_energy": 6.98 
		},
		"coords": [
			{
				"x": -2.6725651827,
				"y": -2.0965207269,
				"z": 0.2195789758,
				"element": "C" 
			},
			{
				"x": -1.323232199,
				"y": -2.6770022045,
				"z": 0.614617225,
				"element": "C" 
			},
			{
				"x": -0.5433241472,
				"y": -1.7282992886,
				"z": 1.3711945534,
				"element": "O" 
			},
			{
				"x": 0.1984462117,
				"y": -0.8594223631,
				"z": 0.6783208025,
				"element": "C" 
			},
			{
				"x": 0.8754127782,
				"y": 0.135522651,
				"z": 1.294275521,
				"element": "C" 
			},
			{
				"x": 1.7248710294,
				"y": 1.1033631273,
				"z": 0.6196093927,
				"element": "C" 
			},
			{
				"x": 2.3277422179,
				"y": 1.9943663861,
				"z": 1.193451135,
				"element": "O" 
			},
			{
				"x": 1.8757099028,
				"y": 1.0052529636,
				"z": -0.9257129365,
				"element": "C" 
			},
			{
				"x": 2.6777556023,
				"y": 1.9563900339,
				"z": -1.3977985222,
				"element": "F" 
			},
			{
				"x": 2.3844206744,
				"y": -0.1984624406,
				"z": -1.2882363729,
				"element": "F" 
			},
			{
				"x": 0.6708050757,
				"y": 1.1231135495,
				"z": -1.5383807442,
				"element": "F" 
			},
			{
				"x": -3.2681015919,
				"y": -2.8549535989,
				"z": -0.2987141568,
				"element": "H" 
			},
			{
				"x": -3.2240859398,
				"y": -1.7685457552,
				"z": 1.1048644901,
				"element": "H" 
			},
			{
				"x": -2.5543507993,
				"y": -1.2395512805,
				"z": -0.4508994534,
				"element": "H" 
			},
			{
				"x": -1.4394344742,
				"y": -3.536981608,
				"z": 1.2782482496,
				"element": "H" 
			},
			{
				"x": -0.7495199185,
				"y": -2.9985592539,
				"z": -0.2637616537,
				"element": "H" 
			},
			{
				"x": 0.2340052856,
				"y": -1.0121168779,
				"z": -0.3987119813,
				"element": "H" 
			},
			{
				"x": 0.8042454745,
				"y": 0.2485066866,
				"z": 2.3711554758,
				"element": "H" 
			}
		],
		 "valence_orbital": [ 
			{
				"type": "occ",
				"energy": -0.38361,
				"method": "rhf"
			},
			{
				"type": "occ",
				"energy": -0.37029,
				"method": "rhf"
			},
			{
				"type": "occ",
				"energy": -0.35722,
				"method": "rhf"
			},
			{
				"type": "occ",
				"energy": -0.26332,
				"method": "rhf"
			},
			{
				"type": "occ",
				"energy": -0.25352,
				"method": "rhf"
			},
			{
				"type": "unocc",
				"energy": -0.06153,
				"method": "rhf"
			},
			{
				"type": "unocc",
				"energy": 0.0444,
				"method": "rhf"
			},
			{
				"type": "unocc",
				"energy": 0.0682,
				"method": "rhf"
			},
			{
				"type": "unocc",
				"energy": 0.09695,
				"method": "rhf"
			},
			{
				"type": "unocc",
				"energy": 0.1153,
				"method": "rhf"
			}
		],
		"cosmo_sigma_profile": { 
			"-0.025": 0.0,
			"-0.024": 0.0,
			"-0.023": 0.0,
			"-0.022": 0.0,
			"-0.021": 0.0,
			"-0.02": 0.0,
			"-0.019": 0.0,
			"-0.018": 0.0,
			"-0.017": 0.0,
			"-0.016": 0.0,
			"-0.015": 0.0,
			"-0.014": 0.0,
			"-0.013": 0.0,
			"-0.012": 0.0,
			"-0.011": 0.0187562286393,
			"-0.01": 1.16129713767,
			"-0.009": 2.0486861094,
			"-0.008": 2.28765064968,
			"-0.007": 5.04971017271,
			"-0.006": 7.38979876092,
			"-0.005": 12.5947059531,
			"-0.004": 17.0854348695,
			"-0.003": 12.9879353113,
			"-0.002": 14.1604137381,
			"-0.001": 16.1812722424,
			"0.0": 16.2771591207,
			"0.001": 16.0274777655,
			"0.002": 30.3192191495,
			"0.003": 10.5443672553,
			"0.004": 3.8066869308,
			"0.005": 3.27454633791,
			"0.006": 2.18180475869,
			"0.007": 3.71315485922,
			"0.008": 2.43025221193,
			"0.009": 2.80739249399,
			"0.01": 3.03709821491,
			"0.011": 4.31637277605,
			"0.012": 3.03964848761,
			"0.013": 0.159564261535,
			"0.014": 0.0,
			"0.015": 0.0,
			"0.016": 0.0,
			"0.017": 0.0,
			"0.018": 0.0,
			"0.019": 0.0,
			"0.02": 0.0,
			"0.021": 0.0,
			"0.022": 0.0,
			"0.023": 0.0,
			"0.024": 0.0,
			"0.025": 0.0
		}
	}
}
