{
	 "smiles": "COC(=O)CC1C(=O)NC(C)=C1C(=O)OC", 
	 "Tm": 366.65, 
	 "num_atms": 29, 
	 "gaussian": { 
		 "optdone": 1, 
		 "sigma_profile": "yes", 
		 "theory": "DFT", 
		 "functional": "B3LYP", 
		 "basiset": "6-31G**", 
		 "properties": { 
			 "R2extent": 3858.5836, 
			 "electric_dipole_moment_norm": 1.42541483436, 
			 "electric_quadrupole_moment_norm": 19.9794538954, 
			 "total_energy": -819.801761268, 
			 "HOMO_LUMO_gap": 0.18589, 
			 "cosmo_polarized_energy": -17.97, 
			 "cosmo_cavitation_energy": 33.31, 
			 "cosmo_dispersion_energy": -22.99, 
			 "cosmo_repulsion_energy": 1.85, 
			 "cosmo_total_nonelectrostatic_energy": 12.18, 
			 "SMD_solvation_energy": 9.32 
		},
		"coords": [
			{
				"x": 3.0423631712,
				"y": -1.9176161059,
				"z": 0.0194905801,
				"element": "C" 
			},
			{
				"x": 1.7901283728,
				"y": -1.9353337107,
				"z": 0.7254643024,
				"element": "O" 
			},
			{
				"x": 1.0812942811,
				"y": -0.7880110181,
				"z": 0.6736207468,
				"element": "C" 
			},
			{
				"x": 1.4420802275,
				"y": 0.1954163099,
				"z": 0.061750149,
				"element": "O" 
			},
			{
				"x": -0.1837907925,
				"y": -0.899590094,
				"z": 1.499642536,
				"element": "C" 
			},
			{
				"x": -1.2017847952,
				"y": 0.2136671744,
				"z": 1.2094866415,
				"element": "C" 
			},
			{
				"x": -0.6277354392,
				"y": 1.5993589414,
				"z": 1.5482045643,
				"element": "C" 
			},
			{
				"x": -0.0702323303,
				"y": 1.9546496305,
				"z": 2.5655855461,
				"element": "O" 
			},
			{
				"x": -0.8983189423,
				"y": 2.3981823,
				"z": 0.4424917297,
				"element": "N" 
			},
			{
				"x": -1.479700601,
				"y": 1.6821057636,
				"z": -0.5978447753,
				"element": "C" 
			},
			{
				"x": -1.7832948191,
				"y": 2.3790547302,
				"z": -1.8812570976,
				"element": "C" 
			},
			{
				"x": -1.6902641551,
				"y": 0.390376328,
				"z": -0.2164791788,
				"element": "C" 
			},
			{
				"x": -2.3638471538,
				"y": -0.6193424851,
				"z": -1.0244345087,
				"element": "C" 
			},
			{
				"x": -2.7635846348,
				"y": -0.4979305676,
				"z": -2.1725947908,
				"element": "O" 
			},
			{
				"x": -2.5197554959,
				"y": -1.7827617583,
				"z": -0.3268516919,
				"element": "O" 
			},
			{
				"x": -3.1817328841,
				"y": -2.8353540309,
				"z": -1.0414185784,
				"element": "C" 
			},
			{
				"x": 2.8814801192,
				"y": -1.7252452548,
				"z": -1.0441847577,
				"element": "H" 
			},
			{
				"x": 3.4781052562,
				"y": -2.905456567,
				"z": 0.1682684091,
				"element": "H" 
			},
			{
				"x": 3.7001128443,
				"y": -1.1431962975,
				"z": 0.4220382201,
				"element": "H" 
			},
			{
				"x": 0.1112805647,
				"y": -0.8333524642,
				"z": 2.5542028161,
				"element": "H" 
			},
			{
				"x": -0.6327731913,
				"y": -1.8823002817,
				"z": 1.345862479,
				"element": "H" 
			},
			{
				"x": -2.0528193171,
				"y": 0.0483904276,
				"z": 1.884679506,
				"element": "H" 
			},
			{
				"x": -0.5459344199,
				"y": 3.3415281884,
				"z": 0.3646405141,
				"element": "H" 
			},
			{
				"x": -2.4167325279,
				"y": 3.2558852935,
				"z": -1.7016527206,
				"element": "H" 
			},
			{
				"x": -2.2853534687,
				"y": 1.6977933662,
				"z": -2.5655635998,
				"element": "H" 
			},
			{
				"x": -0.8538111216,
				"y": 2.7336365468,
				"z": -2.3434993322,
				"element": "H" 
			},
			{
				"x": -4.1906181159,
				"y": -2.5315798077,
				"z": -1.3324854136,
				"element": "H" 
			},
			{
				"x": -3.221376929,
				"y": -3.6796122732,
				"z": -0.3525612342,
				"element": "H" 
			},
			{
				"x": -2.6248837025,
				"y": -3.102662284,
				"z": -1.9433010608,
				"element": "H" 
			}
		],
		 "valence_orbital": [ 
			{
				"type": "occ",
				"energy": -0.29589,
				"method": "rhf"
			},
			{
				"type": "occ",
				"energy": -0.27638,
				"method": "rhf"
			},
			{
				"type": "occ",
				"energy": -0.27212,
				"method": "rhf"
			},
			{
				"type": "occ",
				"energy": -0.25298,
				"method": "rhf"
			},
			{
				"type": "occ",
				"energy": -0.22381,
				"method": "rhf"
			},
			{
				"type": "unocc",
				"energy": -0.03792,
				"method": "rhf"
			},
			{
				"type": "unocc",
				"energy": 0.0095,
				"method": "rhf"
			},
			{
				"type": "unocc",
				"energy": 0.02554,
				"method": "rhf"
			},
			{
				"type": "unocc",
				"energy": 0.08358,
				"method": "rhf"
			},
			{
				"type": "unocc",
				"energy": 0.09045,
				"method": "rhf"
			}
		],
		"cosmo_sigma_profile": { 
			"-0.025": 0.0,
			"-0.024": 0.0,
			"-0.023": 0.0,
			"-0.022": 0.0,
			"-0.021": 0.0,
			"-0.02": 0.0,
			"-0.019": 0.0,
			"-0.018": 0.0,
			"-0.017": 0.0872083664586,
			"-0.016": 0.913072878004,
			"-0.015": 1.26911726816,
			"-0.014": 1.22099973983,
			"-0.013": 0.76648882129,
			"-0.012": 1.08459430437,
			"-0.011": 1.11758404117,
			"-0.01": 1.40035816718,
			"-0.009": 0.991878434735,
			"-0.008": 1.79476708219,
			"-0.007": 6.33315920195,
			"-0.006": 16.9704042529,
			"-0.005": 21.9299357011,
			"-0.004": 24.9311851454,
			"-0.003": 28.8589069245,
			"-0.002": 21.3749827951,
			"-0.001": 19.3283164718,
			"0.0": 14.2363087529,
			"0.001": 12.6202431548,
			"0.002": 10.4887502078,
			"0.003": 7.49773639192,
			"0.004": 7.84769367004,
			"0.005": 7.05320771137,
			"0.006": 5.22825471518,
			"0.007": 6.85767751219,
			"0.008": 7.23895892686,
			"0.009": 6.02714573928,
			"0.01": 5.86044739407,
			"0.011": 5.93689927496,
			"0.012": 10.2488328295,
			"0.013": 5.17585941998,
			"0.014": 0.152201011957,
			"0.015": 0.0,
			"0.016": 0.0,
			"0.017": 0.0,
			"0.018": 0.0,
			"0.019": 0.0,
			"0.02": 0.0,
			"0.021": 0.0,
			"0.022": 0.0,
			"0.023": 0.0,
			"0.024": 0.0,
			"0.025": 0.0
		}
	}
}
