{
	 "smiles": "ClC(=O)C1=CSC(=N1)C1=CC=CC=C1", 
	 "Tm": 373.15, 
	 "num_atms": 20, 
	 "gaussian": { 
		 "optdone": 1, 
		 "sigma_profile": "yes", 
		 "theory": "DFT", 
		 "functional": "B3LYP", 
		 "basiset": "6-31G**", 
		 "properties": { 
			 "R2extent": 6129.1375, 
			 "electric_dipole_moment_norm": 4.97318988678, 
			 "electric_quadrupole_moment_norm": 22.8647403287, 
			 "total_energy": -1373.0364936, 
			 "HOMO_LUMO_gap": 0.16287, 
			 "cosmo_polarized_energy": -9.2, 
			 "cosmo_cavitation_energy": 28.9, 
			 "cosmo_dispersion_energy": -21.73, 
			 "cosmo_repulsion_energy": 1.65, 
			 "cosmo_total_nonelectrostatic_energy": 8.82, 
			 "SMD_solvation_energy": 4.41 
		},
		"coords": [
			{
				"x": 0.3140760835,
				"y": -5.205960607,
				"z": 2.1985538413,
				"element": "Cl" 
			},
			{
				"x": -0.3876951383,
				"y": -5.0841271631,
				"z": 0.5400190747,
				"element": "C" 
			},
			{
				"x": -0.5575620344,
				"y": -6.0657642382,
				"z": -0.1238775009,
				"element": "O" 
			},
			{
				"x": -0.713437552,
				"y": -3.7083274255,
				"z": 0.112527678,
				"element": "C" 
			},
			{
				"x": -1.2547285852,
				"y": -3.471497112,
				"z": -1.1297747787,
				"element": "C" 
			},
			{
				"x": -1.5235593287,
				"y": -1.7893089322,
				"z": -1.3405062194,
				"element": "S" 
			},
			{
				"x": -0.8743768917,
				"y": -1.5081670148,
				"z": 0.2958948476,
				"element": "C" 
			},
			{
				"x": -0.506934419,
				"y": -2.6047251051,
				"z": 0.8964168422,
				"element": "N" 
			},
			{
				"x": -0.7751592751,
				"y": -0.1665914782,
				"z": 0.8834681052,
				"element": "C" 
			},
			{
				"x": -0.2516575335,
				"y": -0.0333939803,
				"z": 2.1820795436,
				"element": "C" 
			},
			{
				"x": -0.1445155926,
				"y": 1.2245670652,
				"z": 2.767278374,
				"element": "C" 
			},
			{
				"x": -0.5554417957,
				"y": 2.3645536486,
				"z": 2.0709200991,
				"element": "C" 
			},
			{
				"x": -1.0760986879,
				"y": 2.2395147809,
				"z": 0.7812578492,
				"element": "C" 
			},
			{
				"x": -1.1858367376,
				"y": 0.9829672658,
				"z": 0.1901645699,
				"element": "C" 
			},
			{
				"x": -1.4921027455,
				"y": -4.2004984833,
				"z": -1.8907504504,
				"element": "H" 
			},
			{
				"x": 0.063500583,
				"y": -0.9256067611,
				"z": 2.711521128,
				"element": "H" 
			},
			{
				"x": 0.2610669009,
				"y": 1.3164247865,
				"z": 3.7704242539,
				"element": "H" 
			},
			{
				"x": -0.4704278531,
				"y": 3.3447522917,
				"z": 2.5305864276,
				"element": "H" 
			},
			{
				"x": -1.3973320901,
				"y": 3.1207354549,
				"z": 0.2343064856,
				"element": "H" 
			},
			{
				"x": -1.5930773068,
				"y": 0.9022530071,
				"z": -0.8142101705,
				"element": "H" 
			}
		],
		 "valence_orbital": [ 
			{
				"type": "occ",
				"energy": -0.30031,
				"method": "rhf"
			},
			{
				"type": "occ",
				"energy": -0.29886,
				"method": "rhf"
			},
			{
				"type": "occ",
				"energy": -0.28676,
				"method": "rhf"
			},
			{
				"type": "occ",
				"energy": -0.26818,
				"method": "rhf"
			},
			{
				"type": "occ",
				"energy": -0.24302,
				"method": "rhf"
			},
			{
				"type": "unocc",
				"energy": -0.08015,
				"method": "rhf"
			},
			{
				"type": "unocc",
				"energy": -0.06087,
				"method": "rhf"
			},
			{
				"type": "unocc",
				"energy": -0.01725,
				"method": "rhf"
			},
			{
				"type": "unocc",
				"energy": -0.00792,
				"method": "rhf"
			},
			{
				"type": "unocc",
				"energy": 0.02421,
				"method": "rhf"
			}
		],
		"cosmo_sigma_profile": { 
			"-0.025": 0.0,
			"-0.024": 0.0,
			"-0.023": 0.0,
			"-0.022": 0.0,
			"-0.021": 0.0,
			"-0.02": 0.0,
			"-0.019": 0.0,
			"-0.018": 0.0,
			"-0.017": 0.0,
			"-0.016": 0.0,
			"-0.015": 0.0,
			"-0.014": 0.0,
			"-0.013": 0.0,
			"-0.012": 0.0509294655395,
			"-0.011": 1.61065758712,
			"-0.01": 1.31634095388,
			"-0.009": 1.70582031328,
			"-0.008": 2.38844382916,
			"-0.007": 5.10490980163,
			"-0.006": 11.0685388786,
			"-0.005": 14.3192036173,
			"-0.004": 15.262941078,
			"-0.003": 15.4882641856,
			"-0.002": 20.3441674343,
			"-0.001": 23.6588586515,
			"0.0": 19.1190941488,
			"0.001": 17.5172615438,
			"0.002": 17.6438626437,
			"0.003": 18.3498154094,
			"0.004": 23.0084010789,
			"0.005": 8.86623547671,
			"0.006": 4.79407601758,
			"0.007": 4.75780498327,
			"0.008": 4.85526985737,
			"0.009": 4.90113275978,
			"0.01": 2.06341430624,
			"0.011": 0.180646139366,
			"0.012": 0.0,
			"0.013": 0.0,
			"0.014": 0.0,
			"0.015": 0.0,
			"0.016": 0.0,
			"0.017": 0.0,
			"0.018": 0.0,
			"0.019": 0.0,
			"0.02": 0.0,
			"0.021": 0.0,
			"0.022": 0.0,
			"0.023": 0.0,
			"0.024": 0.0,
			"0.025": 0.0
		}
	}
}
