{
	 "smiles": "OC(=O)C1=CC=C(C=C1)N1C(=O)C2ON=C(C2C1=O)C(=O)C1=CC=CS1", 
	 "Tm": 481.15, 
	 "num_atms": 36, 
	 "gaussian": { 
		 "optdone": 1, 
		 "sigma_profile": "yes", 
		 "theory": "DFT", 
		 "functional": "B3LYP", 
		 "basiset": "6-31G**", 
		 "properties": { 
			 "R2extent": 14086.084, 
			 "electric_dipole_moment_norm": 4.96116997895, 
			 "electric_quadrupole_moment_norm": 43.6242974024, 
			 "total_energy": -1612.809199, 
			 "HOMO_LUMO_gap": 0.15797, 
			 "cosmo_polarized_energy": -29.23, 
			 "cosmo_cavitation_energy": 44.59, 
			 "cosmo_dispersion_energy": -32.2, 
			 "cosmo_repulsion_energy": 2.36, 
			 "cosmo_total_nonelectrostatic_energy": 14.75, 
			 "SMD_solvation_energy": 10.21 
		},
		"coords": [
			{
				"x": 7.2847655177,
				"y": 3.140698345,
				"z": -0.4489301963,
				"element": "O" 
			},
			{
				"x": 6.1294941515,
				"y": 3.8575677067,
				"z": -0.4388734095,
				"element": "C" 
			},
			{
				"x": 6.1422707736,
				"y": 5.0310127148,
				"z": -0.7258047386,
				"element": "O" 
			},
			{
				"x": 4.8797611348,
				"y": 3.1197212965,
				"z": -0.0595039897,
				"element": "C" 
			},
			{
				"x": 4.7531175113,
				"y": 1.7271863858,
				"z": -0.151178589,
				"element": "C" 
			},
			{
				"x": 3.563621286,
				"y": 1.0959607303,
				"z": 0.2007832667,
				"element": "C" 
			},
			{
				"x": 2.4871044402,
				"y": 1.8626766537,
				"z": 0.6600476262,
				"element": "C" 
			},
			{
				"x": 2.5951247547,
				"y": 3.2568256557,
				"z": 0.7453161228,
				"element": "C" 
			},
			{
				"x": 3.7829139173,
				"y": 3.8754351381,
				"z": 0.3734129474,
				"element": "C" 
			},
			{
				"x": 1.271129226,
				"y": 1.2120943646,
				"z": 1.0399561442,
				"element": "N" 
			},
			{
				"x": 1.2335789747,
				"y": 0.0014747891,
				"z": 1.754527846,
				"element": "C" 
			},
			{
				"x": 2.1880811972,
				"y": -0.6196513531,
				"z": 2.1573156148,
				"element": "O" 
			},
			{
				"x": -0.2347700445,
				"y": -0.3983667168,
				"z": 1.9194422911,
				"element": "C" 
			},
			{
				"x": -0.501948058,
				"y": -1.5643470437,
				"z": 1.0741374505,
				"element": "O" 
			},
			{
				"x": -1.4464584136,
				"y": -1.2376748816,
				"z": 0.1237675687,
				"element": "N" 
			},
			{
				"x": -1.7953141205,
				"y": -0.0065469047,
				"z": 0.2268250709,
				"element": "C" 
			},
			{
				"x": -1.0516437028,
				"y": 0.7367446608,
				"z": 1.3146719684,
				"element": "C" 
			},
			{
				"x": -0.0140313085,
				"y": 1.7240503712,
				"z": 0.7492798216,
				"element": "C" 
			},
			{
				"x": -0.2416405775,
				"y": 2.7522212225,
				"z": 0.1630098346,
				"element": "O" 
			},
			{
				"x": -2.8995337655,
				"y": 0.6145718007,
				"z": -0.5639381916,
				"element": "C" 
			},
			{
				"x": -3.355454641,
				"y": 1.6752755324,
				"z": -0.1458586833,
				"element": "O" 
			},
			{
				"x": -3.42267188,
				"y": -0.0237480517,
				"z": -1.7776700846,
				"element": "C" 
			},
			{
				"x": -4.4368877981,
				"y": 0.5327834225,
				"z": -2.5357101195,
				"element": "C" 
			},
			{
				"x": -4.7670179689,
				"y": -0.2315973529,
				"z": -3.6793188664,
				"element": "C" 
			},
			{
				"x": -3.9974132938,
				"y": -1.3656188379,
				"z": -3.7855083312,
				"element": "C" 
			},
			{
				"x": -2.867317863,
				"y": -1.5237971821,
				"z": -2.4935232382,
				"element": "S" 
			},
			{
				"x": 7.1481123313,
				"y": 2.2759289468,
				"z": -0.0380106697,
				"element": "H" 
			},
			{
				"x": 5.5646070939,
				"y": 1.1164717529,
				"z": -0.5385409403,
				"element": "H" 
			},
			{
				"x": 3.4739246097,
				"y": 0.0202818037,
				"z": 0.1252900738,
				"element": "H" 
			},
			{
				"x": 1.7542975389,
				"y": 3.848402789,
				"z": 1.0824087141,
				"element": "H" 
			},
			{
				"x": 3.882585774,
				"y": 4.9542578579,
				"z": 0.4180298631,
				"element": "H" 
			},
			{
				"x": -0.4480965189,
				"y": -0.6775278826,
				"z": 2.9530414946,
				"element": "H" 
			},
			{
				"x": -1.7324390044,
				"y": 1.273854217,
				"z": 1.9785459229,
				"element": "H" 
			},
			{
				"x": -4.9040873465,
				"y": 1.4677204567,
				"z": -2.2517082531,
				"element": "H" 
			},
			{
				"x": -5.5345246525,
				"y": 0.0414720798,
				"z": -4.3937563982,
				"element": "H" 
			},
			{
				"x": -4.0399392745,
				"y": -2.1260144871,
				"z": -4.554274943,
				"element": "H" 
			}
		],
		 "valence_orbital": [ 
			{
				"type": "occ",
				"energy": -0.2794,
				"method": "rhf"
			},
			{
				"type": "occ",
				"energy": -0.27538,
				"method": "rhf"
			},
			{
				"type": "occ",
				"energy": -0.2691,
				"method": "rhf"
			},
			{
				"type": "occ",
				"energy": -0.26509,
				"method": "rhf"
			},
			{
				"type": "occ",
				"energy": -0.25558,
				"method": "rhf"
			},
			{
				"type": "unocc",
				"energy": -0.09761,
				"method": "rhf"
			},
			{
				"type": "unocc",
				"energy": -0.06855,
				"method": "rhf"
			},
			{
				"type": "unocc",
				"energy": -0.05848,
				"method": "rhf"
			},
			{
				"type": "unocc",
				"energy": -0.03697,
				"method": "rhf"
			},
			{
				"type": "unocc",
				"energy": -0.03102,
				"method": "rhf"
			}
		],
		"cosmo_sigma_profile": { 
			"-0.025": 0.0,
			"-0.024": 0.0,
			"-0.023": 0.0,
			"-0.022": 0.0,
			"-0.021": 0.0,
			"-0.02": 0.0,
			"-0.019": 0.33214549803,
			"-0.018": 1.19504251335,
			"-0.017": 1.11358035584,
			"-0.016": 0.968597767878,
			"-0.015": 0.465047398581,
			"-0.014": 0.960294745757,
			"-0.013": 1.74726543692,
			"-0.012": 2.55913395971,
			"-0.011": 4.78306963898,
			"-0.01": 11.4935749408,
			"-0.009": 8.66188766048,
			"-0.008": 10.6821112088,
			"-0.007": 18.3907078821,
			"-0.006": 16.2956206164,
			"-0.005": 17.3012860652,
			"-0.004": 18.2001263631,
			"-0.003": 14.6324393767,
			"-0.002": 15.4893904414,
			"-0.001": 18.1935130779,
			"0.0": 18.5473278665,
			"0.001": 26.959793569,
			"0.002": 32.2801236629,
			"0.003": 20.7166894638,
			"0.004": 11.2589194507,
			"0.005": 10.0123675273,
			"0.006": 10.8406409295,
			"0.007": 11.266810574,
			"0.008": 11.8856652563,
			"0.009": 11.776331556,
			"0.01": 15.2232607433,
			"0.011": 12.1152473731,
			"0.012": 4.51512994101,
			"0.013": 1.01642235771,
			"0.014": 0.0,
			"0.015": 0.0,
			"0.016": 0.0,
			"0.017": 0.0,
			"0.018": 0.0,
			"0.019": 0.0,
			"0.02": 0.0,
			"0.021": 0.0,
			"0.022": 0.0,
			"0.023": 0.0,
			"0.024": 0.0,
			"0.025": 0.0
		}
	}
}
