{
	 "smiles": "NC(=O)NC(CC(O)=O)C1=CC=CC=C1", 
	 "Tm": 468.15, 
	 "num_atms": 27, 
	 "gaussian": { 
		 "optdone": 1, 
		 "sigma_profile": "yes", 
		 "theory": "DFT", 
		 "functional": "B3LYP", 
		 "basiset": "6-31G**", 
		 "properties": { 
			 "R2extent": 3804.2524, 
			 "electric_dipole_moment_norm": 3.52490381855, 
			 "electric_quadrupole_moment_norm": 17.7339758537, 
			 "total_energy": -723.512554342, 
			 "HOMO_LUMO_gap": 0.22411, 
			 "cosmo_polarized_energy": -20.71, 
			 "cosmo_cavitation_energy": 31.3, 
			 "cosmo_dispersion_energy": -21.49, 
			 "cosmo_repulsion_energy": 1.73, 
			 "cosmo_total_nonelectrostatic_energy": 11.54, 
			 "SMD_solvation_energy": 7.11 
		},
		"coords": [
			{
				"x": -1.0610764212,
				"y": 1.4747474213,
				"z": 2.4033115901,
				"element": "N" 
			},
			{
				"x": -2.3566020033,
				"y": 1.5574743883,
				"z": 1.9228249995,
				"element": "C" 
			},
			{
				"x": -3.293645034,
				"y": 1.9713207426,
				"z": 2.5925387292,
				"element": "O" 
			},
			{
				"x": -2.5245624026,
				"y": 1.1602675105,
				"z": 0.6027579636,
				"element": "N" 
			},
			{
				"x": -1.4498563055,
				"y": 1.0570411527,
				"z": -0.3849646131,
				"element": "C" 
			},
			{
				"x": -2.096389106,
				"y": 1.1632636934,
				"z": -1.7854311357,
				"element": "C" 
			},
			{
				"x": -1.1149545666,
				"y": 1.1630311717,
				"z": -2.9387053362,
				"element": "C" 
			},
			{
				"x": -0.117842451,
				"y": 2.0664892421,
				"z": -2.7563967884,
				"element": "O" 
			},
			{
				"x": -1.2019943427,
				"y": 0.4810317126,
				"z": -3.9328219674,
				"element": "O" 
			},
			{
				"x": -0.6436233609,
				"y": -0.2348954163,
				"z": -0.2393915666,
				"element": "C" 
			},
			{
				"x": 0.7454627426,
				"y": -0.2216537881,
				"z": -0.4234693742,
				"element": "C" 
			},
			{
				"x": 1.4864954327,
				"y": -1.4023250827,
				"z": -0.3311963116,
				"element": "C" 
			},
			{
				"x": 0.8459537388,
				"y": -2.6093650933,
				"z": -0.0502723721,
				"element": "C" 
			},
			{
				"x": -0.5379029964,
				"y": -2.6298940787,
				"z": 0.1427992956,
				"element": "C" 
			},
			{
				"x": -1.2769763279,
				"y": -1.4510486523,
				"z": 0.0516688549,
				"element": "C" 
			},
			{
				"x": -1.0132794916,
				"y": 1.5888168064,
				"z": 3.4054713986,
				"element": "H" 
			},
			{
				"x": -0.4456121796,
				"y": 0.7700310951,
				"z": 2.0193495718,
				"element": "H" 
			},
			{
				"x": -3.4481953156,
				"y": 1.3978928459,
				"z": 0.269124042,
				"element": "H" 
			},
			{
				"x": -0.7598360021,
				"y": 1.9020005068,
				"z": -0.2695315173,
				"element": "H" 
			},
			{
				"x": -2.6600613444,
				"y": 2.1042296786,
				"z": -1.8389130503,
				"element": "H" 
			},
			{
				"x": -2.7898470141,
				"y": 0.3356249064,
				"z": -1.9518847753,
				"element": "H" 
			},
			{
				"x": 0.4455174096,
				"y": 2.0075075576,
				"z": -3.546602054,
				"element": "H" 
			},
			{
				"x": 1.2451595586,
				"y": 0.7174398911,
				"z": -0.6460002202,
				"element": "H" 
			},
			{
				"x": 2.5630170898,
				"y": -1.376109751,
				"z": -0.4740651491,
				"element": "H" 
			},
			{
				"x": 1.4207303748,
				"y": -3.5278661635,
				"z": 0.0246294449,
				"element": "H" 
			},
			{
				"x": -1.0414706291,
				"y": -3.5653955826,
				"z": 0.3691512084,
				"element": "H" 
			},
			{
				"x": -2.3492090524,
				"y": -1.4618567145,
				"z": 0.2234191328,
				"element": "H" 
			}
		],
		 "valence_orbital": [ 
			{
				"type": "occ",
				"energy": -0.27003,
				"method": "rhf"
			},
			{
				"type": "occ",
				"energy": -0.26287,
				"method": "rhf"
			},
			{
				"type": "occ",
				"energy": -0.26156,
				"method": "rhf"
			},
			{
				"type": "occ",
				"energy": -0.25387,
				"method": "rhf"
			},
			{
				"type": "occ",
				"energy": -0.24156,
				"method": "rhf"
			},
			{
				"type": "unocc",
				"energy": -0.01745,
				"method": "rhf"
			},
			{
				"type": "unocc",
				"energy": -0.01521,
				"method": "rhf"
			},
			{
				"type": "unocc",
				"energy": -0.00315,
				"method": "rhf"
			},
			{
				"type": "unocc",
				"energy": 0.05504,
				"method": "rhf"
			},
			{
				"type": "unocc",
				"energy": 0.06633,
				"method": "rhf"
			}
		],
		"cosmo_sigma_profile": { 
			"-0.025": 0.0,
			"-0.024": 0.0,
			"-0.023": 0.0,
			"-0.022": 0.0,
			"-0.021": 0.0,
			"-0.02": 0.0,
			"-0.019": 0.0140319226147,
			"-0.018": 0.896424768179,
			"-0.017": 0.831206565994,
			"-0.016": 0.766573770668,
			"-0.015": 1.18651178757,
			"-0.014": 0.716514095362,
			"-0.013": 2.0257772267,
			"-0.012": 2.60124056373,
			"-0.011": 2.88128199293,
			"-0.01": 4.4950593167,
			"-0.009": 4.51578623809,
			"-0.008": 4.11029011323,
			"-0.007": 5.86329306435,
			"-0.006": 12.2823274244,
			"-0.005": 18.5270625845,
			"-0.004": 20.6297235729,
			"-0.003": 15.8091508648,
			"-0.002": 14.680637542,
			"-0.001": 12.8404743821,
			"0.0": 14.1378027799,
			"0.001": 14.1443736312,
			"0.002": 12.5395454685,
			"0.003": 10.9265889007,
			"0.004": 12.7628760739,
			"0.005": 11.8278425118,
			"0.006": 4.93199553628,
			"0.007": 4.46191189976,
			"0.008": 3.60213730281,
			"0.009": 4.72496551725,
			"0.01": 3.50690526666,
			"0.011": 5.9343085993,
			"0.012": 4.77028768184,
			"0.013": 2.77853681223,
			"0.014": 5.99547827669,
			"0.015": 4.21073314057,
			"0.016": 0.112372027897,
			"0.017": 0.0,
			"0.018": 0.0,
			"0.019": 0.0,
			"0.02": 0.0,
			"0.021": 0.0,
			"0.022": 0.0,
			"0.023": 0.0,
			"0.024": 0.0,
			"0.025": 0.0
		}
	}
}
