{
	 "smiles": "CC1=CC(C)=C(NS(=O)(=O)C2=CC(=C(Cl)C=C2)[N+]([O-])=O)C=C1", 
	 "Tm": 373.15, 
	 "num_atms": 35, 
	 "gaussian": { 
		 "optdone": 1, 
		 "sigma_profile": "yes", 
		 "theory": "DFT", 
		 "functional": "B3LYP", 
		 "basiset": "6-31G**", 
		 "properties": { 
			 "R2extent": 9109.6276, 
			 "electric_dipole_moment_norm": 4.82855949844, 
			 "electric_quadrupole_moment_norm": 18.9420170911, 
			 "total_energy": -1809.92931783, 
			 "HOMO_LUMO_gap": 0.14129, 
			 "cosmo_polarized_energy": -17.54, 
			 "cosmo_cavitation_energy": 43.23, 
			 "cosmo_dispersion_energy": -29.68, 
			 "cosmo_repulsion_energy": 2.23, 
			 "cosmo_total_nonelectrostatic_energy": 15.78, 
			 "SMD_solvation_energy": 8.51 
		},
		"coords": [
			{
				"x": -2.003404913,
				"y": 0.9505611842,
				"z": -4.546643659,
				"element": "C" 
			},
			{
				"x": -0.9231139797,
				"y": 0.7843898284,
				"z": -3.5044134008,
				"element": "C" 
			},
			{
				"x": 0.2449961848,
				"y": 1.5564770172,
				"z": -3.5544305739,
				"element": "C" 
			},
			{
				"x": 1.2760545732,
				"y": 1.4266608937,
				"z": -2.6189181853,
				"element": "C" 
			},
			{
				"x": 2.5001849777,
				"y": 2.3064956744,
				"z": -2.6922246663,
				"element": "C" 
			},
			{
				"x": 1.1244128283,
				"y": 0.4591946664,
				"z": -1.6063847243,
				"element": "C" 
			},
			{
				"x": 2.1460757144,
				"y": 0.2330580105,
				"z": -0.6183279463,
				"element": "N" 
			},
			{
				"x": 2.1542740619,
				"y": 1.1430088302,
				"z": 0.8192560453,
				"element": "S" 
			},
			{
				"x": 1.4969708653,
				"y": 2.4396538011,
				"z": 0.6384871387,
				"element": "O" 
			},
			{
				"x": 3.5308454569,
				"y": 1.0333372693,
				"z": 1.3114629491,
				"element": "O" 
			},
			{
				"x": 1.0983503592,
				"y": 0.1784429306,
				"z": 1.9081970088,
				"element": "C" 
			},
			{
				"x": -0.2209887947,
				"y": 0.5665459643,
				"z": 2.0994279395,
				"element": "C" 
			},
			{
				"x": -1.0269104554,
				"y": -0.1662228946,
				"z": 2.9719728438,
				"element": "C" 
			},
			{
				"x": -0.5247083648,
				"y": -1.2980638254,
				"z": 3.632881239,
				"element": "C" 
			},
			{
				"x": -1.4845894127,
				"y": -2.3095363506,
				"z": 4.6698518556,
				"element": "Cl" 
			},
			{
				"x": 0.8068139725,
				"y": -1.6739441984,
				"z": 3.4149252476,
				"element": "C" 
			},
			{
				"x": 1.6235436644,
				"y": -0.936012142,
				"z": 2.5662713745,
				"element": "C" 
			},
			{
				"x": -2.4059731489,
				"y": 0.3277007947,
				"z": 3.1515612197,
				"element": "N" 
			},
			{
				"x": -2.9231379663,
				"y": 0.2024457722,
				"z": 4.2553683394,
				"element": "O" 
			},
			{
				"x": -2.9271358551,
				"y": 0.8605641999,
				"z": 2.1733619894,
				"element": "O" 
			},
			{
				"x": -0.0268139367,
				"y": -0.3293799775,
				"z": -1.5475411862,
				"element": "C" 
			},
			{
				"x": -1.0478532955,
				"y": -0.1601619829,
				"z": -2.4795172068,
				"element": "C" 
			},
			{
				"x": -2.9872680243,
				"y": 0.6880359952,
				"z": -4.1472549021,
				"element": "H" 
			},
			{
				"x": -2.0496986828,
				"y": 1.9798021065,
				"z": -4.9146018514,
				"element": "H" 
			},
			{
				"x": -1.8192552911,
				"y": 0.303052273,
				"z": -5.4131503314,
				"element": "H" 
			},
			{
				"x": 0.3515782628,
				"y": 2.2985695304,
				"z": -4.3425819149,
				"element": "H" 
			},
			{
				"x": 3.4237948933,
				"y": 1.7232411411,
				"z": -2.800366601,
				"element": "H" 
			},
			{
				"x": 2.4413359902,
				"y": 2.9801982562,
				"z": -3.5503518037,
				"element": "H" 
			},
			{
				"x": 2.5996581038,
				"y": 2.9149702839,
				"z": -1.7875970225,
				"element": "H" 
			},
			{
				"x": 3.102808383,
				"y": 0.2430362633,
				"z": -0.9651077649,
				"element": "H" 
			},
			{
				"x": -0.6283386607,
				"y": 1.4338847628,
				"z": 1.5946332942,
				"element": "H" 
			},
			{
				"x": 1.1906197999,
				"y": -2.5510448705,
				"z": 3.9231401243,
				"element": "H" 
			},
			{
				"x": 2.6612079119,
				"y": -1.2144577766,
				"z": 2.4192060206,
				"element": "H" 
			},
			{
				"x": -0.1076416906,
				"y": -1.0815090783,
				"z": -0.7694173335,
				"element": "H" 
			},
			{
				"x": -1.9420935312,
				"y": -0.7739943529,
				"z": -2.4148735554,
				"element": "H" 
			}
		],
		 "valence_orbital": [ 
			{
				"type": "occ",
				"energy": -0.30191,
				"method": "rhf"
			},
			{
				"type": "occ",
				"energy": -0.29317,
				"method": "rhf"
			},
			{
				"type": "occ",
				"energy": -0.28066,
				"method": "rhf"
			},
			{
				"type": "occ",
				"energy": -0.2554,
				"method": "rhf"
			},
			{
				"type": "occ",
				"energy": -0.24302,
				"method": "rhf"
			},
			{
				"type": "unocc",
				"energy": -0.10173,
				"method": "rhf"
			},
			{
				"type": "unocc",
				"energy": -0.06456,
				"method": "rhf"
			},
			{
				"type": "unocc",
				"energy": -0.03539,
				"method": "rhf"
			},
			{
				"type": "unocc",
				"energy": -0.02056,
				"method": "rhf"
			},
			{
				"type": "unocc",
				"energy": -0.00997,
				"method": "rhf"
			}
		],
		"cosmo_sigma_profile": { 
			"-0.025": 0.0,
			"-0.024": 0.0,
			"-0.023": 0.0,
			"-0.022": 0.0,
			"-0.021": 0.0,
			"-0.02": 0.0,
			"-0.019": 0.0,
			"-0.018": 0.0,
			"-0.017": 0.0,
			"-0.016": 0.0,
			"-0.015": 0.173830499227,
			"-0.014": 0.934874924758,
			"-0.013": 0.894001317956,
			"-0.012": 0.827188810329,
			"-0.011": 1.69747625967,
			"-0.01": 1.51997782365,
			"-0.009": 6.47069988645,
			"-0.008": 6.89199740145,
			"-0.007": 7.04560587753,
			"-0.006": 9.32510907733,
			"-0.005": 17.9022447239,
			"-0.004": 28.2516568831,
			"-0.003": 32.2033523417,
			"-0.002": 32.7555572328,
			"-0.001": 32.0525351286,
			"0.0": 29.4704834376,
			"0.001": 19.2019334736,
			"0.002": 18.3614844707,
			"0.003": 16.0109308303,
			"0.004": 14.402188896,
			"0.005": 15.2153608779,
			"0.006": 11.626047421,
			"0.007": 15.0195534481,
			"0.008": 8.42464307379,
			"0.009": 8.61745251848,
			"0.01": 8.06922357719,
			"0.011": 4.04416550581,
			"0.012": 0.0655807212362,
			"0.013": 0.0,
			"0.014": 0.0,
			"0.015": 0.0,
			"0.016": 0.0,
			"0.017": 0.0,
			"0.018": 0.0,
			"0.019": 0.0,
			"0.02": 0.0,
			"0.021": 0.0,
			"0.022": 0.0,
			"0.023": 0.0,
			"0.024": 0.0,
			"0.0": 0.0
		}
	}
}
