{
	 "smiles": "CCCCC1=CC=C(C=C1)C#CC1=CC=C(OC)C=C1", 
	 "Tm": 313.15, 
	 "num_atms": 40, 
	 "gaussian": { 
		 "optdone": 1, 
		 "sigma_profile": "yes", 
		 "theory": "DFT", 
		 "functional": "B3LYP", 
		 "basiset": "6-31G**", 
		 "properties": { 
			 "R2extent": 13170.0327, 
			 "electric_dipole_moment_norm": 1.47787439926, 
			 "electric_quadrupole_moment_norm": 21.5903588076, 
			 "total_energy": -811.253521419, 
			 "HOMO_LUMO_gap": 0.15619, 
			 "cosmo_polarized_energy": -8.77, 
			 "cosmo_cavitation_energy": 44.27, 
			 "cosmo_dispersion_energy": -30.97, 
			 "cosmo_repulsion_energy": 2.42, 
			 "cosmo_total_nonelectrostatic_energy": 15.71, 
			 "SMD_solvation_energy": 7.9 
		},
		"coords": [
			{
				"x": -1.9875866581,
				"y": 0.0164738848,
				"z": -4.299477669,
				"element": "C" 
			},
			{
				"x": -3.0472244927,
				"y": -0.9976880714,
				"z": -4.7483721025,
				"element": "C" 
			},
			{
				"x": -4.0808638804,
				"y": -1.4043716714,
				"z": -3.6822770672,
				"element": "C" 
			},
			{
				"x": -3.5894775304,
				"y": -2.3750454725,
				"z": -2.5827819714,
				"element": "C" 
			},
			{
				"x": -2.6578849622,
				"y": -1.798993144,
				"z": -1.535476015,
				"element": "C" 
			},
			{
				"x": -3.0911480989,
				"y": -0.7851312375,
				"z": -0.6660434581,
				"element": "C" 
			},
			{
				"x": -2.2518388556,
				"y": -0.2593544858,
				"z": 0.3089525967,
				"element": "C" 
			},
			{
				"x": -0.9328640801,
				"y": -0.7372665992,
				"z": 0.4553725532,
				"element": "C" 
			},
			{
				"x": -0.4967967785,
				"y": -1.7606818883,
				"z": -0.4085052703,
				"element": "C" 
			},
			{
				"x": -1.3492562746,
				"y": -2.277246719,
				"z": -1.3803725756,
				"element": "C" 
			},
			{
				"x": -0.0681074156,
				"y": -0.2025039976,
				"z": 1.4522563848,
				"element": "C" 
			},
			{
				"x": 0.6708142028,
				"y": 0.2556848802,
				"z": 2.303936066,
				"element": "C" 
			},
			{
				"x": 1.5379225937,
				"y": 0.7892707819,
				"z": 3.2985692243,
				"element": "C" 
			},
			{
				"x": 2.8571425393,
				"y": 0.3048833416,
				"z": 3.4477227868,
				"element": "C" 
			},
			{
				"x": 3.7012429651,
				"y": 0.8241905255,
				"z": 4.4152418753,
				"element": "C" 
			},
			{
				"x": 3.2568867911,
				"y": 1.8470310145,
				"z": 5.2690964774,
				"element": "C" 
			},
			{
				"x": 4.1646353807,
				"y": 2.2875656774,
				"z": 6.1854027115,
				"element": "O" 
			},
			{
				"x": 3.775238414,
				"y": 3.3208438373,
				"z": 7.076889549,
				"element": "C" 
			},
			{
				"x": 1.9523729917,
				"y": 2.3408451823,
				"z": 5.1373411374,
				"element": "C" 
			},
			{
				"x": 1.1086279925,
				"y": 1.8133410957,
				"z": 4.1613781322,
				"element": "C" 
			},
			{
				"x": -1.3483501481,
				"y": 0.3050014664,
				"z": -5.1410362361,
				"element": "H" 
			},
			{
				"x": -2.4568609665,
				"y": 0.9282998934,
				"z": -3.9124757143,
				"element": "H" 
			},
			{
				"x": -1.3433880819,
				"y": -0.3802979026,
				"z": -3.5114201016,
				"element": "H" 
			},
			{
				"x": -3.5939466382,
				"y": -0.5743980379,
				"z": -5.6012052692,
				"element": "H" 
			},
			{
				"x": -2.5539950116,
				"y": -1.9023797535,
				"z": -5.1309581958,
				"element": "H" 
			},
			{
				"x": -4.9201155947,
				"y": -1.8955332969,
				"z": -4.1912957146,
				"element": "H" 
			},
			{
				"x": -4.4988816533,
				"y": -0.502201395,
				"z": -3.215459557,
				"element": "H" 
			},
			{
				"x": -4.4766667318,
				"y": -2.7729220653,
				"z": -2.0713087652,
				"element": "H" 
			},
			{
				"x": -3.1059344016,
				"y": -3.2357697408,
				"z": -3.0613623309,
				"element": "H" 
			},
			{
				"x": -4.1057566327,
				"y": -0.4035581806,
				"z": -0.7522133343,
				"element": "H" 
			},
			{
				"x": -2.6060829555,
				"y": 0.5237933678,
				"z": 0.9718428925,
				"element": "H" 
			},
			{
				"x": 0.5134319694,
				"y": -2.1443834853,
				"z": -0.3069622019,
				"element": "H" 
			},
			{
				"x": -0.9914099034,
				"y": -3.0686604349,
				"z": -2.0345197248,
				"element": "H" 
			},
			{
				"x": 3.2071871222,
				"y": -0.4852702944,
				"z": 2.7913705736,
				"element": "H" 
			},
			{
				"x": 4.7149814098,
				"y": 0.4559801007,
				"z": 4.5339854492,
				"element": "H" 
			},
			{
				"x": 4.6415209159,
				"y": 3.5133246373,
				"z": 7.7115399592,
				"element": "H" 
			},
			{
				"x": 2.9284998979,
				"y": 3.0159174828,
				"z": 7.7051630792,
				"element": "H" 
			},
			{
				"x": 3.5101849691,
				"y": 4.2405648746,
				"z": 6.5397350105,
				"element": "H" 
			},
			{
				"x": 1.5859561262,
				"y": 3.1294097028,
				"z": 5.7837409701,
				"element": "H" 
			},
			{
				"x": 0.0987914648,
				"y": 2.1984361266,
				"z": 4.0621858456,
				"element": "H" 
			}
		],
		 "valence_orbital": [ 
			{
				"type": "occ",
				"energy": -0.25787,
				"method": "rhf"
			},
			{
				"type": "occ",
				"energy": -0.25475,
				"method": "rhf"
			},
			{
				"type": "occ",
				"energy": -0.24933,
				"method": "rhf"
			},
			{
				"type": "occ",
				"energy": -0.24237,
				"method": "rhf"
			},
			{
				"type": "occ",
				"energy": -0.19307,
				"method": "rhf"
			},
			{
				"type": "unocc",
				"energy": -0.03688,
				"method": "rhf"
			},
			{
				"type": "unocc",
				"energy": -0.00266,
				"method": "rhf"
			},
			{
				"type": "unocc",
				"energy": 0.00029,
				"method": "rhf"
			},
			{
				"type": "unocc",
				"energy": 0.01907,
				"method": "rhf"
			},
			{
				"type": "unocc",
				"energy": 0.06074,
				"method": "rhf"
			}
		],
		"cosmo_sigma_profile": { 
			"-0.025": 0.0,
			"-0.024": 0.0,
			"-0.023": 0.0,
			"-0.022": 0.0,
			"-0.021": 0.0,
			"-0.02": 0.0,
			"-0.019": 0.0,
			"-0.018": 0.0,
			"-0.017": 0.0,
			"-0.016": 0.0,
			"-0.015": 0.0,
			"-0.014": 0.0,
			"-0.013": 0.0,
			"-0.012": 0.0,
			"-0.011": 0.0,
			"-0.01": 0.0,
			"-0.009": 0.0,
			"-0.008": 0.0,
			"-0.007": 1.87379060772,
			"-0.006": 14.5946233681,
			"-0.005": 24.5705767783,
			"-0.004": 25.668313563,
			"-0.003": 29.13122819,
			"-0.002": 32.8415458984,
			"-0.001": 31.5666121833,
			"0.0": 36.0945838448,
			"0.001": 31.810113825,
			"0.002": 26.0575125112,
			"0.003": 27.2002012143,
			"0.004": 34.3982171975,
			"0.005": 20.1977615083,
			"0.006": 8.44780927559,
			"0.007": 2.81966821805,
			"0.008": 0.915520863257,
			"0.009": 1.49719905779,
			"0.01": 1.33916348229,
			"0.011": 0.115773639129,
			"0.012": 0.0,
			"0.013": 0.0,
			"0.014": 0.0,
			"0.015": 0.0,
			"0.016": 0.0,
			"0.017": 0.0,
			"0.018": 0.0,
			"0.019": 0.0,
			"0.02": 0.0,
			"0.021": 0.0,
			"0.022": 0.0,
			"0.023": 0.0,
			"0.024": 0.0,
			"0.025": 0.0
		}
	}
}
