{
	 "smiles": "BrCCI", 
	 "Tm": 301.15, 
	 "num_atms": 8, 
	 "gaussian": { 
		 "optdone": 1, 
		 "sigma_profile": "no", 
		 "theory": "DFT", 
		 "functional": "B3LYP", 
		 "basiset": "6-31G**", 
		 "properties": { 
			 "R2extent": 746.4039, 
			 "electric_dipole_moment_norm": 2.57988023559, 
			 "electric_quadrupole_moment_norm": 6.14484094749, 
			 "total_energy": -2661.41926064, 
			 "HOMO_LUMO_gap": 0.20904, 
			 "cosmo_polarized_energy": -94260.64, 
			 "cosmo_cavitation_energy": 16.62, 
			 "cosmo_dispersion_energy": -14.3, 
			 "cosmo_repulsion_energy": 1.23, 
			 "cosmo_total_nonelectrostatic_energy": 3.54, 
			 "SMD_solvation_energy": 0.86 
		},
		"coords": [
			{
				"x": 0.4234691228,
				"y": 0.1813441234,
				"z": -1.2006284136,
				"element": "Br" 
			},
			{
				"x": -0.1009167765,
				"y": 0.9329249827,
				"z": 0.5442662122,
				"element": "C" 
			},
			{
				"x": -1.5758068833,
				"y": 1.2570716872,
				"z": 0.64122594,
				"element": "C" 
			},
			{
				"x": -2.8746161127,
				"y": -0.4888413703,
				"z": 0.7188110106,
				"element": "I" 
			},
			{
				"x": 0.2221372786,
				"y": 0.2143354457,
				"z": 1.2958017541,
				"element": "H" 
			},
			{
				"x": 0.4791368588,
				"y": 1.8533043229,
				"z": 0.6436354604,
				"element": "H" 
			},
			{
				"x": -1.7753650383,
				"y": 1.7926030183,
				"z": 1.5712450716,
				"element": "H" 
			},
			{
				"x": -1.9247384494,
				"y": 1.8466577901,
				"z": -0.2047570353,
				"element": "H" 
			}
		],
		 "valence_orbital": [ 
			{
				"type": "occ",
				"energy": -0.35243,
				"method": "rhf"
			},
			{
				"type": "occ",
				"energy": -0.28467,
				"method": "rhf"
			},
			{
				"type": "occ",
				"energy": -0.28265,
				"method": "rhf"
			},
			{
				"type": "occ",
				"energy": -0.26631,
				"method": "rhf"
			},
			{
				"type": "occ",
				"energy": -0.26116,
				"method": "rhf"
			},
			{
				"type": "unocc",
				"energy": -0.05212,
				"method": "rhf"
			},
			{
				"type": "unocc",
				"energy": -0.0053,
				"method": "rhf"
			},
			{
				"type": "unocc",
				"energy": 0.03878,
				"method": "rhf"
			},
			{
				"type": "unocc",
				"energy": 0.04064,
				"method": "rhf"
			},
			{
				"type": "unocc",
				"energy": 0.0528,
				"method": "rhf"
			}
		],
		"cosmo_sigma_profile": { 
			"0.0": 0.0,
			"0.0": 0.0,
			"0.0": 0.0,
			"0.0": 0.0,
			"0.0": 0.0,
			"0.0": 0.0,
			"0.0": 0.0,
			"0.0": 0.0,
			"0.0": 0.0,
			"0.0": 0.0,
			"0.0": 0.0,
			"0.0": 0.0,
			"0.0": 0.0,
			"0.0": 0.0,
			"0.0": 0.0,
			"0.0": 0.0,
			"0.0": 0.0,
			"0.0": 0.0,
			"0.0": 0.0,
			"0.0": 0.0,
			"0.0": 0.0,
			"0.0": 0.0,
			"0.0": 0.0,
			"0.0": 0.0,
			"0.0": 0.0,
			"0.0": 0.0,
			"0.0": 0.0,
			"0.0": 0.0,
			"0.0": 0.0,
			"0.0": 0.0,
			"0.0": 0.0,
			"0.0": 0.0,
			"0.0": 0.0,
			"0.0": 0.0,
			"0.0": 0.0,
			"0.0": 0.0,
			"0.0": 0.0,
			"0.0": 0.0,
			"0.0": 0.0,
			"0.0": 0.0,
			"0.0": 0.0,
			"0.0": 0.0,
			"0.0": 0.0,
			"0.0": 0.0,
			"0.0": 0.0,
			"0.0": 0.0,
			"0.0": 0.0,
			"0.0": 0.0,
			"0.0": 0.0,
			"0.0": 0.0,
			"0.0": 0.0
		}
	}
}
