{
	 "smiles": "OC(=O)CC1=CC(I)=CC=C1", 
	 "Tm": 403.15, 
	 "num_atms": 18, 
	 "gaussian": { 
		 "optdone": 1, 
		 "sigma_profile": "no", 
		 "theory": "DFT", 
		 "functional": "B3LYP", 
		 "basiset": "6-31G**", 
		 "properties": { 
			 "R2extent": 2256.8255, 
			 "electric_dipole_moment_norm": 3.93900620208, 
			 "electric_quadrupole_moment_norm": 21.601883089, 
			 "total_energy": -470.912811648, 
			 "HOMO_LUMO_gap": 0.20214, 
			 "cosmo_polarized_energy": -99362.31, 
			 "cosmo_cavitation_energy": 25.79, 
			 "cosmo_dispersion_energy": -19.94, 
			 "cosmo_repulsion_energy": 1.59, 
			 "cosmo_total_nonelectrostatic_energy": 7.45, 
			 "SMD_solvation_energy": 4.64 
		},
		"coords": [
			{
				"x": -0.7255379008,
				"y": -2.7002608766,
				"z": 1.8112298598,
				"element": "O" 
			},
			{
				"x": 0.5313775966,
				"y": -2.9694890893,
				"z": 1.3903203801,
				"element": "C" 
			},
			{
				"x": 1.0378176225,
				"y": -4.0432316362,
				"z": 1.5948915881,
				"element": "O" 
			},
			{
				"x": 1.2853691865,
				"y": -1.8228052865,
				"z": 0.6925273174,
				"element": "C" 
			},
			{
				"x": 0.4199769148,
				"y": -0.781671902,
				"z": 0.0181153506,
				"element": "C" 
			},
			{
				"x": 0.0445463899,
				"y": 0.3830451459,
				"z": 0.7063532787,
				"element": "C" 
			},
			{
				"x": -0.7850983543,
				"y": 1.3236031772,
				"z": 0.0900128989,
				"element": "C" 
			},
			{
				"x": -1.330049321,
				"y": 3.0788195036,
				"z": 1.1467190912,
				"element": "I" 
			},
			{
				"x": -1.2511322997,
				"y": 1.1281056658,
				"z": -1.2100055132,
				"element": "C" 
			},
			{
				"x": -0.8744052129,
				"y": -0.0311054589,
				"z": -1.8937059252,
				"element": "C" 
			},
			{
				"x": -0.050553725,
				"y": -0.9777426461,
				"z": -1.2887108139,
				"element": "C" 
			},
			{
				"x": -0.9885077703,
				"y": -1.8116026465,
				"z": 1.5230845762,
				"element": "H" 
			},
			{
				"x": 1.9677151422,
				"y": -2.296210382,
				"z": -0.0171610432,
				"element": "H" 
			},
			{
				"x": 1.9108192239,
				"y": -1.3567020969,
				"z": 1.4636797791,
				"element": "H" 
			},
			{
				"x": 0.4150322524,
				"y": 0.558620924,
				"z": 1.71167122,
				"element": "H" 
			},
			{
				"x": -1.8916810855,
				"y": 1.8623530179,
				"z": -1.6848898067,
				"element": "H" 
			},
			{
				"x": -1.2299732349,
				"y": -0.1902811949,
				"z": -2.9074052498,
				"element": "H" 
			},
			{
				"x": 0.2343845755,
				"y": -1.8748442184,
				"z": -1.8313269882,
				"element": "H" 
			}
		],
		 "valence_orbital": [ 
			{
				"type": "occ",
				"energy": -0.31254,
				"method": "rhf"
			},
			{
				"type": "occ",
				"energy": -0.29165,
				"method": "rhf"
			},
			{
				"type": "occ",
				"energy": -0.28106,
				"method": "rhf"
			},
			{
				"type": "occ",
				"energy": -0.26496,
				"method": "rhf"
			},
			{
				"type": "occ",
				"energy": -0.25413,
				"method": "rhf"
			},
			{
				"type": "unocc",
				"energy": -0.05199,
				"method": "rhf"
			},
			{
				"type": "unocc",
				"energy": -0.04091,
				"method": "rhf"
			},
			{
				"type": "unocc",
				"energy": -0.03786,
				"method": "rhf"
			},
			{
				"type": "unocc",
				"energy": 0.01014,
				"method": "rhf"
			},
			{
				"type": "unocc",
				"energy": 0.03295,
				"method": "rhf"
			}
		],
		"cosmo_sigma_profile": { 
			"0.0": 0.0,
			"0.0": 0.0,
			"0.0": 0.0,
			"0.0": 0.0,
			"0.0": 0.0,
			"0.0": 0.0,
			"0.0": 0.0,
			"0.0": 0.0,
			"0.0": 0.0,
			"0.0": 0.0,
			"0.0": 0.0,
			"0.0": 0.0,
			"0.0": 0.0,
			"0.0": 0.0,
			"0.0": 0.0,
			"0.0": 0.0,
			"0.0": 0.0,
			"0.0": 0.0,
			"0.0": 0.0,
			"0.0": 0.0,
			"0.0": 0.0,
			"0.0": 0.0,
			"0.0": 0.0,
			"0.0": 0.0,
			"0.0": 0.0,
			"0.0": 0.0,
			"0.0": 0.0,
			"0.0": 0.0,
			"0.0": 0.0,
			"0.0": 0.0,
			"0.0": 0.0,
			"0.0": 0.0,
			"0.0": 0.0,
			"0.0": 0.0,
			"0.0": 0.0,
			"0.0": 0.0,
			"0.0": 0.0,
			"0.0": 0.0,
			"0.0": 0.0,
			"0.0": 0.0,
			"0.0": 0.0,
			"0.0": 0.0,
			"0.0": 0.0,
			"0.0": 0.0,
			"0.0": 0.0,
			"0.0": 0.0,
			"0.0": 0.0,
			"0.0": 0.0,
			"0.0": 0.0,
			"0.0": 0.0,
			"0.0": 0.0
		}
	}
}
