{
	 "smiles": "NC1=CC=C(C=C1)S(=O)(=O)NC1=CC=C(C=C1)S(N)(=O)=O", 
	 "Tm": 410.15, 
	 "num_atms": 34, 
	 "gaussian": { 
		 "optdone": 1, 
		 "sigma_profile": "yes", 
		 "theory": "DFT", 
		 "functional": "B3LYP", 
		 "basiset": "6-31G**", 
		 "properties": { 
			 "R2extent": 11226.4848, 
			 "electric_dipole_moment_norm": 7.04266405489, 
			 "electric_quadrupole_moment_norm": 62.4986811656, 
			 "total_energy": -1726.50272087, 
			 "HOMO_LUMO_gap": 0.19549, 
			 "cosmo_polarized_energy": -34.27, 
			 "cosmo_cavitation_energy": 41.64, 
			 "cosmo_dispersion_energy": -30.58, 
			 "cosmo_repulsion_energy": 2.26, 
			 "cosmo_total_nonelectrostatic_energy": 13.32, 
			 "SMD_solvation_energy": 5.87 
		},
		"coords": [
			{
				"x": 2.9022004914,
				"y": -3.8894397759,
				"z": -2.0857329902,
				"element": "N" 
			},
			{
				"x": 2.5531196817,
				"y": -2.5571681182,
				"z": -2.1598150811,
				"element": "C" 
			},
			{
				"x": 3.5334390235,
				"y": -1.5505028104,
				"z": -2.0178763986,
				"element": "C" 
			},
			{
				"x": 3.1798697316,
				"y": -0.2112941317,
				"z": -2.0448709302,
				"element": "C" 
			},
			{
				"x": 1.8365292804,
				"y": 0.1502095107,
				"z": -2.2044505514,
				"element": "C" 
			},
			{
				"x": 0.8531326284,
				"y": -0.8313667338,
				"z": -2.3578597718,
				"element": "C" 
			},
			{
				"x": 1.208250751,
				"y": -2.1736231346,
				"z": -2.333485833,
				"element": "C" 
			},
			{
				"x": 1.3856327725,
				"y": 1.8652349364,
				"z": -2.2941931889,
				"element": "S" 
			},
			{
				"x": 2.3144962264,
				"y": 2.5743314205,
				"z": -3.1784094254,
				"element": "O" 
			},
			{
				"x": -0.0649693993,
				"y": 1.9401450631,
				"z": -2.4760326444,
				"element": "O" 
			},
			{
				"x": 1.8173505454,
				"y": 2.4884717981,
				"z": -0.7575581755,
				"element": "N" 
			},
			{
				"x": 0.9814602919,
				"y": 2.5290727649,
				"z": 0.3718954708,
				"element": "C" 
			},
			{
				"x": 0.0573811592,
				"y": 1.5093349713,
				"z": 0.6531662059,
				"element": "C" 
			},
			{
				"x": -0.7146473163,
				"y": 1.5701627019,
				"z": 1.8077802291,
				"element": "C" 
			},
			{
				"x": -0.5671897598,
				"y": 2.6400535284,
				"z": 2.6940924643,
				"element": "C" 
			},
			{
				"x": 0.3652141127,
				"y": 3.6478263697,
				"z": 2.43640708,
				"element": "C" 
			},
			{
				"x": 1.1297816793,
				"y": 3.594123428,
				"z": 1.2770947957,
				"element": "C" 
			},
			{
				"x": -1.5909535838,
				"y": 2.7290832434,
				"z": 4.1623096862,
				"element": "S" 
			},
			{
				"x": -2.9953096949,
				"y": 3.5567218797,
				"z": 3.7368012833,
				"element": "N" 
			},
			{
				"x": -2.0231732817,
				"y": 1.3686770949,
				"z": 4.4798701203,
				"element": "O" 
			},
			{
				"x": -0.9059809909,
				"y": 3.5938396826,
				"z": 5.122383787,
				"element": "O" 
			},
			{
				"x": 3.8706099253,
				"y": -4.1276913214,
				"z": -2.2373726402,
				"element": "H" 
			},
			{
				"x": 2.2481369626,
				"y": -4.5643339469,
				"z": -2.4522772358,
				"element": "H" 
			},
			{
				"x": 4.5744973381,
				"y": -1.8324493104,
				"z": -1.8865880764,
				"element": "H" 
			},
			{
				"x": 3.942502009,
				"y": 0.5538844279,
				"z": -1.9462117627,
				"element": "H" 
			},
			{
				"x": -0.1796451558,
				"y": -0.5347467151,
				"z": -2.5048179406,
				"element": "H" 
			},
			{
				"x": 0.4437442161,
				"y": -2.9367225912,
				"z": -2.4504893238,
				"element": "H" 
			},
			{
				"x": 2.3983987702,
				"y": 3.307051557,
				"z": -0.9065544627,
				"element": "H" 
			},
			{
				"x": -0.0515380195,
				"y": 0.6684781851,
				"z": -0.019521898,
				"element": "H" 
			},
			{
				"x": -1.413815187,
				"y": 0.7735549231,
				"z": 2.0391141465,
				"element": "H" 
			},
			{
				"x": 0.4970869643,
				"y": 4.4565883183,
				"z": 3.1472100033,
				"element": "H" 
			},
			{
				"x": 1.8548819082,
				"y": 4.3772430922,
				"z": 1.0720212386,
				"element": "H" 
			},
			{
				"x": -2.8136514482,
				"y": 4.5197310705,
				"z": 3.4711148584,
				"element": "H" 
			},
			{
				"x": -3.5472426322,
				"y": 3.0570186221,
				"z": 3.0463569611,
				"element": "H" 
			}
		],
		 "valence_orbital": [ 
			{
				"type": "occ",
				"energy": -0.29819,
				"method": "rhf"
			},
			{
				"type": "occ",
				"energy": -0.27839,
				"method": "rhf"
			},
			{
				"type": "occ",
				"energy": -0.27391,
				"method": "rhf"
			},
			{
				"type": "occ",
				"energy": -0.24201,
				"method": "rhf"
			},
			{
				"type": "occ",
				"energy": -0.23002,
				"method": "rhf"
			},
			{
				"type": "unocc",
				"energy": -0.03453,
				"method": "rhf"
			},
			{
				"type": "unocc",
				"energy": -0.03407,
				"method": "rhf"
			},
			{
				"type": "unocc",
				"energy": -0.02653,
				"method": "rhf"
			},
			{
				"type": "unocc",
				"energy": -0.02376,
				"method": "rhf"
			},
			{
				"type": "unocc",
				"energy": 0.04759,
				"method": "rhf"
			}
		],
		"cosmo_sigma_profile": { 
			"-0.025": 0.0,
			"-0.024": 0.0,
			"-0.023": 0.0,
			"-0.022": 0.0,
			"-0.021": 0.0,
			"-0.02": 0.0,
			"-0.019": 0.0,
			"-0.018": 0.0,
			"-0.017": 0.0,
			"-0.016": 0.437714540794,
			"-0.015": 2.91193332134,
			"-0.014": 4.71601854183,
			"-0.013": 6.90021053702,
			"-0.012": 7.05800786225,
			"-0.011": 6.71887910802,
			"-0.01": 6.76736997525,
			"-0.009": 6.85854861304,
			"-0.008": 7.20620825994,
			"-0.007": 13.9662513037,
			"-0.006": 16.7926206115,
			"-0.005": 17.6145309742,
			"-0.004": 13.6755929139,
			"-0.003": 10.5768381464,
			"-0.002": 15.1876060994,
			"-0.001": 12.3584795189,
			"0.0": 15.5199631771,
			"0.001": 16.8591031915,
			"0.002": 24.6776108486,
			"0.003": 25.8878891379,
			"0.004": 15.2520915271,
			"0.005": 8.43288818847,
			"0.006": 6.66861929543,
			"0.007": 7.76785997119,
			"0.008": 9.08325607953,
			"0.009": 9.89622222318,
			"0.01": 15.8647679548,
			"0.011": 18.9310022212,
			"0.012": 7.41812660014,
			"0.013": 0.37641574435,
			"0.014": 0.0,
			"0.015": 0.0,
			"0.016": 0.0,
			"0.017": 0.0,
			"0.018": 0.0,
			"0.019": 0.0,
			"0.02": 0.0,
			"0.021": 0.0,
			"0.022": 0.0,
			"0.023": 0.0,
			"0.024": 0.0,
			"0.025": 0.0
		}
	}
}
