{
	 "smiles": "O=C1NC2=C(O1)C=CC=N2", 
	 "Tm": 487.15, 
	 "num_atms": 14, 
	 "gaussian": { 
		 "optdone": 1, 
		 "sigma_profile": "yes", 
		 "theory": "DFT", 
		 "functional": "B3LYP", 
		 "basiset": "6-31G**", 
		 "properties": { 
			 "R2extent": 1485.7452, 
			 "electric_dipole_moment_norm": 3.27410188601, 
			 "electric_quadrupole_moment_norm": 13.2403002043, 
			 "total_energy": -491.01260072, 
			 "HOMO_LUMO_gap": 0.19934, 
			 "cosmo_polarized_energy": -11.83, 
			 "cosmo_cavitation_energy": 18.95, 
			 "cosmo_dispersion_energy": -14.75, 
			 "cosmo_repulsion_energy": 1.19, 
			 "cosmo_total_nonelectrostatic_energy": 5.38, 
			 "SMD_solvation_energy": 2.97 
		},
		"coords": [
			{
				"x": 2.0884234382,
				"y": 2.2224819527,
				"z": 1.8744171477,
				"element": "O" 
			},
			{
				"x": 1.5719411597,
				"y": 1.285156107,
				"z": 1.3304606874,
				"element": "C" 
			},
			{
				"x": 0.3011084724,
				"y": 1.1648419897,
				"z": 0.7913247674,
				"element": "N" 
			},
			{
				"x": 0.1187561691,
				"y": -0.1031992403,
				"z": 0.2567498142,
				"element": "C" 
			},
			{
				"x": 1.3274378093,
				"y": -0.7768837614,
				"z": 0.4815512565,
				"element": "C" 
			},
			{
				"x": 2.2083784099,
				"y": 0.0538934192,
				"z": 1.1285559692,
				"element": "O" 
			},
			{
				"x": 1.4776432257,
				"y": -2.0801004369,
				"z": 0.063677449,
				"element": "C" 
			},
			{
				"x": 0.3537013238,
				"y": -2.6351653768,
				"z": -0.5772562732,
				"element": "C" 
			},
			{
				"x": -0.8041844997,
				"y": -1.8769114356,
				"z": -0.7513178379,
				"element": "C" 
			},
			{
				"x": -0.9471822421,
				"y": -0.5972766076,
				"z": -0.3392697881,
				"element": "N" 
			},
			{
				"x": -0.3703813264,
				"y": 1.9167873745,
				"z": 0.8045065535,
				"element": "H" 
			},
			{
				"x": 2.3956149295,
				"y": -2.6357279534,
				"z": 0.2183125649,
				"element": "H" 
			},
			{
				"x": 0.3838253098,
				"y": -3.6571629565,
				"z": -0.9391128695,
				"element": "H" 
			},
			{
				"x": -1.6688821793,
				"y": -2.3102330747,
				"z": -1.2466994412,
				"element": "H" 
			}
		],
		 "valence_orbital": [ 
			{
				"type": "occ",
				"energy": -0.33526,
				"method": "rhf"
			},
			{
				"type": "occ",
				"energy": -0.3024,
				"method": "rhf"
			},
			{
				"type": "occ",
				"energy": -0.29165,
				"method": "rhf"
			},
			{
				"type": "occ",
				"energy": -0.28436,
				"method": "rhf"
			},
			{
				"type": "occ",
				"energy": -0.23947,
				"method": "rhf"
			},
			{
				"type": "unocc",
				"energy": -0.04013,
				"method": "rhf"
			},
			{
				"type": "unocc",
				"energy": -0.01189,
				"method": "rhf"
			},
			{
				"type": "unocc",
				"energy": 0.0378,
				"method": "rhf"
			},
			{
				"type": "unocc",
				"energy": 0.0713,
				"method": "rhf"
			},
			{
				"type": "unocc",
				"energy": 0.09048,
				"method": "rhf"
			}
		],
		"cosmo_sigma_profile": { 
			"-0.025": 0.0,
			"-0.024": 0.0,
			"-0.023": 0.0,
			"-0.022": 0.0,
			"-0.021": 0.0,
			"-0.02": 0.0,
			"-0.019": 0.0,
			"-0.018": 0.448826531105,
			"-0.017": 1.35945508605,
			"-0.016": 1.24872337402,
			"-0.015": 1.32276263778,
			"-0.014": 0.926522266688,
			"-0.013": 0.200577570932,
			"-0.012": 1.27752971075,
			"-0.011": 0.933615145258,
			"-0.01": 0.511099780132,
			"-0.009": 2.06209005392,
			"-0.008": 2.9628219182,
			"-0.007": 6.63423324926,
			"-0.006": 9.72790159005,
			"-0.005": 7.98765460192,
			"-0.004": 9.31861335069,
			"-0.003": 8.70009766812,
			"-0.002": 9.94176612094,
			"-0.001": 10.1378023895,
			"0.0": 11.361102499,
			"0.001": 9.86265186403,
			"0.002": 9.91536647542,
			"0.003": 5.69896596136,
			"0.004": 4.31135951334,
			"0.005": 3.85261457411,
			"0.006": 4.14276410376,
			"0.007": 4.21486697422,
			"0.008": 3.53155733637,
			"0.009": 3.26376414232,
			"0.01": 3.39524689592,
			"0.011": 7.40689015674,
			"0.012": 4.49361177691,
			"0.013": 1.00611700651,
			"0.014": 0.647534006659,
			"0.015": 0.51081175993,
			"0.016": 0.0,
			"0.017": 0.0,
			"0.018": 0.0,
			"0.019": 0.0,
			"0.02": 0.0,
			"0.021": 0.0,
			"0.022": 0.0,
			"0.023": 0.0,
			"0.024": 0.0,
			"0.025": 0.0
		}
	}
}
