{
	 "smiles": "OC(=O)C1CCCCC1C(=O)C1=CC=CC=C1", 
	 "Tm": 425.15, 
	 "num_atms": 33, 
	 "gaussian": { 
		 "optdone": 1, 
		 "sigma_profile": "yes", 
		 "theory": "DFT", 
		 "functional": "B3LYP", 
		 "basiset": "6-31G**", 
		 "properties": { 
			 "R2extent": 4399.8507, 
			 "electric_dipole_moment_norm": 2.16930585442, 
			 "electric_quadrupole_moment_norm": 11.1952535081, 
			 "total_energy": -768.836389673, 
			 "HOMO_LUMO_gap": 0.18855, 
			 "cosmo_polarized_energy": -13.59, 
			 "cosmo_cavitation_energy": 34.32, 
			 "cosmo_dispersion_energy": -24.55, 
			 "cosmo_repulsion_energy": 1.91, 
			 "cosmo_total_nonelectrostatic_energy": 11.68, 
			 "SMD_solvation_energy": 6.51 
		},
		"coords": [
			{
				"x": -1.3278902646,
				"y": 3.6650659228,
				"z": 0.0309189704,
				"element": "O" 
			},
			{
				"x": -1.1482213905,
				"y": 2.4056396766,
				"z": -0.4309619437,
				"element": "C" 
			},
			{
				"x": -2.04828373,
				"y": 1.7739128146,
				"z": -0.9439916553,
				"element": "O" 
			},
			{
				"x": 0.2883057151,
				"y": 1.9256769743,
				"z": -0.2975902232,
				"element": "C" 
			},
			{
				"x": 1.0281234058,
				"y": 2.4662577915,
				"z": 0.9447085834,
				"element": "C" 
			},
			{
				"x": 2.4692320349,
				"y": 1.9390931913,
				"z": 1.0026162971,
				"element": "C" 
			},
			{
				"x": 2.5149557129,
				"y": 0.4069676704,
				"z": 0.9248114957,
				"element": "C" 
			},
			{
				"x": 1.8207385884,
				"y": -0.1019523577,
				"z": -0.3465156265,
				"element": "C" 
			},
			{
				"x": 0.3514064529,
				"y": 0.3887641955,
				"z": -0.4589444363,
				"element": "C" 
			},
			{
				"x": -0.5385697083,
				"y": -0.3502463158,
				"z": 0.5460852297,
				"element": "C" 
			},
			{
				"x": -0.8695573595,
				"y": 0.1718204844,
				"z": 1.6031502345,
				"element": "O" 
			},
			{
				"x": -0.9681422877,
				"y": -1.7593578624,
				"z": 0.2461234728,
				"element": "C" 
			},
			{
				"x": -0.718625636,
				"y": -2.408268943,
				"z": -0.9736329059,
				"element": "C" 
			},
			{
				"x": -1.153271988,
				"y": -3.7176746625,
				"z": -1.1800530039,
				"element": "C" 
			},
			{
				"x": -1.8413797771,
				"y": -4.394400939,
				"z": -0.1717935333,
				"element": "C" 
			},
			{
				"x": -2.096647596,
				"y": -3.7570656922,
				"z": 1.0462167797,
				"element": "C" 
			},
			{
				"x": -1.664045892,
				"y": -2.4510593494,
				"z": 1.2517640125,
				"element": "C" 
			},
			{
				"x": -2.2641698982,
				"y": 3.8730644986,
				"z": -0.1276906401,
				"element": "H" 
			},
			{
				"x": 0.797633906,
				"y": 2.3452344122,
				"z": -1.1812217702,
				"element": "H" 
			},
			{
				"x": 1.0247060991,
				"y": 3.5597206788,
				"z": 0.9156782507,
				"element": "H" 
			},
			{
				"x": 0.4837516838,
				"y": 2.1597144356,
				"z": 1.840889596,
				"element": "H" 
			},
			{
				"x": 2.9523168934,
				"y": 2.288135746,
				"z": 1.9225780121,
				"element": "H" 
			},
			{
				"x": 3.0497621061,
				"y": 2.3588967067,
				"z": 0.1676333276,
				"element": "H" 
			},
			{
				"x": 2.0240041442,
				"y": -0.0176301025,
				"z": 1.8097633603,
				"element": "H" 
			},
			{
				"x": 3.5528376469,
				"y": 0.0539865374,
				"z": 0.9405024763,
				"element": "H" 
			},
			{
				"x": 1.8528717809,
				"y": -1.1957781569,
				"z": -0.3909757517,
				"element": "H" 
			},
			{
				"x": 2.3677417658,
				"y": 0.2632276032,
				"z": -1.2265432378,
				"element": "H" 
			},
			{
				"x": -0.0204233863,
				"y": 0.1510046182,
				"z": -1.4596958734,
				"element": "H" 
			},
			{
				"x": -0.1915961711,
				"y": -1.8981620756,
				"z": -1.7724807991,
				"element": "H" 
			},
			{
				"x": -0.9572224046,
				"y": -4.2074682738,
				"z": -2.1293659462,
				"element": "H" 
			},
			{
				"x": -2.1797660857,
				"y": -5.4137897938,
				"z": -0.3347666867,
				"element": "H" 
			},
			{
				"x": -2.6338230622,
				"y": -4.2803365249,
				"z": 1.8320054073,
				"element": "H" 
			},
			{
				"x": -1.8543512983,
				"y": -1.9347929087,
				"z": 2.1864785271,
				"element": "H" 
			}
		],
		 "valence_orbital": [ 
			{
				"type": "occ",
				"energy": -0.30571,
				"method": "rhf"
			},
			{
				"type": "occ",
				"energy": -0.2676,
				"method": "rhf"
			},
			{
				"type": "occ",
				"energy": -0.25832,
				"method": "rhf"
			},
			{
				"type": "occ",
				"energy": -0.25549,
				"method": "rhf"
			},
			{
				"type": "occ",
				"energy": -0.24252,
				"method": "rhf"
			},
			{
				"type": "unocc",
				"energy": -0.05397,
				"method": "rhf"
			},
			{
				"type": "unocc",
				"energy": -0.0074,
				"method": "rhf"
			},
			{
				"type": "unocc",
				"energy": 0.01601,
				"method": "rhf"
			},
			{
				"type": "unocc",
				"energy": 0.04043,
				"method": "rhf"
			},
			{
				"type": "unocc",
				"energy": 0.07631,
				"method": "rhf"
			}
		],
		"cosmo_sigma_profile": { 
			"-0.025": 0.0,
			"-0.024": 0.0,
			"-0.023": 0.0,
			"-0.022": 0.0,
			"-0.021": 0.0,
			"-0.02": 0.0,
			"-0.019": 0.0159966523298,
			"-0.018": 0.526959392456,
			"-0.017": 0.828517340276,
			"-0.016": 1.18658838226,
			"-0.015": 0.922679723765,
			"-0.014": 0.302951034422,
			"-0.013": 0.369331002424,
			"-0.012": 0.424825609998,
			"-0.011": 1.31347431058,
			"-0.01": 0.856016212684,
			"-0.009": 0.587887654479,
			"-0.008": 0.707430119273,
			"-0.007": 4.64116054599,
			"-0.006": 12.5797615352,
			"-0.005": 16.7715150633,
			"-0.004": 17.2407179801,
			"-0.003": 22.0123801882,
			"-0.002": 27.0838901846,
			"-0.001": 26.9934221338,
			"0.0": 26.6227599619,
			"0.001": 18.154054041,
			"0.002": 13.4770219039,
			"0.003": 16.8500715643,
			"0.004": 16.6807573724,
			"0.005": 7.79094535804,
			"0.006": 5.12068986246,
			"0.007": 5.75781742201,
			"0.008": 5.57483087151,
			"0.009": 3.9627746069,
			"0.01": 3.59237658329,
			"0.011": 4.83163266375,
			"0.012": 5.56856561849,
			"0.013": 0.301809482917,
			"0.014": 0.0,
			"0.015": 0.0,
			"0.016": 0.0,
			"0.017": 0.0,
			"0.018": 0.0,
			"0.019": 0.0,
			"0.02": 0.0,
			"0.021": 0.0,
			"0.022": 0.0,
			"0.023": 0.0,
			"0.024": 0.0,
			"0.025": 0.0
		}
	}
}
