{
	 "smiles": "OC(=O)C1CC2=C(S1)C=CC=C2", 
	 "Tm": 381.15, 
	 "num_atms": 20, 
	 "gaussian": { 
		 "optdone": 1, 
		 "sigma_profile": "yes", 
		 "theory": "DFT", 
		 "functional": "B3LYP", 
		 "basiset": "6-31G**", 
		 "properties": { 
			 "R2extent": 3183.8124, 
			 "electric_dipole_moment_norm": 3.55054262613, 
			 "electric_quadrupole_moment_norm": 16.6569510043, 
			 "total_energy": -896.428171656, 
			 "HOMO_LUMO_gap": 0.20856, 
			 "cosmo_polarized_energy": -11.42, 
			 "cosmo_cavitation_energy": 24.94, 
			 "cosmo_dispersion_energy": -19.0, 
			 "cosmo_repulsion_energy": 1.46, 
			 "cosmo_total_nonelectrostatic_energy": 7.4, 
			 "SMD_solvation_energy": 4.68 
		},
		"coords": [
			{
				"x": -2.2962102166,
				"y": -3.2423625396,
				"z": 1.1771750513,
				"element": "O" 
			},
			{
				"x": -2.937852115,
				"y": -2.5533202693,
				"z": 0.2237224063,
				"element": "C" 
			},
			{
				"x": -4.0597491308,
				"y": -2.1335128695,
				"z": 0.3790753466,
				"element": "O" 
			},
			{
				"x": -2.2094949303,
				"y": -2.3452477606,
				"z": -1.1254295362,
				"element": "C" 
			},
			{
				"x": -2.2857718687,
				"y": -0.8706160879,
				"z": -1.5778262939,
				"element": "C" 
			},
			{
				"x": -1.0327998384,
				"y": -0.189617073,
				"z": -1.0769024832,
				"element": "C" 
			},
			{
				"x": 0.0288395127,
				"y": -1.0671674562,
				"z": -0.812951135,
				"element": "C" 
			},
			{
				"x": -0.4064596258,
				"y": -2.7802413545,
				"z": -1.0970985063,
				"element": "S" 
			},
			{
				"x": 1.274985626,
				"y": -0.6060314723,
				"z": -0.3942187224,
				"element": "C" 
			},
			{
				"x": 1.4558198206,
				"y": 0.7704603641,
				"z": -0.2326721227,
				"element": "C" 
			},
			{
				"x": 0.406723003,
				"y": 1.6582363208,
				"z": -0.4820750557,
				"element": "C" 
			},
			{
				"x": -0.8372605682,
				"y": 1.1798635621,
				"z": -0.9044053852,
				"element": "C" 
			},
			{
				"x": -1.3856145537,
				"y": -3.4240907331,
				"z": 0.8698793452,
				"element": "H" 
			},
			{
				"x": -2.6992426021,
				"y": -3.0069088579,
				"z": -1.8446938855,
				"element": "H" 
			},
			{
				"x": -3.2067928844,
				"y": -0.4246240377,
				"z": -1.1935907858,
				"element": "H" 
			},
			{
				"x": -2.3225591147,
				"y": -0.8231118679,
				"z": -2.6736415584,
				"element": "H" 
			},
			{
				"x": 2.0860833096,
				"y": -1.2977064278,
				"z": -0.1891057034,
				"element": "H" 
			},
			{
				"x": 2.4186589639,
				"y": 1.14736665,
				"z": 0.0992357164,
				"element": "H" 
			},
			{
				"x": 0.5552039279,
				"y": 2.7247378492,
				"z": -0.3432603282,
				"element": "H" 
			},
			{
				"x": -1.6524067149,
				"y": 1.8720940607,
				"z": -1.0972163638,
				"element": "H" 
			}
		],
		 "valence_orbital": [ 
			{
				"type": "occ",
				"energy": -0.31717,
				"method": "rhf"
			},
			{
				"type": "occ",
				"energy": -0.30831,
				"method": "rhf"
			},
			{
				"type": "occ",
				"energy": -0.27543,
				"method": "rhf"
			},
			{
				"type": "occ",
				"energy": -0.26028,
				"method": "rhf"
			},
			{
				"type": "occ",
				"energy": -0.2293,
				"method": "rhf"
			},
			{
				"type": "unocc",
				"energy": -0.02074,
				"method": "rhf"
			},
			{
				"type": "unocc",
				"energy": -0.01579,
				"method": "rhf"
			},
			{
				"type": "unocc",
				"energy": -0.00416,
				"method": "rhf"
			},
			{
				"type": "unocc",
				"energy": 0.00764,
				"method": "rhf"
			},
			{
				"type": "unocc",
				"energy": 0.06339,
				"method": "rhf"
			}
		],
		"cosmo_sigma_profile": { 
			"-0.025": 0.0,
			"-0.024": 0.0,
			"-0.023": 0.0,
			"-0.022": 0.0,
			"-0.021": 0.0,
			"-0.02": 0.0,
			"-0.019": 0.0,
			"-0.018": 0.0,
			"-0.017": 0.0,
			"-0.016": 0.0,
			"-0.015": 0.0,
			"-0.014": 0.0,
			"-0.013": 0.426225850247,
			"-0.012": 0.729627633539,
			"-0.011": 0.584549848277,
			"-0.01": 2.52287767582,
			"-0.009": 4.45769382636,
			"-0.008": 3.876830043,
			"-0.007": 4.70967240468,
			"-0.006": 13.2768188618,
			"-0.005": 15.9192872581,
			"-0.004": 16.856579626,
			"-0.003": 15.4665190784,
			"-0.002": 12.650522692,
			"-0.001": 9.37699599436,
			"0.0": 10.820371488,
			"0.001": 10.650966123,
			"0.002": 12.2000504616,
			"0.003": 13.470286919,
			"0.004": 10.9559516559,
			"0.005": 12.2545439467,
			"0.006": 4.83359309101,
			"0.007": 3.78855540452,
			"0.008": 3.45425821802,
			"0.009": 3.62571663527,
			"0.01": 4.8030153924,
			"0.011": 4.59159101143,
			"0.012": 3.97707232839,
			"0.013": 0.929847780062,
			"0.014": 0.0,
			"0.015": 0.0,
			"0.016": 0.0,
			"0.017": 0.0,
			"0.018": 0.0,
			"0.019": 0.0,
			"0.02": 0.0,
			"0.021": 0.0,
			"0.022": 0.0,
			"0.023": 0.0,
			"0.024": 0.0,
			"0.025": 0.0
		}
	}
}
