{
	 "smiles": "NC(=O)CC#N", 
	 "Tm": 394.15, 
	 "num_atms": 10, 
	 "gaussian": { 
		 "optdone": 1, 
		 "sigma_profile": "yes", 
		 "theory": "DFT", 
		 "functional": "B3LYP", 
		 "basiset": "6-31G**", 
		 "properties": { 
			 "R2extent": 790.3691, 
			 "electric_dipole_moment_norm": 0.871106790239, 
			 "electric_quadrupole_moment_norm": 14.9106802544, 
			 "total_energy": -301.45184662, 
			 "HOMO_LUMO_gap": 0.27885, 
			 "cosmo_polarized_energy": -14.41, 
			 "cosmo_cavitation_energy": 15.26, 
			 "cosmo_dispersion_energy": -10.85, 
			 "cosmo_repulsion_energy": 0.97, 
			 "cosmo_total_nonelectrostatic_energy": 5.39, 
			 "SMD_solvation_energy": 5.11 
		},
		"coords": [
			{
				"x": -1.0181544566,
				"y": 1.918635896,
				"z": -1.2473110625,
				"element": "N" 
			},
			{
				"x": -1.1699969353,
				"y": 0.5774794887,
				"z": -1.1133570043,
				"element": "C" 
			},
			{
				"x": -1.6698945779,
				"y": -0.1490339006,
				"z": -1.9533635698,
				"element": "O" 
			},
			{
				"x": -0.6615774014,
				"y": -0.0415231437,
				"z": 0.2129568701,
				"element": "C" 
			},
			{
				"x": -0.0750457191,
				"y": 0.8926273282,
				"z": 1.1695482486,
				"element": "C" 
			},
			{
				"x": 0.3794212115,
				"y": 1.6849469655,
				"z": 1.8869618245,
				"element": "N" 
			},
			{
				"x": -1.3414954152,
				"y": 2.3459269295,
				"z": -2.1018967943,
				"element": "H" 
			},
			{
				"x": -0.599515144,
				"y": 2.493210925,
				"z": -0.532202859,
				"element": "H" 
			},
			{
				"x": 0.070794657,
				"y": -0.8108106394,
				"z": -0.0523112617,
				"element": "H" 
			},
			{
				"x": -1.510636219,
				"y": -0.5587598492,
				"z": 0.6713756084,
				"element": "H" 
			}
		],
		 "valence_orbital": [ 
			{
				"type": "occ",
				"energy": -0.37705,
				"method": "rhf"
			},
			{
				"type": "occ",
				"energy": -0.35398,
				"method": "rhf"
			},
			{
				"type": "occ",
				"energy": -0.34257,
				"method": "rhf"
			},
			{
				"type": "occ",
				"energy": -0.28763,
				"method": "rhf"
			},
			{
				"type": "occ",
				"energy": -0.27139,
				"method": "rhf"
			},
			{
				"type": "unocc",
				"energy": 0.00746,
				"method": "rhf"
			},
			{
				"type": "unocc",
				"energy": 0.01248,
				"method": "rhf"
			},
			{
				"type": "unocc",
				"energy": 0.02452,
				"method": "rhf"
			},
			{
				"type": "unocc",
				"energy": 0.06666,
				"method": "rhf"
			},
			{
				"type": "unocc",
				"energy": 0.10366,
				"method": "rhf"
			}
		],
		"cosmo_sigma_profile": { 
			"-0.025": 0.0,
			"-0.024": 0.0,
			"-0.023": 0.0,
			"-0.022": 0.0,
			"-0.021": 0.0,
			"-0.02": 0.0,
			"-0.019": 0.0,
			"-0.018": 0.0,
			"-0.017": 0.0,
			"-0.016": 0.0,
			"-0.015": 0.548704905136,
			"-0.014": 2.11052122261,
			"-0.013": 1.55701391133,
			"-0.012": 1.89142972983,
			"-0.011": 2.3984276224,
			"-0.01": 6.9903130808,
			"-0.009": 6.68321258798,
			"-0.008": 5.65448722853,
			"-0.007": 6.04012626345,
			"-0.006": 6.72108361623,
			"-0.005": 5.6395541553,
			"-0.004": 4.36814842867,
			"-0.003": 4.99123137784,
			"-0.002": 3.31798528845,
			"-0.001": 2.50895293191,
			"0.0": 3.71858689594,
			"0.001": 4.9739176668,
			"0.002": 4.96950627037,
			"0.003": 3.40983449057,
			"0.004": 2.98425546121,
			"0.005": 3.81253023117,
			"0.006": 2.73214139453,
			"0.007": 3.78023747144,
			"0.008": 3.5763627432,
			"0.009": 4.91055241257,
			"0.01": 3.94058886526,
			"0.011": 4.12831393489,
			"0.012": 5.54898969191,
			"0.013": 6.6654906034,
			"0.014": 1.56041061828,
			"0.015": 0.0,
			"0.016": 0.0,
			"0.017": 0.0,
			"0.018": 0.0,
			"0.019": 0.0,
			"0.02": 0.0,
			"0.021": 0.0,
			"0.022": 0.0,
			"0.023": 0.0,
			"0.024": 0.0,
			"0.025": 0.0
		}
	}
}
