{
	 "smiles": "CCOCCCO", 
	 "Tm": 433.15, 
	 "num_atms": 19, 
	 "gaussian": { 
		 "optdone": 1, 
		 "sigma_profile": "yes", 
		 "theory": "DFT", 
		 "functional": "B3LYP", 
		 "basiset": "6-31G**", 
		 "properties": { 
			 "R2extent": 1691.1718, 
			 "electric_dipole_moment_norm": 0.827157064892, 
			 "electric_quadrupole_moment_norm": 8.16705200975, 
			 "total_energy": -348.190036288, 
			 "HOMO_LUMO_gap": 0.30979, 
			 "cosmo_polarized_energy": -8.83, 
			 "cosmo_cavitation_energy": 21.25, 
			 "cosmo_dispersion_energy": -15.59, 
			 "cosmo_repulsion_energy": 1.36, 
			 "cosmo_total_nonelectrostatic_energy": 7.02, 
			 "SMD_solvation_energy": 3.76 
		},
		"coords": [
			{
				"x": -1.6574706664,
				"y": -1.5962149619,
				"z": -0.4406461108,
				"element": "C" 
			},
			{
				"x": -1.5557156899,
				"y": -0.5011379972,
				"z": -1.5005991931,
				"element": "C" 
			},
			{
				"x": -0.2410178785,
				"y": 0.0384712115,
				"z": -1.5984037831,
				"element": "O" 
			},
			{
				"x": 0.0472623441,
				"y": 1.0874408086,
				"z": -0.6857267768,
				"element": "C" 
			},
			{
				"x": -0.3505747185,
				"y": 2.4631666238,
				"z": -1.2278951359,
				"element": "C" 
			},
			{
				"x": 0.0072121519,
				"y": 3.6138181673,
				"z": -0.2829853192,
				"element": "C" 
			},
			{
				"x": -0.7292090051,
				"y": 3.5926445249,
				"z": 0.9371275334,
				"element": "O" 
			},
			{
				"x": -1.4465988201,
				"y": -1.2076560146,
				"z": 0.5611662027,
				"element": "H" 
			},
			{
				"x": -2.6656997301,
				"y": -2.0248977145,
				"z": -0.4266749634,
				"element": "H" 
			},
			{
				"x": -0.9426356125,
				"y": -2.3968422602,
				"z": -0.652147665,
				"element": "H" 
			},
			{
				"x": -1.7826743425,
				"y": -0.9146824087,
				"z": -2.4893473834,
				"element": "H" 
			},
			{
				"x": -2.2922255601,
				"y": 0.2926508218,
				"z": -1.3053954429,
				"element": "H" 
			},
			{
				"x": 1.1310007072,
				"y": 1.0554801997,
				"z": -0.5139848954,
				"element": "H" 
			},
			{
				"x": -0.4417612126,
				"y": 0.9065808861,
				"z": 0.2844222039,
				"element": "H" 
			},
			{
				"x": 0.1539418312,
				"y": 2.6156617931,
				"z": -2.1901292107,
				"element": "H" 
			},
			{
				"x": -1.4298696371,
				"y": 2.4903574335,
				"z": -1.4188836649,
				"element": "H" 
			},
			{
				"x": 1.0927482805,
				"y": 3.6218341421,
				"z": -0.0902589924,
				"element": "H" 
			},
			{
				"x": -0.2382228789,
				"y": 4.5681744442,
				"z": -0.7593516161,
				"element": "H" 
			},
			{
				"x": -0.3689895625,
				"y": 2.8927503007,
				"z": 1.4946142131,
				"element": "H" 
			}
		],
		 "valence_orbital": [ 
			{
				"type": "occ",
				"energy": -0.3467,
				"method": "rhf"
			},
			{
				"type": "occ",
				"energy": -0.32701,
				"method": "rhf"
			},
			{
				"type": "occ",
				"energy": -0.30153,
				"method": "rhf"
			},
			{
				"type": "occ",
				"energy": -0.27099,
				"method": "rhf"
			},
			{
				"type": "occ",
				"energy": -0.24536,
				"method": "rhf"
			},
			{
				"type": "unocc",
				"energy": 0.06443,
				"method": "rhf"
			},
			{
				"type": "unocc",
				"energy": 0.08946,
				"method": "rhf"
			},
			{
				"type": "unocc",
				"energy": 0.11157,
				"method": "rhf"
			},
			{
				"type": "unocc",
				"energy": 0.12568,
				"method": "rhf"
			},
			{
				"type": "unocc",
				"energy": 0.13381,
				"method": "rhf"
			}
		],
		"cosmo_sigma_profile": { 
			"-0.025": 0.0,
			"-0.024": 0.0,
			"-0.023": 0.0,
			"-0.022": 0.0,
			"-0.021": 0.0,
			"-0.02": 0.0,
			"-0.019": 0.0,
			"-0.018": 0.0,
			"-0.017": 0.0,
			"-0.016": 0.0,
			"-0.015": 0.500842353846,
			"-0.014": 1.02164190235,
			"-0.013": 1.22524450217,
			"-0.012": 0.551637860378,
			"-0.011": 1.25603940495,
			"-0.01": 1.09123172391,
			"-0.009": 1.36173449498,
			"-0.008": 0.663157011941,
			"-0.007": 1.2526729825,
			"-0.006": 1.65894340598,
			"-0.005": 2.3106656401,
			"-0.004": 16.8044506995,
			"-0.003": 24.6920415342,
			"-0.002": 24.2434672245,
			"-0.001": 19.9997901819,
			"0.0": 14.7553490863,
			"0.001": 10.5577093635,
			"0.002": 5.3843758432,
			"0.003": 3.43646751868,
			"0.004": 3.30561245695,
			"0.005": 2.3318069709,
			"0.006": 2.5656276087,
			"0.007": 2.35992751555,
			"0.008": 3.11597906767,
			"0.009": 2.14340702141,
			"0.01": 1.98220861922,
			"0.011": 2.5022145601,
			"0.012": 2.94210860762,
			"0.013": 2.74539901509,
			"0.014": 3.71753722936,
			"0.015": 1.41863491146,
			"0.016": 0.0,
			"0.017": 0.0,
			"0.018": 0.0,
			"0.019": 0.0,
			"0.02": 0.0,
			"0.021": 0.0,
			"0.022": 0.0,
			"0.023": 0.0,
			"0.024": 0.0,
			"0.025": 0.0
		}
	}
}
