{
	 "smiles": "CC1=C(OC(=O)OC2=C(C)C=CC=C2)C=CC=C1", 
	 "Tm": 333.15, 
	 "num_atms": 32, 
	 "gaussian": { 
		 "optdone": 1, 
		 "sigma_profile": "yes", 
		 "theory": "DFT", 
		 "functional": "B3LYP", 
		 "basiset": "6-31G**", 
		 "properties": { 
			 "R2extent": 6354.2907, 
			 "electric_dipole_moment_norm": 0.494382402599, 
			 "electric_quadrupole_moment_norm": 14.7907190948, 
			 "total_energy": -805.724433166, 
			 "HOMO_LUMO_gap": 0.23507, 
			 "cosmo_polarized_energy": -9.87, 
			 "cosmo_cavitation_energy": 36.57, 
			 "cosmo_dispersion_energy": -25.28, 
			 "cosmo_repulsion_energy": 1.94, 
			 "cosmo_total_nonelectrostatic_energy": 13.23, 
			 "SMD_solvation_energy": 7.44 
		},
		"coords": [
			{
				"x": -0.8666608325,
				"y": -2.0756382461,
				"z": -0.3489955816,
				"element": "C" 
			},
			{
				"x": -0.0098579479,
				"y": -2.2682903902,
				"z": 0.8754912767,
				"element": "C" 
			},
			{
				"x": 0.7739484807,
				"y": -1.2297609494,
				"z": 1.3916751525,
				"element": "C" 
			},
			{
				"x": 0.8513920838,
				"y": 0.0000317144,
				"z": 0.7142243868,
				"element": "O" 
			},
			{
				"x": -0.1702326296,
				"y": 0.8706726598,
				"z": 0.8756353592,
				"element": "C" 
			},
			{
				"x": -1.1823225111,
				"y": 0.6905488934,
				"z": 1.5031192994,
				"element": "O" 
			},
			{
				"x": 0.1712540968,
				"y": 1.9823398054,
				"z": 0.186171808,
				"element": "O" 
			},
			{
				"x": -0.7044359147,
				"y": 3.0810462415,
				"z": 0.2440623191,
				"element": "C" 
			},
			{
				"x": -1.8546965011,
				"y": 3.1059716224,
				"z": -0.5532025834,
				"element": "C" 
			},
			{
				"x": -2.2448238303,
				"y": 1.9304377824,
				"z": -1.41138532,
				"element": "C" 
			},
			{
				"x": -2.6272928078,
				"y": 4.2736417961,
				"z": -0.5086594525,
				"element": "C" 
			},
			{
				"x": -2.2679055954,
				"y": 5.3609026842,
				"z": 0.2888725958,
				"element": "C" 
			},
			{
				"x": -1.1102910365,
				"y": 5.3041596289,
				"z": 1.0651010404,
				"element": "C" 
			},
			{
				"x": -0.3209997433,
				"y": 4.1544332928,
				"z": 1.0401999293,
				"element": "C" 
			},
			{
				"x": 1.5763767836,
				"y": -1.3843538834,
				"z": 2.516489367,
				"element": "C" 
			},
			{
				"x": 1.6025737943,
				"y": -2.6139021187,
				"z": 3.1745263559,
				"element": "C" 
			},
			{
				"x": 0.8279011158,
				"y": -3.6689560629,
				"z": 2.6922793127,
				"element": "C" 
			},
			{
				"x": 0.0369599202,
				"y": -3.4916206615,
				"z": 1.5563627717,
				"element": "C" 
			},
			{
				"x": -1.2288714816,
				"y": -3.0357240531,
				"z": -0.7248993143,
				"element": "H" 
			},
			{
				"x": -0.3105004695,
				"y": -1.5802327462,
				"z": -1.1513756575,
				"element": "H" 
			},
			{
				"x": -1.7363994585,
				"y": -1.4506909408,
				"z": -0.1181736713,
				"element": "H" 
			},
			{
				"x": -1.3905387573,
				"y": 1.5517058388,
				"z": -1.9817397987,
				"element": "H" 
			},
			{
				"x": -2.6174722714,
				"y": 1.1067334151,
				"z": -0.792591821,
				"element": "H" 
			},
			{
				"x": -3.032073249,
				"y": 2.2082935838,
				"z": -2.1165808328,
				"element": "H" 
			},
			{
				"x": -3.5267214899,
				"y": 4.3255962728,
				"z": -1.1166481653,
				"element": "H" 
			},
			{
				"x": -2.888677142,
				"y": 6.2518486603,
				"z": 0.298354424,
				"element": "H" 
			},
			{
				"x": -0.8195249206,
				"y": 6.1465265545,
				"z": 1.6851819236,
				"element": "H" 
			},
			{
				"x": 0.5901198177,
				"y": 4.0783656014,
				"z": 1.6245105055,
				"element": "H" 
			},
			{
				"x": 2.1721040135,
				"y": -0.5444326722,
				"z": 2.8585174959,
				"element": "H" 
			},
			{
				"x": 2.2249307861,
				"y": -2.7432174021,
				"z": 4.0546241717,
				"element": "H" 
			},
			{
				"x": 0.8423771197,
				"y": -4.6314221628,
				"z": 3.1949536671,
				"element": "H" 
			},
			{
				"x": -0.559639422,
				"y": -4.3189137587,
				"z": 1.180899036,
				"element": "H" 
			}
		],
		 "valence_orbital": [ 
			{
				"type": "occ",
				"energy": -0.29257,
				"method": "rhf"
			},
			{
				"type": "occ",
				"energy": -0.25226,
				"method": "rhf"
			},
			{
				"type": "occ",
				"energy": -0.25097,
				"method": "rhf"
			},
			{
				"type": "occ",
				"energy": -0.24559,
				"method": "rhf"
			},
			{
				"type": "occ",
				"energy": -0.24224,
				"method": "rhf"
			},
			{
				"type": "unocc",
				"energy": -0.00717,
				"method": "rhf"
			},
			{
				"type": "unocc",
				"energy": -0.00549,
				"method": "rhf"
			},
			{
				"type": "unocc",
				"energy": -0.00359,
				"method": "rhf"
			},
			{
				"type": "unocc",
				"energy": -0.00023,
				"method": "rhf"
			},
			{
				"type": "unocc",
				"energy": 0.03427,
				"method": "rhf"
			}
		],
		"cosmo_sigma_profile": { 
			"-0.025": 0.0,
			"-0.024": 0.0,
			"-0.023": 0.0,
			"-0.022": 0.0,
			"-0.021": 0.0,
			"-0.02": 0.0,
			"-0.019": 0.0,
			"-0.018": 0.0,
			"-0.017": 0.0,
			"-0.016": 0.0,
			"-0.015": 0.0,
			"-0.014": 0.0,
			"-0.013": 0.0,
			"-0.012": 0.0,
			"-0.011": 0.0,
			"-0.01": 0.0,
			"-0.009": 0.0,
			"-0.008": 0.0,
			"-0.007": 2.94881471777,
			"-0.006": 14.9527886102,
			"-0.005": 24.6395232214,
			"-0.004": 27.759849029,
			"-0.003": 28.2190211713,
			"-0.002": 24.5728418305,
			"-0.001": 23.2807209217,
			"0.0": 25.6092360054,
			"0.001": 17.7622070474,
			"0.002": 18.6898675846,
			"0.003": 18.2651983769,
			"0.004": 20.7116686384,
			"0.005": 18.5264965848,
			"0.006": 5.23914120516,
			"0.007": 4.53679996422,
			"0.008": 5.06669369511,
			"0.009": 3.40221951234,
			"0.01": 2.97481963306,
			"0.011": 4.13807315353,
			"0.012": 0.368046676201,
			"0.013": 0.0,
			"0.014": 0.0,
			"0.015": 0.0,
			"0.016": 0.0,
			"0.017": 0.0,
			"0.018": 0.0,
			"0.019": 0.0,
			"0.02": 0.0,
			"0.021": 0.0,
			"0.022": 0.0,
			"0.023": 0.0,
			"0.024": 0.0,
			"0.025": 0.0
		}
	}
}
