{
	 "smiles": "CC1=C(C=CC=C1)N1C(S)=NC(O)=CC1=O", 
	 "Tm": 480.15, 
	 "num_atms": 26, 
	 "gaussian": { 
		 "optdone": 1, 
		 "sigma_profile": "yes", 
		 "theory": "DFT", 
		 "functional": "B3LYP", 
		 "basiset": "6-31G**", 
		 "properties": { 
			 "R2extent": 4237.8392, 
			 "electric_dipole_moment_norm": 1.0884710653, 
			 "electric_quadrupole_moment_norm": 17.448090791, 
			 "total_energy": -1083.34415881, 
			 "HOMO_LUMO_gap": 0.19236, 
			 "cosmo_polarized_energy": -17.66, 
			 "cosmo_cavitation_energy": 31.8, 
			 "cosmo_dispersion_energy": -22.75, 
			 "cosmo_repulsion_energy": 1.73, 
			 "cosmo_total_nonelectrostatic_energy": 10.79, 
			 "SMD_solvation_energy": 5.13 
		},
		"coords": [
			{
				"x": -1.4664753648,
				"y": 0.461614265,
				"z": 0.2617753808,
				"element": "C" 
			},
			{
				"x": -0.5525155638,
				"y": -0.3980363735,
				"z": 1.0961362413,
				"element": "C" 
			},
			{
				"x": 0.7084067045,
				"y": -0.8042740413,
				"z": 0.6266948023,
				"element": "C" 
			},
			{
				"x": 1.5381964286,
				"y": -1.6366372269,
				"z": 1.3798713069,
				"element": "C" 
			},
			{
				"x": 1.1314548083,
				"y": -2.0673372824,
				"z": 2.6414166338,
				"element": "C" 
			},
			{
				"x": -0.1103957632,
				"y": -1.6669335049,
				"z": 3.1332557134,
				"element": "C" 
			},
			{
				"x": -0.9368802691,
				"y": -0.8456497852,
				"z": 2.365494995,
				"element": "C" 
			},
			{
				"x": 1.1679570847,
				"y": -0.3726554649,
				"z": -0.6750386997,
				"element": "N" 
			},
			{
				"x": 2.0711543012,
				"y": 0.6419141401,
				"z": -0.8155038771,
				"element": "C" 
			},
			{
				"x": 2.5980054391,
				"y": 1.4591001373,
				"z": 0.6792903213,
				"element": "S" 
			},
			{
				"x": 2.5569805459,
				"y": 1.0550466279,
				"z": -1.9528382967,
				"element": "N" 
			},
			{
				"x": 2.1218412555,
				"y": 0.4198431212,
				"z": -3.0736349016,
				"element": "C" 
			},
			{
				"x": 2.6889599204,
				"y": 0.9125457677,
				"z": -4.1944555384,
				"element": "O" 
			},
			{
				"x": 1.2061141031,
				"y": -0.6028340176,
				"z": -3.073092975,
				"element": "C" 
			},
			{
				"x": 0.6450271423,
				"y": -1.0691457907,
				"z": -1.8390001066,
				"element": "C" 
			},
			{
				"x": -0.1907498864,
				"y": -1.9468392262,
				"z": -1.6846612594,
				"element": "O" 
			},
			{
				"x": -0.9613955329,
				"y": 1.3662637978,
				"z": -0.0930334022,
				"element": "H" 
			},
			{
				"x": -2.343527059,
				"y": 0.767737231,
				"z": 0.837091282,
				"element": "H" 
			},
			{
				"x": -1.8073656063,
				"y": -0.0942097245,
				"z": -0.6179642144,
				"element": "H" 
			},
			{
				"x": 2.4958456451,
				"y": -1.9414079228,
				"z": 0.9699122016,
				"element": "H" 
			},
			{
				"x": 1.7773358472,
				"y": -2.7123494308,
				"z": 3.2287132451,
				"element": "H" 
			},
			{
				"x": -0.4399999979,
				"y": -1.9962332059,
				"z": 4.1143673008,
				"element": "H" 
			},
			{
				"x": -1.9060403746,
				"y": -0.5445357331,
				"z": 2.7536936184,
				"element": "H" 
			},
			{
				"x": 3.3495291563,
				"y": 2.3390846923,
				"z": -0.010540497,
				"element": "H" 
			},
			{
				"x": 2.3488708722,
				"y": 0.4268563012,
				"z": -4.9582891956,
				"element": "H" 
			},
			{
				"x": 0.8669661637,
				"y": -1.0868273507,
				"z": -3.9817600791,
				"element": "H" 
			}
		],
		 "valence_orbital": [ 
			{
				"type": "occ",
				"energy": -0.2779,
				"method": "rhf"
			},
			{
				"type": "occ",
				"energy": -0.25808,
				"method": "rhf"
			},
			{
				"type": "occ",
				"energy": -0.25728,
				"method": "rhf"
			},
			{
				"type": "occ",
				"energy": -0.25014,
				"method": "rhf"
			},
			{
				"type": "occ",
				"energy": -0.22908,
				"method": "rhf"
			},
			{
				"type": "unocc",
				"energy": -0.03672,
				"method": "rhf"
			},
			{
				"type": "unocc",
				"energy": -0.02015,
				"method": "rhf"
			},
			{
				"type": "unocc",
				"energy": -0.00904,
				"method": "rhf"
			},
			{
				"type": "unocc",
				"energy": 0.00636,
				"method": "rhf"
			},
			{
				"type": "unocc",
				"energy": 0.01206,
				"method": "rhf"
			}
		],
		"cosmo_sigma_profile": { 
			"-0.025": 0.0,
			"-0.024": 0.0,
			"-0.023": 0.0,
			"-0.022": 0.0,
			"-0.021": 0.0,
			"-0.02": 0.0190159924434,
			"-0.019": 0.884230308098,
			"-0.018": 1.27583150155,
			"-0.017": 0.95872098503,
			"-0.016": 1.0521668107,
			"-0.015": 1.10575231976,
			"-0.014": 0.812963068764,
			"-0.013": 0.706923100775,
			"-0.012": 1.73734203458,
			"-0.011": 3.00234850563,
			"-0.01": 2.03876705419,
			"-0.009": 2.11005999406,
			"-0.008": 2.36680458232,
			"-0.007": 5.83397620359,
			"-0.006": 12.5009667118,
			"-0.005": 17.0167783777,
			"-0.004": 18.0290774937,
			"-0.003": 15.5319906035,
			"-0.002": 17.0074470512,
			"-0.001": 18.5893918579,
			"0.0": 20.8860821106,
			"0.001": 16.0704289433,
			"0.002": 15.8770971528,
			"0.003": 17.9659514373,
			"0.004": 14.9066720054,
			"0.005": 9.69029804359,
			"0.006": 5.41148790598,
			"0.007": 3.98725148534,
			"0.008": 3.36563427344,
			"0.009": 3.82403837297,
			"0.01": 3.86008529996,
			"0.011": 4.92129578203,
			"0.012": 3.8430388888,
			"0.013": 5.58009445712,
			"0.014": 3.1846085747,
			"0.015": 0.320395485564,
			"0.016": 0.0,
			"0.017": 0.0,
			"0.018": 0.0,
			"0.019": 0.0,
			"0.02": 0.0,
			"0.021": 0.0,
			"0.022": 0.0,
			"0.023": 0.0,
			"0.024": 0.0,
			"0.025": 0.0
		}
	}
}
