{
	 "smiles": "FC1=CC=C(C=C1)N1N=C(CCl)C2=C1CCC2", 
	 "Tm": 375.15, 
	 "num_atms": 29, 
	 "gaussian": { 
		 "optdone": 1, 
		 "sigma_profile": "yes", 
		 "theory": "DFT", 
		 "functional": "B3LYP", 
		 "basiset": "6-31G**", 
		 "properties": { 
			 "R2extent": 5755.1811, 
			 "electric_dipole_moment_norm": 3.3923442455, 
			 "electric_quadrupole_moment_norm": 11.2646928325, 
			 "total_energy": -1172.12863512, 
			 "HOMO_LUMO_gap": 0.19325, 
			 "cosmo_polarized_energy": -9.27, 
			 "cosmo_cavitation_energy": 34.61, 
			 "cosmo_dispersion_energy": -24.97, 
			 "cosmo_repulsion_energy": 1.94, 
			 "cosmo_total_nonelectrostatic_energy": 11.58, 
			 "SMD_solvation_energy": 4.52 
		},
		"coords": [
			{
				"x": 1.1636199917,
				"y": -2.8093828963,
				"z": 5.0139971714,
				"element": "F" 
			},
			{
				"x": 0.9713729952,
				"y": -2.1634835148,
				"z": 3.8452932748,
				"element": "C" 
			},
			{
				"x": 0.2964506558,
				"y": -0.9469536595,
				"z": 3.8456898833,
				"element": "C" 
			},
			{
				"x": 0.0906564657,
				"y": -0.2846080527,
				"z": 2.639132348,
				"element": "C" 
			},
			{
				"x": 0.5705256435,
				"y": -0.8395708475,
				"z": 1.4455855866,
				"element": "C" 
			},
			{
				"x": 1.2613525789,
				"y": -2.0565477274,
				"z": 1.4662724568,
				"element": "C" 
			},
			{
				"x": 1.4561079039,
				"y": -2.7286177219,
				"z": 2.6725368212,
				"element": "C" 
			},
			{
				"x": 0.3527188914,
				"y": -0.1542719391,
				"z": 0.2226326968,
				"element": "N" 
			},
			{
				"x": 0.097069467,
				"y": 1.1852690759,
				"z": 0.2377056143,
				"element": "N" 
			},
			{
				"x": -0.0893375224,
				"y": 1.5382403594,
				"z": -1.0389912333,
				"element": "C" 
			},
			{
				"x": -0.3722586823,
				"y": 2.9615175659,
				"z": -1.3594134948,
				"element": "C" 
			},
			{
				"x": -2.1012022988,
				"y": 3.2224418773,
				"z": -1.9269726267,
				"element": "Cl" 
			},
			{
				"x": 0.0318299684,
				"y": 0.4144803875,
				"z": -1.8909166885,
				"element": "C" 
			},
			{
				"x": 0.3078734468,
				"y": -0.6383125085,
				"z": -1.0563236181,
				"element": "C" 
			},
			{
				"x": 0.470811925,
				"y": -1.9494620821,
				"z": -1.7683766261,
				"element": "C" 
			},
			{
				"x": -0.0958961582,
				"y": -1.5830728305,
				"z": -3.1812909341,
				"element": "C" 
			},
			{
				"x": -0.0305652183,
				"y": -0.0255348573,
				"z": -3.3269341907,
				"element": "C" 
			},
			{
				"x": -0.0666202216,
				"y": -0.535827009,
				"z": 4.7812423066,
				"element": "H" 
			},
			{
				"x": -0.4330315162,
				"y": 0.6623429486,
				"z": 2.6037249233,
				"element": "H" 
			},
			{
				"x": 1.6632932214,
				"y": -2.4760928655,
				"z": 0.5519463827,
				"element": "H" 
			},
			{
				"x": 1.9887059722,
				"y": -3.6723720712,
				"z": 2.7108172785,
				"element": "H" 
			},
			{
				"x": 0.2487131373,
				"y": 3.3352808889,
				"z": -2.1739770632,
				"element": "H" 
			},
			{
				"x": -0.2429853075,
				"y": 3.5825428261,
				"z": -0.4744045045,
				"element": "H" 
			},
			{
				"x": -0.0744474108,
				"y": -2.779517049,
				"z": -1.3070596671,
				"element": "H" 
			},
			{
				"x": 1.5263292615,
				"y": -2.2498269549,
				"z": -1.8255955469,
				"element": "H" 
			},
			{
				"x": 0.436164193,
				"y": -2.1022305255,
				"z": -3.9830914887,
				"element": "H" 
			},
			{
				"x": -1.1428301578,
				"y": -1.8982157946,
				"z": -3.2286345725,
				"element": "H" 
			},
			{
				"x": 0.8632376227,
				"y": 0.286904213,
				"z": -3.8840577283,
				"element": "H" 
			},
			{
				"x": -0.8959588473,
				"y": 0.3663807648,
				"z": -3.8703367608,
				"element": "H" 
			}
		],
		 "valence_orbital": [ 
			{
				"type": "occ",
				"energy": -0.28884,
				"method": "rhf"
			},
			{
				"type": "occ",
				"energy": -0.28186,
				"method": "rhf"
			},
			{
				"type": "occ",
				"energy": -0.26988,
				"method": "rhf"
			},
			{
				"type": "occ",
				"energy": -0.24032,
				"method": "rhf"
			},
			{
				"type": "occ",
				"energy": -0.22238,
				"method": "rhf"
			},
			{
				"type": "unocc",
				"energy": -0.02913,
				"method": "rhf"
			},
			{
				"type": "unocc",
				"energy": -0.02064,
				"method": "rhf"
			},
			{
				"type": "unocc",
				"energy": 0.00929,
				"method": "rhf"
			},
			{
				"type": "unocc",
				"energy": 0.03843,
				"method": "rhf"
			},
			{
				"type": "unocc",
				"energy": 0.07481,
				"method": "rhf"
			}
		],
		"cosmo_sigma_profile": { 
			"-0.025": 0.0,
			"-0.024": 0.0,
			"-0.023": 0.0,
			"-0.022": 0.0,
			"-0.021": 0.0,
			"-0.02": 0.0,
			"-0.019": 0.0,
			"-0.018": 0.0,
			"-0.017": 0.0,
			"-0.016": 0.0,
			"-0.015": 0.0,
			"-0.014": 0.0,
			"-0.013": 0.0,
			"-0.012": 0.0,
			"-0.011": 0.0,
			"-0.01": 0.0,
			"-0.009": 0.0,
			"-0.008": 2.82541377965,
			"-0.007": 10.1845199814,
			"-0.006": 11.2110106715,
			"-0.005": 14.7834814507,
			"-0.004": 19.4189167984,
			"-0.003": 24.0669350506,
			"-0.002": 25.0859173216,
			"-0.001": 22.4111016572,
			"0.0": 24.19549264,
			"0.001": 20.8385167696,
			"0.002": 21.9192731659,
			"0.003": 24.3626055889,
			"0.004": 19.9445819805,
			"0.005": 12.5111837487,
			"0.006": 11.1528760554,
			"0.007": 7.13539839139,
			"0.008": 2.08181654792,
			"0.009": 1.28025599313,
			"0.01": 1.04106367871,
			"0.011": 0.619623671399,
			"0.012": 0.859074655946,
			"0.013": 0.31490826942,
			"0.014": 0.0,
			"0.015": 0.0,
			"0.016": 0.0,
			"0.017": 0.0,
			"0.018": 0.0,
			"0.019": 0.0,
			"0.02": 0.0,
			"0.021": 0.0,
			"0.022": 0.0,
			"0.023": 0.0,
			"0.024": 0.0,
			"0.025": 0.0
		}
	}
}
