{
	 "smiles": "OC(=O)CNC(=O)C1=C(I)C=CC=C1", 
	 "Tm": 448.15, 
	 "num_atms": 22, 
	 "gaussian": { 
		 "optdone": 1, 
		 "sigma_profile": "yes", 
		 "theory": "DFT", 
		 "functional": "B3LYP", 
		 "basiset": "6-31G**", 
		 "properties": { 
			 "R2extent": 3091.5983, 
			 "electric_dipole_moment_norm": 5.3188289886, 
			 "electric_quadrupole_moment_norm": 17.2322489551, 
			 "total_energy": -639.59404342, 
			 "HOMO_LUMO_gap": 0.20091, 
			 "cosmo_polarized_energy": -24.86, 
			 "cosmo_cavitation_energy": 30.29, 
			 "cosmo_dispersion_energy": -22.01, 
			 "cosmo_repulsion_energy": 1.74, 
			 "cosmo_total_nonelectrostatic_energy": 10.02, 
			 "SMD_solvation_energy": 5.58 
		},
		"coords": [
			{
				"x": 0.2083777664,
				"y": -1.6501341128,
				"z": 2.7035933275,
				"element": "O" 
			},
			{
				"x": 0.1757045821,
				"y": -0.568824212,
				"z": 1.8847973513,
				"element": "C" 
			},
			{
				"x": -0.7644000356,
				"y": 0.1814077575,
				"z": 1.8879245196,
				"element": "O" 
			},
			{
				"x": 1.4055258107,
				"y": -0.4150073242,
				"z": 0.9733982768,
				"element": "C" 
			},
			{
				"x": 1.4189471495,
				"y": 0.806536703,
				"z": 0.2154749224,
				"element": "N" 
			},
			{
				"x": 0.7911153734,
				"y": 1.0318713812,
				"z": -0.9869038517,
				"element": "C" 
			},
			{
				"x": 0.7136823305,
				"y": 2.1484837602,
				"z": -1.4705966277,
				"element": "O" 
			},
			{
				"x": 0.1906659342,
				"y": -0.1723390143,
				"z": -1.681752311,
				"element": "C" 
			},
			{
				"x": 0.8743887583,
				"y": -0.9272947688,
				"z": -2.6432844466,
				"element": "C" 
			},
			{
				"x": 2.9142390137,
				"y": -0.5368168195,
				"z": -3.1004828473,
				"element": "I" 
			},
			{
				"x": 0.2376875385,
				"y": -1.9665288884,
				"z": -3.3269666597,
				"element": "C" 
			},
			{
				"x": -1.0989246741,
				"y": -2.2564954769,
				"z": -3.0509808511,
				"element": "C" 
			},
			{
				"x": -1.7942203679,
				"y": -1.5164431657,
				"z": -2.0938807133,
				"element": "C" 
			},
			{
				"x": -1.1524538153,
				"y": -0.4823579717,
				"z": -1.4157591883,
				"element": "C" 
			},
			{
				"x": 1.0282093941,
				"y": -2.1515257986,
				"z": 2.5820750159,
				"element": "H" 
			},
			{
				"x": 1.4324897398,
				"y": -1.2714921008,
				"z": 0.290755155,
				"element": "H" 
			},
			{
				"x": 2.3146646986,
				"y": -0.4735202506,
				"z": 1.58540134,
				"element": "H" 
			},
			{
				"x": 1.6771243814,
				"y": 1.6600204219,
				"z": 0.6947671022,
				"element": "H" 
			},
			{
				"x": 0.7795223578,
				"y": -2.5409094644,
				"z": -4.0699275386,
				"element": "H" 
			},
			{
				"x": -1.5912634794,
				"y": -3.0622331584,
				"z": -3.5874433755,
				"element": "H" 
			},
			{
				"x": -2.8337052527,
				"y": -1.741000397,
				"z": -1.8759019963,
				"element": "H" 
			},
			{
				"x": -1.6815772042,
				"y": 0.0953029003,
				"z": -0.6644066034,
				"element": "H" 
			}
		],
		 "valence_orbital": [ 
			{
				"type": "occ",
				"energy": -0.28033,
				"method": "rhf"
			},
			{
				"type": "occ",
				"energy": -0.2715,
				"method": "rhf"
			},
			{
				"type": "occ",
				"energy": -0.26479,
				"method": "rhf"
			},
			{
				"type": "occ",
				"energy": -0.25465,
				"method": "rhf"
			},
			{
				"type": "occ",
				"energy": -0.24516,
				"method": "rhf"
			},
			{
				"type": "unocc",
				"energy": -0.04425,
				"method": "rhf"
			},
			{
				"type": "unocc",
				"energy": -0.02708,
				"method": "rhf"
			},
			{
				"type": "unocc",
				"energy": -0.0254,
				"method": "rhf"
			},
			{
				"type": "unocc",
				"energy": -0.00756,
				"method": "rhf"
			},
			{
				"type": "unocc",
				"energy": 0.01171,
				"method": "rhf"
			}
		],
		"cosmo_sigma_profile": { 
			"-0.025": 0.0,
			"-0.024": 0.0,
			"-0.023": 0.0,
			"-0.022": 0.0,
			"-0.021": 0.00186320188355,
			"-0.02": 0.69608095989,
			"-0.019": 1.24244312736,
			"-0.018": 1.51109846565,
			"-0.017": 1.19026244884,
			"-0.016": 1.18152516507,
			"-0.015": 1.28829859947,
			"-0.014": 2.83836717099,
			"-0.013": 2.57958792692,
			"-0.012": 2.22853732713,
			"-0.011": 2.93254344957,
			"-0.01": 3.11312016605,
			"-0.009": 4.75155542246,
			"-0.008": 3.51874931907,
			"-0.007": 9.26585424217,
			"-0.006": 12.6820461991,
			"-0.005": 13.4654129077,
			"-0.004": 11.9983022682,
			"-0.003": 11.2319467073,
			"-0.002": 9.00648872107,
			"-0.001": 11.4424943029,
			"0.0": 13.3822524236,
			"0.001": 14.1979293404,
			"0.002": 17.3275426174,
			"0.003": 21.8834971189,
			"0.004": 19.6957799789,
			"0.005": 6.49120670474,
			"0.006": 4.78294397805,
			"0.007": 4.67728074382,
			"0.008": 3.70909111027,
			"0.009": 5.88966850979,
			"0.01": 6.19078588829,
			"0.011": 6.25731077032,
			"0.012": 6.08331853264,
			"0.013": 5.79046610513,
			"0.014": 1.84103560579,
			"0.015": 0.0531851071928,
			"0.016": 0.0,
			"0.017": 0.0,
			"0.018": 0.0,
			"0.019": 0.0,
			"0.02": 0.0,
			"0.021": 0.0,
			"0.022": 0.0,
			"0.023": 0.0,
			"0.024": 0.0,
			"0.025": 0.0
		}
	}
}
