{
	 "smiles": "NC(=O)NN=CC1=CC=CC=C1", 
	 "Tm": 504.15, 
	 "num_atms": 21, 
	 "gaussian": { 
		 "optdone": 1, 
		 "sigma_profile": "yes", 
		 "theory": "DFT", 
		 "functional": "B3LYP", 
		 "basiset": "6-31G**", 
		 "properties": { 
			 "R2extent": 2368.0714, 
			 "electric_dipole_moment_norm": 3.12044139346, 
			 "electric_quadrupole_moment_norm": 20.8890570555, 
			 "total_energy": -549.727156032, 
			 "HOMO_LUMO_gap": 0.17944, 
			 "cosmo_polarized_energy": -17.76, 
			 "cosmo_cavitation_energy": 25.35, 
			 "cosmo_dispersion_energy": -18.43, 
			 "cosmo_repulsion_energy": 1.49, 
			 "cosmo_total_nonelectrostatic_energy": 8.41, 
			 "SMD_solvation_energy": 4.53 
		},
		"coords": [
			{
				"x": -0.8470913854,
				"y": 3.9382294922,
				"z": 1.1440220431,
				"element": "N" 
			},
			{
				"x": -0.2397935152,
				"y": 2.7123595976,
				"z": 1.384353242,
				"element": "C" 
			},
			{
				"x": -0.6970355775,
				"y": 1.8689744701,
				"z": 2.1301387292,
				"element": "O" 
			},
			{
				"x": 0.9724002887,
				"y": 2.5808963661,
				"z": 0.6727277979,
				"element": "N" 
			},
			{
				"x": 1.9180084494,
				"y": 1.6211460981,
				"z": 1.0611588864,
				"element": "N" 
			},
			{
				"x": 1.6126668226,
				"y": 0.3733804771,
				"z": 1.0073234162,
				"element": "C" 
			},
			{
				"x": 0.4663222859,
				"y": -0.3965933686,
				"z": 0.490488252,
				"element": "C" 
			},
			{
				"x": 0.3760992214,
				"y": -1.7427133343,
				"z": 0.8847367484,
				"element": "C" 
			},
			{
				"x": -0.6310659282,
				"y": -2.5708811161,
				"z": 0.3943625722,
				"element": "C" 
			},
			{
				"x": -1.5524340957,
				"y": -2.0730072234,
				"z": -0.5278393486,
				"element": "C" 
			},
			{
				"x": -1.4587150051,
				"y": -0.7439290529,
				"z": -0.9500663702,
				"element": "C" 
			},
			{
				"x": -0.4681151933,
				"y": 0.091362703,
				"z": -0.4414644128,
				"element": "C" 
			},
			{
				"x": -1.7984764573,
				"y": 3.976107389,
				"z": 1.4810124648,
				"element": "H" 
			},
			{
				"x": -0.7010391316,
				"y": 4.3722902707,
				"z": 0.2429206506,
				"element": "H" 
			},
			{
				"x": 1.4544963191,
				"y": 3.4689126669,
				"z": 0.5889424052,
				"element": "H" 
			},
			{
				"x": 2.4231019386,
				"y": -0.2531940197,
				"z": 1.3865426962,
				"element": "H" 
			},
			{
				"x": 1.1034721272,
				"y": -2.1371551383,
				"z": 1.589782982,
				"element": "H" 
			},
			{
				"x": -0.6910322112,
				"y": -3.6038948462,
				"z": 0.7244514169,
				"element": "H" 
			},
			{
				"x": -2.3355969277,
				"y": -2.7158774364,
				"z": -0.9193460703,
				"element": "H" 
			},
			{
				"x": -2.1662728132,
				"y": -0.3553123703,
				"z": -1.6770990636,
				"element": "H" 
			},
			{
				"x": -0.4001992118,
				"y": 1.1167983755,
				"z": -0.7828490375,
				"element": "H" 
			}
		],
		 "valence_orbital": [ 
			{
				"type": "occ",
				"energy": -0.28531,
				"method": "rhf"
			},
			{
				"type": "occ",
				"energy": -0.26589,
				"method": "rhf"
			},
			{
				"type": "occ",
				"energy": -0.25159,
				"method": "rhf"
			},
			{
				"type": "occ",
				"energy": -0.2466,
				"method": "rhf"
			},
			{
				"type": "occ",
				"energy": -0.22056,
				"method": "rhf"
			},
			{
				"type": "unocc",
				"energy": -0.04112,
				"method": "rhf"
			},
			{
				"type": "unocc",
				"energy": -0.00071,
				"method": "rhf"
			},
			{
				"type": "unocc",
				"energy": 0.04211,
				"method": "rhf"
			},
			{
				"type": "unocc",
				"energy": 0.05254,
				"method": "rhf"
			},
			{
				"type": "unocc",
				"energy": 0.06332,
				"method": "rhf"
			}
		],
		"cosmo_sigma_profile": { 
			"-0.025": 0.0,
			"-0.024": 0.0,
			"-0.023": 0.0,
			"-0.022": 0.0,
			"-0.021": 0.0,
			"-0.02": 0.0,
			"-0.019": 0.0,
			"-0.018": 0.0,
			"-0.017": 0.0,
			"-0.016": 0.0,
			"-0.015": 0.535029033024,
			"-0.014": 3.49472825311,
			"-0.013": 3.84413179066,
			"-0.012": 3.66715737441,
			"-0.011": 3.06417389358,
			"-0.01": 2.54941383979,
			"-0.009": 2.4036420566,
			"-0.008": 2.4865365074,
			"-0.007": 5.94944160221,
			"-0.006": 10.6701898763,
			"-0.005": 13.7562602511,
			"-0.004": 14.7205238178,
			"-0.003": 11.5483204522,
			"-0.002": 10.5208926435,
			"-0.001": 9.0531467077,
			"0.0": 8.27491814993,
			"0.001": 11.1856555101,
			"0.002": 11.8367520657,
			"0.003": 11.1964083218,
			"0.004": 12.4382744931,
			"0.005": 11.3375270286,
			"0.006": 4.93252153865,
			"0.007": 3.96266592053,
			"0.008": 4.6845723455,
			"0.009": 2.90526251248,
			"0.01": 3.63704912483,
			"0.011": 3.46897097196,
			"0.012": 3.59512008701,
			"0.013": 6.47458889452,
			"0.014": 3.07849969014,
			"0.015": 0.420593999686,
			"0.016": 0.0,
			"0.017": 0.0,
			"0.018": 0.0,
			"0.019": 0.0,
			"0.02": 0.0,
			"0.021": 0.0,
			"0.022": 0.0,
			"0.023": 0.0,
			"0.024": 0.0,
			"0.025": 0.0
		}
	}
}
