{
	 "smiles": "CC1=C(SC(=N1)C1=CC=C(Cl)C=C1)C(=O)CBr", 
	 "Tm": 393.15, 
	 "num_atms": 26, 
	 "gaussian": { 
		 "optdone": 1, 
		 "sigma_profile": "yes", 
		 "theory": "DFT", 
		 "functional": "B3LYP", 
		 "basiset": "6-31G**", 
		 "properties": { 
			 "R2extent": 9960.8658, 
			 "electric_dipole_moment_norm": 1.86924016113, 
			 "electric_quadrupole_moment_norm": 11.7678177093, 
			 "total_energy": -4022.46645982, 
			 "HOMO_LUMO_gap": 0.14134, 
			 "cosmo_polarized_energy": -10.02, 
			 "cosmo_cavitation_energy": 36.42, 
			 "cosmo_dispersion_energy": -27.2, 
			 "cosmo_repulsion_energy": 2.07, 
			 "cosmo_total_nonelectrostatic_energy": 11.3, 
			 "SMD_solvation_energy": 3.8 
		},
		"coords": [
			{
				"x": -0.8384550524,
				"y": -1.9635673622,
				"z": -2.0127041198,
				"element": "C" 
			},
			{
				"x": -0.4185466029,
				"y": -1.0175223932,
				"z": -0.9286825378,
				"element": "C" 
			},
			{
				"x": 0.8679429363,
				"y": -0.8793189834,
				"z": -0.4142953633,
				"element": "C" 
			},
			{
				"x": 0.864083606,
				"y": 0.345028873,
				"z": 0.836564797,
				"element": "S" 
			},
			{
				"x": -0.849360965,
				"y": 0.5842700294,
				"z": 0.5608940438,
				"element": "C" 
			},
			{
				"x": -1.3534296257,
				"y": -0.1949862386,
				"z": -0.37138404,
				"element": "N" 
			},
			{
				"x": -1.6480235794,
				"y": 1.5561402783,
				"z": 1.3133302546,
				"element": "C" 
			},
			{
				"x": -3.0206249233,
				"y": 1.6735316281,
				"z": 1.0286371405,
				"element": "C" 
			},
			{
				"x": -3.8144010624,
				"y": 2.5837068767,
				"z": 1.7171471382,
				"element": "C" 
			},
			{
				"x": -3.2361322238,
				"y": 3.3872932447,
				"z": 2.7018997995,
				"element": "C" 
			},
			{
				"x": -4.2317168028,
				"y": 4.5370135629,
				"z": 3.5736773086,
				"element": "Cl" 
			},
			{
				"x": -1.8768545389,
				"y": 3.2897520209,
				"z": 3.0037496431,
				"element": "C" 
			},
			{
				"x": -1.0911073228,
				"y": 2.3761256434,
				"z": 2.3086156608,
				"element": "C" 
			},
			{
				"x": 2.0614089122,
				"y": -1.59950203,
				"z": -0.8661244638,
				"element": "C" 
			},
			{
				"x": 2.0052073707,
				"y": -2.4425570698,
				"z": -1.753701628,
				"element": "O" 
			},
			{
				"x": 3.4192140941,
				"y": -1.263297285,
				"z": -0.2567445286,
				"element": "C" 
			},
			{
				"x": 3.5787823123,
				"y": -1.9962832223,
				"z": 1.5755383683,
				"element": "Br" 
			},
			{
				"x": -0.2729463405,
				"y": -1.784166539,
				"z": -2.9315586671,
				"element": "H" 
			},
			{
				"x": -1.9053367293,
				"y": -1.8377345633,
				"z": -2.2036734543,
				"element": "H" 
			},
			{
				"x": -0.6326164806,
				"y": -2.9999318028,
				"z": -1.7301921298,
				"element": "H" 
			},
			{
				"x": -3.4488957326,
				"y": 1.0395725022,
				"z": 0.2607464179,
				"element": "H" 
			},
			{
				"x": -4.8721395292,
				"y": 2.6724286029,
				"z": 1.4959744037,
				"element": "H" 
			},
			{
				"x": -1.443353351,
				"y": 3.920273175,
				"z": 3.771645399,
				"element": "H" 
			},
			{
				"x": -0.0344183075,
				"y": 2.3061205208,
				"z": 2.5504460018,
				"element": "H" 
			},
			{
				"x": 3.5975308808,
				"y": -0.1911778369,
				"z": -0.1671324851,
				"element": "H" 
			},
			{
				"x": 4.1947890573,
				"y": -1.7447116318,
				"z": -0.8471729591,
				"element": "H" 
			}
		],
		 "valence_orbital": [ 
			{
				"type": "occ",
				"energy": -0.28287,
				"method": "rhf"
			},
			{
				"type": "occ",
				"energy": -0.28248,
				"method": "rhf"
			},
			{
				"type": "occ",
				"energy": -0.27808,
				"method": "rhf"
			},
			{
				"type": "occ",
				"energy": -0.26322,
				"method": "rhf"
			},
			{
				"type": "occ",
				"energy": -0.23529,
				"method": "rhf"
			},
			{
				"type": "unocc",
				"energy": -0.09395,
				"method": "rhf"
			},
			{
				"type": "unocc",
				"energy": -0.04741,
				"method": "rhf"
			},
			{
				"type": "unocc",
				"energy": -0.02812,
				"method": "rhf"
			},
			{
				"type": "unocc",
				"energy": -0.00721,
				"method": "rhf"
			},
			{
				"type": "unocc",
				"energy": 0.0006,
				"method": "rhf"
			}
		],
		"cosmo_sigma_profile": { 
			"-0.025": 0.0,
			"-0.024": 0.0,
			"-0.023": 0.0,
			"-0.022": 0.0,
			"-0.021": 0.0,
			"-0.02": 0.0,
			"-0.019": 0.0,
			"-0.018": 0.0,
			"-0.017": 0.0,
			"-0.016": 0.0,
			"-0.015": 0.0,
			"-0.014": 0.0,
			"-0.013": 0.0,
			"-0.012": 0.0,
			"-0.011": 0.0,
			"-0.01": 0.245070607523,
			"-0.009": 2.67982735067,
			"-0.008": 8.05259860971,
			"-0.007": 10.9058743086,
			"-0.006": 12.0479260667,
			"-0.005": 13.3416619747,
			"-0.004": 14.0166617006,
			"-0.003": 17.7078051559,
			"-0.002": 20.9897133416,
			"-0.001": 29.6337194912,
			"0.0": 31.2903688291,
			"0.001": 30.3243837702,
			"0.002": 32.3174426317,
			"0.003": 19.5454995645,
			"0.004": 23.7557623406,
			"0.005": 13.2689132033,
			"0.006": 3.25714272767,
			"0.007": 3.18516326661,
			"0.008": 2.62954755788,
			"0.009": 2.97381188609,
			"0.01": 3.02088948776,
			"0.011": 2.9592040668,
			"0.012": 1.5279979805,
			"0.013": 0.0318029399924,
			"0.014": 0.0,
			"0.015": 0.0,
			"0.016": 0.0,
			"0.017": 0.0,
			"0.018": 0.0,
			"0.019": 0.0,
			"0.02": 0.0,
			"0.021": 0.0,
			"0.022": 0.0,
			"0.023": 0.0,
			"0.024": 0.0,
			"0.025": 0.0
		}
	}
}
