{
	 "smiles": "CN1C(=NC2=C1C=CC=C2)C#C", 
	 "Tm": 356.15, 
	 "num_atms": 20, 
	 "gaussian": { 
		 "optdone": 1, 
		 "sigma_profile": "yes", 
		 "theory": "DFT", 
		 "functional": "B3LYP", 
		 "basiset": "6-31G**", 
		 "properties": { 
			 "R2extent": 2061.1469, 
			 "electric_dipole_moment_norm": 3.73225241108, 
			 "electric_quadrupole_moment_norm": 11.7998931372, 
			 "total_energy": -495.324208548, 
			 "HOMO_LUMO_gap": 0.17838, 
			 "cosmo_polarized_energy": -11.39, 
			 "cosmo_cavitation_energy": 25.05, 
			 "cosmo_dispersion_energy": -17.86, 
			 "cosmo_repulsion_energy": 1.39, 
			 "cosmo_total_nonelectrostatic_energy": 8.57, 
			 "SMD_solvation_energy": 3.5 
		},
		"coords": [
			{
				"x": -1.1051973423,
				"y": 2.0260181951,
				"z": 1.0856592218,
				"element": "C" 
			},
			{
				"x": -0.8539052348,
				"y": 0.8209160806,
				"z": 0.3140253537,
				"element": "N" 
			},
			{
				"x": -1.7910582962,
				"y": 0.1136127187,
				"z": -0.4295820047,
				"element": "C" 
			},
			{
				"x": -1.2898163958,
				"y": -0.9480925342,
				"z": -1.0343078056,
				"element": "N" 
			},
			{
				"x": 0.0431904283,
				"y": -0.9546383242,
				"z": -0.6817126538,
				"element": "C" 
			},
			{
				"x": 0.3422042994,
				"y": 0.1450624266,
				"z": 0.1640083601,
				"element": "C" 
			},
			{
				"x": 1.6281821035,
				"y": 0.3711891277,
				"z": 0.665962051,
				"element": "C" 
			},
			{
				"x": 2.6146465301,
				"y": -0.537801268,
				"z": 0.297371322,
				"element": "C" 
			},
			{
				"x": 2.3337502324,
				"y": -1.6370116335,
				"z": -0.5431310216,
				"element": "C" 
			},
			{
				"x": 1.0559001808,
				"y": -1.8579220994,
				"z": -1.0392482984,
				"element": "C" 
			},
			{
				"x": -3.1435951269,
				"y": 0.5416103238,
				"z": -0.4938624121,
				"element": "C" 
			},
			{
				"x": -4.2885346117,
				"y": 0.9299292041,
				"z": -0.5305454311,
				"element": "C" 
			},
			{
				"x": -1.4671343143,
				"y": 2.8315997532,
				"z": 0.4403650425,
				"element": "H" 
			},
			{
				"x": -0.1752108037,
				"y": 2.3447813598,
				"z": 1.5569169423,
				"element": "H" 
			},
			{
				"x": -1.8492176844,
				"y": 1.8395049777,
				"z": 1.8654156351,
				"element": "H" 
			},
			{
				"x": 1.8573376333,
				"y": 1.2123699113,
				"z": 1.3130316448,
				"element": "H" 
			},
			{
				"x": 3.6266254167,
				"y": -0.3979527436,
				"z": 0.665832579,
				"element": "H" 
			},
			{
				"x": 3.1367499635,
				"y": -2.3200257082,
				"z": -0.8035317843,
				"element": "H" 
			},
			{
				"x": 0.8292858563,
				"y": -2.6993993205,
				"z": -1.6857789733,
				"element": "H" 
			},
			{
				"x": -5.3030028342,
				"y": 1.2528495528,
				"z": -0.5769877672,
				"element": "H" 
			}
		],
		 "valence_orbital": [ 
			{
				"type": "occ",
				"energy": -0.29227,
				"method": "rhf"
			},
			{
				"type": "occ",
				"energy": -0.29216,
				"method": "rhf"
			},
			{
				"type": "occ",
				"energy": -0.27189,
				"method": "rhf"
			},
			{
				"type": "occ",
				"energy": -0.22433,
				"method": "rhf"
			},
			{
				"type": "occ",
				"energy": -0.21855,
				"method": "rhf"
			},
			{
				"type": "unocc",
				"energy": -0.04017,
				"method": "rhf"
			},
			{
				"type": "unocc",
				"energy": 0.01803,
				"method": "rhf"
			},
			{
				"type": "unocc",
				"energy": 0.02978,
				"method": "rhf"
			},
			{
				"type": "unocc",
				"energy": 0.03071,
				"method": "rhf"
			},
			{
				"type": "unocc",
				"energy": 0.08593,
				"method": "rhf"
			}
		],
		"cosmo_sigma_profile": { 
			"-0.025": 0.0,
			"-0.024": 0.0,
			"-0.023": 0.0,
			"-0.022": 0.0,
			"-0.021": 0.0,
			"-0.02": 0.0,
			"-0.019": 0.0,
			"-0.018": 0.0,
			"-0.017": 0.0,
			"-0.016": 0.0,
			"-0.015": 0.0,
			"-0.014": 0.00351529039754,
			"-0.013": 0.82139220366,
			"-0.012": 1.29216861,
			"-0.011": 1.39022211942,
			"-0.01": 0.779688515114,
			"-0.009": 1.91608090069,
			"-0.008": 2.84906787469,
			"-0.007": 5.47431689163,
			"-0.006": 12.1085613375,
			"-0.005": 14.7940410478,
			"-0.004": 17.0609596544,
			"-0.003": 17.6605464829,
			"-0.002": 10.5739421751,
			"-0.001": 11.2230302642,
			"0.0": 11.7656780257,
			"0.001": 11.0400835087,
			"0.002": 13.1334211703,
			"0.003": 13.8741211258,
			"0.004": 17.1485787312,
			"0.005": 17.075076389,
			"0.006": 7.17000347453,
			"0.007": 2.06801133829,
			"0.008": 1.95583300754,
			"0.009": 1.3254066508,
			"0.01": 1.28726803774,
			"0.011": 1.15691687838,
			"0.012": 0.997951351248,
			"0.013": 0.948823186427,
			"0.014": 1.01736347381,
			"0.015": 1.3004025729,
			"0.016": 0.745794653002,
			"0.017": 0.707260289011,
			"0.018": 0.0181625352602,
			"0.019": 0.0,
			"0.02": 0.0,
			"0.021": 0.0,
			"0.022": 0.0,
			"0.023": 0.0,
			"0.024": 0.0,
			"0.025": 0.0
		}
	}
}
