{
	 "smiles": "CN(C)C(=O)CN1C=C(Br)C=N1", 
	 "Tm": 437.15, 
	 "num_atms": 22, 
	 "gaussian": { 
		 "optdone": 1, 
		 "sigma_profile": "yes", 
		 "theory": "DFT", 
		 "functional": "B3LYP", 
		 "basiset": "6-31G**", 
		 "properties": { 
			 "R2extent": 8892.9459, 
			 "electric_dipole_moment_norm": 3.00081593737, 
			 "electric_quadrupole_moment_norm": 9.75524766933, 
			 "total_energy": -3083.63019874, 
			 "HOMO_LUMO_gap": 0.23067, 
			 "cosmo_polarized_energy": -10.99, 
			 "cosmo_cavitation_energy": 28.19, 
			 "cosmo_dispersion_energy": -20.5, 
			 "cosmo_repulsion_energy": 1.65, 
			 "cosmo_total_nonelectrostatic_energy": 9.34, 
			 "SMD_solvation_energy": 4.05 
		},
		"coords": [
			{
				"x": 1.4891170776,
				"y": 1.4196572268,
				"z": -0.4690514011,
				"element": "C" 
			},
			{
				"x": 1.0444147652,
				"y": 0.1935964803,
				"z": 0.1831473838,
				"element": "N" 
			},
			{
				"x": 1.8562187427,
				"y": -0.9907768418,
				"z": -0.072169309,
				"element": "C" 
			},
			{
				"x": -0.0835670309,
				"y": 0.2340465831,
				"z": 0.9520435763,
				"element": "C" 
			},
			{
				"x": -0.7195177444,
				"y": 1.2635190598,
				"z": 1.1666644533,
				"element": "O" 
			},
			{
				"x": -0.5772583005,
				"y": -1.0755811627,
				"z": 1.5976182634,
				"element": "C" 
			},
			{
				"x": 0.1293118106,
				"y": -1.3768738111,
				"z": 2.8353031152,
				"element": "N" 
			},
			{
				"x": 0.1079465321,
				"y": -0.6593562577,
				"z": 3.9892656709,
				"element": "C" 
			},
			{
				"x": 0.9611077723,
				"y": -1.3163997766,
				"z": 4.8557670578,
				"element": "C" 
			},
			{
				"x": 1.3604989696,
				"y": -0.8325069392,
				"z": 6.6314749484,
				"element": "Br" 
			},
			{
				"x": 1.4587165744,
				"y": -2.4207000112,
				"z": 4.1351945514,
				"element": "C" 
			},
			{
				"x": 0.9499121982,
				"y": -2.4512555872,
				"z": 2.9037023127,
				"element": "N" 
			},
			{
				"x": 0.7808278446,
				"y": 2.2125655021,
				"z": -0.2360324452,
				"element": "H" 
			},
			{
				"x": 1.5383274336,
				"y": 1.2753375554,
				"z": -1.5552611207,
				"element": "H" 
			},
			{
				"x": 2.4867530446,
				"y": 1.7032487393,
				"z": -0.1125329667,
				"element": "H" 
			},
			{
				"x": 2.914697288,
				"y": -0.7241351102,
				"z": 0.0226822648,
				"element": "H" 
			},
			{
				"x": 1.6954165999,
				"y": -1.3721378469,
				"z": -1.0898241214,
				"element": "H" 
			},
			{
				"x": 1.6567496335,
				"y": -1.7817416764,
				"z": 0.6492469694,
				"element": "H" 
			},
			{
				"x": -0.4760139083,
				"y": -1.9535130333,
				"z": 0.9597307309,
				"element": "H" 
			},
			{
				"x": -1.6345073342,
				"y": -0.9129848297,
				"z": 1.8150351374,
				"element": "H" 
			},
			{
				"x": -0.4850262864,
				"y": 0.2354667471,
				"z": 4.0998437555,
				"element": "H" 
			},
			{
				"x": 2.1505743179,
				"y": -3.1820750102,
				"z": 4.4657511726,
				"element": "H" 
			}
		],
		 "valence_orbital": [ 
			{
				"type": "occ",
				"energy": -0.28398,
				"method": "rhf"
			},
			{
				"type": "occ",
				"energy": -0.27164,
				"method": "rhf"
			},
			{
				"type": "occ",
				"energy": -0.25632,
				"method": "rhf"
			},
			{
				"type": "occ",
				"energy": -0.24887,
				"method": "rhf"
			},
			{
				"type": "occ",
				"energy": -0.23533,
				"method": "rhf"
			},
			{
				"type": "unocc",
				"energy": -0.00466,
				"method": "rhf"
			},
			{
				"type": "unocc",
				"energy": 0.00901,
				"method": "rhf"
			},
			{
				"type": "unocc",
				"energy": 0.02123,
				"method": "rhf"
			},
			{
				"type": "unocc",
				"energy": 0.05233,
				"method": "rhf"
			},
			{
				"type": "unocc",
				"energy": 0.08402,
				"method": "rhf"
			}
		],
		"cosmo_sigma_profile": { 
			"-0.025": 0.0,
			"-0.024": 0.0,
			"-0.023": 0.0,
			"-0.022": 0.0,
			"-0.021": 0.0,
			"-0.02": 0.0,
			"-0.019": 0.0,
			"-0.018": 0.0,
			"-0.017": 0.0,
			"-0.016": 0.0,
			"-0.015": 0.0,
			"-0.014": 0.0,
			"-0.013": 0.0,
			"-0.012": 0.0,
			"-0.011": 0.0,
			"-0.01": 0.478230093218,
			"-0.009": 1.56059426547,
			"-0.008": 5.50436213118,
			"-0.007": 7.68776106116,
			"-0.006": 8.00242167448,
			"-0.005": 18.8555858576,
			"-0.004": 18.2687000781,
			"-0.003": 21.7838384677,
			"-0.002": 21.1821907353,
			"-0.001": 14.9583383162,
			"0.0": 14.6961529562,
			"0.001": 13.2602186709,
			"0.002": 15.489962542,
			"0.003": 16.8446350761,
			"0.004": 17.077906969,
			"0.005": 7.37842514712,
			"0.006": 2.88154003509,
			"0.007": 2.76705222618,
			"0.008": 1.6009490896,
			"0.009": 2.68370686224,
			"0.01": 2.18532190413,
			"0.011": 2.37326780703,
			"0.012": 2.43673335014,
			"0.013": 4.59080627372,
			"0.014": 2.9464972183,
			"0.015": 0.151325473952,
			"0.016": 0.0,
			"0.017": 0.0,
			"0.018": 0.0,
			"0.019": 0.0,
			"0.02": 0.0,
			"0.021": 0.0,
			"0.022": 0.0,
			"0.023": 0.0,
			"0.024": 0.0,
			"0.025": 0.0
		}
	}
}
