{
	 "smiles": "ClC1=NC(Cl)=C(Cl)C(C#N)=C1Cl", 
	 "Tm": 413.15, 
	 "num_atms": 12, 
	 "gaussian": { 
		 "optdone": 1, 
		 "sigma_profile": "yes", 
		 "theory": "DFT", 
		 "functional": "B3LYP", 
		 "basiset": "6-31G**", 
		 "properties": { 
			 "R2extent": 3824.088, 
			 "electric_dipole_moment_norm": 1.27646786877, 
			 "electric_quadrupole_moment_norm": 10.4895229491, 
			 "total_energy": -2178.86275385, 
			 "HOMO_LUMO_gap": 0.17119, 
			 "cosmo_polarized_energy": -6.7, 
			 "cosmo_cavitation_energy": 25.59, 
			 "cosmo_dispersion_energy": -18.87, 
			 "cosmo_repulsion_energy": 1.52, 
			 "cosmo_total_nonelectrostatic_energy": 8.23, 
			 "SMD_solvation_energy": 3.31 
		},
		"coords": [
			{
				"x": -3.6148532781,
				"y": -0.8212073972,
				"z": -0.1982516376,
				"element": "Cl" 
			},
			{
				"x": -2.1317791956,
				"y": 0.0844920721,
				"z": -0.2507199948,
				"element": "C" 
			},
			{
				"x": -2.0192586362,
				"y": 0.9842525081,
				"z": -1.2107000007,
				"element": "N" 
			},
			{
				"x": -0.9264197831,
				"y": 1.7167921384,
				"z": -1.3241817402,
				"element": "C" 
			},
			{
				"x": -0.8896055645,
				"y": 2.869233571,
				"z": -2.6253647247,
				"element": "Cl" 
			},
			{
				"x": 0.1626421297,
				"y": 1.5862463327,
				"z": -0.4473356015,
				"element": "C" 
			},
			{
				"x": 1.5896042622,
				"y": 2.5475307944,
				"z": -0.600908717,
				"element": "Cl" 
			},
			{
				"x": 0.0577693213,
				"y": 0.6299242688,
				"z": 0.5827414307,
				"element": "C" 
			},
			{
				"x": 1.1320998307,
				"y": 0.4465756168,
				"z": 1.5103417795,
				"element": "C" 
			},
			{
				"x": 2.0042687443,
				"y": 0.2976904733,
				"z": 2.2633810126,
				"element": "N" 
			},
			{
				"x": -1.1151615007,
				"y": -0.1441635879,
				"z": 0.6906356065,
				"element": "C" 
			},
			{
				"x": -1.2683063299,
				"y": -1.3226667905,
				"z": 1.9442625872,
				"element": "Cl" 
			}
		],
		 "valence_orbital": [ 
			{
				"type": "occ",
				"energy": -0.34551,
				"method": "rhf"
			},
			{
				"type": "occ",
				"energy": -0.33575,
				"method": "rhf"
			},
			{
				"type": "occ",
				"energy": -0.32134,
				"method": "rhf"
			},
			{
				"type": "occ",
				"energy": -0.31353,
				"method": "rhf"
			},
			{
				"type": "occ",
				"energy": -0.28133,
				"method": "rhf"
			},
			{
				"type": "unocc",
				"energy": -0.11014,
				"method": "rhf"
			},
			{
				"type": "unocc",
				"energy": -0.0752,
				"method": "rhf"
			},
			{
				"type": "unocc",
				"energy": -0.03477,
				"method": "rhf"
			},
			{
				"type": "unocc",
				"energy": -0.01295,
				"method": "rhf"
			},
			{
				"type": "unocc",
				"energy": -8e-05,
				"method": "rhf"
			}
		],
		"cosmo_sigma_profile": { 
			"-0.025": 0.0,
			"-0.024": 0.0,
			"-0.023": 0.0,
			"-0.022": 0.0,
			"-0.021": 0.0,
			"-0.02": 0.0,
			"-0.019": 0.0,
			"-0.018": 0.0,
			"-0.017": 0.0,
			"-0.016": 0.0,
			"-0.015": 0.0,
			"-0.014": 0.0,
			"-0.013": 0.0,
			"-0.012": 0.0,
			"-0.011": 0.0,
			"-0.01": 0.0,
			"-0.009": 0.332283314382,
			"-0.008": 1.42220403238,
			"-0.007": 5.1701597739,
			"-0.006": 12.9097575977,
			"-0.005": 14.8595600324,
			"-0.004": 13.4992632416,
			"-0.003": 14.1035591857,
			"-0.002": 14.030830751,
			"-0.001": 16.0968427259,
			"0.0": 18.5114559761,
			"0.001": 30.2056918357,
			"0.002": 30.8867359929,
			"0.003": 15.1541066319,
			"0.004": 6.26690777153,
			"0.005": 4.80735022361,
			"0.006": 4.29288910705,
			"0.007": 4.331759034,
			"0.008": 3.79774340075,
			"0.009": 3.31528599349,
			"0.01": 2.5632850387,
			"0.011": 1.27541530324,
			"0.012": 0.0265663381635,
			"0.013": 0.0,
			"0.014": 0.0,
			"0.015": 0.0,
			"0.016": 0.0,
			"0.017": 0.0,
			"0.018": 0.0,
			"0.019": 0.0,
			"0.02": 0.0,
			"0.021": 0.0,
			"0.022": 0.0,
			"0.023": 0.0,
			"0.024": 0.0,
			"0.025": 0.0
		}
	}
}
