{
	 "smiles": "NC(=O)CNS(=O)(=O)C1=CC(=CC=C1)C(O)=O", 
	 "Tm": 533.15, 
	 "num_atms": 27, 
	 "gaussian": { 
		 "optdone": 1, 
		 "sigma_profile": "yes", 
		 "theory": "DFT", 
		 "functional": "B3LYP", 
		 "basiset": "6-31G**", 
		 "properties": { 
			 "R2extent": 5895.4626, 
			 "electric_dipole_moment_norm": 2.72112874006, 
			 "electric_quadrupole_moment_norm": 19.6440245963, 
			 "total_energy": -1232.74540615, 
			 "HOMO_LUMO_gap": 0.17336, 
			 "cosmo_polarized_energy": -27.81, 
			 "cosmo_cavitation_energy": 33.69, 
			 "cosmo_dispersion_energy": -24.37, 
			 "cosmo_repulsion_energy": 1.87, 
			 "cosmo_total_nonelectrostatic_energy": 11.19, 
			 "SMD_solvation_energy": 6.67 
		},
		"coords": [
			{
				"x": 1.0350424667,
				"y": 4.0200075729,
				"z": 2.6510810344,
				"element": "N" 
			},
			{
				"x": 1.6987835171,
				"y": 2.8957552388,
				"z": 3.0328578903,
				"element": "C" 
			},
			{
				"x": 2.2881042068,
				"y": 2.7727838285,
				"z": 4.0965795674,
				"element": "O" 
			},
			{
				"x": 1.687804449,
				"y": 1.7275751891,
				"z": 2.024782078,
				"element": "C" 
			},
			{
				"x": 1.9441483875,
				"y": 2.0596394587,
				"z": 0.6182065077,
				"element": "N" 
			},
			{
				"x": 0.7075721567,
				"y": 2.4320003232,
				"z": -0.4444350148,
				"element": "S" 
			},
			{
				"x": -0.4314453223,
				"y": 3.0314304328,
				"z": 0.2789094651,
				"element": "O" 
			},
			{
				"x": 1.3535808674,
				"y": 3.1381065299,
				"z": -1.5514909695,
				"element": "O" 
			},
			{
				"x": 0.1437805481,
				"y": 0.824899449,
				"z": -1.0095512715,
				"element": "C" 
			},
			{
				"x": -1.1568109392,
				"y": 0.4215185395,
				"z": -0.7146700944,
				"element": "C" 
			},
			{
				"x": -1.6097304892,
				"y": -0.820495031,
				"z": -1.1779671821,
				"element": "C" 
			},
			{
				"x": -0.7428946719,
				"y": -1.6406695783,
				"z": -1.9115392094,
				"element": "C" 
			},
			{
				"x": 0.5506156749,
				"y": -1.2158175468,
				"z": -2.2129872937,
				"element": "C" 
			},
			{
				"x": 1.0031980751,
				"y": 0.025354389,
				"z": -1.7669251008,
				"element": "C" 
			},
			{
				"x": -2.9889882034,
				"y": -1.3454956362,
				"z": -0.890452685,
				"element": "C" 
			},
			{
				"x": -3.9351291889,
				"y": -0.4372050899,
				"z": -0.5451789245,
				"element": "O" 
			},
			{
				"x": -3.2650468067,
				"y": -2.5194143806,
				"z": -0.9544669442,
				"element": "O" 
			},
			{
				"x": 0.9613295534,
				"y": 4.7567607926,
				"z": 3.3372264702,
				"element": "H" 
			},
			{
				"x": 0.3878418125,
				"y": 4.0056970007,
				"z": 1.8709750944,
				"element": "H" 
			},
			{
				"x": 0.7244891059,
				"y": 1.2102874719,
				"z": 2.0851376419,
				"element": "H" 
			},
			{
				"x": 2.4552292207,
				"y": 1.0280930327,
				"z": 2.3627934853,
				"element": "H" 
			},
			{
				"x": 2.7381242208,
				"y": 2.6659585686,
				"z": 0.4334450682,
				"element": "H" 
			},
			{
				"x": -1.7733253356,
				"y": 1.0769604046,
				"z": -0.1075738421,
				"element": "H" 
			},
			{
				"x": -1.1068895775,
				"y": -2.6088130605,
				"z": -2.2380092368,
				"element": "H" 
			},
			{
				"x": 1.2088979667,
				"y": -1.8521723951,
				"z": -2.7956664705,
				"element": "H" 
			},
			{
				"x": 2.006066511,
				"y": 0.3688682902,
				"z": -1.9966559403,
				"element": "H" 
			},
			{
				"x": -3.6210482057,
				"y": 0.4652862059,
				"z": -0.6952241232,
				"element": "H" 
			}
		],
		 "valence_orbital": [ 
			{
				"type": "occ",
				"energy": -0.30054,
				"method": "rhf"
			},
			{
				"type": "occ",
				"energy": -0.29289,
				"method": "rhf"
			},
			{
				"type": "occ",
				"energy": -0.28577,
				"method": "rhf"
			},
			{
				"type": "occ",
				"energy": -0.27567,
				"method": "rhf"
			},
			{
				"type": "occ",
				"energy": -0.25208,
				"method": "rhf"
			},
			{
				"type": "unocc",
				"energy": -0.07872,
				"method": "rhf"
			},
			{
				"type": "unocc",
				"energy": -0.06116,
				"method": "rhf"
			},
			{
				"type": "unocc",
				"energy": 0.00655,
				"method": "rhf"
			},
			{
				"type": "unocc",
				"energy": 0.01814,
				"method": "rhf"
			},
			{
				"type": "unocc",
				"energy": 0.03492,
				"method": "rhf"
			}
		],
		"cosmo_sigma_profile": { 
			"-0.025": 0.0,
			"-0.024": 0.0,
			"-0.023": 0.0,
			"-0.022": 0.0,
			"-0.021": 0.0,
			"-0.02": 0.251110169986,
			"-0.019": 0.832994645366,
			"-0.018": 1.0912069794,
			"-0.017": 1.08679569974,
			"-0.016": 1.14828272167,
			"-0.015": 1.63403541607,
			"-0.014": 3.14908147316,
			"-0.013": 3.20542119811,
			"-0.012": 2.80615032996,
			"-0.011": 2.94725993858,
			"-0.01": 2.91356298027,
			"-0.009": 5.13587866514,
			"-0.008": 9.96935305795,
			"-0.007": 14.7009593956,
			"-0.006": 13.6277687762,
			"-0.005": 12.9129501174,
			"-0.004": 14.7452461264,
			"-0.003": 15.2809258249,
			"-0.002": 12.7868473412,
			"-0.001": 13.8070614834,
			"0.0": 18.74851373,
			"0.001": 16.7585564635,
			"0.002": 8.56357132104,
			"0.003": 6.98033885768,
			"0.004": 7.51821328624,
			"0.005": 6.75015250023,
			"0.006": 7.21794784788,
			"0.007": 6.47027420094,
			"0.008": 7.73399327525,
			"0.009": 7.97038486757,
			"0.01": 14.0309808732,
			"0.011": 10.7556546016,
			"0.012": 4.87166910249,
			"0.013": 5.66690952474,
			"0.014": 4.24669438652,
			"0.015": 0.486255535796,
			"0.016": 0.0,
			"0.017": 0.0,
			"0.018": 0.0,
			"0.019": 0.0,
			"0.02": 0.0,
			"0.021": 0.0,
			"0.022": 0.0,
			"0.023": 0.0,
			"0.024": 0.0,
			"0.025": 0.0
		}
	}
}
