{
	 "smiles": "OC(=O)CC1=CC=C(OC2=CC=CC=C2)C=C1", 
	 "Tm": 353.15, 
	 "num_atms": 29, 
	 "gaussian": { 
		 "optdone": 1, 
		 "sigma_profile": "yes", 
		 "theory": "DFT", 
		 "functional": "B3LYP", 
		 "basiset": "6-31G**", 
		 "properties": { 
			 "R2extent": 6104.6425, 
			 "electric_dipole_moment_norm": 5.35084667506, 
			 "electric_quadrupole_moment_norm": 24.2533549743, 
			 "total_energy": -766.395813674, 
			 "HOMO_LUMO_gap": 0.20195, 
			 "cosmo_polarized_energy": -14.9, 
			 "cosmo_cavitation_energy": 33.98, 
			 "cosmo_dispersion_energy": -24.09, 
			 "cosmo_repulsion_energy": 1.88, 
			 "cosmo_total_nonelectrostatic_energy": 11.78, 
			 "SMD_solvation_energy": 7.08 
		},
		"coords": [
			{
				"x": 3.0362082998,
				"y": 2.9129264236,
				"z": 1.67317631,
				"element": "O" 
			},
			{
				"x": 2.7723419436,
				"y": 4.0854117709,
				"z": 1.0523067666,
				"element": "C" 
			},
			{
				"x": 3.2593120144,
				"y": 5.1177942662,
				"z": 1.4398856505,
				"element": "O" 
			},
			{
				"x": 1.8625420341,
				"y": 4.0161258037,
				"z": -0.1877641621,
				"element": "C" 
			},
			{
				"x": 1.0200048355,
				"y": 2.7686731972,
				"z": -0.3270056776,
				"element": "C" 
			},
			{
				"x": -0.2571068962,
				"y": 2.6893949561,
				"z": 0.2536449715,
				"element": "C" 
			},
			{
				"x": -1.0241503062,
				"y": 1.5342330104,
				"z": 0.1550657833,
				"element": "C" 
			},
			{
				"x": -0.5249392597,
				"y": 0.4221952874,
				"z": -0.5338416749,
				"element": "C" 
			},
			{
				"x": -1.370339741,
				"y": -0.6570932706,
				"z": -0.6294047032,
				"element": "O" 
			},
			{
				"x": -0.8740517117,
				"y": -1.9218045866,
				"z": -0.9104327159,
				"element": "C" 
			},
			{
				"x": 0.0785137711,
				"y": -2.5283295612,
				"z": -0.0874589625,
				"element": "C" 
			},
			{
				"x": 0.484387821,
				"y": -3.833810686,
				"z": -0.3654047467,
				"element": "C" 
			},
			{
				"x": -0.0613496792,
				"y": -4.5305900375,
				"z": -1.4465250564,
				"element": "C" 
			},
			{
				"x": -1.0194946376,
				"y": -3.9150754533,
				"z": -2.2542460511,
				"element": "C" 
			},
			{
				"x": -1.4274742522,
				"y": -2.6061388795,
				"z": -1.9921196636,
				"element": "C" 
			},
			{
				"x": 0.7404262392,
				"y": 0.4749089782,
				"z": -1.1248305562,
				"element": "C" 
			},
			{
				"x": 1.4974592366,
				"y": 1.6431019666,
				"z": -1.0147246454,
				"element": "C" 
			},
			{
				"x": 2.526761488,
				"y": 2.2042755932,
				"z": 1.2466701519,
				"element": "H" 
			},
			{
				"x": 1.2450438025,
				"y": 4.9177217454,
				"z": -0.1606235957,
				"element": "H" 
			},
			{
				"x": 2.528026352,
				"y": 4.127549535,
				"z": -1.0526160682,
				"element": "H" 
			},
			{
				"x": -0.6548655457,
				"y": 3.5466974967,
				"z": 0.7905614128,
				"element": "H" 
			},
			{
				"x": -2.0119362549,
				"y": 1.4728042972,
				"z": 0.5994608709,
				"element": "H" 
			},
			{
				"x": 0.4858493396,
				"y": -1.9845671622,
				"z": 0.7586421635,
				"element": "H" 
			},
			{
				"x": 1.2232887239,
				"y": -4.3099663562,
				"z": 0.2724987476,
				"element": "H" 
			},
			{
				"x": 0.2555867718,
				"y": -5.547838941,
				"z": -1.6547051582,
				"element": "H" 
			},
			{
				"x": -1.4508016394,
				"y": -4.4515752427,
				"z": -3.0942366821,
				"element": "H" 
			},
			{
				"x": -2.1714096405,
				"y": -2.108679778,
				"z": -2.6054906418,
				"element": "H" 
			},
			{
				"x": 1.1243218236,
				"y": -0.3775354315,
				"z": -1.6731839679,
				"element": "H" 
			},
			{
				"x": 2.4736450676,
				"y": 1.6819910584,
				"z": -1.4928980993,
				"element": "H" 
			}
		],
		 "valence_orbital": [ 
			{
				"type": "occ",
				"energy": -0.27374,
				"method": "rhf"
			},
			{
				"type": "occ",
				"energy": -0.27238,
				"method": "rhf"
			},
			{
				"type": "occ",
				"energy": -0.26475,
				"method": "rhf"
			},
			{
				"type": "occ",
				"energy": -0.25591,
				"method": "rhf"
			},
			{
				"type": "occ",
				"energy": -0.23025,
				"method": "rhf"
			},
			{
				"type": "unocc",
				"energy": -0.0283,
				"method": "rhf"
			},
			{
				"type": "unocc",
				"energy": -0.02054,
				"method": "rhf"
			},
			{
				"type": "unocc",
				"energy": -0.013,
				"method": "rhf"
			},
			{
				"type": "unocc",
				"energy": -0.00444,
				"method": "rhf"
			},
			{
				"type": "unocc",
				"energy": 0.01884,
				"method": "rhf"
			}
		],
		"cosmo_sigma_profile": { 
			"-0.025": 0.0,
			"-0.024": 0.0,
			"-0.023": 0.0,
			"-0.022": 0.0,
			"-0.021": 0.0,
			"-0.02": 0.0,
			"-0.019": 0.0,
			"-0.018": 0.0,
			"-0.017": 0.0,
			"-0.016": 0.0,
			"-0.015": 0.0,
			"-0.014": 0.149512517987,
			"-0.013": 0.32358561624,
			"-0.012": 0.777640117425,
			"-0.011": 0.887790386314,
			"-0.01": 0.824754767943,
			"-0.009": 1.59755779104,
			"-0.008": 3.35555808105,
			"-0.007": 10.5884378622,
			"-0.006": 23.1434807122,
			"-0.005": 21.6540851047,
			"-0.004": 22.6032914731,
			"-0.003": 19.0407225221,
			"-0.002": 16.0683685306,
			"-0.001": 13.4219669667,
			"0.0": 16.3780163832,
			"0.001": 16.7878084526,
			"0.002": 17.569908677,
			"0.003": 20.8700145725,
			"0.004": 18.7137974806,
			"0.005": 12.701037946,
			"0.006": 4.37381241161,
			"0.007": 2.93923449242,
			"0.008": 4.37477652981,
			"0.009": 3.41002116724,
			"0.01": 5.01671942774,
			"0.011": 4.58260730491,
			"0.012": 6.13850040583,
			"0.013": 3.24420554128,
			"0.014": 0.238591557532,
			"0.015": 0.0,
			"0.016": 0.0,
			"0.017": 0.0,
			"0.018": 0.0,
			"0.019": 0.0,
			"0.02": 0.0,
			"0.021": 0.0,
			"0.022": 0.0,
			"0.023": 0.0,
			"0.024": 0.0,
			"0.025": 0.0
		}
	}
}
