{
	 "smiles": "CC1=CC(=CC(C)=C1CC#N)C(C)(C)C", 
	 "Tm": 358.15, 
	 "num_atms": 34, 
	 "gaussian": { 
		 "optdone": 1, 
		 "sigma_profile": "yes", 
		 "theory": "DFT", 
		 "functional": "B3LYP", 
		 "basiset": "6-31G**", 
		 "properties": { 
			 "R2extent": 4414.8859, 
			 "electric_dipole_moment_norm": 4.01282130925, 
			 "electric_quadrupole_moment_norm": 18.0813297617, 
			 "total_energy": -599.704582777, 
			 "HOMO_LUMO_gap": 0.22684, 
			 "cosmo_polarized_energy": -10.15, 
			 "cosmo_cavitation_energy": 35.43, 
			 "cosmo_dispersion_energy": -23.95, 
			 "cosmo_repulsion_energy": 1.87, 
			 "cosmo_total_nonelectrostatic_energy": 13.36, 
			 "SMD_solvation_energy": 7.4 
		},
		"coords": [
			{
				"x": 0.6143385333,
				"y": -1.2304795523,
				"z": 3.2867375735,
				"element": "C" 
			},
			{
				"x": 0.8445996738,
				"y": -1.0604480568,
				"z": 1.8008716917,
				"element": "C" 
			},
			{
				"x": 1.0833728812,
				"y": 0.2212200698,
				"z": 1.2868194764,
				"element": "C" 
			},
			{
				"x": 1.2873627886,
				"y": 0.4533604675,
				"z": -0.0762773934,
				"element": "C" 
			},
			{
				"x": 1.2370769672,
				"y": -0.6592860463,
				"z": -0.9280931959,
				"element": "C" 
			},
			{
				"x": 1.0025939302,
				"y": -1.9537722036,
				"z": -0.4598148774,
				"element": "C" 
			},
			{
				"x": 0.9447801829,
				"y": -3.1029530201,
				"z": -1.4421903726,
				"element": "C" 
			},
			{
				"x": 0.8160952367,
				"y": -2.1562808286,
				"z": 0.9219890737,
				"element": "C" 
			},
			{
				"x": 0.5705591888,
				"y": -3.5623071296,
				"z": 1.4603369886,
				"element": "C" 
			},
			{
				"x": -0.8548671081,
				"y": -3.9222732027,
				"z": 1.4926087655,
				"element": "C" 
			},
			{
				"x": -1.9836617508,
				"y": -4.19365546,
				"z": 1.5122604629,
				"element": "N" 
			},
			{
				"x": 1.5514898276,
				"y": 1.8548319348,
				"z": -0.657043696,
				"element": "C" 
			},
			{
				"x": 0.4419979653,
				"y": 2.2067299832,
				"z": -1.6767277234,
				"element": "C" 
			},
			{
				"x": 2.9247396163,
				"y": 1.864482547,
				"z": -1.3702867333,
				"element": "C" 
			},
			{
				"x": 1.5678407844,
				"y": 2.9464977558,
				"z": 0.4296478597,
				"element": "C" 
			},
			{
				"x": 0.6041657291,
				"y": -0.2606430298,
				"z": 3.7900424285,
				"element": "H" 
			},
			{
				"x": 1.4005048762,
				"y": -1.8332778368,
				"z": 3.7591438592,
				"element": "H" 
			},
			{
				"x": -0.3415815316,
				"y": -1.7229769173,
				"z": 3.497847108,
				"element": "H" 
			},
			{
				"x": 1.1019937548,
				"y": 1.0487544076,
				"z": 1.987079493,
				"element": "H" 
			},
			{
				"x": 1.3796314234,
				"y": -0.5240094843,
				"z": -1.9965881532,
				"element": "H" 
			},
			{
				"x": 1.0421842275,
				"y": -2.7401012125,
				"z": -2.4682966388,
				"element": "H" 
			},
			{
				"x": 1.7519119978,
				"y": -3.8277618721,
				"z": -1.2757729066,
				"element": "H" 
			},
			{
				"x": -0.0015452698,
				"y": -3.6512317809,
				"z": -1.373208888,
				"element": "H" 
			},
			{
				"x": 1.0891766723,
				"y": -4.309742865,
				"z": 0.8518280844,
				"element": "H" 
			},
			{
				"x": 0.9635126304,
				"y": -3.6654381396,
				"z": 2.4765061361,
				"element": "H" 
			},
			{
				"x": 0.4063476243,
				"y": 1.4916954991,
				"z": -2.5038718415,
				"element": "H" 
			},
			{
				"x": -0.5425664187,
				"y": 2.2121337469,
				"z": -1.1978260285,
				"element": "H" 
			},
			{
				"x": 0.6183492009,
				"y": 3.2007072061,
				"z": -2.1032004975,
				"element": "H" 
			},
			{
				"x": 3.1261950579,
				"y": 2.8542428742,
				"z": -1.7954203652,
				"element": "H" 
			},
			{
				"x": 3.7316952599,
				"y": 1.625304422,
				"z": -0.6697858462,
				"element": "H" 
			},
			{
				"x": 2.9651604544,
				"y": 1.1374196882,
				"z": -2.1867353033,
				"element": "H" 
			},
			{
				"x": 0.6092781071,
				"y": 3.0141810688,
				"z": 0.9544715029,
				"element": "H" 
			},
			{
				"x": 2.3536251481,
				"y": 2.7716580126,
				"z": 1.1719602657,
				"element": "H" 
			},
			{
				"x": 1.7605423383,
				"y": 3.9210189545,
				"z": -0.0305103089,
				"element": "H" 
			}
		],
		 "valence_orbital": [ 
			{
				"type": "occ",
				"energy": -0.32054,
				"method": "rhf"
			},
			{
				"type": "occ",
				"energy": -0.3165,
				"method": "rhf"
			},
			{
				"type": "occ",
				"energy": -0.31112,
				"method": "rhf"
			},
			{
				"type": "occ",
				"energy": -0.24145,
				"method": "rhf"
			},
			{
				"type": "occ",
				"energy": -0.23847,
				"method": "rhf"
			},
			{
				"type": "unocc",
				"energy": -0.01163,
				"method": "rhf"
			},
			{
				"type": "unocc",
				"energy": -0.00054,
				"method": "rhf"
			},
			{
				"type": "unocc",
				"energy": 0.04016,
				"method": "rhf"
			},
			{
				"type": "unocc",
				"energy": 0.04567,
				"method": "rhf"
			},
			{
				"type": "unocc",
				"energy": 0.08,
				"method": "rhf"
			}
		],
		"cosmo_sigma_profile": { 
			"-0.025": 0.0,
			"-0.024": 0.0,
			"-0.023": 0.0,
			"-0.022": 0.0,
			"-0.021": 0.0,
			"-0.02": 0.0,
			"-0.019": 0.0,
			"-0.018": 0.0,
			"-0.017": 0.0,
			"-0.016": 0.0,
			"-0.015": 0.0,
			"-0.014": 0.0,
			"-0.013": 0.0,
			"-0.012": 0.0,
			"-0.011": 0.0,
			"-0.01": 0.0,
			"-0.009": 0.029816854107,
			"-0.008": 3.82476664551,
			"-0.007": 6.15887878018,
			"-0.006": 5.92389753507,
			"-0.005": 12.7541212311,
			"-0.004": 18.3266927395,
			"-0.003": 28.0110665946,
			"-0.002": 35.619442351,
			"-0.001": 31.7728433553,
			"0.0": 32.0176056775,
			"0.001": 31.130939352,
			"0.002": 17.3507048182,
			"0.003": 8.91777773863,
			"0.004": 7.66628724923,
			"0.005": 7.68313351516,
			"0.006": 9.44627246346,
			"0.007": 3.11329983101,
			"0.008": 2.27656116961,
			"0.009": 4.09585495395,
			"0.01": 2.89609173841,
			"0.011": 3.4477953614,
			"0.012": 2.45388195434,
			"0.013": 2.32866411201,
			"0.014": 0.515852158667,
			"0.015": 0.0,
			"0.016": 0.0,
			"0.017": 0.0,
			"0.018": 0.0,
			"0.019": 0.0,
			"0.02": 0.0,
			"0.021": 0.0,
			"0.022": 0.0,
			"0.023": 0.0,
			"0.024": 0.0,
			"0.025": 0.0
		}
	}
}
