{
	 "smiles": "CC1=CC(=NN1C1=CC=C(Cl)C=C1)C(O)=O", 
	 "Tm": 413.15, 
	 "num_atms": 25, 
	 "gaussian": { 
		 "optdone": 1, 
		 "sigma_profile": "yes", 
		 "theory": "DFT", 
		 "functional": "B3LYP", 
		 "basiset": "6-31G**", 
		 "properties": { 
			 "R2extent": 6706.2102, 
			 "electric_dipole_moment_norm": 6.72870220845, 
			 "electric_quadrupole_moment_norm": 26.2643024411, 
			 "total_energy": -1144.72599251, 
			 "HOMO_LUMO_gap": 0.1961, 
			 "cosmo_polarized_energy": -20.8, 
			 "cosmo_cavitation_energy": 32.08, 
			 "cosmo_dispersion_energy": -23.28, 
			 "cosmo_repulsion_energy": 1.82, 
			 "cosmo_total_nonelectrostatic_energy": 10.62, 
			 "SMD_solvation_energy": 5.7 
		},
		"coords": [
			{
				"x": -0.7940981727,
				"y": -1.4135869039,
				"z": -0.7982252731,
				"element": "C" 
			},
			{
				"x": -0.9644190076,
				"y": 0.045450209,
				"z": -1.0849857417,
				"element": "C" 
			},
			{
				"x": -1.2896646806,
				"y": 0.6746961122,
				"z": -2.2703115392,
				"element": "C" 
			},
			{
				"x": -1.3998109899,
				"y": 2.052345422,
				"z": -1.951326279,
				"element": "C" 
			},
			{
				"x": -1.157800187,
				"y": 2.2700497736,
				"z": -0.6599733759,
				"element": "N" 
			},
			{
				"x": -0.8803910651,
				"y": 1.0516106513,
				"z": -0.1446443238,
				"element": "N" 
			},
			{
				"x": -0.6161200543,
				"y": 0.9574922387,
				"z": 1.25277085,
				"element": "C" 
			},
			{
				"x": -1.3492088739,
				"y": 1.7644649288,
				"z": 2.1300524111,
				"element": "C" 
			},
			{
				"x": -1.1057878111,
				"y": 1.7021490046,
				"z": 3.4986404363,
				"element": "C" 
			},
			{
				"x": -0.1338202968,
				"y": 0.8257801439,
				"z": 3.9847774118,
				"element": "C" 
			},
			{
				"x": 0.1645311073,
				"y": 0.7356991777,
				"z": 5.711227827,
				"element": "Cl" 
			},
			{
				"x": 0.6087983016,
				"y": 0.0264460494,
				"z": 3.1175843588,
				"element": "C" 
			},
			{
				"x": 0.3724820793,
				"y": 0.1013464716,
				"z": 1.7452628173,
				"element": "C" 
			},
			{
				"x": -1.7568553481,
				"y": 3.1959872194,
				"z": -2.8380127932,
				"element": "C" 
			},
			{
				"x": -1.5548125784,
				"y": 2.9671100084,
				"z": -4.1677388817,
				"element": "O" 
			},
			{
				"x": -2.2077439293,
				"y": 4.2458180431,
				"z": -2.4574399889,
				"element": "O" 
			},
			{
				"x": 0.2587652865,
				"y": -1.7177010505,
				"z": -0.7843710711,
				"element": "H" 
			},
			{
				"x": -1.2909254616,
				"y": -1.9935695595,
				"z": -1.5793934082,
				"element": "H" 
			},
			{
				"x": -1.2324141897,
				"y": -1.691873081,
				"z": 0.1643220826,
				"element": "H" 
			},
			{
				"x": -1.4811926497,
				"y": 0.1811467655,
				"z": -3.2131131594,
				"element": "H" 
			},
			{
				"x": -2.0941616746,
				"y": 2.4407304464,
				"z": 1.7280847059,
				"element": "H" 
			},
			{
				"x": -1.6697785211,
				"y": 2.3238210349,
				"z": 4.1847240182,
				"element": "H" 
			},
			{
				"x": 1.3749379316,
				"y": -0.6343108696,
				"z": 3.5069189134,
				"element": "H" 
			},
			{
				"x": 0.9780296067,
				"y": -0.4874671941,
				"z": 1.0668146261,
				"element": "H" 
			},
			{
				"x": -1.0555388213,
				"y": 2.1473649579,
				"z": -4.2890446232,
				"element": "H" 
			}
		],
		 "valence_orbital": [ 
			{
				"type": "occ",
				"energy": -0.29277,
				"method": "rhf"
			},
			{
				"type": "occ",
				"energy": -0.28136,
				"method": "rhf"
			},
			{
				"type": "occ",
				"energy": -0.26995,
				"method": "rhf"
			},
			{
				"type": "occ",
				"energy": -0.26155,
				"method": "rhf"
			},
			{
				"type": "occ",
				"energy": -0.24615,
				"method": "rhf"
			},
			{
				"type": "unocc",
				"energy": -0.05005,
				"method": "rhf"
			},
			{
				"type": "unocc",
				"energy": -0.03189,
				"method": "rhf"
			},
			{
				"type": "unocc",
				"energy": -0.01653,
				"method": "rhf"
			},
			{
				"type": "unocc",
				"energy": 0.01352,
				"method": "rhf"
			},
			{
				"type": "unocc",
				"energy": 0.01874,
				"method": "rhf"
			}
		],
		"cosmo_sigma_profile": { 
			"-0.025": 0.0,
			"-0.024": 0.0,
			"-0.023": 0.0,
			"-0.022": 0.0,
			"-0.021": 0.0,
			"-0.02": 0.0,
			"-0.019": 0.0482066373649,
			"-0.018": 0.664276229028,
			"-0.017": 0.851310634588,
			"-0.016": 1.0586132642,
			"-0.015": 1.18074407495,
			"-0.014": 0.601611036247,
			"-0.013": 1.4009211981,
			"-0.012": 1.28559403141,
			"-0.011": 1.03803619298,
			"-0.01": 1.31006236982,
			"-0.009": 2.20324755949,
			"-0.008": 6.51914056204,
			"-0.007": 11.4285682253,
			"-0.006": 14.2252805562,
			"-0.005": 14.3553672002,
			"-0.004": 13.2032480816,
			"-0.003": 16.2679063289,
			"-0.002": 19.2395270508,
			"-0.001": 17.0052406525,
			"0.0": 15.9895392815,
			"0.001": 21.3548822295,
			"0.002": 25.0060269047,
			"0.003": 15.0129154721,
			"0.004": 13.0020850368,
			"0.005": 6.89368432032,
			"0.006": 3.94793601066,
			"0.007": 2.36431888949,
			"0.008": 3.68436699295,
			"0.009": 4.82391660011,
			"0.01": 5.7487842554,
			"0.011": 6.25791746847,
			"0.012": 6.44234182741,
			"0.013": 3.71363550854,
			"0.014": 1.56495228588,
			"0.015": 0.00470252843187,
			"0.016": 0.0,
			"0.017": 0.0,
			"0.018": 0.0,
			"0.019": 0.0,
			"0.02": 0.0,
			"0.021": 0.0,
			"0.022": 0.0,
			"0.023": 0.0,
			"0.024": 0.0,
			"0.025": 0.0
		}
	}
}
