{
	 "smiles": "CC1=CC=C(C=C1)C1=CSC(S)=N1", 
	 "Tm": 466.15, 
	 "num_atms": 22, 
	 "gaussian": { 
		 "optdone": 1, 
		 "sigma_profile": "yes", 
		 "theory": "DFT", 
		 "functional": "B3LYP", 
		 "basiset": "6-31G**", 
		 "properties": { 
			 "R2extent": 5336.4913, 
			 "electric_dipole_moment_norm": 1.33955675132, 
			 "electric_quadrupole_moment_norm": 9.6837784005, 
			 "total_energy": -1237.61289462, 
			 "HOMO_LUMO_gap": 0.17092, 
			 "cosmo_polarized_energy": -7.35, 
			 "cosmo_cavitation_energy": 29.5, 
			 "cosmo_dispersion_energy": -22.82, 
			 "cosmo_repulsion_energy": 1.7, 
			 "cosmo_total_nonelectrostatic_energy": 8.38, 
			 "SMD_solvation_energy": 3.24 
		},
		"coords": [
			{
				"x": 2.2532770673,
				"y": 0.4073913943,
				"z": -3.414257464,
				"element": "C" 
			},
			{
				"x": 1.2557938545,
				"y": -0.0297982351,
				"z": -2.3684803793,
				"element": "C" 
			},
			{
				"x": 0.3023308046,
				"y": 0.85789517,
				"z": -1.8555974154,
				"element": "C" 
			},
			{
				"x": -0.6362054602,
				"y": 0.4484541702,
				"z": -0.9110519463,
				"element": "C" 
			},
			{
				"x": -0.6522160143,
				"y": -0.8737986928,
				"z": -0.4413373993,
				"element": "C" 
			},
			{
				"x": 0.3060930786,
				"y": -1.7663004933,
				"z": -0.9504864588,
				"element": "C" 
			},
			{
				"x": 1.2395432043,
				"y": -1.3496728513,
				"z": -1.8934303714,
				"element": "C" 
			},
			{
				"x": -1.6522586842,
				"y": -1.2897489918,
				"z": 0.560224073,
				"element": "C" 
			},
			{
				"x": -1.8058505836,
				"y": -2.5416220117,
				"z": 1.0991803306,
				"element": "C" 
			},
			{
				"x": -3.113955401,
				"y": -2.570827805,
				"z": 2.2402441639,
				"element": "S" 
			},
			{
				"x": -3.3690541628,
				"y": -0.8613568156,
				"z": 1.9050213175,
				"element": "C" 
			},
			{
				"x": -4.6594610094,
				"y": 0.0266596974,
				"z": 2.7323753009,
				"element": "S" 
			},
			{
				"x": -2.5569917917,
				"y": -0.3480806519,
				"z": 1.0360722253,
				"element": "N" 
			},
			{
				"x": 2.4018834503,
				"y": 1.4910112712,
				"z": -3.3971088139,
				"element": "H" 
			},
			{
				"x": 3.2267136923,
				"y": -0.0707082981,
				"z": -3.2649859566,
				"element": "H" 
			},
			{
				"x": 1.9138728435,
				"y": 0.1401840754,
				"z": -4.4231755675,
				"element": "H" 
			},
			{
				"x": 0.2941125296,
				"y": 1.889319156,
				"z": -2.1999355092,
				"element": "H" 
			},
			{
				"x": -1.3665194537,
				"y": 1.1491398911,
				"z": -0.5227284956,
				"element": "H" 
			},
			{
				"x": 0.3310226486,
				"y": -2.796082489,
				"z": -0.606332766,
				"element": "H" 
			},
			{
				"x": 1.9719872585,
				"y": -2.0612576313,
				"z": -2.2671813918,
				"element": "H" 
			},
			{
				"x": -1.242367021,
				"y": -3.4408750395,
				"z": 0.9009648669,
				"element": "H" 
			},
			{
				"x": -4.3715508501,
				"y": 1.1880751806,
				"z": 2.1137076572,
				"element": "H" 
			}
		],
		 "valence_orbital": [ 
			{
				"type": "occ",
				"energy": -0.29134,
				"method": "rhf"
			},
			{
				"type": "occ",
				"energy": -0.28174,
				"method": "rhf"
			},
			{
				"type": "occ",
				"energy": -0.25141,
				"method": "rhf"
			},
			{
				"type": "occ",
				"energy": -0.24738,
				"method": "rhf"
			},
			{
				"type": "occ",
				"energy": -0.20918,
				"method": "rhf"
			},
			{
				"type": "unocc",
				"energy": -0.03826,
				"method": "rhf"
			},
			{
				"type": "unocc",
				"energy": -0.00894,
				"method": "rhf"
			},
			{
				"type": "unocc",
				"energy": -0.00843,
				"method": "rhf"
			},
			{
				"type": "unocc",
				"energy": 0.00385,
				"method": "rhf"
			},
			{
				"type": "unocc",
				"energy": 0.02748,
				"method": "rhf"
			}
		],
		"cosmo_sigma_profile": { 
			"-0.025": 0.0,
			"-0.024": 0.0,
			"-0.023": 0.0,
			"-0.022": 0.0,
			"-0.021": 0.0,
			"-0.02": 0.0,
			"-0.019": 0.0,
			"-0.018": 0.0,
			"-0.017": 0.0,
			"-0.016": 0.0,
			"-0.015": 0.0,
			"-0.014": 0.0,
			"-0.013": 0.0117234868756,
			"-0.012": 0.897055569384,
			"-0.011": 1.30956055045,
			"-0.01": 2.01854473035,
			"-0.009": 4.08950547414,
			"-0.008": 3.67685603529,
			"-0.007": 3.54293295051,
			"-0.006": 4.62547914366,
			"-0.005": 10.2399898199,
			"-0.004": 17.675284844,
			"-0.003": 16.7264375558,
			"-0.002": 17.807367552,
			"-0.001": 18.6668795639,
			"0.0": 23.6335340222,
			"0.001": 22.3770074719,
			"0.002": 23.0299778471,
			"0.003": 23.286699549,
			"0.004": 16.5728021486,
			"0.005": 14.2520929165,
			"0.006": 10.5784745338,
			"0.007": 3.37840765881,
			"0.008": 1.49578984838,
			"0.009": 1.27416114422,
			"0.01": 0.0798107911206,
			"0.011": 0.0,
			"0.012": 0.0,
			"0.013": 0.0,
			"0.014": 0.0,
			"0.015": 0.0,
			"0.016": 0.0,
			"0.017": 0.0,
			"0.018": 0.0,
			"0.019": 0.0,
			"0.02": 0.0,
			"0.021": 0.0,
			"0.022": 0.0,
			"0.023": 0.0,
			"0.024": 0.0,
			"0.025": 0.0
		}
	}
}
