{
	 "smiles": "OC(=O)C1=CC(O)=C2C=CC=C(O)C2=N1", 
	 "Tm": 571.15, 
	 "num_atms": 22, 
	 "gaussian": { 
		 "optdone": 1, 
		 "sigma_profile": "yes", 
		 "theory": "DFT", 
		 "functional": "B3LYP", 
		 "basiset": "6-31G**", 
		 "properties": { 
			 "R2extent": 3744.6308, 
			 "electric_dipole_moment_norm": 6.0311041601, 
			 "electric_quadrupole_moment_norm": 14.3126280096, 
			 "total_energy": -740.954044834, 
			 "HOMO_LUMO_gap": 0.15196, 
			 "cosmo_polarized_energy": -18.09, 
			 "cosmo_cavitation_energy": 26.82, 
			 "cosmo_dispersion_energy": -20.35, 
			 "cosmo_repulsion_energy": 1.55, 
			 "cosmo_total_nonelectrostatic_energy": 8.03, 
			 "SMD_solvation_energy": 5.79 
		},
		"coords": [
			{
				"x": 3.4005383097,
				"y": 0.7445642348,
				"z": 3.0770385807,
				"element": "O" 
			},
			{
				"x": 3.0217275103,
				"y": 1.4689824649,
				"z": 2.0108286225,
				"element": "C" 
			},
			{
				"x": 3.4355717359,
				"y": 2.584465907,
				"z": 1.7946291942,
				"element": "O" 
			},
			{
				"x": 2.0345787134,
				"y": 0.7686229385,
				"z": 1.106759732,
				"element": "C" 
			},
			{
				"x": 1.570420967,
				"y": 1.4343148209,
				"z": -0.0391631368,
				"element": "C" 
			},
			{
				"x": 0.6671986797,
				"y": 0.7887114061,
				"z": -0.8630565226,
				"element": "C" 
			},
			{
				"x": 0.2326381862,
				"y": 1.4450126565,
				"z": -1.9598471373,
				"element": "O" 
			},
			{
				"x": 0.2277958164,
				"y": -0.5329190071,
				"z": -0.5340292131,
				"element": "C" 
			},
			{
				"x": -0.6923957645,
				"y": -1.2890815412,
				"z": -1.3021798048,
				"element": "C" 
			},
			{
				"x": -1.0497333145,
				"y": -2.5586696198,
				"z": -0.8936943572,
				"element": "C" 
			},
			{
				"x": -0.5200134187,
				"y": -3.1330636554,
				"z": 0.279823894,
				"element": "C" 
			},
			{
				"x": 0.3790443388,
				"y": -2.4199001338,
				"z": 1.049011885,
				"element": "C" 
			},
			{
				"x": 0.8967903395,
				"y": -2.9521379743,
				"z": 2.1748751673,
				"element": "O" 
			},
			{
				"x": 0.7732143079,
				"y": -1.1006202384,
				"z": 0.657110182,
				"element": "C" 
			},
			{
				"x": 1.6612119168,
				"y": -0.4559596558,
				"z": 1.4599131631,
				"element": "N" 
			},
			{
				"x": 2.9255893394,
				"y": -0.1060576656,
				"z": 3.0139552709,
				"element": "H" 
			},
			{
				"x": 1.921502815,
				"y": 2.4338824506,
				"z": -0.2612989405,
				"element": "H" 
			},
			{
				"x": -0.3902748161,
				"y": 0.8987791351,
				"z": -2.4563566427,
				"element": "H" 
			},
			{
				"x": -1.1279614031,
				"y": -0.8892483795,
				"z": -2.2143161465,
				"element": "H" 
			},
			{
				"x": -1.7550496783,
				"y": -3.1335686661,
				"z": -1.4859133457,
				"element": "H" 
			},
			{
				"x": -0.8065237169,
				"y": -4.1309505411,
				"z": 0.592832793,
				"element": "H" 
			},
			{
				"x": 1.4951291362,
				"y": -2.2778589366,
				"z": 2.5420767628,
				"element": "H" 
			}
		],
		 "valence_orbital": [ 
			{
				"type": "occ",
				"energy": -0.31515,
				"method": "rhf"
			},
			{
				"type": "occ",
				"energy": -0.2829,
				"method": "rhf"
			},
			{
				"type": "occ",
				"energy": -0.27602,
				"method": "rhf"
			},
			{
				"type": "occ",
				"energy": -0.27258,
				"method": "rhf"
			},
			{
				"type": "occ",
				"energy": -0.22953,
				"method": "rhf"
			},
			{
				"type": "unocc",
				"energy": -0.07757,
				"method": "rhf"
			},
			{
				"type": "unocc",
				"energy": -0.04862,
				"method": "rhf"
			},
			{
				"type": "unocc",
				"energy": 0.00189,
				"method": "rhf"
			},
			{
				"type": "unocc",
				"energy": 0.03533,
				"method": "rhf"
			},
			{
				"type": "unocc",
				"energy": 0.03917,
				"method": "rhf"
			}
		],
		"cosmo_sigma_profile": { 
			"-0.025": 0.0,
			"-0.024": 0.0,
			"-0.023": 0.0,
			"-0.022": 0.0,
			"-0.021": 0.0,
			"-0.02": 0.0331807087878,
			"-0.019": 0.678100288418,
			"-0.018": 1.04870105237,
			"-0.017": 0.963252770347,
			"-0.016": 0.862110760056,
			"-0.015": 2.21701868697,
			"-0.014": 1.56290593864,
			"-0.013": 3.06265960267,
			"-0.012": 3.14277805087,
			"-0.011": 1.92527979008,
			"-0.01": 1.67531323248,
			"-0.009": 1.92035363791,
			"-0.008": 3.1043554753,
			"-0.007": 6.85036597072,
			"-0.006": 8.62139113724,
			"-0.005": 9.71877433991,
			"-0.004": 10.2479939995,
			"-0.003": 10.1901820979,
			"-0.002": 10.2605287697,
			"-0.001": 16.0210565743,
			"0.0": 21.1236364021,
			"0.001": 16.9394228476,
			"0.002": 14.7372449048,
			"0.003": 13.558036034,
			"0.004": 8.10307949505,
			"0.005": 5.38445371838,
			"0.006": 5.25502157555,
			"0.007": 4.63637336812,
			"0.008": 6.18414325474,
			"0.009": 7.57605566899,
			"0.01": 7.6980275709,
			"0.011": 6.31310532326,
			"0.012": 3.27835962998,
			"0.013": 0.927071850388,
			"0.014": 0.0,
			"0.015": 0.0,
			"0.016": 0.0,
			"0.017": 0.0,
			"0.018": 0.0,
			"0.019": 0.0,
			"0.02": 0.0,
			"0.021": 0.0,
			"0.022": 0.0,
			"0.023": 0.0,
			"0.024": 0.0,
			"0.025": 0.0
		}
	}
}
