{
	 "smiles": "OC(=O)C=CC1=CC(Cl)=CC(Cl)=C1", 
	 "Tm": 405.15, 
	 "num_atms": 19, 
	 "gaussian": { 
		 "optdone": 1, 
		 "sigma_profile": "yes", 
		 "theory": "DFT", 
		 "functional": "B3LYP", 
		 "basiset": "6-31G**", 
		 "properties": { 
			 "R2extent": 5121.8351, 
			 "electric_dipole_moment_norm": 1.65774793319, 
			 "electric_quadrupole_moment_norm": 10.417785962, 
			 "total_energy": -1417.40825975, 
			 "HOMO_LUMO_gap": 0.17081, 
			 "cosmo_polarized_energy": -10.9, 
			 "cosmo_cavitation_energy": 28.58, 
			 "cosmo_dispersion_energy": -20.99, 
			 "cosmo_repulsion_energy": 1.68, 
			 "cosmo_total_nonelectrostatic_energy": 9.27, 
			 "SMD_solvation_energy": 5.72 
		},
		"coords": [
			{
				"x": -4.4772277269,
				"y": -1.0730559922,
				"z": 0.368818676,
				"element": "O" 
			},
			{
				"x": -3.8836097451,
				"y": 0.1420269666,
				"z": 0.5052243939,
				"element": "C" 
			},
			{
				"x": -4.4776431888,
				"y": 1.1106826952,
				"z": 0.9368990951,
				"element": "O" 
			},
			{
				"x": -2.4704841534,
				"y": 0.165590623,
				"z": 0.0839183645,
				"element": "C" 
			},
			{
				"x": -1.8156100357,
				"y": -0.9076078739,
				"z": -0.3939707378,
				"element": "C" 
			},
			{
				"x": -0.4169822332,
				"y": -0.9653213829,
				"z": -0.8323201617,
				"element": "C" 
			},
			{
				"x": 0.0804942255,
				"y": -2.1929089379,
				"z": -1.3012494842,
				"element": "C" 
			},
			{
				"x": 1.4025935724,
				"y": -2.2908934351,
				"z": -1.7266473556,
				"element": "C" 
			},
			{
				"x": 2.0071416787,
				"y": -3.830514775,
				"z": -2.3088795129,
				"element": "Cl" 
			},
			{
				"x": 2.2603604781,
				"y": -1.1934025397,
				"z": -1.7015689853,
				"element": "C" 
			},
			{
				"x": 1.7526426921,
				"y": 0.0210384896,
				"z": -1.2330435723,
				"element": "C" 
			},
			{
				"x": 2.8133677253,
				"y": 1.4175403856,
				"z": -1.1920251267,
				"element": "Cl" 
			},
			{
				"x": 0.4386199876,
				"y": 0.1512553443,
				"z": -0.8017031216,
				"element": "C" 
			},
			{
				"x": -5.3907099732,
				"y": -0.9546052046,
				"z": 0.6758423837,
				"element": "H" 
			},
			{
				"x": -2.0058033301,
				"y": 1.1391501085,
				"z": 0.1970756628,
				"element": "H" 
			},
			{
				"x": -2.3671341315,
				"y": -1.8414761574,
				"z": -0.4703305475,
				"element": "H" 
			},
			{
				"x": -0.5627933123,
				"y": -3.0653502968,
				"z": -1.3328868199,
				"element": "H" 
			},
			{
				"x": 3.2872758022,
				"y": -1.2776742517,
				"z": -2.0342019541,
				"element": "H" 
			},
			{
				"x": 0.0886016683,
				"y": 1.1127262341,
				"z": -0.4466511963,
				"element": "H" 
			}
		],
		 "valence_orbital": [ 
			{
				"type": "occ",
				"energy": -0.32408,
				"method": "rhf"
			},
			{
				"type": "occ",
				"energy": -0.30602,
				"method": "rhf"
			},
			{
				"type": "occ",
				"energy": -0.28109,
				"method": "rhf"
			},
			{
				"type": "occ",
				"energy": -0.26446,
				"method": "rhf"
			},
			{
				"type": "occ",
				"energy": -0.25678,
				"method": "rhf"
			},
			{
				"type": "unocc",
				"energy": -0.08597,
				"method": "rhf"
			},
			{
				"type": "unocc",
				"energy": -0.0358,
				"method": "rhf"
			},
			{
				"type": "unocc",
				"energy": -0.00276,
				"method": "rhf"
			},
			{
				"type": "unocc",
				"energy": -0.00169,
				"method": "rhf"
			},
			{
				"type": "unocc",
				"energy": 0.0378,
				"method": "rhf"
			}
		],
		"cosmo_sigma_profile": { 
			"-0.025": 0.0,
			"-0.024": 0.0,
			"-0.023": 0.0,
			"-0.022": 0.0,
			"-0.021": 0.0,
			"-0.02": 0.0,
			"-0.019": 0.070351217417,
			"-0.018": 0.638567546099,
			"-0.017": 0.719015044311,
			"-0.016": 1.15722474642,
			"-0.015": 0.898695760749,
			"-0.014": 0.261603236526,
			"-0.013": 0.447402739108,
			"-0.012": 0.587853701108,
			"-0.011": 1.1687410539,
			"-0.01": 2.38286788652,
			"-0.009": 5.22130871791,
			"-0.008": 6.36338273731,
			"-0.007": 7.02967839643,
			"-0.006": 6.05028812421,
			"-0.005": 6.44231817454,
			"-0.004": 7.44927212652,
			"-0.003": 9.02992157433,
			"-0.002": 15.8351901429,
			"-0.001": 18.4564456953,
			"0.0": 30.2304323299,
			"0.001": 34.0226473426,
			"0.002": 16.5796095931,
			"0.003": 17.1866551162,
			"0.004": 20.0904088276,
			"0.005": 5.16305895701,
			"0.006": 2.38546292094,
			"0.007": 2.79932924507,
			"0.008": 2.31296691376,
			"0.009": 1.56584821496,
			"0.01": 2.22995440965,
			"0.011": 2.73144399936,
			"0.012": 5.46632498162,
			"0.013": 1.37569668963,
			"0.014": 0.0,
			"0.015": 0.0,
			"0.016": 0.0,
			"0.017": 0.0,
			"0.018": 0.0,
			"0.019": 0.0,
			"0.02": 0.0,
			"0.021": 0.0,
			"0.022": 0.0,
			"0.023": 0.0,
			"0.024": 0.0,
			"0.025": 0.0
		}
	}
}
