{
	 "smiles": "CCCCCCC(O)CCC", 
	 "Tm": 262.15, 
	 "num_atms": 33, 
	 "gaussian": { 
		 "optdone": 1, 
		 "sigma_profile": "yes", 
		 "theory": "DFT", 
		 "functional": "B3LYP", 
		 "basiset": "6-31G**", 
		 "properties": { 
			 "R2extent": 3754.5601, 
			 "electric_dipole_moment_norm": 1.48195693932, 
			 "electric_quadrupole_moment_norm": 7.78893490472, 
			 "total_energy": -469.570493771, 
			 "HOMO_LUMO_gap": 0.3309, 
			 "cosmo_polarized_energy": -5.68, 
			 "cosmo_cavitation_energy": 33.06, 
			 "cosmo_dispersion_energy": -22.82, 
			 "cosmo_repulsion_energy": 1.91, 
			 "cosmo_total_nonelectrostatic_energy": 12.15, 
			 "SMD_solvation_energy": 4.93 
		},
		"coords": [
			{
				"x": -3.0011521828,
				"y": 2.3012853905,
				"z": 1.0161312542,
				"element": "C" 
			},
			{
				"x": -1.9913225613,
				"y": 1.2034912675,
				"z": 0.6653674581,
				"element": "C" 
			},
			{
				"x": -1.8139813869,
				"y": 0.1731038482,
				"z": 1.7897973771,
				"element": "C" 
			},
			{
				"x": -0.7570530401,
				"y": -0.9090941086,
				"z": 1.5125616305,
				"element": "C" 
			},
			{
				"x": -1.114590171,
				"y": -1.8630106529,
				"z": 0.3613178426,
				"element": "C" 
			},
			{
				"x": -0.1546355029,
				"y": -3.0536588611,
				"z": 0.1954119126,
				"element": "C" 
			},
			{
				"x": 1.3047667269,
				"y": -2.7220547546,
				"z": -0.1626585458,
				"element": "C" 
			},
			{
				"x": 2.0747906627,
				"y": -3.927680605,
				"z": -0.2261248871,
				"element": "O" 
			},
			{
				"x": 1.4536260541,
				"y": -2.0438094987,
				"z": -1.5268345994,
				"element": "C" 
			},
			{
				"x": 2.905339591,
				"y": -1.7628432411,
				"z": -1.9491259739,
				"element": "C" 
			},
			{
				"x": 3.6411382217,
				"y": -0.7550840653,
				"z": -1.0584176128,
				"element": "C" 
			},
			{
				"x": -3.1076858747,
				"y": 3.0241118776,
				"z": 0.2005844329,
				"element": "H" 
			},
			{
				"x": -3.9923188816,
				"y": 1.8782489925,
				"z": 1.2164252406,
				"element": "H" 
			},
			{
				"x": -2.6920968691,
				"y": 2.8528100796,
				"z": 1.9115590954,
				"element": "H" 
			},
			{
				"x": -2.3118164552,
				"y": 0.7007011484,
				"z": -0.2556315617,
				"element": "H" 
			},
			{
				"x": -1.0174215386,
				"y": 1.6600377631,
				"z": 0.4398669356,
				"element": "H" 
			},
			{
				"x": -2.7811030786,
				"y": -0.3089626949,
				"z": 1.9943938454,
				"element": "H" 
			},
			{
				"x": -1.5409454135,
				"y": 0.7046259248,
				"z": 2.7117309831,
				"element": "H" 
			},
			{
				"x": -0.6112435107,
				"y": -1.5017768667,
				"z": 2.4265029019,
				"element": "H" 
			},
			{
				"x": 0.2064301391,
				"y": -0.4212330959,
				"z": 1.3120399246,
				"element": "H" 
			},
			{
				"x": -1.1767693877,
				"y": -1.3076589043,
				"z": -0.5819229597,
				"element": "H" 
			},
			{
				"x": -2.1229263066,
				"y": -2.2614701015,
				"z": 0.5386663609,
				"element": "H" 
			},
			{
				"x": -0.147908428,
				"y": -3.6290474618,
				"z": 1.1343743012,
				"element": "H" 
			},
			{
				"x": -0.5382300896,
				"y": -3.7327857923,
				"z": -0.5766414895,
				"element": "H" 
			},
			{
				"x": 1.7234501238,
				"y": -2.0611648568,
				"z": 0.6133159122,
				"element": "H" 
			},
			{
				"x": 2.009971064,
				"y": -4.3650755196,
				"z": 0.6324512005,
				"element": "H" 
			},
			{
				"x": 0.8885648835,
				"y": -1.1029829108,
				"z": -1.5157514285,
				"element": "H" 
			},
			{
				"x": 0.979019449,
				"y": -2.6905087272,
				"z": -2.2767328784,
				"element": "H" 
			},
			{
				"x": 2.8956885502,
				"y": -1.3883452317,
				"z": -2.9806788981,
				"element": "H" 
			},
			{
				"x": 3.4550291769,
				"y": -2.7094569646,
				"z": -1.9637759253,
				"element": "H" 
			},
			{
				"x": 4.6433752121,
				"y": -0.546961439,
				"z": -1.4475669456,
				"element": "H" 
			},
			{
				"x": 3.1029281518,
				"y": 0.1990764664,
				"z": -1.0034987669,
				"element": "H" 
			},
			{
				"x": 3.7610826721,
				"y": -1.1293264041,
				"z": -0.0364361368,
				"element": "H" 
			}
		],
		 "valence_orbital": [ 
			{
				"type": "occ",
				"energy": -0.31911,
				"method": "rhf"
			},
			{
				"type": "occ",
				"energy": -0.31204,
				"method": "rhf"
			},
			{
				"type": "occ",
				"energy": -0.30909,
				"method": "rhf"
			},
			{
				"type": "occ",
				"energy": -0.29823,
				"method": "rhf"
			},
			{
				"type": "occ",
				"energy": -0.25614,
				"method": "rhf"
			},
			{
				"type": "unocc",
				"energy": 0.07476,
				"method": "rhf"
			},
			{
				"type": "unocc",
				"energy": 0.08618,
				"method": "rhf"
			},
			{
				"type": "unocc",
				"energy": 0.10262,
				"method": "rhf"
			},
			{
				"type": "unocc",
				"energy": 0.10546,
				"method": "rhf"
			},
			{
				"type": "unocc",
				"energy": 0.11158,
				"method": "rhf"
			}
		],
		"cosmo_sigma_profile": { 
			"-0.025": 0.0,
			"-0.024": 0.0,
			"-0.023": 0.0,
			"-0.022": 0.0,
			"-0.021": 0.0,
			"-0.02": 0.0,
			"-0.019": 0.0,
			"-0.018": 0.0,
			"-0.017": 0.0,
			"-0.016": 0.0,
			"-0.015": 0.293872970903,
			"-0.014": 0.866102415098,
			"-0.013": 0.986548161135,
			"-0.012": 0.946317799589,
			"-0.011": 0.770923621063,
			"-0.01": 1.05975813776,
			"-0.009": 0.720962253132,
			"-0.008": 0.853884506196,
			"-0.007": 0.894372107628,
			"-0.006": 1.54550688641,
			"-0.005": 1.31831907998,
			"-0.004": 1.15301989784,
			"-0.003": 6.81667885597,
			"-0.002": 39.1275330491,
			"-0.001": 52.218057112,
			"0.0": 53.4222250989,
			"0.001": 47.6017095098,
			"0.002": 22.2733453977,
			"0.003": 3.04737609101,
			"0.004": 1.57492939623,
			"0.005": 1.58430456375,
			"0.006": 1.39942428244,
			"0.007": 1.17977087032,
			"0.008": 1.7430394866,
			"0.009": 1.56143356396,
			"0.01": 1.10111985497,
			"0.011": 1.85704252146,
			"0.012": 1.95859471419,
			"0.013": 1.07769320925,
			"0.014": 0.935230488328,
			"0.015": 0.645785858181,
			"0.016": 0.0,
			"0.017": 0.0,
			"0.018": 0.0,
			"0.019": 0.0,
			"0.02": 0.0,
			"0.021": 0.0,
			"0.022": 0.0,
			"0.023": 0.0,
			"0.024": 0.0,
			"0.025": 0.0
		}
	}
}
