{
	 "smiles": "OC(=O)C1=C(O)C(Cl)=CC(=C1)C1=CC=CC=C1", 
	 "Tm": 476.15, 
	 "num_atms": 26, 
	 "gaussian": { 
		 "optdone": 1, 
		 "sigma_profile": "yes", 
		 "theory": "DFT", 
		 "functional": "B3LYP", 
		 "basiset": "6-31G**", 
		 "properties": { 
			 "R2extent": 6653.4461, 
			 "electric_dipole_moment_norm": 3.77872072929, 
			 "electric_quadrupole_moment_norm": 17.9806130012, 
			 "total_energy": -1186.70435661, 
			 "HOMO_LUMO_gap": 0.15691, 
			 "cosmo_polarized_energy": -11.38, 
			 "cosmo_cavitation_energy": 32.51, 
			 "cosmo_dispersion_energy": -24.16, 
			 "cosmo_repulsion_energy": 1.85, 
			 "cosmo_total_nonelectrostatic_energy": 10.2, 
			 "SMD_solvation_energy": 6.52 
		},
		"coords": [
			{
				"x": -1.1019594206,
				"y": -0.1142167146,
				"z": -4.3776230684,
				"element": "O" 
			},
			{
				"x": 0.2006610566,
				"y": -0.4507691513,
				"z": -4.3885706405,
				"element": "C" 
			},
			{
				"x": 0.7512868341,
				"y": -0.8075782544,
				"z": -5.4323960652,
				"element": "O" 
			},
			{
				"x": 0.8751627877,
				"y": -0.353196933,
				"z": -3.08868663,
				"element": "C" 
			},
			{
				"x": 2.2505487753,
				"y": -0.6999233541,
				"z": -3.0268759889,
				"element": "C" 
			},
			{
				"x": 2.9524516277,
				"y": -1.098647894,
				"z": -4.0891655446,
				"element": "O" 
			},
			{
				"x": 2.8877015065,
				"y": -0.6108115769,
				"z": -1.7719716646,
				"element": "C" 
			},
			{
				"x": 4.5844221402,
				"y": -1.0155216668,
				"z": -1.6557774472,
				"element": "Cl" 
			},
			{
				"x": 2.1966152889,
				"y": -0.1989079725,
				"z": -0.6439886435,
				"element": "C" 
			},
			{
				"x": 0.8294567509,
				"y": 0.1442191624,
				"z": -0.6985811404,
				"element": "C" 
			},
			{
				"x": 0.1894536741,
				"y": 0.0579789548,
				"z": -1.9336627317,
				"element": "C" 
			},
			{
				"x": 0.1051587762,
				"y": 0.5782108862,
				"z": 0.5228644044,
				"element": "C" 
			},
			{
				"x": -0.865537486,
				"y": 1.5924608118,
				"z": 0.4620565975,
				"element": "C" 
			},
			{
				"x": -1.5508638027,
				"y": 1.99633282,
				"z": 1.606871106,
				"element": "C" 
			},
			{
				"x": -1.276282859,
				"y": 1.3992501648,
				"z": 2.8387413814,
				"element": "C" 
			},
			{
				"x": -0.3118466907,
				"y": 0.3926819784,
				"z": 2.9146157698,
				"element": "C" 
			},
			{
				"x": 0.3700367348,
				"y": -0.0148825286,
				"z": 1.7688774411,
				"element": "C" 
			},
			{
				"x": -1.4186946985,
				"y": -0.2240034903,
				"z": -5.2896099096,
				"element": "H" 
			},
			{
				"x": 2.333565858,
				"y": -1.0954305638,
				"z": -4.8604401245,
				"element": "H" 
			},
			{
				"x": 2.7361486676,
				"y": -0.1216623322,
				"z": 0.2936683551,
				"element": "H" 
			},
			{
				"x": -0.8659165628,
				"y": 0.2888069535,
				"z": -2.0162215782,
				"element": "H" 
			},
			{
				"x": -1.0657219721,
				"y": 2.0846451261,
				"z": -0.4852598764,
				"element": "H" 
			},
			{
				"x": -2.292611289,
				"y": 2.7869656687,
				"z": 1.5378363281,
				"element": "H" 
			},
			{
				"x": -1.8081347917,
				"y": 1.715936153,
				"z": 3.7310882315,
				"element": "H" 
			},
			{
				"x": -0.0957103026,
				"y": -0.0844290191,
				"z": 3.8662641875,
				"element": "H" 
			},
			{
				"x": 1.0970093972,
				"y": -0.8192072284,
				"z": 1.8360472512,
				"element": "H" 
			}
		],
		 "valence_orbital": [ 
			{
				"type": "occ",
				"energy": -0.30138,
				"method": "rhf"
			},
			{
				"type": "occ",
				"energy": -0.27456,
				"method": "rhf"
			},
			{
				"type": "occ",
				"energy": -0.25847,
				"method": "rhf"
			},
			{
				"type": "occ",
				"energy": -0.25698,
				"method": "rhf"
			},
			{
				"type": "occ",
				"energy": -0.22167,
				"method": "rhf"
			},
			{
				"type": "unocc",
				"energy": -0.06476,
				"method": "rhf"
			},
			{
				"type": "unocc",
				"energy": -0.03246,
				"method": "rhf"
			},
			{
				"type": "unocc",
				"energy": -0.00878,
				"method": "rhf"
			},
			{
				"type": "unocc",
				"energy": 0.01246,
				"method": "rhf"
			},
			{
				"type": "unocc",
				"energy": 0.03081,
				"method": "rhf"
			}
		],
		"cosmo_sigma_profile": { 
			"-0.025": 0.0,
			"-0.024": 0.0,
			"-0.023": 0.0,
			"-0.022": 0.0,
			"-0.021": 0.0,
			"-0.02": 0.0582747370779,
			"-0.019": 0.70116094736,
			"-0.018": 0.870346829784,
			"-0.017": 1.28782512617,
			"-0.016": 0.44647440387,
			"-0.015": 0.446826095639,
			"-0.014": 0.7437791633,
			"-0.013": 0.592221195134,
			"-0.012": 0.968016005842,
			"-0.011": 0.566987345616,
			"-0.01": 0.526354980114,
			"-0.009": 0.564619671853,
			"-0.008": 2.35135572033,
			"-0.007": 4.56752342018,
			"-0.006": 11.8254672058,
			"-0.005": 15.4666706264,
			"-0.004": 18.7391444443,
			"-0.003": 17.8566745512,
			"-0.002": 16.7482339938,
			"-0.001": 17.5729146472,
			"0.0": 22.4225498483,
			"0.001": 26.1278066739,
			"0.002": 22.547834441,
			"0.003": 16.3841488256,
			"0.004": 20.291881198,
			"0.005": 18.0789242593,
			"0.006": 7.85095710822,
			"0.007": 4.4944767904,
			"0.008": 3.01085623508,
			"0.009": 3.74471417169,
			"0.01": 3.9118755935,
			"0.011": 1.83662796508,
			"0.012": 0.0,
			"0.013": 0.0,
			"0.014": 0.0,
			"0.015": 0.0,
			"0.016": 0.0,
			"0.017": 0.0,
			"0.018": 0.0,
			"0.019": 0.0,
			"0.02": 0.0,
			"0.021": 0.0,
			"0.022": 0.0,
			"0.023": 0.0,
			"0.024": 0.0,
			"0.025": 0.0
		}
	}
}
