{
	 "smiles": "CC1=CC(=CC(C)=C1)C(=O)N1CCCC(C1)C(O)=O", 
	 "Tm": 462.15, 
	 "num_atms": 38, 
	 "gaussian": { 
		 "optdone": 1, 
		 "sigma_profile": "yes", 
		 "theory": "DFT", 
		 "functional": "B3LYP", 
		 "basiset": "6-31G**", 
		 "properties": { 
			 "R2extent": 6403.8928, 
			 "electric_dipole_moment_norm": 4.46705860494, 
			 "electric_quadrupole_moment_norm": 36.6650075809, 
			 "total_energy": -863.506408138, 
			 "HOMO_LUMO_gap": 0.20755, 
			 "cosmo_polarized_energy": -20.81, 
			 "cosmo_cavitation_energy": 38.98, 
			 "cosmo_dispersion_energy": -27.49, 
			 "cosmo_repulsion_energy": 2.11, 
			 "cosmo_total_nonelectrostatic_energy": 13.6, 
			 "SMD_solvation_energy": 7.02 
		},
		"coords": [
			{
				"x": -0.5817688176,
				"y": -1.8888537298,
				"z": 2.6485281464,
				"element": "C" 
			},
			{
				"x": 0.2866744158,
				"y": -1.917394507,
				"z": 1.4122093674,
				"element": "C" 
			},
			{
				"x": 0.9118663998,
				"y": -0.7456105645,
				"z": 0.965013109,
				"element": "C" 
			},
			{
				"x": 1.7335992993,
				"y": -0.760837956,
				"z": -0.1652771321,
				"element": "C" 
			},
			{
				"x": 1.9578707408,
				"y": -1.9685145389,
				"z": -0.8419479997,
				"element": "C" 
			},
			{
				"x": 1.3354430502,
				"y": -3.1467086923,
				"z": -0.4273645379,
				"element": "C" 
			},
			{
				"x": 1.5385222925,
				"y": -4.4411366213,
				"z": -1.1807776724,
				"element": "C" 
			},
			{
				"x": 0.5015807792,
				"y": -3.100861665,
				"z": 0.7002100117,
				"element": "C" 
			},
			{
				"x": 2.4946989405,
				"y": 0.4428186308,
				"z": -0.6433393013,
				"element": "C" 
			},
			{
				"x": 3.6696230186,
				"y": 0.3327727776,
				"z": -0.9904590732,
				"element": "O" 
			},
			{
				"x": 1.8824375262,
				"y": 1.6877783986,
				"z": -0.6704693047,
				"element": "N" 
			},
			{
				"x": 2.7490587136,
				"y": 2.7752819325,
				"z": -1.1603150827,
				"element": "C" 
			},
			{
				"x": 2.0230310149,
				"y": 4.1270789699,
				"z": -1.1034719617,
				"element": "C" 
			},
			{
				"x": 1.0961200748,
				"y": 4.1857092629,
				"z": 0.1144890376,
				"element": "C" 
			},
			{
				"x": -0.0455905063,
				"y": 3.1504674292,
				"z": -0.05535429,
				"element": "C" 
			},
			{
				"x": 0.4433860142,
				"y": 1.9021595138,
				"z": -0.8344941636,
				"element": "C" 
			},
			{
				"x": -0.7336963167,
				"y": 2.7875803139,
				"z": 1.2662463458,
				"element": "C" 
			},
			{
				"x": -0.9345690849,
				"y": 3.8155651245,
				"z": 2.1291934804,
				"element": "O" 
			},
			{
				"x": -1.1350243251,
				"y": 1.6855184719,
				"z": 1.5533423128,
				"element": "O" 
			},
			{
				"x": 0.0226367829,
				"y": -1.9898497601,
				"z": 3.5589356147,
				"element": "H" 
			},
			{
				"x": -1.127220679,
				"y": -0.9435632677,
				"z": 2.7213378138,
				"element": "H" 
			},
			{
				"x": -1.3067781732,
				"y": -2.7083675189,
				"z": 2.6465522745,
				"element": "H" 
			},
			{
				"x": 0.7508405179,
				"y": 0.1763881851,
				"z": 1.5108938656,
				"element": "H" 
			},
			{
				"x": 2.6324940783,
				"y": -1.9718177161,
				"z": -1.692591575,
				"element": "H" 
			},
			{
				"x": 0.6697755041,
				"y": -4.6771634065,
				"z": -1.8080761635,
				"element": "H" 
			},
			{
				"x": 1.6796672061,
				"y": -5.2844112022,
				"z": -0.4966068943,
				"element": "H" 
			},
			{
				"x": 2.4123183826,
				"y": -4.3876191822,
				"z": -1.8360951934,
				"element": "H" 
			},
			{
				"x": 0.013295223,
				"y": -4.0147406934,
				"z": 1.034303068,
				"element": "H" 
			},
			{
				"x": 3.6411353928,
				"y": 2.7923750235,
				"z": -0.5282633284,
				"element": "H" 
			},
			{
				"x": 3.0994896379,
				"y": 2.5564882118,
				"z": -2.1776600005,
				"element": "H" 
			},
			{
				"x": 2.7666390446,
				"y": 4.9292634754,
				"z": -1.0650750565,
				"element": "H" 
			},
			{
				"x": 1.4342754278,
				"y": 4.2934256073,
				"z": -2.0141271254,
				"element": "H" 
			},
			{
				"x": 0.6919085557,
				"y": 5.2004631941,
				"z": 0.2277066677,
				"element": "H" 
			},
			{
				"x": 1.6762387446,
				"y": 3.9621100426,
				"z": 1.0179840508,
				"element": "H" 
			},
			{
				"x": -0.8370935892,
				"y": 3.6166287601,
				"z": -0.661048252,
				"element": "H" 
			},
			{
				"x": 0.2143836221,
				"y": 2.0418061771,
				"z": -1.901109397,
				"element": "H" 
			},
			{
				"x": -0.1026570935,
				"y": 1.0245715357,
				"z": -0.4958094027,
				"element": "H" 
			},
			{
				"x": -0.5569118156,
				"y": 4.6337999836,
				"z": 1.7769877417,
				"element": "H" 
			}
		],
		 "valence_orbital": [ 
			{
				"type": "occ",
				"energy": -0.28158,
				"method": "rhf"
			},
			{
				"type": "occ",
				"energy": -0.25293,
				"method": "rhf"
			},
			{
				"type": "occ",
				"energy": -0.23671,
				"method": "rhf"
			},
			{
				"type": "occ",
				"energy": -0.2315,
				"method": "rhf"
			},
			{
				"type": "occ",
				"energy": -0.22662,
				"method": "rhf"
			},
			{
				"type": "unocc",
				"energy": -0.01907,
				"method": "rhf"
			},
			{
				"type": "unocc",
				"energy": -0.00271,
				"method": "rhf"
			},
			{
				"type": "unocc",
				"energy": 0.00941,
				"method": "rhf"
			},
			{
				"type": "unocc",
				"energy": 0.04202,
				"method": "rhf"
			},
			{
				"type": "unocc",
				"energy": 0.05157,
				"method": "rhf"
			}
		],
		"cosmo_sigma_profile": { 
			"-0.025": 0.0,
			"-0.024": 0.0,
			"-0.023": 0.0,
			"-0.022": 0.0,
			"-0.021": 0.0,
			"-0.02": 0.0,
			"-0.019": 0.0,
			"-0.018": 0.287207157134,
			"-0.017": 0.984578871635,
			"-0.016": 1.11902842684,
			"-0.015": 0.866409828185,
			"-0.014": 1.20603718737,
			"-0.013": 1.22926455921,
			"-0.012": 0.616466158633,
			"-0.011": 1.20074362087,
			"-0.01": 1.48212078541,
			"-0.009": 1.02123052292,
			"-0.008": 1.89421465302,
			"-0.007": 5.22630335807,
			"-0.006": 7.60625295469,
			"-0.005": 15.1873718659,
			"-0.004": 30.4031731718,
			"-0.003": 37.3324287295,
			"-0.002": 31.9243917507,
			"-0.001": 28.5738345655,
			"0.0": 27.8175687575,
			"0.001": 16.7191318939,
			"0.002": 12.2590279879,
			"0.003": 10.7925770636,
			"0.004": 11.3185860817,
			"0.005": 13.399660108,
			"0.006": 6.55134798588,
			"0.007": 4.86824229015,
			"0.008": 5.29023963621,
			"0.009": 4.68856405723,
			"0.01": 6.73687202261,
			"0.011": 5.0665437308,
			"0.012": 2.99939027335,
			"0.013": 3.539456965,
			"0.014": 4.43376372894,
			"0.015": 1.10216196775,
			"0.016": 0.0,
			"0.017": 0.0,
			"0.018": 0.0,
			"0.019": 0.0,
			"0.02": 0.0,
			"0.021": 0.0,
			"0.022": 0.0,
			"0.023": 0.0,
			"0.024": 0.0,
			"0.025": 0.0
		}
	}
}
