{
	 "smiles": "OC(=O)C1CCN(C1=O)C1=CC(Br)=CC=C1", 
	 "Tm": 418.15, 
	 "num_atms": 26, 
	 "gaussian": { 
		 "optdone": 1, 
		 "sigma_profile": "yes", 
		 "theory": "DFT", 
		 "functional": "B3LYP", 
		 "basiset": "6-31G**", 
		 "properties": { 
			 "R2extent": 6760.1721, 
			 "electric_dipole_moment_norm": 5.59117670442, 
			 "electric_quadrupole_moment_norm": 13.4994855906, 
			 "total_energy": -3277.05455301, 
			 "HOMO_LUMO_gap": 0.20318, 
			 "cosmo_polarized_energy": -17.59, 
			 "cosmo_cavitation_energy": 32.42, 
			 "cosmo_dispersion_energy": -23.99, 
			 "cosmo_repulsion_energy": 1.88, 
			 "cosmo_total_nonelectrostatic_energy": 10.31, 
			 "SMD_solvation_energy": 5.49 
		},
		"coords": [
			{
				"x": -0.7958093759,
				"y": -2.7530155956,
				"z": 3.5881873376,
				"element": "O" 
			},
			{
				"x": -0.7605204238,
				"y": -3.4829959701,
				"z": 2.4481927498,
				"element": "C" 
			},
			{
				"x": -0.534548088,
				"y": -4.6697980823,
				"z": 2.4293178998,
				"element": "O" 
			},
			{
				"x": -1.0468628804,
				"y": -2.6292203274,
				"z": 1.2288171717,
				"element": "C" 
			},
			{
				"x": -2.3393420349,
				"y": -1.7996720342,
				"z": 1.2775569395,
				"element": "C" 
			},
			{
				"x": -2.0208368459,
				"y": -0.5862091914,
				"z": 0.3899336046,
				"element": "C" 
			},
			{
				"x": -0.5669900203,
				"y": -0.4265013212,
				"z": 0.515978992,
				"element": "N" 
			},
			{
				"x": 0.049883722,
				"y": -1.5713715479,
				"z": 0.9998672694,
				"element": "C" 
			},
			{
				"x": 1.2392398108,
				"y": -1.7450731756,
				"z": 1.1885691449,
				"element": "O" 
			},
			{
				"x": 0.0910081882,
				"y": 0.7360388307,
				"z": 0.0475522729,
				"element": "C" 
			},
			{
				"x": 1.4455483096,
				"y": 0.978139803,
				"z": 0.3430391573,
				"element": "C" 
			},
			{
				"x": 2.038411652,
				"y": 2.1439748632,
				"z": -0.1283595406,
				"element": "C" 
			},
			{
				"x": 3.8794104156,
				"y": 2.4646862801,
				"z": 0.2819761683,
				"element": "Br" 
			},
			{
				"x": 1.342328745,
				"y": 3.0869293983,
				"z": -0.8825247407,
				"element": "C" 
			},
			{
				"x": 0.0025357698,
				"y": 2.8342745589,
				"z": -1.1689479464,
				"element": "C" 
			},
			{
				"x": -0.6244146464,
				"y": 1.6752277507,
				"z": -0.7151128592,
				"element": "C" 
			},
			{
				"x": -0.5729392408,
				"y": -3.3631832673,
				"z": 4.3109821746,
				"element": "H" 
			},
			{
				"x": -1.0332158358,
				"y": -3.3065483177,
				"z": 0.368335821,
				"element": "H" 
			},
			{
				"x": -3.2157924542,
				"y": -2.348273542,
				"z": 0.9263991126,
				"element": "H" 
			},
			{
				"x": -2.5242792347,
				"y": -1.4713481964,
				"z": 2.3032749929,
				"element": "H" 
			},
			{
				"x": -2.3002103429,
				"y": -0.7628975265,
				"z": -0.6577947515,
				"element": "H" 
			},
			{
				"x": -2.5334779859,
				"y": 0.318276146,
				"z": 0.7288024002,
				"element": "H" 
			},
			{
				"x": 2.0106054591,
				"y": 0.2601085497,
				"z": 0.9170782875,
				"element": "H" 
			},
			{
				"x": 1.8335741317,
				"y": 3.9862483169,
				"z": -1.2339440258,
				"element": "H" 
			},
			{
				"x": -0.5638456057,
				"y": 3.5492698327,
				"z": -1.7582219951,
				"element": "H" 
			},
			{
				"x": -1.6638611881,
				"y": 1.5065337655,
				"z": -0.9678556373,
				"element": "H" 
			}
		],
		 "valence_orbital": [ 
			{
				"type": "occ",
				"energy": -0.28408,
				"method": "rhf"
			},
			{
				"type": "occ",
				"energy": -0.2829,
				"method": "rhf"
			},
			{
				"type": "occ",
				"energy": -0.26576,
				"method": "rhf"
			},
			{
				"type": "occ",
				"energy": -0.24684,
				"method": "rhf"
			},
			{
				"type": "occ",
				"energy": -0.23175,
				"method": "rhf"
			},
			{
				"type": "unocc",
				"energy": -0.02857,
				"method": "rhf"
			},
			{
				"type": "unocc",
				"energy": -0.01599,
				"method": "rhf"
			},
			{
				"type": "unocc",
				"energy": -0.00422,
				"method": "rhf"
			},
			{
				"type": "unocc",
				"energy": 0.00977,
				"method": "rhf"
			},
			{
				"type": "unocc",
				"energy": 0.02624,
				"method": "rhf"
			}
		],
		"cosmo_sigma_profile": { 
			"-0.025": 0.0,
			"-0.024": 0.0,
			"-0.023": 0.0,
			"-0.022": 0.0,
			"-0.021": 0.0,
			"-0.02": 0.0,
			"-0.019": 0.211833597251,
			"-0.018": 0.991618473132,
			"-0.017": 0.951212414695,
			"-0.016": 0.737127267573,
			"-0.015": 0.795507752155,
			"-0.014": 1.13411812775,
			"-0.013": 0.348085219253,
			"-0.012": 0.429658697439,
			"-0.011": 0.969897903267,
			"-0.01": 0.854322797614,
			"-0.009": 0.469567799149,
			"-0.008": 3.74618941512,
			"-0.007": 11.0719908473,
			"-0.006": 20.3729607507,
			"-0.005": 22.2629348559,
			"-0.004": 15.6154965981,
			"-0.003": 14.9603157857,
			"-0.002": 12.8470270675,
			"-0.001": 12.5224328939,
			"0.0": 13.8336015404,
			"0.001": 15.3780841994,
			"0.002": 20.1339030054,
			"0.003": 22.5877030446,
			"0.004": 21.3578546292,
			"0.005": 11.7909647422,
			"0.006": 5.23055953496,
			"0.007": 4.51812431541,
			"0.008": 4.27184100303,
			"0.009": 3.50053034873,
			"0.01": 4.30176386305,
			"0.011": 7.88390819209,
			"0.012": 5.1944330371,
			"0.013": 0.413937051846,
			"0.014": 0.0,
			"0.015": 0.0,
			"0.016": 0.0,
			"0.017": 0.0,
			"0.018": 0.0,
			"0.019": 0.0,
			"0.02": 0.0,
			"0.021": 0.0,
			"0.022": 0.0,
			"0.023": 0.0,
			"0.024": 0.0,
			"0.025": 0.0
		}
	}
}
