{
	 "smiles": "CCCC1=CC=C(NC(C)=O)C=C1O", 
	 "Tm": 451.15, 
	 "num_atms": 29, 
	 "gaussian": { 
		 "optdone": 1, 
		 "sigma_profile": "yes", 
		 "theory": "DFT", 
		 "functional": "B3LYP", 
		 "basiset": "6-31G**", 
		 "properties": { 
			 "R2extent": 4666.418, 
			 "electric_dipole_moment_norm": 4.97223052764, 
			 "electric_quadrupole_moment_norm": 18.6524877759, 
			 "total_energy": -633.43722994, 
			 "HOMO_LUMO_gap": 0.20304, 
			 "cosmo_polarized_energy": -14.39, 
			 "cosmo_cavitation_energy": 32.0, 
			 "cosmo_dispersion_energy": -22.92, 
			 "cosmo_repulsion_energy": 1.83, 
			 "cosmo_total_nonelectrostatic_energy": 10.91, 
			 "SMD_solvation_energy": 6.29 
		},
		"coords": [
			{
				"x": 1.0574771285,
				"y": 2.43584459,
				"z": 3.7849601525,
				"element": "C" 
			},
			{
				"x": 0.1811066618,
				"y": 2.0382027261,
				"z": 2.5939540379,
				"element": "C" 
			},
			{
				"x": 0.9863447863,
				"y": 1.4012105809,
				"z": 1.4402061654,
				"element": "C" 
			},
			{
				"x": 0.1427962732,
				"y": 0.9963727241,
				"z": 0.2504345543,
				"element": "C" 
			},
			{
				"x": 0.0613770762,
				"y": 1.8005026115,
				"z": -0.8926099019,
				"element": "C" 
			},
			{
				"x": -0.7238615255,
				"y": 1.4578900682,
				"z": -1.9880928589,
				"element": "C" 
			},
			{
				"x": -1.4797766723,
				"y": 0.2747553991,
				"z": -1.9624923325,
				"element": "C" 
			},
			{
				"x": -2.2954967468,
				"y": -0.0215442285,
				"z": -3.0758093553,
				"element": "N" 
			},
			{
				"x": -2.6095670513,
				"y": -1.2096631716,
				"z": -3.717256308,
				"element": "C" 
			},
			{
				"x": -2.0293432631,
				"y": -2.5064380347,
				"z": -3.1872507852,
				"element": "C" 
			},
			{
				"x": -3.3335058025,
				"y": -1.1805187985,
				"z": -4.7026371752,
				"element": "O" 
			},
			{
				"x": -1.4385556315,
				"y": -0.5332853197,
				"z": -0.8222345895,
				"element": "C" 
			},
			{
				"x": -0.6260949354,
				"y": -0.1819820488,
				"z": 0.2590041652,
				"element": "C" 
			},
			{
				"x": -0.6454495819,
				"y": -1.0416654849,
				"z": 1.3238040705,
				"element": "O" 
			},
			{
				"x": 1.574222691,
				"y": 1.5672070885,
				"z": 4.2096559922,
				"element": "H" 
			},
			{
				"x": 1.8235442881,
				"y": 3.16098174,
				"z": 3.4879570035,
				"element": "H" 
			},
			{
				"x": 0.4613793727,
				"y": 2.889684853,
				"z": 4.5828110143,
				"element": "H" 
			},
			{
				"x": -0.3468203548,
				"y": 2.9172896767,
				"z": 2.2056687013,
				"element": "H" 
			},
			{
				"x": -0.6025155062,
				"y": 1.342912475,
				"z": 2.9232005455,
				"element": "H" 
			},
			{
				"x": 1.7520427376,
				"y": 2.11150621,
				"z": 1.1073601828,
				"element": "H" 
			},
			{
				"x": 1.5510064029,
				"y": 0.5370750873,
				"z": 1.8272515403,
				"element": "H" 
			},
			{
				"x": 0.6456049356,
				"y": 2.7169267541,
				"z": -0.9270492662,
				"element": "H" 
			},
			{
				"x": -0.7432448075,
				"y": 2.0912006189,
				"z": -2.8700226058,
				"element": "H" 
			},
			{
				"x": -2.6457266448,
				"y": 0.7735934269,
				"z": -3.5963961251,
				"element": "H" 
			},
			{
				"x": -2.6722610485,
				"y": -2.917234454,
				"z": -2.4015183317,
				"element": "H" 
			},
			{
				"x": -1.0249894409,
				"y": -2.3880156162,
				"z": -2.7751022979,
				"element": "H" 
			},
			{
				"x": -2.0173363625,
				"y": -3.215897727,
				"z": -4.015331463,
				"element": "H" 
			},
			{
				"x": -2.0449438478,
				"y": -1.4251502455,
				"z": -0.7338202161,
				"element": "H" 
			},
			{
				"x": -0.0402131308,
				"y": -0.7235615011,
				"z": 2.0048554866,
				"element": "H" 
			}
		],
		 "valence_orbital": [ 
			{
				"type": "occ",
				"energy": -0.33747,
				"method": "rhf"
			},
			{
				"type": "occ",
				"energy": -0.28561,
				"method": "rhf"
			},
			{
				"type": "occ",
				"energy": -0.24821,
				"method": "rhf"
			},
			{
				"type": "occ",
				"energy": -0.2356,
				"method": "rhf"
			},
			{
				"type": "occ",
				"energy": -0.21469,
				"method": "rhf"
			},
			{
				"type": "unocc",
				"energy": -0.01165,
				"method": "rhf"
			},
			{
				"type": "unocc",
				"energy": 0.0012,
				"method": "rhf"
			},
			{
				"type": "unocc",
				"energy": 0.0395,
				"method": "rhf"
			},
			{
				"type": "unocc",
				"energy": 0.05015,
				"method": "rhf"
			},
			{
				"type": "unocc",
				"energy": 0.08856,
				"method": "rhf"
			}
		],
		"cosmo_sigma_profile": { 
			"-0.025": 0.0,
			"-0.024": 0.0,
			"-0.023": 0.0,
			"-0.022": 0.0,
			"-0.021": 0.0,
			"-0.02": 0.0,
			"-0.019": 0.0,
			"-0.018": 0.0,
			"-0.017": 0.0,
			"-0.016": 0.196590648807,
			"-0.015": 0.608812057948,
			"-0.014": 1.27092252597,
			"-0.013": 1.77277928003,
			"-0.012": 2.33855551388,
			"-0.011": 1.82567193239,
			"-0.01": 1.66629078845,
			"-0.009": 2.52387438668,
			"-0.008": 2.77819482905,
			"-0.007": 5.84177288956,
			"-0.006": 6.88448930777,
			"-0.005": 11.7851013476,
			"-0.004": 16.7698612735,
			"-0.003": 20.8564378911,
			"-0.002": 26.7051226777,
			"-0.001": 26.9901207983,
			"0.0": 22.6183776609,
			"0.001": 20.2956027829,
			"0.002": 11.6320672274,
			"0.003": 10.4128031365,
			"0.004": 12.7743853459,
			"0.005": 10.8104697512,
			"0.006": 5.37824711194,
			"0.007": 2.12007940315,
			"0.008": 2.36023810515,
			"0.009": 3.06520428263,
			"0.01": 3.29808684015,
			"0.011": 2.97971400071,
			"0.012": 2.92294224662,
			"0.013": 4.74118594554,
			"0.014": 4.43720172544,
			"0.015": 0.69908999731,
			"0.016": 0.0,
			"0.017": 0.0,
			"0.018": 0.0,
			"0.019": 0.0,
			"0.02": 0.0,
			"0.021": 0.0,
			"0.022": 0.0,
			"0.023": 0.0,
			"0.024": 0.0,
			"0.025": 0.0
		}
	}
}
