{
	 "smiles": "NC1=CC(=CC=C1O)[N+]([O-])=O", 
	 "Tm": 417.15, 
	 "num_atms": 17, 
	 "gaussian": { 
		 "optdone": 1, 
		 "sigma_profile": "yes", 
		 "theory": "DFT", 
		 "functional": "B3LYP", 
		 "basiset": "6-31G**", 
		 "properties": { 
			 "R2extent": 2629.7075, 
			 "electric_dipole_moment_norm": 6.16695614627, 
			 "electric_quadrupole_moment_norm": 19.8104154666, 
			 "total_energy": -567.329427236, 
			 "HOMO_LUMO_gap": 0.14106, 
			 "cosmo_polarized_energy": -16.49, 
			 "cosmo_cavitation_energy": 22.03, 
			 "cosmo_dispersion_energy": -16.61, 
			 "cosmo_repulsion_energy": 1.34, 
			 "cosmo_total_nonelectrostatic_energy": 6.75, 
			 "SMD_solvation_energy": 6.4 
		},
		"coords": [
			{
				"x": 0.2128839854,
				"y": -2.5415952272,
				"z": 0.8855345669,
				"element": "N" 
			},
			{
				"x": -0.0327143494,
				"y": -1.1849787454,
				"z": 1.0377660067,
				"element": "C" 
			},
			{
				"x": 0.3742136046,
				"y": -0.4645734806,
				"z": 2.1608054272,
				"element": "C" 
			},
			{
				"x": 0.0412338493,
				"y": 0.8868244497,
				"z": 2.2765506421,
				"element": "C" 
			},
			{
				"x": -0.690574677,
				"y": 1.5612220333,
				"z": 1.3048034486,
				"element": "C" 
			},
			{
				"x": -1.0950689076,
				"y": 0.846204904,
				"z": 0.1784968972,
				"element": "C" 
			},
			{
				"x": -0.774251073,
				"y": -0.5022869747,
				"z": 0.0408976867,
				"element": "C" 
			},
			{
				"x": -1.1303070864,
				"y": -1.2552722838,
				"z": -1.0427657154,
				"element": "O" 
			},
			{
				"x": 0.4842250083,
				"y": 1.6174675608,
				"z": 3.4658270955,
				"element": "N" 
			},
			{
				"x": 1.1389857664,
				"y": 1.0011943918,
				"z": 4.3094509057,
				"element": "O" 
			},
			{
				"x": 0.1788390561,
				"y": 2.8081266793,
				"z": 3.5569679649,
				"element": "O" 
			},
			{
				"x": 0.145910497,
				"y": -2.8849015542,
				"z": -0.0618750706,
				"element": "H" 
			},
			{
				"x": 1.0014698605,
				"y": -2.9080093538,
				"z": 1.3981278969,
				"element": "H" 
			},
			{
				"x": 0.9430238802,
				"y": -0.9377571023,
				"z": 2.9520058677,
				"element": "H" 
			},
			{
				"x": -0.9266623827,
				"y": 2.6087291184,
				"z": 1.4341708729,
				"element": "H" 
			},
			{
				"x": -1.6638798429,
				"y": 1.3426202571,
				"z": -0.604303007,
				"element": "H" 
			},
			{
				"x": -1.6194271887,
				"y": -0.7097146724,
				"z": -1.671961486,
				"element": "H" 
			}
		],
		 "valence_orbital": [ 
			{
				"type": "occ",
				"energy": -0.29679,
				"method": "rhf"
			},
			{
				"type": "occ",
				"energy": -0.29583,
				"method": "rhf"
			},
			{
				"type": "occ",
				"energy": -0.27778,
				"method": "rhf"
			},
			{
				"type": "occ",
				"energy": -0.25811,
				"method": "rhf"
			},
			{
				"type": "occ",
				"energy": -0.21556,
				"method": "rhf"
			},
			{
				"type": "unocc",
				"energy": -0.0745,
				"method": "rhf"
			},
			{
				"type": "unocc",
				"energy": -0.01059,
				"method": "rhf"
			},
			{
				"type": "unocc",
				"energy": 0.02453,
				"method": "rhf"
			},
			{
				"type": "unocc",
				"energy": 0.04576,
				"method": "rhf"
			},
			{
				"type": "unocc",
				"energy": 0.08213,
				"method": "rhf"
			}
		],
		"cosmo_sigma_profile": { 
			"-0.025": 0.0,
			"-0.024": 0.0,
			"-0.023": 0.0,
			"-0.022": 0.0,
			"-0.021": 0.0,
			"-0.02": 0.0,
			"-0.019": 0.614297635285,
			"-0.018": 1.20667672038,
			"-0.017": 1.27322288346,
			"-0.016": 1.23344325407,
			"-0.015": 0.747151833274,
			"-0.014": 0.671210864986,
			"-0.013": 1.97932978861,
			"-0.012": 3.32069343761,
			"-0.011": 3.76089273608,
			"-0.01": 3.91536614406,
			"-0.009": 3.49284229247,
			"-0.008": 4.09843882776,
			"-0.007": 4.996361681,
			"-0.006": 5.59471396219,
			"-0.005": 6.68019569244,
			"-0.004": 6.0862685789,
			"-0.003": 6.22499743145,
			"-0.002": 7.22392222938,
			"-0.001": 7.417889211,
			"0.0": 10.710241814,
			"0.001": 13.5186904754,
			"0.002": 14.9677851968,
			"0.003": 14.0971184818,
			"0.004": 6.22987845561,
			"0.005": 5.2266681863,
			"0.006": 6.36870857908,
			"0.007": 7.51762476088,
			"0.008": 10.2676380386,
			"0.009": 7.2192938191,
			"0.01": 4.86544313636,
			"0.011": 3.02660974347,
			"0.012": 0.594182493988,
			"0.013": 0.380985728306,
			"0.014": 0.0471582148786,
			"0.015": 0.0,
			"0.016": 0.0,
			"0.017": 0.0,
			"0.018": 0.0,
			"0.019": 0.0,
			"0.02": 0.0,
			"0.021": 0.0,
			"0.022": 0.0,
			"0.023": 0.0,
			"0.024": 0.0,
			"0.025": 0.0
		}
	}
}
