{
	 "smiles": "CN1N=C(C)C(NC(=O)CCl)=C1C", 
	 "Tm": 381.15, 
	 "num_atms": 25, 
	 "gaussian": { 
		 "optdone": 1, 
		 "sigma_profile": "yes", 
		 "theory": "DFT", 
		 "functional": "B3LYP", 
		 "basiset": "6-31G**", 
		 "properties": { 
			 "R2extent": 3509.4105, 
			 "electric_dipole_moment_norm": 3.43683710554, 
			 "electric_quadrupole_moment_norm": 12.0280828294, 
			 "total_energy": -1011.76317779, 
			 "HOMO_LUMO_gap": 0.22768, 
			 "cosmo_polarized_energy": -15.16, 
			 "cosmo_cavitation_energy": 30.46, 
			 "cosmo_dispersion_energy": -21.58, 
			 "cosmo_repulsion_energy": 1.76, 
			 "cosmo_total_nonelectrostatic_energy": 10.64, 
			 "SMD_solvation_energy": 4.9 
		},
		"coords": [
			{
				"x": 0.4112752116,
				"y": -3.5378325468,
				"z": -1.4629650875,
				"element": "C" 
			},
			{
				"x": 0.3964827692,
				"y": -2.2956104316,
				"z": -0.7169541639,
				"element": "N" 
			},
			{
				"x": 1.5243241253,
				"y": -1.8861494867,
				"z": -0.0804444044,
				"element": "N" 
			},
			{
				"x": 1.2083443564,
				"y": -0.7334412652,
				"z": 0.5066304333,
				"element": "C" 
			},
			{
				"x": 2.2138554369,
				"y": 0.0275311588,
				"z": 1.3104941989,
				"element": "C" 
			},
			{
				"x": -0.143618199,
				"y": -0.3994788433,
				"z": 0.2295828959,
				"element": "C" 
			},
			{
				"x": -0.8815953039,
				"y": 0.7171229462,
				"z": 0.6876824443,
				"element": "N" 
			},
			{
				"x": -0.5100656054,
				"y": 2.009773653,
				"z": 0.4846426964,
				"element": "C" 
			},
			{
				"x": 0.4942585905,
				"y": 2.3770637102,
				"z": -0.1079065613,
				"element": "O" 
			},
			{
				"x": -1.406891029,
				"y": 3.1049487823,
				"z": 1.0714341659,
				"element": "C" 
			},
			{
				"x": -2.9798570123,
				"y": 2.576212376,
				"z": 1.8193914432,
				"element": "Cl" 
			},
			{
				"x": -0.6383332516,
				"y": -1.424227422,
				"z": -0.5667364444,
				"element": "C" 
			},
			{
				"x": -1.98762878,
				"y": -1.6233492658,
				"z": -1.1754147907,
				"element": "C" 
			},
			{
				"x": 1.4042926605,
				"y": -3.968994263,
				"z": -1.3416789391,
				"element": "H" 
			},
			{
				"x": -0.3374125023,
				"y": -4.2390689562,
				"z": -1.0793199271,
				"element": "H" 
			},
			{
				"x": 0.2216694126,
				"y": -3.3646219495,
				"z": -2.5278843041,
				"element": "H" 
			},
			{
				"x": 1.8497061022,
				"y": 0.215190563,
				"z": 2.3274745757,
				"element": "H" 
			},
			{
				"x": 3.1424982269,
				"y": -0.5435559524,
				"z": 1.3749882837,
				"element": "H" 
			},
			{
				"x": 2.415128657,
				"y": 0.9999534232,
				"z": 0.8511178048,
				"element": "H" 
			},
			{
				"x": -1.7390650921,
				"y": 0.5590801308,
				"z": 1.2002967618,
				"element": "H" 
			},
			{
				"x": -1.6508363659,
				"y": 3.8054308517,
				"z": 0.2734247698,
				"element": "H" 
			},
			{
				"x": -0.8505777363,
				"y": 3.6327851653,
				"z": 1.8468876966,
				"element": "H" 
			},
			{
				"x": -1.9229748978,
				"y": -1.7975775729,
				"z": -2.2555463962,
				"element": "H" 
			},
			{
				"x": -2.5221161948,
				"y": -2.4752721284,
				"z": -0.7369141353,
				"element": "H" 
			},
			{
				"x": -2.5973635788,
				"y": -0.7297126766,
				"z": -1.0210830162,
				"element": "H" 
			}
		],
		 "valence_orbital": [ 
			{
				"type": "occ",
				"energy": -0.29413,
				"method": "rhf"
			},
			{
				"type": "occ",
				"energy": -0.27298,
				"method": "rhf"
			},
			{
				"type": "occ",
				"energy": -0.25963,
				"method": "rhf"
			},
			{
				"type": "occ",
				"energy": -0.23344,
				"method": "rhf"
			},
			{
				"type": "occ",
				"energy": -0.22318,
				"method": "rhf"
			},
			{
				"type": "unocc",
				"energy": 0.0045,
				"method": "rhf"
			},
			{
				"type": "unocc",
				"energy": 0.01447,
				"method": "rhf"
			},
			{
				"type": "unocc",
				"energy": 0.02785,
				"method": "rhf"
			},
			{
				"type": "unocc",
				"energy": 0.07367,
				"method": "rhf"
			},
			{
				"type": "unocc",
				"energy": 0.07831,
				"method": "rhf"
			}
		],
		"cosmo_sigma_profile": { 
			"-0.025": 0.0,
			"-0.024": 0.0,
			"-0.023": 0.0,
			"-0.022": 0.0,
			"-0.021": 0.0,
			"-0.02": 0.0,
			"-0.019": 0.0,
			"-0.018": 0.0,
			"-0.017": 0.0,
			"-0.016": 0.0,
			"-0.015": 0.0,
			"-0.014": 0.0,
			"-0.013": 0.17598962794,
			"-0.012": 0.69834617106,
			"-0.011": 0.367540645818,
			"-0.01": 1.33058430012,
			"-0.009": 3.94867672948,
			"-0.008": 5.62372508857,
			"-0.007": 4.91370208001,
			"-0.006": 12.6003243019,
			"-0.005": 19.3613549603,
			"-0.004": 20.5544238022,
			"-0.003": 22.6141078263,
			"-0.002": 20.5740310323,
			"-0.001": 19.5540480303,
			"0.0": 18.6989650034,
			"0.001": 12.6380294684,
			"0.002": 10.0066066123,
			"0.003": 10.0006102965,
			"0.004": 10.4392543942,
			"0.005": 12.1344752544,
			"0.006": 7.94950066206,
			"0.007": 3.22504133132,
			"0.008": 3.22916554003,
			"0.009": 3.84150744997,
			"0.01": 2.43170586947,
			"0.011": 2.7047325816,
			"0.012": 4.45683685507,
			"0.013": 5.22401867379,
			"0.014": 2.3138000011,
			"0.015": 0.579788052831,
			"0.016": 0.682901999859,
			"0.017": 0.0127659302296,
			"0.018": 0.0,
			"0.019": 0.0,
			"0.02": 0.0,
			"0.021": 0.0,
			"0.022": 0.0,
			"0.023": 0.0,
			"0.024": 0.0,
			"0.025": 0.0
		}
	}
}
