{
	 "smiles": "CC(Cl)C(=O)NC1=C(Cl)C=CC=C1Cl", 
	 "Tm": 418.15, 
	 "num_atms": 22, 
	 "gaussian": { 
		 "optdone": 1, 
		 "sigma_profile": "yes", 
		 "theory": "DFT", 
		 "functional": "B3LYP", 
		 "basiset": "6-31G**", 
		 "properties": { 
			 "R2extent": 4292.2254, 
			 "electric_dipole_moment_norm": 1.82746562485, 
			 "electric_quadrupole_moment_norm": 17.7713191877, 
			 "total_energy": -1858.34845881, 
			 "HOMO_LUMO_gap": 0.21786, 
			 "cosmo_polarized_energy": -10.73, 
			 "cosmo_cavitation_energy": 31.48, 
			 "cosmo_dispersion_energy": -22.18, 
			 "cosmo_repulsion_energy": 1.76, 
			 "cosmo_total_nonelectrostatic_energy": 11.06, 
			 "SMD_solvation_energy": 5.13 
		},
		"coords": [
			{
				"x": 1.203706631,
				"y": -3.5454163442,
				"z": 0.4845260226,
				"element": "C" 
			},
			{
				"x": -0.1303738154,
				"y": -2.8045693204,
				"z": 0.4452777848,
				"element": "C" 
			},
			{
				"x": -0.769854275,
				"y": -2.7522019992,
				"z": -1.275540382,
				"element": "Cl" 
			},
			{
				"x": -0.0063383991,
				"y": -1.4266171737,
				"z": 1.116076496,
				"element": "C" 
			},
			{
				"x": 0.2129391256,
				"y": -1.3955962452,
				"z": 2.3142428768,
				"element": "O" 
			},
			{
				"x": -0.1009002443,
				"y": -0.3178124342,
				"z": 0.3131545576,
				"element": "N" 
			},
			{
				"x": -0.0478222975,
				"y": 1.0004992601,
				"z": 0.815126783,
				"element": "C" 
			},
			{
				"x": 1.1191895683,
				"y": 1.535370173,
				"z": 1.3913125052,
				"element": "C" 
			},
			{
				"x": 2.5881978706,
				"y": 0.5915484565,
				"z": 1.4494470117,
				"element": "Cl" 
			},
			{
				"x": 1.1506443767,
				"y": 2.837920601,
				"z": 1.8881057091,
				"element": "C" 
			},
			{
				"x": 0.020385505,
				"y": 3.645160118,
				"z": 1.785792068,
				"element": "C" 
			},
			{
				"x": -1.1408520231,
				"y": 3.159741645,
				"z": 1.1881611532,
				"element": "C" 
			},
			{
				"x": -1.1652182426,
				"y": 1.8496521311,
				"z": 0.7177723036,
				"element": "C" 
			},
			{
				"x": -2.6374159167,
				"y": 1.2455816447,
				"z": -0.0220510158,
				"element": "Cl" 
			},
			{
				"x": 1.0885961077,
				"y": -4.5640238364,
				"z": 0.1081599855,
				"element": "H" 
			},
			{
				"x": 1.545836318,
				"y": -3.5801068906,
				"z": 1.5221953715,
				"element": "H" 
			},
			{
				"x": 1.9547353187,
				"y": -3.0275999856,
				"z": -0.1176848086,
				"element": "H" 
			},
			{
				"x": -0.8907255808,
				"y": -3.3502389628,
				"z": 1.005590837,
				"element": "H" 
			},
			{
				"x": -0.4819850168,
				"y": -0.453773531,
				"z": -0.6151186266,
				"element": "H" 
			},
			{
				"x": 2.0646617792,
				"y": 3.2121385265,
				"z": 2.3342597911,
				"element": "H" 
			},
			{
				"x": 0.0470211548,
				"y": 4.6611957926,
				"z": 2.1662514742,
				"element": "H" 
			},
			{
				"x": -2.0251279442,
				"y": 3.7790483749,
				"z": 1.0934421021,
				"element": "H" 
			}
		],
		 "valence_orbital": [ 
			{
				"type": "occ",
				"energy": -0.31137,
				"method": "rhf"
			},
			{
				"type": "occ",
				"energy": -0.29738,
				"method": "rhf"
			},
			{
				"type": "occ",
				"energy": -0.26665,
				"method": "rhf"
			},
			{
				"type": "occ",
				"energy": -0.25703,
				"method": "rhf"
			},
			{
				"type": "occ",
				"energy": -0.2539,
				"method": "rhf"
			},
			{
				"type": "unocc",
				"energy": -0.03604,
				"method": "rhf"
			},
			{
				"type": "unocc",
				"energy": -0.03014,
				"method": "rhf"
			},
			{
				"type": "unocc",
				"energy": -0.00024,
				"method": "rhf"
			},
			{
				"type": "unocc",
				"energy": 0.00541,
				"method": "rhf"
			},
			{
				"type": "unocc",
				"energy": 0.01689,
				"method": "rhf"
			}
		],
		"cosmo_sigma_profile": { 
			"-0.025": 0.0,
			"-0.024": 0.0,
			"-0.023": 0.0,
			"-0.022": 0.0,
			"-0.021": 0.0,
			"-0.02": 0.0,
			"-0.019": 0.0,
			"-0.018": 0.0,
			"-0.017": 0.0,
			"-0.016": 0.0,
			"-0.015": 0.0,
			"-0.014": 0.0,
			"-0.013": 0.460830116088,
			"-0.012": 0.499240373869,
			"-0.011": 0.702038702894,
			"-0.01": 0.573970466765,
			"-0.009": 1.77502176924,
			"-0.008": 6.77136175086,
			"-0.007": 9.9399401674,
			"-0.006": 9.98597503348,
			"-0.005": 12.273586539,
			"-0.004": 15.3107258663,
			"-0.003": 15.3204916321,
			"-0.002": 19.3262294375,
			"-0.001": 21.9331040905,
			"0.0": 22.8265952843,
			"0.001": 26.6952006198,
			"0.002": 25.141913942,
			"0.003": 20.1178982514,
			"0.004": 17.6216572231,
			"0.005": 9.39851779046,
			"0.006": 3.85507741922,
			"0.007": 2.60895443005,
			"0.008": 2.38517202314,
			"0.009": 1.78596875847,
			"0.01": 1.63264221482,
			"0.011": 2.73221288066,
			"0.012": 4.73740373632,
			"0.013": 1.49425549924,
			"0.014": 0.0,
			"0.015": 0.0,
			"0.016": 0.0,
			"0.017": 0.0,
			"0.018": 0.0,
			"0.019": 0.0,
			"0.02": 0.0,
			"0.021": 0.0,
			"0.022": 0.0,
			"0.023": 0.0,
			"0.024": 0.0,
			"0.025": 0.0
		}
	}
}
