{
	 "smiles": "NC1=CC=C(C=C1)S(=O)(=O)NC1=CC=CC=C1", 
	 "Tm": 450.15, 
	 "num_atms": 29, 
	 "gaussian": { 
		 "optdone": 1, 
		 "sigma_profile": "yes", 
		 "theory": "DFT", 
		 "functional": "B3LYP", 
		 "basiset": "6-31G**", 
		 "properties": { 
			 "R2extent": 5156.9769, 
			 "electric_dipole_moment_norm": 6.34141312485, 
			 "electric_quadrupole_moment_norm": 24.5698193351, 
			 "total_energy": -1122.58190396, 
			 "HOMO_LUMO_gap": 0.19405, 
			 "cosmo_polarized_energy": -20.87, 
			 "cosmo_cavitation_energy": 34.49, 
			 "cosmo_dispersion_energy": -25.12, 
			 "cosmo_repulsion_energy": 1.91, 
			 "cosmo_total_nonelectrostatic_energy": 11.28, 
			 "SMD_solvation_energy": 4.97 
		},
		"coords": [
			{
				"x": -2.1506205777,
				"y": -4.0191180957,
				"z": 2.0043086321,
				"element": "N" 
			},
			{
				"x": -1.3471932325,
				"y": -2.9083441434,
				"z": 1.8241672956,
				"element": "C" 
			},
			{
				"x": -1.7366553324,
				"y": -1.650100085,
				"z": 2.3228358829,
				"element": "C" 
			},
			{
				"x": -0.9055982377,
				"y": -0.5453321827,
				"z": 2.182760016,
				"element": "C" 
			},
			{
				"x": 0.3253442967,
				"y": -0.680000607,
				"z": 1.5357527982,
				"element": "C" 
			},
			{
				"x": 0.7341469314,
				"y": -1.9248885224,
				"z": 1.0439652568,
				"element": "C" 
			},
			{
				"x": -0.0956003377,
				"y": -3.0265817202,
				"z": 1.1826347642,
				"element": "C" 
			},
			{
				"x": 1.4064888527,
				"y": 0.726882695,
				"z": 1.4022438933,
				"element": "S" 
			},
			{
				"x": 2.7661455407,
				"y": 0.3282258847,
				"z": 1.7834131738,
				"element": "O" 
			},
			{
				"x": 0.7333121107,
				"y": 1.8649559385,
				"z": 2.0319350468,
				"element": "O" 
			},
			{
				"x": 1.5565632334,
				"y": 0.9698177286,
				"z": -0.2863676881,
				"element": "N" 
			},
			{
				"x": 0.7282155748,
				"y": 1.8518175972,
				"z": -1.0272464725,
				"element": "C" 
			},
			{
				"x": -0.6676718466,
				"y": 1.813019715,
				"z": -0.9109836361,
				"element": "C" 
			},
			{
				"x": -1.4517472998,
				"y": 2.6597714995,
				"z": -1.6920621001,
				"element": "C" 
			},
			{
				"x": -0.8658620931,
				"y": 3.5344343267,
				"z": -2.6092857556,
				"element": "C" 
			},
			{
				"x": 0.5238311908,
				"y": 3.5620765044,
				"z": -2.7329891121,
				"element": "C" 
			},
			{
				"x": 1.3188416616,
				"y": 2.7353350821,
				"z": -1.9409514262,
				"element": "C" 
			},
			{
				"x": -3.1266361291,
				"y": -3.8534361781,
				"z": 2.1996379794,
				"element": "H" 
			},
			{
				"x": -1.9853699656,
				"y": -4.8092829438,
				"z": 1.3989078981,
				"element": "H" 
			},
			{
				"x": -2.6922814792,
				"y": -1.5466603663,
				"z": 2.8297634963,
				"element": "H" 
			},
			{
				"x": -1.1990023799,
				"y": 0.4231835207,
				"z": 2.5726933791,
				"element": "H" 
			},
			{
				"x": 1.6973751952,
				"y": -2.0269216997,
				"z": 0.5555897591,
				"element": "H" 
			},
			{
				"x": 0.2211114743,
				"y": -3.9939888579,
				"z": 0.8021907595,
				"element": "H" 
			},
			{
				"x": 2.5498669566,
				"y": 1.0657324776,
				"z": -0.4762056709,
				"element": "H" 
			},
			{
				"x": -1.1361603819,
				"y": 1.1217785972,
				"z": -0.220100367,
				"element": "H" 
			},
			{
				"x": -2.5325067881,
				"y": 2.6260732925,
				"z": -1.5877051069,
				"element": "H" 
			},
			{
				"x": -1.4842911764,
				"y": 4.1857218153,
				"z": -3.2190952406,
				"element": "H" 
			},
			{
				"x": 0.9970086673,
				"y": 4.2375529084,
				"z": -3.4398852258,
				"element": "H" 
			},
			{
				"x": 2.4019455715,
				"y": 2.7732758186,
				"z": -2.0286222296,
				"element": "H" 
			}
		],
		 "valence_orbital": [ 
			{
				"type": "occ",
				"energy": -0.29349,
				"method": "rhf"
			},
			{
				"type": "occ",
				"energy": -0.26863,
				"method": "rhf"
			},
			{
				"type": "occ",
				"energy": -0.25054,
				"method": "rhf"
			},
			{
				"type": "occ",
				"energy": -0.22806,
				"method": "rhf"
			},
			{
				"type": "occ",
				"energy": -0.2174,
				"method": "rhf"
			},
			{
				"type": "unocc",
				"energy": -0.02335,
				"method": "rhf"
			},
			{
				"type": "unocc",
				"energy": -0.01745,
				"method": "rhf"
			},
			{
				"type": "unocc",
				"energy": -0.00147,
				"method": "rhf"
			},
			{
				"type": "unocc",
				"energy": 0.00169,
				"method": "rhf"
			},
			{
				"type": "unocc",
				"energy": 0.05748,
				"method": "rhf"
			}
		],
		"cosmo_sigma_profile": { 
			"-0.025": 0.0,
			"-0.024": 0.0,
			"-0.023": 0.0,
			"-0.022": 0.0,
			"-0.021": 0.0,
			"-0.02": 0.0,
			"-0.019": 0.0,
			"-0.018": 0.0,
			"-0.017": 0.0,
			"-0.016": 0.0,
			"-0.015": 0.342520363298,
			"-0.014": 1.35063974595,
			"-0.013": 3.90842923982,
			"-0.012": 4.45570741902,
			"-0.011": 4.21077811645,
			"-0.01": 4.46242599454,
			"-0.009": 4.19572106839,
			"-0.008": 4.39951705095,
			"-0.007": 8.26483624668,
			"-0.006": 13.8006939291,
			"-0.005": 17.3104631629,
			"-0.004": 18.3292449966,
			"-0.003": 15.2432094907,
			"-0.002": 14.1967794528,
			"-0.001": 14.0748483281,
			"0.0": 13.1007372388,
			"0.001": 14.6145367215,
			"0.002": 15.4286599438,
			"0.003": 21.2546424307,
			"0.004": 21.6081364085,
			"0.005": 14.9861362754,
			"0.006": 9.51253891109,
			"0.007": 5.38803382943,
			"0.008": 5.18026032522,
			"0.009": 4.60017732202,
			"0.01": 7.99602454497,
			"0.011": 10.0149952365,
			"0.012": 3.37131220488,
			"0.013": 0.0,
			"0.014": 0.0,
			"0.015": 0.0,
			"0.016": 0.0,
			"0.017": 0.0,
			"0.018": 0.0,
			"0.019": 0.0,
			"0.02": 0.0,
			"0.021": 0.0,
			"0.022": 0.0,
			"0.023": 0.0,
			"0.024": 0.0,
			"0.025": 0.0
		}
	}
}
