{
	 "smiles": "CCOC(=O)CCCCCCCCC=C", 
	 "Tm": 235.15, 
	 "num_atms": 39, 
	 "gaussian": { 
		 "optdone": 1, 
		 "sigma_profile": "yes", 
		 "theory": "DFT", 
		 "functional": "B3LYP", 
		 "basiset": "6-31G**", 
		 "properties": { 
			 "R2extent": 5577.0517, 
			 "electric_dipole_moment_norm": 2.02391528973, 
			 "electric_quadrupole_moment_norm": 11.8600513877, 
			 "total_energy": -660.307992083, 
			 "HOMO_LUMO_gap": 0.26587, 
			 "cosmo_polarized_energy": -7.45, 
			 "cosmo_cavitation_energy": 40.63, 
			 "cosmo_dispersion_energy": -26.71, 
			 "cosmo_repulsion_energy": 2.19, 
			 "cosmo_total_nonelectrostatic_energy": 16.11, 
			 "SMD_solvation_energy": 7.63 
		},
		"coords": [
			{
				"x": 2.3827318157,
				"y": 2.7049885379,
				"z": 3.6341131752,
				"element": "C" 
			},
			{
				"x": 1.3022533024,
				"y": 1.8402854992,
				"z": 3.0019393369,
				"element": "C" 
			},
			{
				"x": 1.7868781846,
				"y": 1.1803929667,
				"z": 1.8083644953,
				"element": "O" 
			},
			{
				"x": 2.4340299276,
				"y": 0.0026919655,
				"z": 1.9873145208,
				"element": "C" 
			},
			{
				"x": 2.6244539729,
				"y": -0.5033043317,
				"z": 3.0730776927,
				"element": "O" 
			},
			{
				"x": 2.8625710051,
				"y": -0.5869106841,
				"z": 0.6592648935,
				"element": "C" 
			},
			{
				"x": 1.6733648104,
				"y": -0.9437791696,
				"z": -0.2531587888,
				"element": "C" 
			},
			{
				"x": 2.1269693629,
				"y": -1.5797154736,
				"z": -1.5758613172,
				"element": "C" 
			},
			{
				"x": 0.9869267541,
				"y": -1.9921357084,
				"z": -2.5330103312,
				"element": "C" 
			},
			{
				"x": 0.5407686024,
				"y": -0.9264813825,
				"z": -3.5535627853,
				"element": "C" 
			},
			{
				"x": -0.1060197856,
				"y": 0.3572217679,
				"z": -3.0055971842,
				"element": "C" 
			},
			{
				"x": -1.4335627727,
				"y": 0.140108673,
				"z": -2.2665351719,
				"element": "C" 
			},
			{
				"x": -2.0748376439,
				"y": 1.4536921635,
				"z": -1.8078564456,
				"element": "C" 
			},
			{
				"x": -3.3890475354,
				"y": 1.3357325883,
				"z": -1.0787707691,
				"element": "C" 
			},
			{
				"x": -4.0495687255,
				"y": 0.2126534534,
				"z": -0.793488575,
				"element": "C" 
			},
			{
				"x": 2.7699854198,
				"y": 3.4331870707,
				"z": 2.9151926145,
				"element": "H" 
			},
			{
				"x": 1.9698956878,
				"y": 3.2518026251,
				"z": 4.4885456439,
				"element": "H" 
			},
			{
				"x": 3.2087168002,
				"y": 2.0850486312,
				"z": 3.9910654695,
				"element": "H" 
			},
			{
				"x": 0.4581183603,
				"y": 2.4427829532,
				"z": 2.6573249699,
				"element": "H" 
			},
			{
				"x": 0.945485867,
				"y": 1.0825245014,
				"z": 3.7035907837,
				"element": "H" 
			},
			{
				"x": 3.5047069329,
				"y": 0.1422227063,
				"z": 0.1495632874,
				"element": "H" 
			},
			{
				"x": 3.4636902017,
				"y": -1.4728771583,
				"z": 0.8801151513,
				"element": "H" 
			},
			{
				"x": 1.0856103336,
				"y": -0.039323783,
				"z": -0.4335303435,
				"element": "H" 
			},
			{
				"x": 1.0139488214,
				"y": -1.6454076113,
				"z": 0.2747044534,
				"element": "H" 
			},
			{
				"x": 2.7239073095,
				"y": -2.4687628168,
				"z": -1.3332870137,
				"element": "H" 
			},
			{
				"x": 2.8116940055,
				"y": -0.8947580783,
				"z": -2.096589727,
				"element": "H" 
			},
			{
				"x": 0.1266278962,
				"y": -2.3414416295,
				"z": -1.9467683459,
				"element": "H" 
			},
			{
				"x": 1.3200075471,
				"y": -2.8641140058,
				"z": -3.1093656244,
				"element": "H" 
			},
			{
				"x": -0.1651683621,
				"y": -1.3977679637,
				"z": -4.2515154807,
				"element": "H" 
			},
			{
				"x": 1.4144697542,
				"y": -0.6446085441,
				"z": -4.1570984491,
				"element": "H" 
			},
			{
				"x": 0.5994218721,
				"y": 0.8836564317,
				"z": -2.3492319119,
				"element": "H" 
			},
			{
				"x": -0.282310989,
				"y": 1.0358892568,
				"z": -3.851557739,
				"element": "H" 
			},
			{
				"x": -1.278223562,
				"y": -0.5063263044,
				"z": -1.3941666293,
				"element": "H" 
			},
			{
				"x": -2.1297449909,
				"y": -0.3959558185,
				"z": -2.925840572,
				"element": "H" 
			},
			{
				"x": -1.3680066482,
				"y": 1.9973176764,
				"z": -1.1616734963,
				"element": "H" 
			},
			{
				"x": -2.2193204208,
				"y": 2.1126796091,
				"z": -2.6781329139,
				"element": "H" 
			},
			{
				"x": -3.8223564731,
				"y": 2.2860710294,
				"z": -0.7635557984,
				"element": "H" 
			},
			{
				"x": -3.6797908952,
				"y": -0.7686202128,
				"z": -1.0759999264,
				"element": "H" 
			},
			{
				"x": -4.995575743,
				"y": 0.2364405697,
				"z": -0.260721148,
				"element": "H" 
			}
		],
		 "valence_orbital": [ 
			{
				"type": "occ",
				"energy": -0.30964,
				"method": "rhf"
			},
			{
				"type": "occ",
				"energy": -0.3069,
				"method": "rhf"
			},
			{
				"type": "occ",
				"energy": -0.29287,
				"method": "rhf"
			},
			{
				"type": "occ",
				"energy": -0.26195,
				"method": "rhf"
			},
			{
				"type": "occ",
				"energy": -0.25012,
				"method": "rhf"
			},
			{
				"type": "unocc",
				"energy": 0.01575,
				"method": "rhf"
			},
			{
				"type": "unocc",
				"energy": 0.0278,
				"method": "rhf"
			},
			{
				"type": "unocc",
				"energy": 0.07639,
				"method": "rhf"
			},
			{
				"type": "unocc",
				"energy": 0.09644,
				"method": "rhf"
			},
			{
				"type": "unocc",
				"energy": 0.10373,
				"method": "rhf"
			}
		],
		"cosmo_sigma_profile": { 
			"-0.025": 0.0,
			"-0.024": 0.0,
			"-0.023": 0.0,
			"-0.022": 0.0,
			"-0.021": 0.0,
			"-0.02": 0.0,
			"-0.019": 0.0,
			"-0.018": 0.0,
			"-0.017": 0.0,
			"-0.016": 0.0,
			"-0.015": 0.0,
			"-0.014": 0.0,
			"-0.013": 0.0,
			"-0.012": 0.0,
			"-0.011": 0.0,
			"-0.01": 0.0,
			"-0.009": 0.0,
			"-0.008": 0.0,
			"-0.007": 0.0,
			"-0.006": 0.886038151749,
			"-0.005": 6.98041868005,
			"-0.004": 18.4628042138,
			"-0.003": 33.3822648483,
			"-0.002": 56.8408167856,
			"-0.001": 57.3579373408,
			"0.0": 46.9518569806,
			"0.001": 32.6668330372,
			"0.002": 11.761449834,
			"0.003": 7.89077557179,
			"0.004": 7.61210659152,
			"0.005": 6.43405484218,
			"0.006": 5.44138867136,
			"0.007": 5.00792196403,
			"0.008": 3.7290360053,
			"0.009": 2.29556415969,
			"0.01": 1.75535311292,
			"0.011": 2.02020040751,
			"0.012": 4.60550795966,
			"0.013": 2.03971284782,
			"0.014": 0.218677838881,
			"0.015": 0.0,
			"0.016": 0.0,
			"0.017": 0.0,
			"0.018": 0.0,
			"0.019": 0.0,
			"0.02": 0.0,
			"0.021": 0.0,
			"0.022": 0.0,
			"0.023": 0.0,
			"0.024": 0.0,
			"0.025": 0.0
		}
	}
}
