{
	 "smiles": "COC1=CC2=C(C=C1)C(CC(O)=O)=CC(=O)O2", 
	 "Tm": 458.15, 
	 "num_atms": 27, 
	 "gaussian": { 
		 "optdone": 1, 
		 "sigma_profile": "yes", 
		 "theory": "DFT", 
		 "functional": "B3LYP", 
		 "basiset": "6-31G**", 
		 "properties": { 
			 "R2extent": 5123.2379, 
			 "electric_dipole_moment_norm": 5.30283524636, 
			 "electric_quadrupole_moment_norm": 32.9428775935, 
			 "total_energy": -839.432067606, 
			 "HOMO_LUMO_gap": 0.16003, 
			 "cosmo_polarized_energy": -18.53, 
			 "cosmo_cavitation_energy": 32.14, 
			 "cosmo_dispersion_energy": -23.24, 
			 "cosmo_repulsion_energy": 1.8, 
			 "cosmo_total_nonelectrostatic_energy": 10.69, 
			 "SMD_solvation_energy": 8.51 
		},
		"coords": [
			{
				"x": -1.8668511231,
				"y": -3.6178499544,
				"z": 2.0727083879,
				"element": "C" 
			},
			{
				"x": -0.4736019337,
				"y": -3.3344207762,
				"z": 2.0455970963,
				"element": "O" 
			},
			{
				"x": -0.0671288281,
				"y": -2.0982820036,
				"z": 1.6595168907,
				"element": "C" 
			},
			{
				"x": 1.3162237801,
				"y": -1.8927842504,
				"z": 1.6557926873,
				"element": "C" 
			},
			{
				"x": 1.8221961737,
				"y": -0.6567188707,
				"z": 1.2753458796,
				"element": "C" 
			},
			{
				"x": 0.9756971501,
				"y": 0.4098925676,
				"z": 0.8911758618,
				"element": "C" 
			},
			{
				"x": -0.4109898196,
				"y": 0.170864105,
				"z": 0.9011651896,
				"element": "C" 
			},
			{
				"x": -0.9356660703,
				"y": -1.0586663698,
				"z": 1.2768666594,
				"element": "C" 
			},
			{
				"x": 1.6009047805,
				"y": 1.6666033793,
				"z": 0.5252480068,
				"element": "C" 
			},
			{
				"x": 0.7533564244,
				"y": 2.8622449336,
				"z": 0.1362720195,
				"element": "C" 
			},
			{
				"x": 0.0656261225,
				"y": 2.6983204826,
				"z": -1.212694629,
				"element": "C" 
			},
			{
				"x": 0.9509226748,
				"y": 2.757723908,
				"z": -2.2294673659,
				"element": "O" 
			},
			{
				"x": -1.1234664292,
				"y": 2.5380440754,
				"z": -1.3788385709,
				"element": "O" 
			},
			{
				"x": 2.9542168851,
				"y": 1.7666403276,
				"z": 0.5511539372,
				"element": "C" 
			},
			{
				"x": 3.8211765997,
				"y": 0.6618675292,
				"z": 0.9345318797,
				"element": "C" 
			},
			{
				"x": 5.0290293449,
				"y": 0.6846853258,
				"z": 0.9740740292,
				"element": "O" 
			},
			{
				"x": 3.1798662813,
				"y": -0.5245193574,
				"z": 1.2919546661,
				"element": "O" 
			},
			{
				"x": -2.3977249149,
				"y": -2.9629668141,
				"z": 2.7744130436,
				"element": "H" 
			},
			{
				"x": -1.9536786688,
				"y": -4.6514931348,
				"z": 2.4094851197,
				"element": "H" 
			},
			{
				"x": -2.3169988438,
				"y": -3.5227943659,
				"z": 1.0770265555,
				"element": "H" 
			},
			{
				"x": 1.9882210209,
				"y": -2.6909357772,
				"z": 1.9472417733,
				"element": "H" 
			},
			{
				"x": -1.0919603121,
				"y": 0.9546550508,
				"z": 0.5878843673,
				"element": "H" 
			},
			{
				"x": -2.0085115143,
				"y": -1.2031179827,
				"z": 1.2670080653,
				"element": "H" 
			},
			{
				"x": -0.0306802771,
				"y": 3.0381152822,
				"z": 0.8764408775,
				"element": "H" 
			},
			{
				"x": 1.3909927652,
				"y": 3.7489424991,
				"z": 0.08679703,
				"element": "H" 
			},
			{
				"x": 0.4420148663,
				"y": 2.6308378345,
				"z": -3.0481998257,
				"element": "H" 
			},
			{
				"x": 3.4677138655,
				"y": 2.6837123566,
				"z": 0.287100368,
				"element": "H" 
			}
		],
		 "valence_orbital": [ 
			{
				"type": "occ",
				"energy": -0.30124,
				"method": "rhf"
			},
			{
				"type": "occ",
				"energy": -0.28375,
				"method": "rhf"
			},
			{
				"type": "occ",
				"energy": -0.26897,
				"method": "rhf"
			},
			{
				"type": "occ",
				"energy": -0.24842,
				"method": "rhf"
			},
			{
				"type": "occ",
				"energy": -0.22481,
				"method": "rhf"
			},
			{
				"type": "unocc",
				"energy": -0.06478,
				"method": "rhf"
			},
			{
				"type": "unocc",
				"energy": -0.0148,
				"method": "rhf"
			},
			{
				"type": "unocc",
				"energy": -0.00439,
				"method": "rhf"
			},
			{
				"type": "unocc",
				"energy": 0.00838,
				"method": "rhf"
			},
			{
				"type": "unocc",
				"energy": 0.06437,
				"method": "rhf"
			}
		],
		"cosmo_sigma_profile": { 
			"-0.025": 0.0,
			"-0.024": 0.0,
			"-0.023": 0.0,
			"-0.022": 0.0,
			"-0.021": 0.0,
			"-0.02": 0.0,
			"-0.019": 0.313807917219,
			"-0.018": 0.792421957579,
			"-0.017": 1.10608498977,
			"-0.016": 0.935815440569,
			"-0.015": 0.958690624425,
			"-0.014": 0.264912736236,
			"-0.013": 0.39675307024,
			"-0.012": 1.41755079156,
			"-0.011": 0.850998028404,
			"-0.01": 0.398667510052,
			"-0.009": 1.2018286981,
			"-0.008": 5.05177024582,
			"-0.007": 11.9697916751,
			"-0.006": 18.1066673722,
			"-0.005": 18.5483790581,
			"-0.004": 20.2562830301,
			"-0.003": 17.7598927888,
			"-0.002": 13.7753281626,
			"-0.001": 13.9934034757,
			"0.0": 15.3965746008,
			"0.001": 17.6477330772,
			"0.002": 19.7166837248,
			"0.003": 12.94851876,
			"0.004": 8.27180811663,
			"0.005": 6.78534247417,
			"0.006": 5.451707499,
			"0.007": 4.91213838996,
			"0.008": 7.64198871646,
			"0.009": 6.30058163797,
			"0.01": 4.77335459529,
			"0.011": 8.27050026835,
			"0.012": 7.42218667448,
			"0.013": 2.98303506298,
			"0.014": 0.149132334368,
			"0.015": 0.0,
			"0.016": 0.0,
			"0.017": 0.0,
			"0.018": 0.0,
			"0.019": 0.0,
			"0.02": 0.0,
			"0.021": 0.0,
			"0.022": 0.0,
			"0.023": 0.0,
			"0.024": 0.0,
			"0.025": 0.0
		}
	}
}
