{
	 "smiles": "[O-][N+](=O)C1=CC=CC=C1C=C", 
	 "Tm": 286.15, 
	 "num_atms": 18, 
	 "gaussian": { 
		 "optdone": 1, 
		 "sigma_profile": "yes", 
		 "theory": "DFT", 
		 "functional": "B3LYP", 
		 "basiset": "6-31G**", 
		 "properties": { 
			 "R2extent": 1725.9175, 
			 "electric_dipole_moment_norm": 4.33969391663, 
			 "electric_quadrupole_moment_norm": 9.58036896419, 
			 "total_energy": -514.143554262, 
			 "HOMO_LUMO_gap": 0.16179, 
			 "cosmo_polarized_energy": -8.15, 
			 "cosmo_cavitation_energy": 22.76, 
			 "cosmo_dispersion_energy": -16.61, 
			 "cosmo_repulsion_energy": 1.32, 
			 "cosmo_total_nonelectrostatic_energy": 7.47, 
			 "SMD_solvation_energy": 6.67 
		},
		"coords": [
			{
				"x": 1.0412664663,
				"y": 3.0602434421,
				"z": 0.4913466477,
				"element": "O" 
			},
			{
				"x": 0.7483279406,
				"y": 2.1774774029,
				"z": -0.3156862061,
				"element": "N" 
			},
			{
				"x": 0.6773142456,
				"y": 2.3502416727,
				"z": -1.5331011995,
				"element": "O" 
			},
			{
				"x": 0.4867528269,
				"y": 0.8280761617,
				"z": 0.2177675732,
				"element": "C" 
			},
			{
				"x": 0.9905503336,
				"y": 0.5711421665,
				"z": 1.4949806487,
				"element": "C" 
			},
			{
				"x": 0.8340579299,
				"y": -0.6883846763,
				"z": 2.0599763048,
				"element": "C" 
			},
			{
				"x": 0.1530006799,
				"y": -1.6776720127,
				"z": 1.3461345519,
				"element": "C" 
			},
			{
				"x": -0.3649011475,
				"y": -1.4010027421,
				"z": 0.085052594,
				"element": "C" 
			},
			{
				"x": -0.204988621,
				"y": -0.1465204489,
				"z": -0.5347301612,
				"element": "C" 
			},
			{
				"x": -0.8060657448,
				"y": 0.0851451133,
				"z": -1.8637223856,
				"element": "C" 
			},
			{
				"x": -0.9130345442,
				"y": -0.8552488211,
				"z": -2.8093736118,
				"element": "C" 
			},
			{
				"x": 1.5054645028,
				"y": 1.3679670458,
				"z": 2.0162093251,
				"element": "H" 
			},
			{
				"x": 1.233089498,
				"y": -0.8930573061,
				"z": 3.0480795892,
				"element": "H" 
			},
			{
				"x": 0.0092306142,
				"y": -2.6626712534,
				"z": 1.7802925197,
				"element": "H" 
			},
			{
				"x": -0.9371343255,
				"y": -2.1595734746,
				"z": -0.4379662512,
				"element": "H" 
			},
			{
				"x": -1.1723363742,
				"y": 1.084152613,
				"z": -2.0697071856,
				"element": "H" 
			},
			{
				"x": -0.5025491935,
				"y": -1.8538070496,
				"z": -2.6890417977,
				"element": "H" 
			},
			{
				"x": -1.3935450872,
				"y": -0.637307833,
				"z": -3.7574109557,
				"element": "H" 
			}
		],
		 "valence_orbital": [ 
			{
				"type": "occ",
				"energy": -0.30752,
				"method": "rhf"
			},
			{
				"type": "occ",
				"energy": -0.30147,
				"method": "rhf"
			},
			{
				"type": "occ",
				"energy": -0.28817,
				"method": "rhf"
			},
			{
				"type": "occ",
				"energy": -0.27629,
				"method": "rhf"
			},
			{
				"type": "occ",
				"energy": -0.24956,
				"method": "rhf"
			},
			{
				"type": "unocc",
				"energy": -0.08777,
				"method": "rhf"
			},
			{
				"type": "unocc",
				"energy": -0.04276,
				"method": "rhf"
			},
			{
				"type": "unocc",
				"energy": -0.00562,
				"method": "rhf"
			},
			{
				"type": "unocc",
				"energy": 0.0322,
				"method": "rhf"
			},
			{
				"type": "unocc",
				"energy": 0.08011,
				"method": "rhf"
			}
		],
		"cosmo_sigma_profile": { 
			"-0.025": 0.0,
			"-0.024": 0.0,
			"-0.023": 0.0,
			"-0.022": 0.0,
			"-0.021": 0.0,
			"-0.02": 0.0,
			"-0.019": 0.0,
			"-0.018": 0.0,
			"-0.017": 0.0,
			"-0.016": 0.0,
			"-0.015": 0.0,
			"-0.014": 0.0,
			"-0.013": 0.0,
			"-0.012": 0.0,
			"-0.011": 0.0,
			"-0.01": 0.0,
			"-0.009": 0.0,
			"-0.008": 1.10582656143,
			"-0.007": 7.73179850499,
			"-0.006": 14.8189106314,
			"-0.005": 14.450053482,
			"-0.004": 12.7403938737,
			"-0.003": 12.2344138761,
			"-0.002": 11.9801407308,
			"-0.001": 12.6087563713,
			"0.0": 13.6581582436,
			"0.001": 16.9569083126,
			"0.002": 16.5237559924,
			"0.003": 9.42567972466,
			"0.004": 5.75860519686,
			"0.005": 4.57372608559,
			"0.006": 4.17073518367,
			"0.007": 7.19596244817,
			"0.008": 8.94205138966,
			"0.009": 4.82375907651,
			"0.01": 2.98326249384,
			"0.011": 0.298147720822,
			"0.012": 0.0,
			"0.013": 0.0,
			"0.014": 0.0,
			"0.015": 0.0,
			"0.016": 0.0,
			"0.017": 0.0,
			"0.018": 0.0,
			"0.019": 0.0,
			"0.02": 0.0,
			"0.021": 0.0,
			"0.022": 0.0,
			"0.023": 0.0,
			"0.024": 0.0,
			"0.025": 0.0
		}
	}
}
