{
	 "smiles": "OC1=CC=CC(I)=C1", 
	 "Tm": 391.15, 
	 "num_atms": 13, 
	 "gaussian": { 
		 "optdone": 1, 
		 "sigma_profile": "no", 
		 "theory": "DFT", 
		 "functional": "B3LYP", 
		 "basiset": "6-31G**", 
		 "properties": { 
			 "R2extent": 1139.9912, 
			 "electric_dipole_moment_norm": 3.10905866944, 
			 "electric_quadrupole_moment_norm": 4.58123354349, 
			 "total_energy": -318.255058475, 
			 "HOMO_LUMO_gap": 0.19438, 
			 "cosmo_polarized_energy": -98567.91, 
			 "cosmo_cavitation_energy": 20.3, 
			 "cosmo_dispersion_energy": -16.71, 
			 "cosmo_repulsion_energy": 1.35, 
			 "cosmo_total_nonelectrostatic_energy": 4.93, 
			 "SMD_solvation_energy": 3.0 
		},
		"coords": [
			{
				"x": 0.1519154737,
				"y": -0.2265281553,
				"z": 2.1757733069,
				"element": "O" 
			},
			{
				"x": 0.2645475279,
				"y": -0.1437164746,
				"z": 0.8188530738,
				"element": "C" 
			},
			{
				"x": -0.8337947243,
				"y": 0.0569283803,
				"z": -0.0238857892,
				"element": "C" 
			},
			{
				"x": -0.6382136829,
				"y": 0.1306436421,
				"z": -1.4024258643,
				"element": "C" 
			},
			{
				"x": 0.6359327992,
				"y": 0.0076507987,
				"z": -1.9582616032,
				"element": "C" 
			},
			{
				"x": 1.7175264074,
				"y": -0.1922405893,
				"z": -1.0963947903,
				"element": "C" 
			},
			{
				"x": 3.6700222507,
				"y": -0.3837988285,
				"z": -1.9088555857,
				"element": "I" 
			},
			{
				"x": 1.5532142059,
				"y": -0.2700049498,
				"z": 0.2834806113,
				"element": "C" 
			},
			{
				"x": -0.7757323012,
				"y": -0.1262107767,
				"z": 2.426019493,
				"element": "H" 
			},
			{
				"x": -1.8323593253,
				"y": 0.1544092232,
				"z": 0.3958769737,
				"element": "H" 
			},
			{
				"x": -1.4918651787,
				"y": 0.2864486314,
				"z": -2.0557139223,
				"element": "H" 
			},
			{
				"x": 0.7801960495,
				"y": 0.0659367977,
				"z": -3.0301939065,
				"element": "H" 
			},
			{
				"x": 2.3884104981,
				"y": -0.4248176992,
				"z": 0.9555280028,
				"element": "H" 
			}
		],
		 "valence_orbital": [ 
			{
				"type": "occ",
				"energy": -0.33916,
				"method": "rhf"
			},
			{
				"type": "occ",
				"energy": -0.2915,
				"method": "rhf"
			},
			{
				"type": "occ",
				"energy": -0.26568,
				"method": "rhf"
			},
			{
				"type": "occ",
				"energy": -0.24488,
				"method": "rhf"
			},
			{
				"type": "occ",
				"energy": -0.23118,
				"method": "rhf"
			},
			{
				"type": "unocc",
				"energy": -0.0368,
				"method": "rhf"
			},
			{
				"type": "unocc",
				"energy": -0.01805,
				"method": "rhf"
			},
			{
				"type": "unocc",
				"energy": -0.00095,
				"method": "rhf"
			},
			{
				"type": "unocc",
				"energy": 0.0465,
				"method": "rhf"
			},
			{
				"type": "unocc",
				"energy": 0.05327,
				"method": "rhf"
			}
		],
		"cosmo_sigma_profile": { 
			"0.0": 0.0,
			"0.0": 0.0,
			"0.0": 0.0,
			"0.0": 0.0,
			"0.0": 0.0,
			"0.0": 0.0,
			"0.0": 0.0,
			"0.0": 0.0,
			"0.0": 0.0,
			"0.0": 0.0,
			"0.0": 0.0,
			"0.0": 0.0,
			"0.0": 0.0,
			"0.0": 0.0,
			"0.0": 0.0,
			"0.0": 0.0,
			"0.0": 0.0,
			"0.0": 0.0,
			"0.0": 0.0,
			"0.0": 0.0,
			"0.0": 0.0,
			"0.0": 0.0,
			"0.0": 0.0,
			"0.0": 0.0,
			"0.0": 0.0,
			"0.0": 0.0,
			"0.0": 0.0,
			"0.0": 0.0,
			"0.0": 0.0,
			"0.0": 0.0,
			"0.0": 0.0,
			"0.0": 0.0,
			"0.0": 0.0,
			"0.0": 0.0,
			"0.0": 0.0,
			"0.0": 0.0,
			"0.0": 0.0,
			"0.0": 0.0,
			"0.0": 0.0,
			"0.0": 0.0,
			"0.0": 0.0,
			"0.0": 0.0,
			"0.0": 0.0,
			"0.0": 0.0,
			"0.0": 0.0,
			"0.0": 0.0,
			"0.0": 0.0,
			"0.0": 0.0,
			"0.0": 0.0,
			"0.0": 0.0,
			"0.0": 0.0
		}
	}
}
