{
	 "smiles": "COC1=C(NC(=O)C2=C(O)C=C3C=CC=CC3=C2)C=CC=C1", 
	 "Tm": 435.15, 
	 "num_atms": 37, 
	 "gaussian": { 
		 "optdone": 1, 
		 "sigma_profile": "yes", 
		 "theory": "DFT", 
		 "functional": "B3LYP", 
		 "basiset": "6-31G**", 
		 "properties": { 
			 "R2extent": 8999.4986, 
			 "electric_dipole_moment_norm": 5.59704748238, 
			 "electric_quadrupole_moment_norm": 13.0396846427, 
			 "total_energy": -975.409462121, 
			 "HOMO_LUMO_gap": 0.14187, 
			 "cosmo_polarized_energy": -13.24, 
			 "cosmo_cavitation_energy": 40.6, 
			 "cosmo_dispersion_energy": -29.8, 
			 "cosmo_repulsion_energy": 2.21, 
			 "cosmo_total_nonelectrostatic_energy": 13.01, 
			 "SMD_solvation_energy": 7.72 
		},
		"coords": [
			{
				"x": 0.0213935225,
				"y": -2.9352198226,
				"z": 3.7668552777,
				"element": "C" 
			},
			{
				"x": -0.2518980018,
				"y": -2.361785359,
				"z": 2.4966131019,
				"element": "O" 
			},
			{
				"x": -1.4687774094,
				"y": -2.6161051483,
				"z": 1.9117851356,
				"element": "C" 
			},
			{
				"x": -1.6486931321,
				"y": -2.0229820821,
				"z": 0.6379650469,
				"element": "C" 
			},
			{
				"x": -0.5641551381,
				"y": -1.2585857128,
				"z": 0.166167381,
				"element": "N" 
			},
			{
				"x": -0.4235999365,
				"y": -0.6068803834,
				"z": -1.0242274047,
				"element": "C" 
			},
			{
				"x": -1.2896944948,
				"y": -0.6635937794,
				"z": -1.9179205904,
				"element": "O" 
			},
			{
				"x": 0.8351891577,
				"y": 0.167621542,
				"z": -1.2200659901,
				"element": "C" 
			},
			{
				"x": 1.1733429879,
				"y": 0.5905864728,
				"z": -2.5561348361,
				"element": "C" 
			},
			{
				"x": 0.3685162202,
				"y": 0.3392800182,
				"z": -3.602446198,
				"element": "O" 
			},
			{
				"x": 2.360547437,
				"y": 1.269103223,
				"z": -2.7794607053,
				"element": "C" 
			},
			{
				"x": 3.2377633442,
				"y": 1.5927478526,
				"z": -1.7230443284,
				"element": "C" 
			},
			{
				"x": 4.4579049247,
				"y": 2.2979128444,
				"z": -1.9309220834,
				"element": "C" 
			},
			{
				"x": 5.2776515789,
				"y": 2.6143217499,
				"z": -0.8731964977,
				"element": "C" 
			},
			{
				"x": 4.9265522975,
				"y": 2.2473867484,
				"z": 0.45297327,
				"element": "C" 
			},
			{
				"x": 3.7566156796,
				"y": 1.5660351539,
				"z": 0.6895575071,
				"element": "C" 
			},
			{
				"x": 2.8874463916,
				"y": 1.2176345995,
				"z": -0.3821226777,
				"element": "C" 
			},
			{
				"x": 1.6837260033,
				"y": 0.5102358816,
				"z": -0.1761700335,
				"element": "C" 
			},
			{
				"x": -2.8534473192,
				"y": -2.218423109,
				"z": -0.0426538697,
				"element": "C" 
			},
			{
				"x": -3.8628240998,
				"y": -2.9931536873,
				"z": 0.5365547565,
				"element": "C" 
			},
			{
				"x": -3.6806591459,
				"y": -3.5742850694,
				"z": 1.7869748812,
				"element": "C" 
			},
			{
				"x": -2.4790565879,
				"y": -3.3868570494,
				"z": 2.4797763881,
				"element": "C" 
			},
			{
				"x": 1.0302066705,
				"y": -2.6162382457,
				"z": 4.0324627976,
				"element": "H" 
			},
			{
				"x": -0.6841160773,
				"y": -2.5779982398,
				"z": 4.526932437,
				"element": "H" 
			},
			{
				"x": -0.0140343736,
				"y": -4.0306842989,
				"z": 3.7265505118,
				"element": "H" 
			},
			{
				"x": 0.2283983705,
				"y": -1.263872374,
				"z": 0.7916570491,
				"element": "H" 
			},
			{
				"x": -0.4572517781,
				"y": -0.0622521353,
				"z": -3.2315122138,
				"element": "H" 
			},
			{
				"x": 2.5957265546,
				"y": 1.5642835928,
				"z": -3.7971951326,
				"element": "H" 
			},
			{
				"x": 4.7291544137,
				"y": 2.5837507006,
				"z": -2.9435668311,
				"element": "H" 
			},
			{
				"x": 6.2046678096,
				"y": 3.1525760759,
				"z": -1.0498258175,
				"element": "H" 
			},
			{
				"x": 5.5856344101,
				"y": 2.5074704374,
				"z": 1.2757527547,
				"element": "H" 
			},
			{
				"x": 3.4790854098,
				"y": 1.280487738,
				"z": 1.701475192,
				"element": "H" 
			},
			{
				"x": 1.4206538414,
				"y": 0.2652500637,
				"z": 0.850037003,
				"element": "H" 
			},
			{
				"x": -2.9823249946,
				"y": -1.7670945014,
				"z": -1.0155566749,
				"element": "H" 
			},
			{
				"x": -4.7934560303,
				"y": -3.1376334475,
				"z": -0.0031766813,
				"element": "H" 
			},
			{
				"x": -4.465059724,
				"y": -4.1767035508,
				"z": 2.2346589841,
				"element": "H" 
			},
			{
				"x": -2.3411287818,
				"y": -3.8408366986,
				"z": 3.4538490907,
				"element": "H" 
			}
		],
		 "valence_orbital": [ 
			{
				"type": "occ",
				"energy": -0.26856,
				"method": "rhf"
			},
			{
				"type": "occ",
				"energy": -0.24609,
				"method": "rhf"
			},
			{
				"type": "occ",
				"energy": -0.23784,
				"method": "rhf"
			},
			{
				"type": "occ",
				"energy": -0.21374,
				"method": "rhf"
			},
			{
				"type": "occ",
				"energy": -0.20285,
				"method": "rhf"
			},
			{
				"type": "unocc",
				"energy": -0.06098,
				"method": "rhf"
			},
			{
				"type": "unocc",
				"energy": -0.01855,
				"method": "rhf"
			},
			{
				"type": "unocc",
				"energy": 0.0012,
				"method": "rhf"
			},
			{
				"type": "unocc",
				"energy": 0.00685,
				"method": "rhf"
			},
			{
				"type": "unocc",
				"energy": 0.02503,
				"method": "rhf"
			}
		],
		"cosmo_sigma_profile": { 
			"-0.025": 0.0,
			"-0.024": 0.0,
			"-0.023": 0.0,
			"-0.022": 0.0,
			"-0.021": 0.0,
			"-0.02": 0.0,
			"-0.019": 0.0,
			"-0.018": 0.0,
			"-0.017": 0.0,
			"-0.016": 0.0,
			"-0.015": 0.0,
			"-0.014": 0.0,
			"-0.013": 0.0,
			"-0.012": 0.0,
			"-0.011": 0.347890811881,
			"-0.01": 1.3650470958,
			"-0.009": 2.39224250874,
			"-0.008": 2.34081899056,
			"-0.007": 4.44711000211,
			"-0.006": 20.1600067211,
			"-0.005": 26.6766831716,
			"-0.004": 27.9652371966,
			"-0.003": 25.54147326,
			"-0.002": 20.2609597224,
			"-0.001": 19.9921617478,
			"0.0": 19.8859491338,
			"0.001": 21.9800913422,
			"0.002": 25.7188596933,
			"0.003": 32.4621284326,
			"0.004": 29.394747576,
			"0.005": 21.0134402916,
			"0.006": 8.63508901453,
			"0.007": 2.91254511566,
			"0.008": 2.79171412871,
			"0.009": 3.80698822821,
			"0.01": 2.35749220053,
			"0.011": 2.05431087521,
			"0.012": 1.46888737208,
			"0.013": 0.106719488991,
			"0.014": 0.0,
			"0.015": 0.0,
			"0.016": 0.0,
			"0.017": 0.0,
			"0.018": 0.0,
			"0.019": 0.0,
			"0.02": 0.0,
			"0.021": 0.0,
			"0.022": 0.0,
			"0.023": 0.0,
			"0.024": 0.0,
			"0.025": 0.0
		}
	}
}
