{
	 "smiles": "NC(CCP(O)(O)=O)C(O)=O", 
	 "Tm": 499.15, 
	 "num_atms": 21, 
	 "gaussian": { 
		 "optdone": 1, 
		 "sigma_profile": "yes", 
		 "theory": "DFT", 
		 "functional": "B3LYP", 
		 "basiset": "6-31G**", 
		 "properties": { 
			 "R2extent": 3927.0076, 
			 "electric_dipole_moment_norm": 4.94906271328, 
			 "electric_quadrupole_moment_norm": 10.6671911879, 
			 "total_energy": -930.765259441, 
			 "HOMO_LUMO_gap": 0.26517, 
			 "cosmo_polarized_energy": -28.44, 
			 "cosmo_cavitation_energy": 26.93, 
			 "cosmo_dispersion_energy": -19.59, 
			 "cosmo_repulsion_energy": 1.6, 
			 "cosmo_total_nonelectrostatic_energy": 8.94, 
			 "SMD_solvation_energy": 7.73 
		},
		"coords": [
			{
				"x": -1.1635339804,
				"y": -1.3299575083,
				"z": -0.7949995346,
				"element": "N" 
			},
			{
				"x": -0.9558520604,
				"y": 0.1263307595,
				"z": -0.7036286688,
				"element": "C" 
			},
			{
				"x": -0.8335048999,
				"y": 0.700124322,
				"z": 0.715018349,
				"element": "C" 
			},
			{
				"x": -2.1359710015,
				"y": 0.5885925135,
				"z": 1.5189544392,
				"element": "C" 
			},
			{
				"x": -1.9366319459,
				"y": 1.115594086,
				"z": 3.2409374452,
				"element": "P" 
			},
			{
				"x": -3.4704499662,
				"y": 1.0051325435,
				"z": 3.761357339,
				"element": "O" 
			},
			{
				"x": -1.6587351645,
				"y": 2.7149482457,
				"z": 3.1156500818,
				"element": "O" 
			},
			{
				"x": -0.9300437136,
				"y": 0.4090371792,
				"z": 4.0764850958,
				"element": "O" 
			},
			{
				"x": 0.2800860996,
				"y": 0.5106009741,
				"z": -1.554743433,
				"element": "C" 
			},
			{
				"x": 0.6475274174,
				"y": -0.4410794155,
				"z": -2.4222677784,
				"element": "O" 
			},
			{
				"x": 0.8336857833,
				"y": 1.5814755079,
				"z": -1.4644011587,
				"element": "O" 
			},
			{
				"x": -0.6812429116,
				"y": -1.8145967072,
				"z": -0.0409946351,
				"element": "H" 
			},
			{
				"x": -2.1447673232,
				"y": -1.5820902723,
				"z": -0.7430977824,
				"element": "H" 
			},
			{
				"x": -1.8065000878,
				"y": 0.6047458295,
				"z": -1.2081102384,
				"element": "H" 
			},
			{
				"x": -0.0264926228,
				"y": 0.1765147332,
				"z": 1.2438523948,
				"element": "H" 
			},
			{
				"x": -0.5260795607,
				"y": 1.7453440058,
				"z": 0.6311821172,
				"element": "H" 
			},
			{
				"x": -2.4953937575,
				"y": -0.4462015313,
				"z": 1.5567359164,
				"element": "H" 
			},
			{
				"x": -2.9325716596,
				"y": 1.1936204748,
				"z": 1.0705632068,
				"element": "H" 
			},
			{
				"x": -3.5014349949,
				"y": 0.931017517,
				"z": 4.7263667532,
				"element": "H" 
			},
			{
				"x": -0.8889736043,
				"y": 2.9554558472,
				"z": 3.6511698098,
				"element": "H" 
			},
			{
				"x": 0.0396799546,
				"y": -1.1961091044,
				"z": -2.2363297187,
				"element": "H" 
			}
		],
		 "valence_orbital": [ 
			{
				"type": "occ",
				"energy": -0.30453,
				"method": "rhf"
			},
			{
				"type": "occ",
				"energy": -0.30237,
				"method": "rhf"
			},
			{
				"type": "occ",
				"energy": -0.2969,
				"method": "rhf"
			},
			{
				"type": "occ",
				"energy": -0.29498,
				"method": "rhf"
			},
			{
				"type": "occ",
				"energy": -0.25598,
				"method": "rhf"
			},
			{
				"type": "unocc",
				"energy": 0.00919,
				"method": "rhf"
			},
			{
				"type": "unocc",
				"energy": 0.03598,
				"method": "rhf"
			},
			{
				"type": "unocc",
				"energy": 0.05556,
				"method": "rhf"
			},
			{
				"type": "unocc",
				"energy": 0.06902,
				"method": "rhf"
			},
			{
				"type": "unocc",
				"energy": 0.08201,
				"method": "rhf"
			}
		],
		"cosmo_sigma_profile": { 
			"-0.025": 0.0,
			"-0.024": 0.0,
			"-0.023": 0.0,
			"-0.022": 0.0,
			"-0.021": 0.0,
			"-0.02": 0.0520853309221,
			"-0.019": 0.923918861788,
			"-0.018": 2.01727525017,
			"-0.017": 1.5822465812,
			"-0.016": 1.59998629963,
			"-0.015": 1.61594684605,
			"-0.014": 1.33388728265,
			"-0.013": 1.66526599559,
			"-0.012": 2.72549760972,
			"-0.011": 5.33307706015,
			"-0.01": 5.76676916478,
			"-0.009": 6.78739667711,
			"-0.008": 8.72118443548,
			"-0.007": 12.9309507251,
			"-0.006": 12.4783852636,
			"-0.005": 9.94456674394,
			"-0.004": 8.07816877289,
			"-0.003": 7.40362462386,
			"-0.002": 9.92163523185,
			"-0.001": 6.56773914578,
			"0.0": 5.79313362964,
			"0.001": 7.41690838814,
			"0.002": 6.47897443855,
			"0.003": 6.46253882661,
			"0.004": 5.49252512677,
			"0.005": 4.91011294241,
			"0.006": 4.65169142698,
			"0.007": 6.15872528593,
			"0.008": 6.47912458328,
			"0.009": 7.3806786527,
			"0.01": 8.2432392899,
			"0.011": 8.3977491306,
			"0.012": 6.11783546778,
			"0.013": 4.58636658788,
			"0.014": 4.0264977679,
			"0.015": 6.6718303957,
			"0.016": 0.391414312023,
			"0.017": 0.0,
			"0.018": 0.0,
			"0.019": 0.0,
			"0.02": 0.0,
			"0.021": 0.0,
			"0.022": 0.0,
			"0.023": 0.0,
			"0.024": 0.0,
			"0.025": 0.0
		}
	}
}
