{
	 "smiles": "CC(C)CNC1=NC(=CS1)C1=C(C=CC=C1)[N+]([O-])=O", 
	 "Tm": 360.15, 
	 "num_atms": 34, 
	 "gaussian": { 
		 "optdone": 1, 
		 "sigma_profile": "yes", 
		 "theory": "DFT", 
		 "functional": "B3LYP", 
		 "basiset": "6-31G**", 
		 "properties": { 
			 "R2extent": 6538.1865, 
			 "electric_dipole_moment_norm": 2.6481409498, 
			 "electric_quadrupole_moment_norm": 21.6344234566, 
			 "total_energy": -1217.21829352, 
			 "HOMO_LUMO_gap": 0.12913, 
			 "cosmo_polarized_energy": -14.85, 
			 "cosmo_cavitation_energy": 39.48, 
			 "cosmo_dispersion_energy": -26.87, 
			 "cosmo_repulsion_energy": 2.01, 
			 "cosmo_total_nonelectrostatic_energy": 14.62, 
			 "SMD_solvation_energy": 7.11 
		},
		"coords": [
			{
				"x": -3.2258105326,
				"y": 3.0218627707,
				"z": 0.1322169696,
				"element": "C" 
			},
			{
				"x": -2.5512750854,
				"y": 1.6588115031,
				"z": -0.0718415254,
				"element": "C" 
			},
			{
				"x": -3.2777799954,
				"y": 0.8275495345,
				"z": -1.1381888021,
				"element": "C" 
			},
			{
				"x": -2.4771895814,
				"y": 0.8553729156,
				"z": 1.2428027245,
				"element": "C" 
			},
			{
				"x": -1.6702910935,
				"y": 1.4655929521,
				"z": 2.3036795544,
				"element": "N" 
			},
			{
				"x": -0.309031525,
				"y": 1.4489083475,
				"z": 2.2203424862,
				"element": "C" 
			},
			{
				"x": 0.3665482651,
				"y": 0.7148561578,
				"z": 1.382989883,
				"element": "N" 
			},
			{
				"x": 1.7272075699,
				"y": 0.8855521848,
				"z": 1.5530311953,
				"element": "C" 
			},
			{
				"x": 2.1067712578,
				"y": 1.7441043206,
				"z": 2.5460865666,
				"element": "C" 
			},
			{
				"x": 0.6964982988,
				"y": 2.41292633,
				"z": 3.3298587461,
				"element": "S" 
			},
			{
				"x": 2.6545419854,
				"y": 0.1342065944,
				"z": 0.6842085971,
				"element": "C" 
			},
			{
				"x": 2.3937358354,
				"y": -0.1266004933,
				"z": -0.6732973925,
				"element": "C" 
			},
			{
				"x": 3.2176221201,
				"y": -0.9365326446,
				"z": -1.4513201952,
				"element": "C" 
			},
			{
				"x": 4.3771650648,
				"y": -1.4707772116,
				"z": -0.8949723433,
				"element": "C" 
			},
			{
				"x": 4.6820868967,
				"y": -1.2072204779,
				"z": 0.441734652,
				"element": "C" 
			},
			{
				"x": 3.8218246195,
				"y": -0.4338777095,
				"z": 1.2189288517,
				"element": "C" 
			},
			{
				"x": 1.2575733612,
				"y": 0.5010289645,
				"z": -1.3711093222,
				"element": "N" 
			},
			{
				"x": 1.073963579,
				"y": 1.7019600259,
				"z": -1.191009514,
				"element": "O" 
			},
			{
				"x": 0.6023591761,
				"y": -0.2101555159,
				"z": -2.1317995634,
				"element": "O" 
			},
			{
				"x": -2.6977173095,
				"y": 3.6318880643,
				"z": 0.8737669624,
				"element": "H" 
			},
			{
				"x": -4.2647813348,
				"y": 2.9044413259,
				"z": 0.4675662072,
				"element": "H" 
			},
			{
				"x": -3.242637287,
				"y": 3.5931055679,
				"z": -0.8014150876,
				"element": "H" 
			},
			{
				"x": -1.5224680959,
				"y": 1.8220848079,
				"z": -0.4150094934,
				"element": "H" 
			},
			{
				"x": -2.7472535458,
				"y": -0.1090664585,
				"z": -1.3379971532,
				"element": "H" 
			},
			{
				"x": -4.3010142693,
				"y": 0.58155575,
				"z": -0.8258883675,
				"element": "H" 
			},
			{
				"x": -3.3431798616,
				"y": 1.3775937198,
				"z": -2.0822666269,
				"element": "H" 
			},
			{
				"x": -2.0511516201,
				"y": -0.1317790571,
				"z": 1.0473420736,
				"element": "H" 
			},
			{
				"x": -3.4844494958,
				"y": 0.7079103572,
				"z": 1.6516083304,
				"element": "H" 
			},
			{
				"x": -2.0825102489,
				"y": 2.2349215859,
				"z": 2.8096641086,
				"element": "H" 
			},
			{
				"x": 3.0997373431,
				"y": 2.0623299053,
				"z": 2.8262385364,
				"element": "H" 
			},
			{
				"x": 2.9469290028,
				"y": -1.120331531,
				"z": -2.4845419755,
				"element": "H" 
			},
			{
				"x": 5.0323631103,
				"y": -2.0892958079,
				"z": -1.4998416731,
				"element": "H" 
			},
			{
				"x": 5.5781156258,
				"y": -1.6267409204,
				"z": 0.889177156,
				"element": "H" 
			},
			{
				"x": 4.0282977699,
				"y": -0.2877858579,
				"z": 2.2743554343,
				"element": "H" 
			}
		],
		 "valence_orbital": [ 
			{
				"type": "occ",
				"energy": -0.28187,
				"method": "rhf"
			},
			{
				"type": "occ",
				"energy": -0.27351,
				"method": "rhf"
			},
			{
				"type": "occ",
				"energy": -0.26305,
				"method": "rhf"
			},
			{
				"type": "occ",
				"energy": -0.25648,
				"method": "rhf"
			},
			{
				"type": "occ",
				"energy": -0.20241,
				"method": "rhf"
			},
			{
				"type": "unocc",
				"energy": -0.07328,
				"method": "rhf"
			},
			{
				"type": "unocc",
				"energy": -0.03397,
				"method": "rhf"
			},
			{
				"type": "unocc",
				"energy": -0.01061,
				"method": "rhf"
			},
			{
				"type": "unocc",
				"energy": 0.00188,
				"method": "rhf"
			},
			{
				"type": "unocc",
				"energy": 0.01238,
				"method": "rhf"
			}
		],
		"cosmo_sigma_profile": { 
			"-0.025": 0.0,
			"-0.024": 0.0,
			"-0.023": 0.0,
			"-0.022": 0.0,
			"-0.021": 0.0,
			"-0.02": 0.0,
			"-0.019": 0.0,
			"-0.018": 0.0,
			"-0.017": 0.0,
			"-0.016": 0.0,
			"-0.015": 0.104856628141,
			"-0.014": 1.0352123531,
			"-0.013": 1.52317016019,
			"-0.012": 0.731812780302,
			"-0.011": 1.63530211392,
			"-0.01": 1.27309833393,
			"-0.009": 2.72884421495,
			"-0.008": 4.13165883997,
			"-0.007": 12.4041644625,
			"-0.006": 14.6532749249,
			"-0.005": 12.9150186544,
			"-0.004": 13.5809570176,
			"-0.003": 21.2160521132,
			"-0.002": 25.1541821986,
			"-0.001": 24.2687479202,
			"0.0": 24.5078823,
			"0.001": 34.9419003061,
			"0.002": 34.4116898362,
			"0.003": 22.3307737011,
			"0.004": 14.3473900815,
			"0.005": 9.67466322614,
			"0.006": 8.96096084983,
			"0.007": 10.0212451893,
			"0.008": 11.0144079965,
			"0.009": 5.40286642074,
			"0.01": 1.82628667403,
			"0.011": 0.397852821743,
			"0.012": 0.0100519088758,
			"0.013": 0.0,
			"0.014": 0.0,
			"0.015": 0.0,
			"0.016": 0.0,
			"0.017": 0.0,
			"0.018": 0.0,
			"0.019": 0.0,
			"0.02": 0.0,
			"0.021": 0.0,
			"0.022": 0.0,
			"0.023": 0.0,
			"0.024": 0.0,
			"0.025": 0.0
		}
	}
}
