{
	 "smiles": "OC(=O)C1=CC(Cl)=C(N1)[N+]([O-])=O", 
	 "Tm": 510.15, 
	 "num_atms": 15, 
	 "gaussian": { 
		 "optdone": 1, 
		 "sigma_profile": "yes", 
		 "theory": "DFT", 
		 "functional": "B3LYP", 
		 "basiset": "6-31G**", 
		 "properties": { 
			 "R2extent": 3022.9394, 
			 "electric_dipole_moment_norm": 4.18838430424, 
			 "electric_quadrupole_moment_norm": 16.3016948453, 
			 "total_energy": -1062.81837044, 
			 "HOMO_LUMO_gap": 0.16463, 
			 "cosmo_polarized_energy": -19.12, 
			 "cosmo_cavitation_energy": 23.35, 
			 "cosmo_dispersion_energy": -17.34, 
			 "cosmo_repulsion_energy": 1.39, 
			 "cosmo_total_nonelectrostatic_energy": 7.41, 
			 "SMD_solvation_energy": 7.33 
		},
		"coords": [
			{
				"x": -3.0380625411,
				"y": 0.1454805676,
				"z": -1.6027730725,
				"element": "O" 
			},
			{
				"x": -1.7443007362,
				"y": 0.3846910352,
				"z": -1.3007405786,
				"element": "C" 
			},
			{
				"x": -1.1150287865,
				"y": 1.2509416788,
				"z": -1.8645772047,
				"element": "O" 
			},
			{
				"x": -1.1278379427,
				"y": -0.4567832704,
				"z": -0.2507303391,
				"element": "C" 
			},
			{
				"x": -1.5829212503,
				"y": -1.5016389697,
				"z": 0.5537701675,
				"element": "C" 
			},
			{
				"x": -0.5048782324,
				"y": -1.8982088678,
				"z": 1.370677089,
				"element": "C" 
			},
			{
				"x": -0.555571225,
				"y": -3.1549636244,
				"z": 2.5414401685,
				"element": "Cl" 
			},
			{
				"x": 0.5761647152,
				"y": -1.0786042636,
				"z": 1.0357800256,
				"element": "C" 
			},
			{
				"x": 0.1766803071,
				"y": -0.2202484575,
				"z": 0.0585929537,
				"element": "N" 
			},
			{
				"x": 1.9191311834,
				"y": -1.0078177318,
				"z": 1.5179157315,
				"element": "N" 
			},
			{
				"x": 2.6386633166,
				"y": -0.1465492626,
				"z": 0.9955494092,
				"element": "O" 
			},
			{
				"x": 2.2569750221,
				"y": -1.7928333965,
				"z": 2.4003255305,
				"element": "O" 
			},
			{
				"x": -3.3983480536,
				"y": -0.5750565469,
				"z": -1.0668119276,
				"element": "H" 
			},
			{
				"x": -2.5684176094,
				"y": -1.9454359304,
				"z": 0.57144519,
				"element": "H" 
			},
			{
				"x": 0.7613518328,
				"y": 0.4864270399,
				"z": -0.3722631433,
				"element": "H" 
			}
		],
		 "valence_orbital": [ 
			{
				"type": "occ",
				"energy": -0.32297,
				"method": "rhf"
			},
			{
				"type": "occ",
				"energy": -0.30913,
				"method": "rhf"
			},
			{
				"type": "occ",
				"energy": -0.30839,
				"method": "rhf"
			},
			{
				"type": "occ",
				"energy": -0.29696,
				"method": "rhf"
			},
			{
				"type": "occ",
				"energy": -0.27511,
				"method": "rhf"
			},
			{
				"type": "unocc",
				"energy": -0.11048,
				"method": "rhf"
			},
			{
				"type": "unocc",
				"energy": -0.05255,
				"method": "rhf"
			},
			{
				"type": "unocc",
				"energy": 0.00677,
				"method": "rhf"
			},
			{
				"type": "unocc",
				"energy": 0.02803,
				"method": "rhf"
			},
			{
				"type": "unocc",
				"energy": 0.03294,
				"method": "rhf"
			}
		],
		"cosmo_sigma_profile": { 
			"-0.025": 0.0,
			"-0.024": 0.0,
			"-0.023": 0.0,
			"-0.022": 0.0,
			"-0.021": 0.0,
			"-0.02": 1.08827720528,
			"-0.019": 1.20492866262,
			"-0.018": 1.08777281648,
			"-0.017": 1.30682306328,
			"-0.016": 0.914027776674,
			"-0.015": 1.70048536661,
			"-0.014": 1.55053655275,
			"-0.013": 1.73087088454,
			"-0.012": 2.26389804747,
			"-0.011": 1.84987867498,
			"-0.01": 2.85184818207,
			"-0.009": 2.64707186434,
			"-0.008": 2.87265672696,
			"-0.007": 6.7441858589,
			"-0.006": 6.81028689765,
			"-0.005": 7.21189582935,
			"-0.004": 10.6120972333,
			"-0.003": 11.8688993251,
			"-0.002": 10.2675266311,
			"-0.001": 11.3396506445,
			"0.0": 11.2941670752,
			"0.001": 9.1552514371,
			"0.002": 9.56296340801,
			"0.003": 11.1751197101,
			"0.004": 5.99443074831,
			"0.005": 5.29585539718,
			"0.006": 6.36891608941,
			"0.007": 12.5466573224,
			"0.008": 11.3741093391,
			"0.009": 8.68533845789,
			"0.01": 5.59723717268,
			"0.011": 3.64726211179,
			"0.012": 1.62973728316,
			"0.013": 0.068448910664,
			"0.014": 0.0,
			"0.015": 0.0,
			"0.016": 0.0,
			"0.017": 0.0,
			"0.018": 0.0,
			"0.019": 0.0,
			"0.02": 0.0,
			"0.021": 0.0,
			"0.022": 0.0,
			"0.023": 0.0,
			"0.024": 0.0,
			"0.025": 0.0
		}
	}
}
