{
	 "smiles": "CCCC1C(=O)N2N(C1=O)C1=CC(C)=CC=C1N=C2N(C)C", 
	 "Tm": 501.15, 
	 "num_atms": 42, 
	 "gaussian": { 
		 "optdone": 1, 
		 "sigma_profile": "yes", 
		 "theory": "DFT", 
		 "functional": "B3LYP", 
		 "basiset": "6-31G**", 
		 "properties": { 
			 "R2extent": 6946.9765, 
			 "electric_dipole_moment_norm": 1.44439596372, 
			 "electric_quadrupole_moment_norm": 7.98559667088, 
			 "total_energy": -991.203511221, 
			 "HOMO_LUMO_gap": 0.14662, 
			 "cosmo_polarized_energy": -13.2, 
			 "cosmo_cavitation_energy": 42.67, 
			 "cosmo_dispersion_energy": -29.78, 
			 "cosmo_repulsion_energy": 2.25, 
			 "cosmo_total_nonelectrostatic_energy": 15.14, 
			 "SMD_solvation_energy": 6.48 
		},
		"coords": [
			{
				"x": 1.8445074555,
				"y": 0.0333381027,
				"z": -3.2453657904,
				"element": "C" 
			},
			{
				"x": 0.6609091018,
				"y": 0.8650230808,
				"z": -3.7517093234,
				"element": "C" 
			},
			{
				"x": 0.4684380052,
				"y": 2.2263759418,
				"z": -3.0656590615,
				"element": "C" 
			},
			{
				"x": 0.1649513521,
				"y": 2.1966889864,
				"z": -1.5514970644,
				"element": "C" 
			},
			{
				"x": 1.3640032935,
				"y": 1.9914938318,
				"z": -0.6406468022,
				"element": "C" 
			},
			{
				"x": 2.4242082043,
				"y": 2.5831314712,
				"z": -0.687037384,
				"element": "O" 
			},
			{
				"x": 1.0169663535,
				"y": 0.981992099,
				"z": 0.2623384793,
				"element": "N" 
			},
			{
				"x": -0.3257792217,
				"y": 0.5224113434,
				"z": 0.0164677951,
				"element": "N" 
			},
			{
				"x": -0.8605671071,
				"y": 1.1825219056,
				"z": -1.0827430692,
				"element": "C" 
			},
			{
				"x": -1.9767039113,
				"y": 1.001650309,
				"z": -1.5397777483,
				"element": "O" 
			},
			{
				"x": -1.0474777062,
				"y": -0.0284887832,
				"z": 1.1149425168,
				"element": "C" 
			},
			{
				"x": -2.4139498241,
				"y": -0.2920540128,
				"z": 1.0465666052,
				"element": "C" 
			},
			{
				"x": -3.0889271384,
				"y": -0.8077575561,
				"z": 2.1657868726,
				"element": "C" 
			},
			{
				"x": -4.5711590022,
				"y": -1.0869269159,
				"z": 2.0822573519,
				"element": "C" 
			},
			{
				"x": -2.3646422368,
				"y": -1.0573684152,
				"z": 3.3344148793,
				"element": "C" 
			},
			{
				"x": -0.9923123234,
				"y": -0.8142970108,
				"z": 3.389129905,
				"element": "C" 
			},
			{
				"x": -0.3082798394,
				"y": -0.3017840194,
				"z": 2.2851640347,
				"element": "C" 
			},
			{
				"x": 1.078004362,
				"y": -0.1450212454,
				"z": 2.3496620749,
				"element": "N" 
			},
			{
				"x": 1.6995587025,
				"y": 0.4517066577,
				"z": 1.3918876077,
				"element": "C" 
			},
			{
				"x": 3.0509648353,
				"y": 0.6783531972,
				"z": 1.4512190068,
				"element": "N" 
			},
			{
				"x": 3.6805337706,
				"y": 0.4669221152,
				"z": 2.7511048313,
				"element": "C" 
			},
			{
				"x": 3.9310209733,
				"y": 0.3883706935,
				"z": 0.31773678,
				"element": "C" 
			},
			{
				"x": 1.9803566261,
				"y": -0.8619925846,
				"z": -3.8602964195,
				"element": "H" 
			},
			{
				"x": 1.6910814251,
				"y": -0.309506759,
				"z": -2.2162906453,
				"element": "H" 
			},
			{
				"x": 2.7779418918,
				"y": 0.6063164518,
				"z": -3.2749788281,
				"element": "H" 
			},
			{
				"x": -0.2651650989,
				"y": 0.2852293628,
				"z": -3.6620615663,
				"element": "H" 
			},
			{
				"x": 0.7939864866,
				"y": 1.0593285681,
				"z": -4.823129454,
				"element": "H" 
			},
			{
				"x": -0.3635484116,
				"y": 2.7441851093,
				"z": -3.5528772087,
				"element": "H" 
			},
			{
				"x": 1.3593538951,
				"y": 2.8518454678,
				"z": -3.196635291,
				"element": "H" 
			},
			{
				"x": -0.2470290975,
				"y": 3.1799297271,
				"z": -1.2811702156,
				"element": "H" 
			},
			{
				"x": -2.9462650455,
				"y": -0.0946812231,
				"z": 0.1257485139,
				"element": "H" 
			},
			{
				"x": -5.1356853862,
				"y": -0.1808876836,
				"z": 1.8334134918,
				"element": "H" 
			},
			{
				"x": -4.9570181815,
				"y": -1.4717416941,
				"z": 3.0302263894,
				"element": "H" 
			},
			{
				"x": -4.7952033682,
				"y": -1.8262837804,
				"z": 1.3044854509,
				"element": "H" 
			},
			{
				"x": -2.873107828,
				"y": -1.4582752393,
				"z": 4.2070219503,
				"element": "H" 
			},
			{
				"x": -0.4174855724,
				"y": -1.0250245377,
				"z": 4.2850470631,
				"element": "H" 
			},
			{
				"x": 4.6517716616,
				"y": 0.9699892354,
				"z": 2.7418233756,
				"element": "H" 
			},
			{
				"x": 3.8310826605,
				"y": -0.5988259306,
				"z": 2.9711983107,
				"element": "H" 
			},
			{
				"x": 3.0574837219,
				"y": 0.8906054168,
				"z": 3.5380400405,
				"element": "H" 
			},
			{
				"x": 3.3702864513,
				"y": 0.3248245381,
				"z": -0.6101498737,
				"element": "H" 
			},
			{
				"x": 4.4418658859,
				"y": -0.5713102947,
				"z": 0.4818331802,
				"element": "H" 
			},
			{
				"x": 4.6768291851,
				"y": 1.1794940734,
				"z": 0.2079092386,
				"element": "H" 
			}
		],
		 "valence_orbital": [ 
			{
				"type": "occ",
				"energy": -0.27731,
				"method": "rhf"
			},
			{
				"type": "occ",
				"energy": -0.26325,
				"method": "rhf"
			},
			{
				"type": "occ",
				"energy": -0.25226,
				"method": "rhf"
			},
			{
				"type": "occ",
				"energy": -0.2275,
				"method": "rhf"
			},
			{
				"type": "occ",
				"energy": -0.19073,
				"method": "rhf"
			},
			{
				"type": "unocc",
				"energy": -0.04411,
				"method": "rhf"
			},
			{
				"type": "unocc",
				"energy": -0.0147,
				"method": "rhf"
			},
			{
				"type": "unocc",
				"energy": 0.0061,
				"method": "rhf"
			},
			{
				"type": "unocc",
				"energy": 0.02273,
				"method": "rhf"
			},
			{
				"type": "unocc",
				"energy": 0.06512,
				"method": "rhf"
			}
		],
		"cosmo_sigma_profile": { 
			"-0.025": 0.0,
			"-0.024": 0.0,
			"-0.023": 0.0,
			"-0.022": 0.0,
			"-0.021": 0.0,
			"-0.02": 0.0,
			"-0.019": 0.0,
			"-0.018": 0.0,
			"-0.017": 0.0,
			"-0.016": 0.0,
			"-0.015": 0.0,
			"-0.014": 0.0,
			"-0.013": 0.0,
			"-0.012": 0.0,
			"-0.011": 0.233707175377,
			"-0.01": 2.26532353919,
			"-0.009": 3.1829127809,
			"-0.008": 2.67055165674,
			"-0.007": 2.43417567794,
			"-0.006": 4.87333043039,
			"-0.005": 16.5130903833,
			"-0.004": 32.1396806474,
			"-0.003": 41.2954307261,
			"-0.002": 47.5047989019,
			"-0.001": 34.9386379491,
			"0.0": 29.3826183318,
			"0.001": 20.532367615,
			"0.002": 15.7077584774,
			"0.003": 13.8700739939,
			"0.004": 15.7675861026,
			"0.005": 12.7093101132,
			"0.006": 6.7184196226,
			"0.007": 5.02862620543,
			"0.008": 4.2461819141,
			"0.009": 4.43065609792,
			"0.01": 5.81624729021,
			"0.011": 7.26400542104,
			"0.012": 6.0817707337,
			"0.013": 0.831773905651,
			"0.014": 0.0,
			"0.015": 0.0,
			"0.016": 0.0,
			"0.017": 0.0,
			"0.018": 0.0,
			"0.019": 0.0,
			"0.02": 0.0,
			"0.021": 0.0,
			"0.022": 0.0,
			"0.023": 0.0,
			"0.024": 0.0,
			"0.025": 0.0
		}
	}
}
