{
	 "smiles": "CC(=O)N1CCN(CC1)C1=NC=CC(=C1)C#N", 
	 "Tm": 381.15, 
	 "num_atms": 31, 
	 "gaussian": { 
		 "optdone": 1, 
		 "sigma_profile": "yes", 
		 "theory": "DFT", 
		 "functional": "B3LYP", 
		 "basiset": "6-31G**", 
		 "properties": { 
			 "R2extent": 6079.9899, 
			 "electric_dipole_moment_norm": 4.73125352629, 
			 "electric_quadrupole_moment_norm": 16.7275131932, 
			 "total_energy": -759.938912583, 
			 "HOMO_LUMO_gap": 0.15742, 
			 "cosmo_polarized_energy": -17.21, 
			 "cosmo_cavitation_energy": 34.57, 
			 "cosmo_dispersion_energy": -24.64, 
			 "cosmo_repulsion_energy": 1.9, 
			 "cosmo_total_nonelectrostatic_energy": 11.83, 
			 "SMD_solvation_energy": 5.8 
		},
		"coords": [
			{
				"x": 2.7009405304,
				"y": 0.7671295352,
				"z": 3.5027091855,
				"element": "C" 
			},
			{
				"x": 1.8909074356,
				"y": 1.7658913331,
				"z": 2.6870059316,
				"element": "C" 
			},
			{
				"x": 2.1709865749,
				"y": 2.9595956272,
				"z": 2.6896127142,
				"element": "O" 
			},
			{
				"x": 0.8393335427,
				"y": 1.2727936863,
				"z": 1.9430380419,
				"element": "N" 
			},
			{
				"x": 0.3756183922,
				"y": -0.1077003601,
				"z": 1.8979710058,
				"element": "C" 
			},
			{
				"x": 0.2469370873,
				"y": -0.5827441088,
				"z": 0.4484376254,
				"element": "C" 
			},
			{
				"x": -0.5860608578,
				"y": 0.3380749208,
				"z": -0.3300308808,
				"element": "N" 
			},
			{
				"x": -0.1453176113,
				"y": 1.7310043324,
				"z": -0.2710804318,
				"element": "C" 
			},
			{
				"x": 0.0018529346,
				"y": 2.1912462717,
				"z": 1.1831038499,
				"element": "C" 
			},
			{
				"x": -1.3346932533,
				"y": -0.1538001788,
				"z": -1.3858457926,
				"element": "C" 
			},
			{
				"x": -1.5503426209,
				"y": -1.4845604666,
				"z": -1.4018791905,
				"element": "N" 
			},
			{
				"x": -2.3112085985,
				"y": -2.0103533907,
				"z": -2.36320392,
				"element": "C" 
			},
			{
				"x": -2.9098821863,
				"y": -1.2767645176,
				"z": -3.3810788846,
				"element": "C" 
			},
			{
				"x": -2.6685778022,
				"y": 0.1067119866,
				"z": -3.3830891291,
				"element": "C" 
			},
			{
				"x": -1.8742878085,
				"y": 0.6835065984,
				"z": -2.3921143732,
				"element": "C" 
			},
			{
				"x": -3.2284134842,
				"y": 0.9379511491,
				"z": -4.4127582843,
				"element": "C" 
			},
			{
				"x": -3.6832984886,
				"y": 1.6086608535,
				"z": -5.2463934948,
				"element": "N" 
			},
			{
				"x": 3.1719477899,
				"y": 0.0078480468,
				"z": 2.8697439146,
				"element": "H" 
			},
			{
				"x": 2.0837061268,
				"y": 0.2503525089,
				"z": 4.2450114769,
				"element": "H" 
			},
			{
				"x": 3.4790606552,
				"y": 1.3286740869,
				"z": 4.0184027044,
				"element": "H" 
			},
			{
				"x": 1.0704870819,
				"y": -0.7599400129,
				"z": 2.4266892075,
				"element": "H" 
			},
			{
				"x": -0.6042403293,
				"y": -0.1850808527,
				"z": 2.3927054143,
				"element": "H" 
			},
			{
				"x": -0.2080047492,
				"y": -1.5708873782,
				"z": 0.4079894799,
				"element": "H" 
			},
			{
				"x": 1.252215342,
				"y": -0.6474542259,
				"z": 0.0004140463,
				"element": "H" 
			},
			{
				"x": -0.8832227246,
				"y": 2.3760653545,
				"z": -0.7492641392,
				"element": "H" 
			},
			{
				"x": 0.8127824531,
				"y": 1.8587389133,
				"z": -0.8003050184,
				"element": "H" 
			},
			{
				"x": -0.9953323466,
				"y": 2.2446305854,
				"z": 1.643956775,
				"element": "H" 
			},
			{
				"x": 0.4629828261,
				"y": 3.1779400387,
				"z": 1.2305757238,
				"element": "H" 
			},
			{
				"x": -2.4484766687,
				"y": -3.0893724531,
				"z": -2.3177179469,
				"element": "H" 
			},
			{
				"x": -3.5204936966,
				"y": -1.7465495737,
				"z": -4.1419247977,
				"element": "H" 
			},
			{
				"x": -1.6820055462,
				"y": 1.7464916902,
				"z": -2.426580813,
				"element": "H" 
			}
		],
		 "valence_orbital": [ 
			{
				"type": "occ",
				"energy": -0.29122,
				"method": "rhf"
			},
			{
				"type": "occ",
				"energy": -0.27569,
				"method": "rhf"
			},
			{
				"type": "occ",
				"energy": -0.25243,
				"method": "rhf"
			},
			{
				"type": "occ",
				"energy": -0.24776,
				"method": "rhf"
			},
			{
				"type": "occ",
				"energy": -0.22294,
				"method": "rhf"
			},
			{
				"type": "unocc",
				"energy": -0.06552,
				"method": "rhf"
			},
			{
				"type": "unocc",
				"energy": -0.01729,
				"method": "rhf"
			},
			{
				"type": "unocc",
				"energy": 0.02035,
				"method": "rhf"
			},
			{
				"type": "unocc",
				"energy": 0.02983,
				"method": "rhf"
			},
			{
				"type": "unocc",
				"energy": 0.06844,
				"method": "rhf"
			}
		],
		"cosmo_sigma_profile": { 
			"-0.025": 0.0,
			"-0.024": 0.0,
			"-0.023": 0.0,
			"-0.022": 0.0,
			"-0.021": 0.0,
			"-0.02": 0.0,
			"-0.019": 0.0,
			"-0.018": 0.0,
			"-0.017": 0.0,
			"-0.016": 0.0,
			"-0.015": 0.0,
			"-0.014": 0.0,
			"-0.013": 0.0,
			"-0.012": 0.0,
			"-0.011": 0.0,
			"-0.01": 0.790390344544,
			"-0.009": 2.16454048304,
			"-0.008": 3.22581368004,
			"-0.007": 8.55007167177,
			"-0.006": 15.7294577632,
			"-0.005": 21.0438287778,
			"-0.004": 35.0318315995,
			"-0.003": 26.8934027636,
			"-0.002": 23.1838574858,
			"-0.001": 19.642026478,
			"0.0": 19.8706077457,
			"0.001": 18.3997452415,
			"0.002": 11.8823413845,
			"0.003": 7.36378282733,
			"0.004": 6.69931060785,
			"0.005": 6.7092835865,
			"0.006": 5.55244519605,
			"0.007": 6.13211476669,
			"0.008": 6.50652900992,
			"0.009": 5.95563455733,
			"0.01": 5.62721621337,
			"0.011": 4.24670036167,
			"0.012": 3.77734816699,
			"0.013": 3.49415937328,
			"0.014": 5.04696887465,
			"0.015": 1.69665350263,
			"0.016": 0.055737043801,
			"0.017": 0.0,
			"0.018": 0.0,
			"0.019": 0.0,
			"0.02": 0.0,
			"0.021": 0.0,
			"0.022": 0.0,
			"0.023": 0.0,
			"0.024": 0.0,
			"0.025": 0.0
		}
	}
}
