{
	 "smiles": "O=C1OC(=O)C2=C3C1=CC=C1C4=C5C(=CC=C6C(=O)OC(=O)C(C=C4)=C56)C(C=C2)=C31", 
	 "Tm": 623.15, 
	 "num_atms": 38, 
	 "gaussian": { 
		 "optdone": 1, 
		 "sigma_profile": "yes", 
		 "theory": "DFT", 
		 "functional": "B3LYP", 
		 "basiset": "6-31G**", 
		 "properties": { 
			 "R2extent": 13782.8664, 
			 "electric_dipole_moment_norm": 0.000424264068712, 
			 "electric_quadrupole_moment_norm": 66.7134792664, 
			 "total_energy": -1370.81058943, 
			 "HOMO_LUMO_gap": 0.09384, 
			 "cosmo_polarized_energy": -25.44, 
			 "cosmo_cavitation_energy": 42.82, 
			 "cosmo_dispersion_energy": -32.3, 
			 "cosmo_repulsion_energy": 2.2, 
			 "cosmo_total_nonelectrostatic_energy": 12.72, 
			 "SMD_solvation_energy": 9.57 
		},
		"coords": [
			{
				"x": 4.8237326485,
				"y": 4.6512772035,
				"z": -1.733361888,
				"element": "O" 
			},
			{
				"x": 4.3112780042,
				"y": 4.0237081727,
				"z": -0.8408388845,
				"element": "C" 
			},
			{
				"x": 4.6708176475,
				"y": 4.3290519595,
				"z": 0.4630837093,
				"element": "O" 
			},
			{
				"x": 4.1754455984,
				"y": 3.7028865599,
				"z": 1.5967756526,
				"element": "C" 
			},
			{
				"x": 4.5782250055,
				"y": 4.0716115812,
				"z": 2.6714184197,
				"element": "O" 
			},
			{
				"x": 3.1861470496,
				"y": 2.6244178888,
				"z": 1.3923016248,
				"element": "C" 
			},
			{
				"x": 2.7766935744,
				"y": 2.2636274642,
				"z": 0.0857074499,
				"element": "C" 
			},
			{
				"x": 3.3212097489,
				"y": 2.943294288,
				"z": -1.0307914929,
				"element": "C" 
			},
			{
				"x": 2.9250321354,
				"y": 2.5953524539,
				"z": -2.3110145499,
				"element": "C" 
			},
			{
				"x": 1.9883700115,
				"y": 1.5744090567,
				"z": -2.5062880206,
				"element": "C" 
			},
			{
				"x": 1.4237155239,
				"y": 0.8757039744,
				"z": -1.4366793579,
				"element": "C" 
			},
			{
				"x": 0.4386756572,
				"y": -0.1987272272,
				"z": -1.6329708922,
				"element": "C" 
			},
			{
				"x": -0.0956199591,
				"y": -0.8692225558,
				"z": -0.4866595636,
				"element": "C" 
			},
			{
				"x": 0.3005720295,
				"y": -0.5248614317,
				"z": 0.8450694242,
				"element": "C" 
			},
			{
				"x": -0.2640829977,
				"y": -1.2235656621,
				"z": 1.9146782134,
				"element": "C" 
			},
			{
				"x": -1.2007606543,
				"y": -2.2444948121,
				"z": 1.7194061015,
				"element": "C" 
			},
			{
				"x": -1.5969565011,
				"y": -2.5924204223,
				"z": 0.4391842005,
				"element": "C" 
			},
			{
				"x": -2.5871424209,
				"y": -3.6727278094,
				"z": 0.2492397204,
				"element": "C" 
			},
			{
				"x": -3.0993103423,
				"y": -4.3005558979,
				"z": 1.1417449865,
				"element": "O" 
			},
			{
				"x": -2.9464984848,
				"y": -3.9782386263,
				"z": -1.0546947318,
				"element": "O" 
			},
			{
				"x": -2.4510023594,
				"y": -3.3521861425,
				"z": -2.1883943347,
				"element": "C" 
			},
			{
				"x": -2.8538811563,
				"y": -3.7208209607,
				"z": -3.2630307358,
				"element": "O" 
			},
			{
				"x": -1.4618187033,
				"y": -2.273612781,
				"z": -1.9839134763,
				"element": "C" 
			},
			{
				"x": -0.9332290858,
				"y": -1.6129367955,
				"z": -3.0798573146,
				"element": "C" 
			},
			{
				"x": 0.0043335631,
				"y": -0.5896997636,
				"z": -2.9016567053,
				"element": "C" 
			},
			{
				"x": -1.052406407,
				"y": -1.9127847168,
				"z": -0.6773171558,
				"element": "C" 
			},
			{
				"x": 1.2856170093,
				"y": 0.5495649375,
				"z": 1.0413606366,
				"element": "C" 
			},
			{
				"x": 1.7199718197,
				"y": 0.9405251574,
				"z": 2.310045887,
				"element": "C" 
			},
			{
				"x": 2.6575564851,
				"y": 1.9637421377,
				"z": 2.4882452652,
				"element": "C" 
			},
			{
				"x": 1.8199078761,
				"y": 1.2200648446,
				"z": -0.104950102,
				"element": "C" 
			},
			{
				"x": 3.3525729165,
				"y": 3.1267878646,
				"z": -3.1543175633,
				"element": "H" 
			},
			{
				"x": 1.7070124391,
				"y": 1.3349610502,
				"z": -3.5242459195,
				"element": "H" 
			},
			{
				"x": 0.0172707818,
				"y": -0.9841133251,
				"z": 2.9326362111,
				"element": "H" 
			},
			{
				"x": -1.6283303286,
				"y": -2.7759036356,
				"z": 2.5627113371,
				"element": "H" 
			},
			{
				"x": -1.258404254,
				"y": -1.9026754025,
				"z": -4.073179017,
				"element": "H" 
			},
			{
				"x": 0.3916752536,
				"y": -0.0998045204,
				"z": -3.7863618347,
				"element": "H" 
			},
			{
				"x": 1.3326414155,
				"y": 0.4506193002,
				"z": 3.194750247,
				"element": "H" 
			},
			{
				"x": 2.9827694606,
				"y": 2.2534465931,
				"z": 3.4815644532,
				"element": "H" 
			}
		],
		 "valence_orbital": [ 
			{
				"type": "occ",
				"energy": -0.29756,
				"method": "rhf"
			},
			{
				"type": "occ",
				"energy": -0.29203,
				"method": "rhf"
			},
			{
				"type": "occ",
				"energy": -0.29187,
				"method": "rhf"
			},
			{
				"type": "occ",
				"energy": -0.29156,
				"method": "rhf"
			},
			{
				"type": "occ",
				"energy": -0.23759,
				"method": "rhf"
			},
			{
				"type": "unocc",
				"energy": -0.14375,
				"method": "rhf"
			},
			{
				"type": "unocc",
				"energy": -0.08429,
				"method": "rhf"
			},
			{
				"type": "unocc",
				"energy": -0.08383,
				"method": "rhf"
			},
			{
				"type": "unocc",
				"energy": -0.06412,
				"method": "rhf"
			},
			{
				"type": "unocc",
				"energy": -0.04547,
				"method": "rhf"
			}
		],
		"cosmo_sigma_profile": { 
			"-0.025": 0.0,
			"-0.024": 0.0,
			"-0.023": 0.0,
			"-0.022": 0.0,
			"-0.021": 0.0,
			"-0.02": 0.0,
			"-0.019": 0.0,
			"-0.018": 0.0,
			"-0.017": 0.0,
			"-0.016": 0.0,
			"-0.015": 0.0,
			"-0.014": 0.0,
			"-0.013": 0.0,
			"-0.012": 0.130390514261,
			"-0.011": 2.3263552356,
			"-0.01": 3.49578937377,
			"-0.009": 7.24664322619,
			"-0.008": 12.9054015255,
			"-0.007": 17.307079971,
			"-0.006": 14.823182295,
			"-0.005": 14.8760723039,
			"-0.004": 17.570947379,
			"-0.003": 19.3745035468,
			"-0.002": 39.0002724122,
			"-0.001": 52.3194095705,
			"0.0": 34.7814785429,
			"0.001": 14.2442836837,
			"0.002": 6.35729085618,
			"0.003": 7.18885096034,
			"0.004": 5.11465595731,
			"0.005": 6.30033961369,
			"0.006": 7.0938096006,
			"0.007": 8.37519001555,
			"0.008": 12.1828245819,
			"0.009": 14.1339549471,
			"0.01": 19.2755603922,
			"0.011": 11.8450647167,
			"0.012": 1.8829023472,
			"0.013": 0.0,
			"0.014": 0.0,
			"0.015": 0.0,
			"0.016": 0.0,
			"0.017": 0.0,
			"0.018": 0.0,
			"0.019": 0.0,
			"0.02": 0.0,
			"0.021": 0.0,
			"0.022": 0.0,
			"0.023": 0.0,
			"0.024": 0.0,
			"0.025": 0.0
		}
	}
}
