{
	 "smiles": "CC1(NC(=O)NC1=O)C1CCCCC1", 
	 "Tm": 387.15, 
	 "num_atms": 30, 
	 "gaussian": { 
		 "optdone": 1, 
		 "sigma_profile": "yes", 
		 "theory": "DFT", 
		 "functional": "B3LYP", 
		 "basiset": "6-31G**", 
		 "properties": { 
			 "R2extent": 2964.0992, 
			 "electric_dipole_moment_norm": 2.71665520263, 
			 "electric_quadrupole_moment_norm": 14.6336650389, 
			 "total_energy": -650.712106621, 
			 "HOMO_LUMO_gap": 0.24968, 
			 "cosmo_polarized_energy": -14.94, 
			 "cosmo_cavitation_energy": 30.32, 
			 "cosmo_dispersion_energy": -21.79, 
			 "cosmo_repulsion_energy": 1.73, 
			 "cosmo_total_nonelectrostatic_energy": 10.25, 
			 "SMD_solvation_energy": 5.9 
		},
		"coords": [
			{
				"x": -0.4871100491,
				"y": 2.0536818249,
				"z": -1.0411261574,
				"element": "C" 
			},
			{
				"x": -0.5670113187,
				"y": 0.5823533734,
				"z": -0.591831301,
				"element": "C" 
			},
			{
				"x": -1.8626835002,
				"y": -0.0069219977,
				"z": -0.9485718951,
				"element": "N" 
			},
			{
				"x": -2.6734371026,
				"y": -0.2785407772,
				"z": 0.1202627481,
				"element": "C" 
			},
			{
				"x": -3.8123942065,
				"y": -0.6978639931,
				"z": 0.1289351757,
				"element": "O" 
			},
			{
				"x": -1.8959154371,
				"y": 0.0321030148,
				"z": 1.2592095565,
				"element": "N" 
			},
			{
				"x": -0.6523297777,
				"y": 0.5396477886,
				"z": 0.9528586151,
				"element": "C" 
			},
			{
				"x": 0.1986944612,
				"y": 0.903407454,
				"z": 1.7396556244,
				"element": "O" 
			},
			{
				"x": 0.6046144941,
				"y": -0.2800182194,
				"z": -1.1500144927,
				"element": "C" 
			},
			{
				"x": 2.0119537237,
				"y": 0.2342570833,
				"z": -0.7905782227,
				"element": "C" 
			},
			{
				"x": 3.0941383095,
				"y": -0.5018992812,
				"z": -1.6170052643,
				"element": "C" 
			},
			{
				"x": 2.7289671732,
				"y": -1.9788840514,
				"z": -1.900669915,
				"element": "C" 
			},
			{
				"x": 1.8185968197,
				"y": -2.5319476255,
				"z": -0.798666882,
				"element": "C" 
			},
			{
				"x": 0.4690175504,
				"y": -1.7797922151,
				"z": -0.7613632399,
				"element": "C" 
			},
			{
				"x": -0.3776921434,
				"y": 2.1164837446,
				"z": -2.1291934765,
				"element": "H" 
			},
			{
				"x": -1.3982200496,
				"y": 2.586582904,
				"z": -0.7544990398,
				"element": "H" 
			},
			{
				"x": 0.3628788187,
				"y": 2.5547833992,
				"z": -0.5745502201,
				"element": "H" 
			},
			{
				"x": -2.2362216201,
				"y": -0.0332535409,
				"z": -1.8846434471,
				"element": "H" 
			},
			{
				"x": -2.2456679884,
				"y": -0.0883105619,
				"z": 2.1989753979,
				"element": "H" 
			},
			{
				"x": 0.5043154389,
				"y": -0.20317194,
				"z": -2.2442824364,
				"element": "H" 
			},
			{
				"x": 2.1779528242,
				"y": 0.0892172518,
				"z": 0.2812549723,
				"element": "H" 
			},
			{
				"x": 2.0985765794,
				"y": 1.3103249298,
				"z": -0.9651470052,
				"element": "H" 
			},
			{
				"x": 4.0445548839,
				"y": -0.4500004231,
				"z": -1.0733936469,
				"element": "H" 
			},
			{
				"x": 3.2560707584,
				"y": 0.0230912234,
				"z": -2.5663129442,
				"element": "H" 
			},
			{
				"x": 2.209062792,
				"y": -2.0598337534,
				"z": -2.8646611221,
				"element": "H" 
			},
			{
				"x": 3.6378088241,
				"y": -2.583214428,
				"z": -1.9950965501,
				"element": "H" 
			},
			{
				"x": 2.3282212066,
				"y": -2.4319398631,
				"z": 0.1680697885,
				"element": "H" 
			},
			{
				"x": 1.6390991551,
				"y": -3.6035246297,
				"z": -0.9397254489,
				"element": "H" 
			},
			{
				"x": -0.2430145646,
				"y": -2.2611536806,
				"z": -1.4397925831,
				"element": "H" 
			},
			{
				"x": 0.0387739449,
				"y": -1.8728630104,
				"z": 0.2427034118,
				"element": "H" 
			}
		],
		 "valence_orbital": [ 
			{
				"type": "occ",
				"energy": -0.30298,
				"method": "rhf"
			},
			{
				"type": "occ",
				"energy": -0.28782,
				"method": "rhf"
			},
			{
				"type": "occ",
				"energy": -0.28414,
				"method": "rhf"
			},
			{
				"type": "occ",
				"energy": -0.2629,
				"method": "rhf"
			},
			{
				"type": "occ",
				"energy": -0.25843,
				"method": "rhf"
			},
			{
				"type": "unocc",
				"energy": -0.00875,
				"method": "rhf"
			},
			{
				"type": "unocc",
				"energy": 0.0601,
				"method": "rhf"
			},
			{
				"type": "unocc",
				"energy": 0.06673,
				"method": "rhf"
			},
			{
				"type": "unocc",
				"energy": 0.08141,
				"method": "rhf"
			},
			{
				"type": "unocc",
				"energy": 0.09293,
				"method": "rhf"
			}
		],
		"cosmo_sigma_profile": { 
			"-0.025": 0.0,
			"-0.024": 0.0,
			"-0.023": 0.0,
			"-0.022": 0.0,
			"-0.021": 0.0,
			"-0.02": 0.0,
			"-0.019": 0.0,
			"-0.018": 0.0,
			"-0.017": 0.236527269956,
			"-0.016": 1.09741718019,
			"-0.015": 2.09469658435,
			"-0.014": 2.10177196856,
			"-0.013": 2.086388011,
			"-0.012": 1.3696159587,
			"-0.011": 1.56291048319,
			"-0.01": 1.58574325787,
			"-0.009": 2.3990315334,
			"-0.008": 2.43566182496,
			"-0.007": 2.02449410577,
			"-0.006": 2.88566363974,
			"-0.005": 6.73144118151,
			"-0.004": 10.7433525934,
			"-0.003": 15.0988003037,
			"-0.002": 34.5959973583,
			"-0.001": 39.9463853356,
			"0.0": 29.3624508882,
			"0.001": 22.7693340491,
			"0.002": 7.96905670313,
			"0.003": 3.91087077603,
			"0.004": 2.82993598009,
			"0.005": 2.55840200427,
			"0.006": 2.83865098485,
			"0.007": 3.16292128576,
			"0.008": 2.17665497281,
			"0.009": 2.76770075553,
			"0.01": 2.61153648519,
			"0.011": 4.34355322943,
			"0.012": 8.31798153543,
			"0.013": 8.39892032253,
			"0.014": 1.75548182952,
			"0.015": 0.0,
			"0.016": 0.0,
			"0.017": 0.0,
			"0.018": 0.0,
			"0.019": 0.0,
			"0.02": 0.0,
			"0.021": 0.0,
			"0.022": 0.0,
			"0.023": 0.0,
			"0.024": 0.0,
			"0.025": 0.0
		}
	}
}
