{
	 "smiles": "OC1=CC=C(C=C1)C(=O)C1=CC=CC=C1", 
	 "Tm": 406.65, 
	 "num_atms": 25, 
	 "gaussian": { 
		 "optdone": 1, 
		 "sigma_profile": "yes", 
		 "theory": "DFT", 
		 "functional": "B3LYP", 
		 "basiset": "6-31G**", 
		 "properties": { 
			 "R2extent": 4065.0942, 
			 "electric_dipole_moment_norm": 2.35973013288, 
			 "electric_quadrupole_moment_norm": 21.5761500857, 
			 "total_energy": -651.857333386, 
			 "HOMO_LUMO_gap": 0.17343, 
			 "cosmo_polarized_energy": -13.62, 
			 "cosmo_cavitation_energy": 29.54, 
			 "cosmo_dispersion_energy": -21.62, 
			 "cosmo_repulsion_energy": 1.68, 
			 "cosmo_total_nonelectrostatic_energy": 9.6, 
			 "SMD_solvation_energy": 5.8 
		},
		"coords": [
			{
				"x": 2.1277077702,
				"y": -0.5252280094,
				"z": 5.1002113681,
				"element": "O" 
			},
			{
				"x": 1.6659036125,
				"y": -0.1200640293,
				"z": 3.8858759818,
				"element": "C" 
			},
			{
				"x": 1.2823250177,
				"y": 1.2040011123,
				"z": 3.6264118432,
				"element": "C" 
			},
			{
				"x": 0.8237858776,
				"y": 1.5539949628,
				"z": 2.3638756769,
				"element": "C" 
			},
			{
				"x": 0.7107371638,
				"y": 0.5966896195,
				"z": 1.3419191432,
				"element": "C" 
			},
			{
				"x": 1.1091570027,
				"y": -0.7237206419,
				"z": 1.6166320522,
				"element": "C" 
			},
			{
				"x": 1.5867042197,
				"y": -1.0824405782,
				"z": 2.8719378502,
				"element": "C" 
			},
			{
				"x": 0.2566660002,
				"y": 1.0655094622,
				"z": -0.0019794606,
				"element": "C" 
			},
			{
				"x": 0.3759995999,
				"y": 2.2478142587,
				"z": -0.3127909869,
				"element": "O" 
			},
			{
				"x": -0.3479656692,
				"y": 0.1039299967,
				"z": -0.9855128505,
				"element": "C" 
			},
			{
				"x": -1.1203753285,
				"y": -1.002838911,
				"z": -0.6007624454,
				"element": "C" 
			},
			{
				"x": -1.7152239764,
				"y": -1.8171225855,
				"z": -1.5658794247,
				"element": "C" 
			},
			{
				"x": -1.5348222664,
				"y": -1.5417499516,
				"z": -2.9220880737,
				"element": "C" 
			},
			{
				"x": -0.7740188311,
				"y": -0.4357370496,
				"z": -3.3139238621,
				"element": "C" 
			},
			{
				"x": -0.1970582275,
				"y": 0.3884031052,
				"z": -2.3523197713,
				"element": "C" 
			},
			{
				"x": 2.1459468463,
				"y": 0.2292118736,
				"z": 5.7038352337,
				"element": "H" 
			},
			{
				"x": 1.3505651473,
				"y": 1.9531384809,
				"z": 4.4127593908,
				"element": "H" 
			},
			{
				"x": 0.5442211075,
				"y": 2.5782278535,
				"z": 2.1410388296,
				"element": "H" 
			},
			{
				"x": 1.0718896394,
				"y": -1.4738196549,
				"z": 0.8341821831,
				"element": "H" 
			},
			{
				"x": 1.9082583723,
				"y": -2.0962237088,
				"z": 3.0855858849,
				"element": "H" 
			},
			{
				"x": -1.2804067651,
				"y": -1.2118722995,
				"z": 0.4517764587,
				"element": "H" 
			},
			{
				"x": -2.3221246859,
				"y": -2.6635827206,
				"z": -1.2576459162,
				"element": "H" 
			},
			{
				"x": -1.9911768868,
				"y": -2.1815782181,
				"z": -3.6721385058,
				"element": "H" 
			},
			{
				"x": -0.6387681813,
				"y": -0.2149098068,
				"z": -4.3688327488,
				"element": "H" 
			},
			{
				"x": 0.3757734412,
				"y": 1.26516744,
				"z": -2.6356678506,
				"element": "H" 
			}
		],
		 "valence_orbital": [ 
			{
				"type": "occ",
				"energy": -0.2629,
				"method": "rhf"
			},
			{
				"type": "occ",
				"energy": -0.25779,
				"method": "rhf"
			},
			{
				"type": "occ",
				"energy": -0.25623,
				"method": "rhf"
			},
			{
				"type": "occ",
				"energy": -0.24269,
				"method": "rhf"
			},
			{
				"type": "occ",
				"energy": -0.23028,
				"method": "rhf"
			},
			{
				"type": "unocc",
				"energy": -0.05685,
				"method": "rhf"
			},
			{
				"type": "unocc",
				"energy": -0.01358,
				"method": "rhf"
			},
			{
				"type": "unocc",
				"energy": -0.00492,
				"method": "rhf"
			},
			{
				"type": "unocc",
				"energy": -0.00353,
				"method": "rhf"
			},
			{
				"type": "unocc",
				"energy": 0.06145,
				"method": "rhf"
			}
		],
		"cosmo_sigma_profile": { 
			"-0.025": 0.0,
			"-0.024": 0.0,
			"-0.023": 0.0,
			"-0.022": 0.0,
			"-0.021": 0.0,
			"-0.02": 0.0,
			"-0.019": 0.0267532530022,
			"-0.018": 0.949310143014,
			"-0.017": 1.0889853882,
			"-0.016": 1.34266915682,
			"-0.015": 1.31421560541,
			"-0.014": 0.614630171865,
			"-0.013": 0.843411953835,
			"-0.012": 0.866682513447,
			"-0.011": 1.34206335683,
			"-0.01": 1.09157121099,
			"-0.009": 0.817019017168,
			"-0.008": 1.39736289641,
			"-0.007": 3.33210863851,
			"-0.006": 13.1976732817,
			"-0.005": 17.2684914699,
			"-0.004": 18.2778753531,
			"-0.003": 15.8636304652,
			"-0.002": 15.4194220563,
			"-0.001": 14.2231191991,
			"0.0": 14.2881703273,
			"0.001": 14.8948756594,
			"0.002": 17.7068266028,
			"0.003": 22.5672714756,
			"0.004": 23.9158882697,
			"0.005": 7.76682573175,
			"0.006": 3.77448426308,
			"0.007": 3.2009863675,
			"0.008": 2.88042339716,
			"0.009": 3.48868501335,
			"0.01": 3.32362016444,
			"0.011": 3.58657269477,
			"0.012": 3.83181501017,
			"0.013": 2.5454023596,
			"0.014": 0.0411546795614,
			"0.015": 0.0,
			"0.016": 0.0,
			"0.017": 0.0,
			"0.018": 0.0,
			"0.019": 0.0,
			"0.02": 0.0,
			"0.021": 0.0,
			"0.022": 0.0,
			"0.023": 0.0,
			"0.024": 0.0,
			"0.025": 0.0
		}
	}
}
