{
	 "smiles": "CC(=O)OCC1C2CCC(C)(C1=O)C2(C)C", 
	 "Tm": 421.15, 
	 "num_atms": 36, 
	 "gaussian": { 
		 "optdone": 1, 
		 "sigma_profile": "yes", 
		 "theory": "DFT", 
		 "functional": "B3LYP", 
		 "basiset": "6-31G**", 
		 "properties": { 
			 "R2extent": 4759.4835, 
			 "electric_dipole_moment_norm": 4.00388994479, 
			 "electric_quadrupole_moment_norm": 13.6423760812, 
			 "total_energy": -733.125549955, 
			 "HOMO_LUMO_gap": 0.22038, 
			 "cosmo_polarized_energy": -11.47, 
			 "cosmo_cavitation_energy": 35.58, 
			 "cosmo_dispersion_energy": -24.6, 
			 "cosmo_repulsion_energy": 1.91, 
			 "cosmo_total_nonelectrostatic_energy": 12.89, 
			 "SMD_solvation_energy": 7.52 
		},
		"coords": [
			{
				"x": -0.6277816625,
				"y": -3.0803274588,
				"z": 4.4170080541,
				"element": "C" 
			},
			{
				"x": 0.459124173,
				"y": -2.154881738,
				"z": 3.922133237,
				"element": "C" 
			},
			{
				"x": 1.6221486157,
				"y": -2.1909012324,
				"z": 4.2588237857,
				"element": "O" 
			},
			{
				"x": -0.0402729529,
				"y": -1.2555503929,
				"z": 3.0409442,
				"element": "O" 
			},
			{
				"x": 0.9048793985,
				"y": -0.2958396396,
				"z": 2.5114351046,
				"element": "C" 
			},
			{
				"x": 0.2144302472,
				"y": 0.4132034824,
				"z": 1.3533546034,
				"element": "C" 
			},
			{
				"x": 0.0939463909,
				"y": -0.3230666723,
				"z": -0.0067586234,
				"element": "C" 
			},
			{
				"x": -1.0945747355,
				"y": 0.3460862035,
				"z": -0.7380297468,
				"element": "C" 
			},
			{
				"x": -0.5296160169,
				"y": 1.7613682212,
				"z": -1.0752953765,
				"element": "C" 
			},
			{
				"x": 0.9653550784,
				"y": 1.70994358,
				"z": -0.6113682447,
				"element": "C" 
			},
			{
				"x": 1.8615660974,
				"y": 2.7860402592,
				"z": -1.198969971,
				"element": "C" 
			},
			{
				"x": 0.8981402733,
				"y": 1.7292571946,
				"z": 0.9216264859,
				"element": "C" 
			},
			{
				"x": 1.3049518169,
				"y": 2.5967595596,
				"z": 1.664451387,
				"element": "O" 
			},
			{
				"x": 1.3249355467,
				"y": 0.1945124351,
				"z": -0.8334921425,
				"element": "C" 
			},
			{
				"x": 1.3076105678,
				"y": -0.2553319163,
				"z": -2.3047964474,
				"element": "C" 
			},
			{
				"x": 2.7059460295,
				"y": -0.1830519133,
				"z": -0.2628309353,
				"element": "C" 
			},
			{
				"x": -1.366074578,
				"y": -2.5109330703,
				"z": 4.9902850795,
				"element": "H" 
			},
			{
				"x": -1.1523504179,
				"y": -3.5383535444,
				"z": 3.5739092277,
				"element": "H" 
			},
			{
				"x": -0.1872553157,
				"y": -3.8499404349,
				"z": 5.0499834712,
				"element": "H" 
			},
			{
				"x": 1.1635518093,
				"y": 0.4261538275,
				"z": 3.2926804642,
				"element": "H" 
			},
			{
				"x": 1.8135969693,
				"y": -0.8248452166,
				"z": 2.2228949509,
				"element": "H" 
			},
			{
				"x": -0.7813723,
				"y": 0.6853817657,
				"z": 1.728698567,
				"element": "H" 
			},
			{
				"x": 0.0156498284,
				"y": -1.4101681389,
				"z": 0.0857942444,
				"element": "H" 
			},
			{
				"x": -1.9847655288,
				"y": 0.3897060187,
				"z": -0.103632547,
				"element": "H" 
			},
			{
				"x": -1.3762717938,
				"y": -0.2004049357,
				"z": -1.6415706993,
				"element": "H" 
			},
			{
				"x": -1.0764030979,
				"y": 2.56783761,
				"z": -0.5761145305,
				"element": "H" 
			},
			{
				"x": -0.5705358264,
				"y": 1.9728448316,
				"z": -2.1481994221,
				"element": "H" 
			},
			{
				"x": 2.8929044143,
				"y": 2.6827017462,
				"z": -0.8485875427,
				"element": "H" 
			},
			{
				"x": 1.8626170504,
				"y": 2.7473996874,
				"z": -2.2931194832,
				"element": "H" 
			},
			{
				"x": 1.5170933609,
				"y": 3.7784695815,
				"z": -0.8923859439,
				"element": "H" 
			},
			{
				"x": 2.1437675306,
				"y": 0.1926993663,
				"z": -2.8518700931,
				"element": "H" 
			},
			{
				"x": 0.391310598,
				"y": 0.0042558497,
				"z": -2.8376505298,
				"element": "H" 
			},
			{
				"x": 1.4266770432,
				"y": -1.3435208472,
				"z": -2.3645279541,
				"element": "H" 
			},
			{
				"x": 2.8162371609,
				"y": -1.271022843,
				"z": -0.195630191,
				"element": "H" 
			},
			{
				"x": 3.4985464541,
				"y": 0.1832744205,
				"z": -0.9235935966,
				"element": "H" 
			},
			{
				"x": 2.9066877712,
				"y": 0.2366443539,
				"z": 0.7259011584,
				"element": "H" 
			}
		],
		 "valence_orbital": [ 
			{
				"type": "occ",
				"energy": -0.31682,
				"method": "rhf"
			},
			{
				"type": "occ",
				"energy": -0.29879,
				"method": "rhf"
			},
			{
				"type": "occ",
				"energy": -0.29591,
				"method": "rhf"
			},
			{
				"type": "occ",
				"energy": -0.26977,
				"method": "rhf"
			},
			{
				"type": "occ",
				"energy": -0.23774,
				"method": "rhf"
			},
			{
				"type": "unocc",
				"energy": -0.01736,
				"method": "rhf"
			},
			{
				"type": "unocc",
				"energy": 0.01395,
				"method": "rhf"
			},
			{
				"type": "unocc",
				"energy": 0.06758,
				"method": "rhf"
			},
			{
				"type": "unocc",
				"energy": 0.09482,
				"method": "rhf"
			},
			{
				"type": "unocc",
				"energy": 0.09691,
				"method": "rhf"
			}
		],
		"cosmo_sigma_profile": { 
			"-0.025": 0.0,
			"-0.024": 0.0,
			"-0.023": 0.0,
			"-0.022": 0.0,
			"-0.021": 0.0,
			"-0.02": 0.0,
			"-0.019": 0.0,
			"-0.018": 0.0,
			"-0.017": 0.0,
			"-0.016": 0.0,
			"-0.015": 0.0,
			"-0.014": 0.0,
			"-0.013": 0.0,
			"-0.012": 0.0,
			"-0.011": 0.0,
			"-0.01": 0.0,
			"-0.009": 0.0,
			"-0.008": 0.0,
			"-0.007": 0.839986929279,
			"-0.006": 7.10241736222,
			"-0.005": 13.6505131181,
			"-0.004": 21.5504835601,
			"-0.003": 39.967452708,
			"-0.002": 46.2660374709,
			"-0.001": 35.7031577989,
			"0.0": 29.4595744378,
			"0.001": 22.9672856381,
			"0.002": 7.14050969167,
			"0.003": 5.95667685222,
			"0.004": 4.24506395466,
			"0.005": 4.94798439744,
			"0.006": 3.38802537769,
			"0.007": 2.9194265553,
			"0.008": 4.69861063645,
			"0.009": 3.16566805562,
			"0.01": 4.31854322187,
			"0.011": 6.2962544094,
			"0.012": 9.03204328859,
			"0.013": 2.13148561546,
			"0.014": 0.026764040285,
			"0.015": 0.0,
			"0.016": 0.0,
			"0.017": 0.0,
			"0.018": 0.0,
			"0.019": 0.0,
			"0.02": 0.0,
			"0.021": 0.0,
			"0.022": 0.0,
			"0.023": 0.0,
			"0.024": 0.0,
			"0.025": 0.0
		}
	}
}
