{
	 "smiles": "O1C(=NN=C1C1=CC=C(C=C1)C1=CC=CC=C1)C1=CC=CC=C1", 
	 "Tm": 443.15, 
	 "num_atms": 37, 
	 "gaussian": { 
		 "optdone": 1, 
		 "sigma_profile": "yes", 
		 "theory": "DFT", 
		 "functional": "B3LYP", 
		 "basiset": "6-31G**", 
		 "properties": { 
			 "R2extent": 13567.5612, 
			 "electric_dipole_moment_norm": 3.55800052417, 
			 "electric_quadrupole_moment_norm": 30.5537947365, 
			 "total_energy": -955.287635316, 
			 "HOMO_LUMO_gap": 0.155, 
			 "cosmo_polarized_energy": -12.54, 
			 "cosmo_cavitation_energy": 42.57, 
			 "cosmo_dispersion_energy": -31.03, 
			 "cosmo_repulsion_energy": 2.29, 
			 "cosmo_total_nonelectrostatic_energy": 13.83, 
			 "SMD_solvation_energy": 5.28 
		},
		"coords": [
			{
				"x": 2.0105584808,
				"y": -1.9230209799,
				"z": -0.0504582884,
				"element": "O" 
			},
			{
				"x": 2.8263250315,
				"y": -3.0159155336,
				"z": -0.1500881181,
				"element": "C" 
			},
			{
				"x": 2.236955466,
				"y": -4.0049177768,
				"z": -0.7602634068,
				"element": "N" 
			},
			{
				"x": 0.9639073054,
				"y": -3.5695099391,
				"z": -1.0920243472,
				"element": "N" 
			},
			{
				"x": 0.8618011364,
				"y": -2.3431429069,
				"z": -0.6621582984,
				"element": "C" 
			},
			{
				"x": -0.2743400803,
				"y": -1.4391737749,
				"z": -0.7612317576,
				"element": "C" 
			},
			{
				"x": -0.2238204509,
				"y": -0.1380227299,
				"z": -0.2384698013,
				"element": "C" 
			},
			{
				"x": -1.3257982306,
				"y": 0.7031040095,
				"z": -0.3473768215,
				"element": "C" 
			},
			{
				"x": -2.5078405815,
				"y": 0.2784535904,
				"z": -0.9789439368,
				"element": "C" 
			},
			{
				"x": -2.5436649731,
				"y": -1.0291528596,
				"z": -1.4993791134,
				"element": "C" 
			},
			{
				"x": -1.4495663371,
				"y": -1.8772912453,
				"z": -1.3945450022,
				"element": "C" 
			},
			{
				"x": -3.6807934333,
				"y": 1.1798389002,
				"z": -1.0930054225,
				"element": "C" 
			},
			{
				"x": -3.513909632,
				"y": 2.556105155,
				"z": -1.3258985405,
				"element": "C" 
			},
			{
				"x": -4.6160566754,
				"y": 3.4028015865,
				"z": -1.4326040292,
				"element": "C" 
			},
			{
				"x": -5.9096555391,
				"y": 2.8922413571,
				"z": -1.3086924853,
				"element": "C" 
			},
			{
				"x": -6.0912203936,
				"y": 1.52733569,
				"z": -1.0773861204,
				"element": "C" 
			},
			{
				"x": -4.9891895695,
				"y": 0.6804443783,
				"z": -0.9709003513,
				"element": "C" 
			},
			{
				"x": 4.1750578443,
				"y": -2.9624597581,
				"z": 0.3991181015,
				"element": "C" 
			},
			{
				"x": 5.0022237918,
				"y": -4.0932217122,
				"z": 0.2888559687,
				"element": "C" 
			},
			{
				"x": 6.2930559275,
				"y": -4.061497165,
				"z": 0.8069007466,
				"element": "C" 
			},
			{
				"x": 6.7716440097,
				"y": -2.9088054303,
				"z": 1.4373010292,
				"element": "C" 
			},
			{
				"x": 5.9514075826,
				"y": -1.784187654,
				"z": 1.5479613658,
				"element": "C" 
			},
			{
				"x": 4.657001493,
				"y": -1.8063109293,
				"z": 1.0322121129,
				"element": "C" 
			},
			{
				"x": 0.6753975017,
				"y": 0.2071637968,
				"z": 0.2606433047,
				"element": "H" 
			},
			{
				"x": -1.2798733022,
				"y": 1.6969124148,
				"z": 0.0869543625,
				"element": "H" 
			},
			{
				"x": -3.4342931969,
				"y": -1.3734810406,
				"z": -2.0157176652,
				"element": "H" 
			},
			{
				"x": -1.4829716493,
				"y": -2.8804218965,
				"z": -1.8059998555,
				"element": "H" 
			},
			{
				"x": -2.5133998274,
				"y": 2.9592550279,
				"z": -1.4517723766,
				"element": "H" 
			},
			{
				"x": -4.4642720791,
				"y": 4.4616980008,
				"z": -1.6218193626,
				"element": "H" 
			},
			{
				"x": -6.7684092142,
				"y": 3.55192189,
				"z": -1.3919693624,
				"element": "H" 
			},
			{
				"x": -7.0932475687,
				"y": 1.121509726,
				"z": -0.9710646314,
				"element": "H" 
			},
			{
				"x": -5.1413318735,
				"y": -0.3747050278,
				"z": -0.7639870442,
				"element": "H" 
			},
			{
				"x": 4.6171347286,
				"y": -4.9800949707,
				"z": -0.2028121181,
				"element": "H" 
			},
			{
				"x": 6.9287686798,
				"y": -4.9375395076,
				"z": 0.719443342,
				"element": "H" 
			},
			{
				"x": 7.7799322047,
				"y": -2.8881194646,
				"z": 1.8403723645,
				"element": "H" 
			},
			{
				"x": 6.3197346085,
				"y": -0.8872464506,
				"z": 2.0369530971,
				"element": "H" 
			},
			{
				"x": 4.0181488153,
				"y": -0.93374677,
				"z": 1.1171524617,
				"element": "H" 
			}
		],
		 "valence_orbital": [ 
			{
				"type": "occ",
				"energy": -0.26303,
				"method": "rhf"
			},
			{
				"type": "occ",
				"energy": -0.26213,
				"method": "rhf"
			},
			{
				"type": "occ",
				"energy": -0.2561,
				"method": "rhf"
			},
			{
				"type": "occ",
				"energy": -0.24756,
				"method": "rhf"
			},
			{
				"type": "occ",
				"energy": -0.21847,
				"method": "rhf"
			},
			{
				"type": "unocc",
				"energy": -0.06347,
				"method": "rhf"
			},
			{
				"type": "unocc",
				"energy": -0.037,
				"method": "rhf"
			},
			{
				"type": "unocc",
				"energy": -0.01314,
				"method": "rhf"
			},
			{
				"type": "unocc",
				"energy": -0.01122,
				"method": "rhf"
			},
			{
				"type": "unocc",
				"energy": -0.00653,
				"method": "rhf"
			}
		],
		"cosmo_sigma_profile": { 
			"-0.025": 0.0,
			"-0.024": 0.0,
			"-0.023": 0.0,
			"-0.022": 0.0,
			"-0.021": 0.0,
			"-0.02": 0.0,
			"-0.019": 0.0,
			"-0.018": 0.0,
			"-0.017": 0.0,
			"-0.016": 0.0,
			"-0.015": 0.0,
			"-0.014": 0.0,
			"-0.013": 0.0,
			"-0.012": 0.0,
			"-0.011": 0.0,
			"-0.01": 0.0,
			"-0.009": 0.0,
			"-0.008": 0.0,
			"-0.007": 3.56468860327,
			"-0.006": 23.310168097,
			"-0.005": 31.1584239692,
			"-0.004": 28.8282472909,
			"-0.003": 25.6414404192,
			"-0.002": 26.0048880829,
			"-0.001": 25.1908222138,
			"0.0": 24.8558364774,
			"0.001": 28.5362841433,
			"0.002": 30.9634005519,
			"0.003": 33.1937735166,
			"0.004": 25.7108816759,
			"0.005": 13.1722636514,
			"0.006": 5.15232473245,
			"0.007": 1.4416545435,
			"0.008": 1.98423715898,
			"0.009": 2.28860857535,
			"0.01": 2.61635625399,
			"0.011": 3.16810538225,
			"0.012": 2.64871234201,
			"0.013": 2.64100637177,
			"0.014": 1.65606700937,
			"0.015": 0.17969411671,
			"0.016": 0.0,
			"0.017": 0.0,
			"0.018": 0.0,
			"0.019": 0.0,
			"0.02": 0.0,
			"0.021": 0.0,
			"0.022": 0.0,
			"0.023": 0.0,
			"0.024": 0.0,
			"0.025": 0.0
		}
	}
}
