{
	 "smiles": "CCC1=NC2=C(C=CC=C2)N1CC(=O)NN", 
	 "Tm": 485.15, 
	 "num_atms": 30, 
	 "gaussian": { 
		 "optdone": 1, 
		 "sigma_profile": "yes", 
		 "theory": "DFT", 
		 "functional": "B3LYP", 
		 "basiset": "6-31G**", 
		 "properties": { 
			 "R2extent": 3755.6297, 
			 "electric_dipole_moment_norm": 0.92457459407, 
			 "electric_quadrupole_moment_norm": 13.779545036, 
			 "total_energy": -721.839113559, 
			 "HOMO_LUMO_gap": 0.20538, 
			 "cosmo_polarized_energy": -17.91, 
			 "cosmo_cavitation_energy": 33.39, 
			 "cosmo_dispersion_energy": -23.05, 
			 "cosmo_repulsion_energy": 1.81, 
			 "cosmo_total_nonelectrostatic_energy": 12.16, 
			 "SMD_solvation_energy": 4.64 
		},
		"coords": [
			{
				"x": -1.3440111403,
				"y": -2.9389201886,
				"z": 0.0889812969,
				"element": "C" 
			},
			{
				"x": -2.0808000288,
				"y": -1.7403735713,
				"z": 0.716999281,
				"element": "C" 
			},
			{
				"x": -1.15910917,
				"y": -0.6855186404,
				"z": 1.2513976694,
				"element": "C" 
			},
			{
				"x": -0.8111636043,
				"y": -0.590277188,
				"z": 2.5125115647,
				"element": "N" 
			},
			{
				"x": 0.0628339877,
				"y": 0.4846654515,
				"z": 2.5793328499,
				"element": "C" 
			},
			{
				"x": 0.2397006819,
				"y": 1.0518663717,
				"z": 1.2966570233,
				"element": "C" 
			},
			{
				"x": 1.0637391039,
				"y": 2.1565236595,
				"z": 1.0686909172,
				"element": "C" 
			},
			{
				"x": 1.7161272748,
				"y": 2.6895821401,
				"z": 2.1794087907,
				"element": "C" 
			},
			{
				"x": 1.5522398134,
				"y": 2.1367052411,
				"z": 3.4647260321,
				"element": "C" 
			},
			{
				"x": 0.7296364455,
				"y": 1.0347324441,
				"z": 3.6807416243,
				"element": "C" 
			},
			{
				"x": -0.549475045,
				"y": 0.2792435589,
				"z": 0.4474801208,
				"element": "N" 
			},
			{
				"x": -0.7391169497,
				"y": 0.5236084021,
				"z": -0.9691446309,
				"element": "C" 
			},
			{
				"x": 0.3687741925,
				"y": 0.0397284331,
				"z": -1.9177724496,
				"element": "C" 
			},
			{
				"x": 0.2902462354,
				"y": 0.2667124437,
				"z": -3.1180066253,
				"element": "O" 
			},
			{
				"x": 1.4018327061,
				"y": -0.6461230727,
				"z": -1.3551303785,
				"element": "N" 
			},
			{
				"x": 2.5275040197,
				"y": -1.0169492687,
				"z": -2.1206680331,
				"element": "N" 
			},
			{
				"x": -0.6937294794,
				"y": -3.4147594278,
				"z": 0.8286582237,
				"element": "H" 
			},
			{
				"x": -2.0612239104,
				"y": -3.6848416161,
				"z": -0.266526453,
				"element": "H" 
			},
			{
				"x": -0.7222321003,
				"y": -2.6354519683,
				"z": -0.7587869222,
				"element": "H" 
			},
			{
				"x": -2.6786681461,
				"y": -2.0802595305,
				"z": 1.5662671376,
				"element": "H" 
			},
			{
				"x": -2.7789085924,
				"y": -1.3081382554,
				"z": -0.0105945594,
				"element": "H" 
			},
			{
				"x": 1.1986924639,
				"y": 2.5848068141,
				"z": 0.0799679617,
				"element": "H" 
			},
			{
				"x": 2.3671167159,
				"y": 3.548836164,
				"z": 2.0489995952,
				"element": "H" 
			},
			{
				"x": 2.0814084602,
				"y": 2.5822225188,
				"z": 4.3018244057,
				"element": "H" 
			},
			{
				"x": 0.5980552179,
				"y": 0.6051205855,
				"z": 4.6685370776,
				"element": "H" 
			},
			{
				"x": -0.8573189012,
				"y": 1.5981149585,
				"z": -1.1434290145,
				"element": "H" 
			},
			{
				"x": -1.6658039268,
				"y": 0.0509180618,
				"z": -1.3012090298,
				"element": "H" 
			},
			{
				"x": 1.5438669214,
				"y": -0.6410359416,
				"z": -0.3553329047,
				"element": "H" 
			},
			{
				"x": 2.6781606214,
				"y": -0.2716670633,
				"z": -2.8018209646,
				"element": "H" 
			},
			{
				"x": 2.2662261333,
				"y": -1.8342715159,
				"z": -2.6715596061,
				"element": "H" 
			}
		],
		 "valence_orbital": [ 
			{
				"type": "occ",
				"energy": -0.27305,
				"method": "rhf"
			},
			{
				"type": "occ",
				"energy": -0.26846,
				"method": "rhf"
			},
			{
				"type": "occ",
				"energy": -0.26354,
				"method": "rhf"
			},
			{
				"type": "occ",
				"energy": -0.22907,
				"method": "rhf"
			},
			{
				"type": "occ",
				"energy": -0.22502,
				"method": "rhf"
			},
			{
				"type": "unocc",
				"energy": -0.01964,
				"method": "rhf"
			},
			{
				"type": "unocc",
				"energy": 0.00917,
				"method": "rhf"
			},
			{
				"type": "unocc",
				"energy": 0.01526,
				"method": "rhf"
			},
			{
				"type": "unocc",
				"energy": 0.04787,
				"method": "rhf"
			},
			{
				"type": "unocc",
				"energy": 0.06735,
				"method": "rhf"
			}
		],
		"cosmo_sigma_profile": { 
			"-0.025": 0.0,
			"-0.024": 0.0,
			"-0.023": 0.0,
			"-0.022": 0.0,
			"-0.021": 0.0,
			"-0.02": 0.0,
			"-0.019": 0.0,
			"-0.018": 0.0,
			"-0.017": 0.0,
			"-0.016": 0.0,
			"-0.015": 0.0,
			"-0.014": 0.0,
			"-0.013": 0.0474304624499,
			"-0.012": 1.49514648426,
			"-0.011": 2.39598042327,
			"-0.01": 3.60913371314,
			"-0.009": 5.74558235064,
			"-0.008": 7.64884778922,
			"-0.007": 11.0820555949,
			"-0.006": 11.7244212804,
			"-0.005": 15.4810110192,
			"-0.004": 21.0101915327,
			"-0.003": 22.0138500225,
			"-0.002": 22.4987917663,
			"-0.001": 19.4099418464,
			"0.0": 18.103477386,
			"0.001": 14.424136943,
			"0.002": 9.15028440082,
			"0.003": 8.52149199426,
			"0.004": 12.7759910556,
			"0.005": 11.4416702152,
			"0.006": 10.1551041426,
			"0.007": 4.24491728685,
			"0.008": 3.36020127862,
			"0.009": 3.31089898364,
			"0.01": 2.9469626321,
			"0.011": 2.04395665785,
			"0.012": 4.38994516705,
			"0.013": 6.9474300104,
			"0.014": 3.69381656209,
			"0.015": 1.84192120862,
			"0.016": 1.26585272254,
			"0.017": 0.860826442933,
			"0.018": 0.531877870127,
			"0.019": 0.0045565684495,
			"0.02": 0.0,
			"0.021": 0.0,
			"0.022": 0.0,
			"0.023": 0.0,
			"0.024": 0.0,
			"0.025": 0.0
		}
	}
}
