{
	 "smiles": "CCCCCCCCCCCCCC1CCCCC1", 
	 "Tm": 291.65, 
	 "num_atms": 57, 
	 "gaussian": { 
		 "optdone": 1, 
		 "sigma_profile": "yes", 
		 "theory": "DFT", 
		 "functional": "B3LYP", 
		 "basiset": "6-31G**", 
		 "properties": { 
			 "R2extent": 14135.7549, 
			 "electric_dipole_moment_norm": 0.061008933772, 
			 "electric_quadrupole_moment_norm": 0.932493372631, 
			 "total_energy": -746.9792743, 
			 "HOMO_LUMO_gap": 0.36058, 
			 "cosmo_polarized_energy": -1.12, 
			 "cosmo_cavitation_energy": 53.36, 
			 "cosmo_dispersion_energy": -36.61, 
			 "cosmo_repulsion_energy": 2.96, 
			 "cosmo_total_nonelectrostatic_energy": 19.7, 
			 "SMD_solvation_energy": 6.37 
		},
		"coords": [
			{
				"x": -6.254451369,
				"y": -4.4880065513,
				"z": -1.0258123084,
				"element": "C" 
			},
			{
				"x": -5.3562398915,
				"y": -3.8287804405,
				"z": -2.0774044565,
				"element": "C" 
			},
			{
				"x": -5.3164821552,
				"y": -2.2991967864,
				"z": -1.9680420445,
				"element": "C" 
			},
			{
				"x": -4.4189655667,
				"y": -1.6302523483,
				"z": -3.0172142833,
				"element": "C" 
			},
			{
				"x": -4.3923695667,
				"y": -0.0998473047,
				"z": -2.9057060216,
				"element": "C" 
			},
			{
				"x": -3.5687220811,
				"y": 0.6116115469,
				"z": -3.9930462325,
				"element": "C" 
			},
			{
				"x": -2.0534488096,
				"y": 0.3317067333,
				"z": -4.0398843277,
				"element": "C" 
			},
			{
				"x": -1.2322846994,
				"y": 0.819585046,
				"z": -2.8259564426,
				"element": "C" 
			},
			{
				"x": -1.0725691654,
				"y": -0.1914022618,
				"z": -1.679612702,
				"element": "C" 
			},
			{
				"x": -0.2131083808,
				"y": 0.33806073,
				"z": -0.5238054392,
				"element": "C" 
			},
			{
				"x": -0.0334992101,
				"y": -0.6778965496,
				"z": 0.6134018696,
				"element": "C" 
			},
			{
				"x": 0.7620658068,
				"y": -0.159854347,
				"z": 1.8238323016,
				"element": "C" 
			},
			{
				"x": 2.2470036604,
				"y": 0.1135199957,
				"z": 1.5425812356,
				"element": "C" 
			},
			{
				"x": 3.0577278448,
				"y": 0.5806736239,
				"z": 2.7678597464,
				"element": "C" 
			},
			{
				"x": 4.5766583834,
				"y": 0.4194338402,
				"z": 2.5065191318,
				"element": "C" 
			},
			{
				"x": 5.4125131781,
				"y": 1.2986145143,
				"z": 3.4452012689,
				"element": "C" 
			},
			{
				"x": 5.1514435145,
				"y": 2.8015188632,
				"z": 3.1784251399,
				"element": "C" 
			},
			{
				"x": 3.7305483542,
				"y": 3.0495265169,
				"z": 2.6218036661,
				"element": "C" 
			},
			{
				"x": 2.7241978092,
				"y": 2.0409595068,
				"z": 3.1940308016,
				"element": "C" 
			},
			{
				"x": -6.2619593963,
				"y": -5.5780131423,
				"z": -1.13046414,
				"element": "H" 
			},
			{
				"x": -5.9135923622,
				"y": -4.2540253145,
				"z": -0.0106481279,
				"element": "H" 
			},
			{
				"x": -7.2896828809,
				"y": -4.1386322417,
				"z": -1.1136392594,
				"element": "H" 
			},
			{
				"x": -5.7011198787,
				"y": -4.1102008332,
				"z": -3.0818341806,
				"element": "H" 
			},
			{
				"x": -4.3353187299,
				"y": -4.22435902,
				"z": -1.9867184161,
				"element": "H" 
			},
			{
				"x": -4.9719173525,
				"y": -2.017821169,
				"z": -0.9622578646,
				"element": "H" 
			},
			{
				"x": -6.3384878923,
				"y": -1.9032344321,
				"z": -2.0574942691,
				"element": "H" 
			},
			{
				"x": -3.4011815912,
				"y": -2.031448278,
				"z": -2.9239648914,
				"element": "H" 
			},
			{
				"x": -4.7641513374,
				"y": -1.9117203596,
				"z": -4.022825221,
				"element": "H" 
			},
			{
				"x": -4.0310556195,
				"y": 0.1894025074,
				"z": -1.9101271856,
				"element": "H" 
			},
			{
				"x": -5.4246362082,
				"y": 0.2726048031,
				"z": -2.9633198458,
				"element": "H" 
			},
			{
				"x": -3.7124010765,
				"y": 1.6955645487,
				"z": -3.8844858734,
				"element": "H" 
			},
			{
				"x": -3.9938539772,
				"y": 0.35062297,
				"z": -4.972471693,
				"element": "H" 
			},
			{
				"x": -1.8699595147,
				"y": -0.7395114695,
				"z": -4.19790338,
				"element": "H" 
			},
			{
				"x": -1.6681934121,
				"y": 0.828823234,
				"z": -4.9391485112,
				"element": "H" 
			},
			{
				"x": -1.6740128323,
				"y": 1.7485369673,
				"z": -2.4370219235,
				"element": "H" 
			},
			{
				"x": -0.2258847276,
				"y": 1.0935085181,
				"z": -3.1703176241,
				"element": "H" 
			},
			{
				"x": -0.6171002996,
				"y": -1.1100774628,
				"z": -2.0767986566,
				"element": "H" 
			},
			{
				"x": -2.0545031914,
				"y": -0.4864997393,
				"z": -1.289511377,
				"element": "H" 
			},
			{
				"x": -0.6716111847,
				"y": 1.2528389437,
				"z": -0.1204051938,
				"element": "H" 
			},
			{
				"x": 0.7669398949,
				"y": 0.6389987002,
				"z": -0.9172427904,
				"element": "H" 
			},
			{
				"x": 0.4541575611,
				"y": -1.5811207058,
				"z": 0.2188564773,
				"element": "H" 
			},
			{
				"x": -1.0266881771,
				"y": -0.9979721461,
				"z": 0.9571472305,
				"element": "H" 
			},
			{
				"x": 0.27648127,
				"y": 0.7484976148,
				"z": 2.2059582449,
				"element": "H" 
			},
			{
				"x": 0.693450952,
				"y": -0.900256578,
				"z": 2.6327049195,
				"element": "H" 
			},
			{
				"x": 2.7002501668,
				"y": -0.8086920239,
				"z": 1.1507258519,
				"element": "H" 
			},
			{
				"x": 2.3519444775,
				"y": 0.8617654951,
				"z": 0.7445492351,
				"element": "H" 
			},
			{
				"x": 2.7962439698,
				"y": -0.0796922957,
				"z": 3.6074326887,
				"element": "H" 
			},
			{
				"x": 4.8556389953,
				"y": -0.6360886374,
				"z": 2.608381088,
				"element": "H" 
			},
			{
				"x": 4.8011790182,
				"y": 0.6926622417,
				"z": 1.465493493,
				"element": "H" 
			},
			{
				"x": 5.1518000639,
				"y": 1.052312812,
				"z": 4.483055428,
				"element": "H" 
			},
			{
				"x": 6.4798462344,
				"y": 1.0738404561,
				"z": 3.3393938104,
				"element": "H" 
			},
			{
				"x": 5.292025435,
				"y": 3.3673427447,
				"z": 4.1073332347,
				"element": "H" 
			},
			{
				"x": 5.8918567998,
				"y": 3.1899421865,
				"z": 2.4687295663,
				"element": "H" 
			},
			{
				"x": 3.7398988418,
				"y": 2.9631920706,
				"z": 1.5274446229,
				"element": "H" 
			},
			{
				"x": 3.4120875568,
				"y": 4.0753856031,
				"z": 2.839441668,
				"element": "H" 
			},
			{
				"x": 1.7066913627,
				"y": 2.3038510914,
				"z": 2.8836133959,
				"element": "H" 
			},
			{
				"x": 2.7327013863,
				"y": 2.1183980126,
				"z": 4.2889685662,
				"element": "H" 
			}
		],
		 "valence_orbital": [ 
			{
				"type": "occ",
				"energy": -0.29836,
				"method": "rhf"
			},
			{
				"type": "occ",
				"energy": -0.2945,
				"method": "rhf"
			},
			{
				"type": "occ",
				"energy": -0.28923,
				"method": "rhf"
			},
			{
				"type": "occ",
				"energy": -0.28833,
				"method": "rhf"
			},
			{
				"type": "occ",
				"energy": -0.28173,
				"method": "rhf"
			},
			{
				"type": "unocc",
				"energy": 0.07885,
				"method": "rhf"
			},
			{
				"type": "unocc",
				"energy": 0.08007,
				"method": "rhf"
			},
			{
				"type": "unocc",
				"energy": 0.09599,
				"method": "rhf"
			},
			{
				"type": "unocc",
				"energy": 0.09848,
				"method": "rhf"
			},
			{
				"type": "unocc",
				"energy": 0.10102,
				"method": "rhf"
			}
		],
		"cosmo_sigma_profile": { 
			"-0.025": 0.0,
			"-0.024": 0.0,
			"-0.023": 0.0,
			"-0.022": 0.0,
			"-0.021": 0.0,
			"-0.02": 0.0,
			"-0.019": 0.0,
			"-0.018": 0.0,
			"-0.017": 0.0,
			"-0.016": 0.0,
			"-0.015": 0.0,
			"-0.014": 0.0,
			"-0.013": 0.0,
			"-0.012": 0.0,
			"-0.011": 0.0,
			"-0.01": 0.0,
			"-0.009": 0.0,
			"-0.008": 0.0,
			"-0.007": 0.0,
			"-0.006": 0.0,
			"-0.005": 0.0,
			"-0.004": 0.0,
			"-0.003": 1.99558803262,
			"-0.002": 39.2176553506,
			"-0.001": 104.736532584,
			"0.0": 118.350894915,
			"0.001": 92.8176351685,
			"0.002": 47.6899733537,
			"0.003": 1.22615813495,
			"0.004": 0.0,
			"0.005": 0.0,
			"0.006": 0.0,
			"0.007": 0.0,
			"0.008": 0.0,
			"0.009": 0.0,
			"0.01": 0.0,
			"0.011": 0.0,
			"0.012": 0.0,
			"0.013": 0.0,
			"0.014": 0.0,
			"0.015": 0.0,
			"0.016": 0.0,
			"0.017": 0.0,
			"0.018": 0.0,
			"0.019": 0.0,
			"0.02": 0.0,
			"0.021": 0.0,
			"0.022": 0.0,
			"0.023": 0.0,
			"0.024": 0.0,
			"0.025": 0.0
		}
	}
}
