{
	 "smiles": "CC1(CCS(=O)(=O)C1)N1C=C(C=O)C=N1", 
	 "Tm": 358.15, 
	 "num_atms": 27, 
	 "gaussian": { 
		 "optdone": 1, 
		 "sigma_profile": "yes", 
		 "theory": "DFT", 
		 "functional": "B3LYP", 
		 "basiset": "6-31G**", 
		 "properties": { 
			 "R2extent": 4538.0737, 
			 "electric_dipole_moment_norm": 4.43514994222, 
			 "electric_quadrupole_moment_norm": 14.5115731284, 
			 "total_energy": -1083.45811748, 
			 "HOMO_LUMO_gap": 0.20381, 
			 "cosmo_polarized_energy": -22.19, 
			 "cosmo_cavitation_energy": 31.46, 
			 "cosmo_dispersion_energy": -22.75, 
			 "cosmo_repulsion_energy": 1.7, 
			 "cosmo_total_nonelectrostatic_energy": 10.41, 
			 "SMD_solvation_energy": 5.22 
		},
		"coords": [
			{
				"x": -2.0226560281,
				"y": 0.974286087,
				"z": 0.0677523491,
				"element": "C" 
			},
			{
				"x": -0.5100144755,
				"y": 1.2562296224,
				"z": 0.1080084002,
				"element": "C" 
			},
			{
				"x": -0.2019152447,
				"y": 2.7529935053,
				"z": 0.4060798853,
				"element": "C" 
			},
			{
				"x": -0.5223901707,
				"y": 3.5725806658,
				"z": -0.8480618791,
				"element": "C" 
			},
			{
				"x": -0.1331549171,
				"y": 2.4735533644,
				"z": -2.2701161734,
				"element": "S" 
			},
			{
				"x": -1.3471693735,
				"y": 2.2761592857,
				"z": -3.0775020807,
				"element": "O" 
			},
			{
				"x": 1.13305902,
				"y": 2.8760777198,
				"z": -2.8974094112,
				"element": "O" 
			},
			{
				"x": 0.1598915507,
				"y": 0.9697845102,
				"z": -1.2477912803,
				"element": "C" 
			},
			{
				"x": 0.0955470137,
				"y": 0.4254510238,
				"z": 1.1654293714,
				"element": "N" 
			},
			{
				"x": 0.7525650289,
				"y": -0.7501158648,
				"z": 1.060466776,
				"element": "C" 
			},
			{
				"x": 1.0190686385,
				"y": -1.1818303747,
				"z": 2.3569317549,
				"element": "C" 
			},
			{
				"x": 1.7242717362,
				"y": -2.4015627874,
				"z": 2.7422864057,
				"element": "C" 
			},
			{
				"x": 2.1776419705,
				"y": -3.2112248543,
				"z": 1.9512816507,
				"element": "O" 
			},
			{
				"x": 0.4548579048,
				"y": -0.1734924355,
				"z": 3.1795872893,
				"element": "C" 
			},
			{
				"x": -0.1075534812,
				"y": 0.7912585561,
				"z": 2.4635335616,
				"element": "N" 
			},
			{
				"x": -2.5098439008,
				"y": 1.5381341728,
				"z": -0.731496687,
				"element": "H" 
			},
			{
				"x": -2.2006016686,
				"y": -0.0889841672,
				"z": -0.1179628498,
				"element": "H" 
			},
			{
				"x": -2.4738428157,
				"y": 1.2385906025,
				"z": 1.0269358985,
				"element": "H" 
			},
			{
				"x": 0.8601110563,
				"y": 2.8441994309,
				"z": 0.6533647257,
				"element": "H" 
			},
			{
				"x": -0.7694644956,
				"y": 3.0965451823,
				"z": 1.2720693308,
				"element": "H" 
			},
			{
				"x": -1.5783563444,
				"y": 3.8328147671,
				"z": -0.9400299465,
				"element": "H" 
			},
			{
				"x": 0.0895535366,
				"y": 4.4695415167,
				"z": -0.9522297048,
				"element": "H" 
			},
			{
				"x": -0.2560531305,
				"y": 0.1202668618,
				"z": -1.7921007342,
				"element": "H" 
			},
			{
				"x": 1.2435435774,
				"y": 0.8721867841,
				"z": -1.1538288325,
				"element": "H" 
			},
			{
				"x": 0.9942078017,
				"y": -1.2144982656,
				"z": 0.1170034663,
				"element": "H" 
			},
			{
				"x": 1.8254092512,
				"y": -2.5541090603,
				"z": 3.8389047706,
				"element": "H" 
			},
			{
				"x": 0.4433879599,
				"y": -0.1171358489,
				"z": 4.2605939432,
				"element": "H" 
			}
		],
		 "valence_orbital": [ 
			{
				"type": "occ",
				"energy": -0.3074,
				"method": "rhf"
			},
			{
				"type": "occ",
				"energy": -0.29592,
				"method": "rhf"
			},
			{
				"type": "occ",
				"energy": -0.28457,
				"method": "rhf"
			},
			{
				"type": "occ",
				"energy": -0.26925,
				"method": "rhf"
			},
			{
				"type": "occ",
				"energy": -0.25732,
				"method": "rhf"
			},
			{
				"type": "unocc",
				"energy": -0.05351,
				"method": "rhf"
			},
			{
				"type": "unocc",
				"energy": -0.00609,
				"method": "rhf"
			},
			{
				"type": "unocc",
				"energy": 0.03755,
				"method": "rhf"
			},
			{
				"type": "unocc",
				"energy": 0.04284,
				"method": "rhf"
			},
			{
				"type": "unocc",
				"energy": 0.05114,
				"method": "rhf"
			}
		],
		"cosmo_sigma_profile": { 
			"-0.025": 0.0,
			"-0.024": 0.0,
			"-0.023": 0.0,
			"-0.022": 0.0,
			"-0.021": 0.0,
			"-0.02": 0.0,
			"-0.019": 0.0,
			"-0.018": 0.0,
			"-0.017": 0.0,
			"-0.016": 0.0,
			"-0.015": 0.0,
			"-0.014": 0.0,
			"-0.013": 0.0,
			"-0.012": 0.0,
			"-0.011": 0.947953565616,
			"-0.01": 3.7063103873,
			"-0.009": 9.03729290845,
			"-0.008": 12.4432776904,
			"-0.007": 16.7199369558,
			"-0.006": 19.0993466838,
			"-0.005": 17.5713303378,
			"-0.004": 16.4904383307,
			"-0.003": 13.8378412179,
			"-0.002": 14.753851572,
			"-0.001": 14.4424694991,
			"0.0": 10.5620496551,
			"0.001": 12.444735752,
			"0.002": 9.94911840214,
			"0.003": 6.16121619478,
			"0.004": 5.28710452446,
			"0.005": 4.89547798752,
			"0.006": 5.12427489397,
			"0.007": 5.42870295772,
			"0.008": 5.05841916193,
			"0.009": 6.6823771511,
			"0.01": 8.04834315702,
			"0.011": 14.9046105684,
			"0.012": 12.757830212,
			"0.013": 2.41364254532,
			"0.014": 0.293685183763,
			"0.015": 0.0,
			"0.016": 0.0,
			"0.017": 0.0,
			"0.018": 0.0,
			"0.019": 0.0,
			"0.02": 0.0,
			"0.021": 0.0,
			"0.022": 0.0,
			"0.023": 0.0,
			"0.024": 0.0,
			"0.025": 0.0
		}
	}
}
