{
	 "smiles": "COC1=C(C=CC(N)=C1)S(=O)(=O)NC1=CC(Cl)=C(F)C=C1", 
	 "Tm": 439.15, 
	 "num_atms": 33, 
	 "gaussian": { 
		 "optdone": 1, 
		 "sigma_profile": "yes", 
		 "theory": "DFT", 
		 "functional": "B3LYP", 
		 "basiset": "6-31G**", 
		 "properties": { 
			 "R2extent": 8111.3786, 
			 "electric_dipole_moment_norm": 8.62535572136, 
			 "electric_quadrupole_moment_norm": 21.2288695712, 
			 "total_energy": -1795.92220514, 
			 "HOMO_LUMO_gap": 0.19906, 
			 "cosmo_polarized_energy": -21.05, 
			 "cosmo_cavitation_energy": 40.89, 
			 "cosmo_dispersion_energy": -28.51, 
			 "cosmo_repulsion_energy": 2.15, 
			 "cosmo_total_nonelectrostatic_energy": 14.52, 
			 "SMD_solvation_energy": 6.87 
		},
		"coords": [
			{
				"x": -0.9452800226,
				"y": -3.3326791632,
				"z": 1.4304609683,
				"element": "C" 
			},
			{
				"x": -0.1527527181,
				"y": -2.1911467417,
				"z": 1.0564087023,
				"element": "O" 
			},
			{
				"x": -0.5188911406,
				"y": -1.5789610465,
				"z": -0.1231835869,
				"element": "C" 
			},
			{
				"x": -1.1776588274,
				"y": -0.3391847252,
				"z": -0.0839719249,
				"element": "C" 
			},
			{
				"x": -1.4710812556,
				"y": 0.3246812419,
				"z": -1.2789323662,
				"element": "C" 
			},
			{
				"x": -1.1352206591,
				"y": -0.2426716457,
				"z": -2.4993962268,
				"element": "C" 
			},
			{
				"x": -0.4822169761,
				"y": -1.4911816644,
				"z": -2.5505851576,
				"element": "C" 
			},
			{
				"x": -0.0941661789,
				"y": -2.0338599778,
				"z": -3.7611197849,
				"element": "N" 
			},
			{
				"x": -0.172699758,
				"y": -2.1472991058,
				"z": -1.3436079331,
				"element": "C" 
			},
			{
				"x": -1.6783303216,
				"y": 0.3728983077,
				"z": 1.473177264,
				"element": "S" 
			},
			{
				"x": -2.4912454105,
				"y": -0.5979985576,
				"z": 2.2086728171,
				"element": "O" 
			},
			{
				"x": -2.1673307727,
				"y": 1.7248535972,
				"z": 1.2001011117,
				"element": "O" 
			},
			{
				"x": -0.2544122919,
				"y": 0.5177390755,
				"z": 2.4012503323,
				"element": "N" 
			},
			{
				"x": 0.8202048912,
				"y": 1.3432152455,
				"z": 1.9655169988,
				"element": "C" 
			},
			{
				"x": 0.6367607702,
				"y": 2.7275389796,
				"z": 1.8463558352,
				"element": "C" 
			},
			{
				"x": 1.7053403769,
				"y": 3.5309319426,
				"z": 1.4583751337,
				"element": "C" 
			},
			{
				"x": 1.4988231138,
				"y": 5.2567905173,
				"z": 1.2923161322,
				"element": "Cl" 
			},
			{
				"x": 2.9593604758,
				"y": 2.9633345528,
				"z": 1.2200528149,
				"element": "C" 
			},
			{
				"x": 3.9918064967,
				"y": 3.7434998251,
				"z": 0.861792216,
				"element": "F" 
			},
			{
				"x": 3.1500483203,
				"y": 1.5939441527,
				"z": 1.3514408276,
				"element": "C" 
			},
			{
				"x": 2.0774102931,
				"y": 0.780264971,
				"z": 1.7095038206,
				"element": "C" 
			},
			{
				"x": -1.9695840865,
				"y": -3.0225725155,
				"z": 1.6547344387,
				"element": "H" 
			},
			{
				"x": -0.939899917,
				"y": -4.0888012716,
				"z": 0.6374933386,
				"element": "H" 
			},
			{
				"x": -0.4784076203,
				"y": -3.7447496992,
				"z": 2.3265396075,
				"element": "H" 
			},
			{
				"x": -1.9712050606,
				"y": 1.2857902429,
				"z": -1.2325438258,
				"element": "H" 
			},
			{
				"x": -1.3676503513,
				"y": 0.280195078,
				"z": -3.4226513121,
				"element": "H" 
			},
			{
				"x": 0.0918733589,
				"y": -3.0251652307,
				"z": -3.785276467,
				"element": "H" 
			},
			{
				"x": -0.555726887,
				"y": -1.6855378856,
				"z": -4.5880116745,
				"element": "H" 
			},
			{
				"x": 0.3642869789,
				"y": -3.0913427783,
				"z": -1.3515641778,
				"element": "H" 
			},
			{
				"x": 0.0371046287,
				"y": -0.4280083349,
				"z": 2.6378545371,
				"element": "H" 
			},
			{
				"x": -0.3320315964,
				"y": 3.1652598865,
				"z": 2.048956797,
				"element": "H" 
			},
			{
				"x": 4.1337894284,
				"y": 1.1813851831,
				"z": 1.1558837883,
				"element": "H" 
			},
			{
				"x": 2.2129827194,
				"y": -0.2943624555,
				"z": 1.7867569555,
				"element": "H" 
			}
		],
		 "valence_orbital": [ 
			{
				"type": "occ",
				"energy": -0.29526,
				"method": "rhf"
			},
			{
				"type": "occ",
				"energy": -0.26267,
				"method": "rhf"
			},
			{
				"type": "occ",
				"energy": -0.25614,
				"method": "rhf"
			},
			{
				"type": "occ",
				"energy": -0.23449,
				"method": "rhf"
			},
			{
				"type": "occ",
				"energy": -0.22541,
				"method": "rhf"
			},
			{
				"type": "unocc",
				"energy": -0.02635,
				"method": "rhf"
			},
			{
				"type": "unocc",
				"energy": -0.0235,
				"method": "rhf"
			},
			{
				"type": "unocc",
				"energy": -0.01839,
				"method": "rhf"
			},
			{
				"type": "unocc",
				"energy": -0.01125,
				"method": "rhf"
			},
			{
				"type": "unocc",
				"energy": 0.02665,
				"method": "rhf"
			}
		],
		"cosmo_sigma_profile": { 
			"-0.025": 0.0,
			"-0.024": 0.0,
			"-0.023": 0.0,
			"-0.022": 0.0,
			"-0.021": 0.0,
			"-0.02": 0.0,
			"-0.019": 0.0,
			"-0.018": 0.0,
			"-0.017": 0.0,
			"-0.016": 0.0,
			"-0.015": 0.0,
			"-0.014": 0.752065731664,
			"-0.013": 3.15411378087,
			"-0.012": 3.88250625125,
			"-0.011": 4.09920223213,
			"-0.01": 3.64916360433,
			"-0.009": 4.52505938452,
			"-0.008": 7.09085411247,
			"-0.007": 8.54318548813,
			"-0.006": 14.0370694182,
			"-0.005": 16.3814819958,
			"-0.004": 15.9040261516,
			"-0.003": 18.5678924687,
			"-0.002": 19.0048299675,
			"-0.001": 20.809227571,
			"0.0": 23.8426300308,
			"0.001": 29.3366490658,
			"0.002": 28.9738702315,
			"0.003": 31.0533597415,
			"0.004": 27.4808281641,
			"0.005": 10.2272249973,
			"0.006": 5.32510074865,
			"0.007": 5.35714403919,
			"0.008": 5.62822721451,
			"0.009": 6.24575743823,
			"0.01": 5.44042984451,
			"0.011": 7.28287621815,
			"0.012": 2.74982226854,
			"0.013": 0.0,
			"0.014": 0.0,
			"0.015": 0.0,
			"0.016": 0.0,
			"0.017": 0.0,
			"0.018": 0.0,
			"0.019": 0.0,
			"0.02": 0.0,
			"0.021": 0.0,
			"0.022": 0.0,
			"0.023": 0.0,
			"0.024": 0.0,
			"0.025": 0.0
		}
	}
}
