{
	 "smiles": "CC1=C(C)C2=C(S1)N=C(N=C2Cl)C1=CC=C(OC(F)F)C=C1", 
	 "Tm": 414.15, 
	 "num_atms": 33, 
	 "gaussian": { 
		 "optdone": 1, 
		 "sigma_profile": "yes", 
		 "theory": "DFT", 
		 "functional": "B3LYP", 
		 "basiset": "6-31G**", 
		 "properties": { 
			 "R2extent": 12751.8807, 
			 "electric_dipole_moment_norm": 4.91393965775, 
			 "electric_quadrupole_moment_norm": 14.4681823105, 
			 "total_energy": -1821.02862197, 
			 "HOMO_LUMO_gap": 0.15512, 
			 "cosmo_polarized_energy": -9.33, 
			 "cosmo_cavitation_energy": 41.73, 
			 "cosmo_dispersion_energy": -30.81, 
			 "cosmo_repulsion_energy": 2.24, 
			 "cosmo_total_nonelectrostatic_energy": 13.15, 
			 "SMD_solvation_energy": 5.26 
		},
		"coords": [
			{
				"x": 2.8156638003,
				"y": 5.8339493227,
				"z": 0.5967182646,
				"element": "C" 
			},
			{
				"x": 2.0920852056,
				"y": 4.530764443,
				"z": 0.3951290113,
				"element": "C" 
			},
			{
				"x": 0.7403730346,
				"y": 4.3099283749,
				"z": 0.3996699978,
				"element": "C" 
			},
			{
				"x": -0.269606647,
				"y": 5.4053126857,
				"z": 0.6199656345,
				"element": "C" 
			},
			{
				"x": 0.4302183008,
				"y": 2.9151596161,
				"z": 0.1689816364,
				"element": "C" 
			},
			{
				"x": 1.5899339403,
				"y": 2.1113331883,
				"z": -0.0063669198,
				"element": "C" 
			},
			{
				"x": 3.0435114843,
				"y": 3.073642673,
				"z": 0.1139675862,
				"element": "S" 
			},
			{
				"x": 1.6079643948,
				"y": 0.8041810095,
				"z": -0.2323349612,
				"element": "N" 
			},
			{
				"x": 0.4080448346,
				"y": 0.2135273603,
				"z": -0.2974569261,
				"element": "C" 
			},
			{
				"x": -0.7701985018,
				"y": 0.8641723236,
				"z": -0.1473559905,
				"element": "N" 
			},
			{
				"x": -0.7525972504,
				"y": 2.156059452,
				"z": 0.0758373515,
				"element": "C" 
			},
			{
				"x": -2.3354339018,
				"y": 2.9139040942,
				"z": 0.2588604651,
				"element": "Cl" 
			},
			{
				"x": 0.3542658231,
				"y": -1.2419626998,
				"z": -0.5479441004,
				"element": "C" 
			},
			{
				"x": 1.5348298834,
				"y": -1.9784920207,
				"z": -0.721860975,
				"element": "C" 
			},
			{
				"x": 1.4974931413,
				"y": -3.3497219971,
				"z": -0.9629801368,
				"element": "C" 
			},
			{
				"x": 0.2592037298,
				"y": -3.9974989319,
				"z": -1.0139634236,
				"element": "C" 
			},
			{
				"x": 0.1168614467,
				"y": -5.3543858848,
				"z": -1.249465283,
				"element": "O" 
			},
			{
				"x": 1.1407431559,
				"y": -6.1915745593,
				"z": -0.879433765,
				"element": "C" 
			},
			{
				"x": 0.6336504415,
				"y": -7.4359387018,
				"z": -0.855736432,
				"element": "F" 
			},
			{
				"x": 2.142193229,
				"y": -6.1741370295,
				"z": -1.8069159282,
				"element": "F" 
			},
			{
				"x": -0.9291062096,
				"y": -3.2802929235,
				"z": -0.8501351614,
				"element": "C" 
			},
			{
				"x": -0.8795505995,
				"y": -1.9115963981,
				"z": -0.6226222498,
				"element": "C" 
			},
			{
				"x": 2.5876377049,
				"y": 6.2673805278,
				"z": 1.5766776744,
				"element": "H" 
			},
			{
				"x": 3.8989944504,
				"y": 5.7030500862,
				"z": 0.5395238403,
				"element": "H" 
			},
			{
				"x": 2.5319695377,
				"y": 6.5677489712,
				"z": -0.1656621602,
				"element": "H" 
			},
			{
				"x": -0.8911344204,
				"y": 5.2077051233,
				"z": 1.4985890843,
				"element": "H" 
			},
			{
				"x": -0.9469762034,
				"y": 5.5044314622,
				"z": -0.2336327374,
				"element": "H" 
			},
			{
				"x": 0.2273588911,
				"y": 6.3662335455,
				"z": 0.7685393245,
				"element": "H" 
			},
			{
				"x": 2.486345819,
				"y": -1.4611074763,
				"z": -0.6780923748,
				"element": "H" 
			},
			{
				"x": 2.4150642897,
				"y": -3.8977242699,
				"z": -1.1394462098,
				"element": "H" 
			},
			{
				"x": 1.5700353929,
				"y": -5.9341341058,
				"z": 0.09627905,
				"element": "H" 
			},
			{
				"x": -1.8736554869,
				"y": -3.8112175251,
				"z": -0.8997710992,
				"element": "H" 
			},
			{
				"x": -1.7933827107,
				"y": -1.3436997361,
				"z": -0.4919620866,
				"element": "H" 
			}
		],
		 "valence_orbital": [ 
			{
				"type": "occ",
				"energy": -0.27668,
				"method": "rhf"
			},
			{
				"type": "occ",
				"energy": -0.26716,
				"method": "rhf"
			},
			{
				"type": "occ",
				"energy": -0.26273,
				"method": "rhf"
			},
			{
				"type": "occ",
				"energy": -0.25206,
				"method": "rhf"
			},
			{
				"type": "occ",
				"energy": -0.22074,
				"method": "rhf"
			},
			{
				"type": "unocc",
				"energy": -0.06562,
				"method": "rhf"
			},
			{
				"type": "unocc",
				"energy": -0.04489,
				"method": "rhf"
			},
			{
				"type": "unocc",
				"energy": -0.01062,
				"method": "rhf"
			},
			{
				"type": "unocc",
				"energy": -0.00132,
				"method": "rhf"
			},
			{
				"type": "unocc",
				"energy": -0.00098,
				"method": "rhf"
			}
		],
		"cosmo_sigma_profile": { 
			"-0.025": 0.0,
			"-0.024": 0.0,
			"-0.023": 0.0,
			"-0.022": 0.0,
			"-0.021": 0.0,
			"-0.02": 0.0,
			"-0.019": 0.0,
			"-0.018": 0.0,
			"-0.017": 0.0,
			"-0.016": 0.0,
			"-0.015": 0.0,
			"-0.014": 0.0,
			"-0.013": 0.0,
			"-0.012": 0.0,
			"-0.011": 0.531195118687,
			"-0.01": 2.98633538505,
			"-0.009": 2.19552541067,
			"-0.008": 2.10958780664,
			"-0.007": 4.54866382428,
			"-0.006": 9.65819879918,
			"-0.005": 16.4375020995,
			"-0.004": 19.844526828,
			"-0.003": 23.9216705688,
			"-0.002": 30.0688069835,
			"-0.001": 32.0330656539,
			"0.0": 31.6273526936,
			"0.001": 35.8174405634,
			"0.002": 34.4557047613,
			"0.003": 44.1735370551,
			"0.004": 27.0630147914,
			"0.005": 6.91209361623,
			"0.006": 5.58932227402,
			"0.007": 5.02380815069,
			"0.008": 3.21630843848,
			"0.009": 1.32777994781,
			"0.01": 0.113516229652,
			"0.011": 0.0,
			"0.012": 0.0,
			"0.013": 0.0,
			"0.014": 0.0,
			"0.015": 0.0,
			"0.016": 0.0,
			"0.017": 0.0,
			"0.018": 0.0,
			"0.019": 0.0,
			"0.02": 0.0,
			"0.021": 0.0,
			"0.022": 0.0,
			"0.023": 0.0,
			"0.024": 0.0,
			"0.025": 0.0
		}
	}
}
