{
	 "smiles": "NC1=NC(N)=C(F)C=C1F", 
	 "Tm": 433.15, 
	 "num_atms": 15, 
	 "gaussian": { 
		 "optdone": 1, 
		 "sigma_profile": "yes", 
		 "theory": "DFT", 
		 "functional": "B3LYP", 
		 "basiset": "6-31G**", 
		 "properties": { 
			 "R2extent": 1508.3171, 
			 "electric_dipole_moment_norm": 2.16187192498, 
			 "electric_quadrupole_moment_norm": 8.23278491277, 
			 "total_energy": -557.475155147, 
			 "HOMO_LUMO_gap": 0.18017, 
			 "cosmo_polarized_energy": -10.1, 
			 "cosmo_cavitation_energy": 20.32, 
			 "cosmo_dispersion_energy": -15.25, 
			 "cosmo_repulsion_energy": 1.22, 
			 "cosmo_total_nonelectrostatic_energy": 6.28, 
			 "SMD_solvation_energy": 3.01 
		},
		"coords": [
			{
				"x": 2.0179252218,
				"y": -2.3761264936,
				"z": 0.0539272916,
				"element": "N" 
			},
			{
				"x": 1.3241521694,
				"y": -1.1820874357,
				"z": 0.0982545724,
				"element": "C" 
			},
			{
				"x": 1.8588099039,
				"y": -0.1151725691,
				"z": -0.5088679959,
				"element": "N" 
			},
			{
				"x": 1.1819324429,
				"y": 1.0396800609,
				"z": -0.5391135468,
				"element": "C" 
			},
			{
				"x": 1.7312145715,
				"y": 2.1021392693,
				"z": -1.2308247833,
				"element": "N" 
			},
			{
				"x": -0.0713137423,
				"y": 1.1623592209,
				"z": 0.0784393253,
				"element": "C" 
			},
			{
				"x": -0.7016742547,
				"y": 2.3662558331,
				"z": 0.0433077178,
				"element": "F" 
			},
			{
				"x": -0.6380981027,
				"y": 0.0807524354,
				"z": 0.7313132462,
				"element": "C" 
			},
			{
				"x": 0.0739438734,
				"y": -1.1068322545,
				"z": 0.7293973781,
				"element": "C" 
			},
			{
				"x": -0.4085562211,
				"y": -2.2120941903,
				"z": 1.3567247154,
				"element": "F" 
			},
			{
				"x": 1.7914342357,
				"y": -3.0443096453,
				"z": 0.7755883732,
				"element": "H" 
			},
			{
				"x": 3.0016004809,
				"y": -2.277104326,
				"z": -0.1515676638,
				"element": "H" 
			},
			{
				"x": 2.7260676945,
				"y": 2.026240057,
				"z": -1.3862468752,
				"element": "H" 
			},
			{
				"x": 1.4033117072,
				"y": 3.0184885132,
				"z": -0.9637289087,
				"element": "H" 
			},
			{
				"x": -1.6001499803,
				"y": 0.1605115248,
				"z": 1.2239971537,
				"element": "H" 
			}
		],
		 "valence_orbital": [ 
			{
				"type": "occ",
				"energy": -0.34088,
				"method": "rhf"
			},
			{
				"type": "occ",
				"energy": -0.2932,
				"method": "rhf"
			},
			{
				"type": "occ",
				"energy": -0.27215,
				"method": "rhf"
			},
			{
				"type": "occ",
				"energy": -0.24965,
				"method": "rhf"
			},
			{
				"type": "occ",
				"energy": -0.19145,
				"method": "rhf"
			},
			{
				"type": "unocc",
				"energy": -0.01128,
				"method": "rhf"
			},
			{
				"type": "unocc",
				"energy": 0.02606,
				"method": "rhf"
			},
			{
				"type": "unocc",
				"energy": 0.08477,
				"method": "rhf"
			},
			{
				"type": "unocc",
				"energy": 0.08778,
				"method": "rhf"
			},
			{
				"type": "unocc",
				"energy": 0.10591,
				"method": "rhf"
			}
		],
		"cosmo_sigma_profile": { 
			"-0.025": 0.0,
			"-0.024": 0.0,
			"-0.023": 0.0,
			"-0.022": 0.0,
			"-0.021": 0.0,
			"-0.02": 0.0,
			"-0.019": 0.0,
			"-0.018": 0.0,
			"-0.017": 0.0,
			"-0.016": 0.0,
			"-0.015": 0.0,
			"-0.014": 0.0161057469823,
			"-0.013": 2.11863057296,
			"-0.012": 3.49636660437,
			"-0.011": 4.21792111359,
			"-0.01": 3.32001888768,
			"-0.009": 5.61750417076,
			"-0.008": 6.27763560524,
			"-0.007": 5.00113813381,
			"-0.006": 5.00914458403,
			"-0.005": 4.34933099973,
			"-0.004": 4.89305709866,
			"-0.003": 4.51174873335,
			"-0.002": 4.89823114673,
			"-0.001": 6.9035649372,
			"0.0": 8.47250788912,
			"0.001": 19.3852426571,
			"0.002": 16.3038488513,
			"0.003": 10.8305180191,
			"0.004": 16.5496951241,
			"0.005": 8.856489256,
			"0.006": 2.93258920997,
			"0.007": 4.20698436864,
			"0.008": 3.13990058327,
			"0.009": 2.25461657719,
			"0.01": 3.15586950006,
			"0.011": 2.00268748766,
			"0.012": 2.00708574925,
			"0.013": 1.22099519818,
			"0.014": 0.160780217039,
			"0.015": 0.0,
			"0.016": 0.0,
			"0.017": 0.0,
			"0.018": 0.0,
			"0.019": 0.0,
			"0.02": 0.0,
			"0.021": 0.0,
			"0.022": 0.0,
			"0.023": 0.0,
			"0.024": 0.0,
			"0.025": 0.0
		}
	}
}
