{
	 "smiles": "CS(=O)CC1=C(OC2=C1C=CC=C2)C(O)=O", 
	 "Tm": 451.15, 
	 "num_atms": 26, 
	 "gaussian": { 
		 "optdone": 1, 
		 "sigma_profile": "yes", 
		 "theory": "DFT", 
		 "functional": "B3LYP", 
		 "basiset": "6-31G**", 
		 "properties": { 
			 "R2extent": 4121.4255, 
			 "electric_dipole_moment_norm": 4.15707419467, 
			 "electric_quadrupole_moment_norm": 23.9133349341, 
			 "total_energy": -1124.22438843, 
			 "HOMO_LUMO_gap": 0.15877, 
			 "cosmo_polarized_energy": -23.56, 
			 "cosmo_cavitation_energy": 32.27, 
			 "cosmo_dispersion_energy": -22.9, 
			 "cosmo_repulsion_energy": 1.74, 
			 "cosmo_total_nonelectrostatic_energy": 11.11, 
			 "SMD_solvation_energy": 6.56 
		},
		"coords": [
			{
				"x": -0.7614086496,
				"y": 2.2429320112,
				"z": -1.5951439727,
				"element": "C" 
			},
			{
				"x": -0.2676195724,
				"y": 0.8764787895,
				"z": -2.7116095771,
				"element": "S" 
			},
			{
				"x": 0.3842278256,
				"y": 1.4917934618,
				"z": -3.9258051723,
				"element": "O" 
			},
			{
				"x": 1.159271913,
				"y": 0.2389771199,
				"z": -1.6554991562,
				"element": "C" 
			},
			{
				"x": 0.7270871577,
				"y": -0.3917525571,
				"z": -0.3788669526,
				"element": "C" 
			},
			{
				"x": 0.9023827607,
				"y": 0.0473073448,
				"z": 0.9143513197,
				"element": "C" 
			},
			{
				"x": 0.2690624521,
				"y": -0.7657470078,
				"z": 1.8212585997,
				"element": "O" 
			},
			{
				"x": -0.3169505969,
				"y": -1.7657574351,
				"z": 1.1041756878,
				"element": "C" 
			},
			{
				"x": -0.0770963241,
				"y": -1.589709642,
				"z": -0.2697679317,
				"element": "C" 
			},
			{
				"x": -0.6082893108,
				"y": -2.517939814,
				"z": -1.1819725513,
				"element": "C" 
			},
			{
				"x": -1.3456741558,
				"y": -3.5824975003,
				"z": -0.6780762349,
				"element": "C" 
			},
			{
				"x": -1.5638938052,
				"y": -3.7334660455,
				"z": 0.707269324,
				"element": "C" 
			},
			{
				"x": -1.0511896424,
				"y": -2.824848878,
				"z": 1.6290727749,
				"element": "C" 
			},
			{
				"x": 1.559759063,
				"y": 1.2380491025,
				"z": 1.5085464405,
				"element": "C" 
			},
			{
				"x": 2.6211706044,
				"y": 1.7307246274,
				"z": 0.8104424448,
				"element": "O" 
			},
			{
				"x": 1.1855959681,
				"y": 1.7654222522,
				"z": 2.5250235812,
				"element": "O" 
			},
			{
				"x": -1.103155947,
				"y": 1.8395456042,
				"z": -0.6393936843,
				"element": "H" 
			},
			{
				"x": 0.0821233278,
				"y": 2.9242192973,
				"z": -1.4569030025,
				"element": "H" 
			},
			{
				"x": -1.5798588877,
				"y": 2.7682672211,
				"z": -2.0910045985,
				"element": "H" 
			},
			{
				"x": 1.6413788806,
				"y": -0.4791932322,
				"z": -2.3257444666,
				"element": "H" 
			},
			{
				"x": 1.8203513982,
				"y": 1.0994170826,
				"z": -1.5329337658,
				"element": "H" 
			},
			{
				"x": -0.4512742824,
				"y": -2.406681565,
				"z": -2.2501867039,
				"element": "H" 
			},
			{
				"x": -1.7650588073,
				"y": -4.3139192907,
				"z": -1.3617649924,
				"element": "H" 
			},
			{
				"x": -2.1473428374,
				"y": -4.5770468547,
				"z": 1.0629716619,
				"element": "H" 
			},
			{
				"x": -1.2121416716,
				"y": -2.9253227065,
				"z": 2.6964214232,
				"element": "H" 
			},
			{
				"x": 2.9385431395,
				"y": 1.0690486145,
				"z": 0.1791395049,
				"element": "H" 
			}
		],
		 "valence_orbital": [ 
			{
				"type": "occ",
				"energy": -0.29234,
				"method": "rhf"
			},
			{
				"type": "occ",
				"energy": -0.27563,
				"method": "rhf"
			},
			{
				"type": "occ",
				"energy": -0.261,
				"method": "rhf"
			},
			{
				"type": "occ",
				"energy": -0.25207,
				"method": "rhf"
			},
			{
				"type": "occ",
				"energy": -0.2324,
				"method": "rhf"
			},
			{
				"type": "unocc",
				"energy": -0.07363,
				"method": "rhf"
			},
			{
				"type": "unocc",
				"energy": -0.01422,
				"method": "rhf"
			},
			{
				"type": "unocc",
				"energy": -0.00965,
				"method": "rhf"
			},
			{
				"type": "unocc",
				"energy": 0.02025,
				"method": "rhf"
			},
			{
				"type": "unocc",
				"energy": 0.03267,
				"method": "rhf"
			}
		],
		"cosmo_sigma_profile": { 
			"-0.025": 0.0,
			"-0.024": 0.0,
			"-0.023": 0.0,
			"-0.022": 0.0,
			"-0.021": 0.0,
			"-0.02": 0.0,
			"-0.019": 0.510360762645,
			"-0.018": 0.809849372897,
			"-0.017": 1.15937148048,
			"-0.016": 1.23642796673,
			"-0.015": 1.10457525993,
			"-0.014": 1.14325817758,
			"-0.013": 0.978587087133,
			"-0.012": 0.730828518741,
			"-0.011": 0.876805733887,
			"-0.01": 1.01622399028,
			"-0.009": 2.65075312767,
			"-0.008": 7.59805289579,
			"-0.007": 15.1166327925,
			"-0.006": 19.0965274285,
			"-0.005": 20.0069458017,
			"-0.004": 18.123647541,
			"-0.003": 16.5272679752,
			"-0.002": 13.5302257945,
			"-0.001": 13.04656929,
			"0.0": 13.4210811039,
			"0.001": 13.9741875233,
			"0.002": 13.7835873431,
			"0.003": 13.572787927,
			"0.004": 12.8737750216,
			"0.005": 4.81596908933,
			"0.006": 3.47117756915,
			"0.007": 4.6391865306,
			"0.008": 5.04510922555,
			"0.009": 6.48881474951,
			"0.01": 6.520107597,
			"0.011": 7.61081690633,
			"0.012": 4.32985792317,
			"0.013": 2.30873377591,
			"0.014": 4.99530406741,
			"0.015": 5.36223843796,
			"0.016": 0.60839906094,
			"0.017": 0.0,
			"0.018": 0.0,
			"0.019": 0.0,
			"0.02": 0.0,
			"0.021": 0.0,
			"0.022": 0.0,
			"0.023": 0.0,
			"0.024": 0.0,
			"0.025": 0.0
		}
	}
}
