{
	 "smiles": "CC(=O)OCC(=O)[C@@]1(O)CC[C@@]2(O)C3CCC4=CC(=O)CCC4(C)C3CCC12C", 
	 "Tm": 509.15, 
	 "num_atms": 61, 
	 "gaussian": { 
		 "optdone": 1, 
		 "sigma_profile": "yes", 
		 "theory": "DFT", 
		 "functional": "B3LYP", 
		 "basiset": "6-31G**", 
		 "properties": { 
			 "R2extent": 13985.7399, 
			 "electric_dipole_moment_norm": 4.7636716606, 
			 "electric_quadrupole_moment_norm": 40.3662365573, 
			 "total_energy": -1347.08109357, 
			 "HOMO_LUMO_gap": 0.17733, 
			 "cosmo_polarized_energy": -22.69, 
			 "cosmo_cavitation_energy": 53.43, 
			 "cosmo_dispersion_energy": -37.2, 
			 "cosmo_repulsion_energy": 2.7, 
			 "cosmo_total_nonelectrostatic_energy": 18.94, 
			 "SMD_solvation_energy": 9.92 
		},
		"coords": [
			{
				"x": 6.6598019534,
				"y": -1.5428895084,
				"z": -1.4553146834,
				"element": "C" 
			},
			{
				"x": 5.2368948606,
				"y": -1.4129375043,
				"z": -0.9816588194,
				"element": "C" 
			},
			{
				"x": 4.5399612517,
				"y": -2.3062489196,
				"z": -0.5519441726,
				"element": "O" 
			},
			{
				"x": 4.7948852788,
				"y": -0.1327351761,
				"z": -1.1036331355,
				"element": "O" 
			},
			{
				"x": 3.435929994,
				"y": 0.0592452805,
				"z": -0.7105662094,
				"element": "C" 
			},
			{
				"x": 2.476197233,
				"y": -0.6384210706,
				"z": -1.6781339138,
				"element": "C" 
			},
			{
				"x": 2.815720255,
				"y": -0.793048079,
				"z": -2.8402812344,
				"element": "O" 
			},
			{
				"x": 1.0846599158,
				"y": -1.1384175689,
				"z": -1.2516952677,
				"element": "C" 
			},
			{
				"x": 0.6001975169,
				"y": -1.9124345301,
				"z": -2.350534519,
				"element": "O" 
			},
			{
				"x": 1.068526288,
				"y": -2.0520547467,
				"z": -0.0045187006,
				"element": "C" 
			},
			{
				"x": -0.3794387908,
				"y": -1.9599494956,
				"z": 0.5384066455,
				"element": "C" 
			},
			{
				"x": -1.1431156477,
				"y": -0.8984210057,
				"z": -0.3175079031,
				"element": "C" 
			},
			{
				"x": -1.8755636908,
				"y": -1.560216361,
				"z": -1.3449618746,
				"element": "O" 
			},
			{
				"x": -2.2112990758,
				"y": -0.1446280822,
				"z": 0.5247759622,
				"element": "C" 
			},
			{
				"x": -3.2864568885,
				"y": 0.5529852588,
				"z": -0.3350841371,
				"element": "C" 
			},
			{
				"x": -4.3690127665,
				"y": 1.2177344287,
				"z": 0.5409390032,
				"element": "C" 
			},
			{
				"x": -3.7232013246,
				"y": 2.173694169,
				"z": 1.5108139434,
				"element": "C" 
			},
			{
				"x": -4.0231886663,
				"y": 3.4893031093,
				"z": 1.4994818596,
				"element": "C" 
			},
			{
				"x": -3.2955930865,
				"y": 4.5125004042,
				"z": 2.2686254778,
				"element": "C" 
			},
			{
				"x": -3.67181765,
				"y": 5.6758300293,
				"z": 2.3224641203,
				"element": "O" 
			},
			{
				"x": -1.9923553564,
				"y": 4.0531151174,
				"z": 2.9043340514,
				"element": "C" 
			},
			{
				"x": -2.072161839,
				"y": 2.6063483411,
				"z": 3.4099184034,
				"element": "C" 
			},
			{
				"x": -2.6780405296,
				"y": 1.5549519134,
				"z": 2.4321649721,
				"element": "C" 
			},
			{
				"x": -3.3648017059,
				"y": 0.4941581999,
				"z": 3.339700408,
				"element": "C" 
			},
			{
				"x": -1.5831361935,
				"y": 0.8270550014,
				"z": 1.5620370883,
				"element": "C" 
			},
			{
				"x": -0.5883686432,
				"y": 1.7663321025,
				"z": 0.8596259877,
				"element": "C" 
			},
			{
				"x": 0.5257979073,
				"y": 0.9787811601,
				"z": 0.1516795278,
				"element": "C" 
			},
			{
				"x": 0.017688973,
				"y": -0.0101789596,
				"z": -0.9281869209,
				"element": "C" 
			},
			{
				"x": -0.3612285588,
				"y": 0.7568939526,
				"z": -2.2055838477,
				"element": "C" 
			},
			{
				"x": 7.2869917498,
				"y": -0.7677094184,
				"z": -1.0078175695,
				"element": "H" 
			},
			{
				"x": 7.0375464048,
				"y": -2.5330153315,
				"z": -1.2030175152,
				"element": "H" 
			},
			{
				"x": 6.689390438,
				"y": -1.4047245315,
				"z": -2.5408045861,
				"element": "H" 
			},
			{
				"x": 3.2726468875,
				"y": 1.1383297352,
				"z": -0.7664778734,
				"element": "H" 
			},
			{
				"x": 3.2864252106,
				"y": -0.2713431275,
				"z": 0.3177997542,
				"element": "H" 
			},
			{
				"x": 1.2033372927,
				"y": -1.7227278927,
				"z": -3.0943280808,
				"element": "H" 
			},
			{
				"x": 1.3576859817,
				"y": -3.059344548,
				"z": -0.3082844847,
				"element": "H" 
			},
			{
				"x": 1.7939896849,
				"y": -1.7272094818,
				"z": 0.7442345497,
				"element": "H" 
			},
			{
				"x": -0.9179596998,
				"y": -2.9060040058,
				"z": 0.4463160256,
				"element": "H" 
			},
			{
				"x": -0.3740724566,
				"y": -1.6965282654,
				"z": 1.5999927871,
				"element": "H" 
			},
			{
				"x": -1.219262143,
				"y": -1.9577766034,
				"z": -1.9429710992,
				"element": "H" 
			},
			{
				"x": -2.7309039357,
				"y": -0.9419661837,
				"z": 1.0721858322,
				"element": "H" 
			},
			{
				"x": -3.7387656015,
				"y": -0.1812705803,
				"z": -1.0033919704,
				"element": "H" 
			},
			{
				"x": -2.8394831728,
				"y": 1.3214976952,
				"z": -0.9736667029,
				"element": "H" 
			},
			{
				"x": -5.0912749884,
				"y": 1.7479856636,
				"z": -0.0877380281,
				"element": "H" 
			},
			{
				"x": -4.9257528163,
				"y": 0.4390587274,
				"z": 1.0785548337,
				"element": "H" 
			},
			{
				"x": -4.816772253,
				"y": 3.8677679952,
				"z": 0.8584965882,
				"element": "H" 
			},
			{
				"x": -1.7416759763,
				"y": 4.7411042152,
				"z": 3.7170185357,
				"element": "H" 
			},
			{
				"x": -1.215011371,
				"y": 4.1725241952,
				"z": 2.1396080265,
				"element": "H" 
			},
			{
				"x": -1.0851735157,
				"y": 2.2613696109,
				"z": 3.7424439432,
				"element": "H" 
			},
			{
				"x": -2.6987157458,
				"y": 2.6169768861,
				"z": 4.3095999284,
				"element": "H" 
			},
			{
				"x": -3.7465528381,
				"y": -0.3689478761,
				"z": 2.7925957466,
				"element": "H" 
			},
			{
				"x": -4.2027401822,
				"y": 0.9429036582,
				"z": 3.8823509761,
				"element": "H" 
			},
			{
				"x": -2.6447898848,
				"y": 0.1259965625,
				"z": 4.0792323445,
				"element": "H" 
			},
			{
				"x": -0.9977411293,
				"y": 0.2327678135,
				"z": 2.2790711055,
				"element": "H" 
			},
			{
				"x": -0.1119555701,
				"y": 2.427276357,
				"z": 1.5896079625,
				"element": "H" 
			},
			{
				"x": -1.1096744987,
				"y": 2.4174927082,
				"z": 0.1488151987,
				"element": "H" 
			},
			{
				"x": 1.2169370723,
				"y": 1.6952904626,
				"z": -0.3082462004,
				"element": "H" 
			},
			{
				"x": 1.09448333,
				"y": 0.4471546597,
				"z": 0.9241824765,
				"element": "H" 
			},
			{
				"x": -0.9521498749,
				"y": 1.6467441109,
				"z": -1.9768228214,
				"element": "H" 
			},
			{
				"x": 0.5379791359,
				"y": 1.0941110023,
				"z": -2.7343636022,
				"element": "H" 
			},
			{
				"x": -0.9440665479,
				"y": 0.1354683272,
				"z": -2.8843381917,
				"element": "H" 
			}
		],
		 "valence_orbital": [ 
			{
				"type": "occ",
				"energy": -0.28489,
				"method": "rhf"
			},
			{
				"type": "occ",
				"energy": -0.27314,
				"method": "rhf"
			},
			{
				"type": "occ",
				"energy": -0.25338,
				"method": "rhf"
			},
			{
				"type": "occ",
				"energy": -0.25021,
				"method": "rhf"
			},
			{
				"type": "occ",
				"energy": -0.2292,
				"method": "rhf"
			},
			{
				"type": "unocc",
				"energy": -0.05187,
				"method": "rhf"
			},
			{
				"type": "unocc",
				"energy": -0.04205,
				"method": "rhf"
			},
			{
				"type": "unocc",
				"energy": -0.00449,
				"method": "rhf"
			},
			{
				"type": "unocc",
				"energy": 0.05249,
				"method": "rhf"
			},
			{
				"type": "unocc",
				"energy": 0.06398,
				"method": "rhf"
			}
		],
		"cosmo_sigma_profile": { 
			"-0.025": 0.0,
			"-0.024": 0.0,
			"-0.023": 0.0,
			"-0.022": 0.0,
			"-0.021": 0.0,
			"-0.02": 0.0,
			"-0.019": 0.0,
			"-0.018": 0.0,
			"-0.017": 0.0,
			"-0.016": 0.0,
			"-0.015": 0.00108412398133,
			"-0.014": 0.0147214313017,
			"-0.013": 0.0955255089531,
			"-0.012": 0.120587628251,
			"-0.011": 0.263455153378,
			"-0.01": 1.47228221654,
			"-0.009": 3.9686198111,
			"-0.008": 4.27433275732,
			"-0.007": 7.68097290896,
			"-0.006": 10.1055152184,
			"-0.005": 20.2548560254,
			"-0.004": 36.8407484337,
			"-0.003": 56.0618695739,
			"-0.002": 50.8763619963,
			"-0.001": 49.6206455417,
			"0.0": 39.4977336042,
			"0.001": 24.2144412422,
			"0.002": 15.3584452186,
			"0.003": 11.7375252184,
			"0.004": 10.2754139068,
			"0.005": 8.46110252748,
			"0.006": 8.46911679217,
			"0.007": 6.86253786021,
			"0.008": 8.26901599689,
			"0.009": 8.36513162912,
			"0.01": 7.2600936952,
			"0.011": 7.27195112153,
			"0.012": 5.35949588262,
			"0.013": 6.00555129067,
			"0.014": 4.09763591118,
			"0.015": 0.857192366608,
			"0.016": 0.0,
			"0.017": 0.0,
			"0.018": 0.0,
			"0.019": 0.0,
			"0.02": 0.0,
			"0.021": 0.0,
			"0.022": 0.0,
			"0.023": 0.0,
			"0.024": 0.0,
			"0.025": 0.0
		}
	}
}
