{
	 "smiles": "OCC1=CN2C=CSC2=N1", 
	 "Tm": 427.15, 
	 "num_atms": 16, 
	 "gaussian": { 
		 "optdone": 1, 
		 "sigma_profile": "yes", 
		 "theory": "DFT", 
		 "functional": "B3LYP", 
		 "basiset": "6-31G**", 
		 "properties": { 
			 "R2extent": 2020.6638, 
			 "electric_dipole_moment_norm": 4.9333881765, 
			 "electric_quadrupole_moment_norm": 6.90570444126, 
			 "total_energy": -815.127072319, 
			 "HOMO_LUMO_gap": 0.20421, 
			 "cosmo_polarized_energy": -11.66, 
			 "cosmo_cavitation_energy": 21.75, 
			 "cosmo_dispersion_energy": -17.17, 
			 "cosmo_repulsion_energy": 1.34, 
			 "cosmo_total_nonelectrostatic_energy": 5.92, 
			 "SMD_solvation_energy": 2.93 
		},
		"coords": [
			{
				"x": 0.5950172267,
				"y": 0.0662201137,
				"z": -3.335003552,
				"element": "O" 
			},
			{
				"x": -0.1120604724,
				"y": 0.8063539078,
				"z": -2.3540948687,
				"element": "C" 
			},
			{
				"x": -0.0934279306,
				"y": 0.1152537043,
				"z": -1.0205728513,
				"element": "C" 
			},
			{
				"x": 0.143739887,
				"y": 0.620054133,
				"z": 0.2379481306,
				"element": "C" 
			},
			{
				"x": 0.0193598533,
				"y": -0.4692693326,
				"z": 1.0909993093,
				"element": "N" 
			},
			{
				"x": 0.116714945,
				"y": -0.7613417216,
				"z": 2.4463222482,
				"element": "C" 
			},
			{
				"x": -0.1011330937,
				"y": -2.0698702459,
				"z": 2.7041253608,
				"element": "C" 
			},
			{
				"x": -0.4407394617,
				"y": -3.009611912,
				"z": 1.2499145942,
				"element": "S" 
			},
			{
				"x": -0.2738679967,
				"y": -1.5532717926,
				"z": 0.2876579449,
				"element": "C" 
			},
			{
				"x": -0.3535061244,
				"y": -1.2456764965,
				"z": -0.9847243672,
				"element": "N" 
			},
			{
				"x": 0.3626433511,
				"y": -0.8614152768,
				"z": -3.1789337668,
				"element": "H" 
			},
			{
				"x": 0.358083388,
				"y": 1.792597725,
				"z": -2.2787717839,
				"element": "H" 
			},
			{
				"x": -1.1587941625,
				"y": 0.9670213277,
				"z": -2.6648293179,
				"element": "H" 
			},
			{
				"x": 0.3843862469,
				"y": 1.6095173842,
				"z": 0.5923161147,
				"element": "H" 
			},
			{
				"x": 0.3431330882,
				"y": 0.0191021479,
				"z": 3.1588980016,
				"element": "H" 
			},
			{
				"x": -0.0869487442,
				"y": -2.5526636655,
				"z": 3.6696488035,
				"element": "H" 
			}
		],
		 "valence_orbital": [ 
			{
				"type": "occ",
				"energy": -0.32147,
				"method": "rhf"
			},
			{
				"type": "occ",
				"energy": -0.28959,
				"method": "rhf"
			},
			{
				"type": "occ",
				"energy": -0.25547,
				"method": "rhf"
			},
			{
				"type": "occ",
				"energy": -0.23593,
				"method": "rhf"
			},
			{
				"type": "occ",
				"energy": -0.22281,
				"method": "rhf"
			},
			{
				"type": "unocc",
				"energy": -0.0186,
				"method": "rhf"
			},
			{
				"type": "unocc",
				"energy": 0.00426,
				"method": "rhf"
			},
			{
				"type": "unocc",
				"energy": 0.03933,
				"method": "rhf"
			},
			{
				"type": "unocc",
				"energy": 0.05313,
				"method": "rhf"
			},
			{
				"type": "unocc",
				"energy": 0.07368,
				"method": "rhf"
			}
		],
		"cosmo_sigma_profile": { 
			"-0.025": 0.0,
			"-0.024": 0.0,
			"-0.023": 0.0,
			"-0.022": 0.0,
			"-0.021": 0.0,
			"-0.02": 0.0,
			"-0.019": 0.0,
			"-0.018": 0.0,
			"-0.017": 0.0,
			"-0.016": 0.0,
			"-0.015": 0.0,
			"-0.014": 0.0,
			"-0.013": 0.0,
			"-0.012": 0.292198214139,
			"-0.011": 0.456049563328,
			"-0.01": 4.93118009401,
			"-0.009": 6.90242847907,
			"-0.008": 6.40352385789,
			"-0.007": 5.51821281717,
			"-0.006": 6.67351764695,
			"-0.005": 8.24417228068,
			"-0.004": 8.65012658646,
			"-0.003": 9.69824852973,
			"-0.002": 11.2092053119,
			"-0.001": 12.3216158435,
			"0.0": 14.7747103855,
			"0.001": 14.98941506,
			"0.002": 13.8266824619,
			"0.003": 13.4997347403,
			"0.004": 9.85887034563,
			"0.005": 4.961500562,
			"0.006": 2.99664165896,
			"0.007": 2.76952984058,
			"0.008": 2.221702602,
			"0.009": 2.37526717798,
			"0.01": 2.46107623543,
			"0.011": 2.07682353709,
			"0.012": 1.95135987186,
			"0.013": 2.7976712298,
			"0.014": 3.03345253243,
			"0.015": 0.874198031686,
			"0.016": 0.0,
			"0.017": 0.0,
			"0.018": 0.0,
			"0.019": 0.0,
			"0.02": 0.0,
			"0.021": 0.0,
			"0.022": 0.0,
			"0.023": 0.0,
			"0.024": 0.0,
			"0.025": 0.0
		}
	}
}
