{
	 "smiles": "CCN(CC)C1=CC=C(C=C2CCC(=CC3=CC=C(C=C3)N(CC)CC)C2=O)C=C1", 
	 "Tm": 461.15, 
	 "num_atms": 64, 
	 "gaussian": { 
		 "optdone": 1, 
		 "sigma_profile": "yes", 
		 "theory": "DFT", 
		 "functional": "B3LYP", 
		 "basiset": "6-31G**", 
		 "properties": { 
			 "R2extent": 32030.3883, 
			 "electric_dipole_moment_norm": 2.2913135905, 
			 "electric_quadrupole_moment_norm": 48.3230522598, 
			 "total_energy": -1234.08578475, 
			 "HOMO_LUMO_gap": 0.11219, 
			 "cosmo_polarized_energy": -17.76, 
			 "cosmo_cavitation_energy": 63.44, 
			 "cosmo_dispersion_energy": -44.83, 
			 "cosmo_repulsion_energy": 3.33, 
			 "cosmo_total_nonelectrostatic_energy": 21.95, 
			 "SMD_solvation_energy": 9.67 
		},
		"coords": [
			{
				"x": -5.5819023953,
				"y": -8.4407331347,
				"z": -0.2474433169,
				"element": "C" 
			},
			{
				"x": -5.477298265,
				"y": -6.9589922912,
				"z": 0.1262244311,
				"element": "C" 
			},
			{
				"x": -5.8021576984,
				"y": -6.0456316632,
				"z": -0.9692658434,
				"element": "N" 
			},
			{
				"x": -7.0908418283,
				"y": -6.2518261757,
				"z": -1.6385703398,
				"element": "C" 
			},
			{
				"x": -7.0041841428,
				"y": -6.955934136,
				"z": -2.9992901507,
				"element": "C" 
			},
			{
				"x": -5.1716123341,
				"y": -4.8085120029,
				"z": -1.0717655812,
				"element": "C" 
			},
			{
				"x": -5.4224775573,
				"y": -3.958932332,
				"z": -2.1776751648,
				"element": "C" 
			},
			{
				"x": -4.7872927654,
				"y": -2.734556148,
				"z": -2.2955997748,
				"element": "C" 
			},
			{
				"x": -3.860549464,
				"y": -2.2624640721,
				"z": -1.3391544032,
				"element": "C" 
			},
			{
				"x": -3.2568506802,
				"y": -0.9626133311,
				"z": -1.583416159,
				"element": "C" 
			},
			{
				"x": -2.3035816403,
				"y": -0.2032335225,
				"z": -0.9742543049,
				"element": "C" 
			},
			{
				"x": -1.9181758147,
				"y": 1.1616476074,
				"z": -1.5278600394,
				"element": "C" 
			},
			{
				"x": -0.5328643304,
				"y": 1.4952714429,
				"z": -0.9187353379,
				"element": "C" 
			},
			{
				"x": -0.4198056033,
				"y": 0.5965258592,
				"z": 0.2878070587,
				"element": "C" 
			},
			{
				"x": 0.436713984,
				"y": 0.6205768836,
				"z": 1.3370026522,
				"element": "C" 
			},
			{
				"x": 1.5483282607,
				"y": 1.5016763875,
				"z": 1.6461467529,
				"element": "C" 
			},
			{
				"x": 2.1571587859,
				"y": 1.402279407,
				"z": 2.9152035914,
				"element": "C" 
			},
			{
				"x": 3.2208091652,
				"y": 2.2020822404,
				"z": 3.2991650585,
				"element": "C" 
			},
			{
				"x": 3.7610522871,
				"y": 3.1729740822,
				"z": 2.4189193709,
				"element": "C" 
			},
			{
				"x": 3.1636918964,
				"y": 3.2690809363,
				"z": 1.1366154044,
				"element": "C" 
			},
			{
				"x": 2.0994972765,
				"y": 2.4600470327,
				"z": 0.7686903774,
				"element": "C" 
			},
			{
				"x": 4.821329353,
				"y": 3.981416057,
				"z": 2.7897424168,
				"element": "N" 
			},
			{
				"x": 5.4669168514,
				"y": 4.8865943826,
				"z": 1.8428511726,
				"element": "C" 
			},
			{
				"x": 4.8064592436,
				"y": 6.2689737273,
				"z": 1.7525386325,
				"element": "C" 
			},
			{
				"x": 5.3535607215,
				"y": 3.9745256359,
				"z": 4.1497645448,
				"element": "C" 
			},
			{
				"x": 6.4453211549,
				"y": 2.9223532466,
				"z": 4.386955138,
				"element": "C" 
			},
			{
				"x": -1.46796353,
				"y": -0.4611351549,
				"z": 0.2249993906,
				"element": "C" 
			},
			{
				"x": -1.5764944303,
				"y": -1.3712347271,
				"z": 1.0520072492,
				"element": "O" 
			},
			{
				"x": -3.6223084255,
				"y": -3.1043074821,
				"z": -0.2308275273,
				"element": "C" 
			},
			{
				"x": -4.2580886273,
				"y": -4.3299243792,
				"z": -0.1010198906,
				"element": "C" 
			},
			{
				"x": -4.9207021544,
				"y": -8.6791164929,
				"z": -1.0859239476,
				"element": "H" 
			},
			{
				"x": -5.2801426659,
				"y": -9.0502455015,
				"z": 0.6105586242,
				"element": "H" 
			},
			{
				"x": -6.5993406108,
				"y": -8.7388085864,
				"z": -0.5162742082,
				"element": "H" 
			},
			{
				"x": -6.109594573,
				"y": -6.7568295622,
				"z": 1.0081219353,
				"element": "H" 
			},
			{
				"x": -4.4463296116,
				"y": -6.7703540524,
				"z": 0.4267325767,
				"element": "H" 
			},
			{
				"x": -7.5861015659,
				"y": -5.2816856289,
				"z": -1.7544561947,
				"element": "H" 
			},
			{
				"x": -7.731570485,
				"y": -6.8353728769,
				"z": -0.9667328572,
				"element": "H" 
			},
			{
				"x": -6.3725001618,
				"y": -6.3976064979,
				"z": -3.6958874737,
				"element": "H" 
			},
			{
				"x": -6.5819004395,
				"y": -7.9595171666,
				"z": -2.9024136698,
				"element": "H" 
			},
			{
				"x": -8.002654288,
				"y": -7.0472376348,
				"z": -3.4418956935,
				"element": "H" 
			},
			{
				"x": -6.0990777305,
				"y": -4.2696699783,
				"z": -2.9644516754,
				"element": "H" 
			},
			{
				"x": -5.004679994,
				"y": -2.1205269072,
				"z": -3.166899729,
				"element": "H" 
			},
			{
				"x": -3.6638714353,
				"y": -0.4985476934,
				"z": -2.48525083,
				"element": "H" 
			},
			{
				"x": -1.9071574856,
				"y": 1.1817887742,
				"z": -2.6224691031,
				"element": "H" 
			},
			{
				"x": -2.6496341973,
				"y": 1.9158841343,
				"z": -1.2064690966,
				"element": "H" 
			},
			{
				"x": 0.264698124,
				"y": 1.2756913791,
				"z": -1.6427734961,
				"element": "H" 
			},
			{
				"x": -0.4437495303,
				"y": 2.5572333257,
				"z": -0.6650151248,
				"element": "H" 
			},
			{
				"x": 0.2417981894,
				"y": -0.1566622412,
				"z": 2.0770862567,
				"element": "H" 
			},
			{
				"x": 1.7775479113,
				"y": 0.6659283969,
				"z": 3.6193101157,
				"element": "H" 
			},
			{
				"x": 3.6464963068,
				"y": 2.0562843783,
				"z": 4.2842629972,
				"element": "H" 
			},
			{
				"x": 3.5272276582,
				"y": 3.9933157219,
				"z": 0.4179581307,
				"element": "H" 
			},
			{
				"x": 1.6976080685,
				"y": 2.572865378,
				"z": -0.2307835608,
				"element": "H" 
			},
			{
				"x": 5.5019992103,
				"y": 4.414619216,
				"z": 0.8557452118,
				"element": "H" 
			},
			{
				"x": 6.5113357942,
				"y": 4.9994454009,
				"z": 2.1546474665,
				"element": "H" 
			},
			{
				"x": 4.8147737271,
				"y": 6.7700369692,
				"z": 2.7259930901,
				"element": "H" 
			},
			{
				"x": 3.7654824547,
				"y": 6.1891556219,
				"z": 1.4270341386,
				"element": "H" 
			},
			{
				"x": 5.3424408553,
				"y": 6.9052869924,
				"z": 1.0398305923,
				"element": "H" 
			},
			{
				"x": 4.5313964656,
				"y": 3.8388373824,
				"z": 4.8595777374,
				"element": "H" 
			},
			{
				"x": 5.757450148,
				"y": 4.9732072801,
				"z": 4.3508396818,
				"element": "H" 
			},
			{
				"x": 7.29514536,
				"y": 3.0829546252,
				"z": 3.7155440259,
				"element": "H" 
			},
			{
				"x": 6.8134360595,
				"y": 2.9760756144,
				"z": 5.4173395211,
				"element": "H" 
			},
			{
				"x": 6.0660358422,
				"y": 1.9121043534,
				"z": 4.2095945377,
				"element": "H" 
			},
			{
				"x": -2.9389707664,
				"y": -2.7676338508,
				"z": 0.5395138913,
				"element": "H" 
			},
			{
				"x": -4.0589839275,
				"y": -4.9040946489,
				"z": 0.7953507213,
				"element": "H" 
			}
		],
		 "valence_orbital": [ 
			{
				"type": "occ",
				"energy": -0.23613,
				"method": "rhf"
			},
			{
				"type": "occ",
				"energy": -0.23385,
				"method": "rhf"
			},
			{
				"type": "occ",
				"energy": -0.21459,
				"method": "rhf"
			},
			{
				"type": "occ",
				"energy": -0.18273,
				"method": "rhf"
			},
			{
				"type": "occ",
				"energy": -0.1712,
				"method": "rhf"
			},
			{
				"type": "unocc",
				"energy": -0.05901,
				"method": "rhf"
			},
			{
				"type": "unocc",
				"energy": -0.00612,
				"method": "rhf"
			},
			{
				"type": "unocc",
				"energy": 0.0046,
				"method": "rhf"
			},
			{
				"type": "unocc",
				"energy": 0.01557,
				"method": "rhf"
			},
			{
				"type": "unocc",
				"energy": 0.04329,
				"method": "rhf"
			}
		],
		"cosmo_sigma_profile": { 
			"-0.025": 0.0,
			"-0.024": 0.0,
			"-0.023": 0.0,
			"-0.022": 0.0,
			"-0.021": 0.0,
			"-0.02": 0.0,
			"-0.019": 0.0,
			"-0.018": 0.0,
			"-0.017": 0.0,
			"-0.016": 0.0,
			"-0.015": 0.0,
			"-0.014": 0.0,
			"-0.013": 0.0,
			"-0.012": 0.0,
			"-0.011": 0.0,
			"-0.01": 0.0,
			"-0.009": 0.0,
			"-0.008": 0.0,
			"-0.007": 0.434723914775,
			"-0.006": 8.06606058055,
			"-0.005": 24.8583998814,
			"-0.004": 46.2281608684,
			"-0.003": 68.9490784572,
			"-0.002": 68.5049248597,
			"-0.001": 52.4948582635,
			"0.0": 46.7446159449,
			"0.001": 38.5564879204,
			"0.002": 22.1281791056,
			"0.003": 19.817218692,
			"0.004": 26.0783347033,
			"0.005": 33.8670281893,
			"0.006": 24.0473286416,
			"0.007": 4.09630488467,
			"0.008": 2.48267099708,
			"0.009": 2.44740852416,
			"0.01": 1.40877545325,
			"0.011": 1.98789499883,
			"0.012": 2.24452255241,
			"0.013": 2.34417191248,
			"0.014": 1.72945835853,
			"0.015": 0.0591526469235,
			"0.016": 0.0,
			"0.017": 0.0,
			"0.018": 0.0,
			"0.019": 0.0,
			"0.02": 0.0,
			"0.021": 0.0,
			"0.022": 0.0,
			"0.023": 0.0,
			"0.024": 0.0,
			"0.025": 0.0
		}
	}
}
