{
	 "smiles": "CCOC(=O)CNC1=C(C=CC=C1)C1=CC=CC=C1", 
	 "Tm": 327.15, 
	 "num_atms": 36, 
	 "gaussian": { 
		 "optdone": 1, 
		 "sigma_profile": "yes", 
		 "theory": "DFT", 
		 "functional": "B3LYP", 
		 "basiset": "6-31G**", 
		 "properties": { 
			 "R2extent": 5924.6179, 
			 "electric_dipole_moment_norm": 2.53805955407, 
			 "electric_quadrupole_moment_norm": 9.19197090944, 
			 "total_energy": -825.166420289, 
			 "HOMO_LUMO_gap": 0.17471, 
			 "cosmo_polarized_energy": -11.54, 
			 "cosmo_cavitation_energy": 39.63, 
			 "cosmo_dispersion_energy": -26.6, 
			 "cosmo_repulsion_energy": 2.11, 
			 "cosmo_total_nonelectrostatic_energy": 15.14, 
			 "SMD_solvation_energy": 6.98 
		},
		"coords": [
			{
				"x": -0.6198442992,
				"y": -2.9646611258,
				"z": 2.6027661532,
				"element": "C" 
			},
			{
				"x": 0.3188255127,
				"y": -3.0895425407,
				"z": 1.4183872847,
				"element": "C" 
			},
			{
				"x": 0.012429183,
				"y": -2.0092453577,
				"z": 0.5039459154,
				"element": "O" 
			},
			{
				"x": 0.7814274371,
				"y": -1.9348422905,
				"z": -0.5972593798,
				"element": "C" 
			},
			{
				"x": 1.6640157595,
				"y": -2.7187311712,
				"z": -0.8724513313,
				"element": "O" 
			},
			{
				"x": 0.3671754336,
				"y": -0.7634130911,
				"z": -1.4979048283,
				"element": "C" 
			},
			{
				"x": -0.121541974,
				"y": 0.4268347828,
				"z": -0.8434622907,
				"element": "N" 
			},
			{
				"x": 0.6919672075,
				"y": 1.1767927775,
				"z": 0.0122034154,
				"element": "C" 
			},
			{
				"x": 0.1095428268,
				"y": 2.1631172227,
				"z": 0.8556369333,
				"element": "C" 
			},
			{
				"x": 0.9462294461,
				"y": 2.9065297745,
				"z": 1.6972700568,
				"element": "C" 
			},
			{
				"x": 2.3286329072,
				"y": 2.7215891263,
				"z": 1.7208105407,
				"element": "C" 
			},
			{
				"x": 2.8913405775,
				"y": 1.7589454757,
				"z": 0.8860932956,
				"element": "C" 
			},
			{
				"x": 2.0851790571,
				"y": 0.9902371699,
				"z": 0.0474907489,
				"element": "C" 
			},
			{
				"x": -1.3595151113,
				"y": 2.4168438063,
				"z": 0.8862324267,
				"element": "C" 
			},
			{
				"x": -2.0909719075,
				"y": 2.684816264,
				"z": -0.2858170579,
				"element": "C" 
			},
			{
				"x": -3.4566576908,
				"y": 2.9648439312,
				"z": -0.2294345403,
				"element": "C" 
			},
			{
				"x": -4.1226583393,
				"y": 2.9844426337,
				"z": 0.9974914448,
				"element": "C" 
			},
			{
				"x": -3.4107544161,
				"y": 2.7215373449,
				"z": 2.169292774,
				"element": "C" 
			},
			{
				"x": -2.0460998146,
				"y": 2.4391837067,
				"z": 2.1131221788,
				"element": "C" 
			},
			{
				"x": -1.6639196804,
				"y": -3.0430555604,
				"z": 2.2860041597,
				"element": "H" 
			},
			{
				"x": -0.4177253914,
				"y": -3.7648199632,
				"z": 3.3216417406,
				"element": "H" 
			},
			{
				"x": -0.4838686181,
				"y": -2.0043592841,
				"z": 3.1079872387,
				"element": "H" 
			},
			{
				"x": 1.3693587857,
				"y": -3.0090218709,
				"z": 1.7135730321,
				"element": "H" 
			},
			{
				"x": 0.1962925035,
				"y": -4.0412202319,
				"z": 0.8913914974,
				"element": "H" 
			},
			{
				"x": -0.4244488566,
				"y": -1.1340719956,
				"z": -2.159718718,
				"element": "H" 
			},
			{
				"x": 1.2240849347,
				"y": -0.5389036854,
				"z": -2.1383287733,
				"element": "H" 
			},
			{
				"x": -1.0804732639,
				"y": 0.3612222576,
				"z": -0.5305897539,
				"element": "H" 
			},
			{
				"x": 0.4926165997,
				"y": 3.6633137854,
				"z": 2.3313476376,
				"element": "H" 
			},
			{
				"x": 2.9510502196,
				"y": 3.3224119087,
				"z": 2.3763579028,
				"element": "H" 
			},
			{
				"x": 3.9648582078,
				"y": 1.5916355258,
				"z": 0.886418734,
				"element": "H" 
			},
			{
				"x": 2.5481529376,
				"y": 0.2306050272,
				"z": -0.5724349555,
				"element": "H" 
			},
			{
				"x": -1.5780893017,
				"y": 2.6870727486,
				"z": -1.2425594047,
				"element": "H" 
			},
			{
				"x": -3.9990636987,
				"y": 3.1777887039,
				"z": -1.1465650719,
				"element": "H" 
			},
			{
				"x": -5.1859396416,
				"y": 3.2023929184,
				"z": 1.0398404987,
				"element": "H" 
			},
			{
				"x": -3.9194667027,
				"y": 2.7303341109,
				"z": 3.1293593767,
				"element": "H" 
			},
			{
				"x": -1.4997408287,
				"y": 2.2222971656,
				"z": 3.0265611187,
				"element": "H" 
			}
		],
		 "valence_orbital": [ 
			{
				"type": "occ",
				"energy": -0.2689,
				"method": "rhf"
			},
			{
				"type": "occ",
				"energy": -0.26389,
				"method": "rhf"
			},
			{
				"type": "occ",
				"energy": -0.25104,
				"method": "rhf"
			},
			{
				"type": "occ",
				"energy": -0.23079,
				"method": "rhf"
			},
			{
				"type": "occ",
				"energy": -0.19464,
				"method": "rhf"
			},
			{
				"type": "unocc",
				"energy": -0.01993,
				"method": "rhf"
			},
			{
				"type": "unocc",
				"energy": -0.00354,
				"method": "rhf"
			},
			{
				"type": "unocc",
				"energy": 0.0056,
				"method": "rhf"
			},
			{
				"type": "unocc",
				"energy": 0.01912,
				"method": "rhf"
			},
			{
				"type": "unocc",
				"energy": 0.02795,
				"method": "rhf"
			}
		],
		"cosmo_sigma_profile": { 
			"-0.025": 0.0,
			"-0.024": 0.0,
			"-0.023": 0.0,
			"-0.022": 0.0,
			"-0.021": 0.0,
			"-0.02": 0.0,
			"-0.019": 0.0,
			"-0.018": 0.0,
			"-0.017": 0.0,
			"-0.016": 0.0,
			"-0.015": 0.0,
			"-0.014": 0.0,
			"-0.013": 0.0,
			"-0.012": 0.0121099444664,
			"-0.011": 0.738943308148,
			"-0.01": 0.512954187189,
			"-0.009": 1.39911732218,
			"-0.008": 3.54391409342,
			"-0.007": 4.11045228957,
			"-0.006": 9.29830798839,
			"-0.005": 24.6199312179,
			"-0.004": 33.2502095528,
			"-0.003": 34.985091246,
			"-0.002": 27.0028674596,
			"-0.001": 23.6544744593,
			"0.0": 23.0485423357,
			"0.001": 16.7594705357,
			"0.002": 17.9391294144,
			"0.003": 18.1139945066,
			"0.004": 17.7619915064,
			"0.005": 20.1926305459,
			"0.006": 16.7862607657,
			"0.007": 6.20247088418,
			"0.008": 2.27265709139,
			"0.009": 2.00875188681,
			"0.01": 1.53752442543,
			"0.011": 2.89419517284,
			"0.012": 4.8510001282,
			"0.013": 0.993382502675,
			"0.014": 0.0,
			"0.015": 0.0,
			"0.016": 0.0,
			"0.017": 0.0,
			"0.018": 0.0,
			"0.019": 0.0,
			"0.02": 0.0,
			"0.021": 0.0,
			"0.022": 0.0,
			"0.023": 0.0,
			"0.024": 0.0,
			"0.025": 0.0
		}
	}
}
