{
	 "smiles": "COC1=CC=C(CO)C=C1OCC1=CC=CC=C1", 
	 "Tm": 358.15, 
	 "num_atms": 34, 
	 "gaussian": { 
		 "optdone": 1, 
		 "sigma_profile": "yes", 
		 "theory": "DFT", 
		 "functional": "B3LYP", 
		 "basiset": "6-31G**", 
		 "properties": { 
			 "R2extent": 5317.3931, 
			 "electric_dipole_moment_norm": 1.59069431381, 
			 "electric_quadrupole_moment_norm": 11.7123848823, 
			 "total_energy": -806.875124969, 
			 "HOMO_LUMO_gap": 0.19404, 
			 "cosmo_polarized_energy": -13.42, 
			 "cosmo_cavitation_energy": 37.52, 
			 "cosmo_dispersion_energy": -25.89, 
			 "cosmo_repulsion_energy": 2.04, 
			 "cosmo_total_nonelectrostatic_energy": 13.66, 
			 "SMD_solvation_energy": 7.24 
		},
		"coords": [
			{
				"x": 0.204111967,
				"y": -0.2582503799,
				"z": 4.3137936511,
				"element": "C" 
			},
			{
				"x": 0.4655901773,
				"y": -0.3305020625,
				"z": 2.9236250469,
				"element": "O" 
			},
			{
				"x": -0.5854717279,
				"y": -0.1703794303,
				"z": 2.0687533553,
				"element": "C" 
			},
			{
				"x": -1.9020427185,
				"y": 0.0755802833,
				"z": 2.4527091808,
				"element": "C" 
			},
			{
				"x": -2.9059182213,
				"y": 0.237005676,
				"z": 1.4885720149,
				"element": "C" 
			},
			{
				"x": -2.6072978757,
				"y": 0.1439734398,
				"z": 0.1335866545,
				"element": "C" 
			},
			{
				"x": -3.6856090984,
				"y": 0.2808294274,
				"z": -0.9230595543,
				"element": "C" 
			},
			{
				"x": -3.2254272327,
				"y": 0.8595439902,
				"z": -2.1381115342,
				"element": "O" 
			},
			{
				"x": -1.279765518,
				"y": -0.1014237942,
				"z": -0.2576197995,
				"element": "C" 
			},
			{
				"x": -0.2724294314,
				"y": -0.2607320728,
				"z": 0.6881198924,
				"element": "C" 
			},
			{
				"x": 1.0420820412,
				"y": -0.5137398074,
				"z": 0.4070408333,
				"element": "O" 
			},
			{
				"x": 1.4415440044,
				"y": -0.6526429381,
				"z": -0.9531192048,
				"element": "C" 
			},
			{
				"x": 1.5655767371,
				"y": 0.6641926148,
				"z": -1.6966508527,
				"element": "C" 
			},
			{
				"x": 1.98168437,
				"y": 1.8213703636,
				"z": -1.0272676971,
				"element": "C" 
			},
			{
				"x": 2.1463497356,
				"y": 3.0182293537,
				"z": -1.7243553458,
				"element": "C" 
			},
			{
				"x": 1.9043221263,
				"y": 3.0711083272,
				"z": -3.0993320136,
				"element": "C" 
			},
			{
				"x": 1.4905632831,
				"y": 1.9207527938,
				"z": -3.7727080238,
				"element": "C" 
			},
			{
				"x": 1.3184107388,
				"y": 0.7250034512,
				"z": -3.072583741,
				"element": "C" 
			},
			{
				"x": -0.1914455162,
				"y": 0.7244833878,
				"z": 4.6036465431,
				"element": "H" 
			},
			{
				"x": -0.5023336355,
				"y": -1.0348735108,
				"z": 4.6359744288,
				"element": "H" 
			},
			{
				"x": 1.1631029497,
				"y": -0.418423117,
				"z": 4.8093097083,
				"element": "H" 
			},
			{
				"x": -2.1563816148,
				"y": 0.1547899896,
				"z": 3.5030640392,
				"element": "H" 
			},
			{
				"x": -3.924128341,
				"y": 0.4402866521,
				"z": 1.8104256644,
				"element": "H" 
			},
			{
				"x": -4.0675801342,
				"y": -0.7068468905,
				"z": -1.2102187021,
				"element": "H" 
			},
			{
				"x": -4.5380121423,
				"y": 0.8405552149,
				"z": -0.5057126973,
				"element": "H" 
			},
			{
				"x": -2.7979720248,
				"y": 1.6973501224,
				"z": -1.9139440797,
				"element": "H" 
			},
			{
				"x": -1.0563516633,
				"y": -0.1353087957,
				"z": -1.3165325867,
				"element": "H" 
			},
			{
				"x": 0.7709374223,
				"y": -1.3379809256,
				"z": -1.4881397686,
				"element": "H" 
			},
			{
				"x": 2.421382903,
				"y": -1.1386245836,
				"z": -0.8891315401,
				"element": "H" 
			},
			{
				"x": 2.1642004297,
				"y": 1.7762151446,
				"z": 0.0420644254,
				"element": "H" 
			},
			{
				"x": 2.4654709362,
				"y": 3.9112168167,
				"z": -1.1940056258,
				"element": "H" 
			},
			{
				"x": 2.0337973715,
				"y": 4.0036790189,
				"z": -3.64114407,
				"element": "H" 
			},
			{
				"x": 1.292495877,
				"y": 1.9544864937,
				"z": -4.840308593,
				"element": "H" 
			},
			{
				"x": 0.9851438258,
				"y": -0.1659242532,
				"z": -3.6003400082,
				"element": "H" 
			}
		],
		 "valence_orbital": [ 
			{
				"type": "occ",
				"energy": -0.26804,
				"method": "rhf"
			},
			{
				"type": "occ",
				"energy": -0.2498,
				"method": "rhf"
			},
			{
				"type": "occ",
				"energy": -0.24472,
				"method": "rhf"
			},
			{
				"type": "occ",
				"energy": -0.23104,
				"method": "rhf"
			},
			{
				"type": "occ",
				"energy": -0.1989,
				"method": "rhf"
			},
			{
				"type": "unocc",
				"energy": -0.00486,
				"method": "rhf"
			},
			{
				"type": "unocc",
				"energy": -0.00242,
				"method": "rhf"
			},
			{
				"type": "unocc",
				"energy": 0.01161,
				"method": "rhf"
			},
			{
				"type": "unocc",
				"energy": 0.01509,
				"method": "rhf"
			},
			{
				"type": "unocc",
				"energy": 0.09149,
				"method": "rhf"
			}
		],
		"cosmo_sigma_profile": { 
			"-0.025": 0.0,
			"-0.024": 0.0,
			"-0.023": 0.0,
			"-0.022": 0.0,
			"-0.021": 0.0,
			"-0.02": 0.0,
			"-0.019": 0.0,
			"-0.018": 0.0,
			"-0.017": 0.0,
			"-0.016": 0.0307740880994,
			"-0.015": 0.712042265074,
			"-0.014": 0.52001911652,
			"-0.013": 0.907135073916,
			"-0.012": 0.838568998855,
			"-0.011": 1.16017632455,
			"-0.01": 0.707858616081,
			"-0.009": 0.158989859635,
			"-0.008": 0.892036207613,
			"-0.007": 2.48637361163,
			"-0.006": 15.2201477068,
			"-0.005": 29.4827300146,
			"-0.004": 32.9891583189,
			"-0.003": 32.2441083997,
			"-0.002": 20.8516771002,
			"-0.001": 18.2866676767,
			"0.0": 14.7102358955,
			"0.001": 13.9507589691,
			"0.002": 17.5306460853,
			"0.003": 17.2109245129,
			"0.004": 18.8382495855,
			"0.005": 20.0310702393,
			"0.006": 14.2405287986,
			"0.007": 3.19170826022,
			"0.008": 2.16785822567,
			"0.009": 3.6513743648,
			"0.01": 2.21858574966,
			"0.011": 2.80428931746,
			"0.012": 2.31062421246,
			"0.013": 3.01297906381,
			"0.014": 3.2480730916,
			"0.015": 0.809255357432,
			"0.016": 0.0,
			"0.017": 0.0,
			"0.018": 0.0,
			"0.019": 0.0,
			"0.02": 0.0,
			"0.021": 0.0,
			"0.022": 0.0,
			"0.023": 0.0,
			"0.024": 0.0,
			"0.025": 0.0
		}
	}
}
