{
	 "smiles": "OC1=C(C=CC=C1C1=CC=CC=C1)C1=CC=CC=C1", 
	 "Tm": 375.15, 
	 "num_atms": 33, 
	 "gaussian": { 
		 "optdone": 1, 
		 "sigma_profile": "yes", 
		 "theory": "DFT", 
		 "functional": "B3LYP", 
		 "basiset": "6-31G**", 
		 "properties": { 
			 "R2extent": 6610.1216, 
			 "electric_dipole_moment_norm": 1.99992756619, 
			 "electric_quadrupole_moment_norm": 9.4493352126, 
			 "total_energy": -769.587278701, 
			 "HOMO_LUMO_gap": 0.18036, 
			 "cosmo_polarized_energy": -8.97, 
			 "cosmo_cavitation_energy": 36.41, 
			 "cosmo_dispersion_energy": -26.39, 
			 "cosmo_repulsion_energy": 2.01, 
			 "cosmo_total_nonelectrostatic_energy": 12.04, 
			 "SMD_solvation_energy": 5.92 
		},
		"coords": [
			{
				"x": -0.5978332999,
				"y": 0.0319671308,
				"z": 0.2146229346,
				"element": "O" 
			},
			{
				"x": 0.0681483508,
				"y": 0.9360885419,
				"z": -0.5646352298,
				"element": "C" 
			},
			{
				"x": 0.4644438102,
				"y": 2.1922717296,
				"z": -0.055160295,
				"element": "C" 
			},
			{
				"x": 1.1944370384,
				"y": 3.0565317985,
				"z": -0.8833390451,
				"element": "C" 
			},
			{
				"x": 1.5094922665,
				"y": 2.6993317398,
				"z": -2.1908755962,
				"element": "C" 
			},
			{
				"x": 1.0977720772,
				"y": 1.461498227,
				"z": -2.6801442858,
				"element": "C" 
			},
			{
				"x": 0.3793674489,
				"y": 0.5534339198,
				"z": -1.8878628601,
				"element": "C" 
			},
			{
				"x": -0.0047299143,
				"y": -0.7716975245,
				"z": -2.4463514145,
				"element": "C" 
			},
			{
				"x": -1.2863150912,
				"y": -1.3177328217,
				"z": -2.2592358761,
				"element": "C" 
			},
			{
				"x": -1.6334596733,
				"y": -2.5377285038,
				"z": -2.8370351593,
				"element": "C" 
			},
			{
				"x": -0.7093528926,
				"y": -3.2430704585,
				"z": -3.6107778315,
				"element": "C" 
			},
			{
				"x": 0.5689798806,
				"y": -2.7166769393,
				"z": -3.8004180799,
				"element": "C" 
			},
			{
				"x": 0.9159515077,
				"y": -1.4951055873,
				"z": -3.2240536128,
				"element": "C" 
			},
			{
				"x": 0.1435096246,
				"y": 2.5892393725,
				"z": 1.3445132663,
				"element": "C" 
			},
			{
				"x": -1.1722966111,
				"y": 2.5282974955,
				"z": 1.8427217148,
				"element": "C" 
			},
			{
				"x": -1.462070403,
				"y": 2.9205038619,
				"z": 3.1511957232,
				"element": "C" 
			},
			{
				"x": -0.446202972,
				"y": 3.3864223866,
				"z": 3.986278912,
				"element": "C" 
			},
			{
				"x": 0.8628959357,
				"y": 3.4584080768,
				"z": 3.5038877601,
				"element": "C" 
			},
			{
				"x": 1.154874769,
				"y": 3.0603089235,
				"z": 2.20033088,
				"element": "C" 
			},
			{
				"x": -0.6300646503,
				"y": 0.3702667425,
				"z": 1.1219326205,
				"element": "H" 
			},
			{
				"x": 1.4889823367,
				"y": 4.0265269912,
				"z": -0.49331175,
				"element": "H" 
			},
			{
				"x": 2.0568220941,
				"y": 3.3854040227,
				"z": -2.8296688002,
				"element": "H" 
			},
			{
				"x": 1.3187931454,
				"y": 1.1869990412,
				"z": -3.7071621123,
				"element": "H" 
			},
			{
				"x": -2.011315049,
				"y": -0.7801823516,
				"z": -1.6592877191,
				"element": "H" 
			},
			{
				"x": -2.6321031348,
				"y": -2.9377399901,
				"z": -2.684073153,
				"element": "H" 
			},
			{
				"x": -0.9818497405,
				"y": -4.1951355698,
				"z": -4.0573445637,
				"element": "H" 
			},
			{
				"x": 1.3010853923,
				"y": -3.2597674478,
				"z": -4.3917451662,
				"element": "H" 
			},
			{
				"x": 1.9197134046,
				"y": -1.1029292356,
				"z": -3.3600827194,
				"element": "H" 
			},
			{
				"x": -1.9770417438,
				"y": 2.2032780626,
				"z": 1.1887428714,
				"element": "H" 
			},
			{
				"x": -2.4857234255,
				"y": 2.8726759354,
				"z": 3.5116701,
				"element": "H" 
			},
			{
				"x": -0.6717563377,
				"y": 3.692739802,
				"z": 5.0034909665,
				"element": "H" 
			},
			{
				"x": 1.6606576505,
				"y": 3.8177546029,
				"z": 4.1478298005,
				"element": "H" 
			},
			{
				"x": 2.177188206,
				"y": 3.1007180254,
				"z": 1.8359477201,
				"element": "H" 
			}
		],
		 "valence_orbital": [ 
			{
				"type": "occ",
				"energy": -0.26059,
				"method": "rhf"
			},
			{
				"type": "occ",
				"energy": -0.25715,
				"method": "rhf"
			},
			{
				"type": "occ",
				"energy": -0.24086,
				"method": "rhf"
			},
			{
				"type": "occ",
				"energy": -0.2233,
				"method": "rhf"
			},
			{
				"type": "occ",
				"energy": -0.20939,
				"method": "rhf"
			},
			{
				"type": "unocc",
				"energy": -0.02903,
				"method": "rhf"
			},
			{
				"type": "unocc",
				"energy": -0.01504,
				"method": "rhf"
			},
			{
				"type": "unocc",
				"energy": -0.01315,
				"method": "rhf"
			},
			{
				"type": "unocc",
				"energy": 0.00864,
				"method": "rhf"
			},
			{
				"type": "unocc",
				"energy": 0.02088,
				"method": "rhf"
			}
		],
		"cosmo_sigma_profile": { 
			"-0.025": 0.0,
			"-0.024": 0.0,
			"-0.023": 0.0,
			"-0.022": 0.0,
			"-0.021": 0.0,
			"-0.02": 0.0,
			"-0.019": 0.0,
			"-0.018": 0.0,
			"-0.017": 0.0,
			"-0.016": 0.0,
			"-0.015": 0.0,
			"-0.014": 0.140767327,
			"-0.013": 0.320409107389,
			"-0.012": 0.298656748684,
			"-0.011": 0.776533835737,
			"-0.01": 0.948009062172,
			"-0.009": 0.901882332831,
			"-0.008": 0.977348536669,
			"-0.007": 0.998782515378,
			"-0.006": 11.4552851006,
			"-0.005": 25.595852882,
			"-0.004": 30.8219815427,
			"-0.003": 26.8466221188,
			"-0.002": 20.1551114978,
			"-0.001": 19.0434471914,
			"0.0": 16.165443038,
			"0.001": 20.4910973242,
			"0.002": 20.7901390068,
			"0.003": 24.6306945221,
			"0.004": 23.6690512571,
			"0.005": 24.6097522671,
			"0.006": 14.3027869634,
			"0.007": 2.68643686697,
			"0.008": 1.77566494813,
			"0.009": 1.41738751744,
			"0.01": 1.3333719137,
			"0.011": 0.951882363751,
			"0.012": 0.0704373479207,
			"0.013": 0.0,
			"0.014": 0.0,
			"0.015": 0.0,
			"0.016": 0.0,
			"0.017": 0.0,
			"0.018": 0.0,
			"0.019": 0.0,
			"0.02": 0.0,
			"0.021": 0.0,
			"0.022": 0.0,
			"0.023": 0.0,
			"0.024": 0.0,
			"0.025": 0.0
		}
	}
}
