{
	 "smiles": "OCC1=NC(CC2=CC=C(F)C=C2)=NO1", 
	 "Tm": 327.15, 
	 "num_atms": 24, 
	 "gaussian": { 
		 "optdone": 1, 
		 "sigma_profile": "yes", 
		 "theory": "DFT", 
		 "functional": "B3LYP", 
		 "basiset": "6-31G**", 
		 "properties": { 
			 "R2extent": 4208.2843, 
			 "electric_dipole_moment_norm": 1.66434431834, 
			 "electric_quadrupole_moment_norm": 8.86734071185, 
			 "total_energy": -746.223555364, 
			 "HOMO_LUMO_gap": 0.21177, 
			 "cosmo_polarized_energy": -11.22, 
			 "cosmo_cavitation_energy": 29.96, 
			 "cosmo_dispersion_energy": -21.35, 
			 "cosmo_repulsion_energy": 1.68, 
			 "cosmo_total_nonelectrostatic_energy": 10.29, 
			 "SMD_solvation_energy": 3.99 
		},
		"coords": [
			{
				"x": 1.2804298618,
				"y": -0.8271283706,
				"z": 3.3412893591,
				"element": "O" 
			},
			{
				"x": 1.9674372088,
				"y": -1.6352472438,
				"z": 2.4187378825,
				"element": "C" 
			},
			{
				"x": 1.7230096584,
				"y": -1.1854391047,
				"z": 1.0089921336,
				"element": "C" 
			},
			{
				"x": 1.2476258044,
				"y": -0.028925178,
				"z": 0.6543460169,
				"element": "N" 
			},
			{
				"x": 1.2757970288,
				"y": -0.1119686185,
				"z": -0.7248835715,
				"element": "C" 
			},
			{
				"x": 0.7941009899,
				"y": 0.9823295011,
				"z": -1.6305862154,
				"element": "C" 
			},
			{
				"x": -0.7169074334,
				"y": 1.1518592121,
				"z": -1.589444921,
				"element": "C" 
			},
			{
				"x": -1.2992937911,
				"y": 2.2837062657,
				"z": -1.0096397581,
				"element": "C" 
			},
			{
				"x": -2.6857315772,
				"y": 2.4414903655,
				"z": -0.9736742015,
				"element": "C" 
			},
			{
				"x": -3.4831373725,
				"y": 1.4463560464,
				"z": -1.5244175272,
				"element": "C" 
			},
			{
				"x": -4.8245083441,
				"y": 1.5895285747,
				"z": -1.4961457155,
				"element": "F" 
			},
			{
				"x": -2.9386532626,
				"y": 0.3057633221,
				"z": -2.105920396,
				"element": "C" 
			},
			{
				"x": -1.5524897581,
				"y": 0.1663220968,
				"z": -2.1331632857,
				"element": "C" 
			},
			{
				"x": 1.7413063118,
				"y": -1.243274983,
				"z": -1.1915757767,
				"element": "N" 
			},
			{
				"x": 2.0451613267,
				"y": -1.9772969679,
				"z": -0.0188592148,
				"element": "O" 
			},
			{
				"x": 1.1643981388,
				"y": 0.0438599104,
				"z": 2.9327194626,
				"element": "H" 
			},
			{
				"x": 1.6327306134,
				"y": -2.6727400709,
				"z": 2.53444116,
				"element": "H" 
			},
			{
				"x": 3.0575759545,
				"y": -1.6309418886,
				"z": 2.5925593144,
				"element": "H" 
			},
			{
				"x": 1.2804736188,
				"y": 1.9157425152,
				"z": -1.3302208658,
				"element": "H" 
			},
			{
				"x": 1.1272743739,
				"y": 0.7472019415,
				"z": -2.6460854195,
				"element": "H" 
			},
			{
				"x": -0.6654064286,
				"y": 3.0544825062,
				"z": -0.5800004839,
				"element": "H" 
			},
			{
				"x": -3.1484134681,
				"y": 3.3156154692,
				"z": -0.5285917174,
				"element": "H" 
			},
			{
				"x": -3.5958746127,
				"y": -0.4482606078,
				"z": -2.5253066629,
				"element": "H" 
			},
			{
				"x": -1.1134048415,
				"y": -0.722034693,
				"z": -2.5795695962,
				"element": "H" 
			}
		],
		 "valence_orbital": [ 
			{
				"type": "occ",
				"energy": -0.30991,
				"method": "rhf"
			},
			{
				"type": "occ",
				"energy": -0.29926,
				"method": "rhf"
			},
			{
				"type": "occ",
				"energy": -0.28251,
				"method": "rhf"
			},
			{
				"type": "occ",
				"energy": -0.26491,
				"method": "rhf"
			},
			{
				"type": "occ",
				"energy": -0.24502,
				"method": "rhf"
			},
			{
				"type": "unocc",
				"energy": -0.03325,
				"method": "rhf"
			},
			{
				"type": "unocc",
				"energy": -0.01702,
				"method": "rhf"
			},
			{
				"type": "unocc",
				"energy": -0.00346,
				"method": "rhf"
			},
			{
				"type": "unocc",
				"energy": 0.03017,
				"method": "rhf"
			},
			{
				"type": "unocc",
				"energy": 0.07239,
				"method": "rhf"
			}
		],
		"cosmo_sigma_profile": { 
			"-0.025": 0.0,
			"-0.024": 0.0,
			"-0.023": 0.0,
			"-0.022": 0.0,
			"-0.021": 0.0,
			"-0.02": 0.0,
			"-0.019": 0.0,
			"-0.018": 0.0,
			"-0.017": 0.0,
			"-0.016": 0.0,
			"-0.015": 0.0,
			"-0.014": 0.0,
			"-0.013": 0.358768926725,
			"-0.012": 0.626035853185,
			"-0.011": 0.694902342271,
			"-0.01": 0.250188220764,
			"-0.009": 0.552404903117,
			"-0.008": 5.2821787124,
			"-0.007": 14.2707461732,
			"-0.006": 17.9225830471,
			"-0.005": 17.6886192682,
			"-0.004": 18.0998370993,
			"-0.003": 13.649405019,
			"-0.002": 13.7741015847,
			"-0.001": 11.1318137069,
			"0.0": 12.7882918204,
			"0.001": 16.9257608151,
			"0.002": 14.296930943,
			"0.003": 16.9457050769,
			"0.004": 22.1039163334,
			"0.005": 10.3993967303,
			"0.006": 8.49249675766,
			"0.007": 5.49469844333,
			"0.008": 2.89166820228,
			"0.009": 3.34002809824,
			"0.01": 3.26288187979,
			"0.011": 2.0515904116,
			"0.012": 3.4177464635,
			"0.013": 2.72742148754,
			"0.014": 0.172913034183,
			"0.015": 0.0,
			"0.016": 0.0,
			"0.017": 0.0,
			"0.018": 0.0,
			"0.019": 0.0,
			"0.02": 0.0,
			"0.021": 0.0,
			"0.022": 0.0,
			"0.023": 0.0,
			"0.024": 0.0,
			"0.025": 0.0
		}
	}
}
