{
	 "smiles": "CCOC(=O)C=CC(=O)OCC", 
	 "Tm": 263.25, 
	 "num_atms": 24, 
	 "gaussian": { 
		 "optdone": 1, 
		 "sigma_profile": "yes", 
		 "theory": "DFT", 
		 "functional": "B3LYP", 
		 "basiset": "6-31G**", 
		 "properties": { 
			 "R2extent": 2582.605, 
			 "electric_dipole_moment_norm": 1.93751909668, 
			 "electric_quadrupole_moment_norm": 11.2662383398, 
			 "total_energy": -612.976247265, 
			 "HOMO_LUMO_gap": 0.20298, 
			 "cosmo_polarized_energy": -10.8, 
			 "cosmo_cavitation_energy": 28.71, 
			 "cosmo_dispersion_energy": -19.15, 
			 "cosmo_repulsion_energy": 1.55, 
			 "cosmo_total_nonelectrostatic_energy": 11.11, 
			 "SMD_solvation_energy": 7.32 
		},
		"coords": [
			{
				"x": 0.6637234879,
				"y": -1.9509405389,
				"z": 1.7683284059,
				"element": "C" 
			},
			{
				"x": 1.082744305,
				"y": -0.6043134109,
				"z": 2.3391882047,
				"element": "C" 
			},
			{
				"x": 1.3763909129,
				"y": 0.361244784,
				"z": 1.2981347276,
				"element": "O" 
			},
			{
				"x": 2.5921499971,
				"y": 0.265357374,
				"z": 0.7318949183,
				"element": "C" 
			},
			{
				"x": 3.4400890524,
				"y": -0.5445410228,
				"z": 1.0542023236,
				"element": "O" 
			},
			{
				"x": 2.8659100912,
				"y": 1.3083747648,
				"z": -0.2971919849,
				"element": "C" 
			},
			{
				"x": 2.0519603363,
				"y": 1.8697293451,
				"z": -1.2014102313,
				"element": "C" 
			},
			{
				"x": 0.6021382875,
				"y": 1.6458204552,
				"z": -1.4655059574,
				"element": "C" 
			},
			{
				"x": -0.1197973536,
				"y": 2.548533688,
				"z": -1.8432902604,
				"element": "O" 
			},
			{
				"x": 0.2103196005,
				"y": 0.3679933328,
				"z": -1.3188121775,
				"element": "O" 
			},
			{
				"x": -1.1829839776,
				"y": 0.0933771588,
				"z": -1.6114769932,
				"element": "C" 
			},
			{
				"x": -2.0945387648,
				"y": 0.4604244075,
				"z": -0.449890167,
				"element": "C" 
			},
			{
				"x": 0.3810791973,
				"y": -2.6233470804,
				"z": 2.5852863865,
				"element": "H" 
			},
			{
				"x": -0.1939173406,
				"y": -1.8439893932,
				"z": 1.0985635809,
				"element": "H" 
			},
			{
				"x": 1.4882267022,
				"y": -2.4072366,
				"z": 1.2166485809,
				"element": "H" 
			},
			{
				"x": 1.9646217095,
				"y": -0.7082249969,
				"z": 2.9766045964,
				"element": "H" 
			},
			{
				"x": 0.2757276874,
				"y": -0.1398206856,
				"z": 2.9102190547,
				"element": "H" 
			},
			{
				"x": 3.9121200668,
				"y": 1.6029429928,
				"z": -0.2988959526,
				"element": "H" 
			},
			{
				"x": 2.4602988793,
				"y": 2.6443351266,
				"z": -1.8452833411,
				"element": "H" 
			},
			{
				"x": -1.2033811483,
				"y": -0.9793199508,
				"z": -1.8164470328,
				"element": "H" 
			},
			{
				"x": -1.4634186069,
				"y": 0.6405352816,
				"z": -2.5152310665,
				"element": "H" 
			},
			{
				"x": -3.1236520568,
				"y": 0.1692089381,
				"z": -0.685613849,
				"element": "H" 
			},
			{
				"x": -2.0740433383,
				"y": 1.5374931836,
				"z": -0.2713515655,
				"element": "H" 
			},
			{
				"x": -1.7921677264,
				"y": -0.0558371535,
				"z": 0.4653297995,
				"element": "H" 
			}
		],
		 "valence_orbital": [ 
			{
				"type": "occ",
				"energy": -0.30728,
				"method": "rhf"
			},
			{
				"type": "occ",
				"energy": -0.30024,
				"method": "rhf"
			},
			{
				"type": "occ",
				"energy": -0.29725,
				"method": "rhf"
			},
			{
				"type": "occ",
				"energy": -0.27969,
				"method": "rhf"
			},
			{
				"type": "occ",
				"energy": -0.27107,
				"method": "rhf"
			},
			{
				"type": "unocc",
				"energy": -0.06809,
				"method": "rhf"
			},
			{
				"type": "unocc",
				"energy": 0.0231,
				"method": "rhf"
			},
			{
				"type": "unocc",
				"energy": 0.06182,
				"method": "rhf"
			},
			{
				"type": "unocc",
				"energy": 0.07876,
				"method": "rhf"
			},
			{
				"type": "unocc",
				"energy": 0.1141,
				"method": "rhf"
			}
		],
		"cosmo_sigma_profile": { 
			"-0.025": 0.0,
			"-0.024": 0.0,
			"-0.023": 0.0,
			"-0.022": 0.0,
			"-0.021": 0.0,
			"-0.02": 0.0,
			"-0.019": 0.0,
			"-0.018": 0.0,
			"-0.017": 0.0,
			"-0.016": 0.0,
			"-0.015": 0.0,
			"-0.014": 0.0,
			"-0.013": 0.0,
			"-0.012": 0.0,
			"-0.011": 0.0,
			"-0.01": 0.0,
			"-0.009": 0.876027078151,
			"-0.008": 4.41985619034,
			"-0.007": 3.99880522277,
			"-0.006": 7.6208306557,
			"-0.005": 13.2713309514,
			"-0.004": 27.145119113,
			"-0.003": 26.6987621785,
			"-0.002": 18.7646045123,
			"-0.001": 19.9515869914,
			"0.0": 24.3424896898,
			"0.001": 16.018874307,
			"0.002": 8.83116277315,
			"0.003": 8.34308973634,
			"0.004": 6.51042789348,
			"0.005": 7.09795427036,
			"0.006": 5.18113570116,
			"0.007": 3.79873899222,
			"0.008": 2.77967214503,
			"0.009": 3.1345051681,
			"0.01": 3.94043952103,
			"0.011": 6.96621697736,
			"0.012": 6.14875291937,
			"0.013": 0.635270331066,
			"0.014": 0.0,
			"0.015": 0.0,
			"0.016": 0.0,
			"0.017": 0.0,
			"0.018": 0.0,
			"0.019": 0.0,
			"0.02": 0.0,
			"0.021": 0.0,
			"0.022": 0.0,
			"0.023": 0.0,
			"0.024": 0.0,
			"0.025": 0.0
		}
	}
}
