{
	 "smiles": "ClC1=NSC2=CC=CC=C12", 
	 "Tm": 312.15, 
	 "num_atms": 14, 
	 "gaussian": { 
		 "optdone": 1, 
		 "sigma_profile": "yes", 
		 "theory": "DFT", 
		 "functional": "B3LYP", 
		 "basiset": "6-31G**", 
		 "properties": { 
			 "R2extent": 1945.483, 
			 "electric_dipole_moment_norm": 3.74851857405, 
			 "electric_quadrupole_moment_norm": 6.10343035268, 
			 "total_energy": -1182.27770179, 
			 "HOMO_LUMO_gap": 0.18211, 
			 "cosmo_polarized_energy": -6.02, 
			 "cosmo_cavitation_energy": 21.68, 
			 "cosmo_dispersion_energy": -17.11, 
			 "cosmo_repulsion_energy": 1.32, 
			 "cosmo_total_nonelectrostatic_energy": 5.88, 
			 "SMD_solvation_energy": 1.71 
		},
		"coords": [
			{
				"x": -2.1365345254,
				"y": 1.3823326261,
				"z": -1.5848359039,
				"element": "Cl" 
			},
			{
				"x": -0.7878515228,
				"y": 0.2750661625,
				"z": -1.5266057426,
				"element": "C" 
			},
			{
				"x": -0.4877169748,
				"y": -0.4230933839,
				"z": -2.5755951094,
				"element": "N" 
			},
			{
				"x": 0.8531958776,
				"y": -1.4060032063,
				"z": -2.2403489656,
				"element": "S" 
			},
			{
				"x": 1.0187577866,
				"y": -0.8430257027,
				"z": -0.5898716151,
				"element": "C" 
			},
			{
				"x": 1.9443271459,
				"y": -1.1990099719,
				"z": 0.3998273571,
				"element": "C" 
			},
			{
				"x": 1.8400720445,
				"y": -0.5836941695,
				"z": 1.6406931359,
				"element": "C" 
			},
			{
				"x": 0.8362759955,
				"y": 0.3710087558,
				"z": 1.9042395061,
				"element": "C" 
			},
			{
				"x": -0.0805180212,
				"y": 0.7246574938,
				"z": 0.9264148859,
				"element": "C" 
			},
			{
				"x": 0.0105826791,
				"y": 0.1118870714,
				"z": -0.3344754158,
				"element": "C" 
			},
			{
				"x": 2.7202239876,
				"y": -1.9328401327,
				"z": 0.2057794493,
				"element": "H" 
			},
			{
				"x": 2.5459944078,
				"y": -0.8430183367,
				"z": 2.4241376177,
				"element": "H" 
			},
			{
				"x": 0.78428233,
				"y": 0.8320119864,
				"z": 2.8855116563,
				"element": "H" 
			},
			{
				"x": -0.8571912104,
				"y": 1.4579208076,
				"z": 1.1176291442,
				"element": "H" 
			}
		],
		 "valence_orbital": [ 
			{
				"type": "occ",
				"energy": -0.3245,
				"method": "rhf"
			},
			{
				"type": "occ",
				"energy": -0.30973,
				"method": "rhf"
			},
			{
				"type": "occ",
				"energy": -0.29312,
				"method": "rhf"
			},
			{
				"type": "occ",
				"energy": -0.26926,
				"method": "rhf"
			},
			{
				"type": "occ",
				"energy": -0.23915,
				"method": "rhf"
			},
			{
				"type": "unocc",
				"energy": -0.05704,
				"method": "rhf"
			},
			{
				"type": "unocc",
				"energy": -0.02131,
				"method": "rhf"
			},
			{
				"type": "unocc",
				"energy": -0.0141,
				"method": "rhf"
			},
			{
				"type": "unocc",
				"energy": 0.02812,
				"method": "rhf"
			},
			{
				"type": "unocc",
				"energy": 0.03519,
				"method": "rhf"
			}
		],
		"cosmo_sigma_profile": { 
			"-0.025": 0.0,
			"-0.024": 0.0,
			"-0.023": 0.0,
			"-0.022": 0.0,
			"-0.021": 0.0,
			"-0.02": 0.0,
			"-0.019": 0.0,
			"-0.018": 0.0,
			"-0.017": 0.0,
			"-0.016": 0.0,
			"-0.015": 0.0,
			"-0.014": 0.0,
			"-0.013": 0.0,
			"-0.012": 0.0,
			"-0.011": 0.0,
			"-0.01": 0.011057717457,
			"-0.009": 0.787987651445,
			"-0.008": 2.59918865686,
			"-0.007": 6.71118005959,
			"-0.006": 9.14342995789,
			"-0.005": 9.30545699427,
			"-0.004": 7.68536385145,
			"-0.003": 9.15984375654,
			"-0.002": 13.5501685604,
			"-0.001": 16.7203580551,
			"0.0": 18.502591398,
			"0.001": 17.6013457344,
			"0.002": 22.241311476,
			"0.003": 23.3565801956,
			"0.004": 9.85397030016,
			"0.005": 3.57385899137,
			"0.006": 1.35246336821,
			"0.007": 1.24306288959,
			"0.008": 1.54691843384,
			"0.009": 1.17088512713,
			"0.01": 0.909573449032,
			"0.011": 1.26541404608,
			"0.012": 1.00791869948,
			"0.013": 0.815968738419,
			"0.014": 0.100194332826,
			"0.015": 0.0,
			"0.016": 0.0,
			"0.017": 0.0,
			"0.018": 0.0,
			"0.019": 0.0,
			"0.02": 0.0,
			"0.021": 0.0,
			"0.022": 0.0,
			"0.023": 0.0,
			"0.024": 0.0,
			"0.025": 0.0
		}
	}
}
