{
	 "smiles": "CC1=NNC(CC(=O)NN)=C1", 
	 "Tm": 425.15, 
	 "num_atms": 21, 
	 "gaussian": { 
		 "optdone": 1, 
		 "sigma_profile": "yes", 
		 "theory": "DFT", 
		 "functional": "B3LYP", 
		 "basiset": "6-31G**", 
		 "properties": { 
			 "R2extent": 2700.8894, 
			 "electric_dipole_moment_norm": 0.875020348335, 
			 "electric_quadrupole_moment_norm": 11.5185087859, 
			 "total_energy": -528.864638019, 
			 "HOMO_LUMO_gap": 0.24929, 
			 "cosmo_polarized_energy": -17.26, 
			 "cosmo_cavitation_energy": 25.43, 
			 "cosmo_dispersion_energy": -18.38, 
			 "cosmo_repulsion_energy": 1.54, 
			 "cosmo_total_nonelectrostatic_energy": 8.59, 
			 "SMD_solvation_energy": 4.55 
		},
		"coords": [
			{
				"x": 2.1256055004,
				"y": -0.4523930179,
				"z": 1.8604708677,
				"element": "C" 
			},
			{
				"x": 1.082331958,
				"y": -0.3675461119,
				"z": 0.7881640788,
				"element": "C" 
			},
			{
				"x": 1.1433569661,
				"y": -1.1644433467,
				"z": -0.2797491215,
				"element": "N" 
			},
			{
				"x": 0.071026948,
				"y": -0.8167738122,
				"z": -1.0269767987,
				"element": "N" 
			},
			{
				"x": -0.676486191,
				"y": 0.1807924788,
				"z": -0.4779419595,
				"element": "C" 
			},
			{
				"x": -1.9272621596,
				"y": 0.6987295073,
				"z": -1.1166092102,
				"element": "C" 
			},
			{
				"x": -3.2443770971,
				"y": -0.0160958867,
				"z": -0.761440535,
				"element": "C" 
			},
			{
				"x": -4.2530314347,
				"y": 0.1345863643,
				"z": -1.4392405079,
				"element": "O" 
			},
			{
				"x": -3.2204500407,
				"y": -0.7854372873,
				"z": 0.3610856484,
				"element": "N" 
			},
			{
				"x": -4.387080525,
				"y": -1.3868300984,
				"z": 0.8714491439,
				"element": "N" 
			},
			{
				"x": -0.042766036,
				"y": 0.4962916583,
				"z": 0.71392086,
				"element": "C" 
			},
			{
				"x": 2.8520117764,
				"y": -1.2279302091,
				"z": 1.6084603308,
				"element": "H" 
			},
			{
				"x": 2.6599690123,
				"y": 0.4973535473,
				"z": 1.9744675724,
				"element": "H" 
			},
			{
				"x": 1.6829241495,
				"y": -0.6961548311,
				"z": 2.832679255,
				"element": "H" 
			},
			{
				"x": -0.0938442951,
				"y": -1.2964619065,
				"z": -1.8987473749,
				"element": "H" 
			},
			{
				"x": -1.8574972459,
				"y": 0.6714008906,
				"z": -2.2086516297,
				"element": "H" 
			},
			{
				"x": -2.0647864798,
				"y": 1.7525706753,
				"z": -0.8506964842,
				"element": "H" 
			},
			{
				"x": -2.4089916698,
				"y": -0.808643257,
				"z": 0.9621619105,
				"element": "H" 
			},
			{
				"x": -5.1373332694,
				"y": -0.7011840469,
				"z": 0.7796012585,
				"element": "H" 
			},
			{
				"x": -4.64341118,
				"y": -2.1458187055,
				"z": 0.2398075634,
				"element": "H" 
			},
			{
				"x": -0.3390086866,
				"y": 1.2595873952,
				"z": 1.4197851321,
				"element": "H" 
			}
		],
		 "valence_orbital": [ 
			{
				"type": "occ",
				"energy": -0.28686,
				"method": "rhf"
			},
			{
				"type": "occ",
				"energy": -0.27022,
				"method": "rhf"
			},
			{
				"type": "occ",
				"energy": -0.26026,
				"method": "rhf"
			},
			{
				"type": "occ",
				"energy": -0.25112,
				"method": "rhf"
			},
			{
				"type": "occ",
				"energy": -0.237,
				"method": "rhf"
			},
			{
				"type": "unocc",
				"energy": 0.01229,
				"method": "rhf"
			},
			{
				"type": "unocc",
				"energy": 0.02161,
				"method": "rhf"
			},
			{
				"type": "unocc",
				"energy": 0.05716,
				"method": "rhf"
			},
			{
				"type": "unocc",
				"energy": 0.07432,
				"method": "rhf"
			},
			{
				"type": "unocc",
				"energy": 0.08732,
				"method": "rhf"
			}
		],
		"cosmo_sigma_profile": { 
			"-0.025": 0.0,
			"-0.024": 0.0,
			"-0.023": 0.0,
			"-0.022": 0.0,
			"-0.021": 0.0,
			"-0.02": 0.0,
			"-0.019": 0.0,
			"-0.018": 0.0,
			"-0.017": 0.0119052913936,
			"-0.016": 1.00035411985,
			"-0.015": 1.62770260694,
			"-0.014": 1.15345255902,
			"-0.013": 1.65747495564,
			"-0.012": 1.36131573086,
			"-0.011": 2.86424939105,
			"-0.01": 4.20658804003,
			"-0.009": 5.37094285198,
			"-0.008": 5.07237273469,
			"-0.007": 6.4395892332,
			"-0.006": 9.34910783406,
			"-0.005": 11.5230354529,
			"-0.004": 13.0189682164,
			"-0.003": 14.0312209133,
			"-0.002": 14.1175981592,
			"-0.001": 14.5289476029,
			"0.0": 15.1047127584,
			"0.001": 9.30636143492,
			"0.002": 7.97556375627,
			"0.003": 6.8584829858,
			"0.004": 5.53015174808,
			"0.005": 6.99293267593,
			"0.006": 4.22366134952,
			"0.007": 4.09686310416,
			"0.008": 3.25549149633,
			"0.009": 3.55281078651,
			"0.01": 2.6987298412,
			"0.011": 3.40647239204,
			"0.012": 4.11502884053,
			"0.013": 5.16343108973,
			"0.014": 6.10153508616,
			"0.015": 2.35713240894,
			"0.016": 1.6640315187,
			"0.017": 0.417364433364,
			"0.018": 0.0,
			"0.019": 0.0,
			"0.02": 0.0,
			"0.021": 0.0,
			"0.022": 0.0,
			"0.023": 0.0,
			"0.024": 0.0,
			"0.025": 0.0
		}
	}
}
