{
	 "smiles": "CC1=C(NC2=C1C=CC=C2)C1=CC=CC=C1", 
	 "Tm": 364.65, 
	 "num_atms": 29, 
	 "gaussian": { 
		 "optdone": 1, 
		 "sigma_profile": "yes", 
		 "theory": "DFT", 
		 "functional": "B3LYP", 
		 "basiset": "6-31G**", 
		 "properties": { 
			 "R2extent": 4681.4787, 
			 "electric_dipole_moment_norm": 1.87485558377, 
			 "electric_quadrupole_moment_norm": 9.22282967424, 
			 "total_energy": -634.204358249, 
			 "HOMO_LUMO_gap": 0.16089, 
			 "cosmo_polarized_energy": -8.76, 
			 "cosmo_cavitation_energy": 32.1, 
			 "cosmo_dispersion_energy": -23.48, 
			 "cosmo_repulsion_energy": 1.8, 
			 "cosmo_total_nonelectrostatic_energy": 10.42, 
			 "SMD_solvation_energy": 4.81 
		},
		"coords": [
			{
				"x": 0.7850247196,
				"y": 0.9233372791,
				"z": -3.0555470292,
				"element": "C" 
			},
			{
				"x": 0.1006627369,
				"y": 0.7694615835,
				"z": -1.7294850964,
				"element": "C" 
			},
			{
				"x": -0.3814492028,
				"y": -0.3892580742,
				"z": -1.1445669496,
				"element": "C" 
			},
			{
				"x": -0.8449809212,
				"y": -0.0888191472,
				"z": 0.137462854,
				"element": "N" 
			},
			{
				"x": -0.720245472,
				"y": 1.2629828279,
				"z": 0.3712661596,
				"element": "C" 
			},
			{
				"x": -0.1082113739,
				"y": 1.8310069824,
				"z": -0.7788255926,
				"element": "C" 
			},
			{
				"x": 0.1691373347,
				"y": 3.2097300921,
				"z": -0.7890594826,
				"element": "C" 
			},
			{
				"x": -0.1796443445,
				"y": 3.9765639132,
				"z": 0.3158165181,
				"element": "C" 
			},
			{
				"x": -0.8012356065,
				"y": 3.3933072227,
				"z": 1.4394197588,
				"element": "C" 
			},
			{
				"x": -1.0780537212,
				"y": 2.0309112102,
				"z": 1.4839929686,
				"element": "C" 
			},
			{
				"x": -0.4215199419,
				"y": -1.7748481315,
				"z": -1.6262101326,
				"element": "C" 
			},
			{
				"x": -0.2076863597,
				"y": -2.8469310885,
				"z": -0.738189071,
				"element": "C" 
			},
			{
				"x": -0.25882837,
				"y": -4.1662641414,
				"z": -1.1833796268,
				"element": "C" 
			},
			{
				"x": -0.5173775355,
				"y": -4.4463307339,
				"z": -2.526946558,
				"element": "C" 
			},
			{
				"x": -0.7314556705,
				"y": -3.3934908772,
				"z": -3.4189028873,
				"element": "C" 
			},
			{
				"x": -0.691996824,
				"y": -2.0728881546,
				"z": -2.9744979388,
				"element": "C" 
			},
			{
				"x": 1.1471079858,
				"y": -0.0345634905,
				"z": -3.4376057776,
				"element": "H" 
			},
			{
				"x": 1.648090253,
				"y": 1.593331505,
				"z": -2.9692757265,
				"element": "H" 
			},
			{
				"x": 0.1226853412,
				"y": 1.3552988713,
				"z": -3.8175341355,
				"element": "H" 
			},
			{
				"x": -1.4038407974,
				"y": -0.7212706546,
				"z": 0.687739923,
				"element": "H" 
			},
			{
				"x": 0.6426692758,
				"y": 3.6702766537,
				"z": -1.6518305108,
				"element": "H" 
			},
			{
				"x": 0.025319581,
				"y": 5.0432153468,
				"z": 0.3171526697,
				"element": "H" 
			},
			{
				"x": -1.0657580856,
				"y": 4.0185494721,
				"z": 2.2872618658,
				"element": "H" 
			},
			{
				"x": -1.5511303968,
				"y": 1.5813960194,
				"z": 2.3527354178,
				"element": "H" 
			},
			{
				"x": 0.0302279479,
				"y": -2.6391309728,
				"z": 0.3013956958,
				"element": "H" 
			},
			{
				"x": -0.0849159831,
				"y": -4.9772046453,
				"z": -0.48161625,
				"element": "H" 
			},
			{
				"x": -0.5536013347,
				"y": -5.4745639519,
				"z": -2.8745888527,
				"element": "H" 
			},
			{
				"x": -0.9448906017,
				"y": -3.60089736,
				"z": -4.4637457203,
				"element": "H" 
			},
			{
				"x": -0.8991026329,
				"y": -1.2645075557,
				"z": -3.6674364929,
				"element": "H" 
			}
		],
		 "valence_orbital": [ 
			{
				"type": "occ",
				"energy": -0.2708,
				"method": "rhf"
			},
			{
				"type": "occ",
				"energy": -0.25652,
				"method": "rhf"
			},
			{
				"type": "occ",
				"energy": -0.25442,
				"method": "rhf"
			},
			{
				"type": "occ",
				"energy": -0.21071,
				"method": "rhf"
			},
			{
				"type": "occ",
				"energy": -0.19018,
				"method": "rhf"
			},
			{
				"type": "unocc",
				"energy": -0.02929,
				"method": "rhf"
			},
			{
				"type": "unocc",
				"energy": -0.00613,
				"method": "rhf"
			},
			{
				"type": "unocc",
				"energy": 0.01627,
				"method": "rhf"
			},
			{
				"type": "unocc",
				"energy": 0.03276,
				"method": "rhf"
			},
			{
				"type": "unocc",
				"energy": 0.07856,
				"method": "rhf"
			}
		],
		"cosmo_sigma_profile": { 
			"-0.025": 0.0,
			"-0.024": 0.0,
			"-0.023": 0.0,
			"-0.022": 0.0,
			"-0.021": 0.0,
			"-0.02": 0.0,
			"-0.019": 0.0,
			"-0.018": 0.0,
			"-0.017": 0.0,
			"-0.016": 0.0,
			"-0.015": 0.266046907355,
			"-0.014": 1.15662631514,
			"-0.013": 1.23042272096,
			"-0.012": 1.02088941959,
			"-0.011": 1.34373864488,
			"-0.01": 1.093698108,
			"-0.009": 1.73039563447,
			"-0.008": 1.47718655204,
			"-0.007": 1.76173533915,
			"-0.006": 7.67269567641,
			"-0.005": 15.7082596712,
			"-0.004": 19.2499837441,
			"-0.003": 25.5465661556,
			"-0.002": 22.5561196212,
			"-0.001": 19.5405973982,
			"0.0": 18.6350364695,
			"0.001": 17.4023034791,
			"0.002": 15.0712765608,
			"0.003": 16.7371618218,
			"0.004": 17.5784162562,
			"0.005": 23.7276346616,
			"0.006": 16.3951422683,
			"0.007": 8.147160799,
			"0.008": 1.54692698029,
			"0.009": 0.0,
			"0.01": 0.0,
			"0.011": 0.0,
			"0.012": 0.0,
			"0.013": 0.0,
			"0.014": 0.0,
			"0.015": 0.0,
			"0.016": 0.0,
			"0.017": 0.0,
			"0.018": 0.0,
			"0.019": 0.0,
			"0.02": 0.0,
			"0.021": 0.0,
			"0.022": 0.0,
			"0.023": 0.0,
			"0.024": 0.0,
			"0.025": 0.0
		}
	}
}
