{
	 "smiles": "COC1=CC=CC=C1NC(=O)CC(C)=O", 
	 "Tm": 359.15, 
	 "num_atms": 28, 
	 "gaussian": { 
		 "optdone": 1, 
		 "sigma_profile": "yes", 
		 "theory": "DFT", 
		 "functional": "B3LYP", 
		 "basiset": "6-31G**", 
		 "properties": { 
			 "R2extent": 4514.915, 
			 "electric_dipole_moment_norm": 3.61317351922, 
			 "electric_quadrupole_moment_norm": 16.4607478518, 
			 "total_energy": -707.432281908, 
			 "HOMO_LUMO_gap": 0.18634, 
			 "cosmo_polarized_energy": -13.1, 
			 "cosmo_cavitation_energy": 31.59, 
			 "cosmo_dispersion_energy": -22.69, 
			 "cosmo_repulsion_energy": 1.78, 
			 "cosmo_total_nonelectrostatic_energy": 10.68, 
			 "SMD_solvation_energy": 7.49 
		},
		"coords": [
			{
				"x": -0.6719999805,
				"y": -3.5061989666,
				"z": -2.2393038452,
				"element": "C" 
			},
			{
				"x": -1.1323066467,
				"y": -2.4323625423,
				"z": -1.4321797046,
				"element": "O" 
			},
			{
				"x": -0.4694244203,
				"y": -1.2368373955,
				"z": -1.5008360586,
				"element": "C" 
			},
			{
				"x": 0.6577654245,
				"y": -0.9943773022,
				"z": -2.2849066579,
				"element": "C" 
			},
			{
				"x": 1.2462505588,
				"y": 0.2750567543,
				"z": -2.2844157984,
				"element": "C" 
			},
			{
				"x": 0.6970950286,
				"y": 1.3013101206,
				"z": -1.5228574769,
				"element": "C" 
			},
			{
				"x": -0.4466816544,
				"y": 1.0714113274,
				"z": -0.7515877204,
				"element": "C" 
			},
			{
				"x": -1.0205546292,
				"y": -0.2015981188,
				"z": -0.7069634825,
				"element": "C" 
			},
			{
				"x": -2.181905022,
				"y": -0.5196394268,
				"z": 0.032379869,
				"element": "N" 
			},
			{
				"x": -2.6039023352,
				"y": -0.1794406593,
				"z": 1.2953907468,
				"element": "C" 
			},
			{
				"x": -3.6683170499,
				"y": -0.6086383928,
				"z": 1.7273254157,
				"element": "O" 
			},
			{
				"x": -1.7263810969,
				"y": 0.7333197797,
				"z": 2.1538140363,
				"element": "C" 
			},
			{
				"x": -2.350758644,
				"y": 2.134507037,
				"z": 2.2277653358,
				"element": "C" 
			},
			{
				"x": -3.5017405009,
				"y": 2.2966313347,
				"z": 3.1913714378,
				"element": "C" 
			},
			{
				"x": -1.9441479084,
				"y": 3.0394073504,
				"z": 1.5220161516,
				"element": "O" 
			},
			{
				"x": -0.7077416772,
				"y": -3.2521490512,
				"z": -3.3060357216,
				"element": "H" 
			},
			{
				"x": 0.3511832828,
				"y": -3.7982792194,
				"z": -1.9722357773,
				"element": "H" 
			},
			{
				"x": -1.346597209,
				"y": -4.3406872352,
				"z": -2.0432065509,
				"element": "H" 
			},
			{
				"x": 1.0852904325,
				"y": -1.7852066203,
				"z": -2.8897532477,
				"element": "H" 
			},
			{
				"x": 2.127645067,
				"y": 0.4527196103,
				"z": -2.8931353481,
				"element": "H" 
			},
			{
				"x": 1.1375062938,
				"y": 2.2931549149,
				"z": -1.5373971574,
				"element": "H" 
			},
			{
				"x": -0.8952925639,
				"y": 1.8863423283,
				"z": -0.1927934996,
				"element": "H" 
			},
			{
				"x": -2.7500012688,
				"y": -1.2606270515,
				"z": -0.3628376251,
				"element": "H" 
			},
			{
				"x": -1.7264504661,
				"y": 0.27896563,
				"z": 3.1485428914,
				"element": "H" 
			},
			{
				"x": -0.7060255218,
				"y": 0.8118237785,
				"z": 1.7808173693,
				"element": "H" 
			},
			{
				"x": -4.2150382423,
				"y": 1.4787336983,
				"z": 3.0427863768,
				"element": "H" 
			},
			{
				"x": -3.9782046857,
				"y": 3.2678114812,
				"z": 3.0518813609,
				"element": "H" 
			},
			{
				"x": -3.132564565,
				"y": 2.2141468367,
				"z": 4.2211546808,
				"element": "H" 
			}
		],
		 "valence_orbital": [ 
			{
				"type": "occ",
				"energy": -0.29841,
				"method": "rhf"
			},
			{
				"type": "occ",
				"energy": -0.2614,
				"method": "rhf"
			},
			{
				"type": "occ",
				"energy": -0.24905,
				"method": "rhf"
			},
			{
				"type": "occ",
				"energy": -0.24208,
				"method": "rhf"
			},
			{
				"type": "occ",
				"energy": -0.2149,
				"method": "rhf"
			},
			{
				"type": "unocc",
				"energy": -0.02856,
				"method": "rhf"
			},
			{
				"type": "unocc",
				"energy": -0.00835,
				"method": "rhf"
			},
			{
				"type": "unocc",
				"energy": 0.00478,
				"method": "rhf"
			},
			{
				"type": "unocc",
				"energy": 0.03591,
				"method": "rhf"
			},
			{
				"type": "unocc",
				"energy": 0.08413,
				"method": "rhf"
			}
		],
		"cosmo_sigma_profile": { 
			"-0.025": 0.0,
			"-0.024": 0.0,
			"-0.023": 0.0,
			"-0.022": 0.0,
			"-0.021": 0.0,
			"-0.02": 0.0,
			"-0.019": 0.0,
			"-0.018": 0.0,
			"-0.017": 0.0,
			"-0.016": 0.0,
			"-0.015": 0.0,
			"-0.014": 0.0,
			"-0.013": 0.0,
			"-0.012": 0.0956093583788,
			"-0.011": 0.777350025297,
			"-0.01": 0.411941564663,
			"-0.009": 0.901286795717,
			"-0.008": 1.80707549864,
			"-0.007": 6.58699200814,
			"-0.006": 14.9513406943,
			"-0.005": 23.0767480115,
			"-0.004": 25.7768900738,
			"-0.003": 25.342433424,
			"-0.002": 19.1201957773,
			"-0.001": 19.5904251788,
			"0.0": 12.6284042526,
			"0.001": 12.5974670542,
			"0.002": 14.5158268066,
			"0.003": 14.0165710873,
			"0.004": 12.2664180727,
			"0.005": 11.7919457858,
			"0.006": 7.11992450306,
			"0.007": 2.71401699757,
			"0.008": 3.38187705237,
			"0.009": 3.45929107922,
			"0.01": 3.49960370597,
			"0.011": 4.61136792291,
			"0.012": 4.3102839501,
			"0.013": 4.78738728755,
			"0.014": 0.878904261489,
			"0.015": 0.0,
			"0.016": 0.0,
			"0.017": 0.0,
			"0.018": 0.0,
			"0.019": 0.0,
			"0.02": 0.0,
			"0.021": 0.0,
			"0.022": 0.0,
			"0.023": 0.0,
			"0.024": 0.0,
			"0.025": 0.0
		}
	}
}
