{
	 "smiles": "CC=C(/C)C(O)=O", 
	 "Tm": 337.65, 
	 "num_atms": 15, 
	 "gaussian": { 
		 "optdone": 1, 
		 "sigma_profile": "yes", 
		 "theory": "DFT", 
		 "functional": "B3LYP", 
		 "basiset": "6-31G**", 
		 "properties": { 
			 "R2extent": 949.8598, 
			 "electric_dipole_moment_norm": 4.7313619033, 
			 "electric_quadrupole_moment_norm": 8.52109409994, 
			 "total_energy": -345.797566085, 
			 "HOMO_LUMO_gap": 0.22776, 
			 "cosmo_polarized_energy": -12.47, 
			 "cosmo_cavitation_energy": 18.56, 
			 "cosmo_dispersion_energy": -13.71, 
			 "cosmo_repulsion_energy": 1.18, 
			 "cosmo_total_nonelectrostatic_energy": 6.03, 
			 "SMD_solvation_energy": 4.93 
		},
		"coords": [
			{
				"x": -0.2885211967,
				"y": 2.6230523073,
				"z": 1.0237346525,
				"element": "C" 
			},
			{
				"x": 0.0914275488,
				"y": 1.6346124613,
				"z": -0.0377121652,
				"element": "C" 
			},
			{
				"x": -0.357051218,
				"y": 0.3753101172,
				"z": -0.1966121597,
				"element": "C" 
			},
			{
				"x": -1.3997752675,
				"y": -0.3084645683,
				"z": 0.6478809927,
				"element": "C" 
			},
			{
				"x": 0.1054412168,
				"y": -0.4469296949,
				"z": -1.3689754787,
				"element": "C" 
			},
			{
				"x": 1.3441271947,
				"y": -0.1815917461,
				"z": -1.8690629889,
				"element": "O" 
			},
			{
				"x": -0.5729353377,
				"y": -1.3131704214,
				"z": -1.8709935724,
				"element": "O" 
			},
			{
				"x": 0.6041660187,
				"y": 2.9713194286,
				"z": 1.5583502272,
				"element": "H" 
			},
			{
				"x": -0.7471767337,
				"y": 3.5124452011,
				"z": 0.5738986917,
				"element": "H" 
			},
			{
				"x": -0.9842378915,
				"y": 2.2165505626,
				"z": 1.7593399253,
				"element": "H" 
			},
			{
				"x": 0.7900107268,
				"y": 2.0260124678,
				"z": -0.7786881099,
				"element": "H" 
			},
			{
				"x": -2.1927322127,
				"y": -0.6922152676,
				"z": 0.0000840833,
				"element": "H" 
			},
			{
				"x": -1.8379606705,
				"y": 0.3555302409,
				"z": 1.3937533317,
				"element": "H" 
			},
			{
				"x": -0.9745730791,
				"y": -1.175963429,
				"z": 1.1660119109,
				"element": "H" 
			},
			{
				"x": 1.8172909017,
				"y": 0.3996023405,
				"z": -1.2574093404,
				"element": "H" 
			}
		],
		 "valence_orbital": [ 
			{
				"type": "occ",
				"energy": -0.37622,
				"method": "rhf"
			},
			{
				"type": "occ",
				"energy": -0.35968,
				"method": "rhf"
			},
			{
				"type": "occ",
				"energy": -0.31196,
				"method": "rhf"
			},
			{
				"type": "occ",
				"energy": -0.27087,
				"method": "rhf"
			},
			{
				"type": "occ",
				"energy": -0.26429,
				"method": "rhf"
			},
			{
				"type": "unocc",
				"energy": -0.03653,
				"method": "rhf"
			},
			{
				"type": "unocc",
				"energy": 0.06527,
				"method": "rhf"
			},
			{
				"type": "unocc",
				"energy": 0.06751,
				"method": "rhf"
			},
			{
				"type": "unocc",
				"energy": 0.09225,
				"method": "rhf"
			},
			{
				"type": "unocc",
				"energy": 0.12313,
				"method": "rhf"
			}
		],
		"cosmo_sigma_profile": { 
			"-0.025": 0.0,
			"-0.024": 0.0,
			"-0.023": 0.0,
			"-0.022": 0.0,
			"-0.021": 0.0,
			"-0.02": 0.0,
			"-0.019": 0.0,
			"-0.018": 0.136906762773,
			"-0.017": 1.19708636852,
			"-0.016": 0.675810523349,
			"-0.015": 1.35192787978,
			"-0.014": 0.62772153482,
			"-0.013": 0.496210855792,
			"-0.012": 1.03006388832,
			"-0.011": 1.40288102892,
			"-0.01": 1.10081392551,
			"-0.009": 0.72699965401,
			"-0.008": 1.57501945015,
			"-0.007": 1.67671211302,
			"-0.006": 3.44681241383,
			"-0.005": 8.26853951784,
			"-0.004": 13.370704627,
			"-0.003": 14.5612048782,
			"-0.002": 13.9590456663,
			"-0.001": 15.4608594986,
			"0.0": 16.1129734716,
			"0.001": 6.93257771762,
			"0.002": 5.74550919101,
			"0.003": 3.1431967393,
			"0.004": 2.37859423982,
			"0.005": 2.3309388366,
			"0.006": 2.36216726687,
			"0.007": 2.15145657561,
			"0.008": 2.99903077557,
			"0.009": 2.82164208361,
			"0.01": 3.99000050957,
			"0.011": 5.36376108637,
			"0.012": 5.74558061663,
			"0.013": 2.7393682074,
			"0.014": 0.479851075665,
			"0.015": 0.0,
			"0.016": 0.0,
			"0.017": 0.0,
			"0.018": 0.0,
			"0.019": 0.0,
			"0.02": 0.0,
			"0.021": 0.0,
			"0.022": 0.0,
			"0.023": 0.0,
			"0.024": 0.0,
			"0.025": 0.0
		}
	}
}
