{
	 "smiles": "SC1=NC2=C(C=CC=C2)N1CC=C", 
	 "Tm": 383.15, 
	 "num_atms": 23, 
	 "gaussian": { 
		 "optdone": 1, 
		 "sigma_profile": "yes", 
		 "theory": "DFT", 
		 "functional": "B3LYP", 
		 "basiset": "6-31G**", 
		 "properties": { 
			 "R2extent": 3030.3173, 
			 "electric_dipole_moment_norm": 2.77519796951, 
			 "electric_quadrupole_moment_norm": 7.12461760588, 
			 "total_energy": -894.761198042, 
			 "HOMO_LUMO_gap": 0.19916, 
			 "cosmo_polarized_energy": -10.45, 
			 "cosmo_cavitation_energy": 28.69, 
			 "cosmo_dispersion_energy": -20.89, 
			 "cosmo_repulsion_energy": 1.6, 
			 "cosmo_total_nonelectrostatic_energy": 9.4, 
			 "SMD_solvation_energy": 2.93 
		},
		"coords": [
			{
				"x": 1.7827700412,
				"y": 1.8832140655,
				"z": 0.1275700623,
				"element": "S" 
			},
			{
				"x": 0.4704896341,
				"y": 0.7451761934,
				"z": 0.4747744873,
				"element": "C" 
			},
			{
				"x": -0.7967309007,
				"y": 1.0654531694,
				"z": 0.5511283501,
				"element": "N" 
			},
			{
				"x": -1.4403895395,
				"y": -0.1310623804,
				"z": 0.8401862559,
				"element": "C" 
			},
			{
				"x": -0.5024166184,
				"y": -1.1865404126,
				"z": 0.9287839899,
				"element": "C" 
			},
			{
				"x": -0.8783068461,
				"y": -2.5024894554,
				"z": 1.2017802712,
				"element": "C" 
			},
			{
				"x": -2.2388590346,
				"y": -2.7396734514,
				"z": 1.3952998917,
				"element": "C" 
			},
			{
				"x": -3.1849993186,
				"y": -1.7001914579,
				"z": 1.3139288676,
				"element": "C" 
			},
			{
				"x": -2.8015164394,
				"y": -0.3904903184,
				"z": 1.0371391516,
				"element": "C" 
			},
			{
				"x": 0.7363863235,
				"y": -0.592648386,
				"z": 0.7006952693,
				"element": "N" 
			},
			{
				"x": 2.0348784124,
				"y": -1.2623751899,
				"z": 0.6808540022,
				"element": "C" 
			},
			{
				"x": 2.4764488485,
				"y": -1.6594173082,
				"z": -0.7057557534,
				"element": "C" 
			},
			{
				"x": 3.6500387046,
				"y": -1.3199727147,
				"z": -1.2365865623,
				"element": "C" 
			},
			{
				"x": 0.9878212503,
				"y": 2.9548955639,
				"z": 0.3011719514,
				"element": "H" 
			},
			{
				"x": -0.1557970281,
				"y": -3.3110435806,
				"z": 1.2600246902,
				"element": "H" 
			},
			{
				"x": -2.5747402204,
				"y": -3.7496334144,
				"z": 1.6107155452,
				"element": "H" 
			},
			{
				"x": -4.235266032,
				"y": -1.9286893906,
				"z": 1.4691982761,
				"element": "H" 
			},
			{
				"x": -3.5255358643,
				"y": 0.4151395895,
				"z": 0.9718424411,
				"element": "H" 
			},
			{
				"x": 1.9418668911,
				"y": -2.1443066904,
				"z": 1.3250048711,
				"element": "H" 
			},
			{
				"x": 2.775828203,
				"y": -0.6039306921,
				"z": 1.1462323302,
				"element": "H" 
			},
			{
				"x": 1.7685068184,
				"y": -2.2622096236,
				"z": -1.2727353895,
				"element": "H" 
			},
			{
				"x": 3.9373722655,
				"y": -1.6385114471,
				"z": -2.2337850318,
				"element": "H" 
			},
			{
				"x": 4.3685504496,
				"y": -0.711192668,
				"z": -0.6926679673,
				"element": "H" 
			}
		],
		 "valence_orbital": [ 
			{
				"type": "occ",
				"energy": -0.28283,
				"method": "rhf"
			},
			{
				"type": "occ",
				"energy": -0.27814,
				"method": "rhf"
			},
			{
				"type": "occ",
				"energy": -0.27109,
				"method": "rhf"
			},
			{
				"type": "occ",
				"energy": -0.22322,
				"method": "rhf"
			},
			{
				"type": "occ",
				"energy": -0.21135,
				"method": "rhf"
			},
			{
				"type": "unocc",
				"energy": -0.01219,
				"method": "rhf"
			},
			{
				"type": "unocc",
				"energy": -0.00272,
				"method": "rhf"
			},
			{
				"type": "unocc",
				"energy": 0.01166,
				"method": "rhf"
			},
			{
				"type": "unocc",
				"energy": 0.02422,
				"method": "rhf"
			},
			{
				"type": "unocc",
				"energy": 0.05223,
				"method": "rhf"
			}
		],
		"cosmo_sigma_profile": { 
			"-0.025": 0.0,
			"-0.024": 0.0,
			"-0.023": 0.0,
			"-0.022": 0.0,
			"-0.021": 0.0,
			"-0.02": 0.0,
			"-0.019": 0.0,
			"-0.018": 0.0,
			"-0.017": 0.0,
			"-0.016": 0.0,
			"-0.015": 0.0,
			"-0.014": 0.0,
			"-0.013": 0.0,
			"-0.012": 0.745246193161,
			"-0.011": 1.43895757085,
			"-0.01": 1.49383754973,
			"-0.009": 1.10605886162,
			"-0.008": 2.77389843306,
			"-0.007": 5.81554048327,
			"-0.006": 12.9431146001,
			"-0.005": 19.3047928365,
			"-0.004": 19.7569673222,
			"-0.003": 17.2035366305,
			"-0.002": 14.3577500307,
			"-0.001": 14.9032804259,
			"0.0": 15.4668654019,
			"0.001": 14.6492653737,
			"0.002": 15.2668179752,
			"0.003": 14.7045097668,
			"0.004": 16.7351714403,
			"0.005": 17.1326511523,
			"0.006": 12.8482333883,
			"0.007": 3.97851948151,
			"0.008": 1.40814831608,
			"0.009": 1.05638303254,
			"0.01": 0.614446093125,
			"0.011": 1.34726970194,
			"0.012": 1.31537674792,
			"0.013": 0.668346596608,
			"0.014": 1.32416386994,
			"0.015": 0.694980206701,
			"0.016": 0.604985654747,
			"0.017": 0.375106884715,
			"0.018": 0.0,
			"0.019": 0.0,
			"0.02": 0.0,
			"0.021": 0.0,
			"0.022": 0.0,
			"0.023": 0.0,
			"0.024": 0.0,
			"0.025": 0.0
		}
	}
}
