{
	 "smiles": "CCCN1C(S)=NN=C1CO", 
	 "Tm": 393.15, 
	 "num_atms": 22, 
	 "gaussian": { 
		 "optdone": 1, 
		 "sigma_profile": "yes", 
		 "theory": "DFT", 
		 "functional": "B3LYP", 
		 "basiset": "6-31G**", 
		 "properties": { 
			 "R2extent": 2339.2674, 
			 "electric_dipole_moment_norm": 3.61638107644, 
			 "electric_quadrupole_moment_norm": 12.3640485214, 
			 "total_energy": -872.90491357, 
			 "HOMO_LUMO_gap": 0.23315, 
			 "cosmo_polarized_energy": -16.4, 
			 "cosmo_cavitation_energy": 27.1, 
			 "cosmo_dispersion_energy": -19.63, 
			 "cosmo_repulsion_energy": 1.57, 
			 "cosmo_total_nonelectrostatic_energy": 9.04, 
			 "SMD_solvation_energy": 2.16 
		},
		"coords": [
			{
				"x": 1.2161404455,
				"y": -0.5524168824,
				"z": -3.071945201,
				"element": "C" 
			},
			{
				"x": 1.2958925785,
				"y": -0.3673395175,
				"z": -1.5536371884,
				"element": "C" 
			},
			{
				"x": -0.0886106484,
				"y": -0.4557007613,
				"z": -0.898232397,
				"element": "C" 
			},
			{
				"x": -0.0520725184,
				"y": -0.2776957327,
				"z": 0.5558017159,
				"element": "N" 
			},
			{
				"x": -0.083370096,
				"y": 0.8887758581,
				"z": 1.27351901,
				"element": "C" 
			},
			{
				"x": -0.1934565836,
				"y": 2.4799242501,
				"z": 0.5103176561,
				"element": "S" 
			},
			{
				"x": -0.0376077141,
				"y": 0.6581588401,
				"z": 2.5672991923,
				"element": "N" 
			},
			{
				"x": 0.0225617918,
				"y": -0.7122935118,
				"z": 2.7230011443,
				"element": "N" 
			},
			{
				"x": 0.0236197681,
				"y": -1.2553085433,
				"z": 1.5273121543,
				"element": "C" 
			},
			{
				"x": 0.0636086538,
				"y": -2.7261357816,
				"z": 1.2554570188,
				"element": "C" 
			},
			{
				"x": -1.0761269023,
				"y": -3.1950236736,
				"z": 0.5343182653,
				"element": "O" 
			},
			{
				"x": 0.5927559934,
				"y": 0.2203261766,
				"z": -3.5353741801,
				"element": "H" 
			},
			{
				"x": 2.2098062916,
				"y": -0.4923219505,
				"z": -3.5249575732,
				"element": "H" 
			},
			{
				"x": 0.7886711856,
				"y": -1.5267336716,
				"z": -3.3332151127,
				"element": "H" 
			},
			{
				"x": 1.7477333889,
				"y": 0.6026317617,
				"z": -1.3150786545,
				"element": "H" 
			},
			{
				"x": 1.9484314668,
				"y": -1.1318341432,
				"z": -1.114895468,
				"element": "H" 
			},
			{
				"x": -0.7559280883,
				"y": 0.3095005966,
				"z": -1.3103539854,
				"element": "H" 
			},
			{
				"x": -0.5526687753,
				"y": -1.4275212087,
				"z": -1.0840928201,
				"element": "H" 
			},
			{
				"x": -0.3427561877,
				"y": 3.1077998635,
				"z": 1.6917785908,
				"element": "H" 
			},
			{
				"x": 0.1817864645,
				"y": -3.2258582074,
				"z": 2.2246166544,
				"element": "H" 
			},
			{
				"x": 0.925723964,
				"y": -2.9913012984,
				"z": 0.6342727908,
				"element": "H" 
			},
			{
				"x": -1.8548344787,
				"y": -3.0234324627,
				"z": 1.0813883875,
				"element": "H" 
			}
		],
		 "valence_orbital": [ 
			{
				"type": "occ",
				"energy": -0.30742,
				"method": "rhf"
			},
			{
				"type": "occ",
				"energy": -0.29142,
				"method": "rhf"
			},
			{
				"type": "occ",
				"energy": -0.28553,
				"method": "rhf"
			},
			{
				"type": "occ",
				"energy": -0.25522,
				"method": "rhf"
			},
			{
				"type": "occ",
				"energy": -0.2313,
				"method": "rhf"
			},
			{
				"type": "unocc",
				"energy": 0.00185,
				"method": "rhf"
			},
			{
				"type": "unocc",
				"energy": 0.00696,
				"method": "rhf"
			},
			{
				"type": "unocc",
				"energy": 0.03966,
				"method": "rhf"
			},
			{
				"type": "unocc",
				"energy": 0.05836,
				"method": "rhf"
			},
			{
				"type": "unocc",
				"energy": 0.08051,
				"method": "rhf"
			}
		],
		"cosmo_sigma_profile": { 
			"-0.025": 0.0,
			"-0.024": 0.0,
			"-0.023": 0.0,
			"-0.022": 0.0,
			"-0.021": 0.0,
			"-0.02": 0.0,
			"-0.019": 0.0,
			"-0.018": 0.0,
			"-0.017": 0.0328908468808,
			"-0.016": 1.05020636757,
			"-0.015": 0.844516799313,
			"-0.014": 1.15848871006,
			"-0.013": 0.913428659914,
			"-0.012": 1.99197487895,
			"-0.011": 2.99948137056,
			"-0.01": 1.89240077339,
			"-0.009": 1.55421803233,
			"-0.008": 1.91338317832,
			"-0.007": 3.75506900294,
			"-0.006": 10.4608537447,
			"-0.005": 12.0708844634,
			"-0.004": 17.8964449858,
			"-0.003": 21.7435718209,
			"-0.002": 21.8531056905,
			"-0.001": 20.4744406797,
			"0.0": 16.0155656797,
			"0.001": 13.4758452314,
			"0.002": 7.89249939269,
			"0.003": 6.41855763375,
			"0.004": 6.44468874553,
			"0.005": 5.46262426751,
			"0.006": 4.4204175984,
			"0.007": 3.20174213169,
			"0.008": 2.88343314619,
			"0.009": 3.09943424025,
			"0.01": 2.65717339783,
			"0.011": 3.44666659713,
			"0.012": 3.3056426908,
			"0.013": 5.39516613648,
			"0.014": 2.94116659835,
			"0.015": 2.90087439546,
			"0.016": 2.17840145791,
			"0.017": 0.833993595818,
			"0.018": 0.0,
			"0.019": 0.0,
			"0.02": 0.0,
			"0.021": 0.0,
			"0.022": 0.0,
			"0.023": 0.0,
			"0.024": 0.0,
			"0.025": 0.0
		}
	}
}
