{
	 "smiles": "COC1=CC=CC=C1C1=CC=C(O1)C=C1C(=O)NC(=S)NC1=O", 
	 "Tm": 508.15, 
	 "num_atms": 35, 
	 "gaussian": { 
		 "optdone": 1, 
		 "sigma_profile": "yes", 
		 "theory": "DFT", 
		 "functional": "B3LYP", 
		 "basiset": "6-31G**", 
		 "properties": { 
			 "R2extent": 12285.0725, 
			 "electric_dipole_moment_norm": 9.47010186746, 
			 "electric_quadrupole_moment_norm": 12.2578930159, 
			 "total_energy": -1425.53494791, 
			 "HOMO_LUMO_gap": 0.11129, 
			 "cosmo_polarized_energy": -20.23, 
			 "cosmo_cavitation_energy": 42.44, 
			 "cosmo_dispersion_energy": -31.17, 
			 "cosmo_repulsion_energy": 2.26, 
			 "cosmo_total_nonelectrostatic_energy": 13.53, 
			 "SMD_solvation_energy": 8.43 
		},
		"coords": [
			{
				"x": -3.65611106,
				"y": 2.4802131436,
				"z": -2.7775293016,
				"element": "C" 
			},
			{
				"x": -2.6211332006,
				"y": 1.9386717024,
				"z": -1.966004548,
				"element": "O" 
			},
			{
				"x": -2.5628684732,
				"y": 0.5892875399,
				"z": -1.7882569866,
				"element": "C" 
			},
			{
				"x": -3.4716130752,
				"y": -0.3031069623,
				"z": -2.3654996745,
				"element": "C" 
			},
			{
				"x": -3.3487770836,
				"y": -1.6745937093,
				"z": -2.1379742042,
				"element": "C" 
			},
			{
				"x": -2.3218768649,
				"y": -2.1714948924,
				"z": -1.3348364165,
				"element": "C" 
			},
			{
				"x": -1.4144454682,
				"y": -1.290816128,
				"z": -0.7573859038,
				"element": "C" 
			},
			{
				"x": -1.5125248595,
				"y": 0.0990431203,
				"z": -0.9686594476,
				"element": "C" 
			},
			{
				"x": -0.5399932402,
				"y": 0.9777774438,
				"z": -0.343140376,
				"element": "C" 
			},
			{
				"x": -0.3200196188,
				"y": 2.3528327694,
				"z": -0.3215101119,
				"element": "C" 
			},
			{
				"x": 0.8075073195,
				"y": 2.5593117738,
				"z": 0.4861776472,
				"element": "C" 
			},
			{
				"x": 1.2380565173,
				"y": 1.3095855235,
				"z": 0.9298802749,
				"element": "C" 
			},
			{
				"x": 0.4005721166,
				"y": 0.3597451041,
				"z": 0.4110517947,
				"element": "O" 
			},
			{
				"x": 2.3356385108,
				"y": 1.0266067399,
				"z": 1.765528997,
				"element": "C" 
			},
			{
				"x": 2.9043956198,
				"y": -0.1101536483,
				"z": 2.2991739279,
				"element": "C" 
			},
			{
				"x": 4.0926043191,
				"y": 0.1450358099,
				"z": 3.146979274,
				"element": "C" 
			},
			{
				"x": 4.5654380925,
				"y": 1.2488198999,
				"z": 3.3825615549,
				"element": "O" 
			},
			{
				"x": 4.6973260789,
				"y": -0.9869389005,
				"z": 3.7067305138,
				"element": "N" 
			},
			{
				"x": 4.3166324078,
				"y": -2.2945966443,
				"z": 3.5596775685,
				"element": "C" 
			},
			{
				"x": 5.1250201317,
				"y": -3.5582210945,
				"z": 4.2825507298,
				"element": "S" 
			},
			{
				"x": 3.215126609,
				"y": -2.4694439281,
				"z": 2.7674032571,
				"element": "N" 
			},
			{
				"x": 2.4453667074,
				"y": -1.4927878317,
				"z": 2.1019904734,
				"element": "C" 
			},
			{
				"x": 1.4914989578,
				"y": -1.8694741023,
				"z": 1.4385821657,
				"element": "O" 
			},
			{
				"x": -3.5935472557,
				"y": 2.1099312619,
				"z": -3.8077265038,
				"element": "H" 
			},
			{
				"x": -4.6475536019,
				"y": 2.2522831742,
				"z": -2.3683844805,
				"element": "H" 
			},
			{
				"x": -3.504315098,
				"y": 3.5602731682,
				"z": -2.773239122,
				"element": "H" 
			},
			{
				"x": -4.2754765196,
				"y": 0.0628530911,
				"z": -2.9918752857,
				"element": "H" 
			},
			{
				"x": -4.0639752918,
				"y": -2.3524336752,
				"z": -2.5947344659,
				"element": "H" 
			},
			{
				"x": -2.227593545,
				"y": -3.2379580533,
				"z": -1.1587946283,
				"element": "H" 
			},
			{
				"x": -0.6104071607,
				"y": -1.6612824965,
				"z": -0.1302915781,
				"element": "H" 
			},
			{
				"x": -0.9139767214,
				"y": 3.0900835357,
				"z": -0.8330673867,
				"element": "H" 
			},
			{
				"x": 1.2741095282,
				"y": 3.5030855348,
				"z": 0.7330425019,
				"element": "H" 
			},
			{
				"x": 2.864771207,
				"y": 1.930898014,
				"z": 2.0627319043,
				"element": "H" 
			},
			{
				"x": 5.5090935975,
				"y": -0.8118336085,
				"z": 4.2859337576,
				"element": "H" 
			},
			{
				"x": 2.9029504174,
				"y": -3.4235026753,
				"z": 2.6347140792,
				"element": "H" 
			}
		],
		 "valence_orbital": [ 
			{
				"type": "occ",
				"energy": -0.27118,
				"method": "rhf"
			},
			{
				"type": "occ",
				"energy": -0.24722,
				"method": "rhf"
			},
			{
				"type": "occ",
				"energy": -0.23722,
				"method": "rhf"
			},
			{
				"type": "occ",
				"energy": -0.22164,
				"method": "rhf"
			},
			{
				"type": "occ",
				"energy": -0.21507,
				"method": "rhf"
			},
			{
				"type": "unocc",
				"energy": -0.10378,
				"method": "rhf"
			},
			{
				"type": "unocc",
				"energy": -0.04167,
				"method": "rhf"
			},
			{
				"type": "unocc",
				"energy": -0.01669,
				"method": "rhf"
			},
			{
				"type": "unocc",
				"energy": -0.00433,
				"method": "rhf"
			},
			{
				"type": "unocc",
				"energy": 0.00311,
				"method": "rhf"
			}
		],
		"cosmo_sigma_profile": { 
			"-0.025": 0.0,
			"-0.024": 0.0,
			"-0.023": 0.0,
			"-0.022": 0.0,
			"-0.021": 0.0,
			"-0.02": 0.0,
			"-0.019": 0.0,
			"-0.018": 0.0,
			"-0.017": 0.0,
			"-0.016": 0.6713580385,
			"-0.015": 1.47285957344,
			"-0.014": 1.29209537725,
			"-0.013": 1.89316106167,
			"-0.012": 1.28517693908,
			"-0.011": 1.14442333564,
			"-0.01": 2.22554330619,
			"-0.009": 4.62245948373,
			"-0.008": 4.60127948367,
			"-0.007": 9.87612982209,
			"-0.006": 20.9094072762,
			"-0.005": 23.331294305,
			"-0.004": 24.822171783,
			"-0.003": 20.9020211387,
			"-0.002": 21.1810729148,
			"-0.001": 23.54610244,
			"0.0": 28.4464596504,
			"0.001": 25.599699024,
			"0.002": 24.0176722851,
			"0.003": 18.1519365777,
			"0.004": 18.2905996837,
			"0.005": 10.7202284832,
			"0.006": 7.64432475981,
			"0.007": 8.26807920924,
			"0.008": 11.1329089826,
			"0.009": 9.78071704936,
			"0.01": 8.97732555552,
			"0.011": 4.47657299532,
			"0.012": 4.95583812099,
			"0.013": 0.438442927078,
			"0.014": 0.0,
			"0.015": 0.0,
			"0.016": 0.0,
			"0.017": 0.0,
			"0.018": 0.0,
			"0.019": 0.0,
			"0.02": 0.0,
			"0.021": 0.0,
			"0.022": 0.0,
			"0.023": 0.0,
			"0.024": 0.0,
			"0.025": 0.0
		}
	}
}
