{
	 "smiles": "COC1=CC=C(C=C1)C1=C(CCC(O)=O)C2=C(N1)C=CC(F)=C2", 
	 "Tm": 409.15, 
	 "num_atms": 39, 
	 "gaussian": { 
		 "optdone": 1, 
		 "sigma_profile": "yes", 
		 "theory": "DFT", 
		 "functional": "B3LYP", 
		 "basiset": "6-31G**", 
		 "properties": { 
			 "R2extent": 11140.5744, 
			 "electric_dipole_moment_norm": 6.86865031939, 
			 "electric_quadrupole_moment_norm": 24.8913303793, 
			 "total_energy": -1075.83131842, 
			 "HOMO_LUMO_gap": 0.16411, 
			 "cosmo_polarized_energy": -23.75, 
			 "cosmo_cavitation_energy": 44.07, 
			 "cosmo_dispersion_energy": -30.67, 
			 "cosmo_repulsion_energy": 2.31, 
			 "cosmo_total_nonelectrostatic_energy": 15.7, 
			 "SMD_solvation_energy": 9.05 
		},
		"coords": [
			{
				"x": -3.5961029735,
				"y": -1.1212241668,
				"z": 4.1748550578,
				"element": "C" 
			},
			{
				"x": -3.1961064932,
				"y": -0.1822452827,
				"z": 3.1882299786,
				"element": "O" 
			},
			{
				"x": -2.1152258484,
				"y": -0.4783230914,
				"z": 2.4140112674,
				"element": "C" 
			},
			{
				"x": -1.3615496405,
				"y": -1.6546655,
				"z": 2.5089393665,
				"element": "C" 
			},
			{
				"x": -0.2695985306,
				"y": -1.845391353,
				"z": 1.6615842692,
				"element": "C" 
			},
			{
				"x": 0.0978232106,
				"y": -0.8895217482,
				"z": 0.7010512395,
				"element": "C" 
			},
			{
				"x": -0.6813265814,
				"y": 0.2819811062,
				"z": 0.6177902156,
				"element": "C" 
			},
			{
				"x": -1.7631360323,
				"y": 0.489303947,
				"z": 1.4602269205,
				"element": "C" 
			},
			{
				"x": 1.2437375155,
				"y": -1.1244247271,
				"z": -0.186290278,
				"element": "C" 
			},
			{
				"x": 2.2321889769,
				"y": -0.274021739,
				"z": -0.6596019757,
				"element": "C" 
			},
			{
				"x": 2.420889522,
				"y": 1.1859185823,
				"z": -0.3598862003,
				"element": "C" 
			},
			{
				"x": 2.0638576756,
				"y": 2.0984103861,
				"z": -1.5462994071,
				"element": "C" 
			},
			{
				"x": 2.2753293573,
				"y": 3.5757909553,
				"z": -1.2428370404,
				"element": "C" 
			},
			{
				"x": 2.0183859727,
				"y": 4.4244018635,
				"z": -2.2780586549,
				"element": "O" 
			},
			{
				"x": 2.634574704,
				"y": 4.0157347069,
				"z": -0.1799831931,
				"element": "O" 
			},
			{
				"x": 3.1181575712,
				"y": -1.0757240777,
				"z": -1.4632831626,
				"element": "C" 
			},
			{
				"x": 2.6223570979,
				"y": -2.4079372237,
				"z": -1.4496751572,
				"element": "C" 
			},
			{
				"x": 1.5023668905,
				"y": -2.4131331118,
				"z": -0.644157663,
				"element": "N" 
			},
			{
				"x": 3.2462183347,
				"y": -3.4451350341,
				"z": -2.14818847,
				"element": "C" 
			},
			{
				"x": 4.3988317753,
				"y": -3.144217122,
				"z": -2.8665239498,
				"element": "C" 
			},
			{
				"x": 4.8987492646,
				"y": -1.8329261024,
				"z": -2.8622777012,
				"element": "C" 
			},
			{
				"x": 6.0300920975,
				"y": -1.5856050563,
				"z": -3.5662051097,
				"element": "F" 
			},
			{
				"x": 4.2957771814,
				"y": -0.7916866154,
				"z": -2.1806243431,
				"element": "C" 
			},
			{
				"x": -3.8784761905,
				"y": -2.0829651798,
				"z": 3.7275020544,
				"element": "H" 
			},
			{
				"x": -4.466116229,
				"y": -0.6864145803,
				"z": 4.6688184692,
				"element": "H" 
			},
			{
				"x": -2.8058361553,
				"y": -1.2887558728,
				"z": 4.9177076279,
				"element": "H" 
			},
			{
				"x": -1.6031736722,
				"y": -2.4156812666,
				"z": 3.2413587778,
				"element": "H" 
			},
			{
				"x": 0.3272415788,
				"y": -2.7463576217,
				"z": 1.7736858927,
				"element": "H" 
			},
			{
				"x": -0.4489313747,
				"y": 1.0280795571,
				"z": -0.1343224037,
				"element": "H" 
			},
			{
				"x": -2.3631414347,
				"y": 1.3907266027,
				"z": 1.3922684229,
				"element": "H" 
			},
			{
				"x": 1.8269273692,
				"y": 1.4838845191,
				"z": 0.5078444422,
				"element": "H" 
			},
			{
				"x": 3.4647309633,
				"y": 1.3782615216,
				"z": -0.0854500421,
				"element": "H" 
			},
			{
				"x": 2.658802684,
				"y": 1.8300468611,
				"z": -2.4296737101,
				"element": "H" 
			},
			{
				"x": 1.0152830496,
				"y": 1.9533006487,
				"z": -1.8422820858,
				"element": "H" 
			},
			{
				"x": 1.7511898619,
				"y": 3.9229088921,
				"z": -3.0615616259,
				"element": "H" 
			},
			{
				"x": 0.840595988,
				"y": -3.1695807737,
				"z": -0.5751581634,
				"element": "H" 
			},
			{
				"x": 2.8527076065,
				"y": -4.4572699359,
				"z": -2.1318101934,
				"element": "H" 
			},
			{
				"x": 4.9287708181,
				"y": -3.9050350501,
				"z": -3.428562524,
				"element": "H" 
			},
			{
				"x": 4.7374340891,
				"y": 0.1987920831,
				"z": -2.2100609482,
				"element": "H" 
			}
		],
		 "valence_orbital": [ 
			{
				"type": "occ",
				"energy": -0.2679,
				"method": "rhf"
			},
			{
				"type": "occ",
				"energy": -0.26315,
				"method": "rhf"
			},
			{
				"type": "occ",
				"energy": -0.24418,
				"method": "rhf"
			},
			{
				"type": "occ",
				"energy": -0.21233,
				"method": "rhf"
			},
			{
				"type": "occ",
				"energy": -0.19736,
				"method": "rhf"
			},
			{
				"type": "unocc",
				"energy": -0.03325,
				"method": "rhf"
			},
			{
				"type": "unocc",
				"energy": -0.01424,
				"method": "rhf"
			},
			{
				"type": "unocc",
				"energy": 0.00945,
				"method": "rhf"
			},
			{
				"type": "unocc",
				"energy": 0.01237,
				"method": "rhf"
			},
			{
				"type": "unocc",
				"energy": 0.02982,
				"method": "rhf"
			}
		],
		"cosmo_sigma_profile": { 
			"-0.025": 0.0,
			"-0.024": 0.0,
			"-0.023": 0.0,
			"-0.022": 0.0,
			"-0.021": 0.0,
			"-0.02": 0.0,
			"-0.019": 0.404802586926,
			"-0.018": 1.24832637663,
			"-0.017": 0.770412842128,
			"-0.016": 1.24298255828,
			"-0.015": 1.79254809429,
			"-0.014": 2.078032322,
			"-0.013": 2.34434631642,
			"-0.012": 2.08408685428,
			"-0.011": 2.48956719022,
			"-0.01": 2.66320876667,
			"-0.009": 2.8368045,
			"-0.008": 4.01332846417,
			"-0.007": 9.10703963126,
			"-0.006": 22.7949417659,
			"-0.005": 26.491790643,
			"-0.004": 24.4762845296,
			"-0.003": 21.2383953923,
			"-0.002": 17.5788563413,
			"-0.001": 15.8139311912,
			"0.0": 15.8936608468,
			"0.001": 16.1303700931,
			"0.002": 21.0007952926,
			"0.003": 26.7497870198,
			"0.004": 30.5920074818,
			"0.005": 38.8708474774,
			"0.006": 8.08926546014,
			"0.007": 4.01463505938,
			"0.008": 3.37813067205,
			"0.009": 5.09562737698,
			"0.01": 5.91551212994,
			"0.011": 5.63108555973,
			"0.012": 5.8288271303,
			"0.013": 2.16550319212,
			"0.014": 0.110179028341,
			"0.015": 0.0,
			"0.016": 0.0,
			"0.017": 0.0,
			"0.018": 0.0,
			"0.019": 0.0,
			"0.02": 0.0,
			"0.021": 0.0,
			"0.022": 0.0,
			"0.023": 0.0,
			"0.024": 0.0,
			"0.025": 0.0
		}
	}
}
