{
	 "smiles": "NC1=CC=C(OCCCCCN2C(=O)C3=CC=CC=C3C2=O)C=C1", 
	 "Tm": 386.15, 
	 "num_atms": 44, 
	 "gaussian": { 
		 "optdone": 1, 
		 "sigma_profile": "yes", 
		 "theory": "DFT", 
		 "functional": "B3LYP", 
		 "basiset": "6-31G**", 
		 "properties": { 
			 "R2extent": 15047.0922, 
			 "electric_dipole_moment_norm": 1.82511951663, 
			 "electric_quadrupole_moment_norm": 33.0092046951, 
			 "total_energy": -1071.2871675, 
			 "HOMO_LUMO_gap": 0.10394, 
			 "cosmo_polarized_energy": -18.65, 
			 "cosmo_cavitation_energy": 48.33, 
			 "cosmo_dispersion_energy": -33.55, 
			 "cosmo_repulsion_energy": 2.55, 
			 "cosmo_total_nonelectrostatic_energy": 17.33, 
			 "SMD_solvation_energy": 8.69 
		},
		"coords": [
			{
				"x": -0.7902790648,
				"y": -6.5977280686,
				"z": 4.094460038,
				"element": "N" 
			},
			{
				"x": -0.7982547823,
				"y": -5.4704087505,
				"z": 3.2552636775,
				"element": "C" 
			},
			{
				"x": 0.315051337,
				"y": -5.1634832188,
				"z": 2.4521624584,
				"element": "C" 
			},
			{
				"x": 0.2892516857,
				"y": -4.086124465,
				"z": 1.576381245,
				"element": "C" 
			},
			{
				"x": -0.850527064,
				"y": -3.2777102827,
				"z": 1.471161557,
				"element": "C" 
			},
			{
				"x": -0.7705424936,
				"y": -2.2370385972,
				"z": 0.5780771817,
				"element": "O" 
			},
			{
				"x": -1.9152692193,
				"y": -1.4081745679,
				"z": 0.4030332542,
				"element": "C" 
			},
			{
				"x": -1.6181161634,
				"y": -0.3487822185,
				"z": -0.6537581038,
				"element": "C" 
			},
			{
				"x": -0.6273735434,
				"y": 0.7545015304,
				"z": -0.2427021292,
				"element": "C" 
			},
			{
				"x": 0.8416853449,
				"y": 0.3142761946,
				"z": -0.1801492897,
				"element": "C" 
			},
			{
				"x": 1.8079537736,
				"y": 1.4321235161,
				"z": 0.2345698146,
				"element": "C" 
			},
			{
				"x": 1.8527047547,
				"y": 2.5556645923,
				"z": -0.6994832027,
				"element": "N" 
			},
			{
				"x": 2.5882604439,
				"y": 2.54361027,
				"z": -1.8950995996,
				"element": "C" 
			},
			{
				"x": 3.2502031598,
				"y": 1.6091981935,
				"z": -2.3035630881,
				"element": "O" 
			},
			{
				"x": 2.3829798185,
				"y": 3.8899143927,
				"z": -2.510656496,
				"element": "C" 
			},
			{
				"x": 2.8716307256,
				"y": 4.4176158157,
				"z": -3.6967869059,
				"element": "C" 
			},
			{
				"x": 2.5066941159,
				"y": 5.7326500743,
				"z": -4.0159140321,
				"element": "C" 
			},
			{
				"x": 1.6817000321,
				"y": 6.480641848,
				"z": -3.1660166647,
				"element": "C" 
			},
			{
				"x": 1.194522524,
				"y": 5.9380743046,
				"z": -1.9691137398,
				"element": "C" 
			},
			{
				"x": 1.5607157266,
				"y": 4.6354720877,
				"z": -1.6635277787,
				"element": "C" 
			},
			{
				"x": 1.2146572506,
				"y": 3.7878123063,
				"z": -0.48238695,
				"element": "C" 
			},
			{
				"x": 0.5329945565,
				"y": 4.0691963216,
				"z": 0.4842732738,
				"element": "O" 
			},
			{
				"x": -1.9646583152,
				"y": -3.5717269979,
				"z": 2.2623162782,
				"element": "C" 
			},
			{
				"x": -1.9320065798,
				"y": -4.6571766656,
				"z": 3.1428506924,
				"element": "C" 
			},
			{
				"x": -1.4305478851,
				"y": -6.5340036687,
				"z": 4.8752826703,
				"element": "H" 
			},
			{
				"x": 0.1317299111,
				"y": -6.8675430529,
				"z": 4.4120043713,
				"element": "H" 
			},
			{
				"x": 1.2073519897,
				"y": -5.7820026045,
				"z": 2.5137323872,
				"element": "H" 
			},
			{
				"x": 1.1503915529,
				"y": -3.8531220399,
				"z": 0.9580223934,
				"element": "H" 
			},
			{
				"x": -2.7703307054,
				"y": -2.023572308,
				"z": 0.0858371472,
				"element": "H" 
			},
			{
				"x": -2.1856855991,
				"y": -0.9298104475,
				"z": 1.3574089504,
				"element": "H" 
			},
			{
				"x": -2.5788496935,
				"y": 0.1191310873,
				"z": -0.9042040741,
				"element": "H" 
			},
			{
				"x": -1.2708557034,
				"y": -0.8518672844,
				"z": -1.5651122022,
				"element": "H" 
			},
			{
				"x": -0.721862835,
				"y": 1.5787246965,
				"z": -0.9605657822,
				"element": "H" 
			},
			{
				"x": -0.9296407552,
				"y": 1.1703466787,
				"z": 0.7283607243,
				"element": "H" 
			},
			{
				"x": 1.1557652993,
				"y": -0.0811356138,
				"z": -1.1537170208,
				"element": "H" 
			},
			{
				"x": 0.9540744048,
				"y": -0.5056073698,
				"z": 0.5353708671,
				"element": "H" 
			},
			{
				"x": 1.5240040328,
				"y": 1.8530270642,
				"z": 1.2032579122,
				"element": "H" 
			},
			{
				"x": 2.8238332944,
				"y": 1.0334923608,
				"z": 0.3100357503,
				"element": "H" 
			},
			{
				"x": 3.5112641658,
				"y": 3.8290527409,
				"z": -4.3465881506,
				"element": "H" 
			},
			{
				"x": 2.8685233363,
				"y": 6.1813434164,
				"z": -4.9362909445,
				"element": "H" 
			},
			{
				"x": 1.4171664521,
				"y": 7.4974011369,
				"z": -3.4408814421,
				"element": "H" 
			},
			{
				"x": 0.556032748,
				"y": 6.508314767,
				"z": -1.3020792459,
				"element": "H" 
			},
			{
				"x": -2.8626244999,
				"y": -2.9675052131,
				"z": 2.2104045083,
				"element": "H" 
			},
			{
				"x": -2.8091175339,
				"y": -4.873661961,
				"z": 3.74822969,
				"element": "H" 
			}
		],
		 "valence_orbital": [ 
			{
				"type": "occ",
				"energy": -0.27044,
				"method": "rhf"
			},
			{
				"type": "occ",
				"energy": -0.26331,
				"method": "rhf"
			},
			{
				"type": "occ",
				"energy": -0.26076,
				"method": "rhf"
			},
			{
				"type": "occ",
				"energy": -0.24239,
				"method": "rhf"
			},
			{
				"type": "occ",
				"energy": -0.18205,
				"method": "rhf"
			},
			{
				"type": "unocc",
				"energy": -0.07811,
				"method": "rhf"
			},
			{
				"type": "unocc",
				"energy": -0.03786,
				"method": "rhf"
			},
			{
				"type": "unocc",
				"energy": 0.00555,
				"method": "rhf"
			},
			{
				"type": "unocc",
				"energy": 0.03089,
				"method": "rhf"
			},
			{
				"type": "unocc",
				"energy": 0.03425,
				"method": "rhf"
			}
		],
		"cosmo_sigma_profile": { 
			"-0.025": 0.0,
			"-0.024": 0.0,
			"-0.023": 0.0,
			"-0.022": 0.0,
			"-0.021": 0.0,
			"-0.02": 0.0,
			"-0.019": 0.0,
			"-0.018": 0.0,
			"-0.017": 0.0,
			"-0.016": 0.0,
			"-0.015": 0.0,
			"-0.014": 0.0,
			"-0.013": 0.0,
			"-0.012": 1.25347525359,
			"-0.011": 2.78212657695,
			"-0.01": 2.97623568272,
			"-0.009": 3.05525078935,
			"-0.008": 3.66497928531,
			"-0.007": 11.5001938728,
			"-0.006": 15.5532128748,
			"-0.005": 22.9934075109,
			"-0.004": 32.228260565,
			"-0.003": 39.870587859,
			"-0.002": 37.6553987954,
			"-0.001": 29.8563918063,
			"0.0": 27.0073232534,
			"0.001": 23.7383084772,
			"0.002": 23.7691641093,
			"0.003": 15.2968594361,
			"0.004": 14.529849397,
			"0.005": 14.9798918165,
			"0.006": 13.6264935682,
			"0.007": 12.670759074,
			"0.008": 4.75136291135,
			"0.009": 5.40185608739,
			"0.01": 5.90535108275,
			"0.011": 9.34837625634,
			"0.012": 5.84590861296,
			"0.013": 0.610467187435,
			"0.014": 0.919213548869,
			"0.015": 0.56399101194,
			"0.016": 0.365217584282,
			"0.017": 0.0,
			"0.018": 0.0,
			"0.019": 0.0,
			"0.02": 0.0,
			"0.021": 0.0,
			"0.022": 0.0,
			"0.023": 0.0,
			"0.024": 0.0,
			"0.025": 0.0
		}
	}
}
