{
	 "smiles": "NC1=CN=C(C=C1)N1CCNC(=O)C1", 
	 "Tm": 410.15, 
	 "num_atms": 26, 
	 "gaussian": { 
		 "optdone": 1, 
		 "sigma_profile": "yes", 
		 "theory": "DFT", 
		 "functional": "B3LYP", 
		 "basiset": "6-31G**", 
		 "properties": { 
			 "R2extent": 3310.5885, 
			 "electric_dipole_moment_norm": 5.48039668728, 
			 "electric_quadrupole_moment_norm": 19.6515773212, 
			 "total_energy": -644.423819592, 
			 "HOMO_LUMO_gap": 0.16297, 
			 "cosmo_polarized_energy": -20.46, 
			 "cosmo_cavitation_energy": 28.69, 
			 "cosmo_dispersion_energy": -21.5, 
			 "cosmo_repulsion_energy": 1.7, 
			 "cosmo_total_nonelectrostatic_energy": 8.89, 
			 "SMD_solvation_energy": 2.62 
		},
		"coords": [
			{
				"x": -3.8523893883,
				"y": 0.6853015282,
				"z": -2.1236388666,
				"element": "N" 
			},
			{
				"x": -2.6418268723,
				"y": 0.4501084302,
				"z": -1.4527513531,
				"element": "C" 
			},
			{
				"x": -1.9568150508,
				"y": -0.7652117713,
				"z": -1.5665444386,
				"element": "C" 
			},
			{
				"x": -0.8395625003,
				"y": -1.0643594328,
				"z": -0.9026148691,
				"element": "N" 
			},
			{
				"x": -0.3060045403,
				"y": -0.1667343451,
				"z": -0.0627937876,
				"element": "C" 
			},
			{
				"x": -0.9107273909,
				"y": 1.097437148,
				"z": 0.1123906524,
				"element": "C" 
			},
			{
				"x": -2.0767586736,
				"y": 1.3919962335,
				"z": -0.5803101133,
				"element": "C" 
			},
			{
				"x": 0.8332749579,
				"y": -0.5718585076,
				"z": 0.650126618,
				"element": "N" 
			},
			{
				"x": 1.6723176327,
				"y": 0.3921133399,
				"z": 1.3413985645,
				"element": "C" 
			},
			{
				"x": 2.6919920007,
				"y": 1.0083722303,
				"z": 0.3798924615,
				"element": "C" 
			},
			{
				"x": 3.3869408876,
				"y": -0.0644638479,
				"z": -0.323556001,
				"element": "N" 
			},
			{
				"x": 2.9388032386,
				"y": -1.3476742677,
				"z": -0.5000561544,
				"element": "C" 
			},
			{
				"x": 3.5831225766,
				"y": -2.1812798462,
				"z": -1.1220670376,
				"element": "O" 
			},
			{
				"x": 1.6086881062,
				"y": -1.7119738787,
				"z": 0.1678358657,
				"element": "C" 
			},
			{
				"x": -4.0162068208,
				"y": 1.6576105116,
				"z": -2.3518550605,
				"element": "H" 
			},
			{
				"x": -3.9853828518,
				"y": 0.103539898,
				"z": -2.9412835794,
				"element": "H" 
			},
			{
				"x": -2.3363784902,
				"y": -1.5405324019,
				"z": -2.2333568965,
				"element": "H" 
			},
			{
				"x": -0.491435787,
				"y": 1.8468308833,
				"z": 0.7722852466,
				"element": "H" 
			},
			{
				"x": -2.5524551794,
				"y": 2.3604522974,
				"z": -0.4437643321,
				"element": "H" 
			},
			{
				"x": 2.2034220526,
				"y": -0.1390520991,
				"z": 2.1413462329,
				"element": "H" 
			},
			{
				"x": 1.0738009891,
				"y": 1.1678899868,
				"z": 1.8205974544,
				"element": "H" 
			},
			{
				"x": 2.1778943802,
				"y": 1.6755311555,
				"z": -0.3273177063,
				"element": "H" 
			},
			{
				"x": 3.4218793825,
				"y": 1.6108987594,
				"z": 0.9346187223,
				"element": "H" 
			},
			{
				"x": 4.2440336441,
				"y": 0.1435710242,
				"z": -0.8191486751,
				"element": "H" 
			},
			{
				"x": 1.012702587,
				"y": -2.2703324357,
				"z": -0.5518135738,
				"element": "H" 
			},
			{
				"x": 1.8430711099,
				"y": -2.3874805922,
				"z": 1.0022806267,
				"element": "H" 
			}
		],
		 "valence_orbital": [ 
			{
				"type": "occ",
				"energy": -0.26763,
				"method": "rhf"
			},
			{
				"type": "occ",
				"energy": -0.25042,
				"method": "rhf"
			},
			{
				"type": "occ",
				"energy": -0.24556,
				"method": "rhf"
			},
			{
				"type": "occ",
				"energy": -0.23535,
				"method": "rhf"
			},
			{
				"type": "occ",
				"energy": -0.17937,
				"method": "rhf"
			},
			{
				"type": "unocc",
				"energy": -0.0164,
				"method": "rhf"
			},
			{
				"type": "unocc",
				"energy": 0.02194,
				"method": "rhf"
			},
			{
				"type": "unocc",
				"energy": 0.03622,
				"method": "rhf"
			},
			{
				"type": "unocc",
				"energy": 0.07687,
				"method": "rhf"
			},
			{
				"type": "unocc",
				"energy": 0.07948,
				"method": "rhf"
			}
		],
		"cosmo_sigma_profile": { 
			"-0.025": 0.0,
			"-0.024": 0.0,
			"-0.023": 0.0,
			"-0.022": 0.0,
			"-0.021": 0.0,
			"-0.02": 0.0,
			"-0.019": 0.0,
			"-0.018": 0.0,
			"-0.017": 0.0,
			"-0.016": 0.0,
			"-0.015": 0.0,
			"-0.014": 0.39523658594,
			"-0.013": 1.21084632812,
			"-0.012": 3.39954431785,
			"-0.011": 3.79671025673,
			"-0.01": 3.5490143682,
			"-0.009": 4.72032332416,
			"-0.008": 6.24441176744,
			"-0.007": 7.50970294075,
			"-0.006": 14.1962242636,
			"-0.005": 18.9043774448,
			"-0.004": 17.9938383795,
			"-0.003": 15.7902950379,
			"-0.002": 12.7501124067,
			"-0.001": 10.6226135494,
			"0.0": 9.55098852902,
			"0.001": 8.12986378813,
			"0.002": 8.94803562959,
			"0.003": 10.1060179067,
			"0.004": 14.3830774388,
			"0.005": 10.5253649716,
			"0.006": 6.24816727489,
			"0.007": 5.15877891117,
			"0.008": 4.63968297506,
			"0.009": 4.32439661447,
			"0.01": 2.49205438894,
			"0.011": 4.06140010634,
			"0.012": 2.42273554163,
			"0.013": 3.55684743349,
			"0.014": 7.13539955895,
			"0.015": 3.32895740552,
			"0.016": 0.311431292594,
			"0.017": 0.0,
			"0.018": 0.0,
			"0.019": 0.0,
			"0.02": 0.0,
			"0.021": 0.0,
			"0.022": 0.0,
			"0.023": 0.0,
			"0.024": 0.0,
			"0.025": 0.0
		}
	}
}
