{
	 "smiles": "NNC(=O)CC1=NC2=C(N1)C=CC=C2", 
	 "Tm": 452.15, 
	 "num_atms": 24, 
	 "gaussian": { 
		 "optdone": 1, 
		 "sigma_profile": "yes", 
		 "theory": "DFT", 
		 "functional": "B3LYP", 
		 "basiset": "6-31G**", 
		 "properties": { 
			 "R2extent": 3382.0366, 
			 "electric_dipole_moment_norm": 2.05579793268, 
			 "electric_quadrupole_moment_norm": 16.4541646172, 
			 "total_energy": -643.212458775, 
			 "HOMO_LUMO_gap": 0.20003, 
			 "cosmo_polarized_energy": -17.93, 
			 "cosmo_cavitation_energy": 28.22, 
			 "cosmo_dispersion_energy": -20.7, 
			 "cosmo_repulsion_energy": 1.64, 
			 "cosmo_total_nonelectrostatic_energy": 9.16, 
			 "SMD_solvation_energy": 4.19 
		},
		"coords": [
			{
				"x": 1.9950334533,
				"y": -1.7573594373,
				"z": 1.3473430426,
				"element": "N" 
			},
			{
				"x": 1.6487639264,
				"y": -2.8099440498,
				"z": 0.4802740486,
				"element": "N" 
			},
			{
				"x": 1.2838477796,
				"y": -2.7216486376,
				"z": -0.8333384524,
				"element": "C" 
			},
			{
				"x": 0.8594495967,
				"y": -3.6816120946,
				"z": -1.4625028893,
				"element": "O" 
			},
			{
				"x": 1.4006626579,
				"y": -1.3269875231,
				"z": -1.4733452123,
				"element": "C" 
			},
			{
				"x": 0.1999385826,
				"y": -0.4982989738,
				"z": -1.1325991258,
				"element": "C" 
			},
			{
				"x": 0.0932814178,
				"y": 0.2736872908,
				"z": -0.0727139297,
				"element": "N" 
			},
			{
				"x": -1.2013916348,
				"y": 0.7780527423,
				"z": -0.116507806,
				"element": "C" 
			},
			{
				"x": -1.8822908502,
				"y": 0.2741152216,
				"z": -1.2509462757,
				"element": "C" 
			},
			{
				"x": -0.95232237,
				"y": -0.5373011647,
				"z": -1.8817555086,
				"element": "N" 
			},
			{
				"x": -3.2020257068,
				"y": 0.6168520368,
				"z": -1.5487333748,
				"element": "C" 
			},
			{
				"x": -3.8359969527,
				"y": 1.4878036978,
				"z": -0.6657202739,
				"element": "C" 
			},
			{
				"x": -3.1736677698,
				"y": 1.9991667598,
				"z": 0.4684587045,
				"element": "C" 
			},
			{
				"x": -1.8566226713,
				"y": 1.6552756432,
				"z": 0.756278055,
				"element": "C" 
			},
			{
				"x": 1.3532416285,
				"y": -0.9723409426,
				"z": 1.2218537322,
				"element": "H" 
			},
			{
				"x": 2.942859535,
				"y": -1.4447442648,
				"z": 1.1493495255,
				"element": "H" 
			},
			{
				"x": 1.4720448099,
				"y": -3.7025903843,
				"z": 0.9235658086,
				"element": "H" 
			},
			{
				"x": 1.4727922006,
				"y": -1.4877681279,
				"z": -2.5509657451,
				"element": "H" 
			},
			{
				"x": 2.2935019774,
				"y": -0.7998231351,
				"z": -1.1303334041,
				"element": "H" 
			},
			{
				"x": -1.1031688184,
				"y": -1.123137531,
				"z": -2.6890944704,
				"element": "H" 
			},
			{
				"x": -3.7147124548,
				"y": 0.2248594103,
				"z": -2.4218324587,
				"element": "H" 
			},
			{
				"x": -4.8644796267,
				"y": 1.7793824027,
				"z": -0.8562213465,
				"element": "H" 
			},
			{
				"x": -3.7065149086,
				"y": 2.6758947175,
				"z": 1.1296890116,
				"element": "H" 
			},
			{
				"x": -1.3424238017,
				"y": 2.0463663439,
				"z": 1.6281983448,
				"element": "H" 
			}
		],
		 "valence_orbital": [ 
			{
				"type": "occ",
				"energy": -0.27664,
				"method": "rhf"
			},
			{
				"type": "occ",
				"energy": -0.25686,
				"method": "rhf"
			},
			{
				"type": "occ",
				"energy": -0.24963,
				"method": "rhf"
			},
			{
				"type": "occ",
				"energy": -0.23354,
				"method": "rhf"
			},
			{
				"type": "occ",
				"energy": -0.22473,
				"method": "rhf"
			},
			{
				"type": "unocc",
				"energy": -0.0247,
				"method": "rhf"
			},
			{
				"type": "unocc",
				"energy": 0.01506,
				"method": "rhf"
			},
			{
				"type": "unocc",
				"energy": 0.02183,
				"method": "rhf"
			},
			{
				"type": "unocc",
				"energy": 0.04902,
				"method": "rhf"
			},
			{
				"type": "unocc",
				"energy": 0.071,
				"method": "rhf"
			}
		],
		"cosmo_sigma_profile": { 
			"-0.025": 0.0,
			"-0.024": 0.0,
			"-0.023": 0.0,
			"-0.022": 0.0,
			"-0.021": 0.0,
			"-0.02": 0.0,
			"-0.019": 0.0,
			"-0.018": 0.0,
			"-0.017": 0.348062036263,
			"-0.016": 1.31405499697,
			"-0.015": 1.29083871806,
			"-0.014": 1.87859597557,
			"-0.013": 1.6095710989,
			"-0.012": 3.02548676669,
			"-0.011": 4.02007285327,
			"-0.01": 4.1398735306,
			"-0.009": 4.29569668624,
			"-0.008": 4.44180569267,
			"-0.007": 6.93402741475,
			"-0.006": 9.31144619719,
			"-0.005": 12.3459468544,
			"-0.004": 14.8564478664,
			"-0.003": 15.593198142,
			"-0.002": 10.584186786,
			"-0.001": 12.0345374786,
			"0.0": 12.4590295614,
			"0.001": 12.9130111382,
			"0.002": 12.0396659118,
			"0.003": 11.8560076816,
			"0.004": 13.5291285505,
			"0.005": 13.8907494513,
			"0.006": 9.8521195878,
			"0.007": 2.7774767789,
			"0.008": 3.93608112683,
			"0.009": 2.20729657443,
			"0.01": 1.6704122459,
			"0.011": 2.98558184646,
			"0.012": 3.23208745109,
			"0.013": 6.44291773821,
			"0.014": 5.1296894687,
			"0.015": 0.764702998294,
			"0.016": 0.696070796962,
			"0.017": 0.0,
			"0.018": 0.0,
			"0.019": 0.0,
			"0.02": 0.0,
			"0.021": 0.0,
			"0.022": 0.0,
			"0.023": 0.0,
			"0.024": 0.0,
			"0.025": 0.0
		}
	}
}
