{
	 "smiles": "CCCCC(=O)C1=CC=C(Br)C=C1", 
	 "Tm": 308.15, 
	 "num_atms": 26, 
	 "gaussian": { 
		 "optdone": 1, 
		 "sigma_profile": "yes", 
		 "theory": "DFT", 
		 "functional": "B3LYP", 
		 "basiset": "6-31G**", 
		 "properties": { 
			 "R2extent": 6439.7611, 
			 "electric_dipole_moment_norm": 2.21712568881, 
			 "electric_quadrupole_moment_norm": 8.548061637, 
			 "total_energy": -3073.64731403, 
			 "HOMO_LUMO_gap": 0.18476, 
			 "cosmo_polarized_energy": -7.75, 
			 "cosmo_cavitation_energy": 31.57, 
			 "cosmo_dispersion_energy": -22.86, 
			 "cosmo_repulsion_energy": 1.84, 
			 "cosmo_total_nonelectrostatic_energy": 10.55, 
			 "SMD_solvation_energy": 4.43 
		},
		"coords": [
			{
				"x": 1.6991310584,
				"y": -3.6596520136,
				"z": 0.0952785217,
				"element": "C" 
			},
			{
				"x": 0.3686536231,
				"y": -2.9417668509,
				"z": -0.1519401728,
				"element": "C" 
			},
			{
				"x": 0.4371372986,
				"y": -1.9619532862,
				"z": -1.3308077944,
				"element": "C" 
			},
			{
				"x": -0.8969177458,
				"y": -1.2318340138,
				"z": -1.6187702913,
				"element": "C" 
			},
			{
				"x": -1.3257558112,
				"y": -0.3182982035,
				"z": -0.4786818471,
				"element": "C" 
			},
			{
				"x": -2.1403977567,
				"y": -0.7038535797,
				"z": 0.3488504019,
				"element": "O" 
			},
			{
				"x": -0.7164156327,
				"y": 1.0492486859,
				"z": -0.3495503379,
				"element": "C" 
			},
			{
				"x": 0.1933901389,
				"y": 1.5823339904,
				"z": -1.2749966953,
				"element": "C" 
			},
			{
				"x": 0.7235521016,
				"y": 2.8604388015,
				"z": -1.102181971,
				"element": "C" 
			},
			{
				"x": 0.337043796,
				"y": 3.6101414014,
				"z": 0.0075642143,
				"element": "C" 
			},
			{
				"x": 1.0572472105,
				"y": 5.3603556325,
				"z": 0.2504744709,
				"element": "Br" 
			},
			{
				"x": -0.5675302149,
				"y": 3.1046970294,
				"z": 0.9441067544,
				"element": "C" 
			},
			{
				"x": -1.0866762596,
				"y": 1.8286468708,
				"z": 0.758523355,
				"element": "C" 
			},
			{
				"x": 2.0134996411,
				"y": -4.231553803,
				"z": -0.7855040378,
				"element": "H" 
			},
			{
				"x": 1.6232698021,
				"y": -4.3581119552,
				"z": 0.9346678465,
				"element": "H" 
			},
			{
				"x": 2.4985554134,
				"y": -2.9468071583,
				"z": 0.3282181543,
				"element": "H" 
			},
			{
				"x": -0.4201812335,
				"y": -3.6802162686,
				"z": -0.3459875352,
				"element": "H" 
			},
			{
				"x": 0.0617729366,
				"y": -2.4090610494,
				"z": 0.7557702788,
				"element": "H" 
			},
			{
				"x": 1.2312304138,
				"y": -1.2256940114,
				"z": -1.1493952899,
				"element": "H" 
			},
			{
				"x": 0.7274467216,
				"y": -2.5069900917,
				"z": -2.2382916951,
				"element": "H" 
			},
			{
				"x": -0.8128955119,
				"y": -0.6667738608,
				"z": -2.5535765911,
				"element": "H" 
			},
			{
				"x": -1.6970102371,
				"y": -1.9671074898,
				"z": -1.7448377134,
				"element": "H" 
			},
			{
				"x": 0.4996145609,
				"y": 1.0079466929,
				"z": -2.1426241292,
				"element": "H" 
			},
			{
				"x": 1.4258032678,
				"y": 3.2698187813,
				"z": -1.8191620103,
				"element": "H" 
			},
			{
				"x": -0.8562255424,
				"y": 3.7034307883,
				"z": 1.80046908,
				"element": "H" 
			},
			{
				"x": -1.7921420386,
				"y": 1.4071149613,
				"z": 1.4666850342,
				"element": "H" 
			}
		],
		 "valence_orbital": [ 
			{
				"type": "occ",
				"energy": -0.31597,
				"method": "rhf"
			},
			{
				"type": "occ",
				"energy": -0.29505,
				"method": "rhf"
			},
			{
				"type": "occ",
				"energy": -0.27357,
				"method": "rhf"
			},
			{
				"type": "occ",
				"energy": -0.25217,
				"method": "rhf"
			},
			{
				"type": "occ",
				"energy": -0.24948,
				"method": "rhf"
			},
			{
				"type": "unocc",
				"energy": -0.06472,
				"method": "rhf"
			},
			{
				"type": "unocc",
				"energy": -0.02325,
				"method": "rhf"
			},
			{
				"type": "unocc",
				"energy": 5e-05,
				"method": "rhf"
			},
			{
				"type": "unocc",
				"energy": 0.0272,
				"method": "rhf"
			},
			{
				"type": "unocc",
				"energy": 0.08969,
				"method": "rhf"
			}
		],
		"cosmo_sigma_profile": { 
			"-0.025": 0.0,
			"-0.024": 0.0,
			"-0.023": 0.0,
			"-0.022": 0.0,
			"-0.021": 0.0,
			"-0.02": 0.0,
			"-0.019": 0.0,
			"-0.018": 0.0,
			"-0.017": 0.0,
			"-0.016": 0.0,
			"-0.015": 0.0,
			"-0.014": 0.0,
			"-0.013": 0.0,
			"-0.012": 0.0,
			"-0.011": 0.0,
			"-0.01": 0.0,
			"-0.009": 0.0,
			"-0.008": 1.8157446016,
			"-0.007": 6.41510089181,
			"-0.006": 8.785295821,
			"-0.005": 9.83800208451,
			"-0.004": 11.7280098153,
			"-0.003": 21.2154441601,
			"-0.002": 31.4223654956,
			"-0.001": 28.7254468479,
			"0.0": 26.8487413249,
			"0.001": 30.4329954657,
			"0.002": 26.7721647835,
			"0.003": 15.5472948661,
			"0.004": 13.1399882097,
			"0.005": 4.00569283134,
			"0.006": 2.03715088754,
			"0.007": 0.859092588916,
			"0.008": 1.80838131072,
			"0.009": 1.82778236227,
			"0.01": 1.85476468368,
			"0.011": 2.65799268071,
			"0.012": 3.59643488631,
			"0.013": 1.27500926857,
			"0.014": 0.147748088094,
			"0.015": 0.0,
			"0.016": 0.0,
			"0.017": 0.0,
			"0.018": 0.0,
			"0.019": 0.0,
			"0.02": 0.0,
			"0.021": 0.0,
			"0.022": 0.0,
			"0.023": 0.0,
			"0.024": 0.0,
			"0.025": 0.0
		}
	}
}
