{
	 "smiles": "CCC1=CC2=C(S1)N=CN(N)C2=O", 
	 "Tm": 411.15, 
	 "num_atms": 22, 
	 "gaussian": { 
		 "optdone": 1, 
		 "sigma_profile": "yes", 
		 "theory": "DFT", 
		 "functional": "B3LYP", 
		 "basiset": "6-31G**", 
		 "properties": { 
			 "R2extent": 3435.8845, 
			 "electric_dipole_moment_norm": 0.612268658352, 
			 "electric_quadrupole_moment_norm": 12.7124418158, 
			 "total_energy": -947.929993033, 
			 "HOMO_LUMO_gap": 0.17517, 
			 "cosmo_polarized_energy": -11.81, 
			 "cosmo_cavitation_energy": 27.72, 
			 "cosmo_dispersion_energy": -20.87, 
			 "cosmo_repulsion_energy": 1.6, 
			 "cosmo_total_nonelectrostatic_energy": 8.45, 
			 "SMD_solvation_energy": 4.08 
		},
		"coords": [
			{
				"x": -2.3152621562,
				"y": -1.2434137349,
				"z": 2.6670367333,
				"element": "C" 
			},
			{
				"x": -2.4927017239,
				"y": -1.5055930339,
				"z": 1.160787517,
				"element": "C" 
			},
			{
				"x": -1.2579153048,
				"y": -1.2487405354,
				"z": 0.3430295855,
				"element": "C" 
			},
			{
				"x": -1.0506081565,
				"y": -0.2651270538,
				"z": -0.5815528576,
				"element": "C" 
			},
			{
				"x": 0.2536668644,
				"y": -0.3063649552,
				"z": -1.1638863311,
				"element": "C" 
			},
			{
				"x": 1.043463067,
				"y": -1.3415064086,
				"z": -0.6676894367,
				"element": "C" 
			},
			{
				"x": 0.1706566738,
				"y": -2.271219426,
				"z": 0.5274943592,
				"element": "S" 
			},
			{
				"x": 2.3233860588,
				"y": -1.6318943788,
				"z": -1.0313936726,
				"element": "N" 
			},
			{
				"x": 2.819543385,
				"y": -0.8385177854,
				"z": -1.9351073642,
				"element": "C" 
			},
			{
				"x": 2.1465682157,
				"y": 0.2116231032,
				"z": -2.4993531907,
				"element": "N" 
			},
			{
				"x": 2.8362191946,
				"y": 0.9739651059,
				"z": -3.4692101465,
				"element": "N" 
			},
			{
				"x": 0.8076397192,
				"y": 0.5737502003,
				"z": -2.1684039945,
				"element": "C" 
			},
			{
				"x": 0.2798502063,
				"y": 1.5307583448,
				"z": -2.723408764,
				"element": "O" 
			},
			{
				"x": -1.5487030439,
				"y": -1.8955202269,
				"z": 3.0973923418,
				"element": "H" 
			},
			{
				"x": -3.2523935076,
				"y": -1.428441975,
				"z": 3.2014511854,
				"element": "H" 
			},
			{
				"x": -2.0142655588,
				"y": -0.2075281869,
				"z": 2.8497932404,
				"element": "H" 
			},
			{
				"x": -3.2866947937,
				"y": -0.8616240207,
				"z": 0.7661017019,
				"element": "H" 
			},
			{
				"x": -2.83071047,
				"y": -2.5391093266,
				"z": 1.0100531632,
				"element": "H" 
			},
			{
				"x": -1.7972463234,
				"y": 0.4722674659,
				"z": -0.8520539379,
				"element": "H" 
			},
			{
				"x": 3.8317647586,
				"y": -0.9720641224,
				"z": -2.3038553767,
				"element": "H" 
			},
			{
				"x": 2.253987267,
				"y": 0.9652997238,
				"z": -4.3076117866,
				"element": "H" 
			},
			{
				"x": 2.8044556283,
				"y": 1.9424012266,
				"z": -3.1481129683,
				"element": "H" 
			}
		],
		 "valence_orbital": [ 
			{
				"type": "occ",
				"energy": -0.28861,
				"method": "rhf"
			},
			{
				"type": "occ",
				"energy": -0.28509,
				"method": "rhf"
			},
			{
				"type": "occ",
				"energy": -0.26927,
				"method": "rhf"
			},
			{
				"type": "occ",
				"energy": -0.26053,
				"method": "rhf"
			},
			{
				"type": "occ",
				"energy": -0.22031,
				"method": "rhf"
			},
			{
				"type": "unocc",
				"energy": -0.04514,
				"method": "rhf"
			},
			{
				"type": "unocc",
				"energy": -0.01112,
				"method": "rhf"
			},
			{
				"type": "unocc",
				"energy": 0.01758,
				"method": "rhf"
			},
			{
				"type": "unocc",
				"energy": 0.02602,
				"method": "rhf"
			},
			{
				"type": "unocc",
				"energy": 0.07358,
				"method": "rhf"
			}
		],
		"cosmo_sigma_profile": { 
			"-0.025": 0.0,
			"-0.024": 0.0,
			"-0.023": 0.0,
			"-0.022": 0.0,
			"-0.021": 0.0,
			"-0.02": 0.0,
			"-0.019": 0.0,
			"-0.018": 0.0,
			"-0.017": 0.0,
			"-0.016": 0.0,
			"-0.015": 0.0,
			"-0.014": 0.0,
			"-0.013": 1.2036450177,
			"-0.012": 2.73362345014,
			"-0.011": 2.93656438408,
			"-0.01": 2.36119363506,
			"-0.009": 3.51813171305,
			"-0.008": 3.40983857243,
			"-0.007": 4.36869587106,
			"-0.006": 5.04725802403,
			"-0.005": 10.0483663434,
			"-0.004": 16.756664587,
			"-0.003": 18.9315836728,
			"-0.002": 18.1407911765,
			"-0.001": 18.8530526964,
			"0.0": 19.1419062472,
			"0.001": 21.8405954303,
			"0.002": 18.8414539861,
			"0.003": 13.0840308121,
			"0.004": 7.69737190144,
			"0.005": 3.79156440526,
			"0.006": 2.93247916604,
			"0.007": 3.46261189795,
			"0.008": 2.57406626607,
			"0.009": 2.75402401549,
			"0.01": 2.98085598625,
			"0.011": 3.39562597084,
			"0.012": 4.85080706893,
			"0.013": 5.4660536008,
			"0.014": 1.38245036751,
			"0.015": 0.0517861599952,
			"0.016": 0.0,
			"0.017": 0.0,
			"0.018": 0.0,
			"0.019": 0.0,
			"0.02": 0.0,
			"0.021": 0.0,
			"0.022": 0.0,
			"0.023": 0.0,
			"0.024": 0.0,
			"0.025": 0.0
		}
	}
}
