{
	 "smiles": "CC1=C(SC=C1)C1=NN=C(N)N1", 
	 "Tm": 463.15, 
	 "num_atms": 20, 
	 "gaussian": { 
		 "optdone": 1, 
		 "sigma_profile": "yes", 
		 "theory": "DFT", 
		 "functional": "B3LYP", 
		 "basiset": "6-31G**", 
		 "properties": { 
			 "R2extent": 3510.6913, 
			 "electric_dipole_moment_norm": 4.0684134549, 
			 "electric_quadrupole_moment_norm": 14.5948780899, 
			 "total_energy": -888.735380826, 
			 "HOMO_LUMO_gap": 0.16625, 
			 "cosmo_polarized_energy": -20.8, 
			 "cosmo_cavitation_energy": 25.79, 
			 "cosmo_dispersion_energy": -19.83, 
			 "cosmo_repulsion_energy": 1.54, 
			 "cosmo_total_nonelectrostatic_energy": 7.5, 
			 "SMD_solvation_energy": 2.48 
		},
		"coords": [
			{
				"x": 1.8491157128,
				"y": -0.5652775033,
				"z": -2.7086951385,
				"element": "C" 
			},
			{
				"x": 0.4108779225,
				"y": -0.477666373,
				"z": -3.1389820355,
				"element": "C" 
			},
			{
				"x": -0.6491920181,
				"y": -0.1461290081,
				"z": -2.3145309602,
				"element": "C" 
			},
			{
				"x": -2.1662826473,
				"y": -0.1295017178,
				"z": -3.1973971547,
				"element": "S" 
			},
			{
				"x": -1.3709322752,
				"y": -0.5902966244,
				"z": -4.6661485757,
				"element": "C" 
			},
			{
				"x": -0.0253725155,
				"y": -0.7278961384,
				"z": -4.4793597382,
				"element": "C" 
			},
			{
				"x": -0.6223452744,
				"y": 0.1603429095,
				"z": -0.8984821113,
				"element": "C" 
			},
			{
				"x": 0.437357833,
				"y": 0.4558233757,
				"z": -0.1731816139,
				"element": "N" 
			},
			{
				"x": 0.0196091041,
				"y": 0.6833802793,
				"z": 1.1267591383,
				"element": "N" 
			},
			{
				"x": -1.2816592486,
				"y": 0.5117641536,
				"z": 1.1532614747,
				"element": "C" 
			},
			{
				"x": -2.0980253354,
				"y": 0.5636933192,
				"z": 2.2746647528,
				"element": "N" 
			},
			{
				"x": -1.7506362483,
				"y": 0.1912276107,
				"z": -0.0930318513,
				"element": "N" 
			},
			{
				"x": 1.9372348314,
				"y": -0.9343480736,
				"z": -1.6849362153,
				"element": "H" 
			},
			{
				"x": 2.4136647247,
				"y": -1.2150812158,
				"z": -3.3841390652,
				"element": "H" 
			},
			{
				"x": 2.3215234589,
				"y": 0.423935849,
				"z": -2.7168035533,
				"element": "H" 
			},
			{
				"x": -1.9450495391,
				"y": -0.724896199,
				"z": -5.5719369896,
				"element": "H" 
			},
			{
				"x": 0.6567770606,
				"y": -1.0089955288,
				"z": -5.2746262081,
				"element": "H" 
			},
			{
				"x": -2.8912275466,
				"y": 1.1892798719,
				"z": 2.1790653824,
				"element": "H" 
			},
			{
				"x": -1.5465013269,
				"y": 0.8169248224,
				"z": 3.0869082285,
				"element": "H" 
			},
			{
				"x": -2.6751366727,
				"y": -0.1418838089,
				"z": -0.3219077657,
				"element": "H" 
			}
		],
		 "valence_orbital": [ 
			{
				"type": "occ",
				"energy": -0.2968,
				"method": "rhf"
			},
			{
				"type": "occ",
				"energy": -0.26105,
				"method": "rhf"
			},
			{
				"type": "occ",
				"energy": -0.25048,
				"method": "rhf"
			},
			{
				"type": "occ",
				"energy": -0.24706,
				"method": "rhf"
			},
			{
				"type": "occ",
				"energy": -0.20199,
				"method": "rhf"
			},
			{
				"type": "unocc",
				"energy": -0.03574,
				"method": "rhf"
			},
			{
				"type": "unocc",
				"energy": 0.01493,
				"method": "rhf"
			},
			{
				"type": "unocc",
				"energy": 0.04091,
				"method": "rhf"
			},
			{
				"type": "unocc",
				"energy": 0.05249,
				"method": "rhf"
			},
			{
				"type": "unocc",
				"energy": 0.05869,
				"method": "rhf"
			}
		],
		"cosmo_sigma_profile": { 
			"-0.025": 0.0,
			"-0.024": 0.0,
			"-0.023": 0.0,
			"-0.022": 0.0,
			"-0.021": 0.0,
			"-0.02": 0.0,
			"-0.019": 0.0,
			"-0.018": 0.083412271142,
			"-0.017": 0.688125947601,
			"-0.016": 1.16683919333,
			"-0.015": 1.28690167459,
			"-0.014": 2.74516964163,
			"-0.013": 3.78284804719,
			"-0.012": 4.5216629225,
			"-0.011": 3.64433606104,
			"-0.01": 3.23106113578,
			"-0.009": 3.84320646517,
			"-0.008": 4.68966260288,
			"-0.007": 4.88503604394,
			"-0.006": 6.28214036174,
			"-0.005": 7.49519639334,
			"-0.004": 11.1182571554,
			"-0.003": 9.03195434969,
			"-0.002": 11.4740648496,
			"-0.001": 13.3979462142,
			"0.0": 17.1050227544,
			"0.001": 14.8741298328,
			"0.002": 12.3780858189,
			"0.003": 14.7407169606,
			"0.004": 15.5863299207,
			"0.005": 7.16799515137,
			"0.006": 3.20882293028,
			"0.007": 1.91244907901,
			"0.008": 3.20604975761,
			"0.009": 2.93693862351,
			"0.01": 2.58094001145,
			"0.011": 2.53996405787,
			"0.012": 3.00935996409,
			"0.013": 2.78306472813,
			"0.014": 3.53490217163,
			"0.015": 3.49068381204,
			"0.016": 1.9738728749,
			"0.017": 1.23816059376,
			"0.018": 0.178620156121,
			"0.019": 0.0,
			"0.02": 0.0,
			"0.021": 0.0,
			"0.022": 0.0,
			"0.023": 0.0,
			"0.024": 0.0,
			"0.025": 0.0
		}
	}
}
