{
	 "smiles": "COC1=CC(C(O)=O)=C(N)C(OC)=C1", 
	 "Tm": 463.15, 
	 "num_atms": 25, 
	 "gaussian": { 
		 "optdone": 1, 
		 "sigma_profile": "yes", 
		 "theory": "DFT", 
		 "functional": "B3LYP", 
		 "basiset": "6-31G**", 
		 "properties": { 
			 "R2extent": 3422.5723, 
			 "electric_dipole_moment_norm": 2.1156168084, 
			 "electric_quadrupole_moment_norm": 7.9069803895, 
			 "total_energy": -705.230996307, 
			 "HOMO_LUMO_gap": 0.1466, 
			 "cosmo_polarized_energy": -12.31, 
			 "cosmo_cavitation_energy": 28.86, 
			 "cosmo_dispersion_energy": -21.33, 
			 "cosmo_repulsion_energy": 1.69, 
			 "cosmo_total_nonelectrostatic_energy": 9.22, 
			 "SMD_solvation_energy": 7.39 
		},
		"coords": [
			{
				"x": -1.8879252492,
				"y": 3.2323739499,
				"z": 2.2609791537,
				"element": "C" 
			},
			{
				"x": -1.8965619369,
				"y": 2.956725275,
				"z": 0.8724807147,
				"element": "O" 
			},
			{
				"x": -1.0085735856,
				"y": 2.0268412362,
				"z": 0.3952256826,
				"element": "C" 
			},
			{
				"x": -1.037529111,
				"y": 1.7880535117,
				"z": -0.9729823547,
				"element": "C" 
			},
			{
				"x": -0.1622049663,
				"y": 0.8630028363,
				"z": -1.571239407,
				"element": "C" 
			},
			{
				"x": -0.1790058112,
				"y": 0.6718908199,
				"z": -3.0307212691,
				"element": "C" 
			},
			{
				"x": -1.1269282279,
				"y": 1.4022390342,
				"z": -3.6691732328,
				"element": "O" 
			},
			{
				"x": 0.5734545281,
				"y": -0.0575947914,
				"z": -3.6682320513,
				"element": "O" 
			},
			{
				"x": 0.7644392234,
				"y": 0.1343922409,
				"z": -0.7772235255,
				"element": "C" 
			},
			{
				"x": 1.6222127882,
				"y": -0.8203954223,
				"z": -1.271322134,
				"element": "N" 
			},
			{
				"x": 0.7659033955,
				"y": 0.3970171886,
				"z": 0.6120289715,
				"element": "C" 
			},
			{
				"x": 1.6891112361,
				"y": -0.2745910211,
				"z": 1.3961742066,
				"element": "O" 
			},
			{
				"x": 1.2058256057,
				"y": -1.5152617374,
				"z": 1.9242094759,
				"element": "C" 
			},
			{
				"x": -0.0909527239,
				"y": 1.3219845549,
				"z": 1.1919078612,
				"element": "C" 
			},
			{
				"x": -2.1314229779,
				"y": 2.3419425673,
				"z": 2.8568402306,
				"element": "H" 
			},
			{
				"x": -2.6563665105,
				"y": 3.9899049996,
				"z": 2.4243195945,
				"element": "H" 
			},
			{
				"x": -0.9187228586,
				"y": 3.6281947361,
				"z": 2.593927786,
				"element": "H" 
			},
			{
				"x": -1.7399791014,
				"y": 2.3378596028,
				"z": -1.5862706305,
				"element": "H" 
			},
			{
				"x": -1.021378852,
				"y": 1.1922783881,
				"z": -4.6112435176,
				"element": "H" 
			},
			{
				"x": 1.7314734316,
				"y": -0.8255954412,
				"z": -2.2776706722,
				"element": "H" 
			},
			{
				"x": 2.4395964604,
				"y": -0.9866931129,
				"z": -0.7024233823,
				"element": "H" 
			},
			{
				"x": 2.0272134921,
				"y": -1.9504509211,
				"z": 2.4977995596,
				"element": "H" 
			},
			{
				"x": 0.9139053646,
				"y": -2.2026329495,
				"z": 1.1214353824,
				"element": "H" 
			},
			{
				"x": 0.347174738,
				"y": -1.3525820237,
				"z": 2.5875714116,
				"element": "H" 
			},
			{
				"x": -0.0160583513,
				"y": 1.4789964792,
				"z": 2.2614021463,
				"element": "H" 
			}
		],
		 "valence_orbital": [ 
			{
				"type": "occ",
				"energy": -0.28082,
				"method": "rhf"
			},
			{
				"type": "occ",
				"energy": -0.27737,
				"method": "rhf"
			},
			{
				"type": "occ",
				"energy": -0.27195,
				"method": "rhf"
			},
			{
				"type": "occ",
				"energy": -0.25067,
				"method": "rhf"
			},
			{
				"type": "occ",
				"energy": -0.18688,
				"method": "rhf"
			},
			{
				"type": "unocc",
				"energy": -0.04028,
				"method": "rhf"
			},
			{
				"type": "unocc",
				"energy": 0.0211,
				"method": "rhf"
			},
			{
				"type": "unocc",
				"energy": 0.06688,
				"method": "rhf"
			},
			{
				"type": "unocc",
				"energy": 0.08326,
				"method": "rhf"
			},
			{
				"type": "unocc",
				"energy": 0.0932,
				"method": "rhf"
			}
		],
		"cosmo_sigma_profile": { 
			"-0.025": 0.0,
			"-0.024": 0.0,
			"-0.023": 0.0,
			"-0.022": 0.0,
			"-0.021": 0.0,
			"-0.02": 0.0,
			"-0.019": 0.0172222876912,
			"-0.018": 0.567187605335,
			"-0.017": 1.10736945845,
			"-0.016": 0.740022656284,
			"-0.015": 0.535773488638,
			"-0.014": 0.992814137749,
			"-0.013": 0.255334146111,
			"-0.012": 0.731737702214,
			"-0.011": 1.3868063527,
			"-0.01": 1.30967715424,
			"-0.009": 1.87704801102,
			"-0.008": 2.38954559588,
			"-0.007": 3.63879683871,
			"-0.006": 9.11254365409,
			"-0.005": 15.4376088934,
			"-0.004": 19.1855260888,
			"-0.003": 23.1632676799,
			"-0.002": 19.0996044555,
			"-0.001": 13.5845936009,
			"0.0": 11.1569151896,
			"0.001": 11.7020046021,
			"0.002": 15.1249668122,
			"0.003": 18.1972893731,
			"0.004": 14.7956435485,
			"0.005": 7.83487205888,
			"0.006": 6.47215061785,
			"0.007": 6.31331875345,
			"0.008": 4.54477389359,
			"0.009": 4.97776462785,
			"0.01": 5.40478574671,
			"0.011": 4.35718037479,
			"0.012": 2.50827071191,
			"0.013": 0.0902047169026,
			"0.014": 0.0,
			"0.015": 0.0,
			"0.016": 0.0,
			"0.017": 0.0,
			"0.018": 0.0,
			"0.019": 0.0,
			"0.02": 0.0,
			"0.021": 0.0,
			"0.022": 0.0,
			"0.023": 0.0,
			"0.024": 0.0,
			"0.025": 0.0
		}
	}
}
