{
	 "smiles": "OC1=C(SC(F)(F)F)C=CC=C1", 
	 "Tm": 306.15, 
	 "num_atms": 17, 
	 "gaussian": { 
		 "optdone": 1, 
		 "sigma_profile": "yes", 
		 "theory": "DFT", 
		 "functional": "B3LYP", 
		 "basiset": "6-31G**", 
		 "properties": { 
			 "R2extent": 2266.5023, 
			 "electric_dipole_moment_norm": 1.48928916601, 
			 "electric_quadrupole_moment_norm": 6.58654575859, 
			 "total_energy": -1042.68119262, 
			 "HOMO_LUMO_gap": 0.19926, 
			 "cosmo_polarized_energy": -5.02, 
			 "cosmo_cavitation_energy": 24.25, 
			 "cosmo_dispersion_energy": -17.7, 
			 "cosmo_repulsion_energy": 1.31, 
			 "cosmo_total_nonelectrostatic_energy": 7.85, 
			 "SMD_solvation_energy": 5.27 
		},
		"coords": [
			{
				"x": -0.7551962517,
				"y": 2.470886348,
				"z": 0.4595930996,
				"element": "O" 
			},
			{
				"x": 0.3304813118,
				"y": 1.7753827696,
				"z": 0.8645328064,
				"element": "C" 
			},
			{
				"x": 0.3939194035,
				"y": 0.3656386412,
				"z": 0.8479840454,
				"element": "C" 
			},
			{
				"x": -1.0386606171,
				"y": -0.5695227935,
				"z": 0.3285327429,
				"element": "S" 
			},
			{
				"x": -0.6763009345,
				"y": -0.7422070204,
				"z": -1.4583996172,
				"element": "C" 
			},
			{
				"x": -1.6867197303,
				"y": -1.4311279294,
				"z": -2.0119519569,
				"element": "F" 
			},
			{
				"x": -0.5839167165,
				"y": 0.4468366874,
				"z": -2.0794045259,
				"element": "F" 
			},
			{
				"x": 0.466572363,
				"y": -1.4041904752,
				"z": -1.6888201146,
				"element": "F" 
			},
			{
				"x": 1.552251737,
				"y": -0.2902168131,
				"z": 1.2887200453,
				"element": "C" 
			},
			{
				"x": 2.6475382737,
				"y": 0.4393278765,
				"z": 1.7383861472,
				"element": "C" 
			},
			{
				"x": 2.5800012149,
				"y": 1.8378144716,
				"z": 1.7528749418,
				"element": "C" 
			},
			{
				"x": 1.4372732108,
				"y": 2.5028845896,
				"z": 1.3239459802,
				"element": "C" 
			},
			{
				"x": -1.4323738297,
				"y": 1.8381829705,
				"z": 0.1656151843,
				"element": "H" 
			},
			{
				"x": 1.577696063,
				"y": -1.3748825748,
				"z": 1.2730127978,
				"element": "H" 
			},
			{
				"x": 3.5424630675,
				"y": -0.0728086245,
				"z": 2.0759980657,
				"element": "H" 
			},
			{
				"x": 3.4291690069,
				"y": 2.4166137512,
				"z": 2.1047532991,
				"element": "H" 
			},
			{
				"x": 1.3738024277,
				"y": 3.5857881254,
				"z": 1.3304270589,
				"element": "H" 
			}
		],
		 "valence_orbital": [ 
			{
				"type": "occ",
				"energy": -0.34914,
				"method": "rhf"
			},
			{
				"type": "occ",
				"energy": -0.34315,
				"method": "rhf"
			},
			{
				"type": "occ",
				"energy": -0.28022,
				"method": "rhf"
			},
			{
				"type": "occ",
				"energy": -0.26779,
				"method": "rhf"
			},
			{
				"type": "occ",
				"energy": -0.23554,
				"method": "rhf"
			},
			{
				"type": "unocc",
				"energy": -0.03628,
				"method": "rhf"
			},
			{
				"type": "unocc",
				"energy": -0.00438,
				"method": "rhf"
			},
			{
				"type": "unocc",
				"energy": 0.01636,
				"method": "rhf"
			},
			{
				"type": "unocc",
				"energy": 0.05158,
				"method": "rhf"
			},
			{
				"type": "unocc",
				"energy": 0.08858,
				"method": "rhf"
			}
		],
		"cosmo_sigma_profile": { 
			"-0.025": 0.0,
			"-0.024": 0.0,
			"-0.023": 0.0,
			"-0.022": 0.0,
			"-0.021": 0.0,
			"-0.02": 0.0,
			"-0.019": 0.0,
			"-0.018": 0.0,
			"-0.017": 0.0,
			"-0.016": 0.0,
			"-0.015": 0.0291114523886,
			"-0.014": 0.421879658219,
			"-0.013": 0.283372089385,
			"-0.012": 0.386981379604,
			"-0.011": 0.782867838807,
			"-0.01": 0.94607764172,
			"-0.009": 0.868935187253,
			"-0.008": 0.914145837801,
			"-0.007": 4.64391589219,
			"-0.006": 8.05610914206,
			"-0.005": 9.89833664494,
			"-0.004": 10.6221223301,
			"-0.003": 9.38274563156,
			"-0.002": 11.3475092082,
			"-0.001": 14.5229408382,
			"0.0": 17.1797831743,
			"0.001": 27.4282355446,
			"0.002": 41.5841721607,
			"0.003": 14.5242592007,
			"0.004": 11.199373739,
			"0.005": 3.5320864551,
			"0.006": 1.40713084636,
			"0.007": 1.27605342579,
			"0.008": 1.59370675521,
			"0.009": 1.42681315304,
			"0.01": 1.87807554776,
			"0.011": 0.554851615934,
			"0.012": 0.0,
			"0.013": 0.0,
			"0.014": 0.0,
			"0.015": 0.0,
			"0.016": 0.0,
			"0.017": 0.0,
			"0.018": 0.0,
			"0.019": 0.0,
			"0.02": 0.0,
			"0.021": 0.0,
			"0.022": 0.0,
			"0.023": 0.0,
			"0.024": 0.0,
			"0.025": 0.0
		}
	}
}
