{
	 "smiles": "C1COC2=CC=CC=C2OCCOCCOC2=CC=CC=C2OCCO1", 
	 "Tm": 435.15, 
	 "num_atms": 50, 
	 "gaussian": { 
		 "optdone": 1, 
		 "sigma_profile": "yes", 
		 "theory": "DFT", 
		 "functional": "B3LYP", 
		 "basiset": "6-31G**", 
		 "properties": { 
			 "R2extent": 11007.9523, 
			 "electric_dipole_moment_norm": 0.96928219833, 
			 "electric_quadrupole_moment_norm": 7.30988125143, 
			 "total_energy": -1227.85359239, 
			 "HOMO_LUMO_gap": 0.20605, 
			 "cosmo_polarized_energy": -16.38, 
			 "cosmo_cavitation_energy": 50.7, 
			 "cosmo_dispersion_energy": -33.94, 
			 "cosmo_repulsion_energy": 2.54, 
			 "cosmo_total_nonelectrostatic_energy": 19.3, 
			 "SMD_solvation_energy": 8.73 
		},
		"coords": [
			{
				"x": 1.5505649639,
				"y": 2.5118888693,
				"z": 0.9614394335,
				"element": "C" 
			},
			{
				"x": 1.6775793404,
				"y": 3.1279311346,
				"z": -0.4260997178,
				"element": "C" 
			},
			{
				"x": 1.5230176024,
				"y": 2.1045912519,
				"z": -1.4132863575,
				"element": "O" 
			},
			{
				"x": 1.4041488657,
				"y": 2.4936087162,
				"z": -2.7193681263,
				"element": "C" 
			},
			{
				"x": 1.9102347538,
				"y": 3.6904227314,
				"z": -3.2366707394,
				"element": "C" 
			},
			{
				"x": 1.7530969836,
				"y": 3.9930243062,
				"z": -4.5929176887,
				"element": "C" 
			},
			{
				"x": 1.0869081056,
				"y": 3.1123605031,
				"z": -5.4418223242,
				"element": "C" 
			},
			{
				"x": 0.5699259777,
				"y": 1.9200519148,
				"z": -4.9271194787,
				"element": "C" 
			},
			{
				"x": 0.7172794222,
				"y": 1.6075300571,
				"z": -3.578305489,
				"element": "C" 
			},
			{
				"x": 0.1371625042,
				"y": 0.4774454188,
				"z": -3.0533568888,
				"element": "O" 
			},
			{
				"x": 0.9584986995,
				"y": -0.6989665533,
				"z": -3.0255644518,
				"element": "C" 
			},
			{
				"x": 0.4754711222,
				"y": -1.6149659178,
				"z": -1.9145392668,
				"element": "C" 
			},
			{
				"x": -0.8281482428,
				"y": -2.1389010823,
				"z": -2.1566439146,
				"element": "O" 
			},
			{
				"x": -1.9101215959,
				"y": -1.3965115452,
				"z": -1.6098606235,
				"element": "C" 
			},
			{
				"x": -2.2115071997,
				"y": -1.7794351694,
				"z": -0.1666196288,
				"element": "C" 
			},
			{
				"x": -1.1960078271,
				"y": -1.2124955285,
				"z": 0.6609985675,
				"element": "O" 
			},
			{
				"x": -0.9777858045,
				"y": -1.7284439755,
				"z": 1.903376419,
				"element": "C" 
			},
			{
				"x": -1.8621741555,
				"y": -2.5531251347,
				"z": 2.5952374282,
				"element": "C" 
			},
			{
				"x": -1.5264826054,
				"y": -3.0423023076,
				"z": 3.8651185634,
				"element": "C" 
			},
			{
				"x": -0.3080879511,
				"y": -2.7068691033,
				"z": 4.4404841897,
				"element": "C" 
			},
			{
				"x": 0.5862707625,
				"y": -1.8709191753,
				"z": 3.7569494964,
				"element": "C" 
			},
			{
				"x": 0.2589734493,
				"y": -1.3727968532,
				"z": 2.4980880773,
				"element": "C" 
			},
			{
				"x": 1.0483513413,
				"y": -0.5432677626,
				"z": 1.7492969469,
				"element": "O" 
			},
			{
				"x": 2.4068270556,
				"y": -0.3513944516,
				"z": 2.1349956239,
				"element": "C" 
			},
			{
				"x": 3.055425836,
				"y": 0.6183760341,
				"z": 1.154273639,
				"element": "C" 
			},
			{
				"x": 2.7783784886,
				"y": 1.9792881629,
				"z": 1.4495526043,
				"element": "O" 
			},
			{
				"x": 0.7497705877,
				"y": 1.7647326437,
				"z": 0.9668200684,
				"element": "H" 
			},
			{
				"x": 1.2809802711,
				"y": 3.3123006792,
				"z": 1.6600510227,
				"element": "H" 
			},
			{
				"x": 0.8984792858,
				"y": 3.889709048,
				"z": -0.5729012895,
				"element": "H" 
			},
			{
				"x": 2.6592061646,
				"y": 3.6132340902,
				"z": -0.5069221447,
				"element": "H" 
			},
			{
				"x": 2.4321937836,
				"y": 4.3856902559,
				"z": -2.5891361731,
				"element": "H" 
			},
			{
				"x": 2.1543763993,
				"y": 4.9259688717,
				"z": -4.9778483547,
				"element": "H" 
			},
			{
				"x": 0.960845779,
				"y": 3.3501635031,
				"z": -6.4935278169,
				"element": "H" 
			},
			{
				"x": 0.0221195975,
				"y": 1.2249408335,
				"z": -5.5561539699,
				"element": "H" 
			},
			{
				"x": 0.9030802079,
				"y": -1.2082391871,
				"z": -3.9979669826,
				"element": "H" 
			},
			{
				"x": 2.0055733984,
				"y": -0.4270539931,
				"z": -2.8344890031,
				"element": "H" 
			},
			{
				"x": 1.1517185508,
				"y": -2.4783449024,
				"z": -1.8693866552,
				"element": "H" 
			},
			{
				"x": 0.5227342056,
				"y": -1.0920434142,
				"z": -0.9553964201,
				"element": "H" 
			},
			{
				"x": -1.7347922516,
				"y": -0.3179862858,
				"z": -1.6851806134,
				"element": "H" 
			},
			{
				"x": -2.7879110826,
				"y": -1.6438254703,
				"z": -2.2186299275,
				"element": "H" 
			},
			{
				"x": -3.2002509187,
				"y": -1.3966071642,
				"z": 0.1295524324,
				"element": "H" 
			},
			{
				"x": -2.2149341282,
				"y": -2.8726466866,
				"z": -0.0713259283,
				"element": "H" 
			},
			{
				"x": -2.8144928852,
				"y": -2.8173184258,
				"z": 2.1495840082,
				"element": "H" 
			},
			{
				"x": -2.2252351296,
				"y": -3.6858328472,
				"z": 4.3907583996,
				"element": "H" 
			},
			{
				"x": -0.0384944416,
				"y": -3.0867975491,
				"z": 5.421077074,
				"element": "H" 
			},
			{
				"x": 1.5356698206,
				"y": -1.6157074055,
				"z": 4.2128995706,
				"element": "H" 
			},
			{
				"x": 2.9343780632,
				"y": -1.3172782106,
				"z": 2.1248487665,
				"element": "H" 
			},
			{
				"x": 2.475406843,
				"y": 0.0726156329,
				"z": 3.145458252,
				"element": "H" 
			},
			{
				"x": 2.769880969,
				"y": 0.3582657008,
				"z": 0.1276495394,
				"element": "H" 
			},
			{
				"x": 4.1426970182,
				"y": 0.513635743,
				"z": 1.2442298516,
				"element": "H" 
			}
		],
		 "valence_orbital": [ 
			{
				"type": "occ",
				"energy": -0.24329,
				"method": "rhf"
			},
			{
				"type": "occ",
				"energy": -0.24122,
				"method": "rhf"
			},
			{
				"type": "occ",
				"energy": -0.23528,
				"method": "rhf"
			},
			{
				"type": "occ",
				"energy": -0.21624,
				"method": "rhf"
			},
			{
				"type": "occ",
				"energy": -0.20306,
				"method": "rhf"
			},
			{
				"type": "unocc",
				"energy": 0.00299,
				"method": "rhf"
			},
			{
				"type": "unocc",
				"energy": 0.00959,
				"method": "rhf"
			},
			{
				"type": "unocc",
				"energy": 0.01144,
				"method": "rhf"
			},
			{
				"type": "unocc",
				"energy": 0.01579,
				"method": "rhf"
			},
			{
				"type": "unocc",
				"energy": 0.07798,
				"method": "rhf"
			}
		],
		"cosmo_sigma_profile": { 
			"-0.025": 0.0,
			"-0.024": 0.0,
			"-0.023": 0.0,
			"-0.022": 0.0,
			"-0.021": 0.0,
			"-0.02": 0.0,
			"-0.019": 0.0,
			"-0.018": 0.0,
			"-0.017": 0.0,
			"-0.016": 0.0,
			"-0.015": 0.0,
			"-0.014": 0.0,
			"-0.013": 0.0,
			"-0.012": 0.0,
			"-0.011": 0.0,
			"-0.01": 0.0,
			"-0.009": 0.0,
			"-0.008": 0.0,
			"-0.007": 2.07312517256,
			"-0.006": 20.647305731,
			"-0.005": 50.0753699507,
			"-0.004": 50.205691711,
			"-0.003": 37.5777490451,
			"-0.002": 26.7834085932,
			"-0.001": 22.3034103665,
			"0.0": 19.8171435748,
			"0.001": 19.2148148329,
			"0.002": 22.3235765326,
			"0.003": 27.1369363653,
			"0.004": 26.9064079762,
			"0.005": 24.8751372893,
			"0.006": 18.8789160101,
			"0.007": 8.319061206,
			"0.008": 7.06918676789,
			"0.009": 4.52409036081,
			"0.01": 3.18275637086,
			"0.011": 2.97823181321,
			"0.012": 2.07001575709,
			"0.013": 2.51219695989,
			"0.014": 0.631800489796,
			"0.015": 0.0,
			"0.016": 0.0,
			"0.017": 0.0,
			"0.018": 0.0,
			"0.019": 0.0,
			"0.02": 0.0,
			"0.021": 0.0,
			"0.022": 0.0,
			"0.023": 0.0,
			"0.024": 0.0,
			"0.025": 0.0
		}
	}
}
