{
	 "smiles": "CC(OC1=C(Br)C=C(F)C=C1)C(O)=O", 
	 "Tm": 361.15, 
	 "num_atms": 22, 
	 "gaussian": { 
		 "optdone": 1, 
		 "sigma_profile": "yes", 
		 "theory": "DFT", 
		 "functional": "B3LYP", 
		 "basiset": "6-31G**", 
		 "properties": { 
			 "R2extent": 4559.7485, 
			 "electric_dipole_moment_norm": 3.06253485531, 
			 "electric_quadrupole_moment_norm": 14.6814509777, 
			 "total_energy": -3244.67891156, 
			 "HOMO_LUMO_gap": 0.21804, 
			 "cosmo_polarized_energy": -15.56, 
			 "cosmo_cavitation_energy": 29.39, 
			 "cosmo_dispersion_energy": -20.93, 
			 "cosmo_repulsion_energy": 1.62, 
			 "cosmo_total_nonelectrostatic_energy": 10.09, 
			 "SMD_solvation_energy": 5.81 
		},
		"coords": [
			{
				"x": 0.2717740716,
				"y": 3.0746936941,
				"z": 2.7978368441,
				"element": "C" 
			},
			{
				"x": -0.1836339736,
				"y": 2.0705746325,
				"z": 1.7365686759,
				"element": "C" 
			},
			{
				"x": -0.2548231292,
				"y": 0.8040061908,
				"z": 2.376934287,
				"element": "O" 
			},
			{
				"x": -0.2573083516,
				"y": -0.312395766,
				"z": 1.5694931567,
				"element": "C" 
			},
			{
				"x": 0.9361412307,
				"y": -0.8660957495,
				"z": 1.0835686151,
				"element": "C" 
			},
			{
				"x": 2.6085964613,
				"y": -0.0288274222,
				"z": 1.4664490328,
				"element": "Br" 
			},
			{
				"x": 0.9312625508,
				"y": -2.039346887,
				"z": 0.3314886554,
				"element": "C" 
			},
			{
				"x": -0.2886883085,
				"y": -2.6556379149,
				"z": 0.0779697884,
				"element": "C" 
			},
			{
				"x": -0.2970744667,
				"y": -3.7914723376,
				"z": -0.6467720536,
				"element": "F" 
			},
			{
				"x": -1.4900329448,
				"y": -2.1392251813,
				"z": 0.5499198536,
				"element": "C" 
			},
			{
				"x": -1.4648195969,
				"y": -0.9630441359,
				"z": 1.2957389018,
				"element": "C" 
			},
			{
				"x": -1.5499096916,
				"y": 2.4790952391,
				"z": 1.155160779,
				"element": "C" 
			},
			{
				"x": -1.5060976789,
				"y": 3.5384813982,
				"z": 0.304208506,
				"element": "O" 
			},
			{
				"x": -2.5998354139,
				"y": 1.9591172977,
				"z": 1.4286351357,
				"element": "O" 
			},
			{
				"x": 0.3329329452,
				"y": 4.0883080974,
				"z": 2.3908413509,
				"element": "H" 
			},
			{
				"x": 1.2550607342,
				"y": 2.782084362,
				"z": 3.1717225735,
				"element": "H" 
			},
			{
				"x": -0.4372022702,
				"y": 3.0759247608,
				"z": 3.6297368835,
				"element": "H" 
			},
			{
				"x": 0.5500933988,
				"y": 2.0346259672,
				"z": 0.9172241005,
				"element": "H" 
			},
			{
				"x": 1.8495733481,
				"y": -2.4733244334,
				"z": -0.0438916918,
				"element": "H" 
			},
			{
				"x": -2.4200177892,
				"y": -2.6517010253,
				"z": 0.331255677,
				"element": "H" 
			},
			{
				"x": -2.3748540867,
				"y": -0.5121746305,
				"z": 1.6727064447,
				"element": "H" 
			},
			{
				"x": -0.5919370391,
				"y": 3.8189338441,
				"z": 0.151304484,
				"element": "H" 
			}
		],
		 "valence_orbital": [ 
			{
				"type": "occ",
				"energy": -0.30715,
				"method": "rhf"
			},
			{
				"type": "occ",
				"energy": -0.29844,
				"method": "rhf"
			},
			{
				"type": "occ",
				"energy": -0.27852,
				"method": "rhf"
			},
			{
				"type": "occ",
				"energy": -0.26185,
				"method": "rhf"
			},
			{
				"type": "occ",
				"energy": -0.24496,
				"method": "rhf"
			},
			{
				"type": "unocc",
				"energy": -0.02692,
				"method": "rhf"
			},
			{
				"type": "unocc",
				"energy": -0.01109,
				"method": "rhf"
			},
			{
				"type": "unocc",
				"energy": -0.00898,
				"method": "rhf"
			},
			{
				"type": "unocc",
				"energy": -0.00254,
				"method": "rhf"
			},
			{
				"type": "unocc",
				"energy": 0.03998,
				"method": "rhf"
			}
		],
		"cosmo_sigma_profile": { 
			"-0.025": 0.0,
			"-0.024": 0.0,
			"-0.023": 0.0,
			"-0.022": 0.0,
			"-0.021": 0.0,
			"-0.02": 0.324519251655,
			"-0.019": 1.23588424152,
			"-0.018": 0.864609752237,
			"-0.017": 1.33957739965,
			"-0.016": 1.413242937,
			"-0.015": 1.12866357365,
			"-0.014": 0.741580359514,
			"-0.013": 1.03634458139,
			"-0.012": 1.18109392136,
			"-0.011": 1.23641376088,
			"-0.01": 0.976284959754,
			"-0.009": 2.45231095491,
			"-0.008": 4.9660882819,
			"-0.007": 5.03039597972,
			"-0.006": 6.88325427569,
			"-0.005": 11.4717792999,
			"-0.004": 13.9285875616,
			"-0.003": 12.5814323642,
			"-0.002": 14.7944191189,
			"-0.001": 16.2904944803,
			"0.0": 21.4569438604,
			"0.001": 23.8061220464,
			"0.002": 19.2975386932,
			"0.003": 15.9623596807,
			"0.004": 20.5967607157,
			"0.005": 5.07913695967,
			"0.006": 3.79590842331,
			"0.007": 3.72460763182,
			"0.008": 5.0631053087,
			"0.009": 5.18220311546,
			"0.01": 7.23852255926,
			"0.011": 3.91400736502,
			"0.012": 2.28556157346,
			"0.013": 0.3200768982,
			"0.014": 0.0,
			"0.015": 0.0,
			"0.016": 0.0,
			"0.017": 0.0,
			"0.018": 0.0,
			"0.019": 0.0,
			"0.02": 0.0,
			"0.021": 0.0,
			"0.022": 0.0,
			"0.023": 0.0,
			"0.024": 0.0,
			"0.025": 0.0
		}
	}
}
