{
	 "smiles": "CC1=NC=NC(CO)=C1", 
	 "Tm": 348.15, 
	 "num_atms": 17, 
	 "gaussian": { 
		 "optdone": 1, 
		 "sigma_profile": "yes", 
		 "theory": "DFT", 
		 "functional": "B3LYP", 
		 "basiset": "6-31G**", 
		 "properties": { 
			 "R2extent": 1291.9074, 
			 "electric_dipole_moment_norm": 2.63705620342, 
			 "electric_quadrupole_moment_norm": 6.29372062218, 
			 "total_energy": -418.177533524, 
			 "HOMO_LUMO_gap": 0.21728, 
			 "cosmo_polarized_energy": -10.13, 
			 "cosmo_cavitation_energy": 20.85, 
			 "cosmo_dispersion_energy": -15.75, 
			 "cosmo_repulsion_energy": 1.32, 
			 "cosmo_total_nonelectrostatic_energy": 6.42, 
			 "SMD_solvation_energy": 1.22 
		},
		"coords": [
			{
				"x": -1.1300807864,
				"y": -1.7099960041,
				"z": 2.2978234999,
				"element": "C" 
			},
			{
				"x": -0.7539557675,
				"y": -0.5389506243,
				"z": 1.4280859991,
				"element": "C" 
			},
			{
				"x": -0.8830435276,
				"y": 0.6889994903,
				"z": 1.9564627697,
				"element": "N" 
			},
			{
				"x": -0.5436526073,
				"y": 1.7140249582,
				"z": 1.1658003398,
				"element": "C" 
			},
			{
				"x": -0.0918468353,
				"y": 1.6574190756,
				"z": -0.0863842139,
				"element": "N" 
			},
			{
				"x": 0.0342580542,
				"y": 0.4238558048,
				"z": -0.6069139306,
				"element": "C" 
			},
			{
				"x": 0.5467801477,
				"y": 0.3690963913,
				"z": -2.025396454,
				"element": "C" 
			},
			{
				"x": 0.6330609691,
				"y": -0.9791285847,
				"z": -2.4513080837,
				"element": "O" 
			},
			{
				"x": -0.2876029155,
				"y": -0.7175937531,
				"z": 0.1189986388,
				"element": "C" 
			},
			{
				"x": -1.9359935353,
				"y": -2.2943140281,
				"z": 1.8397399594,
				"element": "H" 
			},
			{
				"x": -1.4604722169,
				"y": -1.354167314,
				"z": 3.274659613,
				"element": "H" 
			},
			{
				"x": -0.2786991529,
				"y": -2.3863633208,
				"z": 2.4331956692,
				"element": "H" 
			},
			{
				"x": -0.6494313658,
				"y": 2.7084027237,
				"z": 1.5972380896,
				"element": "H" 
			},
			{
				"x": -0.1355432289,
				"y": 0.9614374431,
				"z": -2.6553236189,
				"element": "H" 
			},
			{
				"x": 1.523720953,
				"y": 0.8771875596,
				"z": -2.0525330938,
				"element": "H" 
			},
			{
				"x": 0.9613176997,
				"y": -0.9880756001,
				"z": -3.3576703221,
				"element": "H" 
			},
			{
				"x": -0.1768158844,
				"y": -1.6999342175,
				"z": -0.3239748614,
				"element": "H" 
			}
		],
		 "valence_orbital": [ 
			{
				"type": "occ",
				"energy": -0.30319,
				"method": "rhf"
			},
			{
				"type": "occ",
				"energy": -0.29045,
				"method": "rhf"
			},
			{
				"type": "occ",
				"energy": -0.27684,
				"method": "rhf"
			},
			{
				"type": "occ",
				"energy": -0.26894,
				"method": "rhf"
			},
			{
				"type": "occ",
				"energy": -0.24581,
				"method": "rhf"
			},
			{
				"type": "unocc",
				"energy": -0.02853,
				"method": "rhf"
			},
			{
				"type": "unocc",
				"energy": -0.01716,
				"method": "rhf"
			},
			{
				"type": "unocc",
				"energy": 0.06613,
				"method": "rhf"
			},
			{
				"type": "unocc",
				"energy": 0.11899,
				"method": "rhf"
			},
			{
				"type": "unocc",
				"energy": 0.11916,
				"method": "rhf"
			}
		],
		"cosmo_sigma_profile": { 
			"-0.025": 0.0,
			"-0.024": 0.0,
			"-0.023": 0.0,
			"-0.022": 0.0,
			"-0.021": 0.0,
			"-0.02": 0.0,
			"-0.019": 0.0,
			"-0.018": 0.0,
			"-0.017": 0.385887923459,
			"-0.016": 1.11814940476,
			"-0.015": 0.903717560783,
			"-0.014": 1.41796287273,
			"-0.013": 0.676631415072,
			"-0.012": 0.467678567294,
			"-0.011": 0.678298409041,
			"-0.01": 1.23675878035,
			"-0.009": 0.724892041862,
			"-0.008": 0.853987131849,
			"-0.007": 2.73712606553,
			"-0.006": 6.06883566049,
			"-0.005": 14.0285025348,
			"-0.004": 14.3270891685,
			"-0.003": 13.4827521289,
			"-0.002": 11.4253193546,
			"-0.001": 14.7033630378,
			"0.0": 16.9445955639,
			"0.001": 12.0317870941,
			"0.002": 6.81796930303,
			"0.003": 5.29189898797,
			"0.004": 6.05526407978,
			"0.005": 3.94777214164,
			"0.006": 3.47178905847,
			"0.007": 4.29947459009,
			"0.008": 4.02235910744,
			"0.009": 3.06176978718,
			"0.01": 3.53870827045,
			"0.011": 3.12837024068,
			"0.012": 2.48865031028,
			"0.013": 1.23230971301,
			"0.014": 1.75880371933,
			"0.015": 1.31263767171,
			"0.016": 0.577734998256,
			"0.017": 0.0,
			"0.018": 0.0,
			"0.019": 0.0,
			"0.02": 0.0,
			"0.021": 0.0,
			"0.022": 0.0,
			"0.023": 0.0,
			"0.024": 0.0,
			"0.025": 0.0
		}
	}
}
