{
	 "smiles": "CC(C)(C)OC(=O)NCC1=CC(=CC=C1)C(N)=S", 
	 "Tm": 379.15, 
	 "num_atms": 36, 
	 "gaussian": { 
		 "optdone": 1, 
		 "sigma_profile": "yes", 
		 "theory": "DFT", 
		 "functional": "B3LYP", 
		 "basiset": "6-31G**", 
		 "properties": { 
			 "R2extent": 9219.0744, 
			 "electric_dipole_moment_norm": 3.15963975953, 
			 "electric_quadrupole_moment_norm": 41.7595081931, 
			 "total_energy": -1164.42051076, 
			 "HOMO_LUMO_gap": 0.14636, 
			 "cosmo_polarized_energy": -22.07, 
			 "cosmo_cavitation_energy": 40.82, 
			 "cosmo_dispersion_energy": -28.44, 
			 "cosmo_repulsion_energy": 2.18, 
			 "cosmo_total_nonelectrostatic_energy": 14.56, 
			 "SMD_solvation_energy": 6.54 
		},
		"coords": [
			{
				"x": -1.0494175752,
				"y": 1.4320790584,
				"z": -3.6135440861,
				"element": "C" 
			},
			{
				"x": 0.1823524338,
				"y": 0.559732155,
				"z": -3.3589905489,
				"element": "C" 
			},
			{
				"x": 1.3829290484,
				"y": 1.4181364146,
				"z": -2.9475836154,
				"element": "C" 
			},
			{
				"x": 0.4873445168,
				"y": -0.3196713651,
				"z": -4.5760479045,
				"element": "C" 
			},
			{
				"x": -0.2485460166,
				"y": -0.2796990015,
				"z": -2.2266302204,
				"element": "O" 
			},
			{
				"x": 0.5712251483,
				"y": -1.231843781,
				"z": -1.7177897496,
				"element": "C" 
			},
			{
				"x": 1.7233668634,
				"y": -1.448548082,
				"z": -2.0574076515,
				"element": "O" 
			},
			{
				"x": -0.0606297983,
				"y": -1.9583165887,
				"z": -0.7421459999,
				"element": "N" 
			},
			{
				"x": -1.402583601,
				"y": -1.758882961,
				"z": -0.2129527589,
				"element": "C" 
			},
			{
				"x": -1.4396113957,
				"y": -1.065024515,
				"z": 1.1401519405,
				"element": "C" 
			},
			{
				"x": -2.0603279668,
				"y": -1.6720889663,
				"z": 2.233365703,
				"element": "C" 
			},
			{
				"x": -2.1369683733,
				"y": -1.0284850656,
				"z": 3.4826754644,
				"element": "C" 
			},
			{
				"x": -1.5753699355,
				"y": 0.248078086,
				"z": 3.6202554451,
				"element": "C" 
			},
			{
				"x": -0.9378343756,
				"y": 0.8520740569,
				"z": 2.5382105021,
				"element": "C" 
			},
			{
				"x": -0.86847775,
				"y": 0.2038256286,
				"z": 1.3056562373,
				"element": "C" 
			},
			{
				"x": -2.8045188711,
				"y": -1.683627439,
				"z": 4.6428427306,
				"element": "C" 
			},
			{
				"x": -2.7378414967,
				"y": -3.0359309758,
				"z": 4.6537927869,
				"element": "N" 
			},
			{
				"x": -3.6141478729,
				"y": -0.8435984295,
				"z": 5.8355880776,
				"element": "S" 
			},
			{
				"x": -1.9154657057,
				"y": 0.8146683661,
				"z": -3.8695542074,
				"element": "H" 
			},
			{
				"x": -1.2963463147,
				"y": 2.0225908982,
				"z": -2.7263435781,
				"element": "H" 
			},
			{
				"x": -0.8572755593,
				"y": 2.1189364834,
				"z": -4.4430450466,
				"element": "H" 
			},
			{
				"x": 1.141039942,
				"y": 2.011453923,
				"z": -2.0597095192,
				"element": "H" 
			},
			{
				"x": 1.6334151174,
				"y": 2.110626539,
				"z": -3.7578105105,
				"element": "H" 
			},
			{
				"x": 2.2511892384,
				"y": 0.7952887456,
				"z": -2.7326682357,
				"element": "H" 
			},
			{
				"x": 1.3525286868,
				"y": -0.9565577474,
				"z": -4.3910499996,
				"element": "H" 
			},
			{
				"x": 0.6937326022,
				"y": 0.3150770877,
				"z": -5.4438197436,
				"element": "H" 
			},
			{
				"x": -0.3748734385,
				"y": -0.9504451526,
				"z": -4.8149641331,
				"element": "H" 
			},
			{
				"x": 0.5556515009,
				"y": -2.6069253418,
				"z": -0.2747985557,
				"element": "H" 
			},
			{
				"x": -1.9011841926,
				"y": -2.732600378,
				"z": -0.1367449754,
				"element": "H" 
			},
			{
				"x": -1.9530202476,
				"y": -1.1739448853,
				"z": -0.9520978835,
				"element": "H" 
			},
			{
				"x": -2.5342637243,
				"y": -2.6412631426,
				"z": 2.0964469483,
				"element": "H" 
			},
			{
				"x": -1.645559397,
				"y": 0.7486674746,
				"z": 4.5795155482,
				"element": "H" 
			},
			{
				"x": -0.4969772033,
				"y": 1.8375002916,
				"z": 2.6566121215,
				"element": "H" 
			},
			{
				"x": -0.3814434507,
				"y": 0.6828846337,
				"z": 0.4613341876,
				"element": "H" 
			},
			{
				"x": -2.0780269673,
				"y": -3.5307484949,
				"z": 4.0720471269,
				"element": "H" 
			},
			{
				"x": -3.1512638689,
				"y": -3.5238175291,
				"z": 5.4351041034,
				"element": "H" 
			}
		],
		 "valence_orbital": [ 
			{
				"type": "occ",
				"energy": -0.26737,
				"method": "rhf"
			},
			{
				"type": "occ",
				"energy": -0.26379,
				"method": "rhf"
			},
			{
				"type": "occ",
				"energy": -0.25223,
				"method": "rhf"
			},
			{
				"type": "occ",
				"energy": -0.23066,
				"method": "rhf"
			},
			{
				"type": "occ",
				"energy": -0.20857,
				"method": "rhf"
			},
			{
				"type": "unocc",
				"energy": -0.06221,
				"method": "rhf"
			},
			{
				"type": "unocc",
				"energy": -0.01777,
				"method": "rhf"
			},
			{
				"type": "unocc",
				"energy": 0.01412,
				"method": "rhf"
			},
			{
				"type": "unocc",
				"energy": 0.05259,
				"method": "rhf"
			},
			{
				"type": "unocc",
				"energy": 0.06709,
				"method": "rhf"
			}
		],
		"cosmo_sigma_profile": { 
			"-0.025": 0.0,
			"-0.024": 0.0,
			"-0.023": 0.0,
			"-0.022": 0.0,
			"-0.021": 0.0,
			"-0.02": 0.0,
			"-0.019": 0.0,
			"-0.018": 0.0,
			"-0.017": 0.0,
			"-0.016": 0.0647665346385,
			"-0.015": 1.79873636489,
			"-0.014": 2.92206193941,
			"-0.013": 3.69959058689,
			"-0.012": 3.49350326749,
			"-0.011": 3.19532557979,
			"-0.01": 2.7689287081,
			"-0.009": 3.52752519869,
			"-0.008": 2.88562129329,
			"-0.007": 5.31032526637,
			"-0.006": 9.60384983503,
			"-0.005": 11.3709225547,
			"-0.004": 21.9597595676,
			"-0.003": 27.9411177612,
			"-0.002": 24.0083765746,
			"-0.001": 27.0028461586,
			"0.0": 33.9188059429,
			"0.001": 30.6183201842,
			"0.002": 16.8801171603,
			"0.003": 17.9652945678,
			"0.004": 17.3375828783,
			"0.005": 7.72713520412,
			"0.006": 5.60997145631,
			"0.007": 6.20328659201,
			"0.008": 8.22788104501,
			"0.009": 8.08195122428,
			"0.01": 5.35733498555,
			"0.011": 5.08354335983,
			"0.012": 3.89971177593,
			"0.013": 2.84618729452,
			"0.014": 2.66487819481,
			"0.015": 0.0842009950168,
			"0.016": 0.0,
			"0.017": 0.0,
			"0.018": 0.0,
			"0.019": 0.0,
			"0.02": 0.0,
			"0.021": 0.0,
			"0.022": 0.0,
			"0.023": 0.0,
			"0.024": 0.0,
			"0.025": 0.0
		}
	}
}
