{
	 "smiles": "OC(=O)C1=CC(=CN1)[N+]([O-])=O", 
	 "Tm": 472.15, 
	 "num_atms": 15, 
	 "gaussian": { 
		 "optdone": 1, 
		 "sigma_profile": "yes", 
		 "theory": "DFT", 
		 "functional": "B3LYP", 
		 "basiset": "6-31G**", 
		 "properties": { 
			 "R2extent": 2580.4188, 
			 "electric_dipole_moment_norm": 6.19756010782, 
			 "electric_quadrupole_moment_norm": 19.868744112, 
			 "total_energy": -603.247231548, 
			 "HOMO_LUMO_gap": 0.18393, 
			 "cosmo_polarized_energy": -18.19, 
			 "cosmo_cavitation_energy": 21.53, 
			 "cosmo_dispersion_energy": -15.83, 
			 "cosmo_repulsion_energy": 1.29, 
			 "cosmo_total_nonelectrostatic_energy": 6.99, 
			 "SMD_solvation_energy": 7.62 
		},
		"coords": [
			{
				"x": 2.1419682386,
				"y": 0.9344110414,
				"z": 2.6340694946,
				"element": "O" 
			},
			{
				"x": 1.0536113931,
				"y": 0.4658810811,
				"z": 1.9578080088,
				"element": "C" 
			},
			{
				"x": -0.0477105593,
				"y": 0.3723472938,
				"z": 2.4546537125,
				"element": "O" 
			},
			{
				"x": 1.3979518735,
				"y": 0.1051837544,
				"z": 0.5842664515,
				"element": "C" 
			},
			{
				"x": 0.592879608,
				"y": -0.4012242005,
				"z": -0.4181169263,
				"element": "C" 
			},
			{
				"x": 1.4338980149,
				"y": -0.5673267498,
				"z": -1.5403959842,
				"element": "C" 
			},
			{
				"x": 2.7230467903,
				"y": -0.1653786167,
				"z": -1.2120004503,
				"element": "C" 
			},
			{
				"x": 2.6832789618,
				"y": 0.2388591908,
				"z": 0.0779313525,
				"element": "N" 
			},
			{
				"x": 1.0500067125,
				"y": -1.0687514821,
				"z": -2.8291686646,
				"element": "N" 
			},
			{
				"x": -0.1287945243,
				"y": -1.389851244,
				"z": -2.9839593234,
				"element": "O" 
			},
			{
				"x": 1.9296057247,
				"y": -1.1430687496,
				"z": -3.6923903225,
				"element": "O" 
			},
			{
				"x": 1.8337400012,
				"y": 1.150959957,
				"z": 3.5292279309,
				"element": "H" 
			},
			{
				"x": -0.4604870768,
				"y": -0.6222380004,
				"z": -0.3512486767,
				"element": "H" 
			},
			{
				"x": 3.6176737729,
				"y": -0.1522939694,
				"z": -1.8136053985,
				"element": "H" 
			},
			{
				"x": 3.4597310689,
				"y": 0.5908906939,
				"z": 0.6189287956,
				"element": "H" 
			}
		],
		 "valence_orbital": [ 
			{
				"type": "occ",
				"energy": -0.30542,
				"method": "rhf"
			},
			{
				"type": "occ",
				"energy": -0.29835,
				"method": "rhf"
			},
			{
				"type": "occ",
				"energy": -0.29491,
				"method": "rhf"
			},
			{
				"type": "occ",
				"energy": -0.28813,
				"method": "rhf"
			},
			{
				"type": "occ",
				"energy": -0.26303,
				"method": "rhf"
			},
			{
				"type": "unocc",
				"energy": -0.0791,
				"method": "rhf"
			},
			{
				"type": "unocc",
				"energy": -0.05543,
				"method": "rhf"
			},
			{
				"type": "unocc",
				"energy": 0.04548,
				"method": "rhf"
			},
			{
				"type": "unocc",
				"energy": 0.05363,
				"method": "rhf"
			},
			{
				"type": "unocc",
				"energy": 0.07512,
				"method": "rhf"
			}
		],
		"cosmo_sigma_profile": { 
			"-0.025": 0.0,
			"-0.024": 0.0,
			"-0.023": 0.0,
			"-0.022": 0.0,
			"-0.021": 0.0,
			"-0.02": 0.0,
			"-0.019": 0.432897142905,
			"-0.018": 1.15735706576,
			"-0.017": 2.21347671587,
			"-0.016": 1.79819416791,
			"-0.015": 1.59640704651,
			"-0.014": 1.7902715475,
			"-0.013": 1.56604519571,
			"-0.012": 1.53947209483,
			"-0.011": 3.95303590819,
			"-0.01": 2.75719104279,
			"-0.009": 3.36585679345,
			"-0.008": 4.08477168312,
			"-0.007": 4.25967099375,
			"-0.006": 3.28375170382,
			"-0.005": 4.02116232932,
			"-0.004": 6.93163406606,
			"-0.003": 12.4124348238,
			"-0.002": 9.45644691623,
			"-0.001": 14.9160441732,
			"0.0": 13.4820531503,
			"0.001": 10.4385235528,
			"0.002": 5.9957366326,
			"0.003": 4.34155344485,
			"0.004": 5.23552436531,
			"0.005": 6.38568923869,
			"0.006": 4.51314050021,
			"0.007": 5.93622866353,
			"0.008": 13.4088605255,
			"0.009": 6.8147464654,
			"0.01": 5.95068423574,
			"0.011": 6.06335053067,
			"0.012": 2.6434356696,
			"0.013": 0.0,
			"0.014": 0.0,
			"0.015": 0.0,
			"0.016": 0.0,
			"0.017": 0.0,
			"0.018": 0.0,
			"0.019": 0.0,
			"0.02": 0.0,
			"0.021": 0.0,
			"0.022": 0.0,
			"0.023": 0.0,
			"0.024": 0.0,
			"0.025": 0.0
		}
	}
}
