{
	 "smiles": "COC(=O)C1=CC=C(NC(=O)CCCCl)C=C1", 
	 "Tm": 402.15, 
	 "num_atms": 31, 
	 "gaussian": { 
		 "optdone": 1, 
		 "sigma_profile": "yes", 
		 "theory": "DFT", 
		 "functional": "B3LYP", 
		 "basiset": "6-31G**", 
		 "properties": { 
			 "R2extent": 7683.1696, 
			 "electric_dipole_moment_norm": 1.98489346062, 
			 "electric_quadrupole_moment_norm": 18.5477978817, 
			 "total_energy": -1206.37003294, 
			 "HOMO_LUMO_gap": 0.18414, 
			 "cosmo_polarized_energy": -16.08, 
			 "cosmo_cavitation_energy": 37.03, 
			 "cosmo_dispersion_energy": -26.43, 
			 "cosmo_repulsion_energy": 2.09, 
			 "cosmo_total_nonelectrostatic_energy": 12.68, 
			 "SMD_solvation_energy": 7.82 
		},
		"coords": [
			{
				"x": 1.3296981444,
				"y": -2.4096073636,
				"z": -4.9877899589,
				"element": "C" 
			},
			{
				"x": 0.579550599,
				"y": -1.856913513,
				"z": -3.8956207198,
				"element": "O" 
			},
			{
				"x": 1.3134435969,
				"y": -1.1965576458,
				"z": -2.9692576027,
				"element": "C" 
			},
			{
				"x": 2.5208671587,
				"y": -1.070925115,
				"z": -3.0456462966,
				"element": "O" 
			},
			{
				"x": 0.4782007497,
				"y": -0.6527226086,
				"z": -1.8663612998,
				"element": "C" 
			},
			{
				"x": 1.1165697659,
				"y": 0.0596646226,
				"z": -0.844273765,
				"element": "C" 
			},
			{
				"x": 0.3931631169,
				"y": 0.6013488498,
				"z": 0.2121353083,
				"element": "C" 
			},
			{
				"x": -0.9979190772,
				"y": 0.4167335124,
				"z": 0.2792304998,
				"element": "C" 
			},
			{
				"x": -1.8070318654,
				"y": 0.9489961227,
				"z": 1.3005623731,
				"element": "N" 
			},
			{
				"x": -1.6165978555,
				"y": 1.1583224325,
				"z": 2.6581247217,
				"element": "C" 
			},
			{
				"x": -2.5552417386,
				"y": 1.5843391434,
				"z": 3.3203080447,
				"element": "O" 
			},
			{
				"x": -0.2667170669,
				"y": 0.835393206,
				"z": 3.2837288657,
				"element": "C" 
			},
			{
				"x": -0.3500212001,
				"y": 0.7291076525,
				"z": 4.8105236223,
				"element": "C" 
			},
			{
				"x": -1.1870026323,
				"y": -0.4319995231,
				"z": 5.3315558973,
				"element": "C" 
			},
			{
				"x": -0.5038920279,
				"y": -2.0552016818,
				"z": 4.8473900764,
				"element": "Cl" 
			},
			{
				"x": -1.6399227925,
				"y": -0.289459415,
				"z": -0.7546541284,
				"element": "C" 
			},
			{
				"x": -0.9138454846,
				"y": -0.8142106927,
				"z": -1.8148509782,
				"element": "C" 
			},
			{
				"x": 1.8521494253,
				"y": -1.6206573043,
				"z": -5.5346807737,
				"element": "H" 
			},
			{
				"x": 2.0658355471,
				"y": -3.1306470667,
				"z": -4.6236088803,
				"element": "H" 
			},
			{
				"x": 0.5976057026,
				"y": -2.9002311,
				"z": -5.6291917032,
				"element": "H" 
			},
			{
				"x": 2.1910071811,
				"y": 0.1968000162,
				"z": -0.9028664112,
				"element": "H" 
			},
			{
				"x": 0.908256436,
				"y": 1.1861416934,
				"z": 0.962424797,
				"element": "H" 
			},
			{
				"x": -2.7795176135,
				"y": 1.0974856086,
				"z": 1.0564526446,
				"element": "H" 
			},
			{
				"x": 0.1429312526,
				"y": -0.0825011508,
				"z": 2.8506637058,
				"element": "H" 
			},
			{
				"x": 0.4316232315,
				"y": 1.6410337298,
				"z": 3.0253705902,
				"element": "H" 
			},
			{
				"x": 0.6637980883,
				"y": 0.6591956926,
				"z": 5.2176042505,
				"element": "H" 
			},
			{
				"x": -0.8061104066,
				"y": 1.643575187,
				"z": 5.2059017704,
				"element": "H" 
			},
			{
				"x": -2.2044297372,
				"y": -0.3966951072,
				"z": 4.9442351137,
				"element": "H" 
			},
			{
				"x": -1.2150774528,
				"y": -0.4369556969,
				"z": 6.4216735602,
				"element": "H" 
			},
			{
				"x": -2.7160507574,
				"y": -0.4341147337,
				"z": -0.7105429217,
				"element": "H" 
			},
			{
				"x": -1.4202222873,
				"y": -1.3598377516,
				"z": -2.6025404022,
				"element": "H" 
			}
		],
		 "valence_orbital": [ 
			{
				"type": "occ",
				"energy": -0.29163,
				"method": "rhf"
			},
			{
				"type": "occ",
				"energy": -0.27605,
				"method": "rhf"
			},
			{
				"type": "occ",
				"energy": -0.27045,
				"method": "rhf"
			},
			{
				"type": "occ",
				"energy": -0.26849,
				"method": "rhf"
			},
			{
				"type": "occ",
				"energy": -0.23699,
				"method": "rhf"
			},
			{
				"type": "unocc",
				"energy": -0.05285,
				"method": "rhf"
			},
			{
				"type": "unocc",
				"energy": -0.01985,
				"method": "rhf"
			},
			{
				"type": "unocc",
				"energy": 0.00829,
				"method": "rhf"
			},
			{
				"type": "unocc",
				"energy": 0.02958,
				"method": "rhf"
			},
			{
				"type": "unocc",
				"energy": 0.05616,
				"method": "rhf"
			}
		],
		"cosmo_sigma_profile": { 
			"-0.025": 0.0,
			"-0.024": 0.0,
			"-0.023": 0.0,
			"-0.022": 0.0,
			"-0.021": 0.0,
			"-0.02": 0.0,
			"-0.019": 0.0,
			"-0.018": 0.0,
			"-0.017": 0.0,
			"-0.016": 0.0,
			"-0.015": 0.232121656923,
			"-0.014": 0.824897973367,
			"-0.013": 1.50023530024,
			"-0.012": 1.20175528656,
			"-0.011": 0.920201921958,
			"-0.01": 1.1879320896,
			"-0.009": 2.28923813941,
			"-0.008": 4.39018583126,
			"-0.007": 7.80020232939,
			"-0.006": 14.3306559167,
			"-0.005": 21.8322250309,
			"-0.004": 26.399210988,
			"-0.003": 28.7868218265,
			"-0.002": 21.3678686057,
			"-0.001": 18.3601462167,
			"0.0": 16.6999284412,
			"0.001": 20.262942956,
			"0.002": 18.4747560624,
			"0.003": 21.485340273,
			"0.004": 11.3930554395,
			"0.005": 10.6758061915,
			"0.006": 11.1167014309,
			"0.007": 9.55927040794,
			"0.008": 2.17081406173,
			"0.009": 3.25647892573,
			"0.01": 2.48751863619,
			"0.011": 4.16018302889,
			"0.012": 7.78623049874,
			"0.013": 4.61374776359,
			"0.014": 0.240400179592,
			"0.015": 0.0,
			"0.016": 0.0,
			"0.017": 0.0,
			"0.018": 0.0,
			"0.019": 0.0,
			"0.02": 0.0,
			"0.021": 0.0,
			"0.022": 0.0,
			"0.023": 0.0,
			"0.024": 0.0,
			"0.025": 0.0
		}
	}
}
