{
	 "smiles": "FC(F)(F)C(Cl)=C(Cl)Cl", 
	 "Tm": 388.15, 
	 "num_atms": 9, 
	 "gaussian": { 
		 "optdone": 1, 
		 "sigma_profile": "yes", 
		 "theory": "DFT", 
		 "functional": "B3LYP", 
		 "basiset": "6-31G**", 
		 "properties": { 
			 "R2extent": 2141.0067, 
			 "electric_dipole_moment_norm": 0.901729538165, 
			 "electric_quadrupole_moment_norm": 1.40666315086, 
			 "total_energy": -1794.37151159, 
			 "HOMO_LUMO_gap": 0.22111, 
			 "cosmo_polarized_energy": -1.71, 
			 "cosmo_cavitation_energy": 20.33, 
			 "cosmo_dispersion_energy": -15.08, 
			 "cosmo_repulsion_energy": 1.2, 
			 "cosmo_total_nonelectrostatic_energy": 6.46, 
			 "SMD_solvation_energy": 4.29 
		},
		"coords": [
			{
				"x": 0.277775794,
				"y": 1.1245546638,
				"z": 1.0372221801,
				"element": "F" 
			},
			{
				"x": 1.1328318517,
				"y": 0.1577355001,
				"z": 0.6829777877,
				"element": "C" 
			},
			{
				"x": 1.0084705047,
				"y": -0.8457229937,
				"z": 1.5712626324,
				"element": "F" 
			},
			{
				"x": 2.379940105,
				"y": 0.6506586794,
				"z": 0.7977479235,
				"element": "F" 
			},
			{
				"x": 0.9110666476,
				"y": -0.3680027061,
				"z": -0.7273789924,
				"element": "C" 
			},
			{
				"x": 2.0544853344,
				"y": -1.6182530043,
				"z": -1.1219342217,
				"element": "Cl" 
			},
			{
				"x": -0.0192675739,
				"y": 0.0222991808,
				"z": -1.6195044162,
				"element": "C" 
			},
			{
				"x": -1.2067292161,
				"y": 1.251570971,
				"z": -1.3423019405,
				"element": "Cl" 
			},
			{
				"x": -0.1294734474,
				"y": -0.6906402911,
				"z": -3.194990953,
				"element": "Cl" 
			}
		],
		 "valence_orbital": [ 
			{
				"type": "occ",
				"energy": -0.36649,
				"method": "rhf"
			},
			{
				"type": "occ",
				"energy": -0.35404,
				"method": "rhf"
			},
			{
				"type": "occ",
				"energy": -0.35377,
				"method": "rhf"
			},
			{
				"type": "occ",
				"energy": -0.32522,
				"method": "rhf"
			},
			{
				"type": "occ",
				"energy": -0.2788,
				"method": "rhf"
			},
			{
				"type": "unocc",
				"energy": -0.05769,
				"method": "rhf"
			},
			{
				"type": "unocc",
				"energy": -0.03295,
				"method": "rhf"
			},
			{
				"type": "unocc",
				"energy": -0.02217,
				"method": "rhf"
			},
			{
				"type": "unocc",
				"energy": 0.06204,
				"method": "rhf"
			},
			{
				"type": "unocc",
				"energy": 0.14333,
				"method": "rhf"
			}
		],
		"cosmo_sigma_profile": { 
			"-0.025": 0.0,
			"-0.024": 0.0,
			"-0.023": 0.0,
			"-0.022": 0.0,
			"-0.021": 0.0,
			"-0.02": 0.0,
			"-0.019": 0.0,
			"-0.018": 0.0,
			"-0.017": 0.0,
			"-0.016": 0.0,
			"-0.015": 0.0,
			"-0.014": 0.0,
			"-0.013": 0.0,
			"-0.012": 0.0,
			"-0.011": 0.0,
			"-0.01": 0.0,
			"-0.009": 0.0,
			"-0.008": 0.0,
			"-0.007": 0.527190172127,
			"-0.006": 2.25551579171,
			"-0.005": 5.39316744612,
			"-0.004": 9.27688258291,
			"-0.003": 13.3081978498,
			"-0.002": 12.8623949754,
			"-0.001": 12.7764447708,
			"0.0": 19.2951223067,
			"0.001": 36.4039828656,
			"0.002": 52.280751693,
			"0.003": 6.34066733989,
			"0.004": 0.0,
			"0.005": 0.0,
			"0.006": 0.0,
			"0.007": 0.0,
			"0.008": 0.0,
			"0.009": 0.0,
			"0.01": 0.0,
			"0.011": 0.0,
			"0.012": 0.0,
			"0.013": 0.0,
			"0.014": 0.0,
			"0.015": 0.0,
			"0.016": 0.0,
			"0.017": 0.0,
			"0.018": 0.0,
			"0.019": 0.0,
			"0.02": 0.0,
			"0.021": 0.0,
			"0.022": 0.0,
			"0.023": 0.0,
			"0.024": 0.0,
			"0.025": 0.0
		}
	}
}
