{
	 "smiles": "CCOC(=O)C1=C(N)N(C=N1)C1=CC=C(C)C=C1", 
	 "Tm": 520.15, 
	 "num_atms": 33, 
	 "gaussian": { 
		 "optdone": 1, 
		 "sigma_profile": "yes", 
		 "theory": "DFT", 
		 "functional": "B3LYP", 
		 "basiset": "6-31G**", 
		 "properties": { 
			 "R2extent": 6903.573, 
			 "electric_dipole_moment_norm": 7.29250064518, 
			 "electric_quadrupole_moment_norm": 27.671663978, 
			 "total_energy": -819.148859707, 
			 "HOMO_LUMO_gap": 0.17431, 
			 "cosmo_polarized_energy": -20.34, 
			 "cosmo_cavitation_energy": 37.05, 
			 "cosmo_dispersion_energy": -26.51, 
			 "cosmo_repulsion_energy": 2.06, 
			 "cosmo_total_nonelectrostatic_energy": 12.6, 
			 "SMD_solvation_energy": 6.15 
		},
		"coords": [
			{
				"x": -2.2082793419,
				"y": 4.3549044548,
				"z": -1.6599708844,
				"element": "C" 
			},
			{
				"x": -1.7190422927,
				"y": 3.2947433365,
				"z": -2.6360602302,
				"element": "C" 
			},
			{
				"x": -1.3424278951,
				"y": 2.0793616136,
				"z": -1.9520251451,
				"element": "O" 
			},
			{
				"x": -2.3680452862,
				"y": 1.189850992,
				"z": -1.6930313567,
				"element": "C" 
			},
			{
				"x": -3.513707108,
				"y": 1.3989030022,
				"z": -2.0314457416,
				"element": "O" 
			},
			{
				"x": -1.868822538,
				"y": 0.0122808158,
				"z": -0.9917180591,
				"element": "C" 
			},
			{
				"x": -0.5612338128,
				"y": -0.266046851,
				"z": -0.5950806917,
				"element": "C" 
			},
			{
				"x": 0.5959231632,
				"y": 0.4806553817,
				"z": -0.6615720024,
				"element": "N" 
			},
			{
				"x": -0.6097998719,
				"y": -1.513493944,
				"z": -0.006040039,
				"element": "N" 
			},
			{
				"x": -1.9435594084,
				"y": -1.9244580136,
				"z": -0.0794251235,
				"element": "C" 
			},
			{
				"x": -2.705454926,
				"y": -1.0409925055,
				"z": -0.6466618437,
				"element": "N" 
			},
			{
				"x": 0.4656889787,
				"y": -2.258151193,
				"z": 0.5571781785,
				"element": "C" 
			},
			{
				"x": 1.3583895528,
				"y": -1.6597929579,
				"z": 1.4542879454,
				"element": "C" 
			},
			{
				"x": 2.3918788666,
				"y": -2.4150266822,
				"z": 2.005635102,
				"element": "C" 
			},
			{
				"x": 2.549930812,
				"y": -3.7737559427,
				"z": 1.7001383998,
				"element": "C" 
			},
			{
				"x": 3.6478573336,
				"y": -4.5926364537,
				"z": 2.3362640829,
				"element": "C" 
			},
			{
				"x": 1.6428296679,
				"y": -4.3544726482,
				"z": 0.8035822691,
				"element": "C" 
			},
			{
				"x": 0.6159419139,
				"y": -3.6096108189,
				"z": 0.2272657632,
				"element": "C" 
			},
			{
				"x": -1.4532380675,
				"y": 4.5612922963,
				"z": -0.8951695733,
				"element": "H" 
			},
			{
				"x": -2.4196241672,
				"y": 5.2869125339,
				"z": -2.1953367664,
				"element": "H" 
			},
			{
				"x": -3.1268582256,
				"y": 4.0238667727,
				"z": -1.1700089158,
				"element": "H" 
			},
			{
				"x": -2.4892339842,
				"y": 3.0578751365,
				"z": -3.3735526096,
				"element": "H" 
			},
			{
				"x": -0.8099686724,
				"y": 3.6154885108,
				"z": -3.1524759999,
				"element": "H" 
			},
			{
				"x": 1.4433287037,
				"y": -0.0478495892,
				"z": -0.8290511868,
				"element": "H" 
			},
			{
				"x": 0.4801989742,
				"y": 1.2798949777,
				"z": -1.2733638229,
				"element": "H" 
			},
			{
				"x": -2.251657544,
				"y": -2.874881764,
				"z": 0.3334703531,
				"element": "H" 
			},
			{
				"x": 1.2377742274,
				"y": -0.6140132,
				"z": 1.7150582241,
				"element": "H" 
			},
			{
				"x": 3.0819046563,
				"y": -1.9393043029,
				"z": 2.6977977396,
				"element": "H" 
			},
			{
				"x": 3.3075525132,
				"y": -5.0472407555,
				"z": 3.2750317716,
				"element": "H" 
			},
			{
				"x": 3.9717377817,
				"y": -5.4062107705,
				"z": 1.6804848379,
				"element": "H" 
			},
			{
				"x": 4.5215362153,
				"y": -3.9777368588,
				"z": 2.5713962132,
				"element": "H" 
			},
			{
				"x": 1.7484964076,
				"y": -5.403510416,
				"z": 0.5395050635,
				"element": "H" 
			},
			{
				"x": -0.0611166263,
				"y": -4.0662441568,
				"z": -0.487705952,
				"element": "H" 
			}
		],
		 "valence_orbital": [ 
			{
				"type": "occ",
				"energy": -0.27015,
				"method": "rhf"
			},
			{
				"type": "occ",
				"energy": -0.26631,
				"method": "rhf"
			},
			{
				"type": "occ",
				"energy": -0.25493,
				"method": "rhf"
			},
			{
				"type": "occ",
				"energy": -0.24083,
				"method": "rhf"
			},
			{
				"type": "occ",
				"energy": -0.20153,
				"method": "rhf"
			},
			{
				"type": "unocc",
				"energy": -0.02722,
				"method": "rhf"
			},
			{
				"type": "unocc",
				"energy": -0.02237,
				"method": "rhf"
			},
			{
				"type": "unocc",
				"energy": 0.00397,
				"method": "rhf"
			},
			{
				"type": "unocc",
				"energy": 0.03989,
				"method": "rhf"
			},
			{
				"type": "unocc",
				"energy": 0.08184,
				"method": "rhf"
			}
		],
		"cosmo_sigma_profile": { 
			"-0.025": 0.0,
			"-0.024": 0.0,
			"-0.023": 0.0,
			"-0.022": 0.0,
			"-0.021": 0.0,
			"-0.02": 0.0,
			"-0.019": 0.0,
			"-0.018": 0.0,
			"-0.017": 0.0,
			"-0.016": 0.0,
			"-0.015": 0.0,
			"-0.014": 0.232310381184,
			"-0.013": 1.13944158139,
			"-0.012": 0.862181025603,
			"-0.011": 1.31297555074,
			"-0.01": 2.36171597473,
			"-0.009": 3.78127524254,
			"-0.008": 3.10698513982,
			"-0.007": 5.75728987749,
			"-0.006": 10.6402036478,
			"-0.005": 17.9748630399,
			"-0.004": 26.4676491109,
			"-0.003": 26.6185032052,
			"-0.002": 26.8353671764,
			"-0.001": 29.242129981,
			"0.0": 29.8277047077,
			"0.001": 20.8061247702,
			"0.002": 15.8302181347,
			"0.003": 14.7461141987,
			"0.004": 14.2070610196,
			"0.005": 6.44737013013,
			"0.006": 3.31278536045,
			"0.007": 3.70212877552,
			"0.008": 2.72045252854,
			"0.009": 2.51533565806,
			"0.01": 3.55522912851,
			"0.011": 3.13197356725,
			"0.012": 3.77306195002,
			"0.013": 4.75366473835,
			"0.014": 2.57300703964,
			"0.015": 2.15353206172,
			"0.016": 1.73179103401,
			"0.017": 1.79662206995,
			"0.018": 0.421804293236,
			"0.019": 0.0,
			"0.02": 0.0,
			"0.021": 0.0,
			"0.022": 0.0,
			"0.023": 0.0,
			"0.024": 0.0,
			"0.025": 0.0
		}
	}
}
