{
	 "smiles": "COC1=C(C=C(N)C=C1)N1N=NN=C1C1CC1", 
	 "Tm": 435.15, 
	 "num_atms": 30, 
	 "gaussian": { 
		 "optdone": 1, 
		 "sigma_profile": "yes", 
		 "theory": "DFT", 
		 "functional": "B3LYP", 
		 "basiset": "6-31G**", 
		 "properties": { 
			 "R2extent": 4802.1637, 
			 "electric_dipole_moment_norm": 8.00305071707, 
			 "electric_quadrupole_moment_norm": 26.6605010234, 
			 "total_energy": -775.891625911, 
			 "HOMO_LUMO_gap": 0.17537, 
			 "cosmo_polarized_energy": -20.39, 
			 "cosmo_cavitation_energy": 34.16, 
			 "cosmo_dispersion_energy": -23.8, 
			 "cosmo_repulsion_energy": 1.86, 
			 "cosmo_total_nonelectrostatic_energy": 12.23, 
			 "SMD_solvation_energy": 4.52 
		},
		"coords": [
			{
				"x": -1.1734705166,
				"y": -0.0871850765,
				"z": -3.6362720467,
				"element": "C" 
			},
			{
				"x": -1.4051716295,
				"y": 0.1364509614,
				"z": -2.2541599248,
				"element": "O" 
			},
			{
				"x": -0.4752235048,
				"y": -0.3200167456,
				"z": -1.3639349427,
				"element": "C" 
			},
			{
				"x": -0.7788771373,
				"y": -0.1716496415,
				"z": 0.0026697821,
				"element": "C" 
			},
			{
				"x": 0.0919597003,
				"y": -0.6276321082,
				"z": 0.988283732,
				"element": "C" 
			},
			{
				"x": 1.3058744517,
				"y": -1.2425952522,
				"z": 0.6465478512,
				"element": "C" 
			},
			{
				"x": 2.148533976,
				"y": -1.7608108839,
				"z": 1.6337659128,
				"element": "N" 
			},
			{
				"x": 1.6161051525,
				"y": -1.370449901,
				"z": -0.7151948439,
				"element": "C" 
			},
			{
				"x": 0.7420969923,
				"y": -0.9174728452,
				"z": -1.7032803377,
				"element": "C" 
			},
			{
				"x": -2.0162500377,
				"y": 0.4099919049,
				"z": 0.402683188,
				"element": "N" 
			},
			{
				"x": -2.8892143843,
				"y": -0.2860449257,
				"z": 1.1980625615,
				"element": "N" 
			},
			{
				"x": -3.8871087912,
				"y": 0.4992745274,
				"z": 1.4097497223,
				"element": "N" 
			},
			{
				"x": -3.7185976071,
				"y": 1.6970626589,
				"z": 0.7910230477,
				"element": "N" 
			},
			{
				"x": -2.5524140162,
				"y": 1.6355408894,
				"z": 0.1683867054,
				"element": "C" 
			},
			{
				"x": -1.9288452556,
				"y": 2.7271116501,
				"z": -0.5941881755,
				"element": "C" 
			},
			{
				"x": -2.1544500305,
				"y": 4.1555930272,
				"z": -0.1234323431,
				"element": "C" 
			},
			{
				"x": -2.8251117474,
				"y": 3.6741333048,
				"z": -1.3726218736,
				"element": "C" 
			},
			{
				"x": -2.0491223092,
				"y": 0.3064299518,
				"z": -4.15381972,
				"element": "H" 
			},
			{
				"x": -0.277904271,
				"y": 0.4412170742,
				"z": -3.9887546274,
				"element": "H" 
			},
			{
				"x": -1.0707728126,
				"y": -1.1567856006,
				"z": -3.8586487654,
				"element": "H" 
			},
			{
				"x": -0.199201173,
				"y": -0.5121833943,
				"z": 2.0273285224,
				"element": "H" 
			},
			{
				"x": 3.1215682466,
				"y": -1.8343041538,
				"z": 1.3705155362,
				"element": "H" 
			},
			{
				"x": 2.0399032379,
				"y": -1.3485123824,
				"z": 2.5501058816,
				"element": "H" 
			},
			{
				"x": 2.5502115443,
				"y": -1.8410617367,
				"z": -1.0104303548,
				"element": "H" 
			},
			{
				"x": 1.0162482476,
				"y": -1.0451115052,
				"z": -2.7436130005,
				"element": "H" 
			},
			{
				"x": -0.9636693158,
				"y": 2.4902857209,
				"z": -1.0255949419,
				"element": "H" 
			},
			{
				"x": -2.7693425082,
				"y": 4.279098952,
				"z": 0.7616777153,
				"element": "H" 
			},
			{
				"x": -1.3176374328,
				"y": 4.842127432,
				"z": -0.2084492247,
				"element": "H" 
			},
			{
				"x": -2.4595600617,
				"y": 4.0240596151,
				"z": -2.333092393,
				"element": "H" 
			},
			{
				"x": -3.8901570067,
				"y": 3.473538483,
				"z": -1.3261126429,
				"element": "H" 
			}
		],
		 "valence_orbital": [ 
			{
				"type": "occ",
				"energy": -0.27723,
				"method": "rhf"
			},
			{
				"type": "occ",
				"energy": -0.27248,
				"method": "rhf"
			},
			{
				"type": "occ",
				"energy": -0.25722,
				"method": "rhf"
			},
			{
				"type": "occ",
				"energy": -0.25114,
				"method": "rhf"
			},
			{
				"type": "occ",
				"energy": -0.20303,
				"method": "rhf"
			},
			{
				"type": "unocc",
				"energy": -0.02766,
				"method": "rhf"
			},
			{
				"type": "unocc",
				"energy": 0.00297,
				"method": "rhf"
			},
			{
				"type": "unocc",
				"energy": 0.01705,
				"method": "rhf"
			},
			{
				"type": "unocc",
				"energy": 0.0357,
				"method": "rhf"
			},
			{
				"type": "unocc",
				"energy": 0.06972,
				"method": "rhf"
			}
		],
		"cosmo_sigma_profile": { 
			"-0.025": 0.0,
			"-0.024": 0.0,
			"-0.023": 0.0,
			"-0.022": 0.0,
			"-0.021": 0.0,
			"-0.02": 0.0,
			"-0.019": 0.0,
			"-0.018": 0.0,
			"-0.017": 0.0,
			"-0.016": 0.0,
			"-0.015": 0.0,
			"-0.014": 0.0,
			"-0.013": 0.753632528972,
			"-0.012": 2.7905378041,
			"-0.011": 3.12518668629,
			"-0.01": 2.63815099938,
			"-0.009": 3.98293678653,
			"-0.008": 3.57110159278,
			"-0.007": 6.56174616442,
			"-0.006": 15.691544359,
			"-0.005": 23.6003453392,
			"-0.004": 22.8012400823,
			"-0.003": 21.632537993,
			"-0.002": 15.3921115924,
			"-0.001": 17.7015807477,
			"0.0": 15.8789587601,
			"0.001": 14.7902590379,
			"0.002": 14.6001584009,
			"0.003": 14.9679770314,
			"0.004": 16.0131181679,
			"0.005": 10.4008433343,
			"0.006": 6.03511465868,
			"0.007": 5.83336999173,
			"0.008": 6.26122955066,
			"0.009": 5.59735074764,
			"0.01": 5.44502147386,
			"0.011": 5.07781058545,
			"0.012": 4.13198595102,
			"0.013": 3.659502381,
			"0.014": 2.0497434933,
			"0.015": 0.711036329083,
			"0.016": 0.0,
			"0.017": 0.0,
			"0.018": 0.0,
			"0.019": 0.0,
			"0.02": 0.0,
			"0.021": 0.0,
			"0.022": 0.0,
			"0.023": 0.0,
			"0.024": 0.0,
			"0.025": 0.0
		}
	}
}
