{
	 "smiles": "SC1=NNC(=N1)C1CC1", 
	 "Tm": 509.15, 
	 "num_atms": 16, 
	 "gaussian": { 
		 "optdone": 1, 
		 "sigma_profile": "yes", 
		 "theory": "DFT", 
		 "functional": "B3LYP", 
		 "basiset": "6-31G**", 
		 "properties": { 
			 "R2extent": 2213.8563, 
			 "electric_dipole_moment_norm": 4.12437466048, 
			 "electric_quadrupole_moment_norm": 13.4199813159, 
			 "total_energy": -757.148143386, 
			 "HOMO_LUMO_gap": 0.22969, 
			 "cosmo_polarized_energy": -12.96, 
			 "cosmo_cavitation_energy": 21.88, 
			 "cosmo_dispersion_energy": -16.91, 
			 "cosmo_repulsion_energy": 1.36, 
			 "cosmo_total_nonelectrostatic_energy": 6.34, 
			 "SMD_solvation_energy": 0.44 
		},
		"coords": [
			{
				"x": -3.567162204,
				"y": 1.721761921,
				"z": 0.2674603763,
				"element": "S" 
			},
			{
				"x": -2.35020118,
				"y": 0.5866485911,
				"z": 0.8708938287,
				"element": "C" 
			},
			{
				"x": -2.2427392381,
				"y": 0.3335752901,
				"z": 2.1663304701,
				"element": "N" 
			},
			{
				"x": -1.2136339059,
				"y": -0.5648205222,
				"z": 2.1739731715,
				"element": "N" 
			},
			{
				"x": -0.7658009909,
				"y": -0.8010571692,
				"z": 0.9205719289,
				"element": "C" 
			},
			{
				"x": -1.4749292787,
				"y": -0.0769311452,
				"z": 0.0609904616,
				"element": "N" 
			},
			{
				"x": 0.3353235982,
				"y": -1.7208780932,
				"z": 0.592139225,
				"element": "C" 
			},
			{
				"x": 0.2729770137,
				"y": -2.5064355678,
				"z": -0.7070091836,
				"element": "C" 
			},
			{
				"x": 1.2527091635,
				"y": -1.3821924265,
				"z": -0.5707422718,
				"element": "C" 
			},
			{
				"x": -3.2030720379,
				"y": 1.5657869686,
				"z": -1.0187785194,
				"element": "H" 
			},
			{
				"x": -0.894414891,
				"y": -0.9506949265,
				"z": 3.0496141634,
				"element": "H" 
			},
			{
				"x": 0.7842333215,
				"y": -2.2160676453,
				"z": 1.4489908526,
				"element": "H" 
			},
			{
				"x": -0.603099772,
				"y": -2.3397788039,
				"z": -1.3246823367,
				"element": "H" 
			},
			{
				"x": 0.6410389987,
				"y": -3.5275193053,
				"z": -0.6886779075,
				"element": "H" 
			},
			{
				"x": 2.3065901894,
				"y": -1.6163485217,
				"z": -0.4570590558,
				"element": "H" 
			},
			{
				"x": 1.0364812133,
				"y": -0.4583486439,
				"z": -1.0966152033,
				"element": "H" 
			}
		],
		 "valence_orbital": [ 
			{
				"type": "occ",
				"energy": -0.31608,
				"method": "rhf"
			},
			{
				"type": "occ",
				"energy": -0.31183,
				"method": "rhf"
			},
			{
				"type": "occ",
				"energy": -0.27992,
				"method": "rhf"
			},
			{
				"type": "occ",
				"energy": -0.26704,
				"method": "rhf"
			},
			{
				"type": "occ",
				"energy": -0.22178,
				"method": "rhf"
			},
			{
				"type": "unocc",
				"energy": 0.00791,
				"method": "rhf"
			},
			{
				"type": "unocc",
				"energy": 0.02684,
				"method": "rhf"
			},
			{
				"type": "unocc",
				"energy": 0.05047,
				"method": "rhf"
			},
			{
				"type": "unocc",
				"energy": 0.06366,
				"method": "rhf"
			},
			{
				"type": "unocc",
				"energy": 0.08214,
				"method": "rhf"
			}
		],
		"cosmo_sigma_profile": { 
			"-0.025": 0.0,
			"-0.024": 0.0,
			"-0.023": 0.0,
			"-0.022": 0.0,
			"-0.021": 0.0,
			"-0.02": 0.0,
			"-0.019": 0.0,
			"-0.018": 0.134582236946,
			"-0.017": 1.6840197599,
			"-0.016": 1.40159487078,
			"-0.015": 1.44195569503,
			"-0.014": 0.85307715428,
			"-0.013": 1.21303018604,
			"-0.012": 1.54877560744,
			"-0.011": 2.09745711285,
			"-0.01": 2.6923348571,
			"-0.009": 2.08922207282,
			"-0.008": 2.34971057118,
			"-0.007": 2.75682158668,
			"-0.006": 5.77975111037,
			"-0.005": 10.9589545126,
			"-0.004": 9.53703732222,
			"-0.003": 9.08874487603,
			"-0.002": 7.89252480509,
			"-0.001": 11.9314477951,
			"0.0": 12.9402189283,
			"0.001": 13.2382344366,
			"0.002": 16.1285299515,
			"0.003": 13.7992032267,
			"0.004": 9.64888553693,
			"0.005": 7.39061643709,
			"0.006": 7.01211725175,
			"0.007": 5.25465151745,
			"0.008": 4.00385306971,
			"0.009": 2.42204449999,
			"0.01": 2.25593402618,
			"0.011": 2.11050123199,
			"0.012": 1.69401345579,
			"0.013": 1.41505806385,
			"0.014": 1.3962041018,
			"0.015": 0.590707972809,
			"0.016": 0.0,
			"0.017": 0.0,
			"0.018": 0.0,
			"0.019": 0.0,
			"0.02": 0.0,
			"0.021": 0.0,
			"0.022": 0.0,
			"0.023": 0.0,
			"0.024": 0.0,
			"0.025": 0.0
		}
	}
}
