{
	 "smiles": "CCN(CC)C1=CC=C(C=C1)N=O", 
	 "Tm": 360.65, 
	 "num_atms": 27, 
	 "gaussian": { 
		 "optdone": 1, 
		 "sigma_profile": "yes", 
		 "theory": "DFT", 
		 "functional": "B3LYP", 
		 "basiset": "6-31G**", 
		 "properties": { 
			 "R2extent": 3983.8122, 
			 "electric_dipole_moment_norm": 7.54583968356, 
			 "electric_quadrupole_moment_norm": 27.3985793061, 
			 "total_energy": -574.149026433, 
			 "HOMO_LUMO_gap": 0.12028, 
			 "cosmo_polarized_energy": -13.01, 
			 "cosmo_cavitation_energy": 29.31, 
			 "cosmo_dispersion_energy": -21.24, 
			 "cosmo_repulsion_energy": 1.67, 
			 "cosmo_total_nonelectrostatic_energy": 9.74, 
			 "SMD_solvation_energy": 4.8 
		},
		"coords": [
			{
				"x": 0.3790972237,
				"y": 1.1267636938,
				"z": -2.6762275807,
				"element": "C" 
			},
			{
				"x": 0.4334639303,
				"y": 1.716324933,
				"z": -1.2609427546,
				"element": "C" 
			},
			{
				"x": 0.0990893227,
				"y": 0.7741605622,
				"z": -0.1843874879,
				"element": "N" 
			},
			{
				"x": -1.2493014026,
				"y": 0.878167184,
				"z": 0.3811991242,
				"element": "C" 
			},
			{
				"x": -2.3703129203,
				"y": 0.8371472774,
				"z": -0.6617553872,
				"element": "C" 
			},
			{
				"x": 1.1053079734,
				"y": 0.0921465361,
				"z": 0.4739925158,
				"element": "C" 
			},
			{
				"x": 0.9243536547,
				"y": -0.4798006819,
				"z": 1.761852611,
				"element": "C" 
			},
			{
				"x": 1.9512468381,
				"y": -1.172438198,
				"z": 2.380990178,
				"element": "C" 
			},
			{
				"x": 3.1997675546,
				"y": -1.3211603894,
				"z": 1.7635396477,
				"element": "C" 
			},
			{
				"x": 3.4029629838,
				"y": -0.7518289688,
				"z": 0.4943083539,
				"element": "C" 
			},
			{
				"x": 2.3870935315,
				"y": -0.0640508081,
				"z": -0.13530534,
				"element": "C" 
			},
			{
				"x": 4.1815950849,
				"y": -2.0458064922,
				"z": 2.4850451442,
				"element": "N" 
			},
			{
				"x": 5.2715057919,
				"y": -2.1587183822,
				"z": 1.9221609151,
				"element": "O" 
			},
			{
				"x": 0.6652518955,
				"y": 1.8884698971,
				"z": -3.4097292796,
				"element": "H" 
			},
			{
				"x": 1.0611994747,
				"y": 0.2789380901,
				"z": -2.783176004,
				"element": "H" 
			},
			{
				"x": -0.6258072324,
				"y": 0.7764201552,
				"z": -2.9243528363,
				"element": "H" 
			},
			{
				"x": 1.4271211932,
				"y": 2.1328186185,
				"z": -1.0666797322,
				"element": "H" 
			},
			{
				"x": -0.2617627498,
				"y": 2.5598246224,
				"z": -1.1888123061,
				"element": "H" 
			},
			{
				"x": -1.4013806367,
				"y": 0.035452187,
				"z": 1.0546008131,
				"element": "H" 
			},
			{
				"x": -1.34083216,
				"y": 1.794696404,
				"z": 0.9867084606,
				"element": "H" 
			},
			{
				"x": -2.3301759798,
				"y": -0.0884653073,
				"z": -1.243350166,
				"element": "H" 
			},
			{
				"x": -3.3361445864,
				"y": 0.8759406405,
				"z": -0.1480955804,
				"element": "H" 
			},
			{
				"x": -2.3366664041,
				"y": 1.6823081222,
				"z": -1.3546334456,
				"element": "H" 
			},
			{
				"x": -0.0079752226,
				"y": -0.3559312903,
				"z": 2.2964942767,
				"element": "H" 
			},
			{
				"x": 1.8131316476,
				"y": -1.6024391411,
				"z": 3.3688792308,
				"element": "H" 
			},
			{
				"x": 4.3736594913,
				"y": -0.8782432309,
				"z": 0.0260692692,
				"element": "H" 
			},
			{
				"x": 2.568411703,
				"y": 0.3396039666,
				"z": -1.1232926397,
				"element": "H" 
			}
		],
		 "valence_orbital": [ 
			{
				"type": "occ",
				"energy": -0.3361,
				"method": "rhf"
			},
			{
				"type": "occ",
				"energy": -0.29508,
				"method": "rhf"
			},
			{
				"type": "occ",
				"energy": -0.262,
				"method": "rhf"
			},
			{
				"type": "occ",
				"energy": -0.20798,
				"method": "rhf"
			},
			{
				"type": "occ",
				"energy": -0.19197,
				"method": "rhf"
			},
			{
				"type": "unocc",
				"energy": -0.07169,
				"method": "rhf"
			},
			{
				"type": "unocc",
				"energy": -0.00867,
				"method": "rhf"
			},
			{
				"type": "unocc",
				"energy": 0.03604,
				"method": "rhf"
			},
			{
				"type": "unocc",
				"energy": 0.06982,
				"method": "rhf"
			},
			{
				"type": "unocc",
				"energy": 0.09409,
				"method": "rhf"
			}
		],
		"cosmo_sigma_profile": { 
			"-0.025": 0.0,
			"-0.024": 0.0,
			"-0.023": 0.0,
			"-0.022": 0.0,
			"-0.021": 0.0,
			"-0.02": 0.0,
			"-0.019": 0.0,
			"-0.018": 0.0,
			"-0.017": 0.0,
			"-0.016": 0.0,
			"-0.015": 0.0,
			"-0.014": 0.0,
			"-0.013": 0.0,
			"-0.012": 0.0,
			"-0.011": 0.0,
			"-0.01": 0.0,
			"-0.009": 0.0,
			"-0.008": 0.864316530108,
			"-0.007": 3.27924063356,
			"-0.006": 9.34693292257,
			"-0.005": 15.4441936485,
			"-0.004": 23.5221907891,
			"-0.003": 29.316376444,
			"-0.002": 25.1271911199,
			"-0.001": 17.0961092081,
			"0.0": 19.165197496,
			"0.001": 16.9366366535,
			"0.002": 16.1401464899,
			"0.003": 16.5839154232,
			"0.004": 9.24984525549,
			"0.005": 2.19276004578,
			"0.006": 2.70529701049,
			"0.007": 2.52588052157,
			"0.008": 3.42668668599,
			"0.009": 3.90041731173,
			"0.01": 5.32087139013,
			"0.011": 3.69661629471,
			"0.012": 2.74036393436,
			"0.013": 2.54697631438,
			"0.014": 0.47592318291,
			"0.015": 0.0,
			"0.016": 0.0,
			"0.017": 0.0,
			"0.018": 0.0,
			"0.019": 0.0,
			"0.02": 0.0,
			"0.021": 0.0,
			"0.022": 0.0,
			"0.023": 0.0,
			"0.024": 0.0,
			"0.025": 0.0
		}
	}
}
