{
	 "smiles": "O=C1CC(CC(=O)C1)C1=CC=CO1", 
	 "Tm": 421.15, 
	 "num_atms": 23, 
	 "gaussian": { 
		 "optdone": 1, 
		 "sigma_profile": "yes", 
		 "theory": "DFT", 
		 "functional": "B3LYP", 
		 "basiset": "6-31G**", 
		 "properties": { 
			 "R2extent": 2902.0687, 
			 "electric_dipole_moment_norm": 4.04066237763, 
			 "electric_quadrupole_moment_norm": 12.7771491292, 
			 "total_energy": -612.728954532, 
			 "HOMO_LUMO_gap": 0.18627, 
			 "cosmo_polarized_energy": -14.7, 
			 "cosmo_cavitation_energy": 27.09, 
			 "cosmo_dispersion_energy": -19.36, 
			 "cosmo_repulsion_energy": 1.54, 
			 "cosmo_total_nonelectrostatic_energy": 9.28, 
			 "SMD_solvation_energy": 6.44 
		},
		"coords": [
			{
				"x": -1.1011006461,
				"y": -3.7213657267,
				"z": -1.4702815912,
				"element": "O" 
			},
			{
				"x": -0.3669223233,
				"y": -2.7584879894,
				"z": -1.3942173483,
				"element": "C" 
			},
			{
				"x": -0.0732950049,
				"y": -2.0466803221,
				"z": -0.0810322275,
				"element": "C" 
			},
			{
				"x": -0.2600247631,
				"y": -0.511870632,
				"z": -0.1990535438,
				"element": "C" 
			},
			{
				"x": 0.5895406667,
				"y": 0.0566291828,
				"z": -1.3651000585,
				"element": "C" 
			},
			{
				"x": 0.2968839205,
				"y": -0.6515220884,
				"z": -2.6804812553,
				"element": "C" 
			},
			{
				"x": 0.0538463354,
				"y": -0.0549012391,
				"z": -3.7085435911,
				"element": "O" 
			},
			{
				"x": 0.3286370148,
				"y": -2.178813446,
				"z": -2.6257771835,
				"element": "C" 
			},
			{
				"x": 0.0354501736,
				"y": 0.185037668,
				"z": 1.0949339424,
				"element": "C" 
			},
			{
				"x": 1.1485064685,
				"y": 0.3078864669,
				"z": 1.8776014326,
				"element": "C" 
			},
			{
				"x": 0.7732527977,
				"y": 1.1160370522,
				"z": 3.0011911634,
				"element": "C" 
			},
			{
				"x": -0.5390543762,
				"y": 1.4260280517,
				"z": 2.8214707307,
				"element": "C" 
			},
			{
				"x": -1.0038604556,
				"y": 0.8675827541,
				"z": 1.6663199092,
				"element": "O" 
			},
			{
				"x": 0.9690238914,
				"y": -2.2568715622,
				"z": 0.1993115563,
				"element": "H" 
			},
			{
				"x": -0.7184944777,
				"y": -2.4665569235,
				"z": 0.6935037039,
				"element": "H" 
			},
			{
				"x": -1.3160429246,
				"y": -0.3139245001,
				"z": -0.4201093817,
				"element": "H" 
			},
			{
				"x": 1.6544862972,
				"y": -0.0818006594,
				"z": -1.1286389479,
				"element": "H" 
			},
			{
				"x": 0.4136793556,
				"y": 1.1259568339,
				"z": -1.4996189635,
				"element": "H" 
			},
			{
				"x": 1.3883999498,
				"y": -2.4716895542,
				"z": -2.5585882806,
				"element": "H" 
			},
			{
				"x": -0.0899946455,
				"y": -2.604324793,
				"z": -3.5388031038,
				"element": "H" 
			},
			{
				"x": 2.1215981885,
				"y": -0.1217135416,
				"z": 1.684843406,
				"element": "H" 
			},
			{
				"x": 1.4003162716,
				"y": 1.4206737972,
				"z": 3.8266704832,
				"element": "H" 
			},
			{
				"x": -1.2552317143,
				"y": 2.0013911709,
				"z": 3.3868991487,
				"element": "H" 
			}
		],
		 "valence_orbital": [ 
			{
				"type": "occ",
				"energy": -0.35096,
				"method": "rhf"
			},
			{
				"type": "occ",
				"energy": -0.28558,
				"method": "rhf"
			},
			{
				"type": "occ",
				"energy": -0.26693,
				"method": "rhf"
			},
			{
				"type": "occ",
				"energy": -0.25468,
				"method": "rhf"
			},
			{
				"type": "occ",
				"energy": -0.22643,
				"method": "rhf"
			},
			{
				"type": "unocc",
				"energy": -0.04016,
				"method": "rhf"
			},
			{
				"type": "unocc",
				"energy": -0.02083,
				"method": "rhf"
			},
			{
				"type": "unocc",
				"energy": 0.01039,
				"method": "rhf"
			},
			{
				"type": "unocc",
				"energy": 0.0637,
				"method": "rhf"
			},
			{
				"type": "unocc",
				"energy": 0.07956,
				"method": "rhf"
			}
		],
		"cosmo_sigma_profile": { 
			"-0.025": 0.0,
			"-0.024": 0.0,
			"-0.023": 0.0,
			"-0.022": 0.0,
			"-0.021": 0.0,
			"-0.02": 0.0,
			"-0.019": 0.0,
			"-0.018": 0.0,
			"-0.017": 0.0,
			"-0.016": 0.0,
			"-0.015": 0.0,
			"-0.014": 0.0,
			"-0.013": 0.0,
			"-0.012": 0.0,
			"-0.011": 0.0375088710599,
			"-0.01": 2.75088416587,
			"-0.009": 5.99814232963,
			"-0.008": 8.05306390711,
			"-0.007": 12.0665102358,
			"-0.006": 15.0487360193,
			"-0.005": 15.0871810276,
			"-0.004": 15.9444578381,
			"-0.003": 16.2251238755,
			"-0.002": 12.1787880739,
			"-0.001": 10.9736609802,
			"0.0": 8.943319637,
			"0.001": 9.37895650596,
			"0.002": 8.68134048954,
			"0.003": 10.1962171152,
			"0.004": 10.9026945415,
			"0.005": 9.69688541938,
			"0.006": 8.12920906606,
			"0.007": 3.79876183185,
			"0.008": 4.65432250537,
			"0.009": 4.35562326833,
			"0.01": 4.77237497108,
			"0.011": 8.88535802429,
			"0.012": 6.81787415307,
			"0.013": 1.19327252749,
			"0.014": 0.0,
			"0.015": 0.0,
			"0.016": 0.0,
			"0.017": 0.0,
			"0.018": 0.0,
			"0.019": 0.0,
			"0.02": 0.0,
			"0.021": 0.0,
			"0.022": 0.0,
			"0.023": 0.0,
			"0.024": 0.0,
			"0.025": 0.0
		}
	}
}
