{
	 "smiles": "ClCC1=CC(=CC=C1)C(=O)NC1=CC=CC=C1", 
	 "Tm": 397.15, 
	 "num_atms": 29, 
	 "gaussian": { 
		 "optdone": 1, 
		 "sigma_profile": "yes", 
		 "theory": "DFT", 
		 "functional": "B3LYP", 
		 "basiset": "6-31G**", 
		 "properties": { 
			 "R2extent": 6837.3435, 
			 "electric_dipole_moment_norm": 3.57165963944, 
			 "electric_quadrupole_moment_norm": 15.2799571001, 
			 "total_energy": -1130.91693233, 
			 "HOMO_LUMO_gap": 0.16949, 
			 "cosmo_polarized_energy": -16.0, 
			 "cosmo_cavitation_energy": 35.36, 
			 "cosmo_dispersion_energy": -25.66, 
			 "cosmo_repulsion_energy": 1.98, 
			 "cosmo_total_nonelectrostatic_energy": 11.69, 
			 "SMD_solvation_energy": 5.92 
		},
		"coords": [
			{
				"x": 2.2860372154,
				"y": -3.3461567019,
				"z": 1.8093716827,
				"element": "Cl" 
			},
			{
				"x": 2.4679761758,
				"y": -2.4472433741,
				"z": 0.2191047253,
				"element": "C" 
			},
			{
				"x": 1.1631107014,
				"y": -2.2932623728,
				"z": -0.5043706203,
				"element": "C" 
			},
			{
				"x": 0.3486521892,
				"y": -1.1795330948,
				"z": -0.2669280931,
				"element": "C" 
			},
			{
				"x": -0.8746437461,
				"y": -1.0275549225,
				"z": -0.9311690448,
				"element": "C" 
			},
			{
				"x": -1.2933602105,
				"y": -2.0208814156,
				"z": -1.8271028191,
				"element": "C" 
			},
			{
				"x": -0.4863272798,
				"y": -3.1280214117,
				"z": -2.0750962629,
				"element": "C" 
			},
			{
				"x": 0.7378080484,
				"y": -3.2638451183,
				"z": -1.4195331555,
				"element": "C" 
			},
			{
				"x": -1.808335626,
				"y": 0.1357042544,
				"z": -0.7178158719,
				"element": "C" 
			},
			{
				"x": -3.0068493384,
				"y": 0.0349132176,
				"z": -0.9570884028,
				"element": "O" 
			},
			{
				"x": -1.2090762708,
				"y": 1.2891453556,
				"z": -0.2632695996,
				"element": "N" 
			},
			{
				"x": -1.8012553797,
				"y": 2.5313182451,
				"z": 0.0520150288,
				"element": "C" 
			},
			{
				"x": -3.185605617,
				"y": 2.7602581351,
				"z": 0.0135225742,
				"element": "C" 
			},
			{
				"x": -3.6774578537,
				"y": 4.0209206747,
				"z": 0.3533874937,
				"element": "C" 
			},
			{
				"x": -2.8220483528,
				"y": 5.0572311506,
				"z": 0.7293121158,
				"element": "C" 
			},
			{
				"x": -1.4457907952,
				"y": 4.8243359757,
				"z": 0.7655507434,
				"element": "C" 
			},
			{
				"x": -0.9380377921,
				"y": 3.5725026839,
				"z": 0.4308721966,
				"element": "C" 
			},
			{
				"x": 3.187712162,
				"y": -3.0257553421,
				"z": -0.36017449,
				"element": "H" 
			},
			{
				"x": 2.9077200643,
				"y": -1.4846360535,
				"z": 0.4811852854,
				"element": "H" 
			},
			{
				"x": 0.6673145018,
				"y": -0.4558585354,
				"z": 0.4796683496,
				"element": "H" 
			},
			{
				"x": -2.2549343051,
				"y": -1.9011732693,
				"z": -2.3139984204,
				"element": "H" 
			},
			{
				"x": -0.8106052507,
				"y": -3.888372342,
				"z": -2.7791279865,
				"element": "H" 
			},
			{
				"x": 1.3634485609,
				"y": -4.1320506453,
				"z": -1.6089972771,
				"element": "H" 
			},
			{
				"x": -0.2007477337,
				"y": 1.2810337032,
				"z": -0.2257203357,
				"element": "H" 
			},
			{
				"x": -3.8480429754,
				"y": 1.9603384074,
				"z": -0.2837108189,
				"element": "H" 
			},
			{
				"x": -4.7501883368,
				"y": 4.1894211073,
				"z": 0.3205671084,
				"element": "H" 
			},
			{
				"x": -3.2205764498,
				"y": 6.0327949646,
				"z": 0.9902142758,
				"element": "H" 
			},
			{
				"x": -0.7624801463,
				"y": 5.6172065886,
				"z": 1.0557309594,
				"element": "H" 
			},
			{
				"x": 0.1354838407,
				"y": 3.3973201355,
				"z": 0.4634006595,
				"element": "H" 
			}
		],
		 "valence_orbital": [ 
			{
				"type": "occ",
				"energy": -0.27302,
				"method": "rhf"
			},
			{
				"type": "occ",
				"energy": -0.2676,
				"method": "rhf"
			},
			{
				"type": "occ",
				"energy": -0.25672,
				"method": "rhf"
			},
			{
				"type": "occ",
				"energy": -0.25186,
				"method": "rhf"
			},
			{
				"type": "occ",
				"energy": -0.22207,
				"method": "rhf"
			},
			{
				"type": "unocc",
				"energy": -0.05258,
				"method": "rhf"
			},
			{
				"type": "unocc",
				"energy": -0.03781,
				"method": "rhf"
			},
			{
				"type": "unocc",
				"energy": -0.0024,
				"method": "rhf"
			},
			{
				"type": "unocc",
				"energy": 0.00181,
				"method": "rhf"
			},
			{
				"type": "unocc",
				"energy": 0.03077,
				"method": "rhf"
			}
		],
		"cosmo_sigma_profile": { 
			"-0.025": 0.0,
			"-0.024": 0.0,
			"-0.023": 0.0,
			"-0.022": 0.0,
			"-0.021": 0.0,
			"-0.02": 0.0,
			"-0.019": 0.0,
			"-0.018": 0.0,
			"-0.017": 0.0,
			"-0.016": 0.0616207647935,
			"-0.015": 0.763297956214,
			"-0.014": 1.16173528313,
			"-0.013": 1.81268804508,
			"-0.012": 1.36605040617,
			"-0.011": 1.45779416823,
			"-0.01": 1.55358451402,
			"-0.009": 2.0713445159,
			"-0.008": 7.0215983502,
			"-0.007": 10.7093842968,
			"-0.006": 14.7430618989,
			"-0.005": 18.5347508525,
			"-0.004": 19.1011624442,
			"-0.003": 17.6616238009,
			"-0.002": 14.8540489351,
			"-0.001": 16.1232291754,
			"0.0": 15.6108087353,
			"0.001": 17.2522316325,
			"0.002": 20.6949906093,
			"0.003": 27.7129916175,
			"0.004": 19.3436087041,
			"0.005": 19.0058661894,
			"0.006": 17.3621310521,
			"0.007": 7.60343604333,
			"0.008": 1.52135345922,
			"0.009": 2.06571271108,
			"0.01": 1.62000892654,
			"0.011": 1.95532933493,
			"0.012": 2.5955927475,
			"0.013": 2.32560288717,
			"0.014": 0.0917158364398,
			"0.015": 0.0,
			"0.016": 0.0,
			"0.017": 0.0,
			"0.018": 0.0,
			"0.019": 0.0,
			"0.02": 0.0,
			"0.021": 0.0,
			"0.022": 0.0,
			"0.023": 0.0,
			"0.024": 0.0,
			"0.025": 0.0
		}
	}
}
