{
	 "smiles": "CC1(C)NC(=O)C1(C)C", 
	 "Tm": 369.15, 
	 "num_atms": 22, 
	 "gaussian": { 
		 "optdone": 1, 
		 "sigma_profile": "yes", 
		 "theory": "DFT", 
		 "functional": "B3LYP", 
		 "basiset": "6-31G**", 
		 "properties": { 
			 "R2extent": 1647.1518, 
			 "electric_dipole_moment_norm": 3.83990870464, 
			 "electric_quadrupole_moment_norm": 15.3811780261, 
			 "total_energy": -404.561717896, 
			 "HOMO_LUMO_gap": 0.27855, 
			 "cosmo_polarized_energy": -10.61, 
			 "cosmo_cavitation_energy": 23.4, 
			 "cosmo_dispersion_energy": -16.59, 
			 "cosmo_repulsion_energy": 1.36, 
			 "cosmo_total_nonelectrostatic_energy": 8.17, 
			 "SMD_solvation_energy": 4.52 
		},
		"coords": [
			{
				"x": -0.9386469024,
				"y": 0.7044701717,
				"z": -1.100539664,
				"element": "C" 
			},
			{
				"x": -0.2905418756,
				"y": 1.5644773632,
				"z": -0.0100364956,
				"element": "C" 
			},
			{
				"x": -0.0882702579,
				"y": 2.9931261406,
				"z": -0.5266231558,
				"element": "C" 
			},
			{
				"x": -1.0195457376,
				"y": 1.5127650573,
				"z": 1.2766432863,
				"element": "N" 
			},
			{
				"x": -0.0100647806,
				"y": 0.9530802512,
				"z": 2.0149810187,
				"element": "C" 
			},
			{
				"x": 0.0797461039,
				"y": 0.6284482351,
				"z": 3.1794202053,
				"element": "O" 
			},
			{
				"x": 0.9355070311,
				"y": 0.9093395337,
				"z": 0.7860093174,
				"element": "C" 
			},
			{
				"x": 2.1871426002,
				"y": 1.7746321843,
				"z": 0.9634114848,
				"element": "C" 
			},
			{
				"x": 1.3353778669,
				"y": -0.5153428411,
				"z": 0.3894866498,
				"element": "C" 
			},
			{
				"x": -0.2754884905,
				"y": 0.6038994385,
				"z": -1.9664108871,
				"element": "H" 
			},
			{
				"x": -1.8651221179,
				"y": 1.1745632608,
				"z": -1.4497272329,
				"element": "H" 
			},
			{
				"x": -1.1887095103,
				"y": -0.2945044398,
				"z": -0.7382919253,
				"element": "H" 
			},
			{
				"x": -1.038721367,
				"y": 3.4000079292,
				"z": -0.8904525703,
				"element": "H" 
			},
			{
				"x": 0.2825027662,
				"y": 3.660875498,
				"z": 0.2533460819,
				"element": "H" 
			},
			{
				"x": 0.6179003726,
				"y": 3.0111321452,
				"z": -1.3636632294,
				"element": "H" 
			},
			{
				"x": -1.9566296692,
				"y": 1.7967517364,
				"z": 1.5353175409,
				"element": "H" 
			},
			{
				"x": 2.8463417748,
				"y": 1.3076298829,
				"z": 1.7015889539,
				"element": "H" 
			},
			{
				"x": 2.7435287244,
				"y": 1.8641679527,
				"z": 0.0233817712,
				"element": "H" 
			},
			{
				"x": 1.958528216,
				"y": 2.7804580747,
				"z": 1.3233706527,
				"element": "H" 
			},
			{
				"x": 0.4807134978,
				"y": -1.1931443183,
				"z": 0.3289809597,
				"element": "H" 
			},
			{
				"x": 1.8526623428,
				"y": -0.5273195497,
				"z": -0.576696787,
				"element": "H" 
			},
			{
				"x": 2.0185894122,
				"y": -0.9207137065,
				"z": 1.1421040249,
				"element": "H" 
			}
		],
		 "valence_orbital": [ 
			{
				"type": "occ",
				"energy": -0.34388,
				"method": "rhf"
			},
			{
				"type": "occ",
				"energy": -0.33453,
				"method": "rhf"
			},
			{
				"type": "occ",
				"energy": -0.31499,
				"method": "rhf"
			},
			{
				"type": "occ",
				"energy": -0.24993,
				"method": "rhf"
			},
			{
				"type": "occ",
				"energy": -0.23649,
				"method": "rhf"
			},
			{
				"type": "unocc",
				"energy": 0.04206,
				"method": "rhf"
			},
			{
				"type": "unocc",
				"energy": 0.06918,
				"method": "rhf"
			},
			{
				"type": "unocc",
				"energy": 0.09686,
				"method": "rhf"
			},
			{
				"type": "unocc",
				"energy": 0.10947,
				"method": "rhf"
			},
			{
				"type": "unocc",
				"energy": 0.12004,
				"method": "rhf"
			}
		],
		"cosmo_sigma_profile": { 
			"-0.025": 0.0,
			"-0.024": 0.0,
			"-0.023": 0.0,
			"-0.022": 0.0,
			"-0.021": 0.0,
			"-0.02": 0.0,
			"-0.019": 0.0,
			"-0.018": 0.0,
			"-0.017": 0.0,
			"-0.016": 0.0,
			"-0.015": 0.0,
			"-0.014": 0.612667544804,
			"-0.013": 1.2990367385,
			"-0.012": 1.09560125308,
			"-0.011": 1.13850595895,
			"-0.01": 1.10899474586,
			"-0.009": 0.670361296854,
			"-0.008": 1.14853550651,
			"-0.007": 1.14378213726,
			"-0.006": 1.23388806925,
			"-0.005": 3.35987847664,
			"-0.004": 14.2201303637,
			"-0.003": 29.1655601152,
			"-0.002": 21.7945905243,
			"-0.001": 20.8303638174,
			"0.0": 27.8410388505,
			"0.001": 20.5121895347,
			"0.002": 4.48305621125,
			"0.003": 3.76522703723,
			"0.004": 1.7840572978,
			"0.005": 1.3135238094,
			"0.006": 1.54343694041,
			"0.007": 0.91892538184,
			"0.008": 1.51671360384,
			"0.009": 1.1479933631,
			"0.01": 1.69557185806,
			"0.011": 1.78792273518,
			"0.012": 1.93087786398,
			"0.013": 4.20290365254,
			"0.014": 6.09811128652,
			"0.015": 1.7295396993,
			"0.016": 0.0,
			"0.017": 0.0,
			"0.018": 0.0,
			"0.019": 0.0,
			"0.02": 0.0,
			"0.021": 0.0,
			"0.022": 0.0,
			"0.023": 0.0,
			"0.024": 0.0,
			"0.025": 0.0
		}
	}
}
