{
	 "smiles": "COC(=O)C1=C(C)N=C(Cl)C=C1", 
	 "Tm": 304.15, 
	 "num_atms": 20, 
	 "gaussian": { 
		 "optdone": 1, 
		 "sigma_profile": "yes", 
		 "theory": "DFT", 
		 "functional": "B3LYP", 
		 "basiset": "6-31G**", 
		 "properties": { 
			 "R2extent": 4043.6771, 
			 "electric_dipole_moment_norm": 2.66314585969, 
			 "electric_quadrupole_moment_norm": 12.3596320609, 
			 "total_energy": -975.077011819, 
			 "HOMO_LUMO_gap": 0.19968, 
			 "cosmo_polarized_energy": -8.29, 
			 "cosmo_cavitation_energy": 26.27, 
			 "cosmo_dispersion_energy": -19.37, 
			 "cosmo_repulsion_energy": 1.55, 
			 "cosmo_total_nonelectrostatic_energy": 8.45, 
			 "SMD_solvation_energy": 4.69 
		},
		"coords": [
			{
				"x": 2.2261071032,
				"y": -1.2995429986,
				"z": -0.0157285592,
				"element": "C" 
			},
			{
				"x": 0.9600166426,
				"y": -0.6221714964,
				"z": -0.1037950915,
				"element": "O" 
			},
			{
				"x": 0.9915808618,
				"y": 0.5706872932,
				"z": -0.7325646203,
				"element": "C" 
			},
			{
				"x": 2.0137378684,
				"y": 1.04349405,
				"z": -1.1931313712,
				"element": "O" 
			},
			{
				"x": -0.3354420371,
				"y": 1.2541767602,
				"z": -0.8115230092,
				"element": "C" 
			},
			{
				"x": -1.5657965134,
				"y": 0.775433474,
				"z": -0.3030345846,
				"element": "C" 
			},
			{
				"x": -1.7568034736,
				"y": -0.5330952506,
				"z": 0.4217156074,
				"element": "C" 
			},
			{
				"x": -2.693429528,
				"y": 1.4995858736,
				"z": -0.4453472594,
				"element": "N" 
			},
			{
				"x": -2.6448816655,
				"y": 2.6622190499,
				"z": -1.0637362645,
				"element": "C" 
			},
			{
				"x": -4.1642258516,
				"y": 3.5411645237,
				"z": -1.2049731908,
				"element": "Cl" 
			},
			{
				"x": -1.4904653774,
				"y": 3.2317973713,
				"z": -1.6035777899,
				"element": "C" 
			},
			{
				"x": -0.324337044,
				"y": 2.4973307019,
				"z": -1.4639352395,
				"element": "C" 
			},
			{
				"x": 2.9475616635,
				"y": -0.6927881232,
				"z": 0.5363930534,
				"element": "H" 
			},
			{
				"x": 2.0221727801,
				"y": -2.2309777062,
				"z": 0.5117987966,
				"element": "H" 
			},
			{
				"x": 2.6237289212,
				"y": -1.4995682743,
				"z": -1.0134032566,
				"element": "H" 
			},
			{
				"x": -2.8091949904,
				"y": -0.6246580197,
				"z": 0.6914835814,
				"element": "H" 
			},
			{
				"x": -1.140847874,
				"y": -0.5826542061,
				"z": 1.3236507604,
				"element": "H" 
			},
			{
				"x": -1.4627153602,
				"y": -1.3810209674,
				"z": -0.2026977262,
				"element": "H" 
			},
			{
				"x": -1.5143656811,
				"y": 4.193236387,
				"z": -2.1013267791,
				"element": "H" 
			},
			{
				"x": 0.6202995556,
				"y": 2.8619515578,
				"z": -1.8526670572,
				"element": "H" 
			}
		],
		 "valence_orbital": [ 
			{
				"type": "occ",
				"energy": -0.3129,
				"method": "rhf"
			},
			{
				"type": "occ",
				"energy": -0.29953,
				"method": "rhf"
			},
			{
				"type": "occ",
				"energy": -0.29405,
				"method": "rhf"
			},
			{
				"type": "occ",
				"energy": -0.27277,
				"method": "rhf"
			},
			{
				"type": "occ",
				"energy": -0.26217,
				"method": "rhf"
			},
			{
				"type": "unocc",
				"energy": -0.06249,
				"method": "rhf"
			},
			{
				"type": "unocc",
				"energy": -0.03571,
				"method": "rhf"
			},
			{
				"type": "unocc",
				"energy": 0.03099,
				"method": "rhf"
			},
			{
				"type": "unocc",
				"energy": 0.03752,
				"method": "rhf"
			},
			{
				"type": "unocc",
				"energy": 0.09715,
				"method": "rhf"
			}
		],
		"cosmo_sigma_profile": { 
			"-0.025": 0.0,
			"-0.024": 0.0,
			"-0.023": 0.0,
			"-0.022": 0.0,
			"-0.021": 0.0,
			"-0.02": 0.0,
			"-0.019": 0.0,
			"-0.018": 0.0,
			"-0.017": 0.0,
			"-0.016": 0.0,
			"-0.015": 0.0,
			"-0.014": 0.0,
			"-0.013": 0.0,
			"-0.012": 0.0,
			"-0.011": 0.0,
			"-0.01": 0.0,
			"-0.009": 0.469796285918,
			"-0.008": 2.36027702126,
			"-0.007": 4.3601468002,
			"-0.006": 9.11173775707,
			"-0.005": 10.7294247426,
			"-0.004": 17.0270284887,
			"-0.003": 21.3590719526,
			"-0.002": 19.0975314464,
			"-0.001": 27.9280513611,
			"0.0": 23.0036926677,
			"0.001": 12.9675158465,
			"0.002": 11.2696148302,
			"0.003": 11.9176447389,
			"0.004": 11.4333585513,
			"0.005": 5.86482610193,
			"0.006": 3.57252929496,
			"0.007": 3.47018325345,
			"0.008": 1.70772815679,
			"0.009": 2.94644212193,
			"0.01": 3.4552243376,
			"0.011": 4.25502522515,
			"0.012": 3.15063055446,
			"0.013": 0.777964047607,
			"0.014": 0.0257550526208,
			"0.015": 0.0,
			"0.016": 0.0,
			"0.017": 0.0,
			"0.018": 0.0,
			"0.019": 0.0,
			"0.02": 0.0,
			"0.021": 0.0,
			"0.022": 0.0,
			"0.023": 0.0,
			"0.024": 0.0,
			"0.025": 0.0
		}
	}
}
