{
	 "smiles": "CC(C1=CC=CC=C1)C1=CC=CC=C1", 
	 "Tm": 255.25, 
	 "num_atms": 28, 
	 "gaussian": { 
		 "optdone": 1, 
		 "sigma_profile": "yes", 
		 "theory": "DFT", 
		 "functional": "B3LYP", 
		 "basiset": "6-31G**", 
		 "properties": { 
			 "R2extent": 3138.3115, 
			 "electric_dipole_moment_norm": 0.195532017839, 
			 "electric_quadrupole_moment_norm": 3.62683188334, 
			 "total_energy": -541.936836756, 
			 "HOMO_LUMO_gap": 0.22681, 
			 "cosmo_polarized_energy": -5.36, 
			 "cosmo_cavitation_energy": 30.72, 
			 "cosmo_dispersion_energy": -21.62, 
			 "cosmo_repulsion_energy": 1.71, 
			 "cosmo_total_nonelectrostatic_energy": 10.8, 
			 "SMD_solvation_energy": 5.12 
		},
		"coords": [
			{
				"x": 0.4571206874,
				"y": 2.8335525697,
				"z": -0.8871851524,
				"element": "C" 
			},
			{
				"x": 0.8065533907,
				"y": 1.3740111232,
				"z": -0.5390521703,
				"element": "C" 
			},
			{
				"x": 0.1679878982,
				"y": 0.3382860437,
				"z": -1.465090657,
				"element": "C" 
			},
			{
				"x": 0.658245148,
				"y": -0.9776767952,
				"z": -1.4474784013,
				"element": "C" 
			},
			{
				"x": 0.1125503779,
				"y": -1.9625609845,
				"z": -2.2669479676,
				"element": "C" 
			},
			{
				"x": -0.945105972,
				"y": -1.6524837838,
				"z": -3.1268829436,
				"element": "C" 
			},
			{
				"x": -1.4431976346,
				"y": -0.3515724291,
				"z": -3.1553260464,
				"element": "C" 
			},
			{
				"x": -0.8898849694,
				"y": 0.6350376638,
				"z": -2.3324754816,
				"element": "C" 
			},
			{
				"x": 0.5034069767,
				"y": 1.0947865911,
				"z": 0.9339041915,
				"element": "C" 
			},
			{
				"x": 1.5293222692,
				"y": 1.1313881533,
				"z": 1.8864151774,
				"element": "C" 
			},
			{
				"x": 1.2606748881,
				"y": 0.9266251996,
				"z": 3.2416331956,
				"element": "C" 
			},
			{
				"x": -0.0453425243,
				"y": 0.6810369657,
				"z": 3.6658234171,
				"element": "C" 
			},
			{
				"x": -1.0773916472,
				"y": 0.6399650994,
				"z": 2.7250953539,
				"element": "C" 
			},
			{
				"x": -0.8044451841,
				"y": 0.8431869663,
				"z": 1.3726957412,
				"element": "C" 
			},
			{
				"x": 1.0242181069,
				"y": 3.5147894213,
				"z": -0.2464662048,
				"element": "H" 
			},
			{
				"x": 0.6980123988,
				"y": 3.0622357649,
				"z": -1.9305536483,
				"element": "H" 
			},
			{
				"x": -0.6048968483,
				"y": 3.0432953409,
				"z": -0.7245198314,
				"element": "H" 
			},
			{
				"x": 1.8931099916,
				"y": 1.2697085361,
				"z": -0.6597584336,
				"element": "H" 
			},
			{
				"x": 1.4762643219,
				"y": -1.2286030309,
				"z": -0.7763019844,
				"element": "H" 
			},
			{
				"x": 0.5123508074,
				"y": -2.9724720068,
				"z": -2.2368317911,
				"element": "H" 
			},
			{
				"x": -1.3725770786,
				"y": -2.4180417617,
				"z": -3.7680851662,
				"element": "H" 
			},
			{
				"x": -2.2634493136,
				"y": -0.0963952547,
				"z": -3.8208097375,
				"element": "H" 
			},
			{
				"x": -1.289340511,
				"y": 1.6428825837,
				"z": -2.3790285574,
				"element": "H" 
			},
			{
				"x": 2.5503893305,
				"y": 1.3226460691,
				"z": 1.563508392,
				"element": "H" 
			},
			{
				"x": 2.0726442326,
				"y": 0.9559239448,
				"z": 3.9631395589,
				"element": "H" 
			},
			{
				"x": -0.2578602451,
				"y": 0.5185135516,
				"z": 4.718643643,
				"element": "H" 
			},
			{
				"x": -2.0971580475,
				"y": 0.4437970728,
				"z": 3.0450463984,
				"element": "H" 
			},
			{
				"x": -1.61120085,
				"y": 0.7931373857,
				"z": 0.6464891057,
				"element": "H" 
			}
		],
		 "valence_orbital": [ 
			{
				"type": "occ",
				"energy": -0.31947,
				"method": "rhf"
			},
			{
				"type": "occ",
				"energy": -0.2476,
				"method": "rhf"
			},
			{
				"type": "occ",
				"energy": -0.24524,
				"method": "rhf"
			},
			{
				"type": "occ",
				"energy": -0.2443,
				"method": "rhf"
			},
			{
				"type": "occ",
				"energy": -0.22979,
				"method": "rhf"
			},
			{
				"type": "unocc",
				"energy": -0.00298,
				"method": "rhf"
			},
			{
				"type": "unocc",
				"energy": 0.00052,
				"method": "rhf"
			},
			{
				"type": "unocc",
				"energy": 0.00246,
				"method": "rhf"
			},
			{
				"type": "unocc",
				"energy": 0.01323,
				"method": "rhf"
			},
			{
				"type": "unocc",
				"energy": 0.09269,
				"method": "rhf"
			}
		],
		"cosmo_sigma_profile": { 
			"-0.025": 0.0,
			"-0.024": 0.0,
			"-0.023": 0.0,
			"-0.022": 0.0,
			"-0.021": 0.0,
			"-0.02": 0.0,
			"-0.019": 0.0,
			"-0.018": 0.0,
			"-0.017": 0.0,
			"-0.016": 0.0,
			"-0.015": 0.0,
			"-0.014": 0.0,
			"-0.013": 0.0,
			"-0.012": 0.0,
			"-0.011": 0.0,
			"-0.01": 0.0,
			"-0.009": 0.0,
			"-0.008": 0.0,
			"-0.007": 0.0,
			"-0.006": 2.75167159839,
			"-0.005": 17.3883087924,
			"-0.004": 24.8541697623,
			"-0.003": 31.8927002237,
			"-0.002": 24.9103052005,
			"-0.001": 22.5661174031,
			"0.0": 18.6704442017,
			"0.001": 19.5692068339,
			"0.002": 13.7221883528,
			"0.003": 13.6457044893,
			"0.004": 14.8279424959,
			"0.005": 16.7458451269,
			"0.006": 16.7312544971,
			"0.007": 5.66375844816,
			"0.008": 0.0,
			"0.009": 0.0,
			"0.01": 0.0,
			"0.011": 0.0,
			"0.012": 0.0,
			"0.013": 0.0,
			"0.014": 0.0,
			"0.015": 0.0,
			"0.016": 0.0,
			"0.017": 0.0,
			"0.018": 0.0,
			"0.019": 0.0,
			"0.02": 0.0,
			"0.021": 0.0,
			"0.022": 0.0,
			"0.023": 0.0,
			"0.024": 0.0,
			"0.025": 0.0
		}
	}
}
