{
	 "smiles": "COC1=CC=CC=C1C(=O)CBr", 
	 "Tm": 317.15, 
	 "num_atms": 21, 
	 "gaussian": { 
		 "optdone": 1, 
		 "sigma_profile": "yes", 
		 "theory": "DFT", 
		 "functional": "B3LYP", 
		 "basiset": "6-31G**", 
		 "properties": { 
			 "R2extent": 3130.4731, 
			 "electric_dipole_moment_norm": 4.52044612953, 
			 "electric_quadrupole_moment_norm": 8.40369583219, 
			 "total_energy": -3070.21729078, 
			 "HOMO_LUMO_gap": 0.17044, 
			 "cosmo_polarized_energy": -9.67, 
			 "cosmo_cavitation_energy": 26.96, 
			 "cosmo_dispersion_energy": -19.63, 
			 "cosmo_repulsion_energy": 1.56, 
			 "cosmo_total_nonelectrostatic_energy": 8.89, 
			 "SMD_solvation_energy": 4.9 
		},
		"coords": [
			{
				"x": 3.3705537291,
				"y": 0.1349634354,
				"z": 0.5008770494,
				"element": "C" 
			},
			{
				"x": 1.9577022102,
				"y": 0.0052059524,
				"z": 0.4030447392,
				"element": "O" 
			},
			{
				"x": 1.2315464325,
				"y": 1.0212199656,
				"z": -0.1367939218,
				"element": "C" 
			},
			{
				"x": 1.7969933678,
				"y": 2.2611852699,
				"z": -0.4655091203,
				"element": "C" 
			},
			{
				"x": 1.0013417241,
				"y": 3.2830515006,
				"z": -0.9806684812,
				"element": "C" 
			},
			{
				"x": -0.368062618,
				"y": 3.0916490876,
				"z": -1.1687207617,
				"element": "C" 
			},
			{
				"x": -0.9273130605,
				"y": 1.8624455852,
				"z": -0.8425579232,
				"element": "C" 
			},
			{
				"x": -0.1540962331,
				"y": 0.8029681634,
				"z": -0.3396547914,
				"element": "C" 
			},
			{
				"x": -0.8984375471,
				"y": -0.4640597544,
				"z": -0.0513974076,
				"element": "C" 
			},
			{
				"x": -2.1204274497,
				"y": -0.4656901926,
				"z": -0.0028056625,
				"element": "O" 
			},
			{
				"x": -0.1881774146,
				"y": -1.7934870012,
				"z": 0.1687990224,
				"element": "C" 
			},
			{
				"x": 0.6741989837,
				"y": -2.4077010032,
				"z": -1.506433804,
				"element": "Br" 
			},
			{
				"x": 3.8223544508,
				"y": 0.3253538691,
				"z": -0.4793240921,
				"element": "H" 
			},
			{
				"x": 3.7300312957,
				"y": -0.8206158012,
				"z": 0.8840336355,
				"element": "H" 
			},
			{
				"x": 3.6540684375,
				"y": 0.9339399991,
				"z": 1.1965684488,
				"element": "H" 
			},
			{
				"x": 2.8548263868,
				"y": 2.4366177317,
				"z": -0.3150423776,
				"element": "H" 
			},
			{
				"x": 1.4609369832,
				"y": 4.2351498766,
				"z": -1.2308301425,
				"element": "H" 
			},
			{
				"x": -0.9879310058,
				"y": 3.8883868847,
				"z": -1.5667465753,
				"element": "H" 
			},
			{
				"x": -1.9876857999,
				"y": 1.6772491712,
				"z": -0.9749622875,
				"element": "H" 
			},
			{
				"x": -0.9366942953,
				"y": -2.5420970118,
				"z": 0.4156127719,
				"element": "H" 
			},
			{
				"x": 0.6081714227,
				"y": -1.7394357281,
				"z": 0.9052116814,
				"element": "H" 
			}
		],
		 "valence_orbital": [ 
			{
				"type": "occ",
				"energy": -0.28369,
				"method": "rhf"
			},
			{
				"type": "occ",
				"energy": -0.27257,
				"method": "rhf"
			},
			{
				"type": "occ",
				"energy": -0.26263,
				"method": "rhf"
			},
			{
				"type": "occ",
				"energy": -0.25064,
				"method": "rhf"
			},
			{
				"type": "occ",
				"energy": -0.23534,
				"method": "rhf"
			},
			{
				"type": "unocc",
				"energy": -0.0649,
				"method": "rhf"
			},
			{
				"type": "unocc",
				"energy": -0.00694,
				"method": "rhf"
			},
			{
				"type": "unocc",
				"energy": -0.00019,
				"method": "rhf"
			},
			{
				"type": "unocc",
				"energy": 0.05263,
				"method": "rhf"
			},
			{
				"type": "unocc",
				"energy": 0.08168,
				"method": "rhf"
			}
		],
		"cosmo_sigma_profile": { 
			"-0.025": 0.0,
			"-0.024": 0.0,
			"-0.023": 0.0,
			"-0.022": 0.0,
			"-0.021": 0.0,
			"-0.02": 0.0,
			"-0.019": 0.0,
			"-0.018": 0.0,
			"-0.017": 0.0,
			"-0.016": 0.0,
			"-0.015": 0.0,
			"-0.014": 0.0,
			"-0.013": 0.0,
			"-0.012": 0.0,
			"-0.011": 0.0,
			"-0.01": 0.0,
			"-0.009": 0.0,
			"-0.008": 0.551447729816,
			"-0.007": 6.86496268004,
			"-0.006": 17.9240392965,
			"-0.005": 19.975635506,
			"-0.004": 19.750426845,
			"-0.003": 15.5720715488,
			"-0.002": 10.9895039314,
			"-0.001": 12.2619739468,
			"0.0": 13.4559822359,
			"0.001": 13.1876727408,
			"0.002": 15.1325510151,
			"0.003": 19.4924864336,
			"0.004": 18.9579539884,
			"0.005": 15.0810564241,
			"0.006": 5.50455370933,
			"0.007": 2.19447651437,
			"0.008": 1.06525426986,
			"0.009": 1.80852727244,
			"0.01": 2.48839665982,
			"0.011": 3.878594678,
			"0.012": 2.06352853625,
			"0.013": 0.145488109531,
			"0.014": 0.0,
			"0.015": 0.0,
			"0.016": 0.0,
			"0.017": 0.0,
			"0.018": 0.0,
			"0.019": 0.0,
			"0.02": 0.0,
			"0.021": 0.0,
			"0.022": 0.0,
			"0.023": 0.0,
			"0.024": 0.0,
			"0.025": 0.0
		}
	}
}
