{
	 "smiles": "C1=CC=C(C=C1)C1=CC2=CC=CN=C2C=C1", 
	 "Tm": 383.15, 
	 "num_atms": 27, 
	 "gaussian": { 
		 "optdone": 1, 
		 "sigma_profile": "yes", 
		 "theory": "DFT", 
		 "functional": "B3LYP", 
		 "basiset": "6-31G**", 
		 "properties": { 
			 "R2extent": 4483.3729, 
			 "electric_dipole_moment_norm": 2.09902044535, 
			 "electric_quadrupole_moment_norm": 12.4678145202, 
			 "total_energy": -632.991527905, 
			 "HOMO_LUMO_gap": 0.16621, 
			 "cosmo_polarized_energy": -8.45, 
			 "cosmo_cavitation_energy": 30.9, 
			 "cosmo_dispersion_energy": -22.89, 
			 "cosmo_repulsion_energy": 1.73, 
			 "cosmo_total_nonelectrostatic_energy": 9.74, 
			 "SMD_solvation_energy": 3.36 
		},
		"coords": [
			{
				"x": -3.8792965123,
				"y": -1.858025446,
				"z": -2.099576151,
				"element": "C" 
			},
			{
				"x": -3.0908282852,
				"y": -1.1523839276,
				"z": -3.010347675,
				"element": "C" 
			},
			{
				"x": -1.8868568067,
				"y": -0.5802747735,
				"z": -2.6017435528,
				"element": "C" 
			},
			{
				"x": -1.4451806893,
				"y": -0.6994561436,
				"z": -1.2727105005,
				"element": "C" 
			},
			{
				"x": -2.2481681723,
				"y": -1.4155775804,
				"z": -0.3683010825,
				"element": "C" 
			},
			{
				"x": -3.4523319098,
				"y": -1.9870824712,
				"z": -0.7764808291,
				"element": "C" 
			},
			{
				"x": -0.1666279788,
				"y": -0.0828529204,
				"z": -0.8361769366,
				"element": "C" 
			},
			{
				"x": -0.0423584416,
				"y": 0.5071655695,
				"z": 0.4111745099,
				"element": "C" 
			},
			{
				"x": 1.1754474288,
				"y": 1.0969203707,
				"z": 0.8330357394,
				"element": "C" 
			},
			{
				"x": 1.3414265253,
				"y": 1.7169562719,
				"z": 2.0988998701,
				"element": "C" 
			},
			{
				"x": 2.5587783977,
				"y": 2.2663265897,
				"z": 2.424006455,
				"element": "C" 
			},
			{
				"x": 3.6135825907,
				"y": 2.1958586281,
				"z": 1.4781325254,
				"element": "C" 
			},
			{
				"x": 3.5080667939,
				"y": 1.6346845112,
				"z": 0.2898718131,
				"element": "N" 
			},
			{
				"x": 2.3041363084,
				"y": 1.0866844621,
				"z": -0.0466840499,
				"element": "C" 
			},
			{
				"x": 2.1625593861,
				"y": 0.4793609447,
				"z": -1.3223719456,
				"element": "C" 
			},
			{
				"x": 0.9682891634,
				"y": -0.0845307175,
				"z": -1.7020481857,
				"element": "C" 
			},
			{
				"x": -4.816428461,
				"y": -2.3050311665,
				"z": -2.4183302367,
				"element": "H" 
			},
			{
				"x": -3.4169123157,
				"y": -1.0401504754,
				"z": -4.0405307915,
				"element": "H" 
			},
			{
				"x": -1.2945148296,
				"y": -0.0124395478,
				"z": -3.3132244477,
				"element": "H" 
			},
			{
				"x": -1.9103826805,
				"y": -1.5463480444,
				"z": 0.6555412632,
				"element": "H" 
			},
			{
				"x": -4.0529459332,
				"y": -2.5432492247,
				"z": -0.0621902555,
				"element": "H" 
			},
			{
				"x": -0.8985403605,
				"y": 0.548607167,
				"z": 1.0794406397,
				"element": "H" 
			},
			{
				"x": 0.5055264348,
				"y": 1.7480226258,
				"z": 2.7935451692,
				"element": "H" 
			},
			{
				"x": 2.7245454207,
				"y": 2.7477537185,
				"z": 3.3826706929,
				"element": "H" 
			},
			{
				"x": 4.5836737791,
				"y": 2.6264576372,
				"z": 1.7250279831,
				"element": "H" 
			},
			{
				"x": 3.0298582155,
				"y": 0.4696895474,
				"z": -1.9745739623,
				"element": "H" 
			},
			{
				"x": 0.8860829321,
				"y": -0.5671856047,
				"z": -2.6711560583,
				"element": "H" 
			}
		],
		 "valence_orbital": [ 
			{
				"type": "occ",
				"energy": -0.26998,
				"method": "rhf"
			},
			{
				"type": "occ",
				"energy": -0.25344,
				"method": "rhf"
			},
			{
				"type": "occ",
				"energy": -0.25198,
				"method": "rhf"
			},
			{
				"type": "occ",
				"energy": -0.24075,
				"method": "rhf"
			},
			{
				"type": "occ",
				"energy": -0.22133,
				"method": "rhf"
			},
			{
				"type": "unocc",
				"energy": -0.05512,
				"method": "rhf"
			},
			{
				"type": "unocc",
				"energy": -0.02795,
				"method": "rhf"
			},
			{
				"type": "unocc",
				"energy": -0.00472,
				"method": "rhf"
			},
			{
				"type": "unocc",
				"energy": 0.00749,
				"method": "rhf"
			},
			{
				"type": "unocc",
				"energy": 0.02641,
				"method": "rhf"
			}
		],
		"cosmo_sigma_profile": { 
			"-0.025": 0.0,
			"-0.024": 0.0,
			"-0.023": 0.0,
			"-0.022": 0.0,
			"-0.021": 0.0,
			"-0.02": 0.0,
			"-0.019": 0.0,
			"-0.018": 0.0,
			"-0.017": 0.0,
			"-0.016": 0.0,
			"-0.015": 0.0,
			"-0.014": 0.0,
			"-0.013": 0.0,
			"-0.012": 0.0,
			"-0.011": 0.0,
			"-0.01": 0.0,
			"-0.009": 0.0,
			"-0.008": 0.0501202367981,
			"-0.007": 5.09447748332,
			"-0.006": 16.6471257139,
			"-0.005": 24.0925549442,
			"-0.004": 22.3121120597,
			"-0.003": 17.8361168786,
			"-0.002": 13.9094153231,
			"-0.001": 13.9655450156,
			"0.0": 14.3557411726,
			"0.001": 18.9096374467,
			"0.002": 27.2319691044,
			"0.003": 28.5588765565,
			"0.004": 17.0175104234,
			"0.005": 12.1367934113,
			"0.006": 6.60561353386,
			"0.007": 1.14592619804,
			"0.008": 1.49871419549,
			"0.009": 1.20185776206,
			"0.01": 1.4020478747,
			"0.011": 0.926505127778,
			"0.012": 0.925325358744,
			"0.013": 0.468843599651,
			"0.014": 1.0599981114,
			"0.015": 0.601291600757,
			"0.016": 0.911834341474,
			"0.017": 0.0456839449584,
			"0.018": 0.0,
			"0.019": 0.0,
			"0.02": 0.0,
			"0.021": 0.0,
			"0.022": 0.0,
			"0.023": 0.0,
			"0.024": 0.0,
			"0.025": 0.0
		}
	}
}
