{
	 "smiles": "CC1(C)C(C=C(Cl)Cl)C1C(=O)OCC1=CC=CC(OC2=CC=CC=C2)=C1", 
	 "Tm": 307.65, 
	 "num_atms": 46, 
	 "gaussian": { 
		 "optdone": 1, 
		 "sigma_profile": "yes", 
		 "theory": "DFT", 
		 "functional": "B3LYP", 
		 "basiset": "6-31G**", 
		 "properties": { 
			 "R2extent": 15257.1946, 
			 "electric_dipole_moment_norm": 2.48425141441, 
			 "electric_quadrupole_moment_norm": 18.2823471152, 
			 "total_energy": -1958.3056446, 
			 "HOMO_LUMO_gap": 0.20245, 
			 "cosmo_polarized_energy": -12.98, 
			 "cosmo_cavitation_energy": 54.73, 
			 "cosmo_dispersion_energy": -35.11, 
			 "cosmo_repulsion_energy": 2.74, 
			 "cosmo_total_nonelectrostatic_energy": 22.36, 
			 "SMD_solvation_energy": 9.8 
		},
		"coords": [
			{
				"x": -0.4714043104,
				"y": 2.229006712,
				"z": -0.6815689623,
				"element": "C" 
			},
			{
				"x": -1.7114409692,
				"y": 2.299724043,
				"z": -1.5582683501,
				"element": "C" 
			},
			{
				"x": -2.147694364,
				"y": 3.7269092257,
				"z": -1.8541807187,
				"element": "C" 
			},
			{
				"x": -1.8871647009,
				"y": 1.2207318345,
				"z": -2.6140700768,
				"element": "C" 
			},
			{
				"x": -2.4108508823,
				"y": 1.4933954751,
				"z": -3.9652793289,
				"element": "C" 
			},
			{
				"x": -1.9996658033,
				"y": 0.914447145,
				"z": -5.0984301161,
				"element": "C" 
			},
			{
				"x": -0.7386414843,
				"y": -0.2889791462,
				"z": -5.1797244136,
				"element": "Cl" 
			},
			{
				"x": -2.7014064926,
				"y": 1.3149496374,
				"z": -6.6478105765,
				"element": "Cl" 
			},
			{
				"x": -2.8343838471,
				"y": 1.2742290529,
				"z": -1.4085877773,
				"element": "C" 
			},
			{
				"x": -2.8852733373,
				"y": 0.1882651448,
				"z": -0.3874987051,
				"element": "C" 
			},
			{
				"x": -3.8486749536,
				"y": -0.0122580458,
				"z": 0.3242451434,
				"element": "O" 
			},
			{
				"x": -1.7571585339,
				"y": -0.5600866167,
				"z": -0.338206559,
				"element": "O" 
			},
			{
				"x": -1.7633429158,
				"y": -1.630719568,
				"z": 0.6454358369,
				"element": "C" 
			},
			{
				"x": -0.44624106,
				"y": -2.3521348021,
				"z": 0.5540812846,
				"element": "C" 
			},
			{
				"x": -0.2534202247,
				"y": -3.3552893069,
				"z": -0.403659644,
				"element": "C" 
			},
			{
				"x": 0.9731752675,
				"y": -4.0143216456,
				"z": -0.4869095544,
				"element": "C" 
			},
			{
				"x": 2.0165288844,
				"y": -3.6785468996,
				"z": 0.3745670073,
				"element": "C" 
			},
			{
				"x": 1.8238347292,
				"y": -2.6768544922,
				"z": 1.3288862214,
				"element": "C" 
			},
			{
				"x": 2.8685755386,
				"y": -2.4477209088,
				"z": 2.1990530434,
				"element": "O" 
			},
			{
				"x": 3.0984160961,
				"y": -1.184480854,
				"z": 2.7147727269,
				"element": "C" 
			},
			{
				"x": 3.0804982167,
				"y": -0.0375435336,
				"z": 1.9152812692,
				"element": "C" 
			},
			{
				"x": 3.3998971355,
				"y": 1.1947004839,
				"z": 2.4864489186,
				"element": "C" 
			},
			{
				"x": 3.7437494527,
				"y": 1.2853291452,
				"z": 3.8372675214,
				"element": "C" 
			},
			{
				"x": 3.7672970732,
				"y": 0.1300911213,
				"z": 4.621396286,
				"element": "C" 
			},
			{
				"x": 3.4415776166,
				"y": -1.1073320425,
				"z": 4.0655651493,
				"element": "C" 
			},
			{
				"x": 0.5957986716,
				"y": -2.0159606081,
				"z": 1.4249646058,
				"element": "C" 
			},
			{
				"x": 0.3580514101,
				"y": 2.7511459401,
				"z": -1.1719798881,
				"element": "H" 
			},
			{
				"x": -0.1641998285,
				"y": 1.2018070274,
				"z": -0.4836181339,
				"element": "H" 
			},
			{
				"x": -0.6528115227,
				"y": 2.7234845951,
				"z": 0.280132878,
				"element": "H" 
			},
			{
				"x": -1.3702922702,
				"y": 4.2589340212,
				"z": -2.4141909865,
				"element": "H" 
			},
			{
				"x": -3.0735054768,
				"y": 3.7780533144,
				"z": -2.4328572517,
				"element": "H" 
			},
			{
				"x": -2.3161810056,
				"y": 4.2697824429,
				"z": -0.9177213071,
				"element": "H" 
			},
			{
				"x": -1.1560632439,
				"y": 0.42122121,
				"z": -2.5596402285,
				"element": "H" 
			},
			{
				"x": -3.2074652434,
				"y": 2.2239047521,
				"z": -4.0689057653,
				"element": "H" 
			},
			{
				"x": -3.8314625825,
				"y": 1.6640171171,
				"z": -1.589733745,
				"element": "H" 
			},
			{
				"x": -1.9257264154,
				"y": -1.1962013017,
				"z": 1.6355071227,
				"element": "H" 
			},
			{
				"x": -2.6073705891,
				"y": -2.291287418,
				"z": 0.4285442897,
				"element": "H" 
			},
			{
				"x": -1.0624070981,
				"y": -3.6177754737,
				"z": -1.0792236598,
				"element": "H" 
			},
			{
				"x": 1.1211679001,
				"y": -4.7947686996,
				"z": -1.2273798185,
				"element": "H" 
			},
			{
				"x": 2.9768229835,
				"y": -4.1812215177,
				"z": 0.3289826728,
				"element": "H" 
			},
			{
				"x": 2.8253853451,
				"y": -0.1142079188,
				"z": 0.8636661969,
				"element": "H" 
			},
			{
				"x": 3.3882153427,
				"y": 2.0868504394,
				"z": 1.8668256755,
				"element": "H" 
			},
			{
				"x": 3.9940873778,
				"y": 2.2474145037,
				"z": 4.2735282173,
				"element": "H" 
			},
			{
				"x": 4.0355807887,
				"y": 0.1894927118,
				"z": 5.6722025729,
				"element": "H" 
			},
			{
				"x": 3.453005338,
				"y": -2.0170744713,
				"z": 4.6566693778,
				"element": "H" 
			},
			{
				"x": 0.4519839873,
				"y": -1.2484218247,
				"z": 2.1784215494,
				"element": "H" 
			}
		],
		 "valence_orbital": [ 
			{
				"type": "occ",
				"energy": -0.26286,
				"method": "rhf"
			},
			{
				"type": "occ",
				"energy": -0.25692,
				"method": "rhf"
			},
			{
				"type": "occ",
				"energy": -0.25387,
				"method": "rhf"
			},
			{
				"type": "occ",
				"energy": -0.23808,
				"method": "rhf"
			},
			{
				"type": "occ",
				"energy": -0.22414,
				"method": "rhf"
			},
			{
				"type": "unocc",
				"energy": -0.02169,
				"method": "rhf"
			},
			{
				"type": "unocc",
				"energy": -0.01961,
				"method": "rhf"
			},
			{
				"type": "unocc",
				"energy": -0.01244,
				"method": "rhf"
			},
			{
				"type": "unocc",
				"energy": -0.00592,
				"method": "rhf"
			},
			{
				"type": "unocc",
				"energy": -0.00139,
				"method": "rhf"
			}
		],
		"cosmo_sigma_profile": { 
			"-0.025": 0.0,
			"-0.024": 0.0,
			"-0.023": 0.0,
			"-0.022": 0.0,
			"-0.021": 0.0,
			"-0.02": 0.0,
			"-0.019": 0.0,
			"-0.018": 0.0,
			"-0.017": 0.0,
			"-0.016": 0.0,
			"-0.015": 0.0,
			"-0.014": 0.0,
			"-0.013": 0.0,
			"-0.012": 0.0,
			"-0.011": 0.0,
			"-0.01": 0.192981904644,
			"-0.009": 1.76618443084,
			"-0.008": 2.41140336017,
			"-0.007": 6.95704690985,
			"-0.006": 22.2262778346,
			"-0.005": 24.0361672635,
			"-0.004": 30.2262315986,
			"-0.003": 37.4924379104,
			"-0.002": 36.8274864603,
			"-0.001": 39.6697141703,
			"0.0": 45.3328998115,
			"0.001": 41.1137272791,
			"0.002": 34.0258468837,
			"0.003": 40.3341766063,
			"0.004": 35.0640462542,
			"0.005": 18.0923757979,
			"0.006": 5.25727468199,
			"0.007": 2.49128207035,
			"0.008": 3.50834244505,
			"0.009": 1.98841513946,
			"0.01": 1.62831014582,
			"0.011": 2.97620333698,
			"0.012": 4.85477854715,
			"0.013": 1.6007043248,
			"0.014": 0.00999215258776,
			"0.015": 0.0,
			"0.016": 0.0,
			"0.017": 0.0,
			"0.018": 0.0,
			"0.019": 0.0,
			"0.02": 0.0,
			"0.021": 0.0,
			"0.022": 0.0,
			"0.023": 0.0,
			"0.024": 0.0,
			"0.025": 0.0
		}
	}
}
