{
	 "smiles": "FC1=CC=CC(F)=C1CS(Cl)(=O)=O", 
	 "Tm": 347.15, 
	 "num_atms": 18, 
	 "gaussian": { 
		 "optdone": 1, 
		 "sigma_profile": "yes", 
		 "theory": "DFT", 
		 "functional": "B3LYP", 
		 "basiset": "6-31G**", 
		 "properties": { 
			 "R2extent": 2871.6236, 
			 "electric_dipole_moment_norm": 5.42654136076, 
			 "electric_quadrupole_moment_norm": 7.04944230205, 
			 "total_energy": -1478.18962797, 
			 "HOMO_LUMO_gap": 0.18285, 
			 "cosmo_polarized_energy": -10.97, 
			 "cosmo_cavitation_energy": 26.46, 
			 "cosmo_dispersion_energy": -19.43, 
			 "cosmo_repulsion_energy": 1.45, 
			 "cosmo_total_nonelectrostatic_energy": 8.48, 
			 "SMD_solvation_energy": 3.97 
		},
		"coords": [
			{
				"x": 1.929739296,
				"y": 0.3528492727,
				"z": -1.3628974428,
				"element": "F" 
			},
			{
				"x": 0.6522266291,
				"y": 0.3525971804,
				"z": -1.7852263426,
				"element": "C" 
			},
			{
				"x": 0.3468957793,
				"y": 0.9296499092,
				"z": -3.010645752,
				"element": "C" 
			},
			{
				"x": -0.9791560736,
				"y": 0.9070852279,
				"z": -3.4451364439,
				"element": "C" 
			},
			{
				"x": -1.9781639826,
				"y": 0.3092504507,
				"z": -2.6745902945,
				"element": "C" 
			},
			{
				"x": -1.6239111661,
				"y": -0.2560684947,
				"z": -1.4579446158,
				"element": "C" 
			},
			{
				"x": -2.5672262022,
				"y": -0.8551313257,
				"z": -0.7109567371,
				"element": "F" 
			},
			{
				"x": -0.311329399,
				"y": -0.252269496,
				"z": -0.969785888,
				"element": "C" 
			},
			{
				"x": 0.0321365395,
				"y": -0.8746935686,
				"z": 0.3374243796,
				"element": "C" 
			},
			{
				"x": -0.3474620703,
				"y": 0.1799718498,
				"z": 1.8086841254,
				"element": "S" 
			},
			{
				"x": 1.1363472859,
				"y": 1.7001143105,
				"z": 1.600863641,
				"element": "Cl" 
			},
			{
				"x": -0.0127821039,
				"y": -0.589493664,
				"z": 3.0008488478,
				"element": "O" 
			},
			{
				"x": -1.6412311477,
				"y": 0.8285232681,
				"z": 1.6452750484,
				"element": "O" 
			},
			{
				"x": 1.1375183551,
				"y": 1.3820423402,
				"z": -3.5975081007,
				"element": "H" 
			},
			{
				"x": -1.2368701488,
				"y": 1.3574104472,
				"z": -4.3982165845,
				"element": "H" 
			},
			{
				"x": -3.0121165192,
				"y": 0.2760507887,
				"z": -2.9969600079,
				"element": "H" 
			},
			{
				"x": -0.5733653873,
				"y": -1.7606645593,
				"z": 0.5474458185,
				"element": "H" 
			},
			{
				"x": 1.0909503157,
				"y": -1.1153239372,
				"z": 0.4318263491,
				"element": "H" 
			}
		],
		 "valence_orbital": [ 
			{
				"type": "occ",
				"energy": -0.33877,
				"method": "rhf"
			},
			{
				"type": "occ",
				"energy": -0.33109,
				"method": "rhf"
			},
			{
				"type": "occ",
				"energy": -0.31434,
				"method": "rhf"
			},
			{
				"type": "occ",
				"energy": -0.27866,
				"method": "rhf"
			},
			{
				"type": "occ",
				"energy": -0.26947,
				"method": "rhf"
			},
			{
				"type": "unocc",
				"energy": -0.08662,
				"method": "rhf"
			},
			{
				"type": "unocc",
				"energy": -0.04228,
				"method": "rhf"
			},
			{
				"type": "unocc",
				"energy": -0.02263,
				"method": "rhf"
			},
			{
				"type": "unocc",
				"energy": 0.04201,
				"method": "rhf"
			},
			{
				"type": "unocc",
				"energy": 0.05985,
				"method": "rhf"
			}
		],
		"cosmo_sigma_profile": { 
			"-0.025": 0.0,
			"-0.024": 0.0,
			"-0.023": 0.0,
			"-0.022": 0.0,
			"-0.021": 0.0,
			"-0.02": 0.0,
			"-0.019": 0.0,
			"-0.018": 0.0,
			"-0.017": 0.0,
			"-0.016": 0.0,
			"-0.015": 0.0,
			"-0.014": 0.0,
			"-0.013": 0.0,
			"-0.012": 0.725598304186,
			"-0.011": 2.51330055038,
			"-0.01": 2.80076508832,
			"-0.009": 3.11650534866,
			"-0.008": 7.64959915646,
			"-0.007": 10.7604718365,
			"-0.006": 9.7348242532,
			"-0.005": 8.62031576449,
			"-0.004": 7.99783129231,
			"-0.003": 7.20383547387,
			"-0.002": 9.60983719859,
			"-0.001": 16.8333956984,
			"0.0": 17.1233757658,
			"0.001": 18.9785485114,
			"0.002": 20.0929613915,
			"0.003": 27.0582312538,
			"0.004": 14.2904156618,
			"0.005": 3.20403261465,
			"0.006": 4.80894923134,
			"0.007": 5.95845830668,
			"0.008": 11.1247711169,
			"0.009": 5.09326843982,
			"0.01": 0.0188332118524,
			"0.011": 0.0,
			"0.012": 0.0,
			"0.013": 0.0,
			"0.014": 0.0,
			"0.015": 0.0,
			"0.016": 0.0,
			"0.017": 0.0,
			"0.018": 0.0,
			"0.019": 0.0,
			"0.02": 0.0,
			"0.021": 0.0,
			"0.022": 0.0,
			"0.023": 0.0,
			"0.024": 0.0,
			"0.025": 0.0
		}
	}
}
