{
	 "smiles": "OC(=O)C1CCN(CC1)C(=O)N1CCOCC1", 
	 "Tm": 405.15, 
	 "num_atms": 35, 
	 "gaussian": { 
		 "optdone": 1, 
		 "sigma_profile": "yes", 
		 "theory": "DFT", 
		 "functional": "B3LYP", 
		 "basiset": "6-31G**", 
		 "properties": { 
			 "R2extent": 4864.157, 
			 "electric_dipole_moment_norm": 4.65701442557, 
			 "electric_quadrupole_moment_norm": 11.3998456586, 
			 "total_energy": -840.42449989, 
			 "HOMO_LUMO_gap": 0.2302, 
			 "cosmo_polarized_energy": -18.64, 
			 "cosmo_cavitation_energy": 34.54, 
			 "cosmo_dispersion_energy": -24.48, 
			 "cosmo_repulsion_energy": 1.88, 
			 "cosmo_total_nonelectrostatic_energy": 11.94, 
			 "SMD_solvation_energy": 6.02 
		},
		"coords": [
			{
				"x": -1.1250862842,
				"y": 0.0696456776,
				"z": -2.1668289933,
				"element": "O" 
			},
			{
				"x": -2.3466959755,
				"y": -0.2283705203,
				"z": -1.651899353,
				"element": "C" 
			},
			{
				"x": -2.8001416948,
				"y": -1.3512128102,
				"z": -1.7008088505,
				"element": "O" 
			},
			{
				"x": -3.0893208421,
				"y": 0.981736497,
				"z": -1.0961618371,
				"element": "C" 
			},
			{
				"x": -2.1829579038,
				"y": 2.0934800572,
				"z": -0.5135941044,
				"element": "C" 
			},
			{
				"x": -1.9567083506,
				"y": 1.8663469957,
				"z": 0.9967721127,
				"element": "C" 
			},
			{
				"x": -2.0297224982,
				"y": 0.4354840837,
				"z": 1.3053372315,
				"element": "N" 
			},
			{
				"x": -3.3884119088,
				"y": -0.1164952036,
				"z": 1.1775283615,
				"element": "C" 
			},
			{
				"x": -4.1033593185,
				"y": 0.5209550459,
				"z": -0.0343436205,
				"element": "C" 
			},
			{
				"x": -1.2298037314,
				"y": -0.1710172964,
				"z": 2.2701581596,
				"element": "C" 
			},
			{
				"x": -1.6760885136,
				"y": -1.0281231154,
				"z": 3.0301014223,
				"element": "O" 
			},
			{
				"x": 0.1003340147,
				"y": 0.2464889676,
				"z": 2.3230403824,
				"element": "N" 
			},
			{
				"x": 0.9109878729,
				"y": -0.3700927191,
				"z": 3.3722252604,
				"element": "C" 
			},
			{
				"x": 1.5387068991,
				"y": -1.6833371034,
				"z": 2.8708751798,
				"element": "C" 
			},
			{
				"x": 1.8672812608,
				"y": -1.6195123138,
				"z": 1.4784081498,
				"element": "O" 
			},
			{
				"x": 2.1443537473,
				"y": -0.3017814027,
				"z": 1.0519740086,
				"element": "C" 
			},
			{
				"x": 0.8655844732,
				"y": 0.5598384379,
				"z": 1.1044566373,
				"element": "C" 
			},
			{
				"x": -0.7807405549,
				"y": -0.7686576276,
				"z": -2.5192427907,
				"element": "H" 
			},
			{
				"x": -3.6311589217,
				"y": 1.3882374199,
				"z": -1.9614383558,
				"element": "H" 
			},
			{
				"x": -2.6621492552,
				"y": 3.0674359359,
				"z": -0.661482484,
				"element": "H" 
			},
			{
				"x": -1.2324448395,
				"y": 2.1187213752,
				"z": -1.0501942533,
				"element": "H" 
			},
			{
				"x": -2.7277996076,
				"y": 2.3960896256,
				"z": 1.5782434893,
				"element": "H" 
			},
			{
				"x": -0.9981225921,
				"y": 2.2686949828,
				"z": 1.3206245398,
				"element": "H" 
			},
			{
				"x": -3.2953960442,
				"y": -1.1946808383,
				"z": 1.0433729075,
				"element": "H" 
			},
			{
				"x": -3.9642426862,
				"y": 0.0480777798,
				"z": 2.0987648979,
				"element": "H" 
			},
			{
				"x": -4.8008463911,
				"y": -0.2026216989,
				"z": -0.4614149716,
				"element": "H" 
			},
			{
				"x": -4.6887069224,
				"y": 1.3936925992,
				"z": 0.2760628697,
				"element": "H" 
			},
			{
				"x": 1.6840209414,
				"y": 0.3475258909,
				"z": 3.6705321444,
				"element": "H" 
			},
			{
				"x": 0.2764510002,
				"y": -0.567497765,
				"z": 4.2356850233,
				"element": "H" 
			},
			{
				"x": 0.8219386189,
				"y": -2.5016246037,
				"z": 2.9748887511,
				"element": "H" 
			},
			{
				"x": 2.4374039635,
				"y": -1.9209328894,
				"z": 3.4628280272,
				"element": "H" 
			},
			{
				"x": 2.5040170934,
				"y": -0.3659908948,
				"z": 0.0206337567,
				"element": "H" 
			},
			{
				"x": 2.9500610676,
				"y": 0.1525585067,
				"z": 1.6509873759,
				"element": "H" 
			},
			{
				"x": 1.1428174342,
				"y": 1.6246769623,
				"z": 1.0598974568,
				"element": "H" 
			},
			{
				"x": 0.2429464494,
				"y": 0.338261962,
				"z": 0.2351114688,
				"element": "H" 
			}
		],
		 "valence_orbital": [ 
			{
				"type": "occ",
				"energy": -0.27469,
				"method": "rhf"
			},
			{
				"type": "occ",
				"energy": -0.26399,
				"method": "rhf"
			},
			{
				"type": "occ",
				"energy": -0.25171,
				"method": "rhf"
			},
			{
				"type": "occ",
				"energy": -0.23024,
				"method": "rhf"
			},
			{
				"type": "occ",
				"energy": -0.22522,
				"method": "rhf"
			},
			{
				"type": "unocc",
				"energy": 0.00498,
				"method": "rhf"
			},
			{
				"type": "unocc",
				"energy": 0.0463,
				"method": "rhf"
			},
			{
				"type": "unocc",
				"energy": 0.06322,
				"method": "rhf"
			},
			{
				"type": "unocc",
				"energy": 0.08329,
				"method": "rhf"
			},
			{
				"type": "unocc",
				"energy": 0.08782,
				"method": "rhf"
			}
		],
		"cosmo_sigma_profile": { 
			"-0.025": 0.0,
			"-0.024": 0.0,
			"-0.023": 0.0,
			"-0.022": 0.0,
			"-0.021": 0.0,
			"-0.02": 0.0,
			"-0.019": 0.0,
			"-0.018": 0.506062603033,
			"-0.017": 0.738374698046,
			"-0.016": 1.11351694718,
			"-0.015": 0.789086371259,
			"-0.014": 0.984335374607,
			"-0.013": 0.214021621743,
			"-0.012": 0.521924534654,
			"-0.011": 0.726735516531,
			"-0.01": 0.983374464187,
			"-0.009": 0.393924359111,
			"-0.008": 0.488721756271,
			"-0.007": 2.0098425408,
			"-0.006": 6.69685326015,
			"-0.005": 17.7635579103,
			"-0.004": 38.9491065636,
			"-0.003": 37.6298330406,
			"-0.002": 30.9539297865,
			"-0.001": 21.6338916636,
			"0.0": 16.2780265766,
			"0.001": 9.90199643492,
			"0.002": 8.9007254014,
			"0.003": 8.21226170488,
			"0.004": 6.87143143587,
			"0.005": 6.74531317085,
			"0.006": 6.12427546572,
			"0.007": 5.83587657013,
			"0.008": 4.93385627931,
			"0.009": 3.90300194424,
			"0.01": 4.67545073219,
			"0.011": 5.34911039011,
			"0.012": 7.24579384071,
			"0.013": 4.34102858698,
			"0.014": 4.40290009545,
			"0.015": 1.34361451549,
			"0.016": 0.0,
			"0.017": 0.0,
			"0.018": 0.0,
			"0.019": 0.0,
			"0.02": 0.0,
			"0.021": 0.0,
			"0.022": 0.0,
			"0.023": 0.0,
			"0.024": 0.0,
			"0.025": 0.0
		}
	}
}
