{
	 "smiles": "SC1=CC=C(S)C=C1", 
	 "Tm": 370.15, 
	 "num_atms": 14, 
	 "gaussian": { 
		 "optdone": 1, 
		 "sigma_profile": "yes", 
		 "theory": "DFT", 
		 "functional": "B3LYP", 
		 "basiset": "6-31G**", 
		 "properties": { 
			 "R2extent": 1809.7716, 
			 "electric_dipole_moment_norm": 0.0, 
			 "electric_quadrupole_moment_norm": 11.7464048657, 
			 "total_energy": -1028.6208845, 
			 "HOMO_LUMO_gap": 0.19346, 
			 "cosmo_polarized_energy": -8.22, 
			 "cosmo_cavitation_energy": 21.26, 
			 "cosmo_dispersion_energy": -16.93, 
			 "cosmo_repulsion_energy": 1.29, 
			 "cosmo_total_nonelectrostatic_energy": 5.63, 
			 "SMD_solvation_energy": 2.62 
		},
		"coords": [
			{
				"x": 1.8877693252,
				"y": -0.1111104091,
				"z": -2.3834175464,
				"element": "S" 
			},
			{
				"x": 0.745675652,
				"y": -0.3617979363,
				"z": -1.0315358685,
				"element": "C" 
			},
			{
				"x": 0.8020763614,
				"y": 0.5248966985,
				"z": 0.0508772677,
				"element": "C" 
			},
			{
				"x": -0.0614375714,
				"y": 0.3782412741,
				"z": 1.1338751069,
				"element": "C" 
			},
			{
				"x": -1.0012619305,
				"y": -0.6593015022,
				"z": 1.1587354426,
				"element": "C" 
			},
			{
				"x": -2.1433560651,
				"y": -0.9099885562,
				"z": 2.5106167201,
				"element": "S" 
			},
			{
				"x": -1.0576625806,
				"y": -1.5459961931,
				"z": 0.0763224674,
				"element": "C" 
			},
			{
				"x": -0.1941489322,
				"y": -1.3993406748,
				"z": -1.0066755641,
				"element": "C" 
			},
			{
				"x": 1.4579002389,
				"y": -1.1318602333,
				"z": -3.1488740268,
				"element": "H" 
			},
			{
				"x": 1.5226560764,
				"y": 1.3377062567,
				"z": 0.0528996915,
				"element": "H" 
			},
			{
				"x": 0.0032656683,
				"y": 1.0808103143,
				"z": 1.9596693017,
				"element": "H" 
			},
			{
				"x": -1.7134819348,
				"y": 0.1107564829,
				"z": 3.276076716,
				"element": "H" 
			},
			{
				"x": -1.7782420116,
				"y": -2.3588059601,
				"z": 0.0743002074,
				"element": "H" 
			},
			{
				"x": -0.2588522959,
				"y": -2.1019095614,
				"z": -1.8324699154,
				"element": "H" 
			}
		],
		 "valence_orbital": [ 
			{
				"type": "occ",
				"energy": -0.33586,
				"method": "rhf"
			},
			{
				"type": "occ",
				"energy": -0.32458,
				"method": "rhf"
			},
			{
				"type": "occ",
				"energy": -0.26395,
				"method": "rhf"
			},
			{
				"type": "occ",
				"energy": -0.26237,
				"method": "rhf"
			},
			{
				"type": "occ",
				"energy": -0.2074,
				"method": "rhf"
			},
			{
				"type": "unocc",
				"energy": -0.01394,
				"method": "rhf"
			},
			{
				"type": "unocc",
				"energy": -0.00899,
				"method": "rhf"
			},
			{
				"type": "unocc",
				"energy": 0.00437,
				"method": "rhf"
			},
			{
				"type": "unocc",
				"energy": 0.02083,
				"method": "rhf"
			},
			{
				"type": "unocc",
				"energy": 0.06675,
				"method": "rhf"
			}
		],
		"cosmo_sigma_profile": { 
			"-0.025": 0.0,
			"-0.024": 0.0,
			"-0.023": 0.0,
			"-0.022": 0.0,
			"-0.021": 0.0,
			"-0.02": 0.0,
			"-0.019": 0.0,
			"-0.018": 0.0,
			"-0.017": 0.0,
			"-0.016": 0.0,
			"-0.015": 0.0,
			"-0.014": 0.0,
			"-0.013": 0.0,
			"-0.012": 0.0,
			"-0.011": 1.88462764152,
			"-0.01": 6.05344387756,
			"-0.009": 3.71613135223,
			"-0.008": 4.66034562834,
			"-0.007": 7.10908592867,
			"-0.006": 10.7721719688,
			"-0.005": 10.2393374405,
			"-0.004": 8.69942100237,
			"-0.003": 7.98343558881,
			"-0.002": 6.51637810202,
			"-0.001": 7.10838267804,
			"0.0": 8.10702776314,
			"0.001": 8.59752317733,
			"0.002": 10.8690845926,
			"0.003": 14.9269558511,
			"0.004": 20.1064938627,
			"0.005": 17.0261248961,
			"0.006": 6.41992032966,
			"0.007": 5.85887910854,
			"0.008": 5.33268153792,
			"0.009": 3.0433430529,
			"0.01": 0.0592825262032,
			"0.011": 0.0,
			"0.012": 0.0,
			"0.013": 0.0,
			"0.014": 0.0,
			"0.015": 0.0,
			"0.016": 0.0,
			"0.017": 0.0,
			"0.018": 0.0,
			"0.019": 0.0,
			"0.02": 0.0,
			"0.021": 0.0,
			"0.022": 0.0,
			"0.023": 0.0,
			"0.024": 0.0,
			"0.025": 0.0
		}
	}
}
