{
	 "smiles": "CCCCC1=NC(C=O)=C(Cl)N1", 
	 "Tm": 372.15, 
	 "num_atms": 23, 
	 "gaussian": { 
		 "optdone": 1, 
		 "sigma_profile": "yes", 
		 "theory": "DFT", 
		 "functional": "B3LYP", 
		 "basiset": "6-31G**", 
		 "properties": { 
			 "R2extent": 3249.609, 
			 "electric_dipole_moment_norm": 6.3238659766, 
			 "electric_quadrupole_moment_norm": 13.4473516326, 
			 "total_energy": -956.395923554, 
			 "HOMO_LUMO_gap": 0.19664, 
			 "cosmo_polarized_energy": -19.0, 
			 "cosmo_cavitation_energy": 29.28, 
			 "cosmo_dispersion_energy": -20.63, 
			 "cosmo_repulsion_energy": 1.71, 
			 "cosmo_total_nonelectrostatic_energy": 10.36, 
			 "SMD_solvation_energy": 3.82 
		},
		"coords": [
			{
				"x": 2.115352145,
				"y": -3.5059128948,
				"z": -1.2122871247,
				"element": "C" 
			},
			{
				"x": 0.8460458388,
				"y": -2.6491621245,
				"z": -1.2416273891,
				"element": "C" 
			},
			{
				"x": 0.0840766557,
				"y": -2.6697388271,
				"z": 0.0889873588,
				"element": "C" 
			},
			{
				"x": -1.1990145063,
				"y": -1.8089309093,
				"z": 0.089127371,
				"element": "C" 
			},
			{
				"x": -0.9547463579,
				"y": -0.3411300514,
				"z": -0.0782662224,
				"element": "C" 
			},
			{
				"x": -1.212093041,
				"y": 0.3763560915,
				"z": -1.1453548962,
				"element": "N" 
			},
			{
				"x": -0.8101494674,
				"y": 1.6707286618,
				"z": -0.8625148236,
				"element": "C" 
			},
			{
				"x": -0.927905294,
				"y": 2.7925223654,
				"z": -1.7987901996,
				"element": "C" 
			},
			{
				"x": -1.3871469178,
				"y": 2.7140799565,
				"z": -2.9215935672,
				"element": "O" 
			},
			{
				"x": -0.2953399188,
				"y": 1.7113667194,
				"z": 0.420640433,
				"element": "C" 
			},
			{
				"x": 0.3590157638,
				"y": 2.9926195046,
				"z": 1.3692564089,
				"element": "Cl" 
			},
			{
				"x": -0.3866864194,
				"y": 0.4383814164,
				"z": 0.9148811905,
				"element": "N" 
			},
			{
				"x": 2.8172487912,
				"y": -3.1521846591,
				"z": -0.4480912462,
				"element": "H" 
			},
			{
				"x": 2.6339779236,
				"y": -3.479058891,
				"z": -2.1756749975,
				"element": "H" 
			},
			{
				"x": 1.8844487987,
				"y": -4.5537465527,
				"z": -0.9882500255,
				"element": "H" 
			},
			{
				"x": 0.1794141853,
				"y": -3.0020255205,
				"z": -2.0392362631,
				"element": "H" 
			},
			{
				"x": 1.1022488839,
				"y": -1.6153538098,
				"z": -1.503021556,
				"element": "H" 
			},
			{
				"x": 0.7501221095,
				"y": -2.3395003773,
				"z": 0.8994438182,
				"element": "H" 
			},
			{
				"x": -0.1979968755,
				"y": -3.7017315623,
				"z": 0.3339130731,
				"element": "H" 
			},
			{
				"x": -1.8516381618,
				"y": -2.1100153229,
				"z": -0.7353468686,
				"element": "H" 
			},
			{
				"x": -1.7551677045,
				"y": -1.9833579104,
				"z": 1.0196087819,
				"element": "H" 
			},
			{
				"x": -0.5528169153,
				"y": 3.7578317951,
				"z": -1.3947438842,
				"element": "H" 
			},
			{
				"x": -0.0955495156,
				"y": 0.1456629023,
				"z": 1.8367406286,
				"element": "H" 
			}
		],
		 "valence_orbital": [ 
			{
				"type": "occ",
				"energy": -0.33538,
				"method": "rhf"
			},
			{
				"type": "occ",
				"energy": -0.2995,
				"method": "rhf"
			},
			{
				"type": "occ",
				"energy": -0.28311,
				"method": "rhf"
			},
			{
				"type": "occ",
				"energy": -0.24387,
				"method": "rhf"
			},
			{
				"type": "occ",
				"energy": -0.24069,
				"method": "rhf"
			},
			{
				"type": "unocc",
				"energy": -0.04405,
				"method": "rhf"
			},
			{
				"type": "unocc",
				"energy": 0.00807,
				"method": "rhf"
			},
			{
				"type": "unocc",
				"energy": 0.01312,
				"method": "rhf"
			},
			{
				"type": "unocc",
				"energy": 0.05472,
				"method": "rhf"
			},
			{
				"type": "unocc",
				"energy": 0.09398,
				"method": "rhf"
			}
		],
		"cosmo_sigma_profile": { 
			"-0.025": 0.0,
			"-0.024": 0.0,
			"-0.023": 0.0,
			"-0.022": 0.0,
			"-0.021": 0.0,
			"-0.02": 0.0,
			"-0.019": 0.0,
			"-0.018": 0.557017490944,
			"-0.017": 1.20072219417,
			"-0.016": 1.1347693067,
			"-0.015": 1.34387795554,
			"-0.014": 0.919026319462,
			"-0.013": 1.35013007636,
			"-0.012": 1.59780855262,
			"-0.011": 1.02327638036,
			"-0.01": 1.7473173607,
			"-0.009": 1.30678582332,
			"-0.008": 0.962830084991,
			"-0.007": 1.91248008266,
			"-0.006": 5.08336403344,
			"-0.005": 8.94281543898,
			"-0.004": 12.6171522977,
			"-0.003": 19.0671533051,
			"-0.002": 32.2669493089,
			"-0.001": 30.4863036233,
			"0.0": 26.6395092851,
			"0.001": 22.6456489616,
			"0.002": 15.6688757054,
			"0.003": 6.30192883172,
			"0.004": 3.29311277317,
			"0.005": 2.82484235181,
			"0.006": 2.72438212029,
			"0.007": 2.03306009759,
			"0.008": 2.47272785373,
			"0.009": 2.49366277834,
			"0.01": 3.04476071898,
			"0.011": 4.40236292652,
			"0.012": 5.51551418133,
			"0.013": 3.77004530378,
			"0.014": 1.53831029988,
			"0.015": 2.06703152248,
			"0.016": 1.44461551545,
			"0.017": 0.780519106545,
			"0.018": 0.0138157628699,
			"0.019": 0.0,
			"0.02": 0.0,
			"0.021": 0.0,
			"0.022": 0.0,
			"0.023": 0.0,
			"0.024": 0.0,
			"0.025": 0.0
		}
	}
}
