{
	 "smiles": "OC(=O)C1=C(SCC2=CC=C(C=C2)C#N)C=CC=C1", 
	 "Tm": 482.15, 
	 "num_atms": 30, 
	 "gaussian": { 
		 "optdone": 1, 
		 "sigma_profile": "yes", 
		 "theory": "DFT", 
		 "functional": "B3LYP", 
		 "basiset": "6-31G**", 
		 "properties": { 
			 "R2extent": 6389.0009, 
			 "electric_dipole_moment_norm": 4.3976612091, 
			 "electric_quadrupole_moment_norm": 33.6076933051, 
			 "total_energy": -1181.611013, 
			 "HOMO_LUMO_gap": 0.16792, 
			 "cosmo_polarized_energy": -16.39, 
			 "cosmo_cavitation_energy": 37.73, 
			 "cosmo_dispersion_energy": -25.4, 
			 "cosmo_repulsion_energy": 1.93, 
			 "cosmo_total_nonelectrostatic_energy": 14.27, 
			 "SMD_solvation_energy": 8.31 
		},
		"coords": [
			{
				"x": -3.8992423052,
				"y": -0.2562409087,
				"z": 1.3889514076,
				"element": "O" 
			},
			{
				"x": -2.7784298248,
				"y": 0.4534499331,
				"z": 1.105484253,
				"element": "C" 
			},
			{
				"x": -2.7945361615,
				"y": 1.6675741274,
				"z": 1.0583147308,
				"element": "O" 
			},
			{
				"x": -1.6057755907,
				"y": -0.4301254506,
				"z": 0.8401483617,
				"element": "C" 
			},
			{
				"x": -0.2692013607,
				"y": -0.0295561051,
				"z": 1.0887102537,
				"element": "C" 
			},
			{
				"x": 0.2119357865,
				"y": 1.477940484,
				"z": 1.9408645595,
				"element": "S" 
			},
			{
				"x": 0.0449335232,
				"y": 2.7956849332,
				"z": 0.6415232018,
				"element": "C" 
			},
			{
				"x": 0.9029446075,
				"y": 2.5782350474,
				"z": -0.5734704721,
				"element": "C" 
			},
			{
				"x": 2.2786124011,
				"y": 2.8570844073,
				"z": -0.5512094585,
				"element": "C" 
			},
			{
				"x": 3.0694080144,
				"y": 2.6498852705,
				"z": -1.6745175234,
				"element": "C" 
			},
			{
				"x": 2.49110837,
				"y": 2.1490752967,
				"z": -2.8550550199,
				"element": "C" 
			},
			{
				"x": 1.1167199648,
				"y": 1.8645648502,
				"z": -2.8887086209,
				"element": "C" 
			},
			{
				"x": 0.3374246294,
				"y": 2.0796754623,
				"z": -1.7555760227,
				"element": "C" 
			},
			{
				"x": 3.3011538211,
				"y": 1.9310752727,
				"z": -4.0176300757,
				"element": "C" 
			},
			{
				"x": 3.9590999913,
				"y": 1.751868543,
				"z": -4.9604531933,
				"element": "N" 
			},
			{
				"x": 0.7656576937,
				"y": -0.9236696118,
				"z": 0.7808653992,
				"element": "C" 
			},
			{
				"x": 0.5047049008,
				"y": -2.17785298,
				"z": 0.2283831159,
				"element": "C" 
			},
			{
				"x": -0.8103265643,
				"y": -2.5677737341,
				"z": -0.0174606051,
				"element": "C" 
			},
			{
				"x": -1.8537440584,
				"y": -1.7005700999,
				"z": 0.2957394758,
				"element": "C" 
			},
			{
				"x": -4.6052373854,
				"y": 0.4021684391,
				"z": 1.500647033,
				"element": "H" 
			},
			{
				"x": 0.3460941798,
				"y": 3.6983854618,
				"z": 1.1819644381,
				"element": "H" 
			},
			{
				"x": -1.01270954,
				"y": 2.8719491974,
				"z": 0.3924232961,
				"element": "H" 
			},
			{
				"x": 2.7315570875,
				"y": 3.2376485619,
				"z": 0.3600520255,
				"element": "H" 
			},
			{
				"x": 4.1308513754,
				"y": 2.8733261765,
				"z": -1.651179338,
				"element": "H" 
			},
			{
				"x": 0.6703918436,
				"y": 1.4805874993,
				"z": -3.7999880233,
				"element": "H" 
			},
			{
				"x": -0.726240086,
				"y": 1.8625755568,
				"z": -1.7860318766,
				"element": "H" 
			},
			{
				"x": 1.7867674438,
				"y": -0.6203089368,
				"z": 0.9837935832,
				"element": "H" 
			},
			{
				"x": 1.3291279943,
				"y": -2.8444081471,
				"z": -0.0071406074,
				"element": "H" 
			},
			{
				"x": -1.026155191,
				"y": -3.5418613348,
				"z": -0.4454508604,
				"element": "H" 
			},
			{
				"x": -2.8804955601,
				"y": -1.9989872119,
				"z": 0.1184065627,
				"element": "H" 
			}
		],
		 "valence_orbital": [ 
			{
				"type": "occ",
				"energy": -0.27421,
				"method": "rhf"
			},
			{
				"type": "occ",
				"energy": -0.274,
				"method": "rhf"
			},
			{
				"type": "occ",
				"energy": -0.27111,
				"method": "rhf"
			},
			{
				"type": "occ",
				"energy": -0.25712,
				"method": "rhf"
			},
			{
				"type": "occ",
				"energy": -0.23134,
				"method": "rhf"
			},
			{
				"type": "unocc",
				"energy": -0.06342,
				"method": "rhf"
			},
			{
				"type": "unocc",
				"energy": -0.05194,
				"method": "rhf"
			},
			{
				"type": "unocc",
				"energy": -0.02934,
				"method": "rhf"
			},
			{
				"type": "unocc",
				"energy": -0.02091,
				"method": "rhf"
			},
			{
				"type": "unocc",
				"energy": 0.02998,
				"method": "rhf"
			}
		],
		"cosmo_sigma_profile": { 
			"-0.025": 0.0,
			"-0.024": 0.0,
			"-0.023": 0.0,
			"-0.022": 0.0,
			"-0.021": 0.0,
			"-0.02": 0.0,
			"-0.019": 0.179753257982,
			"-0.018": 0.798689908218,
			"-0.017": 0.964141664566,
			"-0.016": 0.804516656551,
			"-0.015": 0.838895356402,
			"-0.014": 0.667395241613,
			"-0.013": 0.195396473416,
			"-0.012": 0.84323999792,
			"-0.011": 1.00977999229,
			"-0.01": 0.568535537864,
			"-0.009": 0.315825099219,
			"-0.008": 3.57477704186,
			"-0.007": 15.4030569839,
			"-0.006": 20.3618036345,
			"-0.005": 19.2867154765,
			"-0.004": 16.417770119,
			"-0.003": 19.9066092458,
			"-0.002": 19.2921398635,
			"-0.001": 20.7759312858,
			"0.0": 22.7624883252,
			"0.001": 23.0918652102,
			"0.002": 28.0205966336,
			"0.003": 26.0203687645,
			"0.004": 9.98355577585,
			"0.005": 7.55998700444,
			"0.006": 7.54173734836,
			"0.007": 7.30207613915,
			"0.008": 6.89705578918,
			"0.009": 7.43510816512,
			"0.01": 5.66622494505,
			"0.011": 6.08768367902,
			"0.012": 3.26800761805,
			"0.013": 1.60237487863,
			"0.014": 0.135225940736,
			"0.015": 0.0,
			"0.016": 0.0,
			"0.017": 0.0,
			"0.018": 0.0,
			"0.019": 0.0,
			"0.02": 0.0,
			"0.021": 0.0,
			"0.022": 0.0,
			"0.023": 0.0,
			"0.024": 0.0,
			"0.025": 0.0
		}
	}
}
