{
	 "smiles": "CC1=C(SC(=N1)C1=CC=CC=C1)C(=O)NN", 
	 "Tm": 442.15, 
	 "num_atms": 27, 
	 "gaussian": { 
		 "optdone": 1, 
		 "sigma_profile": "yes", 
		 "theory": "DFT", 
		 "functional": "B3LYP", 
		 "basiset": "6-31G**", 
		 "properties": { 
			 "R2extent": 6884.4795, 
			 "electric_dipole_moment_norm": 2.75732649681, 
			 "electric_quadrupole_moment_norm": 10.4163458598, 
			 "total_energy": -1063.45586909, 
			 "HOMO_LUMO_gap": 0.15681, 
			 "cosmo_polarized_energy": -12.76, 
			 "cosmo_cavitation_energy": 32.86, 
			 "cosmo_dispersion_energy": -24.73, 
			 "cosmo_repulsion_energy": 1.89, 
			 "cosmo_total_nonelectrostatic_energy": 10.01, 
			 "SMD_solvation_energy": 5.15 
		},
		"coords": [
			{
				"x": -0.1193430307,
				"y": 0.3974688492,
				"z": 1.6047021831,
				"element": "C" 
			},
			{
				"x": -0.5146253618,
				"y": 0.6497053785,
				"z": 0.1805812313,
				"element": "C" 
			},
			{
				"x": -0.6627645075,
				"y": 1.8783585968,
				"z": -0.4359131204,
				"element": "C" 
			},
			{
				"x": -1.1494705504,
				"y": 1.6419307636,
				"z": -2.1032983737,
				"element": "S" 
			},
			{
				"x": -1.0897230191,
				"y": -0.0992208634,
				"z": -1.8447247032,
				"element": "C" 
			},
			{
				"x": -0.7535638112,
				"y": -0.4350443539,
				"z": -0.625676242,
				"element": "N" 
			},
			{
				"x": -1.4081728977,
				"y": -1.0669034974,
				"z": -2.9019552904,
				"element": "C" 
			},
			{
				"x": -1.3847089466,
				"y": -2.4393693488,
				"z": -2.5946247241,
				"element": "C" 
			},
			{
				"x": -1.6808692014,
				"y": -3.3828511119,
				"z": -3.5737358335,
				"element": "C" 
			},
			{
				"x": -2.0050207077,
				"y": -2.9759859526,
				"z": -4.8709120886,
				"element": "C" 
			},
			{
				"x": -2.0301306683,
				"y": -1.6151082961,
				"z": -5.1841561671,
				"element": "C" 
			},
			{
				"x": -1.7331926267,
				"y": -0.666693826,
				"z": -4.20843158,
				"element": "C" 
			},
			{
				"x": -0.4574434474,
				"y": 3.2212339087,
				"z": 0.1538850073,
				"element": "C" 
			},
			{
				"x": -0.4230174496,
				"y": 3.4304494788,
				"z": 1.3652618177,
				"element": "O" 
			},
			{
				"x": -0.3112491207,
				"y": 4.2528791853,
				"z": -0.7497064844,
				"element": "N" 
			},
			{
				"x": 0.0262506234,
				"y": 5.5446020983,
				"z": -0.2909806927,
				"element": "N" 
			},
			{
				"x": -0.9448426516,
				"y": -0.0920237826,
				"z": 2.1337793325,
				"element": "H" 
			},
			{
				"x": 0.7329353943,
				"y": -0.2891394528,
				"z": 1.6349713526,
				"element": "H" 
			},
			{
				"x": 0.1215636241,
				"y": 1.3261940038,
				"z": 2.1178746898,
				"element": "H" 
			},
			{
				"x": -1.1326097711,
				"y": -2.7400625553,
				"z": -1.5839854275,
				"element": "H" 
			},
			{
				"x": -1.6597988375,
				"y": -4.4397388891,
				"z": -3.324482018,
				"element": "H" 
			},
			{
				"x": -2.2361889626,
				"y": -3.7143886702,
				"z": -5.6330029584,
				"element": "H" 
			},
			{
				"x": -2.280006695,
				"y": -1.2912752888,
				"z": -6.1900659973,
				"element": "H" 
			},
			{
				"x": -1.7533500219,
				"y": 0.3883793821,
				"z": -4.4676489362,
				"element": "H" 
			},
			{
				"x": 0.029489347,
				"y": 4.0510080832,
				"z": -1.6799093151,
				"element": "H" 
			},
			{
				"x": -0.8403734259,
				"y": 6.0001763096,
				"z": -0.0066454505,
				"element": "H" 
			},
			{
				"x": 0.5589267236,
				"y": 5.4187198512,
				"z": 0.5714997887,
				"element": "H" 
			}
		],
		 "valence_orbital": [ 
			{
				"type": "occ",
				"energy": -0.27904,
				"method": "rhf"
			},
			{
				"type": "occ",
				"energy": -0.26482,
				"method": "rhf"
			},
			{
				"type": "occ",
				"energy": -0.2622,
				"method": "rhf"
			},
			{
				"type": "occ",
				"energy": -0.25676,
				"method": "rhf"
			},
			{
				"type": "occ",
				"energy": -0.22755,
				"method": "rhf"
			},
			{
				"type": "unocc",
				"energy": -0.07074,
				"method": "rhf"
			},
			{
				"type": "unocc",
				"energy": -0.01456,
				"method": "rhf"
			},
			{
				"type": "unocc",
				"energy": -0.00872,
				"method": "rhf"
			},
			{
				"type": "unocc",
				"energy": 0.00791,
				"method": "rhf"
			},
			{
				"type": "unocc",
				"energy": 0.04299,
				"method": "rhf"
			}
		],
		"cosmo_sigma_profile": { 
			"-0.025": 0.0,
			"-0.024": 0.0,
			"-0.023": 0.0,
			"-0.022": 0.0,
			"-0.021": 0.0,
			"-0.02": 0.0,
			"-0.019": 0.0,
			"-0.018": 0.0,
			"-0.017": 0.0,
			"-0.016": 0.0,
			"-0.015": 0.00668508950723,
			"-0.014": 0.5195623921,
			"-0.013": 1.05493325775,
			"-0.012": 1.06726037811,
			"-0.011": 2.56795911919,
			"-0.01": 3.7320738627,
			"-0.009": 3.33496341901,
			"-0.008": 2.66995351683,
			"-0.007": 5.71842216788,
			"-0.006": 11.5464994979,
			"-0.005": 16.6243264577,
			"-0.004": 17.6511191816,
			"-0.003": 14.9587936071,
			"-0.002": 16.6275695429,
			"-0.001": 22.4457639056,
			"0.0": 29.9454148292,
			"0.001": 22.0680255081,
			"0.002": 20.1541534202,
			"0.003": 17.3835987025,
			"0.004": 17.4986710707,
			"0.005": 7.91318288106,
			"0.006": 3.45941340079,
			"0.007": 3.90374474979,
			"0.008": 2.94614925857,
			"0.009": 2.55322987812,
			"0.01": 3.56197042715,
			"0.011": 3.80930484473,
			"0.012": 3.4257603512,
			"0.013": 3.52702627317,
			"0.014": 0.436768038702,
			"0.015": 0.651221531552,
			"0.016": 0.591350869041,
			"0.017": 0.184472518607,
			"0.018": 0.0,
			"0.019": 0.0,
			"0.02": 0.0,
			"0.021": 0.0,
			"0.022": 0.0,
			"0.023": 0.0,
			"0.024": 0.0,
			"0.025": 0.0
		}
	}
}
