{
	 "smiles": "CN1C=C(C=N1)C(=O)NC1CCNCC1", 
	 "Tm": 478.15, 
	 "num_atms": 31, 
	 "gaussian": { 
		 "optdone": 1, 
		 "sigma_profile": "yes", 
		 "theory": "DFT", 
		 "functional": "B3LYP", 
		 "basiset": "6-31G**", 
		 "properties": { 
			 "R2extent": 5652.7437, 
			 "electric_dipole_moment_norm": 6.2157910655, 
			 "electric_quadrupole_moment_norm": 13.6924931021, 
			 "total_energy": -684.920947678, 
			 "HOMO_LUMO_gap": 0.20231, 
			 "cosmo_polarized_energy": -21.35, 
			 "cosmo_cavitation_energy": 33.39, 
			 "cosmo_dispersion_energy": -24.15, 
			 "cosmo_repulsion_energy": 1.91, 
			 "cosmo_total_nonelectrostatic_energy": 11.14, 
			 "SMD_solvation_energy": 2.31 
		},
		"coords": [
			{
				"x": 3.874061343,
				"y": 1.6501507086,
				"z": 1.1205740851,
				"element": "C" 
			},
			{
				"x": 2.6179102012,
				"y": 2.1315269877,
				"z": 0.5764139077,
				"element": "N" 
			},
			{
				"x": 1.6366131548,
				"y": 1.4164946086,
				"z": -0.0255592926,
				"element": "C" 
			},
			{
				"x": 0.6603687749,
				"y": 2.32387639,
				"z": -0.4205138398,
				"element": "C" 
			},
			{
				"x": 1.1732517622,
				"y": 3.5772944403,
				"z": -0.0049661079,
				"element": "C" 
			},
			{
				"x": 2.3506400689,
				"y": 3.4603778516,
				"z": 0.5988410253,
				"element": "N" 
			},
			{
				"x": -0.626410762,
				"y": 2.1301689525,
				"z": -1.1270840513,
				"element": "C" 
			},
			{
				"x": -1.2449157872,
				"y": 3.0772773633,
				"z": -1.6091981624,
				"element": "O" 
			},
			{
				"x": -1.0734808628,
				"y": 0.8350763425,
				"z": -1.2292273862,
				"element": "N" 
			},
			{
				"x": -2.3574430833,
				"y": 0.5162690887,
				"z": -1.8510089096,
				"element": "C" 
			},
			{
				"x": -2.3309256374,
				"y": -0.9420783749,
				"z": -2.363966314,
				"element": "C" 
			},
			{
				"x": -3.7523790263,
				"y": -1.5205741716,
				"z": -2.4015902405,
				"element": "C" 
			},
			{
				"x": -4.4044467325,
				"y": -1.5560532359,
				"z": -1.0809236191,
				"element": "N" 
			},
			{
				"x": -3.9316918979,
				"y": -0.5266747559,
				"z": -0.1392732092,
				"element": "C" 
			},
			{
				"x": -3.5683991017,
				"y": 0.7453141462,
				"z": -0.9045502528,
				"element": "C" 
			},
			{
				"x": 3.9929353571,
				"y": 2.0136371611,
				"z": 2.143653971,
				"element": "H" 
			},
			{
				"x": 4.7134667704,
				"y": 2.0076255661,
				"z": 0.5174944233,
				"element": "H" 
			},
			{
				"x": 3.867564652,
				"y": 0.55887365,
				"z": 1.1213948821,
				"element": "H" 
			},
			{
				"x": 1.7199406774,
				"y": 0.3455739118,
				"z": -0.1467780386,
				"element": "H" 
			},
			{
				"x": 0.7069015173,
				"y": 4.5440975838,
				"z": -0.1304204325,
				"element": "H" 
			},
			{
				"x": -0.6536720379,
				"y": 0.1352682654,
				"z": -0.6346659716,
				"element": "H" 
			},
			{
				"x": -2.453339537,
				"y": 1.2083693208,
				"z": -2.6911961276,
				"element": "H" 
			},
			{
				"x": -1.7207903547,
				"y": -1.5613536913,
				"z": -1.6900764921,
				"element": "H" 
			},
			{
				"x": -1.8547392101,
				"y": -0.9925981353,
				"z": -3.3491709726,
				"element": "H" 
			},
			{
				"x": -4.3610190219,
				"y": -0.9202211674,
				"z": -3.0930029694,
				"element": "H" 
			},
			{
				"x": -3.7434925966,
				"y": -2.5356597044,
				"z": -2.8114230473,
				"element": "H" 
			},
			{
				"x": -4.2902920459,
				"y": -2.4749485238,
				"z": -0.667050253,
				"element": "H" 
			},
			{
				"x": -3.0493342499,
				"y": -0.851145105,
				"z": 0.4444248168,
				"element": "H" 
			},
			{
				"x": -4.7235844355,
				"y": -0.3208477106,
				"z": 0.5914273162,
				"element": "H" 
			},
			{
				"x": -4.4363328566,
				"y": 1.0567905209,
				"z": -1.4972526367,
				"element": "H" 
			},
			{
				"x": -3.3435650418,
				"y": 1.5675917161,
				"z": -0.2206261007,
				"element": "H" 
			}
		],
		 "valence_orbital": [ 
			{
				"type": "occ",
				"energy": -0.2595,
				"method": "rhf"
			},
			{
				"type": "occ",
				"energy": -0.25215,
				"method": "rhf"
			},
			{
				"type": "occ",
				"energy": -0.24417,
				"method": "rhf"
			},
			{
				"type": "occ",
				"energy": -0.2384,
				"method": "rhf"
			},
			{
				"type": "occ",
				"energy": -0.21185,
				"method": "rhf"
			},
			{
				"type": "unocc",
				"energy": -0.00954,
				"method": "rhf"
			},
			{
				"type": "unocc",
				"energy": 0.02158,
				"method": "rhf"
			},
			{
				"type": "unocc",
				"energy": 0.06189,
				"method": "rhf"
			},
			{
				"type": "unocc",
				"energy": 0.08171,
				"method": "rhf"
			},
			{
				"type": "unocc",
				"energy": 0.08941,
				"method": "rhf"
			}
		],
		"cosmo_sigma_profile": { 
			"-0.025": 0.0,
			"-0.024": 0.0,
			"-0.023": 0.0,
			"-0.022": 0.0,
			"-0.021": 0.0,
			"-0.02": 0.0,
			"-0.019": 0.0,
			"-0.018": 0.0,
			"-0.017": 0.0,
			"-0.016": 0.0,
			"-0.015": 0.0,
			"-0.014": 0.130830236672,
			"-0.013": 1.23482952054,
			"-0.012": 1.40656789464,
			"-0.011": 2.03728172496,
			"-0.01": 3.74845682128,
			"-0.009": 5.36635848832,
			"-0.008": 5.69046560171,
			"-0.007": 6.91667029031,
			"-0.006": 11.6491174221,
			"-0.005": 11.5561247293,
			"-0.004": 16.7157988763,
			"-0.003": 31.3309731281,
			"-0.002": 26.4038577259,
			"-0.001": 23.7846269207,
			"0.0": 19.9647466549,
			"0.001": 12.3822413371,
			"0.002": 12.2002018569,
			"0.003": 11.3956851541,
			"0.004": 8.9078758647,
			"0.005": 5.71242795897,
			"0.006": 4.95455927548,
			"0.007": 3.77362433741,
			"0.008": 4.21064175745,
			"0.009": 4.31896494694,
			"0.01": 3.10992039444,
			"0.011": 2.73521076573,
			"0.012": 3.59320536601,
			"0.013": 4.21538680071,
			"0.014": 6.93490293947,
			"0.015": 2.69290492752,
			"0.016": 0.773051833716,
			"0.017": 0.665767651406,
			"0.018": 0.462825405213,
			"0.019": 0.352485814644,
			"0.02": 0.0139569982783,
			"0.021": 0.0,
			"0.022": 0.0,
			"0.023": 0.0,
			"0.024": 0.0,
			"0.025": 0.0
		}
	}
}
