{
	 "smiles": "CCC(C)(CNC(=O)OC(C)(C)C)C(O)=O", 
	 "Tm": 387.15, 
	 "num_atms": 37, 
	 "gaussian": { 
		 "optdone": 1, 
		 "sigma_profile": "yes", 
		 "theory": "DFT", 
		 "functional": "B3LYP", 
		 "basiset": "6-31G**", 
		 "properties": { 
			 "R2extent": 4958.2925, 
			 "electric_dipole_moment_norm": 2.50191183897, 
			 "electric_quadrupole_moment_norm": 13.4766384399, 
			 "total_energy": -787.540136503, 
			 "HOMO_LUMO_gap": 0.24501, 
			 "cosmo_polarized_energy": -14.04, 
			 "cosmo_cavitation_energy": 38.0, 
			 "cosmo_dispersion_energy": -25.25, 
			 "cosmo_repulsion_energy": 1.99, 
			 "cosmo_total_nonelectrostatic_energy": 14.74, 
			 "SMD_solvation_energy": 8.28 
		},
		"coords": [
			{
				"x": -0.0149891557,
				"y": -1.2630179217,
				"z": 4.1047614162,
				"element": "C" 
			},
			{
				"x": 0.7107763122,
				"y": -1.6797495521,
				"z": 2.8190050225,
				"element": "C" 
			},
			{
				"x": 1.2406957873,
				"y": -0.5285331754,
				"z": 1.913197092,
				"element": "C" 
			},
			{
				"x": 2.0132667498,
				"y": -1.1474387765,
				"z": 0.7300417079,
				"element": "C" 
			},
			{
				"x": 0.0589649064,
				"y": 0.334498707,
				"z": 1.4029275543,
				"element": "C" 
			},
			{
				"x": 0.4385057117,
				"y": 1.4236480858,
				"z": 0.5192924675,
				"element": "N" 
			},
			{
				"x": 0.2278221451,
				"y": 1.5295796238,
				"z": -0.8276435675,
				"element": "C" 
			},
			{
				"x": 0.5558262739,
				"y": 2.5139353597,
				"z": -1.4728337435,
				"element": "O" 
			},
			{
				"x": -0.3748389474,
				"y": 0.4180253847,
				"z": -1.320285005,
				"element": "O" 
			},
			{
				"x": -0.7240617685,
				"y": 0.3219833234,
				"z": -2.7457314986,
				"element": "C" 
			},
			{
				"x": -1.3774362166,
				"y": -1.0597815564,
				"z": -2.8362505324,
				"element": "C" 
			},
			{
				"x": 0.5447189738,
				"y": 0.3795295064,
				"z": -3.6034193788,
				"element": "C" 
			},
			{
				"x": -1.7258618669,
				"y": 1.420705908,
				"z": -3.1173161416,
				"element": "C" 
			},
			{
				"x": 2.2426718355,
				"y": 0.2741014741,
				"z": 2.748350084,
				"element": "C" 
			},
			{
				"x": 1.8411873128,
				"y": 1.5454945763,
				"z": 3.0247702077,
				"element": "O" 
			},
			{
				"x": 3.2958193708,
				"y": -0.1583552212,
				"z": 3.1616633424,
				"element": "O" 
			},
			{
				"x": -0.2937122773,
				"y": -2.1506929313,
				"z": 4.6811238307,
				"element": "H" 
			},
			{
				"x": -0.9337634915,
				"y": -0.7032028288,
				"z": 3.905834728,
				"element": "H" 
			},
			{
				"x": 0.6214478872,
				"y": -0.6452710268,
				"z": 4.7473025406,
				"element": "H" 
			},
			{
				"x": 1.5692732632,
				"y": -2.3067684144,
				"z": 3.0814289852,
				"element": "H" 
			},
			{
				"x": 0.0454423117,
				"y": -2.2990422811,
				"z": 2.2041168066,
				"element": "H" 
			},
			{
				"x": 1.3525771008,
				"y": -1.8049818446,
				"z": 0.1571259133,
				"element": "H" 
			},
			{
				"x": 2.3888434499,
				"y": -0.3745277482,
				"z": 0.0546103827,
				"element": "H" 
			},
			{
				"x": 2.8636592968,
				"y": -1.7271649883,
				"z": 1.09540717,
				"element": "H" 
			},
			{
				"x": -0.6262063446,
				"y": -0.3144500751,
				"z": 0.8556905013,
				"element": "H" 
			},
			{
				"x": -0.4872333579,
				"y": 0.753696125,
				"z": 2.2527290177,
				"element": "H" 
			},
			{
				"x": 0.8820495318,
				"y": 2.2316227001,
				"z": 0.9294374231,
				"element": "H" 
			},
			{
				"x": -2.258613678,
				"y": -1.1142511287,
				"z": -2.190037367,
				"element": "H" 
			},
			{
				"x": -0.6751082241,
				"y": -1.8407394144,
				"z": -2.5298151888,
				"element": "H" 
			},
			{
				"x": -1.6902563346,
				"y": -1.2610771196,
				"z": -3.8651158761,
				"element": "H" 
			},
			{
				"x": 1.0246075696,
				"y": 1.3547640414,
				"z": -3.5218089447,
				"element": "H" 
			},
			{
				"x": 0.2886192107,
				"y": 0.1952117691,
				"z": -4.6519502992,
				"element": "H" 
			},
			{
				"x": 1.2525748456,
				"y": -0.3930825526,
				"z": -3.2863717797,
				"element": "H" 
			},
			{
				"x": -2.600658871,
				"y": 1.3746942123,
				"z": -2.4606758115,
				"element": "H" 
			},
			{
				"x": -2.0667338891,
				"y": 1.2742614916,
				"z": -4.1474884068,
				"element": "H" 
			},
			{
				"x": -1.2703090905,
				"y": 2.4072881215,
				"z": -3.0319491082,
				"element": "H" 
			},
			{
				"x": 2.550633667,
				"y": 1.9358881468,
				"z": 3.5638764556,
				"element": "H" 
			}
		],
		 "valence_orbital": [ 
			{
				"type": "occ",
				"energy": -0.32155,
				"method": "rhf"
			},
			{
				"type": "occ",
				"energy": -0.28458,
				"method": "rhf"
			},
			{
				"type": "occ",
				"energy": -0.27889,
				"method": "rhf"
			},
			{
				"type": "occ",
				"energy": -0.25603,
				"method": "rhf"
			},
			{
				"type": "occ",
				"energy": -0.24442,
				"method": "rhf"
			},
			{
				"type": "unocc",
				"energy": 0.00059,
				"method": "rhf"
			},
			{
				"type": "unocc",
				"energy": 0.05952,
				"method": "rhf"
			},
			{
				"type": "unocc",
				"energy": 0.06506,
				"method": "rhf"
			},
			{
				"type": "unocc",
				"energy": 0.07823,
				"method": "rhf"
			},
			{
				"type": "unocc",
				"energy": 0.0931,
				"method": "rhf"
			}
		],
		"cosmo_sigma_profile": { 
			"-0.025": 0.0,
			"-0.024": 0.0,
			"-0.023": 0.0,
			"-0.022": 0.0,
			"-0.021": 0.0,
			"-0.02": 0.0,
			"-0.019": 0.0353388030842,
			"-0.018": 0.649392025934,
			"-0.017": 0.868452509161,
			"-0.016": 1.17047848512,
			"-0.015": 0.694844889945,
			"-0.014": 0.782258814981,
			"-0.013": 0.496680044771,
			"-0.012": 0.276318024741,
			"-0.011": 1.23332795672,
			"-0.01": 1.62237063762,
			"-0.009": 0.859664202224,
			"-0.008": 1.31366823169,
			"-0.007": 1.83978731583,
			"-0.006": 1.42974795514,
			"-0.005": 5.80874601221,
			"-0.004": 20.6204246166,
			"-0.003": 37.3225070579,
			"-0.002": 36.5101566516,
			"-0.001": 35.6167619542,
			"0.0": 43.1915969091,
			"0.001": 34.8425312523,
			"0.002": 11.7593995709,
			"0.003": 8.66050297102,
			"0.004": 7.3742148369,
			"0.005": 6.08579816211,
			"0.006": 3.50117053395,
			"0.007": 3.46381241878,
			"0.008": 3.41587231739,
			"0.009": 2.61119585384,
			"0.01": 2.43794918713,
			"0.011": 5.0469060888,
			"0.012": 5.9212752976,
			"0.013": 2.76121709196,
			"0.014": 3.46596477743,
			"0.015": 0.372718701148,
			"0.016": 0.0,
			"0.017": 0.0,
			"0.018": 0.0,
			"0.019": 0.0,
			"0.02": 0.0,
			"0.021": 0.0,
			"0.022": 0.0,
			"0.023": 0.0,
			"0.024": 0.0,
			"0.025": 0.0
		}
	}
}
