{
	 "smiles": "ClC1=C(Br)N=CC=C1", 
	 "Tm": 333.15, 
	 "num_atms": 11, 
	 "gaussian": { 
		 "optdone": 1, 
		 "sigma_profile": "yes", 
		 "theory": "DFT", 
		 "functional": "B3LYP", 
		 "basiset": "6-31G**", 
		 "properties": { 
			 "R2extent": 3141.4598, 
			 "electric_dipole_moment_norm": 3.29933365848, 
			 "electric_quadrupole_moment_norm": 6.67953708875, 
			 "total_energy": -3278.67481248, 
			 "HOMO_LUMO_gap": 0.20967, 
			 "cosmo_polarized_energy": -6.44, 
			 "cosmo_cavitation_energy": 19.45, 
			 "cosmo_dispersion_energy": -15.25, 
			 "cosmo_repulsion_energy": 1.26, 
			 "cosmo_total_nonelectrostatic_energy": 5.46, 
			 "SMD_solvation_energy": 0.76 
		},
		"coords": [
			{
				"x": -2.6491795167,
				"y": 0.5445140672,
				"z": -0.2468461389,
				"element": "Cl" 
			},
			{
				"x": -0.9597191619,
				"y": 0.9686910078,
				"z": -0.2263082614,
				"element": "C" 
			},
			{
				"x": -0.4795715644,
				"y": 2.154463874,
				"z": 0.3566219641,
				"element": "C" 
			},
			{
				"x": -1.6801651956,
				"y": 3.3954660061,
				"z": 1.1775349921,
				"element": "Br" 
			},
			{
				"x": 0.7995716965,
				"y": 2.4784057426,
				"z": 0.3738329761,
				"element": "N" 
			},
			{
				"x": 1.6860917891,
				"y": 1.6469210683,
				"z": -0.186356213,
				"element": "C" 
			},
			{
				"x": 1.3180124423,
				"y": 0.4473075502,
				"z": -0.7907581329,
				"element": "C" 
			},
			{
				"x": -0.032680752,
				"y": 0.1052320628,
				"z": -0.8088876519,
				"element": "C" 
			},
			{
				"x": 2.7262236777,
				"y": 1.9604298989,
				"z": -0.1452495696,
				"element": "H" 
			},
			{
				"x": 2.0634188714,
				"y": -0.2033388821,
				"z": -1.2355701544,
				"element": "H" 
			},
			{
				"x": -0.3761022862,
				"y": -0.8165923958,
				"z": -1.2658138103,
				"element": "H" 
			}
		],
		 "valence_orbital": [ 
			{
				"type": "occ",
				"energy": -0.32931,
				"method": "rhf"
			},
			{
				"type": "occ",
				"energy": -0.29216,
				"method": "rhf"
			},
			{
				"type": "occ",
				"energy": -0.29137,
				"method": "rhf"
			},
			{
				"type": "occ",
				"energy": -0.27619,
				"method": "rhf"
			},
			{
				"type": "occ",
				"energy": -0.25834,
				"method": "rhf"
			},
			{
				"type": "unocc",
				"energy": -0.04867,
				"method": "rhf"
			},
			{
				"type": "unocc",
				"energy": -0.03721,
				"method": "rhf"
			},
			{
				"type": "unocc",
				"energy": -0.00917,
				"method": "rhf"
			},
			{
				"type": "unocc",
				"energy": 0.03921,
				"method": "rhf"
			},
			{
				"type": "unocc",
				"energy": 0.09904,
				"method": "rhf"
			}
		],
		"cosmo_sigma_profile": { 
			"-0.025": 0.0,
			"-0.024": 0.0,
			"-0.023": 0.0,
			"-0.022": 0.0,
			"-0.021": 0.0,
			"-0.02": 0.0,
			"-0.019": 0.0,
			"-0.018": 0.0,
			"-0.017": 0.0,
			"-0.016": 0.0,
			"-0.015": 0.0,
			"-0.014": 0.0,
			"-0.013": 0.0,
			"-0.012": 0.0,
			"-0.011": 0.0,
			"-0.01": 0.060894265347,
			"-0.009": 1.70254453303,
			"-0.008": 6.43947873348,
			"-0.007": 7.44099770319,
			"-0.006": 6.3441267159,
			"-0.005": 5.32421209954,
			"-0.004": 6.12257529037,
			"-0.003": 6.83782554968,
			"-0.002": 12.8356480591,
			"-0.001": 18.61983539,
			"0.0": 17.0362259107,
			"0.001": 14.0390553616,
			"0.002": 11.3480290354,
			"0.003": 14.7987891459,
			"0.004": 16.710094104,
			"0.005": 6.82261045896,
			"0.006": 1.8186668741,
			"0.007": 2.04613396519,
			"0.008": 1.15713968493,
			"0.009": 1.57680921511,
			"0.01": 0.829798183894,
			"0.011": 0.747845196233,
			"0.012": 1.11244407759,
			"0.013": 0.848440962368,
			"0.014": 0.115510722393,
			"0.015": 0.0,
			"0.016": 0.0,
			"0.017": 0.0,
			"0.018": 0.0,
			"0.019": 0.0,
			"0.02": 0.0,
			"0.021": 0.0,
			"0.022": 0.0,
			"0.023": 0.0,
			"0.024": 0.0,
			"0.025": 0.0
		}
	}
}
