{
	 "smiles": "OC1=CC(C=C(/C#N)C2=NC3=C(N2)C=CC=C3)=CC=C1", 
	 "Tm": 573.15, 
	 "num_atms": 31, 
	 "gaussian": { 
		 "optdone": 1, 
		 "sigma_profile": "yes", 
		 "theory": "DFT", 
		 "functional": "B3LYP", 
		 "basiset": "6-31G**", 
		 "properties": { 
			 "R2extent": 8941.8695, 
			 "electric_dipole_moment_norm": 0.199752396732, 
			 "electric_quadrupole_moment_norm": 11.9893832936, 
			 "total_energy": -855.79895163, 
			 "HOMO_LUMO_gap": 0.12463, 
			 "cosmo_polarized_energy": -16.81, 
			 "cosmo_cavitation_energy": 37.18, 
			 "cosmo_dispersion_energy": -26.75, 
			 "cosmo_repulsion_energy": 2.0, 
			 "cosmo_total_nonelectrostatic_energy": 12.44, 
			 "SMD_solvation_energy": 5.52 
		},
		"coords": [
			{
				"x": 0.5343791039,
				"y": 2.2835432773,
				"z": 6.6447227205,
				"element": "O" 
			},
			{
				"x": 1.1500166194,
				"y": 2.2203453683,
				"z": 5.4303661735,
				"element": "C" 
			},
			{
				"x": 0.608026287,
				"y": 1.5253020311,
				"z": 4.3511787733,
				"element": "C" 
			},
			{
				"x": 1.2846923097,
				"y": 1.4901953107,
				"z": 3.1137475435,
				"element": "C" 
			},
			{
				"x": 0.8063891832,
				"y": 0.7959314193,
				"z": 1.9291839361,
				"element": "C" 
			},
			{
				"x": -0.3171728345,
				"y": 0.0570018491,
				"z": 1.7006255046,
				"element": "C" 
			},
			{
				"x": -1.3339458286,
				"y": -0.2001484615,
				"z": 2.6732415419,
				"element": "C" 
			},
			{
				"x": -2.2033733523,
				"y": -0.4546555714,
				"z": 3.4065279855,
				"element": "N" 
			},
			{
				"x": -0.5513626531,
				"y": -0.5411573343,
				"z": 0.3800399034,
				"element": "C" 
			},
			{
				"x": 0.2541374971,
				"y": -0.4294915913,
				"z": -0.6556190664,
				"element": "N" 
			},
			{
				"x": -0.359411519,
				"y": -1.1429909186,
				"z": -1.668325227,
				"element": "C" 
			},
			{
				"x": -1.5815785838,
				"y": -1.7007576662,
				"z": -1.2107887756,
				"element": "C" 
			},
			{
				"x": -1.6753866706,
				"y": -1.2960972948,
				"z": 0.1069786154,
				"element": "N" 
			},
			{
				"x": -2.4095056754,
				"y": -2.4720571748,
				"z": -2.0289312979,
				"element": "C" 
			},
			{
				"x": -1.9792651698,
				"y": -2.6757659111,
				"z": -3.3371622083,
				"element": "C" 
			},
			{
				"x": -0.7672616437,
				"y": -2.1294103809,
				"z": -3.8103635583,
				"element": "C" 
			},
			{
				"x": 0.0524985548,
				"y": -1.3624750804,
				"z": -2.9908637124,
				"element": "C" 
			},
			{
				"x": 2.5141617493,
				"y": 2.1709069015,
				"z": 2.9967500754,
				"element": "C" 
			},
			{
				"x": 3.0462824203,
				"y": 2.8625000259,
				"z": 4.0827657211,
				"element": "C" 
			},
			{
				"x": 2.3742377557,
				"y": 2.8935935629,
				"z": 5.3009898948,
				"element": "C" 
			},
			{
				"x": -0.292868739,
				"y": 1.7846983255,
				"z": 6.6121215577,
				"element": "H" 
			},
			{
				"x": -0.3393278322,
				"y": 1.0132892139,
				"z": 4.4777609145,
				"element": "H" 
			},
			{
				"x": 1.4523036579,
				"y": 0.870557419,
				"z": 1.0573093512,
				"element": "H" 
			},
			{
				"x": -2.4174763116,
				"y": -1.5039868548,
				"z": 0.7592315081,
				"element": "H" 
			},
			{
				"x": -3.3425432894,
				"y": -2.8938297362,
				"z": -1.6680192676,
				"element": "H" 
			},
			{
				"x": -2.5912564111,
				"y": -3.2694453626,
				"z": -4.0095419492,
				"element": "H" 
			},
			{
				"x": -0.4726013075,
				"y": -2.3151164565,
				"z": -4.8388918796,
				"element": "H" 
			},
			{
				"x": 0.98529712,
				"y": -0.9400638723,
				"z": -3.3497093535,
				"element": "H" 
			},
			{
				"x": 3.0442533754,
				"y": 2.1511618643,
				"z": 2.0496320551,
				"element": "H" 
			},
			{
				"x": 3.9937985024,
				"y": 3.3826420131,
				"z": 3.98014122,
				"element": "H" 
			},
			{
				"x": 2.7721636854,
				"y": 3.426481086,
				"z": 6.1580013001,
				"element": "H" 
			}
		],
		 "valence_orbital": [ 
			{
				"type": "occ",
				"energy": -0.28063,
				"method": "rhf"
			},
			{
				"type": "occ",
				"energy": -0.26311,
				"method": "rhf"
			},
			{
				"type": "occ",
				"energy": -0.23913,
				"method": "rhf"
			},
			{
				"type": "occ",
				"energy": -0.23187,
				"method": "rhf"
			},
			{
				"type": "occ",
				"energy": -0.21374,
				"method": "rhf"
			},
			{
				"type": "unocc",
				"energy": -0.08911,
				"method": "rhf"
			},
			{
				"type": "unocc",
				"energy": -0.01259,
				"method": "rhf"
			},
			{
				"type": "unocc",
				"energy": -0.00279,
				"method": "rhf"
			},
			{
				"type": "unocc",
				"energy": 0.01204,
				"method": "rhf"
			},
			{
				"type": "unocc",
				"energy": 0.01512,
				"method": "rhf"
			}
		],
		"cosmo_sigma_profile": { 
			"-0.025": 0.0,
			"-0.024": 0.0,
			"-0.023": 0.0,
			"-0.022": 0.0,
			"-0.021": 0.0,
			"-0.02": 0.0,
			"-0.019": 0.0740946319385,
			"-0.018": 0.709336351922,
			"-0.017": 1.45514068702,
			"-0.016": 1.7079937811,
			"-0.015": 1.31607630002,
			"-0.014": 2.1750414609,
			"-0.013": 2.08423981587,
			"-0.012": 1.76979595998,
			"-0.011": 1.44844421748,
			"-0.01": 2.41489935129,
			"-0.009": 2.63212816975,
			"-0.008": 4.25389353633,
			"-0.007": 7.91425511973,
			"-0.006": 14.1366749319,
			"-0.005": 17.3227085922,
			"-0.004": 17.2193261669,
			"-0.003": 16.6843968398,
			"-0.002": 19.3408802788,
			"-0.001": 18.9942069468,
			"0.0": 22.1376016207,
			"0.001": 20.341315791,
			"0.002": 22.1894294086,
			"0.003": 24.4657234252,
			"0.004": 21.8116243782,
			"0.005": 14.468436492,
			"0.006": 10.3885737394,
			"0.007": 5.07123198567,
			"0.008": 5.3331393706,
			"0.009": 4.76787962507,
			"0.01": 5.21015149674,
			"0.011": 4.87064398254,
			"0.012": 3.67495054949,
			"0.013": 0.996902261177,
			"0.014": 0.923749605644,
			"0.015": 0.237594932105,
			"0.016": 0.0,
			"0.017": 0.0,
			"0.018": 0.0,
			"0.019": 0.0,
			"0.02": 0.0,
			"0.021": 0.0,
			"0.022": 0.0,
			"0.023": 0.0,
			"0.024": 0.0,
			"0.025": 0.0
		}
	}
}
