{
	 "smiles": "O=C1NC(=O)N(CC2=CC=CC=C2)C(=O)C1C1=CC=CC=C1", 
	 "Tm": 437.15, 
	 "num_atms": 36, 
	 "gaussian": { 
		 "optdone": 1, 
		 "sigma_profile": "yes", 
		 "theory": "DFT", 
		 "functional": "B3LYP", 
		 "basiset": "6-31G**", 
		 "properties": { 
			 "R2extent": 7447.1592, 
			 "electric_dipole_moment_norm": 1.23316742172, 
			 "electric_quadrupole_moment_norm": 16.4857116537, 
			 "total_energy": -991.473375752, 
			 "HOMO_LUMO_gap": 0.19695, 
			 "cosmo_polarized_energy": -16.75, 
			 "cosmo_cavitation_energy": 40.44, 
			 "cosmo_dispersion_energy": -28.06, 
			 "cosmo_repulsion_energy": 2.13, 
			 "cosmo_total_nonelectrostatic_energy": 14.51, 
			 "SMD_solvation_energy": 8.32 
		},
		"coords": [
			{
				"x": 0.7498137983,
				"y": -2.1099427008,
				"z": 3.2154838338,
				"element": "O" 
			},
			{
				"x": 0.6674040049,
				"y": -1.5615893498,
				"z": 2.1362607679,
				"element": "C" 
			},
			{
				"x": 0.9977694863,
				"y": -2.2198580488,
				"z": 0.9598581382,
				"element": "N" 
			},
			{
				"x": 0.7982692716,
				"y": -1.7930347205,
				"z": -0.3523186214,
				"element": "C" 
			},
			{
				"x": 1.1324139586,
				"y": -2.4896154142,
				"z": -1.2925274023,
				"element": "O" 
			},
			{
				"x": 0.1878954666,
				"y": -0.5458342882,
				"z": -0.5080323215,
				"element": "N" 
			},
			{
				"x": -0.1388429683,
				"y": -0.1207274427,
				"z": -1.8948888705,
				"element": "C" 
			},
			{
				"x": -1.4751360528,
				"y": -0.6388055624,
				"z": -2.3887737903,
				"element": "C" 
			},
			{
				"x": -2.6497260288,
				"y": 0.0883318544,
				"z": -2.1508981486,
				"element": "C" 
			},
			{
				"x": -3.8784515739,
				"y": -0.3861562706,
				"z": -2.6113195751,
				"element": "C" 
			},
			{
				"x": -3.9466224111,
				"y": -1.5909840534,
				"z": -3.3141669942,
				"element": "C" 
			},
			{
				"x": -2.7806399707,
				"y": -2.3203887263,
				"z": -3.5542776782,
				"element": "C" 
			},
			{
				"x": -1.5508142548,
				"y": -1.8472121203,
				"z": -3.0943536352,
				"element": "C" 
			},
			{
				"x": -0.2200596515,
				"y": 0.2688203246,
				"z": 0.5487733281,
				"element": "C" 
			},
			{
				"x": -0.8745558872,
				"y": 1.2773074758,
				"z": 0.3608629505,
				"element": "O" 
			},
			{
				"x": 0.2487765681,
				"y": -0.1115810283,
				"z": 1.9553514104,
				"element": "C" 
			},
			{
				"x": 1.3644702164,
				"y": 0.847871314,
				"z": 2.3838274728,
				"element": "C" 
			},
			{
				"x": 2.6862600193,
				"y": 0.6635709048,
				"z": 1.9591473545,
				"element": "C" 
			},
			{
				"x": 3.6792030776,
				"y": 1.5680366346,
				"z": 2.3359122402,
				"element": "C" 
			},
			{
				"x": 3.3605282136,
				"y": 2.6685319664,
				"z": 3.133223435,
				"element": "C" 
			},
			{
				"x": 2.0433460207,
				"y": 2.8598250813,
				"z": 3.5529295819,
				"element": "C" 
			},
			{
				"x": 1.0498559678,
				"y": 1.9545565823,
				"z": 3.1792301821,
				"element": "C" 
			},
			{
				"x": 1.3393235044,
				"y": -3.1704627821,
				"z": 1.0451167045,
				"element": "H" 
			},
			{
				"x": 0.6726171077,
				"y": -0.4840057033,
				"z": -2.5249410445,
				"element": "H" 
			},
			{
				"x": -0.1288367339,
				"y": 0.9689160304,
				"z": -1.8808673514,
				"element": "H" 
			},
			{
				"x": -2.5934538701,
				"y": 1.0205070752,
				"z": -1.5972091537,
				"element": "H" 
			},
			{
				"x": -4.7821853549,
				"y": 0.1868772429,
				"z": -2.4237958544,
				"element": "H" 
			},
			{
				"x": -4.9033307115,
				"y": -1.9582146146,
				"z": -3.6748941956,
				"element": "H" 
			},
			{
				"x": -2.8270671992,
				"y": -3.2572110791,
				"z": -4.1023949179,
				"element": "H" 
			},
			{
				"x": -0.6436497602,
				"y": -2.4165732867,
				"z": -3.2722645977,
				"element": "H" 
			},
			{
				"x": -0.6082141311,
				"y": 0.0497450734,
				"z": 2.6138703334,
				"element": "H" 
			},
			{
				"x": 2.9502532004,
				"y": -0.1904023025,
				"z": 1.3415584781,
				"element": "H" 
			},
			{
				"x": 4.7017705023,
				"y": 1.4108779237,
				"z": 2.0056431803,
				"element": "H" 
			},
			{
				"x": 4.1344650086,
				"y": 3.3715179251,
				"z": 3.4266739879,
				"element": "H" 
			},
			{
				"x": 1.7864605094,
				"y": 3.7130622867,
				"z": 4.1737341527,
				"element": "H" 
			},
			{
				"x": 0.024990657,
				"y": 2.1083437991,
				"z": 3.5032666204,
				"element": "H" 
			}
		],
		 "valence_orbital": [ 
			{
				"type": "occ",
				"energy": -0.2727,
				"method": "rhf"
			},
			{
				"type": "occ",
				"energy": -0.26215,
				"method": "rhf"
			},
			{
				"type": "occ",
				"energy": -0.25455,
				"method": "rhf"
			},
			{
				"type": "occ",
				"energy": -0.24949,
				"method": "rhf"
			},
			{
				"type": "occ",
				"energy": -0.24726,
				"method": "rhf"
			},
			{
				"type": "unocc",
				"energy": -0.05031,
				"method": "rhf"
			},
			{
				"type": "unocc",
				"energy": -0.02537,
				"method": "rhf"
			},
			{
				"type": "unocc",
				"energy": -0.01612,
				"method": "rhf"
			},
			{
				"type": "unocc",
				"energy": -0.00807,
				"method": "rhf"
			},
			{
				"type": "unocc",
				"energy": -0.00127,
				"method": "rhf"
			}
		],
		"cosmo_sigma_profile": { 
			"-0.025": 0.0,
			"-0.024": 0.0,
			"-0.023": 0.0,
			"-0.022": 0.0,
			"-0.021": 0.0,
			"-0.02": 0.0,
			"-0.019": 0.0,
			"-0.018": 0.0,
			"-0.017": 0.322958365687,
			"-0.016": 0.859534050018,
			"-0.015": 1.11652159799,
			"-0.014": 0.788464548371,
			"-0.013": 0.566439439146,
			"-0.012": 0.537554145141,
			"-0.011": 1.72101765408,
			"-0.01": 2.01665112337,
			"-0.009": 4.24649209326,
			"-0.008": 4.02425674018,
			"-0.007": 6.88212198957,
			"-0.006": 19.0044223698,
			"-0.005": 27.2407371456,
			"-0.004": 30.016186457,
			"-0.003": 27.6524236291,
			"-0.002": 17.7536897823,
			"-0.001": 15.2945181365,
			"0.0": 18.115800573,
			"0.001": 16.3609418289,
			"0.002": 17.2101618216,
			"0.003": 20.8150666922,
			"0.004": 25.032946634,
			"0.005": 21.3824554816,
			"0.006": 8.6581669171,
			"0.007": 4.95200270223,
			"0.008": 4.45195629716,
			"0.009": 4.88691078676,
			"0.01": 6.77402970966,
			"0.011": 10.6833437117,
			"0.012": 4.13828656735,
			"0.013": 0.0848330346102,
			"0.014": 0.0,
			"0.015": 0.0,
			"0.016": 0.0,
			"0.017": 0.0,
			"0.018": 0.0,
			"0.019": 0.0,
			"0.02": 0.0,
			"0.021": 0.0,
			"0.022": 0.0,
			"0.023": 0.0,
			"0.024": 0.0,
			"0.025": 0.0
		}
	}
}
