{
	 "smiles": "CCOC(=O)C1=C2C=C3C(C=C2N=C1C)=NC(C)=C3C(=O)OCC", 
	 "Tm": 615.15, 
	 "num_atms": 42, 
	 "gaussian": { 
		 "optdone": 1, 
		 "sigma_profile": "yes", 
		 "theory": "DFT", 
		 "functional": "B3LYP", 
		 "basiset": "6-31G**", 
		 "properties": { 
			 "R2extent": 10006.3769, 
			 "electric_dipole_moment_norm": 4.85308178583, 
			 "electric_quadrupole_moment_norm": 7.05867220658, 
			 "total_energy": -1107.1535644, 
			 "HOMO_LUMO_gap": 0.07462, 
			 "cosmo_polarized_energy": -13.85, 
			 "cosmo_cavitation_energy": 46.54, 
			 "cosmo_dispersion_energy": -32.23, 
			 "cosmo_repulsion_energy": 2.46, 
			 "cosmo_total_nonelectrostatic_energy": 16.77, 
			 "SMD_solvation_energy": 6.02 
		},
		"coords": [
			{
				"x": 4.5936378368,
				"y": -2.0735700636,
				"z": 1.7304203896,
				"element": "C" 
			},
			{
				"x": 4.1633156747,
				"y": -0.7414909751,
				"z": 2.3255750019,
				"element": "C" 
			},
			{
				"x": 3.6236966171,
				"y": 0.1412952595,
				"z": 1.3089651404,
				"element": "O" 
			},
			{
				"x": 2.3161216438,
				"y": -0.0140914989,
				"z": 1.0068427594,
				"element": "C" 
			},
			{
				"x": 1.593161569,
				"y": -0.8371862837,
				"z": 1.5408815098,
				"element": "O" 
			},
			{
				"x": 1.8688061398,
				"y": 0.9304327671,
				"z": -0.0387297101,
				"element": "C" 
			},
			{
				"x": 0.5925784001,
				"y": 0.9962340371,
				"z": -0.5411664104,
				"element": "C" 
			},
			{
				"x": -0.619382824,
				"y": 0.2491614714,
				"z": -0.2541650977,
				"element": "C" 
			},
			{
				"x": -1.7298899924,
				"y": 0.5891535937,
				"z": -0.958644154,
				"element": "C" 
			},
			{
				"x": -1.6908070231,
				"y": 1.6652361802,
				"z": -1.9599919046,
				"element": "C" 
			},
			{
				"x": -0.4789388788,
				"y": 2.4098050839,
				"z": -2.2447697383,
				"element": "C" 
			},
			{
				"x": 0.6263611363,
				"y": 2.0656321073,
				"z": -1.5389432825,
				"element": "C" 
			},
			{
				"x": 1.914042991,
				"y": 2.6291469019,
				"z": -1.626864347,
				"element": "N" 
			},
			{
				"x": 2.6504438518,
				"y": 1.9865283452,
				"z": -0.7661256099,
				"element": "C" 
			},
			{
				"x": 4.0952433947,
				"y": 2.3121997926,
				"z": -0.5738431084,
				"element": "C" 
			},
			{
				"x": -2.8529451225,
				"y": 1.8506819216,
				"z": -2.5348547073,
				"element": "N" 
			},
			{
				"x": -3.744281818,
				"y": 0.9082075993,
				"z": -1.9524630097,
				"element": "C" 
			},
			{
				"x": -5.1530611573,
				"y": 0.9019663043,
				"z": -2.4317777398,
				"element": "C" 
			},
			{
				"x": -3.1232059119,
				"y": 0.1278130672,
				"z": -1.0032748083,
				"element": "C" 
			},
			{
				"x": -3.7472704163,
				"y": -0.9395976985,
				"z": -0.2113865981,
				"element": "C" 
			},
			{
				"x": -4.9144707404,
				"y": -1.287295165,
				"z": -0.2804914767,
				"element": "O" 
			},
			{
				"x": -2.8523571567,
				"y": -1.519108541,
				"z": 0.6305781586,
				"element": "O" 
			},
			{
				"x": -3.3516508179,
				"y": -2.5863651301,
				"z": 1.4706590625,
				"element": "C" 
			},
			{
				"x": -3.982317158,
				"y": -2.0413128254,
				"z": 2.743600344,
				"element": "C" 
			},
			{
				"x": 5.316197929,
				"y": -1.9253412578,
				"z": 0.922608189,
				"element": "H" 
			},
			{
				"x": 3.7305622257,
				"y": -2.6180500653,
				"z": 1.3402998993,
				"element": "H" 
			},
			{
				"x": 5.0655594497,
				"y": -2.6875958132,
				"z": 2.5045183657,
				"element": "H" 
			},
			{
				"x": 5.0130625409,
				"y": -0.1901988367,
				"z": 2.7342975491,
				"element": "H" 
			},
			{
				"x": 3.4095487216,
				"y": -0.8803202826,
				"z": 3.1037735273,
				"element": "H" 
			},
			{
				"x": -0.6064408079,
				"y": -0.534486897,
				"z": 0.4914933739,
				"element": "H" 
			},
			{
				"x": -0.4825238664,
				"y": 3.1979676804,
				"z": -2.9898415149,
				"element": "H" 
			},
			{
				"x": 4.3700616506,
				"y": 3.1243283781,
				"z": -1.2485034502,
				"element": "H" 
			},
			{
				"x": 4.7251894118,
				"y": 1.4390106177,
				"z": -0.7719923668,
				"element": "H" 
			},
			{
				"x": 4.2968966745,
				"y": 2.6087219165,
				"z": 0.4606783992,
				"element": "H" 
			},
			{
				"x": -5.7425449042,
				"y": 0.1464042885,
				"z": -1.9158297192,
				"element": "H" 
			},
			{
				"x": -5.1740581473,
				"y": 0.7176994736,
				"z": -3.5128210248,
				"element": "H" 
			},
			{
				"x": -5.5986962763,
				"y": 1.8925619666,
				"z": -2.2799502517,
				"element": "H" 
			},
			{
				"x": -4.0690879227,
				"y": -3.178473374,
				"z": 0.8979720178,
				"element": "H" 
			},
			{
				"x": -2.4695674026,
				"y": -3.1930211669,
				"z": 1.6889300777,
				"element": "H" 
			},
			{
				"x": -4.2812707078,
				"y": -2.8702173576,
				"z": 3.394024849,
				"element": "H" 
			},
			{
				"x": -3.2735388417,
				"y": -1.4133448214,
				"z": 3.2914348428,
				"element": "H" 
			},
			{
				"x": -4.871679965,
				"y": -1.4517207,
				"z": 2.5086765735,
				"element": "H" 
			}
		],
		 "valence_orbital": [ 
			{
				"type": "occ",
				"energy": -0.27862,
				"method": "rhf"
			},
			{
				"type": "occ",
				"energy": -0.27237,
				"method": "rhf"
			},
			{
				"type": "occ",
				"energy": -0.26964,
				"method": "rhf"
			},
			{
				"type": "occ",
				"energy": -0.25751,
				"method": "rhf"
			},
			{
				"type": "occ",
				"energy": -0.21992,
				"method": "rhf"
			},
			{
				"type": "unocc",
				"energy": -0.1453,
				"method": "rhf"
			},
			{
				"type": "unocc",
				"energy": -0.03615,
				"method": "rhf"
			},
			{
				"type": "unocc",
				"energy": -0.02244,
				"method": "rhf"
			},
			{
				"type": "unocc",
				"energy": 0.0009,
				"method": "rhf"
			},
			{
				"type": "unocc",
				"energy": 0.04594,
				"method": "rhf"
			}
		],
		"cosmo_sigma_profile": { 
			"-0.025": 0.0,
			"-0.024": 0.0,
			"-0.023": 0.0,
			"-0.022": 0.0,
			"-0.021": 0.0,
			"-0.02": 0.0,
			"-0.019": 0.0,
			"-0.018": 0.0,
			"-0.017": 0.0,
			"-0.016": 0.0,
			"-0.015": 0.0,
			"-0.014": 0.0,
			"-0.013": 0.0,
			"-0.012": 0.0,
			"-0.011": 0.0,
			"-0.01": 0.0,
			"-0.009": 0.835160835681,
			"-0.008": 1.36244301253,
			"-0.007": 1.58725173802,
			"-0.006": 6.90387645379,
			"-0.005": 20.4292152982,
			"-0.004": 34.9960937323,
			"-0.003": 39.5764169774,
			"-0.002": 49.3158891848,
			"-0.001": 53.1528853446,
			"0.0": 48.8253701396,
			"0.001": 26.0201572489,
			"0.002": 15.9171015522,
			"0.003": 12.1090861944,
			"0.004": 9.33737904065,
			"0.005": 6.09064622534,
			"0.006": 6.2380521072,
			"0.007": 5.6698836232,
			"0.008": 4.95541904304,
			"0.009": 5.42825729491,
			"0.01": 5.32502309175,
			"0.011": 6.547936525,
			"0.012": 4.33727296222,
			"0.013": 2.31141156254,
			"0.014": 1.36620193137,
			"0.015": 1.19357388466,
			"0.016": 0.865106283954,
			"0.017": 0.045140019578,
			"0.018": 0.0,
			"0.019": 0.0,
			"0.02": 0.0,
			"0.021": 0.0,
			"0.022": 0.0,
			"0.023": 0.0,
			"0.024": 0.0,
			"0.025": 0.0
		}
	}
}
