{
	 "smiles": "CCNC1=NC(=NC(Cl)=N1)N(CC)CC", 
	 "Tm": 375.15, 
	 "num_atms": 31, 
	 "gaussian": { 
		 "optdone": 1, 
		 "sigma_profile": "yes", 
		 "theory": "DFT", 
		 "functional": "B3LYP", 
		 "basiset": "6-31G**", 
		 "properties": { 
			 "R2extent": 5326.896, 
			 "electric_dipole_moment_norm": 4.57409983713, 
			 "electric_quadrupole_moment_norm": 19.7344863951, 
			 "total_energy": -1086.60227846, 
			 "HOMO_LUMO_gap": 0.21386, 
			 "cosmo_polarized_energy": -10.64, 
			 "cosmo_cavitation_energy": 35.74, 
			 "cosmo_dispersion_energy": -24.7, 
			 "cosmo_repulsion_energy": 2.0, 
			 "cosmo_total_nonelectrostatic_energy": 13.04, 
			 "SMD_solvation_energy": 2.78 
		},
		"coords": [
			{
				"x": -2.0433070671,
				"y": 1.180843083,
				"z": -3.2122964936,
				"element": "C" 
			},
			{
				"x": -1.4624060268,
				"y": -0.1807784722,
				"z": -3.6080255789,
				"element": "C" 
			},
			{
				"x": -0.0081455074,
				"y": -0.2243260036,
				"z": -3.5728287839,
				"element": "N" 
			},
			{
				"x": 0.7336361655,
				"y": -0.5161367085,
				"z": -2.4792585834,
				"element": "C" 
			},
			{
				"x": 0.1132117272,
				"y": -0.8870504123,
				"z": -1.3523893022,
				"element": "N" 
			},
			{
				"x": 0.9374545689,
				"y": -1.1962688618,
				"z": -0.3311038826,
				"element": "C" 
			},
			{
				"x": 2.2952366899,
				"y": -1.1273358645,
				"z": -0.3852537042,
				"element": "N" 
			},
			{
				"x": 2.7506974148,
				"y": -0.7234649866,
				"z": -1.5555217334,
				"element": "C" 
			},
			{
				"x": 4.5051789415,
				"y": -0.5963424464,
				"z": -1.6805950136,
				"element": "Cl" 
			},
			{
				"x": 2.0805382052,
				"y": -0.4054015941,
				"z": -2.6444350772,
				"element": "N" 
			},
			{
				"x": 0.3864518934,
				"y": -1.6022969339,
				"z": 0.8391446277,
				"element": "N" 
			},
			{
				"x": -1.0643076058,
				"y": -1.752122517,
				"z": 0.9762452552,
				"element": "C" 
			},
			{
				"x": -1.7573060673,
				"y": -0.4731869657,
				"z": 1.4553054115,
				"element": "C" 
			},
			{
				"x": 1.2276589718,
				"y": -1.9128169536,
				"z": 2.0008792044,
				"element": "C" 
			},
			{
				"x": 1.6797559252,
				"y": -3.3749969343,
				"z": 2.0398007588,
				"element": "C" 
			},
			{
				"x": -1.6855726251,
				"y": 1.9735024671,
				"z": -3.8776562812,
				"element": "H" 
			},
			{
				"x": -3.1370581777,
				"y": 1.1597120534,
				"z": -3.2665970216,
				"element": "H" 
			},
			{
				"x": -1.7543406076,
				"y": 1.4354910524,
				"z": -2.1888443852,
				"element": "H" 
			},
			{
				"x": -1.7760711992,
				"y": -0.4489023811,
				"z": -4.6227678763,
				"element": "H" 
			},
			{
				"x": -1.8305976248,
				"y": -0.9567795521,
				"z": -2.9334459392,
				"element": "H" 
			},
			{
				"x": 0.5243355776,
				"y": 0.1163328023,
				"z": -4.3600235973,
				"element": "H" 
			},
			{
				"x": -1.470117211,
				"y": -2.056726166,
				"z": 0.0103767874,
				"element": "H" 
			},
			{
				"x": -1.2407225583,
				"y": -2.5693954634,
				"z": 1.6840779075,
				"element": "H" 
			},
			{
				"x": -1.6168788811,
				"y": 0.3290116211,
				"z": 0.726062263,
				"element": "H" 
			},
			{
				"x": -2.8321347394,
				"y": -0.6454811877,
				"z": 1.5766532817,
				"element": "H" 
			},
			{
				"x": -1.3582045923,
				"y": -0.1380117637,
				"z": 2.4183142314,
				"element": "H" 
			},
			{
				"x": 0.644369485,
				"y": -1.6675388058,
				"z": 2.8951279182,
				"element": "H" 
			},
			{
				"x": 2.0978704965,
				"y": -1.2557367016,
				"z": 1.9795889738,
				"element": "H" 
			},
			{
				"x": 2.3065853801,
				"y": -3.5984682504,
				"z": 1.1727813223,
				"element": "H" 
			},
			{
				"x": 2.2648509948,
				"y": -3.5662614711,
				"z": 2.9455860697,
				"element": "H" 
			},
			{
				"x": 0.8253380535,
				"y": -4.0602656822,
				"z": 2.0383992414,
				"element": "H" 
			}
		],
		 "valence_orbital": [ 
			{
				"type": "occ",
				"energy": -0.28528,
				"method": "rhf"
			},
			{
				"type": "occ",
				"energy": -0.26434,
				"method": "rhf"
			},
			{
				"type": "occ",
				"energy": -0.26058,
				"method": "rhf"
			},
			{
				"type": "occ",
				"energy": -0.23938,
				"method": "rhf"
			},
			{
				"type": "occ",
				"energy": -0.22774,
				"method": "rhf"
			},
			{
				"type": "unocc",
				"energy": -0.01388,
				"method": "rhf"
			},
			{
				"type": "unocc",
				"energy": 0.00373,
				"method": "rhf"
			},
			{
				"type": "unocc",
				"energy": 0.04893,
				"method": "rhf"
			},
			{
				"type": "unocc",
				"energy": 0.0788,
				"method": "rhf"
			},
			{
				"type": "unocc",
				"energy": 0.08696,
				"method": "rhf"
			}
		],
		"cosmo_sigma_profile": { 
			"-0.025": 0.0,
			"-0.024": 0.0,
			"-0.023": 0.0,
			"-0.022": 0.0,
			"-0.021": 0.0,
			"-0.02": 0.0,
			"-0.019": 0.0,
			"-0.018": 0.0,
			"-0.017": 0.0,
			"-0.016": 0.0,
			"-0.015": 0.00952645142881,
			"-0.014": 0.696581382434,
			"-0.013": 1.07716187682,
			"-0.012": 0.78703770442,
			"-0.011": 1.06073466344,
			"-0.01": 1.05865938118,
			"-0.009": 0.427437438957,
			"-0.008": 0.999579411314,
			"-0.007": 1.49477653165,
			"-0.006": 2.08893935228,
			"-0.005": 9.45309094668,
			"-0.004": 18.7257397101,
			"-0.003": 31.3338685473,
			"-0.002": 35.5847462141,
			"-0.001": 31.4923011661,
			"0.0": 35.3108098378,
			"0.001": 35.957221789,
			"0.002": 13.7645027597,
			"0.003": 12.209146242,
			"0.004": 14.0478877102,
			"0.005": 10.8679987808,
			"0.006": 7.38626175076,
			"0.007": 4.17090042979,
			"0.008": 3.77706703078,
			"0.009": 2.93520333766,
			"0.01": 2.36844195662,
			"0.011": 1.83836648958,
			"0.012": 0.787722134354,
			"0.013": 0.944351774941,
			"0.014": 0.424155445904,
			"0.015": 0.0,
			"0.016": 0.0,
			"0.017": 0.0,
			"0.018": 0.0,
			"0.019": 0.0,
			"0.02": 0.0,
			"0.021": 0.0,
			"0.022": 0.0,
			"0.023": 0.0,
			"0.024": 0.0,
			"0.025": 0.0
		}
	}
}
