{
	 "smiles": "CC1=CC=CC(=C1O)N(=O)=O", 
	 "Tm": 343.15, 
	 "num_atms": 18, 
	 "gaussian": { 
		 "optdone": 1, 
		 "sigma_profile": "yes", 
		 "theory": "DFT", 
		 "functional": "B3LYP", 
		 "basiset": "6-31G**", 
		 "properties": { 
			 "R2extent": 1743.5896, 
			 "electric_dipole_moment_norm": 3.7021076416, 
			 "electric_quadrupole_moment_norm": 5.38131582608, 
			 "total_energy": -551.300026527, 
			 "HOMO_LUMO_gap": 0.1457, 
			 "cosmo_polarized_energy": -7.11, 
			 "cosmo_cavitation_energy": 22.17, 
			 "cosmo_dispersion_energy": -16.82, 
			 "cosmo_repulsion_energy": 1.34, 
			 "cosmo_total_nonelectrostatic_energy": 6.69, 
			 "SMD_solvation_energy": 6.3 
		},
		"coords": [
			{
				"x": -0.1290995485,
				"y": 2.8401928759,
				"z": 1.1945987997,
				"element": "C" 
			},
			{
				"x": 0.4880268775,
				"y": 1.5591419451,
				"z": 0.6978674201,
				"element": "C" 
			},
			{
				"x": 1.7070786704,
				"y": 1.0838440413,
				"z": 1.1647563393,
				"element": "C" 
			},
			{
				"x": 2.2765026974,
				"y": -0.1136005251,
				"z": 0.6956193669,
				"element": "C" 
			},
			{
				"x": 1.6138689973,
				"y": -0.8546988257,
				"z": -0.2623228116,
				"element": "C" 
			},
			{
				"x": 0.3793196922,
				"y": -0.3972199605,
				"z": -0.7520186294,
				"element": "C" 
			},
			{
				"x": -0.200809738,
				"y": 0.8073690633,
				"z": -0.2849247788,
				"element": "C" 
			},
			{
				"x": -1.3722452717,
				"y": 1.2849063221,
				"z": -0.7191648996,
				"element": "O" 
			},
			{
				"x": -0.2908439586,
				"y": -1.1942189753,
				"z": -1.7544679017,
				"element": "N" 
			},
			{
				"x": -1.39465963,
				"y": -0.7907009229,
				"z": -2.1963401988,
				"element": "O" 
			},
			{
				"x": 0.2305721661,
				"y": -2.2326762744,
				"z": -2.1436551501,
				"element": "O" 
			},
			{
				"x": -0.2830859332,
				"y": 3.5483556202,
				"z": 0.3734492702,
				"element": "H" 
			},
			{
				"x": 0.5073737605,
				"y": 3.3128492239,
				"z": 1.9464725346,
				"element": "H" 
			},
			{
				"x": -1.1143504443,
				"y": 2.6580104902,
				"z": 1.6368502728,
				"element": "H" 
			},
			{
				"x": 2.2338560186,
				"y": 1.6626677082,
				"z": 1.9190101505,
				"element": "H" 
			},
			{
				"x": 3.2306339582,
				"y": -0.4525558046,
				"z": 1.0843293982,
				"element": "H" 
			},
			{
				"x": 2.0120260218,
				"y": -1.7820896506,
				"z": -0.6538514383,
				"element": "H" 
			},
			{
				"x": -1.6995643358,
				"y": 0.6369236487,
				"z": -1.3913077439,
				"element": "H" 
			}
		],
		 "valence_orbital": [ 
			{
				"type": "occ",
				"energy": -0.32094,
				"method": "rhf"
			},
			{
				"type": "occ",
				"energy": -0.31709,
				"method": "rhf"
			},
			{
				"type": "occ",
				"energy": -0.30326,
				"method": "rhf"
			},
			{
				"type": "occ",
				"energy": -0.27709,
				"method": "rhf"
			},
			{
				"type": "occ",
				"energy": -0.2427,
				"method": "rhf"
			},
			{
				"type": "unocc",
				"energy": -0.097,
				"method": "rhf"
			},
			{
				"type": "unocc",
				"energy": -0.01375,
				"method": "rhf"
			},
			{
				"type": "unocc",
				"energy": 0.00185,
				"method": "rhf"
			},
			{
				"type": "unocc",
				"energy": 0.08198,
				"method": "rhf"
			},
			{
				"type": "unocc",
				"energy": 0.1022,
				"method": "rhf"
			}
		],
		"cosmo_sigma_profile": { 
			"-0.025": 0.0,
			"-0.024": 0.0,
			"-0.023": 0.0,
			"-0.022": 0.0,
			"-0.021": 0.0,
			"-0.02": 0.0,
			"-0.019": 0.0,
			"-0.018": 0.0,
			"-0.017": 0.0,
			"-0.016": 0.0,
			"-0.015": 0.0,
			"-0.014": 0.0,
			"-0.013": 0.0,
			"-0.012": 0.0,
			"-0.011": 0.0,
			"-0.01": 0.280958934279,
			"-0.009": 0.527650865126,
			"-0.008": 0.600217135837,
			"-0.007": 6.85570918006,
			"-0.006": 11.1137363732,
			"-0.005": 11.9133061501,
			"-0.004": 12.7124131616,
			"-0.003": 13.5398332694,
			"-0.002": 11.8834499273,
			"-0.001": 17.5028967509,
			"0.0": 19.1388069034,
			"0.001": 13.169388968,
			"0.002": 11.8184035769,
			"0.003": 9.60310605459,
			"0.004": 4.50331046189,
			"0.005": 4.56177104398,
			"0.006": 5.40429357997,
			"0.007": 7.8235335695,
			"0.008": 6.32192361658,
			"0.009": 5.61561470129,
			"0.01": 2.29661052551,
			"0.011": 0.0389103305417,
			"0.012": 0.0,
			"0.013": 0.0,
			"0.014": 0.0,
			"0.015": 0.0,
			"0.016": 0.0,
			"0.017": 0.0,
			"0.018": 0.0,
			"0.019": 0.0,
			"0.02": 0.0,
			"0.021": 0.0,
			"0.022": 0.0,
			"0.023": 0.0,
			"0.024": 0.0,
			"0.025": 0.0
		}
	}
}
