{
	 "smiles": "CN(C)C1=C(C)N(C)N(C1=O)C1=CC=CC=C1", 
	 "Tm": 407.15, 
	 "num_atms": 34, 
	 "gaussian": { 
		 "optdone": 1, 
		 "sigma_profile": "yes", 
		 "theory": "DFT", 
		 "functional": "B3LYP", 
		 "basiset": "6-31G**", 
		 "properties": { 
			 "R2extent": 4761.2056, 
			 "electric_dipole_moment_norm": 4.05027302907, 
			 "electric_quadrupole_moment_norm": 6.40732830203, 
			 "total_energy": -745.073784917, 
			 "HOMO_LUMO_gap": 0.18504, 
			 "cosmo_polarized_energy": -12.76, 
			 "cosmo_cavitation_energy": 36.11, 
			 "cosmo_dispersion_energy": -24.99, 
			 "cosmo_repulsion_energy": 1.95, 
			 "cosmo_total_nonelectrostatic_energy": 13.08, 
			 "SMD_solvation_energy": 6.22 
		},
		"coords": [
			{
				"x": 0.3270640292,
				"y": 1.3806539577,
				"z": 3.3187725649,
				"element": "C" 
			},
			{
				"x": 1.058750766,
				"y": 1.973938052,
				"z": 2.1923821196,
				"element": "N" 
			},
			{
				"x": 2.5121616706,
				"y": 1.8144896719,
				"z": 2.342135798,
				"element": "C" 
			},
			{
				"x": 0.5831678109,
				"y": 1.5229047824,
				"z": 0.9343986572,
				"element": "C" 
			},
			{
				"x": -0.0054634585,
				"y": 2.2931929456,
				"z": -0.0202113588,
				"element": "C" 
			},
			{
				"x": -0.3642112897,
				"y": 3.7388123738,
				"z": 0.0663960729,
				"element": "C" 
			},
			{
				"x": -0.2604245856,
				"y": 1.5490774794,
				"z": -1.1745194002,
				"element": "N" 
			},
			{
				"x": -1.5857750144,
				"y": 1.6772031414,
				"z": -1.7981587751,
				"element": "C" 
			},
			{
				"x": 0.0853407607,
				"y": 0.2102244225,
				"z": -0.8630860166,
				"element": "N" 
			},
			{
				"x": 0.6786108675,
				"y": 0.1532149897,
				"z": 0.4240558441,
				"element": "C" 
			},
			{
				"x": 1.1708789715,
				"y": -0.8510595837,
				"z": 0.9274390292,
				"element": "O" 
			},
			{
				"x": 0.384897429,
				"y": -0.6855514178,
				"z": -1.9210847786,
				"element": "C" 
			},
			{
				"x": 0.3557414484,
				"y": -2.0653113351,
				"z": -1.6700982813,
				"element": "C" 
			},
			{
				"x": 0.6508259913,
				"y": -2.9558061645,
				"z": -2.7004908095,
				"element": "C" 
			},
			{
				"x": 0.9539506115,
				"y": -2.4924921721,
				"z": -3.9829080891,
				"element": "C" 
			},
			{
				"x": 0.9787398939,
				"y": -1.1187656924,
				"z": -4.226220194,
				"element": "C" 
			},
			{
				"x": 0.7065870878,
				"y": -0.2126024549,
				"z": -3.2012683602,
				"element": "C" 
			},
			{
				"x": 0.477720161,
				"y": 0.2939164186,
				"z": 3.4057469849,
				"element": "H" 
			},
			{
				"x": -0.7426496372,
				"y": 1.5761296432,
				"z": 3.2009174747,
				"element": "H" 
			},
			{
				"x": 0.6594433936,
				"y": 1.8549042952,
				"z": 4.2485754067,
				"element": "H" 
			},
			{
				"x": 2.8253572792,
				"y": 2.2842814845,
				"z": 3.280747669,
				"element": "H" 
			},
			{
				"x": 3.0190850048,
				"y": 2.3274105204,
				"z": 1.519901637,
				"element": "H" 
			},
			{
				"x": 2.8306421342,
				"y": 0.7618626222,
				"z": 2.3494193541,
				"element": "H" 
			},
			{
				"x": 0.0226094047,
				"y": 4.2997834019,
				"z": -0.7909364011,
				"element": "H" 
			},
			{
				"x": 0.0697173857,
				"y": 4.1383192101,
				"z": 0.9850033057,
				"element": "H" 
			},
			{
				"x": -1.4492401593,
				"y": 3.8927084267,
				"z": 0.1039835099,
				"element": "H" 
			},
			{
				"x": -1.6100179625,
				"y": 1.0782038664,
				"z": -2.7091053,
				"element": "H" 
			},
			{
				"x": -1.7408811621,
				"y": 2.7230451134,
				"z": -2.0680488481,
				"element": "H" 
			},
			{
				"x": -2.3879507695,
				"y": 1.3450024247,
				"z": -1.1260832697,
				"element": "H" 
			},
			{
				"x": 0.1258730527,
				"y": -2.4186136972,
				"z": -0.6735996067,
				"element": "H" 
			},
			{
				"x": 0.6339047332,
				"y": -4.0228590198,
				"z": -2.4979269542,
				"element": "H" 
			},
			{
				"x": 1.1716252191,
				"y": -3.1944403919,
				"z": -4.7822263687,
				"element": "H" 
			},
			{
				"x": 1.2246000663,
				"y": -0.7437220343,
				"z": -5.2157616787,
				"element": "H" 
			},
			{
				"x": 0.7620188662,
				"y": 0.8557447201,
				"z": -3.3783409375,
				"element": "H" 
			}
		],
		 "valence_orbital": [ 
			{
				"type": "occ",
				"energy": -0.25911,
				"method": "rhf"
			},
			{
				"type": "occ",
				"energy": -0.24679,
				"method": "rhf"
			},
			{
				"type": "occ",
				"energy": -0.23051,
				"method": "rhf"
			},
			{
				"type": "occ",
				"energy": -0.20703,
				"method": "rhf"
			},
			{
				"type": "occ",
				"energy": -0.20493,
				"method": "rhf"
			},
			{
				"type": "unocc",
				"energy": -0.01989,
				"method": "rhf"
			},
			{
				"type": "unocc",
				"energy": 0.00094,
				"method": "rhf"
			},
			{
				"type": "unocc",
				"energy": 0.012,
				"method": "rhf"
			},
			{
				"type": "unocc",
				"energy": 0.08144,
				"method": "rhf"
			},
			{
				"type": "unocc",
				"energy": 0.08889,
				"method": "rhf"
			}
		],
		"cosmo_sigma_profile": { 
			"-0.025": 0.0,
			"-0.024": 0.0,
			"-0.023": 0.0,
			"-0.022": 0.0,
			"-0.021": 0.0,
			"-0.02": 0.0,
			"-0.019": 0.0,
			"-0.018": 0.0,
			"-0.017": 0.0,
			"-0.016": 0.0,
			"-0.015": 0.0,
			"-0.014": 0.0,
			"-0.013": 0.0,
			"-0.012": 0.0,
			"-0.011": 0.0,
			"-0.01": 0.0,
			"-0.009": 0.0,
			"-0.008": 0.0,
			"-0.007": 0.686890377906,
			"-0.006": 10.0963128114,
			"-0.005": 21.2277353769,
			"-0.004": 30.4799653709,
			"-0.003": 30.3671936784,
			"-0.002": 28.4828954661,
			"-0.001": 32.0924384336,
			"0.0": 29.9013633222,
			"0.001": 19.9735833834,
			"0.002": 14.8611532177,
			"0.003": 12.7690938937,
			"0.004": 11.3469510711,
			"0.005": 13.2283349221,
			"0.006": 7.76645152536,
			"0.007": 3.62233532589,
			"0.008": 3.37431704135,
			"0.009": 1.63018231268,
			"0.01": 2.68990990128,
			"0.011": 2.54088393187,
			"0.012": 1.63069789796,
			"0.013": 2.51982638713,
			"0.014": 3.84634346621,
			"0.015": 0.138757221963,
			"0.016": 0.0,
			"0.017": 0.0,
			"0.018": 0.0,
			"0.019": 0.0,
			"0.02": 0.0,
			"0.021": 0.0,
			"0.022": 0.0,
			"0.023": 0.0,
			"0.024": 0.0,
			"0.025": 0.0
		}
	}
}
