{
	 "smiles": "CCNC1=NC(Cl)=NC(NC(C)(C)C#N)=N1", 
	 "Tm": 441.15, 
	 "num_atms": 29, 
	 "gaussian": { 
		 "optdone": 1, 
		 "sigma_profile": "yes", 
		 "theory": "DFT", 
		 "functional": "B3LYP", 
		 "basiset": "6-31G**", 
		 "properties": { 
			 "R2extent": 6885.8436, 
			 "electric_dipole_moment_norm": 5.75651745416, 
			 "electric_quadrupole_moment_norm": 17.6721787635, 
			 "total_energy": -1139.51825092, 
			 "HOMO_LUMO_gap": 0.21968, 
			 "cosmo_polarized_energy": -15.08, 
			 "cosmo_cavitation_energy": 35.46, 
			 "cosmo_dispersion_energy": -24.62, 
			 "cosmo_repulsion_energy": 2.0, 
			 "cosmo_total_nonelectrostatic_energy": 12.83, 
			 "SMD_solvation_energy": 3.72 
		},
		"coords": [
			{
				"x": -2.9113725275,
				"y": -1.3447201208,
				"z": 2.7176526464,
				"element": "C" 
			},
			{
				"x": -1.7902499869,
				"y": -2.3857934772,
				"z": 2.6513200071,
				"element": "C" 
			},
			{
				"x": -0.7773553368,
				"y": -2.083254722,
				"z": 1.6450187086,
				"element": "N" 
			},
			{
				"x": 0.3044027711,
				"y": -1.3021683025,
				"z": 1.8512752268,
				"element": "C" 
			},
			{
				"x": 0.5199707939,
				"y": -0.8369843992,
				"z": 3.1032826618,
				"element": "N" 
			},
			{
				"x": 1.6161832009,
				"y": -0.1030253335,
				"z": 3.2012468353,
				"element": "C" 
			},
			{
				"x": 1.9616334049,
				"y": 0.5305754754,
				"z": 4.8030205451,
				"element": "Cl" 
			},
			{
				"x": 2.4805492369,
				"y": 0.2194514355,
				"z": 2.2606861124,
				"element": "N" 
			},
			{
				"x": 2.1586138003,
				"y": -0.2980317864,
				"z": 1.0439381459,
				"element": "C" 
			},
			{
				"x": 3.0322480238,
				"y": 0.0217684812,
				"z": 0.0546077444,
				"element": "N" 
			},
			{
				"x": 2.9697056263,
				"y": -0.3845347028,
				"z": -1.3609997663,
				"element": "C" 
			},
			{
				"x": 3.0709801894,
				"y": -1.9201365367,
				"z": -1.5192204986,
				"element": "C" 
			},
			{
				"x": 1.7050807971,
				"y": 0.1703108254,
				"z": -2.0582122675,
				"element": "C" 
			},
			{
				"x": 4.1571291167,
				"y": 0.2261029115,
				"z": -2.0028060206,
				"element": "C" 
			},
			{
				"x": 5.0816364289,
				"y": 0.6963343099,
				"z": -2.5227897338,
				"element": "N" 
			},
			{
				"x": 1.0918101417,
				"y": -1.0592866717,
				"z": 0.7813427389,
				"element": "N" 
			},
			{
				"x": -2.5063370768,
				"y": -0.3662327132,
				"z": 2.9895317266,
				"element": "H" 
			},
			{
				"x": -3.650086139,
				"y": -1.6317996062,
				"z": 3.4731854822,
				"element": "H" 
			},
			{
				"x": -3.4275328632,
				"y": -1.2522362461,
				"z": 1.7562055428,
				"element": "H" 
			},
			{
				"x": -2.1966010062,
				"y": -3.3753116675,
				"z": 2.4167103619,
				"element": "H" 
			},
			{
				"x": -1.2834346985,
				"y": -2.4543471665,
				"z": 3.6156797091,
				"element": "H" 
			},
			{
				"x": -0.9351260398,
				"y": -2.3483385215,
				"z": 0.6839227321,
				"element": "H" 
			},
			{
				"x": 3.8032464222,
				"y": 0.5986642645,
				"z": 0.3595798238,
				"element": "H" 
			},
			{
				"x": 3.9852715367,
				"y": -2.2923141907,
				"z": -1.0510595657,
				"element": "H" 
			},
			{
				"x": 2.2078300129,
				"y": -2.3831416465,
				"z": -1.0398952107,
				"element": "H" 
			},
			{
				"x": 3.0843984033,
				"y": -2.1871708411,
				"z": -2.5792051977,
				"element": "H" 
			},
			{
				"x": 1.6651619477,
				"y": 1.2582359349,
				"z": -1.966388377,
				"element": "H" 
			},
			{
				"x": 1.7161616757,
				"y": -0.0934116895,
				"z": -3.1190411322,
				"element": "H" 
			},
			{
				"x": 0.8224821443,
				"y": -0.2628032966,
				"z": -1.586488981,
				"element": "H" 
			}
		],
		 "valence_orbital": [ 
			{
				"type": "occ",
				"energy": -0.29858,
				"method": "rhf"
			},
			{
				"type": "occ",
				"energy": -0.2794,
				"method": "rhf"
			},
			{
				"type": "occ",
				"energy": -0.27731,
				"method": "rhf"
			},
			{
				"type": "occ",
				"energy": -0.25984,
				"method": "rhf"
			},
			{
				"type": "occ",
				"energy": -0.24981,
				"method": "rhf"
			},
			{
				"type": "unocc",
				"energy": -0.03013,
				"method": "rhf"
			},
			{
				"type": "unocc",
				"energy": -0.01216,
				"method": "rhf"
			},
			{
				"type": "unocc",
				"energy": 0.0153,
				"method": "rhf"
			},
			{
				"type": "unocc",
				"energy": 0.0294,
				"method": "rhf"
			},
			{
				"type": "unocc",
				"energy": 0.03862,
				"method": "rhf"
			}
		],
		"cosmo_sigma_profile": { 
			"-0.025": 0.0,
			"-0.024": 0.0,
			"-0.023": 0.0,
			"-0.022": 0.0,
			"-0.021": 0.0,
			"-0.02": 0.0,
			"-0.019": 0.0,
			"-0.018": 0.0,
			"-0.017": 0.0,
			"-0.016": 0.0,
			"-0.015": 0.33972747938,
			"-0.014": 1.76555734722,
			"-0.013": 1.54929442926,
			"-0.012": 2.27197219076,
			"-0.011": 1.57490434378,
			"-0.01": 1.75490149726,
			"-0.009": 1.35246292389,
			"-0.008": 3.12362079899,
			"-0.007": 3.00347660082,
			"-0.006": 7.68301238652,
			"-0.005": 14.7023841035,
			"-0.004": 17.6564501235,
			"-0.003": 24.9948099709,
			"-0.002": 31.3514827098,
			"-0.001": 33.2029228552,
			"0.0": 26.7034463,
			"0.001": 19.0617214106,
			"0.002": 13.4807098285,
			"0.003": 15.6762601916,
			"0.004": 14.0677716699,
			"0.005": 10.2935423449,
			"0.006": 6.00185689055,
			"0.007": 6.27922187057,
			"0.008": 6.57830358851,
			"0.009": 5.72639348772,
			"0.01": 5.05333389055,
			"0.011": 3.9189346318,
			"0.012": 3.40252383752,
			"0.013": 1.05942612974,
			"0.014": 0.00443485989588,
			"0.015": 0.0,
			"0.016": 0.0,
			"0.017": 0.0,
			"0.018": 0.0,
			"0.019": 0.0,
			"0.02": 0.0,
			"0.021": 0.0,
			"0.022": 0.0,
			"0.023": 0.0,
			"0.024": 0.0,
			"0.025": 0.0
		}
	}
}
