{
	 "smiles": "CC1=C(N)C=C(CN2CCOCC2)C=C1", 
	 "Tm": 399.15, 
	 "num_atms": 33, 
	 "gaussian": { 
		 "optdone": 1, 
		 "sigma_profile": "yes", 
		 "theory": "DFT", 
		 "functional": "B3LYP", 
		 "basiset": "6-31G**", 
		 "properties": { 
			 "R2extent": 4741.0185, 
			 "electric_dipole_moment_norm": 2.88853953755, 
			 "electric_quadrupole_moment_norm": 16.8295947937, 
			 "total_energy": -652.829718874, 
			 "HOMO_LUMO_gap": 0.20275, 
			 "cosmo_polarized_energy": -12.06, 
			 "cosmo_cavitation_energy": 33.58, 
			 "cosmo_dispersion_energy": -24.37, 
			 "cosmo_repulsion_energy": 1.92, 
			 "cosmo_total_nonelectrostatic_energy": 11.13, 
			 "SMD_solvation_energy": 3.01 
		},
		"coords": [
			{
				"x": 5.3768836835,
				"y": -0.6551406703,
				"z": -1.0644228908,
				"element": "C" 
			},
			{
				"x": 4.0741851302,
				"y": -0.5388650519,
				"z": -0.3130202878,
				"element": "C" 
			},
			{
				"x": 3.51469507,
				"y": -1.6687850129,
				"z": 0.3252007287,
				"element": "C" 
			},
			{
				"x": 4.1895490156,
				"y": -2.8944663798,
				"z": 0.3053276781,
				"element": "N" 
			},
			{
				"x": 2.3112498438,
				"y": -1.5359514567,
				"z": 1.0358730208,
				"element": "C" 
			},
			{
				"x": 1.6431642053,
				"y": -0.3115568512,
				"z": 1.1319612271,
				"element": "C" 
			},
			{
				"x": 0.3182321818,
				"y": -0.2087825473,
				"z": 1.8779381289,
				"element": "C" 
			},
			{
				"x": -0.9025072737,
				"y": -0.3184025242,
				"z": 1.0760958398,
				"element": "N" 
			},
			{
				"x": -1.1245746953,
				"y": -1.6345067304,
				"z": 0.4717081469,
				"element": "C" 
			},
			{
				"x": -2.1781922108,
				"y": -1.5290161133,
				"z": -0.6451471452,
				"element": "C" 
			},
			{
				"x": -3.1830364687,
				"y": -0.5888902421,
				"z": -0.3167891219,
				"element": "O" 
			},
			{
				"x": -2.6675809502,
				"y": 0.7384564354,
				"z": -0.2206222608,
				"element": "C" 
			},
			{
				"x": -1.1724006172,
				"y": 0.7712085804,
				"z": 0.151209576,
				"element": "C" 
			},
			{
				"x": 2.2049773049,
				"y": 0.8059713312,
				"z": 0.5012630187,
				"element": "C" 
			},
			{
				"x": 3.3996690492,
				"y": 0.6798351392,
				"z": -0.2073050918,
				"element": "C" 
			},
			{
				"x": 5.6974018167,
				"y": 0.3170729413,
				"z": -1.4472659694,
				"element": "H" 
			},
			{
				"x": 5.2985403833,
				"y": -1.3318504095,
				"z": -1.9279535438,
				"element": "H" 
			},
			{
				"x": 6.1775702454,
				"y": -1.0461193228,
				"z": -0.4239903131,
				"element": "H" 
			},
			{
				"x": 4.7569983509,
				"y": -3.0644987839,
				"z": -0.5134332197,
				"element": "H" 
			},
			{
				"x": 3.6151741675,
				"y": -3.6949157219,
				"z": 0.5319144184,
				"element": "H" 
			},
			{
				"x": 1.9010560944,
				"y": -2.409505753,
				"z": 1.5403132548,
				"element": "H" 
			},
			{
				"x": 0.273927579,
				"y": 0.7522494612,
				"z": 2.4051493278,
				"element": "H" 
			},
			{
				"x": 0.2732440223,
				"y": -0.9949136003,
				"z": 2.6427850447,
				"element": "H" 
			},
			{
				"x": -1.4679817494,
				"y": -2.3213026051,
				"z": 1.2577876097,
				"element": "H" 
			},
			{
				"x": -0.2066025182,
				"y": -2.0665455198,
				"z": 0.0348548074,
				"element": "H" 
			},
			{
				"x": -1.6958225236,
				"y": -1.2665649987,
				"z": -1.6008729828,
				"element": "H" 
			},
			{
				"x": -2.6789353385,
				"y": -2.4909741417,
				"z": -0.7875512435,
				"element": "H" 
			},
			{
				"x": -3.2594014007,
				"y": 1.2329400253,
				"z": 0.5564795479,
				"element": "H" 
			},
			{
				"x": -2.8247253982,
				"y": 1.2777335907,
				"z": -1.1693360098,
				"element": "H" 
			},
			{
				"x": -0.9532327576,
				"y": 1.7232270666,
				"z": 0.648195734,
				"element": "H" 
			},
			{
				"x": -0.5423900569,
				"y": 0.7437543939,
				"z": -0.7565972737,
				"element": "H" 
			},
			{
				"x": 1.7201135227,
				"y": 1.7753114776,
				"z": 0.5764120957,
				"element": "H" 
			},
			{
				"x": 3.8318522926,
				"y": 1.5549939939,
				"z": -0.687461851,
				"element": "H" 
			}
		],
		 "valence_orbital": [ 
			{
				"type": "occ",
				"energy": -0.29828,
				"method": "rhf"
			},
			{
				"type": "occ",
				"energy": -0.23942,
				"method": "rhf"
			},
			{
				"type": "occ",
				"energy": -0.23504,
				"method": "rhf"
			},
			{
				"type": "occ",
				"energy": -0.20088,
				"method": "rhf"
			},
			{
				"type": "occ",
				"energy": -0.19656,
				"method": "rhf"
			},
			{
				"type": "unocc",
				"energy": 0.00619,
				"method": "rhf"
			},
			{
				"type": "unocc",
				"energy": 0.01673,
				"method": "rhf"
			},
			{
				"type": "unocc",
				"energy": 0.07561,
				"method": "rhf"
			},
			{
				"type": "unocc",
				"energy": 0.08625,
				"method": "rhf"
			},
			{
				"type": "unocc",
				"energy": 0.10707,
				"method": "rhf"
			}
		],
		"cosmo_sigma_profile": { 
			"-0.025": 0.0,
			"-0.024": 0.0,
			"-0.023": 0.0,
			"-0.022": 0.0,
			"-0.021": 0.0,
			"-0.02": 0.0,
			"-0.019": 0.0,
			"-0.018": 0.0,
			"-0.017": 0.0,
			"-0.016": 0.0,
			"-0.015": 0.0,
			"-0.014": 0.0,
			"-0.013": 0.0,
			"-0.012": 0.939873773948,
			"-0.011": 2.59743182747,
			"-0.01": 2.3779432527,
			"-0.009": 2.9282151493,
			"-0.008": 3.15542270845,
			"-0.007": 3.04814496852,
			"-0.006": 2.47011777361,
			"-0.005": 8.13829231772,
			"-0.004": 27.1466601414,
			"-0.003": 38.7679787513,
			"-0.002": 32.5384039431,
			"-0.001": 24.6759323437,
			"0.0": 20.3673437945,
			"0.001": 14.9342581296,
			"0.002": 10.4391260031,
			"0.003": 8.6570493098,
			"0.004": 9.01323664325,
			"0.005": 8.54995247326,
			"0.006": 8.8534769085,
			"0.007": 9.40531201126,
			"0.008": 4.63637142609,
			"0.009": 3.07725726042,
			"0.01": 2.70377686084,
			"0.011": 1.96910391783,
			"0.012": 3.41958000087,
			"0.013": 3.56326484396,
			"0.014": 2.36622678601,
			"0.015": 0.624825671501,
			"0.016": 0.040969932934,
			"0.017": 0.0,
			"0.018": 0.0,
			"0.019": 0.0,
			"0.02": 0.0,
			"0.021": 0.0,
			"0.022": 0.0,
			"0.023": 0.0,
			"0.024": 0.0,
			"0.025": 0.0
		}
	}
}
