{
	 "smiles": "IC1=C2C(=O)OC(=O)C2=C(I)C(I)=C1I", 
	 "Tm": 601.15, 
	 "num_atms": 15, 
	 "gaussian": { 
		 "optdone": 1, 
		 "sigma_profile": "no", 
		 "theory": "DFT", 
		 "functional": "B3LYP", 
		 "basiset": "6-31G**", 
		 "properties": { 
			 "R2extent": 3365.7909, 
			 "electric_dipole_moment_norm": 4.26751017456, 
			 "electric_quadrupole_moment_norm": 5.08048280777, 
			 "total_energy": -576.037015188, 
			 "HOMO_LUMO_gap": 0.13274, 
			 "cosmo_polarized_energy": -766200.43, 
			 "cosmo_cavitation_energy": 32.21, 
			 "cosmo_dispersion_energy": -28.58, 
			 "cosmo_repulsion_energy": 2.06, 
			 "cosmo_total_nonelectrostatic_energy": 5.69, 
			 "SMD_solvation_energy": 4.22 
		},
		"coords": [
			{
				"x": 4.0215741466,
				"y": -0.7325077955,
				"z": 0.3243273189,
				"element": "I" 
			},
			{
				"x": 2.1058081887,
				"y": 0.1127782815,
				"z": 0.5573143655,
				"element": "C" 
			},
			{
				"x": 0.9847871255,
				"y": -0.6858890208,
				"z": 0.3442653549,
				"element": "C" 
			},
			{
				"x": 0.8736557956,
				"y": -2.1242057872,
				"z": -0.0441292496,
				"element": "C" 
			},
			{
				"x": 1.713927803,
				"y": -2.9467231293,
				"z": -0.2688123886,
				"element": "O" 
			},
			{
				"x": -0.4810742654,
				"y": -2.4248861093,
				"z": -0.1220731719,
				"element": "O" 
			},
			{
				"x": -1.2535484098,
				"y": -1.3100058285,
				"z": 0.1814120128,
				"element": "C" 
			},
			{
				"x": -2.4498573111,
				"y": -1.3530055917,
				"z": 0.1726902658,
				"element": "O" 
			},
			{
				"x": -0.3122212304,
				"y": -0.1894237662,
				"z": 0.4816680344,
				"element": "C" 
			},
			{
				"x": -0.5606668618,
				"y": 1.1334933462,
				"z": 0.8395743674,
				"element": "C" 
			},
			{
				"x": -2.5559685777,
				"y": 1.785337858,
				"z": 1.0206529469,
				"element": "I" 
			},
			{
				"x": 0.5613026812,
				"y": 1.9696216428,
				"z": 1.062532679,
				"element": "C" 
			},
			{
				"x": 0.2365036178,
				"y": 3.9873374974,
				"z": 1.6075855466,
				"element": "I" 
			},
			{
				"x": 1.8832503003,
				"y": 1.4635323852,
				"z": 0.9227615188,
				"element": "C" 
			},
			{
				"x": 3.5535269975,
				"y": 2.7172460173,
				"z": 1.2577303991,
				"element": "I" 
			}
		],
		 "valence_orbital": [ 
			{
				"type": "occ",
				"energy": -0.29144,
				"method": "rhf"
			},
			{
				"type": "occ",
				"energy": -0.27646,
				"method": "rhf"
			},
			{
				"type": "occ",
				"energy": -0.27553,
				"method": "rhf"
			},
			{
				"type": "occ",
				"energy": -0.26613,
				"method": "rhf"
			},
			{
				"type": "occ",
				"energy": -0.24929,
				"method": "rhf"
			},
			{
				"type": "unocc",
				"energy": -0.11655,
				"method": "rhf"
			},
			{
				"type": "unocc",
				"energy": -0.10835,
				"method": "rhf"
			},
			{
				"type": "unocc",
				"energy": -0.08898,
				"method": "rhf"
			},
			{
				"type": "unocc",
				"energy": -0.06851,
				"method": "rhf"
			},
			{
				"type": "unocc",
				"energy": -0.04408,
				"method": "rhf"
			}
		],
		"cosmo_sigma_profile": { 
			"0.0": 0.0,
			"0.0": 0.0,
			"0.0": 0.0,
			"0.0": 0.0,
			"0.0": 0.0,
			"0.0": 0.0,
			"0.0": 0.0,
			"0.0": 0.0,
			"0.0": 0.0,
			"0.0": 0.0,
			"0.0": 0.0,
			"0.0": 0.0,
			"0.0": 0.0,
			"0.0": 0.0,
			"0.0": 0.0,
			"0.0": 0.0,
			"0.0": 0.0,
			"0.0": 0.0,
			"0.0": 0.0,
			"0.0": 0.0,
			"0.0": 0.0,
			"0.0": 0.0,
			"0.0": 0.0,
			"0.0": 0.0,
			"0.0": 0.0,
			"0.0": 0.0,
			"0.0": 0.0,
			"0.0": 0.0,
			"0.0": 0.0,
			"0.0": 0.0,
			"0.0": 0.0,
			"0.0": 0.0,
			"0.0": 0.0,
			"0.0": 0.0,
			"0.0": 0.0,
			"0.0": 0.0,
			"0.0": 0.0,
			"0.0": 0.0,
			"0.0": 0.0,
			"0.0": 0.0,
			"0.0": 0.0,
			"0.0": 0.0,
			"0.0": 0.0,
			"0.0": 0.0,
			"0.0": 0.0,
			"0.0": 0.0,
			"0.0": 0.0,
			"0.0": 0.0,
			"0.0": 0.0,
			"0.0": 0.0,
			"0.0": 0.0
		}
	}
}
