{
	 "smiles": "CC(C)(CO)C1OCC2(CO1)COC(OC2)C(C)(C)CO", 
	 "Tm": 472.15, 
	 "num_atms": 49, 
	 "gaussian": { 
		 "optdone": 1, 
		 "sigma_profile": "yes", 
		 "theory": "DFT", 
		 "functional": "B3LYP", 
		 "basiset": "6-31G**", 
		 "properties": { 
			 "R2extent": 9689.5758, 
			 "electric_dipole_moment_norm": 2.99889208375, 
			 "electric_quadrupole_moment_norm": 10.3782609309, 
			 "total_energy": -1039.77163691, 
			 "HOMO_LUMO_gap": 0.3171, 
			 "cosmo_polarized_energy": -15.9, 
			 "cosmo_cavitation_energy": 45.14, 
			 "cosmo_dispersion_energy": -31.46, 
			 "cosmo_repulsion_energy": 2.38, 
			 "cosmo_total_nonelectrostatic_energy": 16.05, 
			 "SMD_solvation_energy": 7.29 
		},
		"coords": [
			{
				"x": -2.3687360901,
				"y": -3.8154545795,
				"z": 1.3101067649,
				"element": "C" 
			},
			{
				"x": -1.0247201567,
				"y": -4.4905850691,
				"z": 0.988088456,
				"element": "C" 
			},
			{
				"x": -0.5575057089,
				"y": -5.3486574399,
				"z": 2.1786853389,
				"element": "C" 
			},
			{
				"x": -1.209109447,
				"y": -5.3756828655,
				"z": -0.2569940499,
				"element": "C" 
			},
			{
				"x": 0.0098454823,
				"y": -6.0615446327,
				"z": -0.5328898987,
				"element": "O" 
			},
			{
				"x": 0.0613919708,
				"y": -3.4395958004,
				"z": 0.6707404991,
				"element": "C" 
			},
			{
				"x": -0.2868289621,
				"y": -2.6339530666,
				"z": -0.4690676166,
				"element": "O" 
			},
			{
				"x": -0.5475552067,
				"y": -1.272025239,
				"z": -0.1584124929,
				"element": "C" 
			},
			{
				"x": 0.6793924762,
				"y": -0.6008876737,
				"z": 0.4913828882,
				"element": "C" 
			},
			{
				"x": 1.2365508795,
				"y": -1.6146606617,
				"z": 1.5277279072,
				"element": "C" 
			},
			{
				"x": 0.2804920756,
				"y": -2.6340488141,
				"z": 1.8040375833,
				"element": "O" 
			},
			{
				"x": 0.2555185264,
				"y": 0.7609157992,
				"z": 1.0983471319,
				"element": "C" 
			},
			{
				"x": 1.2356474418,
				"y": 1.7688919143,
				"z": 0.828816339,
				"element": "O" 
			},
			{
				"x": 1.3039848303,
				"y": 2.0647795931,
				"z": -0.557036005,
				"element": "C" 
			},
			{
				"x": 1.4089614078,
				"y": 0.8650317211,
				"z": -1.3241182865,
				"element": "O" 
			},
			{
				"x": 1.7609349083,
				"y": -0.288034426,
				"z": -0.5607819183,
				"element": "C" 
			},
			{
				"x": 2.4649397212,
				"y": 3.0524233145,
				"z": -0.8235586873,
				"element": "C" 
			},
			{
				"x": 2.2375445275,
				"y": 4.3312927696,
				"z": 0.0021112905,
				"element": "C" 
			},
			{
				"x": 2.4554739462,
				"y": 3.3831790734,
				"z": -2.327432659,
				"element": "C" 
			},
			{
				"x": 3.8282075095,
				"y": 2.4155111638,
				"z": -0.4707165868,
				"element": "C" 
			},
			{
				"x": 4.0078664267,
				"y": 2.1233658327,
				"z": 0.9070634989,
				"element": "O" 
			},
			{
				"x": -3.1261767131,
				"y": -4.5685231135,
				"z": 1.5524756044,
				"element": "H" 
			},
			{
				"x": -2.2687748302,
				"y": -3.1497521401,
				"z": 2.1713534804,
				"element": "H" 
			},
			{
				"x": -2.7355940509,
				"y": -3.2308097912,
				"z": 0.4606448834,
				"element": "H" 
			},
			{
				"x": -0.4190382009,
				"y": -4.7323592863,
				"z": 3.0702470076,
				"element": "H" 
			},
			{
				"x": -1.3036539229,
				"y": -6.1188717003,
				"z": 2.4029950249,
				"element": "H" 
			},
			{
				"x": 0.3851295536,
				"y": -5.8536667963,
				"z": 1.9522921567,
				"element": "H" 
			},
			{
				"x": -2.0254395744,
				"y": -6.0898033099,
				"z": -0.0604990038,
				"element": "H" 
			},
			{
				"x": -1.5060551143,
				"y": -4.7417386944,
				"z": -1.1031696776,
				"element": "H" 
			},
			{
				"x": -0.0583905566,
				"y": -6.4531703798,
				"z": -1.4113696267,
				"element": "H" 
			},
			{
				"x": 0.9915967979,
				"y": -3.9565432539,
				"z": 0.3919966762,
				"element": "H" 
			},
			{
				"x": -1.4192023361,
				"y": -1.1740034623,
				"z": 0.5030089469,
				"element": "H" 
			},
			{
				"x": -0.781133599,
				"y": -0.7812889777,
				"z": -1.1077867431,
				"element": "H" 
			},
			{
				"x": 2.1643892999,
				"y": -2.0770257821,
				"z": 1.153960689,
				"element": "H" 
			},
			{
				"x": 1.4646339972,
				"y": -1.1370985251,
				"z": 2.4848287264,
				"element": "H" 
			},
			{
				"x": -0.7096006551,
				"y": 1.0891818563,
				"z": 0.6823218424,
				"element": "H" 
			},
			{
				"x": 0.1540729954,
				"y": 0.7149106847,
				"z": 2.1856842075,
				"element": "H" 
			},
			{
				"x": 0.3533038645,
				"y": 2.5321126297,
				"z": -0.8676065254,
				"element": "H" 
			},
			{
				"x": 1.8415301316,
				"y": -1.1119419257,
				"z": -1.274542997,
				"element": "H" 
			},
			{
				"x": 2.73638676,
				"y": -0.1566337812,
				"z": -0.0738745532,
				"element": "H" 
			},
			{
				"x": 2.3276658423,
				"y": 4.1357195394,
				"z": 1.0718596783,
				"element": "H" 
			},
			{
				"x": 1.2455463834,
				"y": 4.7560141075,
				"z": -0.1905192636,
				"element": "H" 
			},
			{
				"x": 2.9823023812,
				"y": 5.0874878548,
				"z": -0.2674684736,
				"element": "H" 
			},
			{
				"x": 3.2606188855,
				"y": 4.085192587,
				"z": -2.5670040776,
				"element": "H" 
			},
			{
				"x": 2.5865705707,
				"y": 2.4823322416,
				"z": -2.9325611635,
				"element": "H" 
			},
			{
				"x": 1.5093392806,
				"y": 3.8518783857,
				"z": -2.6207220638,
				"element": "H" 
			},
			{
				"x": 3.9655248318,
				"y": 1.5149503534,
				"z": -1.0901692496,
				"element": "H" 
			},
			{
				"x": 4.6238709278,
				"y": 3.1171654171,
				"z": -0.7484238369,
				"element": "H" 
			},
			{
				"x": 3.1516804913,
				"y": 1.8156243492,
				"z": 1.2404488346,
				"element": "H" 
			}
		],
		 "valence_orbital": [ 
			{
				"type": "occ",
				"energy": -0.27514,
				"method": "rhf"
			},
			{
				"type": "occ",
				"energy": -0.26741,
				"method": "rhf"
			},
			{
				"type": "occ",
				"energy": -0.25755,
				"method": "rhf"
			},
			{
				"type": "occ",
				"energy": -0.24902,
				"method": "rhf"
			},
			{
				"type": "occ",
				"energy": -0.24758,
				"method": "rhf"
			},
			{
				"type": "unocc",
				"energy": 0.06952,
				"method": "rhf"
			},
			{
				"type": "unocc",
				"energy": 0.07542,
				"method": "rhf"
			},
			{
				"type": "unocc",
				"energy": 0.07928,
				"method": "rhf"
			},
			{
				"type": "unocc",
				"energy": 0.09079,
				"method": "rhf"
			},
			{
				"type": "unocc",
				"energy": 0.09801,
				"method": "rhf"
			}
		],
		"cosmo_sigma_profile": { 
			"-0.025": 0.0,
			"-0.024": 0.0,
			"-0.023": 0.0,
			"-0.022": 0.0,
			"-0.021": 0.0,
			"-0.02": 0.0,
			"-0.019": 0.0,
			"-0.018": 0.0,
			"-0.017": 0.0,
			"-0.016": 0.391610908817,
			"-0.015": 1.04495970393,
			"-0.014": 1.05757799837,
			"-0.013": 1.09329824143,
			"-0.012": 0.838253047579,
			"-0.011": 0.683592075412,
			"-0.01": 0.567786128941,
			"-0.009": 0.871171480173,
			"-0.008": 0.598678488874,
			"-0.007": 3.53699168032,
			"-0.006": 10.8360398392,
			"-0.005": 19.8995836827,
			"-0.004": 26.9358761185,
			"-0.003": 40.7583803001,
			"-0.002": 39.7564557571,
			"-0.001": 39.4041051351,
			"0.0": 31.3958507013,
			"0.001": 32.7993462281,
			"0.002": 17.5622331096,
			"0.003": 9.67701656884,
			"0.004": 8.53430023575,
			"0.005": 9.74922581643,
			"0.006": 7.23593106416,
			"0.007": 8.02082866492,
			"0.008": 6.96060463336,
			"0.009": 7.36568050722,
			"0.01": 4.21014330133,
			"0.011": 4.10749307874,
			"0.012": 3.75183154289,
			"0.013": 2.46300320285,
			"0.014": 1.8996068863,
			"0.015": 2.130173617,
			"0.016": 0.213705337718,
			"0.017": 0.0,
			"0.018": 0.0,
			"0.019": 0.0,
			"0.02": 0.0,
			"0.021": 0.0,
			"0.022": 0.0,
			"0.023": 0.0,
			"0.024": 0.0,
			"0.025": 0.0
		}
	}
}
