{
	 "smiles": "OCC1=NC(=NC=C1)C1=CC=CC=C1", 
	 "Tm": 317.15, 
	 "num_atms": 24, 
	 "gaussian": { 
		 "optdone": 1, 
		 "sigma_profile": "yes", 
		 "theory": "DFT", 
		 "functional": "B3LYP", 
		 "basiset": "6-31G**", 
		 "properties": { 
			 "R2extent": 3841.969, 
			 "electric_dipole_moment_norm": 2.42731483125, 
			 "electric_quadrupole_moment_norm": 15.6123295033, 
			 "total_energy": -609.919464197, 
			 "HOMO_LUMO_gap": 0.18608, 
			 "cosmo_polarized_energy": -10.59, 
			 "cosmo_cavitation_energy": 28.28, 
			 "cosmo_dispersion_energy": -21.17, 
			 "cosmo_repulsion_energy": 1.67, 
			 "cosmo_total_nonelectrostatic_energy": 8.78, 
			 "SMD_solvation_energy": 2.91 
		},
		"coords": [
			{
				"x": -0.3958843631,
				"y": 4.9774840317,
				"z": -0.08064915,
				"element": "O" 
			},
			{
				"x": 0.2073544044,
				"y": 3.7054236146,
				"z": 0.0726521028,
				"element": "C" 
			},
			{
				"x": -0.8633722005,
				"y": 2.6453501815,
				"z": 0.1722787499,
				"element": "C" 
			},
			{
				"x": -0.4203631147,
				"y": 1.3922339196,
				"z": 0.3201869771,
				"element": "N" 
			},
			{
				"x": -1.3382211957,
				"y": 0.4156088761,
				"z": 0.4131199841,
				"element": "C" 
			},
			{
				"x": -2.6713155826,
				"y": 0.6033088368,
				"z": 0.3686924123,
				"element": "N" 
			},
			{
				"x": -3.0921499572,
				"y": 1.8604688829,
				"z": 0.2207460206,
				"element": "C" 
			},
			{
				"x": -2.2243340406,
				"y": 2.9451203859,
				"z": 0.1146960608,
				"element": "C" 
			},
			{
				"x": -0.8471645385,
				"y": -0.9767918269,
				"z": 0.5771862446,
				"element": "C" 
			},
			{
				"x": 0.5297797245,
				"y": -1.244866476,
				"z": 0.6311852208,
				"element": "C" 
			},
			{
				"x": 0.9870727771,
				"y": -2.5517007458,
				"z": 0.7850394696,
				"element": "C" 
			},
			{
				"x": 0.0774782077,
				"y": -3.6073544967,
				"z": 0.8869419101,
				"element": "C" 
			},
			{
				"x": -1.2942385098,
				"y": -3.3477100767,
				"z": 0.833975788,
				"element": "C" 
			},
			{
				"x": -1.7555990423,
				"y": -2.0421540583,
				"z": 0.6802011923,
				"element": "C" 
			},
			{
				"x": 0.3038503966,
				"y": 5.637778277,
				"z": -0.1416404021,
				"element": "H" 
			},
			{
				"x": 0.8286892096,
				"y": 3.6459296724,
				"z": 0.9801453948,
				"element": "H" 
			},
			{
				"x": 0.8601007791,
				"y": 3.4491209678,
				"z": -0.7767059175,
				"element": "H" 
			},
			{
				"x": -4.1711158174,
				"y": 2.0066011214,
				"z": 0.1854337321,
				"element": "H" 
			},
			{
				"x": -2.5701056832,
				"y": 3.9632811568,
				"z": -0.0053140328,
				"element": "H" 
			},
			{
				"x": 1.2250278213,
				"y": -0.4170783375,
				"z": 0.5509317427,
				"element": "H" 
			},
			{
				"x": 2.0548667145,
				"y": -2.7478868495,
				"z": 0.8255923704,
				"element": "H" 
			},
			{
				"x": 0.4355669713,
				"y": -4.6261109439,
				"z": 1.0068768862,
				"element": "H" 
			},
			{
				"x": -2.0059409987,
				"y": -4.1647254448,
				"z": 0.9127063305,
				"element": "H" 
			},
			{
				"x": -2.8170819618,
				"y": -1.8267306683,
				"z": 0.6376209128,
				"element": "H" 
			}
		],
		 "valence_orbital": [ 
			{
				"type": "occ",
				"energy": -0.29299,
				"method": "rhf"
			},
			{
				"type": "occ",
				"energy": -0.27711,
				"method": "rhf"
			},
			{
				"type": "occ",
				"energy": -0.24467,
				"method": "rhf"
			},
			{
				"type": "occ",
				"energy": -0.24442,
				"method": "rhf"
			},
			{
				"type": "occ",
				"energy": -0.231,
				"method": "rhf"
			},
			{
				"type": "unocc",
				"energy": -0.04492,
				"method": "rhf"
			},
			{
				"type": "unocc",
				"energy": -0.03398,
				"method": "rhf"
			},
			{
				"type": "unocc",
				"energy": 0.0079,
				"method": "rhf"
			},
			{
				"type": "unocc",
				"energy": 0.03607,
				"method": "rhf"
			},
			{
				"type": "unocc",
				"energy": 0.06502,
				"method": "rhf"
			}
		],
		"cosmo_sigma_profile": { 
			"-0.025": 0.0,
			"-0.024": 0.0,
			"-0.023": 0.0,
			"-0.022": 0.0,
			"-0.021": 0.0,
			"-0.02": 0.0,
			"-0.019": 0.0,
			"-0.018": 0.0,
			"-0.017": 0.255529740676,
			"-0.016": 1.19535211182,
			"-0.015": 0.90435629286,
			"-0.014": 1.33567039597,
			"-0.013": 0.947539698698,
			"-0.012": 0.788925388239,
			"-0.011": 0.529443700101,
			"-0.01": 0.932462025359,
			"-0.009": 0.624289467978,
			"-0.008": 1.43998300531,
			"-0.007": 4.49401214712,
			"-0.006": 10.4851678719,
			"-0.005": 16.9682785874,
			"-0.004": 17.9162251975,
			"-0.003": 15.1270238925,
			"-0.002": 13.0122077501,
			"-0.001": 15.8285736708,
			"0.0": 15.7697215018,
			"0.001": 18.6227737674,
			"0.002": 14.88284686,
			"0.003": 17.2375292837,
			"0.004": 15.9327896412,
			"0.005": 15.7652804499,
			"0.006": 5.83374145217,
			"0.007": 5.15460671828,
			"0.008": 4.86310636454,
			"0.009": 2.98436067573,
			"0.01": 3.06346372288,
			"0.011": 2.44172720926,
			"0.012": 1.07530905186,
			"0.013": 0.0,
			"0.014": 0.0,
			"0.015": 0.0,
			"0.016": 0.0,
			"0.017": 0.0,
			"0.018": 0.0,
			"0.019": 0.0,
			"0.02": 0.0,
			"0.021": 0.0,
			"0.022": 0.0,
			"0.023": 0.0,
			"0.024": 0.0,
			"0.025": 0.0
		}
	}
}
