{
	 "smiles": "CC(=O)NC1=CC=CC=C1Br", 
	 "Tm": 372.15, 
	 "num_atms": 19, 
	 "gaussian": { 
		 "optdone": 1, 
		 "sigma_profile": "yes", 
		 "theory": "DFT", 
		 "functional": "B3LYP", 
		 "basiset": "6-31G**", 
		 "properties": { 
			 "R2extent": 2977.553, 
			 "electric_dipole_moment_norm": 3.89387721173, 
			 "electric_quadrupole_moment_norm": 6.47929072121, 
			 "total_energy": -3011.06636867, 
			 "HOMO_LUMO_gap": 0.20167, 
			 "cosmo_polarized_energy": -9.81, 
			 "cosmo_cavitation_energy": 24.97, 
			 "cosmo_dispersion_energy": -18.9, 
			 "cosmo_repulsion_energy": 1.51, 
			 "cosmo_total_nonelectrostatic_energy": 7.58, 
			 "SMD_solvation_energy": 4.03 
		},
		"coords": [
			{
				"x": -1.8614148661,
				"y": -1.5120031794,
				"z": -1.2326382725,
				"element": "C" 
			},
			{
				"x": -0.5442794284,
				"y": -0.8236171918,
				"z": -1.519898,
				"element": "C" 
			},
			{
				"x": -0.0112625835,
				"y": -0.9006561831,
				"z": -2.6167055668,
				"element": "O" 
			},
			{
				"x": 0.0987160219,
				"y": -0.0798726633,
				"z": -0.5345639874,
				"element": "N" 
			},
			{
				"x": -0.1507362814,
				"y": 0.2537295502,
				"z": 0.8002311776,
				"element": "C" 
			},
			{
				"x": -1.2770219696,
				"y": -0.1552909034,
				"z": 1.5388742677,
				"element": "C" 
			},
			{
				"x": -1.449462997,
				"y": 0.2226545545,
				"z": 2.8685385817,
				"element": "C" 
			},
			{
				"x": -0.5090089013,
				"y": 1.0214892636,
				"z": 3.5146297658,
				"element": "C" 
			},
			{
				"x": 0.6166139287,
				"y": 1.4417818112,
				"z": 2.8081161254,
				"element": "C" 
			},
			{
				"x": 0.7881119535,
				"y": 1.0642699673,
				"z": 1.4810864667,
				"element": "C" 
			},
			{
				"x": 2.3654035388,
				"y": 1.6855196095,
				"z": 0.5800085714,
				"element": "Br" 
			},
			{
				"x": -2.637995946,
				"y": -0.7933246796,
				"z": -0.9530618227,
				"element": "H" 
			},
			{
				"x": -1.7642107825,
				"y": -2.2453068672,
				"z": -0.4260677211,
				"element": "H" 
			},
			{
				"x": -2.1609246384,
				"y": -2.0239596414,
				"z": -2.1466515024,
				"element": "H" 
			},
			{
				"x": 0.9614866234,
				"y": 0.30395686,
				"z": -0.9068577231,
				"element": "H" 
			},
			{
				"x": -2.0308205331,
				"y": -0.7748035496,
				"z": 1.0783619841,
				"element": "H" 
			},
			{
				"x": -2.3343842303,
				"y": -0.117055406,
				"z": 3.398171431,
				"element": "H" 
			},
			{
				"x": -0.642247963,
				"y": 1.3164363355,
				"z": 4.5501448482,
				"element": "H" 
			},
			{
				"x": 1.3676390543,
				"y": 2.0641523129,
				"z": 3.2810813763,
				"element": "H" 
			}
		],
		 "valence_orbital": [ 
			{
				"type": "occ",
				"energy": -0.31713,
				"method": "rhf"
			},
			{
				"type": "occ",
				"energy": -0.30229,
				"method": "rhf"
			},
			{
				"type": "occ",
				"energy": -0.26107,
				"method": "rhf"
			},
			{
				"type": "occ",
				"energy": -0.25734,
				"method": "rhf"
			},
			{
				"type": "occ",
				"energy": -0.22693,
				"method": "rhf"
			},
			{
				"type": "unocc",
				"energy": -0.02526,
				"method": "rhf"
			},
			{
				"type": "unocc",
				"energy": -0.0223,
				"method": "rhf"
			},
			{
				"type": "unocc",
				"energy": -0.00524,
				"method": "rhf"
			},
			{
				"type": "unocc",
				"energy": 0.03231,
				"method": "rhf"
			},
			{
				"type": "unocc",
				"energy": 0.09226,
				"method": "rhf"
			}
		],
		"cosmo_sigma_profile": { 
			"-0.025": 0.0,
			"-0.024": 0.0,
			"-0.023": 0.0,
			"-0.022": 0.0,
			"-0.021": 0.0,
			"-0.02": 0.0,
			"-0.019": 0.0,
			"-0.018": 0.0,
			"-0.017": 0.0,
			"-0.016": 0.0,
			"-0.015": 0.0,
			"-0.014": 0.0,
			"-0.013": 0.0,
			"-0.012": 0.0,
			"-0.011": 0.0,
			"-0.01": 0.0,
			"-0.009": 0.0,
			"-0.008": 0.747838052156,
			"-0.007": 9.75616656665,
			"-0.006": 15.5506819471,
			"-0.005": 15.5540837136,
			"-0.004": 14.5373405361,
			"-0.003": 14.397352868,
			"-0.002": 15.8976358364,
			"-0.001": 14.4485022331,
			"0.0": 13.5778094136,
			"0.001": 16.2988522112,
			"0.002": 16.3708603834,
			"0.003": 17.4448289904,
			"0.004": 16.2512892202,
			"0.005": 3.67506032564,
			"0.006": 1.59244229935,
			"0.007": 1.03732347489,
			"0.008": 1.19271982538,
			"0.009": 0.980575557331,
			"0.01": 1.54917941688,
			"0.011": 2.014907145,
			"0.012": 3.28187529131,
			"0.013": 5.38812791765,
			"0.014": 1.50707950876,
			"0.015": 0.0155942118592,
			"0.016": 0.0,
			"0.017": 0.0,
			"0.018": 0.0,
			"0.019": 0.0,
			"0.02": 0.0,
			"0.021": 0.0,
			"0.022": 0.0,
			"0.023": 0.0,
			"0.024": 0.0,
			"0.025": 0.0
		}
	}
}
