{
	 "smiles": "CCCC1=NON=C1N", 
	 "Tm": 303.15, 
	 "num_atms": 18, 
	 "gaussian": { 
		 "optdone": 1, 
		 "sigma_profile": "yes", 
		 "theory": "DFT", 
		 "functional": "B3LYP", 
		 "basiset": "6-31G**", 
		 "properties": { 
			 "R2extent": 1561.7645, 
			 "electric_dipole_moment_norm": 4.72204429035, 
			 "electric_quadrupole_moment_norm": 11.3581137813, 
			 "total_energy": -435.360576199, 
			 "HOMO_LUMO_gap": 0.21853, 
			 "cosmo_polarized_energy": -13.35, 
			 "cosmo_cavitation_energy": 21.8, 
			 "cosmo_dispersion_energy": -15.73, 
			 "cosmo_repulsion_energy": 1.32, 
			 "cosmo_total_nonelectrostatic_energy": 7.39, 
			 "SMD_solvation_energy": 3.28 
		},
		"coords": [
			{
				"x": 0.3274004794,
				"y": 2.0667445911,
				"z": -1.142280126,
				"element": "C" 
			},
			{
				"x": 0.2077838229,
				"y": 1.3627180429,
				"z": 0.2120790354,
				"element": "C" 
			},
			{
				"x": -0.5868474855,
				"y": 0.038560539,
				"z": 0.1473560074,
				"element": "C" 
			},
			{
				"x": 0.1001824483,
				"y": -1.0327585762,
				"z": -0.6441376949,
				"element": "C" 
			},
			{
				"x": -0.3136814631,
				"y": -1.4385749288,
				"z": -1.8155933444,
				"element": "N" 
			},
			{
				"x": 0.5719259092,
				"y": -2.395903559,
				"z": -2.2325824187,
				"element": "O" 
			},
			{
				"x": 1.564775481,
				"y": -2.6072196208,
				"z": -1.288584965,
				"element": "N" 
			},
			{
				"x": 1.2909374726,
				"y": -1.7731268664,
				"z": -0.3164271772,
				"element": "C" 
			},
			{
				"x": 2.0925593674,
				"y": -1.6132632512,
				"z": 0.8002747961,
				"element": "N" 
			},
			{
				"x": 0.8329822317,
				"y": 1.4355245903,
				"z": -1.8794823722,
				"element": "H" 
			},
			{
				"x": 0.8974274804,
				"y": 2.9964327829,
				"z": -1.0495493683,
				"element": "H" 
			},
			{
				"x": -0.6602166343,
				"y": 2.3174814197,
				"z": -1.5451085275,
				"element": "H" 
			},
			{
				"x": -0.2939218722,
				"y": 2.02316584,
				"z": 0.9296148714,
				"element": "H" 
			},
			{
				"x": 1.2074397618,
				"y": 1.1638651808,
				"z": 0.6175793924,
				"element": "H" 
			},
			{
				"x": -0.7640705181,
				"y": -0.3292828825,
				"z": 1.167330153,
				"element": "H" 
			},
			{
				"x": -1.5713434341,
				"y": 0.2131951649,
				"z": -0.298423312,
				"element": "H" 
			},
			{
				"x": 1.5875636609,
				"y": -1.4360675803,
				"z": 1.6585815081,
				"element": "H" 
			},
			{
				"x": 2.7798032917,
				"y": -2.3487908864,
				"z": 0.9081535423,
				"element": "H" 
			}
		],
		 "valence_orbital": [ 
			{
				"type": "occ",
				"energy": -0.34428,
				"method": "rhf"
			},
			{
				"type": "occ",
				"energy": -0.3278,
				"method": "rhf"
			},
			{
				"type": "occ",
				"energy": -0.30144,
				"method": "rhf"
			},
			{
				"type": "occ",
				"energy": -0.29163,
				"method": "rhf"
			},
			{
				"type": "occ",
				"energy": -0.24575,
				"method": "rhf"
			},
			{
				"type": "unocc",
				"energy": -0.02722,
				"method": "rhf"
			},
			{
				"type": "unocc",
				"energy": 0.0458,
				"method": "rhf"
			},
			{
				"type": "unocc",
				"energy": 0.0588,
				"method": "rhf"
			},
			{
				"type": "unocc",
				"energy": 0.10248,
				"method": "rhf"
			},
			{
				"type": "unocc",
				"energy": 0.11302,
				"method": "rhf"
			}
		],
		"cosmo_sigma_profile": { 
			"-0.025": 0.0,
			"-0.024": 0.0,
			"-0.023": 0.0,
			"-0.022": 0.0,
			"-0.021": 0.0,
			"-0.02": 0.0,
			"-0.019": 0.0,
			"-0.018": 0.0,
			"-0.017": 0.0,
			"-0.016": 0.0,
			"-0.015": 0.0,
			"-0.014": 1.12622405317,
			"-0.013": 3.39653680053,
			"-0.012": 3.3407867646,
			"-0.011": 3.17394542788,
			"-0.01": 2.79746253766,
			"-0.009": 2.51906562914,
			"-0.008": 2.05143629284,
			"-0.007": 2.61100016047,
			"-0.006": 3.21765920821,
			"-0.005": 4.4737110131,
			"-0.004": 5.97314176678,
			"-0.003": 15.8676080745,
			"-0.002": 20.0596486339,
			"-0.001": 17.1761302062,
			"0.0": 15.0450975225,
			"0.001": 12.0891691711,
			"0.002": 6.85718447508,
			"0.003": 4.42688446979,
			"0.004": 4.04573053069,
			"0.005": 3.75575732485,
			"0.006": 6.19551963476,
			"0.007": 9.87158835559,
			"0.008": 6.99977465348,
			"0.009": 3.37522748921,
			"0.01": 3.33032774465,
			"0.011": 2.75320885268,
			"0.012": 2.79977812019,
			"0.013": 1.58668069523,
			"0.014": 0.257590339156,
			"0.015": 0.0,
			"0.016": 0.0,
			"0.017": 0.0,
			"0.018": 0.0,
			"0.019": 0.0,
			"0.02": 0.0,
			"0.021": 0.0,
			"0.022": 0.0,
			"0.023": 0.0,
			"0.024": 0.0,
			"0.025": 0.0
		}
	}
}
