{
	 "smiles": "CC1=NC=CC=N1", 
	 "Tm": 269.15, 
	 "num_atms": 13, 
	 "gaussian": { 
		 "optdone": 1, 
		 "sigma_profile": "yes", 
		 "theory": "DFT", 
		 "functional": "B3LYP", 
		 "basiset": "6-31G**", 
		 "properties": { 
			 "R2extent": 877.028, 
			 "electric_dipole_moment_norm": 1.6177217746, 
			 "electric_quadrupole_moment_norm": 7.42378651835, 
			 "total_energy": -303.648377492, 
			 "HOMO_LUMO_gap": 0.20819, 
			 "cosmo_polarized_energy": -6.49, 
			 "cosmo_cavitation_energy": 16.84, 
			 "cosmo_dispersion_energy": -12.8, 
			 "cosmo_repulsion_energy": 1.08, 
			 "cosmo_total_nonelectrostatic_energy": 5.13, 
			 "SMD_solvation_energy": 0.48 
		},
		"coords": [
			{
				"x": -1.4080227893,
				"y": -0.9619209836,
				"z": -0.3825495373,
				"element": "C" 
			},
			{
				"x": -0.2255183427,
				"y": -0.6118381854,
				"z": 0.4797865468,
				"element": "C" 
			},
			{
				"x": -0.2360436992,
				"y": 0.5920217079,
				"z": 1.0775750242,
				"element": "N" 
			},
			{
				"x": 0.83114551,
				"y": 0.9001294355,
				"z": 1.8214999887,
				"element": "C" 
			},
			{
				"x": 1.908939524,
				"y": 0.0328259731,
				"z": 1.9833886363,
				"element": "C" 
			},
			{
				"x": 1.8147044156,
				"y": -1.188749482,
				"z": 1.320865075,
				"element": "C" 
			},
			{
				"x": 0.7593688176,
				"y": -1.5220191663,
				"z": 0.5709060789,
				"element": "N" 
			},
			{
				"x": -1.2295407164,
				"y": -0.630807473,
				"z": -1.4129891098,
				"element": "H" 
			},
			{
				"x": -2.3057910348,
				"y": -0.4560854726,
				"z": -0.0224110496,
				"element": "H" 
			},
			{
				"x": -1.5586025868,
				"y": -2.0428770498,
				"z": -0.4028614937,
				"element": "H" 
			},
			{
				"x": 0.8175035318,
				"y": 1.8758767416,
				"z": 2.305457432,
				"element": "H" 
			},
			{
				"x": 2.7684260342,
				"y": 0.2916682734,
				"z": 2.5919349369,
				"element": "H" 
			},
			{
				"x": 2.6095313359,
				"y": -1.9300243188,
				"z": 1.3932974716,
				"element": "H" 
			}
		],
		 "valence_orbital": [ 
			{
				"type": "occ",
				"energy": -0.385,
				"method": "rhf"
			},
			{
				"type": "occ",
				"energy": -0.3134,
				"method": "rhf"
			},
			{
				"type": "occ",
				"energy": -0.2991,
				"method": "rhf"
			},
			{
				"type": "occ",
				"energy": -0.27477,
				"method": "rhf"
			},
			{
				"type": "occ",
				"energy": -0.24536,
				"method": "rhf"
			},
			{
				"type": "unocc",
				"energy": -0.03717,
				"method": "rhf"
			},
			{
				"type": "unocc",
				"energy": -0.02302,
				"method": "rhf"
			},
			{
				"type": "unocc",
				"energy": 0.10326,
				"method": "rhf"
			},
			{
				"type": "unocc",
				"energy": 0.12442,
				"method": "rhf"
			},
			{
				"type": "unocc",
				"energy": 0.13128,
				"method": "rhf"
			}
		],
		"cosmo_sigma_profile": { 
			"-0.025": 0.0,
			"-0.024": 0.0,
			"-0.023": 0.0,
			"-0.022": 0.0,
			"-0.021": 0.0,
			"-0.02": 0.0,
			"-0.019": 0.0,
			"-0.018": 0.0,
			"-0.017": 0.0,
			"-0.016": 0.0,
			"-0.015": 0.0,
			"-0.014": 0.0,
			"-0.013": 0.0,
			"-0.012": 0.0,
			"-0.011": 0.0,
			"-0.01": 0.0,
			"-0.009": 0.0,
			"-0.008": 1.95595552598,
			"-0.007": 7.50222519398,
			"-0.006": 7.65334861363,
			"-0.005": 8.6473288042,
			"-0.004": 9.57496302255,
			"-0.003": 9.49548080734,
			"-0.002": 9.62303437002,
			"-0.001": 16.5286887856,
			"0.0": 16.7266598414,
			"0.001": 12.1510287653,
			"0.002": 5.31608646263,
			"0.003": 3.84964315843,
			"0.004": 3.68731402603,
			"0.005": 2.53507586641,
			"0.006": 2.87079969049,
			"0.007": 2.23927806087,
			"0.008": 2.11613073247,
			"0.009": 2.29766512415,
			"0.01": 1.52643768898,
			"0.011": 1.57739241994,
			"0.012": 1.99858137159,
			"0.013": 1.3841145659,
			"0.014": 1.51679548693,
			"0.015": 1.64594416324,
			"0.016": 0.417878318982,
			"0.017": 0.0,
			"0.018": 0.0,
			"0.019": 0.0,
			"0.02": 0.0,
			"0.021": 0.0,
			"0.022": 0.0,
			"0.023": 0.0,
			"0.024": 0.0,
			"0.025": 0.0
		}
	}
}
