{
	 "smiles": "OC(=O)CCN1C(=O)NC(=O)C2=C1C=CC=C2", 
	 "Tm": 505.15, 
	 "num_atms": 27, 
	 "gaussian": { 
		 "optdone": 1, 
		 "sigma_profile": "yes", 
		 "theory": "DFT", 
		 "functional": "B3LYP", 
		 "basiset": "6-31G**", 
		 "properties": { 
			 "R2extent": 4661.1192, 
			 "electric_dipole_moment_norm": 6.09488623274, 
			 "electric_quadrupole_moment_norm": 32.2549494238, 
			 "total_energy": -835.663555691, 
			 "HOMO_LUMO_gap": 0.18173, 
			 "cosmo_polarized_energy": -22.08, 
			 "cosmo_cavitation_energy": 30.89, 
			 "cosmo_dispersion_energy": -22.84, 
			 "cosmo_repulsion_energy": 1.72, 
			 "cosmo_total_nonelectrostatic_energy": 9.76, 
			 "SMD_solvation_energy": 7.28 
		},
		"coords": [
			{
				"x": -0.1988407939,
				"y": -4.2009047408,
				"z": -0.7880307886,
				"element": "O" 
			},
			{
				"x": -0.9212944758,
				"y": -3.6628283348,
				"z": -1.7848902555,
				"element": "C" 
			},
			{
				"x": -1.5413080017,
				"y": -4.349663025,
				"z": -2.5622046898,
				"element": "O" 
			},
			{
				"x": -0.9214774581,
				"y": -2.1307594506,
				"z": -1.8618799005,
				"element": "C" 
			},
			{
				"x": 0.4937808291,
				"y": -1.4985957845,
				"z": -1.8440192035,
				"element": "C" 
			},
			{
				"x": 0.6863498199,
				"y": -0.4893655482,
				"z": -0.7888001562,
				"element": "N" 
			},
			{
				"x": 0.978459167,
				"y": -0.9966301921,
				"z": 0.4617595115,
				"element": "C" 
			},
			{
				"x": 0.9962104586,
				"y": -2.2060949777,
				"z": 0.7044628787,
				"element": "O" 
			},
			{
				"x": 1.2667474795,
				"y": -0.0747853963,
				"z": 1.4454169039,
				"element": "N" 
			},
			{
				"x": 1.2755813535,
				"y": 1.3196323292,
				"z": 1.3356820454,
				"element": "C" 
			},
			{
				"x": 1.5794900651,
				"y": 2.0184115083,
				"z": 2.2870200264,
				"element": "O" 
			},
			{
				"x": 0.8632800515,
				"y": 1.8038788107,
				"z": 0.0084026444,
				"element": "C" 
			},
			{
				"x": 0.5496784358,
				"y": 0.8916033017,
				"z": -1.0224655301,
				"element": "C" 
			},
			{
				"x": 0.1030659623,
				"y": 1.3975796759,
				"z": -2.2550990501,
				"element": "C" 
			},
			{
				"x": 0.0062269171,
				"y": 2.7721076953,
				"z": -2.4501009466,
				"element": "C" 
			},
			{
				"x": 0.3396469384,
				"y": 3.6757243106,
				"z": -1.4346659829,
				"element": "C" 
			},
			{
				"x": 0.7602323279,
				"y": 3.1837402726,
				"z": -0.2077002207,
				"element": "C" 
			},
			{
				"x": 0.2143621687,
				"y": -3.5131284514,
				"z": -0.2180323236,
				"element": "H" 
			},
			{
				"x": -1.4948455932,
				"y": -1.7540620364,
				"z": -1.0068293982,
				"element": "H" 
			},
			{
				"x": -1.4706610944,
				"y": -1.8593508199,
				"z": -2.7647715036,
				"element": "H" 
			},
			{
				"x": 0.7276529004,
				"y": -1.0303764,
				"z": -2.7984838076,
				"element": "H" 
			},
			{
				"x": 1.2522724136,
				"y": -2.2649514339,
				"z": -1.6790548275,
				"element": "H" 
			},
			{
				"x": 1.4976417119,
				"y": -0.4648204923,
				"z": 2.3517197396,
				"element": "H" 
			},
			{
				"x": -0.1865292934,
				"y": 0.7318487541,
				"z": -3.0580309869,
				"element": "H" 
			},
			{
				"x": -0.3422172301,
				"y": 3.1404095965,
				"z": -3.4104163924,
				"element": "H" 
			},
			{
				"x": 0.2596049399,
				"y": 4.7444890495,
				"z": -1.6022907872,
				"element": "H" 
			},
			{
				"x": 1.0155900003,
				"y": 3.8399917797,
				"z": 0.6175030017,
				"element": "H" 
			}
		],
		 "valence_orbital": [ 
			{
				"type": "occ",
				"energy": -0.29926,
				"method": "rhf"
			},
			{
				"type": "occ",
				"energy": -0.28774,
				"method": "rhf"
			},
			{
				"type": "occ",
				"energy": -0.28618,
				"method": "rhf"
			},
			{
				"type": "occ",
				"energy": -0.26261,
				"method": "rhf"
			},
			{
				"type": "occ",
				"energy": -0.25162,
				"method": "rhf"
			},
			{
				"type": "unocc",
				"energy": -0.06989,
				"method": "rhf"
			},
			{
				"type": "unocc",
				"energy": -0.04001,
				"method": "rhf"
			},
			{
				"type": "unocc",
				"energy": -0.00375,
				"method": "rhf"
			},
			{
				"type": "unocc",
				"energy": 0.01571,
				"method": "rhf"
			},
			{
				"type": "unocc",
				"energy": 0.0514,
				"method": "rhf"
			}
		],
		"cosmo_sigma_profile": { 
			"-0.025": 0.0,
			"-0.024": 0.0,
			"-0.023": 0.0,
			"-0.022": 0.0,
			"-0.021": 0.0,
			"-0.02": 0.0,
			"-0.019": 0.0,
			"-0.018": 0.0,
			"-0.017": 0.106300146427,
			"-0.016": 0.896011800399,
			"-0.015": 0.808023309206,
			"-0.014": 0.904434247498,
			"-0.013": 0.884008372583,
			"-0.012": 0.885118457125,
			"-0.011": 0.564888016793,
			"-0.01": 2.3243002176,
			"-0.009": 2.98604931891,
			"-0.008": 7.33731157023,
			"-0.007": 14.808823595,
			"-0.006": 21.1605373075,
			"-0.005": 19.874430691,
			"-0.004": 17.9383381057,
			"-0.003": 14.8277838181,
			"-0.002": 14.6373633239,
			"-0.001": 11.2695276172,
			"0.0": 10.6487391386,
			"0.001": 14.2604088581,
			"0.002": 14.829675098,
			"0.003": 12.3095742616,
			"0.004": 5.35872499276,
			"0.005": 4.59858714748,
			"0.006": 4.43996196638,
			"0.007": 4.69901167497,
			"0.008": 4.53410219973,
			"0.009": 5.36648152099,
			"0.01": 6.35590502846,
			"0.011": 9.91356177328,
			"0.012": 11.6983330186,
			"0.013": 5.08666958021,
			"0.014": 0.890160065896,
			"0.015": 0.0,
			"0.016": 0.0,
			"0.017": 0.0,
			"0.018": 0.0,
			"0.019": 0.0,
			"0.02": 0.0,
			"0.021": 0.0,
			"0.022": 0.0,
			"0.023": 0.0,
			"0.024": 0.0,
			"0.025": 0.0
		}
	}
}
