{
	 "smiles": "COC1=C(NS(=O)(=O)C2=C(C=CC(N)=C2)N2CCOCC2)C=CC=C1", 
	 "Tm": 471.15, 
	 "num_atms": 46, 
	 "gaussian": { 
		 "optdone": 1, 
		 "sigma_profile": "yes", 
		 "theory": "DFT", 
		 "functional": "B3LYP", 
		 "basiset": "6-31G**", 
		 "properties": { 
			 "R2extent": 9418.1703, 
			 "electric_dipole_moment_norm": 5.73273603265, 
			 "electric_quadrupole_moment_norm": 26.1686060972, 
			 "total_energy": -1523.69241535, 
			 "HOMO_LUMO_gap": 0.17693, 
			 "cosmo_polarized_energy": -23.1, 
			 "cosmo_cavitation_energy": 47.07, 
			 "cosmo_dispersion_energy": -32.9, 
			 "cosmo_repulsion_energy": 2.4, 
			 "cosmo_total_nonelectrostatic_energy": 16.57, 
			 "SMD_solvation_energy": 7.58 
		},
		"coords": [
			{
				"x": -2.6389546533,
				"y": 2.4720243969,
				"z": -0.0183670369,
				"element": "C" 
			},
			{
				"x": -1.7578529952,
				"y": 1.3772464867,
				"z": 0.1986941346,
				"element": "O" 
			},
			{
				"x": -1.7939068088,
				"y": 0.7273526345,
				"z": 1.4000512404,
				"element": "C" 
			},
			{
				"x": -0.7513681927,
				"y": -0.2031383861,
				"z": 1.6074806307,
				"element": "C" 
			},
			{
				"x": 0.1988959124,
				"y": -0.4005411324,
				"z": 0.5597372018,
				"element": "N" 
			},
			{
				"x": 1.8382140458,
				"y": -0.0513784807,
				"z": 0.8725334467,
				"element": "S" 
			},
			{
				"x": 2.1027805285,
				"y": 1.3957305941,
				"z": 0.849829431,
				"element": "O" 
			},
			{
				"x": 2.2415870121,
				"y": -0.8204620906,
				"z": 2.0550969621,
				"element": "O" 
			},
			{
				"x": 2.6079482858,
				"y": -0.8045565505,
				"z": -0.5761293047,
				"element": "C" 
			},
			{
				"x": 2.2430960335,
				"y": -0.4658393852,
				"z": -1.8925369019,
				"element": "C" 
			},
			{
				"x": 2.9458271729,
				"y": -1.1087472171,
				"z": -2.9210175516,
				"element": "C" 
			},
			{
				"x": 3.9536539092,
				"y": -2.0329502983,
				"z": -2.6631513361,
				"element": "C" 
			},
			{
				"x": 4.314582449,
				"y": -2.3503816178,
				"z": -1.3439105682,
				"element": "C" 
			},
			{
				"x": 5.3588713073,
				"y": -3.2278764498,
				"z": -1.0721891701,
				"element": "N" 
			},
			{
				"x": 3.6197505674,
				"y": -1.7182729904,
				"z": -0.2997900044,
				"element": "C" 
			},
			{
				"x": 1.1878533182,
				"y": 0.4705561688,
				"z": -2.1556692614,
				"element": "N" 
			},
			{
				"x": 1.6560593697,
				"y": 1.8750840126,
				"z": -2.3057605829,
				"element": "C" 
			},
			{
				"x": 0.5898571823,
				"y": 2.7086878684,
				"z": -3.0412431854,
				"element": "C" 
			},
			{
				"x": -0.7213715431,
				"y": 2.2886461594,
				"z": -2.7025858021,
				"element": "O" 
			},
			{
				"x": -0.9964281347,
				"y": 0.9551938031,
				"z": -3.1309610146,
				"element": "C" 
			},
			{
				"x": 0.2760667113,
				"y": 0.0979669064,
				"z": -3.2419148973,
				"element": "C" 
			},
			{
				"x": -0.7147185554,
				"y": -0.9408775566,
				"z": 2.7909963051,
				"element": "C" 
			},
			{
				"x": -1.6849774429,
				"y": -0.7404772258,
				"z": 3.7758855775,
				"element": "C" 
			},
			{
				"x": -2.7092251498,
				"y": 0.1799026381,
				"z": 3.5688739828,
				"element": "C" 
			},
			{
				"x": -2.7718824593,
				"y": 0.9111828971,
				"z": 2.378540079,
				"element": "C" 
			},
			{
				"x": -3.6860501919,
				"y": 2.1440507705,
				"z": -0.0521893803,
				"element": "H" 
			},
			{
				"x": -2.3466611728,
				"y": 2.8875837455,
				"z": -0.9823932472,
				"element": "H" 
			},
			{
				"x": -2.525420073,
				"y": 3.2296941485,
				"z": 0.766649961,
				"element": "H" 
			},
			{
				"x": -0.0373453707,
				"y": 0.1293674163,
				"z": -0.2844080857,
				"element": "H" 
			},
			{
				"x": 2.6962262547,
				"y": -0.8836713363,
				"z": -3.9532850616,
				"element": "H" 
			},
			{
				"x": 4.4723935469,
				"y": -2.5085614398,
				"z": -3.4917335774,
				"element": "H" 
			},
			{
				"x": 5.5712097759,
				"y": -3.898746371,
				"z": -1.7967262035,
				"element": "H" 
			},
			{
				"x": 5.3566264717,
				"y": -3.6406072803,
				"z": -0.1501688262,
				"element": "H" 
			},
			{
				"x": 3.8477212974,
				"y": -1.9460688007,
				"z": 0.73631336,
				"element": "H" 
			},
			{
				"x": 1.8504002627,
				"y": 2.2713294949,
				"z": -1.3073979539,
				"element": "H" 
			},
			{
				"x": 2.5956531457,
				"y": 1.9187747749,
				"z": -2.8808813586,
				"element": "H" 
			},
			{
				"x": 0.7381385341,
				"y": 2.6603600995,
				"z": -4.1318414185,
				"element": "H" 
			},
			{
				"x": 0.669686824,
				"y": 3.7588051779,
				"z": -2.7482838358,
				"element": "H" 
			},
			{
				"x": -1.5156832773,
				"y": 0.9659098284,
				"z": -4.1027896363,
				"element": "H" 
			},
			{
				"x": -1.6711222306,
				"y": 0.5347933777,
				"z": -2.3796760683,
				"element": "H" 
			},
			{
				"x": 0.0122299024,
				"y": -0.9586543069,
				"z": -3.1413967696,
				"element": "H" 
			},
			{
				"x": 0.7316211381,
				"y": 0.2222438247,
				"z": -4.2396445759,
				"element": "H" 
			},
			{
				"x": 0.0876281605,
				"y": -1.6536508393,
				"z": 2.9351166021,
				"element": "H" 
			},
			{
				"x": -1.6386652868,
				"y": -1.3115877002,
				"z": 4.6978223469,
				"element": "H" 
			},
			{
				"x": -3.4702675855,
				"y": 0.334204936,
				"z": 4.328127755,
				"element": "H" 
			},
			{
				"x": -3.5740779957,
				"y": 1.6229552946,
				"z": 2.2221935993,
				"element": "H" 
			}
		],
		 "valence_orbital": [ 
			{
				"type": "occ",
				"energy": -0.25566,
				"method": "rhf"
			},
			{
				"type": "occ",
				"energy": -0.23813,
				"method": "rhf"
			},
			{
				"type": "occ",
				"energy": -0.22869,
				"method": "rhf"
			},
			{
				"type": "occ",
				"energy": -0.20891,
				"method": "rhf"
			},
			{
				"type": "occ",
				"energy": -0.20271,
				"method": "rhf"
			},
			{
				"type": "unocc",
				"energy": -0.02578,
				"method": "rhf"
			},
			{
				"type": "unocc",
				"energy": -0.00417,
				"method": "rhf"
			},
			{
				"type": "unocc",
				"energy": 0.00383,
				"method": "rhf"
			},
			{
				"type": "unocc",
				"energy": 0.01943,
				"method": "rhf"
			},
			{
				"type": "unocc",
				"energy": 0.06759,
				"method": "rhf"
			}
		],
		"cosmo_sigma_profile": { 
			"-0.025": 0.0,
			"-0.024": 0.0,
			"-0.023": 0.0,
			"-0.022": 0.0,
			"-0.021": 0.0,
			"-0.02": 0.0,
			"-0.019": 0.0,
			"-0.018": 0.0,
			"-0.017": 0.0,
			"-0.016": 0.0,
			"-0.015": 0.0,
			"-0.014": 0.0433854022636,
			"-0.013": 1.74605382635,
			"-0.012": 3.31219207069,
			"-0.011": 3.31290587302,
			"-0.01": 3.09952830726,
			"-0.009": 2.68028713745,
			"-0.008": 3.4396157081,
			"-0.007": 4.97376746258,
			"-0.006": 15.2480575608,
			"-0.005": 28.2667517302,
			"-0.004": 40.4007510485,
			"-0.003": 38.0146988943,
			"-0.002": 26.2042055503,
			"-0.001": 19.6465340989,
			"0.0": 18.9457560516,
			"0.001": 17.0740611952,
			"0.002": 22.5416823465,
			"0.003": 27.2337981013,
			"0.004": 25.4139963598,
			"0.005": 18.24552083,
			"0.006": 10.495813119,
			"0.007": 7.73923578127,
			"0.008": 6.91471455487,
			"0.009": 7.4252321751,
			"0.01": 8.14327932742,
			"0.011": 6.84652359778,
			"0.012": 4.3077065777,
			"0.013": 0.950812813507,
			"0.014": 0.0332591743064,
			"0.015": 0.0,
			"0.016": 0.0,
			"0.017": 0.0,
			"0.018": 0.0,
			"0.019": 0.0,
			"0.02": 0.0,
			"0.021": 0.0,
			"0.022": 0.0,
			"0.023": 0.0,
			"0.024": 0.0,
			"0.025": 0.0
		}
	}
}
