{
	 "smiles": "FC(F)(F)C1=NNC(=O)C1=NNC1=CC(Cl)=CC=C1Cl", 
	 "Tm": 487.15, 
	 "num_atms": 25, 
	 "gaussian": { 
		 "optdone": 1, 
		 "sigma_profile": "yes", 
		 "theory": "DFT", 
		 "functional": "B3LYP", 
		 "basiset": "6-31G**", 
		 "properties": { 
			 "R2extent": 8183.6037, 
			 "electric_dipole_moment_norm": 2.81237334115, 
			 "electric_quadrupole_moment_norm": 10.219142786, 
			 "total_energy": -1898.16235888, 
			 "HOMO_LUMO_gap": 0.12459, 
			 "cosmo_polarized_energy": -11.49, 
			 "cosmo_cavitation_energy": 36.67, 
			 "cosmo_dispersion_energy": -25.87, 
			 "cosmo_repulsion_energy": 1.94, 
			 "cosmo_total_nonelectrostatic_energy": 12.74, 
			 "SMD_solvation_energy": 6.0 
		},
		"coords": [
			{
				"x": -1.8130437426,
				"y": -2.1809078472,
				"z": -3.789140702,
				"element": "F" 
			},
			{
				"x": -1.230390975,
				"y": -1.5110589936,
				"z": -2.7863047528,
				"element": "C" 
			},
			{
				"x": -0.5057712828,
				"y": -2.3869725721,
				"z": -2.0572746569,
				"element": "F" 
			},
			{
				"x": -0.3622003264,
				"y": -0.6240115708,
				"z": -3.3186302432,
				"element": "F" 
			},
			{
				"x": -2.2368274675,
				"y": -0.8110945026,
				"z": -1.9223500973,
				"element": "C" 
			},
			{
				"x": -3.5136412912,
				"y": -0.8762723178,
				"z": -2.176221125,
				"element": "N" 
			},
			{
				"x": -4.1485986181,
				"y": -0.1326138464,
				"z": -1.2066129949,
				"element": "N" 
			},
			{
				"x": -3.2966037305,
				"y": 0.4419382015,
				"z": -0.288681047,
				"element": "C" 
			},
			{
				"x": -3.5724172674,
				"y": 1.1535606539,
				"z": 0.6803598292,
				"element": "O" 
			},
			{
				"x": -1.967583862,
				"y": -0.0067391443,
				"z": -0.753219189,
				"element": "C" 
			},
			{
				"x": -0.8044116091,
				"y": 0.2680547081,
				"z": -0.2168961344,
				"element": "N" 
			},
			{
				"x": -0.7978115747,
				"y": 1.0273546142,
				"z": 0.8550677834,
				"element": "N" 
			},
			{
				"x": 0.406983762,
				"y": 1.3613722176,
				"z": 1.4819889542,
				"element": "C" 
			},
			{
				"x": 1.6320469818,
				"y": 0.8946355802,
				"z": 0.9826822281,
				"element": "C" 
			},
			{
				"x": 2.8094344528,
				"y": 1.2453450366,
				"z": 1.6298341979,
				"element": "C" 
			},
			{
				"x": 4.3348062714,
				"y": 0.6573306377,
				"z": 0.9985624907,
				"element": "Cl" 
			},
			{
				"x": 2.8071804827,
				"y": 2.0536538476,
				"z": 2.76926126,
				"element": "C" 
			},
			{
				"x": 1.5897715865,
				"y": 2.515518177,
				"z": 3.2626806027,
				"element": "C" 
			},
			{
				"x": 0.3974664052,
				"y": 2.1753458862,
				"z": 2.6284845755,
				"element": "C" 
			},
			{
				"x": -1.1203776782,
				"y": 2.771532342,
				"z": 3.2723418812,
				"element": "Cl" 
			},
			{
				"x": -5.1541899867,
				"y": -0.0557444144,
				"z": -1.2270082778,
				"element": "H" 
			},
			{
				"x": -1.6935084876,
				"y": 1.3714518152,
				"z": 1.225473669,
				"element": "H" 
			},
			{
				"x": 1.6382237838,
				"y": 0.2681547936,
				"z": 0.1002719315,
				"element": "H" 
			},
			{
				"x": 3.7372684351,
				"y": 2.3156503347,
				"z": 3.2593324719,
				"element": "H" 
			},
			{
				"x": 1.5586957385,
				"y": 3.144316363,
				"z": 4.1452973452,
				"element": "H" 
			}
		],
		 "valence_orbital": [ 
			{
				"type": "occ",
				"energy": -0.31954,
				"method": "rhf"
			},
			{
				"type": "occ",
				"energy": -0.2777,
				"method": "rhf"
			},
			{
				"type": "occ",
				"energy": -0.27471,
				"method": "rhf"
			},
			{
				"type": "occ",
				"energy": -0.26378,
				"method": "rhf"
			},
			{
				"type": "occ",
				"energy": -0.23687,
				"method": "rhf"
			},
			{
				"type": "unocc",
				"energy": -0.11228,
				"method": "rhf"
			},
			{
				"type": "unocc",
				"energy": -0.03856,
				"method": "rhf"
			},
			{
				"type": "unocc",
				"energy": -0.01969,
				"method": "rhf"
			},
			{
				"type": "unocc",
				"energy": 0.00129,
				"method": "rhf"
			},
			{
				"type": "unocc",
				"energy": 0.00178,
				"method": "rhf"
			}
		],
		"cosmo_sigma_profile": { 
			"-0.025": 0.0,
			"-0.024": 0.0,
			"-0.023": 0.0,
			"-0.022": 0.0,
			"-0.021": 0.0,
			"-0.02": 0.0,
			"-0.019": 0.0,
			"-0.018": 0.187055274573,
			"-0.017": 1.60676714605,
			"-0.016": 0.812995330435,
			"-0.015": 1.47809034231,
			"-0.014": 0.801773900291,
			"-0.013": 0.824386072586,
			"-0.012": 1.09595531184,
			"-0.011": 0.776878938063,
			"-0.01": 0.599281707337,
			"-0.009": 1.39490034059,
			"-0.008": 5.06610974274,
			"-0.007": 6.76159060595,
			"-0.006": 9.12601846203,
			"-0.005": 10.7996105416,
			"-0.004": 12.5706880898,
			"-0.003": 17.2315553414,
			"-0.002": 21.9493988115,
			"-0.001": 24.841863957,
			"0.0": 30.910629603,
			"0.001": 33.3348263479,
			"0.002": 43.5772740548,
			"0.003": 36.1052756599,
			"0.004": 15.864286165,
			"0.005": 3.71390312421,
			"0.006": 2.44896840528,
			"0.007": 2.04323269226,
			"0.008": 3.02895962488,
			"0.009": 3.0195924556,
			"0.01": 2.98179323959,
			"0.011": 3.01703465614,
			"0.012": 2.7628659424,
			"0.013": 0.572112344812,
			"0.014": 0.0,
			"0.015": 0.0,
			"0.016": 0.0,
			"0.017": 0.0,
			"0.018": 0.0,
			"0.019": 0.0,
			"0.02": 0.0,
			"0.021": 0.0,
			"0.022": 0.0,
			"0.023": 0.0,
			"0.024": 0.0,
			"0.025": 0.0
		}
	}
}
