{
	 "smiles": "COC1=C(OC)C=C(C=C1)C1=NC2=C(C=CC=C2)C(=C1)C(=O)NN", 
	 "Tm": 455.15, 
	 "num_atms": 41, 
	 "gaussian": { 
		 "optdone": 1, 
		 "sigma_profile": "yes", 
		 "theory": "DFT", 
		 "functional": "B3LYP", 
		 "basiset": "6-31G**", 
		 "properties": { 
			 "R2extent": 10931.6022, 
			 "electric_dipole_moment_norm": 4.34672217654, 
			 "electric_quadrupole_moment_norm": 25.0813811406, 
			 "total_energy": -1086.04475953, 
			 "HOMO_LUMO_gap": 0.14394, 
			 "cosmo_polarized_energy": -22.48, 
			 "cosmo_cavitation_energy": 45.27, 
			 "cosmo_dispersion_energy": -32.13, 
			 "cosmo_repulsion_energy": 2.46, 
			 "cosmo_total_nonelectrostatic_energy": 15.6, 
			 "SMD_solvation_energy": 9.06 
		},
		"coords": [
			{
				"x": 4.9396389897,
				"y": 2.4113077056,
				"z": -2.3219890608,
				"element": "C" 
			},
			{
				"x": 3.9806789321,
				"y": 2.5490600616,
				"z": -1.2841080889,
				"element": "O" 
			},
			{
				"x": 3.0408762801,
				"y": 1.5702664313,
				"z": -1.1412699723,
				"element": "C" 
			},
			{
				"x": 2.0854866655,
				"y": 1.7647325511,
				"z": -0.1180448286,
				"element": "C" 
			},
			{
				"x": 2.0888195042,
				"y": 2.8931868882,
				"z": 0.6675862306,
				"element": "O" 
			},
			{
				"x": 3.191601055,
				"y": 3.0240011494,
				"z": 1.5671493506,
				"element": "C" 
			},
			{
				"x": 1.0759406704,
				"y": 0.8288677936,
				"z": 0.0695917783,
				"element": "C" 
			},
			{
				"x": 0.9766846931,
				"y": -0.3216890393,
				"z": -0.7324052875,
				"element": "C" 
			},
			{
				"x": 1.9464915085,
				"y": -0.5148789561,
				"z": -1.7239391831,
				"element": "C" 
			},
			{
				"x": 2.9622126749,
				"y": 0.4171040163,
				"z": -1.9300871782,
				"element": "C" 
			},
			{
				"x": -0.1022276301,
				"y": -1.3242643831,
				"z": -0.5432142128,
				"element": "C" 
			},
			{
				"x": 0.0971445538,
				"y": -2.5334628046,
				"z": -1.0475718504,
				"element": "N" 
			},
			{
				"x": -0.8696925097,
				"y": -3.4796226995,
				"z": -0.9039755659,
				"element": "C" 
			},
			{
				"x": -2.1146475841,
				"y": -3.236540625,
				"z": -0.2351507322,
				"element": "C" 
			},
			{
				"x": -3.0584334279,
				"y": -4.2943874363,
				"z": -0.1399125185,
				"element": "C" 
			},
			{
				"x": -2.7768070373,
				"y": -5.5322476125,
				"z": -0.6754449985,
				"element": "C" 
			},
			{
				"x": -1.546754856,
				"y": -5.7732657219,
				"z": -1.3342188465,
				"element": "C" 
			},
			{
				"x": -0.6146145075,
				"y": -4.7684079218,
				"z": -1.4473800834,
				"element": "C" 
			},
			{
				"x": -2.3011686552,
				"y": -1.9249713859,
				"z": 0.3062240937,
				"element": "C" 
			},
			{
				"x": -1.3046863796,
				"y": -0.9895881243,
				"z": 0.1430410403,
				"element": "C" 
			},
			{
				"x": -3.6086510028,
				"y": -1.5415414539,
				"z": 0.9428352025,
				"element": "C" 
			},
			{
				"x": -4.6916687842,
				"y": -1.8576219303,
				"z": 0.4625152301,
				"element": "O" 
			},
			{
				"x": -3.5835859157,
				"y": -0.7608500114,
				"z": 2.0805850146,
				"element": "N" 
			},
			{
				"x": -2.4593316013,
				"y": -0.6089119669,
				"z": 2.9037941818,
				"element": "N" 
			},
			{
				"x": 4.4612212512,
				"y": 2.3670322965,
				"z": -3.3082939623,
				"element": "H" 
			},
			{
				"x": 5.5701625685,
				"y": 3.3000070353,
				"z": -2.2677523543,
				"element": "H" 
			},
			{
				"x": 5.5614077534,
				"y": 1.5174904446,
				"z": -2.1841764332,
				"element": "H" 
			},
			{
				"x": 3.2396906312,
				"y": 2.1695663008,
				"z": 2.2552703862,
				"element": "H" 
			},
			{
				"x": 3.0095820424,
				"y": 3.9358797035,
				"z": 2.1401282014,
				"element": "H" 
			},
			{
				"x": 4.1408393386,
				"y": 3.1138117501,
				"z": 1.0311386527,
				"element": "H" 
			},
			{
				"x": 0.3784345107,
				"y": 1.0204085437,
				"z": 0.8776383944,
				"element": "H" 
			},
			{
				"x": 1.8905351486,
				"y": -1.4066554946,
				"z": -2.3372778496,
				"element": "H" 
			},
			{
				"x": 3.6853858868,
				"y": 0.2442150531,
				"z": -2.7185031079,
				"element": "H" 
			},
			{
				"x": -4.0113000959,
				"y": -4.1067209437,
				"z": 0.3388395385,
				"element": "H" 
			},
			{
				"x": -3.5086543977,
				"y": -6.3310148857,
				"z": -0.5967092102,
				"element": "H" 
			},
			{
				"x": -1.3433520805,
				"y": -6.7553967289,
				"z": -1.7516154869,
				"element": "H" 
			},
			{
				"x": 0.3374100944,
				"y": -4.9191632308,
				"z": -1.945726751,
				"element": "H" 
			},
			{
				"x": -1.4494437207,
				"y": 0.0147718088,
				"z": 0.5170913901,
				"element": "H" 
			},
			{
				"x": -4.5153163971,
				"y": -0.5922853742,
				"z": 2.4517419377,
				"element": "H" 
			},
			{
				"x": -2.3465277348,
				"y": 0.3709672945,
				"z": 3.147205652,
				"element": "H" 
			},
			{
				"x": -2.5665804349,
				"y": -1.1491880973,
				"z": 3.7597912877,
				"element": "H" 
			}
		],
		 "valence_orbital": [ 
			{
				"type": "occ",
				"energy": -0.253,
				"method": "rhf"
			},
			{
				"type": "occ",
				"energy": -0.24166,
				"method": "rhf"
			},
			{
				"type": "occ",
				"energy": -0.23538,
				"method": "rhf"
			},
			{
				"type": "occ",
				"energy": -0.22527,
				"method": "rhf"
			},
			{
				"type": "occ",
				"energy": -0.20229,
				"method": "rhf"
			},
			{
				"type": "unocc",
				"energy": -0.05835,
				"method": "rhf"
			},
			{
				"type": "unocc",
				"energy": -0.02204,
				"method": "rhf"
			},
			{
				"type": "unocc",
				"energy": 0.00447,
				"method": "rhf"
			},
			{
				"type": "unocc",
				"energy": 0.00634,
				"method": "rhf"
			},
			{
				"type": "unocc",
				"energy": 0.02488,
				"method": "rhf"
			}
		],
		"cosmo_sigma_profile": { 
			"-0.025": 0.0,
			"-0.024": 0.0,
			"-0.023": 0.0,
			"-0.022": 0.0,
			"-0.021": 0.0,
			"-0.02": 0.0,
			"-0.019": 0.0,
			"-0.018": 0.0,
			"-0.017": 0.0,
			"-0.016": 0.0,
			"-0.015": 0.0,
			"-0.014": 0.198478468611,
			"-0.013": 1.8259980272,
			"-0.012": 3.87661251043,
			"-0.011": 5.05159854399,
			"-0.01": 5.38861618615,
			"-0.009": 4.10211563416,
			"-0.008": 3.73456976033,
			"-0.007": 6.19732802786,
			"-0.006": 16.642992436,
			"-0.005": 24.2924340992,
			"-0.004": 28.8473768711,
			"-0.003": 29.9694656372,
			"-0.002": 24.6531840093,
			"-0.001": 17.5930463375,
			"0.0": 19.338970067,
			"0.001": 25.7826255263,
			"0.002": 25.8887319112,
			"0.003": 28.6620174189,
			"0.004": 27.1415734007,
			"0.005": 14.8145112105,
			"0.006": 7.1269837542,
			"0.007": 6.07418248826,
			"0.008": 6.29219753072,
			"0.009": 4.46712110127,
			"0.01": 5.4991445945,
			"0.011": 6.36999523486,
			"0.012": 4.3877139659,
			"0.013": 5.42304819281,
			"0.014": 1.30671993991,
			"0.015": 0.0,
			"0.016": 0.0,
			"0.017": 0.0,
			"0.018": 0.0,
			"0.019": 0.0,
			"0.02": 0.0,
			"0.021": 0.0,
			"0.022": 0.0,
			"0.023": 0.0,
			"0.024": 0.0,
			"0.025": 0.0
		}
	}
}
