{
	 "smiles": "O=C(NCC1CCCC1)N1C=CN=C1", 
	 "Tm": 335.15, 
	 "num_atms": 29, 
	 "gaussian": { 
		 "optdone": 1, 
		 "sigma_profile": "yes", 
		 "theory": "DFT", 
		 "functional": "B3LYP", 
		 "basiset": "6-31G**", 
		 "properties": { 
			 "R2extent": 3995.6655, 
			 "electric_dipole_moment_norm": 4.52280942115, 
			 "electric_quadrupole_moment_norm": 8.47826744034, 
			 "total_energy": -629.591968391, 
			 "HOMO_LUMO_gap": 0.21832, 
			 "cosmo_polarized_energy": -13.52, 
			 "cosmo_cavitation_energy": 31.21, 
			 "cosmo_dispersion_energy": -22.61, 
			 "cosmo_repulsion_energy": 1.79, 
			 "cosmo_total_nonelectrostatic_energy": 10.39, 
			 "SMD_solvation_energy": 3.82 
		},
		"coords": [
			{
				"x": 2.6908028415,
				"y": -0.8561191918,
				"z": -1.470643949,
				"element": "O" 
			},
			{
				"x": 1.597246433,
				"y": -0.8803059972,
				"z": -0.9337366033,
				"element": "C" 
			},
			{
				"x": 0.6206919342,
				"y": 0.0501780548,
				"z": -1.1605262662,
				"element": "N" 
			},
			{
				"x": -0.4311743802,
				"y": 0.520777413,
				"z": -0.2521879482,
				"element": "C" 
			},
			{
				"x": -0.3442683454,
				"y": 2.0288033536,
				"z": 0.003625139,
				"element": "C" 
			},
			{
				"x": -0.5694953171,
				"y": 2.9273507447,
				"z": -1.2290455836,
				"element": "C" 
			},
			{
				"x": -0.8369608809,
				"y": 4.3098943276,
				"z": -0.6113246193,
				"element": "C" 
			},
			{
				"x": -1.6821549948,
				"y": 4.0155752801,
				"z": 0.6545681621,
				"element": "C" 
			},
			{
				"x": -1.4179936216,
				"y": 2.5218641703,
				"z": 1.00493257,
				"element": "C" 
			},
			{
				"x": 1.2559141919,
				"y": -1.9396062375,
				"z": -0.0388625534,
				"element": "N" 
			},
			{
				"x": 2.2024036332,
				"y": -2.7090310707,
				"z": 0.627306046,
				"element": "C" 
			},
			{
				"x": 1.4965598495,
				"y": -3.691299304,
				"z": 1.2606572845,
				"element": "C" 
			},
			{
				"x": 0.1425105833,
				"y": -3.5817613392,
				"z": 0.9883814103,
				"element": "N" 
			},
			{
				"x": 0.0298063666,
				"y": -2.535926722,
				"z": 0.211924688,
				"element": "C" 
			},
			{
				"x": 0.9250997017,
				"y": 0.7138797303,
				"z": -1.8610664498,
				"element": "H" 
			},
			{
				"x": -0.3399304115,
				"y": -0.0189228486,
				"z": 0.6928547491,
				"element": "H" 
			},
			{
				"x": -1.4214124557,
				"y": 0.2832918391,
				"z": -0.6675167909,
				"element": "H" 
			},
			{
				"x": 0.6527856489,
				"y": 2.2471706524,
				"z": 0.4114035987,
				"element": "H" 
			},
			{
				"x": 0.2727593364,
				"y": 2.9379588445,
				"z": -1.9304943573,
				"element": "H" 
			},
			{
				"x": -1.4543826894,
				"y": 2.5793081468,
				"z": -1.7807658905,
				"element": "H" 
			},
			{
				"x": -1.3325961052,
				"y": 4.9967050489,
				"z": -1.3038309218,
				"element": "H" 
			},
			{
				"x": 0.1168912262,
				"y": 4.7716497144,
				"z": -0.3299018805,
				"element": "H" 
			},
			{
				"x": -2.7463525908,
				"y": 4.1771058147,
				"z": 0.4557853757,
				"element": "H" 
			},
			{
				"x": -1.4137414447,
				"y": 4.6826235355,
				"z": 1.4789419288,
				"element": "H" 
			},
			{
				"x": -1.0980154508,
				"y": 2.3804348446,
				"z": 2.0416799391,
				"element": "H" 
			},
			{
				"x": -2.3361447097,
				"y": 1.9349842817,
				"z": 0.8769397221,
				"element": "H" 
			},
			{
				"x": 3.2507149687,
				"y": -2.467794111,
				"z": 0.565788984,
				"element": "H" 
			},
			{
				"x": 1.8776580406,
				"y": -4.4778896319,
				"z": 1.8966385095,
				"element": "H" 
			},
			{
				"x": -0.8852213581,
				"y": -2.1769993429,
				"z": -0.2352242931,
				"element": "H" 
			}
		],
		 "valence_orbital": [ 
			{
				"type": "occ",
				"energy": -0.29751,
				"method": "rhf"
			},
			{
				"type": "occ",
				"energy": -0.28065,
				"method": "rhf"
			},
			{
				"type": "occ",
				"energy": -0.26817,
				"method": "rhf"
			},
			{
				"type": "occ",
				"energy": -0.26084,
				"method": "rhf"
			},
			{
				"type": "occ",
				"energy": -0.23378,
				"method": "rhf"
			},
			{
				"type": "unocc",
				"energy": -0.01546,
				"method": "rhf"
			},
			{
				"type": "unocc",
				"energy": 0.05715,
				"method": "rhf"
			},
			{
				"type": "unocc",
				"energy": 0.06118,
				"method": "rhf"
			},
			{
				"type": "unocc",
				"energy": 0.06665,
				"method": "rhf"
			},
			{
				"type": "unocc",
				"energy": 0.07738,
				"method": "rhf"
			}
		],
		"cosmo_sigma_profile": { 
			"-0.025": 0.0,
			"-0.024": 0.0,
			"-0.023": 0.0,
			"-0.022": 0.0,
			"-0.021": 0.0,
			"-0.02": 0.0,
			"-0.019": 0.0,
			"-0.018": 0.0,
			"-0.017": 0.0,
			"-0.016": 0.0,
			"-0.015": 0.0,
			"-0.014": 0.0,
			"-0.013": 0.124105754648,
			"-0.012": 0.887750204923,
			"-0.011": 0.767933037194,
			"-0.01": 1.60858481508,
			"-0.009": 2.62478175859,
			"-0.008": 4.03259162057,
			"-0.007": 5.71272774622,
			"-0.006": 6.82130081629,
			"-0.005": 10.0898586175,
			"-0.004": 17.0611794597,
			"-0.003": 26.9259833169,
			"-0.002": 31.8728677947,
			"-0.001": 30.2259353886,
			"0.0": 24.5105406445,
			"0.001": 18.9462312975,
			"0.002": 10.3011308581,
			"0.003": 6.64610543199,
			"0.004": 7.90149895193,
			"0.005": 5.85536617675,
			"0.006": 3.05732557986,
			"0.007": 2.31771707728,
			"0.008": 3.09714211875,
			"0.009": 2.79417182989,
			"0.01": 2.31000553055,
			"0.011": 4.06837216279,
			"0.012": 6.05055791584,
			"0.013": 4.21117000319,
			"0.014": 0.898046922422,
			"0.015": 1.34402554649,
			"0.016": 1.06796370171,
			"0.017": 0.777198354433,
			"0.018": 0.0866940911154,
			"0.019": 0.0,
			"0.02": 0.0,
			"0.021": 0.0,
			"0.022": 0.0,
			"0.023": 0.0,
			"0.024": 0.0,
			"0.025": 0.0
		}
	}
}
