{
	 "smiles": "SC1=NN=NN1CC=C", 
	 "Tm": 340.15, 
	 "num_atms": 15, 
	 "gaussian": { 
		 "optdone": 1, 
		 "sigma_profile": "yes", 
		 "theory": "DFT", 
		 "functional": "B3LYP", 
		 "basiset": "6-31G**", 
		 "properties": { 
			 "R2extent": 2566.892, 
			 "electric_dipole_moment_norm": 4.94224205903, 
			 "electric_quadrupole_moment_norm": 15.0373929283, 
			 "total_energy": -773.142718466, 
			 "HOMO_LUMO_gap": 0.23955, 
			 "cosmo_polarized_energy": -13.89, 
			 "cosmo_cavitation_energy": 21.91, 
			 "cosmo_dispersion_energy": -16.0, 
			 "cosmo_repulsion_energy": 1.27, 
			 "cosmo_total_nonelectrostatic_energy": 7.18, 
			 "SMD_solvation_energy": 2.09 
		},
		"coords": [
			{
				"x": -1.3665897902,
				"y": 2.5916268066,
				"z": 1.5349340657,
				"element": "S" 
			},
			{
				"x": -1.76209647,
				"y": 0.876978672,
				"z": 1.5388553982,
				"element": "C" 
			},
			{
				"x": -2.7912682859,
				"y": 0.3006979906,
				"z": 0.9419118793,
				"element": "N" 
			},
			{
				"x": -2.6798075898,
				"y": -1.0254637334,
				"z": 1.2301693273,
				"element": "N" 
			},
			{
				"x": -1.642698656,
				"y": -1.2664181912,
				"z": 1.9571977323,
				"element": "N" 
			},
			{
				"x": -1.0373559207,
				"y": -0.0672618697,
				"z": 2.1788726592,
				"element": "N" 
			},
			{
				"x": 0.2028191457,
				"y": 0.0269447765,
				"z": 2.9539090571,
				"element": "C" 
			},
			{
				"x": 1.4373253443,
				"y": -0.0914669353,
				"z": 2.097906813,
				"element": "C" 
			},
			{
				"x": 2.3642546467,
				"y": -1.0303902568,
				"z": 2.275858044,
				"element": "C" 
			},
			{
				"x": -2.4865453995,
				"y": 2.9242645674,
				"z": 0.8656311555,
				"element": "H" 
			},
			{
				"x": 0.176910412,
				"y": 0.9871135493,
				"z": 3.482913752,
				"element": "H" 
			},
			{
				"x": 0.1633593866,
				"y": -0.7709214856,
				"z": 3.6981002722,
				"element": "H" 
			},
			{
				"x": 1.5501629551,
				"y": 0.6534121567,
				"z": 1.3117420534,
				"element": "H" 
			},
			{
				"x": 3.2525974831,
				"y": -1.0758498572,
				"z": 1.6537558234,
				"element": "H" 
			},
			{
				"x": 2.2693327385,
				"y": -1.78826619,
				"z": 3.0495419676,
				"element": "H" 
			}
		],
		 "valence_orbital": [ 
			{
				"type": "occ",
				"energy": -0.31294,
				"method": "rhf"
			},
			{
				"type": "occ",
				"energy": -0.29849,
				"method": "rhf"
			},
			{
				"type": "occ",
				"energy": -0.28894,
				"method": "rhf"
			},
			{
				"type": "occ",
				"energy": -0.28414,
				"method": "rhf"
			},
			{
				"type": "occ",
				"energy": -0.26138,
				"method": "rhf"
			},
			{
				"type": "unocc",
				"energy": -0.02183,
				"method": "rhf"
			},
			{
				"type": "unocc",
				"energy": -0.0112,
				"method": "rhf"
			},
			{
				"type": "unocc",
				"energy": -0.00509,
				"method": "rhf"
			},
			{
				"type": "unocc",
				"energy": 0.02211,
				"method": "rhf"
			},
			{
				"type": "unocc",
				"energy": 0.04284,
				"method": "rhf"
			}
		],
		"cosmo_sigma_profile": { 
			"-0.025": 0.0,
			"-0.024": 0.0,
			"-0.023": 0.0,
			"-0.022": 0.0,
			"-0.021": 0.0,
			"-0.02": 0.0,
			"-0.019": 0.0,
			"-0.018": 0.0,
			"-0.017": 0.0,
			"-0.016": 0.0,
			"-0.015": 0.0,
			"-0.014": 0.136026752833,
			"-0.013": 1.46653115068,
			"-0.012": 1.69135462118,
			"-0.011": 0.978408402443,
			"-0.01": 1.36869401638,
			"-0.009": 1.22174877151,
			"-0.008": 6.04853264382,
			"-0.007": 8.60675862138,
			"-0.006": 11.9122242388,
			"-0.005": 14.6701609802,
			"-0.004": 12.4614026944,
			"-0.003": 10.7751357352,
			"-0.002": 10.7874284398,
			"-0.001": 9.94989192603,
			"0.0": 10.2613482785,
			"0.001": 10.7200491218,
			"0.002": 7.6433945646,
			"0.003": 9.10732585622,
			"0.004": 7.60577274685,
			"0.005": 7.18520537263,
			"0.006": 3.55490682622,
			"0.007": 3.50410534893,
			"0.008": 5.44496776885,
			"0.009": 4.60618199761,
			"0.01": 4.6838868705,
			"0.011": 4.49783154938,
			"0.012": 3.30051587336,
			"0.013": 2.15210240052,
			"0.014": 1.48990003881,
			"0.015": 0.237001800639,
			"0.016": 0.0,
			"0.017": 0.0,
			"0.018": 0.0,
			"0.019": 0.0,
			"0.02": 0.0,
			"0.021": 0.0,
			"0.022": 0.0,
			"0.023": 0.0,
			"0.024": 0.0,
			"0.025": 0.0
		}
	}
}
