{
	 "smiles": "SC1=NC=CS1", 
	 "Tm": 351.65, 
	 "num_atms": 9, 
	 "gaussian": { 
		 "optdone": 1, 
		 "sigma_profile": "yes", 
		 "theory": "DFT", 
		 "functional": "B3LYP", 
		 "basiset": "6-31G**", 
		 "properties": { 
			 "R2extent": 1785.235, 
			 "electric_dipole_moment_norm": 1.05628167645, 
			 "electric_quadrupole_moment_norm": 6.62051822594, 
			 "total_energy": -967.230189766, 
			 "HOMO_LUMO_gap": 0.19945, 
			 "cosmo_polarized_energy": -5.59, 
			 "cosmo_cavitation_energy": 16.51, 
			 "cosmo_dispersion_energy": -13.69, 
			 "cosmo_repulsion_energy": 1.06, 
			 "cosmo_total_nonelectrostatic_energy": 3.89, 
			 "SMD_solvation_energy": 1.05 
		},
		"coords": [
			{
				"x": 2.7892785122,
				"y": 1.4706856444,
				"z": 1.6910675796,
				"element": "S" 
			},
			{
				"x": 1.7125754711,
				"y": 1.6083947018,
				"z": 0.2914902115,
				"element": "C" 
			},
			{
				"x": 0.8113494756,
				"y": 2.5327533379,
				"z": 0.139187921,
				"element": "N" 
			},
			{
				"x": 0.1410115292,
				"y": 2.3629999223,
				"z": -1.0542692657,
				"element": "C" 
			},
			{
				"x": 0.5287387556,
				"y": 1.3053917058,
				"z": -1.8197702781,
				"element": "C" 
			},
			{
				"x": 1.8162946376,
				"y": 0.4434418063,
				"z": -1.026447732,
				"element": "S" 
			},
			{
				"x": 2.2694413993,
				"y": 2.554418978,
				"z": 2.2993786766,
				"element": "H" 
			},
			{
				"x": -0.6430463178,
				"y": 3.0632189979,
				"z": -1.3175099153,
				"element": "H" 
			},
			{
				"x": 0.1495565374,
				"y": 0.9836949056,
				"z": -2.7788271977,
				"element": "H" 
			}
		],
		 "valence_orbital": [ 
			{
				"type": "occ",
				"energy": -0.37084,
				"method": "rhf"
			},
			{
				"type": "occ",
				"energy": -0.30831,
				"method": "rhf"
			},
			{
				"type": "occ",
				"energy": -0.28692,
				"method": "rhf"
			},
			{
				"type": "occ",
				"energy": -0.28375,
				"method": "rhf"
			},
			{
				"type": "occ",
				"energy": -0.22836,
				"method": "rhf"
			},
			{
				"type": "unocc",
				"energy": -0.02891,
				"method": "rhf"
			},
			{
				"type": "unocc",
				"energy": -0.00848,
				"method": "rhf"
			},
			{
				"type": "unocc",
				"energy": 0.02799,
				"method": "rhf"
			},
			{
				"type": "unocc",
				"energy": 0.04644,
				"method": "rhf"
			},
			{
				"type": "unocc",
				"energy": 0.04697,
				"method": "rhf"
			}
		],
		"cosmo_sigma_profile": { 
			"-0.025": 0.0,
			"-0.024": 0.0,
			"-0.023": 0.0,
			"-0.022": 0.0,
			"-0.021": 0.0,
			"-0.02": 0.0,
			"-0.019": 0.0,
			"-0.018": 0.0,
			"-0.017": 0.0,
			"-0.016": 0.0,
			"-0.015": 0.0,
			"-0.014": 0.0,
			"-0.013": 0.0,
			"-0.012": 0.98671230817,
			"-0.011": 1.50306271718,
			"-0.01": 1.25371309176,
			"-0.009": 3.67277483166,
			"-0.008": 3.66088997994,
			"-0.007": 5.23652383181,
			"-0.006": 4.57016802838,
			"-0.005": 7.25972657729,
			"-0.004": 5.508589986,
			"-0.003": 5.83491203754,
			"-0.002": 7.34267597277,
			"-0.001": 8.07464743054,
			"0.0": 10.3480578336,
			"0.001": 14.8382801343,
			"0.002": 16.9329375941,
			"0.003": 15.0212510367,
			"0.004": 8.0573841887,
			"0.005": 4.06860740305,
			"0.006": 3.91560301596,
			"0.007": 3.17488577659,
			"0.008": 1.27658164571,
			"0.009": 1.08171756303,
			"0.01": 1.1938443858,
			"0.011": 0.592383910191,
			"0.012": 1.08682437647,
			"0.013": 0.904445207012,
			"0.014": 0.477718124744,
			"0.015": 0.0633844440576,
			"0.016": 0.0,
			"0.017": 0.0,
			"0.018": 0.0,
			"0.019": 0.0,
			"0.02": 0.0,
			"0.021": 0.0,
			"0.022": 0.0,
			"0.023": 0.0,
			"0.024": 0.0,
			"0.025": 0.0
		}
	}
}
