{
	 "smiles": "CCOC1=C(OC)C=CC(C=CC#N)=C1", 
	 "Tm": 331.15, 
	 "num_atms": 28, 
	 "gaussian": { 
		 "optdone": 1, 
		 "sigma_profile": "yes", 
		 "theory": "DFT", 
		 "functional": "B3LYP", 
		 "basiset": "6-31G**", 
		 "properties": { 
			 "R2extent": 5408.6663, 
			 "electric_dipole_moment_norm": 7.40586394217, 
			 "electric_quadrupole_moment_norm": 35.1293476427, 
			 "total_energy": -670.25874363, 
			 "HOMO_LUMO_gap": 0.15409, 
			 "cosmo_polarized_energy": -14.41, 
			 "cosmo_cavitation_energy": 33.43, 
			 "cosmo_dispersion_energy": -23.23, 
			 "cosmo_repulsion_energy": 1.84, 
			 "cosmo_total_nonelectrostatic_energy": 12.04, 
			 "SMD_solvation_energy": 8.45 
		},
		"coords": [
			{
				"x": -1.5777534879,
				"y": -0.1515854236,
				"z": -4.4182810417,
				"element": "C" 
			},
			{
				"x": -1.5139800803,
				"y": -0.2637329008,
				"z": -2.90626711,
				"element": "C" 
			},
			{
				"x": -0.1413508387,
				"y": -0.5172663824,
				"z": -2.5497430736,
				"element": "O" 
			},
			{
				"x": 0.1229934757,
				"y": -0.6722718432,
				"z": -1.2146650427,
				"element": "C" 
			},
			{
				"x": 0.069731192,
				"y": 0.4221572464,
				"z": -0.3189197556,
				"element": "C" 
			},
			{
				"x": -0.3058886226,
				"y": 1.6154128965,
				"z": -0.8510066137,
				"element": "O" 
			},
			{
				"x": -0.3350284009,
				"y": 2.756729305,
				"z": -0.0036726764,
				"element": "C" 
			},
			{
				"x": 0.4087256489,
				"y": 0.2200784706,
				"z": 1.0260335767,
				"element": "C" 
			},
			{
				"x": 0.8052482943,
				"y": -1.0357137416,
				"z": 1.4764808998,
				"element": "C" 
			},
			{
				"x": 0.8763083245,
				"y": -2.1309844042,
				"z": 0.6004550421,
				"element": "C" 
			},
			{
				"x": 1.2884781305,
				"y": -3.4695551742,
				"z": 1.0089373134,
				"element": "C" 
			},
			{
				"x": 1.6462631326,
				"y": -3.8731440949,
				"z": 2.248828846,
				"element": "C" 
			},
			{
				"x": 2.0313454844,
				"y": -5.2145630949,
				"z": 2.5285257918,
				"element": "C" 
			},
			{
				"x": 2.3487964564,
				"y": -6.3077940042,
				"z": 2.7776794321,
				"element": "N" 
			},
			{
				"x": 0.5215182919,
				"y": -1.9167991536,
				"z": -0.7466240447,
				"element": "C" 
			},
			{
				"x": -2.6081770057,
				"y": 0.0311201635,
				"z": -4.7391559357,
				"element": "H" 
			},
			{
				"x": -0.9533205293,
				"y": 0.6754576258,
				"z": -4.7678580439,
				"element": "H" 
			},
			{
				"x": -1.2247963523,
				"y": -1.0728276868,
				"z": -4.8905282172,
				"element": "H" 
			},
			{
				"x": -1.8583227237,
				"y": 0.6590689999,
				"z": -2.4274885404,
				"element": "H" 
			},
			{
				"x": -2.1375585937,
				"y": -1.0938528334,
				"z": -2.5452323865,
				"element": "H" 
			},
			{
				"x": -0.638764858,
				"y": 3.5908960766,
				"z": -0.6371452983,
				"element": "H" 
			},
			{
				"x": 0.6543885462,
				"y": 2.9657417893,
				"z": 0.4208588814,
				"element": "H" 
			},
			{
				"x": -1.0605949576,
				"y": 2.6369782264,
				"z": 0.8104763745,
				"element": "H" 
			},
			{
				"x": 0.3731001377,
				"y": 1.045367312,
				"z": 1.7270690206,
				"element": "H" 
			},
			{
				"x": 1.0656703869,
				"y": -1.1521100182,
				"z": 2.5235078046,
				"element": "H" 
			},
			{
				"x": 1.3034752163,
				"y": -4.2145595503,
				"z": 0.2158677065,
				"element": "H" 
			},
			{
				"x": 1.6570540166,
				"y": -3.1926346336,
				"z": 3.0955478003,
				"element": "H" 
			},
			{
				"x": 0.5637397158,
				"y": -2.7315131723,
				"z": -1.4634807093,
				"element": "H" 
			}
		],
		 "valence_orbital": [ 
			{
				"type": "occ",
				"energy": -0.3186,
				"method": "rhf"
			},
			{
				"type": "occ",
				"energy": -0.28428,
				"method": "rhf"
			},
			{
				"type": "occ",
				"energy": -0.28233,
				"method": "rhf"
			},
			{
				"type": "occ",
				"energy": -0.25365,
				"method": "rhf"
			},
			{
				"type": "occ",
				"energy": -0.21908,
				"method": "rhf"
			},
			{
				"type": "unocc",
				"energy": -0.06499,
				"method": "rhf"
			},
			{
				"type": "unocc",
				"energy": -0.0128,
				"method": "rhf"
			},
			{
				"type": "unocc",
				"energy": 0.031,
				"method": "rhf"
			},
			{
				"type": "unocc",
				"energy": 0.04129,
				"method": "rhf"
			},
			{
				"type": "unocc",
				"energy": 0.07386,
				"method": "rhf"
			}
		],
		"cosmo_sigma_profile": { 
			"-0.025": 0.0,
			"-0.024": 0.0,
			"-0.023": 0.0,
			"-0.022": 0.0,
			"-0.021": 0.0,
			"-0.02": 0.0,
			"-0.019": 0.0,
			"-0.018": 0.0,
			"-0.017": 0.0,
			"-0.016": 0.0,
			"-0.015": 0.0,
			"-0.014": 0.0,
			"-0.013": 0.0,
			"-0.012": 0.0,
			"-0.011": 0.0,
			"-0.01": 0.599833236973,
			"-0.009": 2.38882473602,
			"-0.008": 5.96665483692,
			"-0.007": 8.87525388146,
			"-0.006": 15.3671309334,
			"-0.005": 15.8441725118,
			"-0.004": 21.5392702541,
			"-0.003": 23.669312428,
			"-0.002": 21.7409271442,
			"-0.001": 19.9308621436,
			"0.0": 20.9365752955,
			"0.001": 21.6126515535,
			"0.002": 17.8253521776,
			"0.003": 17.083665142,
			"0.004": 10.9867037544,
			"0.005": 4.62586055274,
			"0.006": 4.53981415159,
			"0.007": 4.30221120611,
			"0.008": 6.18784960626,
			"0.009": 5.04506293493,
			"0.01": 6.47420269256,
			"0.011": 4.50703663985,
			"0.012": 3.43410836822,
			"0.013": 2.45540009739,
			"0.014": 0.889232322894,
			"0.015": 0.0,
			"0.016": 0.0,
			"0.017": 0.0,
			"0.018": 0.0,
			"0.019": 0.0,
			"0.02": 0.0,
			"0.021": 0.0,
			"0.022": 0.0,
			"0.023": 0.0,
			"0.024": 0.0,
			"0.025": 0.0
		}
	}
}
