{
	 "smiles": "N#CC(=CNNC1=CC=CC=C1)C1=CC=CC=C1", 
	 "Tm": 429.15, 
	 "num_atms": 31, 
	 "gaussian": { 
		 "optdone": 1, 
		 "sigma_profile": "yes", 
		 "theory": "DFT", 
		 "functional": "B3LYP", 
		 "basiset": "6-31G**", 
		 "properties": { 
			 "R2extent": 4600.7409, 
			 "electric_dipole_moment_norm": 4.84558671267, 
			 "electric_quadrupole_moment_norm": 23.1089463245, 
			 "total_energy": -743.619515766, 
			 "HOMO_LUMO_gap": 0.17683, 
			 "cosmo_polarized_energy": -18.64, 
			 "cosmo_cavitation_energy": 36.07, 
			 "cosmo_dispersion_energy": -23.64, 
			 "cosmo_repulsion_energy": 1.86, 
			 "cosmo_total_nonelectrostatic_energy": 14.29, 
			 "SMD_solvation_energy": 7.39 
		},
		"coords": [
			{
				"x": 2.6332936803,
				"y": -2.9644513387,
				"z": -1.5614296461,
				"element": "N" 
			},
			{
				"x": 1.834676744,
				"y": -2.1781009236,
				"z": -1.2402815551,
				"element": "C" 
			},
			{
				"x": 0.8728923955,
				"y": -1.1943617112,
				"z": -0.8482426895,
				"element": "C" 
			},
			{
				"x": -0.1816271313,
				"y": -1.6525154836,
				"z": -0.1115940334,
				"element": "C" 
			},
			{
				"x": -1.1858611394,
				"y": -0.9503812605,
				"z": 0.5058126619,
				"element": "N" 
			},
			{
				"x": -1.130005702,
				"y": 0.3847681519,
				"z": 0.8831634654,
				"element": "N" 
			},
			{
				"x": -0.2111998283,
				"y": 0.7769319541,
				"z": 1.8872415504,
				"element": "C" 
			},
			{
				"x": 0.1587554141,
				"y": 2.1285656088,
				"z": 1.9594622633,
				"element": "C" 
			},
			{
				"x": 0.9960550014,
				"y": 2.5708800658,
				"z": 2.9800303505,
				"element": "C" 
			},
			{
				"x": 1.4818289194,
				"y": 1.6784527389,
				"z": 3.9390400129,
				"element": "C" 
			},
			{
				"x": 1.1167167739,
				"y": 0.3344371673,
				"z": 3.8609006085,
				"element": "C" 
			},
			{
				"x": 0.2749136484,
				"y": -0.1209832789,
				"z": 2.8454938376,
				"element": "C" 
			},
			{
				"x": 1.1084670046,
				"y": 0.200855591,
				"z": -1.3128112539,
				"element": "C" 
			},
			{
				"x": 0.0842841211,
				"y": 0.9265871379,
				"z": -1.947586692,
				"element": "C" 
			},
			{
				"x": 0.3100089364,
				"y": 2.2245180725,
				"z": -2.4098466928,
				"element": "C" 
			},
			{
				"x": 1.568135681,
				"y": 2.8117289406,
				"z": -2.2630962334,
				"element": "C" 
			},
			{
				"x": 2.5995309926,
				"y": 2.0888757802,
				"z": -1.6593597835,
				"element": "C" 
			},
			{
				"x": 2.3739661919,
				"y": 0.7955901936,
				"z": -1.1903241845,
				"element": "C" 
			},
			{
				"x": -0.2845504359,
				"y": -2.7272952722,
				"z": 0.0184796285,
				"element": "H" 
			},
			{
				"x": -1.8953265371,
				"y": -1.4841753163,
				"z": 0.9848845414,
				"element": "H" 
			},
			{
				"x": -1.1418182978,
				"y": 1.0060975025,
				"z": 0.0814120346,
				"element": "H" 
			},
			{
				"x": -0.2088651541,
				"y": 2.8268612995,
				"z": 1.2119247652,
				"element": "H" 
			},
			{
				"x": 1.275278932,
				"y": 3.6199856208,
				"z": 3.0204426405,
				"element": "H" 
			},
			{
				"x": 2.1374744321,
				"y": 2.0255074565,
				"z": 4.7313909775,
				"element": "H" 
			},
			{
				"x": 1.4893260102,
				"y": -0.3740634442,
				"z": 4.5953874023,
				"element": "H" 
			},
			{
				"x": 0.0006051954,
				"y": -1.1690782483,
				"z": 2.7970183047,
				"element": "H" 
			},
			{
				"x": -0.8800770093,
				"y": 0.4524945877,
				"z": -2.1140659101,
				"element": "H" 
			},
			{
				"x": -0.4918962708,
				"y": 2.7672932087,
				"z": -2.9024809052,
				"element": "H" 
			},
			{
				"x": 1.7467176323,
				"y": 3.8189759429,
				"z": -2.6276547896,
				"element": "H" 
			},
			{
				"x": 3.5839047457,
				"y": 2.5345553592,
				"z": -1.5495482251,
				"element": "H" 
			},
			{
				"x": 3.1796950538,
				"y": 0.2383438973,
				"z": -0.7222624513,
				"element": "H" 
			}
		],
		 "valence_orbital": [ 
			{
				"type": "occ",
				"energy": -0.26717,
				"method": "rhf"
			},
			{
				"type": "occ",
				"energy": -0.2612,
				"method": "rhf"
			},
			{
				"type": "occ",
				"energy": -0.25229,
				"method": "rhf"
			},
			{
				"type": "occ",
				"energy": -0.22115,
				"method": "rhf"
			},
			{
				"type": "occ",
				"energy": -0.21363,
				"method": "rhf"
			},
			{
				"type": "unocc",
				"energy": -0.0368,
				"method": "rhf"
			},
			{
				"type": "unocc",
				"energy": -0.01496,
				"method": "rhf"
			},
			{
				"type": "unocc",
				"energy": -0.00338,
				"method": "rhf"
			},
			{
				"type": "unocc",
				"energy": 0.00121,
				"method": "rhf"
			},
			{
				"type": "unocc",
				"energy": 0.00954,
				"method": "rhf"
			}
		],
		"cosmo_sigma_profile": { 
			"-0.025": 0.0,
			"-0.024": 0.0,
			"-0.023": 0.0,
			"-0.022": 0.0,
			"-0.021": 0.0,
			"-0.02": 0.0,
			"-0.019": 0.0,
			"-0.018": 0.0,
			"-0.017": 0.0,
			"-0.016": 0.401153144201,
			"-0.015": 1.95061584177,
			"-0.014": 1.53319505841,
			"-0.013": 1.30643105985,
			"-0.012": 1.26091175789,
			"-0.011": 1.42631725941,
			"-0.01": 2.71150759184,
			"-0.009": 5.06683544488,
			"-0.008": 3.87965551767,
			"-0.007": 4.79931884407,
			"-0.006": 14.6672434458,
			"-0.005": 21.9923468241,
			"-0.004": 23.2274157212,
			"-0.003": 22.2949712983,
			"-0.002": 16.7831904385,
			"-0.001": 14.5683406475,
			"0.0": 14.9038283368,
			"0.001": 19.1296391685,
			"0.002": 18.3804985724,
			"0.003": 19.8729625699,
			"0.004": 19.0460769806,
			"0.005": 19.5686002173,
			"0.006": 12.9366161726,
			"0.007": 5.43903731742,
			"0.008": 2.81051993782,
			"0.009": 3.66890678247,
			"0.01": 4.05444117268,
			"0.011": 3.74915447041,
			"0.012": 3.01130550188,
			"0.013": 2.77959048179,
			"0.014": 2.04479978098,
			"0.015": 0.325012179067,
			"0.016": 0.0,
			"0.017": 0.0,
			"0.018": 0.0,
			"0.019": 0.0,
			"0.02": 0.0,
			"0.021": 0.0,
			"0.022": 0.0,
			"0.023": 0.0,
			"0.024": 0.0,
			"0.025": 0.0
		}
	}
}
