{
	 "smiles": "OC(=O)C1CN(CCC2=CC=CC=C2)C(=O)C1", 
	 "Tm": 462.15, 
	 "num_atms": 32, 
	 "gaussian": { 
		 "optdone": 1, 
		 "sigma_profile": "yes", 
		 "theory": "DFT", 
		 "functional": "B3LYP", 
		 "basiset": "6-31G**", 
		 "properties": { 
			 "R2extent": 5181.3701, 
			 "electric_dipole_moment_norm": 2.00554290156, 
			 "electric_quadrupole_moment_norm": 21.6933828275, 
			 "total_energy": -784.876121263, 
			 "HOMO_LUMO_gap": 0.2369, 
			 "cosmo_polarized_energy": -21.74, 
			 "cosmo_cavitation_energy": 34.92, 
			 "cosmo_dispersion_energy": -23.84, 
			 "cosmo_repulsion_energy": 1.87, 
			 "cosmo_total_nonelectrostatic_energy": 12.95, 
			 "SMD_solvation_energy": 6.64 
		},
		"coords": [
			{
				"x": -2.6787012844,
				"y": 3.0245964587,
				"z": 4.0452043361,
				"element": "O" 
			},
			{
				"x": -2.2211428056,
				"y": 1.7914116382,
				"z": 3.7030362369,
				"element": "C" 
			},
			{
				"x": -2.8980852115,
				"y": 0.8153166538,
				"z": 3.908822294,
				"element": "O" 
			},
			{
				"x": -0.8311471332,
				"y": 1.7645191561,
				"z": 3.0823809443,
				"element": "C" 
			},
			{
				"x": -0.416500121,
				"y": 0.3587066846,
				"z": 2.6009282023,
				"element": "C" 
			},
			{
				"x": 0.4997183918,
				"y": 0.6390489663,
				"z": 1.5025114411,
				"element": "N" 
			},
			{
				"x": 1.3119995802,
				"y": -0.3844853123,
				"z": 0.8684638257,
				"element": "C" 
			},
			{
				"x": 0.5035724376,
				"y": -1.5521621416,
				"z": 0.2699653613,
				"element": "C" 
			},
			{
				"x": -0.6037130991,
				"y": -1.1662908567,
				"z": -0.6945076552,
				"element": "C" 
			},
			{
				"x": -1.843082838,
				"y": -1.8174636904,
				"z": -0.624236253,
				"element": "C" 
			},
			{
				"x": -2.8693154696,
				"y": -1.5153218903,
				"z": -1.5210924124,
				"element": "C" 
			},
			{
				"x": -2.6726746537,
				"y": -0.5463227114,
				"z": -2.5053119987,
				"element": "C" 
			},
			{
				"x": -1.4459341553,
				"y": 0.1164222302,
				"z": -2.5808647812,
				"element": "C" 
			},
			{
				"x": -0.4203196218,
				"y": -0.1902793811,
				"z": -1.6855233857,
				"element": "C" 
			},
			{
				"x": 0.4049469856,
				"y": 1.9110348767,
				"z": 1.0022847714,
				"element": "C" 
			},
			{
				"x": 1.0309771344,
				"y": 2.36526354,
				"z": 0.0571767553,
				"element": "O" 
			},
			{
				"x": -0.6489708165,
				"y": 2.6534759016,
				"z": 1.8309561013,
				"element": "C" 
			},
			{
				"x": -2.030899835,
				"y": 3.7035745185,
				"z": 3.8078276456,
				"element": "H" 
			},
			{
				"x": -0.1240346762,
				"y": 2.1005437621,
				"z": 3.8529117432,
				"element": "H" 
			},
			{
				"x": -1.2943696646,
				"y": -0.209601172,
				"z": 2.2717990398,
				"element": "H" 
			},
			{
				"x": 0.0802178935,
				"y": -0.2173579673,
				"z": 3.3893330955,
				"element": "H" 
			},
			{
				"x": 2.0238812268,
				"y": -0.7897322685,
				"z": 1.6005887964,
				"element": "H" 
			},
			{
				"x": 1.891772697,
				"y": 0.1320385754,
				"z": 0.1002244091,
				"element": "H" 
			},
			{
				"x": 1.2254629696,
				"y": -2.2113771583,
				"z": -0.2325155887,
				"element": "H" 
			},
			{
				"x": 0.0736020203,
				"y": -2.1513969947,
				"z": 1.0812500188,
				"element": "H" 
			},
			{
				"x": -2.0053439443,
				"y": -2.5733548714,
				"z": 0.1409121328,
				"element": "H" 
			},
			{
				"x": -3.8211893697,
				"y": -2.0336181494,
				"z": -1.446079815,
				"element": "H" 
			},
			{
				"x": -3.4691646422,
				"y": -0.3052126166,
				"z": -3.2034889476,
				"element": "H" 
			},
			{
				"x": -1.2849704987,
				"y": 0.8793502707,
				"z": -3.3373833654,
				"element": "H" 
			},
			{
				"x": 0.5157200633,
				"y": 0.3560823901,
				"z": -1.7474481655,
				"element": "H" 
			},
			{
				"x": -1.565443793,
				"y": 2.7126104664,
				"z": 1.2314513847,
				"element": "H" 
			},
			{
				"x": -0.3143677665,
				"y": 3.6738810925,
				"z": 2.0346238329,
				"element": "H" 
			}
		],
		 "valence_orbital": [ 
			{
				"type": "occ",
				"energy": -0.28501,
				"method": "rhf"
			},
			{
				"type": "occ",
				"energy": -0.25556,
				"method": "rhf"
			},
			{
				"type": "occ",
				"energy": -0.24691,
				"method": "rhf"
			},
			{
				"type": "occ",
				"energy": -0.24583,
				"method": "rhf"
			},
			{
				"type": "occ",
				"energy": -0.23926,
				"method": "rhf"
			},
			{
				"type": "unocc",
				"energy": -0.00236,
				"method": "rhf"
			},
			{
				"type": "unocc",
				"energy": -0.00044,
				"method": "rhf"
			},
			{
				"type": "unocc",
				"energy": 0.00181,
				"method": "rhf"
			},
			{
				"type": "unocc",
				"energy": 0.01898,
				"method": "rhf"
			},
			{
				"type": "unocc",
				"energy": 0.04487,
				"method": "rhf"
			}
		],
		"cosmo_sigma_profile": { 
			"-0.025": 0.0,
			"-0.024": 0.0,
			"-0.023": 0.0,
			"-0.022": 0.0,
			"-0.021": 0.0,
			"-0.02": 0.0,
			"-0.019": 0.324616346804,
			"-0.018": 0.880279095592,
			"-0.017": 1.14616691814,
			"-0.016": 1.241668136,
			"-0.015": 1.11769569399,
			"-0.014": 0.958538853136,
			"-0.013": 1.10242225548,
			"-0.012": 1.31746658365,
			"-0.011": 1.16546380233,
			"-0.01": 1.48637506496,
			"-0.009": 1.77932105744,
			"-0.008": 4.87575755801,
			"-0.007": 8.30517070591,
			"-0.006": 12.0043804706,
			"-0.005": 24.3360389731,
			"-0.004": 28.1854267221,
			"-0.003": 26.0808750802,
			"-0.002": 18.4967488555,
			"-0.001": 15.8166119341,
			"0.0": 12.2710219649,
			"0.001": 11.9121298745,
			"0.002": 11.0931364211,
			"0.003": 11.2525582511,
			"0.004": 10.3753995297,
			"0.005": 12.5715950597,
			"0.006": 11.1005379533,
			"0.007": 6.84776800084,
			"0.008": 4.4327322271,
			"0.009": 4.74893196378,
			"0.01": 6.27492962853,
			"0.011": 7.3445593531,
			"0.012": 5.38334146577,
			"0.013": 4.05440590285,
			"0.014": 4.04706299221,
			"0.015": 1.04420473206,
			"0.016": 0.00293455442987,
			"0.017": 0.0,
			"0.018": 0.0,
			"0.019": 0.0,
			"0.02": 0.0,
			"0.021": 0.0,
			"0.022": 0.0,
			"0.023": 0.0,
			"0.024": 0.0,
			"0.025": 0.0
		}
	}
}
