{
	 "smiles": "CN1N=C(C)C=C1C(O)=O", 
	 "Tm": 483.15, 
	 "num_atms": 18, 
	 "gaussian": { 
		 "optdone": 1, 
		 "sigma_profile": "yes", 
		 "theory": "DFT", 
		 "functional": "B3LYP", 
		 "basiset": "6-31G**", 
		 "properties": { 
			 "R2extent": 1704.21, 
			 "electric_dipole_moment_norm": 3.01269867727, 
			 "electric_quadrupole_moment_norm": 13.0162141278, 
			 "total_energy": -493.404884525, 
			 "HOMO_LUMO_gap": 0.2082, 
			 "cosmo_polarized_energy": -13.63, 
			 "cosmo_cavitation_energy": 22.24, 
			 "cosmo_dispersion_energy": -16.5, 
			 "cosmo_repulsion_energy": 1.35, 
			 "cosmo_total_nonelectrostatic_energy": 7.08, 
			 "SMD_solvation_energy": 4.32 
		},
		"coords": [
			{
				"x": -0.4238050798,
				"y": -1.546985221,
				"z": 2.6811982008,
				"element": "C" 
			},
			{
				"x": 0.1214304932,
				"y": -1.046232574,
				"z": 1.4242810501,
				"element": "N" 
			},
			{
				"x": 1.4203616823,
				"y": -1.244327696,
				"z": 1.1517597984,
				"element": "N" 
			},
			{
				"x": 1.6407205172,
				"y": -0.6936488339,
				"z": -0.0505638476,
				"element": "C" 
			},
			{
				"x": 3.0043449523,
				"y": -0.7409063813,
				"z": -0.6697251039,
				"element": "C" 
			},
			{
				"x": 0.4547976625,
				"y": -0.1276976595,
				"z": -0.5550859014,
				"element": "C" 
			},
			{
				"x": -0.5119915561,
				"y": -0.3682305514,
				"z": 0.4188308715,
				"element": "C" 
			},
			{
				"x": -1.9489019425,
				"y": -0.0369747769,
				"z": 0.47712973,
				"element": "C" 
			},
			{
				"x": -2.4094589905,
				"y": 0.7654713648,
				"z": -0.516325268,
				"element": "O" 
			},
			{
				"x": -2.7049349368,
				"y": -0.4368289595,
				"z": 1.3353693385,
				"element": "O" 
			},
			{
				"x": -0.8752535774,
				"y": -0.7348322653,
				"z": 3.2531909372,
				"element": "H" 
			},
			{
				"x": 0.4135614097,
				"y": -1.9797714939,
				"z": 3.2267393775,
				"element": "H" 
			},
			{
				"x": -1.1907805815,
				"y": -2.299965975,
				"z": 2.4932664434,
				"element": "H" 
			},
			{
				"x": 2.9909299023,
				"y": -1.269889731,
				"z": -1.6289306371,
				"element": "H" 
			},
			{
				"x": 3.6939139272,
				"y": -1.2603616682,
				"z": -0.0010966646,
				"element": "H" 
			},
			{
				"x": 3.3964310835,
				"y": 0.2650779109,
				"z": -0.8549828027,
				"element": "H" 
			},
			{
				"x": 0.3284232449,
				"y": 0.3648891798,
				"z": -1.5101763336,
				"element": "H" 
			},
			{
				"x": -1.6801882106,
				"y": 1.0643153315,
				"z": -1.0769791883,
				"element": "H" 
			}
		],
		 "valence_orbital": [ 
			{
				"type": "occ",
				"energy": -0.32252,
				"method": "rhf"
			},
			{
				"type": "occ",
				"energy": -0.29844,
				"method": "rhf"
			},
			{
				"type": "occ",
				"energy": -0.2821,
				"method": "rhf"
			},
			{
				"type": "occ",
				"energy": -0.26471,
				"method": "rhf"
			},
			{
				"type": "occ",
				"energy": -0.25269,
				"method": "rhf"
			},
			{
				"type": "unocc",
				"energy": -0.04449,
				"method": "rhf"
			},
			{
				"type": "unocc",
				"energy": 0.03843,
				"method": "rhf"
			},
			{
				"type": "unocc",
				"energy": 0.05515,
				"method": "rhf"
			},
			{
				"type": "unocc",
				"energy": 0.09206,
				"method": "rhf"
			},
			{
				"type": "unocc",
				"energy": 0.11088,
				"method": "rhf"
			}
		],
		"cosmo_sigma_profile": { 
			"-0.025": 0.0,
			"-0.024": 0.0,
			"-0.023": 0.0,
			"-0.022": 0.0,
			"-0.021": 0.0,
			"-0.02": 0.0,
			"-0.019": 0.0819291358416,
			"-0.018": 1.25366914408,
			"-0.017": 1.16073967476,
			"-0.016": 0.79955348651,
			"-0.015": 1.38084498891,
			"-0.014": 1.22080581737,
			"-0.013": 0.586448050116,
			"-0.012": 0.934545743593,
			"-0.011": 1.38388593407,
			"-0.01": 1.33671901503,
			"-0.009": 1.00126434246,
			"-0.008": 1.79408963743,
			"-0.007": 2.04486733357,
			"-0.006": 5.69492314361,
			"-0.005": 10.1254397725,
			"-0.004": 15.8760246045,
			"-0.003": 19.2868945152,
			"-0.002": 14.8456204515,
			"-0.001": 13.5499794494,
			"0.0": 11.360855713,
			"0.001": 9.18207683554,
			"0.002": 8.70264776752,
			"0.003": 8.60567764389,
			"0.004": 5.44147896518,
			"0.005": 4.13302983917,
			"0.006": 4.77179739634,
			"0.007": 3.30017114589,
			"0.008": 3.86391736012,
			"0.009": 4.41337768238,
			"0.01": 6.28194959444,
			"0.011": 4.98473652259,
			"0.012": 4.20434234565,
			"0.013": 1.82301822919,
			"0.014": 0.961197755956,
			"0.015": 0.221992608674,
			"0.016": 0.0,
			"0.017": 0.0,
			"0.018": 0.0,
			"0.019": 0.0,
			"0.02": 0.0,
			"0.021": 0.0,
			"0.022": 0.0,
			"0.023": 0.0,
			"0.024": 0.0,
			"0.025": 0.0
		}
	}
}
