{
	 "smiles": "COC1=C(N)C=C(F)C(=C1)C(O)=O", 
	 "Tm": 463.15, 
	 "num_atms": 21, 
	 "gaussian": { 
		 "optdone": 1, 
		 "sigma_profile": "yes", 
		 "theory": "DFT", 
		 "functional": "B3LYP", 
		 "basiset": "6-31G**", 
		 "properties": { 
			 "R2extent": 3270.5088, 
			 "electric_dipole_moment_norm": 6.41292625484, 
			 "electric_quadrupole_moment_norm": 14.0624594353, 
			 "total_energy": -689.936868062, 
			 "HOMO_LUMO_gap": 0.17737, 
			 "cosmo_polarized_energy": -16.11, 
			 "cosmo_cavitation_energy": 25.65, 
			 "cosmo_dispersion_energy": -19.15, 
			 "cosmo_repulsion_energy": 1.5, 
			 "cosmo_total_nonelectrostatic_energy": 7.99, 
			 "SMD_solvation_energy": 6.69 
		},
		"coords": [
			{
				"x": -2.7442193626,
				"y": -2.0521023396,
				"z": 0.8014889325,
				"element": "C" 
			},
			{
				"x": -2.0694197956,
				"y": -1.3258147606,
				"z": 1.8201002037,
				"element": "O" 
			},
			{
				"x": -1.4003421235,
				"y": -0.1865579269,
				"z": 1.4559896933,
				"element": "C" 
			},
			{
				"x": -0.7636965327,
				"y": 0.481565972,
				"z": 2.5405221199,
				"element": "C" 
			},
			{
				"x": -0.821457005,
				"y": -0.0791487984,
				"z": 3.7950587414,
				"element": "N" 
			},
			{
				"x": -0.0658060561,
				"y": 1.6647934014,
				"z": 2.2737049608,
				"element": "C" 
			},
			{
				"x": -0.0091558826,
				"y": 2.1463396191,
				"z": 0.9747101895,
				"element": "C" 
			},
			{
				"x": 0.6917706357,
				"y": 3.3093280505,
				"z": 0.783190985,
				"element": "F" 
			},
			{
				"x": -0.617337968,
				"y": 1.5154302578,
				"z": -0.107337332,
				"element": "C" 
			},
			{
				"x": -1.3224588047,
				"y": 0.3248563917,
				"z": 0.1750538279,
				"element": "C" 
			},
			{
				"x": -0.6026462032,
				"y": 1.9747767028,
				"z": -1.5301640956,
				"element": "C" 
			},
			{
				"x": 0.0681598098,
				"y": 3.1126495593,
				"z": -1.8183957854,
				"element": "O" 
			},
			{
				"x": -1.1676083278,
				"y": 1.3618345581,
				"z": -2.4110712519,
				"element": "O" 
			},
			{
				"x": -3.5225790435,
				"y": -1.4435873106,
				"z": 0.3247898787,
				"element": "H" 
			},
			{
				"x": -3.2043866695,
				"y": -2.9090137845,
				"z": 1.2952759403,
				"element": "H" 
			},
			{
				"x": -2.0449360241,
				"y": -2.4057473514,
				"z": 0.0342292516,
				"element": "H" 
			},
			{
				"x": -0.6504400488,
				"y": 0.5211181637,
				"z": 4.5866346917,
				"element": "H" 
			},
			{
				"x": -1.5279307721,
				"y": -0.7875118517,
				"z": 3.9266359933,
				"element": "H" 
			},
			{
				"x": 0.4386001966,
				"y": 2.2087721629,
				"z": 3.0650285576,
				"element": "H" 
			},
			{
				"x": -1.7998947252,
				"y": -0.1602859372,
				"z": -0.66705967,
				"element": "H" 
			},
			{
				"x": 0.462984703,
				"y": 3.4819052216,
				"z": -1.0129858324,
				"element": "H" 
			}
		],
		 "valence_orbital": [ 
			{
				"type": "occ",
				"energy": -0.32377,
				"method": "rhf"
			},
			{
				"type": "occ",
				"energy": -0.29578,
				"method": "rhf"
			},
			{
				"type": "occ",
				"energy": -0.26228,
				"method": "rhf"
			},
			{
				"type": "occ",
				"energy": -0.24881,
				"method": "rhf"
			},
			{
				"type": "occ",
				"energy": -0.21278,
				"method": "rhf"
			},
			{
				"type": "unocc",
				"energy": -0.03541,
				"method": "rhf"
			},
			{
				"type": "unocc",
				"energy": -0.00194,
				"method": "rhf"
			},
			{
				"type": "unocc",
				"energy": 0.06455,
				"method": "rhf"
			},
			{
				"type": "unocc",
				"energy": 0.07398,
				"method": "rhf"
			},
			{
				"type": "unocc",
				"energy": 0.07875,
				"method": "rhf"
			}
		],
		"cosmo_sigma_profile": { 
			"-0.025": 0.0,
			"-0.024": 0.0,
			"-0.023": 0.0,
			"-0.022": 0.0,
			"-0.021": 0.0,
			"-0.02": 0.0,
			"-0.019": 0.0,
			"-0.018": 0.0,
			"-0.017": 0.0,
			"-0.016": 0.0,
			"-0.015": 0.00836068389848,
			"-0.014": 0.963385805468,
			"-0.013": 1.89709930093,
			"-0.012": 2.54851127415,
			"-0.011": 2.79987158924,
			"-0.01": 3.78698205891,
			"-0.009": 3.62488048712,
			"-0.008": 5.34974743692,
			"-0.007": 5.26638739353,
			"-0.006": 10.6858094314,
			"-0.005": 13.2382090692,
			"-0.004": 12.7014304695,
			"-0.003": 12.5764214943,
			"-0.002": 9.49516427861,
			"-0.001": 10.706031148,
			"0.0": 11.7743658575,
			"0.001": 14.830114391,
			"0.002": 20.2097616773,
			"0.003": 15.3939886347,
			"0.004": 7.21514769755,
			"0.005": 5.23002458778,
			"0.006": 3.41495632165,
			"0.007": 4.42384383108,
			"0.008": 3.35813157362,
			"0.009": 3.55695711601,
			"0.01": 4.16758087788,
			"0.011": 5.23798765341,
			"0.012": 5.89082713589,
			"0.013": 3.16286005248,
			"0.014": 1.12829158497,
			"0.015": 0.0,
			"0.016": 0.0,
			"0.017": 0.0,
			"0.018": 0.0,
			"0.019": 0.0,
			"0.02": 0.0,
			"0.021": 0.0,
			"0.022": 0.0,
			"0.023": 0.0,
			"0.024": 0.0,
			"0.025": 0.0
		}
	}
}
