{
	 "smiles": "NC1=NC(=CS1)C1=CC2=C(COC2)C=C1", 
	 "Tm": 478.15, 
	 "num_atms": 25, 
	 "gaussian": { 
		 "optdone": 1, 
		 "sigma_profile": "yes", 
		 "theory": "DFT", 
		 "functional": "B3LYP", 
		 "basiset": "6-31G**", 
		 "properties": { 
			 "R2extent": 5652.7092, 
			 "electric_dipole_moment_norm": 3.25155900608, 
			 "electric_quadrupole_moment_norm": 15.345949332, 
			 "total_energy": -1008.09614953, 
			 "HOMO_LUMO_gap": 0.16941, 
			 "cosmo_polarized_energy": -13.53, 
			 "cosmo_cavitation_energy": 30.34, 
			 "cosmo_dispersion_energy": -23.54, 
			 "cosmo_repulsion_energy": 1.8, 
			 "cosmo_total_nonelectrostatic_energy": 8.6, 
			 "SMD_solvation_energy": 3.53 
		},
		"coords": [
			{
				"x": 3.8670016716,
				"y": -4.5371687883,
				"z": -1.0096536215,
				"element": "N" 
			},
			{
				"x": 3.2503374363,
				"y": -3.3883597708,
				"z": -0.5674099248,
				"element": "C" 
			},
			{
				"x": 2.1801098497,
				"y": -2.8847535621,
				"z": -1.1023701074,
				"element": "N" 
			},
			{
				"x": 1.8290150183,
				"y": -1.6804309343,
				"z": -0.5040188274,
				"element": "C" 
			},
			{
				"x": 2.653465774,
				"y": -1.2800635118,
				"z": 0.5129869753,
				"element": "C" 
			},
			{
				"x": 3.9494971561,
				"y": -2.4249716304,
				"z": 0.7425968121,
				"element": "S" 
			},
			{
				"x": 0.6302769879,
				"y": -0.9692628056,
				"z": -0.9908306285,
				"element": "C" 
			},
			{
				"x": 0.2538313477,
				"y": 0.2839282185,
				"z": -0.4724417247,
				"element": "C" 
			},
			{
				"x": -0.887688932,
				"y": 0.9075693517,
				"z": -0.9573491653,
				"element": "C" 
			},
			{
				"x": -1.6647604105,
				"y": 0.3162218013,
				"z": -1.9537597824,
				"element": "C" 
			},
			{
				"x": -2.8150951767,
				"y": 1.2322590135,
				"z": -2.2765682682,
				"element": "C" 
			},
			{
				"x": -2.7240222799,
				"y": 2.3063099203,
				"z": -1.3347448111,
				"element": "O" 
			},
			{
				"x": -1.5019880279,
				"y": 2.2349025154,
				"z": -0.5936618227,
				"element": "C" 
			},
			{
				"x": -1.3035215066,
				"y": -0.9194659139,
				"z": -2.482969747,
				"element": "C" 
			},
			{
				"x": -0.1599832862,
				"y": -1.5548500731,
				"z": -1.9977524249,
				"element": "C" 
			},
			{
				"x": 3.2792640192,
				"y": -5.0865688604,
				"z": -1.6232166654,
				"element": "H" 
			},
			{
				"x": 4.3611163605,
				"y": -5.0844230631,
				"z": -0.3193494036,
				"element": "H" 
			},
			{
				"x": 2.5855635909,
				"y": -0.4093234423,
				"z": 1.1468953481,
				"element": "H" 
			},
			{
				"x": 0.8522172772,
				"y": 0.7624452303,
				"z": 0.2976879853,
				"element": "H" 
			},
			{
				"x": -3.7949447201,
				"y": 0.7462685312,
				"z": -2.1677747243,
				"element": "H" 
			},
			{
				"x": -2.753938228,
				"y": 1.6229477059,
				"z": -3.305548091,
				"element": "H" 
			},
			{
				"x": -1.7305222953,
				"y": 2.3229067971,
				"z": 0.4777330546,
				"element": "H" 
			},
			{
				"x": -0.8451170402,
				"y": 3.0785558465,
				"z": -0.8613811284,
				"element": "H" 
			},
			{
				"x": -1.8968997297,
				"y": -1.3923365354,
				"z": -3.2612839021,
				"element": "H" 
			},
			{
				"x": 0.1422851437,
				"y": -2.5185360403,
				"z": -2.3905154047,
				"element": "H" 
			}
		],
		 "valence_orbital": [ 
			{
				"type": "occ",
				"energy": -0.27472,
				"method": "rhf"
			},
			{
				"type": "occ",
				"energy": -0.25525,
				"method": "rhf"
			},
			{
				"type": "occ",
				"energy": -0.25076,
				"method": "rhf"
			},
			{
				"type": "occ",
				"energy": -0.23164,
				"method": "rhf"
			},
			{
				"type": "occ",
				"energy": -0.2007,
				"method": "rhf"
			},
			{
				"type": "unocc",
				"energy": -0.03129,
				"method": "rhf"
			},
			{
				"type": "unocc",
				"energy": -0.00043,
				"method": "rhf"
			},
			{
				"type": "unocc",
				"energy": 0.0073,
				"method": "rhf"
			},
			{
				"type": "unocc",
				"energy": 0.01538,
				"method": "rhf"
			},
			{
				"type": "unocc",
				"energy": 0.06785,
				"method": "rhf"
			}
		],
		"cosmo_sigma_profile": { 
			"-0.025": 0.0,
			"-0.024": 0.0,
			"-0.023": 0.0,
			"-0.022": 0.0,
			"-0.021": 0.0,
			"-0.02": 0.0,
			"-0.019": 0.0,
			"-0.018": 0.0,
			"-0.017": 0.0,
			"-0.016": 0.0,
			"-0.015": 0.210181681698,
			"-0.014": 1.69524252645,
			"-0.013": 2.98775739784,
			"-0.012": 2.6387644215,
			"-0.011": 2.63337986296,
			"-0.01": 2.68296858245,
			"-0.009": 3.37167601714,
			"-0.008": 4.28514412034,
			"-0.007": 4.35156233674,
			"-0.006": 6.57614788571,
			"-0.005": 15.155553765,
			"-0.004": 21.6382469363,
			"-0.003": 16.8974983014,
			"-0.002": 13.5761875548,
			"-0.001": 13.586695301,
			"0.0": 11.7704127928,
			"0.001": 15.8113382878,
			"0.002": 15.8075250351,
			"0.003": 19.4496314313,
			"0.004": 24.8256818415,
			"0.005": 17.1334522603,
			"0.006": 4.96801064722,
			"0.007": 4.35221602428,
			"0.008": 3.97400849202,
			"0.009": 2.97728827057,
			"0.01": 3.61549405277,
			"0.011": 2.89717288439,
			"0.012": 1.87013311121,
			"0.013": 1.7463827865,
			"0.014": 1.055397179,
			"0.015": 0.0,
			"0.016": 0.0,
			"0.017": 0.0,
			"0.018": 0.0,
			"0.019": 0.0,
			"0.02": 0.0,
			"0.021": 0.0,
			"0.022": 0.0,
			"0.023": 0.0,
			"0.024": 0.0,
			"0.025": 0.0
		}
	}
}
