{
	 "smiles": "CC1=CC(=C(Cl)C=C1Cl)S(Cl)(=O)=O", 
	 "Tm": 345.15, 
	 "num_atms": 18, 
	 "gaussian": { 
		 "optdone": 1, 
		 "sigma_profile": "yes", 
		 "theory": "DFT", 
		 "functional": "B3LYP", 
		 "basiset": "6-31G**", 
		 "properties": { 
			 "R2extent": 5919.8647, 
			 "electric_dipole_moment_norm": 4.63134791287, 
			 "electric_quadrupole_moment_norm": 15.4666296435, 
			 "total_energy": -2198.89797194, 
			 "HOMO_LUMO_gap": 0.1807, 
			 "cosmo_polarized_energy": -8.46, 
			 "cosmo_cavitation_energy": 29.07, 
			 "cosmo_dispersion_energy": -21.9, 
			 "cosmo_repulsion_energy": 1.68, 
			 "cosmo_total_nonelectrostatic_energy": 8.85, 
			 "SMD_solvation_energy": 3.26 
		},
		"coords": [
			{
				"x": 0.3776562634,
				"y": 0.9656200513,
				"z": -2.0153039467,
				"element": "C" 
			},
			{
				"x": 0.1117069721,
				"y": 0.7189815747,
				"z": -0.5541397692,
				"element": "C" 
			},
			{
				"x": -0.6943072461,
				"y": 1.5868890116,
				"z": 0.1869313829,
				"element": "C" 
			},
			{
				"x": -0.9593559771,
				"y": 1.3755433863,
				"z": 1.542697018,
				"element": "C" 
			},
			{
				"x": -0.4050517482,
				"y": 0.2724857521,
				"z": 2.2084062161,
				"element": "C" 
			},
			{
				"x": -0.6563170563,
				"y": -0.0504285708,
				"z": 3.8990371004,
				"element": "Cl" 
			},
			{
				"x": 0.4040073767,
				"y": -0.6059889409,
				"z": 1.4894903805,
				"element": "C" 
			},
			{
				"x": 0.648907161,
				"y": -0.3794331896,
				"z": 0.1362365945,
				"element": "C" 
			},
			{
				"x": 1.6716004151,
				"y": -1.5218607112,
				"z": -0.708420775,
				"element": "Cl" 
			},
			{
				"x": -2.066679429,
				"y": 2.5636145254,
				"z": 2.3146794545,
				"element": "S" 
			},
			{
				"x": -0.7385788537,
				"y": 3.6096779573,
				"z": 3.5981997627,
				"element": "Cl" 
			},
			{
				"x": -3.0367894223,
				"y": 1.8867848842,
				"z": 3.160983613,
				"element": "O" 
			},
			{
				"x": -2.4779218976,
				"y": 3.5211466482,
				"z": 1.2952873169,
				"element": "O" 
			},
			{
				"x": 0.0308012971,
				"y": 0.1262146279,
				"z": -2.6268788159,
				"element": "H" 
			},
			{
				"x": -0.1304638673,
				"y": 1.8710462892,
				"z": -2.3534113296,
				"element": "H" 
			},
			{
				"x": 1.4496124159,
				"y": 1.0789309743,
				"z": -2.2075084614,
				"element": "H" 
			},
			{
				"x": -1.1351034772,
				"y": 2.4516108124,
				"z": -0.2957005013,
				"element": "H" 
			},
			{
				"x": 0.8407770733,
				"y": -1.4627350824,
				"z": 1.9876147596,
				"element": "H" 
			}
		],
		 "valence_orbital": [ 
			{
				"type": "occ",
				"energy": -0.33646,
				"method": "rhf"
			},
			{
				"type": "occ",
				"energy": -0.32771,
				"method": "rhf"
			},
			{
				"type": "occ",
				"energy": -0.31807,
				"method": "rhf"
			},
			{
				"type": "occ",
				"energy": -0.29073,
				"method": "rhf"
			},
			{
				"type": "occ",
				"energy": -0.2762,
				"method": "rhf"
			},
			{
				"type": "unocc",
				"energy": -0.0955,
				"method": "rhf"
			},
			{
				"type": "unocc",
				"energy": -0.0604,
				"method": "rhf"
			},
			{
				"type": "unocc",
				"energy": -0.05075,
				"method": "rhf"
			},
			{
				"type": "unocc",
				"energy": -0.0129,
				"method": "rhf"
			},
			{
				"type": "unocc",
				"energy": 0.02378,
				"method": "rhf"
			}
		],
		"cosmo_sigma_profile": { 
			"-0.025": 0.0,
			"-0.024": 0.0,
			"-0.023": 0.0,
			"-0.022": 0.0,
			"-0.021": 0.0,
			"-0.02": 0.0,
			"-0.019": 0.0,
			"-0.018": 0.0,
			"-0.017": 0.0,
			"-0.016": 0.0,
			"-0.015": 0.0,
			"-0.014": 0.0,
			"-0.013": 0.0,
			"-0.012": 0.0,
			"-0.011": 0.0,
			"-0.01": 0.29104708903,
			"-0.009": 2.24391423666,
			"-0.008": 3.41708140757,
			"-0.007": 4.38746451427,
			"-0.006": 6.21922926862,
			"-0.005": 9.71681347934,
			"-0.004": 13.6765994224,
			"-0.003": 18.5261648357,
			"-0.002": 31.1272366046,
			"-0.001": 32.3442080914,
			"0.0": 16.1043456929,
			"0.001": 16.5882064088,
			"0.002": 23.0592084136,
			"0.003": 28.1572342655,
			"0.004": 6.98769775404,
			"0.005": 3.27708735773,
			"0.006": 4.24521537789,
			"0.007": 7.95825185899,
			"0.008": 9.89168478425,
			"0.009": 2.04510670753,
			"0.01": 0.0,
			"0.011": 0.0,
			"0.012": 0.0,
			"0.013": 0.0,
			"0.014": 0.0,
			"0.015": 0.0,
			"0.016": 0.0,
			"0.017": 0.0,
			"0.018": 0.0,
			"0.019": 0.0,
			"0.02": 0.0,
			"0.021": 0.0,
			"0.022": 0.0,
			"0.023": 0.0,
			"0.024": 0.0,
			"0.025": 0.0
		}
	}
}
