{
	 "smiles": "COC1=C(N)C(=CC(F)=C1)C(O)=O", 
	 "Tm": 485.15, 
	 "num_atms": 21, 
	 "gaussian": { 
		 "optdone": 1, 
		 "sigma_profile": "yes", 
		 "theory": "DFT", 
		 "functional": "B3LYP", 
		 "basiset": "6-31G**", 
		 "properties": { 
			 "R2extent": 2696.8417, 
			 "electric_dipole_moment_norm": 1.63349726966, 
			 "electric_quadrupole_moment_norm": 11.7416217223, 
			 "total_energy": -689.940129329, 
			 "HOMO_LUMO_gap": 0.15442, 
			 "cosmo_polarized_energy": -10.13, 
			 "cosmo_cavitation_energy": 25.87, 
			 "cosmo_dispersion_energy": -19.0, 
			 "cosmo_repulsion_energy": 1.48, 
			 "cosmo_total_nonelectrostatic_energy": 8.35, 
			 "SMD_solvation_energy": 6.67 
		},
		"coords": [
			{
				"x": 2.3819740067,
				"y": -0.6800314584,
				"z": -1.7357891514,
				"element": "C" 
			},
			{
				"x": 2.2701879905,
				"y": 0.1615449369,
				"z": -0.581864417,
				"element": "O" 
			},
			{
				"x": 1.0071315301,
				"y": 0.6857262659,
				"z": -0.3823117678,
				"element": "C" 
			},
			{
				"x": 0.1712684393,
				"y": 0.0308588791,
				"z": 0.5630038049,
				"element": "C" 
			},
			{
				"x": 0.6333017867,
				"y": -1.1095295356,
				"z": 1.1594240597,
				"element": "N" 
			},
			{
				"x": -1.1112457824,
				"y": 0.5914841913,
				"z": 0.8076848954,
				"element": "C" 
			},
			{
				"x": -1.5266536431,
				"y": 1.7477081596,
				"z": 0.1110972682,
				"element": "C" 
			},
			{
				"x": -0.6778631745,
				"y": 2.3419747977,
				"z": -0.7948372215,
				"element": "C" 
			},
			{
				"x": -1.0701340187,
				"y": 3.455125848,
				"z": -1.4571150883,
				"element": "F" 
			},
			{
				"x": 0.5963734915,
				"y": 1.8260113868,
				"z": -1.0493066537,
				"element": "C" 
			},
			{
				"x": -1.9942475968,
				"y": -0.0215152049,
				"z": 1.8106763494,
				"element": "C" 
			},
			{
				"x": -3.195287031,
				"y": 0.5962922047,
				"z": 1.9316147431,
				"element": "O" 
			},
			{
				"x": -1.7224111223,
				"y": -0.9940083447,
				"z": 2.5072802826,
				"element": "O" 
			},
			{
				"x": 1.7002072796,
				"y": -1.5365410555,
				"z": -1.669992323,
				"element": "H" 
			},
			{
				"x": 2.1681720535,
				"y": -0.1211349112,
				"z": -2.6548450584,
				"element": "H" 
			},
			{
				"x": 3.4142662789,
				"y": -1.0349916175,
				"z": -1.7617056976,
				"element": "H" 
			},
			{
				"x": 1.633452941,
				"y": -1.238549705,
				"z": 1.1374836419,
				"element": "H" 
			},
			{
				"x": 0.1019691529,
				"y": -1.4490944506,
				"z": 1.950820748,
				"element": "H" 
			},
			{
				"x": -2.5050026286,
				"y": 2.1711919769,
				"z": 0.2974972492,
				"element": "H" 
			},
			{
				"x": 1.2583338199,
				"y": 2.3172680968,
				"z": -1.7541176367,
				"element": "H" 
			},
			{
				"x": -3.6704937731,
				"y": 0.1061095397,
				"z": 2.6220019731,
				"element": "H" 
			}
		],
		 "valence_orbital": [ 
			{
				"type": "occ",
				"energy": -0.30845,
				"method": "rhf"
			},
			{
				"type": "occ",
				"energy": -0.2883,
				"method": "rhf"
			},
			{
				"type": "occ",
				"energy": -0.28057,
				"method": "rhf"
			},
			{
				"type": "occ",
				"energy": -0.25884,
				"method": "rhf"
			},
			{
				"type": "occ",
				"energy": -0.20286,
				"method": "rhf"
			},
			{
				"type": "unocc",
				"energy": -0.04844,
				"method": "rhf"
			},
			{
				"type": "unocc",
				"energy": 0.01261,
				"method": "rhf"
			},
			{
				"type": "unocc",
				"energy": 0.05756,
				"method": "rhf"
			},
			{
				"type": "unocc",
				"energy": 0.07741,
				"method": "rhf"
			},
			{
				"type": "unocc",
				"energy": 0.08657,
				"method": "rhf"
			}
		],
		"cosmo_sigma_profile": { 
			"-0.025": 0.0,
			"-0.024": 0.0,
			"-0.023": 0.0,
			"-0.022": 0.0,
			"-0.021": 0.0,
			"-0.02": 0.0,
			"-0.019": 0.0373305373366,
			"-0.018": 0.656146346035,
			"-0.017": 0.938332870047,
			"-0.016": 0.95492257288,
			"-0.015": 0.41589250513,
			"-0.014": 1.02087273324,
			"-0.013": 0.391374235309,
			"-0.012": 0.927133606414,
			"-0.011": 1.59656517866,
			"-0.01": 1.59261536173,
			"-0.009": 2.004311558,
			"-0.008": 3.49801067728,
			"-0.007": 3.98693320972,
			"-0.006": 7.00188299487,
			"-0.005": 10.9264299403,
			"-0.004": 12.3289950886,
			"-0.003": 15.2583718784,
			"-0.002": 14.097188364,
			"-0.001": 12.3035038036,
			"0.0": 13.4611165233,
			"0.001": 19.6016302543,
			"0.002": 21.4089429792,
			"0.003": 13.2597652442,
			"0.004": 12.5648218228,
			"0.005": 11.729589701,
			"0.006": 4.78017375193,
			"0.007": 4.63822950768,
			"0.008": 3.36551366892,
			"0.009": 2.6697102742,
			"0.01": 3.30960304429,
			"0.011": 3.60636468058,
			"0.012": 1.74149240522,
			"0.013": 0.0342625949585,
			"0.014": 0.0,
			"0.015": 0.0,
			"0.016": 0.0,
			"0.017": 0.0,
			"0.018": 0.0,
			"0.019": 0.0,
			"0.02": 0.0,
			"0.021": 0.0,
			"0.022": 0.0,
			"0.023": 0.0,
			"0.024": 0.0,
			"0.025": 0.0
		}
	}
}
