{
	 "smiles": "OC(=O)C1=CC=CC(=C1)S(=O)(=O)OC1=CC2=CC=CC=C2C=C1", 
	 "Tm": 428.15, 
	 "num_atms": 35, 
	 "gaussian": { 
		 "optdone": 1, 
		 "sigma_profile": "yes", 
		 "theory": "DFT", 
		 "functional": "B3LYP", 
		 "basiset": "6-31G**", 
		 "properties": { 
			 "R2extent": 8818.0372, 
			 "electric_dipole_moment_norm": 5.07577415869, 
			 "electric_quadrupole_moment_norm": 30.8665868516, 
			 "total_energy": -1429.28893372, 
			 "HOMO_LUMO_gap": 0.14621, 
			 "cosmo_polarized_energy": -23.91, 
			 "cosmo_cavitation_energy": 42.1, 
			 "cosmo_dispersion_energy": -29.04, 
			 "cosmo_repulsion_energy": 2.16, 
			 "cosmo_total_nonelectrostatic_energy": 15.22, 
			 "SMD_solvation_energy": 6.99 
		},
		"coords": [
			{
				"x": -3.3392895666,
				"y": -3.2963050002,
				"z": 1.573592674,
				"element": "O" 
			},
			{
				"x": -2.0977182374,
				"y": -2.7455028251,
				"z": 1.5433495549,
				"element": "C" 
			},
			{
				"x": -1.6069483015,
				"y": -2.2925914416,
				"z": 2.5483336495,
				"element": "O" 
			},
			{
				"x": -1.3963374252,
				"y": -2.7304474689,
				"z": 0.2138133623,
				"element": "C" 
			},
			{
				"x": -2.0741357597,
				"y": -2.803781083,
				"z": -1.0105849925,
				"element": "C" 
			},
			{
				"x": -1.3715995266,
				"y": -2.7718988718,
				"z": -2.2169416658,
				"element": "C" 
			},
			{
				"x": 0.0175703316,
				"y": -2.6667962593,
				"z": -2.2134492368,
				"element": "C" 
			},
			{
				"x": 0.6832968198,
				"y": -2.5777101285,
				"z": -0.9867536378,
				"element": "C" 
			},
			{
				"x": -0.0014124897,
				"y": -2.5986533682,
				"z": 0.2242495329,
				"element": "C" 
			},
			{
				"x": 2.4692693035,
				"y": -2.4316553278,
				"z": -0.9873794763,
				"element": "S" 
			},
			{
				"x": 2.9847821455,
				"y": -2.992641112,
				"z": -2.226221171,
				"element": "O" 
			},
			{
				"x": 2.969082845,
				"y": -2.8335353059,
				"z": 0.3222220087,
				"element": "O" 
			},
			{
				"x": 2.6930012757,
				"y": -0.7952296186,
				"z": -1.1851946361,
				"element": "O" 
			},
			{
				"x": 2.5012809451,
				"y": 0.0719278054,
				"z": -0.0979380973,
				"element": "C" 
			},
			{
				"x": 1.4263953524,
				"y": 0.9277640667,
				"z": -0.135210722,
				"element": "C" 
			},
			{
				"x": 1.2492779909,
				"y": 1.886122872,
				"z": 0.8974472884,
				"element": "C" 
			},
			{
				"x": 0.1598783518,
				"y": 2.7984485863,
				"z": 0.9013638412,
				"element": "C" 
			},
			{
				"x": 0.0134233247,
				"y": 3.7132430888,
				"z": 1.9194966733,
				"element": "C" 
			},
			{
				"x": 0.9500722641,
				"y": 3.7597845503,
				"z": 2.9814141395,
				"element": "C" 
			},
			{
				"x": 2.0169978064,
				"y": 2.8900548611,
				"z": 3.0051003842,
				"element": "C" 
			},
			{
				"x": 2.198342467,
				"y": 1.9332304535,
				"z": 1.9710112371,
				"element": "C" 
			},
			{
				"x": 3.2917407989,
				"y": 1.0243968234,
				"z": 1.9619446948,
				"element": "C" 
			},
			{
				"x": 3.4530830784,
				"y": 0.1093068427,
				"z": 0.9483472724,
				"element": "C" 
			},
			{
				"x": -3.5200093836,
				"y": -3.7750904074,
				"z": 0.7529978564,
				"element": "H" 
			},
			{
				"x": -3.1597097859,
				"y": -2.8549057733,
				"z": -1.0376650885,
				"element": "H" 
			},
			{
				"x": -1.9076542961,
				"y": -2.829561869,
				"z": -3.1587757381,
				"element": "H" 
			},
			{
				"x": 0.585238337,
				"y": -2.6625702614,
				"z": -3.1374170601,
				"element": "H" 
			},
			{
				"x": 0.5234570432,
				"y": -2.531611165,
				"z": 1.1701329592,
				"element": "H" 
			},
			{
				"x": 0.7257850809,
				"y": 0.8783407591,
				"z": -0.9626455219,
				"element": "H" 
			},
			{
				"x": -0.558079207,
				"y": 2.7611135824,
				"z": 0.0862805228,
				"element": "H" 
			},
			{
				"x": -0.8241635342,
				"y": 4.4045540413,
				"z": 1.9126059208,
				"element": "H" 
			},
			{
				"x": 0.8216152503,
				"y": 4.4858605045,
				"z": 3.7786934448,
				"element": "H" 
			},
			{
				"x": 2.7369773047,
				"y": 2.9229533156,
				"z": 3.818570388,
				"element": "H" 
			},
			{
				"x": 4.0126559305,
				"y": 1.0642904063,
				"z": 2.7738295253,
				"element": "H" 
			},
			{
				"x": 4.2845334663,
				"y": -0.5845052725,
				"z": 0.9344801137,
				"element": "H" 
			}
		],
		 "valence_orbital": [ 
			{
				"type": "occ",
				"energy": -0.29692,
				"method": "rhf"
			},
			{
				"type": "occ",
				"energy": -0.29145,
				"method": "rhf"
			},
			{
				"type": "occ",
				"energy": -0.28415,
				"method": "rhf"
			},
			{
				"type": "occ",
				"energy": -0.24819,
				"method": "rhf"
			},
			{
				"type": "occ",
				"energy": -0.22338,
				"method": "rhf"
			},
			{
				"type": "unocc",
				"energy": -0.07717,
				"method": "rhf"
			},
			{
				"type": "unocc",
				"energy": -0.05936,
				"method": "rhf"
			},
			{
				"type": "unocc",
				"energy": -0.04639,
				"method": "rhf"
			},
			{
				"type": "unocc",
				"energy": -0.01955,
				"method": "rhf"
			},
			{
				"type": "unocc",
				"energy": 0.01421,
				"method": "rhf"
			}
		],
		"cosmo_sigma_profile": { 
			"-0.025": 0.0,
			"-0.024": 0.0,
			"-0.023": 0.0,
			"-0.022": 0.0,
			"-0.021": 0.0,
			"-0.02": 0.00816725504283,
			"-0.019": 0.808957348186,
			"-0.018": 1.00919423658,
			"-0.017": 1.06948486732,
			"-0.016": 1.19525242983,
			"-0.015": 0.931431403493,
			"-0.014": 1.38935376733,
			"-0.013": 0.902792362517,
			"-0.012": 1.27667353681,
			"-0.011": 1.40158737744,
			"-0.01": 1.53632258522,
			"-0.009": 2.48022399063,
			"-0.008": 6.88539890731,
			"-0.007": 12.427780669,
			"-0.006": 19.9336355765,
			"-0.005": 21.6092393172,
			"-0.004": 23.1017643363,
			"-0.003": 20.1525785701,
			"-0.002": 19.0452830957,
			"-0.001": 23.2000542725,
			"0.0": 24.0439780755,
			"0.001": 21.4147697365,
			"0.002": 21.6386062678,
			"0.003": 25.4444096184,
			"0.004": 18.7178654708,
			"0.005": 11.1678579789,
			"0.006": 7.03964561853,
			"0.007": 7.84856587027,
			"0.008": 8.8317116454,
			"0.009": 12.9553573989,
			"0.01": 10.9158228951,
			"0.011": 5.39420250255,
			"0.012": 2.87775190144,
			"0.013": 0.440791087823,
			"0.014": 0.0,
			"0.015": 0.0,
			"0.016": 0.0,
			"0.017": 0.0,
			"0.018": 0.0,
			"0.019": 0.0,
			"0.02": 0.0,
			"0.021": 0.0,
			"0.022": 0.0,
			"0.023": 0.0,
			"0.024": 0.0,
			"0.025": 0.0
		}
	}
}
