{
	 "smiles": "CC(C)(C)C1=CC(CCC(O)=O)=CC(=C1O)C(C)(C)C", 
	 "Tm": 439.15, 
	 "num_atms": 46, 
	 "gaussian": { 
		 "optdone": 1, 
		 "sigma_profile": "yes", 
		 "theory": "DFT", 
		 "functional": "B3LYP", 
		 "basiset": "6-31G**", 
		 "properties": { 
			 "R2extent": 6621.9657, 
			 "electric_dipole_moment_norm": 2.89413610254, 
			 "electric_quadrupole_moment_norm": 6.46048601268, 
			 "total_energy": -889.185940241, 
			 "HOMO_LUMO_gap": 0.2075, 
			 "cosmo_polarized_energy": -12.27, 
			 "cosmo_cavitation_energy": 44.59, 
			 "cosmo_dispersion_energy": -29.79, 
			 "cosmo_repulsion_energy": 2.31, 
			 "cosmo_total_nonelectrostatic_energy": 17.11, 
			 "SMD_solvation_energy": 8.66 
		},
		"coords": [
			{
				"x": -0.1614013684,
				"y": -3.7885138907,
				"z": -1.4518607689,
				"element": "C" 
			},
			{
				"x": -1.1828333776,
				"y": -2.6181567766,
				"z": -1.4946576365,
				"element": "C" 
			},
			{
				"x": -1.4461283629,
				"y": -2.153772474,
				"z": -2.9541978669,
				"element": "C" 
			},
			{
				"x": -2.5192245153,
				"y": -3.2069597252,
				"z": -0.9930626371,
				"element": "C" 
			},
			{
				"x": -0.7030636683,
				"y": -1.4335016473,
				"z": -0.6161476513,
				"element": "C" 
			},
			{
				"x": -1.4582616872,
				"y": -1.0148672261,
				"z": 0.4834652599,
				"element": "C" 
			},
			{
				"x": -1.0623351988,
				"y": 0.0414673732,
				"z": 1.3068480505,
				"element": "C" 
			},
			{
				"x": -1.9294371763,
				"y": 0.4859841262,
				"z": 2.4681375892,
				"element": "C" 
			},
			{
				"x": -2.9476503148,
				"y": 1.580071449,
				"z": 2.0966751951,
				"element": "C" 
			},
			{
				"x": -2.3177856382,
				"y": 2.9401922442,
				"z": 1.8788641629,
				"element": "C" 
			},
			{
				"x": -3.1154282599,
				"y": 3.7477519626,
				"z": 1.1401949128,
				"element": "O" 
			},
			{
				"x": -1.253171215,
				"y": 3.3150398001,
				"z": 2.3239234147,
				"element": "O" 
			},
			{
				"x": 0.1343699248,
				"y": 0.6879740634,
				"z": 1.0085417259,
				"element": "C" 
			},
			{
				"x": 0.9481210419,
				"y": 0.3361846452,
				"z": -0.078192053,
				"element": "C" 
			},
			{
				"x": 0.507132456,
				"y": -0.7362140663,
				"z": -0.8844235803,
				"element": "C" 
			},
			{
				"x": 1.3019967288,
				"y": -1.0888889014,
				"z": -1.9491063913,
				"element": "O" 
			},
			{
				"x": 2.2403833607,
				"y": 1.1786419424,
				"z": -0.2720154931,
				"element": "C" 
			},
			{
				"x": 3.1451266017,
				"y": 0.7917281565,
				"z": -1.4619740661,
				"element": "C" 
			},
			{
				"x": 1.8325054001,
				"y": 2.6603785451,
				"z": -0.4774739921,
				"element": "C" 
			},
			{
				"x": 3.1065246972,
				"y": 1.0598077747,
				"z": 1.0078221643,
				"element": "C" 
			},
			{
				"x": -0.5043035677,
				"y": -4.6139992197,
				"z": -2.0852959154,
				"element": "H" 
			},
			{
				"x": -0.0660153644,
				"y": -4.162928579,
				"z": -0.4280028336,
				"element": "H" 
			},
			{
				"x": 0.848473304,
				"y": -3.5235384099,
				"z": -1.7789897762,
				"element": "H" 
			},
			{
				"x": -2.2383045427,
				"y": -1.3988759493,
				"z": -2.9684224916,
				"element": "H" 
			},
			{
				"x": -1.7721622133,
				"y": -3.0004878167,
				"z": -3.5681795653,
				"element": "H" 
			},
			{
				"x": -0.5822923051,
				"y": -1.7034356726,
				"z": -3.4525911235,
				"element": "H" 
			},
			{
				"x": -2.4373717793,
				"y": -3.5991219459,
				"z": 0.0251064275,
				"element": "H" 
			},
			{
				"x": -2.8144185371,
				"y": -4.036897628,
				"z": -1.6431906193,
				"element": "H" 
			},
			{
				"x": -3.3263339814,
				"y": -2.4684643475,
				"z": -1.0151995804,
				"element": "H" 
			},
			{
				"x": -2.3848659181,
				"y": -1.5248962779,
				"z": 0.7202072169,
				"element": "H" 
			},
			{
				"x": -1.3041176768,
				"y": 0.8613766671,
				"z": 3.2841426195,
				"element": "H" 
			},
			{
				"x": -2.4860914336,
				"y": -0.373283725,
				"z": 2.858735759,
				"element": "H" 
			},
			{
				"x": -3.6802289106,
				"y": 1.7084455366,
				"z": 2.9058436994,
				"element": "H" 
			},
			{
				"x": -3.5198358109,
				"y": 1.3101769248,
				"z": 1.2038394341,
				"element": "H" 
			},
			{
				"x": -2.6535138267,
				"y": 4.6013115206,
				"z": 1.0813303821,
				"element": "H" 
			},
			{
				"x": 0.4351213254,
				"y": 1.5095697384,
				"z": 1.6482756381,
				"element": "H" 
			},
			{
				"x": 0.898048567,
				"y": -1.822907012,
				"z": -2.4194891003,
				"element": "H" 
			},
			{
				"x": 4.0080079366,
				"y": 1.4679719343,
				"z": -1.4689396242,
				"element": "H" 
			},
			{
				"x": 2.6320019324,
				"y": 0.8874632736,
				"z": -2.4202981679,
				"element": "H" 
			},
			{
				"x": 3.5171662563,
				"y": -0.2313914646,
				"z": -1.3836460313,
				"element": "H" 
			},
			{
				"x": 1.2370816652,
				"y": 3.050545675,
				"z": 0.3523930336,
				"element": "H" 
			},
			{
				"x": 1.2438024847,
				"y": 2.774083536,
				"z": -1.3942339912,
				"element": "H" 
			},
			{
				"x": 2.727125891,
				"y": 3.286694081,
				"z": -0.5723318772,
				"element": "H" 
			},
			{
				"x": 2.579347282,
				"y": 1.4007089275,
				"z": 1.9028321721,
				"element": "H" 
			},
			{
				"x": 4.013188211,
				"y": 1.6669892028,
				"z": 0.9051931399,
				"element": "H" 
			},
			{
				"x": 3.4127515838,
				"y": 0.0215436556,
				"z": 1.1740508366,
				"element": "H" 
			}
		],
		 "valence_orbital": [ 
			{
				"type": "occ",
				"energy": -0.30465,
				"method": "rhf"
			},
			{
				"type": "occ",
				"energy": -0.29292,
				"method": "rhf"
			},
			{
				"type": "occ",
				"energy": -0.27487,
				"method": "rhf"
			},
			{
				"type": "occ",
				"energy": -0.22884,
				"method": "rhf"
			},
			{
				"type": "occ",
				"energy": -0.20381,
				"method": "rhf"
			},
			{
				"type": "unocc",
				"energy": 0.00369,
				"method": "rhf"
			},
			{
				"type": "unocc",
				"energy": 0.01164,
				"method": "rhf"
			},
			{
				"type": "unocc",
				"energy": 0.01894,
				"method": "rhf"
			},
			{
				"type": "unocc",
				"energy": 0.0676,
				"method": "rhf"
			},
			{
				"type": "unocc",
				"energy": 0.0804,
				"method": "rhf"
			}
		],
		"cosmo_sigma_profile": { 
			"-0.025": 0.0,
			"-0.024": 0.0,
			"-0.023": 0.0,
			"-0.022": 0.0,
			"-0.021": 0.0,
			"-0.02": 0.0,
			"-0.019": 0.0,
			"-0.018": 0.407746259308,
			"-0.017": 1.1064860746,
			"-0.016": 0.800502728772,
			"-0.015": 0.535422240021,
			"-0.014": 1.0104431477,
			"-0.013": 1.07280975391,
			"-0.012": 1.20977821609,
			"-0.011": 1.43465591557,
			"-0.01": 1.94909984313,
			"-0.009": 1.7517914373,
			"-0.008": 0.815532287818,
			"-0.007": 2.02374475917,
			"-0.006": 5.33541576126,
			"-0.005": 6.39341357186,
			"-0.004": 14.7062497406,
			"-0.003": 35.894842492,
			"-0.002": 44.3460053772,
			"-0.001": 41.26646844,
			"0.0": 42.0627283811,
			"0.001": 40.7999829822,
			"0.002": 28.9601281542,
			"0.003": 14.8517238914,
			"0.004": 11.3743883858,
			"0.005": 11.2874300293,
			"0.006": 10.2044823395,
			"0.007": 8.51382354871,
			"0.008": 4.83179450028,
			"0.009": 3.41263725054,
			"0.01": 2.05548773714,
			"0.011": 2.3807491846,
			"0.012": 2.85069865144,
			"0.013": 0.232682968541,
			"0.014": 0.0,
			"0.015": 0.0,
			"0.016": 0.0,
			"0.017": 0.0,
			"0.018": 0.0,
			"0.019": 0.0,
			"0.02": 0.0,
			"0.021": 0.0,
			"0.022": 0.0,
			"0.023": 0.0,
			"0.024": 0.0,
			"0.025": 0.0
		}
	}
}
