{
	 "smiles": "ClCC(=O)N(C1CCS(=O)(=O)C1)C1=CC=CC=C1", 
	 "Tm": 482.15, 
	 "num_atms": 32, 
	 "gaussian": { 
		 "optdone": 1, 
		 "sigma_profile": "yes", 
		 "theory": "DFT", 
		 "functional": "B3LYP", 
		 "basiset": "6-31G**", 
		 "properties": { 
			 "R2extent": 6103.429, 
			 "electric_dipole_moment_norm": 4.14975280469, 
			 "electric_quadrupole_moment_norm": 32.7556443934, 
			 "total_energy": -1604.45008832, 
			 "HOMO_LUMO_gap": 0.23878, 
			 "cosmo_polarized_energy": -28.96, 
			 "cosmo_cavitation_energy": 37.86, 
			 "cosmo_dispersion_energy": -26.6, 
			 "cosmo_repulsion_energy": 2.04, 
			 "cosmo_total_nonelectrostatic_energy": 13.3, 
			 "SMD_solvation_energy": 5.56 
		},
		"coords": [
			{
				"x": -3.7521022921,
				"y": 1.0112801815,
				"z": 2.3665267016,
				"element": "Cl" 
			},
			{
				"x": -2.3654732251,
				"y": 0.1564328375,
				"z": 1.6280194316,
				"element": "C" 
			},
			{
				"x": -1.3659036546,
				"y": 1.1349938947,
				"z": 0.9804864726,
				"element": "C" 
			},
			{
				"x": -1.5376446142,
				"y": 2.3366763491,
				"z": 0.9863680144,
				"element": "O" 
			},
			{
				"x": -0.2441809134,
				"y": 0.5594397696,
				"z": 0.3892061461,
				"element": "N" 
			},
			{
				"x": 0.0152927182,
				"y": -0.8816423035,
				"z": 0.3166560487,
				"element": "C" 
			},
			{
				"x": 1.3620558048,
				"y": -1.315831444,
				"z": 0.9493270075,
				"element": "C" 
			},
			{
				"x": 1.5614680143,
				"y": -2.8118822612,
				"z": 0.6569844305,
				"element": "C" 
			},
			{
				"x": 0.6386431899,
				"y": -3.1572164023,
				"z": -0.9017759317,
				"element": "S" 
			},
			{
				"x": 1.5641773699,
				"y": -3.5131983777,
				"z": -1.9861293666,
				"element": "O" 
			},
			{
				"x": -0.5136868059,
				"y": -4.0132718397,
				"z": -0.573566312,
				"element": "O" 
			},
			{
				"x": 0.026069747,
				"y": -1.4491917229,
				"z": -1.1148646017,
				"element": "C" 
			},
			{
				"x": 0.6864507188,
				"y": 1.4677358386,
				"z": -0.2412115681,
				"element": "C" 
			},
			{
				"x": 1.7591144711,
				"y": 1.9888267272,
				"z": 0.4884065106,
				"element": "C" 
			},
			{
				"x": 2.6641913049,
				"y": 2.8555762298,
				"z": -0.1251906532,
				"element": "C" 
			},
			{
				"x": 2.4975125711,
				"y": 3.2086845077,
				"z": -1.4655286604,
				"element": "C" 
			},
			{
				"x": 1.4177826199,
				"y": 2.700634612,
				"z": -2.1899360813,
				"element": "C" 
			},
			{
				"x": 0.5106393843,
				"y": 1.8339931561,
				"z": -1.5791613403,
				"element": "C" 
			},
			{
				"x": -1.8879650146,
				"y": -0.4240968013,
				"z": 2.4205193181,
				"element": "H" 
			},
			{
				"x": -2.7718386009,
				"y": -0.537185544,
				"z": 0.8884331303,
				"element": "H" 
			},
			{
				"x": -0.7833491981,
				"y": -1.3901013261,
				"z": 0.8582806011,
				"element": "H" 
			},
			{
				"x": 2.1710088434,
				"y": -0.7341978647,
				"z": 0.4989350325,
				"element": "H" 
			},
			{
				"x": 1.3689211196,
				"y": -1.1169340926,
				"z": 2.0248760881,
				"element": "H" 
			},
			{
				"x": 1.1127547623,
				"y": -3.4607778511,
				"z": 1.4119728921,
				"element": "H" 
			},
			{
				"x": 2.6025596152,
				"y": -3.0953300161,
				"z": 0.4966690993,
				"element": "H" 
			},
			{
				"x": 0.7294876361,
				"y": -0.9164094514,
				"z": -1.758064628,
				"element": "H" 
			},
			{
				"x": -0.9569768391,
				"y": -1.504646782,
				"z": -1.5850161871,
				"element": "H" 
			},
			{
				"x": 1.869747478,
				"y": 1.72555949,
				"z": 1.5356016014,
				"element": "H" 
			},
			{
				"x": 3.4944942435,
				"y": 3.2593494481,
				"z": 0.4463017005,
				"element": "H" 
			},
			{
				"x": 3.2019893924,
				"y": 3.884049487,
				"z": -1.9415825494,
				"element": "H" 
			},
			{
				"x": 1.2759117464,
				"y": 2.9830369899,
				"z": -3.228683796,
				"element": "H" 
			},
			{
				"x": -0.3441515933,
				"y": 1.4538445622,
				"z": -2.1297585514,
				"element": "H" 
			}
		],
		 "valence_orbital": [ 
			{
				"type": "occ",
				"energy": -0.29777,
				"method": "rhf"
			},
			{
				"type": "occ",
				"energy": -0.27551,
				"method": "rhf"
			},
			{
				"type": "occ",
				"energy": -0.27134,
				"method": "rhf"
			},
			{
				"type": "occ",
				"energy": -0.26741,
				"method": "rhf"
			},
			{
				"type": "occ",
				"energy": -0.26665,
				"method": "rhf"
			},
			{
				"type": "unocc",
				"energy": -0.02787,
				"method": "rhf"
			},
			{
				"type": "unocc",
				"energy": -0.02375,
				"method": "rhf"
			},
			{
				"type": "unocc",
				"energy": 0.00108,
				"method": "rhf"
			},
			{
				"type": "unocc",
				"energy": 0.012,
				"method": "rhf"
			},
			{
				"type": "unocc",
				"energy": 0.0387,
				"method": "rhf"
			}
		],
		"cosmo_sigma_profile": { 
			"-0.025": 0.0,
			"-0.024": 0.0,
			"-0.023": 0.0,
			"-0.022": 0.0,
			"-0.021": 0.0,
			"-0.02": 0.0,
			"-0.019": 0.0,
			"-0.018": 0.0,
			"-0.017": 0.0,
			"-0.016": 0.0,
			"-0.015": 0.0,
			"-0.014": 0.0,
			"-0.013": 0.0,
			"-0.012": 0.0522646734691,
			"-0.011": 2.39490650495,
			"-0.01": 6.39700627964,
			"-0.009": 8.30611867823,
			"-0.008": 11.2981094675,
			"-0.007": 15.6050832235,
			"-0.006": 29.1074587268,
			"-0.005": 26.9151781736,
			"-0.004": 22.695544051,
			"-0.003": 16.8898607084,
			"-0.002": 13.2882856846,
			"-0.001": 10.1767833429,
			"0.0": 10.5579719531,
			"0.001": 11.6600884354,
			"0.002": 11.1916541122,
			"0.003": 12.3134322588,
			"0.004": 13.3571676274,
			"0.005": 12.3440376214,
			"0.006": 11.1910534266,
			"0.007": 5.33179450067,
			"0.008": 5.06351300516,
			"0.009": 4.86647033622,
			"0.01": 6.67956306095,
			"0.011": 13.2581878021,
			"0.012": 14.1896845893,
			"0.013": 5.96113050385,
			"0.014": 1.3196786083,
			"0.015": 0.0380395418068,
			"0.016": 0.0,
			"0.017": 0.0,
			"0.018": 0.0,
			"0.019": 0.0,
			"0.02": 0.0,
			"0.021": 0.0,
			"0.022": 0.0,
			"0.023": 0.0,
			"0.024": 0.0,
			"0.025": 0.0
		}
	}
}
