{
	 "smiles": "[O-][N+](=NC1=CC=C(NC(=O)C2=CC=CC=C2)C=C1)C1=CC=C(C=C1)N=NC1=CC=C(NC(=O)C2=CC=CC=C2)C=C1", 
	 "Tm": 601.15, 
	 "num_atms": 65, 
	 "gaussian": { 
		 "optdone": 1, 
		 "sigma_profile": "yes", 
		 "theory": "DFT", 
		 "functional": "B3LYP", 
		 "basiset": "6-31G**", 
		 "properties": { 
			 "R2extent": 23990.3863, 
			 "electric_dipole_moment_norm": 11.8900672753, 
			 "electric_quadrupole_moment_norm": 34.991889483, 
			 "total_energy": -1787.93239099, 
			 "HOMO_LUMO_gap": 0.11301, 
			 "cosmo_polarized_energy": -31.87, 
			 "cosmo_cavitation_energy": 69.74, 
			 "cosmo_dispersion_energy": -44.2, 
			 "cosmo_repulsion_energy": 3.14, 
			 "cosmo_total_nonelectrostatic_energy": 28.67, 
			 "SMD_solvation_energy": 9.69 
		},
		"coords": [
			{
				"x": -2.7264681695,
				"y": 0.8541241117,
				"z": 5.9209517901,
				"element": "O" 
			},
			{
				"x": -1.8651748667,
				"y": 0.6683187733,
				"z": 5.0335791525,
				"element": "N" 
			},
			{
				"x": -0.7937789452,
				"y": 1.3671659287,
				"z": 4.9708559895,
				"element": "N" 
			},
			{
				"x": -0.0009424958,
				"y": 1.3011386609,
				"z": 3.8016190852,
				"element": "C" 
			},
			{
				"x": 1.3905528452,
				"y": 1.2136878682,
				"z": 3.9527005367,
				"element": "C" 
			},
			{
				"x": 2.2461704859,
				"y": 1.2404652478,
				"z": 2.8549249899,
				"element": "C" 
			},
			{
				"x": 1.717756628,
				"y": 1.3910909935,
				"z": 1.5598453677,
				"element": "C" 
			},
			{
				"x": 2.4982150204,
				"y": 1.4100618924,
				"z": 0.3861695503,
				"element": "N" 
			},
			{
				"x": 3.873178712,
				"y": 1.4287224174,
				"z": 0.292495732,
				"element": "C" 
			},
			{
				"x": 4.6204044092,
				"y": 1.4728611899,
				"z": 1.26633027,
				"element": "O" 
			},
			{
				"x": 4.4353634411,
				"y": 1.4036930931,
				"z": -1.1039349823,
				"element": "C" 
			},
			{
				"x": 3.7569862982,
				"y": 0.8775194654,
				"z": -2.2132967628,
				"element": "C" 
			},
			{
				"x": 4.3698812016,
				"y": 0.8637529619,
				"z": -3.4680619352,
				"element": "C" 
			},
			{
				"x": 5.6592099551,
				"y": 1.3749678325,
				"z": -3.6276416064,
				"element": "C" 
			},
			{
				"x": 6.3429500575,
				"y": 1.8896616399,
				"z": -2.523103223,
				"element": "C" 
			},
			{
				"x": 5.7383504194,
				"y": 1.8947633556,
				"z": -1.2684734454,
				"element": "C" 
			},
			{
				"x": 0.3268254805,
				"y": 1.5292570816,
				"z": 1.4085568297,
				"element": "C" 
			},
			{
				"x": -0.5190988541,
				"y": 1.4837804933,
				"z": 2.50799782,
				"element": "C" 
			},
			{
				"x": -2.1641816028,
				"y": -0.4659894787,
				"z": 4.1402558219,
				"element": "C" 
			},
			{
				"x": -3.3504505316,
				"y": -0.4498259081,
				"z": 3.4116982198,
				"element": "C" 
			},
			{
				"x": -3.6426493936,
				"y": -1.5172829548,
				"z": 2.56866653,
				"element": "C" 
			},
			{
				"x": -2.7775870545,
				"y": -2.6197990841,
				"z": 2.5124260597,
				"element": "C" 
			},
			{
				"x": -1.6475813541,
				"y": -2.6696676839,
				"z": 3.337408641,
				"element": "C" 
			},
			{
				"x": -1.3132497782,
				"y": -1.5694687593,
				"z": 4.1228352019,
				"element": "C" 
			},
			{
				"x": -3.1354727539,
				"y": -3.7782807599,
				"z": 1.7411976555,
				"element": "N" 
			},
			{
				"x": -3.2087134467,
				"y": -3.7572291072,
				"z": 0.4932473431,
				"element": "N" 
			},
			{
				"x": -2.7523781014,
				"y": -2.6497409273,
				"z": -0.2932838241,
				"element": "C" 
			},
			{
				"x": -3.5306563276,
				"y": -2.2871925123,
				"z": -1.4013901822,
				"element": "C" 
			},
			{
				"x": -3.1114303628,
				"y": -1.2675332794,
				"z": -2.2457275507,
				"element": "C" 
			},
			{
				"x": -1.874039472,
				"y": -0.6318110639,
				"z": -2.0397977274,
				"element": "C" 
			},
			{
				"x": -1.5152043571,
				"y": 0.4003513528,
				"z": -2.9312326173,
				"element": "N" 
			},
			{
				"x": -0.4561981687,
				"y": 1.2731959287,
				"z": -2.8637185328,
				"element": "C" 
			},
			{
				"x": 0.423810241,
				"y": 1.1981902948,
				"z": -2.0014253328,
				"element": "O" 
			},
			{
				"x": -0.4217874544,
				"y": 2.3288316885,
				"z": -3.9274441601,
				"element": "C" 
			},
			{
				"x": -1.5701733877,
				"y": 2.7990409459,
				"z": -4.5840478972,
				"element": "C" 
			},
			{
				"x": -1.4679940062,
				"y": 3.7939584133,
				"z": -5.5554088343,
				"element": "C" 
			},
			{
				"x": -0.2195588703,
				"y": 4.3280475056,
				"z": -5.8803391153,
				"element": "C" 
			},
			{
				"x": 0.9254309515,
				"y": 3.8748115557,
				"z": -5.2204813136,
				"element": "C" 
			},
			{
				"x": 0.8254672383,
				"y": 2.8874669546,
				"z": -4.2433551868,
				"element": "C" 
			},
			{
				"x": -1.054850698,
				"y": -1.0535996422,
				"z": -0.981009909,
				"element": "C" 
			},
			{
				"x": -1.5018740744,
				"y": -2.0424193415,
				"z": -0.113057746,
				"element": "C" 
			},
			{
				"x": 1.7999041382,
				"y": 1.1182311749,
				"z": 4.9536247479,
				"element": "H" 
			},
			{
				"x": 3.3154257725,
				"y": 1.1641033798,
				"z": 2.986186733,
				"element": "H" 
			},
			{
				"x": 1.9697026773,
				"y": 1.4961927036,
				"z": -0.4750866062,
				"element": "H" 
			},
			{
				"x": 2.761829127,
				"y": 0.4587486465,
				"z": -2.1079474009,
				"element": "H" 
			},
			{
				"x": 3.8425756727,
				"y": 0.4407630645,
				"z": -4.3185961946,
				"element": "H" 
			},
			{
				"x": 6.1326390977,
				"y": 1.3629458402,
				"z": -4.6053717869,
				"element": "H" 
			},
			{
				"x": 7.3492857798,
				"y": 2.2814630741,
				"z": -2.6397092323,
				"element": "H" 
			},
			{
				"x": 6.2584690482,
				"y": 2.2706608183,
				"z": -0.3941023463,
				"element": "H" 
			},
			{
				"x": -0.0880397526,
				"y": 1.6770563548,
				"z": 0.4167168427,
				"element": "H" 
			},
			{
				"x": -1.5853499879,
				"y": 1.6191933746,
				"z": 2.3642309852,
				"element": "H" 
			},
			{
				"x": -4.0223255261,
				"y": 0.3971517742,
				"z": 3.4981218762,
				"element": "H" 
			},
			{
				"x": -4.5437841966,
				"y": -1.5090224489,
				"z": 1.9647478792,
				"element": "H" 
			},
			{
				"x": -1.0195195908,
				"y": -3.5547687932,
				"z": 3.3313554691,
				"element": "H" 
			},
			{
				"x": -0.4101457986,
				"y": -1.571522633,
				"z": 4.7227908807,
				"element": "H" 
			},
			{
				"x": -4.4720533543,
				"y": -2.7983385048,
				"z": -1.5753981235,
				"element": "H" 
			},
			{
				"x": -3.7428220789,
				"y": -0.9661197675,
				"z": -3.0783188458,
				"element": "H" 
			},
			{
				"x": -2.1248318071,
				"y": 0.5070285028,
				"z": -3.7289802153,
				"element": "H" 
			},
			{
				"x": -2.5560595979,
				"y": 2.4290136224,
				"z": -4.3148573415,
				"element": "H" 
			},
			{
				"x": -2.3634097503,
				"y": 4.1592705999,
				"z": -6.0489713481,
				"element": "H" 
			},
			{
				"x": -0.1410958291,
				"y": 5.1018280809,
				"z": -6.6382412872,
				"element": "H" 
			},
			{
				"x": 1.896870363,
				"y": 4.2936429754,
				"z": -5.4649136689,
				"element": "H" 
			},
			{
				"x": 1.7063313109,
				"y": 2.5350544873,
				"z": -3.7178605856,
				"element": "H" 
			},
			{
				"x": -0.0862105411,
				"y": -0.6013216646,
				"z": -0.838071772,
				"element": "H" 
			},
			{
				"x": -0.8572440333,
				"y": -2.3534418061,
				"z": 0.6992206395,
				"element": "H" 
			}
		],
		 "valence_orbital": [ 
			{
				"type": "occ",
				"energy": -0.25364,
				"method": "rhf"
			},
			{
				"type": "occ",
				"energy": -0.24849,
				"method": "rhf"
			},
			{
				"type": "occ",
				"energy": -0.24558,
				"method": "rhf"
			},
			{
				"type": "occ",
				"energy": -0.2226,
				"method": "rhf"
			},
			{
				"type": "occ",
				"energy": -0.20105,
				"method": "rhf"
			},
			{
				"type": "unocc",
				"energy": -0.08804,
				"method": "rhf"
			},
			{
				"type": "unocc",
				"energy": -0.06552,
				"method": "rhf"
			},
			{
				"type": "unocc",
				"energy": -0.05853,
				"method": "rhf"
			},
			{
				"type": "unocc",
				"energy": -0.03811,
				"method": "rhf"
			},
			{
				"type": "unocc",
				"energy": -0.03236,
				"method": "rhf"
			}
		],
		"cosmo_sigma_profile": { 
			"-0.025": 0.0,
			"-0.024": 0.0,
			"-0.023": 0.0,
			"-0.022": 0.0,
			"-0.021": 0.0,
			"-0.02": 0.0,
			"-0.019": 0.0,
			"-0.018": 0.0,
			"-0.017": 0.0,
			"-0.016": 0.346994851648,
			"-0.015": 1.25254768806,
			"-0.014": 1.66817891224,
			"-0.013": 1.29123851594,
			"-0.012": 1.34206308828,
			"-0.011": 1.58261802086,
			"-0.01": 1.91264393054,
			"-0.009": 2.63856040233,
			"-0.008": 9.26470400703,
			"-0.007": 21.2080529088,
			"-0.006": 33.981966813,
			"-0.005": 36.3661814195,
			"-0.004": 37.3936862545,
			"-0.003": 34.7603795745,
			"-0.002": 37.5324157521,
			"-0.001": 39.9454532491,
			"0.0": 39.9865610988,
			"0.001": 45.5100556992,
			"0.002": 49.4048039044,
			"0.003": 50.2398222576,
			"0.004": 42.2600767879,
			"0.005": 12.6505999364,
			"0.006": 6.84047384705,
			"0.007": 5.66943786599,
			"0.008": 5.4351992907,
			"0.009": 6.64846989562,
			"0.01": 11.6180180848,
			"0.011": 9.00761133816,
			"0.012": 7.79131366518,
			"0.013": 6.55296033651,
			"0.014": 0.721551676285,
			"0.015": 0.0,
			"0.016": 0.0,
			"0.017": 0.0,
			"0.018": 0.0,
			"0.019": 0.0,
			"0.02": 0.0,
			"0.021": 0.0,
			"0.022": 0.0,
			"0.023": 0.0,
			"0.024": 0.0,
			"0.025": 0.0
		}
	}
}
