{
	 "smiles": "CCCNC(=O)C1=C(Cl)N=CC=C1", 
	 "Tm": 337.15, 
	 "num_atms": 24, 
	 "gaussian": { 
		 "optdone": 1, 
		 "sigma_profile": "yes", 
		 "theory": "DFT", 
		 "functional": "B3LYP", 
		 "basiset": "6-31G**", 
		 "properties": { 
			 "R2extent": 3789.9283, 
			 "electric_dipole_moment_norm": 1.13870692015, 
			 "electric_quadrupole_moment_norm": 17.8568560973, 
			 "total_energy": -994.52546052, 
			 "HOMO_LUMO_gap": 0.19741, 
			 "cosmo_polarized_energy": -10.53, 
			 "cosmo_cavitation_energy": 29.26, 
			 "cosmo_dispersion_energy": -21.18, 
			 "cosmo_repulsion_energy": 1.7, 
			 "cosmo_total_nonelectrostatic_energy": 9.78, 
			 "SMD_solvation_energy": 3.58 
		},
		"coords": [
			{
				"x": 2.3866045207,
				"y": 0.4848130579,
				"z": -1.1846224572,
				"element": "C" 
			},
			{
				"x": 2.3416157507,
				"y": -0.9296776585,
				"z": -0.6007814238,
				"element": "C" 
			},
			{
				"x": 0.9650407743,
				"y": -1.6028220747,
				"z": -0.7113721763,
				"element": "C" 
			},
			{
				"x": -0.0787075731,
				"y": -0.9124519924,
				"z": 0.039318857,
				"element": "N" 
			},
			{
				"x": -1.0852347408,
				"y": -0.2356530266,
				"z": -0.5686760989,
				"element": "C" 
			},
			{
				"x": -1.1731134821,
				"y": -0.127890999,
				"z": -1.7913191536,
				"element": "O" 
			},
			{
				"x": -2.1227194375,
				"y": 0.4623677927,
				"z": 0.3007644155,
				"element": "C" 
			},
			{
				"x": -2.4696471362,
				"y": 0.2814894418,
				"z": 1.6543242344,
				"element": "C" 
			},
			{
				"x": -1.6857107078,
				"y": -0.9438152547,
				"z": 2.6798159268,
				"element": "Cl" 
			},
			{
				"x": -3.4060125207,
				"y": 0.9564224724,
				"z": 2.2939649312,
				"element": "N" 
			},
			{
				"x": -4.0882866101,
				"y": 1.891324582,
				"z": 1.6236127582,
				"element": "C" 
			},
			{
				"x": -3.8589950239,
				"y": 2.1662409721,
				"z": 0.278262066,
				"element": "C" 
			},
			{
				"x": -2.8728628077,
				"y": 1.4378046052,
				"z": -0.3752090427,
				"element": "C" 
			},
			{
				"x": 1.6949335003,
				"y": 1.151024082,
				"z": -0.6598113279,
				"element": "H" 
			},
			{
				"x": 3.3907585743,
				"y": 0.9122426039,
				"z": -1.0998383053,
				"element": "H" 
			},
			{
				"x": 2.1049421997,
				"y": 0.4849457675,
				"z": -2.24259838,
				"element": "H" 
			},
			{
				"x": 2.6518901317,
				"y": -0.9094165166,
				"z": 0.452941535,
				"element": "H" 
			},
			{
				"x": 3.065496661,
				"y": -1.5722883792,
				"z": -1.1184531083,
				"element": "H" 
			},
			{
				"x": 0.6344632365,
				"y": -1.6286916294,
				"z": -1.7518569998,
				"element": "H" 
			},
			{
				"x": 1.0264298035,
				"y": -2.6364836981,
				"z": -0.3491372427,
				"element": "H" 
			},
			{
				"x": -0.071147357,
				"y": -0.9772834645,
				"z": 1.0463061234,
				"element": "H" 
			},
			{
				"x": -4.8449457745,
				"y": 2.4275245966,
				"z": 2.1917588572,
				"element": "H" 
			},
			{
				"x": -4.4365119299,
				"y": 2.9239113663,
				"z": -0.2404749106,
				"element": "H" 
			},
			{
				"x": -2.6498800515,
				"y": 1.5844633533,
				"z": -1.4262190778,
				"element": "H" 
			}
		],
		 "valence_orbital": [ 
			{
				"type": "occ",
				"energy": -0.30046,
				"method": "rhf"
			},
			{
				"type": "occ",
				"energy": -0.28719,
				"method": "rhf"
			},
			{
				"type": "occ",
				"energy": -0.27125,
				"method": "rhf"
			},
			{
				"type": "occ",
				"energy": -0.25822,
				"method": "rhf"
			},
			{
				"type": "occ",
				"energy": -0.25373,
				"method": "rhf"
			},
			{
				"type": "unocc",
				"energy": -0.05632,
				"method": "rhf"
			},
			{
				"type": "unocc",
				"energy": -0.03771,
				"method": "rhf"
			},
			{
				"type": "unocc",
				"energy": 0.01703,
				"method": "rhf"
			},
			{
				"type": "unocc",
				"energy": 0.04689,
				"method": "rhf"
			},
			{
				"type": "unocc",
				"energy": 0.09146,
				"method": "rhf"
			}
		],
		"cosmo_sigma_profile": { 
			"-0.025": 0.0,
			"-0.024": 0.0,
			"-0.023": 0.0,
			"-0.022": 0.0,
			"-0.021": 0.0,
			"-0.02": 0.0,
			"-0.019": 0.0,
			"-0.018": 0.0,
			"-0.017": 0.0,
			"-0.016": 0.0,
			"-0.015": 0.0,
			"-0.014": 0.0,
			"-0.013": 0.0,
			"-0.012": 0.0,
			"-0.011": 0.351671553048,
			"-0.01": 0.757215531282,
			"-0.009": 1.11195142613,
			"-0.008": 4.87239005107,
			"-0.007": 8.08761780563,
			"-0.006": 8.44646704633,
			"-0.005": 8.1885615069,
			"-0.004": 10.4970413439,
			"-0.003": 20.398764247,
			"-0.002": 28.4579620925,
			"-0.001": 29.376718878,
			"0.0": 29.9508834257,
			"0.001": 23.4517485573,
			"0.002": 11.954496714,
			"0.003": 8.7498468624,
			"0.004": 7.70815861327,
			"0.005": 4.54432188572,
			"0.006": 4.54935172344,
			"0.007": 2.95177218959,
			"0.008": 3.38592070544,
			"0.009": 2.68484009215,
			"0.01": 1.72796206799,
			"0.011": 3.14814506815,
			"0.012": 2.48787464913,
			"0.013": 4.60795009869,
			"0.014": 2.18584942624,
			"0.015": 0.0,
			"0.016": 0.0,
			"0.017": 0.0,
			"0.018": 0.0,
			"0.019": 0.0,
			"0.02": 0.0,
			"0.021": 0.0,
			"0.022": 0.0,
			"0.023": 0.0,
			"0.024": 0.0,
			"0.025": 0.0
		}
	}
}
