{
	 "smiles": "CN(C)C(=O)CN1C=C(N=N1)C(O)=O", 
	 "Tm": 473.15, 
	 "num_atms": 24, 
	 "gaussian": { 
		 "optdone": 1, 
		 "sigma_profile": "yes", 
		 "theory": "DFT", 
		 "functional": "B3LYP", 
		 "basiset": "6-31G**", 
		 "properties": { 
			 "R2extent": 4711.5058, 
			 "electric_dipole_moment_norm": 4.25798090766, 
			 "electric_quadrupole_moment_norm": 31.6044281573, 
			 "total_energy": -717.424329193, 
			 "HOMO_LUMO_gap": 0.22154, 
			 "cosmo_polarized_energy": -21.62, 
			 "cosmo_cavitation_energy": 29.26, 
			 "cosmo_dispersion_energy": -20.69, 
			 "cosmo_repulsion_energy": 1.65, 
			 "cosmo_total_nonelectrostatic_energy": 10.22, 
			 "SMD_solvation_energy": 5.76 
		},
		"coords": [
			{
				"x": -0.4066522422,
				"y": -1.7785323544,
				"z": 1.7745770996,
				"element": "C" 
			},
			{
				"x": -0.3591995162,
				"y": -1.4545966627,
				"z": 0.3524795828,
				"element": "N" 
			},
			{
				"x": -0.0540013428,
				"y": -2.5665474887,
				"z": -0.5426011861,
				"element": "C" 
			},
			{
				"x": -0.6118166047,
				"y": -0.1707137133,
				"z": -0.0323462009,
				"element": "C" 
			},
			{
				"x": -0.8193639794,
				"y": 0.7494141215,
				"z": 0.7547957094,
				"element": "O" 
			},
			{
				"x": -0.6173304593,
				"y": 0.1511948778,
				"z": -1.5398996223,
				"element": "C" 
			},
			{
				"x": 0.7276637258,
				"y": 0.4350030749,
				"z": -2.0265774098,
				"element": "N" 
			},
			{
				"x": 1.5593329742,
				"y": 1.4427493952,
				"z": -1.6920419909,
				"element": "C" 
			},
			{
				"x": 2.7048858728,
				"y": 1.1911769726,
				"z": -2.4269867089,
				"element": "C" 
			},
			{
				"x": 2.5141171307,
				"y": 0.0512022811,
				"z": -3.1584733935,
				"element": "N" 
			},
			{
				"x": 1.3261956169,
				"y": -0.407263175,
				"z": -2.9202169832,
				"element": "N" 
			},
			{
				"x": 3.9604797731,
				"y": 1.9605037593,
				"z": -2.4771853009,
				"element": "C" 
			},
			{
				"x": 3.8897136581,
				"y": 3.0533060596,
				"z": -1.6695662086,
				"element": "O" 
			},
			{
				"x": 4.938136513,
				"y": 1.6856679705,
				"z": -3.1342976652,
				"element": "O" 
			},
			{
				"x": -1.1395920122,
				"y": -2.5734780382,
				"z": 1.9565803282,
				"element": "H" 
			},
			{
				"x": 0.5742047912,
				"y": -2.1252377975,
				"z": 2.1208469544,
				"element": "H" 
			},
			{
				"x": -0.6907709722,
				"y": -0.8837753529,
				"z": 2.3252028182,
				"element": "H" 
			},
			{
				"x": 0.2850728925,
				"y": -2.2221769396,
				"z": -1.5184513345,
				"element": "H" 
			},
			{
				"x": -0.9214726466,
				"y": -3.2279568732,
				"z": -0.6692128282,
				"element": "H" 
			},
			{
				"x": 0.7591881096,
				"y": -3.1572362477,
				"z": -0.1080949183,
				"element": "H" 
			},
			{
				"x": -1.2353273146,
				"y": 1.0430666929,
				"z": -1.6526433127,
				"element": "H" 
			},
			{
				"x": -1.014520008,
				"y": -0.6421583889,
				"z": -2.172912574,
				"element": "H" 
			},
			{
				"x": 1.2937019445,
				"y": 2.2165136512,
				"z": -0.9895616656,
				"element": "H" 
			},
			{
				"x": 4.7468540957,
				"y": 3.5022741755,
				"z": -1.7553131891,
				"element": "H" 
			}
		],
		 "valence_orbital": [ 
			{
				"type": "occ",
				"energy": -0.28389,
				"method": "rhf"
			},
			{
				"type": "occ",
				"energy": -0.28006,
				"method": "rhf"
			},
			{
				"type": "occ",
				"energy": -0.27935,
				"method": "rhf"
			},
			{
				"type": "occ",
				"energy": -0.26392,
				"method": "rhf"
			},
			{
				"type": "occ",
				"energy": -0.25774,
				"method": "rhf"
			},
			{
				"type": "unocc",
				"energy": -0.0362,
				"method": "rhf"
			},
			{
				"type": "unocc",
				"energy": -0.0215,
				"method": "rhf"
			},
			{
				"type": "unocc",
				"energy": 0.00092,
				"method": "rhf"
			},
			{
				"type": "unocc",
				"energy": 0.076,
				"method": "rhf"
			},
			{
				"type": "unocc",
				"energy": 0.07859,
				"method": "rhf"
			}
		],
		"cosmo_sigma_profile": { 
			"-0.025": 0.0,
			"-0.024": 0.0,
			"-0.023": 0.0,
			"-0.022": 0.0,
			"-0.021": 0.0,
			"-0.02": 0.0,
			"-0.019": 0.245443890921,
			"-0.018": 0.994933082162,
			"-0.017": 1.09174866828,
			"-0.016": 0.510967498399,
			"-0.015": 0.849196179717,
			"-0.014": 0.504259133524,
			"-0.013": 0.356918021416,
			"-0.012": 0.941547766828,
			"-0.011": 1.49738815023,
			"-0.01": 2.47564006201,
			"-0.009": 4.80217909156,
			"-0.008": 7.05743019186,
			"-0.007": 5.78721046942,
			"-0.006": 10.0344575266,
			"-0.005": 18.2723527116,
			"-0.004": 19.5978050631,
			"-0.003": 25.1050984342,
			"-0.002": 24.85775813,
			"-0.001": 14.821962255,
			"0.0": 8.79673829549,
			"0.001": 6.2969454227,
			"0.002": 7.47187449717,
			"0.003": 4.83994959283,
			"0.004": 4.17034493016,
			"0.005": 5.82920442841,
			"0.006": 5.88062437072,
			"0.007": 6.70608784791,
			"0.008": 4.3734661668,
			"0.009": 6.30448544546,
			"0.01": 6.30101933336,
			"0.011": 8.69291112765,
			"0.012": 6.6319428846,
			"0.013": 7.13076166707,
			"0.014": 3.09763340984,
			"0.015": 0.359990418112,
			"0.016": 0.0,
			"0.017": 0.0,
			"0.018": 0.0,
			"0.019": 0.0,
			"0.02": 0.0,
			"0.021": 0.0,
			"0.022": 0.0,
			"0.023": 0.0,
			"0.024": 0.0,
			"0.025": 0.0
		}
	}
}
