{
	 "smiles": "FC1=C(C=CC(=C1)S(Cl)(=O)=O)C(=O)N1CCCC1", 
	 "Tm": 353.15, 
	 "num_atms": 29, 
	 "gaussian": { 
		 "optdone": 1, 
		 "sigma_profile": "yes", 
		 "theory": "DFT", 
		 "functional": "B3LYP", 
		 "basiset": "6-31G**", 
		 "properties": { 
			 "R2extent": 9029.8155, 
			 "electric_dipole_moment_norm": 6.06875884098, 
			 "electric_quadrupole_moment_norm": 20.3946106665, 
			 "total_energy": -1664.379675, 
			 "HOMO_LUMO_gap": 0.15607, 
			 "cosmo_polarized_energy": -14.22, 
			 "cosmo_cavitation_energy": 36.34, 
			 "cosmo_dispersion_energy": -26.48, 
			 "cosmo_repulsion_energy": 2.01, 
			 "cosmo_total_nonelectrostatic_energy": 11.87, 
			 "SMD_solvation_energy": 4.74 
		},
		"coords": [
			{
				"x": -0.0678241167,
				"y": -0.9289792062,
				"z": 0.7522783461,
				"element": "F" 
			},
			{
				"x": 1.0760522824,
				"y": -0.6115195214,
				"z": 0.11073547,
				"element": "C" 
			},
			{
				"x": 1.01439496,
				"y": -0.0341939643,
				"z": -1.1598413627,
				"element": "C" 
			},
			{
				"x": 2.2254320409,
				"y": 0.2380453811,
				"z": -1.8129559627,
				"element": "C" 
			},
			{
				"x": 3.451554207,
				"y": -0.0050245597,
				"z": -1.2008738697,
				"element": "C" 
			},
			{
				"x": 3.4505723866,
				"y": -0.5624924947,
				"z": 0.0785552989,
				"element": "C" 
			},
			{
				"x": 2.2760691013,
				"y": -0.8826791397,
				"z": 0.7552495224,
				"element": "C" 
			},
			{
				"x": 5.0119474261,
				"y": -0.8705234137,
				"z": 0.8961658449,
				"element": "S" 
			},
			{
				"x": 5.4404230282,
				"y": -2.8514829298,
				"z": 0.2444476797,
				"element": "Cl" 
			},
			{
				"x": 4.7917396089,
				"y": -0.9520537926,
				"z": 2.3344761846,
				"element": "O" 
			},
			{
				"x": 6.0353859721,
				"y": -0.0158024688,
				"z": 0.3088877825,
				"element": "O" 
			},
			{
				"x": -0.2688326733,
				"y": 0.1808837598,
				"z": -1.9351047978,
				"element": "C" 
			},
			{
				"x": -0.369448857,
				"y": -0.3164014966,
				"z": -3.0556767724,
				"element": "O" 
			},
			{
				"x": -1.2417646592,
				"y": 0.9471871293,
				"z": -1.3790012981,
				"element": "N" 
			},
			{
				"x": -1.1489535574,
				"y": 1.7717106444,
				"z": -0.1586446294,
				"element": "C" 
			},
			{
				"x": -2.5542051496,
				"y": 2.3820429572,
				"z": -0.0402165242,
				"element": "C" 
			},
			{
				"x": -3.0158881803,
				"y": 2.5071176159,
				"z": -1.5011921703,
				"element": "C" 
			},
			{
				"x": -2.4616733441,
				"y": 1.2356990136,
				"z": -2.1565365098,
				"element": "C" 
			},
			{
				"x": 2.1870712025,
				"y": 0.6412039117,
				"z": -2.8191346502,
				"element": "H" 
			},
			{
				"x": 4.3859340422,
				"y": 0.2287615035,
				"z": -1.6972817487,
				"element": "H" 
			},
			{
				"x": 2.2847312336,
				"y": -1.3236011025,
				"z": 1.7448422328,
				"element": "H" 
			},
			{
				"x": -0.8889663932,
				"y": 1.1666693964,
				"z": 0.7103357577,
				"element": "H" 
			},
			{
				"x": -0.3873108526,
				"y": 2.5537042088,
				"z": -0.2800363018,
				"element": "H" 
			},
			{
				"x": -3.2108457102,
				"y": 1.6948815861,
				"z": 0.5049131375,
				"element": "H" 
			},
			{
				"x": -2.5450335443,
				"y": 3.3335806575,
				"z": 0.4975784598,
				"element": "H" 
			},
			{
				"x": -4.1009115738,
				"y": 2.5892439385,
				"z": -1.6035721805,
				"element": "H" 
			},
			{
				"x": -2.5682529417,
				"y": 3.3941018012,
				"z": -1.9639171058,
				"element": "H" 
			},
			{
				"x": -2.2077371777,
				"y": 1.349232517,
				"z": -3.2128230662,
				"element": "H" 
			},
			{
				"x": -3.1618587609,
				"y": 0.3946880682,
				"z": -2.0752567665,
				"element": "H" 
			}
		],
		 "valence_orbital": [ 
			{
				"type": "occ",
				"energy": -0.31746,
				"method": "rhf"
			},
			{
				"type": "occ",
				"energy": -0.30146,
				"method": "rhf"
			},
			{
				"type": "occ",
				"energy": -0.28525,
				"method": "rhf"
			},
			{
				"type": "occ",
				"energy": -0.26073,
				"method": "rhf"
			},
			{
				"type": "occ",
				"energy": -0.25255,
				"method": "rhf"
			},
			{
				"type": "unocc",
				"energy": -0.09648,
				"method": "rhf"
			},
			{
				"type": "unocc",
				"energy": -0.05759,
				"method": "rhf"
			},
			{
				"type": "unocc",
				"energy": -0.03905,
				"method": "rhf"
			},
			{
				"type": "unocc",
				"energy": 0.01204,
				"method": "rhf"
			},
			{
				"type": "unocc",
				"energy": 0.04656,
				"method": "rhf"
			}
		],
		"cosmo_sigma_profile": { 
			"-0.025": 0.0,
			"-0.024": 0.0,
			"-0.023": 0.0,
			"-0.022": 0.0,
			"-0.021": 0.0,
			"-0.02": 0.0,
			"-0.019": 0.0,
			"-0.018": 0.0,
			"-0.017": 0.0,
			"-0.016": 0.0,
			"-0.015": 0.0,
			"-0.014": 0.0,
			"-0.013": 0.0,
			"-0.012": 0.0,
			"-0.011": 0.0,
			"-0.01": 0.679675773848,
			"-0.009": 2.79651614767,
			"-0.008": 4.6071596064,
			"-0.007": 6.07397908469,
			"-0.006": 5.74544909218,
			"-0.005": 11.9987373088,
			"-0.004": 30.0254661369,
			"-0.003": 38.4107155351,
			"-0.002": 35.2512849374,
			"-0.001": 29.0238091413,
			"0.0": 21.0085328324,
			"0.001": 14.4040070754,
			"0.002": 16.0565760681,
			"0.003": 22.3800766169,
			"0.004": 7.54579898831,
			"0.005": 4.42286770922,
			"0.006": 5.79178846497,
			"0.007": 8.4352459251,
			"0.008": 10.9425279092,
			"0.009": 4.1374232952,
			"0.01": 0.8258739755,
			"0.011": 1.78328679761,
			"0.012": 2.08630591124,
			"0.013": 4.93703015966,
			"0.014": 2.65592703735,
			"0.015": 0.0906378186663,
			"0.016": 0.0,
			"0.017": 0.0,
			"0.018": 0.0,
			"0.019": 0.0,
			"0.02": 0.0,
			"0.021": 0.0,
			"0.022": 0.0,
			"0.023": 0.0,
			"0.024": 0.0,
			"0.025": 0.0
		}
	}
}
