{
	 "smiles": "CC1=C(C=NN1C1=CC=CC=C1)C(O)=O", 
	 "Tm": 440.15, 
	 "num_atms": 25, 
	 "gaussian": { 
		 "optdone": 1, 
		 "sigma_profile": "yes", 
		 "theory": "DFT", 
		 "functional": "B3LYP", 
		 "basiset": "6-31G**", 
		 "properties": { 
			 "R2extent": 4298.1407, 
			 "electric_dipole_moment_norm": 6.6430995341, 
			 "electric_quadrupole_moment_norm": 22.7881416364, 
			 "total_energy": -685.139401505, 
			 "HOMO_LUMO_gap": 0.20379, 
			 "cosmo_polarized_energy": -18.43, 
			 "cosmo_cavitation_energy": 29.37, 
			 "cosmo_dispersion_energy": -21.31, 
			 "cosmo_repulsion_energy": 1.64, 
			 "cosmo_total_nonelectrostatic_energy": 9.71, 
			 "SMD_solvation_energy": 5.44 
		},
		"coords": [
			{
				"x": 0.1604652919,
				"y": -1.9063708344,
				"z": 2.1109145396,
				"element": "C" 
			},
			{
				"x": 0.9261105793,
				"y": -0.7318372605,
				"z": 1.5786752033,
				"element": "C" 
			},
			{
				"x": 2.280155743,
				"y": -0.4070013009,
				"z": 1.6884626398,
				"element": "C" 
			},
			{
				"x": 2.3924332627,
				"y": 0.8856260739,
				"z": 1.1171753831,
				"element": "C" 
			},
			{
				"x": 1.2342253462,
				"y": 1.3318216174,
				"z": 0.6676542597,
				"element": "N" 
			},
			{
				"x": 0.3409807326,
				"y": 0.3338406665,
				"z": 0.9489952958,
				"element": "N" 
			},
			{
				"x": -1.0313872444,
				"y": 0.542731139,
				"z": 0.6232654928,
				"element": "C" 
			},
			{
				"x": -1.7928075383,
				"y": -0.4753798376,
				"z": 0.0413885963,
				"element": "C" 
			},
			{
				"x": -3.1341546386,
				"y": -0.2421152085,
				"z": -0.2656434169,
				"element": "C" 
			},
			{
				"x": -3.7075768786,
				"y": 1.0047168992,
				"z": -0.0147137572,
				"element": "C" 
			},
			{
				"x": -2.9326366499,
				"y": 2.0242639347,
				"z": 0.5445986339,
				"element": "C" 
			},
			{
				"x": -1.5969412952,
				"y": 1.7987122016,
				"z": 0.8688323772,
				"element": "C" 
			},
			{
				"x": 3.409980275,
				"y": -1.1293227062,
				"z": 2.303595797,
				"element": "C" 
			},
			{
				"x": 3.2567496713,
				"y": -2.4743667832,
				"z": 2.5025409172,
				"element": "O" 
			},
			{
				"x": 4.4413988441,
				"y": -0.5909876433,
				"z": 2.6320744851,
				"element": "O" 
			},
			{
				"x": 0.075622833,
				"y": -2.7224319996,
				"z": 1.3816367468,
				"element": "H" 
			},
			{
				"x": 0.6554318423,
				"y": -2.2987369651,
				"z": 3.0030424159,
				"element": "H" 
			},
			{
				"x": -0.8564649899,
				"y": -1.6208922765,
				"z": 2.3899331075,
				"element": "H" 
			},
			{
				"x": 3.2907187578,
				"y": 1.479373493,
				"z": 1.0215366726,
				"element": "H" 
			},
			{
				"x": -1.336382009,
				"y": -1.4299909945,
				"z": -0.1954950731,
				"element": "H" 
			},
			{
				"x": -3.7237584462,
				"y": -1.0338927532,
				"z": -0.7177983449,
				"element": "H" 
			},
			{
				"x": -4.749641928,
				"y": 1.1843642502,
				"z": -0.2608247825,
				"element": "H" 
			},
			{
				"x": -3.3707607864,
				"y": 2.9993359323,
				"z": 0.7350332085,
				"element": "H" 
			},
			{
				"x": -0.9800472778,
				"y": 2.57860954,
				"z": 1.2993749402,
				"element": "H" 
			},
			{
				"x": 2.4837865031,
				"y": -2.7961691842,
				"z": 2.0202446624,
				"element": "H" 
			}
		],
		 "valence_orbital": [ 
			{
				"type": "occ",
				"energy": -0.2958,
				"method": "rhf"
			},
			{
				"type": "occ",
				"energy": -0.27122,
				"method": "rhf"
			},
			{
				"type": "occ",
				"energy": -0.2691,
				"method": "rhf"
			},
			{
				"type": "occ",
				"energy": -0.25969,
				"method": "rhf"
			},
			{
				"type": "occ",
				"energy": -0.24581,
				"method": "rhf"
			},
			{
				"type": "unocc",
				"energy": -0.04202,
				"method": "rhf"
			},
			{
				"type": "unocc",
				"energy": -0.022,
				"method": "rhf"
			},
			{
				"type": "unocc",
				"energy": -0.01006,
				"method": "rhf"
			},
			{
				"type": "unocc",
				"energy": 0.01716,
				"method": "rhf"
			},
			{
				"type": "unocc",
				"energy": 0.05368,
				"method": "rhf"
			}
		],
		"cosmo_sigma_profile": { 
			"-0.025": 0.0,
			"-0.024": 0.0,
			"-0.023": 0.0,
			"-0.022": 0.0,
			"-0.021": 0.0,
			"-0.02": 0.0,
			"-0.019": 0.0,
			"-0.018": 0.0,
			"-0.017": 0.44845802316,
			"-0.016": 0.980628339329,
			"-0.015": 1.24745589487,
			"-0.014": 0.884392987569,
			"-0.013": 1.03098191696,
			"-0.012": 1.1548753157,
			"-0.011": 0.99738947859,
			"-0.01": 0.834275696402,
			"-0.009": 1.30095906391,
			"-0.008": 4.59002362737,
			"-0.007": 9.11955070952,
			"-0.006": 16.2994951017,
			"-0.005": 18.5773003455,
			"-0.004": 17.0334991555,
			"-0.003": 16.2849230414,
			"-0.002": 16.0969064537,
			"-0.001": 13.5683153816,
			"0.0": 12.1100178938,
			"0.001": 13.4616903404,
			"0.002": 14.9854317562,
			"0.003": 12.757620128,
			"0.004": 14.8983257085,
			"0.005": 7.3679998144,
			"0.006": 4.43378031578,
			"0.007": 4.29987442342,
			"0.008": 3.72844553526,
			"0.009": 3.91875944608,
			"0.01": 5.44677322597,
			"0.011": 6.31223208622,
			"0.012": 6.89635823143,
			"0.013": 3.32380602629,
			"0.014": 0.874854045796,
			"0.015": 0.174227997785,
			"0.016": 0.0,
			"0.017": 0.0,
			"0.018": 0.0,
			"0.019": 0.0,
			"0.02": 0.0,
			"0.021": 0.0,
			"0.022": 0.0,
			"0.023": 0.0,
			"0.024": 0.0,
			"0.025": 0.0
		}
	}
}
