{
	 "smiles": "[O-][N+](=O)C1=CC(N2CCOC2=O)=C(Cl)C=C1", 
	 "Tm": 431.15, 
	 "num_atms": 23, 
	 "gaussian": { 
		 "optdone": 1, 
		 "sigma_profile": "yes", 
		 "theory": "DFT", 
		 "functional": "B3LYP", 
		 "basiset": "6-31G**", 
		 "properties": { 
			 "R2extent": 4211.7229, 
			 "electric_dipole_moment_norm": 4.40547029272, 
			 "electric_quadrupole_moment_norm": 28.2238104141, 
			 "total_energy": -1217.66853585, 
			 "HOMO_LUMO_gap": 0.15908, 
			 "cosmo_polarized_energy": -17.92, 
			 "cosmo_cavitation_energy": 30.04, 
			 "cosmo_dispersion_energy": -21.78, 
			 "cosmo_repulsion_energy": 1.7, 
			 "cosmo_total_nonelectrostatic_energy": 9.95, 
			 "SMD_solvation_energy": 8.23 
		},
		"coords": [
			{
				"x": -0.0119533435,
				"y": -0.3397113067,
				"z": -3.9284289861,
				"element": "O" 
			},
			{
				"x": -0.6140001203,
				"y": 0.6506274028,
				"z": -3.5138121461,
				"element": "N" 
			},
			{
				"x": -1.2213161698,
				"y": 1.4524766856,
				"z": -4.2210624763,
				"element": "O" 
			},
			{
				"x": -0.6105130023,
				"y": 0.8920006377,
				"z": -2.0630724564,
				"element": "C" 
			},
			{
				"x": 0.095408608,
				"y": 0.0182501546,
				"z": -1.2441312189,
				"element": "C" 
			},
			{
				"x": 0.1086034595,
				"y": 0.2175894864,
				"z": 0.1385038883,
				"element": "C" 
			},
			{
				"x": 0.8079598644,
				"y": -0.6753670394,
				"z": 0.9795927789,
				"element": "N" 
			},
			{
				"x": 0.8040696847,
				"y": -2.1249237917,
				"z": 0.8052539333,
				"element": "C" 
			},
			{
				"x": 1.6602016098,
				"y": -2.5334828984,
				"z": 2.0127697656,
				"element": "C" 
			},
			{
				"x": 2.495788466,
				"y": -1.3910870483,
				"z": 2.2635901442,
				"element": "O" 
			},
			{
				"x": 1.9345587567,
				"y": -0.27697945,
				"z": 1.7077872917,
				"element": "C" 
			},
			{
				"x": 2.3703784322,
				"y": 0.8361726681,
				"z": 1.835551029,
				"element": "O" 
			},
			{
				"x": -0.6196996035,
				"y": 1.3053935766,
				"z": 0.6653930643,
				"element": "C" 
			},
			{
				"x": -0.7377400794,
				"y": 1.5494223647,
				"z": 2.383771526,
				"element": "Cl" 
			},
			{
				"x": -1.297843627,
				"y": 2.1894800798,
				"z": -0.1787244344,
				"element": "C" 
			},
			{
				"x": -1.3011438959,
				"y": 1.9883921816,
				"z": -1.5541296438,
				"element": "C" 
			},
			{
				"x": 0.6359370893,
				"y": -0.8032224524,
				"z": -1.6964700144,
				"element": "H" 
			},
			{
				"x": -0.2092812735,
				"y": -2.5324922837,
				"z": 0.8469855983,
				"element": "H" 
			},
			{
				"x": 1.269231855,
				"y": -2.4304630874,
				"z": -0.142179523,
				"element": "H" 
			},
			{
				"x": 1.0442430299,
				"y": -2.7230536022,
				"z": 2.8986405595,
				"element": "H" 
			},
			{
				"x": 2.3009984182,
				"y": -3.3954303349,
				"z": 1.8213514934,
				"element": "H" 
			},
			{
				"x": -1.8386417245,
				"y": 3.022399851,
				"z": 0.2552283881,
				"element": "H" 
			},
			{
				"x": -1.8317464342,
				"y": 2.6513082061,
				"z": -2.2253085612,
				"element": "H" 
			}
		],
		 "valence_orbital": [ 
			{
				"type": "occ",
				"energy": -0.30536,
				"method": "rhf"
			},
			{
				"type": "occ",
				"energy": -0.30134,
				"method": "rhf"
			},
			{
				"type": "occ",
				"energy": -0.29095,
				"method": "rhf"
			},
			{
				"type": "occ",
				"energy": -0.28158,
				"method": "rhf"
			},
			{
				"type": "occ",
				"energy": -0.25994,
				"method": "rhf"
			},
			{
				"type": "unocc",
				"energy": -0.10086,
				"method": "rhf"
			},
			{
				"type": "unocc",
				"energy": -0.04707,
				"method": "rhf"
			},
			{
				"type": "unocc",
				"energy": -0.01603,
				"method": "rhf"
			},
			{
				"type": "unocc",
				"energy": 0.01276,
				"method": "rhf"
			},
			{
				"type": "unocc",
				"energy": 0.03374,
				"method": "rhf"
			}
		],
		"cosmo_sigma_profile": { 
			"-0.025": 0.0,
			"-0.024": 0.0,
			"-0.023": 0.0,
			"-0.022": 0.0,
			"-0.021": 0.0,
			"-0.02": 0.0,
			"-0.019": 0.0,
			"-0.018": 0.0,
			"-0.017": 0.0,
			"-0.016": 0.0,
			"-0.015": 0.0,
			"-0.014": 0.0,
			"-0.013": 0.0,
			"-0.012": 0.0,
			"-0.011": 0.0,
			"-0.01": 0.764243853573,
			"-0.009": 3.46881489603,
			"-0.008": 9.3892242491,
			"-0.007": 21.3601331839,
			"-0.006": 18.5492170975,
			"-0.005": 14.8076448596,
			"-0.004": 11.7389835015,
			"-0.003": 13.2054694649,
			"-0.002": 15.0398440755,
			"-0.001": 19.8582156442,
			"0.0": 15.9893510096,
			"0.001": 10.2841638435,
			"0.002": 10.8636178606,
			"0.003": 10.1992637631,
			"0.004": 8.49442370049,
			"0.005": 6.24383468404,
			"0.006": 6.82423374081,
			"0.007": 11.8274961246,
			"0.008": 9.78853575174,
			"0.009": 8.65298286906,
			"0.01": 5.07088036269,
			"0.011": 3.66482692679,
			"0.012": 5.62708695099,
			"0.013": 1.33451646748,
			"0.014": 0.0,
			"0.015": 0.0,
			"0.016": 0.0,
			"0.017": 0.0,
			"0.018": 0.0,
			"0.019": 0.0,
			"0.02": 0.0,
			"0.021": 0.0,
			"0.022": 0.0,
			"0.023": 0.0,
			"0.024": 0.0,
			"0.025": 0.0
		}
	}
}
