{
	 "smiles": "ClC(=O)C1=CSC(=N1)C1=CC=CS1", 
	 "Tm": 366.65, 
	 "num_atms": 17, 
	 "gaussian": { 
		 "optdone": 1, 
		 "sigma_profile": "yes", 
		 "theory": "DFT", 
		 "functional": "B3LYP", 
		 "basiset": "6-31G**", 
		 "properties": { 
			 "R2extent": 5024.7314, 
			 "electric_dipole_moment_norm": 4.82226240161, 
			 "electric_quadrupole_moment_norm": 14.9568294652, 
			 "total_energy": -1693.78506251, 
			 "HOMO_LUMO_gap": 0.15193, 
			 "cosmo_polarized_energy": -9.14, 
			 "cosmo_cavitation_energy": 27.84, 
			 "cosmo_dispersion_energy": -21.45, 
			 "cosmo_repulsion_energy": 1.6, 
			 "cosmo_total_nonelectrostatic_energy": 8.0, 
			 "SMD_solvation_energy": 4.14 
		},
		"coords": [
			{
				"x": 4.0329067753,
				"y": -2.3771735445,
				"z": -0.8371824713,
				"element": "Cl" 
			},
			{
				"x": 4.239836154,
				"y": -1.2609356042,
				"z": 0.5653764537,
				"element": "C" 
			},
			{
				"x": 5.323932021,
				"y": -1.0627345962,
				"z": 1.0328042707,
				"element": "O" 
			},
			{
				"x": 2.9858151622,
				"y": -0.6482041754,
				"z": 1.0506761458,
				"element": "C" 
			},
			{
				"x": 3.0027473898,
				"y": 0.2226668928,
				"z": 2.1157793159,
				"element": "C" 
			},
			{
				"x": 1.4086621889,
				"y": 0.7696683729,
				"z": 2.4499812596,
				"element": "S" 
			},
			{
				"x": 0.8160874295,
				"y": -0.2336690098,
				"z": 1.1035122118,
				"element": "C" 
			},
			{
				"x": 1.7607025592,
				"y": -0.8963104475,
				"z": 0.492811111,
				"element": "N" 
			},
			{
				"x": -0.5833022716,
				"y": -0.301551406,
				"z": 0.7288979041,
				"element": "C" 
			},
			{
				"x": -1.1086721772,
				"y": -1.055288399,
				"z": -0.2995277548,
				"element": "C" 
			},
			{
				"x": -2.5169667669,
				"y": -0.9175343423,
				"z": -0.4253561791,
				"element": "C" 
			},
			{
				"x": -3.0529944878,
				"y": -0.0642236397,
				"z": 0.5031045456,
				"element": "C" 
			},
			{
				"x": -1.8423208842,
				"y": 0.5903117794,
				"z": 1.553431137,
				"element": "S" 
			},
			{
				"x": 3.8611225728,
				"y": 0.54438089,
				"z": 2.6869990053,
				"element": "H" 
			},
			{
				"x": -0.4856633822,
				"y": -1.6783445766,
				"z": -0.9290868027,
				"element": "H" 
			},
			{
				"x": -3.1093990112,
				"y": -1.4302907138,
				"z": -1.1740017185,
				"element": "H" 
			},
			{
				"x": -4.0868932716,
				"y": 0.2222325199,
				"z": 0.636681566,
				"element": "H" 
			}
		],
		 "valence_orbital": [ 
			{
				"type": "occ",
				"energy": -0.3021,
				"method": "rhf"
			},
			{
				"type": "occ",
				"energy": -0.29753,
				"method": "rhf"
			},
			{
				"type": "occ",
				"energy": -0.28775,
				"method": "rhf"
			},
			{
				"type": "occ",
				"energy": -0.27226,
				"method": "rhf"
			},
			{
				"type": "occ",
				"energy": -0.23436,
				"method": "rhf"
			},
			{
				"type": "unocc",
				"energy": -0.08243,
				"method": "rhf"
			},
			{
				"type": "unocc",
				"energy": -0.06489,
				"method": "rhf"
			},
			{
				"type": "unocc",
				"energy": -0.0265,
				"method": "rhf"
			},
			{
				"type": "unocc",
				"energy": 0.00908,
				"method": "rhf"
			},
			{
				"type": "unocc",
				"energy": 0.02542,
				"method": "rhf"
			}
		],
		"cosmo_sigma_profile": { 
			"-0.025": 0.0,
			"-0.024": 0.0,
			"-0.023": 0.0,
			"-0.022": 0.0,
			"-0.021": 0.0,
			"-0.02": 0.0,
			"-0.019": 0.0,
			"-0.018": 0.0,
			"-0.017": 0.0,
			"-0.016": 0.0,
			"-0.015": 0.0,
			"-0.014": 0.0,
			"-0.013": 0.0,
			"-0.012": 0.107801722399,
			"-0.011": 1.50247839143,
			"-0.01": 2.13376018358,
			"-0.009": 3.74371749566,
			"-0.008": 4.52907580386,
			"-0.007": 6.4451719095,
			"-0.006": 7.09576118996,
			"-0.005": 8.43884926062,
			"-0.004": 11.130348361,
			"-0.003": 17.0237374878,
			"-0.002": 20.42704814,
			"-0.001": 23.9520302466,
			"0.0": 19.1196700208,
			"0.001": 18.1302519701,
			"0.002": 22.1492504093,
			"0.003": 21.7654791387,
			"0.004": 15.650366813,
			"0.005": 7.09376527727,
			"0.006": 4.80328895757,
			"0.007": 4.01952512305,
			"0.008": 5.04557971751,
			"0.009": 5.06261763617,
			"0.01": 2.1400013627,
			"0.011": 0.690324859024,
			"0.012": 0.0989806062675,
			"0.013": 0.0,
			"0.014": 0.0,
			"0.015": 0.0,
			"0.016": 0.0,
			"0.017": 0.0,
			"0.018": 0.0,
			"0.019": 0.0,
			"0.02": 0.0,
			"0.021": 0.0,
			"0.022": 0.0,
			"0.023": 0.0,
			"0.024": 0.0,
			"0.025": 0.0
		}
	}
}
