{
	 "smiles": "NC1=C(CO)C=CC=C1", 
	 "Tm": 356.65, 
	 "num_atms": 18, 
	 "gaussian": { 
		 "optdone": 1, 
		 "sigma_profile": "yes", 
		 "theory": "DFT", 
		 "functional": "B3LYP", 
		 "basiset": "6-31G**", 
		 "properties": { 
			 "R2extent": 1677.4463, 
			 "electric_dipole_moment_norm": 1.36224327857, 
			 "electric_quadrupole_moment_norm": 7.55785300201, 
			 "total_energy": -402.141913883, 
			 "HOMO_LUMO_gap": 0.19798, 
			 "cosmo_polarized_energy": -9.19, 
			 "cosmo_cavitation_energy": 20.88, 
			 "cosmo_dispersion_energy": -15.81, 
			 "cosmo_repulsion_energy": 1.3, 
			 "cosmo_total_nonelectrostatic_energy": 6.37, 
			 "SMD_solvation_energy": 3.53 
		},
		"coords": [
			{
				"x": -1.164117316,
				"y": -2.429877727,
				"z": -1.4497582344,
				"element": "N" 
			},
			{
				"x": -0.215160364,
				"y": -2.1383563288,
				"z": -0.474786826,
				"element": "C" 
			},
			{
				"x": 0.5444637775,
				"y": -0.9447828548,
				"z": -0.5694679245,
				"element": "C" 
			},
			{
				"x": 0.311923767,
				"y": -0.0008619717,
				"z": -1.7225132664,
				"element": "C" 
			},
			{
				"x": -1.0557381474,
				"y": 0.4324649513,
				"z": -1.8400306691,
				"element": "O" 
			},
			{
				"x": 1.5191284981,
				"y": -0.6787850186,
				"z": 0.395190822,
				"element": "C" 
			},
			{
				"x": 1.7778670886,
				"y": -1.5660725838,
				"z": 1.441122725,
				"element": "C" 
			},
			{
				"x": 1.0353661195,
				"y": -2.7455804851,
				"z": 1.521746407,
				"element": "C" 
			},
			{
				"x": 0.0484292962,
				"y": -3.0282593828,
				"z": 0.5802539154,
				"element": "C" 
			},
			{
				"x": -1.6015243262,
				"y": -1.6103839981,
				"z": -1.8561900446,
				"element": "H" 
			},
			{
				"x": -1.8198377605,
				"y": -3.1595199597,
				"z": -1.2085798781,
				"element": "H" 
			},
			{
				"x": 0.9857288928,
				"y": 0.8636941737,
				"z": -1.6437643287,
				"element": "H" 
			},
			{
				"x": 0.5203225882,
				"y": -0.4980903528,
				"z": -2.6769532929,
				"element": "H" 
			},
			{
				"x": -1.3071551533,
				"y": 0.8050016236,
				"z": -0.9836487825,
				"element": "H" 
			},
			{
				"x": 2.0914601061,
				"y": 0.2433021575,
				"z": 0.3152824136,
				"element": "H" 
			},
			{
				"x": 2.5424619753,
				"y": -1.3411142433,
				"z": 2.1778209892,
				"element": "H" 
			},
			{
				"x": 1.2180214662,
				"y": -3.4505706603,
				"z": 2.3283315437,
				"element": "H" 
			},
			{
				"x": -0.5289405081,
				"y": -3.9471073395,
				"z": 0.6546444312,
				"element": "H" 
			}
		],
		 "valence_orbital": [ 
			{
				"type": "occ",
				"energy": -0.32929,
				"method": "rhf"
			},
			{
				"type": "occ",
				"energy": -0.30231,
				"method": "rhf"
			},
			{
				"type": "occ",
				"energy": -0.27885,
				"method": "rhf"
			},
			{
				"type": "occ",
				"energy": -0.24137,
				"method": "rhf"
			},
			{
				"type": "occ",
				"energy": -0.1973,
				"method": "rhf"
			},
			{
				"type": "unocc",
				"energy": 0.00068,
				"method": "rhf"
			},
			{
				"type": "unocc",
				"energy": 0.01882,
				"method": "rhf"
			},
			{
				"type": "unocc",
				"energy": 0.0821,
				"method": "rhf"
			},
			{
				"type": "unocc",
				"energy": 0.10088,
				"method": "rhf"
			},
			{
				"type": "unocc",
				"energy": 0.1086,
				"method": "rhf"
			}
		],
		"cosmo_sigma_profile": { 
			"-0.025": 0.0,
			"-0.024": 0.0,
			"-0.023": 0.0,
			"-0.022": 0.0,
			"-0.021": 0.0,
			"-0.02": 0.0,
			"-0.019": 0.0,
			"-0.018": 0.0,
			"-0.017": 0.0,
			"-0.016": 0.201958100749,
			"-0.015": 1.01262216418,
			"-0.014": 0.803113824066,
			"-0.013": 0.910251400493,
			"-0.012": 1.61048929897,
			"-0.011": 2.12583278582,
			"-0.01": 1.65797158415,
			"-0.009": 1.87347828153,
			"-0.008": 2.93543666815,
			"-0.007": 4.12566394574,
			"-0.006": 3.58831415379,
			"-0.005": 12.143724782,
			"-0.004": 13.6143447439,
			"-0.003": 13.6462262328,
			"-0.002": 12.79424873,
			"-0.001": 10.2756399611,
			"0.0": 9.94402350204,
			"0.001": 8.07654468572,
			"0.002": 7.68846999987,
			"0.003": 7.40431567131,
			"0.004": 7.97377614496,
			"0.005": 8.47674897177,
			"0.006": 9.83575994263,
			"0.007": 8.80619571713,
			"0.008": 3.11637023099,
			"0.009": 1.75625531786,
			"0.01": 1.42454059861,
			"0.011": 1.66382329999,
			"0.012": 1.65753476991,
			"0.013": 1.93983348038,
			"0.014": 1.38832605511,
			"0.015": 0.206877084306,
			"0.016": 0.0,
			"0.017": 0.0,
			"0.018": 0.0,
			"0.019": 0.0,
			"0.02": 0.0,
			"0.021": 0.0,
			"0.022": 0.0,
			"0.023": 0.0,
			"0.024": 0.0,
			"0.025": 0.0
		}
	}
}
