{
	 "smiles": "CC1=CC(=C(C)C=C1Cl)S(Cl)(=O)=O", 
	 "Tm": 322.15, 
	 "num_atms": 21, 
	 "gaussian": { 
		 "optdone": 1, 
		 "sigma_profile": "yes", 
		 "theory": "DFT", 
		 "functional": "B3LYP", 
		 "basiset": "6-31G**", 
		 "properties": { 
			 "R2extent": 5524.1504, 
			 "electric_dipole_moment_norm": 3.87903043298, 
			 "electric_quadrupole_moment_norm": 18.549073482, 
			 "total_energy": -1778.63846417, 
			 "HOMO_LUMO_gap": 0.17888, 
			 "cosmo_polarized_energy": -7.83, 
			 "cosmo_cavitation_energy": 29.42, 
			 "cosmo_dispersion_energy": -22.04, 
			 "cosmo_repulsion_energy": 1.69, 
			 "cosmo_total_nonelectrostatic_energy": 9.07, 
			 "SMD_solvation_energy": 3.61 
		},
		"coords": [
			{
				"x": 1.1763340033,
				"y": 1.808814311,
				"z": -1.052189134,
				"element": "C" 
			},
			{
				"x": 0.5642704804,
				"y": 0.4520552587,
				"z": -0.8238365102,
				"element": "C" 
			},
			{
				"x": 1.2622516468,
				"y": -0.71718564,
				"z": -1.1368971108,
				"element": "C" 
			},
			{
				"x": 0.7010122525,
				"y": -1.977283789,
				"z": -0.9202646674,
				"element": "C" 
			},
			{
				"x": -0.5919167327,
				"y": -2.153964913,
				"z": -0.3916739979,
				"element": "C" 
			},
			{
				"x": -1.2466668887,
				"y": -3.4919337093,
				"z": -0.1514540775,
				"element": "C" 
			},
			{
				"x": -1.2850772068,
				"y": -0.9789715195,
				"z": -0.0837429212,
				"element": "C" 
			},
			{
				"x": -0.7225095308,
				"y": 0.2798197151,
				"z": -0.2923154256,
				"element": "C" 
			},
			{
				"x": -1.6806679646,
				"y": 1.6865355445,
				"z": 0.1305788308,
				"element": "Cl" 
			},
			{
				"x": 1.7501030621,
				"y": -3.3680305685,
				"z": -1.3397424087,
				"element": "S" 
			},
			{
				"x": 0.8490290882,
				"y": -4.0513857869,
				"z": -3.1595146282,
				"element": "Cl" 
			},
			{
				"x": 3.072703929,
				"y": -2.8792060974,
				"z": -1.7092583202,
				"element": "O" 
			},
			{
				"x": 1.5792582068,
				"y": -4.4486991605,
				"z": -0.3762227766,
				"element": "O" 
			},
			{
				"x": 1.24664129,
				"y": 2.373734734,
				"z": -0.1167977206,
				"element": "H" 
			},
			{
				"x": 0.5686049481,
				"y": 2.4060363482,
				"z": -1.7399350148,
				"element": "H" 
			},
			{
				"x": 2.1796098953,
				"y": 1.7142467865,
				"z": -1.4731530224,
				"element": "H" 
			},
			{
				"x": 2.2617626944,
				"y": -0.6496478775,
				"z": -1.5510797968,
				"element": "H" 
			},
			{
				"x": -0.7132949431,
				"y": -4.0605904727,
				"z": 0.6144157683,
				"element": "H" 
			},
			{
				"x": -2.2804656805,
				"y": -3.3501585751,
				"z": 0.1704980088,
				"element": "H" 
			},
			{
				"x": -1.2503856077,
				"y": -4.1061679459,
				"z": -1.0567575875,
				"element": "H" 
			},
			{
				"x": -2.286396942,
				"y": -1.0468166426,
				"z": 0.3273425126,
				"element": "H" 
			}
		],
		 "valence_orbital": [ 
			{
				"type": "occ",
				"energy": -0.33286,
				"method": "rhf"
			},
			{
				"type": "occ",
				"energy": -0.32975,
				"method": "rhf"
			},
			{
				"type": "occ",
				"energy": -0.31532,
				"method": "rhf"
			},
			{
				"type": "occ",
				"energy": -0.28242,
				"method": "rhf"
			},
			{
				"type": "occ",
				"energy": -0.27108,
				"method": "rhf"
			},
			{
				"type": "unocc",
				"energy": -0.0922,
				"method": "rhf"
			},
			{
				"type": "unocc",
				"energy": -0.05021,
				"method": "rhf"
			},
			{
				"type": "unocc",
				"energy": -0.03674,
				"method": "rhf"
			},
			{
				"type": "unocc",
				"energy": 0.01144,
				"method": "rhf"
			},
			{
				"type": "unocc",
				"energy": 0.05016,
				"method": "rhf"
			}
		],
		"cosmo_sigma_profile": { 
			"-0.025": 0.0,
			"-0.024": 0.0,
			"-0.023": 0.0,
			"-0.022": 0.0,
			"-0.021": 0.0,
			"-0.02": 0.0,
			"-0.019": 0.0,
			"-0.018": 0.0,
			"-0.017": 0.0,
			"-0.016": 0.0,
			"-0.015": 0.0,
			"-0.014": 0.0,
			"-0.013": 0.0,
			"-0.012": 0.0,
			"-0.011": 0.0,
			"-0.01": 0.0,
			"-0.009": 0.338065707221,
			"-0.008": 3.75785683732,
			"-0.007": 4.60641885104,
			"-0.006": 5.63085908863,
			"-0.005": 10.8288552181,
			"-0.004": 15.1618223437,
			"-0.003": 18.973887024,
			"-0.002": 27.3361386749,
			"-0.001": 29.5983349926,
			"0.0": 29.332731452,
			"0.001": 18.3390329027,
			"0.002": 15.9967646735,
			"0.003": 19.3792812145,
			"0.004": 14.6971410172,
			"0.005": 3.6789804376,
			"0.006": 3.87209892928,
			"0.007": 5.14701572327,
			"0.008": 8.32938785335,
			"0.009": 4.55183985009,
			"0.01": 0.00620784401301,
			"0.011": 0.0,
			"0.012": 0.0,
			"0.013": 0.0,
			"0.014": 0.0,
			"0.015": 0.0,
			"0.016": 0.0,
			"0.017": 0.0,
			"0.018": 0.0,
			"0.019": 0.0,
			"0.02": 0.0,
			"0.021": 0.0,
			"0.022": 0.0,
			"0.023": 0.0,
			"0.024": 0.0,
			"0.025": 0.0
		}
	}
}
