{
	 "smiles": "BrCC(=O)C1=CC=CC=C1", 
	 "Tm": 322.95, 
	 "num_atms": 17, 
	 "gaussian": { 
		 "optdone": 1, 
		 "sigma_profile": "yes", 
		 "theory": "DFT", 
		 "functional": "B3LYP", 
		 "basiset": "6-31G**", 
		 "properties": { 
			 "R2extent": 4194.1124, 
			 "electric_dipole_moment_norm": 4.54269557201, 
			 "electric_quadrupole_moment_norm": 11.3879652581, 
			 "total_energy": -2955.69347833, 
			 "HOMO_LUMO_gap": 0.19785, 
			 "cosmo_polarized_energy": -11.18, 
			 "cosmo_cavitation_energy": 23.53, 
			 "cosmo_dispersion_energy": -17.82, 
			 "cosmo_repulsion_energy": 1.44, 
			 "cosmo_total_nonelectrostatic_energy": 7.15, 
			 "SMD_solvation_energy": 3.38 
		},
		"coords": [
			{
				"x": 2.9232791707,
				"y": 3.3086230419,
				"z": 0.1612753839,
				"element": "Br" 
			},
			{
				"x": 1.7185513818,
				"y": 1.7745179626,
				"z": 0.1356982975,
				"element": "C" 
			},
			{
				"x": 1.7929940684,
				"y": 0.9642599113,
				"z": -1.1618210997,
				"element": "C" 
			},
			{
				"x": 2.5394944339,
				"y": 1.267966745,
				"z": -2.0716153562,
				"element": "O" 
			},
			{
				"x": 0.8924971059,
				"y": -0.2321576899,
				"z": -1.2555605054,
				"element": "C" 
			},
			{
				"x": 0.0145256156,
				"y": -0.6205381235,
				"z": -0.2309410084,
				"element": "C" 
			},
			{
				"x": -0.7949611145,
				"y": -1.7454881026,
				"z": -0.3865381202,
				"element": "C" 
			},
			{
				"x": -0.735520366,
				"y": -2.4920374358,
				"z": -1.564729327,
				"element": "C" 
			},
			{
				"x": 0.1360354723,
				"y": -2.1123292595,
				"z": -2.5900861785,
				"element": "C" 
			},
			{
				"x": 0.9442458237,
				"y": -0.9905174105,
				"z": -2.4366827567,
				"element": "C" 
			},
			{
				"x": 0.7093171121,
				"y": 2.161574041,
				"z": 0.2881909146,
				"element": "H" 
			},
			{
				"x": 1.9814557043,
				"y": 1.1507488312,
				"z": 0.9921227176,
				"element": "H" 
			},
			{
				"x": -0.0462965067,
				"y": -0.0533678089,
				"z": 0.6923763635,
				"element": "H" 
			},
			{
				"x": -1.4710268769,
				"y": -2.0385069149,
				"z": 0.4110707079,
				"element": "H" 
			},
			{
				"x": -1.3668148573,
				"y": -3.3678798117,
				"z": -1.6840290932,
				"element": "H" 
			},
			{
				"x": 0.182919423,
				"y": -2.6924983813,
				"z": -3.5069063264,
				"element": "H" 
			},
			{
				"x": 1.6282044096,
				"y": -0.6758695942,
				"z": -3.2175246133,
				"element": "H" 
			}
		],
		 "valence_orbital": [ 
			{
				"type": "occ",
				"energy": -0.2769,
				"method": "rhf"
			},
			{
				"type": "occ",
				"energy": -0.27345,
				"method": "rhf"
			},
			{
				"type": "occ",
				"energy": -0.26946,
				"method": "rhf"
			},
			{
				"type": "occ",
				"energy": -0.26704,
				"method": "rhf"
			},
			{
				"type": "occ",
				"energy": -0.26469,
				"method": "rhf"
			},
			{
				"type": "unocc",
				"energy": -0.06684,
				"method": "rhf"
			},
			{
				"type": "unocc",
				"energy": -0.01914,
				"method": "rhf"
			},
			{
				"type": "unocc",
				"energy": 0.00109,
				"method": "rhf"
			},
			{
				"type": "unocc",
				"energy": 0.02815,
				"method": "rhf"
			},
			{
				"type": "unocc",
				"energy": 0.08067,
				"method": "rhf"
			}
		],
		"cosmo_sigma_profile": { 
			"-0.025": 0.0,
			"-0.024": 0.0,
			"-0.023": 0.0,
			"-0.022": 0.0,
			"-0.021": 0.0,
			"-0.02": 0.0,
			"-0.019": 0.0,
			"-0.018": 0.0,
			"-0.017": 0.0,
			"-0.016": 0.0,
			"-0.015": 0.0,
			"-0.014": 0.0,
			"-0.013": 0.0,
			"-0.012": 0.0,
			"-0.011": 0.0,
			"-0.01": 0.768643515962,
			"-0.009": 7.30285434153,
			"-0.008": 6.53075434136,
			"-0.007": 6.4687613179,
			"-0.006": 12.6177923276,
			"-0.005": 12.2443302389,
			"-0.004": 13.0017406549,
			"-0.003": 8.96461286608,
			"-0.002": 11.1513521769,
			"-0.001": 9.51171923515,
			"0.0": 10.7018127702,
			"0.001": 11.3377277764,
			"0.002": 14.0486569371,
			"0.003": 17.0882255601,
			"0.004": 14.8368015248,
			"0.005": 9.17101886221,
			"0.006": 8.61351315619,
			"0.007": 2.00290309111,
			"0.008": 2.77106688099,
			"0.009": 2.52583000561,
			"0.01": 2.66754363559,
			"0.011": 4.29231962375,
			"0.012": 2.3593930487,
			"0.013": 0.768174068002,
			"0.014": 0.0,
			"0.015": 0.0,
			"0.016": 0.0,
			"0.017": 0.0,
			"0.018": 0.0,
			"0.019": 0.0,
			"0.02": 0.0,
			"0.021": 0.0,
			"0.022": 0.0,
			"0.023": 0.0,
			"0.024": 0.0,
			"0.025": 0.0
		}
	}
}
