{
	 "smiles": "FC1(F)C(F)(F)C(F)(F)C(F)(C(=O)NC2=CC=C(C=C2Br)N(=O)=O)C(F)(F)C1(F)F", 
	 "Tm": 375.15, 
	 "num_atms": 34, 
	 "gaussian": { 
		 "optdone": 1, 
		 "sigma_profile": "yes", 
		 "theory": "DFT", 
		 "functional": "B3LYP", 
		 "basiset": "6-31G**", 
		 "properties": { 
			 "R2extent": 14643.7168, 
			 "electric_dipole_moment_norm": 3.69441207907, 
			 "electric_quadrupole_moment_norm": 28.0000155121, 
			 "total_energy": -4502.45828778, 
			 "HOMO_LUMO_gap": 0.16679, 
			 "cosmo_polarized_energy": -15.07, 
			 "cosmo_cavitation_energy": 45.02, 
			 "cosmo_dispersion_energy": -30.21, 
			 "cosmo_repulsion_energy": 2.01, 
			 "cosmo_total_nonelectrostatic_energy": 16.82, 
			 "SMD_solvation_energy": 12.56 
		},
		"coords": [
			{
				"x": -0.5582214569,
				"y": 1.2886792597,
				"z": -5.0631743213,
				"element": "F" 
			},
			{
				"x": 0.4286099076,
				"y": 1.1661586123,
				"z": -4.1441717334,
				"element": "C" 
			},
			{
				"x": 1.6085785481,
				"y": 1.4817424965,
				"z": -4.7143228464,
				"element": "F" 
			},
			{
				"x": 0.1437490093,
				"y": 2.158089618,
				"z": -2.9914124348,
				"element": "C" 
			},
			{
				"x": -0.0947241702,
				"y": 3.3780457413,
				"z": -3.5234641801,
				"element": "F" 
			},
			{
				"x": 1.2284714759,
				"y": 2.2343611395,
				"z": -2.1985696369,
				"element": "F" 
			},
			{
				"x": -1.1024590759,
				"y": 1.7558483139,
				"z": -2.1544436773,
				"element": "C" 
			},
			{
				"x": -2.1874648383,
				"y": 1.9928375262,
				"z": -2.9291923009,
				"element": "F" 
			},
			{
				"x": -1.1698764249,
				"y": 2.5601204861,
				"z": -1.0644123842,
				"element": "F" 
			},
			{
				"x": -1.1735857541,
				"y": 0.268893055,
				"z": -1.695037966,
				"element": "C" 
			},
			{
				"x": -2.5135499622,
				"y": 0.0205028239,
				"z": -1.4300746986,
				"element": "F" 
			},
			{
				"x": -0.343906488,
				"y": 0.0217820837,
				"z": -0.407252995,
				"element": "C" 
			},
			{
				"x": 0.8531163065,
				"y": 0.2127352294,
				"z": -0.3883005811,
				"element": "O" 
			},
			{
				"x": -1.1013437908,
				"y": -0.4162357051,
				"z": 0.6422830473,
				"element": "N" 
			},
			{
				"x": -0.5751972276,
				"y": -0.650132766,
				"z": 1.939453557,
				"element": "C" 
			},
			{
				"x": -1.0206077776,
				"y": 0.1543316359,
				"z": 2.9968927989,
				"element": "C" 
			},
			{
				"x": -0.5626856596,
				"y": -0.0418039818,
				"z": 4.2939408038,
				"element": "C" 
			},
			{
				"x": 0.367023077,
				"y": -1.0537517168,
				"z": 4.5151681384,
				"element": "C" 
			},
			{
				"x": 0.8289293327,
				"y": -1.8757921057,
				"z": 3.4930356407,
				"element": "C" 
			},
			{
				"x": 0.3453234898,
				"y": -1.6810323421,
				"z": 2.2015893636,
				"element": "C" 
			},
			{
				"x": 0.9093093325,
				"y": -2.8739870474,
				"z": 0.8406937195,
				"element": "Br" 
			},
			{
				"x": 0.8753045553,
				"y": -1.2736627102,
				"z": 5.8818782086,
				"element": "N" 
			},
			{
				"x": 1.6995324051,
				"y": -2.1704101958,
				"z": 6.0442523597,
				"element": "O" 
			},
			{
				"x": 0.4383733865,
				"y": -0.5439186878,
				"z": 6.7695019382,
				"element": "O" 
			},
			{
				"x": -0.7772109719,
				"y": -0.7066499812,
				"z": -2.8429953761,
				"element": "C" 
			},
			{
				"x": -1.8202516815,
				"y": -0.7629867215,
				"z": -3.7052857418,
				"element": "F" 
			},
			{
				"x": -0.5767645303,
				"y": -1.9435001207,
				"z": -2.3289296296,
				"element": "F" 
			},
			{
				"x": 0.473550666,
				"y": -0.3066688529,
				"z": -3.6730411583,
				"element": "C" 
			},
			{
				"x": 0.5181274427,
				"y": -1.1053572455,
				"z": -4.7627341787,
				"element": "F" 
			},
			{
				"x": 1.5889855536,
				"y": -0.5004864799,
				"z": -2.9442916538,
				"element": "F" 
			},
			{
				"x": -2.1048970779,
				"y": -0.4167990585,
				"z": 0.521854012,
				"element": "H" 
			},
			{
				"x": -1.7248095573,
				"y": 0.9521200305,
				"z": 2.7834000686,
				"element": "H" 
			},
			{
				"x": -0.8956071103,
				"y": 0.5742916251,
				"z": 5.1190215157,
				"element": "H" 
			},
			{
				"x": 1.5389790666,
				"y": -2.661363958,
				"z": 3.7137423224,
				"element": "H" 
			}
		],
		 "valence_orbital": [ 
			{
				"type": "occ",
				"energy": -0.31027,
				"method": "rhf"
			},
			{
				"type": "occ",
				"energy": -0.30717,
				"method": "rhf"
			},
			{
				"type": "occ",
				"energy": -0.30117,
				"method": "rhf"
			},
			{
				"type": "occ",
				"energy": -0.29205,
				"method": "rhf"
			},
			{
				"type": "occ",
				"energy": -0.27478,
				"method": "rhf"
			},
			{
				"type": "unocc",
				"energy": -0.10799,
				"method": "rhf"
			},
			{
				"type": "unocc",
				"energy": -0.05353,
				"method": "rhf"
			},
			{
				"type": "unocc",
				"energy": -0.03907,
				"method": "rhf"
			},
			{
				"type": "unocc",
				"energy": -0.02341,
				"method": "rhf"
			},
			{
				"type": "unocc",
				"energy": -0.01529,
				"method": "rhf"
			}
		],
		"cosmo_sigma_profile": { 
			"-0.025": 0.0,
			"-0.024": 0.0,
			"-0.023": 0.0,
			"-0.022": 0.0,
			"-0.021": 0.0,
			"-0.02": 0.0,
			"-0.019": 0.0,
			"-0.018": 0.0,
			"-0.017": 0.253195881484,
			"-0.016": 0.88823734795,
			"-0.015": 1.22320458893,
			"-0.014": 0.819790334522,
			"-0.013": 0.926624517868,
			"-0.012": 1.37257265074,
			"-0.011": 1.52605951485,
			"-0.01": 1.65195152532,
			"-0.009": 4.92137728055,
			"-0.008": 6.55083712482,
			"-0.007": 7.15417879682,
			"-0.006": 6.79857300542,
			"-0.005": 11.3944318653,
			"-0.004": 9.03022049342,
			"-0.003": 16.791954537,
			"-0.002": 28.3077322715,
			"-0.001": 33.7116509952,
			"0.0": 49.809324751,
			"0.001": 90.2162010283,
			"0.002": 28.1300284343,
			"0.003": 13.688433457,
			"0.004": 7.20999942942,
			"0.005": 4.93381722519,
			"0.006": 8.32065123395,
			"0.007": 12.1166918953,
			"0.008": 7.67086481365,
			"0.009": 5.99726765909,
			"0.01": 3.16294980714,
			"0.011": 1.02617669098,
			"0.012": 0.0,
			"0.013": 0.0,
			"0.014": 0.0,
			"0.015": 0.0,
			"0.016": 0.0,
			"0.017": 0.0,
			"0.018": 0.0,
			"0.019": 0.0,
			"0.02": 0.0,
			"0.021": 0.0,
			"0.022": 0.0,
			"0.023": 0.0,
			"0.024": 0.0,
			"0.025": 0.0
		}
	}
}
