{
	 "smiles": "CCOP(=O)(OCC)OP(=O)(OCC)OP(=O)(OCC)OP(=O)(OCC)OCC", 
	 "Tm": 233.15, 
	 "num_atms": 59, 
	 "gaussian": { 
		 "optdone": 1, 
		 "sigma_profile": "yes", 
		 "theory": "DFT", 
		 "functional": "B3LYP", 
		 "basiset": "6-31G**", 
		 "properties": { 
			 "R2extent": 13938.2685, 
			 "electric_dipole_moment_norm": 2.7226696017, 
			 "electric_quadrupole_moment_norm": 28.0810219624, 
			 "total_energy": -2819.03154058, 
			 "HOMO_LUMO_gap": 0.30616, 
			 "cosmo_polarized_energy": -27.01, 
			 "cosmo_cavitation_energy": 70.01, 
			 "cosmo_dispersion_energy": -40.09, 
			 "cosmo_repulsion_energy": 3.14, 
			 "cosmo_total_nonelectrostatic_energy": 33.06, 
			 "SMD_solvation_energy": 17.93 
		},
		"coords": [
			{
				"x": 3.9148702778,
				"y": 3.1078013679,
				"z": -1.8852250927,
				"element": "C" 
			},
			{
				"x": 2.5798014774,
				"y": 2.6149932997,
				"z": -2.4126205477,
				"element": "C" 
			},
			{
				"x": 1.479839437,
				"y": 3.0411174372,
				"z": -1.5500367096,
				"element": "O" 
			},
			{
				"x": 1.0965218098,
				"y": 2.174873485,
				"z": -0.2666437796,
				"element": "P" 
			},
			{
				"x": 2.0319859803,
				"y": 1.0960479066,
				"z": 0.1145291735,
				"element": "O" 
			},
			{
				"x": 0.751623806,
				"y": 3.3074918702,
				"z": 0.7883222125,
				"element": "O" 
			},
			{
				"x": 0.3782716743,
				"y": 2.9451830334,
				"z": 2.1620695585,
				"element": "C" 
			},
			{
				"x": 1.6061755734,
				"y": 2.8765017459,
				"z": 3.0497445799,
				"element": "C" 
			},
			{
				"x": -0.4362358996,
				"y": 1.63248669,
				"z": -0.6141901069,
				"element": "O" 
			},
			{
				"x": -0.8750116489,
				"y": 0.706467802,
				"z": -1.8584968095,
				"element": "P" 
			},
			{
				"x": 0.1571979546,
				"y": -0.1723401459,
				"z": -2.4427199021,
				"element": "O" 
			},
			{
				"x": -1.5477729503,
				"y": 1.770631785,
				"z": -2.8367514743,
				"element": "O" 
			},
			{
				"x": -1.6989275833,
				"y": 1.4731019248,
				"z": -4.2559033801,
				"element": "C" 
			},
			{
				"x": -3.0181248739,
				"y": 0.7737701456,
				"z": -4.5354882944,
				"element": "C" 
			},
			{
				"x": -2.1853489486,
				"y": -0.0438544183,
				"z": -1.2506449558,
				"element": "O" 
			},
			{
				"x": -2.5221101998,
				"y": -0.7970599442,
				"z": 0.1582474174,
				"element": "P" 
			},
			{
				"x": -3.6114293174,
				"y": -1.770464518,
				"z": -0.0092487993,
				"element": "O" 
			},
			{
				"x": -2.7509149523,
				"y": 0.3758517954,
				"z": 1.2182762188,
				"element": "O" 
			},
			{
				"x": -4.0720722535,
				"y": 0.9768463976,
				"z": 1.3427496889,
				"element": "C" 
			},
			{
				"x": -4.0688611247,
				"y": 1.840595753,
				"z": 2.587877832,
				"element": "C" 
			},
			{
				"x": -1.0650152214,
				"y": -1.3410422359,
				"z": 0.5670758168,
				"element": "O" 
			},
			{
				"x": -0.2950742306,
				"y": -1.549224289,
				"z": 2.0062651175,
				"element": "P" 
			},
			{
				"x": 0.0453034487,
				"y": -0.2950081333,
				"z": 2.7117963634,
				"element": "O" 
			},
			{
				"x": -1.3092384221,
				"y": -2.5347290686,
				"z": 2.7474583189,
				"element": "O" 
			},
			{
				"x": -1.2475094346,
				"y": -2.6812635388,
				"z": 4.1931127136,
				"element": "C" 
			},
			{
				"x": -2.5243130756,
				"y": -3.36457272,
				"z": 4.6409929149,
				"element": "C" 
			},
			{
				"x": 0.8890811478,
				"y": -2.512369247,
				"z": 1.5675679871,
				"element": "O" 
			},
			{
				"x": 1.9479905427,
				"y": -2.0425087866,
				"z": 0.6656253648,
				"element": "C" 
			},
			{
				"x": 3.0306110221,
				"y": -3.1013274771,
				"z": 0.6550670249,
				"element": "C" 
			},
			{
				"x": 4.1450184973,
				"y": 2.6364059465,
				"z": -0.9265440736,
				"element": "H" 
			},
			{
				"x": 4.7082594718,
				"y": 2.8501094352,
				"z": -2.5952184331,
				"element": "H" 
			},
			{
				"x": 3.9053308157,
				"y": 4.193967459,
				"z": -1.756818213,
				"element": "H" 
			},
			{
				"x": 2.3409420203,
				"y": 3.0587752012,
				"z": -3.3818082034,
				"element": "H" 
			},
			{
				"x": 2.5575584693,
				"y": 1.5269268319,
				"z": -2.5096863816,
				"element": "H" 
			},
			{
				"x": -0.1586715264,
				"y": 1.9939045601,
				"z": 2.1641613385,
				"element": "H" 
			},
			{
				"x": -0.301379021,
				"y": 3.7443776757,
				"z": 2.4675513014,
				"element": "H" 
			},
			{
				"x": 1.2955454432,
				"y": 2.6753176983,
				"z": 4.0802470738,
				"element": "H" 
			},
			{
				"x": 2.2619301841,
				"y": 2.0653810922,
				"z": 2.7264831112,
				"element": "H" 
			},
			{
				"x": 2.1596424708,
				"y": 3.8200827041,
				"z": 3.029106017,
				"element": "H" 
			},
			{
				"x": -0.8441778784,
				"y": 0.8737622284,
				"z": -4.5814312471,
				"element": "H" 
			},
			{
				"x": -1.6519715621,
				"y": 2.4495202912,
				"z": -4.7435040099,
				"element": "H" 
			},
			{
				"x": -3.8585569569,
				"y": 1.371062711,
				"z": -4.1713963326,
				"element": "H" 
			},
			{
				"x": -3.0576918498,
				"y": -0.2080423591,
				"z": -4.0558356564,
				"element": "H" 
			},
			{
				"x": -3.1357477927,
				"y": 0.6324946437,
				"z": -5.615156158,
				"element": "H" 
			},
			{
				"x": -4.2633649145,
				"y": 1.5727724523,
				"z": 0.4437066021,
				"element": "H" 
			},
			{
				"x": -4.8158613449,
				"y": 0.1771958643,
				"z": 1.3993175189,
				"element": "H" 
			},
			{
				"x": -3.8617692476,
				"y": 1.2381046227,
				"z": 3.4763808312,
				"element": "H" 
			},
			{
				"x": -3.3105508803,
				"y": 2.6247772191,
				"z": 2.5151046061,
				"element": "H" 
			},
			{
				"x": -5.0480262345,
				"y": 2.3147791181,
				"z": 2.7087557951,
				"element": "H" 
			},
			{
				"x": -0.3659753067,
				"y": -3.2834600872,
				"z": 4.4387365919,
				"element": "H" 
			},
			{
				"x": -1.1323934243,
				"y": -1.6909579819,
				"z": 4.6432158881,
				"element": "H" 
			},
			{
				"x": -2.5047225068,
				"y": -3.5082648834,
				"z": 5.7261078396,
				"element": "H" 
			},
			{
				"x": -2.6297508321,
				"y": -4.3419464438,
				"z": 4.1627285629,
				"element": "H" 
			},
			{
				"x": -3.397954077,
				"y": -2.7589471212,
				"z": 4.3851080373,
				"element": "H" 
			},
			{
				"x": 1.503391035,
				"y": -1.9011767536,
				"z": -0.323469968,
				"element": "H" 
			},
			{
				"x": 2.3107308751,
				"y": -1.0753453178,
				"z": 1.0164455417,
				"element": "H" 
			},
			{
				"x": 3.8300054638,
				"y": -2.7950873535,
				"z": -0.0270731383,
				"element": "H" 
			},
			{
				"x": 2.6359082762,
				"y": -4.0630619293,
				"z": 0.3149318436,
				"element": "H" 
			},
			{
				"x": 3.4597883184,
				"y": -3.2336254407,
				"z": 1.6525448635,
				"element": "H" 
			}
		],
		 "valence_orbital": [ 
			{
				"type": "occ",
				"energy": -0.29918,
				"method": "rhf"
			},
			{
				"type": "occ",
				"energy": -0.2958,
				"method": "rhf"
			},
			{
				"type": "occ",
				"energy": -0.29105,
				"method": "rhf"
			},
			{
				"type": "occ",
				"energy": -0.28918,
				"method": "rhf"
			},
			{
				"type": "occ",
				"energy": -0.28387,
				"method": "rhf"
			},
			{
				"type": "unocc",
				"energy": 0.02229,
				"method": "rhf"
			},
			{
				"type": "unocc",
				"energy": 0.05163,
				"method": "rhf"
			},
			{
				"type": "unocc",
				"energy": 0.06389,
				"method": "rhf"
			},
			{
				"type": "unocc",
				"energy": 0.07912,
				"method": "rhf"
			},
			{
				"type": "unocc",
				"energy": 0.08073,
				"method": "rhf"
			}
		],
		"cosmo_sigma_profile": { 
			"-0.025": 0.0,
			"-0.024": 0.0,
			"-0.023": 0.0,
			"-0.022": 0.0,
			"-0.021": 0.0,
			"-0.02": 0.0,
			"-0.019": 0.0,
			"-0.018": 0.0,
			"-0.017": 0.0,
			"-0.016": 0.0,
			"-0.015": 0.0,
			"-0.014": 0.0,
			"-0.013": 0.0,
			"-0.012": 0.0,
			"-0.011": 0.0,
			"-0.01": 0.0,
			"-0.009": 0.0,
			"-0.008": 0.0,
			"-0.007": 3.60040616334,
			"-0.006": 20.9511209678,
			"-0.005": 41.8902197343,
			"-0.004": 63.6318211606,
			"-0.003": 58.7246931931,
			"-0.002": 54.1958404541,
			"-0.001": 54.9315020212,
			"0.0": 49.482743527,
			"0.001": 27.7126100162,
			"0.002": 22.2680806214,
			"0.003": 22.9253888723,
			"0.004": 20.6573854329,
			"0.005": 15.3741137582,
			"0.006": 15.0086766437,
			"0.007": 15.8186858141,
			"0.008": 13.5292619171,
			"0.009": 9.40457848899,
			"0.01": 5.32995537958,
			"0.011": 6.21363473257,
			"0.012": 9.13190334406,
			"0.013": 4.30882006943,
			"0.014": 0.0,
			"0.015": 0.0,
			"0.016": 0.0,
			"0.017": 0.0,
			"0.018": 0.0,
			"0.019": 0.0,
			"0.02": 0.0,
			"0.021": 0.0,
			"0.022": 0.0,
			"0.023": 0.0,
			"0.024": 0.0,
			"0.025": 0.0
		}
	}
}
