{
	 "smiles": "NC(C(N)C1=CC=CC=C1)C1=CC=CC=C1", 
	 "Tm": 355.65, 
	 "num_atms": 32, 
	 "gaussian": { 
		 "optdone": 1, 
		 "sigma_profile": "yes", 
		 "theory": "DFT", 
		 "functional": "B3LYP", 
		 "basiset": "6-31G**", 
		 "properties": { 
			 "R2extent": 3697.7514, 
			 "electric_dipole_moment_norm": 1.76790539622, 
			 "electric_quadrupole_moment_norm": 4.00661150849, 
			 "total_energy": -652.631401824, 
			 "HOMO_LUMO_gap": 0.22257, 
			 "cosmo_polarized_energy": -10.82, 
			 "cosmo_cavitation_energy": 33.53, 
			 "cosmo_dispersion_energy": -23.37, 
			 "cosmo_repulsion_energy": 1.83, 
			 "cosmo_total_nonelectrostatic_energy": 11.99, 
			 "SMD_solvation_energy": 3.35 
		},
		"coords": [
			{
				"x": -1.7096200083,
				"y": -1.9023639391,
				"z": 0.6460958204,
				"element": "N" 
			},
			{
				"x": -0.8862640587,
				"y": -1.4011869143,
				"z": -0.4568692879,
				"element": "C" 
			},
			{
				"x": 0.5862607466,
				"y": -1.2393746536,
				"z": 0.0493097398,
				"element": "C" 
			},
			{
				"x": 1.4497346206,
				"y": -0.9530837307,
				"z": -1.0988753787,
				"element": "N" 
			},
			{
				"x": 0.7192862179,
				"y": -0.2889991642,
				"z": 1.241199901,
				"element": "C" 
			},
			{
				"x": 0.9539454544,
				"y": 1.0840692143,
				"z": 1.0792032996,
				"element": "C" 
			},
			{
				"x": 1.0692687289,
				"y": 1.9284476131,
				"z": 2.1845317874,
				"element": "C" 
			},
			{
				"x": 0.9536521046,
				"y": 1.4149992287,
				"z": 3.4777708008,
				"element": "C" 
			},
			{
				"x": 0.7239799337,
				"y": 0.049751735,
				"z": 3.656043265,
				"element": "C" 
			},
			{
				"x": 0.6105640851,
				"y": -0.7914356869,
				"z": 2.5476135907,
				"element": "C" 
			},
			{
				"x": -1.4199474475,
				"y": -0.1647561782,
				"z": -1.1836810349,
				"element": "C" 
			},
			{
				"x": -1.2341253184,
				"y": -0.0378150571,
				"z": -2.5694985475,
				"element": "C" 
			},
			{
				"x": -1.7058309264,
				"y": 1.0791644403,
				"z": -3.2614944574,
				"element": "C" 
			},
			{
				"x": -2.379525796,
				"y": 2.0927507773,
				"z": -2.5779299736,
				"element": "C" 
			},
			{
				"x": -2.5769012158,
				"y": 1.9778253636,
				"z": -1.2005319629,
				"element": "C" 
			},
			{
				"x": -2.1023585534,
				"y": 0.8600482554,
				"z": -0.5124159632,
				"element": "C" 
			},
			{
				"x": -2.6648567721,
				"y": -2.039919291,
				"z": 0.3254989275,
				"element": "H" 
			},
			{
				"x": -1.7484035046,
				"y": -1.2211323335,
				"z": 1.4002472777,
				"element": "H" 
			},
			{
				"x": -0.8262754244,
				"y": -2.2040318276,
				"z": -1.2003719529,
				"element": "H" 
			},
			{
				"x": 0.8559355191,
				"y": -2.2385958953,
				"z": 0.4094920472,
				"element": "H" 
			},
			{
				"x": 1.2026464618,
				"y": -0.0594487466,
				"z": -1.5168393999,
				"element": "H" 
			},
			{
				"x": 2.4154858202,
				"y": -0.8752119619,
				"z": -0.7898998533,
				"element": "H" 
			},
			{
				"x": 1.0557826547,
				"y": 1.4992563546,
				"z": 0.0810616846,
				"element": "H" 
			},
			{
				"x": 1.2525962931,
				"y": 2.9889590281,
				"z": 2.0345670527,
				"element": "H" 
			},
			{
				"x": 1.0488994127,
				"y": 2.0716523935,
				"z": 4.3378965267,
				"element": "H" 
			},
			{
				"x": 0.6418742244,
				"y": -0.3633987567,
				"z": 4.6577181922,
				"element": "H" 
			},
			{
				"x": 0.4367318524,
				"y": -1.8547981209,
				"z": 2.6909492058,
				"element": "H" 
			},
			{
				"x": -0.7146316079,
				"y": -0.8273363744,
				"z": -3.1063975598,
				"element": "H" 
			},
			{
				"x": -1.5548023068,
				"y": 1.1523323656,
				"z": -4.3350994,
				"element": "H" 
			},
			{
				"x": -2.7537538344,
				"y": 2.9603398656,
				"z": -3.1139580447,
				"element": "H" 
			},
			{
				"x": -3.1042662216,
				"y": 2.7587769049,
				"z": -0.6594324314,
				"element": "H" 
			},
			{
				"x": -2.2733811338,
				"y": 0.7830150918,
				"z": 0.5570961287,
				"element": "H" 
			}
		],
		 "valence_orbital": [ 
			{
				"type": "occ",
				"energy": -0.25278,
				"method": "rhf"
			},
			{
				"type": "occ",
				"energy": -0.24625,
				"method": "rhf"
			},
			{
				"type": "occ",
				"energy": -0.24038,
				"method": "rhf"
			},
			{
				"type": "occ",
				"energy": -0.22996,
				"method": "rhf"
			},
			{
				"type": "occ",
				"energy": -0.22848,
				"method": "rhf"
			},
			{
				"type": "unocc",
				"energy": -0.00591,
				"method": "rhf"
			},
			{
				"type": "unocc",
				"energy": -0.00544,
				"method": "rhf"
			},
			{
				"type": "unocc",
				"energy": 0.00331,
				"method": "rhf"
			},
			{
				"type": "unocc",
				"energy": 0.00582,
				"method": "rhf"
			},
			{
				"type": "unocc",
				"energy": 0.08846,
				"method": "rhf"
			}
		],
		"cosmo_sigma_profile": { 
			"-0.025": 0.0,
			"-0.024": 0.0,
			"-0.023": 0.0,
			"-0.022": 0.0,
			"-0.021": 0.0,
			"-0.02": 0.0,
			"-0.019": 0.0,
			"-0.018": 0.0,
			"-0.017": 0.0,
			"-0.016": 0.0,
			"-0.015": 0.0,
			"-0.014": 0.0,
			"-0.013": 0.0,
			"-0.012": 0.0,
			"-0.011": 0.0,
			"-0.01": 1.20127761271,
			"-0.009": 2.46029790986,
			"-0.008": 5.0367742915,
			"-0.007": 5.49758655463,
			"-0.006": 9.7252867342,
			"-0.005": 19.5237530693,
			"-0.004": 25.5516768622,
			"-0.003": 30.2633584225,
			"-0.002": 19.9340006479,
			"-0.001": 18.3877716538,
			"0.0": 16.4841188462,
			"0.001": 14.3154863224,
			"0.002": 16.0022729567,
			"0.003": 15.9369010045,
			"0.004": 16.2410559745,
			"0.005": 16.666593537,
			"0.006": 15.1651255264,
			"0.007": 3.57539715557,
			"0.008": 0.747814909755,
			"0.009": 1.63714379242,
			"0.01": 1.53279097039,
			"0.011": 1.44467108213,
			"0.012": 0.537326018237,
			"0.013": 0.793453738229,
			"0.014": 1.46816842149,
			"0.015": 1.32364257876,
			"0.016": 0.847047257559,
			"0.017": 0.930714952926,
			"0.018": 0.879524171812,
			"0.019": 0.348252313298,
			"0.02": 0.0,
			"0.021": 0.0,
			"0.022": 0.0,
			"0.023": 0.0,
			"0.024": 0.0,
			"0.025": 0.0
		}
	}
}
