{
	 "smiles": "CC(=O)OC1CCC2C3CCC4=CC(=O)CCC4(C)C3CCC12C", 
	 "Tm": 413.15, 
	 "num_atms": 54, 
	 "gaussian": { 
		 "optdone": 1, 
		 "sigma_profile": "yes", 
		 "theory": "DFT", 
		 "functional": "B3LYP", 
		 "basiset": "6-31G**", 
		 "properties": { 
			 "R2extent": 9953.7192, 
			 "electric_dipole_moment_norm": 2.66687961108, 
			 "electric_quadrupole_moment_norm": 52.3255938465, 
			 "total_energy": -1044.01288393, 
			 "HOMO_LUMO_gap": 0.18407, 
			 "cosmo_polarized_energy": -15.27, 
			 "cosmo_cavitation_energy": 48.37, 
			 "cosmo_dispersion_energy": -33.29, 
			 "cosmo_repulsion_energy": 2.48, 
			 "cosmo_total_nonelectrostatic_energy": 17.56, 
			 "SMD_solvation_energy": 8.56 
		},
		"coords": [
			{
				"x": -2.9895091308,
				"y": -4.2473255336,
				"z": -1.22451126,
				"element": "C" 
			},
			{
				"x": -3.553763604,
				"y": -2.8454211204,
				"z": -1.2445998636,
				"element": "C" 
			},
			{
				"x": -4.6938550072,
				"y": -2.5533458769,
				"z": -1.5333898891,
				"element": "O" 
			},
			{
				"x": -2.6056216167,
				"y": -1.9426311957,
				"z": -0.8979576327,
				"element": "O" 
			},
			{
				"x": -3.0004704785,
				"y": -0.5435827306,
				"z": -0.8964695864,
				"element": "C" 
			},
			{
				"x": -3.6214189416,
				"y": -0.1642800954,
				"z": 0.4756054918,
				"element": "C" 
			},
			{
				"x": -2.4900594849,
				"y": 0.5155257661,
				"z": 1.3051930864,
				"element": "C" 
			},
			{
				"x": -1.2177024172,
				"y": 0.2613133733,
				"z": 0.4741251192,
				"element": "C" 
			},
			{
				"x": 0.044557782,
				"y": 1.1061603272,
				"z": 0.6986630182,
				"element": "C" 
			},
			{
				"x": 0.5165870226,
				"y": 1.1850876651,
				"z": 2.1806656176,
				"element": "C" 
			},
			{
				"x": 1.8205061973,
				"y": 0.4183125252,
				"z": 2.441478192,
				"element": "C" 
			},
			{
				"x": 2.9424839024,
				"y": 0.7691279664,
				"z": 1.4879396089,
				"element": "C" 
			},
			{
				"x": 4.2311130707,
				"y": 0.6469059287,
				"z": 1.8698848434,
				"element": "C" 
			},
			{
				"x": 5.3780293163,
				"y": 0.8085238045,
				"z": 0.9624096555,
				"element": "C" 
			},
			{
				"x": 6.5328461876,
				"y": 0.7233477183,
				"z": 1.3606105575,
				"element": "O" 
			},
			{
				"x": 5.0617021838,
				"y": 1.075709688,
				"z": -0.5052210451,
				"element": "C" 
			},
			{
				"x": 3.6378316488,
				"y": 0.6692272629,
				"z": -0.9099552581,
				"element": "C" 
			},
			{
				"x": 2.5521743603,
				"y": 1.1909421022,
				"z": 0.0654223658,
				"element": "C" 
			},
			{
				"x": 2.4918653502,
				"y": 2.7402500664,
				"z": -0.0166579645,
				"element": "C" 
			},
			{
				"x": 1.158303115,
				"y": 0.5495867703,
				"z": -0.2396810728,
				"element": "C" 
			},
			{
				"x": 0.7054097099,
				"y": 0.5982105205,
				"z": -1.7146786136,
				"element": "C" 
			},
			{
				"x": -0.6168970106,
				"y": -0.1685072887,
				"z": -1.940944518,
				"element": "C" 
			},
			{
				"x": -1.7253677377,
				"y": 0.323450914,
				"z": -0.9957503554,
				"element": "C" 
			},
			{
				"x": -2.1907368469,
				"y": 1.7358455321,
				"z": -1.4261368615,
				"element": "C" 
			},
			{
				"x": -3.7777417148,
				"y": -4.9587159468,
				"z": -1.4687023835,
				"element": "H" 
			},
			{
				"x": -2.5731134063,
				"y": -4.4730571365,
				"z": -0.2384987215,
				"element": "H" 
			},
			{
				"x": -2.1745013489,
				"y": -4.3333863066,
				"z": -1.9495921322,
				"element": "H" 
			},
			{
				"x": -3.6965328844,
				"y": -0.3980050505,
				"z": -1.7248646847,
				"element": "H" 
			},
			{
				"x": -4.0047584524,
				"y": -1.0639507489,
				"z": 0.9624078791,
				"element": "H" 
			},
			{
				"x": -4.4779036006,
				"y": 0.5010869711,
				"z": 0.3352981587,
				"element": "H" 
			},
			{
				"x": -2.4225452614,
				"y": 0.0994029176,
				"z": 2.3142860349,
				"element": "H" 
			},
			{
				"x": -2.6779920732,
				"y": 1.58922491,
				"z": 1.4191799562,
				"element": "H" 
			},
			{
				"x": -0.9397189099,
				"y": -0.7900513653,
				"z": 0.6457111012,
				"element": "H" 
			},
			{
				"x": -0.1836367776,
				"y": 2.1292742888,
				"z": 0.3770004846,
				"element": "H" 
			},
			{
				"x": 0.6632339505,
				"y": 2.2330507102,
				"z": 2.4654694972,
				"element": "H" 
			},
			{
				"x": -0.2592465644,
				"y": 0.8016920713,
				"z": 2.8509309979,
				"element": "H" 
			},
			{
				"x": 1.6241459355,
				"y": -0.659167868,
				"z": 2.3331399805,
				"element": "H" 
			},
			{
				"x": 2.1514141196,
				"y": 0.5548846536,
				"z": 3.4764867611,
				"element": "H" 
			},
			{
				"x": 4.4856620191,
				"y": 0.3727038295,
				"z": 2.8917123194,
				"element": "H" 
			},
			{
				"x": 5.8131454356,
				"y": 0.5559348075,
				"z": -1.1076753459,
				"element": "H" 
			},
			{
				"x": 5.2259309503,
				"y": 2.1468946072,
				"z": -0.6816176523,
				"element": "H" 
			},
			{
				"x": 3.4348603463,
				"y": 1.02842244,
				"z": -1.9242873378,
				"element": "H" 
			},
			{
				"x": 3.5745449955,
				"y": -0.4264651587,
				"z": -0.9441317608,
				"element": "H" 
			},
			{
				"x": 2.1860822705,
				"y": 3.0614567743,
				"z": -1.0182265863,
				"element": "H" 
			},
			{
				"x": 1.789294543,
				"y": 3.1678535646,
				"z": 0.7018555708,
				"element": "H" 
			},
			{
				"x": 3.4687352123,
				"y": 3.1819076027,
				"z": 0.1938123181,
				"element": "H" 
			},
			{
				"x": 1.2687369441,
				"y": -0.520062653,
				"z": -0.0004270118,
				"element": "H" 
			},
			{
				"x": 1.4710233515,
				"y": 0.1530115152,
				"z": -2.35758039,
				"element": "H" 
			},
			{
				"x": 0.5996344094,
				"y": 1.6395314377,
				"z": -2.0435291043,
				"element": "H" 
			},
			{
				"x": -0.9268560991,
				"y": -0.069404545,
				"z": -2.989262371,
				"element": "H" 
			},
			{
				"x": -0.4448798219,
				"y": -1.2352885701,
				"z": -1.7627855956,
				"element": "H" 
			},
			{
				"x": -2.5801693679,
				"y": 1.696342226,
				"z": -2.4493602152,
				"element": "H" 
			},
			{
				"x": -1.3771207804,
				"y": 2.464134392,
				"z": -1.4163198214,
				"element": "H" 
			},
			{
				"x": -2.9867349909,
				"y": 2.13111154,
				"z": -0.7892735809,
				"element": "H" 
			}
		],
		 "valence_orbital": [ 
			{
				"type": "occ",
				"energy": -0.29048,
				"method": "rhf"
			},
			{
				"type": "occ",
				"energy": -0.28558,
				"method": "rhf"
			},
			{
				"type": "occ",
				"energy": -0.27037,
				"method": "rhf"
			},
			{
				"type": "occ",
				"energy": -0.25162,
				"method": "rhf"
			},
			{
				"type": "occ",
				"energy": -0.22847,
				"method": "rhf"
			},
			{
				"type": "unocc",
				"energy": -0.0444,
				"method": "rhf"
			},
			{
				"type": "unocc",
				"energy": 0.01152,
				"method": "rhf"
			},
			{
				"type": "unocc",
				"energy": 0.06332,
				"method": "rhf"
			},
			{
				"type": "unocc",
				"energy": 0.06686,
				"method": "rhf"
			},
			{
				"type": "unocc",
				"energy": 0.07406,
				"method": "rhf"
			}
		],
		"cosmo_sigma_profile": { 
			"-0.025": 0.0,
			"-0.024": 0.0,
			"-0.023": 0.0,
			"-0.022": 0.0,
			"-0.021": 0.0,
			"-0.02": 0.0,
			"-0.019": 0.0,
			"-0.018": 0.0,
			"-0.017": 0.0,
			"-0.016": 0.0,
			"-0.015": 0.0,
			"-0.014": 0.0,
			"-0.013": 0.0,
			"-0.012": 0.0,
			"-0.011": 0.0,
			"-0.01": 0.0,
			"-0.009": 0.0,
			"-0.008": 0.0,
			"-0.007": 0.332273564129,
			"-0.006": 4.62979706749,
			"-0.005": 11.0590313113,
			"-0.004": 27.1644148824,
			"-0.003": 58.5113768217,
			"-0.002": 65.0416998151,
			"-0.001": 60.1722210207,
			"0.0": 43.1401989835,
			"0.001": 29.1985595417,
			"0.002": 13.1028403388,
			"0.003": 9.50194834871,
			"0.004": 6.57713368401,
			"0.005": 4.50474444691,
			"0.006": 3.94539768681,
			"0.007": 4.29348937633,
			"0.008": 2.36292657161,
			"0.009": 2.99671317024,
			"0.01": 3.71250118246,
			"0.011": 3.74982844084,
			"0.012": 7.9654694459,
			"0.013": 6.6824501075,
			"0.014": 3.9149191082,
			"0.015": 0.942206060636,
			"0.016": 0.0,
			"0.017": 0.0,
			"0.018": 0.0,
			"0.019": 0.0,
			"0.02": 0.0,
			"0.021": 0.0,
			"0.022": 0.0,
			"0.023": 0.0,
			"0.024": 0.0,
			"0.025": 0.0
		}
	}
}
