{
	 "smiles": "OC1=CC2=C(SC(=O)O2)C=C1", 
	 "Tm": 433.15, 
	 "num_atms": 15, 
	 "gaussian": { 
		 "optdone": 1, 
		 "sigma_profile": "yes", 
		 "theory": "DFT", 
		 "functional": "B3LYP", 
		 "basiset": "6-31G**", 
		 "properties": { 
			 "R2extent": 3412.9539, 
			 "electric_dipole_moment_norm": 5.40981434155, 
			 "electric_quadrupole_moment_norm": 12.472003313, 
			 "total_energy": -893.013929095, 
			 "HOMO_LUMO_gap": 0.19832, 
			 "cosmo_polarized_energy": -11.86, 
			 "cosmo_cavitation_energy": 21.74, 
			 "cosmo_dispersion_energy": -17.11, 
			 "cosmo_repulsion_energy": 1.31, 
			 "cosmo_total_nonelectrostatic_energy": 5.94, 
			 "SMD_solvation_energy": 5.21 
		},
		"coords": [
			{
				"x": 0.4700618692,
				"y": -1.9639537048,
				"z": 1.0818990104,
				"element": "O" 
			},
			{
				"x": -0.0468042603,
				"y": -0.7274198827,
				"z": 0.833963867,
				"element": "C" 
			},
			{
				"x": -0.6720703327,
				"y": -0.0800555547,
				"z": 1.9076631274,
				"element": "C" 
			},
			{
				"x": -1.2027616848,
				"y": 1.1771015498,
				"z": 1.6733761371,
				"element": "C" 
			},
			{
				"x": -1.1345669226,
				"y": 1.8053540797,
				"z": 0.4249659859,
				"element": "C" 
			},
			{
				"x": -1.9120388872,
				"y": 3.3889811641,
				"z": 0.4998589934,
				"element": "S" 
			},
			{
				"x": -2.3002375339,
				"y": 3.1254306801,
				"z": 2.2439261661,
				"element": "C" 
			},
			{
				"x": -2.8750833715,
				"y": 3.8836032089,
				"z": 2.9673350244,
				"element": "O" 
			},
			{
				"x": -1.8357919185,
				"y": 1.8952966838,
				"z": 2.6589673456,
				"element": "O" 
			},
			{
				"x": -0.5117791443,
				"y": 1.1546734365,
				"z": -0.6349559645,
				"element": "C" 
			},
			{
				"x": 0.0319681857,
				"y": -0.1145830062,
				"z": -0.4253844899,
				"element": "C" 
			},
			{
				"x": 0.8733220332,
				"y": -2.311537887,
				"z": 0.2759460355,
				"element": "H" 
			},
			{
				"x": -0.7341040563,
				"y": -0.5512413196,
				"z": 2.8808852612,
				"element": "H" 
			},
			{
				"x": -0.4454224122,
				"y": 1.6197262241,
				"z": -1.6128199956,
				"element": "H" 
			},
			{
				"x": 0.5208084362,
				"y": -0.631475672,
				"z": -1.2473265041,
				"element": "H" 
			}
		],
		 "valence_orbital": [ 
			{
				"type": "occ",
				"energy": -0.35568,
				"method": "rhf"
			},
			{
				"type": "occ",
				"energy": -0.29845,
				"method": "rhf"
			},
			{
				"type": "occ",
				"energy": -0.29817,
				"method": "rhf"
			},
			{
				"type": "occ",
				"energy": -0.26352,
				"method": "rhf"
			},
			{
				"type": "occ",
				"energy": -0.22536,
				"method": "rhf"
			},
			{
				"type": "unocc",
				"energy": -0.02704,
				"method": "rhf"
			},
			{
				"type": "unocc",
				"energy": -0.00839,
				"method": "rhf"
			},
			{
				"type": "unocc",
				"energy": -0.00801,
				"method": "rhf"
			},
			{
				"type": "unocc",
				"energy": 0.00449,
				"method": "rhf"
			},
			{
				"type": "unocc",
				"energy": 0.05369,
				"method": "rhf"
			}
		],
		"cosmo_sigma_profile": { 
			"-0.025": 0.0,
			"-0.024": 0.0,
			"-0.023": 0.0,
			"-0.022": 0.0,
			"-0.021": 0.0,
			"-0.02": 0.0,
			"-0.019": 0.0,
			"-0.018": 1.21906068578,
			"-0.017": 0.818137183528,
			"-0.016": 1.42431199827,
			"-0.015": 1.05496804652,
			"-0.014": 1.28260414683,
			"-0.013": 0.645483977627,
			"-0.012": 0.436540499997,
			"-0.011": 1.13412469081,
			"-0.01": 1.61109977282,
			"-0.009": 1.52887346367,
			"-0.008": 5.14557383269,
			"-0.007": 6.04464016355,
			"-0.006": 7.4346180431,
			"-0.005": 7.51996773221,
			"-0.004": 7.25992352194,
			"-0.003": 7.41532320068,
			"-0.002": 8.16859777184,
			"-0.001": 12.433228221,
			"0.0": 15.5575586059,
			"0.001": 15.5934621446,
			"0.002": 19.3347287942,
			"0.003": 13.673304079,
			"0.004": 8.65807836529,
			"0.005": 4.72540764584,
			"0.006": 4.79385108825,
			"0.007": 3.700084213,
			"0.008": 4.05252957883,
			"0.009": 4.38335123592,
			"0.01": 8.30173634302,
			"0.011": 2.37236682317,
			"0.012": 0.0110064240738,
			"0.013": 0.0,
			"0.014": 0.0,
			"0.015": 0.0,
			"0.016": 0.0,
			"0.017": 0.0,
			"0.018": 0.0,
			"0.019": 0.0,
			"0.02": 0.0,
			"0.021": 0.0,
			"0.022": 0.0,
			"0.023": 0.0,
			"0.024": 0.0,
			"0.025": 0.0
		}
	}
}
