{
	 "smiles": "NC(=O)CN1C=CC(N)=N1", 
	 "Tm": 386.15, 
	 "num_atms": 18, 
	 "gaussian": { 
		 "optdone": 1, 
		 "sigma_profile": "yes", 
		 "theory": "DFT", 
		 "functional": "B3LYP", 
		 "basiset": "6-31G**", 
		 "properties": { 
			 "R2extent": 1929.8073, 
			 "electric_dipole_moment_norm": 3.95950261649, 
			 "electric_quadrupole_moment_norm": 6.13195943806, 
			 "total_energy": -489.578194625, 
			 "HOMO_LUMO_gap": 0.22322, 
			 "cosmo_polarized_energy": -16.19, 
			 "cosmo_cavitation_energy": 22.32, 
			 "cosmo_dispersion_energy": -16.55, 
			 "cosmo_repulsion_energy": 1.38, 
			 "cosmo_total_nonelectrostatic_energy": 7.15, 
			 "SMD_solvation_energy": 4.34 
		},
		"coords": [
			{
				"x": 0.5847699991,
				"y": 2.6476150897,
				"z": 0.5890196989,
				"element": "N" 
			},
			{
				"x": -0.6284611633,
				"y": 2.0794003866,
				"z": 0.3870092412,
				"element": "C" 
			},
			{
				"x": -1.6864264446,
				"y": 2.6899711436,
				"z": 0.3270572326,
				"element": "O" 
			},
			{
				"x": -0.6281241625,
				"y": 0.5408905436,
				"z": 0.2775073783,
				"element": "C" 
			},
			{
				"x": 0.5836489124,
				"y": -0.0646706253,
				"z": -0.2386814438,
				"element": "N" 
			},
			{
				"x": 0.7735045833,
				"y": -0.6773562422,
				"z": -1.4313816974,
				"element": "C" 
			},
			{
				"x": 2.1005737359,
				"y": -1.0558887476,
				"z": -1.4986167257,
				"element": "C" 
			},
			{
				"x": 2.6545218906,
				"y": -0.612148987,
				"z": -0.2712034294,
				"element": "C" 
			},
			{
				"x": 3.9830769506,
				"y": -0.6850451509,
				"z": 0.1394178291,
				"element": "N" 
			},
			{
				"x": 1.7365000008,
				"y": -0.0175481788,
				"z": 0.4969902592,
				"element": "N" 
			},
			{
				"x": 1.404717012,
				"y": 2.0669977804,
				"z": 0.7250037323,
				"element": "H" 
			},
			{
				"x": 0.6221221013,
				"y": 3.6445748705,
				"z": 0.7361319274,
				"element": "H" 
			},
			{
				"x": -1.4591609208,
				"y": 0.2694303243,
				"z": -0.3741573241,
				"element": "H" 
			},
			{
				"x": -0.8329664564,
				"y": 0.1348827034,
				"z": 1.2748690209,
				"element": "H" 
			},
			{
				"x": -0.0374877368,
				"y": -0.8037265477,
				"z": -2.1344477185,
				"element": "H" 
			},
			{
				"x": 2.5983882523,
				"y": -1.5667978659,
				"z": -2.3088359039,
				"element": "H" 
			},
			{
				"x": 4.4621029399,
				"y": -1.5182484296,
				"z": -0.1754746663,
				"element": "H" 
			},
			{
				"x": 4.0854005062,
				"y": -0.5580320673,
				"z": 1.1387925893,
				"element": "H" 
			}
		],
		 "valence_orbital": [ 
			{
				"type": "occ",
				"energy": -0.29909,
				"method": "rhf"
			},
			{
				"type": "occ",
				"energy": -0.26078,
				"method": "rhf"
			},
			{
				"type": "occ",
				"energy": -0.25602,
				"method": "rhf"
			},
			{
				"type": "occ",
				"energy": -0.24259,
				"method": "rhf"
			},
			{
				"type": "occ",
				"energy": -0.20813,
				"method": "rhf"
			},
			{
				"type": "unocc",
				"energy": 0.01509,
				"method": "rhf"
			},
			{
				"type": "unocc",
				"energy": 0.03317,
				"method": "rhf"
			},
			{
				"type": "unocc",
				"energy": 0.07014,
				"method": "rhf"
			},
			{
				"type": "unocc",
				"energy": 0.09111,
				"method": "rhf"
			},
			{
				"type": "unocc",
				"energy": 0.09309,
				"method": "rhf"
			}
		],
		"cosmo_sigma_profile": { 
			"-0.025": 0.0,
			"-0.024": 0.0,
			"-0.023": 0.0,
			"-0.022": 0.0,
			"-0.021": 0.0,
			"-0.02": 0.0,
			"-0.019": 0.0,
			"-0.018": 0.0,
			"-0.017": 0.0,
			"-0.016": 0.0,
			"-0.015": 0.0373136859776,
			"-0.014": 0.749890980845,
			"-0.013": 1.38476757485,
			"-0.012": 3.91009172257,
			"-0.011": 2.48914718533,
			"-0.01": 4.10107020276,
			"-0.009": 7.3857721875,
			"-0.008": 9.23822937047,
			"-0.007": 8.64975222014,
			"-0.006": 10.234445586,
			"-0.005": 8.09821949755,
			"-0.004": 9.50578105122,
			"-0.003": 7.64771822261,
			"-0.002": 8.1601065378,
			"-0.001": 7.14926349315,
			"0.0": 7.37969184105,
			"0.001": 8.19189064081,
			"0.002": 9.41069460786,
			"0.003": 8.33476595156,
			"0.004": 7.36455934467,
			"0.005": 7.83379985029,
			"0.006": 7.37134403857,
			"0.007": 3.35267703308,
			"0.008": 3.05848388373,
			"0.009": 3.19795341349,
			"0.01": 2.27309479044,
			"0.011": 3.76542740497,
			"0.012": 2.04094637377,
			"0.013": 5.88845578133,
			"0.014": 6.74916295308,
			"0.015": 1.68903294284,
			"0.016": 0.085562846648,
			"0.017": 0.0,
			"0.018": 0.0,
			"0.019": 0.0,
			"0.02": 0.0,
			"0.021": 0.0,
			"0.022": 0.0,
			"0.023": 0.0,
			"0.024": 0.0,
			"0.025": 0.0
		}
	}
}
