{
	 "smiles": "CC(=O)N(C1=CC=CC=C1)C1=CC(N(C(C)=O)C2=CC=CC=C2)=C(C=C1[N+]([O-])=O)[N+]([O-])=O", 
	 "Tm": 506.15, 
	 "num_atms": 50, 
	 "gaussian": { 
		 "optdone": 1, 
		 "sigma_profile": "yes", 
		 "theory": "DFT", 
		 "functional": "B3LYP", 
		 "basiset": "6-31G**", 
		 "properties": { 
			 "R2extent": 13073.261, 
			 "electric_dipole_moment_norm": 7.1237953908, 
			 "electric_quadrupole_moment_norm": 27.4980195336, 
			 "total_energy": -1519.33619313, 
			 "HOMO_LUMO_gap": 0.12217, 
			 "cosmo_polarized_energy": -25.09, 
			 "cosmo_cavitation_energy": 55.49, 
			 "cosmo_dispersion_energy": -34.61, 
			 "cosmo_repulsion_energy": 2.62, 
			 "cosmo_total_nonelectrostatic_energy": 23.5, 
			 "SMD_solvation_energy": 15.19 
		},
		"coords": [
			{
				"x": -2.0836097178,
				"y": 2.7212282914,
				"z": -0.2817496889,
				"element": "C" 
			},
			{
				"x": -1.7344742563,
				"y": 2.1889104327,
				"z": 1.0960301094,
				"element": "C" 
			},
			{
				"x": -1.7837863518,
				"y": 2.8825612388,
				"z": 2.0944510183,
				"element": "O" 
			},
			{
				"x": -1.3775471793,
				"y": 0.8314425648,
				"z": 1.1698278404,
				"element": "N" 
			},
			{
				"x": -1.2401622444,
				"y": 0.1681234749,
				"z": 2.4418148378,
				"element": "C" 
			},
			{
				"x": -0.1580122309,
				"y": -0.6946618699,
				"z": 2.6501432188,
				"element": "C" 
			},
			{
				"x": -0.0274469425,
				"y": -1.3710330443,
				"z": 3.8633354447,
				"element": "C" 
			},
			{
				"x": -0.9661450317,
				"y": -1.1806278852,
				"z": 4.8772359004,
				"element": "C" 
			},
			{
				"x": -2.0414476601,
				"y": -0.3141388097,
				"z": 4.6672405549,
				"element": "C" 
			},
			{
				"x": -2.1894139756,
				"y": 0.3551963893,
				"z": 3.4541628181,
				"element": "C" 
			},
			{
				"x": -1.2487696665,
				"y": 0.0187505773,
				"z": 0.0073539139,
				"element": "C" 
			},
			{
				"x": -0.0855770331,
				"y": 0.1079734757,
				"z": -0.761242947,
				"element": "C" 
			},
			{
				"x": 0.1555524526,
				"y": -0.7003515731,
				"z": -1.8788638164,
				"element": "C" 
			},
			{
				"x": 1.3445888041,
				"y": -0.5025385046,
				"z": -2.6237178678,
				"element": "N" 
			},
			{
				"x": 1.261678902,
				"y": -0.384069706,
				"z": -4.0233020909,
				"element": "C" 
			},
			{
				"x": 2.5718302493,
				"y": -0.3140382832,
				"z": -4.7769821729,
				"element": "C" 
			},
			{
				"x": 0.1767902087,
				"y": -0.3503220008,
				"z": -4.5759852103,
				"element": "O" 
			},
			{
				"x": 2.5908518274,
				"y": -0.4989221149,
				"z": -1.8996722691,
				"element": "C" 
			},
			{
				"x": 3.0741623539,
				"y": -1.7035978937,
				"z": -1.3762213091,
				"element": "C" 
			},
			{
				"x": 4.2693983241,
				"y": -1.7121180181,
				"z": -0.6573502286,
				"element": "C" 
			},
			{
				"x": 4.9838092576,
				"y": -0.5266027963,
				"z": -0.4662792332,
				"element": "C" 
			},
			{
				"x": 4.499559396,
				"y": 0.6728000376,
				"z": -0.9920994721,
				"element": "C" 
			},
			{
				"x": 3.2991657808,
				"y": 0.6912593604,
				"z": -1.7044573048,
				"element": "C" 
			},
			{
				"x": -0.8152403319,
				"y": -1.6709653343,
				"z": -2.192443197,
				"element": "C" 
			},
			{
				"x": -1.9961741252,
				"y": -1.7670260873,
				"z": -1.4689671612,
				"element": "C" 
			},
			{
				"x": -2.2187923963,
				"y": -0.9220792833,
				"z": -0.3892944206,
				"element": "C" 
			},
			{
				"x": -3.5194299111,
				"y": -1.044964121,
				"z": 0.2866266388,
				"element": "N" 
			},
			{
				"x": -4.013440946,
				"y": -0.0253385131,
				"z": 0.7639955282,
				"element": "O" 
			},
			{
				"x": -4.0414980146,
				"y": -2.1570120604,
				"z": 0.2956420752,
				"element": "O" 
			},
			{
				"x": -0.611594523,
				"y": -2.693242046,
				"z": -3.2334677454,
				"element": "N" 
			},
			{
				"x": 0.5315112571,
				"y": -3.1225176547,
				"z": -3.3892138379,
				"element": "O" 
			},
			{
				"x": -1.604012652,
				"y": -3.0931144738,
				"z": -3.8291592512,
				"element": "O" 
			},
			{
				"x": -2.3735061597,
				"y": 3.7648068615,
				"z": -0.1640780896,
				"element": "H" 
			},
			{
				"x": -1.2461480386,
				"y": 2.6575115986,
				"z": -0.9816677347,
				"element": "H" 
			},
			{
				"x": -2.9192030672,
				"y": 2.1550414328,
				"z": -0.7045482254,
				"element": "H" 
			},
			{
				"x": 0.5807658155,
				"y": -0.8363453711,
				"z": 1.86771725,
				"element": "H" 
			},
			{
				"x": 0.8142239728,
				"y": -2.0405077578,
				"z": 4.0147049723,
				"element": "H" 
			},
			{
				"x": -0.8624097265,
				"y": -1.7033068215,
				"z": 5.8233431838,
				"element": "H" 
			},
			{
				"x": -2.7794395567,
				"y": -0.1633513007,
				"z": 5.4494644041,
				"element": "H" 
			},
			{
				"x": -3.0252311802,
				"y": 1.0220863859,
				"z": 3.2907794461,
				"element": "H" 
			},
			{
				"x": 0.6634142293,
				"y": 0.8356843585,
				"z": -0.4704811529,
				"element": "H" 
			},
			{
				"x": 2.3355184517,
				"y": -0.3067307648,
				"z": -5.8404228383,
				"element": "H" 
			},
			{
				"x": 3.1403745415,
				"y": 0.5850644298,
				"z": -4.5253706705,
				"element": "H" 
			},
			{
				"x": 3.2004234463,
				"y": -1.1777679275,
				"z": -4.5419276711,
				"element": "H" 
			},
			{
				"x": 2.5130070457,
				"y": -2.6157780135,
				"z": -1.5517097442,
				"element": "H" 
			},
			{
				"x": 4.6463309234,
				"y": -2.6466212834,
				"z": -0.2527971226,
				"element": "H" 
			},
			{
				"x": 5.9151539507,
				"y": -0.5373705119,
				"z": 0.0916980151,
				"element": "H" 
			},
			{
				"x": 5.0500042139,
				"y": 1.5965099164,
				"z": -0.841783367,
				"element": "H" 
			},
			{
				"x": 2.9078035134,
				"y": 1.6209137122,
				"z": -2.10715542,
				"element": "H" 
			},
			{
				"x": -2.7389059989,
				"y": -2.5048027128,
				"z": -1.7429559094,
				"element": "H" 
			}
		],
		 "valence_orbital": [ 
			{
				"type": "occ",
				"energy": -0.27681,
				"method": "rhf"
			},
			{
				"type": "occ",
				"energy": -0.26454,
				"method": "rhf"
			},
			{
				"type": "occ",
				"energy": -0.25779,
				"method": "rhf"
			},
			{
				"type": "occ",
				"energy": -0.25336,
				"method": "rhf"
			},
			{
				"type": "occ",
				"energy": -0.23425,
				"method": "rhf"
			},
			{
				"type": "unocc",
				"energy": -0.11208,
				"method": "rhf"
			},
			{
				"type": "unocc",
				"energy": -0.09452,
				"method": "rhf"
			},
			{
				"type": "unocc",
				"energy": -0.04955,
				"method": "rhf"
			},
			{
				"type": "unocc",
				"energy": -0.04088,
				"method": "rhf"
			},
			{
				"type": "unocc",
				"energy": -0.03614,
				"method": "rhf"
			}
		],
		"cosmo_sigma_profile": { 
			"-0.025": 0.0,
			"-0.024": 0.0,
			"-0.023": 0.0,
			"-0.022": 0.0,
			"-0.021": 0.0,
			"-0.02": 0.0,
			"-0.019": 0.0,
			"-0.018": 0.0,
			"-0.017": 0.0,
			"-0.016": 0.0,
			"-0.015": 0.0,
			"-0.014": 0.0,
			"-0.013": 0.0,
			"-0.012": 0.0,
			"-0.011": 0.0,
			"-0.01": 0.14912098832,
			"-0.009": 2.79927820917,
			"-0.008": 6.68587686819,
			"-0.007": 12.7985919257,
			"-0.006": 31.2482653189,
			"-0.005": 40.8396315757,
			"-0.004": 43.5362259164,
			"-0.003": 34.805968074,
			"-0.002": 36.5856611244,
			"-0.001": 28.9210587412,
			"0.0": 21.1564070882,
			"0.001": 21.7119041527,
			"0.002": 23.1819158282,
			"0.003": 24.9708086466,
			"0.004": 25.0522914088,
			"0.005": 18.4052740277,
			"0.006": 15.7249908919,
			"0.007": 15.667580959,
			"0.008": 10.5630993073,
			"0.009": 8.89630275485,
			"0.01": 4.0177573918,
			"0.011": 4.59934694556,
			"0.012": 6.93198745371,
			"0.013": 4.47445900325,
			"0.014": 0.385969733544,
			"0.015": 0.0,
			"0.016": 0.0,
			"0.017": 0.0,
			"0.018": 0.0,
			"0.019": 0.0,
			"0.02": 0.0,
			"0.021": 0.0,
			"0.022": 0.0,
			"0.023": 0.0,
			"0.024": 0.0,
			"0.025": 0.0
		}
	}
}
