{
	 "smiles": "CCCCCCCCCCCCCCCC(=O)OC1=CC=C(C=C1)[N+]([O-])=O", 
	 "Tm": 339.15, 
	 "num_atms": 62, 
	 "gaussian": { 
		 "optdone": 1, 
		 "sigma_profile": "yes", 
		 "theory": "DFT", 
		 "functional": "B3LYP", 
		 "basiset": "6-31G**", 
		 "properties": { 
			 "R2extent": 27072.3703, 
			 "electric_dipole_moment_norm": 5.77208075221, 
			 "electric_quadrupole_moment_norm": 51.4261268696, 
			 "total_energy": -1215.03434708, 
			 "HOMO_LUMO_gap": 0.17846, 
			 "cosmo_polarized_energy": -10.59, 
			 "cosmo_cavitation_energy": 63.48, 
			 "cosmo_dispersion_energy": -42.53, 
			 "cosmo_repulsion_energy": 3.33, 
			 "cosmo_total_nonelectrostatic_energy": 24.29, 
			 "SMD_solvation_energy": 11.91 
		},
		"coords": [
			{
				"x": 4.9762214761,
				"y": 0.2865321068,
				"z": -5.6572002919,
				"element": "C" 
			},
			{
				"x": 4.3399072058,
				"y": 1.3602010826,
				"z": -6.5483129652,
				"element": "C" 
			},
			{
				"x": 3.5423581817,
				"y": 2.4316244391,
				"z": -5.7862375235,
				"element": "C" 
			},
			{
				"x": 2.2815647843,
				"y": 1.9133172255,
				"z": -5.078952468,
				"element": "C" 
			},
			{
				"x": 1.4929631535,
				"y": 3.0291361955,
				"z": -4.3794076638,
				"element": "C" 
			},
			{
				"x": 0.1552612965,
				"y": 2.6176025976,
				"z": -3.7378302415,
				"element": "C" 
			},
			{
				"x": 0.2465928488,
				"y": 1.6031484276,
				"z": -2.5744301642,
				"element": "C" 
			},
			{
				"x": 0.0847674856,
				"y": 0.1315166037,
				"z": -2.9897111122,
				"element": "C" 
			},
			{
				"x": 0.2830990606,
				"y": -0.8793593247,
				"z": -1.8457084119,
				"element": "C" 
			},
			{
				"x": -0.7089293859,
				"y": -0.7859812463,
				"z": -0.6714255429,
				"element": "C" 
			},
			{
				"x": -2.1674867196,
				"y": -1.0830397257,
				"z": -1.0508520156,
				"element": "C" 
			},
			{
				"x": -3.1629124209,
				"y": -0.9887920481,
				"z": 0.1186777147,
				"element": "C" 
			},
			{
				"x": -2.9547462778,
				"y": -2.0453385954,
				"z": 1.2146917846,
				"element": "C" 
			},
			{
				"x": -4.0719950334,
				"y": -2.0971799047,
				"z": 2.2698831871,
				"element": "C" 
			},
			{
				"x": -4.283526432,
				"y": -0.7870467615,
				"z": 3.0645475883,
				"element": "C" 
			},
			{
				"x": -3.0308063824,
				"y": -0.3296539782,
				"z": 3.7750161674,
				"element": "C" 
			},
			{
				"x": -2.341932959,
				"y": 0.6099793253,
				"z": 3.4583662307,
				"element": "O" 
			},
			{
				"x": -2.7733572769,
				"y": -1.1687507052,
				"z": 4.8349102086,
				"element": "O" 
			},
			{
				"x": -1.6863616216,
				"y": -1.0841397025,
				"z": 5.6876209479,
				"element": "C" 
			},
			{
				"x": -1.6891938229,
				"y": -2.0720369547,
				"z": 6.6828717421,
				"element": "C" 
			},
			{
				"x": -0.6648065207,
				"y": -2.1239228378,
				"z": 7.6164603632,
				"element": "C" 
			},
			{
				"x": 0.3578871923,
				"y": -1.1776987252,
				"z": 7.5409956268,
				"element": "C" 
			},
			{
				"x": 0.3705341499,
				"y": -0.192296708,
				"z": 6.5576335348,
				"element": "C" 
			},
			{
				"x": -0.6566243985,
				"y": -0.1360448862,
				"z": 5.6176385465,
				"element": "C" 
			},
			{
				"x": 1.4466792439,
				"y": -1.2239874425,
				"z": 8.5238856778,
				"element": "N" 
			},
			{
				"x": 2.3357742452,
				"y": -0.3773280269,
				"z": 8.4337995344,
				"element": "O" 
			},
			{
				"x": 1.4050258662,
				"y": -2.1081463194,
				"z": 9.3801387105,
				"element": "O" 
			},
			{
				"x": 4.2230962173,
				"y": -0.2982872227,
				"z": -5.1191298484,
				"element": "H" 
			},
			{
				"x": 5.6403166271,
				"y": 0.7373909123,
				"z": -4.9102835362,
				"element": "H" 
			},
			{
				"x": 5.5725190286,
				"y": -0.4150379889,
				"z": -6.2500025698,
				"element": "H" 
			},
			{
				"x": 5.1308706703,
				"y": 1.8566884571,
				"z": -7.1250339033,
				"element": "H" 
			},
			{
				"x": 3.6836186106,
				"y": 0.8798062346,
				"z": -7.2872192194,
				"element": "H" 
			},
			{
				"x": 4.1997145688,
				"y": 2.9132695356,
				"z": -5.0476403909,
				"element": "H" 
			},
			{
				"x": 3.2502653571,
				"y": 3.2223637091,
				"z": -6.490895459,
				"element": "H" 
			},
			{
				"x": 1.6343015225,
				"y": 1.414605245,
				"z": -5.8153756098,
				"element": "H" 
			},
			{
				"x": 2.5611264855,
				"y": 1.1466398461,
				"z": -4.3467865799,
				"element": "H" 
			},
			{
				"x": 2.1296915101,
				"y": 3.4850589824,
				"z": -3.6074014854,
				"element": "H" 
			},
			{
				"x": 1.2924733593,
				"y": 3.8257153363,
				"z": -5.1096582951,
				"element": "H" 
			},
			{
				"x": -0.5152440316,
				"y": 2.2214533023,
				"z": -4.5138748891,
				"element": "H" 
			},
			{
				"x": -0.3251671538,
				"y": 3.5333570075,
				"z": -3.3713443856,
				"element": "H" 
			},
			{
				"x": 1.2049473829,
				"y": 1.7328874045,
				"z": -2.0505373195,
				"element": "H" 
			},
			{
				"x": -0.527689955,
				"y": 1.8448531071,
				"z": -1.8362645175,
				"element": "H" 
			},
			{
				"x": 0.802079983,
				"y": -0.1084331814,
				"z": -3.7829889578,
				"element": "H" 
			},
			{
				"x": -0.9074975163,
				"y": -0.0016135371,
				"z": -3.4416045362,
				"element": "H" 
			},
			{
				"x": 1.30166144,
				"y": -0.7636378242,
				"z": -1.4504251062,
				"element": "H" 
			},
			{
				"x": 0.2364145584,
				"y": -1.894743791,
				"z": -2.2632668288,
				"element": "H" 
			},
			{
				"x": -0.3819361563,
				"y": -1.4928685022,
				"z": 0.1013025635,
				"element": "H" 
			},
			{
				"x": -0.6523726596,
				"y": 0.2079765334,
				"z": -0.208004933,
				"element": "H" 
			},
			{
				"x": -2.4905094656,
				"y": -0.3833567515,
				"z": -1.8315497096,
				"element": "H" 
			},
			{
				"x": -2.2281434659,
				"y": -2.0856363785,
				"z": -1.4993395505,
				"element": "H" 
			},
			{
				"x": -3.0997696505,
				"y": 0.0151369907,
				"z": 0.5581190382,
				"element": "H" 
			},
			{
				"x": -4.1828686606,
				"y": -1.0899343827,
				"z": -0.2785228285,
				"element": "H" 
			},
			{
				"x": -1.9911369602,
				"y": -1.8802383518,
				"z": 1.713114254,
				"element": "H" 
			},
			{
				"x": -2.8854237402,
				"y": -3.0372773742,
				"z": 0.7482346719,
				"element": "H" 
			},
			{
				"x": -5.0242863125,
				"y": -2.3426232197,
				"z": 1.7836406906,
				"element": "H" 
			},
			{
				"x": -3.8655819745,
				"y": -2.9061189581,
				"z": 2.9795795269,
				"element": "H" 
			},
			{
				"x": -5.0722357992,
				"y": -0.9419533913,
				"z": 3.8082581336,
				"element": "H" 
			},
			{
				"x": -4.5875419568,
				"y": 0.0276012887,
				"z": 2.40449033,
				"element": "H" 
			},
			{
				"x": -2.5034015217,
				"y": -2.7878493247,
				"z": 6.7046896566,
				"element": "H" 
			},
			{
				"x": -0.6420531702,
				"y": -2.8757601609,
				"z": 8.3950072631,
				"element": "H" 
			},
			{
				"x": 1.1831398488,
				"y": 0.5230635445,
				"z": 6.5353221279,
				"element": "H" 
			},
			{
				"x": -0.6622339587,
				"y": 0.6223887932,
				"z": 4.8506230383,
				"element": "H" 
			}
		],
		 "valence_orbital": [ 
			{
				"type": "occ",
				"energy": -0.29376,
				"method": "rhf"
			},
			{
				"type": "occ",
				"energy": -0.28959,
				"method": "rhf"
			},
			{
				"type": "occ",
				"energy": -0.28859,
				"method": "rhf"
			},
			{
				"type": "occ",
				"energy": -0.28191,
				"method": "rhf"
			},
			{
				"type": "occ",
				"energy": -0.26637,
				"method": "rhf"
			},
			{
				"type": "unocc",
				"energy": -0.08791,
				"method": "rhf"
			},
			{
				"type": "unocc",
				"energy": -0.03059,
				"method": "rhf"
			},
			{
				"type": "unocc",
				"energy": -0.02293,
				"method": "rhf"
			},
			{
				"type": "unocc",
				"energy": 0.01648,
				"method": "rhf"
			},
			{
				"type": "unocc",
				"energy": 0.07511,
				"method": "rhf"
			}
		],
		"cosmo_sigma_profile": { 
			"-0.025": 0.0,
			"-0.024": 0.0,
			"-0.023": 0.0,
			"-0.022": 0.0,
			"-0.021": 0.0,
			"-0.02": 0.0,
			"-0.019": 0.0,
			"-0.018": 0.0,
			"-0.017": 0.0,
			"-0.016": 0.0,
			"-0.015": 0.0,
			"-0.014": 0.0,
			"-0.013": 0.0,
			"-0.012": 0.0,
			"-0.011": 0.0,
			"-0.01": 0.0,
			"-0.009": 0.0119669105356,
			"-0.008": 3.12947845324,
			"-0.007": 5.27533807963,
			"-0.006": 9.37329691068,
			"-0.005": 11.5515899558,
			"-0.004": 14.8935162652,
			"-0.003": 23.296592595,
			"-0.002": 59.7392486707,
			"-0.001": 94.2956958667,
			"0.0": 100.310735102,
			"0.001": 82.1350136393,
			"0.002": 34.4716678697,
			"0.003": 7.37902003386,
			"0.004": 5.89995736906,
			"0.005": 4.70092214579,
			"0.006": 4.17368223481,
			"0.007": 8.6485586546,
			"0.008": 10.3620971404,
			"0.009": 6.45385830174,
			"0.01": 4.98509882911,
			"0.011": 2.05548431144,
			"0.012": 0.193455450558,
			"0.013": 0.0,
			"0.014": 0.0,
			"0.015": 0.0,
			"0.016": 0.0,
			"0.017": 0.0,
			"0.018": 0.0,
			"0.019": 0.0,
			"0.02": 0.0,
			"0.021": 0.0,
			"0.022": 0.0,
			"0.023": 0.0,
			"0.024": 0.0,
			"0.025": 0.0
		}
	}
}
