{
	 "smiles": "OC(=O)CCN1C(=S)SC(=C/C2=CC=C(F)C=C2)C1=O", 
	 "Tm": 409.15, 
	 "num_atms": 30, 
	 "gaussian": { 
		 "optdone": 1, 
		 "sigma_profile": "yes", 
		 "theory": "DFT", 
		 "functional": "B3LYP", 
		 "basiset": "6-31G**", 
		 "properties": { 
			 "R2extent": 9516.0051, 
			 "electric_dipole_moment_norm": 1.98127108191, 
			 "electric_quadrupole_moment_norm": 10.646415307, 
			 "total_energy": -1678.06899038, 
			 "HOMO_LUMO_gap": 0.13096, 
			 "cosmo_polarized_energy": -16.44, 
			 "cosmo_cavitation_energy": 39.13, 
			 "cosmo_dispersion_energy": -27.94, 
			 "cosmo_repulsion_energy": 2.01, 
			 "cosmo_total_nonelectrostatic_energy": 13.2, 
			 "SMD_solvation_energy": 7.39 
		},
		"coords": [
			{
				"x": 1.2990551914,
				"y": 5.2564186964,
				"z": 1.9885189289,
				"element": "O" 
			},
			{
				"x": 1.2866681234,
				"y": 3.9418171652,
				"z": 1.6737306893,
				"element": "C" 
			},
			{
				"x": 0.5975815763,
				"y": 3.1295249606,
				"z": 2.251556863,
				"element": "O" 
			},
			{
				"x": 2.2005542528,
				"y": 3.6207365475,
				"z": 0.5106971337,
				"element": "C" 
			},
			{
				"x": 1.4324833714,
				"y": 3.528245502,
				"z": -0.8239947047,
				"element": "C" 
			},
			{
				"x": 0.3548960796,
				"y": 2.5348693936,
				"z": -0.789054818,
				"element": "N" 
			},
			{
				"x": -0.9769809741,
				"y": 2.8613059607,
				"z": -0.7030627026,
				"element": "C" 
			},
			{
				"x": -1.6511253712,
				"y": 4.3654054805,
				"z": -0.6799541788,
				"element": "S" 
			},
			{
				"x": -1.9574198481,
				"y": 1.3818149287,
				"z": -0.6355093573,
				"element": "S" 
			},
			{
				"x": -0.5376287541,
				"y": 0.3358501946,
				"z": -0.7229807555,
				"element": "C" 
			},
			{
				"x": -0.4337636289,
				"y": -1.0142852327,
				"z": -0.7262603362,
				"element": "C" 
			},
			{
				"x": -1.4371944969,
				"y": -2.0620816592,
				"z": -0.6582887767,
				"element": "C" 
			},
			{
				"x": -2.8276248473,
				"y": -1.8366851257,
				"z": -0.5601966038,
				"element": "C" 
			},
			{
				"x": -3.7244523844,
				"y": -2.8968321231,
				"z": -0.4998057508,
				"element": "C" 
			},
			{
				"x": -3.2330097223,
				"y": -4.1991133333,
				"z": -0.537534054,
				"element": "C" 
			},
			{
				"x": -4.1003297969,
				"y": -5.2246647012,
				"z": -0.4795934652,
				"element": "F" 
			},
			{
				"x": -1.8712687855,
				"y": -4.469513825,
				"z": -0.6331485774,
				"element": "C" 
			},
			{
				"x": -0.9864329346,
				"y": -3.4002115944,
				"z": -0.692312841,
				"element": "C" 
			},
			{
				"x": 0.6867360493,
				"y": 1.1668559903,
				"z": -0.8046783173,
				"element": "C" 
			},
			{
				"x": 1.8371460681,
				"y": 0.7711398258,
				"z": -0.8852862703,
				"element": "O" 
			},
			{
				"x": 0.6473817933,
				"y": 5.3729029155,
				"z": 2.7009390549,
				"element": "H" 
			},
			{
				"x": 2.6789584121,
				"y": 2.6600382291,
				"z": 0.7110046688,
				"element": "H" 
			},
			{
				"x": 2.968595021,
				"y": 4.3914360066,
				"z": 0.4076559448,
				"element": "H" 
			},
			{
				"x": 2.1282140262,
				"y": 3.2229017592,
				"z": -1.6087869105,
				"element": "H" 
			},
			{
				"x": 0.9784392756,
				"y": 4.4840526951,
				"z": -1.0867166257,
				"element": "H" 
			},
			{
				"x": 0.5980177622,
				"y": -1.356924436,
				"z": -0.7923860344,
				"element": "H" 
			},
			{
				"x": -3.2236741035,
				"y": -0.828652106,
				"z": -0.5280943448,
				"element": "H" 
			},
			{
				"x": -4.7933162795,
				"y": -2.7308567707,
				"z": -0.423712034,
				"element": "H" 
			},
			{
				"x": -1.5276169215,
				"y": -5.4976030881,
				"z": -0.6590490219,
				"element": "H" 
			},
			{
				"x": 0.0794118461,
				"y": -3.595692256,
				"z": -0.7663968027,
				"element": "H" 
			}
		],
		 "valence_orbital": [ 
			{
				"type": "occ",
				"energy": -0.28108,
				"method": "rhf"
			},
			{
				"type": "occ",
				"energy": -0.2776,
				"method": "rhf"
			},
			{
				"type": "occ",
				"energy": -0.26113,
				"method": "rhf"
			},
			{
				"type": "occ",
				"energy": -0.23487,
				"method": "rhf"
			},
			{
				"type": "occ",
				"energy": -0.22718,
				"method": "rhf"
			},
			{
				"type": "unocc",
				"energy": -0.09622,
				"method": "rhf"
			},
			{
				"type": "unocc",
				"energy": -0.04156,
				"method": "rhf"
			},
			{
				"type": "unocc",
				"energy": -0.02913,
				"method": "rhf"
			},
			{
				"type": "unocc",
				"energy": -0.00213,
				"method": "rhf"
			},
			{
				"type": "unocc",
				"energy": 0.00181,
				"method": "rhf"
			}
		],
		"cosmo_sigma_profile": { 
			"-0.025": 0.0,
			"-0.024": 0.0,
			"-0.023": 0.0,
			"-0.022": 0.0,
			"-0.021": 0.0,
			"-0.02": 0.0,
			"-0.019": 0.11135437541,
			"-0.018": 0.734324432067,
			"-0.017": 1.0606694166,
			"-0.016": 0.860439732323,
			"-0.015": 0.788243222322,
			"-0.014": 0.489418919036,
			"-0.013": 0.092673184262,
			"-0.012": 1.00511434974,
			"-0.011": 0.866855115667,
			"-0.01": 0.605330279026,
			"-0.009": 1.98132552909,
			"-0.008": 6.71743052916,
			"-0.007": 15.5195429329,
			"-0.006": 17.7791290104,
			"-0.005": 18.6133004473,
			"-0.004": 17.7873561617,
			"-0.003": 14.7450479512,
			"-0.002": 15.5961695121,
			"-0.001": 23.6197464692,
			"0.0": 28.968318435,
			"0.001": 28.6625924571,
			"0.002": 28.6997128199,
			"0.003": 20.5143778867,
			"0.004": 17.5825144696,
			"0.005": 11.4808063209,
			"0.006": 10.8232742121,
			"0.007": 6.77854991484,
			"0.008": 6.167321546,
			"0.009": 6.1536753917,
			"0.01": 4.22457347384,
			"0.011": 6.49802130588,
			"0.012": 2.99398510001,
			"0.013": 0.0728614481548,
			"0.014": 0.0,
			"0.015": 0.0,
			"0.016": 0.0,
			"0.017": 0.0,
			"0.018": 0.0,
			"0.019": 0.0,
			"0.02": 0.0,
			"0.021": 0.0,
			"0.022": 0.0,
			"0.023": 0.0,
			"0.024": 0.0,
			"0.0": 0.0
		}
	}
}
