{
	 "smiles": "CC1=C(C=C(C=C1)C#N)S(Cl)(=O)=O", 
	 "Tm": 356.15, 
	 "num_atms": 19, 
	 "gaussian": { 
		 "optdone": 1, 
		 "sigma_profile": "yes", 
		 "theory": "DFT", 
		 "functional": "B3LYP", 
		 "basiset": "6-31G**", 
		 "properties": { 
			 "R2extent": 3820.3834, 
			 "electric_dipole_moment_norm": 5.25498417695, 
			 "electric_quadrupole_moment_norm": 13.2079958468, 
			 "total_energy": -1371.96187018, 
			 "HOMO_LUMO_gap": 0.18502, 
			 "cosmo_polarized_energy": -12.96, 
			 "cosmo_cavitation_energy": 27.58, 
			 "cosmo_dispersion_energy": -20.06, 
			 "cosmo_repulsion_energy": 1.53, 
			 "cosmo_total_nonelectrostatic_energy": 9.05, 
			 "SMD_solvation_energy": 5.01 
		},
		"coords": [
			{
				"x": -0.5586978282,
				"y": -0.0428572149,
				"z": -3.4593495641,
				"element": "C" 
			},
			{
				"x": -0.2352958799,
				"y": 0.1631656554,
				"z": -2.001632916,
				"element": "C" 
			},
			{
				"x": -0.8592085452,
				"y": -0.5298802251,
				"z": -0.9434862454,
				"element": "C" 
			},
			{
				"x": -0.5357348602,
				"y": -0.3241202421,
				"z": 0.3959964083,
				"element": "C" 
			},
			{
				"x": 0.4485704782,
				"y": 0.617643167,
				"z": 0.7231330395,
				"element": "C" 
			},
			{
				"x": 1.088846677,
				"y": 1.3278873898,
				"z": -0.304037974,
				"element": "C" 
			},
			{
				"x": 0.7461199723,
				"y": 1.0950319258,
				"z": -1.6312880332,
				"element": "C" 
			},
			{
				"x": 0.7957194232,
				"y": 0.8509713953,
				"z": 2.0944985952,
				"element": "C" 
			},
			{
				"x": 1.0835084188,
				"y": 1.0464176396,
				"z": 3.2039972361,
				"element": "N" 
			},
			{
				"x": -2.1691820009,
				"y": -1.729564251,
				"z": -1.2341787585,
				"element": "S" 
			},
			{
				"x": -1.056478191,
				"y": -3.3871017659,
				"z": -1.9873459989,
				"element": "Cl" 
			},
			{
				"x": -2.7137787864,
				"y": -2.1551811746,
				"z": 0.0478399733,
				"element": "O" 
			},
			{
				"x": -3.0290556354,
				"y": -1.2832281974,
				"z": -2.3225606266,
				"element": "O" 
			},
			{
				"x": -1.5849449878,
				"y": 0.2610578782,
				"z": -3.6811868765,
				"element": "H" 
			},
			{
				"x": -0.4729012314,
				"y": -1.095192523,
				"z": -3.7458985588,
				"element": "H" 
			},
			{
				"x": 0.1248197334,
				"y": 0.5394776602,
				"z": -4.0803956716,
				"element": "H" 
			},
			{
				"x": -1.0445554916,
				"y": -0.8850148408,
				"z": 1.1705294509,
				"element": "H" 
			},
			{
				"x": 1.8528109778,
				"y": 2.0569639777,
				"z": -0.0562171789,
				"element": "H" 
			},
			{
				"x": 1.2525377572,
				"y": 1.6508237458,
				"z": -2.4143163007,
				"element": "H" 
			}
		],
		 "valence_orbital": [ 
			{
				"type": "occ",
				"energy": -0.3467,
				"method": "rhf"
			},
			{
				"type": "occ",
				"energy": -0.34213,
				"method": "rhf"
			},
			{
				"type": "occ",
				"energy": -0.32643,
				"method": "rhf"
			},
			{
				"type": "occ",
				"energy": -0.30944,
				"method": "rhf"
			},
			{
				"type": "occ",
				"energy": -0.28868,
				"method": "rhf"
			},
			{
				"type": "unocc",
				"energy": -0.10366,
				"method": "rhf"
			},
			{
				"type": "unocc",
				"energy": -0.07863,
				"method": "rhf"
			},
			{
				"type": "unocc",
				"energy": -0.06083,
				"method": "rhf"
			},
			{
				"type": "unocc",
				"energy": 0.01532,
				"method": "rhf"
			},
			{
				"type": "unocc",
				"energy": 0.02542,
				"method": "rhf"
			}
		],
		"cosmo_sigma_profile": { 
			"-0.025": 0.0,
			"-0.024": 0.0,
			"-0.023": 0.0,
			"-0.022": 0.0,
			"-0.021": 0.0,
			"-0.02": 0.0,
			"-0.019": 0.0,
			"-0.018": 0.0,
			"-0.017": 0.0,
			"-0.016": 0.0,
			"-0.015": 0.0,
			"-0.014": 0.0,
			"-0.013": 0.0,
			"-0.012": 0.0,
			"-0.011": 0.0,
			"-0.01": 1.03668217915,
			"-0.009": 4.63673374067,
			"-0.008": 8.08345313318,
			"-0.007": 7.16998803831,
			"-0.006": 8.97980436368,
			"-0.005": 9.74079756572,
			"-0.004": 15.7796182664,
			"-0.003": 20.7406938989,
			"-0.002": 26.6739623963,
			"-0.001": 19.0109737433,
			"0.0": 14.1376835849,
			"0.001": 10.2602207817,
			"0.002": 11.8003070112,
			"0.003": 13.6558652264,
			"0.004": 7.34129462361,
			"0.005": 6.37360356391,
			"0.006": 5.79840493722,
			"0.007": 9.59690720382,
			"0.008": 11.3345018667,
			"0.009": 5.27890153084,
			"0.01": 2.9373440085,
			"0.011": 2.43785211382,
			"0.012": 2.2479053788,
			"0.013": 0.375829647977,
			"0.014": 0.0,
			"0.015": 0.0,
			"0.016": 0.0,
			"0.017": 0.0,
			"0.018": 0.0,
			"0.019": 0.0,
			"0.02": 0.0,
			"0.021": 0.0,
			"0.022": 0.0,
			"0.023": 0.0,
			"0.024": 0.0,
			"0.025": 0.0
		}
	}
}
