{
	 "smiles": "O=CC1=CC=CC=C1C=O", 
	 "Tm": 329.35, 
	 "num_atms": 16, 
	 "gaussian": { 
		 "optdone": 1, 
		 "sigma_profile": "yes", 
		 "theory": "DFT", 
		 "functional": "B3LYP", 
		 "basiset": "6-31G**", 
		 "properties": { 
			 "R2extent": 1698.9107, 
			 "electric_dipole_moment_norm": 2.3401896248, 
			 "electric_quadrupole_moment_norm": 13.8949684836, 
			 "total_energy": -458.888777847, 
			 "HOMO_LUMO_gap": 0.16729, 
			 "cosmo_polarized_energy": -10.11, 
			 "cosmo_cavitation_energy": 20.94, 
			 "cosmo_dispersion_energy": -15.29, 
			 "cosmo_repulsion_energy": 1.22, 
			 "cosmo_total_nonelectrostatic_energy": 6.87, 
			 "SMD_solvation_energy": 5.81 
		},
		"coords": [
			{
				"x": 3.0586933872,
				"y": 0.1030198953,
				"z": -2.0432989171,
				"element": "O" 
			},
			{
				"x": 2.0396273668,
				"y": -0.3506356958,
				"z": -1.5563527963,
				"element": "C" 
			},
			{
				"x": 0.8632625718,
				"y": 0.4916046283,
				"z": -1.1991465344,
				"element": "C" 
			},
			{
				"x": 0.9685653534,
				"y": 1.8687790859,
				"z": -1.4491996421,
				"element": "C" 
			},
			{
				"x": -0.0807938424,
				"y": 2.7294404673,
				"z": -1.1468289301,
				"element": "C" 
			},
			{
				"x": -1.2599788123,
				"y": 2.2240510583,
				"z": -0.5859466677,
				"element": "C" 
			},
			{
				"x": -1.3799475997,
				"y": 0.8622319151,
				"z": -0.3322232349,
				"element": "C" 
			},
			{
				"x": -0.3298890329,
				"y": -0.0197727079,
				"z": -0.6316934299,
				"element": "C" 
			},
			{
				"x": -0.5513060342,
				"y": -1.461084261,
				"z": -0.3244566258,
				"element": "C" 
			},
			{
				"x": -1.5824145152,
				"y": -1.8861044906,
				"z": 0.1629722332,
				"element": "O" 
			},
			{
				"x": 1.9603688484,
				"y": -1.4363427284,
				"z": -1.3609481251,
				"element": "H" 
			},
			{
				"x": 1.892295342,
				"y": 2.2353993374,
				"z": -1.8841362587,
				"element": "H" 
			},
			{
				"x": 0.0152123281,
				"y": 3.7927033452,
				"z": -1.3460123098,
				"element": "H" 
			},
			{
				"x": -2.0809161792,
				"y": 2.8943177039,
				"z": -0.348831811,
				"element": "H" 
			},
			{
				"x": -2.2829335841,
				"y": 0.445966274,
				"z": 0.1015961675,
				"element": "H" 
			},
			{
				"x": 0.2738544025,
				"y": -2.1591738271,
				"z": -0.5589931177,
				"element": "H" 
			}
		],
		 "valence_orbital": [ 
			{
				"type": "occ",
				"energy": -0.36979,
				"method": "rhf"
			},
			{
				"type": "occ",
				"energy": -0.28088,
				"method": "rhf"
			},
			{
				"type": "occ",
				"energy": -0.27888,
				"method": "rhf"
			},
			{
				"type": "occ",
				"energy": -0.27655,
				"method": "rhf"
			},
			{
				"type": "occ",
				"energy": -0.25961,
				"method": "rhf"
			},
			{
				"type": "unocc",
				"energy": -0.09232,
				"method": "rhf"
			},
			{
				"type": "unocc",
				"energy": -0.06083,
				"method": "rhf"
			},
			{
				"type": "unocc",
				"energy": 0.01741,
				"method": "rhf"
			},
			{
				"type": "unocc",
				"energy": 0.02807,
				"method": "rhf"
			},
			{
				"type": "unocc",
				"energy": 0.07683,
				"method": "rhf"
			}
		],
		"cosmo_sigma_profile": { 
			"-0.025": 0.0,
			"-0.024": 0.0,
			"-0.023": 0.0,
			"-0.022": 0.0,
			"-0.021": 0.0,
			"-0.02": 0.0,
			"-0.019": 0.0,
			"-0.018": 0.0,
			"-0.017": 0.0,
			"-0.016": 0.0,
			"-0.015": 0.0,
			"-0.014": 0.0,
			"-0.013": 0.0,
			"-0.012": 0.0,
			"-0.011": 0.134804944529,
			"-0.01": 2.89556093098,
			"-0.009": 3.01579057042,
			"-0.008": 4.41709765558,
			"-0.007": 8.80764676563,
			"-0.006": 11.4436481232,
			"-0.005": 12.492033568,
			"-0.004": 9.96111294466,
			"-0.003": 9.38233861156,
			"-0.002": 9.70175383664,
			"-0.001": 10.0869079044,
			"0.0": 13.7831432504,
			"0.001": 15.7753283453,
			"0.002": 15.4735262863,
			"0.003": 3.79735114321,
			"0.004": 3.43588087894,
			"0.005": 2.87271753526,
			"0.006": 3.14163675342,
			"0.007": 3.08996089575,
			"0.008": 3.87674423439,
			"0.009": 4.15461162528,
			"0.01": 6.58946654496,
			"0.011": 7.37518346341,
			"0.012": 3.04694040526,
			"0.013": 0.345489365521,
			"0.014": 0.0,
			"0.015": 0.0,
			"0.016": 0.0,
			"0.017": 0.0,
			"0.018": 0.0,
			"0.019": 0.0,
			"0.02": 0.0,
			"0.021": 0.0,
			"0.022": 0.0,
			"0.023": 0.0,
			"0.024": 0.0,
			"0.025": 0.0
		}
	}
}
