{
	 "smiles": "ClCC(=O)N1CCC(CC1)NC(=O)CCC1=CC=CC=C1", 
	 "Tm": 418.15, 
	 "num_atms": 42, 
	 "gaussian": { 
		 "optdone": 1, 
		 "sigma_profile": "yes", 
		 "theory": "DFT", 
		 "functional": "B3LYP", 
		 "basiset": "6-31G**", 
		 "properties": { 
			 "R2extent": 8780.7296, 
			 "electric_dipole_moment_norm": 5.04074041883, 
			 "electric_quadrupole_moment_norm": 9.72809035474, 
			 "total_energy": -1342.54750536, 
			 "HOMO_LUMO_gap": 0.22094, 
			 "cosmo_polarized_energy": -21.46, 
			 "cosmo_cavitation_energy": 45.36, 
			 "cosmo_dispersion_energy": -29.91, 
			 "cosmo_repulsion_energy": 2.31, 
			 "cosmo_total_nonelectrostatic_energy": 17.75, 
			 "SMD_solvation_energy": 6.65 
		},
		"coords": [
			{
				"x": 2.4469734092,
				"y": -3.3982884641,
				"z": -3.8909065425,
				"element": "Cl" 
			},
			{
				"x": 2.6001354345,
				"y": -3.7693664522,
				"z": -2.1153919377,
				"element": "C" 
			},
			{
				"x": 2.7267349494,
				"y": -2.5141925933,
				"z": -1.2448837551,
				"element": "C" 
			},
			{
				"x": 3.7976122426,
				"y": -2.3006736175,
				"z": -0.6858760207,
				"element": "O" 
			},
			{
				"x": 1.635369057,
				"y": -1.7012455552,
				"z": -1.107412285,
				"element": "N" 
			},
			{
				"x": 1.7485943269,
				"y": -0.4855325602,
				"z": -0.2893201478,
				"element": "C" 
			},
			{
				"x": 1.3653703598,
				"y": 0.7523798403,
				"z": -1.1040768864,
				"element": "C" 
			},
			{
				"x": -0.0334242865,
				"y": 0.615540149,
				"z": -1.7400224228,
				"element": "C" 
			},
			{
				"x": -0.1276222617,
				"y": -0.7023304661,
				"z": -2.5249391653,
				"element": "C" 
			},
			{
				"x": 0.3143990824,
				"y": -1.9187813669,
				"z": -1.6920567022,
				"element": "C" 
			},
			{
				"x": -1.1022568223,
				"y": 0.6788646213,
				"z": -0.7371220819,
				"element": "N" 
			},
			{
				"x": -1.4714197158,
				"y": 1.8493953934,
				"z": -0.141075878,
				"element": "C" 
			},
			{
				"x": -0.9127637895,
				"y": 2.9155300952,
				"z": -0.3868753871,
				"element": "O" 
			},
			{
				"x": -2.6364463688,
				"y": 1.7578057959,
				"z": 0.8430989679,
				"element": "C" 
			},
			{
				"x": -2.3168308568,
				"y": 2.4807743131,
				"z": 2.1692873445,
				"element": "C" 
			},
			{
				"x": -1.2461556347,
				"y": 1.7827238295,
				"z": 2.982361067,
				"element": "C" 
			},
			{
				"x": 0.1096729861,
				"y": 2.0976997111,
				"z": 2.8076326866,
				"element": "C" 
			},
			{
				"x": 1.0977378452,
				"y": 1.4246160699,
				"z": 3.5292239418,
				"element": "C" 
			},
			{
				"x": 0.7464884344,
				"y": 0.4257832438,
				"z": 4.4398343941,
				"element": "C" 
			},
			{
				"x": -0.5999573236,
				"y": 0.1068483862,
				"z": 4.6262834242,
				"element": "C" 
			},
			{
				"x": -1.5850174394,
				"y": 0.7809811792,
				"z": 3.9027215103,
				"element": "C" 
			},
			{
				"x": 1.7470643081,
				"y": -4.3953627169,
				"z": -1.8475350777,
				"element": "H" 
			},
			{
				"x": 3.525329528,
				"y": -4.3265225685,
				"z": -1.9923889649,
				"element": "H" 
			},
			{
				"x": 2.7759474225,
				"y": -0.4310406703,
				"z": 0.068292444,
				"element": "H" 
			},
			{
				"x": 1.0895724437,
				"y": -0.5813078608,
				"z": 0.5847338232,
				"element": "H" 
			},
			{
				"x": 2.0991032799,
				"y": 0.8984981388,
				"z": -1.9060783458,
				"element": "H" 
			},
			{
				"x": 1.3847273931,
				"y": 1.6437569359,
				"z": -0.4722657741,
				"element": "H" 
			},
			{
				"x": -0.1892053561,
				"y": 1.4610338354,
				"z": -2.4178793787,
				"element": "H" 
			},
			{
				"x": -1.149807284,
				"y": -0.858702605,
				"z": -2.8901619517,
				"element": "H" 
			},
			{
				"x": 0.5249196677,
				"y": -0.6328697442,
				"z": -3.4012093214,
				"element": "H" 
			},
			{
				"x": 0.3188310932,
				"y": -2.8043397882,
				"z": -2.325120863,
				"element": "H" 
			},
			{
				"x": -0.4021284825,
				"y": -2.1102905532,
				"z": -0.8769501833,
				"element": "H" 
			},
			{
				"x": -1.5887226609,
				"y": -0.1664427852,
				"z": -0.4809394358,
				"element": "H" 
			},
			{
				"x": -2.9186437685,
				"y": 0.716043208,
				"z": 1.0362808241,
				"element": "H" 
			},
			{
				"x": -3.49573352,
				"y": 2.2457395614,
				"z": 0.3664269926,
				"element": "H" 
			},
			{
				"x": -3.2391350051,
				"y": 2.5549305462,
				"z": 2.7559189906,
				"element": "H" 
			},
			{
				"x": -2.0010133344,
				"y": 3.498651757,
				"z": 1.9223881358,
				"element": "H" 
			},
			{
				"x": 0.3841097676,
				"y": 2.8741574809,
				"z": 2.0991186907,
				"element": "H" 
			},
			{
				"x": 2.1425388815,
				"y": 1.6858939957,
				"z": 3.3850892013,
				"element": "H" 
			},
			{
				"x": 1.5150489609,
				"y": -0.0946127069,
				"z": 5.0041067236,
				"element": "H" 
			},
			{
				"x": -0.8840285044,
				"y": -0.662297547,
				"z": 5.3393732367,
				"element": "H" 
			},
			{
				"x": -2.6326684583,
				"y": 0.5323525344,
				"z": 4.05951611,
				"element": "H" 
			}
		],
		 "valence_orbital": [ 
			{
				"type": "occ",
				"energy": -0.25491,
				"method": "rhf"
			},
			{
				"type": "occ",
				"energy": -0.25125,
				"method": "rhf"
			},
			{
				"type": "occ",
				"energy": -0.24885,
				"method": "rhf"
			},
			{
				"type": "occ",
				"energy": -0.24472,
				"method": "rhf"
			},
			{
				"type": "occ",
				"energy": -0.24192,
				"method": "rhf"
			},
			{
				"type": "unocc",
				"energy": -0.02098,
				"method": "rhf"
			},
			{
				"type": "unocc",
				"energy": -0.00249,
				"method": "rhf"
			},
			{
				"type": "unocc",
				"energy": -0.00189,
				"method": "rhf"
			},
			{
				"type": "unocc",
				"energy": 0.02295,
				"method": "rhf"
			},
			{
				"type": "unocc",
				"energy": 0.04907,
				"method": "rhf"
			}
		],
		"cosmo_sigma_profile": { 
			"-0.025": 0.0,
			"-0.024": 0.0,
			"-0.023": 0.0,
			"-0.022": 0.0,
			"-0.021": 0.0,
			"-0.02": 0.0,
			"-0.019": 0.0,
			"-0.018": 0.0,
			"-0.017": 0.0,
			"-0.016": 0.0,
			"-0.015": 0.0,
			"-0.014": 0.260102763992,
			"-0.013": 1.42741520017,
			"-0.012": 1.48101260306,
			"-0.011": 1.55719194339,
			"-0.01": 1.96790139204,
			"-0.009": 4.32864842383,
			"-0.008": 6.05167076484,
			"-0.007": 6.62542445348,
			"-0.006": 9.09475944465,
			"-0.005": 22.2364199323,
			"-0.004": 33.2082875152,
			"-0.003": 39.7141952642,
			"-0.002": 32.0125524032,
			"-0.001": 31.0973492576,
			"0.0": 26.5502835766,
			"0.001": 23.0348935175,
			"0.002": 20.0253552878,
			"0.003": 16.9151195039,
			"0.004": 16.6110750559,
			"0.005": 17.6229549275,
			"0.006": 13.3873430237,
			"0.007": 4.41095672396,
			"0.008": 2.48064813598,
			"0.009": 2.59169669888,
			"0.01": 2.84890472167,
			"0.011": 2.57803074865,
			"0.012": 3.86119622202,
			"0.013": 6.41236542447,
			"0.014": 6.40772624082,
			"0.015": 1.58354179767,
			"0.016": 0.0,
			"0.017": 0.0,
			"0.018": 0.0,
			"0.019": 0.0,
			"0.02": 0.0,
			"0.021": 0.0,
			"0.022": 0.0,
			"0.023": 0.0,
			"0.024": 0.0,
			"0.025": 0.0
		}
	}
}
