{
	 "smiles": "CC1(C)C2CCC1(C)C(CC2)=NNC1=C(C=C(C=C1)[N+]([O-])=O)[N+]([O-])=O", 
	 "Tm": 505.15, 
	 "num_atms": 47, 
	 "gaussian": { 
		 "optdone": 1, 
		 "sigma_profile": "yes", 
		 "theory": "DFT", 
		 "functional": "B3LYP", 
		 "basiset": "6-31G**", 
		 "properties": { 
			 "R2extent": 13243.3928, 
			 "electric_dipole_moment_norm": 8.73526515968, 
			 "electric_quadrupole_moment_norm": 39.1833929152, 
			 "total_energy": -1180.76250292, 
			 "HOMO_LUMO_gap": 0.12983, 
			 "cosmo_polarized_energy": -13.84, 
			 "cosmo_cavitation_energy": 46.93, 
			 "cosmo_dispersion_energy": -32.86, 
			 "cosmo_repulsion_energy": 2.41, 
			 "cosmo_total_nonelectrostatic_energy": 16.48, 
			 "SMD_solvation_energy": 11.01 
		},
		"coords": [
			{
				"x": -0.6437911918,
				"y": -2.5132186827,
				"z": 1.3115417326,
				"element": "C" 
			},
			{
				"x": -0.313788686,
				"y": -3.0274519988,
				"z": -0.1007857841,
				"element": "C" 
			},
			{
				"x": -1.0189924238,
				"y": -4.3907118296,
				"z": -0.2673423693,
				"element": "C" 
			},
			{
				"x": 1.2090908484,
				"y": -3.1828817043,
				"z": -0.3918888333,
				"element": "C" 
			},
			{
				"x": 1.2687956953,
				"y": -3.3874197315,
				"z": -1.9270536515,
				"element": "C" 
			},
			{
				"x": 0.043602539,
				"y": -2.6119517794,
				"z": -2.4878589279,
				"element": "C" 
			},
			{
				"x": -0.7044779597,
				"y": -2.0119335602,
				"z": -1.2481604359,
				"element": "C" 
			},
			{
				"x": -2.2084375056,
				"y": -1.8725599654,
				"z": -1.5000272458,
				"element": "C" 
			},
			{
				"x": -0.0551257895,
				"y": -0.6635157317,
				"z": -0.9260512515,
				"element": "C" 
			},
			{
				"x": 1.449767543,
				"y": -0.6543887845,
				"z": -0.7118594823,
				"element": "C" 
			},
			{
				"x": 1.9778310984,
				"y": -1.9160966762,
				"z": 0.0116847257,
				"element": "C" 
			},
			{
				"x": -0.8169025093,
				"y": 0.3756196724,
				"z": -0.9208381451,
				"element": "N" 
			},
			{
				"x": -0.2453339553,
				"y": 1.6029446417,
				"z": -0.7105642715,
				"element": "N" 
			},
			{
				"x": -1.0189904293,
				"y": 2.7153214275,
				"z": -0.6321120089,
				"element": "C" 
			},
			{
				"x": -0.4636021144,
				"y": 4.0228528366,
				"z": -0.4531821325,
				"element": "C" 
			},
			{
				"x": -1.2831701911,
				"y": 5.1503436033,
				"z": -0.3681191859,
				"element": "C" 
			},
			{
				"x": -2.6531858809,
				"y": 5.0032339749,
				"z": -0.4583322698,
				"element": "C" 
			},
			{
				"x": -3.2359468112,
				"y": 3.7354559639,
				"z": -0.6343962409,
				"element": "C" 
			},
			{
				"x": -2.4360752145,
				"y": 2.6199247801,
				"z": -0.7173656002,
				"element": "C" 
			},
			{
				"x": -3.5062768066,
				"y": 6.1838527214,
				"z": -0.3691190907,
				"element": "N" 
			},
			{
				"x": -4.7243770373,
				"y": 6.0103185982,
				"z": -0.4526760648,
				"element": "O" 
			},
			{
				"x": -2.9618032685,
				"y": 7.2781719785,
				"z": -0.2164645582,
				"element": "O" 
			},
			{
				"x": 0.9657165833,
				"y": 4.2557307091,
				"z": -0.3523516496,
				"element": "N" 
			},
			{
				"x": 1.3661686744,
				"y": 5.4046556613,
				"z": -0.1868657845,
				"element": "O" 
			},
			{
				"x": 1.7392334773,
				"y": 3.2788399513,
				"z": -0.4378137782,
				"element": "O" 
			},
			{
				"x": -0.2467580764,
				"y": -1.5161538968,
				"z": 1.5165564949,
				"element": "H" 
			},
			{
				"x": -0.2450174631,
				"y": -3.1946031623,
				"z": 2.0717491406,
				"element": "H" 
			},
			{
				"x": -1.7278613212,
				"y": -2.4625466322,
				"z": 1.4571332033,
				"element": "H" 
			},
			{
				"x": -2.0904074188,
				"y": -4.3138009094,
				"z": -0.0607683303,
				"element": "H" 
			},
			{
				"x": -0.9038529505,
				"y": -4.8177787908,
				"z": -1.2668524639,
				"element": "H" 
			},
			{
				"x": -0.6007289159,
				"y": -5.1090264677,
				"z": 0.4467536487,
				"element": "H" 
			},
			{
				"x": 1.6284180909,
				"y": -4.0394935543,
				"z": 0.1495024549,
				"element": "H" 
			},
			{
				"x": 2.2161512979,
				"y": -3.0280673014,
				"z": -2.3423751328,
				"element": "H" 
			},
			{
				"x": 1.2048244631,
				"y": -4.4491333938,
				"z": -2.1813834897,
				"element": "H" 
			},
			{
				"x": 0.3264030716,
				"y": -1.830603075,
				"z": -3.2005534641,
				"element": "H" 
			},
			{
				"x": -0.6348907901,
				"y": -3.2823738035,
				"z": -3.0235960113,
				"element": "H" 
			},
			{
				"x": -2.7354163231,
				"y": -1.4963318117,
				"z": -0.6189058372,
				"element": "H" 
			},
			{
				"x": -2.6391381234,
				"y": -2.8384916501,
				"z": -1.7757447359,
				"element": "H" 
			},
			{
				"x": -2.4014353271,
				"y": -1.1712140307,
				"z": -2.3158773865,
				"element": "H" 
			},
			{
				"x": 1.9229050105,
				"y": -0.5758616491,
				"z": -1.7007735474,
				"element": "H" 
			},
			{
				"x": 1.7703803981,
				"y": 0.2314852371,
				"z": -0.1548852157,
				"element": "H" 
			},
			{
				"x": 1.9139382519,
				"y": -1.7703538753,
				"z": 1.0944815415,
				"element": "H" 
			},
			{
				"x": 3.0421443316,
				"y": -2.036733333,
				"z": -0.2191067989,
				"element": "H" 
			},
			{
				"x": 0.759498754,
				"y": 1.7579847194,
				"z": -0.6744456836,
				"element": "H" 
			},
			{
				"x": -0.8391343329,
				"y": 6.1268310766,
				"z": -0.2328047624,
				"element": "H" 
			},
			{
				"x": -4.3141528328,
				"y": 3.6580306992,
				"z": -0.7015559514,
				"element": "H" 
			},
			{
				"x": -2.8614984784,
				"y": 1.6350995292,
				"z": -0.8520453689,
				"element": "H" 
			}
		],
		 "valence_orbital": [ 
			{
				"type": "occ",
				"energy": -0.30094,
				"method": "rhf"
			},
			{
				"type": "occ",
				"energy": -0.29328,
				"method": "rhf"
			},
			{
				"type": "occ",
				"energy": -0.28717,
				"method": "rhf"
			},
			{
				"type": "occ",
				"energy": -0.28191,
				"method": "rhf"
			},
			{
				"type": "occ",
				"energy": -0.23007,
				"method": "rhf"
			},
			{
				"type": "unocc",
				"energy": -0.10024,
				"method": "rhf"
			},
			{
				"type": "unocc",
				"energy": -0.08571,
				"method": "rhf"
			},
			{
				"type": "unocc",
				"energy": -0.02776,
				"method": "rhf"
			},
			{
				"type": "unocc",
				"energy": -0.00542,
				"method": "rhf"
			},
			{
				"type": "unocc",
				"energy": 0.02018,
				"method": "rhf"
			}
		],
		"cosmo_sigma_profile": { 
			"-0.025": 0.0,
			"-0.024": 0.0,
			"-0.023": 0.0,
			"-0.022": 0.0,
			"-0.021": 0.0,
			"-0.02": 0.0,
			"-0.019": 0.0,
			"-0.018": 0.0,
			"-0.017": 0.0,
			"-0.016": 0.0,
			"-0.015": 0.0,
			"-0.014": 0.0,
			"-0.013": 0.0,
			"-0.012": 0.0,
			"-0.011": 0.0,
			"-0.01": 0.0,
			"-0.009": 0.223278976393,
			"-0.008": 1.78886558684,
			"-0.007": 4.46634643813,
			"-0.006": 9.78781527767,
			"-0.005": 16.9292468029,
			"-0.004": 20.2845534162,
			"-0.003": 40.0039744321,
			"-0.002": 57.7188975386,
			"-0.001": 50.9056858713,
			"0.0": 40.0342478325,
			"0.001": 37.020372669,
			"0.002": 15.8679149031,
			"0.003": 7.61380885479,
			"0.004": 8.55798590548,
			"0.005": 7.84886831496,
			"0.006": 7.86814330112,
			"0.007": 12.1350663775,
			"0.008": 13.2389048956,
			"0.009": 9.41469308872,
			"0.01": 6.20334975741,
			"0.011": 0.749921050739,
			"0.012": 0.0,
			"0.013": 0.0,
			"0.014": 0.0,
			"0.015": 0.0,
			"0.016": 0.0,
			"0.017": 0.0,
			"0.018": 0.0,
			"0.019": 0.0,
			"0.02": 0.0,
			"0.021": 0.0,
			"0.022": 0.0,
			"0.023": 0.0,
			"0.024": 0.0,
			"0.025": 0.0
		}
	}
}
