{
	 "smiles": "CCOC(=O)C1=C(CCCO)C=NC2=NC(=NN12)C(=O)OC", 
	 "Tm": 360.15, 
	 "num_atms": 38, 
	 "gaussian": { 
		 "optdone": 1, 
		 "sigma_profile": "yes", 
		 "theory": "DFT", 
		 "functional": "B3LYP", 
		 "basiset": "6-31G**", 
		 "properties": { 
			 "R2extent": 9328.3896, 
			 "electric_dipole_moment_norm": 7.74965838537, 
			 "electric_quadrupole_moment_norm": 27.4869769214, 
			 "total_energy": -1100.13061292, 
			 "HOMO_LUMO_gap": 0.17375, 
			 "cosmo_polarized_energy": -25.12, 
			 "cosmo_cavitation_energy": 44.13, 
			 "cosmo_dispersion_energy": -29.82, 
			 "cosmo_repulsion_energy": 2.36, 
			 "cosmo_total_nonelectrostatic_energy": 16.67, 
			 "SMD_solvation_energy": 5.81 
		},
		"coords": [
			{
				"x": 1.3364891498,
				"y": -0.0158042964,
				"z": -3.1651326814,
				"element": "C" 
			},
			{
				"x": 1.9046077552,
				"y": -0.7702660586,
				"z": -1.9800919925,
				"element": "C" 
			},
			{
				"x": 1.0851393705,
				"y": -0.4387647407,
				"z": -0.8265291657,
				"element": "O" 
			},
			{
				"x": 1.4924616483,
				"y": -0.924433644,
				"z": 0.3464242115,
				"element": "C" 
			},
			{
				"x": 2.4205049813,
				"y": -1.6879509195,
				"z": 0.5089576667,
				"element": "O" 
			},
			{
				"x": 0.6194742206,
				"y": -0.4365716116,
				"z": 1.4741472571,
				"element": "C" 
			},
			{
				"x": 0.0054249873,
				"y": -1.2609214467,
				"z": 2.3960757378,
				"element": "C" 
			},
			{
				"x": 0.1076329241,
				"y": -2.7675599829,
				"z": 2.3586063031,
				"element": "C" 
			},
			{
				"x": -0.9451376745,
				"y": -3.4181714256,
				"z": 1.4373521171,
				"element": "C" 
			},
			{
				"x": -0.9047879286,
				"y": -4.9409089158,
				"z": 1.4977644818,
				"element": "C" 
			},
			{
				"x": -1.212316308,
				"y": -5.3317510465,
				"z": 2.8307840552,
				"element": "O" 
			},
			{
				"x": -0.8077627957,
				"y": -0.634581642,
				"z": 3.3938378423,
				"element": "C" 
			},
			{
				"x": -1.0065587273,
				"y": 0.6595621143,
				"z": 3.5258341895,
				"element": "N" 
			},
			{
				"x": -0.376529124,
				"y": 1.4500031288,
				"z": 2.640012183,
				"element": "C" 
			},
			{
				"x": -0.3554406089,
				"y": 2.7755305121,
				"z": 2.5489150502,
				"element": "N" 
			},
			{
				"x": 0.4573964064,
				"y": 2.9930756336,
				"z": 1.492988231,
				"element": "C" 
			},
			{
				"x": 0.9672086513,
				"y": 1.9075533335,
				"z": 0.8874790172,
				"element": "N" 
			},
			{
				"x": 0.4257999208,
				"y": 0.9133405202,
				"z": 1.6183631744,
				"element": "N" 
			},
			{
				"x": 0.7741567236,
				"y": 4.3774149705,
				"z": 1.0287913545,
				"element": "C" 
			},
			{
				"x": 0.3360409965,
				"y": 5.3793829605,
				"z": 1.5458951827,
				"element": "O" 
			},
			{
				"x": 1.6048376662,
				"y": 4.3643626793,
				"z": -0.0319554179,
				"element": "O" 
			},
			{
				"x": 1.9601983908,
				"y": 5.6629988098,
				"z": -0.5324060672,
				"element": "C" 
			},
			{
				"x": 1.3583927695,
				"y": 1.0615612773,
				"z": -2.9819518608,
				"element": "H" 
			},
			{
				"x": 0.3027295453,
				"y": -0.313580608,
				"z": -3.3618962196,
				"element": "H" 
			},
			{
				"x": 1.9326395202,
				"y": -0.2305014167,
				"z": -4.0573727842,
				"element": "H" 
			},
			{
				"x": 2.9368633998,
				"y": -0.4838797726,
				"z": -1.7604755911,
				"element": "H" 
			},
			{
				"x": 1.8798149122,
				"y": -1.8551549247,
				"z": -2.122980797,
				"element": "H" 
			},
			{
				"x": 1.1098700922,
				"y": -3.0620364985,
				"z": 2.0374870852,
				"element": "H" 
			},
			{
				"x": -0.0370681367,
				"y": -3.1569590645,
				"z": 3.3704002933,
				"element": "H" 
			},
			{
				"x": -0.7874387428,
				"y": -3.1002823956,
				"z": 0.3991816781,
				"element": "H" 
			},
			{
				"x": -1.9491258911,
				"y": -3.0833124076,
				"z": 1.7246706777,
				"element": "H" 
			},
			{
				"x": -1.6331052303,
				"y": -5.3540340271,
				"z": 0.7821564759,
				"element": "H" 
			},
			{
				"x": 0.0937846884,
				"y": -5.2978740794,
				"z": 1.1966554083,
				"element": "H" 
			},
			{
				"x": -1.1167187875,
				"y": -6.2893450265,
				"z": 2.8985871064,
				"element": "H" 
			},
			{
				"x": -1.3101371485,
				"y": -1.2757360863,
				"z": 4.1171033894,
				"element": "H" 
			},
			{
				"x": 2.6297077212,
				"y": 5.4796023495,
				"z": -1.3724615281,
				"element": "H" 
			},
			{
				"x": 2.4640405256,
				"y": 6.2489096589,
				"z": 0.2405258266,
				"element": "H" 
			},
			{
				"x": 1.0702101369,
				"y": 6.2061840896,
				"z": -0.8604418905,
				"element": "H" 
			}
		],
		 "valence_orbital": [ 
			{
				"type": "occ",
				"energy": -0.28187,
				"method": "rhf"
			},
			{
				"type": "occ",
				"energy": -0.28009,
				"method": "rhf"
			},
			{
				"type": "occ",
				"energy": -0.27484,
				"method": "rhf"
			},
			{
				"type": "occ",
				"energy": -0.27133,
				"method": "rhf"
			},
			{
				"type": "occ",
				"energy": -0.25921,
				"method": "rhf"
			},
			{
				"type": "unocc",
				"energy": -0.08546,
				"method": "rhf"
			},
			{
				"type": "unocc",
				"energy": -0.04171,
				"method": "rhf"
			},
			{
				"type": "unocc",
				"energy": -0.0204,
				"method": "rhf"
			},
			{
				"type": "unocc",
				"energy": 0.01008,
				"method": "rhf"
			},
			{
				"type": "unocc",
				"energy": 0.06278,
				"method": "rhf"
			}
		],
		"cosmo_sigma_profile": { 
			"-0.025": 0.0,
			"-0.024": 0.0,
			"-0.023": 0.0,
			"-0.022": 0.0,
			"-0.021": 0.0,
			"-0.02": 0.0,
			"-0.019": 0.0,
			"-0.018": 0.0,
			"-0.017": 0.0,
			"-0.016": 0.360317425941,
			"-0.015": 1.3136638791,
			"-0.014": 0.57630910804,
			"-0.013": 0.948161086311,
			"-0.012": 0.895971033118,
			"-0.011": 1.26997108894,
			"-0.01": 1.0876280199,
			"-0.009": 0.756211904126,
			"-0.008": 3.4891774104,
			"-0.007": 10.0387846941,
			"-0.006": 20.0783203321,
			"-0.005": 28.8046816411,
			"-0.004": 44.0269355572,
			"-0.003": 41.7352897038,
			"-0.002": 31.8259622047,
			"-0.001": 24.7882047529,
			"0.0": 17.4772948537,
			"0.001": 11.8969025713,
			"0.002": 8.80235090143,
			"0.003": 8.50402248019,
			"0.004": 8.71829823766,
			"0.005": 8.42365773246,
			"0.006": 8.22996262253,
			"0.007": 8.85631905347,
			"0.008": 8.58471748324,
			"0.009": 9.29959056324,
			"0.01": 12.1435107562,
			"0.011": 11.1251834295,
			"0.012": 6.93092894179,
			"0.013": 4.05292340238,
			"0.014": 3.23666533243,
			"0.015": 1.32245381578,
			"0.016": 0.0706259219349,
			"0.017": 0.0,
			"0.018": 0.0,
			"0.019": 0.0,
			"0.02": 0.0,
			"0.021": 0.0,
			"0.022": 0.0,
			"0.023": 0.0,
			"0.024": 0.0,
			"0.025": 0.0
		}
	}
}
