{
	 "smiles": "OC(=O)C1=C(NCC2=CN=CC=C2)C=CC=C1", 
	 "Tm": 463.15, 
	 "num_atms": 29, 
	 "gaussian": { 
		 "optdone": 1, 
		 "sigma_profile": "yes", 
		 "theory": "DFT", 
		 "functional": "B3LYP", 
		 "basiset": "6-31G**", 
		 "properties": { 
			 "R2extent": 5246.1916, 
			 "electric_dipole_moment_norm": 4.68808442117, 
			 "electric_quadrupole_moment_norm": 18.9411769236, 
			 "total_energy": -762.575150446, 
			 "HOMO_LUMO_gap": 0.16067, 
			 "cosmo_polarized_energy": -17.48, 
			 "cosmo_cavitation_energy": 32.98, 
			 "cosmo_dispersion_energy": -23.74, 
			 "cosmo_repulsion_energy": 1.83, 
			 "cosmo_total_nonelectrostatic_energy": 11.07, 
			 "SMD_solvation_energy": 4.68 
		},
		"coords": [
			{
				"x": -3.9507093707,
				"y": 2.0509422541,
				"z": -2.5791701355,
				"element": "O" 
			},
			{
				"x": -2.9942576945,
				"y": 1.941661052,
				"z": -1.6213192007,
				"element": "C" 
			},
			{
				"x": -2.7424651864,
				"y": 2.934478167,
				"z": -0.9540897258,
				"element": "O" 
			},
			{
				"x": -2.3200047455,
				"y": 0.6309781585,
				"z": -1.4650187887,
				"element": "C" 
			},
			{
				"x": -1.1086607281,
				"y": 0.5325222926,
				"z": -0.7043691634,
				"element": "C" 
			},
			{
				"x": -0.5832098115,
				"y": 1.628596071,
				"z": -0.0817142834,
				"element": "N" 
			},
			{
				"x": 0.6961221445,
				"y": 1.6678869507,
				"z": 0.591236801,
				"element": "C" 
			},
			{
				"x": 0.7418620832,
				"y": 1.0263192485,
				"z": 1.9735784971,
				"element": "C" 
			},
			{
				"x": -0.3941793948,
				"y": 0.9340340529,
				"z": 2.7867440667,
				"element": "C" 
			},
			{
				"x": -0.3937888947,
				"y": 0.4210665247,
				"z": 4.0231636913,
				"element": "N" 
			},
			{
				"x": 0.7710788413,
				"y": -0.0289675784,
				"z": 4.5042010754,
				"element": "C" 
			},
			{
				"x": 1.965170316,
				"y": 0.0084901161,
				"z": 3.7824962496,
				"element": "C" 
			},
			{
				"x": 1.9452571341,
				"y": 0.543935525,
				"z": 2.4965426155,
				"element": "C" 
			},
			{
				"x": -0.4714624184,
				"y": -0.7305201425,
				"z": -0.6329670311,
				"element": "C" 
			},
			{
				"x": -1.0169126328,
				"y": -1.8460910442,
				"z": -1.2475072372,
				"element": "C" 
			},
			{
				"x": -2.22410916,
				"y": -1.7653861119,
				"z": -1.9536407799,
				"element": "C" 
			},
			{
				"x": -2.8537381419,
				"y": -0.5340248317,
				"z": -2.047818977,
				"element": "C" 
			},
			{
				"x": -3.937875661,
				"y": 1.2746379029,
				"z": -3.1546037311,
				"element": "H" 
			},
			{
				"x": -1.1522573608,
				"y": 2.4672166348,
				"z": -0.1431255559,
				"element": "H" 
			},
			{
				"x": 0.9673065751,
				"y": 2.7262142014,
				"z": 0.6839388059,
				"element": "H" 
			},
			{
				"x": 1.4729936621,
				"y": 1.213047159,
				"z": -0.0394913514,
				"element": "H" 
			},
			{
				"x": -1.3528754494,
				"y": 1.2867578854,
				"z": 2.4120593617,
				"element": "H" 
			},
			{
				"x": 0.7485367545,
				"y": -0.440794077,
				"z": 5.5117395967,
				"element": "H" 
			},
			{
				"x": 2.8828224975,
				"y": -0.3767002331,
				"z": 4.216378815,
				"element": "H" 
			},
			{
				"x": 2.8561364312,
				"y": 0.5856666141,
				"z": 1.9024694017,
				"element": "H" 
			},
			{
				"x": 0.4412490346,
				"y": -0.8326033003,
				"z": -0.0585687337,
				"element": "H" 
			},
			{
				"x": -0.5041991978,
				"y": -2.7999843433,
				"z": -1.1593098461,
				"element": "H" 
			},
			{
				"x": -2.6650729598,
				"y": -2.6469791633,
				"z": -2.4057950566,
				"element": "H" 
			},
			{
				"x": -3.8132566659,
				"y": -0.4874999849,
				"z": -2.5583393805,
				"element": "H" 
			}
		],
		 "valence_orbital": [ 
			{
				"type": "occ",
				"energy": -0.27606,
				"method": "rhf"
			},
			{
				"type": "occ",
				"energy": -0.26594,
				"method": "rhf"
			},
			{
				"type": "occ",
				"energy": -0.25726,
				"method": "rhf"
			},
			{
				"type": "occ",
				"energy": -0.25222,
				"method": "rhf"
			},
			{
				"type": "occ",
				"energy": -0.20891,
				"method": "rhf"
			},
			{
				"type": "unocc",
				"energy": -0.04824,
				"method": "rhf"
			},
			{
				"type": "unocc",
				"energy": -0.02646,
				"method": "rhf"
			},
			{
				"type": "unocc",
				"energy": -0.01343,
				"method": "rhf"
			},
			{
				"type": "unocc",
				"energy": 0.00117,
				"method": "rhf"
			},
			{
				"type": "unocc",
				"energy": 0.05083,
				"method": "rhf"
			}
		],
		"cosmo_sigma_profile": { 
			"-0.025": 0.0,
			"-0.024": 0.0,
			"-0.023": 0.0,
			"-0.022": 0.0,
			"-0.021": 0.0,
			"-0.02": 0.0,
			"-0.019": 0.164381092723,
			"-0.018": 0.693601075922,
			"-0.017": 0.796341902613,
			"-0.016": 1.06578737716,
			"-0.015": 0.573879552935,
			"-0.014": 1.01865572403,
			"-0.013": 1.00680863945,
			"-0.012": 0.96879535709,
			"-0.011": 1.34804855424,
			"-0.01": 1.11206931141,
			"-0.009": 1.83858312042,
			"-0.008": 2.0341341442,
			"-0.007": 8.86749464173,
			"-0.006": 17.8403883694,
			"-0.005": 21.8807068089,
			"-0.004": 20.6959984547,
			"-0.003": 16.1849153573,
			"-0.002": 15.6317876996,
			"-0.001": 13.9525453446,
			"0.0": 14.8776949799,
			"0.001": 16.5315123014,
			"0.002": 21.3736476691,
			"0.003": 21.4804660973,
			"0.004": 13.305252801,
			"0.005": 12.8027521172,
			"0.006": 4.70391196707,
			"0.007": 2.23094784377,
			"0.008": 4.19265570067,
			"0.009": 4.52998068584,
			"0.01": 4.69158565541,
			"0.011": 5.64857213104,
			"0.012": 3.71310426014,
			"0.013": 2.79583447128,
			"0.014": 1.5004843962,
			"0.015": 0.692296968541,
			"0.016": 0.799544875262,
			"0.017": 0.614327065387,
			"0.018": 0.0,
			"0.019": 0.0,
			"0.02": 0.0,
			"0.021": 0.0,
			"0.022": 0.0,
			"0.023": 0.0,
			"0.024": 0.0,
			"0.025": 0.0
		}
	}
}
