{
	 "smiles": "NC(=S)C1=CC(=CC=C1)C(O)=O", 
	 "Tm": 514.15, 
	 "num_atms": 19, 
	 "gaussian": { 
		 "optdone": 1, 
		 "sigma_profile": "yes", 
		 "theory": "DFT", 
		 "functional": "B3LYP", 
		 "basiset": "6-31G**", 
		 "properties": { 
			 "R2extent": 3362.4947, 
			 "electric_dipole_moment_norm": 6.63736947066, 
			 "electric_quadrupole_moment_norm": 14.2007989138, 
			 "total_energy": -912.473372056, 
			 "HOMO_LUMO_gap": 0.14348, 
			 "cosmo_polarized_energy": -23.35, 
			 "cosmo_cavitation_energy": 25.55, 
			 "cosmo_dispersion_energy": -19.26, 
			 "cosmo_repulsion_energy": 1.49, 
			 "cosmo_total_nonelectrostatic_energy": 7.79, 
			 "SMD_solvation_energy": 4.72 
		},
		"coords": [
			{
				"x": -0.4466430352,
				"y": 1.6839436277,
				"z": 2.8992910553,
				"element": "N" 
			},
			{
				"x": 0.5980018439,
				"y": 1.5609178697,
				"z": 2.0499163663,
				"element": "C" 
			},
			{
				"x": 1.8847975906,
				"y": 2.6219167392,
				"z": 2.0882014325,
				"element": "S" 
			},
			{
				"x": 0.4944136583,
				"y": 0.4339724709,
				"z": 1.0771129288,
				"element": "C" 
			},
			{
				"x": 1.6607534778,
				"y": -0.1525423179,
				"z": 0.5648480951,
				"element": "C" 
			},
			{
				"x": 1.5937366836,
				"y": -1.2162336862,
				"z": -0.336564183,
				"element": "C" 
			},
			{
				"x": 0.3412065806,
				"y": -1.6831626609,
				"z": -0.7638664835,
				"element": "C" 
			},
			{
				"x": -0.8228094659,
				"y": -1.0992927405,
				"z": -0.2757347455,
				"element": "C" 
			},
			{
				"x": -0.7503192168,
				"y": -0.0510901683,
				"z": 0.6434040489,
				"element": "C" 
			},
			{
				"x": 2.8089276489,
				"y": -1.8877607494,
				"z": -0.9150077927,
				"element": "C" 
			},
			{
				"x": 4.0018344883,
				"y": -1.6381731293,
				"z": -0.3224111705,
				"element": "O" 
			},
			{
				"x": 2.7506549914,
				"y": -2.6293986764,
				"z": -1.8679475365,
				"element": "O" 
			},
			{
				"x": -1.1164354603,
				"y": 0.9393861632,
				"z": 3.0240043008,
				"element": "H" 
			},
			{
				"x": -0.4118082548,
				"y": 2.4187572573,
				"z": 3.5909335105,
				"element": "H" 
			},
			{
				"x": 2.6039051677,
				"y": 0.2862368621,
				"z": 0.8791351726,
				"element": "H" 
			},
			{
				"x": 0.3119666145,
				"y": -2.4948833632,
				"z": -1.482284057,
				"element": "H" 
			},
			{
				"x": -1.7916524462,
				"y": -1.4506829966,
				"z": -0.6169360881,
				"element": "H" 
			},
			{
				"x": -1.6673752153,
				"y": 0.4200689325,
				"z": 0.9843035153,
				"element": "H" 
			},
			{
				"x": 3.887144349,
				"y": -1.115179434,
				"z": 0.4828016305,
				"element": "H" 
			}
		],
		 "valence_orbital": [ 
			{
				"type": "occ",
				"energy": -0.28624,
				"method": "rhf"
			},
			{
				"type": "occ",
				"energy": -0.28496,
				"method": "rhf"
			},
			{
				"type": "occ",
				"energy": -0.27639,
				"method": "rhf"
			},
			{
				"type": "occ",
				"energy": -0.24478,
				"method": "rhf"
			},
			{
				"type": "occ",
				"energy": -0.22326,
				"method": "rhf"
			},
			{
				"type": "unocc",
				"energy": -0.07978,
				"method": "rhf"
			},
			{
				"type": "unocc",
				"energy": -0.05804,
				"method": "rhf"
			},
			{
				"type": "unocc",
				"energy": -0.00516,
				"method": "rhf"
			},
			{
				"type": "unocc",
				"energy": 0.04688,
				"method": "rhf"
			},
			{
				"type": "unocc",
				"energy": 0.05266,
				"method": "rhf"
			}
		],
		"cosmo_sigma_profile": { 
			"-0.025": 0.0,
			"-0.024": 0.0,
			"-0.023": 0.0,
			"-0.022": 0.0,
			"-0.021": 0.0,
			"-0.02": 0.0,
			"-0.019": 0.413870921907,
			"-0.018": 1.04108732328,
			"-0.017": 0.774645621107,
			"-0.016": 2.07587240793,
			"-0.015": 3.18900559725,
			"-0.014": 3.17575730612,
			"-0.013": 3.60046326531,
			"-0.012": 3.86932922479,
			"-0.011": 3.16229467077,
			"-0.01": 2.8662021184,
			"-0.009": 3.57326446835,
			"-0.008": 3.89803100925,
			"-0.007": 7.10602135261,
			"-0.006": 8.41805401969,
			"-0.005": 7.67990899664,
			"-0.004": 8.64618637915,
			"-0.003": 8.11562734129,
			"-0.002": 9.86847521415,
			"-0.001": 10.4376246,
			"0.0": 12.0255075538,
			"0.001": 15.6290548412,
			"0.002": 13.895940408,
			"0.003": 7.41295380587,
			"0.004": 5.9088199775,
			"0.005": 6.84476013094,
			"0.006": 5.97806248902,
			"0.007": 7.83651348787,
			"0.008": 8.9069754189,
			"0.009": 9.35321724148,
			"0.01": 8.59102300675,
			"0.011": 7.63919638174,
			"0.012": 4.36220152934,
			"0.013": 1.25621155614,
			"0.014": 0.0164830614822,
			"0.015": 0.0,
			"0.016": 0.0,
			"0.017": 0.0,
			"0.018": 0.0,
			"0.019": 0.0,
			"0.02": 0.0,
			"0.021": 0.0,
			"0.022": 0.0,
			"0.023": 0.0,
			"0.024": 0.0,
			"0.025": 0.0
		}
	}
}
