{
	 "smiles": "OCC1=C(Cl)C=NC=C1", 
	 "Tm": 392.15, 
	 "num_atms": 15, 
	 "gaussian": { 
		 "optdone": 1, 
		 "sigma_profile": "yes", 
		 "theory": "DFT", 
		 "functional": "B3LYP", 
		 "basiset": "6-31G**", 
		 "properties": { 
			 "R2extent": 1645.9281, 
			 "electric_dipole_moment_norm": 1.34472026087, 
			 "electric_quadrupole_moment_norm": 8.98609887882, 
			 "total_energy": -822.402253225, 
			 "HOMO_LUMO_gap": 0.22247, 
			 "cosmo_polarized_energy": -8.56, 
			 "cosmo_cavitation_energy": 20.54, 
			 "cosmo_dispersion_energy": -15.55, 
			 "cosmo_repulsion_energy": 1.27, 
			 "cosmo_total_nonelectrostatic_energy": 6.26, 
			 "SMD_solvation_energy": 1.89 
		},
		"coords": [
			{
				"x": -1.4482197705,
				"y": 0.0339642683,
				"z": -1.3292387305,
				"element": "O" 
			},
			{
				"x": -0.0865586589,
				"y": -0.2363968629,
				"z": -1.0389941849,
				"element": "C" 
			},
			{
				"x": 0.2924508525,
				"y": 0.0716950565,
				"z": 0.3982789187,
				"element": "C" 
			},
			{
				"x": 0.3608143813,
				"y": 1.3757226583,
				"z": 0.901369376,
				"element": "C" 
			},
			{
				"x": 0.0058394514,
				"y": 2.7587130111,
				"z": -0.1352172407,
				"element": "Cl" 
			},
			{
				"x": 0.7102838683,
				"y": 1.6127028596,
				"z": 2.2309120595,
				"element": "C" 
			},
			{
				"x": 0.9959676542,
				"y": 0.6277685224,
				"z": 3.086563835,
				"element": "N" 
			},
			{
				"x": 0.9344183202,
				"y": -0.6264263659,
				"z": 2.6241549317,
				"element": "C" 
			},
			{
				"x": 0.5922183133,
				"y": -0.9451358877,
				"z": 1.3105960051,
				"element": "C" 
			},
			{
				"x": -1.56227279,
				"y": 0.99404503,
				"z": -1.3328088384,
				"element": "H" 
			},
			{
				"x": 0.0573532519,
				"y": -1.3045406614,
				"z": -1.222752784,
				"element": "H" 
			},
			{
				"x": 0.587988892,
				"y": 0.3095169518,
				"z": -1.7151589335,
				"element": "H" 
			},
			{
				"x": 0.7610523355,
				"y": 2.63179257,
				"z": 2.6070095258,
				"element": "H" 
			},
			{
				"x": 1.1684366523,
				"y": -1.4138895095,
				"z": 3.3375136125,
				"element": "H" 
			},
			{
				"x": 0.5555272465,
				"y": -1.9831316406,
				"z": 0.9922724478,
				"element": "H" 
			}
		],
		 "valence_orbital": [ 
			{
				"type": "occ",
				"energy": -0.33504,
				"method": "rhf"
			},
			{
				"type": "occ",
				"energy": -0.29481,
				"method": "rhf"
			},
			{
				"type": "occ",
				"energy": -0.28491,
				"method": "rhf"
			},
			{
				"type": "occ",
				"energy": -0.26725,
				"method": "rhf"
			},
			{
				"type": "occ",
				"energy": -0.26577,
				"method": "rhf"
			},
			{
				"type": "unocc",
				"energy": -0.0433,
				"method": "rhf"
			},
			{
				"type": "unocc",
				"energy": -0.02828,
				"method": "rhf"
			},
			{
				"type": "unocc",
				"energy": 0.01522,
				"method": "rhf"
			},
			{
				"type": "unocc",
				"energy": 0.08591,
				"method": "rhf"
			},
			{
				"type": "unocc",
				"energy": 0.10136,
				"method": "rhf"
			}
		],
		"cosmo_sigma_profile": { 
			"-0.025": 0.0,
			"-0.024": 0.0,
			"-0.023": 0.0,
			"-0.022": 0.0,
			"-0.021": 0.0,
			"-0.02": 0.0,
			"-0.019": 0.0,
			"-0.018": 0.0,
			"-0.017": 0.0,
			"-0.016": 0.0,
			"-0.015": 0.0,
			"-0.014": 0.0,
			"-0.013": 0.175876759615,
			"-0.012": 0.585916715292,
			"-0.011": 0.883558213408,
			"-0.01": 0.695942321255,
			"-0.009": 0.61298345479,
			"-0.008": 3.10472621947,
			"-0.007": 10.0062630972,
			"-0.006": 9.39874198612,
			"-0.005": 10.9959231589,
			"-0.004": 10.8109593784,
			"-0.003": 11.8644522578,
			"-0.002": 9.9364143743,
			"-0.001": 11.6773406264,
			"0.0": 15.6564366818,
			"0.001": 15.502009192,
			"0.002": 12.1852160894,
			"0.003": 8.90343585,
			"0.004": 7.89269585484,
			"0.005": 2.38286633779,
			"0.006": 2.65787408046,
			"0.007": 2.66856486159,
			"0.008": 1.85392344448,
			"0.009": 2.40081579795,
			"0.01": 2.20696022634,
			"0.011": 2.45790943197,
			"0.012": 2.04414496299,
			"0.013": 3.36643421197,
			"0.014": 2.2155375268,
			"0.015": 0.689410853228,
			"0.016": 0.321144282411,
			"0.017": 0.0,
			"0.018": 0.0,
			"0.019": 0.0,
			"0.02": 0.0,
			"0.021": 0.0,
			"0.022": 0.0,
			"0.023": 0.0,
			"0.024": 0.0,
			"0.025": 0.0
		}
	}
}
