{
	 "smiles": "FC1=C(NC2=NN=C(S)S2)C=CC=C1", 
	 "Tm": 444.15, 
	 "num_atms": 20, 
	 "gaussian": { 
		 "optdone": 1, 
		 "sigma_profile": "yes", 
		 "theory": "DFT", 
		 "functional": "B3LYP", 
		 "basiset": "6-31G**", 
		 "properties": { 
			 "R2extent": 5215.5211, 
			 "electric_dipole_moment_norm": 4.71886112319, 
			 "electric_quadrupole_moment_norm": 9.1939154064, 
			 "total_energy": -1368.88698772, 
			 "HOMO_LUMO_gap": 0.16979, 
			 "cosmo_polarized_energy": -12.9, 
			 "cosmo_cavitation_energy": 28.7, 
			 "cosmo_dispersion_energy": -22.37, 
			 "cosmo_repulsion_energy": 1.63, 
			 "cosmo_total_nonelectrostatic_energy": 7.96, 
			 "SMD_solvation_energy": 2.71 
		},
		"coords": [
			{
				"x": 0.7729127298,
				"y": 0.0891532604,
				"z": -2.4454543447,
				"element": "F" 
			},
			{
				"x": 1.7212662628,
				"y": 0.3435421454,
				"z": -1.5079337791,
				"element": "C" 
			},
			{
				"x": 1.3500862796,
				"y": 0.1790175501,
				"z": -0.1619178917,
				"element": "C" 
			},
			{
				"x": 0.0380672342,
				"y": -0.236780708,
				"z": 0.0730638355,
				"element": "N" 
			},
			{
				"x": -0.592991783,
				"y": -0.6662814834,
				"z": 1.2046745155,
				"element": "C" 
			},
			{
				"x": -1.8951195902,
				"y": -0.8681471917,
				"z": 1.1874521581,
				"element": "N" 
			},
			{
				"x": -2.3667565568,
				"y": -1.388352091,
				"z": 2.3508103563,
				"element": "N" 
			},
			{
				"x": -1.4574545032,
				"y": -1.572130477,
				"z": 3.2580520193,
				"element": "C" 
			},
			{
				"x": -1.820050217,
				"y": -2.098306167,
				"z": 4.9073300326,
				"element": "S" 
			},
			{
				"x": 0.168649541,
				"y": -1.0850448828,
				"z": 2.7320985739,
				"element": "S" 
			},
			{
				"x": 2.3167260301,
				"y": 0.4639208768,
				"z": 0.8119524435,
				"element": "C" 
			},
			{
				"x": 3.5984901486,
				"y": 0.8713329426,
				"z": 0.4329987971,
				"element": "C" 
			},
			{
				"x": 3.9394451622,
				"y": 1.0153502381,
				"z": -0.9105199706,
				"element": "C" 
			},
			{
				"x": 2.9822732907,
				"y": 0.7524930764,
				"z": -1.895705373,
				"element": "C" 
			},
			{
				"x": -0.5721096412,
				"y": -0.2328140115,
				"z": -0.735641914,
				"element": "H" 
			},
			{
				"x": -1.0594814437,
				"y": -3.2144246505,
				"z": 4.89272833,
				"element": "H" 
			},
			{
				"x": 2.072908306,
				"y": 0.3935330461,
				"z": 1.8645919091,
				"element": "H" 
			},
			{
				"x": 4.3303684965,
				"y": 1.0843269659,
				"z": 1.2056233324,
				"element": "H" 
			},
			{
				"x": 4.9364778962,
				"y": 1.3330355326,
				"z": -1.196484641,
				"element": "H" 
			},
			{
				"x": 3.1982923576,
				"y": 0.8563760286,
				"z": -2.9534183892,
				"element": "H" 
			}
		],
		 "valence_orbital": [ 
			{
				"type": "occ",
				"energy": -0.29221,
				"method": "rhf"
			},
			{
				"type": "occ",
				"energy": -0.27094,
				"method": "rhf"
			},
			{
				"type": "occ",
				"energy": -0.26775,
				"method": "rhf"
			},
			{
				"type": "occ",
				"energy": -0.26072,
				"method": "rhf"
			},
			{
				"type": "occ",
				"energy": -0.21866,
				"method": "rhf"
			},
			{
				"type": "unocc",
				"energy": -0.04887,
				"method": "rhf"
			},
			{
				"type": "unocc",
				"energy": -0.02032,
				"method": "rhf"
			},
			{
				"type": "unocc",
				"energy": -0.0142,
				"method": "rhf"
			},
			{
				"type": "unocc",
				"energy": -0.00064,
				"method": "rhf"
			},
			{
				"type": "unocc",
				"energy": 0.01731,
				"method": "rhf"
			}
		],
		"cosmo_sigma_profile": { 
			"-0.025": 0.0,
			"-0.024": 0.0,
			"-0.023": 0.0,
			"-0.022": 0.0,
			"-0.021": 0.0,
			"-0.02": 0.0,
			"-0.019": 0.0,
			"-0.018": 0.0,
			"-0.017": 0.0,
			"-0.016": 0.0,
			"-0.015": 0.0,
			"-0.014": 0.0,
			"-0.013": 0.638830404831,
			"-0.012": 1.9042202797,
			"-0.011": 3.83427080202,
			"-0.01": 2.75454017365,
			"-0.009": 3.22207901019,
			"-0.008": 3.18207404769,
			"-0.007": 6.27783613037,
			"-0.006": 10.9925837383,
			"-0.005": 13.4769130473,
			"-0.004": 11.3950602465,
			"-0.003": 12.4074540643,
			"-0.002": 20.1548866734,
			"-0.001": 20.50241981,
			"0.0": 20.6852625799,
			"0.001": 18.4772089039,
			"0.002": 18.3263209141,
			"0.003": 18.210032937,
			"0.004": 16.411184464,
			"0.005": 5.27347869518,
			"0.006": 4.64557020132,
			"0.007": 4.43134437525,
			"0.008": 2.60809361879,
			"0.009": 3.00804744654,
			"0.01": 2.60768358085,
			"0.011": 3.40498679136,
			"0.012": 3.36743146729,
			"0.013": 2.38461238526,
			"0.014": 1.77807266262,
			"0.015": 0.154045843296,
			"0.016": 0.0,
			"0.017": 0.0,
			"0.018": 0.0,
			"0.019": 0.0,
			"0.02": 0.0,
			"0.021": 0.0,
			"0.022": 0.0,
			"0.023": 0.0,
			"0.024": 0.0,
			"0.025": 0.0
		}
	}
}
