{
	 "smiles": "OC(=O)CC1=CSC(=N1)N1CCCNC1=O", 
	 "Tm": 458.15, 
	 "num_atms": 27, 
	 "gaussian": { 
		 "optdone": 1, 
		 "sigma_profile": "yes", 
		 "theory": "DFT", 
		 "functional": "B3LYP", 
		 "basiset": "6-31G**", 
		 "properties": { 
			 "R2extent": 4995.6337, 
			 "electric_dipole_moment_norm": 3.64004779914, 
			 "electric_quadrupole_moment_norm": 25.0413617851, 
			 "total_energy": -1137.73812423, 
			 "HOMO_LUMO_gap": 0.19962, 
			 "cosmo_polarized_energy": -20.36, 
			 "cosmo_cavitation_energy": 32.37, 
			 "cosmo_dispersion_energy": -24.25, 
			 "cosmo_repulsion_energy": 1.9, 
			 "cosmo_total_nonelectrostatic_energy": 10.02, 
			 "SMD_solvation_energy": 5.13 
		},
		"coords": [
			{
				"x": 1.8649846081,
				"y": 2.3546587236,
				"z": -1.9886308299,
				"element": "O" 
			},
			{
				"x": 0.7596508601,
				"y": 2.8378236395,
				"z": -1.3728917087,
				"element": "C" 
			},
			{
				"x": -0.1662442368,
				"y": 3.3251532456,
				"z": -1.9811984143,
				"element": "O" 
			},
			{
				"x": 0.8551705338,
				"y": 2.7228687203,
				"z": 0.1404435788,
				"element": "C" 
			},
			{
				"x": 1.1604394375,
				"y": 1.3314458108,
				"z": 0.6251400293,
				"element": "C" 
			},
			{
				"x": 2.2454140865,
				"y": 0.94590383,
				"z": 1.3506327286,
				"element": "C" 
			},
			{
				"x": 2.1824562401,
				"y": -0.7621931464,
				"z": 1.700290465,
				"element": "S" 
			},
			{
				"x": 0.6568431947,
				"y": -0.8168264952,
				"z": 0.821225815,
				"element": "C" 
			},
			{
				"x": 0.2613692604,
				"y": 0.325408491,
				"z": 0.3273213356,
				"element": "N" 
			},
			{
				"x": -0.1067501819,
				"y": -1.9710996507,
				"z": 0.6551064818,
				"element": "N" 
			},
			{
				"x": -1.3419789201,
				"y": -1.8431673302,
				"z": -0.1443687719,
				"element": "C" 
			},
			{
				"x": -2.3343378066,
				"y": -2.9400371112,
				"z": 0.2224733341,
				"element": "C" 
			},
			{
				"x": -1.6681484992,
				"y": -4.30616293,
				"z": 0.1000712874,
				"element": "C" 
			},
			{
				"x": -0.4373874139,
				"y": -4.2889334449,
				"z": 0.8764920662,
				"element": "N" 
			},
			{
				"x": 0.3600122172,
				"y": -3.2025006283,
				"z": 1.1214225936,
				"element": "C" 
			},
			{
				"x": 1.4184097245,
				"y": -3.3052732786,
				"z": 1.737432624,
				"element": "O" 
			},
			{
				"x": 1.7130210146,
				"y": 2.4763715381,
				"z": -2.9407748069,
				"element": "H" 
			},
			{
				"x": 1.639308968,
				"y": 3.4087697636,
				"z": 0.4790632564,
				"element": "H" 
			},
			{
				"x": -0.1011060519,
				"y": 3.0723406214,
				"z": 0.5380738414,
				"element": "H" 
			},
			{
				"x": 3.0761266882,
				"y": 1.5503790376,
				"z": 1.6871133502,
				"element": "H" 
			},
			{
				"x": -1.7494488202,
				"y": -0.8503495621,
				"z": 0.046168093,
				"element": "H" 
			},
			{
				"x": -1.0888370178,
				"y": -1.8860356615,
				"z": -1.2120221196,
				"element": "H" 
			},
			{
				"x": -2.6878165461,
				"y": -2.7940418533,
				"z": 1.2490608815,
				"element": "H" 
			},
			{
				"x": -3.2006336217,
				"y": -2.8793823884,
				"z": -0.4431774024,
				"element": "H" 
			},
			{
				"x": -2.3179423019,
				"y": -5.095886547,
				"z": 0.4908997442,
				"element": "H" 
			},
			{
				"x": -1.4699468747,
				"y": -4.5371447551,
				"z": -0.957847061,
				"element": "H" 
			},
			{
				"x": -0.0179285408,
				"y": -5.1542886385,
				"z": 1.1817796084,
				"element": "H" 
			}
		],
		 "valence_orbital": [ 
			{
				"type": "occ",
				"energy": -0.27183,
				"method": "rhf"
			},
			{
				"type": "occ",
				"energy": -0.26928,
				"method": "rhf"
			},
			{
				"type": "occ",
				"energy": -0.26263,
				"method": "rhf"
			},
			{
				"type": "occ",
				"energy": -0.25804,
				"method": "rhf"
			},
			{
				"type": "occ",
				"energy": -0.2097,
				"method": "rhf"
			},
			{
				"type": "unocc",
				"energy": -0.01008,
				"method": "rhf"
			},
			{
				"type": "unocc",
				"energy": 0.01652,
				"method": "rhf"
			},
			{
				"type": "unocc",
				"energy": 0.04313,
				"method": "rhf"
			},
			{
				"type": "unocc",
				"energy": 0.04499,
				"method": "rhf"
			},
			{
				"type": "unocc",
				"energy": 0.0622,
				"method": "rhf"
			}
		],
		"cosmo_sigma_profile": { 
			"-0.025": 0.0,
			"-0.024": 0.0,
			"-0.023": 0.0,
			"-0.022": 0.0,
			"-0.021": 0.0,
			"-0.02": 0.0,
			"-0.019": 0.063320461277,
			"-0.018": 0.795496649335,
			"-0.017": 0.986001134083,
			"-0.016": 0.594039787172,
			"-0.015": 0.952907030184,
			"-0.014": 1.77206759699,
			"-0.013": 1.79650155456,
			"-0.012": 1.61423593871,
			"-0.011": 1.30587541747,
			"-0.01": 1.72955796945,
			"-0.009": 2.10500029739,
			"-0.008": 4.903158435,
			"-0.007": 7.59876421477,
			"-0.006": 11.6685810732,
			"-0.005": 22.6489013497,
			"-0.004": 24.2675832477,
			"-0.003": 23.5678310186,
			"-0.002": 15.5524157159,
			"-0.001": 11.1312508265,
			"0.0": 11.6240720136,
			"0.001": 12.8229026499,
			"0.002": 11.5028428139,
			"0.003": 13.4229588766,
			"0.004": 11.9611635056,
			"0.005": 10.1410392264,
			"0.006": 7.16635385636,
			"0.007": 6.67641784382,
			"0.008": 6.65890529362,
			"0.009": 6.11954372562,
			"0.01": 6.23419343673,
			"0.011": 6.17186942225,
			"0.012": 6.34938578272,
			"0.013": 3.93991281888,
			"0.014": 2.15756073696,
			"0.015": 0.0,
			"0.016": 0.0,
			"0.017": 0.0,
			"0.018": 0.0,
			"0.019": 0.0,
			"0.02": 0.0,
			"0.021": 0.0,
			"0.022": 0.0,
			"0.023": 0.0,
			"0.024": 0.0,
			"0.025": 0.0
		}
	}
}
