{
	 "smiles": "CN1C(=O)OC2=C1C=CC(N)=C2", 
	 "Tm": 424.15, 
	 "num_atms": 20, 
	 "gaussian": { 
		 "optdone": 1, 
		 "sigma_profile": "yes", 
		 "theory": "DFT", 
		 "functional": "B3LYP", 
		 "basiset": "6-31G**", 
		 "properties": { 
			 "R2extent": 3090.5507, 
			 "electric_dipole_moment_norm": 5.07629518645, 
			 "electric_quadrupole_moment_norm": 18.0446658467, 
			 "total_energy": -569.644533022, 
			 "HOMO_LUMO_gap": 0.18432, 
			 "cosmo_polarized_energy": -14.57, 
			 "cosmo_cavitation_energy": 24.24, 
			 "cosmo_dispersion_energy": -18.21, 
			 "cosmo_repulsion_energy": 1.44, 
			 "cosmo_total_nonelectrostatic_energy": 7.47, 
			 "SMD_solvation_energy": 5.48 
		},
		"coords": [
			{
				"x": 0.5794398295,
				"y": 2.4818717779,
				"z": 0.3968072731,
				"element": "C" 
			},
			{
				"x": -0.10770362,
				"y": 1.8554519574,
				"z": -0.7122069938,
				"element": "N" 
			},
			{
				"x": -1.0879506692,
				"y": 2.4936830244,
				"z": -1.4479844394,
				"element": "C" 
			},
			{
				"x": -1.5304126195,
				"y": 3.6092256745,
				"z": -1.3189929083,
				"element": "O" 
			},
			{
				"x": -1.5190823726,
				"y": 1.5974119932,
				"z": -2.426200683,
				"element": "O" 
			},
			{
				"x": -0.8029249268,
				"y": 0.4318385152,
				"z": -2.279262745,
				"element": "C" 
			},
			{
				"x": 0.088884128,
				"y": 0.5647719345,
				"z": -1.2125782961,
				"element": "C" 
			},
			{
				"x": 0.9229343122,
				"y": -0.4876060988,
				"z": -0.8649674884,
				"element": "C" 
			},
			{
				"x": 0.8306788064,
				"y": -1.6658907881,
				"z": -1.6166920084,
				"element": "C" 
			},
			{
				"x": -0.0684279574,
				"y": -1.7957501042,
				"z": -2.6920853892,
				"element": "C" 
			},
			{
				"x": -0.0881060311,
				"y": -2.9655432116,
				"z": -3.4612755254,
				"element": "N" 
			},
			{
				"x": -0.9116634484,
				"y": -0.716549347,
				"z": -3.035688985,
				"element": "C" 
			},
			{
				"x": 0.4156307013,
				"y": 1.9209206977,
				"z": 1.3234265496,
				"element": "H" 
			},
			{
				"x": 1.6558480754,
				"y": 2.5440832148,
				"z": 0.2030145058,
				"element": "H" 
			},
			{
				"x": 0.1734679944,
				"y": 3.4880600309,
				"z": 0.5071729087,
				"element": "H" 
			},
			{
				"x": 1.6236379268,
				"y": -0.4135354378,
				"z": -0.0399354306,
				"element": "H" 
			},
			{
				"x": 1.4764163947,
				"y": -2.5034453182,
				"z": -1.3679908001,
				"element": "H" 
			},
			{
				"x": -0.962986231,
				"y": -3.1471820484,
				"z": -3.9343650526,
				"element": "H" 
			},
			{
				"x": 0.2487175139,
				"y": -3.7900396378,
				"z": -2.9828863858,
				"element": "H" 
			},
			{
				"x": -1.6113978067,
				"y": -0.7806768286,
				"z": -3.8621081062,
				"element": "H" 
			}
		],
		 "valence_orbital": [ 
			{
				"type": "occ",
				"energy": -0.33587,
				"method": "rhf"
			},
			{
				"type": "occ",
				"energy": -0.28275,
				"method": "rhf"
			},
			{
				"type": "occ",
				"energy": -0.2724,
				"method": "rhf"
			},
			{
				"type": "occ",
				"energy": -0.24528,
				"method": "rhf"
			},
			{
				"type": "occ",
				"energy": -0.19272,
				"method": "rhf"
			},
			{
				"type": "unocc",
				"energy": -0.0084,
				"method": "rhf"
			},
			{
				"type": "unocc",
				"energy": 0.01778,
				"method": "rhf"
			},
			{
				"type": "unocc",
				"energy": 0.0554,
				"method": "rhf"
			},
			{
				"type": "unocc",
				"energy": 0.07603,
				"method": "rhf"
			},
			{
				"type": "unocc",
				"energy": 0.09273,
				"method": "rhf"
			}
		],
		"cosmo_sigma_profile": { 
			"-0.025": 0.0,
			"-0.024": 0.0,
			"-0.023": 0.0,
			"-0.022": 0.0,
			"-0.021": 0.0,
			"-0.02": 0.0,
			"-0.019": 0.0,
			"-0.018": 0.0,
			"-0.017": 0.0,
			"-0.016": 0.0,
			"-0.015": 0.0,
			"-0.014": 0.0,
			"-0.013": 0.445065958699,
			"-0.012": 2.63878107901,
			"-0.011": 2.65123350484,
			"-0.01": 3.16266860015,
			"-0.009": 3.00021988515,
			"-0.008": 4.22487920172,
			"-0.007": 5.28258744271,
			"-0.006": 12.9516034577,
			"-0.005": 14.9619295128,
			"-0.004": 13.9023485494,
			"-0.003": 16.3713699923,
			"-0.002": 13.0320109505,
			"-0.001": 8.86129925725,
			"0.0": 8.42305230937,
			"0.001": 8.12401742288,
			"0.002": 10.4223814899,
			"0.003": 8.99671246763,
			"0.004": 11.1165484103,
			"0.005": 9.21788403895,
			"0.006": 5.50879191261,
			"0.007": 4.75567134951,
			"0.008": 4.51208301644,
			"0.009": 4.06630277005,
			"0.01": 1.85406400239,
			"0.011": 3.38003520592,
			"0.012": 7.09852925353,
			"0.013": 3.34407403198,
			"0.014": 0.711181647519,
			"0.015": 0.341622854296,
			"0.016": 0.00986633651938,
			"0.017": 0.0,
			"0.018": 0.0,
			"0.019": 0.0,
			"0.02": 0.0,
			"0.021": 0.0,
			"0.022": 0.0,
			"0.023": 0.0,
			"0.024": 0.0,
			"0.025": 0.0
		}
	}
}
