{
	 "smiles": "CCC1=CC=C(C=C1)C1=NC(N)=NN=C1", 
	 "Tm": 522.15, 
	 "num_atms": 27, 
	 "gaussian": { 
		 "optdone": 1, 
		 "sigma_profile": "yes", 
		 "theory": "DFT", 
		 "functional": "B3LYP", 
		 "basiset": "6-31G**", 
		 "properties": { 
			 "R2extent": 4973.5144, 
			 "electric_dipole_moment_norm": 3.86380076738, 
			 "electric_quadrupole_moment_norm": 21.9581807996, 
			 "total_energy": -645.395805374, 
			 "HOMO_LUMO_gap": 0.15469, 
			 "cosmo_polarized_energy": -13.47, 
			 "cosmo_cavitation_energy": 31.22, 
			 "cosmo_dispersion_energy": -22.9, 
			 "cosmo_repulsion_energy": 1.8, 
			 "cosmo_total_nonelectrostatic_energy": 10.12, 
			 "SMD_solvation_energy": 2.41 
		},
		"coords": [
			{
				"x": -3.5772977968,
				"y": -2.4585874243,
				"z": -1.133186922,
				"element": "C" 
			},
			{
				"x": -2.6757561042,
				"y": -1.4839431826,
				"z": -1.9136929999,
				"element": "C" 
			},
			{
				"x": -1.7922989793,
				"y": -0.6529946834,
				"z": -1.0094161216,
				"element": "C" 
			},
			{
				"x": -2.2272576608,
				"y": 0.5829844129,
				"z": -0.5117864909,
				"element": "C" 
			},
			{
				"x": -1.4315049667,
				"y": 1.3350167882,
				"z": 0.3481399596,
				"element": "C" 
			},
			{
				"x": -0.165601086,
				"y": 0.8708860731,
				"z": 0.7418404147,
				"element": "C" 
			},
			{
				"x": 0.2704886114,
				"y": -0.3712590257,
				"z": 0.2512637256,
				"element": "C" 
			},
			{
				"x": -0.5287494804,
				"y": -1.1139850015,
				"z": -0.6105810632,
				"element": "C" 
			},
			{
				"x": 0.7078769383,
				"y": 1.6494653604,
				"z": 1.6478831783,
				"element": "C" 
			},
			{
				"x": 1.7400379923,
				"y": 1.0207608436,
				"z": 2.2163396393,
				"element": "N" 
			},
			{
				"x": 2.5019312415,
				"y": 1.7675234625,
				"z": 3.0350097569,
				"element": "C" 
			},
			{
				"x": 3.5948269754,
				"y": 1.1744680378,
				"z": 3.5906909207,
				"element": "N" 
			},
			{
				"x": 2.3019767542,
				"y": 3.0667976641,
				"z": 3.3567485221,
				"element": "N" 
			},
			{
				"x": 1.2866009764,
				"y": 3.6864218902,
				"z": 2.7721957411,
				"element": "N" 
			},
			{
				"x": 0.5048427694,
				"y": 3.0176849503,
				"z": 1.9266901411,
				"element": "C" 
			},
			{
				"x": -4.2378936684,
				"y": -1.9184236917,
				"z": -0.4474216039,
				"element": "H" 
			},
			{
				"x": -2.9788012276,
				"y": -3.155042504,
				"z": -0.5372231779,
				"element": "H" 
			},
			{
				"x": -4.2012918855,
				"y": -3.0443627488,
				"z": -1.8160140038,
				"element": "H" 
			},
			{
				"x": -3.3023765896,
				"y": -0.8213677191,
				"z": -2.5223043494,
				"element": "H" 
			},
			{
				"x": -2.0504891812,
				"y": -2.0522382969,
				"z": -2.6124569187,
				"element": "H" 
			},
			{
				"x": -3.2044915415,
				"y": 0.9614404484,
				"z": -0.8015342187,
				"element": "H" 
			},
			{
				"x": -1.811989168,
				"y": 2.2787721375,
				"z": 0.7249312921,
				"element": "H" 
			},
			{
				"x": 1.2464763584,
				"y": -0.7340658779,
				"z": 0.5535190716,
				"element": "H" 
			},
			{
				"x": -0.1659874552,
				"y": -2.0673496343,
				"z": -0.9875956556,
				"element": "H" 
			},
			{
				"x": 3.6461834326,
				"y": 0.1691072825,
				"z": 3.5624978472,
				"element": "H" 
			},
			{
				"x": 4.0470023005,
				"y": 1.6649359543,
				"z": 4.3460447133,
				"element": "H" 
			},
			{
				"x": -0.2876575592,
				"y": 3.5965544844,
				"z": 1.466618602,
				"element": "H" 
			}
		],
		 "valence_orbital": [ 
			{
				"type": "occ",
				"energy": -0.30873,
				"method": "rhf"
			},
			{
				"type": "occ",
				"energy": -0.25876,
				"method": "rhf"
			},
			{
				"type": "occ",
				"energy": -0.24941,
				"method": "rhf"
			},
			{
				"type": "occ",
				"energy": -0.2309,
				"method": "rhf"
			},
			{
				"type": "occ",
				"energy": -0.22154,
				"method": "rhf"
			},
			{
				"type": "unocc",
				"energy": -0.06685,
				"method": "rhf"
			},
			{
				"type": "unocc",
				"energy": -0.023,
				"method": "rhf"
			},
			{
				"type": "unocc",
				"energy": -0.00568,
				"method": "rhf"
			},
			{
				"type": "unocc",
				"energy": 0.02465,
				"method": "rhf"
			},
			{
				"type": "unocc",
				"energy": 0.08546,
				"method": "rhf"
			}
		],
		"cosmo_sigma_profile": { 
			"-0.025": 0.0,
			"-0.024": 0.0,
			"-0.023": 0.0,
			"-0.022": 0.0,
			"-0.021": 0.0,
			"-0.02": 0.0,
			"-0.019": 0.0,
			"-0.018": 0.0,
			"-0.017": 0.0,
			"-0.016": 0.0,
			"-0.015": 0.0251037676935,
			"-0.014": 1.77874187951,
			"-0.013": 2.16548716368,
			"-0.012": 1.71346461945,
			"-0.011": 2.06662072938,
			"-0.01": 2.17183653273,
			"-0.009": 3.38913777718,
			"-0.008": 3.58623860312,
			"-0.007": 3.75128941691,
			"-0.006": 6.16572743749,
			"-0.005": 10.0064126986,
			"-0.004": 15.2195198018,
			"-0.003": 21.4036515628,
			"-0.002": 22.8910575583,
			"-0.001": 25.6847905808,
			"0.0": 24.3924324041,
			"0.001": 20.2401688972,
			"0.002": 14.6209307185,
			"0.003": 13.3914534092,
			"0.004": 15.9567144071,
			"0.005": 8.98080745597,
			"0.006": 4.11658498946,
			"0.007": 4.44709529107,
			"0.008": 3.63658338338,
			"0.009": 2.50786716899,
			"0.01": 1.98629775774,
			"0.011": 2.27966727458,
			"0.012": 2.14588811169,
			"0.013": 2.66245592244,
			"0.014": 2.67291108423,
			"0.015": 2.12699922357,
			"0.016": 0.332225570222,
			"0.017": 0.0,
			"0.018": 0.0,
			"0.019": 0.0,
			"0.02": 0.0,
			"0.021": 0.0,
			"0.022": 0.0,
			"0.023": 0.0,
			"0.024": 0.0,
			"0.025": 0.0
		}
	}
}
