{
	 "smiles": "OC(=O)C1(CCCC1)S(=O)(=O)C1=CC=C(Cl)C=C1", 
	 "Tm": 357.15, 
	 "num_atms": 31, 
	 "gaussian": { 
		 "optdone": 1, 
		 "sigma_profile": "yes", 
		 "theory": "DFT", 
		 "functional": "B3LYP", 
		 "basiset": "6-31G**", 
		 "properties": { 
			 "R2extent": 6285.3747, 
			 "electric_dipole_moment_norm": 4.29461285333, 
			 "electric_quadrupole_moment_norm": 13.2519368943, 
			 "total_energy": -1624.33692778, 
			 "HOMO_LUMO_gap": 0.21442, 
			 "cosmo_polarized_energy": -17.24, 
			 "cosmo_cavitation_energy": 36.15, 
			 "cosmo_dispersion_energy": -26.0, 
			 "cosmo_repulsion_energy": 1.97, 
			 "cosmo_total_nonelectrostatic_energy": 12.12, 
			 "SMD_solvation_energy": 5.72 
		},
		"coords": [
			{
				"x": -1.6473319325,
				"y": 1.1814658234,
				"z": -1.0028920346,
				"element": "O" 
			},
			{
				"x": -1.172821648,
				"y": 1.7337631542,
				"z": 0.1394618093,
				"element": "C" 
			},
			{
				"x": -1.6003107096,
				"y": 2.7761695032,
				"z": 0.5766442927,
				"element": "O" 
			},
			{
				"x": -0.1026713548,
				"y": 0.8614130036,
				"z": 0.7978918088,
				"element": "C" 
			},
			{
				"x": -0.641035714,
				"y": -0.5557391992,
				"z": 1.1614460278,
				"element": "C" 
			},
			{
				"x": -0.9109964447,
				"y": -0.4820341012,
				"z": 2.6738181742,
				"element": "C" 
			},
			{
				"x": 0.258096332,
				"y": 0.3682722595,
				"z": 3.1895579215,
				"element": "C" 
			},
			{
				"x": 0.389758066,
				"y": 1.4875230757,
				"z": 2.1406097362,
				"element": "C" 
			},
			{
				"x": 1.3898276166,
				"y": 0.7619896056,
				"z": -0.3354786702,
				"element": "S" 
			},
			{
				"x": 2.4510842385,
				"y": 0.1337878734,
				"z": 0.4717075853,
				"element": "O" 
			},
			{
				"x": 1.5670869104,
				"y": 2.0999476045,
				"z": -0.9238701363,
				"element": "O" 
			},
			{
				"x": 1.0419773244,
				"y": -0.3848473938,
				"z": -1.6823524885,
				"element": "C" 
			},
			{
				"x": 1.4001941411,
				"y": -1.7274765547,
				"z": -1.5420523647,
				"element": "C" 
			},
			{
				"x": 1.1922104842,
				"y": -2.6087914393,
				"z": -2.6018663117,
				"element": "C" 
			},
			{
				"x": 0.6429498793,
				"y": -2.1240965556,
				"z": -3.7897884781,
				"element": "C" 
			},
			{
				"x": 0.381128748,
				"y": -3.2281433109,
				"z": -5.1253699289,
				"element": "Cl" 
			},
			{
				"x": 0.3110257316,
				"y": -0.7762630387,
				"z": -3.9441271833,
				"element": "C" 
			},
			{
				"x": 0.5148797516,
				"y": 0.0999275603,
				"z": -2.8809505239,
				"element": "C" 
			},
			{
				"x": -2.3140575285,
				"y": 1.8008307423,
				"z": -1.3453459665,
				"element": "H" 
			},
			{
				"x": -1.5064596875,
				"y": -0.8360209456,
				"z": 0.5580259882,
				"element": "H" 
			},
			{
				"x": 0.1435623851,
				"y": -1.296337538,
				"z": 0.9795704392,
				"element": "H" 
			},
			{
				"x": -0.9669831251,
				"y": -1.4746486969,
				"z": 3.1309700512,
				"element": "H" 
			},
			{
				"x": -1.8646802151,
				"y": 0.0251617137,
				"z": 2.8657424833,
				"element": "H" 
			},
			{
				"x": 1.1737257019,
				"y": -0.2329080876,
				"z": 3.2106025388,
				"element": "H" 
			},
			{
				"x": 0.0939366436,
				"y": 0.7641732103,
				"z": 4.1960387439,
				"element": "H" 
			},
			{
				"x": -0.2721043158,
				"y": 2.3258595363,
				"z": 2.3673149296,
				"element": "H" 
			},
			{
				"x": 1.4053186565,
				"y": 1.8811500114,
				"z": 2.070502497,
				"element": "H" 
			},
			{
				"x": 1.866276245,
				"y": -2.0695363072,
				"z": -0.6249519587,
				"element": "H" 
			},
			{
				"x": 1.4643756245,
				"y": -3.6544633841,
				"z": -2.5143876333,
				"element": "H" 
			},
			{
				"x": -0.0926678722,
				"y": -0.4207330498,
				"z": -4.8853464143,
				"element": "H" 
			},
			{
				"x": 0.2844060675,
				"y": 1.1534049253,
				"z": -2.981324934,
				"element": "H" 
			}
		],
		 "valence_orbital": [ 
			{
				"type": "occ",
				"energy": -0.30562,
				"method": "rhf"
			},
			{
				"type": "occ",
				"energy": -0.29606,
				"method": "rhf"
			},
			{
				"type": "occ",
				"energy": -0.28428,
				"method": "rhf"
			},
			{
				"type": "occ",
				"energy": -0.28372,
				"method": "rhf"
			},
			{
				"type": "occ",
				"energy": -0.2692,
				"method": "rhf"
			},
			{
				"type": "unocc",
				"energy": -0.05478,
				"method": "rhf"
			},
			{
				"type": "unocc",
				"energy": -0.03471,
				"method": "rhf"
			},
			{
				"type": "unocc",
				"energy": -0.02521,
				"method": "rhf"
			},
			{
				"type": "unocc",
				"energy": 0.01426,
				"method": "rhf"
			},
			{
				"type": "unocc",
				"energy": 0.05285,
				"method": "rhf"
			}
		],
		"cosmo_sigma_profile": { 
			"-0.025": 0.0,
			"-0.024": 0.0,
			"-0.023": 0.0,
			"-0.022": 0.0,
			"-0.021": 0.0,
			"-0.02": 0.0,
			"-0.019": 0.421380767279,
			"-0.018": 1.33595197709,
			"-0.017": 0.51728953912,
			"-0.016": 0.78464691792,
			"-0.015": 1.05412845883,
			"-0.014": 0.643086959111,
			"-0.013": 0.765207964961,
			"-0.012": 0.545929846202,
			"-0.011": 0.957368851014,
			"-0.01": 0.55772862519,
			"-0.009": 1.10811791252,
			"-0.008": 6.92619623445,
			"-0.007": 9.16162342862,
			"-0.006": 8.13531694097,
			"-0.005": 11.0825634402,
			"-0.004": 18.7250901303,
			"-0.003": 23.6357714368,
			"-0.002": 28.8450068516,
			"-0.001": 27.5744760634,
			"0.0": 27.8865029889,
			"0.001": 25.2523987213,
			"0.002": 14.3128554304,
			"0.003": 14.7445031975,
			"0.004": 13.8704075313,
			"0.005": 6.78925849631,
			"0.006": 5.59556051166,
			"0.007": 4.01897425459,
			"0.008": 4.91228852008,
			"0.009": 6.21054756419,
			"0.01": 10.7582930961,
			"0.011": 8.96371335271,
			"0.012": 2.41547647851,
			"0.013": 0.0,
			"0.014": 0.0,
			"0.015": 0.0,
			"0.016": 0.0,
			"0.017": 0.0,
			"0.018": 0.0,
			"0.019": 0.0,
			"0.02": 0.0,
			"0.021": 0.0,
			"0.022": 0.0,
			"0.023": 0.0,
			"0.024": 0.0,
			"0.025": 0.0
		}
	}
}
