{
	 "smiles": "CCOC(=O)C(=N/NC1=C(Cl)C=CC(Cl)=C1)C(=O)C(F)(F)F", 
	 "Tm": 419.15, 
	 "num_atms": 31, 
	 "gaussian": { 
		 "optdone": 1, 
		 "sigma_profile": "yes", 
		 "theory": "DFT", 
		 "functional": "B3LYP", 
		 "basiset": "6-31G**", 
		 "properties": { 
			 "R2extent": 11804.7196, 
			 "electric_dipole_moment_norm": 4.31474440726, 
			 "electric_quadrupole_moment_norm": 22.6640503161, 
			 "total_energy": -2017.74745522, 
			 "HOMO_LUMO_gap": 0.14131, 
			 "cosmo_polarized_energy": -10.65, 
			 "cosmo_cavitation_energy": 42.3, 
			 "cosmo_dispersion_energy": -29.0, 
			 "cosmo_repulsion_energy": 2.2, 
			 "cosmo_total_nonelectrostatic_energy": 15.5, 
			 "SMD_solvation_energy": 8.91 
		},
		"coords": [
			{
				"x": -3.1847837415,
				"y": -1.6547496094,
				"z": -0.2710028607,
				"element": "C" 
			},
			{
				"x": -2.4126693261,
				"y": -1.6254645958,
				"z": 1.0379247544,
				"element": "C" 
			},
			{
				"x": -1.7031203153,
				"y": -0.3669194575,
				"z": 1.1982143392,
				"element": "O" 
			},
			{
				"x": -0.4791541331,
				"y": -0.2727537399,
				"z": 0.6719037535,
				"element": "C" 
			},
			{
				"x": 0.0514586468,
				"y": -1.1553340919,
				"z": 0.002177716,
				"element": "O" 
			},
			{
				"x": 0.1479972208,
				"y": 1.0431722457,
				"z": 0.9267854758,
				"element": "C" 
			},
			{
				"x": 1.2219171886,
				"y": 1.4533238565,
				"z": 0.2921490678,
				"element": "N" 
			},
			{
				"x": 1.8536487425,
				"y": 0.6885236704,
				"z": -0.5596571158,
				"element": "N" 
			},
			{
				"x": 2.9963558185,
				"y": 1.167298951,
				"z": -1.2148190393,
				"element": "C" 
			},
			{
				"x": 3.7042603968,
				"y": 0.3269597095,
				"z": -2.0906836699,
				"element": "C" 
			},
			{
				"x": 3.1643075168,
				"y": -1.3211534041,
				"z": -2.3608752376,
				"element": "Cl" 
			},
			{
				"x": 4.8391078218,
				"y": 0.7892458196,
				"z": -2.7526259289,
				"element": "C" 
			},
			{
				"x": 5.2881960371,
				"y": 2.0920529492,
				"z": -2.5534622572,
				"element": "C" 
			},
			{
				"x": 4.5795779871,
				"y": 2.922470051,
				"z": -1.6819730172,
				"element": "C" 
			},
			{
				"x": 5.1332107552,
				"y": 4.5655135271,
				"z": -1.4242524773,
				"element": "Cl" 
			},
			{
				"x": 3.4444841918,
				"y": 2.4810107309,
				"z": -1.0146525963,
				"element": "C" 
			},
			{
				"x": -0.3990616381,
				"y": 2.064506198,
				"z": 1.8713730253,
				"element": "C" 
			},
			{
				"x": -0.2901717666,
				"y": 3.2573696707,
				"z": 1.6902499397,
				"element": "O" 
			},
			{
				"x": -1.0381444028,
				"y": 1.5975454061,
				"z": 3.2125275139,
				"element": "C" 
			},
			{
				"x": -0.7355643075,
				"y": 2.4799983337,
				"z": 4.173282971,
				"element": "F" 
			},
			{
				"x": -2.3773906281,
				"y": 1.5245636066,
				"z": 3.1240107662,
				"element": "F" 
			},
			{
				"x": -0.5670642504,
				"y": 0.3915073608,
				"z": 3.596926642,
				"element": "F" 
			},
			{
				"x": -2.5025690375,
				"y": -1.6306047953,
				"z": -1.1241675705,
				"element": "H" 
			},
			{
				"x": -3.7730373921,
				"y": -2.5763971984,
				"z": -0.3282002786,
				"element": "H" 
			},
			{
				"x": -3.8702666711,
				"y": -0.8053163204,
				"z": -0.3382066948,
				"element": "H" 
			},
			{
				"x": -3.0773758271,
				"y": -1.6619843995,
				"z": 1.9029519606,
				"element": "H" 
			},
			{
				"x": -1.6898942577,
				"y": -2.4421251784,
				"z": 1.0959605025,
				"element": "H" 
			},
			{
				"x": 1.515156721,
				"y": -0.2680225957,
				"z": -0.714647289,
				"element": "H" 
			},
			{
				"x": 5.3691771622,
				"y": 0.1225984249,
				"z": -3.4234574143,
				"element": "H" 
			},
			{
				"x": 6.1709432307,
				"y": 2.4567445535,
				"z": -3.0649690901,
				"element": "H" 
			},
			{
				"x": 2.8942682572,
				"y": 3.1275203211,
				"z": -0.3430858904,
				"element": "H" 
			}
		],
		 "valence_orbital": [ 
			{
				"type": "occ",
				"energy": -0.30921,
				"method": "rhf"
			},
			{
				"type": "occ",
				"energy": -0.2997,
				"method": "rhf"
			},
			{
				"type": "occ",
				"energy": -0.27362,
				"method": "rhf"
			},
			{
				"type": "occ",
				"energy": -0.26319,
				"method": "rhf"
			},
			{
				"type": "occ",
				"energy": -0.23905,
				"method": "rhf"
			},
			{
				"type": "unocc",
				"energy": -0.09774,
				"method": "rhf"
			},
			{
				"type": "unocc",
				"energy": -0.04758,
				"method": "rhf"
			},
			{
				"type": "unocc",
				"energy": -0.03466,
				"method": "rhf"
			},
			{
				"type": "unocc",
				"energy": -0.01391,
				"method": "rhf"
			},
			{
				"type": "unocc",
				"energy": 0.00433,
				"method": "rhf"
			}
		],
		"cosmo_sigma_profile": { 
			"-0.025": 0.0,
			"-0.024": 0.0,
			"-0.023": 0.0,
			"-0.022": 0.0,
			"-0.021": 0.0,
			"-0.02": 0.0,
			"-0.019": 0.0,
			"-0.018": 0.0,
			"-0.017": 0.0,
			"-0.016": 0.0,
			"-0.015": 0.0,
			"-0.014": 0.0,
			"-0.013": 0.0,
			"-0.012": 0.0,
			"-0.011": 0.0,
			"-0.01": 0.0,
			"-0.009": 0.582197718578,
			"-0.008": 4.32480636825,
			"-0.007": 6.87775712952,
			"-0.006": 12.1393337347,
			"-0.005": 18.0569573567,
			"-0.004": 23.2729326023,
			"-0.003": 26.4930969875,
			"-0.002": 26.772384799,
			"-0.001": 32.5051325921,
			"0.0": 37.3385806748,
			"0.001": 37.2038446406,
			"0.002": 44.0772716344,
			"0.003": 27.332778965,
			"0.004": 17.4962124807,
			"0.005": 5.56145592052,
			"0.006": 3.79872616781,
			"0.007": 3.75774750035,
			"0.008": 4.01308278161,
			"0.009": 5.87957111367,
			"0.01": 5.47211814287,
			"0.011": 1.34692317161,
			"0.012": 0.0438898335236,
			"0.013": 0.0,
			"0.014": 0.0,
			"0.015": 0.0,
			"0.016": 0.0,
			"0.017": 0.0,
			"0.018": 0.0,
			"0.019": 0.0,
			"0.02": 0.0,
			"0.021": 0.0,
			"0.022": 0.0,
			"0.023": 0.0,
			"0.024": 0.0,
			"0.025": 0.0
		}
	}
}
