{
	 "smiles": "NC1=CC=CN=C1N1CCOCC1", 
	 "Tm": 401.15, 
	 "num_atms": 26, 
	 "gaussian": { 
		 "optdone": 1, 
		 "sigma_profile": "yes", 
		 "theory": "DFT", 
		 "functional": "B3LYP", 
		 "basiset": "6-31G**", 
		 "properties": { 
			 "R2extent": 2754.711, 
			 "electric_dipole_moment_norm": 3.07933121635, 
			 "electric_quadrupole_moment_norm": 3.67829062473, 
			 "total_energy": -590.243044364, 
			 "HOMO_LUMO_gap": 0.18609, 
			 "cosmo_polarized_energy": -10.71, 
			 "cosmo_cavitation_energy": 27.46, 
			 "cosmo_dispersion_energy": -20.66, 
			 "cosmo_repulsion_energy": 1.64, 
			 "cosmo_total_nonelectrostatic_energy": 8.44, 
			 "SMD_solvation_energy": 2.86 
		},
		"coords": [
			{
				"x": 0.8383794627,
				"y": 1.8838175487,
				"z": -0.5931031277,
				"element": "N" 
			},
			{
				"x": -0.3025643619,
				"y": 1.2978592697,
				"z": -1.144867686,
				"element": "C" 
			},
			{
				"x": -1.1379920524,
				"y": 1.9660158984,
				"z": -2.0422470715,
				"element": "C" 
			},
			{
				"x": -2.2759112109,
				"y": 1.3248262668,
				"z": -2.5338727767,
				"element": "C" 
			},
			{
				"x": -2.5502525381,
				"y": 0.0326660403,
				"z": -2.0983494137,
				"element": "C" 
			},
			{
				"x": -1.7430473098,
				"y": -0.6357074713,
				"z": -1.262033439,
				"element": "N" 
			},
			{
				"x": -0.6427942039,
				"y": -0.041137041,
				"z": -0.8057948716,
				"element": "C" 
			},
			{
				"x": 0.2176094843,
				"y": -0.7397887741,
				"z": 0.0815305602,
				"element": "N" 
			},
			{
				"x": 1.5119288867,
				"y": -1.1335012704,
				"z": -0.5243081128,
				"element": "C" 
			},
			{
				"x": 2.2635660922,
				"y": -2.0500655447,
				"z": 0.4315342021,
				"element": "C" 
			},
			{
				"x": 1.5776449166,
				"y": -3.2755073125,
				"z": 0.6746204984,
				"element": "O" 
			},
			{
				"x": 0.1613236654,
				"y": -3.1937261985,
				"z": 0.5065188984,
				"element": "C" 
			},
			{
				"x": -0.389342657,
				"y": -1.8227922133,
				"z": 0.8851820312,
				"element": "C" 
			},
			{
				"x": 1.0526418142,
				"y": 1.4967656389,
				"z": 0.3205421355,
				"element": "H" 
			},
			{
				"x": 0.8231528029,
				"y": 2.8958121981,
				"z": -0.5848309266,
				"element": "H" 
			},
			{
				"x": -0.910296107,
				"y": 2.9901069273,
				"z": -2.3290221436,
				"element": "H" 
			},
			{
				"x": -2.943243015,
				"y": 1.829627026,
				"z": -3.2251183154,
				"element": "H" 
			},
			{
				"x": -3.4406389671,
				"y": -0.4948904211,
				"z": -2.4333801346,
				"element": "H" 
			},
			{
				"x": 2.1079957213,
				"y": -0.2400926723,
				"z": -0.7357290106,
				"element": "H" 
			},
			{
				"x": 1.3610414862,
				"y": -1.6579709867,
				"z": -1.4810883969,
				"element": "H" 
			},
			{
				"x": 2.4400568407,
				"y": -1.5187740478,
				"z": 1.3809591986,
				"element": "H" 
			},
			{
				"x": 3.2406803505,
				"y": -2.30665813,
				"z": 0.0074624519,
				"element": "H" 
			},
			{
				"x": -0.1164825007,
				"y": -3.4268285804,
				"z": -0.5321024464,
				"element": "H" 
			},
			{
				"x": -0.2733521171,
				"y": -3.9663480694,
				"z": 1.1497289877,
				"element": "H" 
			},
			{
				"x": -0.1841560624,
				"y": -1.6349963992,
				"z": 1.9476871455,
				"element": "H" 
			},
			{
				"x": -1.4699484204,
				"y": -1.8129116814,
				"z": 0.7340817636,
				"element": "H" 
			}
		],
		 "valence_orbital": [ 
			{
				"type": "occ",
				"energy": -0.27773,
				"method": "rhf"
			},
			{
				"type": "occ",
				"energy": -0.25341,
				"method": "rhf"
			},
			{
				"type": "occ",
				"energy": -0.24124,
				"method": "rhf"
			},
			{
				"type": "occ",
				"energy": -0.23048,
				"method": "rhf"
			},
			{
				"type": "occ",
				"energy": -0.19764,
				"method": "rhf"
			},
			{
				"type": "unocc",
				"energy": -0.01155,
				"method": "rhf"
			},
			{
				"type": "unocc",
				"energy": 0.01071,
				"method": "rhf"
			},
			{
				"type": "unocc",
				"energy": 0.07884,
				"method": "rhf"
			},
			{
				"type": "unocc",
				"energy": 0.09973,
				"method": "rhf"
			},
			{
				"type": "unocc",
				"energy": 0.10735,
				"method": "rhf"
			}
		],
		"cosmo_sigma_profile": { 
			"-0.025": 0.0,
			"-0.024": 0.0,
			"-0.023": 0.0,
			"-0.022": 0.0,
			"-0.021": 0.0,
			"-0.02": 0.0,
			"-0.019": 0.0,
			"-0.018": 0.0,
			"-0.017": 0.0,
			"-0.016": 0.0,
			"-0.015": 0.0,
			"-0.014": 0.0,
			"-0.013": 0.369391575263,
			"-0.012": 1.62772872963,
			"-0.011": 1.07343778502,
			"-0.01": 2.62937962548,
			"-0.009": 2.60010486277,
			"-0.008": 2.81802563908,
			"-0.007": 3.36511916368,
			"-0.006": 5.01181153501,
			"-0.005": 11.495933944,
			"-0.004": 19.1523368895,
			"-0.003": 27.8278298578,
			"-0.002": 23.0224152463,
			"-0.001": 15.5064092236,
			"0.0": 11.8189026083,
			"0.001": 11.0402269097,
			"0.002": 11.5015651556,
			"0.003": 11.7702767052,
			"0.004": 14.0530847294,
			"0.005": 11.1545371972,
			"0.006": 4.99747936899,
			"0.007": 3.58468743468,
			"0.008": 3.61056668857,
			"0.009": 3.46310015605,
			"0.01": 2.71119104155,
			"0.011": 2.25073017653,
			"0.012": 2.99496498429,
			"0.013": 2.63990327835,
			"0.014": 1.63207595257,
			"0.015": 0.0,
			"0.016": 0.0,
			"0.017": 0.0,
			"0.018": 0.0,
			"0.019": 0.0,
			"0.02": 0.0,
			"0.021": 0.0,
			"0.022": 0.0,
			"0.023": 0.0,
			"0.024": 0.0,
			"0.025": 0.0
		}
	}
}
