{
	 "smiles": "CC(=O)C1=CC=C(S1)C1=CC=CS1", 
	 "Tm": 385.15, 
	 "num_atms": 21, 
	 "gaussian": { 
		 "optdone": 1, 
		 "sigma_profile": "yes", 
		 "theory": "DFT", 
		 "functional": "B3LYP", 
		 "basiset": "6-31G**", 
		 "properties": { 
			 "R2extent": 4125.8388, 
			 "electric_dipole_moment_norm": 3.80618355574, 
			 "electric_quadrupole_moment_norm": 10.2089748222, 
			 "total_energy": -1257.46416668, 
			 "HOMO_LUMO_gap": 0.13754, 
			 "cosmo_polarized_energy": -9.4, 
			 "cosmo_cavitation_energy": 28.68, 
			 "cosmo_dispersion_energy": -21.93, 
			 "cosmo_repulsion_energy": 1.62, 
			 "cosmo_total_nonelectrostatic_energy": 8.37, 
			 "SMD_solvation_energy": 5.34 
		},
		"coords": [
			{
				"x": -0.0969859672,
				"y": 1.1822372405,
				"z": 3.6558408138,
				"element": "C" 
			},
			{
				"x": 0.3481238056,
				"y": -0.2458333123,
				"z": 3.3945769464,
				"element": "C" 
			},
			{
				"x": 0.7003520318,
				"y": -0.9846214917,
				"z": 4.3044721399,
				"element": "O" 
			},
			{
				"x": 0.3497858424,
				"y": -0.7401859505,
				"z": 2.0022608533,
				"element": "C" 
			},
			{
				"x": 0.7249662906,
				"y": -2.0059262877,
				"z": 1.6049100577,
				"element": "C" 
			},
			{
				"x": 0.6310536337,
				"y": -2.213214824,
				"z": 0.2117264353,
				"element": "C" 
			},
			{
				"x": 0.179905371,
				"y": -1.1032880353,
				"z": -0.4837814936,
				"element": "C" 
			},
			{
				"x": -0.1320731338,
				"y": 0.2198208492,
				"z": 0.6175448003,
				"element": "S" 
			},
			{
				"x": -0.0362246187,
				"y": -0.9547156179,
				"z": -1.9079964789,
				"element": "C" 
			},
			{
				"x": -0.4858110974,
				"y": 0.1464013145,
				"z": -2.6079877713,
				"element": "C" 
			},
			{
				"x": -0.5775513492,
				"y": -0.0695847375,
				"z": -4.0106292502,
				"element": "C" 
			},
			{
				"x": -0.1988228031,
				"y": -1.3322081166,
				"z": -4.3787644947,
				"element": "C" 
			},
			{
				"x": 0.2785527401,
				"y": -2.2834598301,
				"z": -3.0117555151,
				"element": "S" 
			},
			{
				"x": -0.0383124828,
				"y": 1.3816757549,
				"z": 4.7262170096,
				"element": "H" 
			},
			{
				"x": -1.1257701731,
				"y": 1.339146434,
				"z": 3.3118660486,
				"element": "H" 
			},
			{
				"x": 0.5394411436,
				"y": 1.8937283168,
				"z": 3.1172538356,
				"element": "H" 
			},
			{
				"x": 1.0555916429,
				"y": -2.7460526327,
				"z": 2.3235320124,
				"element": "H" 
			},
			{
				"x": 0.8853987831,
				"y": -3.1478305182,
				"z": -0.2756344515,
				"element": "H" 
			},
			{
				"x": -0.7430714161,
				"y": 1.0842450058,
				"z": -2.128240436,
				"element": "H" 
			},
			{
				"x": -0.9112694801,
				"y": 0.6828661068,
				"z": -4.7156311046,
				"element": "H" 
			},
			{
				"x": -0.1702787632,
				"y": -1.7641996678,
				"z": -5.3693799573,
				"element": "H" 
			}
		],
		 "valence_orbital": [ 
			{
				"type": "occ",
				"energy": -0.28295,
				"method": "rhf"
			},
			{
				"type": "occ",
				"energy": -0.26847,
				"method": "rhf"
			},
			{
				"type": "occ",
				"energy": -0.26111,
				"method": "rhf"
			},
			{
				"type": "occ",
				"energy": -0.24938,
				"method": "rhf"
			},
			{
				"type": "occ",
				"energy": -0.21355,
				"method": "rhf"
			},
			{
				"type": "unocc",
				"energy": -0.07601,
				"method": "rhf"
			},
			{
				"type": "unocc",
				"energy": -0.02101,
				"method": "rhf"
			},
			{
				"type": "unocc",
				"energy": 0.01371,
				"method": "rhf"
			},
			{
				"type": "unocc",
				"energy": 0.01725,
				"method": "rhf"
			},
			{
				"type": "unocc",
				"energy": 0.0318,
				"method": "rhf"
			}
		],
		"cosmo_sigma_profile": { 
			"-0.025": 0.0,
			"-0.024": 0.0,
			"-0.023": 0.0,
			"-0.022": 0.0,
			"-0.021": 0.0,
			"-0.02": 0.0,
			"-0.019": 0.0,
			"-0.018": 0.0,
			"-0.017": 0.0,
			"-0.016": 0.0,
			"-0.015": 0.0,
			"-0.014": 0.0,
			"-0.013": 0.0,
			"-0.012": 0.0,
			"-0.011": 0.0,
			"-0.01": 0.024324220664,
			"-0.009": 1.50490176363,
			"-0.008": 3.59906027535,
			"-0.007": 8.26020493959,
			"-0.006": 13.1695684565,
			"-0.005": 17.3865781704,
			"-0.004": 16.7094741205,
			"-0.003": 14.1203450042,
			"-0.002": 16.5478753759,
			"-0.001": 17.2901995111,
			"0.0": 14.9040711349,
			"0.001": 17.6589565821,
			"0.002": 28.8701738532,
			"0.003": 27.864148259,
			"0.004": 14.2474390516,
			"0.005": 3.91426409626,
			"0.006": 2.30936609229,
			"0.007": 1.50604976056,
			"0.008": 1.05464058941,
			"0.009": 1.65412807979,
			"0.01": 2.03814161837,
			"0.011": 2.97871401675,
			"0.012": 4.33193330987,
			"0.013": 2.23677218101,
			"0.014": 0.303311760971,
			"0.015": 0.0,
			"0.016": 0.0,
			"0.017": 0.0,
			"0.018": 0.0,
			"0.019": 0.0,
			"0.02": 0.0,
			"0.021": 0.0,
			"0.022": 0.0,
			"0.023": 0.0,
			"0.024": 0.0,
			"0.025": 0.0
		}
	}
}
