{
	 "smiles": "CC1=NN(C2=C1C(=CC(=N2)C1CC1)C(O)=O)C1=NC=CC=C1", 
	 "Tm": 511.15, 
	 "num_atms": 36, 
	 "gaussian": { 
		 "optdone": 1, 
		 "sigma_profile": "yes", 
		 "theory": "DFT", 
		 "functional": "B3LYP", 
		 "basiset": "6-31G**", 
		 "properties": { 
			 "R2extent": 7897.1193, 
			 "electric_dipole_moment_norm": 4.07031341545, 
			 "electric_quadrupole_moment_norm": 17.7515445528, 
			 "total_energy": -987.567376669, 
			 "HOMO_LUMO_gap": 0.1568, 
			 "cosmo_polarized_energy": -18.62, 
			 "cosmo_cavitation_energy": 40.55, 
			 "cosmo_dispersion_energy": -28.5, 
			 "cosmo_repulsion_energy": 2.15, 
			 "cosmo_total_nonelectrostatic_energy": 14.2, 
			 "SMD_solvation_energy": 5.03 
		},
		"coords": [
			{
				"x": 4.1434079293,
				"y": 2.5976778099,
				"z": 0.7638709721,
				"element": "C" 
			},
			{
				"x": 2.7747713993,
				"y": 1.9828929485,
				"z": 0.773479445,
				"element": "C" 
			},
			{
				"x": 1.9148157264,
				"y": 2.3585166583,
				"z": 1.7018255187,
				"element": "N" 
			},
			{
				"x": 0.7407364759,
				"y": 1.6897406237,
				"z": 1.4885264249,
				"element": "N" 
			},
			{
				"x": 0.833161841,
				"y": 0.8829670678,
				"z": 0.3708627903,
				"element": "C" 
			},
			{
				"x": 2.1635417153,
				"y": 1.0252435757,
				"z": -0.1119592954,
				"element": "C" 
			},
			{
				"x": 2.4788120307,
				"y": 0.3076025772,
				"z": -1.2899597814,
				"element": "C" 
			},
			{
				"x": 1.4605848599,
				"y": -0.4238260535,
				"z": -1.885687473,
				"element": "C" 
			},
			{
				"x": 0.1671049626,
				"y": -0.4764639019,
				"z": -1.3098640854,
				"element": "C" 
			},
			{
				"x": -0.1446399621,
				"y": 0.1704020275,
				"z": -0.1823150834,
				"element": "N" 
			},
			{
				"x": -0.9048330563,
				"y": -1.2744411976,
				"z": -1.9547799794,
				"element": "C" 
			},
			{
				"x": -1.9388264083,
				"y": -1.9742654333,
				"z": -1.084916686,
				"element": "C" 
			},
			{
				"x": -2.3438702523,
				"y": -0.7842460001,
				"z": -1.8927517641,
				"element": "C" 
			},
			{
				"x": 3.8309102753,
				"y": 0.2636766527,
				"z": -1.9450494734,
				"element": "C" 
			},
			{
				"x": 4.8982093092,
				"y": 0.2528192625,
				"z": -1.1049662044,
				"element": "O" 
			},
			{
				"x": 3.9912583984,
				"y": 0.2051504847,
				"z": -3.1393450407,
				"element": "O" 
			},
			{
				"x": -0.3535463041,
				"y": 1.9325686416,
				"z": 2.3584335303,
				"element": "C" 
			},
			{
				"x": -1.2813165098,
				"y": 0.981837264,
				"z": 2.4337032397,
				"element": "N" 
			},
			{
				"x": -2.3199749773,
				"y": 1.2015155665,
				"z": 3.2489910903,
				"element": "C" 
			},
			{
				"x": -2.464333544,
				"y": 2.3477366837,
				"z": 4.0274513368,
				"element": "C" 
			},
			{
				"x": -1.4697586536,
				"y": 3.3254423463,
				"z": 3.9434885912,
				"element": "C" 
			},
			{
				"x": -0.39043359,
				"y": 3.1286618105,
				"z": 3.0906486185,
				"element": "C" 
			},
			{
				"x": 4.1467025253,
				"y": 3.4550046012,
				"z": 1.4397059758,
				"element": "H" 
			},
			{
				"x": 4.4293773305,
				"y": 2.9334051408,
				"z": -0.2367674957,
				"element": "H" 
			},
			{
				"x": 4.9221834944,
				"y": 1.9068936728,
				"z": 1.1090064928,
				"element": "H" 
			},
			{
				"x": 1.6716477318,
				"y": -0.9642349546,
				"z": -2.8015326151,
				"element": "H" 
			},
			{
				"x": -0.602654477,
				"y": -1.7854198505,
				"z": -2.8639854887,
				"element": "H" 
			},
			{
				"x": -1.8274765752,
				"y": -1.8324287784,
				"z": -0.0147606738,
				"element": "H" 
			},
			{
				"x": -2.2662292783,
				"y": -2.960864607,
				"z": -1.3984212819,
				"element": "H" 
			},
			{
				"x": -2.5047526678,
				"y": 0.1472301429,
				"z": -1.3600356072,
				"element": "H" 
			},
			{
				"x": -2.9554838226,
				"y": -0.9302366779,
				"z": -2.7778396204,
				"element": "H" 
			},
			{
				"x": 4.5932325304,
				"y": 0.1856636023,
				"z": -0.1889178365,
				"element": "H" 
			},
			{
				"x": -3.0664204983,
				"y": 0.4103598637,
				"z": 3.2852378391,
				"element": "H" 
			},
			{
				"x": -3.323984692,
				"y": 2.4680896375,
				"z": 4.6782122916,
				"element": "H" 
			},
			{
				"x": -1.5373586661,
				"y": 4.2368225327,
				"z": 4.5303071006,
				"element": "H" 
			},
			{
				"x": 0.4047353995,
				"y": 3.8548062597,
				"z": 2.9847042281,
				"element": "H" 
			}
		],
		 "valence_orbital": [ 
			{
				"type": "occ",
				"energy": -0.28353,
				"method": "rhf"
			},
			{
				"type": "occ",
				"energy": -0.27508,
				"method": "rhf"
			},
			{
				"type": "occ",
				"energy": -0.25483,
				"method": "rhf"
			},
			{
				"type": "occ",
				"energy": -0.24427,
				"method": "rhf"
			},
			{
				"type": "occ",
				"energy": -0.22967,
				"method": "rhf"
			},
			{
				"type": "unocc",
				"energy": -0.07287,
				"method": "rhf"
			},
			{
				"type": "unocc",
				"energy": -0.03701,
				"method": "rhf"
			},
			{
				"type": "unocc",
				"energy": -0.02565,
				"method": "rhf"
			},
			{
				"type": "unocc",
				"energy": 0.00616,
				"method": "rhf"
			},
			{
				"type": "unocc",
				"energy": 0.02137,
				"method": "rhf"
			}
		],
		"cosmo_sigma_profile": { 
			"-0.025": 0.0,
			"-0.024": 0.0,
			"-0.023": 0.0,
			"-0.022": 0.0,
			"-0.021": 0.0,
			"-0.02": 0.0,
			"-0.019": 0.36929994668,
			"-0.018": 0.54724146635,
			"-0.017": 0.51851458856,
			"-0.016": 0.838307422201,
			"-0.015": 1.00155343322,
			"-0.014": 1.04848279654,
			"-0.013": 0.881404366641,
			"-0.012": 0.631042639548,
			"-0.011": 1.12072497634,
			"-0.01": 0.918772297653,
			"-0.009": 1.28504203277,
			"-0.008": 2.53257331302,
			"-0.007": 10.598911596,
			"-0.006": 15.2336490983,
			"-0.005": 21.7992661493,
			"-0.004": 23.906710551,
			"-0.003": 19.2941152965,
			"-0.002": 24.0444299417,
			"-0.001": 31.2042847888,
			"0.0": 29.8391932713,
			"0.001": 27.1607379225,
			"0.002": 27.770755357,
			"0.003": 18.1144917079,
			"0.004": 10.7370932408,
			"0.005": 7.5324483299,
			"0.006": 5.08120465014,
			"0.007": 5.88411511552,
			"0.008": 6.76047262987,
			"0.009": 6.07914736869,
			"0.01": 7.05117086616,
			"0.011": 7.81851685438,
			"0.012": 3.89551222088,
			"0.013": 1.04887988718,
			"0.014": 0.816115303204,
			"0.015": 1.17321827079,
			"0.016": 0.457367723579,
			"0.017": 0.0,
			"0.018": 0.0,
			"0.019": 0.0,
			"0.02": 0.0,
			"0.021": 0.0,
			"0.022": 0.0,
			"0.023": 0.0,
			"0.024": 0.0,
			"0.025": 0.0
		}
	}
}
