{
	 "smiles": "CSCCC(NC(=O)OCC1C2=C(C=CC=C2)C2=C1C=CC=C2)C(O)=O", 
	 "Tm": 407.15, 
	 "num_atms": 47, 
	 "gaussian": { 
		 "optdone": 1, 
		 "sigma_profile": "yes", 
		 "theory": "DFT", 
		 "functional": "B3LYP", 
		 "basiset": "6-31G**", 
		 "properties": { 
			 "R2extent": 11931.6595, 
			 "electric_dipole_moment_norm": 6.57159421297, 
			 "electric_quadrupole_moment_norm": 28.407652421, 
			 "total_energy": -1528.66150486, 
			 "HOMO_LUMO_gap": 0.18434, 
			 "cosmo_polarized_energy": -28.22, 
			 "cosmo_cavitation_energy": 52.43, 
			 "cosmo_dispersion_energy": -34.09, 
			 "cosmo_repulsion_energy": 2.55, 
			 "cosmo_total_nonelectrostatic_energy": 20.89, 
			 "SMD_solvation_energy": 9.92 
		},
		"coords": [
			{
				"x": 4.7216891248,
				"y": 1.3546788055,
				"z": 0.4468014917,
				"element": "C" 
			},
			{
				"x": 4.0724660732,
				"y": -0.3483507084,
				"z": 0.5538130817,
				"element": "S" 
			},
			{
				"x": 3.3732994593,
				"y": -0.4855182803,
				"z": -1.1432524052,
				"element": "C" 
			},
			{
				"x": 3.1017635289,
				"y": -1.9336469139,
				"z": -1.5721549401,
				"element": "C" 
			},
			{
				"x": 1.8205063271,
				"y": -2.5783836656,
				"z": -0.9794573643,
				"element": "C" 
			},
			{
				"x": 1.8609226169,
				"y": -2.7385962997,
				"z": 0.4575342299,
				"element": "N" 
			},
			{
				"x": 1.1441332183,
				"y": -2.021047628,
				"z": 1.3793628795,
				"element": "C" 
			},
			{
				"x": 1.0867379951,
				"y": -2.2938222912,
				"z": 2.5609567539,
				"element": "O" 
			},
			{
				"x": 0.5163303367,
				"y": -0.9530306669,
				"z": 0.8080830658,
				"element": "O" 
			},
			{
				"x": -0.1525864174,
				"y": -0.0864916716,
				"z": 1.7487912382,
				"element": "C" 
			},
			{
				"x": -0.8301187783,
				"y": 1.0360161066,
				"z": 0.9582927374,
				"element": "C" 
			},
			{
				"x": -2.0805496505,
				"y": 0.6200692282,
				"z": 0.1955340281,
				"element": "C" 
			},
			{
				"x": -3.1856957909,
				"y": 1.3918223977,
				"z": 0.6127947386,
				"element": "C" 
			},
			{
				"x": -4.4466412781,
				"y": 1.1903445535,
				"z": 0.0477720507,
				"element": "C" 
			},
			{
				"x": -4.5969888112,
				"y": 0.2088154381,
				"z": -0.9342112497,
				"element": "C" 
			},
			{
				"x": -3.5032742139,
				"y": -0.5601328911,
				"z": -1.3453474387,
				"element": "C" 
			},
			{
				"x": -2.2379211539,
				"y": -0.3564852053,
				"z": -0.7823428729,
				"element": "C" 
			},
			{
				"x": -2.7389178487,
				"y": 2.3303240038,
				"z": 1.6505209117,
				"element": "C" 
			},
			{
				"x": -1.3602588195,
				"y": 2.1345801316,
				"z": 1.8695519709,
				"element": "C" 
			},
			{
				"x": -0.6787042551,
				"y": 2.9016425273,
				"z": 2.8082629037,
				"element": "C" 
			},
			{
				"x": -1.3829711002,
				"y": 3.8699310409,
				"z": 3.5336421478,
				"element": "C" 
			},
			{
				"x": -2.7510402845,
				"y": 4.0651947854,
				"z": 3.3160524777,
				"element": "C" 
			},
			{
				"x": -3.4392852578,
				"y": 3.2987246308,
				"z": 2.3728144407,
				"element": "C" 
			},
			{
				"x": 1.6357594462,
				"y": -3.9694929667,
				"z": -1.6103973591,
				"element": "C" 
			},
			{
				"x": 1.241787049,
				"y": -3.9868776841,
				"z": -2.9070099198,
				"element": "O" 
			},
			{
				"x": 1.8710685649,
				"y": -4.9973017353,
				"z": -1.0266521545,
				"element": "O" 
			},
			{
				"x": 5.4771635315,
				"y": 1.4455393339,
				"z": -0.3392293922,
				"element": "H" 
			},
			{
				"x": 5.1883996731,
				"y": 1.5747789054,
				"z": 1.4094879128,
				"element": "H" 
			},
			{
				"x": 3.9214731743,
				"y": 2.0795975145,
				"z": 0.2732010651,
				"element": "H" 
			},
			{
				"x": 4.1103892551,
				"y": -0.0552019514,
				"z": -1.8292514184,
				"element": "H" 
			},
			{
				"x": 2.4578917655,
				"y": 0.1129591943,
				"z": -1.2127167561,
				"element": "H" 
			},
			{
				"x": 3.9617879521,
				"y": -2.5653173124,
				"z": -1.3227796095,
				"element": "H" 
			},
			{
				"x": 3.0142650947,
				"y": -1.9449682478,
				"z": -2.6669796518,
				"element": "H" 
			},
			{
				"x": 0.9605939602,
				"y": -1.9499340572,
				"z": -1.2347319818,
				"element": "H" 
			},
			{
				"x": 2.1929446618,
				"y": -3.6354413406,
				"z": 0.7902750906,
				"element": "H" 
			},
			{
				"x": -0.8784178207,
				"y": -0.6617429554,
				"z": 2.3289936715,
				"element": "H" 
			},
			{
				"x": 0.5935516536,
				"y": 0.3153947768,
				"z": 2.4399587604,
				"element": "H" 
			},
			{
				"x": -0.079905838,
				"y": 1.4488160381,
				"z": 0.2678242255,
				"element": "H" 
			},
			{
				"x": -5.2999163984,
				"y": 1.7833140831,
				"z": 0.3652305993,
				"element": "H" 
			},
			{
				"x": -5.5722468389,
				"y": 0.0395554155,
				"z": -1.3816202933,
				"element": "H" 
			},
			{
				"x": -3.6381665321,
				"y": -1.3231755141,
				"z": -2.1066798661,
				"element": "H" 
			},
			{
				"x": -1.3929552655,
				"y": -0.9598736325,
				"z": -1.0977596584,
				"element": "H" 
			},
			{
				"x": 0.3848824165,
				"y": 2.7587445427,
				"z": 2.9814564545,
				"element": "H" 
			},
			{
				"x": -0.8628043886,
				"y": 4.4744812487,
				"z": 4.2708557416,
				"element": "H" 
			},
			{
				"x": -3.2832044757,
				"y": 4.8208849218,
				"z": 3.8867430673,
				"element": "H" 
			},
			{
				"x": -4.5017176525,
				"y": 3.4559243985,
				"z": 2.208713768,
				"element": "H" 
			},
			{
				"x": 1.0459819914,
				"y": -3.0914004035,
				"z": -3.2175471728,
				"element": "H" 
			}
		],
		 "valence_orbital": [ 
			{
				"type": "occ",
				"energy": -0.25829,
				"method": "rhf"
			},
			{
				"type": "occ",
				"energy": -0.25459,
				"method": "rhf"
			},
			{
				"type": "occ",
				"energy": -0.24901,
				"method": "rhf"
			},
			{
				"type": "occ",
				"energy": -0.22454,
				"method": "rhf"
			},
			{
				"type": "occ",
				"energy": -0.21972,
				"method": "rhf"
			},
			{
				"type": "unocc",
				"energy": -0.03538,
				"method": "rhf"
			},
			{
				"type": "unocc",
				"energy": -0.01706,
				"method": "rhf"
			},
			{
				"type": "unocc",
				"energy": -0.00964,
				"method": "rhf"
			},
			{
				"type": "unocc",
				"energy": 0.00321,
				"method": "rhf"
			},
			{
				"type": "unocc",
				"energy": 0.02407,
				"method": "rhf"
			}
		],
		"cosmo_sigma_profile": { 
			"-0.025": 0.0,
			"-0.024": 0.0,
			"-0.023": 0.0,
			"-0.022": 0.0,
			"-0.021": 0.0,
			"-0.02": 0.471149393207,
			"-0.019": 1.19392254348,
			"-0.018": 1.09793066303,
			"-0.017": 1.32148362529,
			"-0.016": 0.960634339846,
			"-0.015": 1.58512962016,
			"-0.014": 0.607180968744,
			"-0.013": 0.821107477943,
			"-0.012": 1.56232922935,
			"-0.011": 1.6432899534,
			"-0.01": 1.72475537197,
			"-0.009": 2.29767435083,
			"-0.008": 2.76228966362,
			"-0.007": 4.0077817891,
			"-0.006": 19.1842739893,
			"-0.005": 40.4122873469,
			"-0.004": 38.0890897032,
			"-0.003": 36.785582255,
			"-0.002": 32.8128054873,
			"-0.001": 29.4669752856,
			"0.0": 21.1780679113,
			"0.001": 18.8512810547,
			"0.002": 20.7443179345,
			"0.003": 22.6376938691,
			"0.004": 23.6931443424,
			"0.005": 23.7514961887,
			"0.006": 18.7596821436,
			"0.007": 8.10650192542,
			"0.008": 7.14985929444,
			"0.009": 7.37086670795,
			"0.01": 7.12452867197,
			"0.011": 6.70832380735,
			"0.012": 4.92606387821,
			"0.013": 6.07150588204,
			"0.014": 0.764343827099,
			"0.015": 0.0,
			"0.016": 0.0,
			"0.017": 0.0,
			"0.018": 0.0,
			"0.019": 0.0,
			"0.02": 0.0,
			"0.021": 0.0,
			"0.022": 0.0,
			"0.023": 0.0,
			"0.024": 0.0,
			"0.025": 0.0
		}
	}
}
