{
	 "smiles": "FC1=CC(=CC=C1)N1N=NN=C1S", 
	 "Tm": 410.15, 
	 "num_atms": 18, 
	 "gaussian": { 
		 "optdone": 1, 
		 "sigma_profile": "yes", 
		 "theory": "DFT", 
		 "functional": "B3LYP", 
		 "basiset": "6-31G**", 
		 "properties": { 
			 "R2extent": 3007.3624, 
			 "electric_dipole_moment_norm": 5.91469278408, 
			 "electric_quadrupole_moment_norm": 14.4127853172, 
			 "total_energy": -986.713201621, 
			 "HOMO_LUMO_gap": 0.20633, 
			 "cosmo_polarized_energy": -14.44, 
			 "cosmo_cavitation_energy": 25.55, 
			 "cosmo_dispersion_energy": -18.86, 
			 "cosmo_repulsion_energy": 1.41, 
			 "cosmo_total_nonelectrostatic_energy": 8.1, 
			 "SMD_solvation_energy": 2.55 
		},
		"coords": [
			{
				"x": -2.4983693117,
				"y": 0.7541714788,
				"z": 2.7833090116,
				"element": "F" 
			},
			{
				"x": -2.3110962787,
				"y": 0.7047220091,
				"z": 1.4523055045,
				"element": "C" 
			},
			{
				"x": -1.0524888823,
				"y": 1.0162245124,
				"z": 0.9491526808,
				"element": "C" 
			},
			{
				"x": -0.869310052,
				"y": 0.9568264544,
				"z": -0.4357594587,
				"element": "C" 
			},
			{
				"x": -1.9194834114,
				"y": 0.6185409877,
				"z": -1.2937739014,
				"element": "C" 
			},
			{
				"x": -3.170655153,
				"y": 0.3289974376,
				"z": -0.7506112301,
				"element": "C" 
			},
			{
				"x": -3.3777050303,
				"y": 0.3608416621,
				"z": 0.6294553586,
				"element": "C" 
			},
			{
				"x": 0.4020307829,
				"y": 1.2718098767,
				"z": -0.994988178,
				"element": "N" 
			},
			{
				"x": 0.5062576368,
				"y": 2.1476411929,
				"z": -2.0462836731,
				"element": "N" 
			},
			{
				"x": 1.7555913407,
				"y": 2.2171928895,
				"z": -2.3411006496,
				"element": "N" 
			},
			{
				"x": 2.5070702795,
				"y": 1.4117896332,
				"z": -1.5436133363,
				"element": "N" 
			},
			{
				"x": 1.6592876532,
				"y": 0.8288451588,
				"z": -0.7167275548,
				"element": "C" 
			},
			{
				"x": 2.179039698,
				"y": -0.3329948009,
				"z": 0.4959620485,
				"element": "S" 
			},
			{
				"x": -0.2597008897,
				"y": 1.3236796681,
				"z": 1.6208642979,
				"element": "H" 
			},
			{
				"x": -1.7481513815,
				"y": 0.5954102491,
				"z": -2.3632481662,
				"element": "H" 
			},
			{
				"x": -3.9927265546,
				"y": 0.0685036557,
				"z": -1.409344112,
				"element": "H" 
			},
			{
				"x": -4.3414558535,
				"y": 0.1320892463,
				"z": 1.0701460718,
				"element": "H" 
			},
			{
				"x": 0.9415654074,
				"y": -0.7632913117,
				"z": 0.8136552866,
				"element": "H" 
			}
		],
		 "valence_orbital": [ 
			{
				"type": "occ",
				"energy": -0.30402,
				"method": "rhf"
			},
			{
				"type": "occ",
				"energy": -0.29708,
				"method": "rhf"
			},
			{
				"type": "occ",
				"energy": -0.28543,
				"method": "rhf"
			},
			{
				"type": "occ",
				"energy": -0.27307,
				"method": "rhf"
			},
			{
				"type": "occ",
				"energy": -0.26362,
				"method": "rhf"
			},
			{
				"type": "unocc",
				"energy": -0.05729,
				"method": "rhf"
			},
			{
				"type": "unocc",
				"energy": -0.03721,
				"method": "rhf"
			},
			{
				"type": "unocc",
				"energy": -0.01151,
				"method": "rhf"
			},
			{
				"type": "unocc",
				"energy": -0.00333,
				"method": "rhf"
			},
			{
				"type": "unocc",
				"energy": 0.01643,
				"method": "rhf"
			}
		],
		"cosmo_sigma_profile": { 
			"-0.025": 0.0,
			"-0.024": 0.0,
			"-0.023": 0.0,
			"-0.022": 0.0,
			"-0.021": 0.0,
			"-0.02": 0.0,
			"-0.019": 0.0,
			"-0.018": 0.0,
			"-0.017": 0.0,
			"-0.016": 0.0,
			"-0.015": 0.0,
			"-0.014": 0.0,
			"-0.013": 0.63451317984,
			"-0.012": 1.38617011566,
			"-0.011": 1.74574261853,
			"-0.01": 2.02665194394,
			"-0.009": 3.52538119567,
			"-0.008": 8.020772567,
			"-0.007": 10.8073300918,
			"-0.006": 11.6382640872,
			"-0.005": 11.3479101977,
			"-0.004": 9.36712713557,
			"-0.003": 9.49922823238,
			"-0.002": 9.01911478252,
			"-0.001": 15.7688883177,
			"0.0": 18.4107131361,
			"0.001": 17.3296996897,
			"0.002": 15.1571471214,
			"0.003": 13.9475580829,
			"0.004": 13.189990892,
			"0.005": 5.59224319679,
			"0.006": 3.23304240315,
			"0.007": 4.95310556355,
			"0.008": 4.67711322777,
			"0.009": 4.73158066536,
			"0.01": 4.84733734064,
			"0.011": 3.44841616395,
			"0.012": 2.23304366091,
			"0.013": 2.18343681009,
			"0.014": 0.847662388463,
			"0.015": 0.0365649068687,
			"0.016": 0.0,
			"0.017": 0.0,
			"0.018": 0.0,
			"0.019": 0.0,
			"0.02": 0.0,
			"0.021": 0.0,
			"0.022": 0.0,
			"0.023": 0.0,
			"0.024": 0.0,
			"0.025": 0.0
		}
	}
}
