{
	 "smiles": "CC1=C2C=CC=CC2=NC(SCC(O)=O)=C1", 
	 "Tm": 391.15, 
	 "num_atms": 27, 
	 "gaussian": { 
		 "optdone": 1, 
		 "sigma_profile": "yes", 
		 "theory": "DFT", 
		 "functional": "B3LYP", 
		 "basiset": "6-31G**", 
		 "properties": { 
			 "R2extent": 4450.9431, 
			 "electric_dipole_moment_norm": 2.28896981631, 
			 "electric_quadrupole_moment_norm": 14.9278836906, 
			 "total_energy": -1067.32406279, 
			 "HOMO_LUMO_gap": 0.16708, 
			 "cosmo_polarized_energy": -14.72, 
			 "cosmo_cavitation_energy": 32.9, 
			 "cosmo_dispersion_energy": -23.74, 
			 "cosmo_repulsion_energy": 1.8, 
			 "cosmo_total_nonelectrostatic_energy": 10.96, 
			 "SMD_solvation_energy": 5.51 
		},
		"coords": [
			{
				"x": -3.6878829825,
				"y": -0.3109532964,
				"z": -2.6741552033,
				"element": "C" 
			},
			{
				"x": -2.3897387811,
				"y": -0.2356428184,
				"z": -1.9126458744,
				"element": "C" 
			},
			{
				"x": -1.8610758151,
				"y": 1.0233626838,
				"z": -1.4682910038,
				"element": "C" 
			},
			{
				"x": -2.4980212134,
				"y": 2.2679714622,
				"z": -1.7035269295,
				"element": "C" 
			},
			{
				"x": -1.9396788363,
				"y": 3.4456024034,
				"z": -1.2491864102,
				"element": "C" 
			},
			{
				"x": -0.7184420474,
				"y": 3.4277773805,
				"z": -0.5384634158,
				"element": "C" 
			},
			{
				"x": -0.0737606817,
				"y": 2.2342306917,
				"z": -0.2931519373,
				"element": "C" 
			},
			{
				"x": -0.6251775774,
				"y": 1.0109296984,
				"z": -0.7493584635,
				"element": "C" 
			},
			{
				"x": 0.0591324843,
				"y": -0.1428608581,
				"z": -0.4774228131,
				"element": "N" 
			},
			{
				"x": -0.4529803472,
				"y": -1.2730466988,
				"z": -0.8984305973,
				"element": "C" 
			},
			{
				"x": 0.4142984517,
				"y": -2.7958042306,
				"z": -0.5630889452,
				"element": "S" 
			},
			{
				"x": 1.8596705864,
				"y": -2.1449172994,
				"z": 0.3209399574,
				"element": "C" 
			},
			{
				"x": 1.5556687631,
				"y": -1.5857889311,
				"z": 1.7038685094,
				"element": "C" 
			},
			{
				"x": 2.5345891772,
				"y": -0.7261044046,
				"z": 2.0774016737,
				"element": "O" 
			},
			{
				"x": 0.6275634478,
				"y": -1.8781437366,
				"z": 2.417586287,
				"element": "O" 
			},
			{
				"x": -1.6762246365,
				"y": -1.3731759637,
				"z": -1.621545127,
				"element": "C" 
			},
			{
				"x": -3.9324673275,
				"y": -1.3444511742,
				"z": -2.9298951956,
				"element": "H" 
			},
			{
				"x": -4.5173964995,
				"y": 0.0977948215,
				"z": -2.0861377273,
				"element": "H" 
			},
			{
				"x": -3.6374661154,
				"y": 0.2657938447,
				"z": -3.6046713,
				"element": "H" 
			},
			{
				"x": -3.4366591694,
				"y": 2.2935542847,
				"z": -2.2476883212,
				"element": "H" 
			},
			{
				"x": -2.4401141859,
				"y": 4.3908350592,
				"z": -1.437480521,
				"element": "H" 
			},
			{
				"x": -0.2883335549,
				"y": 4.3604552643,
				"z": -0.184871363,
				"element": "H" 
			},
			{
				"x": 0.8642744712,
				"y": 2.1894208082,
				"z": 0.2506704952,
				"element": "H" 
			},
			{
				"x": 2.5417511105,
				"y": -2.9945152758,
				"z": 0.4336020427,
				"element": "H" 
			},
			{
				"x": 2.3538240147,
				"y": -1.3792989955,
				"z": -0.2772525189,
				"element": "H" 
			},
			{
				"x": 2.3031862245,
				"y": -0.4342398845,
				"z": 2.9751723032,
				"element": "H" 
			},
			{
				"x": -2.0372389605,
				"y": -2.348284835,
				"z": -1.935077601,
				"element": "H" 
			}
		],
		 "valence_orbital": [ 
			{
				"type": "occ",
				"energy": -0.27592,
				"method": "rhf"
			},
			{
				"type": "occ",
				"energy": -0.27248,
				"method": "rhf"
			},
			{
				"type": "occ",
				"energy": -0.26174,
				"method": "rhf"
			},
			{
				"type": "occ",
				"energy": -0.23608,
				"method": "rhf"
			},
			{
				"type": "occ",
				"energy": -0.21783,
				"method": "rhf"
			},
			{
				"type": "unocc",
				"energy": -0.05075,
				"method": "rhf"
			},
			{
				"type": "unocc",
				"energy": -0.01599,
				"method": "rhf"
			},
			{
				"type": "unocc",
				"energy": 0.00896,
				"method": "rhf"
			},
			{
				"type": "unocc",
				"energy": 0.02256,
				"method": "rhf"
			},
			{
				"type": "unocc",
				"energy": 0.03238,
				"method": "rhf"
			}
		],
		"cosmo_sigma_profile": { 
			"-0.025": 0.0,
			"-0.024": 0.0,
			"-0.023": 0.0,
			"-0.022": 0.0,
			"-0.021": 0.0,
			"-0.02": 0.0,
			"-0.019": 0.176602105381,
			"-0.018": 0.64483743917,
			"-0.017": 0.958530200537,
			"-0.016": 0.867721354596,
			"-0.015": 1.25926416283,
			"-0.014": 0.689031858484,
			"-0.013": 0.0794534592035,
			"-0.012": 0.417118393357,
			"-0.011": 1.13747877137,
			"-0.01": 1.3619373674,
			"-0.009": 3.65060788244,
			"-0.008": 2.9060034307,
			"-0.007": 6.27732793457,
			"-0.006": 12.7788318886,
			"-0.005": 20.5009381483,
			"-0.004": 21.0311455451,
			"-0.003": 16.7442281466,
			"-0.002": 15.5569590849,
			"-0.001": 16.3235143905,
			"0.0": 15.3750124655,
			"0.001": 18.4526098266,
			"0.002": 21.7471771917,
			"0.003": 18.9113115038,
			"0.004": 18.0357625785,
			"0.005": 11.8867516898,
			"0.006": 7.14116715731,
			"0.007": 7.50754805933,
			"0.008": 5.26473168464,
			"0.009": 3.9975194875,
			"0.01": 2.52277399272,
			"0.011": 4.88856384517,
			"0.012": 3.50414448481,
			"0.013": 1.45571095802,
			"0.014": 0.181591289754,
			"0.015": 0.0,
			"0.016": 0.0,
			"0.017": 0.0,
			"0.018": 0.0,
			"0.019": 0.0,
			"0.02": 0.0,
			"0.021": 0.0,
			"0.022": 0.0,
			"0.023": 0.0,
			"0.024": 0.0,
			"0.0": 0.0
		}
	}
}
