{
	 "smiles": "OC(=O)C1=NON=C1", 
	 "Tm": 376.15, 
	 "num_atms": 10, 
	 "gaussian": { 
		 "optdone": 1, 
		 "sigma_profile": "yes", 
		 "theory": "DFT", 
		 "functional": "B3LYP", 
		 "basiset": "6-31G**", 
		 "properties": { 
			 "R2extent": 1249.2469, 
			 "electric_dipole_moment_norm": 0.988507324201, 
			 "electric_quadrupole_moment_norm": 11.3154733542, 
			 "total_energy": -450.607058911, 
			 "HOMO_LUMO_gap": 0.21409, 
			 "cosmo_polarized_energy": -10.77, 
			 "cosmo_cavitation_energy": 15.9, 
			 "cosmo_dispersion_energy": -11.95, 
			 "cosmo_repulsion_energy": 1.0, 
			 "cosmo_total_nonelectrostatic_energy": 4.96, 
			 "SMD_solvation_energy": 4.34 
		},
		"coords": [
			{
				"x": -1.4363336087,
				"y": 0.7446552932,
				"z": 1.7338952143,
				"element": "O" 
			},
			{
				"x": -2.0549408672,
				"y": -0.1206627346,
				"z": 0.9115380836,
				"element": "C" 
			},
			{
				"x": -3.2451952964,
				"y": -0.3129209119,
				"z": 0.9358762826,
				"element": "O" 
			},
			{
				"x": -1.1629630352,
				"y": -0.8341377373,
				"z": -0.0496248585,
				"element": "C" 
			},
			{
				"x": 0.1307567695,
				"y": -0.6356369363,
				"z": -0.0907521829,
				"element": "N" 
			},
			{
				"x": 0.6019985276,
				"y": -1.4473795292,
				"z": -1.0755324413,
				"element": "O" 
			},
			{
				"x": -0.4188913616,
				"y": -2.1674520058,
				"z": -1.660131373,
				"element": "N" 
			},
			{
				"x": -1.505978753,
				"y": -1.7989893847,
				"z": -1.0392193864,
				"element": "C" 
			},
			{
				"x": -0.4809675609,
				"y": 0.7533923061,
				"z": 1.5527773929,
				"element": "H" 
			},
			{
				"x": -2.4754848141,
				"y": -2.2038683594,
				"z": -1.2891267313,
				"element": "H" 
			}
		],
		 "valence_orbital": [ 
			{
				"type": "occ",
				"energy": -0.35377,
				"method": "rhf"
			},
			{
				"type": "occ",
				"energy": -0.35013,
				"method": "rhf"
			},
			{
				"type": "occ",
				"energy": -0.35006,
				"method": "rhf"
			},
			{
				"type": "occ",
				"energy": -0.33673,
				"method": "rhf"
			},
			{
				"type": "occ",
				"energy": -0.30775,
				"method": "rhf"
			},
			{
				"type": "unocc",
				"energy": -0.09366,
				"method": "rhf"
			},
			{
				"type": "unocc",
				"energy": -0.04129,
				"method": "rhf"
			},
			{
				"type": "unocc",
				"energy": 0.04628,
				"method": "rhf"
			},
			{
				"type": "unocc",
				"energy": 0.07732,
				"method": "rhf"
			},
			{
				"type": "unocc",
				"energy": 0.07951,
				"method": "rhf"
			}
		],
		"cosmo_sigma_profile": { 
			"-0.025": 0.0,
			"-0.024": 0.0,
			"-0.023": 0.0,
			"-0.022": 0.0,
			"-0.021": 0.0,
			"-0.02": 0.0,
			"-0.019": 0.0,
			"-0.018": 0.153699155999,
			"-0.017": 0.76453114152,
			"-0.016": 0.942323344284,
			"-0.015": 0.968665075948,
			"-0.014": 0.252179925189,
			"-0.013": 1.04114152658,
			"-0.012": 2.48179028199,
			"-0.011": 2.72852427034,
			"-0.01": 2.81818858347,
			"-0.009": 2.45987984392,
			"-0.008": 4.34257342383,
			"-0.007": 4.10976746605,
			"-0.006": 7.16065548872,
			"-0.005": 8.43040962898,
			"-0.004": 6.07934785121,
			"-0.003": 4.38094160953,
			"-0.002": 4.7279094266,
			"-0.001": 4.770763566,
			"0.0": 3.97304118176,
			"0.001": 5.42808427426,
			"0.002": 6.6266231315,
			"0.003": 9.191958468,
			"0.004": 7.22261813632,
			"0.005": 6.70551175624,
			"0.006": 5.41103915328,
			"0.007": 4.67192656645,
			"0.008": 6.35636287804,
			"0.009": 5.44331175964,
			"0.01": 6.04461453171,
			"0.011": 2.9429952455,
			"0.012": 0.285187585169,
			"0.013": 0.0,
			"0.014": 0.0,
			"0.015": 0.0,
			"0.016": 0.0,
			"0.017": 0.0,
			"0.018": 0.0,
			"0.019": 0.0,
			"0.02": 0.0,
			"0.021": 0.0,
			"0.022": 0.0,
			"0.023": 0.0,
			"0.024": 0.0,
			"0.025": 0.0
		}
	}
}
