{
	 "smiles": "CC(C)(C)OC(=O)NCCC(N)=S", 
	 "Tm": 383.15, 
	 "num_atms": 29, 
	 "gaussian": { 
		 "optdone": 1, 
		 "sigma_profile": "yes", 
		 "theory": "DFT", 
		 "functional": "B3LYP", 
		 "basiset": "6-31G**", 
		 "properties": { 
			 "R2extent": 4204.4019, 
			 "electric_dipole_moment_norm": 5.07858751328, 
			 "electric_quadrupole_moment_norm": 18.8238561432, 
			 "total_energy": -972.682850011, 
			 "HOMO_LUMO_gap": 0.17777, 
			 "cosmo_polarized_energy": -19.78, 
			 "cosmo_cavitation_energy": 33.26, 
			 "cosmo_dispersion_energy": -22.84, 
			 "cosmo_repulsion_energy": 1.81, 
			 "cosmo_total_nonelectrostatic_energy": 12.23, 
			 "SMD_solvation_energy": 5.38 
		},
		"coords": [
			{
				"x": 0.0413542847,
				"y": 0.0619731316,
				"z": -2.5780634603,
				"element": "C" 
			},
			{
				"x": 0.7779373889,
				"y": -0.8414626183,
				"z": -1.5827958937,
				"element": "C" 
			},
			{
				"x": 2.2571080857,
				"y": -1.0155879687,
				"z": -1.9440649932,
				"element": "C" 
			},
			{
				"x": 0.0850357051,
				"y": -2.2020673177,
				"z": -1.4688993203,
				"element": "C" 
			},
			{
				"x": 0.6500841609,
				"y": -0.300812951,
				"z": -0.2212091333,
				"element": "O" 
			},
			{
				"x": 1.1873498277,
				"y": 0.9070310576,
				"z": 0.0986162392,
				"element": "C" 
			},
			{
				"x": 1.7378115214,
				"y": 1.6745435342,
				"z": -0.6746989513,
				"element": "O" 
			},
			{
				"x": 1.0386366487,
				"y": 1.1606412102,
				"z": 1.4342571043,
				"element": "N" 
			},
			{
				"x": 0.2968019783,
				"y": 0.3546943747,
				"z": 2.3890358898,
				"element": "C" 
			},
			{
				"x": -1.2220504341,
				"y": 0.5832079059,
				"z": 2.3434133655,
				"element": "C" 
			},
			{
				"x": -1.6500742963,
				"y": 1.9997244162,
				"z": 2.6984789693,
				"element": "C" 
			},
			{
				"x": -2.6657854451,
				"y": 2.4739585066,
				"z": 1.9564306895,
				"element": "N" 
			},
			{
				"x": -0.9593844932,
				"y": 2.8932291907,
				"z": 3.9250415285,
				"element": "S" 
			},
			{
				"x": -1.0030151343,
				"y": 0.1899299703,
				"z": -2.2741774417,
				"element": "H" 
			},
			{
				"x": 0.5158291694,
				"y": 1.0414460717,
				"z": -2.6372039643,
				"element": "H" 
			},
			{
				"x": 0.0497852905,
				"y": -0.3992930421,
				"z": -3.5710361163,
				"element": "H" 
			},
			{
				"x": 2.3421540503,
				"y": -1.5233999169,
				"z": -2.9103409532,
				"element": "H" 
			},
			{
				"x": 2.7614035377,
				"y": -1.6305247801,
				"z": -1.1918340125,
				"element": "H" 
			},
			{
				"x": 2.7592288776,
				"y": -0.0500797432,
				"z": -2.0064863555,
				"element": "H" 
			},
			{
				"x": 0.1087655296,
				"y": -2.7182803527,
				"z": -2.4331947351,
				"element": "H" 
			},
			{
				"x": 0.5865352787,
				"y": -2.8307633485,
				"z": -0.7273287153,
				"element": "H" 
			},
			{
				"x": -0.9601366659,
				"y": -2.0809935119,
				"z": -1.1682147028,
				"element": "H" 
			},
			{
				"x": 1.3160395538,
				"y": 2.0914997239,
				"z": 1.7094255875,
				"element": "H" 
			},
			{
				"x": 0.5015147847,
				"y": -0.6998628991,
				"z": 2.1943956805,
				"element": "H" 
			},
			{
				"x": 0.6642619324,
				"y": 0.6014284706,
				"z": 3.3874981944,
				"element": "H" 
			},
			{
				"x": -1.5918954434,
				"y": 0.3101992113,
				"z": 1.3476902418,
				"element": "H" 
			},
			{
				"x": -1.700575137,
				"y": -0.0931489842,
				"z": 3.0640339021,
				"element": "H" 
			},
			{
				"x": -3.0598153189,
				"y": 1.9448012985,
				"z": 1.1922030535,
				"element": "H" 
			},
			{
				"x": -3.0221052379,
				"y": 3.4006693604,
				"z": 2.1433283027,
				"element": "H" 
			}
		],
		 "valence_orbital": [ 
			{
				"type": "occ",
				"energy": -0.28839,
				"method": "rhf"
			},
			{
				"type": "occ",
				"energy": -0.25933,
				"method": "rhf"
			},
			{
				"type": "occ",
				"energy": -0.2499,
				"method": "rhf"
			},
			{
				"type": "occ",
				"energy": -0.23752,
				"method": "rhf"
			},
			{
				"type": "occ",
				"energy": -0.21476,
				"method": "rhf"
			},
			{
				"type": "unocc",
				"energy": -0.03699,
				"method": "rhf"
			},
			{
				"type": "unocc",
				"energy": 0.05209,
				"method": "rhf"
			},
			{
				"type": "unocc",
				"energy": 0.05841,
				"method": "rhf"
			},
			{
				"type": "unocc",
				"energy": 0.0782,
				"method": "rhf"
			},
			{
				"type": "unocc",
				"energy": 0.08414,
				"method": "rhf"
			}
		],
		"cosmo_sigma_profile": { 
			"-0.025": 0.0,
			"-0.024": 0.0,
			"-0.023": 0.0,
			"-0.022": 0.0,
			"-0.021": 0.0,
			"-0.02": 0.0,
			"-0.019": 0.0,
			"-0.018": 0.0,
			"-0.017": 0.0,
			"-0.016": 0.635291684999,
			"-0.015": 2.35339496665,
			"-0.014": 2.91748714578,
			"-0.013": 2.03018745161,
			"-0.012": 3.98608926986,
			"-0.011": 2.65992016822,
			"-0.01": 2.7429232026,
			"-0.009": 2.01003177428,
			"-0.008": 2.63258232123,
			"-0.007": 3.48359466735,
			"-0.006": 5.32208637132,
			"-0.005": 7.40386134732,
			"-0.004": 18.5949170746,
			"-0.003": 27.1458139398,
			"-0.002": 21.2800720132,
			"-0.001": 23.1533569949,
			"0.0": 27.5067922916,
			"0.001": 24.7540200473,
			"0.002": 10.6786604142,
			"0.003": 8.22653996091,
			"0.004": 8.99105828853,
			"0.005": 7.37127142386,
			"0.006": 6.42748676933,
			"0.007": 6.05306560658,
			"0.008": 5.82194488921,
			"0.009": 7.41720522173,
			"0.01": 6.10611774905,
			"0.011": 4.58029211612,
			"0.012": 3.41840455476,
			"0.013": 3.08733523514,
			"0.014": 2.74834451342,
			"0.015": 0.199025890558,
			"0.016": 0.0,
			"0.017": 0.0,
			"0.018": 0.0,
			"0.019": 0.0,
			"0.02": 0.0,
			"0.021": 0.0,
			"0.022": 0.0,
			"0.023": 0.0,
			"0.024": 0.0,
			"0.025": 0.0
		}
	}
}
