{
	 "smiles": "CSC1CCCCC1", 
	 "Tm": 193.15, 
	 "num_atms": 22, 
	 "gaussian": { 
		 "optdone": 1, 
		 "sigma_profile": "yes", 
		 "theory": "DFT", 
		 "functional": "B3LYP", 
		 "basiset": "6-31G**", 
		 "properties": { 
			 "R2extent": 1409.5423, 
			 "electric_dipole_moment_norm": 1.57745658894, 
			 "electric_quadrupole_moment_norm": 3.83214148356, 
			 "total_energy": -673.389179417, 
			 "HOMO_LUMO_gap": 0.25944, 
			 "cosmo_polarized_energy": -3.93, 
			 "cosmo_cavitation_energy": 23.33, 
			 "cosmo_dispersion_energy": -18.0, 
			 "cosmo_repulsion_energy": 1.44, 
			 "cosmo_total_nonelectrostatic_energy": 6.77, 
			 "SMD_solvation_energy": 3.22 
		},
		"coords": [
			{
				"x": 1.2928790095,
				"y": 0.5943085239,
				"z": -3.0449562338,
				"element": "C" 
			},
			{
				"x": 0.0864778832,
				"y": -0.0575169618,
				"z": -1.8399581651,
				"element": "S" 
			},
			{
				"x": 0.555590217,
				"y": 0.9205844425,
				"z": -0.3319503049,
				"element": "C" 
			},
			{
				"x": 1.8922946943,
				"y": 0.4786999932,
				"z": 0.2936818519,
				"element": "C" 
			},
			{
				"x": 1.8091212232,
				"y": -0.8977734438,
				"z": 0.9703343361,
				"element": "C" 
			},
			{
				"x": 0.6727686576,
				"y": -0.9503301202,
				"z": 2.0032063843,
				"element": "C" 
			},
			{
				"x": -0.6715459477,
				"y": -0.5501789583,
				"z": 1.3757701863,
				"element": "C" 
			},
			{
				"x": -0.5847821083,
				"y": 0.8281816956,
				"z": 0.700186067,
				"element": "C" 
			},
			{
				"x": 1.0591557954,
				"y": 0.1292648746,
				"z": -4.0053345053,
				"element": "H" 
			},
			{
				"x": 2.3205214308,
				"y": 0.3372578671,
				"z": -2.7760340298,
				"element": "H" 
			},
			{
				"x": 1.199942122,
				"y": 1.6793134791,
				"z": -3.1487352819,
				"element": "H" 
			},
			{
				"x": 0.6385654683,
				"y": 1.9591095724,
				"z": -0.6737204998,
				"element": "H" 
			},
			{
				"x": 2.1687171803,
				"y": 1.2346383621,
				"z": 1.0442508769,
				"element": "H" 
			},
			{
				"x": 2.6903488759,
				"y": 0.4895785591,
				"z": -0.4572836854,
				"element": "H" 
			},
			{
				"x": 1.6394474178,
				"y": -1.6639981196,
				"z": 0.2040078509,
				"element": "H" 
			},
			{
				"x": 2.7685689589,
				"y": -1.1325141167,
				"z": 1.4465783197,
				"element": "H" 
			},
			{
				"x": 0.6039211798,
				"y": -1.9535270905,
				"z": 2.4404950311,
				"element": "H" 
			},
			{
				"x": 0.9025762133,
				"y": -0.2640448997,
				"z": 2.8315496373,
				"element": "H" 
			},
			{
				"x": -1.4594314606,
				"y": -0.5352844588,
				"z": 2.1382922614,
				"element": "H" 
			},
			{
				"x": -0.9682062223,
				"y": -1.3052135806,
				"z": 0.6363298215,
				"element": "H" 
			},
			{
				"x": -1.5379475615,
				"y": 1.0915791157,
				"z": 0.229445327,
				"element": "H" 
			},
			{
				"x": -0.3905830268,
				"y": 1.5886652648,
				"z": 1.4700447548,
				"element": "H" 
			}
		],
		 "valence_orbital": [ 
			{
				"type": "occ",
				"energy": -0.32627,
				"method": "rhf"
			},
			{
				"type": "occ",
				"energy": -0.30131,
				"method": "rhf"
			},
			{
				"type": "occ",
				"energy": -0.30056,
				"method": "rhf"
			},
			{
				"type": "occ",
				"energy": -0.2867,
				"method": "rhf"
			},
			{
				"type": "occ",
				"energy": -0.21293,
				"method": "rhf"
			},
			{
				"type": "unocc",
				"energy": 0.04651,
				"method": "rhf"
			},
			{
				"type": "unocc",
				"energy": 0.07485,
				"method": "rhf"
			},
			{
				"type": "unocc",
				"energy": 0.08065,
				"method": "rhf"
			},
			{
				"type": "unocc",
				"energy": 0.11242,
				"method": "rhf"
			},
			{
				"type": "unocc",
				"energy": 0.12033,
				"method": "rhf"
			}
		],
		"cosmo_sigma_profile": { 
			"-0.025": 0.0,
			"-0.024": 0.0,
			"-0.023": 0.0,
			"-0.022": 0.0,
			"-0.021": 0.0,
			"-0.02": 0.0,
			"-0.019": 0.0,
			"-0.018": 0.0,
			"-0.017": 0.0,
			"-0.016": 0.0,
			"-0.015": 0.0,
			"-0.014": 0.0,
			"-0.013": 0.0,
			"-0.012": 0.0,
			"-0.011": 0.0,
			"-0.01": 0.0,
			"-0.009": 0.0,
			"-0.008": 0.0,
			"-0.007": 0.0,
			"-0.006": 0.827808746906,
			"-0.005": 4.847183639,
			"-0.004": 9.2525186262,
			"-0.003": 16.2688640068,
			"-0.002": 29.5817687515,
			"-0.001": 31.6968955043,
			"0.0": 33.3989620652,
			"0.001": 23.2427227697,
			"0.002": 7.30941837018,
			"0.003": 3.2076358658,
			"0.004": 3.05393895509,
			"0.005": 2.75070987513,
			"0.006": 3.58354215554,
			"0.007": 3.34810231782,
			"0.008": 2.7314423213,
			"0.009": 2.32605906076,
			"0.01": 1.64865676616,
			"0.011": 1.90860828009,
			"0.012": 0.523729516828,
			"0.013": 0.00414079571348,
			"0.014": 0.0,
			"0.015": 0.0,
			"0.016": 0.0,
			"0.017": 0.0,
			"0.018": 0.0,
			"0.019": 0.0,
			"0.02": 0.0,
			"0.021": 0.0,
			"0.022": 0.0,
			"0.023": 0.0,
			"0.024": 0.0,
			"0.025": 0.0
		}
	}
}
