{
	 "smiles": "NS(=O)(=O)C1=CC2=C(CC(O)CS2(=O)=O)S1", 
	 "Tm": 460.15, 
	 "num_atms": 25, 
	 "gaussian": { 
		 "optdone": 1, 
		 "sigma_profile": "yes", 
		 "theory": "DFT", 
		 "functional": "B3LYP", 
		 "basiset": "6-31G**", 
		 "properties": { 
			 "R2extent": 6907.2351, 
			 "electric_dipole_moment_norm": 8.11631283281, 
			 "electric_quadrupole_moment_norm": 24.0450846771, 
			 "total_energy": -1897.43395908, 
			 "HOMO_LUMO_gap": 0.19912, 
			 "cosmo_polarized_energy": -34.51, 
			 "cosmo_cavitation_energy": 33.19, 
			 "cosmo_dispersion_energy": -25.45, 
			 "cosmo_repulsion_energy": 1.86, 
			 "cosmo_total_nonelectrostatic_energy": 9.59, 
			 "SMD_solvation_energy": 3.67 
		},
		"coords": [
			{
				"x": 3.5775071318,
				"y": -3.8730556913,
				"z": -1.3395598894,
				"element": "N" 
			},
			{
				"x": 2.0342208277,
				"y": -4.4054736047,
				"z": -0.9823028242,
				"element": "S" 
			},
			{
				"x": 2.1551006527,
				"y": -5.1776437461,
				"z": 0.2503704141,
				"element": "O" 
			},
			{
				"x": 1.4916046119,
				"y": -4.9308107203,
				"z": -2.2289469715,
				"element": "O" 
			},
			{
				"x": 1.0602839143,
				"y": -2.9661668593,
				"z": -0.5778426375,
				"element": "C" 
			},
			{
				"x": 0.3224605679,
				"y": -2.2204585609,
				"z": -1.4535703445,
				"element": "C" 
			},
			{
				"x": -0.3082838793,
				"y": -1.1245397284,
				"z": -0.7946474849,
				"element": "C" 
			},
			{
				"x": -0.0582787927,
				"y": -1.0469999999,
				"z": 0.5554775972,
				"element": "C" 
			},
			{
				"x": -0.5421824026,
				"y": -0.0040763707,
				"z": 1.5266323086,
				"element": "C" 
			},
			{
				"x": -1.7407984064,
				"y": 0.8031588702,
				"z": 0.9923027814,
				"element": "C" 
			},
			{
				"x": -2.0961346036,
				"y": 1.8382436767,
				"z": 1.8891984477,
				"element": "O" 
			},
			{
				"x": -1.4688117618,
				"y": 1.3568351633,
				"z": -0.4158336204,
				"element": "C" 
			},
			{
				"x": -1.3777081859,
				"y": 0.0264112626,
				"z": -1.649237802,
				"element": "S" 
			},
			{
				"x": -0.6714755372,
				"y": 0.5074544459,
				"z": -2.8445837322,
				"element": "O" 
			},
			{
				"x": -2.7184227459,
				"y": -0.5640105799,
				"z": -1.7682814127,
				"element": "O" 
			},
			{
				"x": 0.9741323412,
				"y": -2.3563756369,
				"z": 1.0557022512,
				"element": "S" 
			},
			{
				"x": 3.6307933029,
				"y": -3.3044581232,
				"z": -2.178095101,
				"element": "H" 
			},
			{
				"x": 4.0738576532,
				"y": -3.4883715494,
				"z": -0.542935085,
				"element": "H" 
			},
			{
				"x": 0.2259426186,
				"y": -2.4455251123,
				"z": -2.5085475351,
				"element": "H" 
			},
			{
				"x": -0.8223145524,
				"y": -0.4592106292,
				"z": 2.481877332,
				"element": "H" 
			},
			{
				"x": 0.280052056,
				"y": 0.6956482932,
				"z": 1.7431319913,
				"element": "H" 
			},
			{
				"x": -2.620361036,
				"y": 0.1539036884,
				"z": 0.9405875981,
				"element": "H" 
			},
			{
				"x": -1.3505273401,
				"y": 2.4500190175,
				"z": 1.9672502941,
				"element": "H" 
			},
			{
				"x": -0.5293761231,
				"y": 1.9172250655,
				"z": -0.4698881147,
				"element": "H" 
			},
			{
				"x": -2.2946803111,
				"y": 1.9929774291,
				"z": -0.7442584606,
				"element": "H" 
			}
		],
		 "valence_orbital": [ 
			{
				"type": "occ",
				"energy": -0.31894,
				"method": "rhf"
			},
			{
				"type": "occ",
				"energy": -0.31036,
				"method": "rhf"
			},
			{
				"type": "occ",
				"energy": -0.29715,
				"method": "rhf"
			},
			{
				"type": "occ",
				"energy": -0.28954,
				"method": "rhf"
			},
			{
				"type": "occ",
				"energy": -0.27166,
				"method": "rhf"
			},
			{
				"type": "unocc",
				"energy": -0.07254,
				"method": "rhf"
			},
			{
				"type": "unocc",
				"energy": -0.01916,
				"method": "rhf"
			},
			{
				"type": "unocc",
				"energy": -0.00946,
				"method": "rhf"
			},
			{
				"type": "unocc",
				"energy": 0.02863,
				"method": "rhf"
			},
			{
				"type": "unocc",
				"energy": 0.03525,
				"method": "rhf"
			}
		],
		"cosmo_sigma_profile": { 
			"-0.025": 0.0,
			"-0.024": 0.0,
			"-0.023": 0.0,
			"-0.022": 0.0,
			"-0.021": 0.0,
			"-0.02": 0.0,
			"-0.019": 0.0,
			"-0.018": 0.0,
			"-0.017": 0.506037797602,
			"-0.016": 2.6668970724,
			"-0.015": 4.48097878036,
			"-0.014": 4.22649846373,
			"-0.013": 4.60757165055,
			"-0.012": 3.75968416309,
			"-0.011": 3.67348687128,
			"-0.01": 4.71574418565,
			"-0.009": 9.65319777943,
			"-0.008": 9.97986525206,
			"-0.007": 13.0633751144,
			"-0.006": 14.0781988875,
			"-0.005": 11.1732447852,
			"-0.004": 10.186894719,
			"-0.003": 9.81275248892,
			"-0.002": 9.84301484655,
			"-0.001": 14.7339751752,
			"0.0": 14.1543202013,
			"0.001": 12.0307330713,
			"0.002": 8.59330658798,
			"0.003": 6.03690102415,
			"0.004": 6.59392851702,
			"0.005": 6.36966967502,
			"0.006": 7.04618711452,
			"0.007": 7.58485375809,
			"0.008": 8.06060146172,
			"0.009": 10.7498036721,
			"0.01": 17.7852407161,
			"0.011": 21.6819053821,
			"0.012": 5.87570684131,
			"0.013": 1.49358028728,
			"0.014": 0.0,
			"0.015": 0.0,
			"0.016": 0.0,
			"0.017": 0.0,
			"0.018": 0.0,
			"0.019": 0.0,
			"0.02": 0.0,
			"0.021": 0.0,
			"0.022": 0.0,
			"0.023": 0.0,
			"0.024": 0.0,
			"0.025": 0.0
		}
	}
}
