{
	 "smiles": "CN(CC(=O)NC1CC1)C(=O)CCl", 
	 "Tm": 387.15, 
	 "num_atms": 26, 
	 "gaussian": { 
		 "optdone": 1, 
		 "sigma_profile": "yes", 
		 "theory": "DFT", 
		 "functional": "B3LYP", 
		 "basiset": "6-31G**", 
		 "properties": { 
			 "R2extent": 3836.5576, 
			 "electric_dipole_moment_norm": 6.37764921111, 
			 "electric_quadrupole_moment_norm": 9.34299871455, 
			 "total_energy": -1032.81654197, 
			 "HOMO_LUMO_gap": 0.22784, 
			 "cosmo_polarized_energy": -19.06, 
			 "cosmo_cavitation_energy": 31.1, 
			 "cosmo_dispersion_energy": -21.84, 
			 "cosmo_repulsion_energy": 1.78, 
			 "cosmo_total_nonelectrostatic_energy": 11.04, 
			 "SMD_solvation_energy": 5.11 
		},
		"coords": [
			{
				"x": 1.3871641946,
				"y": -2.0190298305,
				"z": 0.4972650248,
				"element": "C" 
			},
			{
				"x": 0.4427151307,
				"y": -0.9836219625,
				"z": 0.9060245787,
				"element": "N" 
			},
			{
				"x": 0.9354837015,
				"y": 0.3782259547,
				"z": 0.8906040695,
				"element": "C" 
			},
			{
				"x": 0.8720989394,
				"y": 1.0223130466,
				"z": -0.5100263098,
				"element": "C" 
			},
			{
				"x": -0.0315660427,
				"y": 0.7616903125,
				"z": -1.292056528,
				"element": "O" 
			},
			{
				"x": 1.8678281313,
				"y": 1.9193966143,
				"z": -0.7750390099,
				"element": "N" 
			},
			{
				"x": 1.8648241969,
				"y": 2.7485532623,
				"z": -1.9500459085,
				"element": "C" 
			},
			{
				"x": 3.1926694387,
				"y": 3.0661932474,
				"z": -2.5882028813,
				"element": "C" 
			},
			{
				"x": 2.226444346,
				"y": 2.1335937316,
				"z": -3.2752963814,
				"element": "C" 
			},
			{
				"x": -0.8933931527,
				"y": -1.310337553,
				"z": 0.9292883665,
				"element": "C" 
			},
			{
				"x": -1.2977094537,
				"y": -2.4498459659,
				"z": 0.7387208743,
				"element": "O" 
			},
			{
				"x": -1.9105980875,
				"y": -0.2004593432,
				"z": 1.2008082637,
				"element": "C" 
			},
			{
				"x": -1.8244289905,
				"y": 0.4586632369,
				"z": 2.8994497056,
				"element": "Cl" 
			},
			{
				"x": 1.6594920594,
				"y": -1.9124220305,
				"z": -0.5608262867,
				"element": "H" 
			},
			{
				"x": 2.2939744463,
				"y": -1.9544166405,
				"z": 1.1075051623,
				"element": "H" 
			},
			{
				"x": 0.9143821396,
				"y": -2.9889982968,
				"z": 0.6390285043,
				"element": "H" 
			},
			{
				"x": 0.3488308522,
				"y": 0.9994582425,
				"z": 1.5738652101,
				"element": "H" 
			},
			{
				"x": 1.9613825217,
				"y": 0.3778426105,
				"z": 1.2766130729,
				"element": "H" 
			},
			{
				"x": 2.5209678004,
				"y": 2.1466781313,
				"z": -0.0379973169,
				"element": "H" 
			},
			{
				"x": 1.1008248927,
				"y": 3.5238342997,
				"z": -1.9581047473,
				"element": "H" 
			},
			{
				"x": 3.3362415717,
				"y": 4.0650621524,
				"z": -2.9875004102,
				"element": "H" 
			},
			{
				"x": 4.0815342922,
				"y": 2.6289477968,
				"z": -2.1421080301,
				"element": "H" 
			},
			{
				"x": 2.4592845043,
				"y": 1.074585482,
				"z": -3.2789904266,
				"element": "H" 
			},
			{
				"x": 1.6921520117,
				"y": 2.4836068857,
				"z": -4.1521978719,
				"element": "H" 
			},
			{
				"x": -1.7924684323,
				"y": 0.6372096504,
				"z": 0.5142488827,
				"element": "H" 
			},
			{
				"x": -2.8956310117,
				"y": -0.6469230346,
				"z": 1.0930703934,
				"element": "H" 
			}
		],
		 "valence_orbital": [ 
			{
				"type": "occ",
				"energy": -0.29999,
				"method": "rhf"
			},
			{
				"type": "occ",
				"energy": -0.27509,
				"method": "rhf"
			},
			{
				"type": "occ",
				"energy": -0.26505,
				"method": "rhf"
			},
			{
				"type": "occ",
				"energy": -0.25135,
				"method": "rhf"
			},
			{
				"type": "occ",
				"energy": -0.24153,
				"method": "rhf"
			},
			{
				"type": "unocc",
				"energy": -0.01369,
				"method": "rhf"
			},
			{
				"type": "unocc",
				"energy": 0.00792,
				"method": "rhf"
			},
			{
				"type": "unocc",
				"energy": 0.05505,
				"method": "rhf"
			},
			{
				"type": "unocc",
				"energy": 0.06618,
				"method": "rhf"
			},
			{
				"type": "unocc",
				"energy": 0.09034,
				"method": "rhf"
			}
		],
		"cosmo_sigma_profile": { 
			"-0.025": 0.0,
			"-0.024": 0.0,
			"-0.023": 0.0,
			"-0.022": 0.0,
			"-0.021": 0.0,
			"-0.02": 0.0,
			"-0.019": 0.0,
			"-0.018": 0.0,
			"-0.017": 0.0,
			"-0.016": 0.0,
			"-0.015": 0.510456760244,
			"-0.014": 1.57969870167,
			"-0.013": 1.33955561707,
			"-0.012": 1.1901000171,
			"-0.011": 1.30872292085,
			"-0.01": 1.59074554907,
			"-0.009": 2.12169676721,
			"-0.008": 5.18657428464,
			"-0.007": 8.343405126,
			"-0.006": 9.73849657847,
			"-0.005": 20.1385469685,
			"-0.004": 21.1978987538,
			"-0.003": 18.9956321348,
			"-0.002": 19.6154159089,
			"-0.001": 18.1834779642,
			"0.0": 14.7111939036,
			"0.001": 14.5953294057,
			"0.002": 13.7857736048,
			"0.003": 10.8459375048,
			"0.004": 12.0810918968,
			"0.005": 11.9355196224,
			"0.006": 6.4975744398,
			"0.007": 3.10493976582,
			"0.008": 2.84993161275,
			"0.009": 2.91536199685,
			"0.01": 2.69976793458,
			"0.011": 3.45194561441,
			"0.012": 5.6813127462,
			"0.013": 8.02527415276,
			"0.014": 2.67192057038,
			"0.015": 0.0869303858381,
			"0.016": 0.0,
			"0.017": 0.0,
			"0.018": 0.0,
			"0.019": 0.0,
			"0.02": 0.0,
			"0.021": 0.0,
			"0.022": 0.0,
			"0.023": 0.0,
			"0.024": 0.0,
			"0.025": 0.0
		}
	}
}
