{
	 "smiles": "NC1=CC(=CC=C1)C1=NC=CS1", 
	 "Tm": 336.15, 
	 "num_atms": 20, 
	 "gaussian": { 
		 "optdone": 1, 
		 "sigma_profile": "yes", 
		 "theory": "DFT", 
		 "functional": "B3LYP", 
		 "basiset": "6-31G**", 
		 "properties": { 
			 "R2extent": 2750.9148, 
			 "electric_dipole_moment_norm": 2.38045549633, 
			 "electric_quadrupole_moment_norm": 14.245763067, 
			 "total_energy": -855.466913758, 
			 "HOMO_LUMO_gap": 0.15565, 
			 "cosmo_polarized_energy": -11.36, 
			 "cosmo_cavitation_energy": 25.65, 
			 "cosmo_dispersion_energy": -19.81, 
			 "cosmo_repulsion_energy": 1.51, 
			 "cosmo_total_nonelectrostatic_energy": 7.35, 
			 "SMD_solvation_energy": 3.13 
		},
		"coords": [
			{
				"x": 0.1000430251,
				"y": -2.5995521385,
				"z": -2.9987790146,
				"element": "N" 
			},
			{
				"x": -0.3006569368,
				"y": -2.3050954046,
				"z": -1.6938480444,
				"element": "C" 
			},
			{
				"x": 0.2520111681,
				"y": -1.2146743271,
				"z": -1.0066745284,
				"element": "C" 
			},
			{
				"x": -0.0999255328,
				"y": -0.943892019,
				"z": 0.3224525254,
				"element": "C" 
			},
			{
				"x": -1.0232791242,
				"y": -1.7746531578,
				"z": 0.9801871017,
				"element": "C" 
			},
			{
				"x": -1.5719560829,
				"y": -2.8567945947,
				"z": 0.2977072618,
				"element": "C" 
			},
			{
				"x": -1.2222113315,
				"y": -3.1283616026,
				"z": -1.0234127787,
				"element": "C" 
			},
			{
				"x": 0.4713473834,
				"y": 0.1967245698,
				"z": 1.0533626827,
				"element": "C" 
			},
			{
				"x": 0.1516922298,
				"y": 0.5165455508,
				"z": 2.2811056474,
				"element": "N" 
			},
			{
				"x": 0.8363965085,
				"y": 1.621870545,
				"z": 2.7139770521,
				"element": "C" 
			},
			{
				"x": 1.7046672185,
				"y": 2.1802782522,
				"z": 1.8198558343,
				"element": "C" 
			},
			{
				"x": 1.6789242007,
				"y": 1.2801671088,
				"z": 0.3404529496,
				"element": "S" 
			},
			{
				"x": -0.562715892,
				"y": -3.138435779,
				"z": -3.5389140278,
				"element": "H" 
			},
			{
				"x": 0.4642543341,
				"y": -1.8168718401,
				"z": -3.524449986,
				"element": "H" 
			},
			{
				"x": 0.9661125081,
				"y": -0.5782885318,
				"z": -1.5240543786,
				"element": "H" 
			},
			{
				"x": -1.2909364532,
				"y": -1.5562324409,
				"z": 2.0066953473,
				"element": "H" 
			},
			{
				"x": -2.2870765788,
				"y": -3.5016699876,
				"z": 0.8008252841,
				"element": "H" 
			},
			{
				"x": -1.6559634178,
				"y": -3.9799380322,
				"z": -1.5416353554,
				"element": "H" 
			},
			{
				"x": 0.6620089013,
				"y": 1.9920483795,
				"z": 3.7178277357,
				"element": "H" 
			},
			{
				"x": 2.3413638725,
				"y": 3.0445254498,
				"z": 1.9427186916,
				"element": "H" 
			}
		],
		 "valence_orbital": [ 
			{
				"type": "occ",
				"energy": -0.28085,
				"method": "rhf"
			},
			{
				"type": "occ",
				"energy": -0.27059,
				"method": "rhf"
			},
			{
				"type": "occ",
				"energy": -0.26861,
				"method": "rhf"
			},
			{
				"type": "occ",
				"energy": -0.22282,
				"method": "rhf"
			},
			{
				"type": "occ",
				"energy": -0.20286,
				"method": "rhf"
			},
			{
				"type": "unocc",
				"energy": -0.04721,
				"method": "rhf"
			},
			{
				"type": "unocc",
				"energy": 0.01205,
				"method": "rhf"
			},
			{
				"type": "unocc",
				"energy": 0.02449,
				"method": "rhf"
			},
			{
				"type": "unocc",
				"energy": 0.02713,
				"method": "rhf"
			},
			{
				"type": "unocc",
				"energy": 0.07016,
				"method": "rhf"
			}
		],
		"cosmo_sigma_profile": { 
			"-0.025": 0.0,
			"-0.024": 0.0,
			"-0.023": 0.0,
			"-0.022": 0.0,
			"-0.021": 0.0,
			"-0.02": 0.0,
			"-0.019": 0.0,
			"-0.018": 0.0,
			"-0.017": 0.0,
			"-0.016": 0.0,
			"-0.015": 0.0,
			"-0.014": 0.0,
			"-0.013": 0.378095345771,
			"-0.012": 2.87183001507,
			"-0.011": 3.09552303376,
			"-0.01": 3.05083969152,
			"-0.009": 5.09223983019,
			"-0.008": 5.54420228889,
			"-0.007": 7.30643753442,
			"-0.006": 8.28418530636,
			"-0.005": 10.6433030795,
			"-0.004": 11.054795486,
			"-0.003": 10.6183331578,
			"-0.002": 10.8513921831,
			"-0.001": 8.54043981303,
			"0.0": 11.0158044587,
			"0.001": 17.4106325032,
			"0.002": 17.7616698181,
			"0.003": 19.1860216806,
			"0.004": 16.2523508192,
			"0.005": 14.3303189235,
			"0.006": 9.33234370685,
			"0.007": 3.26826715201,
			"0.008": 2.08749887047,
			"0.009": 1.84193171379,
			"0.01": 2.70585484658,
			"0.011": 1.89212953835,
			"0.012": 1.21065733415,
			"0.013": 1.42594569661,
			"0.014": 0.735988028305,
			"0.015": 0.0650364930958,
			"0.016": 0.0,
			"0.017": 0.0,
			"0.018": 0.0,
			"0.019": 0.0,
			"0.02": 0.0,
			"0.021": 0.0,
			"0.022": 0.0,
			"0.023": 0.0,
			"0.024": 0.0,
			"0.025": 0.0
		}
	}
}
