{
	 "smiles": "NC(=O)CCN1C=CC(N)=N1", 
	 "Tm": 416.15, 
	 "num_atms": 21, 
	 "gaussian": { 
		 "optdone": 1, 
		 "sigma_profile": "yes", 
		 "theory": "DFT", 
		 "functional": "B3LYP", 
		 "basiset": "6-31G**", 
		 "properties": { 
			 "R2extent": 2045.497, 
			 "electric_dipole_moment_norm": 3.87754058651, 
			 "electric_quadrupole_moment_norm": 9.76596319213, 
			 "total_energy": -528.894026816, 
			 "HOMO_LUMO_gap": 0.21508, 
			 "cosmo_polarized_energy": -18.98, 
			 "cosmo_cavitation_energy": 25.25, 
			 "cosmo_dispersion_energy": -18.2, 
			 "cosmo_repulsion_energy": 1.52, 
			 "cosmo_total_nonelectrostatic_energy": 8.57, 
			 "SMD_solvation_energy": 4.19 
		},
		"coords": [
			{
				"x": 1.213389931,
				"y": 2.8216835149,
				"z": 1.9162614177,
				"element": "N" 
			},
			{
				"x": 0.3520252598,
				"y": 1.7751134432,
				"z": 2.075871853,
				"element": "C" 
			},
			{
				"x": -0.8508747808,
				"y": 1.9356577893,
				"z": 2.2391054963,
				"element": "O" 
			},
			{
				"x": 1.0039279849,
				"y": 0.3912947904,
				"z": 2.0960722646,
				"element": "C" 
			},
			{
				"x": 0.0276147352,
				"y": -0.6966776558,
				"z": 1.6394862906,
				"element": "C" 
			},
			{
				"x": -0.2289046808,
				"y": -0.6550163306,
				"z": 0.2126452572,
				"element": "N" 
			},
			{
				"x": -1.2685371454,
				"y": -0.0785691138,
				"z": -0.4405045079,
				"element": "C" 
			},
			{
				"x": -1.0307113486,
				"y": -0.2214879141,
				"z": -1.7939299136,
				"element": "C" 
			},
			{
				"x": 0.2135026883,
				"y": -0.9013472165,
				"z": -1.8609857287,
				"element": "C" 
			},
			{
				"x": 0.8715713973,
				"y": -1.35765061,
				"z": -3.0069674668,
				"element": "N" 
			},
			{
				"x": 0.7082555459,
				"y": -1.1506910294,
				"z": -0.6479987087,
				"element": "N" 
			},
			{
				"x": 0.8227033143,
				"y": 3.750661831,
				"z": 1.8648359871,
				"element": "H" 
			},
			{
				"x": 2.1763599288,
				"y": 2.68597524,
				"z": 1.6550339796,
				"element": "H" 
			},
			{
				"x": 1.3114666617,
				"y": 0.1871081692,
				"z": 3.1302081382,
				"element": "H" 
			},
			{
				"x": 1.9061627711,
				"y": 0.3605701066,
				"z": 1.4765795433,
				"element": "H" 
			},
			{
				"x": -0.9243316026,
				"y": -0.5634513904,
				"z": 2.1571437996,
				"element": "H" 
			},
			{
				"x": 0.4293060695,
				"y": -1.6853410426,
				"z": 1.8749736637,
				"element": "H" 
			},
			{
				"x": -2.0746253665,
				"y": 0.3922603765,
				"z": 0.1027774986,
				"element": "H" 
			},
			{
				"x": -1.6654631883,
				"y": 0.089844643,
				"z": -2.6100047928,
				"element": "H" 
			},
			{
				"x": 1.8266728787,
				"y": -1.6279067641,
				"z": -2.8041335246,
				"element": "H" 
			},
			{
				"x": 0.8394889469,
				"y": -0.700230837,
				"z": -3.7759705463,
				"element": "H" 
			}
		],
		 "valence_orbital": [ 
			{
				"type": "occ",
				"energy": -0.27516,
				"method": "rhf"
			},
			{
				"type": "occ",
				"energy": -0.27335,
				"method": "rhf"
			},
			{
				"type": "occ",
				"energy": -0.25436,
				"method": "rhf"
			},
			{
				"type": "occ",
				"energy": -0.2276,
				"method": "rhf"
			},
			{
				"type": "occ",
				"energy": -0.19254,
				"method": "rhf"
			},
			{
				"type": "unocc",
				"energy": 0.02254,
				"method": "rhf"
			},
			{
				"type": "unocc",
				"energy": 0.03699,
				"method": "rhf"
			},
			{
				"type": "unocc",
				"energy": 0.0713,
				"method": "rhf"
			},
			{
				"type": "unocc",
				"energy": 0.0862,
				"method": "rhf"
			},
			{
				"type": "unocc",
				"energy": 0.10883,
				"method": "rhf"
			}
		],
		"cosmo_sigma_profile": { 
			"-0.025": 0.0,
			"-0.024": 0.0,
			"-0.023": 0.0,
			"-0.022": 0.0,
			"-0.021": 0.0,
			"-0.02": 0.0,
			"-0.019": 0.0,
			"-0.018": 0.0,
			"-0.017": 0.0,
			"-0.016": 0.0,
			"-0.015": 0.220302283362,
			"-0.014": 1.66978367591,
			"-0.013": 2.62485048247,
			"-0.012": 4.00750949664,
			"-0.011": 4.9740216687,
			"-0.01": 4.36361097805,
			"-0.009": 5.03095853216,
			"-0.008": 5.64814576846,
			"-0.007": 5.09831416267,
			"-0.006": 10.768284921,
			"-0.005": 14.6060289581,
			"-0.004": 13.2232990234,
			"-0.003": 14.0375944197,
			"-0.002": 8.97306595081,
			"-0.001": 7.89943993969,
			"0.0": 7.92808508414,
			"0.001": 6.96974765502,
			"0.002": 8.29142854485,
			"0.003": 8.39454562743,
			"0.004": 8.23319549555,
			"0.005": 8.61587641422,
			"0.006": 8.860902636,
			"0.007": 6.81402192996,
			"0.008": 5.35239453848,
			"0.009": 3.18098901128,
			"0.01": 2.50469475146,
			"0.011": 3.77382143879,
			"0.012": 3.70207701747,
			"0.013": 4.260682928,
			"0.014": 5.02417227804,
			"0.015": 1.97591317803,
			"0.016": 1.35249174935,
			"0.017": 0.158508322841,
			"0.018": 0.0,
			"0.019": 0.0,
			"0.02": 0.0,
			"0.021": 0.0,
			"0.022": 0.0,
			"0.023": 0.0,
			"0.024": 0.0,
			"0.025": 0.0
		}
	}
}
