{
	 "smiles": "CN1N=CC(CCC(O)=O)=C1C", 
	 "Tm": 413.15, 
	 "num_atms": 24, 
	 "gaussian": { 
		 "optdone": 1, 
		 "sigma_profile": "yes", 
		 "theory": "DFT", 
		 "functional": "B3LYP", 
		 "basiset": "6-31G**", 
		 "properties": { 
			 "R2extent": 3099.4727, 
			 "electric_dipole_moment_norm": 4.35497014226, 
			 "electric_quadrupole_moment_norm": 20.4368790095, 
			 "total_energy": -572.031817563, 
			 "HOMO_LUMO_gap": 0.23879, 
			 "cosmo_polarized_energy": -19.16, 
			 "cosmo_cavitation_energy": 28.1, 
			 "cosmo_dispersion_energy": -19.8, 
			 "cosmo_repulsion_energy": 1.61, 
			 "cosmo_total_nonelectrostatic_energy": 9.91, 
			 "SMD_solvation_energy": 5.16 
		},
		"coords": [
			{
				"x": -1.501312019,
				"y": -3.102948088,
				"z": 0.143226205,
				"element": "C" 
			},
			{
				"x": -1.2446639719,
				"y": -1.6962254866,
				"z": 0.3812889408,
				"element": "N" 
			},
			{
				"x": -2.2846832832,
				"y": -0.8561058062,
				"z": 0.5950617735,
				"element": "N" 
			},
			{
				"x": -1.7166563369,
				"y": 0.3293785551,
				"z": 0.7998805333,
				"element": "C" 
			},
			{
				"x": -0.3039662302,
				"y": 0.2714609422,
				"z": 0.7241077045,
				"element": "C" 
			},
			{
				"x": 0.6716652487,
				"y": 1.4031975231,
				"z": 0.8768522183,
				"element": "C" 
			},
			{
				"x": 0.7935324067,
				"y": 2.2667898841,
				"z": -0.3897897636,
				"element": "C" 
			},
			{
				"x": 1.8195415611,
				"y": 3.3836290957,
				"z": -0.2494949391,
				"element": "C" 
			},
			{
				"x": 1.905983701,
				"y": 4.2323605741,
				"z": -1.3120309384,
				"element": "O" 
			},
			{
				"x": 2.5361399326,
				"y": 3.5426209985,
				"z": 0.7066068818,
				"element": "O" 
			},
			{
				"x": -0.0337166127,
				"y": -1.0658142388,
				"z": 0.4499319567,
				"element": "C" 
			},
			{
				"x": 1.258689769,
				"y": -1.7941122856,
				"z": 0.2579429394,
				"element": "C" 
			},
			{
				"x": -2.5828123642,
				"y": -3.2323492806,
				"z": 0.1298975328,
				"element": "H" 
			},
			{
				"x": -1.0862150187,
				"y": -3.4228806604,
				"z": -0.8183034682,
				"element": "H" 
			},
			{
				"x": -1.0734026876,
				"y": -3.7250378322,
				"z": 0.9368892183,
				"element": "H" 
			},
			{
				"x": -2.3397298027,
				"y": 1.1912245951,
				"z": 1.0050245661,
				"element": "H" 
			},
			{
				"x": 1.6666160237,
				"y": 1.029062181,
				"z": 1.1369943852,
				"element": "H" 
			},
			{
				"x": 0.3757219529,
				"y": 2.0494683788,
				"z": 1.7102012914,
				"element": "H" 
			},
			{
				"x": -0.1796474321,
				"y": 2.7058645498,
				"z": -0.6482058169,
				"element": "H" 
			},
			{
				"x": 1.0777589418,
				"y": 1.6437378412,
				"z": -1.2492747296,
				"element": "H" 
			},
			{
				"x": 1.26616165,
				"y": 3.9797091156,
				"z": -1.9928589794,
				"element": "H" 
			},
			{
				"x": 1.3688827258,
				"y": -2.6260774596,
				"z": 0.9638230737,
				"element": "H" 
			},
			{
				"x": 2.1009914106,
				"y": -1.1166783135,
				"z": 0.4148617953,
				"element": "H" 
			},
			{
				"x": 1.3522204353,
				"y": -2.2101747828,
				"z": -0.7529323807,
				"element": "H" 
			}
		],
		 "valence_orbital": [ 
			{
				"type": "occ",
				"energy": -0.31506,
				"method": "rhf"
			},
			{
				"type": "occ",
				"energy": -0.27943,
				"method": "rhf"
			},
			{
				"type": "occ",
				"energy": -0.27253,
				"method": "rhf"
			},
			{
				"type": "occ",
				"energy": -0.24027,
				"method": "rhf"
			},
			{
				"type": "occ",
				"energy": -0.22834,
				"method": "rhf"
			},
			{
				"type": "unocc",
				"energy": 0.01045,
				"method": "rhf"
			},
			{
				"type": "unocc",
				"energy": 0.02286,
				"method": "rhf"
			},
			{
				"type": "unocc",
				"energy": 0.05387,
				"method": "rhf"
			},
			{
				"type": "unocc",
				"energy": 0.07042,
				"method": "rhf"
			},
			{
				"type": "unocc",
				"energy": 0.07591,
				"method": "rhf"
			}
		],
		"cosmo_sigma_profile": { 
			"-0.025": 0.0,
			"-0.024": 0.0,
			"-0.023": 0.0,
			"-0.022": 0.0,
			"-0.021": 0.0,
			"-0.02": 0.0,
			"-0.019": 0.242927175012,
			"-0.018": 1.23584730773,
			"-0.017": 0.902514014952,
			"-0.016": 1.01944407824,
			"-0.015": 1.29769309454,
			"-0.014": 1.10792716511,
			"-0.013": 1.16128044186,
			"-0.012": 1.12482269987,
			"-0.011": 1.23787605548,
			"-0.01": 1.1174868468,
			"-0.009": 1.09814619865,
			"-0.008": 1.69963821349,
			"-0.007": 3.63946340233,
			"-0.006": 11.4753896257,
			"-0.005": 20.9901127932,
			"-0.004": 22.5894159558,
			"-0.003": 23.2811011992,
			"-0.002": 16.7508402853,
			"-0.001": 15.0149417327,
			"0.0": 11.0834725177,
			"0.001": 8.06801771129,
			"0.002": 5.92891732459,
			"0.003": 7.11953881568,
			"0.004": 6.76234085093,
			"0.005": 6.73195933401,
			"0.006": 7.15825531348,
			"0.007": 5.33808211719,
			"0.008": 4.3624704633,
			"0.009": 4.8387195692,
			"0.01": 5.53462951941,
			"0.011": 7.43941676379,
			"0.012": 6.64895067052,
			"0.013": 3.44639482166,
			"0.014": 1.43894432578,
			"0.015": 1.07452503467,
			"0.016": 0.821017494114,
			"0.017": 0.241586149673,
			"0.018": 0.0,
			"0.019": 0.0,
			"0.02": 0.0,
			"0.021": 0.0,
			"0.022": 0.0,
			"0.023": 0.0,
			"0.024": 0.0,
			"0.025": 0.0
		}
	}
}
