{
	 "smiles": "CN(CC1=CC=C(N)C=C1)S(=O)(=O)C1=CC=C(C)C=C1", 
	 "Tm": 428.0, 
	 "num_atms": 38, 
	 "gaussian": { 
		 "optdone": 1, 
		 "sigma_profile": "yes", 
		 "theory": "DFT", 
		 "functional": "B3LYP", 
		 "basiset": "6-31G**", 
		 "properties": { 
			 "R2extent": 8449.7559, 
			 "electric_dipole_moment_norm": 6.61887356202, 
			 "electric_quadrupole_moment_norm": 25.1707035353, 
			 "total_energy": -1240.52216102, 
			 "HOMO_LUMO_gap": 0.16962, 
			 "cosmo_polarized_energy": -18.67, 
			 "cosmo_cavitation_energy": 42.54, 
			 "cosmo_dispersion_energy": -29.66, 
			 "cosmo_repulsion_energy": 2.24, 
			 "cosmo_total_nonelectrostatic_energy": 15.11, 
			 "SMD_solvation_energy": 6.1 
		},
		"coords": [
			{
				"x": -1.4369658495,
				"y": -0.290098337,
				"z": 1.2353011608,
				"element": "C" 
			},
			{
				"x": -0.445643393,
				"y": 0.7699472712,
				"z": 1.010332125,
				"element": "N" 
			},
			{
				"x": -0.1110062852,
				"y": 1.5537441181,
				"z": 2.225811016,
				"element": "C" 
			},
			{
				"x": 0.6719670971,
				"y": 0.7226493529,
				"z": 3.2184066839,
				"element": "C" 
			},
			{
				"x": 1.904546406,
				"y": 0.1519416333,
				"z": 2.8696947228,
				"element": "C" 
			},
			{
				"x": 2.6438668056,
				"y": -0.5866080112,
				"z": 3.7855924154,
				"element": "C" 
			},
			{
				"x": 2.1733722309,
				"y": -0.7797732258,
				"z": 5.0982288841,
				"element": "C" 
			},
			{
				"x": 2.9428206348,
				"y": -1.4691023253,
				"z": 6.0366655215,
				"element": "N" 
			},
			{
				"x": 0.9387082702,
				"y": -0.2130059394,
				"z": 5.4520195158,
				"element": "C" 
			},
			{
				"x": 0.2056801351,
				"y": 0.5214606243,
				"z": 4.5215594233,
				"element": "C" 
			},
			{
				"x": -0.7701743461,
				"y": 1.7174557245,
				"z": -0.3706682449,
				"element": "S" 
			},
			{
				"x": -2.2089952063,
				"y": 1.998675574,
				"z": -0.496261768,
				"element": "O" 
			},
			{
				"x": 0.200218646,
				"y": 2.8185546669,
				"z": -0.3508198149,
				"element": "O" 
			},
			{
				"x": -0.3251594405,
				"y": 0.587400543,
				"z": -1.6903664968,
				"element": "C" 
			},
			{
				"x": 1.0224197527,
				"y": 0.2910135487,
				"z": -1.9152674694,
				"element": "C" 
			},
			{
				"x": 1.3627458728,
				"y": -0.5589509089,
				"z": -2.9618100798,
				"element": "C" 
			},
			{
				"x": 0.3783504981,
				"y": -1.115588911,
				"z": -3.7961794205,
				"element": "C" 
			},
			{
				"x": 0.7683181857,
				"y": -2.0184304258,
				"z": -4.9416594969,
				"element": "C" 
			},
			{
				"x": -0.9622906483,
				"y": -0.7953514865,
				"z": -3.5521471933,
				"element": "C" 
			},
			{
				"x": -1.3223054331,
				"y": 0.0562392897,
				"z": -2.5059274396,
				"element": "C" 
			},
			{
				"x": -1.5441609322,
				"y": -0.8968892089,
				"z": 0.3332878595,
				"element": "H" 
			},
			{
				"x": -1.0608734631,
				"y": -0.9303892432,
				"z": 2.0358241047,
				"element": "H" 
			},
			{
				"x": -2.4209808715,
				"y": 0.1069849675,
				"z": 1.5176696366,
				"element": "H" 
			},
			{
				"x": 0.4763668004,
				"y": 2.4128476592,
				"z": 1.894113916,
				"element": "H" 
			},
			{
				"x": -1.0237855595,
				"y": 1.9406649335,
				"z": 2.7034365783,
				"element": "H" 
			},
			{
				"x": 2.2830331186,
				"y": 0.2843264591,
				"z": 1.8598655871,
				"element": "H" 
			},
			{
				"x": 3.6001582902,
				"y": -1.013962507,
				"z": 3.4929354751,
				"element": "H" 
			},
			{
				"x": 2.4280924397,
				"y": -1.8594540752,
				"z": 6.8138402579,
				"element": "H" 
			},
			{
				"x": 3.6038695173,
				"y": -2.1293777616,
				"z": 5.6515313714,
				"element": "H" 
			},
			{
				"x": 0.5546399709,
				"y": -0.3486563407,
				"z": 6.4602097834,
				"element": "H" 
			},
			{
				"x": -0.749109559,
				"y": 0.9486012146,
				"z": 4.8197084056,
				"element": "H" 
			},
			{
				"x": 1.7867544083,
				"y": 0.7289339675,
				"z": -1.282562022,
				"element": "H" 
			},
			{
				"x": 2.4090880706,
				"y": -0.7934710185,
				"z": -3.1401778065,
				"element": "H" 
			},
			{
				"x": 1.5012216386,
				"y": -2.7685088341,
				"z": -4.6266972415,
				"element": "H" 
			},
			{
				"x": 1.2254358473,
				"y": -1.4436660652,
				"z": -5.7561926782,
				"element": "H" 
			},
			{
				"x": -0.098695545,
				"y": -2.5421763091,
				"z": -5.3527454315,
				"element": "H" 
			},
			{
				"x": -1.7368944117,
				"y": -1.2130380063,
				"z": -4.1896815366,
				"element": "H" 
			},
			{
				"x": -2.3587336928,
				"y": 0.3177573927,
				"z": -2.3225703037,
				"element": "H" 
			}
		],
		 "valence_orbital": [ 
			{
				"type": "occ",
				"energy": -0.26601,
				"method": "rhf"
			},
			{
				"type": "occ",
				"energy": -0.26394,
				"method": "rhf"
			},
			{
				"type": "occ",
				"energy": -0.24921,
				"method": "rhf"
			},
			{
				"type": "occ",
				"energy": -0.24067,
				"method": "rhf"
			},
			{
				"type": "occ",
				"energy": -0.20206,
				"method": "rhf"
			},
			{
				"type": "unocc",
				"energy": -0.03244,
				"method": "rhf"
			},
			{
				"type": "unocc",
				"energy": -0.01627,
				"method": "rhf"
			},
			{
				"type": "unocc",
				"energy": 0.00034,
				"method": "rhf"
			},
			{
				"type": "unocc",
				"energy": 0.01162,
				"method": "rhf"
			},
			{
				"type": "unocc",
				"energy": 0.06652,
				"method": "rhf"
			}
		],
		"cosmo_sigma_profile": { 
			"-0.025": 0.0,
			"-0.024": 0.0,
			"-0.023": 0.0,
			"-0.022": 0.0,
			"-0.021": 0.0,
			"-0.02": 0.0,
			"-0.019": 0.0,
			"-0.018": 0.0,
			"-0.017": 0.0,
			"-0.016": 0.0,
			"-0.015": 0.0,
			"-0.014": 0.0,
			"-0.013": 0.240693567115,
			"-0.012": 2.45440079833,
			"-0.011": 3.01609558336,
			"-0.01": 2.21716836199,
			"-0.009": 3.45156724257,
			"-0.008": 2.78774162856,
			"-0.007": 5.62468406188,
			"-0.006": 12.9131958109,
			"-0.005": 25.2939781656,
			"-0.004": 31.8287660606,
			"-0.003": 32.0990280744,
			"-0.002": 30.2291481465,
			"-0.001": 26.0415508347,
			"0.0": 21.4544500465,
			"0.001": 18.20538353,
			"0.002": 19.372465393,
			"0.003": 22.4110920812,
			"0.004": 14.1800402668,
			"0.005": 11.6271594373,
			"0.006": 13.1992031838,
			"0.007": 6.76418993932,
			"0.008": 4.20406253909,
			"0.009": 4.42898073884,
			"0.01": 7.18554001276,
			"0.011": 8.84625916893,
			"0.012": 5.23279458564,
			"0.013": 0.736568647874,
			"0.014": 0.696368556716,
			"0.015": 0.145976492816,
			"0.016": 0.0,
			"0.017": 0.0,
			"0.018": 0.0,
			"0.019": 0.0,
			"0.02": 0.0,
			"0.021": 0.0,
			"0.022": 0.0,
			"0.023": 0.0,
			"0.024": 0.0,
			"0.025": 0.0
		}
	}
}
