{
	 "smiles": "OC(=O)C1=CC2=CC(OCC3=CC=CC=C3)=CC=C2N1", 
	 "Tm": 470.15, 
	 "num_atms": 33, 
	 "gaussian": { 
		 "optdone": 1, 
		 "sigma_profile": "yes", 
		 "theory": "DFT", 
		 "functional": "B3LYP", 
		 "basiset": "6-31G**", 
		 "properties": { 
			 "R2extent": 9323.4263, 
			 "electric_dipole_moment_norm": 6.07496416039, 
			 "electric_quadrupole_moment_norm": 31.5462719181, 
			 "total_energy": -897.959278604, 
			 "HOMO_LUMO_gap": 0.16018, 
			 "cosmo_polarized_energy": -21.19, 
			 "cosmo_cavitation_energy": 38.07, 
			 "cosmo_dispersion_energy": -27.31, 
			 "cosmo_repulsion_energy": 2.09, 
			 "cosmo_total_nonelectrostatic_energy": 12.85, 
			 "SMD_solvation_energy": 7.34 
		},
		"coords": [
			{
				"x": -4.3639925382,
				"y": 4.1131991587,
				"z": 1.4721131594,
				"element": "O" 
			},
			{
				"x": -3.1189128756,
				"y": 4.5180384119,
				"z": 1.0720716981,
				"element": "C" 
			},
			{
				"x": -2.8792594648,
				"y": 5.6876853248,
				"z": 0.8911988232,
				"element": "O" 
			},
			{
				"x": -2.1334282034,
				"y": 3.4345455246,
				"z": 0.9008498561,
				"element": "C" 
			},
			{
				"x": -0.9942535949,
				"y": 3.4459962698,
				"z": 0.1351651565,
				"element": "C" 
			},
			{
				"x": -0.3901294561,
				"y": 2.1500929175,
				"z": 0.2436989556,
				"element": "C" 
			},
			{
				"x": 0.7632747043,
				"y": 1.5697911873,
				"z": -0.3055434475,
				"element": "C" 
			},
			{
				"x": 1.0883459082,
				"y": 0.2617122036,
				"z": 0.0425855116,
				"element": "C" 
			},
			{
				"x": 2.2353553089,
				"y": -0.2322517444,
				"z": -0.5309008295,
				"element": "O" 
			},
			{
				"x": 2.537251487,
				"y": -1.6191401168,
				"z": -0.416343365,
				"element": "C" 
			},
			{
				"x": 3.1667041776,
				"y": -2.0153735132,
				"z": 0.9067359855,
				"element": "C" 
			},
			{
				"x": 3.9442460443,
				"y": -1.1054605513,
				"z": 1.6320840038,
				"element": "C" 
			},
			{
				"x": 4.5621207772,
				"y": -1.4966468649,
				"z": 2.8202509729,
				"element": "C" 
			},
			{
				"x": 4.4165389615,
				"y": -2.8027927358,
				"z": 3.292939086,
				"element": "C" 
			},
			{
				"x": 3.6443283585,
				"y": -3.7159623238,
				"z": 2.5729385424,
				"element": "C" 
			},
			{
				"x": 3.0198213402,
				"y": -3.3216437772,
				"z": 1.388377229,
				"element": "C" 
			},
			{
				"x": 0.2744613202,
				"y": -0.4773406158,
				"z": 0.9334377891,
				"element": "C" 
			},
			{
				"x": -0.8841599799,
				"y": 0.0766067804,
				"z": 1.4691890622,
				"element": "C" 
			},
			{
				"x": -1.214635253,
				"y": 1.3840274649,
				"z": 1.1126681673,
				"element": "C" 
			},
			{
				"x": -2.309703013,
				"y": 2.1647176741,
				"z": 1.4660071171,
				"element": "N" 
			},
			{
				"x": -4.4616227721,
				"y": 3.163296147,
				"z": 1.3076380776,
				"element": "H" 
			},
			{
				"x": -0.6620537822,
				"y": 4.2831832963,
				"z": -0.4613587162,
				"element": "H" 
			},
			{
				"x": 1.4082755287,
				"y": 2.1127712712,
				"z": -0.9880694896,
				"element": "H" 
			},
			{
				"x": 1.6441882729,
				"y": -2.2267129393,
				"z": -0.616019849,
				"element": "H" 
			},
			{
				"x": 3.2444839374,
				"y": -1.8046128817,
				"z": -1.232764694,
				"element": "H" 
			},
			{
				"x": 4.0527751466,
				"y": -0.0903044365,
				"z": 1.2635029565,
				"element": "H" 
			},
			{
				"x": 5.1590184226,
				"y": -0.7803102806,
				"z": 3.3777627071,
				"element": "H" 
			},
			{
				"x": 4.8987272664,
				"y": -3.1057990734,
				"z": 4.2178383235,
				"element": "H" 
			},
			{
				"x": 3.521333145,
				"y": -4.7324474716,
				"z": 2.9360270556,
				"element": "H" 
			},
			{
				"x": 2.4135096724,
				"y": -4.035540513,
				"z": 0.8345556722,
				"element": "H" 
			},
			{
				"x": 0.5581477013,
				"y": -1.4809189584,
				"z": 1.2238610639,
				"element": "H" 
			},
			{
				"x": -1.5040025169,
				"y": -0.5019321965,
				"z": 2.1478133161,
				"element": "H" 
			},
			{
				"x": -2.8016540312,
				"y": 2.0311273624,
				"z": 2.3388901024,
				"element": "H" 
			}
		],
		 "valence_orbital": [ 
			{
				"type": "occ",
				"energy": -0.27458,
				"method": "rhf"
			},
			{
				"type": "occ",
				"energy": -0.2562,
				"method": "rhf"
			},
			{
				"type": "occ",
				"energy": -0.25064,
				"method": "rhf"
			},
			{
				"type": "occ",
				"energy": -0.22597,
				"method": "rhf"
			},
			{
				"type": "occ",
				"energy": -0.21272,
				"method": "rhf"
			},
			{
				"type": "unocc",
				"energy": -0.05254,
				"method": "rhf"
			},
			{
				"type": "unocc",
				"energy": -0.00995,
				"method": "rhf"
			},
			{
				"type": "unocc",
				"energy": -0.00872,
				"method": "rhf"
			},
			{
				"type": "unocc",
				"energy": 0.00938,
				"method": "rhf"
			},
			{
				"type": "unocc",
				"energy": 0.02638,
				"method": "rhf"
			}
		],
		"cosmo_sigma_profile": { 
			"-0.025": 0.0,
			"-0.024": 0.0,
			"-0.023": 0.0,
			"-0.022": 0.0,
			"-0.021": 0.0,
			"-0.02": 0.0,
			"-0.019": 0.0,
			"-0.018": 0.628033171417,
			"-0.017": 1.98723518129,
			"-0.016": 2.58364543784,
			"-0.015": 2.29147195713,
			"-0.014": 2.09276963675,
			"-0.013": 1.94483509706,
			"-0.012": 2.01013706139,
			"-0.011": 1.58892732289,
			"-0.01": 1.68399449693,
			"-0.009": 1.55774110246,
			"-0.008": 2.24149967572,
			"-0.007": 5.31344093085,
			"-0.006": 17.1462493546,
			"-0.005": 22.1282691779,
			"-0.004": 24.0434114789,
			"-0.003": 19.351993783,
			"-0.002": 16.252358374,
			"-0.001": 14.743984963,
			"0.0": 15.9784116049,
			"0.001": 15.6733654613,
			"0.002": 18.7891659302,
			"0.003": 23.578419141,
			"0.004": 29.8129894495,
			"0.005": 20.2163272807,
			"0.006": 10.191117197,
			"0.007": 3.0464667859,
			"0.008": 4.71262421489,
			"0.009": 4.2522473879,
			"0.01": 5.72220826294,
			"0.011": 6.10758313311,
			"0.012": 5.43006260491,
			"0.013": 1.65954770333,
			"0.014": 0.0404083193917,
			"0.015": 0.0,
			"0.016": 0.0,
			"0.017": 0.0,
			"0.018": 0.0,
			"0.019": 0.0,
			"0.02": 0.0,
			"0.021": 0.0,
			"0.022": 0.0,
			"0.023": 0.0,
			"0.024": 0.0,
			"0.025": 0.0
		}
	}
}
