{
	 "smiles": "CC1=CC=CC(=C1)C(C)(C)C", 
	 "Tm": 231.95, 
	 "num_atms": 27, 
	 "gaussian": { 
		 "optdone": 1, 
		 "sigma_profile": "yes", 
		 "theory": "DFT", 
		 "functional": "B3LYP", 
		 "basiset": "6-31G**", 
		 "properties": { 
			 "R2extent": 2790.7109, 
			 "electric_dipole_moment_norm": 0.30445283707, 
			 "electric_quadrupole_moment_norm": 4.79454079344, 
			 "total_energy": -428.835899923, 
			 "HOMO_LUMO_gap": 0.23515, 
			 "cosmo_polarized_energy": -3.26, 
			 "cosmo_cavitation_energy": 27.93, 
			 "cosmo_dispersion_energy": -19.89, 
			 "cosmo_repulsion_energy": 1.59, 
			 "cosmo_total_nonelectrostatic_energy": 9.63, 
			 "SMD_solvation_energy": 4.99 
		},
		"coords": [
			{
				"x": -3.0257198691,
				"y": -0.3521338724,
				"z": -0.2535572591,
				"element": "C" 
			},
			{
				"x": -1.8212228978,
				"y": -1.2052310038,
				"z": -0.5802169928,
				"element": "C" 
			},
			{
				"x": -1.9285233098,
				"y": -2.5939650024,
				"z": -0.6864520661,
				"element": "C" 
			},
			{
				"x": -0.7974490576,
				"y": -3.3645808017,
				"z": -0.9622511406,
				"element": "C" 
			},
			{
				"x": 0.4430519227,
				"y": -2.7573816935,
				"z": -1.1352296089,
				"element": "C" 
			},
			{
				"x": 0.5873095387,
				"y": -1.3618534644,
				"z": -1.03872274,
				"element": "C" 
			},
			{
				"x": -0.5619195088,
				"y": -0.6119417677,
				"z": -0.7616247951,
				"element": "C" 
			},
			{
				"x": 1.9733579627,
				"y": -0.720123738,
				"z": -1.2403010655,
				"element": "C" 
			},
			{
				"x": 1.9393796146,
				"y": 0.8133725378,
				"z": -1.0977619499,
				"element": "C" 
			},
			{
				"x": 2.4966836152,
				"y": -1.0594140203,
				"z": -2.6564760067,
				"element": "C" 
			},
			{
				"x": 2.9567749109,
				"y": -1.2788877831,
				"z": -0.1842923747,
				"element": "C" 
			},
			{
				"x": -3.0504769639,
				"y": -0.0896484396,
				"z": 0.8117177143,
				"element": "H" 
			},
			{
				"x": -3.959570048,
				"y": -0.8739102243,
				"z": -0.4824788188,
				"element": "H" 
			},
			{
				"x": -3.0168824785,
				"y": 0.5873260013,
				"z": -0.8158684566,
				"element": "H" 
			},
			{
				"x": -2.8955267066,
				"y": -3.0732739656,
				"z": -0.5551147316,
				"element": "H" 
			},
			{
				"x": -0.885504621,
				"y": -4.444555567,
				"z": -1.0461113819,
				"element": "H" 
			},
			{
				"x": 1.3070285817,
				"y": -3.3789014409,
				"z": -1.3516238552,
				"element": "H" 
			},
			{
				"x": -0.4951710751,
				"y": 0.4682402096,
				"z": -0.6822201409,
				"element": "H" 
			},
			{
				"x": 1.2823872858,
				"y": 1.2777236833,
				"z": -1.840539279,
				"element": "H" 
			},
			{
				"x": 1.6036026829,
				"y": 1.1231693411,
				"z": -0.1026497001,
				"element": "H" 
			},
			{
				"x": 2.9450363188,
				"y": 1.2197150851,
				"z": -1.2476469587,
				"element": "H" 
			},
			{
				"x": 3.486451099,
				"y": -0.6158556928,
				"z": -2.8146180042,
				"element": "H" 
			},
			{
				"x": 2.5874988191,
				"y": -2.138837682,
				"z": -2.8092452875,
				"element": "H" 
			},
			{
				"x": 1.8225973899,
				"y": -0.6694389319,
				"z": -3.4262576856,
				"element": "H" 
			},
			{
				"x": 3.0609190905,
				"y": -2.3652686913,
				"z": -0.2593866659,
				"element": "H" 
			},
			{
				"x": 3.9516205009,
				"y": -0.8386086926,
				"z": -0.3177713222,
				"element": "H" 
			},
			{
				"x": 2.6154672028,
				"y": -1.0461343828,
				"z": 0.8298005736,
				"element": "H" 
			}
		],
		 "valence_orbital": [ 
			{
				"type": "occ",
				"energy": -0.32303,
				"method": "rhf"
			},
			{
				"type": "occ",
				"energy": -0.31287,
				"method": "rhf"
			},
			{
				"type": "occ",
				"energy": -0.30967,
				"method": "rhf"
			},
			{
				"type": "occ",
				"energy": -0.23721,
				"method": "rhf"
			},
			{
				"type": "occ",
				"energy": -0.22872,
				"method": "rhf"
			},
			{
				"type": "unocc",
				"energy": 0.00643,
				"method": "rhf"
			},
			{
				"type": "unocc",
				"energy": 0.00869,
				"method": "rhf"
			},
			{
				"type": "unocc",
				"energy": 0.08377,
				"method": "rhf"
			},
			{
				"type": "unocc",
				"energy": 0.10962,
				"method": "rhf"
			},
			{
				"type": "unocc",
				"energy": 0.12332,
				"method": "rhf"
			}
		],
		"cosmo_sigma_profile": { 
			"-0.025": 0.0,
			"-0.024": 0.0,
			"-0.023": 0.0,
			"-0.022": 0.0,
			"-0.021": 0.0,
			"-0.02": 0.0,
			"-0.019": 0.0,
			"-0.018": 0.0,
			"-0.017": 0.0,
			"-0.016": 0.0,
			"-0.015": 0.0,
			"-0.014": 0.0,
			"-0.013": 0.0,
			"-0.012": 0.0,
			"-0.011": 0.0,
			"-0.01": 0.0,
			"-0.009": 0.0,
			"-0.008": 0.0,
			"-0.007": 0.0,
			"-0.006": 0.125487171149,
			"-0.005": 4.70392629448,
			"-0.004": 12.734253473,
			"-0.003": 25.4398675127,
			"-0.002": 33.6698843947,
			"-0.001": 27.3294939468,
			"0.0": 30.0538490012,
			"0.001": 30.6406179771,
			"0.002": 17.010414144,
			"0.003": 8.11530217174,
			"0.004": 6.46600934837,
			"0.005": 6.84289365493,
			"0.006": 7.13636572868,
			"0.007": 6.76039774874,
			"0.008": 0.76602413534,
			"0.009": 0.0,
			"0.01": 0.0,
			"0.011": 0.0,
			"0.012": 0.0,
			"0.013": 0.0,
			"0.014": 0.0,
			"0.015": 0.0,
			"0.016": 0.0,
			"0.017": 0.0,
			"0.018": 0.0,
			"0.019": 0.0,
			"0.02": 0.0,
			"0.021": 0.0,
			"0.022": 0.0,
			"0.023": 0.0,
			"0.024": 0.0,
			"0.025": 0.0
		}
	}
}
