{
	 "smiles": "OC(=O)CNS(=O)(=O)C1=CC=C(C=C1)N1CCCC1=O", 
	 "Tm": 404.15, 
	 "num_atms": 34, 
	 "gaussian": { 
		 "optdone": 1, 
		 "sigma_profile": "yes", 
		 "theory": "DFT", 
		 "functional": "B3LYP", 
		 "basiset": "6-31G**", 
		 "properties": { 
			 "R2extent": 10178.4892, 
			 "electric_dipole_moment_norm": 6.25084047629, 
			 "electric_quadrupole_moment_norm": 34.9282820484, 
			 "total_energy": -1349.4845477, 
			 "HOMO_LUMO_gap": 0.19332, 
			 "cosmo_polarized_energy": -24.79, 
			 "cosmo_cavitation_energy": 39.57, 
			 "cosmo_dispersion_energy": -29.03, 
			 "cosmo_repulsion_energy": 2.2, 
			 "cosmo_total_nonelectrostatic_energy": 12.74, 
			 "SMD_solvation_energy": 6.48 
		},
		"coords": [
			{
				"x": -2.3201895023,
				"y": 4.6714712976,
				"z": 3.9932629497,
				"element": "O" 
			},
			{
				"x": -1.525122505,
				"y": 4.6706116772,
				"z": 2.8970361165,
				"element": "C" 
			},
			{
				"x": -0.5227327493,
				"y": 5.3375597329,
				"z": 2.803730431,
				"element": "O" 
			},
			{
				"x": -2.0788758667,
				"y": 3.7936420237,
				"z": 1.7905738841,
				"element": "C" 
			},
			{
				"x": -2.8358555444,
				"y": 2.6561634488,
				"z": 2.3194358709,
				"element": "N" 
			},
			{
				"x": -3.7380873854,
				"y": 1.7551801896,
				"z": 1.1962189961,
				"element": "S" 
			},
			{
				"x": -4.1278365255,
				"y": 2.6058208836,
				"z": 0.0635960871,
				"element": "O" 
			},
			{
				"x": -4.7395666914,
				"y": 1.0623295394,
				"z": 2.0118588359,
				"element": "O" 
			},
			{
				"x": -2.5416159756,
				"y": 0.575212711,
				"z": 0.5960367956,
				"element": "C" 
			},
			{
				"x": -2.1752328488,
				"y": -0.5017394852,
				"z": 1.4041702739,
				"element": "C" 
			},
			{
				"x": -1.2520437795,
				"y": -1.427573955,
				"z": 0.934517727,
				"element": "C" 
			},
			{
				"x": -0.6847334627,
				"y": -1.2922949861,
				"z": -0.3496780552,
				"element": "C" 
			},
			{
				"x": -1.0696527487,
				"y": -0.2018624511,
				"z": -1.154830906,
				"element": "C" 
			},
			{
				"x": -1.9946414486,
				"y": 0.7224039548,
				"z": -0.6795429255,
				"element": "C" 
			},
			{
				"x": 0.2359550265,
				"y": -2.2575742404,
				"z": -0.8014484247,
				"element": "N" 
			},
			{
				"x": 0.4977526403,
				"y": -3.4886024901,
				"z": -0.0406910631,
				"element": "C" 
			},
			{
				"x": 1.3053923548,
				"y": -4.3638463711,
				"z": -1.0149975175,
				"element": "C" 
			},
			{
				"x": 2.0134493349,
				"y": -3.3435513484,
				"z": -1.9107415342,
				"element": "C" 
			},
			{
				"x": 1.0972000659,
				"y": -2.1243629312,
				"z": -1.8941605401,
				"element": "C" 
			},
			{
				"x": 1.1309887857,
				"y": -1.1954265425,
				"z": -2.6803359733,
				"element": "O" 
			},
			{
				"x": -1.9118994183,
				"y": 5.278122718,
				"z": 4.6335606715,
				"element": "H" 
			},
			{
				"x": -1.2283452066,
				"y": 3.4357336747,
				"z": 1.2057499817,
				"element": "H" 
			},
			{
				"x": -2.6847522483,
				"y": 4.4358584331,
				"z": 1.1336872019,
				"element": "H" 
			},
			{
				"x": -3.4642308859,
				"y": 2.9138064977,
				"z": 3.0783836558,
				"element": "H" 
			},
			{
				"x": -2.6146457575,
				"y": -0.6181925901,
				"z": 2.3887963481,
				"element": "H" 
			},
			{
				"x": -0.9718242099,
				"y": -2.2525729312,
				"z": 1.5774960882,
				"element": "H" 
			},
			{
				"x": -0.6377876524,
				"y": -0.0887751795,
				"z": -2.1379892853,
				"element": "H" 
			},
			{
				"x": -2.3083283672,
				"y": 1.5515368923,
				"z": -1.3041884029,
				"element": "H" 
			},
			{
				"x": 1.0681807034,
				"y": -3.2619951938,
				"z": 0.8707801614,
				"element": "H" 
			},
			{
				"x": -0.4430407542,
				"y": -3.9589892618,
				"z": 0.2583452352,
				"element": "H" 
			},
			{
				"x": 1.9862560945,
				"y": -5.036014187,
				"z": -0.4882543968,
				"element": "H" 
			},
			{
				"x": 0.6222392674,
				"y": -4.9774051666,
				"z": -1.6104046808,
				"element": "H" 
			},
			{
				"x": 2.9843110774,
				"y": -3.0376454149,
				"z": -1.5007785071,
				"element": "H" 
			},
			{
				"x": 2.1816161833,
				"y": -3.6720289487,
				"z": -2.9380950992,
				"element": "H" 
			}
		],
		 "valence_orbital": [ 
			{
				"type": "occ",
				"energy": -0.289,
				"method": "rhf"
			},
			{
				"type": "occ",
				"energy": -0.27369,
				"method": "rhf"
			},
			{
				"type": "occ",
				"energy": -0.27087,
				"method": "rhf"
			},
			{
				"type": "occ",
				"energy": -0.26302,
				"method": "rhf"
			},
			{
				"type": "occ",
				"energy": -0.23652,
				"method": "rhf"
			},
			{
				"type": "unocc",
				"energy": -0.0432,
				"method": "rhf"
			},
			{
				"type": "unocc",
				"energy": -0.02023,
				"method": "rhf"
			},
			{
				"type": "unocc",
				"energy": -0.00668,
				"method": "rhf"
			},
			{
				"type": "unocc",
				"energy": 0.01742,
				"method": "rhf"
			},
			{
				"type": "unocc",
				"energy": 0.05545,
				"method": "rhf"
			}
		],
		"cosmo_sigma_profile": { 
			"-0.025": 0.0,
			"-0.024": 0.0,
			"-0.023": 0.0,
			"-0.022": 0.0,
			"-0.021": 0.0,
			"-0.02": 0.00342640427563,
			"-0.019": 0.536592448797,
			"-0.018": 1.56396431673,
			"-0.017": 0.435456585117,
			"-0.016": 0.532529086236,
			"-0.015": 0.559752573882,
			"-0.014": 1.21585517583,
			"-0.013": 0.956325675459,
			"-0.012": 1.28250943781,
			"-0.011": 1.41204163429,
			"-0.01": 1.57276662387,
			"-0.009": 1.81047942328,
			"-0.008": 5.98347855956,
			"-0.007": 11.549728057,
			"-0.006": 21.4350545393,
			"-0.005": 28.3810948364,
			"-0.004": 29.6164392955,
			"-0.003": 21.5272645447,
			"-0.002": 19.4835834141,
			"-0.001": 17.2203846181,
			"0.0": 15.1725841776,
			"0.001": 15.8062483435,
			"0.002": 19.3053288683,
			"0.003": 16.8098004015,
			"0.004": 8.915246915,
			"0.005": 6.5801809794,
			"0.006": 6.61367425495,
			"0.007": 5.95134011302,
			"0.008": 6.65235909343,
			"0.009": 7.81379438228,
			"0.01": 12.1615041013,
			"0.011": 15.5346672328,
			"0.012": 7.13724489271,
			"0.013": 2.17410856275,
			"0.014": 0.575620833123,
			"0.015": 0.0,
			"0.016": 0.0,
			"0.017": 0.0,
			"0.018": 0.0,
			"0.019": 0.0,
			"0.02": 0.0,
			"0.021": 0.0,
			"0.022": 0.0,
			"0.023": 0.0,
			"0.024": 0.0,
			"0.025": 0.0
		}
	}
}
