{
	 "smiles": "CC(C)C1=NN=C(CCC(O)=O)O1", 
	 "Tm": 358.15, 
	 "num_atms": 25, 
	 "gaussian": { 
		 "optdone": 1, 
		 "sigma_profile": "yes", 
		 "theory": "DFT", 
		 "functional": "B3LYP", 
		 "basiset": "6-31G**", 
		 "properties": { 
			 "R2extent": 4053.5461, 
			 "electric_dipole_moment_norm": 2.76877630913, 
			 "electric_quadrupole_moment_norm": 15.3900453469, 
			 "total_energy": -647.262954447, 
			 "HOMO_LUMO_gap": 0.26008, 
			 "cosmo_polarized_energy": -16.26, 
			 "cosmo_cavitation_energy": 29.53, 
			 "cosmo_dispersion_energy": -20.77, 
			 "cosmo_repulsion_energy": 1.72, 
			 "cosmo_total_nonelectrostatic_energy": 10.49, 
			 "SMD_solvation_energy": 4.6 
		},
		"coords": [
			{
				"x": -2.6993437974,
				"y": 1.7517546578,
				"z": -1.7450135329,
				"element": "C" 
			},
			{
				"x": -2.2228891671,
				"y": 0.4813097419,
				"z": -2.4752611538,
				"element": "C" 
			},
			{
				"x": -3.1913295212,
				"y": -0.6969142021,
				"z": -2.2545805707,
				"element": "C" 
			},
			{
				"x": -0.829500412,
				"y": 0.1163982946,
				"z": -2.0739733864,
				"element": "C" 
			},
			{
				"x": 0.2343784949,
				"y": 0.0451184327,
				"z": -2.8076554066,
				"element": "N" 
			},
			{
				"x": 1.278252915,
				"y": -0.3453850213,
				"z": -1.9566078353,
				"element": "N" 
			},
			{
				"x": 0.7603393501,
				"y": -0.4790718869,
				"z": -0.7793229803,
				"element": "C" 
			},
			{
				"x": 1.429729223,
				"y": -0.8616683395,
				"z": 0.4979682625,
				"element": "C" 
			},
			{
				"x": 2.8285869764,
				"y": -1.4315343774,
				"z": 0.2568032285,
				"element": "C" 
			},
			{
				"x": 2.7771078811,
				"y": -2.8237284501,
				"z": -0.3402444221,
				"element": "C" 
			},
			{
				"x": 3.989533135,
				"y": -3.2136164616,
				"z": -0.7913321599,
				"element": "O" 
			},
			{
				"x": 1.795750116,
				"y": -3.5324233629,
				"z": -0.3910886348,
				"element": "O" 
			},
			{
				"x": -0.5758931532,
				"y": -0.2026446592,
				"z": -0.7650479376,
				"element": "O" 
			},
			{
				"x": -2.0285879044,
				"y": 2.5949139517,
				"z": -1.934966151,
				"element": "H" 
			},
			{
				"x": -3.7010368228,
				"y": 2.0287912435,
				"z": -2.0877401299,
				"element": "H" 
			},
			{
				"x": -2.7448341786,
				"y": 1.5873419546,
				"z": -0.6637040974,
				"element": "H" 
			},
			{
				"x": -2.1582510196,
				"y": 0.6915343096,
				"z": -3.5481705287,
				"element": "H" 
			},
			{
				"x": -4.1944402871,
				"y": -0.4283029726,
				"z": -2.6000297308,
				"element": "H" 
			},
			{
				"x": -2.8669482846,
				"y": -1.5855478038,
				"z": -2.8037134171,
				"element": "H" 
			},
			{
				"x": -3.2559052827,
				"y": -0.9563962525,
				"z": -1.1931533372,
				"element": "H" 
			},
			{
				"x": 0.8079985848,
				"y": -1.601143697,
				"z": 1.0118321318,
				"element": "H" 
			},
			{
				"x": 1.4910973545,
				"y": 0.0195890735,
				"z": 1.1483478373,
				"element": "H" 
			},
			{
				"x": 3.4130346851,
				"y": -0.7880083516,
				"z": -0.4055502698,
				"element": "H" 
			},
			{
				"x": 3.3773363321,
				"y": -1.4994208783,
				"z": 1.2036157884,
				"element": "H" 
			},
			{
				"x": 3.8727147826,
				"y": -4.1116449431,
				"z": -1.1445115665,
				"element": "H" 
			}
		],
		 "valence_orbital": [ 
			{
				"type": "occ",
				"energy": -0.32032,
				"method": "rhf"
			},
			{
				"type": "occ",
				"energy": -0.30997,
				"method": "rhf"
			},
			{
				"type": "occ",
				"energy": -0.27927,
				"method": "rhf"
			},
			{
				"type": "occ",
				"energy": -0.27055,
				"method": "rhf"
			},
			{
				"type": "occ",
				"energy": -0.26182,
				"method": "rhf"
			},
			{
				"type": "unocc",
				"energy": -0.00174,
				"method": "rhf"
			},
			{
				"type": "unocc",
				"energy": 0.00964,
				"method": "rhf"
			},
			{
				"type": "unocc",
				"energy": 0.04006,
				"method": "rhf"
			},
			{
				"type": "unocc",
				"energy": 0.07769,
				"method": "rhf"
			},
			{
				"type": "unocc",
				"energy": 0.08479,
				"method": "rhf"
			}
		],
		"cosmo_sigma_profile": { 
			"-0.025": 0.0,
			"-0.024": 0.0,
			"-0.023": 0.0,
			"-0.022": 0.0,
			"-0.021": 0.0,
			"-0.02": 0.0,
			"-0.019": 0.130709009016,
			"-0.018": 0.667299674262,
			"-0.017": 0.834024784342,
			"-0.016": 1.25440253694,
			"-0.015": 0.608170726444,
			"-0.014": 0.323583622144,
			"-0.013": 0.648004471622,
			"-0.012": 0.818789390583,
			"-0.011": 1.21942981055,
			"-0.01": 0.713947915348,
			"-0.009": 0.261821288055,
			"-0.008": 1.41033723586,
			"-0.007": 7.49410305539,
			"-0.006": 10.2502674531,
			"-0.005": 12.4031535845,
			"-0.004": 23.1696438942,
			"-0.003": 28.6542370825,
			"-0.002": 20.8550099182,
			"-0.001": 19.321155974,
			"0.0": 21.6645614491,
			"0.001": 10.821003965,
			"0.002": 6.32417935818,
			"0.003": 6.48866164226,
			"0.004": 6.63565477865,
			"0.005": 5.75988732104,
			"0.006": 4.46647957163,
			"0.007": 4.84153068861,
			"0.008": 5.30450302876,
			"0.009": 4.70169828233,
			"0.01": 4.41643670853,
			"0.011": 6.39183943125,
			"0.012": 6.48133668556,
			"0.013": 2.70997490159,
			"0.014": 2.20686638157,
			"0.015": 1.33107053263,
			"0.016": 0.412427559172,
			"0.017": 0.0,
			"0.018": 0.0,
			"0.019": 0.0,
			"0.02": 0.0,
			"0.021": 0.0,
			"0.022": 0.0,
			"0.023": 0.0,
			"0.024": 0.0,
			"0.025": 0.0
		}
	}
}
