{
	 "smiles": "O=S1(=O)CCN(CC2=CC=CS2)CC1", 
	 "Tm": 400.15, 
	 "num_atms": 27, 
	 "gaussian": { 
		 "optdone": 1, 
		 "sigma_profile": "yes", 
		 "theory": "DFT", 
		 "functional": "B3LYP", 
		 "basiset": "6-31G**", 
		 "properties": { 
			 "R2extent": 4371.7513, 
			 "electric_dipole_moment_norm": 5.2829233678, 
			 "electric_quadrupole_moment_norm": 31.5691366233, 
			 "total_energy": -1352.27074316, 
			 "HOMO_LUMO_gap": 0.20085, 
			 "cosmo_polarized_energy": -17.33, 
			 "cosmo_cavitation_energy": 31.31, 
			 "cosmo_dispersion_energy": -23.3, 
			 "cosmo_repulsion_energy": 1.72, 
			 "cosmo_total_nonelectrostatic_energy": 9.73, 
			 "SMD_solvation_energy": 1.76 
		},
		"coords": [
			{
				"x": -0.5446866826,
				"y": -4.1940495639,
				"z": -1.1924349594,
				"element": "O" 
			},
			{
				"x": -1.4342766148,
				"y": -3.4391608544,
				"z": -0.2945286702,
				"element": "S" 
			},
			{
				"x": -2.4042454889,
				"y": -4.1377521261,
				"z": 0.5656715544,
				"element": "O" 
			},
			{
				"x": -2.3398226832,
				"y": -2.1953627783,
				"z": -1.2856358735,
				"element": "C" 
			},
			{
				"x": -1.4944554341,
				"y": -0.9354617237,
				"z": -1.4604711953,
				"element": "C" 
			},
			{
				"x": -1.3696854645,
				"y": -0.1987564608,
				"z": -0.2005435605,
				"element": "N" 
			},
			{
				"x": -0.5225838694,
				"y": 0.9966203593,
				"z": -0.2887625153,
				"element": "C" 
			},
			{
				"x": 0.9780204821,
				"y": 0.7959057854,
				"z": -0.3050530066,
				"element": "C" 
			},
			{
				"x": 1.8461161919,
				"y": 0.934505695,
				"z": 0.7500755265,
				"element": "C" 
			},
			{
				"x": 3.2052810839,
				"y": 0.6442925191,
				"z": 0.4214135134,
				"element": "C" 
			},
			{
				"x": 3.3657042173,
				"y": 0.2891092188,
				"z": -0.888852196,
				"element": "C" 
			},
			{
				"x": 1.8543381061,
				"y": 0.3084636668,
				"z": -1.7397997047,
				"element": "S" 
			},
			{
				"x": -1.1695726282,
				"y": -1.027224232,
				"z": 0.9978258702,
				"element": "C" 
			},
			{
				"x": -0.4167877212,
				"y": -2.3427421887,
				"z": 0.7532060202,
				"element": "C" 
			},
			{
				"x": -2.5382377131,
				"y": -2.6848674978,
				"z": -2.2419871511,
				"element": "H" 
			},
			{
				"x": -3.2815084832,
				"y": -1.9892303128,
				"z": -0.7724742466,
				"element": "H" 
			},
			{
				"x": -1.9825992096,
				"y": -0.2828486861,
				"z": -2.1950747327,
				"element": "H" 
			},
			{
				"x": -0.5228240133,
				"y": -1.2264393204,
				"z": -1.8971357272,
				"element": "H" 
			},
			{
				"x": -0.8423884272,
				"y": 1.5518173234,
				"z": -1.1783307395,
				"element": "H" 
			},
			{
				"x": -0.75334964,
				"y": 1.6346556457,
				"z": 0.5722011886,
				"element": "H" 
			},
			{
				"x": 1.5213898412,
				"y": 1.2527214041,
				"z": 1.7357408905,
				"element": "H" 
			},
			{
				"x": 4.025138151,
				"y": 0.7035049836,
				"z": 1.1281891239,
				"element": "H" 
			},
			{
				"x": 4.275454267,
				"y": 0.0189403914,
				"z": -1.4068762169,
				"element": "H" 
			},
			{
				"x": -0.6150901502,
				"y": -0.4456047789,
				"z": 1.7389631474,
				"element": "H" 
			},
			{
				"x": -2.1411989398,
				"y": -1.2636743485,
				"z": 1.4524527331,
				"element": "H" 
			},
			{
				"x": 0.5379473786,
				"y": -2.1917647888,
				"z": 0.2460250524,
				"element": "H" 
			},
			{
				"x": -0.2596765558,
				"y": -2.9014973313,
				"z": 1.6796958749,
				"element": "H" 
			}
		],
		 "valence_orbital": [ 
			{
				"type": "occ",
				"energy": -0.28901,
				"method": "rhf"
			},
			{
				"type": "occ",
				"energy": -0.27588,
				"method": "rhf"
			},
			{
				"type": "occ",
				"energy": -0.26138,
				"method": "rhf"
			},
			{
				"type": "occ",
				"energy": -0.24578,
				"method": "rhf"
			},
			{
				"type": "occ",
				"energy": -0.22558,
				"method": "rhf"
			},
			{
				"type": "unocc",
				"energy": -0.02473,
				"method": "rhf"
			},
			{
				"type": "unocc",
				"energy": 0.01923,
				"method": "rhf"
			},
			{
				"type": "unocc",
				"energy": 0.05144,
				"method": "rhf"
			},
			{
				"type": "unocc",
				"energy": 0.05783,
				"method": "rhf"
			},
			{
				"type": "unocc",
				"energy": 0.06676,
				"method": "rhf"
			}
		],
		"cosmo_sigma_profile": { 
			"-0.025": 0.0,
			"-0.024": 0.0,
			"-0.023": 0.0,
			"-0.022": 0.0,
			"-0.021": 0.0,
			"-0.02": 0.0,
			"-0.019": 0.0,
			"-0.018": 0.0,
			"-0.017": 0.0,
			"-0.016": 0.0,
			"-0.015": 0.0,
			"-0.014": 0.0,
			"-0.013": 0.0,
			"-0.012": 0.0,
			"-0.011": 0.0,
			"-0.01": 0.0,
			"-0.009": 0.743360940321,
			"-0.008": 6.52456647586,
			"-0.007": 10.1195691872,
			"-0.006": 23.1942009771,
			"-0.005": 25.5239361395,
			"-0.004": 24.006200993,
			"-0.003": 20.3879566,
			"-0.002": 16.961937116,
			"-0.001": 13.5417273181,
			"0.0": 9.89530291562,
			"0.001": 11.5124366265,
			"0.002": 11.9087531192,
			"0.003": 10.722482197,
			"0.004": 10.6772574611,
			"0.005": 10.3264463637,
			"0.006": 5.97900474226,
			"0.007": 1.92627692087,
			"0.008": 2.96337274717,
			"0.009": 3.4104151117,
			"0.01": 4.22158480164,
			"0.011": 7.92050551307,
			"0.012": 12.1492835292,
			"0.013": 4.10981481943,
			"0.014": 0.177182400494,
			"0.015": 0.0,
			"0.016": 0.0,
			"0.017": 0.0,
			"0.018": 0.0,
			"0.019": 0.0,
			"0.02": 0.0,
			"0.021": 0.0,
			"0.022": 0.0,
			"0.023": 0.0,
			"0.024": 0.0,
			"0.025": 0.0
		}
	}
}
