{
	 "smiles": "O=CC1=NC(=CC=C1)N1CCOCC1", 
	 "Tm": 367.15, 
	 "num_atms": 26, 
	 "gaussian": { 
		 "optdone": 1, 
		 "sigma_profile": "yes", 
		 "theory": "DFT", 
		 "functional": "B3LYP", 
		 "basiset": "6-31G**", 
		 "properties": { 
			 "R2extent": 3757.086, 
			 "electric_dipole_moment_norm": 4.00362214751, 
			 "electric_quadrupole_moment_norm": 18.1454593017, 
			 "total_energy": -648.21564378, 
			 "HOMO_LUMO_gap": 0.1454, 
			 "cosmo_polarized_energy": -11.09, 
			 "cosmo_cavitation_energy": 28.87, 
			 "cosmo_dispersion_energy": -21.43, 
			 "cosmo_repulsion_energy": 1.68, 
			 "cosmo_total_nonelectrostatic_energy": 9.12, 
			 "SMD_solvation_energy": 4.3 
		},
		"coords": [
			{
				"x": 3.7124087821,
				"y": 2.6736543847,
				"z": -3.0570875458,
				"element": "O" 
			},
			{
				"x": 3.0908498008,
				"y": 2.2844809865,
				"z": -2.0883259236,
				"element": "C" 
			},
			{
				"x": 1.8026807077,
				"y": 1.5357972627,
				"z": -2.1620327177,
				"element": "C" 
			},
			{
				"x": 1.2773443085,
				"y": 1.1951591891,
				"z": -0.9757507511,
				"element": "N" 
			},
			{
				"x": 0.1146043719,
				"y": 0.5204937849,
				"z": -0.9567098923,
				"element": "C" 
			},
			{
				"x": -0.5499589416,
				"y": 0.1666568177,
				"z": -2.1624231897,
				"element": "C" 
			},
			{
				"x": 0.019923861,
				"y": 0.5297327904,
				"z": -3.3739295703,
				"element": "C" 
			},
			{
				"x": 1.2267309973,
				"y": 1.2323414497,
				"z": -3.3945855064,
				"element": "C" 
			},
			{
				"x": -0.4065952418,
				"y": 0.1883053302,
				"z": 0.2722493679,
				"element": "N" 
			},
			{
				"x": -1.644637659,
				"y": -0.57679484,
				"z": 0.3913220808,
				"element": "C" 
			},
			{
				"x": -1.9446541593,
				"y": -0.8342033954,
				"z": 1.8688034825,
				"element": "C" 
			},
			{
				"x": -1.9561200422,
				"y": 0.368466764,
				"z": 2.6132776544,
				"element": "O" 
			},
			{
				"x": -0.7521619397,
				"y": 1.139917001,
				"z": 2.5059623408,
				"element": "C" 
			},
			{
				"x": 0.2594676074,
				"y": 0.5577213894,
				"z": 1.5171444714,
				"element": "C" 
			},
			{
				"x": 3.4400609887,
				"y": 2.4593424512,
				"z": -1.0489339606,
				"element": "H" 
			},
			{
				"x": -1.4879493708,
				"y": -0.3736984435,
				"z": -2.1441571777,
				"element": "H" 
			},
			{
				"x": -0.4800470069,
				"y": 0.2647788463,
				"z": -4.3014311176,
				"element": "H" 
			},
			{
				"x": 1.7180768053,
				"y": 1.5404674796,
				"z": -4.3095453245,
				"element": "H" 
			},
			{
				"x": -2.4825548304,
				"y": -0.0190808968,
				"z": -0.0515287129,
				"element": "H" 
			},
			{
				"x": -1.5698796595,
				"y": -1.5392911717,
				"z": -0.1382715273,
				"element": "H" 
			},
			{
				"x": -2.9430968057,
				"y": -1.2688893216,
				"z": 1.9673865688,
				"element": "H" 
			},
			{
				"x": -1.2275565526,
				"y": -1.5608690367,
				"z": 2.2818946152,
				"element": "H" 
			},
			{
				"x": -1.0416190129,
				"y": 2.1490930312,
				"z": 2.1876494189,
				"element": "H" 
			},
			{
				"x": -0.2864281227,
				"y": 1.2175583698,
				"z": 3.4984979075,
				"element": "H" 
			},
			{
				"x": 0.7711496509,
				"y": -0.3115612291,
				"z": 1.9548794219,
				"element": "H" 
			},
			{
				"x": 1.0264614637,
				"y": 1.2967210064,
				"z": 1.2869455877,
				"element": "H" 
			}
		],
		 "valence_orbital": [ 
			{
				"type": "occ",
				"energy": -0.28486,
				"method": "rhf"
			},
			{
				"type": "occ",
				"energy": -0.27566,
				"method": "rhf"
			},
			{
				"type": "occ",
				"energy": -0.2583,
				"method": "rhf"
			},
			{
				"type": "occ",
				"energy": -0.24898,
				"method": "rhf"
			},
			{
				"type": "occ",
				"energy": -0.20999,
				"method": "rhf"
			},
			{
				"type": "unocc",
				"energy": -0.06459,
				"method": "rhf"
			},
			{
				"type": "unocc",
				"energy": -0.01149,
				"method": "rhf"
			},
			{
				"type": "unocc",
				"energy": 0.04624,
				"method": "rhf"
			},
			{
				"type": "unocc",
				"energy": 0.07753,
				"method": "rhf"
			},
			{
				"type": "unocc",
				"energy": 0.0976,
				"method": "rhf"
			}
		],
		"cosmo_sigma_profile": { 
			"-0.025": 0.0,
			"-0.024": 0.0,
			"-0.023": 0.0,
			"-0.022": 0.0,
			"-0.021": 0.0,
			"-0.02": 0.0,
			"-0.019": 0.0,
			"-0.018": 0.0,
			"-0.017": 0.0,
			"-0.016": 0.0,
			"-0.015": 0.0,
			"-0.014": 0.0,
			"-0.013": 0.0,
			"-0.012": 0.0,
			"-0.011": 0.0,
			"-0.01": 0.0,
			"-0.009": 0.0,
			"-0.008": 0.0577443075652,
			"-0.007": 3.62763886071,
			"-0.006": 9.56955771673,
			"-0.005": 24.6563340737,
			"-0.004": 33.6900098438,
			"-0.003": 23.3073169537,
			"-0.002": 15.6272053033,
			"-0.001": 13.1833553082,
			"0.0": 10.9170388771,
			"0.001": 16.3959385178,
			"0.002": 18.7232168237,
			"0.003": 13.8876100495,
			"0.004": 6.73222878859,
			"0.005": 4.84517086267,
			"0.006": 4.00039255172,
			"0.007": 5.18175402085,
			"0.008": 4.57241264262,
			"0.009": 3.12097988203,
			"0.01": 5.1877290008,
			"0.011": 5.38680556173,
			"0.012": 3.26744866765,
			"0.013": 2.34074593253,
			"0.014": 0.339152974902,
			"0.015": 0.0,
			"0.016": 0.0,
			"0.017": 0.0,
			"0.018": 0.0,
			"0.019": 0.0,
			"0.02": 0.0,
			"0.021": 0.0,
			"0.022": 0.0,
			"0.023": 0.0,
			"0.024": 0.0,
			"0.025": 0.0
		}
	}
}
