{
	 "smiles": "COC1=C(C=C2N=NNC2=C1)C(O)=O", 
	 "Tm": 493.15, 
	 "num_atms": 21, 
	 "gaussian": { 
		 "optdone": 1, 
		 "sigma_profile": "yes", 
		 "theory": "DFT", 
		 "functional": "B3LYP", 
		 "basiset": "6-31G**", 
		 "properties": { 
			 "R2extent": 3192.6289, 
			 "electric_dipole_moment_norm": 9.29385549436, 
			 "electric_quadrupole_moment_norm": 11.3936543541, 
			 "total_energy": -698.958056391, 
			 "HOMO_LUMO_gap": 0.19177, 
			 "cosmo_polarized_energy": -24.58, 
			 "cosmo_cavitation_energy": 25.8, 
			 "cosmo_dispersion_energy": -19.55, 
			 "cosmo_repulsion_energy": 1.51, 
			 "cosmo_total_nonelectrostatic_energy": 7.76, 
			 "SMD_solvation_energy": 4.69 
		},
		"coords": [
			{
				"x": -0.9062518304,
				"y": 1.7651619306,
				"z": -1.8903581792,
				"element": "C" 
			},
			{
				"x": -0.9568438845,
				"y": 0.7484140796,
				"z": -0.8923565716,
				"element": "O" 
			},
			{
				"x": 0.1745492659,
				"y": 0.0343750644,
				"z": -0.5859104109,
				"element": "C" 
			},
			{
				"x": 0.0266245078,
				"y": -0.9683957196,
				"z": 0.4316481082,
				"element": "C" 
			},
			{
				"x": 1.1283365665,
				"y": -1.7337652377,
				"z": 0.79766194,
				"element": "C" 
			},
			{
				"x": 2.3546574443,
				"y": -1.5095580395,
				"z": 0.1666831147,
				"element": "C" 
			},
			{
				"x": 3.5862391926,
				"y": -2.1157213733,
				"z": 0.335157122,
				"element": "N" 
			},
			{
				"x": 4.427174779,
				"y": -1.5731850195,
				"z": -0.472623528,
				"element": "N" 
			},
			{
				"x": 3.7768574283,
				"y": -0.5982562875,
				"z": -1.1934631226,
				"element": "N" 
			},
			{
				"x": 2.4695958545,
				"y": -0.5192804283,
				"z": -0.8276778923,
				"element": "C" 
			},
			{
				"x": 1.3854736069,
				"y": 0.2742465458,
				"z": -1.2267866407,
				"element": "C" 
			},
			{
				"x": -1.2542352106,
				"y": -1.2877536872,
				"z": 1.1728586827,
				"element": "C" 
			},
			{
				"x": -2.3601010852,
				"y": -0.5848734084,
				"z": 0.8689411278,
				"element": "O" 
			},
			{
				"x": -1.2903942371,
				"y": -2.1526926359,
				"z": 2.0203593333,
				"element": "O" 
			},
			{
				"x": -0.626318147,
				"y": 1.3462808569,
				"z": -2.8631876851,
				"element": "H" 
			},
			{
				"x": -1.9138676647,
				"y": 2.1769261546,
				"z": -1.9469882353,
				"element": "H" 
			},
			{
				"x": -0.2023767455,
				"y": 2.5561517879,
				"z": -1.6090837373,
				"element": "H" 
			},
			{
				"x": 1.005091144,
				"y": -2.4873919391,
				"z": 1.5665129876,
				"element": "H" 
			},
			{
				"x": 4.2961825948,
				"y": -0.0704655061,
				"z": -1.8782552781,
				"element": "H" 
			},
			{
				"x": 1.4884440404,
				"y": 1.031564096,
				"z": -1.9923596612,
				"element": "H" 
			},
			{
				"x": -2.1549376199,
				"y": 0.0650187663,
				"z": 0.1723285258,
				"element": "H" 
			}
		],
		 "valence_orbital": [ 
			{
				"type": "occ",
				"energy": -0.30253,
				"method": "rhf"
			},
			{
				"type": "occ",
				"energy": -0.2808,
				"method": "rhf"
			},
			{
				"type": "occ",
				"energy": -0.26672,
				"method": "rhf"
			},
			{
				"type": "occ",
				"energy": -0.25863,
				"method": "rhf"
			},
			{
				"type": "occ",
				"energy": -0.25223,
				"method": "rhf"
			},
			{
				"type": "unocc",
				"energy": -0.06046,
				"method": "rhf"
			},
			{
				"type": "unocc",
				"energy": -0.03322,
				"method": "rhf"
			},
			{
				"type": "unocc",
				"energy": 0.02037,
				"method": "rhf"
			},
			{
				"type": "unocc",
				"energy": 0.05944,
				"method": "rhf"
			},
			{
				"type": "unocc",
				"energy": 0.06611,
				"method": "rhf"
			}
		],
		"cosmo_sigma_profile": { 
			"-0.025": 0.0,
			"-0.024": 0.0,
			"-0.023": 0.0,
			"-0.022": 0.0,
			"-0.021": 0.0,
			"-0.02": 0.0,
			"-0.019": 0.0,
			"-0.018": 1.16018363846,
			"-0.017": 2.04676836194,
			"-0.016": 1.44941200656,
			"-0.015": 1.15037893255,
			"-0.014": 1.14195718682,
			"-0.013": 1.1028969958,
			"-0.012": 1.14569773123,
			"-0.011": 1.11602442304,
			"-0.01": 1.56448032146,
			"-0.009": 4.25627436394,
			"-0.008": 4.44615064808,
			"-0.007": 10.794236147,
			"-0.006": 13.2352127687,
			"-0.005": 12.8742818548,
			"-0.004": 12.6237318101,
			"-0.003": 8.56087166723,
			"-0.002": 11.3087080977,
			"-0.001": 14.8805313513,
			"0.0": 18.9776831595,
			"0.001": 14.9991623155,
			"0.002": 7.15698421464,
			"0.003": 4.4538782265,
			"0.004": 3.66370795368,
			"0.005": 3.86831922757,
			"0.006": 4.02497812138,
			"0.007": 4.4873156753,
			"0.008": 5.13700215381,
			"0.009": 6.05394083808,
			"0.01": 7.35035994684,
			"0.011": 8.24430550492,
			"0.012": 8.11390963453,
			"0.013": 3.91627621934,
			"0.014": 1.56321338475,
			"0.015": 0.64782472225,
			"0.016": 0.00658948667653,
			"0.017": 0.0,
			"0.018": 0.0,
			"0.019": 0.0,
			"0.02": 0.0,
			"0.021": 0.0,
			"0.022": 0.0,
			"0.023": 0.0,
			"0.024": 0.0,
			"0.025": 0.0
		}
	}
}
