{
	 "smiles": "CCOC(=O)C1=C(Br)SN=N1", 
	 "Tm": 350.15, 
	 "num_atms": 16, 
	 "gaussian": { 
		 "optdone": 1, 
		 "sigma_profile": "yes", 
		 "theory": "DFT", 
		 "functional": "B3LYP", 
		 "basiset": "6-31G**", 
		 "properties": { 
			 "R2extent": 3356.1939, 
			 "electric_dipole_moment_norm": 4.61177813321, 
			 "electric_quadrupole_moment_norm": 6.42686909934, 
			 "total_energy": -3423.03491092, 
			 "HOMO_LUMO_gap": 0.18617, 
			 "cosmo_polarized_energy": -10.67, 
			 "cosmo_cavitation_energy": 25.43, 
			 "cosmo_dispersion_energy": -19.16, 
			 "cosmo_repulsion_energy": 1.5, 
			 "cosmo_total_nonelectrostatic_energy": 7.77, 
			 "SMD_solvation_energy": 2.73 
		},
		"coords": [
			{
				"x": 1.1196490245,
				"y": 0.4857206521,
				"z": 3.5768929827,
				"element": "C" 
			},
			{
				"x": 1.6117963174,
				"y": 0.4914273547,
				"z": 2.1429263119,
				"element": "C" 
			},
			{
				"x": 0.5533459,
				"y": -0.0572686123,
				"z": 1.3173165828,
				"element": "O" 
			},
			{
				"x": 0.8218283186,
				"y": -0.124218083,
				"z": 0.0017316123,
				"element": "C" 
			},
			{
				"x": 1.8586515149,
				"y": 0.2353314508,
				"z": -0.5086897309,
				"element": "O" 
			},
			{
				"x": -0.3172429644,
				"y": -0.6996137847,
				"z": -0.7727903653,
				"element": "C" 
			},
			{
				"x": -1.5549134154,
				"y": -1.1614836514,
				"z": -0.3568076524,
				"element": "C" 
			},
			{
				"x": -2.2999559043,
				"y": -1.249893771,
				"z": 1.3588343213,
				"element": "Br" 
			},
			{
				"x": -2.4471986412,
				"y": -1.7089573568,
				"z": -1.7122695906,
				"element": "S" 
			},
			{
				"x": -1.1140924917,
				"y": -1.2950069013,
				"z": -2.7917046318,
				"element": "N" 
			},
			{
				"x": -0.1481116598,
				"y": -0.8066076614,
				"z": -2.1361610844,
				"element": "N" 
			},
			{
				"x": 0.219552875,
				"y": 1.0974082189,
				"z": 3.6849831494,
				"element": "H" 
			},
			{
				"x": 0.8892272375,
				"y": -0.5306424933,
				"z": 3.9084366619,
				"element": "H" 
			},
			{
				"x": 1.8944011384,
				"y": 0.8944204968,
				"z": 4.2327551614,
				"element": "H" 
			},
			{
				"x": 1.8430654809,
				"y": 1.50002688,
				"z": 1.7873860321,
				"element": "H" 
			},
			{
				"x": 2.5093972696,
				"y": -0.1199427382,
				"z": 2.0096602396,
				"element": "H" 
			}
		],
		 "valence_orbital": [ 
			{
				"type": "occ",
				"energy": -0.31234,
				"method": "rhf"
			},
			{
				"type": "occ",
				"energy": -0.30798,
				"method": "rhf"
			},
			{
				"type": "occ",
				"energy": -0.29022,
				"method": "rhf"
			},
			{
				"type": "occ",
				"energy": -0.28353,
				"method": "rhf"
			},
			{
				"type": "occ",
				"energy": -0.26969,
				"method": "rhf"
			},
			{
				"type": "unocc",
				"energy": -0.08352,
				"method": "rhf"
			},
			{
				"type": "unocc",
				"energy": -0.04118,
				"method": "rhf"
			},
			{
				"type": "unocc",
				"energy": -0.0403,
				"method": "rhf"
			},
			{
				"type": "unocc",
				"energy": -0.02405,
				"method": "rhf"
			},
			{
				"type": "unocc",
				"energy": 0.07536,
				"method": "rhf"
			}
		],
		"cosmo_sigma_profile": { 
			"-0.025": 0.0,
			"-0.024": 0.0,
			"-0.023": 0.0,
			"-0.022": 0.0,
			"-0.021": 0.0,
			"-0.02": 0.0,
			"-0.019": 0.0,
			"-0.018": 0.0,
			"-0.017": 0.0,
			"-0.016": 0.0,
			"-0.015": 0.0,
			"-0.014": 0.0,
			"-0.013": 0.0,
			"-0.012": 0.0,
			"-0.011": 0.0,
			"-0.01": 0.0,
			"-0.009": 0.0358136377066,
			"-0.008": 0.942797543646,
			"-0.007": 1.25305907289,
			"-0.006": 5.27014849844,
			"-0.005": 17.579261141,
			"-0.004": 30.1055683157,
			"-0.003": 24.5745330136,
			"-0.002": 22.3156928451,
			"-0.001": 20.705331737,
			"0.0": 16.2662059985,
			"0.001": 13.7284972869,
			"0.002": 8.46891510053,
			"0.003": 4.82700209892,
			"0.004": 5.66668983723,
			"0.005": 5.48350216436,
			"0.006": 2.7567070751,
			"0.007": 5.3643073062,
			"0.008": 3.90620992529,
			"0.009": 3.65562838609,
			"0.01": 5.19563738334,
			"0.011": 6.38814894962,
			"0.012": 2.79977851484,
			"0.013": 1.96330548418,
			"0.014": 0.190317498764,
			"0.015": 0.0,
			"0.016": 0.0,
			"0.017": 0.0,
			"0.018": 0.0,
			"0.019": 0.0,
			"0.02": 0.0,
			"0.021": 0.0,
			"0.022": 0.0,
			"0.023": 0.0,
			"0.024": 0.0,
			"0.025": 0.0
		}
	}
}
