{
	 "smiles": "OC(=O)CCC1NC(=O)N(C1=O)C1=C(F)C=C(F)C=C1", 
	 "Tm": 457.15, 
	 "num_atms": 30, 
	 "gaussian": { 
		 "optdone": 1, 
		 "sigma_profile": "yes", 
		 "theory": "DFT", 
		 "functional": "B3LYP", 
		 "basiset": "6-31G**", 
		 "properties": { 
			 "R2extent": 7661.1285, 
			 "electric_dipole_moment_norm": 4.21769929464, 
			 "electric_quadrupole_moment_norm": 37.5087016603, 
			 "total_energy": -1073.41405574, 
			 "HOMO_LUMO_gap": 0.22148, 
			 "cosmo_polarized_energy": -27.13, 
			 "cosmo_cavitation_energy": 36.67, 
			 "cosmo_dispersion_energy": -25.28, 
			 "cosmo_repulsion_energy": 1.91, 
			 "cosmo_total_nonelectrostatic_energy": 13.29, 
			 "SMD_solvation_energy": 9.1 
		},
		"coords": [
			{
				"x": 2.3491711391,
				"y": -3.3535857341,
				"z": 5.2440783415,
				"element": "O" 
			},
			{
				"x": 1.4669563349,
				"y": -3.036537476,
				"z": 4.261475155,
				"element": "C" 
			},
			{
				"x": 1.1540058202,
				"y": -3.868102692,
				"z": 3.4444305063,
				"element": "O" 
			},
			{
				"x": 0.9583424778,
				"y": -1.5996914773,
				"z": 4.2805992467,
				"element": "C" 
			},
			{
				"x": -0.1321131717,
				"y": -1.2986999962,
				"z": 3.2480793159,
				"element": "C" 
			},
			{
				"x": 0.3176094363,
				"y": -1.4352538773,
				"z": 1.7833995169,
				"element": "C" 
			},
			{
				"x": 1.4224473622,
				"y": -0.5585887011,
				"z": 1.4052260388,
				"element": "N" 
			},
			{
				"x": 1.140017491,
				"y": 0.2040191335,
				"z": 0.2937400681,
				"element": "C" 
			},
			{
				"x": 1.8973641167,
				"y": 0.9058478596,
				"z": -0.3409261929,
				"element": "O" 
			},
			{
				"x": -0.2412132313,
				"y": 0.0063852363,
				"z": 0.0189726018,
				"element": "N" 
			},
			{
				"x": -0.7972389848,
				"y": -0.9769654265,
				"z": 0.8382883832,
				"element": "C" 
			},
			{
				"x": -1.9391602014,
				"y": -1.3764681877,
				"z": 0.8156891807,
				"element": "O" 
			},
			{
				"x": -0.9509065435,
				"y": 0.721067732,
				"z": -0.9807179863,
				"element": "C" 
			},
			{
				"x": -2.1062167071,
				"y": 1.4331004577,
				"z": -0.641210939,
				"element": "C" 
			},
			{
				"x": -2.509458051,
				"y": 1.4566757747,
				"z": 0.6385699879,
				"element": "F" 
			},
			{
				"x": -2.8429187618,
				"y": 2.1300536011,
				"z": -1.5893671893,
				"element": "C" 
			},
			{
				"x": -2.3789352866,
				"y": 2.1262872346,
				"z": -2.8999341004,
				"element": "C" 
			},
			{
				"x": -3.0767453374,
				"y": 2.8030616859,
				"z": -3.8301541533,
				"element": "F" 
			},
			{
				"x": -1.221542615,
				"y": 1.4533541561,
				"z": -3.277630831,
				"element": "C" 
			},
			{
				"x": -0.5150201367,
				"y": 0.744809035,
				"z": -2.3084694961,
				"element": "C" 
			},
			{
				"x": 2.4895037999,
				"y": -2.5976810593,
				"z": 5.8322071432,
				"element": "H" 
			},
			{
				"x": 1.8170294789,
				"y": -0.928389732,
				"z": 4.1368820742,
				"element": "H" 
			},
			{
				"x": 0.575953453,
				"y": -1.3817534243,
				"z": 5.2866183334,
				"element": "H" 
			},
			{
				"x": -0.4890151557,
				"y": -0.2764982578,
				"z": 3.4136633772,
				"element": "H" 
			},
			{
				"x": -0.9837083993,
				"y": -1.9700739052,
				"z": 3.3899503654,
				"element": "H" 
			},
			{
				"x": 0.5490814035,
				"y": -2.4862326057,
				"z": 1.5789808843,
				"element": "H" 
			},
			{
				"x": 2.3881708969,
				"y": -0.8209810134,
				"z": 1.5391701021,
				"element": "H" 
			},
			{
				"x": -3.7404624784,
				"y": 2.6670370639,
				"z": -1.308764681,
				"element": "H" 
			},
			{
				"x": -0.8933732589,
				"y": 1.4839214263,
				"z": -4.3098706175,
				"element": "H" 
			},
			{
				"x": 0.3917751102,
				"y": 0.2132831693,
				"z": -2.5708744361,
				"element": "H" 
			}
		],
		 "valence_orbital": [ 
			{
				"type": "occ",
				"energy": -0.29429,
				"method": "rhf"
			},
			{
				"type": "occ",
				"energy": -0.2774,
				"method": "rhf"
			},
			{
				"type": "occ",
				"energy": -0.26735,
				"method": "rhf"
			},
			{
				"type": "occ",
				"energy": -0.26517,
				"method": "rhf"
			},
			{
				"type": "occ",
				"energy": -0.24638,
				"method": "rhf"
			},
			{
				"type": "unocc",
				"energy": -0.0249,
				"method": "rhf"
			},
			{
				"type": "unocc",
				"energy": -0.01501,
				"method": "rhf"
			},
			{
				"type": "unocc",
				"energy": -0.01075,
				"method": "rhf"
			},
			{
				"type": "unocc",
				"energy": -0.00619,
				"method": "rhf"
			},
			{
				"type": "unocc",
				"energy": 0.03607,
				"method": "rhf"
			}
		],
		"cosmo_sigma_profile": { 
			"-0.025": 0.0,
			"-0.024": 0.0,
			"-0.023": 0.0,
			"-0.022": 0.0,
			"-0.021": 0.0,
			"-0.02": 0.0462722905112,
			"-0.019": 0.756900945857,
			"-0.018": 1.35776581846,
			"-0.017": 1.16209680622,
			"-0.016": 1.16334135608,
			"-0.015": 2.07177355925,
			"-0.014": 2.25201931626,
			"-0.013": 2.5962583293,
			"-0.012": 2.98492541577,
			"-0.011": 2.93005429715,
			"-0.01": 2.61216845354,
			"-0.009": 5.06783407511,
			"-0.008": 8.12003154904,
			"-0.007": 12.4956764309,
			"-0.006": 15.499780772,
			"-0.005": 17.0865832923,
			"-0.004": 15.8679605804,
			"-0.003": 12.3385658197,
			"-0.002": 13.2092474456,
			"-0.001": 16.9451054793,
			"0.0": 20.3503717534,
			"0.001": 18.5559798531,
			"0.002": 14.4658807174,
			"0.003": 19.3713809213,
			"0.004": 17.002608003,
			"0.005": 6.69089889725,
			"0.006": 4.15075594611,
			"0.007": 6.6448167493,
			"0.008": 6.53288312724,
			"0.009": 7.47406522844,
			"0.01": 8.20235437242,
			"0.011": 12.437542932,
			"0.012": 11.0657442937,
			"0.013": 2.85329740468,
			"0.014": 0.0115927299986,
			"0.015": 0.0,
			"0.016": 0.0,
			"0.017": 0.0,
			"0.018": 0.0,
			"0.019": 0.0,
			"0.02": 0.0,
			"0.021": 0.0,
			"0.022": 0.0,
			"0.023": 0.0,
			"0.024": 0.0,
			"0.025": 0.0
		}
	}
}
