{
	 "smiles": "OC(=O)C1=C(OCC2=CC=C(Cl)C=C2)C=CC=C1", 
	 "Tm": 359.15, 
	 "num_atms": 29, 
	 "gaussian": { 
		 "optdone": 1, 
		 "sigma_profile": "yes", 
		 "theory": "DFT", 
		 "functional": "B3LYP", 
		 "basiset": "6-31G**", 
		 "properties": { 
			 "R2extent": 6904.5059, 
			 "electric_dipole_moment_norm": 5.87680806561, 
			 "electric_quadrupole_moment_norm": 29.2022860564, 
			 "total_energy": -1225.99014194, 
			 "HOMO_LUMO_gap": 0.20054, 
			 "cosmo_polarized_energy": -16.38, 
			 "cosmo_cavitation_energy": 35.39, 
			 "cosmo_dispersion_energy": -25.29, 
			 "cosmo_repulsion_energy": 1.95, 
			 "cosmo_total_nonelectrostatic_energy": 12.05, 
			 "SMD_solvation_energy": 6.95 
		},
		"coords": [
			{
				"x": -3.1131936837,
				"y": -0.5316520229,
				"z": 1.7959774266,
				"element": "O" 
			},
			{
				"x": -3.802203483,
				"y": -0.4103151979,
				"z": 0.6454062817,
				"element": "C" 
			},
			{
				"x": -4.9787660809,
				"y": -0.6979728521,
				"z": 0.6011689986,
				"element": "O" 
			},
			{
				"x": -3.0646638809,
				"y": 0.0939231057,
				"z": -0.5727483725,
				"element": "C" 
			},
			{
				"x": -1.6937151174,
				"y": 0.4298633694,
				"z": -0.6327485216,
				"element": "C" 
			},
			{
				"x": -0.9621316964,
				"y": 0.2788633742,
				"z": 0.5294023098,
				"element": "O" 
			},
			{
				"x": 0.3730085619,
				"y": 0.7930715686,
				"z": 0.6249804997,
				"element": "C" 
			},
			{
				"x": 1.4196078054,
				"y": -0.1026151614,
				"z": -0.0044810021,
				"element": "C" 
			},
			{
				"x": 2.5849154742,
				"y": 0.4558988302,
				"z": -0.5409410553,
				"element": "C" 
			},
			{
				"x": 3.5910331652,
				"y": -0.353455492,
				"z": -1.0687590619,
				"element": "C" 
			},
			{
				"x": 3.4183263143,
				"y": -1.7368394229,
				"z": -1.0647900656,
				"element": "C" 
			},
			{
				"x": 4.6730644324,
				"y": -2.7657891537,
				"z": -1.7352156379,
				"element": "Cl" 
			},
			{
				"x": 2.2621027286,
				"y": -2.3157226908,
				"z": -0.5407401874,
				"element": "C" 
			},
			{
				"x": 1.2701178034,
				"y": -1.4940095697,
				"z": -0.0082414767,
				"element": "C" 
			},
			{
				"x": -1.1254768644,
				"y": 0.8881402263,
				"z": -1.8245538051,
				"element": "C" 
			},
			{
				"x": -1.9198999451,
				"y": 1.0247125786,
				"z": -2.9633764599,
				"element": "C" 
			},
			{
				"x": -3.2760457125,
				"y": 0.7022265057,
				"z": -2.9251904678,
				"element": "C" 
			},
			{
				"x": -3.8310497649,
				"y": 0.2389380285,
				"z": -1.7368098855,
				"element": "C" 
			},
			{
				"x": -2.1893222902,
				"y": -0.2547646831,
				"z": 1.6512709703,
				"element": "H" 
			},
			{
				"x": 0.4127450231,
				"y": 1.8044125188,
				"z": 0.204136088,
				"element": "H" 
			},
			{
				"x": 0.542216305,
				"y": 0.8766205312,
				"z": 1.7035557961,
				"element": "H" 
			},
			{
				"x": 2.7156724142,
				"y": 1.5354639867,
				"z": -0.5498905736,
				"element": "H" 
			},
			{
				"x": 4.4926587885,
				"y": 0.0818699156,
				"z": -1.4849072066,
				"element": "H" 
			},
			{
				"x": 2.1424605171,
				"y": -3.3933732215,
				"z": -0.5489087085,
				"element": "H" 
			},
			{
				"x": 0.3672818049,
				"y": -1.938523355,
				"z": 0.3983651912,
				"element": "H" 
			},
			{
				"x": -0.0682147993,
				"y": 1.1137838527,
				"z": -1.8793679642,
				"element": "H" 
			},
			{
				"x": -1.4655868055,
				"y": 1.3793233042,
				"z": -3.883972687,
				"element": "H" 
			},
			{
				"x": -3.8922831256,
				"y": 0.8069702664,
				"z": -3.8122084196,
				"element": "H" 
			},
			{
				"x": -4.8806578887,
				"y": -0.02454914,
				"z": -1.666312003,
				"element": "H" 
			}
		],
		 "valence_orbital": [ 
			{
				"type": "occ",
				"energy": -0.2805,
				"method": "rhf"
			},
			{
				"type": "occ",
				"energy": -0.26716,
				"method": "rhf"
			},
			{
				"type": "occ",
				"energy": -0.26279,
				"method": "rhf"
			},
			{
				"type": "occ",
				"energy": -0.25852,
				"method": "rhf"
			},
			{
				"type": "occ",
				"energy": -0.24781,
				"method": "rhf"
			},
			{
				"type": "unocc",
				"energy": -0.04727,
				"method": "rhf"
			},
			{
				"type": "unocc",
				"energy": -0.03376,
				"method": "rhf"
			},
			{
				"type": "unocc",
				"energy": -0.03182,
				"method": "rhf"
			},
			{
				"type": "unocc",
				"energy": -0.00973,
				"method": "rhf"
			},
			{
				"type": "unocc",
				"energy": 0.01856,
				"method": "rhf"
			}
		],
		"cosmo_sigma_profile": { 
			"-0.025": 0.0,
			"-0.024": 0.0,
			"-0.023": 0.0,
			"-0.022": 0.0,
			"-0.021": 0.0,
			"-0.02": 0.0,
			"-0.019": 0.0,
			"-0.018": 0.0,
			"-0.017": 0.0,
			"-0.016": 0.0,
			"-0.015": 0.0,
			"-0.014": 0.0,
			"-0.013": 0.0,
			"-0.012": 0.0,
			"-0.011": 0.0,
			"-0.01": 0.44374574061,
			"-0.009": 1.0371679601,
			"-0.008": 5.73246049632,
			"-0.007": 14.9735636258,
			"-0.006": 21.0233147693,
			"-0.005": 22.6894404979,
			"-0.004": 18.8644592692,
			"-0.003": 16.848615762,
			"-0.002": 17.2944864998,
			"-0.001": 15.4154457132,
			"0.0": 16.3472298048,
			"0.001": 23.0193007107,
			"0.002": 25.9511324989,
			"0.003": 28.7280832027,
			"0.004": 21.3168562788,
			"0.005": 8.19332774488,
			"0.006": 2.7596273514,
			"0.007": 2.3557321989,
			"0.008": 2.09137180415,
			"0.009": 2.83893411548,
			"0.01": 3.5843505588,
			"0.011": 5.14436186678,
			"0.012": 5.91961726301,
			"0.013": 3.0260012211,
			"0.014": 0.938388070438,
			"0.015": 0.0,
			"0.016": 0.0,
			"0.017": 0.0,
			"0.018": 0.0,
			"0.019": 0.0,
			"0.02": 0.0,
			"0.021": 0.0,
			"0.022": 0.0,
			"0.023": 0.0,
			"0.024": 0.0,
			"0.0": 0.0
		}
	}
}
