{
	 "smiles": "CCN1C(=O)C(=O)C2=C1C=CC(Br)=C2", 
	 "Tm": 418.15, 
	 "num_atms": 22, 
	 "gaussian": { 
		 "optdone": 1, 
		 "sigma_profile": "yes", 
		 "theory": "DFT", 
		 "functional": "B3LYP", 
		 "basiset": "6-31G**", 
		 "properties": { 
			 "R2extent": 5373.226, 
			 "electric_dipole_moment_norm": 5.35238238264, 
			 "electric_quadrupole_moment_norm": 17.7246329324, 
			 "total_energy": -3162.49520336, 
			 "HOMO_LUMO_gap": 0.12965, 
			 "cosmo_polarized_energy": -13.15, 
			 "cosmo_cavitation_energy": 29.26, 
			 "cosmo_dispersion_energy": -21.24, 
			 "cosmo_repulsion_energy": 1.66, 
			 "cosmo_total_nonelectrostatic_energy": 9.69, 
			 "SMD_solvation_energy": 5.13 
		},
		"coords": [
			{
				"x": 2.9820800504,
				"y": -0.6213814886,
				"z": -0.7505451668,
				"element": "C" 
			},
			{
				"x": 2.4091052708,
				"y": 0.6554797012,
				"z": -1.3723789792,
				"element": "C" 
			},
			{
				"x": 0.9540319757,
				"y": 0.6415354108,
				"z": -1.4786081646,
				"element": "N" 
			},
			{
				"x": 0.2842469417,
				"y": 0.3453230049,
				"z": -2.6597138633,
				"element": "C" 
			},
			{
				"x": 0.7906580018,
				"y": 0.0869300633,
				"z": -3.7300580449,
				"element": "O" 
			},
			{
				"x": -1.2413788385,
				"y": 0.4205084833,
				"z": -2.3159448163,
				"element": "C" 
			},
			{
				"x": -2.138937146,
				"y": 0.2230184886,
				"z": -3.1040327468,
				"element": "O" 
			},
			{
				"x": -1.2839812499,
				"y": 0.7701582393,
				"z": -0.8857740701,
				"element": "C" 
			},
			{
				"x": 0.0468312483,
				"y": 0.8877508687,
				"z": -0.4351099663,
				"element": "C" 
			},
			{
				"x": 0.3143595165,
				"y": 1.2212542453,
				"z": 0.889197408,
				"element": "C" 
			},
			{
				"x": -0.7727301377,
				"y": 1.4333340117,
				"z": 1.747089652,
				"element": "C" 
			},
			{
				"x": -2.0891564722,
				"y": 1.3134611146,
				"z": 1.2918099453,
				"element": "C" 
			},
			{
				"x": -3.5297871916,
				"y": 1.6117286515,
				"z": 2.5091162794,
				"element": "Br" 
			},
			{
				"x": -2.3629246881,
				"y": 0.9796004856,
				"z": -0.0352322602,
				"element": "C" 
			},
			{
				"x": 4.0728417166,
				"y": -0.5519498072,
				"z": -0.6931569655,
				"element": "H" 
			},
			{
				"x": 2.5987558871,
				"y": -0.7864490192,
				"z": 0.2609831026,
				"element": "H" 
			},
			{
				"x": 2.7262891389,
				"y": -1.4924068069,
				"z": -1.3600385795,
				"element": "H" 
			},
			{
				"x": 2.7800681035,
				"y": 0.780628113,
				"z": -2.3926725365,
				"element": "H" 
			},
			{
				"x": 2.7052112565,
				"y": 1.5407906143,
				"z": -0.7982194011,
				"element": "H" 
			},
			{
				"x": 1.3273204879,
				"y": 1.3184233406,
				"z": 1.2634860491,
				"element": "H" 
			},
			{
				"x": -0.5910498513,
				"y": 1.6942316731,
				"z": 2.7837593767,
				"element": "H" 
			},
			{
				"x": -3.3791540203,
				"y": 0.885330612,
				"z": -0.4014562521,
				"element": "H" 
			}
		],
		 "valence_orbital": [ 
			{
				"type": "occ",
				"energy": -0.29923,
				"method": "rhf"
			},
			{
				"type": "occ",
				"energy": -0.29548,
				"method": "rhf"
			},
			{
				"type": "occ",
				"energy": -0.28861,
				"method": "rhf"
			},
			{
				"type": "occ",
				"energy": -0.2525,
				"method": "rhf"
			},
			{
				"type": "occ",
				"energy": -0.23419,
				"method": "rhf"
			},
			{
				"type": "unocc",
				"energy": -0.10454,
				"method": "rhf"
			},
			{
				"type": "unocc",
				"energy": -0.03299,
				"method": "rhf"
			},
			{
				"type": "unocc",
				"energy": -0.00561,
				"method": "rhf"
			},
			{
				"type": "unocc",
				"energy": -0.00436,
				"method": "rhf"
			},
			{
				"type": "unocc",
				"energy": 0.06964,
				"method": "rhf"
			}
		],
		"cosmo_sigma_profile": { 
			"-0.025": 0.0,
			"-0.024": 0.0,
			"-0.023": 0.0,
			"-0.022": 0.0,
			"-0.021": 0.0,
			"-0.02": 0.0,
			"-0.019": 0.0,
			"-0.018": 0.0,
			"-0.017": 0.0,
			"-0.016": 0.0,
			"-0.015": 0.0,
			"-0.014": 0.0,
			"-0.013": 0.0,
			"-0.012": 0.0,
			"-0.011": 0.0,
			"-0.01": 0.0,
			"-0.009": 0.682963125171,
			"-0.008": 7.00331108716,
			"-0.007": 9.63577829785,
			"-0.006": 10.4644666101,
			"-0.005": 11.0303278193,
			"-0.004": 21.2042889983,
			"-0.003": 20.4322574945,
			"-0.002": 22.5665698088,
			"-0.001": 19.6961527581,
			"0.0": 22.2886351078,
			"0.001": 21.6923096345,
			"0.002": 10.757342454,
			"0.003": 8.72744042429,
			"0.004": 14.1685307188,
			"0.005": 5.26185390129,
			"0.006": 2.23988771452,
			"0.007": 2.68685347826,
			"0.008": 3.96899871358,
			"0.009": 5.64044216012,
			"0.01": 7.37832899852,
			"0.011": 7.54118586195,
			"0.012": 2.57064001003,
			"0.013": 0.189297002181,
			"0.014": 0.0,
			"0.015": 0.0,
			"0.016": 0.0,
			"0.017": 0.0,
			"0.018": 0.0,
			"0.019": 0.0,
			"0.02": 0.0,
			"0.021": 0.0,
			"0.022": 0.0,
			"0.023": 0.0,
			"0.024": 0.0,
			"0.025": 0.0
		}
	}
}
