{
	 "smiles": "FC(F)(F)C1=NC=C(Br)C=C1", 
	 "Tm": 313.15, 
	 "num_atms": 14, 
	 "gaussian": { 
		 "optdone": 1, 
		 "sigma_profile": "yes", 
		 "theory": "DFT", 
		 "functional": "B3LYP", 
		 "basiset": "6-31G**", 
		 "properties": { 
			 "R2extent": 4574.144, 
			 "electric_dipole_moment_norm": 2.7903406405, 
			 "electric_quadrupole_moment_norm": 8.75077544907, 
			 "total_energy": -3156.11797397, 
			 "HOMO_LUMO_gap": 0.21251, 
			 "cosmo_polarized_energy": -5.88, 
			 "cosmo_cavitation_energy": 22.68, 
			 "cosmo_dispersion_energy": -16.79, 
			 "cosmo_repulsion_energy": 1.29, 
			 "cosmo_total_nonelectrostatic_energy": 7.18, 
			 "SMD_solvation_energy": 2.79 
		},
		"coords": [
			{
				"x": -2.6849620423,
				"y": 0.0873193168,
				"z": 2.2662638771,
				"element": "F" 
			},
			{
				"x": -1.5741508553,
				"y": -0.0461754821,
				"z": 3.0274099267,
				"element": "C" 
			},
			{
				"x": -1.8311299454,
				"y": -0.9782696377,
				"z": 3.9628298301,
				"element": "F" 
			},
			{
				"x": -1.3719672865,
				"y": 1.1230898537,
				"z": 3.6612928297,
				"element": "F" 
			},
			{
				"x": -0.3754914229,
				"y": -0.4293191069,
				"z": 2.1822206716,
				"element": "C" 
			},
			{
				"x": 0.7659680705,
				"y": -0.5839457335,
				"z": 2.8609877165,
				"element": "N" 
			},
			{
				"x": 1.8596211084,
				"y": -0.9207197028,
				"z": 2.1800150348,
				"element": "C" 
			},
			{
				"x": 1.8466161998,
				"y": -1.114232996,
				"z": 0.7939514174,
				"element": "C" 
			},
			{
				"x": 3.452000857,
				"y": -1.5941844503,
				"z": -0.1051973843,
				"element": "Br" 
			},
			{
				"x": 0.6584445399,
				"y": -0.9530655996,
				"z": 0.0889746054,
				"element": "C" 
			},
			{
				"x": -0.486447683,
				"y": -0.6003130528,
				"z": 0.8036839719,
				"element": "C" 
			},
			{
				"x": 2.7795929146,
				"y": -1.0427648899,
				"z": 2.7452805535,
				"element": "H" 
			},
			{
				"x": 0.6266800509,
				"y": -1.0982361466,
				"z": -0.9849053741,
				"element": "H" 
			},
			{
				"x": -1.4371745058,
				"y": -0.4622823723,
				"z": 0.3033923236,
				"element": "H" 
			}
		],
		 "valence_orbital": [ 
			{
				"type": "occ",
				"energy": -0.34864,
				"method": "rhf"
			},
			{
				"type": "occ",
				"energy": -0.31217,
				"method": "rhf"
			},
			{
				"type": "occ",
				"energy": -0.31129,
				"method": "rhf"
			},
			{
				"type": "occ",
				"energy": -0.28561,
				"method": "rhf"
			},
			{
				"type": "occ",
				"energy": -0.27192,
				"method": "rhf"
			},
			{
				"type": "unocc",
				"energy": -0.05941,
				"method": "rhf"
			},
			{
				"type": "unocc",
				"energy": -0.04621,
				"method": "rhf"
			},
			{
				"type": "unocc",
				"energy": -0.0117,
				"method": "rhf"
			},
			{
				"type": "unocc",
				"energy": 0.09837,
				"method": "rhf"
			},
			{
				"type": "unocc",
				"energy": 0.10311,
				"method": "rhf"
			}
		],
		"cosmo_sigma_profile": { 
			"-0.025": 0.0,
			"-0.024": 0.0,
			"-0.023": 0.0,
			"-0.022": 0.0,
			"-0.021": 0.0,
			"-0.02": 0.0,
			"-0.019": 0.0,
			"-0.018": 0.0,
			"-0.017": 0.0,
			"-0.016": 0.0,
			"-0.015": 0.0,
			"-0.014": 0.0,
			"-0.013": 0.0,
			"-0.012": 0.0,
			"-0.011": 0.0,
			"-0.01": 0.181815833342,
			"-0.009": 2.4645533392,
			"-0.008": 6.0113377768,
			"-0.007": 4.97066958007,
			"-0.006": 4.84074397179,
			"-0.005": 7.06476253132,
			"-0.004": 9.09387676075,
			"-0.003": 8.7725838179,
			"-0.002": 15.4599060425,
			"-0.001": 20.5949122859,
			"0.0": 15.4628250336,
			"0.001": 12.5275076817,
			"0.002": 28.4777305247,
			"0.003": 31.07409117,
			"0.004": 8.68375611413,
			"0.005": 2.51836067922,
			"0.006": 1.64806805803,
			"0.007": 1.68353681383,
			"0.008": 1.25937693126,
			"0.009": 0.728863462988,
			"0.01": 1.20171341764,
			"0.011": 0.767104726576,
			"0.012": 0.662711705282,
			"0.013": 0.477337988488,
			"0.014": 0.00933848804992,
			"0.015": 0.0,
			"0.016": 0.0,
			"0.017": 0.0,
			"0.018": 0.0,
			"0.019": 0.0,
			"0.02": 0.0,
			"0.021": 0.0,
			"0.022": 0.0,
			"0.023": 0.0,
			"0.024": 0.0,
			"0.025": 0.0
		}
	}
}
