{
	 "smiles": "CN1N(C(=O)C2=C(C=C(C=C12)N1CCCC1)C1=CC=CC=C1)C1=CC=CC=C1", 
	 "Tm": 432.15, 
	 "num_atms": 51, 
	 "gaussian": { 
		 "optdone": 1, 
		 "sigma_profile": "yes", 
		 "theory": "DFT", 
		 "functional": "B3LYP", 
		 "basiset": "6-31G**", 
		 "properties": { 
			 "R2extent": 13225.3057, 
			 "electric_dipole_moment_norm": 6.62799965223, 
			 "electric_quadrupole_moment_norm": 21.4771109244, 
			 "total_energy": -1167.89217162, 
			 "HOMO_LUMO_gap": 0.15985, 
			 "cosmo_polarized_energy": -17.05, 
			 "cosmo_cavitation_energy": 51.84, 
			 "cosmo_dispersion_energy": -36.73, 
			 "cosmo_repulsion_energy": 2.75, 
			 "cosmo_total_nonelectrostatic_energy": 17.86, 
			 "SMD_solvation_energy": 7.12 
		},
		"coords": [
			{
				"x": -3.0981071728,
				"y": 0.1797854881,
				"z": -1.111941956,
				"element": "C" 
			},
			{
				"x": -1.9145483669,
				"y": 0.3292214952,
				"z": -0.2525157636,
				"element": "N" 
			},
			{
				"x": -1.0848366041,
				"y": 1.4141517911,
				"z": -0.6582195471,
				"element": "N" 
			},
			{
				"x": 0.2815392519,
				"y": 1.0317933583,
				"z": -0.697390758,
				"element": "C" 
			},
			{
				"x": 1.1952530481,
				"y": 1.8130761397,
				"z": -0.927930331,
				"element": "O" 
			},
			{
				"x": 0.2762577919,
				"y": -0.3984239632,
				"z": -0.3803502084,
				"element": "C" 
			},
			{
				"x": 1.2995749958,
				"y": -1.3751511727,
				"z": -0.3284317134,
				"element": "C" 
			},
			{
				"x": 0.9183605998,
				"y": -2.6907012569,
				"z": -0.0690272476,
				"element": "C" 
			},
			{
				"x": -0.4356698303,
				"y": -3.0764033952,
				"z": 0.1364629531,
				"element": "C" 
			},
			{
				"x": -1.4445701695,
				"y": -2.0922898972,
				"z": 0.0816607375,
				"element": "C" 
			},
			{
				"x": -1.0564279929,
				"y": -0.7794871313,
				"z": -0.1635485135,
				"element": "C" 
			},
			{
				"x": -0.7499912429,
				"y": -4.3883367797,
				"z": 0.392703157,
				"element": "N" 
			},
			{
				"x": -2.1221882823,
				"y": -4.8772989769,
				"z": 0.5186436707,
				"element": "C" 
			},
			{
				"x": -1.966819989,
				"y": -6.4050199637,
				"z": 0.5178684062,
				"element": "C" 
			},
			{
				"x": -0.5815406764,
				"y": -6.6171617366,
				"z": 1.1481965842,
				"element": "C" 
			},
			{
				"x": 0.2428156455,
				"y": -5.4455876739,
				"z": 0.5939283888,
				"element": "C" 
			},
			{
				"x": 2.7420360425,
				"y": -1.0773933855,
				"z": -0.5416675603,
				"element": "C" 
			},
			{
				"x": 3.3649961278,
				"y": 0.0256833934,
				"z": 0.0639132269,
				"element": "C" 
			},
			{
				"x": 4.7307970919,
				"y": 0.2476664249,
				"z": -0.1025242585,
				"element": "C" 
			},
			{
				"x": 5.4995286234,
				"y": -0.6188686332,
				"z": -0.8821823671,
				"element": "C" 
			},
			{
				"x": 4.8905776799,
				"y": -1.7129015346,
				"z": -1.498690154,
				"element": "C" 
			},
			{
				"x": 3.5256916,
				"y": -1.9402867765,
				"z": -1.3272817934,
				"element": "C" 
			},
			{
				"x": -1.5305416185,
				"y": 2.7332759872,
				"z": -0.3922428742,
				"element": "C" 
			},
			{
				"x": -2.5485093863,
				"y": 2.972387318,
				"z": 0.5431131007,
				"element": "C" 
			},
			{
				"x": -2.9861398906,
				"y": 4.2761479972,
				"z": 0.774948172,
				"element": "C" 
			},
			{
				"x": -2.4101017279,
				"y": 5.3497602229,
				"z": 0.0948700889,
				"element": "C" 
			},
			{
				"x": -1.3891688769,
				"y": 5.1061048492,
				"z": -0.8266780475,
				"element": "C" 
			},
			{
				"x": -0.9517012849,
				"y": 3.8083988629,
				"z": -1.0843723456,
				"element": "C" 
			},
			{
				"x": -3.678652107,
				"y": 1.1029361362,
				"z": -1.0817197418,
				"element": "H" 
			},
			{
				"x": -2.8241072586,
				"y": -0.0458910563,
				"z": -2.1509708237,
				"element": "H" 
			},
			{
				"x": -3.7159276066,
				"y": -0.6265630523,
				"z": -0.713493583,
				"element": "H" 
			},
			{
				"x": 1.6945631168,
				"y": -3.4426480714,
				"z": -0.0076303723,
				"element": "H" 
			},
			{
				"x": -2.4814765681,
				"y": -2.3418132897,
				"z": 0.2638058887,
				"element": "H" 
			},
			{
				"x": -2.5885761514,
				"y": -4.5207066794,
				"z": 1.4510462143,
				"element": "H" 
			},
			{
				"x": -2.7428210626,
				"y": -4.5237766924,
				"z": -0.3138992612,
				"element": "H" 
			},
			{
				"x": -2.7715726514,
				"y": -6.9062780021,
				"z": 1.0619503308,
				"element": "H" 
			},
			{
				"x": -1.9743596707,
				"y": -6.7791104585,
				"z": -0.512004047,
				"element": "H" 
			},
			{
				"x": -0.6484829028,
				"y": -6.5411813357,
				"z": 2.2392175402,
				"element": "H" 
			},
			{
				"x": -0.1401563264,
				"y": -7.587660236,
				"z": 0.9070115556,
				"element": "H" 
			},
			{
				"x": 0.7363519823,
				"y": -5.7138491402,
				"z": -0.353157215,
				"element": "H" 
			},
			{
				"x": 1.0245978657,
				"y": -5.1253963897,
				"z": 1.2923063696,
				"element": "H" 
			},
			{
				"x": 2.7760542639,
				"y": 0.7127668251,
				"z": 0.6582470314,
				"element": "H" 
			},
			{
				"x": 5.1949540921,
				"y": 1.1045036044,
				"z": 0.377429452,
				"element": "H" 
			},
			{
				"x": 6.5627943555,
				"y": -0.4387151795,
				"z": -1.0138077249,
				"element": "H" 
			},
			{
				"x": 5.4754084598,
				"y": -2.3864792434,
				"z": -2.1190442741,
				"element": "H" 
			},
			{
				"x": 3.0530567034,
				"y": -2.7814775857,
				"z": -1.8259596839,
				"element": "H" 
			},
			{
				"x": -2.9725657088,
				"y": 2.1398057883,
				"z": 1.0927794489,
				"element": "H" 
			},
			{
				"x": -3.7751678191,
				"y": 4.4499394319,
				"z": 1.501454741,
				"element": "H" 
			},
			{
				"x": -2.7515209532,
				"y": 6.3637251637,
				"z": 0.2806299614,
				"element": "H" 
			},
			{
				"x": -0.9309256751,
				"y": 5.9332782248,
				"z": -1.3614549002,
				"element": "H" 
			},
			{
				"x": -0.158733764,
				"y": 3.6171501871,
				"z": -1.7945499537,
				"element": "H" 
			}
		],
		 "valence_orbital": [ 
			{
				"type": "occ",
				"energy": -0.23809,
				"method": "rhf"
			},
			{
				"type": "occ",
				"energy": -0.22832,
				"method": "rhf"
			},
			{
				"type": "occ",
				"energy": -0.22115,
				"method": "rhf"
			},
			{
				"type": "occ",
				"energy": -0.19863,
				"method": "rhf"
			},
			{
				"type": "occ",
				"energy": -0.19246,
				"method": "rhf"
			},
			{
				"type": "unocc",
				"energy": -0.03261,
				"method": "rhf"
			},
			{
				"type": "unocc",
				"energy": -0.00319,
				"method": "rhf"
			},
			{
				"type": "unocc",
				"energy": 0.00748,
				"method": "rhf"
			},
			{
				"type": "unocc",
				"energy": 0.0124,
				"method": "rhf"
			},
			{
				"type": "unocc",
				"energy": 0.0163,
				"method": "rhf"
			}
		],
		"cosmo_sigma_profile": { 
			"-0.025": 0.0,
			"-0.024": 0.0,
			"-0.023": 0.0,
			"-0.022": 0.0,
			"-0.021": 0.0,
			"-0.02": 0.0,
			"-0.019": 0.0,
			"-0.018": 0.0,
			"-0.017": 0.0,
			"-0.016": 0.0,
			"-0.015": 0.0959095856488,
			"-0.014": 0.104115741351,
			"-0.013": 0.0648777360937,
			"-0.012": 0.0183990316423,
			"-0.011": 0.165093359719,
			"-0.01": 0.100208226545,
			"-0.009": 0.25483430593,
			"-0.008": 1.08369762363,
			"-0.007": 2.94339159911,
			"-0.006": 8.89053010537,
			"-0.005": 26.1964461034,
			"-0.004": 45.6376554708,
			"-0.003": 55.5795389161,
			"-0.002": 47.0198797102,
			"-0.001": 33.728959209,
			"0.0": 28.707006985,
			"0.001": 21.6014352019,
			"0.002": 23.1989515873,
			"0.003": 26.9549863043,
			"0.004": 28.8340298945,
			"0.005": 23.1222157192,
			"0.006": 17.1239745398,
			"0.007": 4.12321438317,
			"0.008": 2.39410001133,
			"0.009": 1.73544234798,
			"0.01": 2.4951711675,
			"0.011": 2.1584248844,
			"0.012": 2.2487494695,
			"0.013": 3.47600286728,
			"0.014": 2.33694506927,
			"0.015": 0.0,
			"0.016": 0.0,
			"0.017": 0.0,
			"0.018": 0.0,
			"0.019": 0.0,
			"0.02": 0.0,
			"0.021": 0.0,
			"0.022": 0.0,
			"0.023": 0.0,
			"0.024": 0.0,
			"0.025": 0.0
		}
	}
}
