{
	 "smiles": "CN(C)C(=O)OC1=CC(=O)CC(C)(C)C1", 
	 "Tm": 318.65, 
	 "num_atms": 32, 
	 "gaussian": { 
		 "optdone": 1, 
		 "sigma_profile": "yes", 
		 "theory": "DFT", 
		 "functional": "B3LYP", 
		 "basiset": "6-31G**", 
		 "properties": { 
			 "R2extent": 4376.8524, 
			 "electric_dipole_moment_norm": 5.12507705601, 
			 "electric_quadrupole_moment_norm": 17.2422061793, 
			 "total_energy": -709.855762183, 
			 "HOMO_LUMO_gap": 0.18941, 
			 "cosmo_polarized_energy": -13.01, 
			 "cosmo_cavitation_energy": 33.94, 
			 "cosmo_dispersion_energy": -23.79, 
			 "cosmo_repulsion_energy": 1.89, 
			 "cosmo_total_nonelectrostatic_energy": 12.04, 
			 "SMD_solvation_energy": 7.52 
		},
		"coords": [
			{
				"x": 1.8108829455,
				"y": 2.4270983369,
				"z": 2.9499995844,
				"element": "C" 
			},
			{
				"x": 2.3699120863,
				"y": 2.6301038789,
				"z": 1.6207053397,
				"element": "N" 
			},
			{
				"x": 3.3319986184,
				"y": 3.7136327133,
				"z": 1.4790234863,
				"element": "C" 
			},
			{
				"x": 2.1278732249,
				"y": 1.8335008394,
				"z": 0.5429060623,
				"element": "C" 
			},
			{
				"x": 2.607738571,
				"y": 1.9721421916,
				"z": -0.5670136936,
				"element": "O" 
			},
			{
				"x": 1.262731563,
				"y": 0.8064351853,
				"z": 0.8740707821,
				"element": "O" 
			},
			{
				"x": 0.7507912223,
				"y": -0.0072598178,
				"z": -0.122471053,
				"element": "C" 
			},
			{
				"x": 0.715013677,
				"y": -1.3281026288,
				"z": 0.1287180413,
				"element": "C" 
			},
			{
				"x": 0.1026745868,
				"y": -2.271559261,
				"z": -0.8198528645,
				"element": "C" 
			},
			{
				"x": 0.028497347,
				"y": -3.4688059547,
				"z": -0.5778174047,
				"element": "O" 
			},
			{
				"x": -0.3886059864,
				"y": -1.6860582277,
				"z": -2.1401010125,
				"element": "C" 
			},
			{
				"x": -0.9164162674,
				"y": -0.2380660308,
				"z": -2.0301105442,
				"element": "C" 
			},
			{
				"x": -1.1987444703,
				"y": 0.3193684827,
				"z": -3.4355309214,
				"element": "C" 
			},
			{
				"x": -2.2204437052,
				"y": -0.2095108102,
				"z": -1.2071707837,
				"element": "C" 
			},
			{
				"x": 0.1722745072,
				"y": 0.6341982532,
				"z": -1.3539545569,
				"element": "C" 
			},
			{
				"x": 2.599908587,
				"y": 2.1557521752,
				"z": 3.6634276877,
				"element": "H" 
			},
			{
				"x": 1.3397933156,
				"y": 3.3537345587,
				"z": 3.2994025042,
				"element": "H" 
			},
			{
				"x": 1.065376323,
				"y": 1.6368134363,
				"z": 2.9315897623,
				"element": "H" 
			},
			{
				"x": 2.8682319576,
				"y": 4.6696439375,
				"z": 1.7500792805,
				"element": "H" 
			},
			{
				"x": 4.1956871661,
				"y": 3.5504711668,
				"z": 2.1360404892,
				"element": "H" 
			},
			{
				"x": 3.668406801,
				"y": 3.7539406968,
				"z": 0.4448072789,
				"element": "H" 
			},
			{
				"x": 1.1293466348,
				"y": -1.7339138227,
				"z": 1.0454279555,
				"element": "H" 
			},
			{
				"x": 0.4660005012,
				"y": -1.70828027,
				"z": -2.832898818,
				"element": "H" 
			},
			{
				"x": -1.1457934282,
				"y": -2.3621274536,
				"z": -2.5490283876,
				"element": "H" 
			},
			{
				"x": -1.555088054,
				"y": 1.3545691744,
				"z": -3.3836184643,
				"element": "H" 
			},
			{
				"x": -0.2979644806,
				"y": 0.3051642084,
				"z": -4.0588647679,
				"element": "H" 
			},
			{
				"x": -1.9684206026,
				"y": -0.2730302223,
				"z": -3.9420647423,
				"element": "H" 
			},
			{
				"x": -2.9847541418,
				"y": -0.8387838174,
				"z": -1.6755220301,
				"element": "H" 
			},
			{
				"x": -2.6184367293,
				"y": 0.8096163505,
				"z": -1.1464332355,
				"element": "H" 
			},
			{
				"x": -2.0704449288,
				"y": -0.5730598549,
				"z": -0.186203585,
				"element": "H" 
			},
			{
				"x": 0.9906367918,
				"y": 0.8358176507,
				"z": -2.0543145112,
				"element": "H" 
			},
			{
				"x": -0.2395636329,
				"y": 1.6146549356,
				"z": -1.0862268777,
				"element": "H" 
			}
		],
		 "valence_orbital": [ 
			{
				"type": "occ",
				"energy": -0.31942,
				"method": "rhf"
			},
			{
				"type": "occ",
				"energy": -0.28605,
				"method": "rhf"
			},
			{
				"type": "occ",
				"energy": -0.25859,
				"method": "rhf"
			},
			{
				"type": "occ",
				"energy": -0.24742,
				"method": "rhf"
			},
			{
				"type": "occ",
				"energy": -0.23244,
				"method": "rhf"
			},
			{
				"type": "unocc",
				"energy": -0.04303,
				"method": "rhf"
			},
			{
				"type": "unocc",
				"energy": 0.03878,
				"method": "rhf"
			},
			{
				"type": "unocc",
				"energy": 0.06408,
				"method": "rhf"
			},
			{
				"type": "unocc",
				"energy": 0.08092,
				"method": "rhf"
			},
			{
				"type": "unocc",
				"energy": 0.08514,
				"method": "rhf"
			}
		],
		"cosmo_sigma_profile": { 
			"-0.025": 0.0,
			"-0.024": 0.0,
			"-0.023": 0.0,
			"-0.022": 0.0,
			"-0.021": 0.0,
			"-0.02": 0.0,
			"-0.019": 0.0,
			"-0.018": 0.0,
			"-0.017": 0.0,
			"-0.016": 0.0,
			"-0.015": 0.0,
			"-0.014": 0.0,
			"-0.013": 0.0,
			"-0.012": 0.0,
			"-0.011": 0.0,
			"-0.01": 0.0,
			"-0.009": 0.0,
			"-0.008": 0.0,
			"-0.007": 0.275679584149,
			"-0.006": 3.74604105374,
			"-0.005": 22.8853957054,
			"-0.004": 25.6891277767,
			"-0.003": 38.1570920712,
			"-0.002": 38.6176537229,
			"-0.001": 29.2328704898,
			"0.0": 24.6882910096,
			"0.001": 22.2253284557,
			"0.002": 10.7402324261,
			"0.003": 6.71760433607,
			"0.004": 4.04761670345,
			"0.005": 3.05316695736,
			"0.006": 3.05123661521,
			"0.007": 3.33124813522,
			"0.008": 2.46012014075,
			"0.009": 3.39180428056,
			"0.01": 2.87408619902,
			"0.011": 4.14277105046,
			"0.012": 7.14590182961,
			"0.013": 5.98801383347,
			"0.014": 2.60121345714,
			"0.015": 0.0984639354711,
			"0.016": 0.0,
			"0.017": 0.0,
			"0.018": 0.0,
			"0.019": 0.0,
			"0.02": 0.0,
			"0.021": 0.0,
			"0.022": 0.0,
			"0.023": 0.0,
			"0.024": 0.0,
			"0.025": 0.0
		}
	}
}
