{
	 "smiles": "CC1=NN2C(S1)=NC(C)=C2CO", 
	 "Tm": 403.15, 
	 "num_atms": 21, 
	 "gaussian": { 
		 "optdone": 1, 
		 "sigma_profile": "yes", 
		 "theory": "DFT", 
		 "functional": "B3LYP", 
		 "basiset": "6-31G**", 
		 "properties": { 
			 "R2extent": 2660.4232, 
			 "electric_dipole_moment_norm": 3.23792603529, 
			 "electric_quadrupole_moment_norm": 17.5135180849, 
			 "total_energy": -909.795523756, 
			 "HOMO_LUMO_gap": 0.18281, 
			 "cosmo_polarized_energy": -11.42, 
			 "cosmo_cavitation_energy": 26.37, 
			 "cosmo_dispersion_energy": -20.11, 
			 "cosmo_repulsion_energy": 1.58, 
			 "cosmo_total_nonelectrostatic_energy": 7.84, 
			 "SMD_solvation_energy": 1.85 
		},
		"coords": [
			{
				"x": 1.7417051181,
				"y": -3.6856375598,
				"z": 1.4223862593,
				"element": "C" 
			},
			{
				"x": 0.975339632,
				"y": -2.6213465471,
				"z": 0.7074305305,
				"element": "C" 
			},
			{
				"x": 0.2850702852,
				"y": -1.7117710698,
				"z": 1.3256177587,
				"element": "N" 
			},
			{
				"x": -0.3052192477,
				"y": -0.895004897,
				"z": 0.4089559974,
				"element": "N" 
			},
			{
				"x": -0.0784362396,
				"y": -1.1168893638,
				"z": -0.926823688,
				"element": "C" 
			},
			{
				"x": 0.9577896056,
				"y": -2.5256240433,
				"z": -1.0749883661,
				"element": "S" 
			},
			{
				"x": -0.6571224718,
				"y": -0.2305338951,
				"z": -1.6923722739,
				"element": "N" 
			},
			{
				"x": -1.2921989281,
				"y": 0.6289761155,
				"z": -0.7960325704,
				"element": "C" 
			},
			{
				"x": -2.0839735483,
				"y": 1.7908173203,
				"z": -1.3077280915,
				"element": "C" 
			},
			{
				"x": -1.0890635193,
				"y": 0.245036533,
				"z": 0.5179882365,
				"element": "C" 
			},
			{
				"x": -1.5293761512,
				"y": 0.7475207358,
				"z": 1.857198238,
				"element": "C" 
			},
			{
				"x": -0.4508482532,
				"y": 0.9600950647,
				"z": 2.7609065127,
				"element": "O" 
			},
			{
				"x": 2.8072131889,
				"y": -3.6401736397,
				"z": 1.1749006804,
				"element": "H" 
			},
			{
				"x": 1.377649489,
				"y": -4.6828907015,
				"z": 1.1542370193,
				"element": "H" 
			},
			{
				"x": 1.6223908375,
				"y": -3.5447898791,
				"z": 2.4983312305,
				"element": "H" 
			},
			{
				"x": -2.3993786349,
				"y": 2.4501572814,
				"z": -0.4946911592,
				"element": "H" 
			},
			{
				"x": -1.487690171,
				"y": 2.3765469854,
				"z": -2.0143860974,
				"element": "H" 
			},
			{
				"x": -2.9811401521,
				"y": 1.4552076383,
				"z": -1.8403544792,
				"element": "H" 
			},
			{
				"x": -2.2689847382,
				"y": 0.0554592248,
				"z": 2.2931046981,
				"element": "H" 
			},
			{
				"x": -2.0295037102,
				"y": 1.7110477338,
				"z": 1.7296322354,
				"element": "H" 
			},
			{
				"x": -0.0232223907,
				"y": 0.1018969632,
				"z": 2.8942873288,
				"element": "H" 
			}
		],
		 "valence_orbital": [ 
			{
				"type": "occ",
				"energy": -0.32015,
				"method": "rhf"
			},
			{
				"type": "occ",
				"energy": -0.28092,
				"method": "rhf"
			},
			{
				"type": "occ",
				"energy": -0.26543,
				"method": "rhf"
			},
			{
				"type": "occ",
				"energy": -0.24778,
				"method": "rhf"
			},
			{
				"type": "occ",
				"energy": -0.21752,
				"method": "rhf"
			},
			{
				"type": "unocc",
				"energy": -0.03471,
				"method": "rhf"
			},
			{
				"type": "unocc",
				"energy": -0.0066,
				"method": "rhf"
			},
			{
				"type": "unocc",
				"energy": 0.03287,
				"method": "rhf"
			},
			{
				"type": "unocc",
				"energy": 0.0542,
				"method": "rhf"
			},
			{
				"type": "unocc",
				"energy": 0.06472,
				"method": "rhf"
			}
		],
		"cosmo_sigma_profile": { 
			"-0.025": 0.0,
			"-0.024": 0.0,
			"-0.023": 0.0,
			"-0.022": 0.0,
			"-0.021": 0.0,
			"-0.02": 0.0,
			"-0.019": 0.0,
			"-0.018": 0.0,
			"-0.017": 0.0,
			"-0.016": 0.0,
			"-0.015": 0.0,
			"-0.014": 0.0,
			"-0.013": 0.0,
			"-0.012": 0.0,
			"-0.011": 0.176947525927,
			"-0.01": 0.624754772204,
			"-0.009": 0.558540596023,
			"-0.008": 0.574593629649,
			"-0.007": 5.57213122849,
			"-0.006": 13.566517674,
			"-0.005": 13.4363724206,
			"-0.004": 19.3101944796,
			"-0.003": 22.4276768077,
			"-0.002": 21.9490191621,
			"-0.001": 20.409356107,
			"0.0": 20.4375871266,
			"0.001": 13.8435432474,
			"0.002": 10.652011072,
			"0.003": 9.29374631229,
			"0.004": 5.32404146821,
			"0.005": 4.47984720744,
			"0.006": 4.06248049745,
			"0.007": 3.73220466896,
			"0.008": 2.58596421791,
			"0.009": 2.82703235611,
			"0.01": 1.75985982229,
			"0.011": 2.73998036619,
			"0.012": 3.06217226314,
			"0.013": 2.3921212422,
			"0.014": 3.55033017103,
			"0.015": 1.08648179581,
			"0.016": 0.87478059628,
			"0.017": 0.667378530028,
			"0.018": 0.000465785444524,
			"0.019": 0.0,
			"0.02": 0.0,
			"0.021": 0.0,
			"0.022": 0.0,
			"0.023": 0.0,
			"0.024": 0.0,
			"0.025": 0.0
		}
	}
}
