{
	 "smiles": "NC1=NC(O)=CC(O)=N1", 
	 "Tm": 573.15, 
	 "num_atms": 14, 
	 "gaussian": { 
		 "optdone": 1, 
		 "sigma_profile": "yes", 
		 "theory": "DFT", 
		 "functional": "B3LYP", 
		 "basiset": "6-31G**", 
		 "properties": { 
			 "R2extent": 1814.368, 
			 "electric_dipole_moment_norm": 2.60789651827, 
			 "electric_quadrupole_moment_norm": 7.60009961185, 
			 "total_energy": -470.172457398, 
			 "HOMO_LUMO_gap": 0.22544, 
			 "cosmo_polarized_energy": -12.52, 
			 "cosmo_cavitation_energy": 18.78, 
			 "cosmo_dispersion_energy": -14.63, 
			 "cosmo_repulsion_energy": 1.23, 
			 "cosmo_total_nonelectrostatic_energy": 5.38, 
			 "SMD_solvation_energy": 1.58 
		},
		"coords": [
			{
				"x": 0.8543415507,
				"y": 0.424228334,
				"z": -0.1587714432,
				"element": "N" 
			},
			{
				"x": -0.1153868033,
				"y": -0.4572017866,
				"z": 0.2233773415,
				"element": "C" 
			},
			{
				"x": -0.0450401458,
				"y": -0.9284033174,
				"z": 1.4805017153,
				"element": "N" 
			},
			{
				"x": -1.0297107019,
				"y": -1.7546509538,
				"z": 1.8422450823,
				"element": "C" 
			},
			{
				"x": -0.9836458705,
				"y": -2.2401998143,
				"z": 3.0969532657,
				"element": "O" 
			},
			{
				"x": -2.0784594139,
				"y": -2.1343552018,
				"z": 1.0059116999,
				"element": "C" 
			},
			{
				"x": -2.0222583243,
				"y": -1.5791919948,
				"z": -0.2716372852,
				"element": "C" 
			},
			{
				"x": -2.9836004893,
				"y": -1.8866349838,
				"z": -1.1624097796,
				"element": "O" 
			},
			{
				"x": -1.062085121,
				"y": -0.7486215026,
				"z": -0.6855682202,
				"element": "N" 
			},
			{
				"x": 1.6777921513,
				"y": 0.480925346,
				"z": 0.4183154346,
				"element": "H" 
			},
			{
				"x": 0.9440535992,
				"y": 0.6106379427,
				"z": -1.1444263324,
				"element": "H" 
			},
			{
				"x": -0.1911972604,
				"y": -1.8539147356,
				"z": 3.5030363211,
				"element": "H" 
			},
			{
				"x": -2.8646267869,
				"y": -2.80584645,
				"z": 1.3193039185,
				"element": "H" 
			},
			{
				"x": -2.7619763839,
				"y": -1.3994708821,
				"z": -1.9721317183,
				"element": "H" 
			}
		],
		 "valence_orbital": [ 
			{
				"type": "occ",
				"energy": -0.31686,
				"method": "rhf"
			},
			{
				"type": "occ",
				"energy": -0.2847,
				"method": "rhf"
			},
			{
				"type": "occ",
				"energy": -0.26723,
				"method": "rhf"
			},
			{
				"type": "occ",
				"energy": -0.2647,
				"method": "rhf"
			},
			{
				"type": "occ",
				"energy": -0.22192,
				"method": "rhf"
			},
			{
				"type": "unocc",
				"energy": 0.00352,
				"method": "rhf"
			},
			{
				"type": "unocc",
				"energy": 0.01214,
				"method": "rhf"
			},
			{
				"type": "unocc",
				"energy": 0.08086,
				"method": "rhf"
			},
			{
				"type": "unocc",
				"energy": 0.09258,
				"method": "rhf"
			},
			{
				"type": "unocc",
				"energy": 0.09788,
				"method": "rhf"
			}
		],
		"cosmo_sigma_profile": { 
			"-0.025": 0.0,
			"-0.024": 0.0,
			"-0.023": 0.0,
			"-0.022": 0.0,
			"-0.021": 0.0,
			"-0.02": 0.0,
			"-0.019": 0.0,
			"-0.018": 0.132956516135,
			"-0.017": 1.07670646446,
			"-0.016": 1.87459887281,
			"-0.015": 1.49375125028,
			"-0.014": 2.35736535998,
			"-0.013": 2.69189543184,
			"-0.012": 3.07516932426,
			"-0.011": 4.08706976205,
			"-0.01": 3.62186226518,
			"-0.009": 2.9077020573,
			"-0.008": 2.71234939145,
			"-0.007": 3.48271197902,
			"-0.006": 5.15373165465,
			"-0.005": 3.21216296101,
			"-0.004": 3.41990824312,
			"-0.003": 4.0695148852,
			"-0.002": 4.77586475065,
			"-0.001": 6.344042769,
			"0.0": 9.39507621438,
			"0.001": 13.490978909,
			"0.002": 10.6557666531,
			"0.003": 10.7508656902,
			"0.004": 7.91604800145,
			"0.005": 6.63553895348,
			"0.006": 7.2883184953,
			"0.007": 4.50161765015,
			"0.008": 5.55864075931,
			"0.009": 6.14506352487,
			"0.01": 6.33544836883,
			"0.011": 3.12598300093,
			"0.012": 0.905168625474,
			"0.013": 0.00231823413402,
			"0.014": 0.0,
			"0.015": 0.0,
			"0.016": 0.0,
			"0.017": 0.0,
			"0.018": 0.0,
			"0.019": 0.0,
			"0.02": 0.0,
			"0.021": 0.0,
			"0.022": 0.0,
			"0.023": 0.0,
			"0.024": 0.0,
			"0.025": 0.0
		}
	}
}
