{
	 "smiles": "CC(NC1=C(C=C(C=C1)C(O)=O)[N+]([O-])=O)C1=NC=CC=C1", 
	 "Tm": 478.15, 
	 "num_atms": 34, 
	 "gaussian": { 
		 "optdone": 1, 
		 "sigma_profile": "yes", 
		 "theory": "DFT", 
		 "functional": "B3LYP", 
		 "basiset": "6-31G**", 
		 "properties": { 
			 "R2extent": 7838.8844, 
			 "electric_dipole_moment_norm": 7.94226198384, 
			 "electric_quadrupole_moment_norm": 25.5049695397, 
			 "total_energy": -1006.39296371, 
			 "HOMO_LUMO_gap": 0.13922, 
			 "cosmo_polarized_energy": -22.64, 
			 "cosmo_cavitation_energy": 39.23, 
			 "cosmo_dispersion_energy": -27.19, 
			 "cosmo_repulsion_energy": 2.08, 
			 "cosmo_total_nonelectrostatic_energy": 14.11, 
			 "SMD_solvation_energy": 8.33 
		},
		"coords": [
			{
				"x": -3.8627427046,
				"y": 2.3782131585,
				"z": 0.4116929195,
				"element": "C" 
			},
			{
				"x": -2.4916624105,
				"y": 1.6879070687,
				"z": 0.459571239,
				"element": "C" 
			},
			{
				"x": -2.230151449,
				"y": 1.0778571546,
				"z": -0.8387082524,
				"element": "N" 
			},
			{
				"x": -1.0145661914,
				"y": 0.6787750485,
				"z": -1.2841170846,
				"element": "C" 
			},
			{
				"x": -0.7988025385,
				"y": 0.1467298226,
				"z": -2.5980244971,
				"element": "C" 
			},
			{
				"x": 0.4696830953,
				"y": -0.2435613634,
				"z": -3.0269267586,
				"element": "C" 
			},
			{
				"x": 1.5822839264,
				"y": -0.1153287892,
				"z": -2.2034887964,
				"element": "C" 
			},
			{
				"x": 1.3842425774,
				"y": 0.3860452388,
				"z": -0.9003197465,
				"element": "C" 
			},
			{
				"x": 0.1362562837,
				"y": 0.7663361056,
				"z": -0.4517394178,
				"element": "C" 
			},
			{
				"x": 2.9018810013,
				"y": -0.562447498,
				"z": -2.7404035602,
				"element": "C" 
			},
			{
				"x": 4.0124360172,
				"y": -0.1306067793,
				"z": -2.0789880861,
				"element": "O" 
			},
			{
				"x": 3.0197236509,
				"y": -1.2741439332,
				"z": -3.7103090763,
				"element": "O" 
			},
			{
				"x": -1.8832938949,
				"y": -0.0190131547,
				"z": -3.5542520213,
				"element": "N" 
			},
			{
				"x": -3.0397360975,
				"y": 0.3010704764,
				"z": -3.2125341405,
				"element": "O" 
			},
			{
				"x": -1.6243520567,
				"y": -0.470803939,
				"z": -4.6662921965,
				"element": "O" 
			},
			{
				"x": -2.4275312113,
				"y": 0.6927364315,
				"z": 1.6187955669,
				"element": "C" 
			},
			{
				"x": -1.9218266511,
				"y": 1.181395715,
				"z": 2.7608313662,
				"element": "N" 
			},
			{
				"x": -1.886571803,
				"y": 0.3728286484,
				"z": 3.8278950751,
				"element": "C" 
			},
			{
				"x": -2.3424963407,
				"y": -0.9451147885,
				"z": 3.8118576868,
				"element": "C" 
			},
			{
				"x": -2.8608684168,
				"y": -1.4480238534,
				"z": 2.6183826658,
				"element": "C" 
			},
			{
				"x": -2.905048875,
				"y": -0.6172717157,
				"z": 1.5008000039,
				"element": "C" 
			},
			{
				"x": -3.8830979925,
				"y": 3.1429177154,
				"z": -0.3707000955,
				"element": "H" 
			},
			{
				"x": -4.6589668644,
				"y": 1.6523949092,
				"z": 0.2138536577,
				"element": "H" 
			},
			{
				"x": -4.0684261993,
				"y": 2.8553275652,
				"z": 1.372409222,
				"element": "H" 
			},
			{
				"x": -1.7329045319,
				"y": 2.4517869707,
				"z": 0.665761794,
				"element": "H" 
			},
			{
				"x": -2.9807796502,
				"y": 0.9842802808,
				"z": -1.5145264105,
				"element": "H" 
			},
			{
				"x": 0.5856588808,
				"y": -0.6514051207,
				"z": -4.0229086119,
				"element": "H" 
			},
			{
				"x": 2.2131078439,
				"y": 0.4473898447,
				"z": -0.1987121381,
				"element": "H" 
			},
			{
				"x": 0.0235704214,
				"y": 1.1192210494,
				"z": 0.5654237313,
				"element": "H" 
			},
			{
				"x": 3.7830597475,
				"y": 0.567399009,
				"z": -1.4508065057,
				"element": "H" 
			},
			{
				"x": -1.4678196408,
				"y": 0.8007169638,
				"z": 4.7370425487,
				"element": "H" 
			},
			{
				"x": -2.2857803279,
				"y": -1.5573336732,
				"z": 4.7060636112,
				"element": "H" 
			},
			{
				"x": -3.2222848168,
				"y": -2.4705554022,
				"z": 2.5580191943,
				"element": "H" 
			},
			{
				"x": -3.2914927809,
				"y": -0.9738191663,
				"z": 0.5514571135,
				"element": "H" 
			}
		],
		 "valence_orbital": [ 
			{
				"type": "occ",
				"energy": -0.29108,
				"method": "rhf"
			},
			{
				"type": "occ",
				"energy": -0.27516,
				"method": "rhf"
			},
			{
				"type": "occ",
				"energy": -0.27336,
				"method": "rhf"
			},
			{
				"type": "occ",
				"energy": -0.27241,
				"method": "rhf"
			},
			{
				"type": "occ",
				"energy": -0.23337,
				"method": "rhf"
			},
			{
				"type": "unocc",
				"energy": -0.09415,
				"method": "rhf"
			},
			{
				"type": "unocc",
				"energy": -0.04749,
				"method": "rhf"
			},
			{
				"type": "unocc",
				"energy": -0.04187,
				"method": "rhf"
			},
			{
				"type": "unocc",
				"energy": -0.02958,
				"method": "rhf"
			},
			{
				"type": "unocc",
				"energy": -0.01179,
				"method": "rhf"
			}
		],
		"cosmo_sigma_profile": { 
			"-0.025": 0.0,
			"-0.024": 0.0,
			"-0.023": 0.0,
			"-0.022": 0.0,
			"-0.021": 0.0,
			"-0.02": 0.0,
			"-0.019": 0.54494425871,
			"-0.018": 0.917241140627,
			"-0.017": 0.963650203996,
			"-0.016": 1.27555954741,
			"-0.015": 0.861539337739,
			"-0.014": 0.761029929815,
			"-0.013": 1.45683124959,
			"-0.012": 1.1002332514,
			"-0.011": 1.37389619547,
			"-0.01": 1.45378097222,
			"-0.009": 1.61248150825,
			"-0.008": 3.28428127132,
			"-0.007": 8.46183467542,
			"-0.006": 17.1177233267,
			"-0.005": 22.4681947091,
			"-0.004": 22.1512316487,
			"-0.003": 24.1660610973,
			"-0.002": 25.0086104996,
			"-0.001": 27.2509564966,
			"0.0": 24.5134730823,
			"0.001": 22.5183766531,
			"0.002": 19.1185496211,
			"0.003": 14.9774901895,
			"0.004": 6.15458306453,
			"0.005": 6.31570060161,
			"0.006": 6.97553616711,
			"0.007": 7.31351213599,
			"0.008": 10.2989303918,
			"0.009": 8.15730113524,
			"0.01": 8.55880989643,
			"0.011": 6.77199048311,
			"0.012": 6.05688104831,
			"0.013": 2.45704539511,
			"0.014": 0.52889924911,
			"0.015": 0.586766617284,
			"0.016": 0.294808264462,
			"0.017": 0.0,
			"0.018": 0.0,
			"0.019": 0.0,
			"0.02": 0.0,
			"0.021": 0.0,
			"0.022": 0.0,
			"0.023": 0.0,
			"0.024": 0.0,
			"0.025": 0.0
		}
	}
}
