{
	 "smiles": "COC1=CC(NC(=O)CCl)=CC=C1", 
	 "Tm": 347.15, 
	 "num_atms": 23, 
	 "gaussian": { 
		 "optdone": 1, 
		 "sigma_profile": "yes", 
		 "theory": "DFT", 
		 "functional": "B3LYP", 
		 "basiset": "6-31G**", 
		 "properties": { 
			 "R2extent": 4053.3221, 
			 "electric_dipole_moment_norm": 4.62697338224, 
			 "electric_quadrupole_moment_norm": 23.7899377025, 
			 "total_energy": -1014.37100814, 
			 "HOMO_LUMO_gap": 0.20391, 
			 "cosmo_polarized_energy": -16.23, 
			 "cosmo_cavitation_energy": 29.04, 
			 "cosmo_dispersion_energy": -20.9, 
			 "cosmo_repulsion_energy": 1.68, 
			 "cosmo_total_nonelectrostatic_energy": 9.83, 
			 "SMD_solvation_energy": 6.17 
		},
		"coords": [
			{
				"x": 1.8102513366,
				"y": -1.3844571512,
				"z": -1.3104042359,
				"element": "C" 
			},
			{
				"x": 1.5884542214,
				"y": -1.8824334454,
				"z": 0.0004887104,
				"element": "O" 
			},
			{
				"x": 0.6372226481,
				"y": -1.2879366294,
				"z": 0.7726062115,
				"element": "C" 
			},
			{
				"x": -0.135094551,
				"y": -0.1935751884,
				"z": 0.3660432477,
				"element": "C" 
			},
			{
				"x": -1.0995572407,
				"y": 0.3375963486,
				"z": 1.2372248982,
				"element": "C" 
			},
			{
				"x": -1.8846694818,
				"y": 1.4584108523,
				"z": 0.8568439875,
				"element": "N" 
			},
			{
				"x": -2.6667774427,
				"y": 1.6852449597,
				"z": -0.2598584773,
				"element": "C" 
			},
			{
				"x": -3.3129935179,
				"y": 2.7104326373,
				"z": -0.3678374703,
				"element": "O" 
			},
			{
				"x": -2.6565030691,
				"y": 0.5842011634,
				"z": -1.3279198274,
				"element": "C" 
			},
			{
				"x": -4.1384102198,
				"y": 0.6240650271,
				"z": -2.3374285344,
				"element": "Cl" 
			},
			{
				"x": -1.2602640816,
				"y": -0.1945352653,
				"z": 2.5196920885,
				"element": "C" 
			},
			{
				"x": -0.4626226327,
				"y": -1.2691507049,
				"z": 2.9206055224,
				"element": "C" 
			},
			{
				"x": 0.4735400703,
				"y": -1.8258780972,
				"z": 2.0581777148,
				"element": "C" 
			},
			{
				"x": 2.5875887917,
				"y": -2.0150339539,
				"z": -1.7437374292,
				"element": "H" 
			},
			{
				"x": 0.9052800149,
				"y": -1.4529910777,
				"z": -1.9277138754,
				"element": "H" 
			},
			{
				"x": 2.1584531038,
				"y": -0.3437263547,
				"z": -1.2948657681,
				"element": "H" 
			},
			{
				"x": 0.0262729256,
				"y": 0.2743766282,
				"z": -0.5960600853,
				"element": "H" 
			},
			{
				"x": -2.0255936348,
				"y": 2.1767467517,
				"z": 1.5572416897,
				"element": "H" 
			},
			{
				"x": -1.8098272644,
				"y": 0.7324643074,
				"z": -2.00175733,
				"element": "H" 
			},
			{
				"x": -2.5777289057,
				"y": -0.4082563701,
				"z": -0.8846013368,
				"element": "H" 
			},
			{
				"x": -2.0105254891,
				"y": 0.2200667541,
				"z": 3.1855404306,
				"element": "H" 
			},
			{
				"x": -0.5856399699,
				"y": -1.6845538816,
				"z": 3.9163302153,
				"element": "H" 
			},
			{
				"x": 1.092244389,
				"y": -2.66647731,
				"z": 2.3524896535,
				"element": "H" 
			}
		],
		 "valence_orbital": [ 
			{
				"type": "occ",
				"energy": -0.29712,
				"method": "rhf"
			},
			{
				"type": "occ",
				"energy": -0.29315,
				"method": "rhf"
			},
			{
				"type": "occ",
				"energy": -0.2666,
				"method": "rhf"
			},
			{
				"type": "occ",
				"energy": -0.25137,
				"method": "rhf"
			},
			{
				"type": "occ",
				"energy": -0.22991,
				"method": "rhf"
			},
			{
				"type": "unocc",
				"energy": -0.026,
				"method": "rhf"
			},
			{
				"type": "unocc",
				"energy": -0.01256,
				"method": "rhf"
			},
			{
				"type": "unocc",
				"energy": 0.01372,
				"method": "rhf"
			},
			{
				"type": "unocc",
				"energy": 0.03524,
				"method": "rhf"
			},
			{
				"type": "unocc",
				"energy": 0.07383,
				"method": "rhf"
			}
		],
		"cosmo_sigma_profile": { 
			"-0.025": 0.0,
			"-0.024": 0.0,
			"-0.023": 0.0,
			"-0.022": 0.0,
			"-0.021": 0.0,
			"-0.02": 0.0,
			"-0.019": 0.0,
			"-0.018": 0.0,
			"-0.017": 0.0,
			"-0.016": 0.0,
			"-0.015": 0.20583931371,
			"-0.014": 0.935298535307,
			"-0.013": 1.14208886395,
			"-0.012": 1.20828740716,
			"-0.011": 1.78231383018,
			"-0.01": 2.79344276949,
			"-0.009": 4.00737368447,
			"-0.008": 4.90014451049,
			"-0.007": 6.82690791401,
			"-0.006": 15.4315627029,
			"-0.005": 19.4284592278,
			"-0.004": 17.7906727041,
			"-0.003": 16.2410583011,
			"-0.002": 10.5692148117,
			"-0.001": 13.0380747084,
			"0.0": 10.5793761024,
			"0.001": 11.5366041187,
			"0.002": 13.1909825223,
			"0.003": 14.4123823649,
			"0.004": 15.7935905854,
			"0.005": 14.2454631299,
			"0.006": 9.86027274104,
			"0.007": 3.87788367677,
			"0.008": 3.12034991067,
			"0.009": 3.92613465676,
			"0.01": 2.83603095901,
			"0.011": 2.63440489305,
			"0.012": 4.18646492746,
			"0.013": 5.05224544927,
			"0.014": 1.49216817787,
			"0.015": 0.132640438683,
			"0.016": 0.0,
			"0.017": 0.0,
			"0.018": 0.0,
			"0.019": 0.0,
			"0.02": 0.0,
			"0.021": 0.0,
			"0.022": 0.0,
			"0.023": 0.0,
			"0.024": 0.0,
			"0.025": 0.0
		}
	}
}
