{
	 "smiles": "CC(=O)C1=C(Br)C=C(F)C=C1", 
	 "Tm": 322.15, 
	 "num_atms": 17, 
	 "gaussian": { 
		 "optdone": 1, 
		 "sigma_profile": "yes", 
		 "theory": "DFT", 
		 "functional": "B3LYP", 
		 "basiset": "6-31G**", 
		 "properties": { 
			 "R2extent": 3566.8595, 
			 "electric_dipole_moment_norm": 1.42040595958, 
			 "electric_quadrupole_moment_norm": 6.97328297217, 
			 "total_energy": -3054.92332363, 
			 "HOMO_LUMO_gap": 0.19421, 
			 "cosmo_polarized_energy": -6.17, 
			 "cosmo_cavitation_energy": 23.88, 
			 "cosmo_dispersion_energy": -17.82, 
			 "cosmo_repulsion_energy": 1.38, 
			 "cosmo_total_nonelectrostatic_energy": 7.44, 
			 "SMD_solvation_energy": 4.37 
		},
		"coords": [
			{
				"x": 1.9739018394,
				"y": 1.0748209005,
				"z": -0.0226912437,
				"element": "C" 
			},
			{
				"x": 0.833778314,
				"y": 0.2594328597,
				"z": 0.5517390665,
				"element": "C" 
			},
			{
				"x": 0.4723633227,
				"y": 0.4625010814,
				"z": 1.7009805105,
				"element": "O" 
			},
			{
				"x": 0.0751419207,
				"y": -0.7645752093,
				"z": -0.2684657183,
				"element": "C" 
			},
			{
				"x": 0.4633521098,
				"y": -1.4209795533,
				"z": -1.4517091571,
				"element": "C" 
			},
			{
				"x": 2.1746344908,
				"y": -1.2070150458,
				"z": -2.2915379069,
				"element": "Br" 
			},
			{
				"x": -0.3765007456,
				"y": -2.3358944032,
				"z": -2.0886756319,
				"element": "C" 
			},
			{
				"x": -1.6248732387,
				"y": -2.5977132743,
				"z": -1.5411827689,
				"element": "C" 
			},
			{
				"x": -2.4304528485,
				"y": -3.4722221659,
				"z": -2.1659200113,
				"element": "F" 
			},
			{
				"x": -2.0550009051,
				"y": -1.9874534052,
				"z": -0.3681427958,
				"element": "C" 
			},
			{
				"x": -1.1962787706,
				"y": -1.0904214799,
				"z": 0.2485591264,
				"element": "C" 
			},
			{
				"x": 2.1303737394,
				"y": 1.9269760927,
				"z": 0.6405514658,
				"element": "H" 
			},
			{
				"x": 1.7712340337,
				"y": 1.4152079072,
				"z": -1.041037452,
				"element": "H" 
			},
			{
				"x": 2.8916449789,
				"y": 0.4804408061,
				"z": -0.0587966245,
				"element": "H" 
			},
			{
				"x": -0.0673422333,
				"y": -2.8454815988,
				"z": -2.9923459176,
				"element": "H" 
			},
			{
				"x": -3.0333080614,
				"y": -2.2177426009,
				"z": 0.0382034237,
				"element": "H" 
			},
			{
				"x": -1.4840679461,
				"y": -0.5998809109,
				"z": 1.1715716348,
				"element": "H" 
			}
		],
		 "valence_orbital": [ 
			{
				"type": "occ",
				"energy": -0.32526,
				"method": "rhf"
			},
			{
				"type": "occ",
				"energy": -0.29958,
				"method": "rhf"
			},
			{
				"type": "occ",
				"energy": -0.27098,
				"method": "rhf"
			},
			{
				"type": "occ",
				"energy": -0.26096,
				"method": "rhf"
			},
			{
				"type": "occ",
				"energy": -0.25729,
				"method": "rhf"
			},
			{
				"type": "unocc",
				"energy": -0.06308,
				"method": "rhf"
			},
			{
				"type": "unocc",
				"energy": -0.03211,
				"method": "rhf"
			},
			{
				"type": "unocc",
				"energy": -0.01249,
				"method": "rhf"
			},
			{
				"type": "unocc",
				"energy": 0.02493,
				"method": "rhf"
			},
			{
				"type": "unocc",
				"energy": 0.09906,
				"method": "rhf"
			}
		],
		"cosmo_sigma_profile": { 
			"-0.025": 0.0,
			"-0.024": 0.0,
			"-0.023": 0.0,
			"-0.022": 0.0,
			"-0.021": 0.0,
			"-0.02": 0.0,
			"-0.019": 0.0,
			"-0.018": 0.0,
			"-0.017": 0.0,
			"-0.016": 0.0,
			"-0.015": 0.0,
			"-0.014": 0.0,
			"-0.013": 0.0,
			"-0.012": 0.0,
			"-0.011": 0.0,
			"-0.01": 0.0,
			"-0.009": 0.760933037329,
			"-0.008": 3.19413429658,
			"-0.007": 2.88355051426,
			"-0.006": 7.12581066881,
			"-0.005": 11.7507206801,
			"-0.004": 12.7294973942,
			"-0.003": 13.4872166166,
			"-0.002": 15.7267591168,
			"-0.001": 24.4385810869,
			"0.0": 23.0492814904,
			"0.001": 20.6578229046,
			"0.002": 14.2643041774,
			"0.003": 16.9122171492,
			"0.004": 10.3885842661,
			"0.005": 2.21108086832,
			"0.006": 1.56771942748,
			"0.007": 1.17888848549,
			"0.008": 1.49744742534,
			"0.009": 1.7028084128,
			"0.01": 2.47753632095,
			"0.011": 3.55628736343,
			"0.012": 2.49579814728,
			"0.013": 0.742146027646,
			"0.014": 0.0,
			"0.015": 0.0,
			"0.016": 0.0,
			"0.017": 0.0,
			"0.018": 0.0,
			"0.019": 0.0,
			"0.02": 0.0,
			"0.021": 0.0,
			"0.022": 0.0,
			"0.023": 0.0,
			"0.024": 0.0,
			"0.025": 0.0
		}
	}
}
