{
	 "smiles": "OC(=O)C1CN(CC2=CC=CO2)C(=O)C1", 
	 "Tm": 433.15, 
	 "num_atms": 26, 
	 "gaussian": { 
		 "optdone": 1, 
		 "sigma_profile": "yes", 
		 "theory": "DFT", 
		 "functional": "B3LYP", 
		 "basiset": "6-31G**", 
		 "properties": { 
			 "R2extent": 4613.5448, 
			 "electric_dipole_moment_norm": 4.11616656733, 
			 "electric_quadrupole_moment_norm": 13.6094356172, 
			 "total_energy": -743.343460634, 
			 "HOMO_LUMO_gap": 0.22181, 
			 "cosmo_polarized_energy": -16.64, 
			 "cosmo_cavitation_energy": 30.63, 
			 "cosmo_dispersion_energy": -21.67, 
			 "cosmo_repulsion_energy": 1.72, 
			 "cosmo_total_nonelectrostatic_energy": 10.68, 
			 "SMD_solvation_energy": 7.26 
		},
		"coords": [
			{
				"x": -2.1765493384,
				"y": 2.1510398905,
				"z": -2.7769861945,
				"element": "O" 
			},
			{
				"x": -2.8233916054,
				"y": 1.0276016756,
				"z": -2.3832898491,
				"element": "C" 
			},
			{
				"x": -3.4142611472,
				"y": 0.307476884,
				"z": -3.1568020412,
				"element": "O" 
			},
			{
				"x": -2.6675208786,
				"y": 0.8024275086,
				"z": -0.8940841638,
				"element": "C" 
			},
			{
				"x": -1.234333715,
				"y": 0.3015845302,
				"z": -0.5409417973,
				"element": "C" 
			},
			{
				"x": -1.46575172,
				"y": -0.5496881615,
				"z": 0.6145914121,
				"element": "N" 
			},
			{
				"x": -0.3858433786,
				"y": -1.1235773207,
				"z": 1.4086925732,
				"element": "C" 
			},
			{
				"x": 0.3356887521,
				"y": -0.1334532666,
				"z": 2.2633178819,
				"element": "C" 
			},
			{
				"x": 0.280350311,
				"y": 0.1757427743,
				"z": 3.5903060853,
				"element": "C" 
			},
			{
				"x": 1.2175019433,
				"y": 1.2400800411,
				"z": 3.8043272076,
				"element": "C" 
			},
			{
				"x": 1.7740106591,
				"y": 1.5028042925,
				"z": 2.5910655807,
				"element": "C" 
			},
			{
				"x": 1.2517732709,
				"y": 0.6761647264,
				"z": 1.6382923207,
				"element": "O" 
			},
			{
				"x": -2.772806556,
				"y": -0.9486915601,
				"z": 0.7751823577,
				"element": "C" 
			},
			{
				"x": -3.1759471446,
				"y": -1.7198641283,
				"z": 1.6308887612,
				"element": "O" 
			},
			{
				"x": -3.5950637518,
				"y": -0.2748245587,
				"z": -0.3205790585,
				"element": "C" 
			},
			{
				"x": -2.2928672678,
				"y": 2.2109835704,
				"z": -3.7404961696,
				"element": "H" 
			},
			{
				"x": -2.8254651069,
				"y": 1.7601849908,
				"z": -0.3886685849,
				"element": "H" 
			},
			{
				"x": -0.7890492795,
				"y": -0.2721061985,
				"z": -1.368962138,
				"element": "H" 
			},
			{
				"x": -0.5566727826,
				"y": 1.1252104148,
				"z": -0.3032924268,
				"element": "H" 
			},
			{
				"x": 0.3275917533,
				"y": -1.6286506606,
				"z": 0.7427920658,
				"element": "H" 
			},
			{
				"x": -0.855104313,
				"y": -1.8760891727,
				"z": 2.0472302027,
				"element": "H" 
			},
			{
				"x": -0.3543567459,
				"y": -0.2980014357,
				"z": 4.3255351628,
				"element": "H" 
			},
			{
				"x": 1.4450844621,
				"y": 1.7356756221,
				"z": 4.7371029229,
				"element": "H" 
			},
			{
				"x": 2.5204563564,
				"y": 2.2026651947,
				"z": 2.2487239769,
				"element": "H" 
			},
			{
				"x": -4.5307585325,
				"y": 0.1147317746,
				"z": 0.0851360974,
				"element": "H" 
			},
			{
				"x": -3.8486142443,
				"y": -1.0167274271,
				"z": -1.0857821854,
				"element": "H" 
			}
		],
		 "valence_orbital": [ 
			{
				"type": "occ",
				"energy": -0.28759,
				"method": "rhf"
			},
			{
				"type": "occ",
				"energy": -0.28143,
				"method": "rhf"
			},
			{
				"type": "occ",
				"energy": -0.25077,
				"method": "rhf"
			},
			{
				"type": "occ",
				"energy": -0.24695,
				"method": "rhf"
			},
			{
				"type": "occ",
				"energy": -0.22708,
				"method": "rhf"
			},
			{
				"type": "unocc",
				"energy": -0.00527,
				"method": "rhf"
			},
			{
				"type": "unocc",
				"energy": 0.00543,
				"method": "rhf"
			},
			{
				"type": "unocc",
				"energy": 0.03031,
				"method": "rhf"
			},
			{
				"type": "unocc",
				"energy": 0.06619,
				"method": "rhf"
			},
			{
				"type": "unocc",
				"energy": 0.06876,
				"method": "rhf"
			}
		],
		"cosmo_sigma_profile": { 
			"-0.025": 0.0,
			"-0.024": 0.0,
			"-0.023": 0.0,
			"-0.022": 0.0,
			"-0.021": 0.0,
			"-0.02": 0.0,
			"-0.019": 0.154759560315,
			"-0.018": 0.798478486613,
			"-0.017": 0.943818700478,
			"-0.016": 0.863998921616,
			"-0.015": 0.954805126453,
			"-0.014": 0.560225613773,
			"-0.013": 0.469024699417,
			"-0.012": 0.517047309294,
			"-0.011": 1.09349701331,
			"-0.01": 0.909657105709,
			"-0.009": 0.87925404646,
			"-0.008": 2.78717596106,
			"-0.007": 7.96307031449,
			"-0.006": 21.5618930901,
			"-0.005": 23.7018995474,
			"-0.004": 18.8224137302,
			"-0.003": 17.8643200371,
			"-0.002": 14.5450514148,
			"-0.001": 12.7659513016,
			"0.0": 12.9266671432,
			"0.001": 9.68679310976,
			"0.002": 12.257122091,
			"0.003": 13.0878806432,
			"0.004": 11.605403614,
			"0.005": 10.7398802131,
			"0.006": 8.0542232487,
			"0.007": 4.25058151635,
			"0.008": 5.05259029225,
			"0.009": 4.2288707204,
			"0.01": 3.7578742636,
			"0.011": 5.9996439278,
			"0.012": 3.95781576574,
			"0.013": 4.51901639254,
			"0.014": 3.97388345156,
			"0.015": 0.721340763582,
			"0.016": 0.0,
			"0.017": 0.0,
			"0.018": 0.0,
			"0.019": 0.0,
			"0.02": 0.0,
			"0.021": 0.0,
			"0.022": 0.0,
			"0.023": 0.0,
			"0.024": 0.0,
			"0.025": 0.0
		}
	}
}
