{
	 "smiles": "O=C1CCC2=C(CN1)C=CC=C2", 
	 "Tm": 398.15, 
	 "num_atms": 23, 
	 "gaussian": { 
		 "optdone": 1, 
		 "sigma_profile": "yes", 
		 "theory": "DFT", 
		 "functional": "B3LYP", 
		 "basiset": "6-31G**", 
		 "properties": { 
			 "R2extent": 2138.1909, 
			 "electric_dipole_moment_norm": 3.72205721342, 
			 "electric_quadrupole_moment_norm": 13.6646232341, 
			 "total_energy": -517.686298081, 
			 "HOMO_LUMO_gap": 0.22578, 
			 "cosmo_polarized_energy": -12.55, 
			 "cosmo_cavitation_energy": 25.25, 
			 "cosmo_dispersion_energy": -18.95, 
			 "cosmo_repulsion_energy": 1.5, 
			 "cosmo_total_nonelectrostatic_energy": 7.8, 
			 "SMD_solvation_energy": 3.82 
		},
		"coords": [
			{
				"x": 0.5070864535,
				"y": -2.5235234058,
				"z": 1.9018316867,
				"element": "O" 
			},
			{
				"x": 0.0490924685,
				"y": -1.5348338059,
				"z": 1.3392126087,
				"element": "C" 
			},
			{
				"x": -0.2175189711,
				"y": -1.5934407958,
				"z": -0.1670753971,
				"element": "C" 
			},
			{
				"x": -1.039504966,
				"y": -0.4899222301,
				"z": -0.8604586064,
				"element": "C" 
			},
			{
				"x": -0.3835896194,
				"y": 0.869820548,
				"z": -0.8120367467,
				"element": "C" 
			},
			{
				"x": -0.2492398799,
				"y": 1.5258925577,
				"z": 0.4255603426,
				"element": "C" 
			},
			{
				"x": -0.8178502202,
				"y": 0.8763281421,
				"z": 1.6676687568,
				"element": "C" 
			},
			{
				"x": -0.1705749393,
				"y": -0.3829827772,
				"z": 2.0496971506,
				"element": "N" 
			},
			{
				"x": 0.3814231693,
				"y": 2.7712589913,
				"z": 0.4857524735,
				"element": "C" 
			},
			{
				"x": 0.8815742413,
				"y": 3.3746715881,
				"z": -0.6696582972,
				"element": "C" 
			},
			{
				"x": 0.7519915038,
				"y": 2.7262640792,
				"z": -1.8973043727,
				"element": "C" 
			},
			{
				"x": 0.1240459325,
				"y": 1.4807861544,
				"z": -1.9628038869,
				"element": "C" 
			},
			{
				"x": 0.7723217032,
				"y": -1.6565106134,
				"z": -0.6356372457,
				"element": "H" 
			},
			{
				"x": -0.6873327502,
				"y": -2.5684044762,
				"z": -0.3308980943,
				"element": "H" 
			},
			{
				"x": -1.1878465407,
				"y": -0.7860057345,
				"z": -1.9041976527,
				"element": "H" 
			},
			{
				"x": -2.0419339429,
				"y": -0.4444349308,
				"z": -0.413642348,
				"element": "H" 
			},
			{
				"x": -1.9015019265,
				"y": 0.7285799083,
				"z": 1.5451825857,
				"element": "H" 
			},
			{
				"x": -0.6951330867,
				"y": 1.5530326643,
				"z": 2.5169365163,
				"element": "H" 
			},
			{
				"x": 0.0561650786,
				"y": -0.5043226756,
				"z": 3.0281393156,
				"element": "H" 
			},
			{
				"x": 0.480838995,
				"y": 3.2744506156,
				"z": 1.444623022,
				"element": "H" 
			},
			{
				"x": 1.3691734446,
				"y": 4.3432362012,
				"z": -0.6093730102,
				"element": "H" 
			},
			{
				"x": 1.1374113492,
				"y": 3.1867934129,
				"z": -2.8024339449,
				"element": "H" 
			},
			{
				"x": 0.0235025032,
				"y": 0.9763665821,
				"z": -2.9207848555,
				"element": "H" 
			}
		],
		 "valence_orbital": [ 
			{
				"type": "occ",
				"energy": -0.32644,
				"method": "rhf"
			},
			{
				"type": "occ",
				"energy": -0.25588,
				"method": "rhf"
			},
			{
				"type": "occ",
				"energy": -0.24833,
				"method": "rhf"
			},
			{
				"type": "occ",
				"energy": -0.24329,
				"method": "rhf"
			},
			{
				"type": "occ",
				"energy": -0.23632,
				"method": "rhf"
			},
			{
				"type": "unocc",
				"energy": -0.01054,
				"method": "rhf"
			},
			{
				"type": "unocc",
				"energy": -0.00632,
				"method": "rhf"
			},
			{
				"type": "unocc",
				"energy": 0.03013,
				"method": "rhf"
			},
			{
				"type": "unocc",
				"energy": 0.07522,
				"method": "rhf"
			},
			{
				"type": "unocc",
				"energy": 0.09556,
				"method": "rhf"
			}
		],
		"cosmo_sigma_profile": { 
			"-0.025": 0.0,
			"-0.024": 0.0,
			"-0.023": 0.0,
			"-0.022": 0.0,
			"-0.021": 0.0,
			"-0.02": 0.0,
			"-0.019": 0.0,
			"-0.018": 0.0,
			"-0.017": 0.0,
			"-0.016": 0.0,
			"-0.015": 0.0,
			"-0.014": 0.0930204196219,
			"-0.013": 0.896078602676,
			"-0.012": 1.09199286814,
			"-0.011": 1.39318040367,
			"-0.01": 0.778943556693,
			"-0.009": 1.06833407475,
			"-0.008": 1.2322688874,
			"-0.007": 3.20396928087,
			"-0.006": 8.71412528068,
			"-0.005": 20.5753474216,
			"-0.004": 20.2603461365,
			"-0.003": 23.5362592421,
			"-0.002": 16.5616942482,
			"-0.001": 13.9631867476,
			"0.0": 10.4493197688,
			"0.001": 8.65961534901,
			"0.002": 9.34970863976,
			"0.003": 9.17248268112,
			"0.004": 9.96100065954,
			"0.005": 9.83493558215,
			"0.006": 7.99220752844,
			"0.007": 1.64245341981,
			"0.008": 1.22210672965,
			"0.009": 1.07549864474,
			"0.01": 1.74760634123,
			"0.011": 1.37481800425,
			"0.012": 1.13877098442,
			"0.013": 2.19643753608,
			"0.014": 5.63269075182,
			"0.015": 3.9634589487,
			"0.016": 0.502842888896,
			"0.017": 0.0,
			"0.018": 0.0,
			"0.019": 0.0,
			"0.02": 0.0,
			"0.021": 0.0,
			"0.022": 0.0,
			"0.023": 0.0,
			"0.024": 0.0,
			"0.025": 0.0
		}
	}
}
