{
	 "smiles": "CCC1=C(C=C(C=C1)C(O)=O)[N+]([O-])=O", 
	 "Tm": 432.15, 
	 "num_atms": 23, 
	 "gaussian": { 
		 "optdone": 1, 
		 "sigma_profile": "yes", 
		 "theory": "DFT", 
		 "functional": "B3LYP", 
		 "basiset": "6-31G**", 
		 "properties": { 
			 "R2extent": 3418.622, 
			 "electric_dipole_moment_norm": 6.46242353456, 
			 "electric_quadrupole_moment_norm": 12.1549247048, 
			 "total_energy": -703.939874659, 
			 "HOMO_LUMO_gap": 0.18106, 
			 "cosmo_polarized_energy": -18.36, 
			 "cosmo_cavitation_energy": 27.83, 
			 "cosmo_dispersion_energy": -20.12, 
			 "cosmo_repulsion_energy": 1.58, 
			 "cosmo_total_nonelectrostatic_energy": 9.29, 
			 "SMD_solvation_energy": 7.96 
		},
		"coords": [
			{
				"x": -2.3639078061,
				"y": 2.1324915909,
				"z": 1.4711518116,
				"element": "C" 
			},
			{
				"x": -2.4607238745,
				"y": 0.5988692723,
				"z": 1.3643638684,
				"element": "C" 
			},
			{
				"x": -1.332476054,
				"y": -0.0027392998,
				"z": 0.5524685397,
				"element": "C" 
			},
			{
				"x": -1.3510611192,
				"y": -0.2638450797,
				"z": -0.8325250963,
				"element": "C" 
			},
			{
				"x": -0.2715779756,
				"y": -0.830696099,
				"z": -1.5056092687,
				"element": "C" 
			},
			{
				"x": 0.8926778419,
				"y": -1.158289894,
				"z": -0.8113213154,
				"element": "C" 
			},
			{
				"x": 0.9484693139,
				"y": -0.899359585,
				"z": 0.5649967451,
				"element": "C" 
			},
			{
				"x": -0.1449232936,
				"y": -0.3437769429,
				"z": 1.2204122063,
				"element": "C" 
			},
			{
				"x": 2.0324749688,
				"y": -1.7372414612,
				"z": -1.5984067591,
				"element": "C" 
			},
			{
				"x": 2.97203613,
				"y": -2.4247965858,
				"z": -0.8976962063,
				"element": "O" 
			},
			{
				"x": 2.1370452477,
				"y": -1.6096569509,
				"z": -2.794064615,
				"element": "O" 
			},
			{
				"x": -2.5314230724,
				"y": 0.0424373837,
				"z": -1.6673069926,
				"element": "N" 
			},
			{
				"x": -3.290032603,
				"y": 0.9388400691,
				"z": -1.2963466466,
				"element": "O" 
			},
			{
				"x": -2.6777794742,
				"y": -0.6114963632,
				"z": -2.6970569546,
				"element": "O" 
			},
			{
				"x": -1.4132699595,
				"y": 2.4391771042,
				"z": 1.9194848484,
				"element": "H" 
			},
			{
				"x": -3.174268909,
				"y": 2.5164053947,
				"z": 2.0981448448,
				"element": "H" 
			},
			{
				"x": -2.44773519,
				"y": 2.5905730215,
				"z": 0.4838228367,
				"element": "H" 
			},
			{
				"x": -3.4279079672,
				"y": 0.3290329813,
				"z": 0.9386459602,
				"element": "H" 
			},
			{
				"x": -2.4107177058,
				"y": 0.1638899465,
				"z": 2.3691762149,
				"element": "H" 
			},
			{
				"x": -0.333841141,
				"y": -1.0162253897,
				"z": -2.57038219,
				"element": "H" 
			},
			{
				"x": 1.8523016186,
				"y": -1.0998432785,
				"z": 1.1350447377,
				"element": "H" 
			},
			{
				"x": -0.0861974321,
				"y": -0.159366775,
				"z": 2.2892502048,
				"element": "H" 
			},
			{
				"x": 2.6688384564,
				"y": -2.5938830596,
				"z": 0.004853226,
				"element": "H" 
			}
		],
		 "valence_orbital": [ 
			{
				"type": "occ",
				"energy": -0.3157,
				"method": "rhf"
			},
			{
				"type": "occ",
				"energy": -0.31017,
				"method": "rhf"
			},
			{
				"type": "occ",
				"energy": -0.29187,
				"method": "rhf"
			},
			{
				"type": "occ",
				"energy": -0.28954,
				"method": "rhf"
			},
			{
				"type": "occ",
				"energy": -0.2792,
				"method": "rhf"
			},
			{
				"type": "unocc",
				"energy": -0.09814,
				"method": "rhf"
			},
			{
				"type": "unocc",
				"energy": -0.06702,
				"method": "rhf"
			},
			{
				"type": "unocc",
				"energy": -0.02716,
				"method": "rhf"
			},
			{
				"type": "unocc",
				"energy": 0.03094,
				"method": "rhf"
			},
			{
				"type": "unocc",
				"energy": 0.04546,
				"method": "rhf"
			}
		],
		"cosmo_sigma_profile": { 
			"-0.025": 0.0,
			"-0.024": 0.0,
			"-0.023": 0.0,
			"-0.022": 0.0,
			"-0.021": 0.0,
			"-0.02": 0.120833605337,
			"-0.019": 0.763083617261,
			"-0.018": 1.26070142101,
			"-0.017": 0.772503982461,
			"-0.016": 1.13321395498,
			"-0.015": 0.934459110905,
			"-0.014": 1.16237427262,
			"-0.013": 0.987824760212,
			"-0.012": 1.1987290746,
			"-0.011": 1.83008987166,
			"-0.01": 0.990544488015,
			"-0.009": 1.69935428538,
			"-0.008": 3.47962782842,
			"-0.007": 7.37805682043,
			"-0.006": 7.23033594361,
			"-0.005": 9.65455626467,
			"-0.004": 13.7828702583,
			"-0.003": 16.8608949254,
			"-0.002": 18.7344759385,
			"-0.001": 24.1545366271,
			"0.0": 22.5868448629,
			"0.001": 14.3422919831,
			"0.002": 6.49204702116,
			"0.003": 5.44786147201,
			"0.004": 4.98993890736,
			"0.005": 5.30311874604,
			"0.006": 6.2344292373,
			"0.007": 9.46082471123,
			"0.008": 8.74226637036,
			"0.009": 7.75539503796,
			"0.01": 7.27281389877,
			"0.011": 5.19902543452,
			"0.012": 3.12957821541,
			"0.013": 0.59629913195,
			"0.014": 0.0,
			"0.015": 0.0,
			"0.016": 0.0,
			"0.017": 0.0,
			"0.018": 0.0,
			"0.019": 0.0,
			"0.02": 0.0,
			"0.021": 0.0,
			"0.022": 0.0,
			"0.023": 0.0,
			"0.024": 0.0,
			"0.025": 0.0
		}
	}
}
