{
	 "smiles": "COC1=CC=C(C=C1)C(=S)NC1=CC=CC=C1", 
	 "Tm": 430.15, 
	 "num_atms": 30, 
	 "gaussian": { 
		 "optdone": 1, 
		 "sigma_profile": "yes", 
		 "theory": "DFT", 
		 "functional": "B3LYP", 
		 "basiset": "6-31G**", 
		 "properties": { 
			 "R2extent": 5770.1861, 
			 "electric_dipole_moment_norm": 4.38662952277, 
			 "electric_quadrupole_moment_norm": 26.0904350656, 
			 "total_energy": -1069.48159465, 
			 "HOMO_LUMO_gap": 0.14137, 
			 "cosmo_polarized_energy": -14.6, 
			 "cosmo_cavitation_energy": 35.67, 
			 "cosmo_dispersion_energy": -25.55, 
			 "cosmo_repulsion_energy": 1.96, 
			 "cosmo_total_nonelectrostatic_energy": 12.07, 
			 "SMD_solvation_energy": 5.73 
		},
		"coords": [
			{
				"x": 3.3229431601,
				"y": -0.7070353605,
				"z": 3.4737389305,
				"element": "C" 
			},
			{
				"x": 2.9404523841,
				"y": -0.5821563421,
				"z": 2.1109329057,
				"element": "O" 
			},
			{
				"x": 1.6155488385,
				"y": -0.5934673243,
				"z": 1.8060117896,
				"element": "C" 
			},
			{
				"x": 1.3037584926,
				"y": -0.4925448745,
				"z": 0.4399592425,
				"element": "C" 
			},
			{
				"x": -0.0179750399,
				"y": -0.4809953343,
				"z": 0.025464023,
				"element": "C" 
			},
			{
				"x": -1.0713344886,
				"y": -0.5912071478,
				"z": 0.9568544539,
				"element": "C" 
			},
			{
				"x": -0.7434104891,
				"y": -0.7130894182,
				"z": 2.3140333531,
				"element": "C" 
			},
			{
				"x": 0.5809700952,
				"y": -0.7007794518,
				"z": 2.7458137778,
				"element": "C" 
			},
			{
				"x": -2.4848897891,
				"y": -0.6685286214,
				"z": 0.5180794208,
				"element": "C" 
			},
			{
				"x": -3.582690796,
				"y": -1.7160529837,
				"z": 1.2252410054,
				"element": "S" 
			},
			{
				"x": -2.8797610925,
				"y": 0.0849987406,
				"z": -0.5521692531,
				"element": "N" 
			},
			{
				"x": -2.3698274883,
				"y": 1.3028562774,
				"z": -1.0765583909,
				"element": "C" 
			},
			{
				"x": -1.7224094789,
				"y": 2.2573505141,
				"z": -0.2795775373,
				"element": "C" 
			},
			{
				"x": -1.2874057524,
				"y": 3.4524975026,
				"z": -0.8496999717,
				"element": "C" 
			},
			{
				"x": -1.5084742212,
				"y": 3.7215042692,
				"z": -2.2022538338,
				"element": "C" 
			},
			{
				"x": -2.1723495446,
				"y": 2.7788626758,
				"z": -2.9891967077,
				"element": "C" 
			},
			{
				"x": -2.5969729487,
				"y": 1.5732830228,
				"z": -2.4334492199,
				"element": "C" 
			},
			{
				"x": 2.9385089771,
				"y": 0.1237647704,
				"z": 4.0786348488,
				"element": "H" 
			},
			{
				"x": 2.9781546783,
				"y": -1.6554959408,
				"z": 3.9038586797,
				"element": "H" 
			},
			{
				"x": 4.413437219,
				"y": -0.6830914891,
				"z": 3.4824789844,
				"element": "H" 
			},
			{
				"x": 2.1182164984,
				"y": -0.4290988368,
				"z": -0.2738908764,
				"element": "H" 
			},
			{
				"x": -0.2391985016,
				"y": -0.4123964615,
				"z": -1.0340544085,
				"element": "H" 
			},
			{
				"x": -1.5454860496,
				"y": -0.8208979498,
				"z": 3.0361638898,
				"element": "H" 
			},
			{
				"x": 0.7938378944,
				"y": -0.7835357753,
				"z": 3.8047557102,
				"element": "H" 
			},
			{
				"x": -3.8016661424,
				"y": -0.1735207495,
				"z": -0.8858676156,
				"element": "H" 
			},
			{
				"x": -1.5683686351,
				"y": 2.0667935459,
				"z": 0.7756993575,
				"element": "H" 
			},
			{
				"x": -0.785416378,
				"y": 4.1852477165,
				"z": -0.2246179861,
				"element": "H" 
			},
			{
				"x": -1.1725059348,
				"y": 4.6582328997,
				"z": -2.6360755693,
				"element": "H" 
			},
			{
				"x": -2.3556185215,
				"y": 2.9761760018,
				"z": -4.0413213015,
				"element": "H" 
			},
			{
				"x": -3.1006669454,
				"y": 0.8320261248,
				"z": -3.0480877009,
				"element": "H" 
			}
		],
		 "valence_orbital": [ 
			{
				"type": "occ",
				"energy": -0.26437,
				"method": "rhf"
			},
			{
				"type": "occ",
				"energy": -0.25659,
				"method": "rhf"
			},
			{
				"type": "occ",
				"energy": -0.22653,
				"method": "rhf"
			},
			{
				"type": "occ",
				"energy": -0.21735,
				"method": "rhf"
			},
			{
				"type": "occ",
				"energy": -0.20086,
				"method": "rhf"
			},
			{
				"type": "unocc",
				"energy": -0.05949,
				"method": "rhf"
			},
			{
				"type": "unocc",
				"energy": -0.01747,
				"method": "rhf"
			},
			{
				"type": "unocc",
				"energy": -0.00529,
				"method": "rhf"
			},
			{
				"type": "unocc",
				"energy": -0.00179,
				"method": "rhf"
			},
			{
				"type": "unocc",
				"energy": 0.03176,
				"method": "rhf"
			}
		],
		"cosmo_sigma_profile": { 
			"-0.025": 0.0,
			"-0.024": 0.0,
			"-0.023": 0.0,
			"-0.022": 0.0,
			"-0.021": 0.0,
			"-0.02": 0.0,
			"-0.019": 0.0,
			"-0.018": 0.0,
			"-0.017": 0.0,
			"-0.016": 0.0,
			"-0.015": 0.124481734397,
			"-0.014": 0.856236371658,
			"-0.013": 0.954270283446,
			"-0.012": 0.74556462121,
			"-0.011": 1.4428949215,
			"-0.01": 1.14043278032,
			"-0.009": 0.817506993582,
			"-0.008": 1.27975003012,
			"-0.007": 5.77720650676,
			"-0.006": 19.0067051032,
			"-0.005": 27.2891501861,
			"-0.004": 27.6354794375,
			"-0.003": 21.5441333973,
			"-0.002": 17.2175015124,
			"-0.001": 16.2575469619,
			"0.0": 16.5111167442,
			"0.001": 14.2638988046,
			"0.002": 18.8826742096,
			"0.003": 21.9175349531,
			"0.004": 22.7607069058,
			"0.005": 13.6548512719,
			"0.006": 6.10158556185,
			"0.007": 6.18774179437,
			"0.008": 8.11974794949,
			"0.009": 7.36726113048,
			"0.01": 4.90432152301,
			"0.011": 3.47297914129,
			"0.012": 1.49770587468,
			"0.013": 0.057247588239,
			"0.014": 0.0,
			"0.015": 0.0,
			"0.016": 0.0,
			"0.017": 0.0,
			"0.018": 0.0,
			"0.019": 0.0,
			"0.02": 0.0,
			"0.021": 0.0,
			"0.022": 0.0,
			"0.023": 0.0,
			"0.024": 0.0,
			"0.025": 0.0
		}
	}
}
