{
	 "smiles": "CC1(C)C2CCC1(C)C(=O)C2=C/N(Cl)C1=CC=CC=C1", 
	 "Tm": 375.15, 
	 "num_atms": 40, 
	 "gaussian": { 
		 "optdone": 1, 
		 "sigma_profile": "yes", 
		 "theory": "DFT", 
		 "functional": "B3LYP", 
		 "basiset": "6-31G**", 
		 "properties": { 
			 "R2extent": 6594.5085, 
			 "electric_dipole_moment_norm": 2.26888340379, 
			 "electric_quadrupole_moment_norm": 7.86994894011, 
			 "total_energy": -1249.96988924, 
			 "HOMO_LUMO_gap": 0.14689, 
			 "cosmo_polarized_energy": -11.06, 
			 "cosmo_cavitation_energy": 41.64, 
			 "cosmo_dispersion_energy": -27.92, 
			 "cosmo_repulsion_energy": 2.14, 
			 "cosmo_total_nonelectrostatic_energy": 15.87, 
			 "SMD_solvation_energy": 6.63 
		},
		"coords": [
			{
				"x": -1.3113741571,
				"y": 0.5607723114,
				"z": -1.8089372005,
				"element": "C" 
			},
			{
				"x": -0.0329852959,
				"y": -0.1482028165,
				"z": -2.2905453024,
				"element": "C" 
			},
			{
				"x": -0.3007683207,
				"y": -0.6795677228,
				"z": -3.7082156564,
				"element": "C" 
			},
			{
				"x": 0.4922949317,
				"y": -1.236085371,
				"z": -1.2915655846,
				"element": "C" 
			},
			{
				"x": 1.8486471783,
				"y": -1.6540969627,
				"z": -1.9278137289,
				"element": "C" 
			},
			{
				"x": 2.3938715705,
				"y": -0.3019607188,
				"z": -2.479955406,
				"element": "C" 
			},
			{
				"x": 1.261882786,
				"y": 0.7318674999,
				"z": -2.1556955077,
				"element": "C" 
			},
			{
				"x": 1.3584202839,
				"y": 2.0470367357,
				"z": -2.9079057659,
				"element": "C" 
			},
			{
				"x": 1.351114885,
				"y": 0.8851920113,
				"z": -0.6214386829,
				"element": "C" 
			},
			{
				"x": 1.827703562,
				"y": 1.8361587604,
				"z": -0.0230813518,
				"element": "O" 
			},
			{
				"x": 0.8301676495,
				"y": -0.3917273983,
				"z": -0.0712452106,
				"element": "C" 
			},
			{
				"x": 0.7555626645,
				"y": -0.8148172262,
				"z": 1.2093705699,
				"element": "C" 
			},
			{
				"x": 1.0716600927,
				"y": -0.0701077003,
				"z": 2.3488085675,
				"element": "N" 
			},
			{
				"x": 1.0508356885,
				"y": -1.0873469162,
				"z": 3.8251311053,
				"element": "Cl" 
			},
			{
				"x": 0.5344396152,
				"y": 1.2347297615,
				"z": 2.5953918765,
				"element": "C" 
			},
			{
				"x": 1.3662937993,
				"y": 2.1989367572,
				"z": 3.1706997308,
				"element": "C" 
			},
			{
				"x": 0.8651748769,
				"y": 3.4699170647,
				"z": 3.4382991361,
				"element": "C" 
			},
			{
				"x": -0.4610017358,
				"y": 3.7825821237,
				"z": 3.1270034992,
				"element": "C" 
			},
			{
				"x": -1.2892849294,
				"y": 2.8160427921,
				"z": 2.5529595901,
				"element": "C" 
			},
			{
				"x": -0.7989213511,
				"y": 1.536090762,
				"z": 2.2970133195,
				"element": "C" 
			},
			{
				"x": -1.5913664765,
				"y": 1.3624783464,
				"z": -2.5006544839,
				"element": "H" 
			},
			{
				"x": -2.1489134719,
				"y": -0.1455768705,
				"z": -1.772562183,
				"element": "H" 
			},
			{
				"x": -1.207284645,
				"y": 1.0038700576,
				"z": -0.8151283994,
				"element": "H" 
			},
			{
				"x": 0.557626434,
				"y": -1.1776728509,
				"z": -4.1627113951,
				"element": "H" 
			},
			{
				"x": -0.595161116,
				"y": 0.1394993003,
				"z": -4.3732687196,
				"element": "H" 
			},
			{
				"x": -1.1287310985,
				"y": -1.3979827215,
				"z": -3.6914156513,
				"element": "H" 
			},
			{
				"x": -0.1925245464,
				"y": -2.0666992801,
				"z": -1.0965476663,
				"element": "H" 
			},
			{
				"x": 2.5127959807,
				"y": -2.1044359552,
				"z": -1.1855408935,
				"element": "H" 
			},
			{
				"x": 1.7056720832,
				"y": -2.389422063,
				"z": -2.7255230023,
				"element": "H" 
			},
			{
				"x": 2.5637361258,
				"y": -0.3415255246,
				"z": -3.5606432518,
				"element": "H" 
			},
			{
				"x": 3.3414100832,
				"y": -0.0058420431,
				"z": -2.0198810801,
				"element": "H" 
			},
			{
				"x": 0.5133503526,
				"y": 2.7035516546,
				"z": -2.6773350048,
				"element": "H" 
			},
			{
				"x": 1.3846614533,
				"y": 1.8872331387,
				"z": -3.99093736,
				"element": "H" 
			},
			{
				"x": 2.2677998349,
				"y": 2.5804136342,
				"z": -2.6152407542,
				"element": "H" 
			},
			{
				"x": 0.4759683743,
				"y": -1.8457558793,
				"z": 1.4100987551,
				"element": "H" 
			},
			{
				"x": 2.3982634396,
				"y": 1.9435496298,
				"z": 3.3846957973,
				"element": "H" 
			},
			{
				"x": 1.5130986747,
				"y": 4.2220245489,
				"z": 3.8782005341,
				"element": "H" 
			},
			{
				"x": -0.8471443847,
				"y": 4.7769867584,
				"z": 3.3307164598,
				"element": "H" 
			},
			{
				"x": -2.3221810032,
				"y": 3.05371656,
				"z": 2.3158626328,
				"element": "H" 
			},
			{
				"x": -1.4395098879,
				"y": 0.7732758121,
				"z": 1.8662376689,
				"element": "H" 
			}
		],
		 "valence_orbital": [ 
			{
				"type": "occ",
				"energy": -0.28993,
				"method": "rhf"
			},
			{
				"type": "occ",
				"energy": -0.25894,
				"method": "rhf"
			},
			{
				"type": "occ",
				"energy": -0.25495,
				"method": "rhf"
			},
			{
				"type": "occ",
				"energy": -0.22329,
				"method": "rhf"
			},
			{
				"type": "occ",
				"energy": -0.21175,
				"method": "rhf"
			},
			{
				"type": "unocc",
				"energy": -0.06486,
				"method": "rhf"
			},
			{
				"type": "unocc",
				"energy": -0.04285,
				"method": "rhf"
			},
			{
				"type": "unocc",
				"energy": -0.00531,
				"method": "rhf"
			},
			{
				"type": "unocc",
				"energy": 0.01056,
				"method": "rhf"
			},
			{
				"type": "unocc",
				"energy": 0.07314,
				"method": "rhf"
			}
		],
		"cosmo_sigma_profile": { 
			"-0.025": 0.0,
			"-0.024": 0.0,
			"-0.023": 0.0,
			"-0.022": 0.0,
			"-0.021": 0.0,
			"-0.02": 0.0,
			"-0.019": 0.0,
			"-0.018": 0.0,
			"-0.017": 0.0,
			"-0.016": 0.0,
			"-0.015": 0.0,
			"-0.014": 0.0,
			"-0.013": 0.0,
			"-0.012": 0.0,
			"-0.011": 0.0,
			"-0.01": 0.0,
			"-0.009": 0.0,
			"-0.008": 0.963428094393,
			"-0.007": 3.36015296026,
			"-0.006": 11.6751492706,
			"-0.005": 13.4304943413,
			"-0.004": 20.4013449236,
			"-0.003": 31.9100197478,
			"-0.002": 43.3374321114,
			"-0.001": 42.9793289426,
			"0.0": 37.3761452286,
			"0.001": 36.1801954148,
			"0.002": 18.3083815339,
			"0.003": 18.5102066141,
			"0.004": 16.8394672022,
			"0.005": 8.17848417193,
			"0.006": 3.70778833928,
			"0.007": 3.25006743324,
			"0.008": 3.48487674844,
			"0.009": 2.58874762765,
			"0.01": 3.64801471119,
			"0.011": 3.30304762904,
			"0.012": 2.8586250061,
			"0.013": 2.20353298199,
			"0.014": 0.562717462407,
			"0.015": 0.0,
			"0.016": 0.0,
			"0.017": 0.0,
			"0.018": 0.0,
			"0.019": 0.0,
			"0.02": 0.0,
			"0.021": 0.0,
			"0.022": 0.0,
			"0.023": 0.0,
			"0.024": 0.0,
			"0.025": 0.0
		}
	}
}
