{
	 "smiles": "CCOC(=O)C1=CN=C(C=C1)S(N)(=O)=O", 
	 "Tm": 388.15, 
	 "num_atms": 25, 
	 "gaussian": { 
		 "optdone": 1, 
		 "sigma_profile": "yes", 
		 "theory": "DFT", 
		 "functional": "B3LYP", 
		 "basiset": "6-31G**", 
		 "properties": { 
			 "R2extent": 6864.4628, 
			 "electric_dipole_moment_norm": 6.70665225653, 
			 "electric_quadrupole_moment_norm": 26.7438095568, 
			 "total_energy": -1119.40407927, 
			 "HOMO_LUMO_gap": 0.2011, 
			 "cosmo_polarized_energy": -19.74, 
			 "cosmo_cavitation_energy": 31.62, 
			 "cosmo_dispersion_energy": -23.52, 
			 "cosmo_repulsion_energy": 1.81, 
			 "cosmo_total_nonelectrostatic_energy": 9.91, 
			 "SMD_solvation_energy": 5.13 
		},
		"coords": [
			{
				"x": 1.1210891303,
				"y": 2.0606675769,
				"z": -3.476901102,
				"element": "C" 
			},
			{
				"x": 1.4072407014,
				"y": 2.6532664119,
				"z": -2.1061047032,
				"element": "C" 
			},
			{
				"x": 1.2006636695,
				"y": 1.6730443898,
				"z": -1.0549472594,
				"element": "O" 
			},
			{
				"x": 2.2363381007,
				"y": 0.8585120471,
				"z": -0.7771199244,
				"element": "C" 
			},
			{
				"x": 3.3124463026,
				"y": 0.8949562059,
				"z": -1.3403621916,
				"element": "O" 
			},
			{
				"x": 1.914581024,
				"y": -0.1044351626,
				"z": 0.3190274161,
				"element": "C" 
			},
			{
				"x": 0.6645378382,
				"y": -0.1453010768,
				"z": 0.9525293115,
				"element": "C" 
			},
			{
				"x": 0.3776480033,
				"y": -1.0060288695,
				"z": 1.9344280022,
				"element": "N" 
			},
			{
				"x": 1.3393232797,
				"y": -1.8487047679,
				"z": 2.3054644332,
				"element": "C" 
			},
			{
				"x": 2.6135994269,
				"y": -1.9123487439,
				"z": 1.7442403942,
				"element": "C" 
			},
			{
				"x": 2.9012600142,
				"y": -1.0096324672,
				"z": 0.724862107,
				"element": "C" 
			},
			{
				"x": 0.9121934181,
				"y": -2.9403981884,
				"z": 3.6954252129,
				"element": "S" 
			},
			{
				"x": -0.6718623448,
				"y": -3.3981368882,
				"z": 3.4131307978,
				"element": "N" 
			},
			{
				"x": 1.7375957759,
				"y": -4.141448562,
				"z": 3.5650660785,
				"element": "O" 
			},
			{
				"x": 0.9155010631,
				"y": -2.119538083,
				"z": 4.902173481,
				"element": "O" 
			},
			{
				"x": 1.210370388,
				"y": 2.8403786432,
				"z": -4.2403618579,
				"element": "H" 
			},
			{
				"x": 0.1078088976,
				"y": 1.651096835,
				"z": -3.5220745984,
				"element": "H" 
			},
			{
				"x": 1.8362228064,
				"y": 1.268766857,
				"z": -3.7121092077,
				"element": "H" 
			},
			{
				"x": 2.4323378728,
				"y": 3.0241416219,
				"z": -2.0392588862,
				"element": "H" 
			},
			{
				"x": 0.7109130394,
				"y": 3.4579609015,
				"z": -1.8606668962,
				"element": "H" 
			},
			{
				"x": -0.1248705863,
				"y": 0.5368188277,
				"z": 0.6533285148,
				"element": "H" 
			},
			{
				"x": 3.3312985711,
				"y": -2.6452022197,
				"z": 2.0934934659,
				"element": "H" 
			},
			{
				"x": 3.8684708536,
				"y": -0.9891817972,
				"z": 0.2336445157,
				"element": "H" 
			},
			{
				"x": -1.2699784679,
				"y": -2.5839412792,
				"z": 3.2945890467,
				"element": "H" 
			},
			{
				"x": -0.7396287776,
				"y": -4.0418122123,
				"z": 2.6299038493,
				"element": "H" 
			}
		],
		 "valence_orbital": [ 
			{
				"type": "occ",
				"energy": -0.31323,
				"method": "rhf"
			},
			{
				"type": "occ",
				"energy": -0.3047,
				"method": "rhf"
			},
			{
				"type": "occ",
				"energy": -0.30039,
				"method": "rhf"
			},
			{
				"type": "occ",
				"energy": -0.28759,
				"method": "rhf"
			},
			{
				"type": "occ",
				"energy": -0.2846,
				"method": "rhf"
			},
			{
				"type": "unocc",
				"energy": -0.0835,
				"method": "rhf"
			},
			{
				"type": "unocc",
				"energy": -0.05434,
				"method": "rhf"
			},
			{
				"type": "unocc",
				"energy": 0.01753,
				"method": "rhf"
			},
			{
				"type": "unocc",
				"energy": 0.05338,
				"method": "rhf"
			},
			{
				"type": "unocc",
				"energy": 0.07964,
				"method": "rhf"
			}
		],
		"cosmo_sigma_profile": { 
			"-0.025": 0.0,
			"-0.024": 0.0,
			"-0.023": 0.0,
			"-0.022": 0.0,
			"-0.021": 0.0,
			"-0.02": 0.0,
			"-0.019": 0.0,
			"-0.018": 0.0,
			"-0.017": 0.0,
			"-0.016": 0.538306134641,
			"-0.015": 1.80829596074,
			"-0.014": 2.09888630621,
			"-0.013": 2.44734712869,
			"-0.012": 2.27128115892,
			"-0.011": 1.88265586678,
			"-0.01": 2.6136039442,
			"-0.009": 2.15595978444,
			"-0.008": 5.59262290007,
			"-0.007": 5.9113898979,
			"-0.006": 8.70364394008,
			"-0.005": 11.5611408443,
			"-0.004": 20.1075187017,
			"-0.003": 24.7352934686,
			"-0.002": 27.4587038391,
			"-0.001": 22.8856059707,
			"0.0": 15.5857446924,
			"0.001": 8.88037181361,
			"0.002": 7.33609604364,
			"0.003": 6.86883821994,
			"0.004": 8.9691405082,
			"0.005": 6.66304157672,
			"0.006": 5.73442338832,
			"0.007": 6.29756317357,
			"0.008": 6.54255307154,
			"0.009": 6.90044322432,
			"0.01": 13.0546445215,
			"0.011": 14.3716119157,
			"0.012": 1.97356874511,
			"0.013": 0.0381916623674,
			"0.014": 0.0,
			"0.015": 0.0,
			"0.016": 0.0,
			"0.017": 0.0,
			"0.018": 0.0,
			"0.019": 0.0,
			"0.02": 0.0,
			"0.021": 0.0,
			"0.022": 0.0,
			"0.023": 0.0,
			"0.024": 0.0,
			"0.025": 0.0
		}
	}
}
