{
	 "smiles": "NS(=O)(=O)CCCC(F)(F)F", 
	 "Tm": 340.15, 
	 "num_atms": 19, 
	 "gaussian": { 
		 "optdone": 1, 
		 "sigma_profile": "yes", 
		 "theory": "DFT", 
		 "functional": "B3LYP", 
		 "basiset": "6-31G**", 
		 "properties": { 
			 "R2extent": 3684.3857, 
			 "electric_dipole_moment_norm": 4.53337128195, 
			 "electric_quadrupole_moment_norm": 13.3538739473, 
			 "total_energy": -1060.10881477, 
			 "HOMO_LUMO_gap": 0.34811, 
			 "cosmo_polarized_energy": -16.9, 
			 "cosmo_cavitation_energy": 25.68, 
			 "cosmo_dispersion_energy": -18.72, 
			 "cosmo_repulsion_energy": 1.43, 
			 "cosmo_total_nonelectrostatic_energy": 8.39, 
			 "SMD_solvation_energy": 4.87 
		},
		"coords": [
			{
				"x": -1.170000386,
				"y": 1.1593483394,
				"z": -4.6043469577,
				"element": "N" 
			},
			{
				"x": -0.1546797308,
				"y": 0.1234834352,
				"z": -3.7269634307,
				"element": "S" 
			},
			{
				"x": 1.2320652002,
				"y": 0.483631934,
				"z": -4.0413057623,
				"element": "O" 
			},
			{
				"x": -0.6553605844,
				"y": -1.2446345649,
				"z": -3.8977133155,
				"element": "O" 
			},
			{
				"x": -0.4957453368,
				"y": 0.6373662868,
				"z": -2.024311806,
				"element": "C" 
			},
			{
				"x": 0.3304637698,
				"y": -0.1830464232,
				"z": -1.0329629393,
				"element": "C" 
			},
			{
				"x": 0.0475415378,
				"y": 0.2454551703,
				"z": 0.4115729809,
				"element": "C" 
			},
			{
				"x": 0.8500806455,
				"y": -0.5494777609,
				"z": 1.4189823692,
				"element": "C" 
			},
			{
				"x": 2.1795459773,
				"y": -0.4042948225,
				"z": 1.2236939494,
				"element": "F" 
			},
			{
				"x": 0.5747889796,
				"y": -1.8706408099,
				"z": 1.3449257246,
				"element": "F" 
			},
			{
				"x": 0.5790129698,
				"y": -0.1485796095,
				"z": 2.6797245593,
				"element": "F" 
			},
			{
				"x": -1.8393905132,
				"y": 0.6031080518,
				"z": -5.1304825212,
				"element": "H" 
			},
			{
				"x": -0.6045593076,
				"y": 1.7342294904,
				"z": -5.2240976145,
				"element": "H" 
			},
			{
				"x": -1.5715031393,
				"y": 0.5060746788,
				"z": -1.8770733843,
				"element": "H" 
			},
			{
				"x": -0.262065273,
				"y": 1.7047374618,
				"z": -1.9764608015,
				"element": "H" 
			},
			{
				"x": 0.0958477862,
				"y": -1.2445838394,
				"z": -1.1553397445,
				"element": "H" 
			},
			{
				"x": 1.3944108001,
				"y": -0.0558259247,
				"z": -1.2537020531,
				"element": "H" 
			},
			{
				"x": -1.0097574246,
				"y": 0.1118817215,
				"z": 0.6630379717,
				"element": "H" 
			},
			{
				"x": 0.2917040293,
				"y": 1.3017671849,
				"z": 0.5650227756,
				"element": "H" 
			}
		],
		 "valence_orbital": [ 
			{
				"type": "occ",
				"energy": -0.3602,
				"method": "rhf"
			},
			{
				"type": "occ",
				"energy": -0.32312,
				"method": "rhf"
			},
			{
				"type": "occ",
				"energy": -0.3175,
				"method": "rhf"
			},
			{
				"type": "occ",
				"energy": -0.30758,
				"method": "rhf"
			},
			{
				"type": "occ",
				"energy": -0.29991,
				"method": "rhf"
			},
			{
				"type": "unocc",
				"energy": 0.0482,
				"method": "rhf"
			},
			{
				"type": "unocc",
				"energy": 0.05656,
				"method": "rhf"
			},
			{
				"type": "unocc",
				"energy": 0.08186,
				"method": "rhf"
			},
			{
				"type": "unocc",
				"energy": 0.08545,
				"method": "rhf"
			},
			{
				"type": "unocc",
				"energy": 0.09433,
				"method": "rhf"
			}
		],
		"cosmo_sigma_profile": { 
			"-0.025": 0.0,
			"-0.024": 0.0,
			"-0.023": 0.0,
			"-0.022": 0.0,
			"-0.021": 0.0,
			"-0.02": 0.0,
			"-0.019": 0.0,
			"-0.018": 0.0,
			"-0.017": 0.0,
			"-0.016": 0.0,
			"-0.015": 0.584939208033,
			"-0.014": 2.78457850485,
			"-0.013": 3.03291278011,
			"-0.012": 1.9441554735,
			"-0.011": 1.90660800108,
			"-0.01": 2.5250898865,
			"-0.009": 1.33540910286,
			"-0.008": 9.57137994842,
			"-0.007": 12.4564158766,
			"-0.006": 9.22733987788,
			"-0.005": 10.4945644078,
			"-0.004": 10.9675492902,
			"-0.003": 10.2230064296,
			"-0.002": 8.94644003828,
			"-0.001": 6.51233061989,
			"0.0": 7.72563516576,
			"0.001": 8.85833831787,
			"0.002": 12.6299991476,
			"0.003": 33.4928398127,
			"0.004": 7.37989182534,
			"0.005": 3.11089846029,
			"0.006": 2.80641938688,
			"0.007": 2.20085978825,
			"0.008": 3.11852893034,
			"0.009": 4.02112011417,
			"0.01": 5.77764299039,
			"0.011": 12.3170876307,
			"0.012": 5.76732873507,
			"0.013": 0.070380314892,
			"0.014": 0.0,
			"0.015": 0.0,
			"0.016": 0.0,
			"0.017": 0.0,
			"0.018": 0.0,
			"0.019": 0.0,
			"0.02": 0.0,
			"0.021": 0.0,
			"0.022": 0.0,
			"0.023": 0.0,
			"0.024": 0.0,
			"0.025": 0.0
		}
	}
}
