{
	 "smiles": "COC1=CC(=CC=C1)N1C(S)=NC(O)=CC1=O", 
	 "Tm": 471.15, 
	 "num_atms": 27, 
	 "gaussian": { 
		 "optdone": 1, 
		 "sigma_profile": "yes", 
		 "theory": "DFT", 
		 "functional": "B3LYP", 
		 "basiset": "6-31G**", 
		 "properties": { 
			 "R2extent": 4849.8988, 
			 "electric_dipole_moment_norm": 3.78821518264, 
			 "electric_quadrupole_moment_norm": 12.5452861988, 
			 "total_energy": -1158.55183976, 
			 "HOMO_LUMO_gap": 0.18791, 
			 "cosmo_polarized_energy": -17.04, 
			 "cosmo_cavitation_energy": 33.62, 
			 "cosmo_dispersion_energy": -24.16, 
			 "cosmo_repulsion_energy": 1.86, 
			 "cosmo_total_nonelectrostatic_energy": 11.31, 
			 "SMD_solvation_energy": 6.41 
		},
		"coords": [
			{
				"x": 2.1582671774,
				"y": 1.065411005,
				"z": -3.1757793491,
				"element": "C" 
			},
			{
				"x": 2.2223674384,
				"y": -0.3523100075,
				"z": -3.1076007723,
				"element": "O" 
			},
			{
				"x": 1.5264922515,
				"y": -0.9834160667,
				"z": -2.1225895338,
				"element": "C" 
			},
			{
				"x": 0.7109241239,
				"y": -0.3343548625,
				"z": -1.1912321006,
				"element": "C" 
			},
			{
				"x": 0.0493611162,
				"y": -1.095776245,
				"z": -0.2228145583,
				"element": "C" 
			},
			{
				"x": 0.1885726272,
				"y": -2.4790603859,
				"z": -0.1577132404,
				"element": "C" 
			},
			{
				"x": 1.0001293062,
				"y": -3.1151058781,
				"z": -1.1030279655,
				"element": "C" 
			},
			{
				"x": 1.6631454872,
				"y": -2.3807696978,
				"z": -2.0771731772,
				"element": "C" 
			},
			{
				"x": -0.7831507668,
				"y": -0.4153155202,
				"z": 0.7416886728,
				"element": "N" 
			},
			{
				"x": -2.1382700435,
				"y": -0.3840738474,
				"z": 0.6186939205,
				"element": "C" 
			},
			{
				"x": -2.8436935011,
				"y": -1.1903156957,
				"z": -0.8061941788,
				"element": "S" 
			},
			{
				"x": -2.9406397892,
				"y": 0.2024627359,
				"z": 1.4674935892,
				"element": "N" 
			},
			{
				"x": -2.3623532806,
				"y": 0.8210402282,
				"z": 2.538569478,
				"element": "C" 
			},
			{
				"x": -3.2256504834,
				"y": 1.4066325654,
				"z": 3.3886958945,
				"element": "O" 
			},
			{
				"x": -1.0148160476,
				"y": 0.8735106494,
				"z": 2.7730600106,
				"element": "C" 
			},
			{
				"x": -0.1065030942,
				"y": 0.2478622531,
				"z": 1.8592525721,
				"element": "C" 
			},
			{
				"x": 1.1111015282,
				"y": 0.2140510052,
				"z": 1.912765475,
				"element": "O" 
			},
			{
				"x": 1.1355931158,
				"y": 1.4144788608,
				"z": -3.3679836574,
				"element": "H" 
			},
			{
				"x": 2.798137393,
				"y": 1.3546984842,
				"z": -4.0104438449,
				"element": "H" 
			},
			{
				"x": 2.5313744663,
				"y": 1.5299882342,
				"z": -2.254644093,
				"element": "H" 
			},
			{
				"x": 0.5874078357,
				"y": 0.740604358,
				"z": -1.1899810871,
				"element": "H" 
			},
			{
				"x": -0.3214074429,
				"y": -3.0415308889,
				"z": 0.6163091044,
				"element": "H" 
			},
			{
				"x": 1.1187238557,
				"y": -4.1936952256,
				"z": -1.0710563253,
				"element": "H" 
			},
			{
				"x": 2.3002444282,
				"y": -2.8601991758,
				"z": -2.8127789313,
				"element": "H" 
			},
			{
				"x": -4.0909226676,
				"y": -0.807947669,
				"z": -0.4697408465,
				"element": "H" 
			},
			{
				"x": -4.1135535079,
				"y": 1.2480313621,
				"z": 3.0321691812,
				"element": "H" 
			},
			{
				"x": -0.6073815261,
				"y": 1.3821994245,
				"z": 3.6358557631,
				"element": "H" 
			}
		],
		 "valence_orbital": [ 
			{
				"type": "occ",
				"energy": -0.27905,
				"method": "rhf"
			},
			{
				"type": "occ",
				"energy": -0.2627,
				"method": "rhf"
			},
			{
				"type": "occ",
				"energy": -0.25488,
				"method": "rhf"
			},
			{
				"type": "occ",
				"energy": -0.23111,
				"method": "rhf"
			},
			{
				"type": "occ",
				"energy": -0.22496,
				"method": "rhf"
			},
			{
				"type": "unocc",
				"energy": -0.03705,
				"method": "rhf"
			},
			{
				"type": "unocc",
				"energy": -0.02165,
				"method": "rhf"
			},
			{
				"type": "unocc",
				"energy": -0.00096,
				"method": "rhf"
			},
			{
				"type": "unocc",
				"energy": 0.00763,
				"method": "rhf"
			},
			{
				"type": "unocc",
				"energy": 0.00843,
				"method": "rhf"
			}
		],
		"cosmo_sigma_profile": { 
			"-0.025": 0.0,
			"-0.024": 0.0,
			"-0.023": 0.0,
			"-0.022": 0.0,
			"-0.021": 0.0,
			"-0.02": 0.0,
			"-0.019": 0.039432996153,
			"-0.018": 0.42875977566,
			"-0.017": 0.919501915743,
			"-0.016": 0.754474436658,
			"-0.015": 0.69719602525,
			"-0.014": 0.413038750537,
			"-0.013": 0.0542058586517,
			"-0.012": 1.98664328399,
			"-0.011": 2.30706176821,
			"-0.01": 1.95917529798,
			"-0.009": 1.50680346708,
			"-0.008": 2.9322487132,
			"-0.007": 9.18401780267,
			"-0.006": 18.2455115674,
			"-0.005": 19.6311196992,
			"-0.004": 21.9797775437,
			"-0.003": 19.0013559394,
			"-0.002": 13.7362012377,
			"-0.001": 15.6637291174,
			"0.0": 15.3211917271,
			"0.001": 15.3853073636,
			"0.002": 19.2069791425,
			"0.003": 23.9757278779,
			"0.004": 15.1076305618,
			"0.005": 9.71317226906,
			"0.006": 8.34965234414,
			"0.007": 4.96683490782,
			"0.008": 5.28766854909,
			"0.009": 4.30163075094,
			"0.01": 4.40314843572,
			"0.011": 2.46977765328,
			"0.012": 2.35841664518,
			"0.013": 5.30085160673,
			"0.014": 3.35444733564,
			"0.015": 0.122794763974,
			"0.016": 0.0,
			"0.017": 0.0,
			"0.018": 0.0,
			"0.019": 0.0,
			"0.02": 0.0,
			"0.021": 0.0,
			"0.022": 0.0,
			"0.023": 0.0,
			"0.024": 0.0,
			"0.025": 0.0
		}
	}
}
