{
	 "smiles": "OC(=O)C1=COC2=C1C=CC=C2", 
	 "Tm": 424.15, 
	 "num_atms": 18, 
	 "gaussian": { 
		 "optdone": 1, 
		 "sigma_profile": "yes", 
		 "theory": "DFT", 
		 "functional": "B3LYP", 
		 "basiset": "6-31G**", 
		 "properties": { 
			 "R2extent": 2899.1548, 
			 "electric_dipole_moment_norm": 1.29146826906, 
			 "electric_quadrupole_moment_norm": 10.0083519218, 
			 "total_energy": -572.250835824, 
			 "HOMO_LUMO_gap": 0.18795, 
			 "cosmo_polarized_energy": -9.44, 
			 "cosmo_cavitation_energy": 23.05, 
			 "cosmo_dispersion_energy": -17.28, 
			 "cosmo_repulsion_energy": 1.35, 
			 "cosmo_total_nonelectrostatic_energy": 7.12, 
			 "SMD_solvation_energy": 5.84 
		},
		"coords": [
			{
				"x": -0.7805032287,
				"y": -2.7492829035,
				"z": -3.5015470591,
				"element": "O" 
			},
			{
				"x": -0.2942057654,
				"y": -2.0783459608,
				"z": -2.4239703557,
				"element": "C" 
			},
			{
				"x": 0.4613759291,
				"y": -2.5927938362,
				"z": -1.621940252,
				"element": "O" 
			},
			{
				"x": -0.7815381231,
				"y": -0.6999059422,
				"z": -2.3521614791,
				"element": "C" 
			},
			{
				"x": -1.6280125429,
				"y": -0.0743147881,
				"z": -3.2217089255,
				"element": "C" 
			},
			{
				"x": -1.8781559472,
				"y": 1.2106897301,
				"z": -2.8603823073,
				"element": "O" 
			},
			{
				"x": -1.1635800117,
				"y": 1.4369421692,
				"z": -1.7021755406,
				"element": "C" 
			},
			{
				"x": -0.4583272172,
				"y": 0.2804322589,
				"z": -1.3346726057,
				"element": "C" 
			},
			{
				"x": 0.3347285397,
				"y": 0.3006830968,
				"z": -0.1790716733,
				"element": "C" 
			},
			{
				"x": 0.3839791346,
				"y": 1.48224506,
				"z": 0.5560736734,
				"element": "C" 
			},
			{
				"x": -0.3353503802,
				"y": 2.6266371985,
				"z": 0.1614253649,
				"element": "C" 
			},
			{
				"x": -1.1295308441,
				"y": 2.625749246,
				"z": -0.9848992523,
				"element": "C" 
			},
			{
				"x": -0.3994040248,
				"y": -3.6414831337,
				"z": -3.4524445308,
				"element": "H" 
			},
			{
				"x": -2.1166913948,
				"y": -0.4186461027,
				"z": -4.1203527239,
				"element": "H" 
			},
			{
				"x": 0.8854168589,
				"y": -0.584266116,
				"z": 0.1180558611,
				"element": "H" 
			},
			{
				"x": 0.9906298662,
				"y": 1.5255625045,
				"z": 1.4556830883,
				"element": "H" 
			},
			{
				"x": -0.2711547677,
				"y": 3.5293026445,
				"z": 0.7613825573,
				"element": "H" 
			},
			{
				"x": -1.6900760806,
				"y": 3.4974948748,
				"z": -1.3036938395,
				"element": "H" 
			}
		],
		 "valence_orbital": [ 
			{
				"type": "occ",
				"energy": -0.32351,
				"method": "rhf"
			},
			{
				"type": "occ",
				"energy": -0.29895,
				"method": "rhf"
			},
			{
				"type": "occ",
				"energy": -0.28068,
				"method": "rhf"
			},
			{
				"type": "occ",
				"energy": -0.24671,
				"method": "rhf"
			},
			{
				"type": "occ",
				"energy": -0.23296,
				"method": "rhf"
			},
			{
				"type": "unocc",
				"energy": -0.04501,
				"method": "rhf"
			},
			{
				"type": "unocc",
				"energy": -0.00684,
				"method": "rhf"
			},
			{
				"type": "unocc",
				"energy": 0.00679,
				"method": "rhf"
			},
			{
				"type": "unocc",
				"energy": 0.07762,
				"method": "rhf"
			},
			{
				"type": "unocc",
				"energy": 0.09465,
				"method": "rhf"
			}
		],
		"cosmo_sigma_profile": { 
			"-0.025": 0.0,
			"-0.024": 0.0,
			"-0.023": 0.0,
			"-0.022": 0.0,
			"-0.021": 0.0,
			"-0.02": 0.0,
			"-0.019": 0.113098601089,
			"-0.018": 0.726726359064,
			"-0.017": 0.982871428156,
			"-0.016": 1.08619215075,
			"-0.015": 0.232506507559,
			"-0.014": 0.6541234628,
			"-0.013": 0.538316248201,
			"-0.012": 1.08031348969,
			"-0.011": 1.77264295673,
			"-0.01": 1.9534600182,
			"-0.009": 1.91030116658,
			"-0.008": 2.3310698438,
			"-0.007": 3.87643122642,
			"-0.006": 7.42696463959,
			"-0.005": 9.59554345665,
			"-0.004": 10.188219515,
			"-0.003": 9.821232858,
			"-0.002": 11.485268398,
			"-0.001": 14.0561184097,
			"0.0": 15.3453981021,
			"0.001": 16.4655682492,
			"0.002": 13.8663562155,
			"0.003": 14.9199907151,
			"0.004": 13.3422736619,
			"0.005": 9.93805692389,
			"0.006": 4.2432519659,
			"0.007": 4.63265722728,
			"0.008": 3.25911867285,
			"0.009": 1.15469840622,
			"0.01": 2.58771430333,
			"0.011": 3.42639551366,
			"0.012": 2.62589275858,
			"0.013": 0.0827485854771,
			"0.014": 0.0,
			"0.015": 0.0,
			"0.016": 0.0,
			"0.017": 0.0,
			"0.018": 0.0,
			"0.019": 0.0,
			"0.02": 0.0,
			"0.021": 0.0,
			"0.022": 0.0,
			"0.023": 0.0,
			"0.024": 0.0,
			"0.025": 0.0
		}
	}
}
