{
	 "smiles": "[O-][N+](=O)C1=CC=CC2=C1C(=CC=C2)[N+]([O-])=O", 
	 "Tm": 445.15, 
	 "num_atms": 22, 
	 "gaussian": { 
		 "optdone": 1, 
		 "sigma_profile": "yes", 
		 "theory": "DFT", 
		 "functional": "B3LYP", 
		 "basiset": "6-31G**", 
		 "properties": { 
			 "R2extent": 3067.3476, 
			 "electric_dipole_moment_norm": 8.03713507787, 
			 "electric_quadrupole_moment_norm": 13.6081651599, 
			 "total_energy": -794.864678615, 
			 "HOMO_LUMO_gap": 0.15742, 
			 "cosmo_polarized_energy": -15.94, 
			 "cosmo_cavitation_energy": 27.51, 
			 "cosmo_dispersion_energy": -19.95, 
			 "cosmo_repulsion_energy": 1.5, 
			 "cosmo_total_nonelectrostatic_energy": 9.06, 
			 "SMD_solvation_energy": 8.96 
		},
		"coords": [
			{
				"x": 0.1053370058,
				"y": -0.6486239098,
				"z": 2.986955916,
				"element": "O" 
			},
			{
				"x": -1.0220562398,
				"y": -0.4674818012,
				"z": 2.5296630097,
				"element": "N" 
			},
			{
				"x": -2.0328404328,
				"y": -0.2614982057,
				"z": 3.1929062073,
				"element": "O" 
			},
			{
				"x": -1.1761246114,
				"y": -0.6129634399,
				"z": 1.0698853967,
				"element": "C" 
			},
			{
				"x": -2.3113889745,
				"y": -1.2790678986,
				"z": 0.6652095324,
				"element": "C" 
			},
			{
				"x": -2.4536337822,
				"y": -1.700020399,
				"z": -0.6724705125,
				"element": "C" 
			},
			{
				"x": -1.4302881839,
				"y": -1.4800348953,
				"z": -1.5624855607,
				"element": "C" 
			},
			{
				"x": -0.2628891421,
				"y": -0.7646631698,
				"z": -1.180244124,
				"element": "C" 
			},
			{
				"x": -0.140201387,
				"y": -0.2504684885,
				"z": 0.1570714875,
				"element": "C" 
			},
			{
				"x": 1.0033988109,
				"y": 0.5631594241,
				"z": 0.4177554534,
				"element": "C" 
			},
			{
				"x": 2.0172545386,
				"y": 0.720582564,
				"z": -0.500727828,
				"element": "C" 
			},
			{
				"x": 1.9194492478,
				"y": 0.1356033159,
				"z": -1.77942136,
				"element": "C" 
			},
			{
				"x": 0.7832138274,
				"y": -0.5576667721,
				"z": -2.1201831119,
				"element": "C" 
			},
			{
				"x": 1.0922179492,
				"y": 1.4349179361,
				"z": 1.6043481206,
				"element": "N" 
			},
			{
				"x": 2.2061340682,
				"y": 1.6609030305,
				"z": 2.0649143057,
				"element": "O" 
			},
			{
				"x": 0.0428885976,
				"y": 1.9428578752,
				"z": 1.9965883998,
				"element": "O" 
			},
			{
				"x": -3.066512725,
				"y": -1.5070836033,
				"z": 1.4078005299,
				"element": "H" 
			},
			{
				"x": -3.3486835875,
				"y": -2.2330988318,
				"z": -0.9749464966,
				"element": "H" 
			},
			{
				"x": -1.4968288532,
				"y": -1.8494212206,
				"z": -2.5816666794,
				"element": "H" 
			},
			{
				"x": 2.8652839117,
				"y": 1.338127377,
				"z": -0.2303143869,
				"element": "H" 
			},
			{
				"x": 2.7209317573,
				"y": 0.2766143404,
				"z": -2.4967220555,
				"element": "H" 
			},
			{
				"x": 0.6645382049,
				"y": -0.9646732277,
				"z": -3.1201162436,
				"element": "H" 
			}
		],
		 "valence_orbital": [ 
			{
				"type": "occ",
				"energy": -0.30532,
				"method": "rhf"
			},
			{
				"type": "occ",
				"energy": -0.29886,
				"method": "rhf"
			},
			{
				"type": "occ",
				"energy": -0.28816,
				"method": "rhf"
			},
			{
				"type": "occ",
				"energy": -0.28448,
				"method": "rhf"
			},
			{
				"type": "occ",
				"energy": -0.25828,
				"method": "rhf"
			},
			{
				"type": "unocc",
				"energy": -0.10086,
				"method": "rhf"
			},
			{
				"type": "unocc",
				"energy": -0.08918,
				"method": "rhf"
			},
			{
				"type": "unocc",
				"energy": -0.04996,
				"method": "rhf"
			},
			{
				"type": "unocc",
				"energy": -0.04003,
				"method": "rhf"
			},
			{
				"type": "unocc",
				"energy": 0.0049,
				"method": "rhf"
			}
		],
		"cosmo_sigma_profile": { 
			"-0.025": 0.0,
			"-0.024": 0.0,
			"-0.023": 0.0,
			"-0.022": 0.0,
			"-0.021": 0.0,
			"-0.02": 0.0,
			"-0.019": 0.0,
			"-0.018": 0.0,
			"-0.017": 0.0,
			"-0.016": 0.0,
			"-0.015": 0.0,
			"-0.014": 0.0,
			"-0.013": 0.0,
			"-0.012": 0.0,
			"-0.011": 0.0,
			"-0.01": 0.114425066896,
			"-0.009": 3.73428805241,
			"-0.008": 12.2446514483,
			"-0.007": 15.2784935688,
			"-0.006": 13.6054055324,
			"-0.005": 9.5483094255,
			"-0.004": 9.26259469341,
			"-0.003": 8.65084630555,
			"-0.002": 12.8928990661,
			"-0.001": 19.3804766797,
			"0.0": 22.4316243304,
			"0.001": 16.8967118016,
			"0.002": 7.56218584601,
			"0.003": 7.35782798125,
			"0.004": 8.15231404884,
			"0.005": 7.43130495971,
			"0.006": 10.7395214426,
			"0.007": 17.8339293491,
			"0.008": 10.5735505142,
			"0.009": 6.63768344774,
			"0.01": 1.73497860038,
			"0.011": 0.0,
			"0.012": 0.0,
			"0.013": 0.0,
			"0.014": 0.0,
			"0.015": 0.0,
			"0.016": 0.0,
			"0.017": 0.0,
			"0.018": 0.0,
			"0.019": 0.0,
			"0.02": 0.0,
			"0.021": 0.0,
			"0.022": 0.0,
			"0.023": 0.0,
			"0.024": 0.0,
			"0.025": 0.0
		}
	}
}
