{
	 "smiles": "COC(=O)C1=CSC2=C1N=C(Cl)C=C2C(F)(F)F", 
	 "Tm": 383.15, 
	 "num_atms": 23, 
	 "gaussian": { 
		 "optdone": 1, 
		 "sigma_profile": "yes", 
		 "theory": "DFT", 
		 "functional": "B3LYP", 
		 "basiset": "6-31G**", 
		 "properties": { 
			 "R2extent": 7059.1765, 
			 "electric_dipole_moment_norm": 0.281554204373, 
			 "electric_quadrupole_moment_norm": 5.01333749413, 
			 "total_energy": -1747.18232159, 
			 "HOMO_LUMO_gap": 0.18401, 
			 "cosmo_polarized_energy": -10.21, 
			 "cosmo_cavitation_energy": 33.36, 
			 "cosmo_dispersion_energy": -24.22, 
			 "cosmo_repulsion_energy": 1.78, 
			 "cosmo_total_nonelectrostatic_energy": 10.91, 
			 "SMD_solvation_energy": 6.85 
		},
		"coords": [
			{
				"x": -0.9722671971,
				"y": 1.2125578279,
				"z": 3.113392407,
				"element": "C" 
			},
			{
				"x": -0.6730588357,
				"y": 0.7568388662,
				"z": 1.7832303723,
				"element": "O" 
			},
			{
				"x": -1.7365693446,
				"y": 0.4096593527,
				"z": 1.0449072347,
				"element": "C" 
			},
			{
				"x": -2.8871401171,
				"y": 0.463176622,
				"z": 1.4383141428,
				"element": "O" 
			},
			{
				"x": -1.3709598058,
				"y": -0.0539825033,
				"z": -0.3214024436,
				"element": "C" 
			},
			{
				"x": -2.365847373,
				"y": -0.4376254082,
				"z": -1.1748666725,
				"element": "C" 
			},
			{
				"x": -1.8185759582,
				"y": -0.9570518393,
				"z": -2.734549312,
				"element": "S" 
			},
			{
				"x": -0.1586414902,
				"y": -0.6624042025,
				"z": -2.2702606445,
				"element": "C" 
			},
			{
				"x": -0.0643281183,
				"y": -0.1761500822,
				"z": -0.9396881959,
				"element": "C" 
			},
			{
				"x": 1.1192305285,
				"y": 0.1203853475,
				"z": -0.3686214852,
				"element": "N" 
			},
			{
				"x": 2.1976781098,
				"y": -0.0571431711,
				"z": -1.0917574182,
				"element": "C" 
			},
			{
				"x": 3.7381193703,
				"y": 0.3335631187,
				"z": -0.3354243639,
				"element": "Cl" 
			},
			{
				"x": 2.2240888806,
				"y": -0.5322284621,
				"z": -2.4167873067,
				"element": "C" 
			},
			{
				"x": 1.01385801,
				"y": -0.8415709807,
				"z": -3.0179045261,
				"element": "C" 
			},
			{
				"x": 0.9634651155,
				"y": -1.3560459139,
				"z": -4.4365502141,
				"element": "C" 
			},
			{
				"x": 0.3842737626,
				"y": -2.5748006107,
				"z": -4.4872729101,
				"element": "F" 
			},
			{
				"x": 0.2301961249,
				"y": -0.5371102981,
				"z": -5.220785551,
				"element": "F" 
			},
			{
				"x": 2.188720183,
				"y": -1.4590295215,
				"z": -4.9800489419,
				"element": "F" 
			},
			{
				"x": -1.6103929684,
				"y": 2.0991506657,
				"z": 3.0809386667,
				"element": "H" 
			},
			{
				"x": -1.4825375973,
				"y": 0.4306372279,
				"z": 3.6813064106,
				"element": "H" 
			},
			{
				"x": -0.0079305976,
				"y": 1.4478735699,
				"z": 3.5619876165,
				"element": "H" 
			},
			{
				"x": -3.4215512794,
				"y": -0.4341726754,
				"z": -0.9399270045,
				"element": "H" 
			},
			{
				"x": 3.1587705973,
				"y": -0.6516269297,
				"z": -2.9476298605,
				"element": "H" 
			}
		],
		 "valence_orbital": [ 
			{
				"type": "occ",
				"energy": -0.30604,
				"method": "rhf"
			},
			{
				"type": "occ",
				"energy": -0.29026,
				"method": "rhf"
			},
			{
				"type": "occ",
				"energy": -0.28259,
				"method": "rhf"
			},
			{
				"type": "occ",
				"energy": -0.26557,
				"method": "rhf"
			},
			{
				"type": "occ",
				"energy": -0.26352,
				"method": "rhf"
			},
			{
				"type": "unocc",
				"energy": -0.07951,
				"method": "rhf"
			},
			{
				"type": "unocc",
				"energy": -0.05067,
				"method": "rhf"
			},
			{
				"type": "unocc",
				"energy": -0.03294,
				"method": "rhf"
			},
			{
				"type": "unocc",
				"energy": -0.00046,
				"method": "rhf"
			},
			{
				"type": "unocc",
				"energy": 0.02265,
				"method": "rhf"
			}
		],
		"cosmo_sigma_profile": { 
			"-0.025": 0.0,
			"-0.024": 0.0,
			"-0.023": 0.0,
			"-0.022": 0.0,
			"-0.021": 0.0,
			"-0.02": 0.0,
			"-0.019": 0.0,
			"-0.018": 0.0,
			"-0.017": 0.0,
			"-0.016": 0.0,
			"-0.015": 0.0,
			"-0.014": 0.0,
			"-0.013": 0.0,
			"-0.012": 0.0,
			"-0.011": 0.899508129819,
			"-0.01": 1.72306987252,
			"-0.009": 2.44937122562,
			"-0.008": 2.79318256813,
			"-0.007": 4.21865575977,
			"-0.006": 9.34239828364,
			"-0.005": 12.5840192459,
			"-0.004": 17.6719278948,
			"-0.003": 24.7911569215,
			"-0.002": 30.1562735354,
			"-0.001": 25.8172030173,
			"0.0": 24.8137922953,
			"0.001": 29.1818681011,
			"0.002": 33.288995141,
			"0.003": 12.0400961188,
			"0.004": 10.4268957747,
			"0.005": 4.85371973951,
			"0.006": 3.69195478795,
			"0.007": 3.41387006958,
			"0.008": 3.00825316483,
			"0.009": 1.92651510252,
			"0.01": 3.42582390304,
			"0.011": 4.74020593625,
			"0.012": 3.99589561645,
			"0.013": 1.21769063361,
			"0.014": 0.884954507201,
			"0.015": 0.295945649846,
			"0.016": 0.0,
			"0.017": 0.0,
			"0.018": 0.0,
			"0.019": 0.0,
			"0.02": 0.0,
			"0.021": 0.0,
			"0.022": 0.0,
			"0.023": 0.0,
			"0.024": 0.0,
			"0.025": 0.0
		}
	}
}
