{
	 "smiles": "FC(F)(F)C1=CC=C(C=C1)C(=O)OC(=O)C1=CC=C(C=C1)C(F)(F)F", 
	 "Tm": 403.15, 
	 "num_atms": 33, 
	 "gaussian": { 
		 "optdone": 1, 
		 "sigma_profile": "yes", 
		 "theory": "DFT", 
		 "functional": "B3LYP", 
		 "basiset": "6-31G**", 
		 "properties": { 
			 "R2extent": 16530.0422, 
			 "electric_dipole_moment_norm": 1.79519306204, 
			 "electric_quadrupole_moment_norm": 10.243152995, 
			 "total_energy": -1439.27066323, 
			 "HOMO_LUMO_gap": 0.19638, 
			 "cosmo_polarized_energy": -11.89, 
			 "cosmo_cavitation_energy": 43.31, 
			 "cosmo_dispersion_energy": -29.55, 
			 "cosmo_repulsion_energy": 2.07, 
			 "cosmo_total_nonelectrostatic_energy": 15.83, 
			 "SMD_solvation_energy": 11.34 
		},
		"coords": [
			{
				"x": -4.5592025251,
				"y": -2.5626974559,
				"z": 3.3076601234,
				"element": "F" 
			},
			{
				"x": -3.5254350943,
				"y": -1.9234006166,
				"z": 3.9000275616,
				"element": "C" 
			},
			{
				"x": -2.7270578099,
				"y": -2.8715310059,
				"z": 4.4349367965,
				"element": "F" 
			},
			{
				"x": -4.0382254059,
				"y": -1.1976648823,
				"z": 4.9159245994,
				"element": "F" 
			},
			{
				"x": -2.782885283,
				"y": -1.0572033906,
				"z": 2.9140643515,
				"element": "C" 
			},
			{
				"x": -1.7126617061,
				"y": -1.5894386144,
				"z": 2.1902197906,
				"element": "C" 
			},
			{
				"x": -1.061556555,
				"y": -0.8076229773,
				"z": 1.239695658,
				"element": "C" 
			},
			{
				"x": -1.4806886381,
				"y": 0.5101911967,
				"z": 1.0124005045,
				"element": "C" 
			},
			{
				"x": -2.5526319732,
				"y": 1.0398963768,
				"z": 1.7453203531,
				"element": "C" 
			},
			{
				"x": -3.2031735127,
				"y": 0.2585888822,
				"z": 2.6932347913,
				"element": "C" 
			},
			{
				"x": -0.8231447575,
				"y": 1.4017822983,
				"z": 0.0199052697,
				"element": "C" 
			},
			{
				"x": -1.1026884191,
				"y": 2.5555719252,
				"z": -0.1724414855,
				"element": "O" 
			},
			{
				"x": 0.1331131306,
				"y": 0.7194941834,
				"z": -0.730078634,
				"element": "O" 
			},
			{
				"x": 1.2140792655,
				"y": 1.4061313529,
				"z": -1.2809452309,
				"element": "C" 
			},
			{
				"x": 1.6950863045,
				"y": 2.3831812991,
				"z": -0.7707843739,
				"element": "O" 
			},
			{
				"x": 1.7183617438,
				"y": 0.7401738928,
				"z": -2.5114902667,
				"element": "C" 
			},
			{
				"x": 2.8831914707,
				"y": 1.2592210756,
				"z": -3.0951474755,
				"element": "C" 
			},
			{
				"x": 3.4006405579,
				"y": 0.6840728319,
				"z": -4.249969026,
				"element": "C" 
			},
			{
				"x": 2.7544588004,
				"y": -0.4140134554,
				"z": -4.8273756178,
				"element": "C" 
			},
			{
				"x": 1.5932956611,
				"y": -0.9355972097,
				"z": -4.2509534391,
				"element": "C" 
			},
			{
				"x": 1.0753269264,
				"y": -0.3606588448,
				"z": -3.0934501589,
				"element": "C" 
			},
			{
				"x": 3.2833438286,
				"y": -1.0021930263,
				"z": -6.1112212916,
				"element": "C" 
			},
			{
				"x": 4.6250770997,
				"y": -0.8830465152,
				"z": -6.1996683642,
				"element": "F" 
			},
			{
				"x": 2.9797772628,
				"y": -2.3129727388,
				"z": -6.2239188577,
				"element": "F" 
			},
			{
				"x": 2.7574623909,
				"y": -0.3785166352,
				"z": -7.188953085,
				"element": "F" 
			},
			{
				"x": -1.3874342919,
				"y": -2.6066054779,
				"z": 2.3779931127,
				"element": "H" 
			},
			{
				"x": -0.2272861142,
				"y": -1.2121875604,
				"z": 0.6792191258,
				"element": "H" 
			},
			{
				"x": -2.8561696576,
				"y": 2.0643233661,
				"z": 1.5600317221,
				"element": "H" 
			},
			{
				"x": -4.0277485744,
				"y": 0.6658089157,
				"z": 3.2677489502,
				"element": "H" 
			},
			{
				"x": 3.3662141038,
				"y": 2.1106914114,
				"z": -2.6286743017,
				"element": "H" 
			},
			{
				"x": 4.3054953877,
				"y": 1.0765166949,
				"z": -4.7005663449,
				"element": "H" 
			},
			{
				"x": 1.1039261668,
				"y": -1.7909563383,
				"z": -4.7032319525,
				"element": "H" 
			},
			{
				"x": 0.1756402169,
				"y": -0.760438958,
				"z": -2.6412128044,
				"element": "H" 
			}
		],
		 "valence_orbital": [ 
			{
				"type": "occ",
				"energy": -0.29356,
				"method": "rhf"
			},
			{
				"type": "occ",
				"energy": -0.28877,
				"method": "rhf"
			},
			{
				"type": "occ",
				"energy": -0.28692,
				"method": "rhf"
			},
			{
				"type": "occ",
				"energy": -0.2858,
				"method": "rhf"
			},
			{
				"type": "occ",
				"energy": -0.28563,
				"method": "rhf"
			},
			{
				"type": "unocc",
				"energy": -0.08925,
				"method": "rhf"
			},
			{
				"type": "unocc",
				"energy": -0.07392,
				"method": "rhf"
			},
			{
				"type": "unocc",
				"energy": -0.03478,
				"method": "rhf"
			},
			{
				"type": "unocc",
				"energy": -0.03451,
				"method": "rhf"
			},
			{
				"type": "unocc",
				"energy": 0.00932,
				"method": "rhf"
			}
		],
		"cosmo_sigma_profile": { 
			"-0.025": 0.0,
			"-0.024": 0.0,
			"-0.023": 0.0,
			"-0.022": 0.0,
			"-0.021": 0.0,
			"-0.02": 0.0,
			"-0.019": 0.0,
			"-0.018": 0.0,
			"-0.017": 0.0,
			"-0.016": 0.0,
			"-0.015": 0.0,
			"-0.014": 0.0,
			"-0.013": 0.0,
			"-0.012": 0.0,
			"-0.011": 0.0,
			"-0.01": 0.0,
			"-0.009": 0.0190047907004,
			"-0.008": 5.25550493187,
			"-0.007": 14.3404063205,
			"-0.006": 15.509188473,
			"-0.005": 15.4206996406,
			"-0.004": 17.2076943747,
			"-0.003": 22.7460090315,
			"-0.002": 25.7477711437,
			"-0.001": 29.0959298185,
			"0.0": 36.0971677861,
			"0.001": 44.9339865928,
			"0.002": 51.6374516987,
			"0.003": 41.1186002245,
			"0.004": 1.53298498605,
			"0.005": 2.17900267388,
			"0.006": 3.35266015167,
			"0.007": 2.5826353243,
			"0.008": 3.46811937881,
			"0.009": 6.07195584872,
			"0.01": 8.50214225405,
			"0.011": 3.17211270667,
			"0.012": 0.1320996856,
			"0.013": 0.0,
			"0.014": 0.0,
			"0.015": 0.0,
			"0.016": 0.0,
			"0.017": 0.0,
			"0.018": 0.0,
			"0.019": 0.0,
			"0.02": 0.0,
			"0.021": 0.0,
			"0.022": 0.0,
			"0.023": 0.0,
			"0.024": 0.0,
			"0.025": 0.0
		}
	}
}
