{
	 "smiles": "OC(=O)CNC(=O)NCC1=CC=CO1", 
	 "Tm": 433.15, 
	 "num_atms": 24, 
	 "gaussian": { 
		 "optdone": 1, 
		 "sigma_profile": "yes", 
		 "theory": "DFT", 
		 "functional": "B3LYP", 
		 "basiset": "6-31G**", 
		 "properties": { 
			 "R2extent": 4262.7876, 
			 "electric_dipole_moment_norm": 3.22376378322, 
			 "electric_quadrupole_moment_norm": 16.5724572553, 
			 "total_energy": -721.27883967, 
			 "HOMO_LUMO_gap": 0.21221, 
			 "cosmo_polarized_energy": -19.37, 
			 "cosmo_cavitation_energy": 29.57, 
			 "cosmo_dispersion_energy": -20.96, 
			 "cosmo_repulsion_energy": 1.7, 
			 "cosmo_total_nonelectrostatic_energy": 10.31, 
			 "SMD_solvation_energy": 7.1 
		},
		"coords": [
			{
				"x": 0.7645111132,
				"y": 0.0338731665,
				"z": 1.4704917841,
				"element": "O" 
			},
			{
				"x": 2.0358081415,
				"y": -0.3975464196,
				"z": 1.2592181914,
				"element": "C" 
			},
			{
				"x": 2.8541869063,
				"y": -0.4761639078,
				"z": 2.1439407943,
				"element": "O" 
			},
			{
				"x": 2.260974569,
				"y": -0.7960575851,
				"z": -0.1965856915,
				"element": "C" 
			},
			{
				"x": 1.8908800126,
				"y": 0.2250781915,
				"z": -1.1612962469,
				"element": "N" 
			},
			{
				"x": 0.7198607293,
				"y": 0.2291330123,
				"z": -1.9152008552,
				"element": "C" 
			},
			{
				"x": 0.6718953466,
				"y": 0.7740509812,
				"z": -3.0121069258,
				"element": "O" 
			},
			{
				"x": -0.3454011689,
				"y": -0.4244541189,
				"z": -1.3324093594,
				"element": "N" 
			},
			{
				"x": -1.6369561186,
				"y": -0.4112587471,
				"z": -2.0151032949,
				"element": "C" 
			},
			{
				"x": -2.491528734,
				"y": -1.566272731,
				"z": -1.6166034443,
				"element": "C" 
			},
			{
				"x": -3.68205008,
				"y": -1.6547431928,
				"z": -0.9549607508,
				"element": "C" 
			},
			{
				"x": -4.013961126,
				"y": -3.0487138469,
				"z": -0.8893115485,
				"element": "C" 
			},
			{
				"x": -2.9976896334,
				"y": -3.7038280204,
				"z": -1.5133721529,
				"element": "C" 
			},
			{
				"x": -2.0626765816,
				"y": -2.8195313612,
				"z": -1.9630962483,
				"element": "O" 
			},
			{
				"x": 0.6972251961,
				"y": 0.261757361,
				"z": 2.4130279735,
				"element": "H" 
			},
			{
				"x": 1.6913271709,
				"y": -1.7163019811,
				"z": -0.3821475299,
				"element": "H" 
			},
			{
				"x": 3.3221474633,
				"y": -1.0332611041,
				"z": -0.290597583,
				"element": "H" 
			},
			{
				"x": 2.6464869417,
				"y": 0.6687310893,
				"z": -1.6630198346,
				"element": "H" 
			},
			{
				"x": -0.3705073757,
				"y": -0.4501465307,
				"z": -0.3206584356,
				"element": "H" 
			},
			{
				"x": -1.4240200929,
				"y": -0.4237195517,
				"z": -3.0874114258,
				"element": "H" 
			},
			{
				"x": -2.1959255319,
				"y": 0.5129707775,
				"z": -1.8138900665,
				"element": "H" 
			},
			{
				"x": -4.2561079204,
				"y": -0.8258965788,
				"z": -0.5651645043,
				"element": "H" 
			},
			{
				"x": -4.8886666975,
				"y": -3.4955777954,
				"z": -0.4391989266,
				"element": "H" 
			},
			{
				"x": -2.7951125295,
				"y": -4.7445211066,
				"z": -1.7142439185,
				"element": "H" 
			}
		],
		 "valence_orbital": [ 
			{
				"type": "occ",
				"energy": -0.27904,
				"method": "rhf"
			},
			{
				"type": "occ",
				"energy": -0.26698,
				"method": "rhf"
			},
			{
				"type": "occ",
				"energy": -0.25544,
				"method": "rhf"
			},
			{
				"type": "occ",
				"energy": -0.24576,
				"method": "rhf"
			},
			{
				"type": "occ",
				"energy": -0.22363,
				"method": "rhf"
			},
			{
				"type": "unocc",
				"energy": -0.01142,
				"method": "rhf"
			},
			{
				"type": "unocc",
				"energy": 0.00914,
				"method": "rhf"
			},
			{
				"type": "unocc",
				"energy": 0.05158,
				"method": "rhf"
			},
			{
				"type": "unocc",
				"energy": 0.05625,
				"method": "rhf"
			},
			{
				"type": "unocc",
				"energy": 0.07112,
				"method": "rhf"
			}
		],
		"cosmo_sigma_profile": { 
			"-0.025": 0.0,
			"-0.024": 0.0,
			"-0.023": 0.0,
			"-0.022": 0.0,
			"-0.021": 0.0,
			"-0.02": 0.0,
			"-0.019": 0.238172426686,
			"-0.018": 1.1454604023,
			"-0.017": 0.805226024805,
			"-0.016": 1.01586006198,
			"-0.015": 0.442894860338,
			"-0.014": 1.82199431412,
			"-0.013": 1.76636293188,
			"-0.012": 1.82246467421,
			"-0.011": 1.90102379655,
			"-0.01": 1.86863179776,
			"-0.009": 3.77504389491,
			"-0.008": 6.62849402975,
			"-0.007": 11.0025931438,
			"-0.006": 13.1272993396,
			"-0.005": 15.4938264579,
			"-0.004": 17.1078066333,
			"-0.003": 13.7603027016,
			"-0.002": 13.1664364376,
			"-0.001": 10.6569516935,
			"0.0": 12.3367317098,
			"0.001": 9.96730189227,
			"0.002": 11.6417243941,
			"0.003": 12.663320609,
			"0.004": 11.8712815954,
			"0.005": 11.7081566515,
			"0.006": 8.77925007124,
			"0.007": 3.72930437783,
			"0.008": 5.68983079364,
			"0.009": 5.50838482548,
			"0.01": 3.3748225992,
			"0.011": 6.1955807941,
			"0.012": 3.78349044591,
			"0.013": 2.56629841161,
			"0.014": 5.95241527814,
			"0.015": 1.52066253634,
			"0.016": 0.0,
			"0.017": 0.0,
			"0.018": 0.0,
			"0.019": 0.0,
			"0.02": 0.0,
			"0.021": 0.0,
			"0.022": 0.0,
			"0.023": 0.0,
			"0.024": 0.0,
			"0.025": 0.0
		}
	}
}
