{
	 "smiles": "CC1=C(C)C(=NN)N=C(N1)C1=NC=CC=C1", 
	 "Tm": 456.15, 
	 "num_atms": 29, 
	 "gaussian": { 
		 "optdone": 1, 
		 "sigma_profile": "yes", 
		 "theory": "DFT", 
		 "functional": "B3LYP", 
		 "basiset": "6-31G**", 
		 "properties": { 
			 "R2extent": 4800.9875, 
			 "electric_dipole_moment_norm": 3.87265471996, 
			 "electric_quadrupole_moment_norm": 17.6322290273, 
			 "total_energy": -700.726999096, 
			 "HOMO_LUMO_gap": 0.11507, 
			 "cosmo_polarized_energy": -18.57, 
			 "cosmo_cavitation_energy": 32.32, 
			 "cosmo_dispersion_energy": -24.01, 
			 "cosmo_repulsion_energy": 1.87, 
			 "cosmo_total_nonelectrostatic_energy": 10.19, 
			 "SMD_solvation_energy": 2.8 
		},
		"coords": [
			{
				"x": -2.0876285518,
				"y": 1.7168697431,
				"z": -1.3904093413,
				"element": "C" 
			},
			{
				"x": -0.7401811533,
				"y": 1.0683462511,
				"z": -1.5438572822,
				"element": "C" 
			},
			{
				"x": 0.3103248541,
				"y": 1.557288207,
				"z": -2.257277212,
				"element": "C" 
			},
			{
				"x": 0.2667265362,
				"y": 2.9482862196,
				"z": -2.86292486,
				"element": "C" 
			},
			{
				"x": 1.5503286877,
				"y": 0.7343272474,
				"z": -2.2951467132,
				"element": "C" 
			},
			{
				"x": 2.5243294868,
				"y": 0.7604972342,
				"z": -3.1483360264,
				"element": "N" 
			},
			{
				"x": 2.4255672446,
				"y": 1.6142256476,
				"z": -4.2531812345,
				"element": "N" 
			},
			{
				"x": 1.7246588394,
				"y": -0.211089947,
				"z": -1.2668323103,
				"element": "N" 
			},
			{
				"x": 0.6853912061,
				"y": -0.605788514,
				"z": -0.6166378207,
				"element": "C" 
			},
			{
				"x": -0.583858726,
				"y": -0.116653779,
				"z": -0.8323511345,
				"element": "N" 
			},
			{
				"x": 0.7973706986,
				"y": -1.6449268919,
				"z": 0.4399141936,
				"element": "C" 
			},
			{
				"x": -0.3387895329,
				"y": -1.9556568982,
				"z": 1.0876970029,
				"element": "N" 
			},
			{
				"x": -0.277555255,
				"y": -2.8861478262,
				"z": 2.0468929856,
				"element": "C" 
			},
			{
				"x": 0.9010802621,
				"y": -3.5400403184,
				"z": 2.4044155003,
				"element": "C" 
			},
			{
				"x": 2.0763600621,
				"y": -3.2102105301,
				"z": 1.7243704364,
				"element": "C" 
			},
			{
				"x": 2.0290960176,
				"y": -2.2481656462,
				"z": 0.7214267857,
				"element": "C" 
			},
			{
				"x": -2.2457164707,
				"y": 2.5043067388,
				"z": -2.1267383462,
				"element": "H" 
			},
			{
				"x": -2.2081743983,
				"y": 2.1529942446,
				"z": -0.3902023308,
				"element": "H" 
			},
			{
				"x": -2.882441496,
				"y": 0.9726263747,
				"z": -1.5185463218,
				"element": "H" 
			},
			{
				"x": -0.222038002,
				"y": 2.9760553692,
				"z": -3.8465806767,
				"element": "H" 
			},
			{
				"x": -0.2748246436,
				"y": 3.6426996457,
				"z": -2.2140093796,
				"element": "H" 
			},
			{
				"x": 1.2762362332,
				"y": 3.3349326637,
				"z": -3.000964947,
				"element": "H" 
			},
			{
				"x": 1.5053423774,
				"y": 1.5891196227,
				"z": -4.6940429911,
				"element": "H" 
			},
			{
				"x": 3.1057849072,
				"y": 1.2846660508,
				"z": -4.9296386126,
				"element": "H" 
			},
			{
				"x": -1.3026122951,
				"y": -0.4661339048,
				"z": -0.2094548906,
				"element": "H" 
			},
			{
				"x": -1.2134414043,
				"y": -3.1170070022,
				"z": 2.5520047494,
				"element": "H" 
			},
			{
				"x": 0.8949683003,
				"y": -4.2863394143,
				"z": 3.1922385934,
				"element": "H" 
			},
			{
				"x": 3.0140150246,
				"y": -3.6989082923,
				"z": 1.9726625975,
				"element": "H" 
			},
			{
				"x": 2.900681191,
				"y": -1.9480722956,
				"z": 0.1518095868,
				"element": "H" 
			}
		],
		 "valence_orbital": [ 
			{
				"type": "occ",
				"energy": -0.27647,
				"method": "rhf"
			},
			{
				"type": "occ",
				"energy": -0.25829,
				"method": "rhf"
			},
			{
				"type": "occ",
				"energy": -0.24375,
				"method": "rhf"
			},
			{
				"type": "occ",
				"energy": -0.22819,
				"method": "rhf"
			},
			{
				"type": "occ",
				"energy": -0.16525,
				"method": "rhf"
			},
			{
				"type": "unocc",
				"energy": -0.05018,
				"method": "rhf"
			},
			{
				"type": "unocc",
				"energy": -0.02645,
				"method": "rhf"
			},
			{
				"type": "unocc",
				"energy": 0.00153,
				"method": "rhf"
			},
			{
				"type": "unocc",
				"energy": 0.04277,
				"method": "rhf"
			},
			{
				"type": "unocc",
				"energy": 0.0865,
				"method": "rhf"
			}
		],
		"cosmo_sigma_profile": { 
			"-0.025": 0.0,
			"-0.024": 0.0,
			"-0.023": 0.0,
			"-0.022": 0.0,
			"-0.021": 0.0,
			"-0.02": 0.0,
			"-0.019": 0.0,
			"-0.018": 0.0,
			"-0.017": 0.0,
			"-0.016": 0.0,
			"-0.015": 0.0,
			"-0.014": 0.0,
			"-0.013": 0.0,
			"-0.012": 0.0773515890841,
			"-0.011": 1.45669111281,
			"-0.01": 3.80392724593,
			"-0.009": 3.86003975702,
			"-0.008": 4.52191875463,
			"-0.007": 10.5227645157,
			"-0.006": 13.1828251465,
			"-0.005": 18.212651183,
			"-0.004": 17.2318088586,
			"-0.003": 18.0200790032,
			"-0.002": 17.8080375932,
			"-0.001": 21.8381589829,
			"0.0": 20.5416935467,
			"0.001": 25.9404190517,
			"0.002": 22.7414068344,
			"0.003": 10.6533090431,
			"0.004": 6.64101129339,
			"0.005": 4.29820804434,
			"0.006": 4.08767052478,
			"0.007": 4.43635293614,
			"0.008": 4.24463224238,
			"0.009": 2.08990082334,
			"0.01": 2.69695105635,
			"0.011": 2.34704676186,
			"0.012": 3.44554112574,
			"0.013": 2.78200472885,
			"0.014": 1.66463719069,
			"0.015": 2.25835439479,
			"0.016": 1.22717710886,
			"0.017": 1.80421814494,
			"0.018": 1.35032705631,
			"0.019": 1.29658805798,
			"0.02": 0.102440825676,
			"0.021": 0.0,
			"0.022": 0.0,
			"0.023": 0.0,
			"0.024": 0.0,
			"0.025": 0.0
		}
	}
}
