{
	 "smiles": "NS(=O)(=O)C1=C2CCCNC2=CC=C1", 
	 "Tm": 421.15, 
	 "num_atms": 26, 
	 "gaussian": { 
		 "optdone": 1, 
		 "sigma_profile": "yes", 
		 "theory": "DFT", 
		 "functional": "B3LYP", 
		 "basiset": "6-31G**", 
		 "properties": { 
			 "R2extent": 4198.3577, 
			 "electric_dipole_moment_norm": 5.36464344202, 
			 "electric_quadrupole_moment_norm": 21.0389299341, 
			 "total_energy": -1008.26977209, 
			 "HOMO_LUMO_gap": 0.17371, 
			 "cosmo_polarized_energy": -17.2, 
			 "cosmo_cavitation_energy": 28.89, 
			 "cosmo_dispersion_energy": -22.38, 
			 "cosmo_repulsion_energy": 1.71, 
			 "cosmo_total_nonelectrostatic_energy": 8.22, 
			 "SMD_solvation_energy": 3.16 
		},
		"coords": [
			{
				"x": 1.3786788833,
				"y": 1.2314052744,
				"z": 1.2208787733,
				"element": "N" 
			},
			{
				"x": 0.2953878021,
				"y": 2.5409603528,
				"z": 1.1279881607,
				"element": "S" 
			},
			{
				"x": 1.0531509764,
				"y": 3.7681686287,
				"z": 0.857145514,
				"element": "O" 
			},
			{
				"x": -0.5417449314,
				"y": 2.4365296321,
				"z": 2.3297177844,
				"element": "O" 
			},
			{
				"x": -0.6648191559,
				"y": 2.1551847536,
				"z": -0.346540679,
				"element": "C" 
			},
			{
				"x": -1.4439692242,
				"y": 0.9868473011,
				"z": -0.433377807,
				"element": "C" 
			},
			{
				"x": -1.5227367517,
				"y": -0.053260059,
				"z": 0.67157168,
				"element": "C" 
			},
			{
				"x": -2.7309971032,
				"y": -0.9858427099,
				"z": 0.5152685458,
				"element": "C" 
			},
			{
				"x": -2.8447688216,
				"y": -1.4811823184,
				"z": -0.9243740903,
				"element": "C" 
			},
			{
				"x": -2.9820364408,
				"y": -0.3280430923,
				"z": -1.8016644308,
				"element": "N" 
			},
			{
				"x": -2.1656124062,
				"y": 0.7850383992,
				"z": -1.6361000192,
				"element": "C" 
			},
			{
				"x": -2.0952849807,
				"y": 1.7410561081,
				"z": -2.667868024,
				"element": "C" 
			},
			{
				"x": -1.3207985306,
				"y": 2.8840175763,
				"z": -2.5355368481,
				"element": "C" 
			},
			{
				"x": -0.59015861,
				"y": 3.1038591989,
				"z": -1.3683296027,
				"element": "C" 
			},
			{
				"x": 1.4945081995,
				"y": 0.9970788365,
				"z": 2.2045670154,
				"element": "H" 
			},
			{
				"x": 2.2707025984,
				"y": 1.4994540543,
				"z": 0.8108086199,
				"element": "H" 
			},
			{
				"x": -1.5617519992,
				"y": 0.4431171307,
				"z": 1.6436436586,
				"element": "H" 
			},
			{
				"x": -0.5949547846,
				"y": -0.640558597,
				"z": 0.6666199121,
				"element": "H" 
			},
			{
				"x": -3.6528720369,
				"y": -0.4543159697,
				"z": 0.7771753998,
				"element": "H" 
			},
			{
				"x": -2.6369572222,
				"y": -1.8361632841,
				"z": 1.1983486928,
				"element": "H" 
			},
			{
				"x": -3.7278154614,
				"y": -2.1162032021,
				"z": -1.0511363598,
				"element": "H" 
			},
			{
				"x": -1.9602108038,
				"y": -2.0913602702,
				"z": -1.1772685719,
				"element": "H" 
			},
			{
				"x": -3.2275597146,
				"y": -0.531749249,
				"z": -2.7598461701,
				"element": "H" 
			},
			{
				"x": -2.6654847563,
				"y": 1.5715204093,
				"z": -3.5784539986,
				"element": "H" 
			},
			{
				"x": -1.2815045284,
				"y": 3.6071048135,
				"z": -3.3445683557,
				"element": "H" 
			},
			{
				"x": 0.0253098038,
				"y": 3.9847362823,
				"z": -1.2387687995,
				"element": "H" 
			}
		],
		 "valence_orbital": [ 
			{
				"type": "occ",
				"energy": -0.30061,
				"method": "rhf"
			},
			{
				"type": "occ",
				"energy": -0.2963,
				"method": "rhf"
			},
			{
				"type": "occ",
				"energy": -0.28291,
				"method": "rhf"
			},
			{
				"type": "occ",
				"energy": -0.25301,
				"method": "rhf"
			},
			{
				"type": "occ",
				"energy": -0.20138,
				"method": "rhf"
			},
			{
				"type": "unocc",
				"energy": -0.02767,
				"method": "rhf"
			},
			{
				"type": "unocc",
				"energy": 0.00689,
				"method": "rhf"
			},
			{
				"type": "unocc",
				"energy": 0.06176,
				"method": "rhf"
			},
			{
				"type": "unocc",
				"energy": 0.07464,
				"method": "rhf"
			},
			{
				"type": "unocc",
				"energy": 0.08878,
				"method": "rhf"
			}
		],
		"cosmo_sigma_profile": { 
			"-0.025": 0.0,
			"-0.024": 0.0,
			"-0.023": 0.0,
			"-0.022": 0.0,
			"-0.021": 0.0,
			"-0.02": 0.0,
			"-0.019": 0.0,
			"-0.018": 0.0,
			"-0.017": 0.0,
			"-0.016": 0.0,
			"-0.015": 0.552074920232,
			"-0.014": 2.46406774571,
			"-0.013": 3.50475164831,
			"-0.012": 3.55757082741,
			"-0.011": 4.08921446345,
			"-0.01": 3.74649339458,
			"-0.009": 3.05775646073,
			"-0.008": 3.28556889512,
			"-0.007": 3.84744839928,
			"-0.006": 5.86540255238,
			"-0.005": 8.42341656204,
			"-0.004": 13.2871219435,
			"-0.003": 19.4823760757,
			"-0.002": 22.6750857906,
			"-0.001": 18.3035849058,
			"0.0": 14.331927262,
			"0.001": 10.2123310932,
			"0.002": 10.6020314431,
			"0.003": 12.0574749554,
			"0.004": 14.3290559519,
			"0.005": 11.132042989,
			"0.006": 4.12506036269,
			"0.007": 4.40005360398,
			"0.008": 5.17774502451,
			"0.009": 4.2647332698,
			"0.01": 6.76699039313,
			"0.011": 8.76650853592,
			"0.012": 5.52150781429,
			"0.013": 0.0127084273245,
			"0.014": 0.0,
			"0.015": 0.0,
			"0.016": 0.0,
			"0.017": 0.0,
			"0.018": 0.0,
			"0.019": 0.0,
			"0.02": 0.0,
			"0.021": 0.0,
			"0.022": 0.0,
			"0.023": 0.0,
			"0.024": 0.0,
			"0.025": 0.0
		}
	}
}
