{
	 "smiles": "CS(=O)(=O)C1=CC=C(C=C1)C(=O)C1=CC=CC=C1", 
	 "Tm": 405.15, 
	 "num_atms": 30, 
	 "gaussian": { 
		 "optdone": 1, 
		 "sigma_profile": "yes", 
		 "theory": "DFT", 
		 "functional": "B3LYP", 
		 "basiset": "6-31G**", 
		 "properties": { 
			 "R2extent": 7151.4986, 
			 "electric_dipole_moment_norm": 6.1524033491, 
			 "electric_quadrupole_moment_norm": 26.7745256486, 
			 "total_energy": -1164.51759129, 
			 "HOMO_LUMO_gap": 0.17494, 
			 "cosmo_polarized_energy": -18.98, 
			 "cosmo_cavitation_energy": 36.06, 
			 "cosmo_dispersion_energy": -26.23, 
			 "cosmo_repulsion_energy": 1.96, 
			 "cosmo_total_nonelectrostatic_energy": 11.79, 
			 "SMD_solvation_energy": 6.27 
		},
		"coords": [
			{
				"x": 1.6066577215,
				"y": 2.3049771236,
				"z": -3.4514548628,
				"element": "C" 
			},
			{
				"x": 0.3488895868,
				"y": 3.0324859561,
				"z": -2.3734293696,
				"element": "S" 
			},
			{
				"x": 0.9738051353,
				"y": 4.1572898176,
				"z": -1.6608517436,
				"element": "O" 
			},
			{
				"x": -0.8687515704,
				"y": 3.2167632401,
				"z": -3.1769842709,
				"element": "O" 
			},
			{
				"x": 0.024969041,
				"y": 1.7290462634,
				"z": -1.1689575024,
				"element": "C" 
			},
			{
				"x": -0.9523740389,
				"y": 0.7687501545,
				"z": -1.4451736137,
				"element": "C" 
			},
			{
				"x": -1.1960962409,
				"y": -0.2319747707,
				"z": -0.5104189736,
				"element": "C" 
			},
			{
				"x": -0.459270001,
				"y": -0.289780734,
				"z": 0.6836337378,
				"element": "C" 
			},
			{
				"x": 0.5002579105,
				"y": 0.6986818939,
				"z": 0.9507899872,
				"element": "C" 
			},
			{
				"x": 0.7410868633,
				"y": 1.7165582579,
				"z": 0.0276840302,
				"element": "C" 
			},
			{
				"x": -0.8199188103,
				"y": -1.3688753697,
				"z": 1.6712695772,
				"element": "C" 
			},
			{
				"x": -1.9642962507,
				"y": -1.8063236226,
				"z": 1.6828840981,
				"element": "O" 
			},
			{
				"x": 0.2005946267,
				"y": -1.900775691,
				"z": 2.6297634818,
				"element": "C" 
			},
			{
				"x": 1.5766439416,
				"y": -1.9218052717,
				"z": 2.3516388693,
				"element": "C" 
			},
			{
				"x": 2.4690080646,
				"y": -2.4928302157,
				"z": 3.2595812821,
				"element": "C" 
			},
			{
				"x": 1.998063819,
				"y": -3.0358044473,
				"z": 4.4560740639,
				"element": "C" 
			},
			{
				"x": 0.6280850837,
				"y": -3.0255237993,
				"z": 4.7372634336,
				"element": "C" 
			},
			{
				"x": -0.265431201,
				"y": -2.4737477265,
				"z": 3.8247817015,
				"element": "C" 
			},
			{
				"x": 2.4955781749,
				"y": 2.0744176125,
				"z": -2.8627655771,
				"element": "H" 
			},
			{
				"x": 1.2015016296,
				"y": 1.4094099871,
				"z": -3.9244478283,
				"element": "H" 
			},
			{
				"x": 1.8351931315,
				"y": 3.0619921903,
				"z": -4.2046201489,
				"element": "H" 
			},
			{
				"x": -1.5245934344,
				"y": 0.8297785247,
				"z": -2.3649431168,
				"element": "H" 
			},
			{
				"x": -1.9659104766,
				"y": -0.9770938913,
				"z": -0.6798285387,
				"element": "H" 
			},
			{
				"x": 1.0392097553,
				"y": 0.6923525284,
				"z": 1.8918844802,
				"element": "H" 
			},
			{
				"x": 1.4557008477,
				"y": 2.5057523849,
				"z": 0.2358743947,
				"element": "H" 
			},
			{
				"x": 1.9484148184,
				"y": -1.517852017,
				"z": 1.4159169234,
				"element": "H" 
			},
			{
				"x": 3.5303932812,
				"y": -2.5161991287,
				"z": 3.030942166,
				"element": "H" 
			},
			{
				"x": 2.6952316942,
				"y": -3.4719232096,
				"z": 5.1657626117,
				"element": "H" 
			},
			{
				"x": 0.2600534336,
				"y": -3.4533051895,
				"z": 5.6651308963,
				"element": "H" 
			},
			{
				"x": -1.3335965359,
				"y": -2.4745408503,
				"z": 4.0142998113,
				"element": "H" 
			}
		],
		 "valence_orbital": [ 
			{
				"type": "occ",
				"energy": -0.28254,
				"method": "rhf"
			},
			{
				"type": "occ",
				"energy": -0.28106,
				"method": "rhf"
			},
			{
				"type": "occ",
				"energy": -0.2716,
				"method": "rhf"
			},
			{
				"type": "occ",
				"energy": -0.26941,
				"method": "rhf"
			},
			{
				"type": "occ",
				"energy": -0.2583,
				"method": "rhf"
			},
			{
				"type": "unocc",
				"energy": -0.08336,
				"method": "rhf"
			},
			{
				"type": "unocc",
				"energy": -0.0384,
				"method": "rhf"
			},
			{
				"type": "unocc",
				"energy": -0.03102,
				"method": "rhf"
			},
			{
				"type": "unocc",
				"energy": -0.0176,
				"method": "rhf"
			},
			{
				"type": "unocc",
				"energy": 0.03152,
				"method": "rhf"
			}
		],
		"cosmo_sigma_profile": { 
			"-0.025": 0.0,
			"-0.024": 0.0,
			"-0.023": 0.0,
			"-0.022": 0.0,
			"-0.021": 0.0,
			"-0.02": 0.0,
			"-0.019": 0.0,
			"-0.018": 0.0,
			"-0.017": 0.0,
			"-0.016": 0.0,
			"-0.015": 0.0,
			"-0.014": 0.0,
			"-0.013": 0.0,
			"-0.012": 0.0,
			"-0.011": 0.0,
			"-0.01": 0.0480451614549,
			"-0.009": 2.388538188,
			"-0.008": 8.24865744804,
			"-0.007": 14.0321259115,
			"-0.006": 21.9983452778,
			"-0.005": 25.3572633973,
			"-0.004": 26.0448970684,
			"-0.003": 19.9317869439,
			"-0.002": 15.9807552744,
			"-0.001": 15.9153391055,
			"0.0": 18.2227213052,
			"0.001": 22.1600665229,
			"0.002": 17.3140797135,
			"0.003": 14.6435713045,
			"0.004": 14.2692861175,
			"0.005": 4.34521107978,
			"0.006": 4.14689233393,
			"0.007": 4.48329222243,
			"0.008": 4.08639989865,
			"0.009": 5.06953017675,
			"0.01": 7.41672331017,
			"0.011": 12.7929678257,
			"0.012": 10.1402467777,
			"0.013": 0.434253835911,
			"0.014": 0.0,
			"0.015": 0.0,
			"0.016": 0.0,
			"0.017": 0.0,
			"0.018": 0.0,
			"0.019": 0.0,
			"0.02": 0.0,
			"0.021": 0.0,
			"0.022": 0.0,
			"0.023": 0.0,
			"0.024": 0.0,
			"0.025": 0.0
		}
	}
}
