{
	 "smiles": "ClS(=O)(=O)CC1CCCN1C(=O)OCC1=CC=CC=C1", 
	 "Tm": 334.15, 
	 "num_atms": 36, 
	 "gaussian": { 
		 "optdone": 1, 
		 "sigma_profile": "yes", 
		 "theory": "DFT", 
		 "functional": "B3LYP", 
		 "basiset": "6-31G**", 
		 "properties": { 
			 "R2extent": 7950.2093, 
			 "electric_dipole_moment_norm": 2.74408219447, 
			 "electric_quadrupole_moment_norm": 26.5421649155, 
			 "total_energy": -1719.01675491, 
			 "HOMO_LUMO_gap": 0.16979, 
			 "cosmo_polarized_energy": -15.07, 
			 "cosmo_cavitation_energy": 42.37, 
			 "cosmo_dispersion_energy": -28.86, 
			 "cosmo_repulsion_energy": 2.21, 
			 "cosmo_total_nonelectrostatic_energy": 15.72, 
			 "SMD_solvation_energy": 5.7 
		},
		"coords": [
			{
				"x": -2.1920784159,
				"y": 3.6659211366,
				"z": -1.4891259756,
				"element": "Cl" 
			},
			{
				"x": -0.3755027143,
				"y": 2.9474606563,
				"z": -2.3601188059,
				"element": "S" 
			},
			{
				"x": -0.743468595,
				"y": 2.0925104856,
				"z": -3.4839747304,
				"element": "O" 
			},
			{
				"x": 0.4908648486,
				"y": 4.1080569608,
				"z": -2.5386397117,
				"element": "O" 
			},
			{
				"x": 0.2203546174,
				"y": 1.9126746822,
				"z": -0.9916720238,
				"element": "C" 
			},
			{
				"x": 1.4456545486,
				"y": 1.0786749906,
				"z": -1.4199538574,
				"element": "C" 
			},
			{
				"x": 2.7065848578,
				"y": 1.9152401947,
				"z": -1.7440876069,
				"element": "C" 
			},
			{
				"x": 3.871825023,
				"y": 1.0704917458,
				"z": -1.2043333215,
				"element": "C" 
			},
			{
				"x": 3.2851672405,
				"y": 0.4464392416,
				"z": 0.066320753,
				"element": "C" 
			},
			{
				"x": 1.876245589,
				"y": 0.2288452207,
				"z": -0.2973945603,
				"element": "N" 
			},
			{
				"x": 1.2260097955,
				"y": -0.902255852,
				"z": 0.1165470339,
				"element": "C" 
			},
			{
				"x": 1.664484573,
				"y": -1.6856064247,
				"z": 0.9429209445,
				"element": "O" 
			},
			{
				"x": 0.0285049707,
				"y": -1.0303840592,
				"z": -0.5178505142,
				"element": "O" 
			},
			{
				"x": -0.8022685316,
				"y": -2.1512343906,
				"z": -0.1005477352,
				"element": "C" 
			},
			{
				"x": -1.7600276864,
				"y": -1.7520106529,
				"z": 0.9935792212,
				"element": "C" 
			},
			{
				"x": -3.0539804161,
				"y": -1.3180932289,
				"z": 0.6786167624,
				"element": "C" 
			},
			{
				"x": -3.9381794376,
				"y": -0.930638777,
				"z": 1.6865529872,
				"element": "C" 
			},
			{
				"x": -3.5338755371,
				"y": -0.973783465,
				"z": 3.0220272114,
				"element": "C" 
			},
			{
				"x": -2.2448493946,
				"y": -1.4049619569,
				"z": 3.3452639227,
				"element": "C" 
			},
			{
				"x": -1.3615778243,
				"y": -1.7925960416,
				"z": 2.3377355311,
				"element": "C" 
			},
			{
				"x": 0.4520052564,
				"y": 2.5950556308,
				"z": -0.1708385232,
				"element": "H" 
			},
			{
				"x": -0.6137956977,
				"y": 1.2635498674,
				"z": -0.7240105442,
				"element": "H" 
			},
			{
				"x": 1.1513918223,
				"y": 0.4536799348,
				"z": -2.2694478041,
				"element": "H" 
			},
			{
				"x": 2.7834801777,
				"y": 2.1337156851,
				"z": -2.8112737248,
				"element": "H" 
			},
			{
				"x": 2.6620563695,
				"y": 2.876279907,
				"z": -1.2208573907,
				"element": "H" 
			},
			{
				"x": 4.7680571029,
				"y": 1.6649983019,
				"z": -1.0095695643,
				"element": "H" 
			},
			{
				"x": 4.1373489199,
				"y": 0.2822245929,
				"z": -1.9173835694,
				"element": "H" 
			},
			{
				"x": 3.3621683566,
				"y": 1.1298335188,
				"z": 0.9222524874,
				"element": "H" 
			},
			{
				"x": 3.7346887776,
				"y": -0.504822336,
				"z": 0.3543311429,
				"element": "H" 
			},
			{
				"x": -0.145342776,
				"y": -2.9626179089,
				"z": 0.2159291769,
				"element": "H" 
			},
			{
				"x": -1.3373304688,
				"y": -2.4399747152,
				"z": -1.0074378909,
				"element": "H" 
			},
			{
				"x": -3.3718014123,
				"y": -1.2881528355,
				"z": -0.3609806342,
				"element": "H" 
			},
			{
				"x": -4.9401028379,
				"y": -0.5988539784,
				"z": 1.4299599983,
				"element": "H" 
			},
			{
				"x": -4.2214400844,
				"y": -0.6754093821,
				"z": 3.8083503861,
				"element": "H" 
			},
			{
				"x": -1.9286190813,
				"y": -1.442507597,
				"z": 4.3838620781,
				"element": "H" 
			},
			{
				"x": -0.3553519358,
				"y": -2.1201491517,
				"z": 2.5809488511,
				"element": "H" 
			}
		],
		 "valence_orbital": [ 
			{
				"type": "occ",
				"energy": -0.30391,
				"method": "rhf"
			},
			{
				"type": "occ",
				"energy": -0.28309,
				"method": "rhf"
			},
			{
				"type": "occ",
				"energy": -0.26015,
				"method": "rhf"
			},
			{
				"type": "occ",
				"energy": -0.25618,
				"method": "rhf"
			},
			{
				"type": "occ",
				"energy": -0.25357,
				"method": "rhf"
			},
			{
				"type": "unocc",
				"energy": -0.08378,
				"method": "rhf"
			},
			{
				"type": "unocc",
				"energy": -0.01658,
				"method": "rhf"
			},
			{
				"type": "unocc",
				"energy": -0.0074,
				"method": "rhf"
			},
			{
				"type": "unocc",
				"energy": 0.0325,
				"method": "rhf"
			},
			{
				"type": "unocc",
				"energy": 0.03554,
				"method": "rhf"
			}
		],
		"cosmo_sigma_profile": { 
			"-0.025": 0.0,
			"-0.024": 0.0,
			"-0.023": 0.0,
			"-0.022": 0.0,
			"-0.021": 0.0,
			"-0.02": 0.0,
			"-0.019": 0.0,
			"-0.018": 0.0,
			"-0.017": 0.0,
			"-0.016": 0.0,
			"-0.015": 0.0,
			"-0.014": 0.0,
			"-0.013": 0.0,
			"-0.012": 0.0,
			"-0.011": 0.0466619090079,
			"-0.01": 1.69127736643,
			"-0.009": 3.03455662987,
			"-0.008": 2.86582214345,
			"-0.007": 3.71301190029,
			"-0.006": 16.3758224873,
			"-0.005": 27.0209089519,
			"-0.004": 35.8820100065,
			"-0.003": 33.7107124321,
			"-0.002": 27.1331155052,
			"-0.001": 25.9071484005,
			"0.0": 18.9304950673,
			"0.001": 18.91933764,
			"0.002": 20.0647482391,
			"0.003": 23.7615502308,
			"0.004": 21.0862482467,
			"0.005": 15.1545593974,
			"0.006": 8.43800311233,
			"0.007": 5.37257162203,
			"0.008": 11.536071628,
			"0.009": 8.73487629698,
			"0.01": 1.8502587744,
			"0.011": 1.09304343081,
			"0.012": 2.78575904343,
			"0.013": 2.75719699177,
			"0.014": 0.0235974886727,
			"0.015": 0.0,
			"0.016": 0.0,
			"0.017": 0.0,
			"0.018": 0.0,
			"0.019": 0.0,
			"0.02": 0.0,
			"0.021": 0.0,
			"0.022": 0.0,
			"0.023": 0.0,
			"0.024": 0.0,
			"0.025": 0.0
		}
	}
}
