{
	 "smiles": "OC1=C(Cl)C=C(C=C1)C(=O)NCC1=CC=NC=C1", 
	 "Tm": 453.15, 
	 "num_atms": 29, 
	 "gaussian": { 
		 "optdone": 1, 
		 "sigma_profile": "yes", 
		 "theory": "DFT", 
		 "functional": "B3LYP", 
		 "basiset": "6-31G**", 
		 "properties": { 
			 "R2extent": 5935.5571, 
			 "electric_dipole_moment_norm": 3.80852494937, 
			 "electric_quadrupole_moment_norm": 17.1086029149, 
			 "total_energy": -1222.15636083, 
			 "HOMO_LUMO_gap": 0.19788, 
			 "cosmo_polarized_energy": -21.58, 
			 "cosmo_cavitation_energy": 35.67, 
			 "cosmo_dispersion_energy": -25.05, 
			 "cosmo_repulsion_energy": 1.95, 
			 "cosmo_total_nonelectrostatic_energy": 12.56, 
			 "SMD_solvation_energy": 5.38 
		},
		"coords": [
			{
				"x": -3.0771844478,
				"y": 1.7812470651,
				"z": -2.3245276655,
				"element": "O" 
			},
			{
				"x": -2.0876942651,
				"y": 1.7382889144,
				"z": -1.4000179692,
				"element": "C" 
			},
			{
				"x": -1.1222286361,
				"y": 0.7223305779,
				"z": -1.4996573906,
				"element": "C" 
			},
			{
				"x": -1.2156751722,
				"y": -0.4268551813,
				"z": -2.8152538254,
				"element": "Cl" 
			},
			{
				"x": -0.0913825216,
				"y": 0.6288866784,
				"z": -0.5697949185,
				"element": "C" 
			},
			{
				"x": 0.0033260063,
				"y": 1.5510968737,
				"z": 0.4825518459,
				"element": "C" 
			},
			{
				"x": -0.9430388546,
				"y": 2.5813192366,
				"z": 0.5648036403,
				"element": "C" 
			},
			{
				"x": -1.9802525353,
				"y": 2.6656718205,
				"z": -0.3544127609,
				"element": "C" 
			},
			{
				"x": 1.1259548506,
				"y": 1.5719235919,
				"z": 1.4766937263,
				"element": "C" 
			},
			{
				"x": 1.5378016378,
				"y": 2.6328380357,
				"z": 1.9348560423,
				"element": "O" 
			},
			{
				"x": 1.7213640628,
				"y": 0.3802364761,
				"z": 1.8467308102,
				"element": "N" 
			},
			{
				"x": 1.1199571472,
				"y": -0.9444020406,
				"z": 1.9013478051,
				"element": "C" 
			},
			{
				"x": 1.887342987,
				"y": -2.0210140285,
				"z": 1.1503436256,
				"element": "C" 
			},
			{
				"x": 2.9321757665,
				"y": -1.7296447375,
				"z": 0.271802739,
				"element": "C" 
			},
			{
				"x": 3.5732296164,
				"y": -2.780869072,
				"z": -0.389409597,
				"element": "C" 
			},
			{
				"x": 3.2503517799,
				"y": -4.0691588936,
				"z": -0.2355220672,
				"element": "N" 
			},
			{
				"x": 2.2468833978,
				"y": -4.3404477946,
				"z": 0.6110374218,
				"element": "C" 
			},
			{
				"x": 1.5451218585,
				"y": -3.3679979835,
				"z": 1.3197095124,
				"element": "C" 
			},
			{
				"x": -3.6517361516,
				"y": 2.5363104246,
				"z": -2.1411451932,
				"element": "H" 
			},
			{
				"x": 0.6492766242,
				"y": -0.1523790383,
				"z": -0.6985219312,
				"element": "H" 
			},
			{
				"x": -0.8436507933,
				"y": 3.3163249406,
				"z": 1.3556661549,
				"element": "H" 
			},
			{
				"x": -2.7171622176,
				"y": 3.4620503291,
				"z": -0.2750863394,
				"element": "H" 
			},
			{
				"x": 2.474389482,
				"y": 0.551824857,
				"z": 2.5027805247,
				"element": "H" 
			},
			{
				"x": 0.1024885929,
				"y": -0.8814001666,
				"z": 1.505836467,
				"element": "H" 
			},
			{
				"x": 1.0152999126,
				"y": -1.2546219885,
				"z": 2.9501690463,
				"element": "H" 
			},
			{
				"x": 3.2450205868,
				"y": -0.7031836792,
				"z": 0.1112999334,
				"element": "H" 
			},
			{
				"x": 4.3905237521,
				"y": -2.5703985404,
				"z": -1.0773894191,
				"element": "H" 
			},
			{
				"x": 1.99263354,
				"y": -5.3922524177,
				"z": 0.7308769541,
				"element": "H" 
			},
			{
				"x": 0.7440639939,
				"y": -3.6595242593,
				"z": 1.9945328281,
				"element": "H" 
			}
		],
		 "valence_orbital": [ 
			{
				"type": "occ",
				"energy": -0.26652,
				"method": "rhf"
			},
			{
				"type": "occ",
				"energy": -0.26388,
				"method": "rhf"
			},
			{
				"type": "occ",
				"energy": -0.25806,
				"method": "rhf"
			},
			{
				"type": "occ",
				"energy": -0.25523,
				"method": "rhf"
			},
			{
				"type": "occ",
				"energy": -0.23664,
				"method": "rhf"
			},
			{
				"type": "unocc",
				"energy": -0.03876,
				"method": "rhf"
			},
			{
				"type": "unocc",
				"energy": -0.02916,
				"method": "rhf"
			},
			{
				"type": "unocc",
				"energy": -0.02398,
				"method": "rhf"
			},
			{
				"type": "unocc",
				"energy": -0.01685,
				"method": "rhf"
			},
			{
				"type": "unocc",
				"energy": 0.02627,
				"method": "rhf"
			}
		],
		"cosmo_sigma_profile": { 
			"-0.025": 0.0,
			"-0.024": 0.0,
			"-0.023": 0.0,
			"-0.022": 0.0,
			"-0.021": 0.0,
			"-0.02": 0.0,
			"-0.019": 0.502200943427,
			"-0.018": 1.29922188513,
			"-0.017": 1.22983286614,
			"-0.016": 0.984857836235,
			"-0.015": 1.49866022014,
			"-0.014": 1.35517271794,
			"-0.013": 2.0230525048,
			"-0.012": 1.59629350739,
			"-0.011": 2.02423798909,
			"-0.01": 2.72964514261,
			"-0.009": 2.19368139603,
			"-0.008": 2.58899569203,
			"-0.007": 9.156960053,
			"-0.006": 18.6453191316,
			"-0.005": 19.1472849286,
			"-0.004": 18.8865516363,
			"-0.003": 15.6206015799,
			"-0.002": 14.6327811358,
			"-0.001": 16.0996698933,
			"0.0": 15.875376842,
			"0.001": 24.3736374337,
			"0.002": 26.3517605735,
			"0.003": 22.9677258559,
			"0.004": 13.4440063011,
			"0.005": 10.1798106597,
			"0.006": 5.71318252831,
			"0.007": 3.58179351171,
			"0.008": 5.24785071399,
			"0.009": 4.30006048981,
			"0.01": 4.75111833019,
			"0.011": 3.50553854304,
			"0.012": 2.96870802337,
			"0.013": 5.62927141683,
			"0.014": 4.10935983555,
			"0.015": 1.04218959891,
			"0.016": 0.919378871867,
			"0.017": 0.518846505781,
			"0.018": 0.0507838763158,
			"0.019": 0.0,
			"0.02": 0.0,
			"0.021": 0.0,
			"0.022": 0.0,
			"0.023": 0.0,
			"0.024": 0.0,
			"0.025": 0.0
		}
	}
}
