{
	 "smiles": "COC1=C(OC)C=C2C(=O)NC(=O)NC2=C1", 
	 "Tm": 597.15, 
	 "num_atms": 26, 
	 "gaussian": { 
		 "optdone": 1, 
		 "sigma_profile": "yes", 
		 "theory": "DFT", 
		 "functional": "B3LYP", 
		 "basiset": "6-31G**", 
		 "properties": { 
			 "R2extent": 4216.183, 
			 "electric_dipole_moment_norm": 4.59152294343, 
			 "electric_quadrupole_moment_norm": 10.8793045394, 
			 "total_energy": -797.515279842, 
			 "HOMO_LUMO_gap": 0.16913, 
			 "cosmo_polarized_energy": -17.98, 
			 "cosmo_cavitation_energy": 30.55, 
			 "cosmo_dispersion_energy": -22.52, 
			 "cosmo_repulsion_energy": 1.74, 
			 "cosmo_total_nonelectrostatic_energy": 9.78, 
			 "SMD_solvation_energy": 8.25 
		},
		"coords": [
			{
				"x": 3.1916714714,
				"y": -1.4248569727,
				"z": 2.1846552101,
				"element": "C" 
			},
			{
				"x": 2.892043574,
				"y": -1.2457069562,
				"z": 0.7936276245,
				"element": "O" 
			},
			{
				"x": 1.6021174637,
				"y": -0.9594587229,
				"z": 0.455839056,
				"element": "C" 
			},
			{
				"x": 0.9315699961,
				"y": 0.2088015428,
				"z": 0.9173496268,
				"element": "C" 
			},
			{
				"x": 1.6428082476,
				"y": 1.0243611561,
				"z": 1.7496168776,
				"element": "O" 
			},
			{
				"x": 1.0207502987,
				"y": 2.2243798667,
				"z": 2.1904432215,
				"element": "C" 
			},
			{
				"x": -0.3638321778,
				"y": 0.453379317,
				"z": 0.4846775438,
				"element": "C" 
			},
			{
				"x": -1.001130932,
				"y": -0.4203267216,
				"z": -0.410325215,
				"element": "C" 
			},
			{
				"x": -2.3718498115,
				"y": -0.1350972197,
				"z": -0.8617993288,
				"element": "C" 
			},
			{
				"x": -3.043287345,
				"y": 0.8255492023,
				"z": -0.5144986784,
				"element": "O" 
			},
			{
				"x": -2.8820326673,
				"y": -1.0813278898,
				"z": -1.7571871774,
				"element": "N" 
			},
			{
				"x": -2.2589687906,
				"y": -2.2232867577,
				"z": -2.2549572366,
				"element": "C" 
			},
			{
				"x": -2.7960180809,
				"y": -2.9866652808,
				"z": -3.0385555581,
				"element": "O" 
			},
			{
				"x": -0.9759553914,
				"y": -2.4070797515,
				"z": -1.7751102662,
				"element": "N" 
			},
			{
				"x": -0.3297993655,
				"y": -1.556972736,
				"z": -0.8817161298,
				"element": "C" 
			},
			{
				"x": 0.9709524119,
				"y": -1.8214338423,
				"z": -0.4339042185,
				"element": "C" 
			},
			{
				"x": 4.2398280112,
				"y": -1.7260354663,
				"z": 2.2231460543,
				"element": "H" 
			},
			{
				"x": 3.0483779455,
				"y": -0.5021330686,
				"z": 2.7499446914,
				"element": "H" 
			},
			{
				"x": 2.5710388828,
				"y": -2.2218392682,
				"z": 2.6125601025,
				"element": "H" 
			},
			{
				"x": 0.7568278198,
				"y": 2.8714736144,
				"z": 1.3450558816,
				"element": "H" 
			},
			{
				"x": 0.1189677382,
				"y": 2.0183043987,
				"z": 2.7804208131,
				"element": "H" 
			},
			{
				"x": 1.7560577331,
				"y": 2.7298824759,
				"z": 2.8176270153,
				"element": "H" 
			},
			{
				"x": -0.9236108704,
				"y": 1.3241186269,
				"z": 0.8025704351,
				"element": "H" 
			},
			{
				"x": -3.8238062028,
				"y": -0.9220052984,
				"z": -2.0932385708,
				"element": "H" 
			},
			{
				"x": -0.5073646013,
				"y": -3.2285987179,
				"z": -2.1293585258,
				"element": "H" 
			},
			{
				"x": 1.5183446425,
				"y": -2.6958255302,
				"z": -0.7708832483,
				"element": "H" 
			}
		],
		 "valence_orbital": [ 
			{
				"type": "occ",
				"energy": -0.28838,
				"method": "rhf"
			},
			{
				"type": "occ",
				"energy": -0.28134,
				"method": "rhf"
			},
			{
				"type": "occ",
				"energy": -0.26254,
				"method": "rhf"
			},
			{
				"type": "occ",
				"energy": -0.25497,
				"method": "rhf"
			},
			{
				"type": "occ",
				"energy": -0.21677,
				"method": "rhf"
			},
			{
				"type": "unocc",
				"energy": -0.04764,
				"method": "rhf"
			},
			{
				"type": "unocc",
				"energy": -0.00895,
				"method": "rhf"
			},
			{
				"type": "unocc",
				"energy": 0.02452,
				"method": "rhf"
			},
			{
				"type": "unocc",
				"energy": 0.06828,
				"method": "rhf"
			},
			{
				"type": "unocc",
				"energy": 0.08058,
				"method": "rhf"
			}
		],
		"cosmo_sigma_profile": { 
			"-0.025": 0.0,
			"-0.024": 0.0,
			"-0.023": 0.0,
			"-0.022": 0.0,
			"-0.021": 0.0,
			"-0.02": 0.0,
			"-0.019": 0.0,
			"-0.018": 0.0,
			"-0.017": 0.0639598669333,
			"-0.016": 1.41900656709,
			"-0.015": 2.46282430425,
			"-0.014": 1.83422865211,
			"-0.013": 2.07358820912,
			"-0.012": 2.08606881692,
			"-0.011": 0.986688490575,
			"-0.01": 2.49082676869,
			"-0.009": 2.05282449544,
			"-0.008": 2.60453208676,
			"-0.007": 3.49568366223,
			"-0.006": 11.7631499944,
			"-0.005": 18.4377727383,
			"-0.004": 20.079501408,
			"-0.003": 23.3017707057,
			"-0.002": 16.6512859579,
			"-0.001": 15.8306445315,
			"0.0": 14.0663488974,
			"0.001": 17.6309944156,
			"0.002": 18.5250782433,
			"0.003": 8.82683778709,
			"0.004": 5.36062440451,
			"0.005": 4.44394341796,
			"0.006": 5.66640110061,
			"0.007": 4.58883728827,
			"0.008": 4.22222259701,
			"0.009": 4.59419953156,
			"0.01": 4.25800112656,
			"0.011": 4.70840382404,
			"0.012": 9.19170486132,
			"0.013": 9.11226952985,
			"0.014": 0.621514108959,
			"0.015": 0.0,
			"0.016": 0.0,
			"0.017": 0.0,
			"0.018": 0.0,
			"0.019": 0.0,
			"0.02": 0.0,
			"0.021": 0.0,
			"0.022": 0.0,
			"0.023": 0.0,
			"0.024": 0.0,
			"0.025": 0.0
		}
	}
}
