{
	 "smiles": "NCC(O)C1=CC=C(Cl)S1", 
	 "Tm": 348.15, 
	 "num_atms": 18, 
	 "gaussian": { 
		 "optdone": 1, 
		 "sigma_profile": "yes", 
		 "theory": "DFT", 
		 "functional": "B3LYP", 
		 "basiset": "6-31G**", 
		 "properties": { 
			 "R2extent": 2509.9112, 
			 "electric_dipole_moment_norm": 1.99964308315, 
			 "electric_quadrupole_moment_norm": 12.4842663265, 
			 "total_energy": -1221.78180263, 
			 "HOMO_LUMO_gap": 0.19892, 
			 "cosmo_polarized_energy": -9.89, 
			 "cosmo_cavitation_energy": 24.89, 
			 "cosmo_dispersion_energy": -18.65, 
			 "cosmo_repulsion_energy": 1.49, 
			 "cosmo_total_nonelectrostatic_energy": 7.74, 
			 "SMD_solvation_energy": 2.14 
		},
		"coords": [
			{
				"x": 0.5054715573,
				"y": -2.0061965566,
				"z": -3.1168740412,
				"element": "N" 
			},
			{
				"x": -0.6487654707,
				"y": -1.1830929501,
				"z": -2.7963021231,
				"element": "C" 
			},
			{
				"x": -1.2570372041,
				"y": -1.3809063406,
				"z": -1.3837105475,
				"element": "C" 
			},
			{
				"x": -1.6141062166,
				"y": -2.7575176532,
				"z": -1.3062314979,
				"element": "O" 
			},
			{
				"x": -0.3033465035,
				"y": -1.0163283196,
				"z": -0.2714402568,
				"element": "C" 
			},
			{
				"x": 0.5894757952,
				"y": -1.8346646119,
				"z": 0.3713724144,
				"element": "C" 
			},
			{
				"x": 1.3857290686,
				"y": -1.1661671965,
				"z": 1.3523759145,
				"element": "C" 
			},
			{
				"x": 1.0831030064,
				"y": 0.1624617992,
				"z": 1.4345329716,
				"element": "C" 
			},
			{
				"x": 1.8005270602,
				"y": 1.3343220478,
				"z": 2.4888169744,
				"element": "Cl" 
			},
			{
				"x": -0.1823353151,
				"y": 0.6253063068,
				"z": 0.3251932192,
				"element": "S" 
			},
			{
				"x": 1.266803446,
				"y": -1.8037862008,
				"z": -2.4725311728,
				"element": "H" 
			},
			{
				"x": 0.2598475569,
				"y": -2.9833081721,
				"z": -2.9766162403,
				"element": "H" 
			},
			{
				"x": -0.3854256806,
				"y": -0.1260835491,
				"z": -2.9161016673,
				"element": "H" 
			},
			{
				"x": -1.4433115386,
				"y": -1.4044466606,
				"z": -3.5183119593,
				"element": "H" 
			},
			{
				"x": -2.1529030947,
				"y": -0.741036611,
				"z": -1.3161268857,
				"element": "H" 
			},
			{
				"x": -1.9581628272,
				"y": -2.9267901743,
				"z": -0.4192119658,
				"element": "H" 
			},
			{
				"x": 0.6662138577,
				"y": -2.8928003168,
				"z": 0.1510906713,
				"element": "H" 
			},
			{
				"x": 2.1396225028,
				"y": -1.6444648404,
				"z": 1.9653761924,
				"element": "H" 
			}
		],
		 "valence_orbital": [ 
			{
				"type": "occ",
				"energy": -0.32341,
				"method": "rhf"
			},
			{
				"type": "occ",
				"energy": -0.29214,
				"method": "rhf"
			},
			{
				"type": "occ",
				"energy": -0.26797,
				"method": "rhf"
			},
			{
				"type": "occ",
				"energy": -0.24051,
				"method": "rhf"
			},
			{
				"type": "occ",
				"energy": -0.22855,
				"method": "rhf"
			},
			{
				"type": "unocc",
				"energy": -0.02963,
				"method": "rhf"
			},
			{
				"type": "unocc",
				"energy": 0.00386,
				"method": "rhf"
			},
			{
				"type": "unocc",
				"energy": 0.02286,
				"method": "rhf"
			},
			{
				"type": "unocc",
				"energy": 0.04865,
				"method": "rhf"
			},
			{
				"type": "unocc",
				"energy": 0.06668,
				"method": "rhf"
			}
		],
		"cosmo_sigma_profile": { 
			"-0.025": 0.0,
			"-0.024": 0.0,
			"-0.023": 0.0,
			"-0.022": 0.0,
			"-0.021": 0.0,
			"-0.02": 0.0,
			"-0.019": 0.0,
			"-0.018": 0.0,
			"-0.017": 0.0,
			"-0.016": 0.286617846039,
			"-0.015": 1.15338083776,
			"-0.014": 0.734342038214,
			"-0.013": 0.47536317384,
			"-0.012": 0.818248199603,
			"-0.011": 0.735292676258,
			"-0.01": 1.14039053512,
			"-0.009": 0.663382721867,
			"-0.008": 2.90075417597,
			"-0.007": 5.77780839108,
			"-0.006": 8.5531349667,
			"-0.005": 13.2293589181,
			"-0.004": 13.5924836337,
			"-0.003": 14.3351578579,
			"-0.002": 15.4643010386,
			"-0.001": 13.2753920673,
			"0.0": 14.0313120008,
			"0.001": 16.0779032973,
			"0.002": 18.6205522262,
			"0.003": 23.2886484568,
			"0.004": 15.1157914706,
			"0.005": 3.10364764537,
			"0.006": 1.86988780864,
			"0.007": 1.58458107765,
			"0.008": 1.35148133261,
			"0.009": 1.63857590719,
			"0.01": 2.47809572108,
			"0.011": 1.52266141358,
			"0.012": 1.65634809211,
			"0.013": 1.54923880939,
			"0.014": 0.818575118794,
			"0.015": 0.131692608277,
			"0.016": 0.751791417708,
			"0.017": 0.799537570344,
			"0.018": 0.601048937006,
			"0.019": 0.622972982219,
			"0.02": 0.194237815286,
			"0.021": 0.0,
			"0.022": 0.0,
			"0.023": 0.0,
			"0.024": 0.0,
			"0.025": 0.0
		}
	}
}
