{
	 "smiles": "CNC(=O)C(=NOC)C1=C(COC2=CC(C)=CC=C2C)C=CC=C1", 
	 "Tm": 412.15, 
	 "num_atms": 46, 
	 "gaussian": { 
		 "optdone": 1, 
		 "sigma_profile": "yes", 
		 "theory": "DFT", 
		 "functional": "B3LYP", 
		 "basiset": "6-31G**", 
		 "properties": { 
			 "R2extent": 9941.5643, 
			 "electric_dipole_moment_norm": 2.99233293769, 
			 "electric_quadrupole_moment_norm": 19.806839397, 
			 "total_energy": -1072.40020774, 
			 "HOMO_LUMO_gap": 0.16413, 
			 "cosmo_polarized_energy": -16.92, 
			 "cosmo_cavitation_energy": 49.84, 
			 "cosmo_dispersion_energy": -31.81, 
			 "cosmo_repulsion_energy": 2.48, 
			 "cosmo_total_nonelectrostatic_energy": 20.51, 
			 "SMD_solvation_energy": 9.51 
		},
		"coords": [
			{
				"x": -1.2122474026,
				"y": -3.9622873936,
				"z": 2.4877251475,
				"element": "C" 
			},
			{
				"x": -2.4664609403,
				"y": -4.2409713168,
				"z": 1.8036312187,
				"element": "N" 
			},
			{
				"x": -3.0158506057,
				"y": -3.6932503661,
				"z": 0.6812290083,
				"element": "C" 
			},
			{
				"x": -4.1231457198,
				"y": -4.0481953999,
				"z": 0.2835410925,
				"element": "O" 
			},
			{
				"x": -2.2417104092,
				"y": -2.6365876895,
				"z": -0.0834742943,
				"element": "C" 
			},
			{
				"x": -0.9703179797,
				"y": -2.838652812,
				"z": -0.154116048,
				"element": "N" 
			},
			{
				"x": -0.3218502812,
				"y": -1.9266299163,
				"z": -0.9683786169,
				"element": "O" 
			},
			{
				"x": 1.0752220809,
				"y": -2.2196308554,
				"z": -0.9929993703,
				"element": "C" 
			},
			{
				"x": -3.0003044186,
				"y": -1.5604770774,
				"z": -0.7890755116,
				"element": "C" 
			},
			{
				"x": -2.7654624804,
				"y": -0.193417778,
				"z": -0.5381012623,
				"element": "C" 
			},
			{
				"x": -1.7895407698,
				"y": 0.2923600308,
				"z": 0.5083433871,
				"element": "C" 
			},
			{
				"x": -0.8570533512,
				"y": 1.172595341,
				"z": -0.1203835718,
				"element": "O" 
			},
			{
				"x": 0.1246965701,
				"y": 1.7414031952,
				"z": 0.6446739152,
				"element": "C" 
			},
			{
				"x": 0.2744467589,
				"y": 1.5286484855,
				"z": 2.0164135373,
				"element": "C" 
			},
			{
				"x": 1.3123660092,
				"y": 2.15137272,
				"z": 2.7308882543,
				"element": "C" 
			},
			{
				"x": 1.4534952363,
				"y": 1.9140979974,
				"z": 4.2168364674,
				"element": "C" 
			},
			{
				"x": 2.1916421336,
				"y": 2.9840198965,
				"z": 2.0406260892,
				"element": "C" 
			},
			{
				"x": 2.0354163782,
				"y": 3.1918228173,
				"z": 0.665251841,
				"element": "C" 
			},
			{
				"x": 1.0127776323,
				"y": 2.5858253321,
				"z": -0.0592463872,
				"element": "C" 
			},
			{
				"x": 0.833475016,
				"y": 2.8044161119,
				"z": -1.5395011854,
				"element": "C" 
			},
			{
				"x": -3.4972823066,
				"y": 0.7643486293,
				"z": -1.2499167022,
				"element": "C" 
			},
			{
				"x": -4.4423009025,
				"y": 0.3898857117,
				"z": -2.2013964756,
				"element": "C" 
			},
			{
				"x": -4.6817819561,
				"y": -0.96392173,
				"z": -2.4408789137,
				"element": "C" 
			},
			{
				"x": -3.9712511051,
				"y": -1.9308721986,
				"z": -1.734818276,
				"element": "C" 
			},
			{
				"x": -1.3053424499,
				"y": -4.3099891117,
				"z": 3.5200110161,
				"element": "H" 
			},
			{
				"x": -1.0066843049,
				"y": -2.8904887657,
				"z": 2.5055205698,
				"element": "H" 
			},
			{
				"x": -0.3587587925,
				"y": -4.4611974446,
				"z": 2.0183282722,
				"element": "H" 
			},
			{
				"x": -3.0524922588,
				"y": -4.9744053557,
				"z": 2.1799297305,
				"element": "H" 
			},
			{
				"x": 1.5187450685,
				"y": -2.1137197049,
				"z": 0.0027306899,
				"element": "H" 
			},
			{
				"x": 1.5108536129,
				"y": -1.4833067036,
				"z": -1.670313664,
				"element": "H" 
			},
			{
				"x": 1.2570846078,
				"y": -3.230964352,
				"z": -1.3712274331,
				"element": "H" 
			},
			{
				"x": -1.2607300638,
				"y": -0.5399298008,
				"z": 0.9806843074,
				"element": "H" 
			},
			{
				"x": -2.3294749419,
				"y": 0.8401850713,
				"z": 1.2953893924,
				"element": "H" 
			},
			{
				"x": -0.4124105925,
				"y": 0.8807703802,
				"z": 2.5500997626,
				"element": "H" 
			},
			{
				"x": 1.5707478352,
				"y": 0.8479460846,
				"z": 4.4445474492,
				"element": "H" 
			},
			{
				"x": 2.3231914533,
				"y": 2.4385747312,
				"z": 4.6219759531,
				"element": "H" 
			},
			{
				"x": 0.5696656324,
				"y": 2.2630785407,
				"z": 4.7641971019,
				"element": "H" 
			},
			{
				"x": 3.0020702902,
				"y": 3.4748040579,
				"z": 2.5726231086,
				"element": "H" 
			},
			{
				"x": 2.7296549072,
				"y": 3.8443933997,
				"z": 0.1410349321,
				"element": "H" 
			},
			{
				"x": -0.136275847,
				"y": 3.2643766382,
				"z": -1.7611914239,
				"element": "H" 
			},
			{
				"x": 0.8555474594,
				"y": 1.8570796912,
				"z": -2.0892020341,
				"element": "H" 
			},
			{
				"x": 1.6193456786,
				"y": 3.4537816616,
				"z": -1.9347466297,
				"element": "H" 
			},
			{
				"x": -3.3076372623,
				"y": 1.8157302485,
				"z": -1.0545811554,
				"element": "H" 
			},
			{
				"x": -4.993934819,
				"y": 1.150171626,
				"z": -2.7469766227,
				"element": "H" 
			},
			{
				"x": -5.4233370138,
				"y": -1.2692841276,
				"z": -3.1732156934,
				"element": "H" 
			},
			{
				"x": -4.1646053858,
				"y": -2.9830084997,
				"z": -1.8989909728,
				"element": "H" 
			}
		],
		 "valence_orbital": [ 
			{
				"type": "occ",
				"energy": -0.2502,
				"method": "rhf"
			},
			{
				"type": "occ",
				"energy": -0.24203,
				"method": "rhf"
			},
			{
				"type": "occ",
				"energy": -0.23952,
				"method": "rhf"
			},
			{
				"type": "occ",
				"energy": -0.23324,
				"method": "rhf"
			},
			{
				"type": "occ",
				"energy": -0.20843,
				"method": "rhf"
			},
			{
				"type": "unocc",
				"energy": -0.0443,
				"method": "rhf"
			},
			{
				"type": "unocc",
				"energy": -0.00496,
				"method": "rhf"
			},
			{
				"type": "unocc",
				"energy": 0.00492,
				"method": "rhf"
			},
			{
				"type": "unocc",
				"energy": 0.00685,
				"method": "rhf"
			},
			{
				"type": "unocc",
				"energy": 0.02054,
				"method": "rhf"
			}
		],
		"cosmo_sigma_profile": { 
			"-0.025": 0.0,
			"-0.024": 0.0,
			"-0.023": 0.0,
			"-0.022": 0.0,
			"-0.021": 0.0,
			"-0.02": 0.0,
			"-0.019": 0.0,
			"-0.018": 0.0,
			"-0.017": 0.0,
			"-0.016": 0.0,
			"-0.015": 0.0,
			"-0.014": 0.482208814828,
			"-0.013": 1.53181236606,
			"-0.012": 0.948763938151,
			"-0.011": 0.741505492391,
			"-0.01": 1.14055620384,
			"-0.009": 0.821359602583,
			"-0.008": 1.65233258449,
			"-0.007": 1.59721556549,
			"-0.006": 14.4690614206,
			"-0.005": 29.5168915085,
			"-0.004": 40.8958210721,
			"-0.003": 41.4492053756,
			"-0.002": 37.8257170278,
			"-0.001": 30.066995668,
			"0.0": 30.8003872448,
			"0.001": 27.923292066,
			"0.002": 23.2102681282,
			"0.003": 21.0472858867,
			"0.004": 21.0548195937,
			"0.005": 20.7961980446,
			"0.006": 13.0235871621,
			"0.007": 10.5098310286,
			"0.008": 4.38007911078,
			"0.009": 4.20181194596,
			"0.01": 3.54026099347,
			"0.011": 2.05553493323,
			"0.012": 2.62582563331,
			"0.013": 3.85634868148,
			"0.014": 2.11207418467,
			"0.015": 0.0127922949608,
			"0.016": 0.0,
			"0.017": 0.0,
			"0.018": 0.0,
			"0.019": 0.0,
			"0.02": 0.0,
			"0.021": 0.0,
			"0.022": 0.0,
			"0.023": 0.0,
			"0.024": 0.0,
			"0.025": 0.0
		}
	}
}
