{
	 "smiles": "OC(=O)C1(CCCC1)C1=CC(F)=CC=C1", 
	 "Tm": 424.15, 
	 "num_atms": 28, 
	 "gaussian": { 
		 "optdone": 1, 
		 "sigma_profile": "yes", 
		 "theory": "DFT", 
		 "functional": "B3LYP", 
		 "basiset": "6-31G**", 
		 "properties": { 
			 "R2extent": 3309.1287, 
			 "electric_dipole_moment_norm": 0.570531900949, 
			 "electric_quadrupole_moment_norm": 12.1224205231, 
			 "total_energy": -715.414745025, 
			 "HOMO_LUMO_gap": 0.22222, 
			 "cosmo_polarized_energy": -9.09, 
			 "cosmo_cavitation_energy": 30.55, 
			 "cosmo_dispersion_energy": -21.62, 
			 "cosmo_repulsion_energy": 1.67, 
			 "cosmo_total_nonelectrostatic_energy": 10.6, 
			 "SMD_solvation_energy": 6.16 
		},
		"coords": [
			{
				"x": 0.0259269735,
				"y": 2.6503250336,
				"z": 0.0038097518,
				"element": "O" 
			},
			{
				"x": -1.0636239876,
				"y": 1.8897139938,
				"z": -0.2566324922,
				"element": "C" 
			},
			{
				"x": -2.1723363359,
				"y": 2.2048851156,
				"z": 0.1205094575,
				"element": "O" 
			},
			{
				"x": -0.711697785,
				"y": 0.6050553757,
				"z": -1.024752726,
				"element": "C" 
			},
			{
				"x": 0.1983477432,
				"y": 0.9269665772,
				"z": -2.2342438881,
				"element": "C" 
			},
			{
				"x": -0.7522926651,
				"y": 1.5807974581,
				"z": -3.2545793862,
				"element": "C" 
			},
			{
				"x": -2.1363073646,
				"y": 0.9083511167,
				"z": -3.0192899982,
				"element": "C" 
			},
			{
				"x": -1.9876171429,
				"y": 0.0675692058,
				"z": -1.7256560708,
				"element": "C" 
			},
			{
				"x": -0.1342592323,
				"y": -0.3713893281,
				"z": 0.0048882003,
				"element": "C" 
			},
			{
				"x": 1.1984985711,
				"y": -0.7953121026,
				"z": -0.0460981259,
				"element": "C" 
			},
			{
				"x": 1.6666193218,
				"y": -1.6918932634,
				"z": 0.9084174518,
				"element": "C" 
			},
			{
				"x": 2.9549337042,
				"y": -2.0922824411,
				"z": 0.8374462612,
				"element": "F" 
			},
			{
				"x": 0.8634809061,
				"y": -2.1856238472,
				"z": 1.9275606651,
				"element": "C" 
			},
			{
				"x": -0.4617848003,
				"y": -1.7501542113,
				"z": 1.9831628604,
				"element": "C" 
			},
			{
				"x": -0.9564156007,
				"y": -0.8530373708,
				"z": 1.0373572499,
				"element": "C" 
			},
			{
				"x": -0.2933497701,
				"y": 3.4058483295,
				"z": 0.5254764906,
				"element": "H" 
			},
			{
				"x": 1.0532238615,
				"y": 1.55545074,
				"z": -1.9758257746,
				"element": "H" 
			},
			{
				"x": 0.5820906593,
				"y": -0.0192747829,
				"z": -2.6329271737,
				"element": "H" 
			},
			{
				"x": -0.8155615456,
				"y": 2.6585125946,
				"z": -3.0662150208,
				"element": "H" 
			},
			{
				"x": -0.3921877168,
				"y": 1.4628618979,
				"z": -4.2806450181,
				"element": "H" 
			},
			{
				"x": -2.918603421,
				"y": 1.6635706071,
				"z": -2.9030644323,
				"element": "H" 
			},
			{
				"x": -2.4283504237,
				"y": 0.2758891543,
				"z": -3.8628328771,
				"element": "H" 
			},
			{
				"x": -1.8216859073,
				"y": -0.9878993379,
				"z": -1.964175505,
				"element": "H" 
			},
			{
				"x": -2.864444896,
				"y": 0.1340716414,
				"z": -1.0798587661,
				"element": "H" 
			},
			{
				"x": 1.8845458818,
				"y": -0.4439417808,
				"z": -0.8070467246,
				"element": "H" 
			},
			{
				"x": 1.2735637072,
				"y": -2.8832475346,
				"z": 2.6494083184,
				"element": "H" 
			},
			{
				"x": -1.1125372697,
				"y": -2.1143370447,
				"z": 2.7726188376,
				"element": "H" 
			},
			{
				"x": -1.9854754653,
				"y": -0.5151757962,
				"z": 1.1037884352,
				"element": "H" 
			}
		],
		 "valence_orbital": [ 
			{
				"type": "occ",
				"energy": -0.32139,
				"method": "rhf"
			},
			{
				"type": "occ",
				"energy": -0.31829,
				"method": "rhf"
			},
			{
				"type": "occ",
				"energy": -0.2778,
				"method": "rhf"
			},
			{
				"type": "occ",
				"energy": -0.25464,
				"method": "rhf"
			},
			{
				"type": "occ",
				"energy": -0.24164,
				"method": "rhf"
			},
			{
				"type": "unocc",
				"energy": -0.01942,
				"method": "rhf"
			},
			{
				"type": "unocc",
				"energy": -0.00112,
				"method": "rhf"
			},
			{
				"type": "unocc",
				"energy": 0.01699,
				"method": "rhf"
			},
			{
				"type": "unocc",
				"energy": 0.06933,
				"method": "rhf"
			},
			{
				"type": "unocc",
				"energy": 0.09042,
				"method": "rhf"
			}
		],
		"cosmo_sigma_profile": { 
			"-0.025": 0.0,
			"-0.024": 0.0,
			"-0.023": 0.0,
			"-0.022": 0.0,
			"-0.021": 0.0,
			"-0.02": 0.0,
			"-0.019": 0.0186105553057,
			"-0.018": 0.671391831368,
			"-0.017": 1.13423396562,
			"-0.016": 0.545152389967,
			"-0.015": 0.854281340047,
			"-0.014": 0.84997924243,
			"-0.013": 0.56407840628,
			"-0.012": 0.822968429858,
			"-0.011": 0.690397447189,
			"-0.01": 0.899533164585,
			"-0.009": 0.303426471144,
			"-0.008": 0.333084722465,
			"-0.007": 3.78138672154,
			"-0.006": 6.84639199524,
			"-0.005": 8.25344581208,
			"-0.004": 13.4143187588,
			"-0.003": 22.4800491244,
			"-0.002": 23.6597891353,
			"-0.001": 24.064726928,
			"0.0": 24.5136852444,
			"0.001": 26.1865191716,
			"0.002": 15.2689266634,
			"0.003": 13.5073543492,
			"0.004": 21.2914978194,
			"0.005": 10.9007830755,
			"0.006": 3.1012571533,
			"0.007": 2.7834343528,
			"0.008": 2.0774126777,
			"0.009": 2.00761177534,
			"0.01": 1.84870151728,
			"0.011": 3.53067166936,
			"0.012": 3.21028056086,
			"0.013": 0.0441263941526,
			"0.014": 0.0,
			"0.015": 0.0,
			"0.016": 0.0,
			"0.017": 0.0,
			"0.018": 0.0,
			"0.019": 0.0,
			"0.02": 0.0,
			"0.021": 0.0,
			"0.022": 0.0,
			"0.023": 0.0,
			"0.024": 0.0,
			"0.025": 0.0
		}
	}
}
