{
	 "smiles": "CC1=NC(COC2=C(C=CC(O)=O)C=CC=C2)=CS1", 
	 "Tm": 417.15, 
	 "num_atms": 32, 
	 "gaussian": { 
		 "optdone": 1, 
		 "sigma_profile": "yes", 
		 "theory": "DFT", 
		 "functional": "B3LYP", 
		 "basiset": "6-31G**", 
		 "properties": { 
			 "R2extent": 6822.7896, 
			 "electric_dipole_moment_norm": 5.8167826339, 
			 "electric_quadrupole_moment_norm": 19.3391265775, 
			 "total_energy": -1219.91143456, 
			 "HOMO_LUMO_gap": 0.18672, 
			 "cosmo_polarized_energy": -15.5, 
			 "cosmo_cavitation_energy": 37.55, 
			 "cosmo_dispersion_energy": -26.73, 
			 "cosmo_repulsion_energy": 2.03, 
			 "cosmo_total_nonelectrostatic_energy": 12.84, 
			 "SMD_solvation_energy": 6.42 
		},
		"coords": [
			{
				"x": -0.1759566239,
				"y": -2.7588528865,
				"z": 3.8987465613,
				"element": "C" 
			},
			{
				"x": -0.5684271981,
				"y": -1.4995984232,
				"z": 3.1882477701,
				"element": "C" 
			},
			{
				"x": 0.1432692478,
				"y": -0.4078351772,
				"z": 3.1802933368,
				"element": "N" 
			},
			{
				"x": -0.4653223908,
				"y": 0.595866679,
				"z": 2.450810867,
				"element": "C" 
			},
			{
				"x": 0.2245504849,
				"y": 1.9345367087,
				"z": 2.361894691,
				"element": "C" 
			},
			{
				"x": 0.4471912391,
				"y": 2.4073635792,
				"z": 1.0168922876,
				"element": "O" 
			},
			{
				"x": 1.4412380418,
				"y": 1.8493176599,
				"z": 0.2357537821,
				"element": "C" 
			},
			{
				"x": 1.6788441437,
				"y": 2.4845028367,
				"z": -1.0024610843,
				"element": "C" 
			},
			{
				"x": 1.0029754998,
				"y": 3.7147264129,
				"z": -1.4872344032,
				"element": "C" 
			},
			{
				"x": -0.2843325125,
				"y": 4.0531390066,
				"z": -1.6928811396,
				"element": "C" 
			},
			{
				"x": -1.5500775296,
				"y": 3.2635779991,
				"z": -1.5837714416,
				"element": "C" 
			},
			{
				"x": -1.641924265,
				"y": 2.3196658002,
				"z": -0.6293801019,
				"element": "O" 
			},
			{
				"x": -2.4666022065,
				"y": 3.4740366707,
				"z": -2.3492782856,
				"element": "O" 
			},
			{
				"x": 2.7230642684,
				"y": 1.9791554577,
				"z": -1.7956702476,
				"element": "C" 
			},
			{
				"x": 3.4733845836,
				"y": 0.8709731376,
				"z": -1.4124969718,
				"element": "C" 
			},
			{
				"x": 3.2063542203,
				"y": 0.2567427165,
				"z": -0.1902766412,
				"element": "C" 
			},
			{
				"x": 2.1963424293,
				"y": 0.7447405556,
				"z": 0.6392607843,
				"element": "C" 
			},
			{
				"x": -1.6664754989,
				"y": 0.2668083245,
				"z": 1.8853558389,
				"element": "C" 
			},
			{
				"x": -2.0648528283,
				"y": -1.3720715511,
				"z": 2.2690624267,
				"element": "S" 
			},
			{
				"x": 0.8000276415,
				"y": -2.6054934618,
				"z": 4.3627376472,
				"element": "H" 
			},
			{
				"x": -0.8981177748,
				"y": -3.0207568394,
				"z": 4.6793582304,
				"element": "H" 
			},
			{
				"x": -0.1101484417,
				"y": -3.6066971743,
				"z": 3.2090730334,
				"element": "H" 
			},
			{
				"x": -0.387249226,
				"y": 2.7239051791,
				"z": 2.8056049894,
				"element": "H" 
			},
			{
				"x": 1.1744218759,
				"y": 1.8868282119,
				"z": 2.901599282,
				"element": "H" 
			},
			{
				"x": 1.7204744966,
				"y": 4.4651408234,
				"z": -1.8213347119,
				"element": "H" 
			},
			{
				"x": -0.4700703075,
				"y": 5.0155795568,
				"z": -2.1613175169,
				"element": "H" 
			},
			{
				"x": -0.8867768085,
				"y": 2.3941248539,
				"z": -0.005653763,
				"element": "H" 
			},
			{
				"x": 2.9359053925,
				"y": 2.4744214937,
				"z": -2.7391406994,
				"element": "H" 
			},
			{
				"x": 4.262217353,
				"y": 0.4979438229,
				"z": -2.057849589,
				"element": "H" 
			},
			{
				"x": 3.784259327,
				"y": -0.6050223634,
				"z": 0.1299291041,
				"element": "H" 
			},
			{
				"x": 1.9970999537,
				"y": 0.2554809981,
				"z": 1.5849992391,
				"element": "H" 
			},
			{
				"x": -2.3054865868,
				"y": 0.8679493921,
				"z": 1.2524267259,
				"element": "H" 
			}
		],
		 "valence_orbital": [ 
			{
				"type": "occ",
				"energy": -0.28741,
				"method": "rhf"
			},
			{
				"type": "occ",
				"energy": -0.25524,
				"method": "rhf"
			},
			{
				"type": "occ",
				"energy": -0.25234,
				"method": "rhf"
			},
			{
				"type": "occ",
				"energy": -0.24957,
				"method": "rhf"
			},
			{
				"type": "occ",
				"energy": -0.23601,
				"method": "rhf"
			},
			{
				"type": "unocc",
				"energy": -0.04929,
				"method": "rhf"
			},
			{
				"type": "unocc",
				"energy": -0.03887,
				"method": "rhf"
			},
			{
				"type": "unocc",
				"energy": -0.00761,
				"method": "rhf"
			},
			{
				"type": "unocc",
				"energy": 0.00227,
				"method": "rhf"
			},
			{
				"type": "unocc",
				"energy": 0.00874,
				"method": "rhf"
			}
		],
		"cosmo_sigma_profile": { 
			"-0.025": 0.0,
			"-0.024": 0.0,
			"-0.023": 0.0,
			"-0.022": 0.0,
			"-0.021": 0.0,
			"-0.02": 0.0,
			"-0.019": 0.0,
			"-0.018": 0.0,
			"-0.017": 0.0,
			"-0.016": 0.0,
			"-0.015": 0.0,
			"-0.014": 0.0,
			"-0.013": 0.0,
			"-0.012": 0.0,
			"-0.011": 0.000152537674733,
			"-0.01": 0.0838535868951,
			"-0.009": 0.508156226885,
			"-0.008": 2.32598640716,
			"-0.007": 11.5488039197,
			"-0.006": 22.221753428,
			"-0.005": 24.974004715,
			"-0.004": 24.5167568227,
			"-0.003": 20.6554157033,
			"-0.002": 22.4917644429,
			"-0.001": 21.3178317204,
			"0.0": 21.729468122,
			"0.001": 27.275417686,
			"0.002": 25.4081047044,
			"0.003": 20.2366794848,
			"0.004": 14.6710315447,
			"0.005": 8.59918790612,
			"0.006": 3.92032798324,
			"0.007": 3.302482762,
			"0.008": 3.6687711972,
			"0.009": 3.03520202745,
			"0.01": 3.64691923889,
			"0.011": 4.24637011964,
			"0.012": 6.14185113151,
			"0.013": 5.40044416927,
			"0.014": 1.35778577306,
			"0.015": 0.0,
			"0.016": 0.0,
			"0.017": 0.0,
			"0.018": 0.0,
			"0.019": 0.0,
			"0.02": 0.0,
			"0.021": 0.0,
			"0.022": 0.0,
			"0.023": 0.0,
			"0.024": 0.0,
			"0.025": 0.0
		}
	}
}
