{
	 "smiles": "CC(=O)C1=CC=C(F)C(F)=C1", 
	 "Tm": 292.65, 
	 "num_atms": 17, 
	 "gaussian": { 
		 "optdone": 1, 
		 "sigma_profile": "yes", 
		 "theory": "DFT", 
		 "functional": "B3LYP", 
		 "basiset": "6-31G**", 
		 "properties": { 
			 "R2extent": 2269.0034, 
			 "electric_dipole_moment_norm": 1.12422203323, 
			 "electric_quadrupole_moment_norm": 15.5649183785, 
			 "total_energy": -583.355332851, 
			 "HOMO_LUMO_gap": 0.19314, 
			 "cosmo_polarized_energy": -7.54, 
			 "cosmo_cavitation_energy": 22.62, 
			 "cosmo_dispersion_energy": -16.23, 
			 "cosmo_repulsion_energy": 1.25, 
			 "cosmo_total_nonelectrostatic_energy": 7.65, 
			 "SMD_solvation_energy": 5.68 
		},
		"coords": [
			{
				"x": -3.0145373489,
				"y": 0.196035606,
				"z": -1.8210222219,
				"element": "C" 
			},
			{
				"x": -1.7275886085,
				"y": 1.0000229732,
				"z": -1.8825674972,
				"element": "C" 
			},
			{
				"x": -1.4018305306,
				"y": 1.5808505287,
				"z": -2.9062842139,
				"element": "O" 
			},
			{
				"x": -0.8586179467,
				"y": 1.0708882771,
				"z": -0.6616208362,
				"element": "C" 
			},
			{
				"x": 0.3270536557,
				"y": 1.8175019982,
				"z": -0.7350236921,
				"element": "C" 
			},
			{
				"x": 1.1733877192,
				"y": 1.9197041353,
				"z": 0.3649979061,
				"element": "C" 
			},
			{
				"x": 0.8326720606,
				"y": 1.2713424433,
				"z": 1.546852906,
				"element": "C" 
			},
			{
				"x": 1.6278313686,
				"y": 1.3515109795,
				"z": 2.6228212846,
				"element": "F" 
			},
			{
				"x": -0.3443686328,
				"y": 0.5259350829,
				"z": 1.6311589307,
				"element": "C" 
			},
			{
				"x": -0.644095032,
				"y": -0.0881865705,
				"z": 2.7880742718,
				"element": "F" 
			},
			{
				"x": -1.1901583038,
				"y": 0.4212549093,
				"z": 0.5385526643,
				"element": "C" 
			},
			{
				"x": -3.6842712582,
				"y": 0.5836340838,
				"z": -1.0452632964,
				"element": "H" 
			},
			{
				"x": -3.5102900946,
				"y": 0.2578410926,
				"z": -2.7898982399,
				"element": "H" 
			},
			{
				"x": -2.8117039576,
				"y": -0.8542133895,
				"z": -1.5834949615,
				"element": "H" 
			},
			{
				"x": 0.5639372577,
				"y": 2.3109024327,
				"z": -1.6708293525,
				"element": "H" 
			},
			{
				"x": 2.0943154481,
				"y": 2.4917785196,
				"z": 0.3288936529,
				"element": "H" 
			},
			{
				"x": -2.0940357959,
				"y": -0.1672031022,
				"z": 0.6461526953,
				"element": "H" 
			}
		],
		 "valence_orbital": [ 
			{
				"type": "occ",
				"energy": -0.36808,
				"method": "rhf"
			},
			{
				"type": "occ",
				"energy": -0.35324,
				"method": "rhf"
			},
			{
				"type": "occ",
				"energy": -0.27597,
				"method": "rhf"
			},
			{
				"type": "occ",
				"energy": -0.25722,
				"method": "rhf"
			},
			{
				"type": "occ",
				"energy": -0.257,
				"method": "rhf"
			},
			{
				"type": "unocc",
				"energy": -0.06386,
				"method": "rhf"
			},
			{
				"type": "unocc",
				"energy": -0.02222,
				"method": "rhf"
			},
			{
				"type": "unocc",
				"energy": 0.03426,
				"method": "rhf"
			},
			{
				"type": "unocc",
				"energy": 0.06271,
				"method": "rhf"
			},
			{
				"type": "unocc",
				"energy": 0.10201,
				"method": "rhf"
			}
		],
		"cosmo_sigma_profile": { 
			"-0.025": 0.0,
			"-0.024": 0.0,
			"-0.023": 0.0,
			"-0.022": 0.0,
			"-0.021": 0.0,
			"-0.02": 0.0,
			"-0.019": 0.0,
			"-0.018": 0.0,
			"-0.017": 0.0,
			"-0.016": 0.0,
			"-0.015": 0.0,
			"-0.014": 0.0,
			"-0.013": 0.0,
			"-0.012": 0.0,
			"-0.011": 0.0,
			"-0.01": 0.0,
			"-0.009": 0.427389022115,
			"-0.008": 4.22479504015,
			"-0.007": 7.08665224411,
			"-0.006": 10.8531928158,
			"-0.005": 9.13601884596,
			"-0.004": 9.92088476759,
			"-0.003": 10.6054954481,
			"-0.002": 14.6881481547,
			"-0.001": 19.6451164201,
			"0.0": 16.8596714267,
			"0.001": 15.0705003918,
			"0.002": 13.8387394971,
			"0.003": 20.1667867805,
			"0.004": 10.9032345829,
			"0.005": 1.64377783152,
			"0.006": 1.90870297016,
			"0.007": 1.13742126976,
			"0.008": 1.72481456677,
			"0.009": 2.01629247058,
			"0.01": 2.02715794289,
			"0.011": 3.27128567897,
			"0.012": 3.48955685302,
			"0.013": 1.0134219702,
			"0.014": 0.038360018552,
			"0.015": 0.0,
			"0.016": 0.0,
			"0.017": 0.0,
			"0.018": 0.0,
			"0.019": 0.0,
			"0.02": 0.0,
			"0.021": 0.0,
			"0.022": 0.0,
			"0.023": 0.0,
			"0.024": 0.0,
			"0.025": 0.0
		}
	}
}
