{
	 "smiles": "CC1CC(C)(C)NC1=O", 
	 "Tm": 351.15, 
	 "num_atms": 22, 
	 "gaussian": { 
		 "optdone": 1, 
		 "sigma_profile": "yes", 
		 "theory": "DFT", 
		 "functional": "B3LYP", 
		 "basiset": "6-31G**", 
		 "properties": { 
			 "R2extent": 1470.1338, 
			 "electric_dipole_moment_norm": 3.87541628603, 
			 "electric_quadrupole_moment_norm": 12.5280493454, 
			 "total_energy": -404.59039415, 
			 "HOMO_LUMO_gap": 0.26918, 
			 "cosmo_polarized_energy": -10.67, 
			 "cosmo_cavitation_energy": 23.5, 
			 "cosmo_dispersion_energy": -16.86, 
			 "cosmo_repulsion_energy": 1.39, 
			 "cosmo_total_nonelectrostatic_energy": 8.03, 
			 "SMD_solvation_energy": 4.49 
		},
		"coords": [
			{
				"x": 2.3888535003,
				"y": 0.5549571442,
				"z": -1.9857200221,
				"element": "C" 
			},
			{
				"x": 1.4966859641,
				"y": 1.4294895468,
				"z": -1.0930770115,
				"element": "C" 
			},
			{
				"x": -0.0269057534,
				"y": 1.2415998645,
				"z": -1.2769834574,
				"element": "C" 
			},
			{
				"x": -0.5465414806,
				"y": 0.4788721918,
				"z": -0.0152098937,
				"element": "C" 
			},
			{
				"x": -1.8451184061,
				"y": 1.0893219213,
				"z": 0.5310988166,
				"element": "C" 
			},
			{
				"x": -0.7434090221,
				"y": -1.0241544488,
				"z": -0.2909942064,
				"element": "C" 
			},
			{
				"x": 0.5578361387,
				"y": 0.6904762158,
				"z": 0.9259353907,
				"element": "N" 
			},
			{
				"x": 1.7443348755,
				"y": 1.1099701075,
				"z": 0.3881061225,
				"element": "C" 
			},
			{
				"x": 2.8074296696,
				"y": 1.2011781935,
				"z": 0.9807503243,
				"element": "O" 
			},
			{
				"x": 3.4369591949,
				"y": 0.6802760407,
				"z": -1.700857591,
				"element": "H" 
			},
			{
				"x": 2.1382468837,
				"y": -0.5070311443,
				"z": -1.887446718,
				"element": "H" 
			},
			{
				"x": 2.2767401888,
				"y": 0.8310698541,
				"z": -3.0391031821,
				"element": "H" 
			},
			{
				"x": 1.7826753848,
				"y": 2.4755005688,
				"z": -1.2497752647,
				"element": "H" 
			},
			{
				"x": -0.2734661989,
				"y": 0.6945524719,
				"z": -2.1919326432,
				"element": "H" 
			},
			{
				"x": -0.5232568927,
				"y": 2.2147185423,
				"z": -1.3401060303,
				"element": "H" 
			},
			{
				"x": -2.1759174094,
				"y": 0.5707536149,
				"z": 1.4384142757,
				"element": "H" 
			},
			{
				"x": -1.7020268147,
				"y": 2.1461715916,
				"z": 0.774321377,
				"element": "H" 
			},
			{
				"x": -2.6488905103,
				"y": 1.0086994143,
				"z": -0.2084500339,
				"element": "H" 
			},
			{
				"x": -1.553028376,
				"y": -1.1840671915,
				"z": -1.0112660575,
				"element": "H" 
			},
			{
				"x": -1.0036423345,
				"y": -1.5592597503,
				"z": 0.6294034146,
				"element": "H" 
			},
			{
				"x": 0.1690861456,
				"y": -1.4727150259,
				"z": -0.6948055936,
				"element": "H" 
			},
			{
				"x": 0.5434552526,
				"y": 0.3229202767,
				"z": 1.8679979839,
				"element": "H" 
			}
		],
		 "valence_orbital": [ 
			{
				"type": "occ",
				"energy": -0.35525,
				"method": "rhf"
			},
			{
				"type": "occ",
				"energy": -0.32508,
				"method": "rhf"
			},
			{
				"type": "occ",
				"energy": -0.31974,
				"method": "rhf"
			},
			{
				"type": "occ",
				"energy": -0.24692,
				"method": "rhf"
			},
			{
				"type": "occ",
				"energy": -0.23371,
				"method": "rhf"
			},
			{
				"type": "unocc",
				"energy": 0.03547,
				"method": "rhf"
			},
			{
				"type": "unocc",
				"energy": 0.06819,
				"method": "rhf"
			},
			{
				"type": "unocc",
				"energy": 0.10541,
				"method": "rhf"
			},
			{
				"type": "unocc",
				"energy": 0.11346,
				"method": "rhf"
			},
			{
				"type": "unocc",
				"energy": 0.11817,
				"method": "rhf"
			}
		],
		"cosmo_sigma_profile": { 
			"-0.025": 0.0,
			"-0.024": 0.0,
			"-0.023": 0.0,
			"-0.022": 0.0,
			"-0.021": 0.0,
			"-0.02": 0.0,
			"-0.019": 0.0,
			"-0.018": 0.0,
			"-0.017": 0.0,
			"-0.016": 0.0,
			"-0.015": 0.0,
			"-0.014": 0.25402040399,
			"-0.013": 0.836350799274,
			"-0.012": 1.14575860739,
			"-0.011": 1.19409335802,
			"-0.01": 0.665118051294,
			"-0.009": 0.935356408314,
			"-0.008": 1.16504206173,
			"-0.007": 1.17644082686,
			"-0.006": 1.33316809037,
			"-0.005": 3.25728100537,
			"-0.004": 13.4580277148,
			"-0.003": 29.4684012473,
			"-0.002": 25.5935136662,
			"-0.001": 24.9203852565,
			"0.0": 24.5749029154,
			"0.001": 18.5168864118,
			"0.002": 4.00655310175,
			"0.003": 2.7121641123,
			"0.004": 2.23113049543,
			"0.005": 2.05672591702,
			"0.006": 1.69946509119,
			"0.007": 1.34670588227,
			"0.008": 1.4769532556,
			"0.009": 0.810585597711,
			"0.01": 1.51444186228,
			"0.011": 1.51577888962,
			"0.012": 2.04095345739,
			"0.013": 1.95732703153,
			"0.014": 5.92662740437,
			"0.015": 3.70586165754,
			"0.016": 0.260192859475,
			"0.017": 0.0,
			"0.018": 0.0,
			"0.019": 0.0,
			"0.02": 0.0,
			"0.021": 0.0,
			"0.022": 0.0,
			"0.023": 0.0,
			"0.024": 0.0,
			"0.025": 0.0
		}
	}
}
