{
	 "smiles": "COC(=O)C(N)C1=C(F)C=C(F)C=C1", 
	 "Tm": 313.15, 
	 "num_atms": 23, 
	 "gaussian": { 
		 "optdone": 1, 
		 "sigma_profile": "yes", 
		 "theory": "DFT", 
		 "functional": "B3LYP", 
		 "basiset": "6-31G**", 
		 "properties": { 
			 "R2extent": 3370.8986, 
			 "electric_dipole_moment_norm": 3.43504794435, 
			 "electric_quadrupole_moment_norm": 6.24183240002, 
			 "total_energy": -753.2476402, 
			 "HOMO_LUMO_gap": 0.22786, 
			 "cosmo_polarized_energy": -10.93, 
			 "cosmo_cavitation_energy": 28.4, 
			 "cosmo_dispersion_energy": -20.1, 
			 "cosmo_repulsion_energy": 1.57, 
			 "cosmo_total_nonelectrostatic_energy": 9.87, 
			 "SMD_solvation_energy": 6.7 
		},
		"coords": [
			{
				"x": 2.15621594,
				"y": -2.7180985056,
				"z": -3.1686146394,
				"element": "C" 
			},
			{
				"x": 0.8248344951,
				"y": -2.3562592926,
				"z": -2.7602678507,
				"element": "O" 
			},
			{
				"x": 0.7400976279,
				"y": -1.2655214217,
				"z": -1.9647094992,
				"element": "C" 
			},
			{
				"x": 1.6960879586,
				"y": -0.6106419822,
				"z": -1.6228322202,
				"element": "O" 
			},
			{
				"x": -0.7283831578,
				"y": -0.9510668318,
				"z": -1.6334924312,
				"element": "C" 
			},
			{
				"x": -1.457403635,
				"y": -2.1921250141,
				"z": -1.3572490514,
				"element": "N" 
			},
			{
				"x": -0.8188448217,
				"y": 0.0119646746,
				"z": -0.4652040751,
				"element": "C" 
			},
			{
				"x": -0.6514719464,
				"y": 1.3825790907,
				"z": -0.6683140828,
				"element": "C" 
			},
			{
				"x": -0.4267990847,
				"y": 1.8291714714,
				"z": -1.9239885464,
				"element": "F" 
			},
			{
				"x": -0.7192311847,
				"y": 2.3161539163,
				"z": 0.3569258649,
				"element": "C" 
			},
			{
				"x": -0.9597718106,
				"y": 1.8377950307,
				"z": 1.6402531887,
				"element": "C" 
			},
			{
				"x": -1.0307109952,
				"y": 2.7230612617,
				"z": 2.6543788998,
				"element": "F" 
			},
			{
				"x": -1.1322404961,
				"y": 0.4842501392,
				"z": 1.9053844103,
				"element": "C" 
			},
			{
				"x": -1.058022027,
				"y": -0.4181129359,
				"z": 0.8436470919,
				"element": "C" 
			},
			{
				"x": 2.6177686282,
				"y": -1.9032595965,
				"z": -3.7314270571,
				"element": "H" 
			},
			{
				"x": 2.0423340017,
				"y": -3.6026552983,
				"z": -3.7948963259,
				"element": "H" 
			},
			{
				"x": 2.7754951477,
				"y": -2.940804703,
				"z": -2.2965995005,
				"element": "H" 
			},
			{
				"x": -1.0922390925,
				"y": -0.4204190226,
				"z": -2.5316083507,
				"element": "H" 
			},
			{
				"x": -2.4559182717,
				"y": -2.0014061457,
				"z": -1.3490705258,
				"element": "H" 
			},
			{
				"x": -1.2764092706,
				"y": -2.858786754,
				"z": -2.101212983,
				"element": "H" 
			},
			{
				"x": -0.5860463942,
				"y": 3.3730757517,
				"z": 0.1620233019,
				"element": "H" 
			},
			{
				"x": -1.3179180093,
				"y": 0.1553006459,
				"z": 2.9215291132,
				"element": "H" 
			},
			{
				"x": -1.1904236015,
				"y": -1.4808944783,
				"z": 1.0138452687,
				"element": "H" 
			}
		],
		 "valence_orbital": [ 
			{
				"type": "occ",
				"energy": -0.30904,
				"method": "rhf"
			},
			{
				"type": "occ",
				"energy": -0.27975,
				"method": "rhf"
			},
			{
				"type": "occ",
				"energy": -0.25735,
				"method": "rhf"
			},
			{
				"type": "occ",
				"energy": -0.2506,
				"method": "rhf"
			},
			{
				"type": "occ",
				"energy": -0.23761,
				"method": "rhf"
			},
			{
				"type": "unocc",
				"energy": -0.00975,
				"method": "rhf"
			},
			{
				"type": "unocc",
				"energy": 0.00073,
				"method": "rhf"
			},
			{
				"type": "unocc",
				"energy": 0.00694,
				"method": "rhf"
			},
			{
				"type": "unocc",
				"energy": 0.08574,
				"method": "rhf"
			},
			{
				"type": "unocc",
				"energy": 0.08863,
				"method": "rhf"
			}
		],
		"cosmo_sigma_profile": { 
			"-0.025": 0.0,
			"-0.024": 0.0,
			"-0.023": 0.0,
			"-0.022": 0.0,
			"-0.021": 0.0,
			"-0.02": 0.0,
			"-0.019": 0.0,
			"-0.018": 0.0,
			"-0.017": 0.0,
			"-0.016": 0.0,
			"-0.015": 0.0,
			"-0.014": 0.0,
			"-0.013": 0.0,
			"-0.012": 0.078393861457,
			"-0.011": 0.939025631916,
			"-0.01": 1.77962228293,
			"-0.009": 2.61909971723,
			"-0.008": 4.46966892975,
			"-0.007": 6.69170397749,
			"-0.006": 14.1828048908,
			"-0.005": 16.823497067,
			"-0.004": 16.5047131353,
			"-0.003": 14.340611863,
			"-0.002": 12.6318125135,
			"-0.001": 11.1141275248,
			"0.0": 17.8497485247,
			"0.001": 17.3852515391,
			"0.002": 17.251539399,
			"0.003": 18.0303325785,
			"0.004": 22.3336124588,
			"0.005": 7.31204564978,
			"0.006": 3.53060982729,
			"0.007": 3.50025942109,
			"0.008": 2.20206084868,
			"0.009": 3.25635787489,
			"0.01": 2.3357132476,
			"0.011": 4.87886493494,
			"0.012": 2.38118734645,
			"0.013": 0.723328447932,
			"0.014": 0.536686971542,
			"0.015": 0.276371688636,
			"0.016": 0.0320794458892,
			"0.017": 0.0,
			"0.018": 0.0,
			"0.019": 0.0,
			"0.02": 0.0,
			"0.021": 0.0,
			"0.022": 0.0,
			"0.023": 0.0,
			"0.024": 0.0,
			"0.025": 0.0
		}
	}
}
