{
	 "smiles": "NC1=CN=C(C=C1)C(F)(F)F", 
	 "Tm": 312.65, 
	 "num_atms": 16, 
	 "gaussian": { 
		 "optdone": 1, 
		 "sigma_profile": "yes", 
		 "theory": "DFT", 
		 "functional": "B3LYP", 
		 "basiset": "6-31G**", 
		 "properties": { 
			 "R2extent": 1905.7422, 
			 "electric_dipole_moment_norm": 5.76421872243, 
			 "electric_quadrupole_moment_norm": 6.55953261902, 
			 "total_energy": -640.678104677, 
			 "HOMO_LUMO_gap": 0.19585, 
			 "cosmo_polarized_energy": -12.21, 
			 "cosmo_cavitation_energy": 21.94, 
			 "cosmo_dispersion_energy": -15.94, 
			 "cosmo_repulsion_energy": 1.23, 
			 "cosmo_total_nonelectrostatic_energy": 7.23, 
			 "SMD_solvation_energy": 3.8 
		},
		"coords": [
			{
				"x": -2.4201691921,
				"y": -1.0973245192,
				"z": -2.1806708522,
				"element": "N" 
			},
			{
				"x": -1.4362127695,
				"y": -0.7855628921,
				"z": -1.2586540061,
				"element": "C" 
			},
			{
				"x": -1.4801116906,
				"y": 0.427517074,
				"z": -0.5355238412,
				"element": "C" 
			},
			{
				"x": -0.5973162638,
				"y": 0.7655917908,
				"z": 0.394848715,
				"element": "N" 
			},
			{
				"x": 0.3944166736,
				"y": -0.0905941473,
				"z": 0.6678917895,
				"element": "C" 
			},
			{
				"x": 0.5386603713,
				"y": -1.315774968,
				"z": 0.0181360248,
				"element": "C" 
			},
			{
				"x": -0.3875994884,
				"y": -1.6675895812,
				"z": -0.9578189425,
				"element": "C" 
			},
			{
				"x": 1.3625860764,
				"y": 0.3607598143,
				"z": 1.7343292751,
				"element": "C" 
			},
			{
				"x": 0.7461019313,
				"y": 0.5717257663,
				"z": 2.9148976821,
				"element": "F" 
			},
			{
				"x": 2.3292049937,
				"y": -0.5662932219,
				"z": 1.9438474915,
				"element": "F" 
			},
			{
				"x": 1.9782245331,
				"y": 1.5126777886,
				"z": 1.3969923229,
				"element": "F" 
			},
			{
				"x": -2.1865971205,
				"y": -1.7893667944,
				"z": -2.8776642415,
				"element": "H" 
			},
			{
				"x": -2.9518584661,
				"y": -0.3227297151,
				"z": -2.5509427611,
				"element": "H" 
			},
			{
				"x": -2.2777011162,
				"y": 1.1436023378,
				"z": -0.7349384015,
				"element": "H" 
			},
			{
				"x": 1.3588323314,
				"y": -1.9775030441,
				"z": 0.2695114768,
				"element": "H" 
			},
			{
				"x": -0.3044608036,
				"y": -2.6167356885,
				"z": -1.4807417315,
				"element": "H" 
			}
		],
		 "valence_orbital": [ 
			{
				"type": "occ",
				"energy": -0.36437,
				"method": "rhf"
			},
			{
				"type": "occ",
				"energy": -0.34602,
				"method": "rhf"
			},
			{
				"type": "occ",
				"energy": -0.28975,
				"method": "rhf"
			},
			{
				"type": "occ",
				"energy": -0.26652,
				"method": "rhf"
			},
			{
				"type": "occ",
				"energy": -0.22857,
				"method": "rhf"
			},
			{
				"type": "unocc",
				"energy": -0.03272,
				"method": "rhf"
			},
			{
				"type": "unocc",
				"energy": -0.01482,
				"method": "rhf"
			},
			{
				"type": "unocc",
				"energy": 0.06202,
				"method": "rhf"
			},
			{
				"type": "unocc",
				"energy": 0.09771,
				"method": "rhf"
			},
			{
				"type": "unocc",
				"energy": 0.11538,
				"method": "rhf"
			}
		],
		"cosmo_sigma_profile": { 
			"-0.025": 0.0,
			"-0.024": 0.0,
			"-0.023": 0.0,
			"-0.022": 0.0,
			"-0.021": 0.0,
			"-0.02": 0.0,
			"-0.019": 0.0,
			"-0.018": 0.0,
			"-0.017": 0.0,
			"-0.016": 0.0,
			"-0.015": 0.0,
			"-0.014": 0.854507645384,
			"-0.013": 2.99359393188,
			"-0.012": 3.1789482706,
			"-0.011": 2.87012926133,
			"-0.01": 3.89684450143,
			"-0.009": 2.97599910304,
			"-0.008": 3.81454352781,
			"-0.007": 6.2586249419,
			"-0.006": 6.44559404717,
			"-0.005": 5.57692482328,
			"-0.004": 4.13022127758,
			"-0.003": 5.69710290405,
			"-0.002": 7.4833557802,
			"-0.001": 8.09540588407,
			"0.0": 8.36760849745,
			"0.001": 15.0204208957,
			"0.002": 20.4890035392,
			"0.003": 34.3530521319,
			"0.004": 11.8682493438,
			"0.005": 4.30674188758,
			"0.006": 3.20943521797,
			"0.007": 2.58076482431,
			"0.008": 2.41935669459,
			"0.009": 2.25714931348,
			"0.01": 1.796538205,
			"0.011": 1.46092647072,
			"0.012": 1.48422958184,
			"0.013": 0.954702250244,
			"0.014": 0.555778867194,
			"0.015": 0.255191455148,
			"0.016": 0.0,
			"0.017": 0.0,
			"0.018": 0.0,
			"0.019": 0.0,
			"0.02": 0.0,
			"0.021": 0.0,
			"0.022": 0.0,
			"0.023": 0.0,
			"0.024": 0.0,
			"0.025": 0.0
		}
	}
}
