{
	 "smiles": "CN(C)C1=C(O)C=CC=N1", 
	 "Tm": 447.15, 
	 "num_atms": 20, 
	 "gaussian": { 
		 "optdone": 1, 
		 "sigma_profile": "yes", 
		 "theory": "DFT", 
		 "functional": "B3LYP", 
		 "basiset": "6-31G**", 
		 "properties": { 
			 "R2extent": 1736.1951, 
			 "electric_dipole_moment_norm": 0.671754657595, 
			 "electric_quadrupole_moment_norm": 8.37617926981, 
			 "total_energy": -457.48715971, 
			 "HOMO_LUMO_gap": 0.19892, 
			 "cosmo_polarized_energy": -6.88, 
			 "cosmo_cavitation_energy": 22.92, 
			 "cosmo_dispersion_energy": -16.9, 
			 "cosmo_repulsion_energy": 1.37, 
			 "cosmo_total_nonelectrostatic_energy": 7.39, 
			 "SMD_solvation_energy": 3.1 
		},
		"coords": [
			{
				"x": -1.9650629642,
				"y": -0.2943334963,
				"z": -0.8592661009,
				"element": "C" 
			},
			{
				"x": -0.7242546549,
				"y": 0.4837234572,
				"z": -0.815659408,
				"element": "N" 
			},
			{
				"x": -0.7495983044,
				"y": 1.6039983006,
				"z": -1.772132184,
				"element": "C" 
			},
			{
				"x": -0.3420012059,
				"y": 0.9023126762,
				"z": 0.4987679317,
				"element": "C" 
			},
			{
				"x": 1.0472862337,
				"y": 0.9691036796,
				"z": 0.7458774539,
				"element": "C" 
			},
			{
				"x": 1.9243412703,
				"y": 0.6137513617,
				"z": -0.2267845927,
				"element": "O" 
			},
			{
				"x": 1.4815760194,
				"y": 1.3862134127,
				"z": 1.9999486297,
				"element": "C" 
			},
			{
				"x": 0.5169089409,
				"y": 1.6958879162,
				"z": 2.9617246805,
				"element": "C" 
			},
			{
				"x": -0.8314037365,
				"y": 1.5606902452,
				"z": 2.637376426,
				"element": "C" 
			},
			{
				"x": -1.2558856048,
				"y": 1.1766496671,
				"z": 1.4229742209,
				"element": "N" 
			},
			{
				"x": -2.8498941846,
				"y": 0.3035716185,
				"z": -0.6017013046,
				"element": "H" 
			},
			{
				"x": -1.8997417586,
				"y": -1.1259347388,
				"z": -0.1542671715,
				"element": "H" 
			},
			{
				"x": -2.0887173496,
				"y": -0.6984172139,
				"z": -1.8689619494,
				"element": "H" 
			},
			{
				"x": 0.2039482529,
				"y": 2.13791026,
				"z": -1.7424565962,
				"element": "H" 
			},
			{
				"x": -0.8934087159,
				"y": 1.2117465631,
				"z": -2.7839160292,
				"element": "H" 
			},
			{
				"x": -1.558412884,
				"y": 2.3187500118,
				"z": -1.5543108729,
				"element": "H" 
			},
			{
				"x": 1.3702410422,
				"y": 0.1855646206,
				"z": -0.9090604922,
				"element": "H" 
			},
			{
				"x": 2.5447829208,
				"y": 1.4409057078,
				"z": 2.2102332475,
				"element": "H" 
			},
			{
				"x": 0.8111981887,
				"y": 2.0211917225,
				"z": 3.954691498,
				"element": "H" 
			},
			{
				"x": -1.6045015055,
				"y": 1.7709142282,
				"z": 3.3730226135,
				"element": "H" 
			}
		],
		 "valence_orbital": [ 
			{
				"type": "occ",
				"energy": -0.3519,
				"method": "rhf"
			},
			{
				"type": "occ",
				"energy": -0.27943,
				"method": "rhf"
			},
			{
				"type": "occ",
				"energy": -0.2564,
				"method": "rhf"
			},
			{
				"type": "occ",
				"energy": -0.24882,
				"method": "rhf"
			},
			{
				"type": "occ",
				"energy": -0.21513,
				"method": "rhf"
			},
			{
				"type": "unocc",
				"energy": -0.01621,
				"method": "rhf"
			},
			{
				"type": "unocc",
				"energy": 0.00643,
				"method": "rhf"
			},
			{
				"type": "unocc",
				"energy": 0.08494,
				"method": "rhf"
			},
			{
				"type": "unocc",
				"energy": 0.10504,
				"method": "rhf"
			},
			{
				"type": "unocc",
				"energy": 0.12615,
				"method": "rhf"
			}
		],
		"cosmo_sigma_profile": { 
			"-0.025": 0.0,
			"-0.024": 0.0,
			"-0.023": 0.0,
			"-0.022": 0.0,
			"-0.021": 0.0,
			"-0.02": 0.0,
			"-0.019": 0.0,
			"-0.018": 0.0,
			"-0.017": 0.0,
			"-0.016": 0.0,
			"-0.015": 0.0,
			"-0.014": 0.0,
			"-0.013": 0.0328893401193,
			"-0.012": 0.492135542765,
			"-0.011": 0.390213098428,
			"-0.01": 0.450755268662,
			"-0.009": 0.84090364764,
			"-0.008": 0.873446592148,
			"-0.007": 2.74230106375,
			"-0.006": 6.13132461496,
			"-0.005": 10.0795474781,
			"-0.004": 16.7237300254,
			"-0.003": 16.3979265031,
			"-0.002": 21.3351601898,
			"-0.001": 22.8179701908,
			"0.0": 12.9780649414,
			"0.001": 10.6023341844,
			"0.002": 11.507258495,
			"0.003": 12.6518548064,
			"0.004": 9.34603458196,
			"0.005": 4.57077176752,
			"0.006": 3.5184465978,
			"0.007": 2.16196694198,
			"0.008": 2.56048076644,
			"0.009": 3.4149637824,
			"0.01": 2.47845279463,
			"0.011": 2.70469034234,
			"0.012": 1.57000347656,
			"0.013": 0.771272194549,
			"0.014": 0.977107143386,
			"0.015": 0.0484286195681,
			"0.016": 0.0,
			"0.017": 0.0,
			"0.018": 0.0,
			"0.019": 0.0,
			"0.02": 0.0,
			"0.021": 0.0,
			"0.022": 0.0,
			"0.023": 0.0,
			"0.024": 0.0,
			"0.025": 0.0
		}
	}
}
