{
	 "smiles": "OC1=C(C=CC(F)=C1)[N+]([O-])=O", 
	 "Tm": 307.65, 
	 "num_atms": 15, 
	 "gaussian": { 
		 "optdone": 1, 
		 "sigma_profile": "yes", 
		 "theory": "DFT", 
		 "functional": "B3LYP", 
		 "basiset": "6-31G**", 
		 "properties": { 
			 "R2extent": 2017.5662, 
			 "electric_dipole_moment_norm": 2.40153405972, 
			 "electric_quadrupole_moment_norm": 4.81300026387, 
			 "total_energy": -611.209925473, 
			 "HOMO_LUMO_gap": 0.15665, 
			 "cosmo_polarized_energy": -7.09, 
			 "cosmo_cavitation_energy": 20.5, 
			 "cosmo_dispersion_energy": -15.51, 
			 "cosmo_repulsion_energy": 1.2, 
			 "cosmo_total_nonelectrostatic_energy": 6.19, 
			 "SMD_solvation_energy": 6.58 
		},
		"coords": [
			{
				"x": 0.9726253984,
				"y": 2.5794716469,
				"z": 1.1223682067,
				"element": "O" 
			},
			{
				"x": -0.0432584699,
				"y": 1.7740822417,
				"z": 0.815411529,
				"element": "C" 
			},
			{
				"x": 0.1156540608,
				"y": 0.452695987,
				"z": 0.3164654755,
				"element": "C" 
			},
			{
				"x": -0.9978084954,
				"y": -0.3467952273,
				"z": 0.0114219669,
				"element": "C" 
			},
			{
				"x": -2.277887264,
				"y": 0.138574811,
				"z": 0.1915448617,
				"element": "C" 
			},
			{
				"x": -2.422221023,
				"y": 1.4432184719,
				"z": 0.6842890381,
				"element": "C" 
			},
			{
				"x": -3.6619446612,
				"y": 1.9213789457,
				"z": 0.8618515411,
				"element": "F" 
			},
			{
				"x": -1.3494715533,
				"y": 2.2573060877,
				"z": 0.9947057877,
				"element": "C" 
			},
			{
				"x": 1.4300556025,
				"y": -0.1027858271,
				"z": 0.1100583052,
				"element": "N" 
			},
			{
				"x": 2.4243553758,
				"y": 0.6130094392,
				"z": 0.3830588675,
				"element": "O" 
			},
			{
				"x": 1.5393779128,
				"y": -1.2447851149,
				"z": -0.3210573661,
				"element": "O" 
			},
			{
				"x": 1.7970537018,
				"y": 2.0665460807,
				"z": 0.9306059338,
				"element": "H" 
			},
			{
				"x": -0.8201590872,
				"y": -1.346047654,
				"z": -0.3657583785,
				"element": "H" 
			},
			{
				"x": -3.1554573173,
				"y": -0.4544611223,
				"z": -0.0349053993,
				"element": "H" 
			},
			{
				"x": -1.4996141807,
				"y": 3.2606912338,
				"z": 1.3735396307,
				"element": "H" 
			}
		],
		 "valence_orbital": [ 
			{
				"type": "occ",
				"energy": -0.32682,
				"method": "rhf"
			},
			{
				"type": "occ",
				"energy": -0.32486,
				"method": "rhf"
			},
			{
				"type": "occ",
				"energy": -0.31048,
				"method": "rhf"
			},
			{
				"type": "occ",
				"energy": -0.2843,
				"method": "rhf"
			},
			{
				"type": "occ",
				"energy": -0.25953,
				"method": "rhf"
			},
			{
				"type": "unocc",
				"energy": -0.10288,
				"method": "rhf"
			},
			{
				"type": "unocc",
				"energy": -0.02841,
				"method": "rhf"
			},
			{
				"type": "unocc",
				"energy": -0.00323,
				"method": "rhf"
			},
			{
				"type": "unocc",
				"energy": 0.06845,
				"method": "rhf"
			},
			{
				"type": "unocc",
				"energy": 0.11952,
				"method": "rhf"
			}
		],
		"cosmo_sigma_profile": { 
			"-0.025": 0.0,
			"-0.024": 0.0,
			"-0.023": 0.0,
			"-0.022": 0.0,
			"-0.021": 0.0,
			"-0.02": 0.0,
			"-0.019": 0.0,
			"-0.018": 0.0,
			"-0.017": 0.0,
			"-0.016": 0.0,
			"-0.015": 0.0,
			"-0.014": 0.0,
			"-0.013": 0.0,
			"-0.012": 0.0,
			"-0.011": 0.0842778689151,
			"-0.01": 0.34091165365,
			"-0.009": 2.44615114181,
			"-0.008": 5.76069403424,
			"-0.007": 7.63996921665,
			"-0.006": 9.08708331836,
			"-0.005": 7.55172475782,
			"-0.004": 7.7643317638,
			"-0.003": 8.27886378375,
			"-0.002": 12.6568797347,
			"-0.001": 19.1465208987,
			"0.0": 15.9181968778,
			"0.001": 11.6046217712,
			"0.002": 7.79794947907,
			"0.003": 13.4648636733,
			"0.004": 4.40339501937,
			"0.005": 4.77079034345,
			"0.006": 5.37654524652,
			"0.007": 7.52783705402,
			"0.008": 5.90436609368,
			"0.009": 5.86466664044,
			"0.01": 2.18086829275,
			"0.011": 0.0,
			"0.012": 0.0,
			"0.013": 0.0,
			"0.014": 0.0,
			"0.015": 0.0,
			"0.016": 0.0,
			"0.017": 0.0,
			"0.018": 0.0,
			"0.019": 0.0,
			"0.02": 0.0,
			"0.021": 0.0,
			"0.022": 0.0,
			"0.023": 0.0,
			"0.024": 0.0,
			"0.025": 0.0
		}
	}
}
