{
	 "smiles": "COC1=CC(NC(=O)C(C)Cl)=C(OC)C=C1", 
	 "Tm": 330.15, 
	 "num_atms": 30, 
	 "gaussian": { 
		 "optdone": 1, 
		 "sigma_profile": "yes", 
		 "theory": "DFT", 
		 "functional": "B3LYP", 
		 "basiset": "6-31G**", 
		 "properties": { 
			 "R2extent": 5280.5346, 
			 "electric_dipole_moment_norm": 4.1049282649, 
			 "electric_quadrupole_moment_norm": 20.7249708581, 
			 "total_energy": -1168.21602705, 
			 "HOMO_LUMO_gap": 0.17279, 
			 "cosmo_polarized_energy": -13.2, 
			 "cosmo_cavitation_energy": 34.97, 
			 "cosmo_dispersion_energy": -24.59, 
			 "cosmo_repulsion_energy": 1.93, 
			 "cosmo_total_nonelectrostatic_energy": 12.31, 
			 "SMD_solvation_energy": 7.8 
		},
		"coords": [
			{
				"x": 0.7681133945,
				"y": 4.2091552262,
				"z": 0.3548551643,
				"element": "C" 
			},
			{
				"x": 0.2892860245,
				"y": 3.4885550076,
				"z": -0.7706507798,
				"element": "O" 
			},
			{
				"x": -0.0001480929,
				"y": 2.163023371,
				"z": -0.6144352092,
				"element": "C" 
			},
			{
				"x": 0.1593389462,
				"y": 1.4603995713,
				"z": 0.5869692246,
				"element": "C" 
			},
			{
				"x": -0.146503799,
				"y": 0.0957806613,
				"z": 0.6478317304,
				"element": "C" 
			},
			{
				"x": -0.0234355731,
				"y": -0.6702740625,
				"z": 1.8281711151,
				"element": "N" 
			},
			{
				"x": 0.9588826043,
				"y": -0.7562916593,
				"z": 2.7895337822,
				"element": "C" 
			},
			{
				"x": 0.8594773156,
				"y": -1.5594767839,
				"z": 3.7052604053,
				"element": "O" 
			},
			{
				"x": 2.2051216898,
				"y": 0.1290690571,
				"z": 2.6516948912,
				"element": "C" 
			},
			{
				"x": 3.4497848153,
				"y": -0.6079629287,
				"z": 3.1159296962,
				"element": "C" 
			},
			{
				"x": 1.9571499312,
				"y": 1.6330740203,
				"z": 3.6829714208,
				"element": "Cl" 
			},
			{
				"x": -0.6740460779,
				"y": -0.5579153861,
				"z": -0.485512885,
				"element": "C" 
			},
			{
				"x": -0.9875947839,
				"y": -1.8814942145,
				"z": -0.306911968,
				"element": "O" 
			},
			{
				"x": -1.5855113164,
				"y": -2.578579449,
				"z": -1.3884699995,
				"element": "C" 
			},
			{
				"x": -0.8493746556,
				"y": 0.1581970934,
				"z": -1.671040196,
				"element": "C" 
			},
			{
				"x": -0.5036222457,
				"y": 1.5064523152,
				"z": -1.7410021149,
				"element": "C" 
			},
			{
				"x": 0.0316843986,
				"y": 4.22689436,
				"z": 1.1685059579,
				"element": "H" 
			},
			{
				"x": 0.9426822221,
				"y": 5.228430933,
				"z": 0.007043431,
				"element": "H" 
			},
			{
				"x": 1.7083531118,
				"y": 3.7913299307,
				"z": 0.7366978254,
				"element": "H" 
			},
			{
				"x": 0.4874213046,
				"y": 1.9628924063,
				"z": 1.4866864905,
				"element": "H" 
			},
			{
				"x": -0.6854759764,
				"y": -1.4342897549,
				"z": 1.9080243791,
				"element": "H" 
			},
			{
				"x": 2.3151133934,
				"y": 0.5070251214,
				"z": 1.6354939495,
				"element": "H" 
			},
			{
				"x": 3.306038979,
				"y": -0.9874796326,
				"z": 4.1282019683,
				"element": "H" 
			},
			{
				"x": 3.6305014791,
				"y": -1.4611639176,
				"z": 2.4525235113,
				"element": "H" 
			},
			{
				"x": 4.3205078199,
				"y": 0.0504181639,
				"z": 3.0837389694,
				"element": "H" 
			},
			{
				"x": -1.772379235,
				"y": -3.5913080484,
				"z": -1.0284641623,
				"element": "H" 
			},
			{
				"x": -0.9166335538,
				"y": -2.62304429,
				"z": -2.2574291332,
				"element": "H" 
			},
			{
				"x": -2.5356598408,
				"y": -2.1189144742,
				"z": -1.6893029973,
				"element": "H" 
			},
			{
				"x": -1.2479725922,
				"y": -0.3300602408,
				"z": -2.5523622754,
				"element": "H" 
			},
			{
				"x": -0.6307996872,
				"y": 2.0668576037,
				"z": -2.6606521919,
				"element": "H" 
			}
		],
		 "valence_orbital": [ 
			{
				"type": "occ",
				"energy": -0.30084,
				"method": "rhf"
			},
			{
				"type": "occ",
				"energy": -0.28746,
				"method": "rhf"
			},
			{
				"type": "occ",
				"energy": -0.2593,
				"method": "rhf"
			},
			{
				"type": "occ",
				"energy": -0.24037,
				"method": "rhf"
			},
			{
				"type": "occ",
				"energy": -0.20317,
				"method": "rhf"
			},
			{
				"type": "unocc",
				"energy": -0.03038,
				"method": "rhf"
			},
			{
				"type": "unocc",
				"energy": -0.0036,
				"method": "rhf"
			},
			{
				"type": "unocc",
				"energy": 0.01417,
				"method": "rhf"
			},
			{
				"type": "unocc",
				"energy": 0.0622,
				"method": "rhf"
			},
			{
				"type": "unocc",
				"energy": 0.08362,
				"method": "rhf"
			}
		],
		"cosmo_sigma_profile": { 
			"-0.025": 0.0,
			"-0.024": 0.0,
			"-0.023": 0.0,
			"-0.022": 0.0,
			"-0.021": 0.0,
			"-0.02": 0.0,
			"-0.019": 0.0,
			"-0.018": 0.0,
			"-0.017": 0.0,
			"-0.016": 0.0,
			"-0.015": 0.0,
			"-0.014": 0.0,
			"-0.013": 0.0,
			"-0.012": 0.21388703944,
			"-0.011": 0.972353362164,
			"-0.01": 0.606838535017,
			"-0.009": 0.526387225068,
			"-0.008": 0.703271148424,
			"-0.007": 5.81884041282,
			"-0.006": 15.2903222959,
			"-0.005": 24.9292740098,
			"-0.004": 29.3847360544,
			"-0.003": 27.1649807423,
			"-0.002": 21.1686421991,
			"-0.001": 19.0063687644,
			"0.0": 16.2568443026,
			"0.001": 16.3836590843,
			"0.002": 16.3334793967,
			"0.003": 17.111228205,
			"0.004": 20.1028378404,
			"0.005": 14.4957632212,
			"0.006": 8.84256792445,
			"0.007": 4.02716387066,
			"0.008": 2.71999946686,
			"0.009": 2.69987592902,
			"0.01": 3.61695378451,
			"0.011": 2.5643990834,
			"0.012": 3.96928198441,
			"0.013": 3.99641845148,
			"0.014": 0.150266526213,
			"0.015": 0.0,
			"0.016": 0.0,
			"0.017": 0.0,
			"0.018": 0.0,
			"0.019": 0.0,
			"0.02": 0.0,
			"0.021": 0.0,
			"0.022": 0.0,
			"0.023": 0.0,
			"0.024": 0.0,
			"0.025": 0.0
		}
	}
}
