{
	 "smiles": "ON=C(C1CC1)C1CC1", 
	 "Tm": 349.65, 
	 "num_atms": 20, 
	 "gaussian": { 
		 "optdone": 1, 
		 "sigma_profile": "yes", 
		 "theory": "DFT", 
		 "functional": "B3LYP", 
		 "basiset": "6-31G**", 
		 "properties": { 
			 "R2extent": 2411.9333, 
			 "electric_dipole_moment_norm": 0.832914197262, 
			 "electric_quadrupole_moment_norm": 5.17459793124, 
			 "total_energy": -403.229080358, 
			 "HOMO_LUMO_gap": 0.23566, 
			 "cosmo_polarized_energy": -7.71, 
			 "cosmo_cavitation_energy": 22.72, 
			 "cosmo_dispersion_energy": -16.56, 
			 "cosmo_repulsion_energy": 1.39, 
			 "cosmo_total_nonelectrostatic_energy": 7.55, 
			 "SMD_solvation_energy": 3.54 
		},
		"coords": [
			{
				"x": 0.2552235998,
				"y": -1.6463027461,
				"z": 0.8201663263,
				"element": "O" 
			},
			{
				"x": -0.8409234806,
				"y": -1.9260044475,
				"z": -0.0273469739,
				"element": "N" 
			},
			{
				"x": -1.6456205106,
				"y": -0.9288670377,
				"z": -0.1444777099,
				"element": "C" 
			},
			{
				"x": -2.8734705047,
				"y": -1.1642207678,
				"z": -0.9645147224,
				"element": "C" 
			},
			{
				"x": -3.1166298435,
				"y": -2.4867313646,
				"z": -1.6463907459,
				"element": "C" 
			},
			{
				"x": -3.9475174912,
				"y": -2.1160452023,
				"z": -0.4504053344,
				"element": "C" 
			},
			{
				"x": -1.4438546785,
				"y": 0.3859844451,
				"z": 0.5195794574,
				"element": "C" 
			},
			{
				"x": -1.765440559,
				"y": 1.6916027162,
				"z": -0.1934316284,
				"element": "C" 
			},
			{
				"x": -2.6280394603,
				"y": 1.2380164393,
				"z": 0.9443309097,
				"element": "C" 
			},
			{
				"x": 0.7458705734,
				"y": -2.4767832277,
				"z": 0.7816878361,
				"element": "H" 
			},
			{
				"x": -3.2439549966,
				"y": -0.2840603252,
				"z": -1.4831520478,
				"element": "H" 
			},
			{
				"x": -3.5840757185,
				"y": -2.4630608581,
				"z": -2.6260581101,
				"element": "H" 
			},
			{
				"x": -2.3533627502,
				"y": -3.2451473601,
				"z": -1.5173624495,
				"element": "H" 
			},
			{
				"x": -4.9882412053,
				"y": -1.8411282897,
				"z": -0.5971789956,
				"element": "H" 
			},
			{
				"x": -3.736910165,
				"y": -2.6243122937,
				"z": 0.4853560823,
				"element": "H" 
			},
			{
				"x": -0.5791189392,
				"y": 0.4098867046,
				"z": 1.1702172808,
				"element": "H" 
			},
			{
				"x": -2.169568623,
				"y": 1.6445015338,
				"z": -1.1999351021,
				"element": "H" 
			},
			{
				"x": -1.0780786218,
				"y": 2.5164978218,
				"z": -0.0332523671,
				"element": "H" 
			},
			{
				"x": -3.6222645296,
				"y": 0.8670553418,
				"z": 0.7167159546,
				"element": "H" 
			},
			{
				"x": -2.5497220957,
				"y": 1.7521189179,
				"z": 1.8973523401,
				"element": "H" 
			}
		],
		 "valence_orbital": [ 
			{
				"type": "occ",
				"energy": -0.3047,
				"method": "rhf"
			},
			{
				"type": "occ",
				"energy": -0.29571,
				"method": "rhf"
			},
			{
				"type": "occ",
				"energy": -0.29048,
				"method": "rhf"
			},
			{
				"type": "occ",
				"energy": -0.25878,
				"method": "rhf"
			},
			{
				"type": "occ",
				"energy": -0.22308,
				"method": "rhf"
			},
			{
				"type": "unocc",
				"energy": 0.01258,
				"method": "rhf"
			},
			{
				"type": "unocc",
				"energy": 0.08178,
				"method": "rhf"
			},
			{
				"type": "unocc",
				"energy": 0.09092,
				"method": "rhf"
			},
			{
				"type": "unocc",
				"energy": 0.10287,
				"method": "rhf"
			},
			{
				"type": "unocc",
				"energy": 0.1195,
				"method": "rhf"
			}
		],
		"cosmo_sigma_profile": { 
			"-0.025": 0.0,
			"-0.024": 0.0,
			"-0.023": 0.0,
			"-0.022": 0.0,
			"-0.021": 0.0,
			"-0.02": 0.0,
			"-0.019": 0.0,
			"-0.018": 0.0,
			"-0.017": 0.390018977575,
			"-0.016": 0.910324265048,
			"-0.015": 0.811621225128,
			"-0.014": 0.86949726342,
			"-0.013": 1.00537232555,
			"-0.012": 0.638087812202,
			"-0.011": 0.11791892111,
			"-0.01": 0.66377214341,
			"-0.009": 0.413235129983,
			"-0.008": 0.533811444382,
			"-0.007": 1.65252019878,
			"-0.006": 3.97539183852,
			"-0.005": 10.8740360793,
			"-0.004": 18.3776082697,
			"-0.003": 15.6220612424,
			"-0.002": 14.3189523109,
			"-0.001": 14.8300383229,
			"0.0": 15.2113725046,
			"0.001": 13.3520795144,
			"0.002": 11.6776768193,
			"0.003": 12.1389948236,
			"0.004": 10.5545611253,
			"0.005": 6.72518034931,
			"0.006": 3.87420198273,
			"0.007": 4.47713587591,
			"0.008": 4.99539003338,
			"0.009": 3.44477881464,
			"0.01": 3.34029528509,
			"0.011": 2.42236052875,
			"0.012": 0.171109432843,
			"0.013": 0.0,
			"0.014": 0.0,
			"0.015": 0.0,
			"0.016": 0.0,
			"0.017": 0.0,
			"0.018": 0.0,
			"0.019": 0.0,
			"0.02": 0.0,
			"0.021": 0.0,
			"0.022": 0.0,
			"0.023": 0.0,
			"0.024": 0.0,
			"0.025": 0.0
		}
	}
}
