{
	 "smiles": "OC(=O)C1=CC(=CC=C1)S(=O)(=O)CC(F)F", 
	 "Tm": 444.15, 
	 "num_atms": 24, 
	 "gaussian": { 
		 "optdone": 1, 
		 "sigma_profile": "yes", 
		 "theory": "DFT", 
		 "functional": "B3LYP", 
		 "basiset": "6-31G**", 
		 "properties": { 
			 "R2extent": 5180.7904, 
			 "electric_dipole_moment_norm": 3.62309471171, 
			 "electric_quadrupole_moment_norm": 22.2159283497, 
			 "total_energy": -1246.47450313, 
			 "HOMO_LUMO_gap": 0.20963, 
			 "cosmo_polarized_energy": -22.54, 
			 "cosmo_cavitation_energy": 30.89, 
			 "cosmo_dispersion_energy": -22.38, 
			 "cosmo_repulsion_energy": 1.66, 
			 "cosmo_total_nonelectrostatic_energy": 10.18, 
			 "SMD_solvation_energy": 6.5 
		},
		"coords": [
			{
				"x": 1.987461086,
				"y": -0.4274840014,
				"z": -4.4452792308,
				"element": "O" 
			},
			{
				"x": 1.9374937941,
				"y": 0.7773092416,
				"z": -3.8261296369,
				"element": "C" 
			},
			{
				"x": 2.1046172973,
				"y": 1.791460889,
				"z": -4.4608619895,
				"element": "O" 
			},
			{
				"x": 1.6669554419,
				"y": 0.7861649883,
				"z": -2.3462130809,
				"element": "C" 
			},
			{
				"x": 1.7636981513,
				"y": -0.3512783369,
				"z": -1.5366280321,
				"element": "C" 
			},
			{
				"x": 1.5101357225,
				"y": -0.2394560294,
				"z": -0.1696503495,
				"element": "C" 
			},
			{
				"x": 1.1832599635,
				"y": 0.9831952404,
				"z": 0.418098343,
				"element": "C" 
			},
			{
				"x": 1.0980005135,
				"y": 2.1157832105,
				"z": -0.3934018353,
				"element": "C" 
			},
			{
				"x": 1.3398835869,
				"y": 2.0185298612,
				"z": -1.7615654423,
				"element": "C" 
			},
			{
				"x": 1.6837107181,
				"y": -1.7142187166,
				"z": 0.8496762027,
				"element": "S" 
			},
			{
				"x": 2.1250512944,
				"y": -1.3028572147,
				"z": 2.1911478095,
				"element": "O" 
			},
			{
				"x": 2.4310290706,
				"y": -2.7011870947,
				"z": 0.0559277768,
				"element": "O" 
			},
			{
				"x": -0.0002075248,
				"y": -2.402510903,
				"z": 1.036530779,
				"element": "C" 
			},
			{
				"x": -0.8241341888,
				"y": -1.7297943855,
				"z": 2.1183537249,
				"element": "C" 
			},
			{
				"x": -2.0004703042,
				"y": -2.4084713997,
				"z": 2.2448810282,
				"element": "F" 
			},
			{
				"x": -1.1205750932,
				"y": -0.4452358252,
				"z": 1.7461200015,
				"element": "F" 
			},
			{
				"x": 1.7209899308,
				"y": -1.1402717322,
				"z": -3.8491875872,
				"element": "H" 
			},
			{
				"x": 2.082696538,
				"y": -1.3175882351,
				"z": -1.9172029995,
				"element": "H" 
			},
			{
				"x": 1.0117710474,
				"y": 1.0449599397,
				"z": 1.4858854561,
				"element": "H" 
			},
			{
				"x": 0.8507979838,
				"y": 3.0763863041,
				"z": 0.0469508089,
				"element": "H" 
			},
			{
				"x": 1.2909454102,
				"y": 2.8902316251,
				"z": -2.4049588442,
				"element": "H" 
			},
			{
				"x": -0.513129753,
				"y": -2.3510758692,
				"z": 0.0734350061,
				"element": "H" 
			},
			{
				"x": 0.1739001154,
				"y": -3.4500275694,
				"z": 1.2964039871,
				"element": "H" 
			},
			{
				"x": -0.3183808016,
				"y": -1.7004639868,
				"z": 3.0873681043,
				"element": "H" 
			}
		],
		 "valence_orbital": [ 
			{
				"type": "occ",
				"energy": -0.32327,
				"method": "rhf"
			},
			{
				"type": "occ",
				"energy": -0.31272,
				"method": "rhf"
			},
			{
				"type": "occ",
				"energy": -0.29878,
				"method": "rhf"
			},
			{
				"type": "occ",
				"energy": -0.29667,
				"method": "rhf"
			},
			{
				"type": "occ",
				"energy": -0.28548,
				"method": "rhf"
			},
			{
				"type": "unocc",
				"energy": -0.07585,
				"method": "rhf"
			},
			{
				"type": "unocc",
				"energy": -0.06119,
				"method": "rhf"
			},
			{
				"type": "unocc",
				"energy": 0.01958,
				"method": "rhf"
			},
			{
				"type": "unocc",
				"energy": 0.02925,
				"method": "rhf"
			},
			{
				"type": "unocc",
				"energy": 0.0509,
				"method": "rhf"
			}
		],
		"cosmo_sigma_profile": { 
			"-0.025": 0.0,
			"-0.024": 0.0,
			"-0.023": 0.0,
			"-0.022": 0.0,
			"-0.021": 0.0,
			"-0.02": 0.318316869739,
			"-0.019": 0.899886688397,
			"-0.018": 0.908991249443,
			"-0.017": 1.07736081678,
			"-0.016": 1.18046373041,
			"-0.015": 0.824651059293,
			"-0.014": 0.739890376149,
			"-0.013": 1.44914341324,
			"-0.012": 0.949883149267,
			"-0.011": 3.14469975606,
			"-0.01": 6.61031490228,
			"-0.009": 6.76704378944,
			"-0.008": 9.79143154549,
			"-0.007": 10.7698627587,
			"-0.006": 11.2481808575,
			"-0.005": 10.3760792764,
			"-0.004": 10.1367611732,
			"-0.003": 10.7947446114,
			"-0.002": 12.8301497329,
			"-0.001": 13.2636331148,
			"0.0": 18.2521957682,
			"0.001": 14.7853273028,
			"0.002": 10.2082935753,
			"0.003": 12.9797126049,
			"0.004": 18.8438674658,
			"0.005": 5.66677339875,
			"0.006": 4.01453528254,
			"0.007": 4.62492355803,
			"0.008": 6.24552018464,
			"0.009": 8.4708724066,
			"0.01": 11.6775798996,
			"0.011": 12.7019157303,
			"0.012": 4.14026960402,
			"0.013": 0.643217293528,
			"0.014": 0.0,
			"0.015": 0.0,
			"0.016": 0.0,
			"0.017": 0.0,
			"0.018": 0.0,
			"0.019": 0.0,
			"0.02": 0.0,
			"0.021": 0.0,
			"0.022": 0.0,
			"0.023": 0.0,
			"0.024": 0.0,
			"0.025": 0.0
		}
	}
}
