{
	 "smiles": "CCOC1=CC=C(C=C1)N=NC1=CC=C(N)C=C1N", 
	 "Tm": 488.15, 
	 "num_atms": 35, 
	 "gaussian": { 
		 "optdone": 1, 
		 "sigma_profile": "yes", 
		 "theory": "DFT", 
		 "functional": "B3LYP", 
		 "basiset": "6-31G**", 
		 "properties": { 
			 "R2extent": 9326.4613, 
			 "electric_dipole_moment_norm": 1.98139622993, 
			 "electric_quadrupole_moment_norm": 36.3266284707, 
			 "total_energy": -837.334240004, 
			 "HOMO_LUMO_gap": 0.12359, 
			 "cosmo_polarized_energy": -16.65, 
			 "cosmo_cavitation_energy": 38.98, 
			 "cosmo_dispersion_energy": -28.71, 
			 "cosmo_repulsion_energy": 2.22, 
			 "cosmo_total_nonelectrostatic_energy": 12.5, 
			 "SMD_solvation_energy": 5.8 
		},
		"coords": [
			{
				"x": -5.0339756604,
				"y": -2.4186181962,
				"z": 0.4668020384,
				"element": "C" 
			},
			{
				"x": -4.966758108,
				"y": -1.6347875639,
				"z": -0.8402489187,
				"element": "C" 
			},
			{
				"x": -4.4288103306,
				"y": -0.3220148985,
				"z": -0.6663743176,
				"element": "O" 
			},
			{
				"x": -3.0780243886,
				"y": -0.1416175677,
				"z": -0.582616247,
				"element": "C" 
			},
			{
				"x": -2.11462799,
				"y": -1.1568603966,
				"z": -0.7070141954,
				"element": "C" 
			},
			{
				"x": -0.7604941823,
				"y": -0.8474354805,
				"z": -0.6242099376,
				"element": "C" 
			},
			{
				"x": -0.3348159061,
				"y": 0.4732561282,
				"z": -0.4135852809,
				"element": "C" 
			},
			{
				"x": -1.3071430638,
				"y": 1.4796578239,
				"z": -0.2882796183,
				"element": "C" 
			},
			{
				"x": -2.6591637906,
				"y": 1.180939852,
				"z": -0.3703393472,
				"element": "C" 
			},
			{
				"x": 1.0142187369,
				"y": 0.880513435,
				"z": -0.3142497398,
				"element": "N" 
			},
			{
				"x": 1.8671365938,
				"y": -0.0623670285,
				"z": -0.4301306496,
				"element": "N" 
			},
			{
				"x": 3.2122813501,
				"y": 0.2493367775,
				"z": -0.3406015508,
				"element": "C" 
			},
			{
				"x": 4.0845907363,
				"y": -0.8537277034,
				"z": -0.4728948562,
				"element": "C" 
			},
			{
				"x": 5.4549345424,
				"y": -0.7339416589,
				"z": -0.4015604097,
				"element": "C" 
			},
			{
				"x": 6.02578311,
				"y": 0.5449896433,
				"z": -0.1865354944,
				"element": "C" 
			},
			{
				"x": 7.4011251932,
				"y": 0.67372837,
				"z": -0.0607916665,
				"element": "N" 
			},
			{
				"x": 5.1925427466,
				"y": 1.658315928,
				"z": -0.0537040566,
				"element": "C" 
			},
			{
				"x": 3.7917947109,
				"y": 1.5484300269,
				"z": -0.1253307161,
				"element": "C" 
			},
			{
				"x": 2.9979744119,
				"y": 2.6445655171,
				"z": -0.0071982969,
				"element": "N" 
			},
			{
				"x": -5.5134683982,
				"y": -3.3888643593,
				"z": 0.2983949402,
				"element": "H" 
			},
			{
				"x": -4.0390264395,
				"y": -2.5964130298,
				"z": 0.8835262355,
				"element": "H" 
			},
			{
				"x": -5.6204326636,
				"y": -1.8680699103,
				"z": 1.2078963478,
				"element": "H" 
			},
			{
				"x": -4.4042977918,
				"y": -2.179223574,
				"z": -1.6092982935,
				"element": "H" 
			},
			{
				"x": -5.9739752368,
				"y": -1.4656165836,
				"z": -1.2318812919,
				"element": "H" 
			},
			{
				"x": -2.4089931559,
				"y": -2.1877818048,
				"z": -0.865725928,
				"element": "H" 
			},
			{
				"x": -0.0107321918,
				"y": -1.6245162765,
				"z": -0.7185854301,
				"element": "H" 
			},
			{
				"x": -0.9788275669,
				"y": 2.5020625193,
				"z": -0.1258920831,
				"element": "H" 
			},
			{
				"x": -3.4151694747,
				"y": 1.9536556976,
				"z": -0.277265364,
				"element": "H" 
			},
			{
				"x": 3.6180003626,
				"y": -1.8202213688,
				"z": -0.635815745,
				"element": "H" 
			},
			{
				"x": 6.0972740779,
				"y": -1.6040601777,
				"z": -0.4998110035,
				"element": "H" 
			},
			{
				"x": 7.9554756201,
				"y": -0.0608119784,
				"z": -0.4761529923,
				"element": "H" 
			},
			{
				"x": 7.7830805649,
				"y": 1.5952487988,
				"z": -0.2172232533,
				"element": "H" 
			},
			{
				"x": 5.6313869464,
				"y": 2.6401971648,
				"z": 0.1125772225,
				"element": "H" 
			},
			{
				"x": 1.993530326,
				"y": 2.4879626269,
				"z": -0.0265097334,
				"element": "H" 
			},
			{
				"x": 3.4002063094,
				"y": 3.539589248,
				"z": 0.2164296329,
				"element": "H" 
			}
		],
		 "valence_orbital": [ 
			{
				"type": "occ",
				"energy": -0.24484,
				"method": "rhf"
			},
			{
				"type": "occ",
				"energy": -0.22414,
				"method": "rhf"
			},
			{
				"type": "occ",
				"energy": -0.20795,
				"method": "rhf"
			},
			{
				"type": "occ",
				"energy": -0.20505,
				"method": "rhf"
			},
			{
				"type": "occ",
				"energy": -0.17632,
				"method": "rhf"
			},
			{
				"type": "unocc",
				"energy": -0.05273,
				"method": "rhf"
			},
			{
				"type": "unocc",
				"energy": 0.00657,
				"method": "rhf"
			},
			{
				"type": "unocc",
				"energy": 0.02167,
				"method": "rhf"
			},
			{
				"type": "unocc",
				"energy": 0.03745,
				"method": "rhf"
			},
			{
				"type": "unocc",
				"energy": 0.06613,
				"method": "rhf"
			}
		],
		"cosmo_sigma_profile": { 
			"-0.025": 0.0,
			"-0.024": 0.0,
			"-0.023": 0.0,
			"-0.022": 0.0,
			"-0.021": 0.0,
			"-0.02": 0.0,
			"-0.019": 0.0,
			"-0.018": 0.0,
			"-0.017": 0.0,
			"-0.016": 0.0,
			"-0.015": 0.0,
			"-0.014": 0.0625677601637,
			"-0.013": 2.43170407327,
			"-0.012": 4.68021638731,
			"-0.011": 3.62324984032,
			"-0.01": 3.94290377359,
			"-0.009": 5.21690079805,
			"-0.008": 3.6783577849,
			"-0.007": 6.7733897157,
			"-0.006": 11.1254141593,
			"-0.005": 17.8094853291,
			"-0.004": 21.4091145992,
			"-0.003": 23.6976549051,
			"-0.002": 20.816457985,
			"-0.001": 16.5509200425,
			"0.0": 17.3190843214,
			"0.001": 15.3643764434,
			"0.002": 12.4599374547,
			"0.003": 20.1239716795,
			"0.004": 33.7444067734,
			"0.005": 35.0728121482,
			"0.006": 15.7818558754,
			"0.007": 5.76378961682,
			"0.008": 5.06213489919,
			"0.009": 2.68477266326,
			"0.01": 2.20433108667,
			"0.011": 1.21701080908,
			"0.012": 0.606213752192,
			"0.013": 0.3769450511,
			"0.014": 0.0,
			"0.015": 0.0,
			"0.016": 0.0,
			"0.017": 0.0,
			"0.018": 0.0,
			"0.019": 0.0,
			"0.02": 0.0,
			"0.021": 0.0,
			"0.022": 0.0,
			"0.023": 0.0,
			"0.024": 0.0,
			"0.025": 0.0
		}
	}
}
