{
	 "smiles": "CC1=CC=C(SC2=C(C=CC=N2)C(O)=O)C=C1", 
	 "Tm": 493.15, 
	 "num_atms": 28, 
	 "gaussian": { 
		 "optdone": 1, 
		 "sigma_profile": "yes", 
		 "theory": "DFT", 
		 "functional": "B3LYP", 
		 "basiset": "6-31G**", 
		 "properties": { 
			 "R2extent": 5544.8026, 
			 "electric_dipole_moment_norm": 3.96925422466, 
			 "electric_quadrupole_moment_norm": 18.803031897, 
			 "total_energy": -1105.40498585, 
			 "HOMO_LUMO_gap": 0.1573, 
			 "cosmo_polarized_energy": -14.82, 
			 "cosmo_cavitation_energy": 34.02, 
			 "cosmo_dispersion_energy": -24.2, 
			 "cosmo_repulsion_energy": 1.85, 
			 "cosmo_total_nonelectrostatic_energy": 11.68, 
			 "SMD_solvation_energy": 4.97 
		},
		"coords": [
			{
				"x": -0.155758297,
				"y": 4.3338026106,
				"z": 0.2687654025,
				"element": "C" 
			},
			{
				"x": -0.7586306078,
				"y": 3.0635650711,
				"z": -0.28287898,
				"element": "C" 
			},
			{
				"x": -0.21878836,
				"y": 2.4434696192,
				"z": -1.4187108283,
				"element": "C" 
			},
			{
				"x": -0.7631223004,
				"y": 1.2652853905,
				"z": -1.926489876,
				"element": "C" 
			},
			{
				"x": -1.8511401081,
				"y": 0.6609749589,
				"z": -1.2832853025,
				"element": "C" 
			},
			{
				"x": -2.6550789125,
				"y": -0.782342211,
				"z": -1.9764008472,
				"element": "S" 
			},
			{
				"x": -1.3583436469,
				"y": -2.0032370628,
				"z": -2.1553834462,
				"element": "C" 
			},
			{
				"x": -0.2911861094,
				"y": -2.2433676432,
				"z": -1.2535981928,
				"element": "C" 
			},
			{
				"x": 0.6881992254,
				"y": -3.1676530915,
				"z": -1.6469610954,
				"element": "C" 
			},
			{
				"x": 0.5442856792,
				"y": -3.8769786785,
				"z": -2.8334333114,
				"element": "C" 
			},
			{
				"x": -0.6027938107,
				"y": -3.642298767,
				"z": -3.5910623213,
				"element": "C" 
			},
			{
				"x": -1.509271994,
				"y": -2.7141019795,
				"z": -3.2792638387,
				"element": "N" 
			},
			{
				"x": -0.2217416068,
				"y": -1.6798201814,
				"z": 0.1237041525,
				"element": "C" 
			},
			{
				"x": 1.0569330978,
				"y": -1.6118864495,
				"z": 0.5814293057,
				"element": "O" 
			},
			{
				"x": -1.1660952153,
				"y": -1.3627381929,
				"z": 0.8136436316,
				"element": "O" 
			},
			{
				"x": -2.3955267408,
				"y": 1.2643373456,
				"z": -0.1445961025,
				"element": "C" 
			},
			{
				"x": -1.8597595216,
				"y": 2.4583981115,
				"z": 0.3364379699,
				"element": "C" 
			},
			{
				"x": -0.9061148273,
				"y": 4.9441400306,
				"z": 0.7800769491,
				"element": "H" 
			},
			{
				"x": 0.6353345326,
				"y": 4.1139435947,
				"z": 0.9970242511,
				"element": "H" 
			},
			{
				"x": 0.293282695,
				"y": 4.94097551,
				"z": -0.5230897007,
				"element": "H" 
			},
			{
				"x": 0.6271656084,
				"y": 2.9003517311,
				"z": -1.9267398096,
				"element": "H" 
			},
			{
				"x": -0.3509215594,
				"y": 0.8205660293,
				"z": -2.8270421892,
				"element": "H" 
			},
			{
				"x": 1.5353240854,
				"y": -3.3426363142,
				"z": -0.9932908721,
				"element": "H" 
			},
			{
				"x": 1.2836686787,
				"y": -4.6043577598,
				"z": -3.1508225388,
				"element": "H" 
			},
			{
				"x": -0.7972085017,
				"y": -4.2100230738,
				"z": -4.4992686031,
				"element": "H" 
			},
			{
				"x": 0.9872263611,
				"y": -1.2954831813,
				"z": 1.4974017411,
				"element": "H" 
			},
			{
				"x": -3.2275177891,
				"y": 0.7921656704,
				"z": 0.3664639099,
				"element": "H" 
			},
			{
				"x": -2.2982200548,
				"y": 2.9199489131,
				"z": 1.2178705425,
				"element": "H" 
			}
		],
		 "valence_orbital": [ 
			{
				"type": "occ",
				"energy": -0.27638,
				"method": "rhf"
			},
			{
				"type": "occ",
				"energy": -0.26592,
				"method": "rhf"
			},
			{
				"type": "occ",
				"energy": -0.25372,
				"method": "rhf"
			},
			{
				"type": "occ",
				"energy": -0.24755,
				"method": "rhf"
			},
			{
				"type": "occ",
				"energy": -0.2145,
				"method": "rhf"
			},
			{
				"type": "unocc",
				"energy": -0.0572,
				"method": "rhf"
			},
			{
				"type": "unocc",
				"energy": -0.03555,
				"method": "rhf"
			},
			{
				"type": "unocc",
				"energy": -0.01208,
				"method": "rhf"
			},
			{
				"type": "unocc",
				"energy": -0.00182,
				"method": "rhf"
			},
			{
				"type": "unocc",
				"energy": 0.03768,
				"method": "rhf"
			}
		],
		"cosmo_sigma_profile": { 
			"-0.025": 0.0,
			"-0.024": 0.0,
			"-0.023": 0.0,
			"-0.022": 0.0,
			"-0.021": 0.0,
			"-0.02": 0.0,
			"-0.019": 0.260404504358,
			"-0.018": 0.784293581368,
			"-0.017": 0.848842308487,
			"-0.016": 0.987118196357,
			"-0.015": 0.579074632172,
			"-0.014": 0.418632791447,
			"-0.013": 0.696105844194,
			"-0.012": 0.832738668213,
			"-0.011": 0.538340342461,
			"-0.01": 0.477316134486,
			"-0.009": 0.702756194555,
			"-0.008": 3.31225904179,
			"-0.007": 8.3912066849,
			"-0.006": 12.1606328165,
			"-0.005": 15.9686795977,
			"-0.004": 21.7676307045,
			"-0.003": 18.5013283773,
			"-0.002": 19.5737450151,
			"-0.001": 23.3922703838,
			"0.0": 27.5024334247,
			"0.001": 22.1945405507,
			"0.002": 15.4482814893,
			"0.003": 15.2053054407,
			"0.004": 14.6520361162,
			"0.005": 12.0159049584,
			"0.006": 7.20362638618,
			"0.007": 5.71568990127,
			"0.008": 5.033520017,
			"0.009": 4.51634998565,
			"0.01": 4.3589165881,
			"0.011": 4.56281745749,
			"0.012": 2.82722561328,
			"0.013": 1.12806627248,
			"0.014": 0.811836810622,
			"0.015": 0.473313443739,
			"0.016": 0.0071232604196,
			"0.017": 0.0,
			"0.018": 0.0,
			"0.019": 0.0,
			"0.02": 0.0,
			"0.021": 0.0,
			"0.022": 0.0,
			"0.023": 0.0,
			"0.024": 0.0,
			"0.025": 0.0
		}
	}
}
