{
	 "smiles": "ClCC1=NC=C(S1)C1=CC=CC=C1", 
	 "Tm": 313.15, 
	 "num_atms": 21, 
	 "gaussian": { 
		 "optdone": 1, 
		 "sigma_profile": "yes", 
		 "theory": "DFT", 
		 "functional": "B3LYP", 
		 "basiset": "6-31G**", 
		 "properties": { 
			 "R2extent": 5563.9882, 
			 "electric_dipole_moment_norm": 3.14875844262, 
			 "electric_quadrupole_moment_norm": 11.4227004263, 
			 "total_energy": -1299.01477518, 
			 "HOMO_LUMO_gap": 0.1677, 
			 "cosmo_polarized_energy": -8.47, 
			 "cosmo_cavitation_energy": 28.82, 
			 "cosmo_dispersion_energy": -21.68, 
			 "cosmo_repulsion_energy": 1.67, 
			 "cosmo_total_nonelectrostatic_energy": 8.81, 
			 "SMD_solvation_energy": 2.47 
		},
		"coords": [
			{
				"x": 2.7257129733,
				"y": -2.5600046073,
				"z": -5.0277480261,
				"element": "Cl" 
			},
			{
				"x": 1.0576226133,
				"y": -1.80462912,
				"z": -4.982503883,
				"element": "C" 
			},
			{
				"x": 0.6268353155,
				"y": -1.4395749812,
				"z": -3.6045681502,
				"element": "C" 
			},
			{
				"x": -0.2457007605,
				"y": -2.1314909332,
				"z": -2.9239276409,
				"element": "N" 
			},
			{
				"x": -0.4642439639,
				"y": -1.5766733061,
				"z": -1.6925938509,
				"element": "C" 
			},
			{
				"x": 0.2410209784,
				"y": -0.4336117685,
				"z": -1.3893817964,
				"element": "C" 
			},
			{
				"x": 1.2486469456,
				"y": -0.030590427,
				"z": -2.7603660995,
				"element": "S" 
			},
			{
				"x": 0.2067159361,
				"y": 0.3654359647,
				"z": -0.1589894305,
				"element": "C" 
			},
			{
				"x": 1.3236278318,
				"y": 1.1043587987,
				"z": 0.2697085898,
				"element": "C" 
			},
			{
				"x": 1.2758926895,
				"y": 1.8469206215,
				"z": 1.4476023232,
				"element": "C" 
			},
			{
				"x": 0.1159972787,
				"y": 1.8612784116,
				"z": 2.2246082501,
				"element": "C" 
			},
			{
				"x": -1.0003085809,
				"y": 1.1316354092,
				"z": 1.8095061555,
				"element": "C" 
			},
			{
				"x": -0.9600757744,
				"y": 0.3966316632,
				"z": 0.6271900332,
				"element": "C" 
			},
			{
				"x": 1.1092180131,
				"y": -0.9435857138,
				"z": -5.649028847,
				"element": "H" 
			},
			{
				"x": 0.3670483255,
				"y": -2.5485972754,
				"z": -5.3766404681,
				"element": "H" 
			},
			{
				"x": -1.1501057307,
				"y": -2.0654005051,
				"z": -1.0106087958,
				"element": "H" 
			},
			{
				"x": 2.2395722802,
				"y": 1.0806477409,
				"z": -0.313741247,
				"element": "H" 
			},
			{
				"x": 2.1501651084,
				"y": 2.4090223938,
				"z": 1.7625573477,
				"element": "H" 
			},
			{
				"x": 0.0806812527,
				"y": 2.4387825206,
				"z": 3.1435210229,
				"element": "H" 
			},
			{
				"x": -1.9106638266,
				"y": 1.144408281,
				"z": 2.4017684719,
				"element": "H" 
			},
			{
				"x": -1.8430589049,
				"y": -0.1407631677,
				"z": 0.2957360409,
				"element": "H" 
			}
		],
		 "valence_orbital": [ 
			{
				"type": "occ",
				"energy": -0.29837,
				"method": "rhf"
			},
			{
				"type": "occ",
				"energy": -0.28242,
				"method": "rhf"
			},
			{
				"type": "occ",
				"energy": -0.27589,
				"method": "rhf"
			},
			{
				"type": "occ",
				"energy": -0.26261,
				"method": "rhf"
			},
			{
				"type": "occ",
				"energy": -0.2296,
				"method": "rhf"
			},
			{
				"type": "unocc",
				"energy": -0.0619,
				"method": "rhf"
			},
			{
				"type": "unocc",
				"energy": -0.01523,
				"method": "rhf"
			},
			{
				"type": "unocc",
				"energy": -0.01259,
				"method": "rhf"
			},
			{
				"type": "unocc",
				"energy": 0.01145,
				"method": "rhf"
			},
			{
				"type": "unocc",
				"energy": 0.03597,
				"method": "rhf"
			}
		],
		"cosmo_sigma_profile": { 
			"-0.025": 0.0,
			"-0.024": 0.0,
			"-0.023": 0.0,
			"-0.022": 0.0,
			"-0.021": 0.0,
			"-0.02": 0.0,
			"-0.019": 0.0,
			"-0.018": 0.0,
			"-0.017": 0.0,
			"-0.016": 0.0,
			"-0.015": 0.0,
			"-0.014": 0.0,
			"-0.013": 0.0,
			"-0.012": 0.0,
			"-0.011": 0.0,
			"-0.01": 0.0504808582331,
			"-0.009": 2.89783537179,
			"-0.008": 5.1614988906,
			"-0.007": 7.96095207594,
			"-0.006": 14.5234130689,
			"-0.005": 16.692777098,
			"-0.004": 16.2535532816,
			"-0.003": 12.4973291535,
			"-0.002": 11.3882074145,
			"-0.001": 13.1315771454,
			"0.0": 18.6690250734,
			"0.001": 21.4394766157,
			"0.002": 23.2761672638,
			"0.003": 18.2057250323,
			"0.004": 18.1623867535,
			"0.005": 16.2719468083,
			"0.006": 11.0690979821,
			"0.007": 1.65402703853,
			"0.008": 1.18275213632,
			"0.009": 0.675158473131,
			"0.01": 1.09456553273,
			"0.011": 1.06778009625,
			"0.012": 0.919107511267,
			"0.013": 0.873219387385,
			"0.014": 0.688510477531,
			"0.015": 0.183496619224,
			"0.016": 0.0,
			"0.017": 0.0,
			"0.018": 0.0,
			"0.019": 0.0,
			"0.02": 0.0,
			"0.021": 0.0,
			"0.022": 0.0,
			"0.023": 0.0,
			"0.024": 0.0,
			"0.025": 0.0
		}
	}
}
