{
	 "smiles": "CCOC(=O)C1CC1C1=CC=C(OC)C=C1", 
	 "Tm": 352.15, 
	 "num_atms": 32, 
	 "gaussian": { 
		 "optdone": 1, 
		 "sigma_profile": "yes", 
		 "theory": "DFT", 
		 "functional": "B3LYP", 
		 "basiset": "6-31G**", 
		 "properties": { 
			 "R2extent": 6185.608, 
			 "electric_dipole_moment_norm": 2.93962314932, 
			 "electric_quadrupole_moment_norm": 21.2585332761, 
			 "total_energy": -730.678026914, 
			 "HOMO_LUMO_gap": 0.21258, 
			 "cosmo_polarized_energy": -10.56, 
			 "cosmo_cavitation_energy": 35.87, 
			 "cosmo_dispersion_energy": -25.14, 
			 "cosmo_repulsion_energy": 1.99, 
			 "cosmo_total_nonelectrostatic_energy": 12.72, 
			 "SMD_solvation_energy": 7.56 
		},
		"coords": [
			{
				"x": 2.3654030069,
				"y": -4.8047864432,
				"z": -0.7535426533,
				"element": "C" 
			},
			{
				"x": 3.2179318496,
				"y": -3.6970954892,
				"z": -1.3542390624,
				"element": "C" 
			},
			{
				"x": 2.5864272853,
				"y": -2.404616014,
				"z": -1.2045329138,
				"element": "O" 
			},
			{
				"x": 1.686517222,
				"y": -2.0566636914,
				"z": -2.1615314954,
				"element": "C" 
			},
			{
				"x": 1.4089050364,
				"y": -2.7610631614,
				"z": -3.111725684,
				"element": "O" 
			},
			{
				"x": 1.0849991965,
				"y": -0.7223189096,
				"z": -1.9079139654,
				"element": "C" 
			},
			{
				"x": 1.8792485094,
				"y": 0.3865101235,
				"z": -1.2373508302,
				"element": "C" 
			},
			{
				"x": 0.7688862157,
				"y": -0.2659142313,
				"z": -0.4788079853,
				"element": "C" 
			},
			{
				"x": -0.5237317122,
				"y": 0.432799753,
				"z": -0.1870811978,
				"element": "C" 
			},
			{
				"x": -1.7245758044,
				"y": -0.2971960299,
				"z": -0.127134409,
				"element": "C" 
			},
			{
				"x": -2.9304683705,
				"y": 0.32091948,
				"z": 0.1694652021,
				"element": "C" 
			},
			{
				"x": -2.9717868934,
				"y": 1.7024094879,
				"z": 0.4177060592,
				"element": "C" 
			},
			{
				"x": -4.2050724635,
				"y": 2.2171753562,
				"z": 0.6972073827,
				"element": "O" 
			},
			{
				"x": -4.3077089224,
				"y": 3.6078965264,
				"z": 0.9546169746,
				"element": "C" 
			},
			{
				"x": -1.7889991886,
				"y": 2.4462787806,
				"z": 0.366207524,
				"element": "C" 
			},
			{
				"x": -0.5822322356,
				"y": 1.80425855,
				"z": 0.0675963565,
				"element": "C" 
			},
			{
				"x": 1.4249856617,
				"y": -4.902485687,
				"z": -1.3012386532,
				"element": "H" 
			},
			{
				"x": 2.8986164784,
				"y": -5.7595509225,
				"z": -0.8138381846,
				"element": "H" 
			},
			{
				"x": 2.1448492955,
				"y": -4.6010487984,
				"z": 0.2986542763,
				"element": "H" 
			},
			{
				"x": 4.1718366928,
				"y": -3.5974408575,
				"z": -0.8302379598,
				"element": "H" 
			},
			{
				"x": 3.4030022395,
				"y": -3.8767748555,
				"z": -2.4159107702,
				"element": "H" 
			},
			{
				"x": 0.3810795157,
				"y": -0.4331055649,
				"z": -2.6801436293,
				"element": "H" 
			},
			{
				"x": 2.8987452529,
				"y": 0.1584155941,
				"z": -0.9472852771,
				"element": "H" 
			},
			{
				"x": 1.7233807621,
				"y": 1.3863692983,
				"z": -1.630263263,
				"element": "H" 
			},
			{
				"x": 1.090876315,
				"y": -0.9786878695,
				"z": 0.2777071266,
				"element": "H" 
			},
			{
				"x": -1.7084204393,
				"y": -1.3661158613,
				"z": -0.3240377161,
				"element": "H" 
			},
			{
				"x": -3.8581716737,
				"y": -0.240529568,
				"z": 0.2118495948,
				"element": "H" 
			},
			{
				"x": -5.3637589053,
				"y": 3.8022364621,
				"z": 1.1485353417,
				"element": "H" 
			},
			{
				"x": -3.9839337338,
				"y": 4.2052718427,
				"z": 0.0922937747,
				"element": "H" 
			},
			{
				"x": -3.7199555765,
				"y": 3.902604935,
				"z": 1.8338306306,
				"element": "H" 
			},
			{
				"x": -1.7900803185,
				"y": 3.5129850243,
				"z": 0.5569208177,
				"element": "H" 
			},
			{
				"x": 0.3312057021,
				"y": 2.3917627404,
				"z": 0.0424245886,
				"element": "H" 
			}
		],
		 "valence_orbital": [ 
			{
				"type": "occ",
				"energy": -0.29345,
				"method": "rhf"
			},
			{
				"type": "occ",
				"energy": -0.28853,
				"method": "rhf"
			},
			{
				"type": "occ",
				"energy": -0.259,
				"method": "rhf"
			},
			{
				"type": "occ",
				"energy": -0.25032,
				"method": "rhf"
			},
			{
				"type": "occ",
				"energy": -0.21427,
				"method": "rhf"
			},
			{
				"type": "unocc",
				"energy": -0.00169,
				"method": "rhf"
			},
			{
				"type": "unocc",
				"energy": 0.00117,
				"method": "rhf"
			},
			{
				"type": "unocc",
				"energy": 0.02426,
				"method": "rhf"
			},
			{
				"type": "unocc",
				"energy": 0.09394,
				"method": "rhf"
			},
			{
				"type": "unocc",
				"energy": 0.10123,
				"method": "rhf"
			}
		],
		"cosmo_sigma_profile": { 
			"-0.025": 0.0,
			"-0.024": 0.0,
			"-0.023": 0.0,
			"-0.022": 0.0,
			"-0.021": 0.0,
			"-0.02": 0.0,
			"-0.019": 0.0,
			"-0.018": 0.0,
			"-0.017": 0.0,
			"-0.016": 0.0,
			"-0.015": 0.0,
			"-0.014": 0.0,
			"-0.013": 0.0,
			"-0.012": 0.0,
			"-0.011": 0.0,
			"-0.01": 0.0,
			"-0.009": 0.0,
			"-0.008": 0.0,
			"-0.007": 0.175034691664,
			"-0.006": 9.01424909511,
			"-0.005": 25.5793030689,
			"-0.004": 30.9345810076,
			"-0.003": 34.0516162663,
			"-0.002": 26.35551877,
			"-0.001": 26.4823628961,
			"0.0": 24.4525193891,
			"0.001": 17.5457160035,
			"0.002": 16.1338094744,
			"0.003": 14.1715701144,
			"0.004": 13.6024717895,
			"0.005": 13.6426122009,
			"0.006": 9.76408813871,
			"0.007": 3.25358800941,
			"0.008": 2.4422291244,
			"0.009": 3.22886337793,
			"0.01": 2.7514828988,
			"0.011": 2.5234863099,
			"0.012": 4.19925388649,
			"0.013": 2.59828113878,
			"0.014": 0.299218444106,
			"0.015": 0.0,
			"0.016": 0.0,
			"0.017": 0.0,
			"0.018": 0.0,
			"0.019": 0.0,
			"0.02": 0.0,
			"0.021": 0.0,
			"0.022": 0.0,
			"0.023": 0.0,
			"0.024": 0.0,
			"0.025": 0.0
		}
	}
}
