{
	 "smiles": "COC1=CC(C(N)=S)=C(Br)C=C1", 
	 "Tm": 416.15, 
	 "num_atms": 20, 
	 "gaussian": { 
		 "optdone": 1, 
		 "sigma_profile": "yes", 
		 "theory": "DFT", 
		 "functional": "B3LYP", 
		 "basiset": "6-31G**", 
		 "properties": { 
			 "R2extent": 4267.5893, 
			 "electric_dipole_moment_norm": 3.16701016102, 
			 "electric_quadrupole_moment_norm": 17.6073174621, 
			 "total_energy": -3409.2313118, 
			 "HOMO_LUMO_gap": 0.15012, 
			 "cosmo_polarized_energy": -13.63, 
			 "cosmo_cavitation_energy": 27.86, 
			 "cosmo_dispersion_energy": -21.08, 
			 "cosmo_repulsion_energy": 1.65, 
			 "cosmo_total_nonelectrostatic_energy": 8.43, 
			 "SMD_solvation_energy": 3.61 
		},
		"coords": [
			{
				"x": -2.651697186,
				"y": -0.2962935608,
				"z": -2.2465480843,
				"element": "C" 
			},
			{
				"x": -1.5348826168,
				"y": 0.506334497,
				"z": -2.6114340483,
				"element": "O" 
			},
			{
				"x": -0.397190125,
				"y": 0.4008112582,
				"z": -1.8752594893,
				"element": "C" 
			},
			{
				"x": -0.2520291669,
				"y": -0.4187735313,
				"z": -0.7567841597,
				"element": "C" 
			},
			{
				"x": 0.9540498707,
				"y": -0.4706215475,
				"z": -0.0320834345,
				"element": "C" 
			},
			{
				"x": 0.9806181897,
				"y": -1.3787580749,
				"z": 1.1621479722,
				"element": "C" 
			},
			{
				"x": 1.5243260747,
				"y": -0.8694017911,
				"z": 2.2820927829,
				"element": "N" 
			},
			{
				"x": 0.319622071,
				"y": -2.9117781213,
				"z": 1.1261737238,
				"element": "S" 
			},
			{
				"x": 2.0239023699,
				"y": 0.3195137408,
				"z": -0.4828605594,
				"element": "C" 
			},
			{
				"x": 3.7673683186,
				"y": 0.3085807155,
				"z": 0.3312661773,
				"element": "Br" 
			},
			{
				"x": 1.8864092222,
				"y": 1.132075059,
				"z": -1.6130578862,
				"element": "C" 
			},
			{
				"x": 0.685620212,
				"y": 1.1842379002,
				"z": -2.3025708365,
				"element": "C" 
			},
			{
				"x": -2.4115945853,
				"y": -1.3651313014,
				"z": -2.2954134725,
				"element": "H" 
			},
			{
				"x": -3.4332906837,
				"y": -0.0667164694,
				"z": -2.9717099875,
				"element": "H" 
			},
			{
				"x": -3.0097736795,
				"y": -0.0528716322,
				"z": -1.2385594331,
				"element": "H" 
			},
			{
				"x": -1.058080362,
				"y": -1.0533394343,
				"z": -0.4135975534,
				"element": "H" 
			},
			{
				"x": 1.6235978241,
				"y": -1.4791681189,
				"z": 3.0811785479,
				"element": "H" 
			},
			{
				"x": 2.017343463,
				"y": 0.0119147803,
				"z": 2.2806165505,
				"element": "H" 
			},
			{
				"x": 2.7324817847,
				"y": 1.7189724784,
				"z": -1.9511871305,
				"element": "H" 
			},
			{
				"x": 0.5682990047,
				"y": 1.8148131536,
				"z": -3.1773096794,
				"element": "H" 
			}
		],
		 "valence_orbital": [ 
			{
				"type": "occ",
				"energy": -0.29863,
				"method": "rhf"
			},
			{
				"type": "occ",
				"energy": -0.27425,
				"method": "rhf"
			},
			{
				"type": "occ",
				"energy": -0.23386,
				"method": "rhf"
			},
			{
				"type": "occ",
				"energy": -0.22867,
				"method": "rhf"
			},
			{
				"type": "occ",
				"energy": -0.2101,
				"method": "rhf"
			},
			{
				"type": "unocc",
				"energy": -0.05998,
				"method": "rhf"
			},
			{
				"type": "unocc",
				"energy": -0.01376,
				"method": "rhf"
			},
			{
				"type": "unocc",
				"energy": -0.00684,
				"method": "rhf"
			},
			{
				"type": "unocc",
				"energy": 0.00861,
				"method": "rhf"
			},
			{
				"type": "unocc",
				"energy": 0.08072,
				"method": "rhf"
			}
		],
		"cosmo_sigma_profile": { 
			"-0.025": 0.0,
			"-0.024": 0.0,
			"-0.023": 0.0,
			"-0.022": 0.0,
			"-0.021": 0.0,
			"-0.02": 0.0,
			"-0.019": 0.0,
			"-0.018": 0.0,
			"-0.017": 0.0,
			"-0.016": 0.0842346913068,
			"-0.015": 1.21216161632,
			"-0.014": 1.37771197721,
			"-0.013": 2.60473195441,
			"-0.012": 2.53781712313,
			"-0.011": 1.54693674068,
			"-0.01": 2.19033323162,
			"-0.009": 1.84063863771,
			"-0.008": 1.85944267458,
			"-0.007": 5.7076875441,
			"-0.006": 12.5263016768,
			"-0.005": 15.4371749915,
			"-0.004": 15.0515246333,
			"-0.003": 13.3277844472,
			"-0.002": 11.4267870806,
			"-0.001": 12.5447451351,
			"0.0": 13.5737320453,
			"0.001": 18.0978037045,
			"0.002": 23.4686120909,
			"0.003": 17.6931790976,
			"0.004": 12.2127568203,
			"0.005": 6.01294356743,
			"0.006": 7.0055584525,
			"0.007": 5.68467145345,
			"0.008": 7.36142950791,
			"0.009": 7.04652415173,
			"0.01": 4.47861315542,
			"0.011": 3.53746693569,
			"0.012": 0.966616377799,
			"0.013": 0.0,
			"0.014": 0.0,
			"0.015": 0.0,
			"0.016": 0.0,
			"0.017": 0.0,
			"0.018": 0.0,
			"0.019": 0.0,
			"0.02": 0.0,
			"0.021": 0.0,
			"0.022": 0.0,
			"0.023": 0.0,
			"0.024": 0.0,
			"0.025": 0.0
		}
	}
}
