{
	 "smiles": "COC1=CC2=C(CCN(C)C2C)C(O)=C1OC", 
	 "Tm": 425.15, 
	 "num_atms": 36, 
	 "gaussian": { 
		 "optdone": 1, 
		 "sigma_profile": "yes", 
		 "theory": "DFT", 
		 "functional": "B3LYP", 
		 "basiset": "6-31G**", 
		 "properties": { 
			 "R2extent": 5164.1715, 
			 "electric_dipole_moment_norm": 1.9109259274, 
			 "electric_quadrupole_moment_norm": 5.07468997477, 
			 "total_energy": -787.221416609, 
			 "HOMO_LUMO_gap": 0.20718, 
			 "cosmo_polarized_energy": -9.05, 
			 "cosmo_cavitation_energy": 35.88, 
			 "cosmo_dispersion_energy": -25.72, 
			 "cosmo_repulsion_energy": 1.99, 
			 "cosmo_total_nonelectrostatic_energy": 12.15, 
			 "SMD_solvation_energy": 4.87 
		},
		"coords": [
			{
				"x": 0.9535834608,
				"y": -1.8739920257,
				"z": 2.3475201104,
				"element": "C" 
			},
			{
				"x": 1.1005445346,
				"y": -0.7205276367,
				"z": 1.5128246809,
				"element": "O" 
			},
			{
				"x": 0.1165991723,
				"y": -0.5802985961,
				"z": 0.5544032522,
				"element": "C" 
			},
			{
				"x": -0.8010763463,
				"y": 0.4636353822,
				"z": 0.6622201457,
				"element": "C" 
			},
			{
				"x": -1.7964715583,
				"y": 0.6590609071,
				"z": -0.305672794,
				"element": "C" 
			},
			{
				"x": -1.8892752627,
				"y": -0.2230419916,
				"z": -1.3987859144,
				"element": "C" 
			},
			{
				"x": -2.9389148883,
				"y": -0.0693133785,
				"z": -2.4792883469,
				"element": "C" 
			},
			{
				"x": -4.0060357197,
				"y": 0.9702145554,
				"z": -2.094625242,
				"element": "C" 
			},
			{
				"x": -3.459230323,
				"y": 2.1607748263,
				"z": -1.4421520668,
				"element": "N" 
			},
			{
				"x": -2.5996167364,
				"y": 2.942546662,
				"z": -2.3287815406,
				"element": "C" 
			},
			{
				"x": -2.841680238,
				"y": 1.7782994293,
				"z": -0.159651032,
				"element": "C" 
			},
			{
				"x": -2.3388930078,
				"y": 3.0085083043,
				"z": 0.6056277442,
				"element": "C" 
			},
			{
				"x": -0.9489429965,
				"y": -1.2574524141,
				"z": -1.5080933445,
				"element": "C" 
			},
			{
				"x": -1.0118143043,
				"y": -2.1065638031,
				"z": -2.5733915647,
				"element": "O" 
			},
			{
				"x": 0.0547604182,
				"y": -1.4384086815,
				"z": -0.5482729496,
				"element": "C" 
			},
			{
				"x": 0.9204957808,
				"y": -2.5046992102,
				"z": -0.7468247791,
				"element": "O" 
			},
			{
				"x": 2.2825496916,
				"y": -2.124352798,
				"z": -1.0062673009,
				"element": "C" 
			},
			{
				"x": 0.0056564543,
				"y": -1.8371278911,
				"z": 2.8990238003,
				"element": "H" 
			},
			{
				"x": 1.7840094717,
				"y": -1.8485155144,
				"z": 3.0564885117,
				"element": "H" 
			},
			{
				"x": 0.9960010239,
				"y": -2.7998170335,
				"z": 1.7638467338,
				"element": "H" 
			},
			{
				"x": -0.7113392033,
				"y": 1.1167212569,
				"z": 1.5224686543,
				"element": "H" 
			},
			{
				"x": -3.4081561866,
				"y": -1.0387022671,
				"z": -2.6851496864,
				"element": "H" 
			},
			{
				"x": -2.4471151954,
				"y": 0.2172061454,
				"z": -3.4190692598,
				"element": "H" 
			},
			{
				"x": -4.7256668356,
				"y": 0.5184481732,
				"z": -1.3997449164,
				"element": "H" 
			},
			{
				"x": -4.5707677312,
				"y": 1.2796656531,
				"z": -2.981742118,
				"element": "H" 
			},
			{
				"x": -2.3687690236,
				"y": 3.9091402183,
				"z": -1.8733224082,
				"element": "H" 
			},
			{
				"x": -1.6440410409,
				"y": 2.4579312163,
				"z": -2.5935832313,
				"element": "H" 
			},
			{
				"x": -3.144877583,
				"y": 3.1411329708,
				"z": -3.2573216074,
				"element": "H" 
			},
			{
				"x": -3.6694077158,
				"y": 1.3600023872,
				"z": 0.4341919623,
				"element": "H" 
			},
			{
				"x": -3.099117664,
				"y": 3.7935520791,
				"z": 0.561712132,
				"element": "H" 
			},
			{
				"x": -2.1659882583,
				"y": 2.7696193083,
				"z": 1.6581260415,
				"element": "H" 
			},
			{
				"x": -1.4031137928,
				"y": 3.4000447259,
				"z": 0.1962099392,
				"element": "H" 
			},
			{
				"x": -0.3157023334,
				"y": -2.768207632,
				"z": -2.4244626612,
				"element": "H" 
			},
			{
				"x": 2.6993310661,
				"y": -1.5767876035,
				"z": -0.1569219124,
				"element": "H" 
			},
			{
				"x": 2.836192324,
				"y": -3.052936144,
				"z": -1.1605224149,
				"element": "H" 
			},
			{
				"x": 2.3478905469,
				"y": -1.5034595799,
				"z": -1.9079166169,
				"element": "H" 
			}
		],
		 "valence_orbital": [ 
			{
				"type": "occ",
				"energy": -0.29254,
				"method": "rhf"
			},
			{
				"type": "occ",
				"energy": -0.26644,
				"method": "rhf"
			},
			{
				"type": "occ",
				"energy": -0.21968,
				"method": "rhf"
			},
			{
				"type": "occ",
				"energy": -0.20906,
				"method": "rhf"
			},
			{
				"type": "occ",
				"energy": -0.19957,
				"method": "rhf"
			},
			{
				"type": "unocc",
				"energy": 0.00761,
				"method": "rhf"
			},
			{
				"type": "unocc",
				"energy": 0.01771,
				"method": "rhf"
			},
			{
				"type": "unocc",
				"energy": 0.06806,
				"method": "rhf"
			},
			{
				"type": "unocc",
				"energy": 0.09272,
				"method": "rhf"
			},
			{
				"type": "unocc",
				"energy": 0.11271,
				"method": "rhf"
			}
		],
		"cosmo_sigma_profile": { 
			"-0.025": 0.0,
			"-0.024": 0.0,
			"-0.023": 0.0,
			"-0.022": 0.0,
			"-0.021": 0.0,
			"-0.02": 0.0,
			"-0.019": 0.0,
			"-0.018": 0.0,
			"-0.017": 0.0,
			"-0.016": 0.0,
			"-0.015": 0.0,
			"-0.014": 0.0,
			"-0.013": 0.839773258619,
			"-0.012": 0.455307513899,
			"-0.011": 0.806816584322,
			"-0.01": 0.108951666161,
			"-0.009": 0.656624780762,
			"-0.008": 1.23477308628,
			"-0.007": 0.825348136197,
			"-0.006": 3.21516649914,
			"-0.005": 10.5406946723,
			"-0.004": 22.2890807001,
			"-0.003": 39.5621977232,
			"-0.002": 40.1532783695,
			"-0.001": 34.3894168406,
			"0.0": 28.7337447731,
			"0.001": 18.6385646947,
			"0.002": 14.0210394728,
			"0.003": 11.2870933687,
			"0.004": 13.1186628423,
			"0.005": 10.4245810037,
			"0.006": 5.64823229454,
			"0.007": 4.10488862728,
			"0.008": 5.0638069435,
			"0.009": 3.29559759294,
			"0.01": 3.48646564367,
			"0.011": 3.48087634678,
			"0.012": 1.78236338041,
			"0.013": 0.472807302903,
			"0.014": 0.715525230427,
			"0.015": 0.175066408915,
			"0.016": 0.469120793813,
			"0.017": 0.143585606375,
			"0.018": 0.0,
			"0.019": 0.0,
			"0.02": 0.0,
			"0.021": 0.0,
			"0.022": 0.0,
			"0.023": 0.0,
			"0.024": 0.0,
			"0.025": 0.0
		}
	}
}
