{
	 "smiles": "CCC1=CC=CC(C)=C1N", 
	 "Tm": 248.15, 
	 "num_atms": 23, 
	 "gaussian": { 
		 "optdone": 1, 
		 "sigma_profile": "yes", 
		 "theory": "DFT", 
		 "functional": "B3LYP", 
		 "basiset": "6-31G**", 
		 "properties": { 
			 "R2extent": 1882.8721, 
			 "electric_dipole_moment_norm": 1.73284486899, 
			 "electric_quadrupole_moment_norm": 6.2053325487, 
			 "total_energy": -405.563461047, 
			 "HOMO_LUMO_gap": 0.20702, 
			 "cosmo_polarized_energy": -7.22, 
			 "cosmo_cavitation_energy": 24.72, 
			 "cosmo_dispersion_energy": -18.23, 
			 "cosmo_repulsion_energy": 1.48, 
			 "cosmo_total_nonelectrostatic_energy": 7.97, 
			 "SMD_solvation_energy": 3.99 
		},
		"coords": [
			{
				"x": -1.0175749517,
				"y": 2.3135268065,
				"z": 2.7508129269,
				"element": "C" 
			},
			{
				"x": -1.2996409536,
				"y": 0.7977293486,
				"z": 2.7625948844,
				"element": "C" 
			},
			{
				"x": -1.3960368782,
				"y": 0.1833173907,
				"z": 1.380322828,
				"element": "C" 
			},
			{
				"x": -2.6466198028,
				"y": -0.0277252451,
				"z": 0.7919205501,
				"element": "C" 
			},
			{
				"x": -2.7715732005,
				"y": -0.5768494494,
				"z": -0.4826336201,
				"element": "C" 
			},
			{
				"x": -1.6184908675,
				"y": -0.9319607853,
				"z": -1.1811282948,
				"element": "C" 
			},
			{
				"x": -0.3479511326,
				"y": -0.7437201455,
				"z": -0.6325102274,
				"element": "C" 
			},
			{
				"x": 0.8913008805,
				"y": -1.1500317132,
				"z": -1.3929835445,
				"element": "C" 
			},
			{
				"x": -0.2354272355,
				"y": -0.1740553991,
				"z": 0.6567276289,
				"element": "C" 
			},
			{
				"x": 1.0343428196,
				"y": -0.0335067494,
				"z": 1.2370130235,
				"element": "N" 
			},
			{
				"x": -1.8181494927,
				"y": 2.8494341805,
				"z": 2.231676263,
				"element": "H" 
			},
			{
				"x": -0.0826085088,
				"y": 2.553391874,
				"z": 2.2315325208,
				"element": "H" 
			},
			{
				"x": -0.9457025005,
				"y": 2.710297983,
				"z": 3.7692270602,
				"element": "H" 
			},
			{
				"x": -2.2425530194,
				"y": 0.6223674105,
				"z": 3.2922336759,
				"element": "H" 
			},
			{
				"x": -0.5283406414,
				"y": 0.283249564,
				"z": 3.3511971058,
				"element": "H" 
			},
			{
				"x": -3.5377116047,
				"y": 0.2446552431,
				"z": 1.3533612053,
				"element": "H" 
			},
			{
				"x": -3.7520014823,
				"y": -0.7341424026,
				"z": -0.921666664,
				"element": "H" 
			},
			{
				"x": -1.6986670896,
				"y": -1.3686377049,
				"z": -2.1738764567,
				"element": "H" 
			},
			{
				"x": 1.5441771775,
				"y": -0.2924471056,
				"z": -1.6128685575,
				"element": "H" 
			},
			{
				"x": 1.4934257998,
				"y": -1.8751270578,
				"z": -0.8305520355,
				"element": "H" 
			},
			{
				"x": 0.6298599783,
				"y": -1.6064172533,
				"z": -2.3509609921,
				"element": "H" 
			},
			{
				"x": 1.1051578547,
				"y": 0.6737978869,
				"z": 1.9533999012,
				"element": "H" 
			},
			{
				"x": 1.7978848513,
				"y": 0.0347533235,
				"z": 0.5792608187,
				"element": "H" 
			}
		],
		 "valence_orbital": [ 
			{
				"type": "occ",
				"energy": -0.32814,
				"method": "rhf"
			},
			{
				"type": "occ",
				"energy": -0.31832,
				"method": "rhf"
			},
			{
				"type": "occ",
				"energy": -0.29803,
				"method": "rhf"
			},
			{
				"type": "occ",
				"energy": -0.22608,
				"method": "rhf"
			},
			{
				"type": "occ",
				"energy": -0.19233,
				"method": "rhf"
			},
			{
				"type": "unocc",
				"energy": 0.01469,
				"method": "rhf"
			},
			{
				"type": "unocc",
				"energy": 0.02485,
				"method": "rhf"
			},
			{
				"type": "unocc",
				"energy": 0.07255,
				"method": "rhf"
			},
			{
				"type": "unocc",
				"energy": 0.10471,
				"method": "rhf"
			},
			{
				"type": "unocc",
				"energy": 0.10934,
				"method": "rhf"
			}
		],
		"cosmo_sigma_profile": { 
			"-0.025": 0.0,
			"-0.024": 0.0,
			"-0.023": 0.0,
			"-0.022": 0.0,
			"-0.021": 0.0,
			"-0.02": 0.0,
			"-0.019": 0.0,
			"-0.018": 0.0,
			"-0.017": 0.0,
			"-0.016": 0.0,
			"-0.015": 0.0,
			"-0.014": 0.0,
			"-0.013": 0.0,
			"-0.012": 0.0478976026917,
			"-0.011": 1.32139621017,
			"-0.01": 2.25363105966,
			"-0.009": 2.93905210339,
			"-0.008": 3.34905490012,
			"-0.007": 2.57442533706,
			"-0.006": 2.8955175959,
			"-0.005": 4.6447501513,
			"-0.004": 14.0028473293,
			"-0.003": 19.5622337778,
			"-0.002": 20.3217186029,
			"-0.001": 21.5064011267,
			"0.0": 22.5353281767,
			"0.001": 19.1936765234,
			"0.002": 8.94919709139,
			"0.003": 7.76502981278,
			"0.004": 7.27225937194,
			"0.005": 6.521947815,
			"0.006": 8.00473076429,
			"0.007": 7.54864609405,
			"0.008": 6.13876641561,
			"0.009": 0.912441881437,
			"0.01": 0.295031814434,
			"0.011": 0.951994325055,
			"0.012": 1.06076232024,
			"0.013": 0.316667864688,
			"0.014": 0.449256703494,
			"0.015": 0.387745801839,
			"0.016": 0.0152667487331,
			"0.017": 0.0,
			"0.018": 0.0,
			"0.019": 0.0,
			"0.02": 0.0,
			"0.021": 0.0,
			"0.022": 0.0,
			"0.023": 0.0,
			"0.024": 0.0,
			"0.025": 0.0
		}
	}
}
