{
	 "smiles": "CC(C)COC(=O)C1=C(C)NC(=O)NC1C1=CC=C2OCOC2=C1", 
	 "Tm": 451.15, 
	 "num_atms": 44, 
	 "gaussian": { 
		 "optdone": 1, 
		 "sigma_profile": "yes", 
		 "theory": "DFT", 
		 "functional": "B3LYP", 
		 "basiset": "6-31G**", 
		 "properties": { 
			 "R2extent": 9319.3069, 
			 "electric_dipole_moment_norm": 2.34763494607, 
			 "electric_quadrupole_moment_norm": 19.3559876521, 
			 "total_energy": -1145.50696948, 
			 "HOMO_LUMO_gap": 0.16814, 
			 "cosmo_polarized_energy": -19.2, 
			 "cosmo_cavitation_energy": 46.83, 
			 "cosmo_dispersion_energy": -31.88, 
			 "cosmo_repulsion_energy": 2.47, 
			 "cosmo_total_nonelectrostatic_energy": 17.43, 
			 "SMD_solvation_energy": 9.62 
		},
		"coords": [
			{
				"x": -2.4530964014,
				"y": 1.3196894749,
				"z": -3.0824139097,
				"element": "C" 
			},
			{
				"x": -0.9998790199,
				"y": 1.0565214547,
				"z": -3.4975099766,
				"element": "C" 
			},
			{
				"x": -0.5420805205,
				"y": 2.0275055101,
				"z": -4.5956647065,
				"element": "C" 
			},
			{
				"x": -0.040778663,
				"y": 1.1536266481,
				"z": -2.3067393354,
				"element": "C" 
			},
			{
				"x": -0.3806180863,
				"y": 0.234866926,
				"z": -1.2461449066,
				"element": "O" 
			},
			{
				"x": 0.136259585,
				"y": -1.0222785622,
				"z": -1.3360336167,
				"element": "C" 
			},
			{
				"x": 0.8265771447,
				"y": -1.3688825883,
				"z": -2.2831060207,
				"element": "O" 
			},
			{
				"x": -0.2570964415,
				"y": -1.8307887062,
				"z": -0.1674871447,
				"element": "C" 
			},
			{
				"x": 0.0455988851,
				"y": -3.1561588259,
				"z": -0.0583755599,
				"element": "C" 
			},
			{
				"x": 0.8124764243,
				"y": -4.00228811,
				"z": -1.0368991042,
				"element": "C" 
			},
			{
				"x": -0.3748367001,
				"y": -3.857748315,
				"z": 1.0591189928,
				"element": "N" 
			},
			{
				"x": -1.3182870963,
				"y": -3.4049047775,
				"z": 1.9896300868,
				"element": "C" 
			},
			{
				"x": -1.7483198487,
				"y": -4.1398941134,
				"z": 2.8661273872,
				"element": "O" 
			},
			{
				"x": -1.7191158069,
				"y": -2.1180988894,
				"z": 1.7786788502,
				"element": "N" 
			},
			{
				"x": -1.0033791089,
				"y": -1.1248701196,
				"z": 0.960433268,
				"element": "C" 
			},
			{
				"x": -0.107776769,
				"y": -0.2226785361,
				"z": 1.8168126371,
				"element": "C" 
			},
			{
				"x": 1.0601347746,
				"y": -0.7182941441,
				"z": 2.4066379391,
				"element": "C" 
			},
			{
				"x": 1.8704140762,
				"y": 0.0778098753,
				"z": 3.2336700099,
				"element": "C" 
			},
			{
				"x": 1.4612531539,
				"y": 1.3812215049,
				"z": 3.441359111,
				"element": "C" 
			},
			{
				"x": 2.0764916914,
				"y": 2.3661105297,
				"z": 4.1764726625,
				"element": "O" 
			},
			{
				"x": 1.1742392185,
				"y": 3.4786353969,
				"z": 4.1641386203,
				"element": "C" 
			},
			{
				"x": 0.1480638946,
				"y": 3.2076636333,
				"z": 3.2019757068,
				"element": "O" 
			},
			{
				"x": 0.3030833143,
				"y": 1.8853674241,
				"z": 2.8567189112,
				"element": "C" 
			},
			{
				"x": -0.5006556835,
				"y": 1.1130202739,
				"z": 2.0420430991,
				"element": "C" 
			},
			{
				"x": -2.7728483121,
				"y": 0.631607431,
				"z": -2.2946542548,
				"element": "H" 
			},
			{
				"x": -3.1307974986,
				"y": 1.1974297694,
				"z": -3.9337707945,
				"element": "H" 
			},
			{
				"x": -2.5741434863,
				"y": 2.3429564253,
				"z": -2.7051212077,
				"element": "H" 
			},
			{
				"x": -0.9219058521,
				"y": 0.0340519886,
				"z": -3.8874626854,
				"element": "H" 
			},
			{
				"x": -0.5730585731,
				"y": 3.066242335,
				"z": -4.2439411413,
				"element": "H" 
			},
			{
				"x": -1.1941656797,
				"y": 1.9576469707,
				"z": -5.4720350966,
				"element": "H" 
			},
			{
				"x": 0.48112737,
				"y": 1.8133001416,
				"z": -4.922400476,
				"element": "H" 
			},
			{
				"x": -0.098887961,
				"y": 2.1425649133,
				"z": -1.8405110814,
				"element": "H" 
			},
			{
				"x": 0.9864849858,
				"y": 0.9599676735,
				"z": -2.6245297919,
				"element": "H" 
			},
			{
				"x": 1.1568535871,
				"y": -3.4134343364,
				"z": -1.8815254276,
				"element": "H" 
			},
			{
				"x": 1.675734418,
				"y": -4.4538310595,
				"z": -0.5326860794,
				"element": "H" 
			},
			{
				"x": 0.1765149003,
				"y": -4.821654502,
				"z": -1.3937146216,
				"element": "H" 
			},
			{
				"x": -0.1730628561,
				"y": -4.8445372878,
				"z": 1.1335389055,
				"element": "H" 
			},
			{
				"x": -2.3122728074,
				"y": -1.7632916492,
				"z": 2.5162230007,
				"element": "H" 
			},
			{
				"x": -1.7667756533,
				"y": -0.483856594,
				"z": 0.5115534653,
				"element": "H" 
			},
			{
				"x": 1.3542053691,
				"y": -1.7468929597,
				"z": 2.2233222699,
				"element": "H" 
			},
			{
				"x": 2.7766079695,
				"y": -0.3077405062,
				"z": 3.6869769622,
				"element": "H" 
			},
			{
				"x": 0.7225603291,
				"y": 3.5958782184,
				"z": 5.1598145652,
				"element": "H" 
			},
			{
				"x": 1.7160858353,
				"y": 4.3843103422,
				"z": 3.8742649046,
				"element": "H" 
			},
			{
				"x": -1.3937281013,
				"y": 1.5238297217,
				"z": 1.582815584,
				"element": "H" 
			}
		],
		 "valence_orbital": [ 
			{
				"type": "occ",
				"energy": -0.26552,
				"method": "rhf"
			},
			{
				"type": "occ",
				"energy": -0.2561,
				"method": "rhf"
			},
			{
				"type": "occ",
				"energy": -0.24868,
				"method": "rhf"
			},
			{
				"type": "occ",
				"energy": -0.22795,
				"method": "rhf"
			},
			{
				"type": "occ",
				"energy": -0.20695,
				"method": "rhf"
			},
			{
				"type": "unocc",
				"energy": -0.03881,
				"method": "rhf"
			},
			{
				"type": "unocc",
				"energy": -0.00204,
				"method": "rhf"
			},
			{
				"type": "unocc",
				"energy": 0.00315,
				"method": "rhf"
			},
			{
				"type": "unocc",
				"energy": 0.06042,
				"method": "rhf"
			},
			{
				"type": "unocc",
				"energy": 0.07244,
				"method": "rhf"
			}
		],
		"cosmo_sigma_profile": { 
			"-0.025": 0.0,
			"-0.024": 0.0,
			"-0.023": 0.0,
			"-0.022": 0.0,
			"-0.021": 0.0,
			"-0.02": 0.0,
			"-0.019": 0.0,
			"-0.018": 0.0,
			"-0.017": 0.0,
			"-0.016": 0.124444939023,
			"-0.015": 0.719680262926,
			"-0.014": 1.62615668737,
			"-0.013": 1.94216511002,
			"-0.012": 2.15715765928,
			"-0.011": 1.88853689332,
			"-0.01": 2.07839490447,
			"-0.009": 2.46520337549,
			"-0.008": 3.89663963369,
			"-0.007": 12.3704110001,
			"-0.006": 17.8316275422,
			"-0.005": 15.5599785911,
			"-0.004": 20.3423429301,
			"-0.003": 29.5749198574,
			"-0.002": 34.4613221517,
			"-0.001": 34.8964025486,
			"0.0": 35.4127506469,
			"0.001": 33.7297238936,
			"0.002": 23.9202563994,
			"0.003": 20.0308742325,
			"0.004": 16.0356236001,
			"0.005": 10.3365342409,
			"0.006": 7.25701276954,
			"0.007": 5.93376298658,
			"0.008": 5.03548484226,
			"0.009": 6.84294314594,
			"0.01": 4.08552696391,
			"0.011": 3.51635918906,
			"0.012": 4.47891763913,
			"0.013": 5.69244527262,
			"0.014": 5.04906144615,
			"0.015": 0.187925510504,
			"0.016": 0.0,
			"0.017": 0.0,
			"0.018": 0.0,
			"0.019": 0.0,
			"0.02": 0.0,
			"0.021": 0.0,
			"0.022": 0.0,
			"0.023": 0.0,
			"0.024": 0.0,
			"0.025": 0.0
		}
	}
}
