{
	 "smiles": "CC(=O)C1=CC=C(OC2OC(CO)C(O)C(O)C2O)C=C1", 
	 "Tm": 469.15, 
	 "num_atms": 39, 
	 "gaussian": { 
		 "optdone": 1, 
		 "sigma_profile": "yes", 
		 "theory": "DFT", 
		 "functional": "B3LYP", 
		 "basiset": "6-31G**", 
		 "properties": { 
			 "R2extent": 8652.5781, 
			 "electric_dipole_moment_norm": 4.42314182115, 
			 "electric_quadrupole_moment_norm": 17.9446858482, 
			 "total_energy": -1070.87141111, 
			 "HOMO_LUMO_gap": 0.18892, 
			 "cosmo_polarized_energy": -22.62, 
			 "cosmo_cavitation_energy": 41.67, 
			 "cosmo_dispersion_energy": -29.09, 
			 "cosmo_repulsion_energy": 2.24, 
			 "cosmo_total_nonelectrostatic_energy": 14.82, 
			 "SMD_solvation_energy": 7.46 
		},
		"coords": [
			{
				"x": 1.6713464666,
				"y": -5.1418831113,
				"z": -2.6049797054,
				"element": "C" 
			},
			{
				"x": 1.9659733642,
				"y": -4.6397208913,
				"z": -1.1997078825,
				"element": "C" 
			},
			{
				"x": 2.8038087066,
				"y": -5.2000074306,
				"z": -0.5066763555,
				"element": "O" 
			},
			{
				"x": 1.215299168,
				"y": -3.4553416149,
				"z": -0.6840778881,
				"element": "C" 
			},
			{
				"x": 1.4895838254,
				"y": -3.0062401029,
				"z": 0.6208695692,
				"element": "C" 
			},
			{
				"x": 0.8215017002,
				"y": -1.9167331139,
				"z": 1.154425553,
				"element": "C" 
			},
			{
				"x": -0.1408842868,
				"y": -1.2438124483,
				"z": 0.386257425,
				"element": "C" 
			},
			{
				"x": -0.7457485967,
				"y": -0.1777555108,
				"z": 0.9994001245,
				"element": "O" 
			},
			{
				"x": -1.9625564218,
				"y": 0.3227762027,
				"z": 0.4806475445,
				"element": "C" 
			},
			{
				"x": -1.7673470814,
				"y": 1.1113378285,
				"z": -0.6787950983,
				"element": "O" 
			},
			{
				"x": -0.9438447808,
				"y": 2.2839912085,
				"z": -0.4868254209,
				"element": "C" 
			},
			{
				"x": -0.8397473887,
				"y": 2.9356002446,
				"z": -1.8603926235,
				"element": "C" 
			},
			{
				"x": -2.100026056,
				"y": 3.368284262,
				"z": -2.3453188641,
				"element": "O" 
			},
			{
				"x": -1.5898493233,
				"y": 3.1899017651,
				"z": 0.5736034068,
				"element": "C" 
			},
			{
				"x": -0.7570577192,
				"y": 4.3038939508,
				"z": 0.8972780437,
				"element": "O" 
			},
			{
				"x": -1.8049792374,
				"y": 2.4049624948,
				"z": 1.8621378851,
				"element": "C" 
			},
			{
				"x": -2.5189102758,
				"y": 3.1611369643,
				"z": 2.8306383187,
				"element": "O" 
			},
			{
				"x": -2.6365228386,
				"y": 1.1574533059,
				"z": 1.5754234223,
				"element": "C" 
			},
			{
				"x": -2.828618064,
				"y": 0.3671851038,
				"z": 2.7255764256,
				"element": "O" 
			},
			{
				"x": -0.4199364023,
				"y": -1.6630798727,
				"z": -0.9203402563,
				"element": "C" 
			},
			{
				"x": 0.2554420281,
				"y": -2.7678880683,
				"z": -1.4388103998,
				"element": "C" 
			},
			{
				"x": 2.3049425332,
				"y": -6.0063992504,
				"z": -2.804795294,
				"element": "H" 
			},
			{
				"x": 1.8719205965,
				"y": -4.3653440487,
				"z": -3.3514968855,
				"element": "H" 
			},
			{
				"x": 0.6195945544,
				"y": -5.4308095458,
				"z": -2.7083930481,
				"element": "H" 
			},
			{
				"x": 2.2334358056,
				"y": -3.5432432751,
				"z": 1.1997835583,
				"element": "H" 
			},
			{
				"x": 1.0132153,
				"y": -1.5698842851,
				"z": 2.1643555859,
				"element": "H" 
			},
			{
				"x": -2.604451912,
				"y": -0.508331373,
				"z": 0.1707171602,
				"element": "H" 
			},
			{
				"x": 0.0571828699,
				"y": 1.9878583707,
				"z": -0.1470399973,
				"element": "H" 
			},
			{
				"x": -0.2002242504,
				"y": 3.8213877599,
				"z": -1.7918107148,
				"element": "H" 
			},
			{
				"x": -0.3582523003,
				"y": 2.2286190549,
				"z": -2.5519083726,
				"element": "H" 
			},
			{
				"x": -2.6708043281,
				"y": 2.5868522962,
				"z": -2.3474642498,
				"element": "H" 
			},
			{
				"x": -2.5623661238,
				"y": 3.529980633,
				"z": 0.1959888709,
				"element": "H" 
			},
			{
				"x": -0.9471304449,
				"y": 5.0141677712,
				"z": 0.2720927357,
				"element": "H" 
			},
			{
				"x": -0.8262038133,
				"y": 2.0965598917,
				"z": 2.2587611394,
				"element": "H" 
			},
			{
				"x": -2.0129099824,
				"y": 3.9745857116,
				"z": 2.9662997128,
				"element": "H" 
			},
			{
				"x": -3.6021605933,
				"y": 1.487947846,
				"z": 1.1572827889,
				"element": "H" 
			},
			{
				"x": -3.0710064007,
				"y": 0.9827801556,
				"z": 3.4325286302,
				"element": "H" 
			},
			{
				"x": -1.125569259,
				"y": -1.117090874,
				"z": -1.5339887564,
				"element": "H" 
			},
			{
				"x": 0.0292609623,
				"y": -3.0818980049,
				"z": -2.4528460878,
				"element": "H" 
			}
		],
		 "valence_orbital": [ 
			{
				"type": "occ",
				"energy": -0.27552,
				"method": "rhf"
			},
			{
				"type": "occ",
				"energy": -0.27081,
				"method": "rhf"
			},
			{
				"type": "occ",
				"energy": -0.26113,
				"method": "rhf"
			},
			{
				"type": "occ",
				"energy": -0.24261,
				"method": "rhf"
			},
			{
				"type": "occ",
				"energy": -0.2362,
				"method": "rhf"
			},
			{
				"type": "unocc",
				"energy": -0.04728,
				"method": "rhf"
			},
			{
				"type": "unocc",
				"energy": -0.01058,
				"method": "rhf"
			},
			{
				"type": "unocc",
				"energy": 0.04402,
				"method": "rhf"
			},
			{
				"type": "unocc",
				"energy": 0.04803,
				"method": "rhf"
			},
			{
				"type": "unocc",
				"energy": 0.06432,
				"method": "rhf"
			}
		],
		"cosmo_sigma_profile": { 
			"-0.025": 0.0,
			"-0.024": 0.0,
			"-0.023": 0.0,
			"-0.022": 0.0,
			"-0.021": 0.0,
			"-0.02": 0.0,
			"-0.019": 0.0,
			"-0.018": 0.0,
			"-0.017": 0.0276667749756,
			"-0.016": 0.666182620892,
			"-0.015": 1.11496575764,
			"-0.014": 1.60821704353,
			"-0.013": 2.30332932964,
			"-0.012": 2.69724654526,
			"-0.011": 2.62301781361,
			"-0.01": 3.61057066236,
			"-0.009": 2.83672651524,
			"-0.008": 3.41657887041,
			"-0.007": 8.27055866459,
			"-0.006": 18.6904646314,
			"-0.005": 25.5712972048,
			"-0.004": 28.0549019883,
			"-0.003": 25.1408258316,
			"-0.002": 21.2678459953,
			"-0.001": 21.6552345222,
			"0.0": 20.2938356066,
			"0.001": 15.1390880116,
			"0.002": 20.0707310214,
			"0.003": 22.6666699474,
			"0.004": 13.6537971379,
			"0.005": 8.18461578775,
			"0.006": 6.7103311236,
			"0.007": 6.54202920647,
			"0.008": 4.63062936757,
			"0.009": 5.9369071965,
			"0.01": 6.25170007594,
			"0.011": 7.88786241091,
			"0.012": 8.5956872105,
			"0.013": 7.25491891806,
			"0.014": 2.82857328622,
			"0.015": 0.00593372990367,
			"0.016": 0.0,
			"0.017": 0.0,
			"0.018": 0.0,
			"0.019": 0.0,
			"0.02": 0.0,
			"0.021": 0.0,
			"0.022": 0.0,
			"0.023": 0.0,
			"0.024": 0.0,
			"0.025": 0.0
		}
	}
}
