{
	 "smiles": "OC(=O)C(CCCCNC(=O)OCC1C2=C(C=CC=C2)C2=C1C=CC=C2)NC(=O)OCC1=CC=CC=C1", 
	 "Tm": 376.15, 
	 "num_atms": 67, 
	 "gaussian": { 
		 "optdone": 1, 
		 "sigma_profile": "yes", 
		 "theory": "DFT", 
		 "functional": "B3LYP", 
		 "basiset": "6-31G**", 
		 "properties": { 
			 "R2extent": 25269.9173, 
			 "electric_dipole_moment_norm": 3.3905571666, 
			 "electric_quadrupole_moment_norm": 13.9692209604, 
			 "total_energy": -1684.10495585, 
			 "HOMO_LUMO_gap": 0.18408, 
			 "cosmo_polarized_energy": -25.42, 
			 "cosmo_cavitation_energy": 70.93, 
			 "cosmo_dispersion_energy": -44.65, 
			 "cosmo_repulsion_energy": 3.34, 
			 "cosmo_total_nonelectrostatic_energy": 29.62, 
			 "SMD_solvation_energy": 12.29 
		},
		"coords": [
			{
				"x": -2.6659976702,
				"y": 4.7998522199,
				"z": 4.0234475072,
				"element": "O" 
			},
			{
				"x": -1.321181691,
				"y": 4.8259786222,
				"z": 3.9310199435,
				"element": "C" 
			},
			{
				"x": -0.5989497042,
				"y": 5.1177607882,
				"z": 4.8606910022,
				"element": "O" 
			},
			{
				"x": -0.8442477858,
				"y": 4.4357144742,
				"z": 2.540533973,
				"element": "C" 
			},
			{
				"x": -1.2664688138,
				"y": 2.9892102012,
				"z": 2.1712311488,
				"element": "C" 
			},
			{
				"x": -0.6821821127,
				"y": 1.9077118475,
				"z": 3.0902464055,
				"element": "C" 
			},
			{
				"x": -0.9770313574,
				"y": 0.4700370889,
				"z": 2.6288682879,
				"element": "C" 
			},
			{
				"x": -0.2475606933,
				"y": 0.074953886,
				"z": 1.3395765425,
				"element": "C" 
			},
			{
				"x": -0.5327583889,
				"y": -1.3076834657,
				"z": 0.9797458405,
				"element": "N" 
			},
			{
				"x": 0.3530394104,
				"y": -2.0773746411,
				"z": 0.2946070762,
				"element": "C" 
			},
			{
				"x": 1.5069412953,
				"y": -1.7770710949,
				"z": 0.030609862,
				"element": "O" 
			},
			{
				"x": -0.2349184195,
				"y": -3.2668667264,
				"z": -0.0298109784,
				"element": "O" 
			},
			{
				"x": 0.5447579034,
				"y": -4.1810913515,
				"z": -0.8126604451,
				"element": "C" 
			},
			{
				"x": -0.0646807678,
				"y": -4.3650029532,
				"z": -2.2091508652,
				"element": "C" 
			},
			{
				"x": -0.2338398493,
				"y": -3.0786147092,
				"z": -3.0058111518,
				"element": "C" 
			},
			{
				"x": -1.565950037,
				"y": -2.9538132969,
				"z": -3.4509240421,
				"element": "C" 
			},
			{
				"x": -1.9552209826,
				"y": -1.8557867795,
				"z": -4.2210120564,
				"element": "C" 
			},
			{
				"x": -1.0041802415,
				"y": -0.8821129116,
				"z": -4.5348536338,
				"element": "C" 
			},
			{
				"x": 0.3148236195,
				"y": -1.0019704983,
				"z": -4.0841906683,
				"element": "C" 
			},
			{
				"x": 0.7084701962,
				"y": -2.1041542324,
				"z": -3.3158428619,
				"element": "C" 
			},
			{
				"x": -2.3345274018,
				"y": -4.1082217573,
				"z": -2.9653081317,
				"element": "C" 
			},
			{
				"x": -1.4728463679,
				"y": -4.9425282041,
				"z": -2.2249757374,
				"element": "C" 
			},
			{
				"x": -1.9490141366,
				"y": -6.1153003453,
				"z": -1.6505490393,
				"element": "C" 
			},
			{
				"x": -3.2976487713,
				"y": -6.4539458057,
				"z": -1.813902673,
				"element": "C" 
			},
			{
				"x": -4.1533598966,
				"y": -5.6265405676,
				"z": -2.5488902208,
				"element": "C" 
			},
			{
				"x": -3.6786811281,
				"y": -4.4488461047,
				"z": -3.1312801889,
				"element": "C" 
			},
			{
				"x": 0.5894272451,
				"y": 4.6432107358,
				"z": 2.5079411249,
				"element": "N" 
			},
			{
				"x": 1.2975960769,
				"y": 4.590863308,
				"z": 1.3488768764,
				"element": "C" 
			},
			{
				"x": 0.8147110783,
				"y": 4.356900171,
				"z": 0.2491925066,
				"element": "O" 
			},
			{
				"x": 2.6106857113,
				"y": 4.8329435884,
				"z": 1.5934669643,
				"element": "O" 
			},
			{
				"x": 3.5207469217,
				"y": 4.5901365517,
				"z": 0.4868488683,
				"element": "C" 
			},
			{
				"x": 4.0854228686,
				"y": 3.1918466594,
				"z": 0.5500740285,
				"element": "C" 
			},
			{
				"x": 5.3710949848,
				"y": 2.964764177,
				"z": 1.0535568237,
				"element": "C" 
			},
			{
				"x": 5.8778799451,
				"y": 1.6668605773,
				"z": 1.1469875383,
				"element": "C" 
			},
			{
				"x": 5.0949765785,
				"y": 0.5824258497,
				"z": 0.7487209543,
				"element": "C" 
			},
			{
				"x": 3.8081071484,
				"y": 0.7949493784,
				"z": 0.244287034,
				"element": "C" 
			},
			{
				"x": 3.312424674,
				"y": 2.0951118241,
				"z": 0.1384362554,
				"element": "C" 
			},
			{
				"x": -2.8845341235,
				"y": 5.0468593005,
				"z": 4.9379275779,
				"element": "H" 
			},
			{
				"x": -1.3330217069,
				"y": 5.1091626564,
				"z": 1.8242770477,
				"element": "H" 
			},
			{
				"x": -0.9396683462,
				"y": 2.8426223459,
				"z": 1.1392973278,
				"element": "H" 
			},
			{
				"x": -2.3613180829,
				"y": 2.9435088576,
				"z": 2.1781911103,
				"element": "H" 
			},
			{
				"x": -1.0812483675,
				"y": 2.0339543555,
				"z": 4.1051223378,
				"element": "H" 
			},
			{
				"x": 0.4034120276,
				"y": 2.04377007,
				"z": 3.1684668613,
				"element": "H" 
			},
			{
				"x": -2.0612383745,
				"y": 0.3448690599,
				"z": 2.4907113583,
				"element": "H" 
			},
			{
				"x": -0.6824378732,
				"y": -0.2311263341,
				"z": 3.4184411247,
				"element": "H" 
			},
			{
				"x": 0.8342951896,
				"y": 0.1563398523,
				"z": 1.4714211335,
				"element": "H" 
			},
			{
				"x": -0.5208914681,
				"y": 0.7478029569,
				"z": 0.5153549855,
				"element": "H" 
			},
			{
				"x": -1.4891641041,
				"y": -1.6320757102,
				"z": 0.9929136684,
				"element": "H" 
			},
			{
				"x": 1.5687732911,
				"y": -3.8080738884,
				"z": -0.8783161213,
				"element": "H" 
			},
			{
				"x": 0.5477672524,
				"y": -5.1342030381,
				"z": -0.2739257845,
				"element": "H" 
			},
			{
				"x": 0.6163565624,
				"y": -5.046375136,
				"z": -2.7435335524,
				"element": "H" 
			},
			{
				"x": -2.9792349904,
				"y": -1.7552446684,
				"z": -4.5704400923,
				"element": "H" 
			},
			{
				"x": -1.2920746582,
				"y": -0.0209605937,
				"z": -5.131282453,
				"element": "H" 
			},
			{
				"x": 1.0399684737,
				"y": -0.2314835564,
				"z": -4.3291339199,
				"element": "H" 
			},
			{
				"x": 1.7297153422,
				"y": -2.1797136143,
				"z": -2.9544158722,
				"element": "H" 
			},
			{
				"x": -1.2903858418,
				"y": -6.7661811209,
				"z": -1.0805415347,
				"element": "H" 
			},
			{
				"x": -3.6819948925,
				"y": -7.3668321704,
				"z": -1.368046756,
				"element": "H" 
			},
			{
				"x": -5.1969026792,
				"y": -5.9037374958,
				"z": -2.6689299168,
				"element": "H" 
			},
			{
				"x": -4.3481316808,
				"y": -3.8116195548,
				"z": -3.7026995403,
				"element": "H" 
			},
			{
				"x": 1.0556331089,
				"y": 4.8617332464,
				"z": 3.3780445987,
				"element": "H" 
			},
			{
				"x": 4.3069798469,
				"y": 5.3388709722,
				"z": 0.6044828901,
				"element": "H" 
			},
			{
				"x": 2.9805480751,
				"y": 4.7672254284,
				"z": -0.4451782905,
				"element": "H" 
			},
			{
				"x": 5.9777801673,
				"y": 3.8081207078,
				"z": 1.3753797927,
				"element": "H" 
			},
			{
				"x": 6.8792501762,
				"y": 1.5041358325,
				"z": 1.5361469357,
				"element": "H" 
			},
			{
				"x": 5.4844376506,
				"y": -0.4286294472,
				"z": 0.829822471,
				"element": "H" 
			},
			{
				"x": 3.1892165863,
				"y": -0.0467463677,
				"z": -0.0531520703,
				"element": "H" 
			},
			{
				"x": 2.3167539993,
				"y": 2.2706205506,
				"z": -0.2586091871,
				"element": "H" 
			}
		],
		 "valence_orbital": [ 
			{
				"type": "occ",
				"energy": -0.24684,
				"method": "rhf"
			},
			{
				"type": "occ",
				"energy": -0.24092,
				"method": "rhf"
			},
			{
				"type": "occ",
				"energy": -0.24024,
				"method": "rhf"
			},
			{
				"type": "occ",
				"energy": -0.23804,
				"method": "rhf"
			},
			{
				"type": "occ",
				"energy": -0.2125,
				"method": "rhf"
			},
			{
				"type": "unocc",
				"energy": -0.02842,
				"method": "rhf"
			},
			{
				"type": "unocc",
				"energy": -0.01032,
				"method": "rhf"
			},
			{
				"type": "unocc",
				"energy": -0.00916,
				"method": "rhf"
			},
			{
				"type": "unocc",
				"energy": -0.00133,
				"method": "rhf"
			},
			{
				"type": "unocc",
				"energy": 0.00826,
				"method": "rhf"
			}
		],
		"cosmo_sigma_profile": { 
			"-0.025": 0.0,
			"-0.024": 0.0,
			"-0.023": 0.0,
			"-0.022": 0.0,
			"-0.021": 0.0,
			"-0.02": 0.0,
			"-0.019": 0.498583997983,
			"-0.018": 1.04614747446,
			"-0.017": 0.740625623504,
			"-0.016": 1.00421698962,
			"-0.015": 1.16650612581,
			"-0.014": 0.81003624055,
			"-0.013": 1.21165956183,
			"-0.012": 1.59262440916,
			"-0.011": 2.00583349933,
			"-0.01": 1.96703322247,
			"-0.009": 2.75837903621,
			"-0.008": 2.23222141165,
			"-0.007": 6.26157765802,
			"-0.006": 26.0657545843,
			"-0.005": 41.5590756833,
			"-0.004": 43.8972332747,
			"-0.003": 52.7355477576,
			"-0.002": 46.5852950165,
			"-0.001": 46.9225440137,
			"0.0": 40.201616174,
			"0.001": 32.533268197,
			"0.002": 30.7637416671,
			"0.003": 31.7526984895,
			"0.004": 37.509193732,
			"0.005": 37.0350630458,
			"0.006": 29.0886210555,
			"0.007": 11.3219019218,
			"0.008": 8.34141540636,
			"0.009": 4.93404393503,
			"0.01": 5.26823000098,
			"0.011": 5.79797465291,
			"0.012": 3.14541925493,
			"0.013": 3.04530286222,
			"0.014": 0.0608463772012,
			"0.015": 0.0,
			"0.016": 0.0,
			"0.017": 0.0,
			"0.018": 0.0,
			"0.019": 0.0,
			"0.02": 0.0,
			"0.021": 0.0,
			"0.022": 0.0,
			"0.023": 0.0,
			"0.024": 0.0,
			"0.025": 0.0
		}
	}
}
