{
	 "smiles": "CN1CCN(CC1)C1=CN=C(N)C=C1", 
	 "Tm": 393.15, 
	 "num_atms": 30, 
	 "gaussian": { 
		 "optdone": 1, 
		 "sigma_profile": "yes", 
		 "theory": "DFT", 
		 "functional": "B3LYP", 
		 "basiset": "6-31G**", 
		 "properties": { 
			 "R2extent": 4441.245, 
			 "electric_dipole_moment_norm": 1.64438100816, 
			 "electric_quadrupole_moment_norm": 14.1375707188, 
			 "total_energy": -609.689957243, 
			 "HOMO_LUMO_gap": 0.16336, 
			 "cosmo_polarized_energy": -11.93, 
			 "cosmo_cavitation_energy": 31.0, 
			 "cosmo_dispersion_energy": -23.14, 
			 "cosmo_repulsion_energy": 1.81, 
			 "cosmo_total_nonelectrostatic_energy": 9.68, 
			 "SMD_solvation_energy": 0.02 
		},
		"coords": [
			{
				"x": -3.7772279349,
				"y": 1.2259671372,
				"z": 2.8029492214,
				"element": "C" 
			},
			{
				"x": -2.8689653526,
				"y": 1.1220279049,
				"z": 1.672403933,
				"element": "N" 
			},
			{
				"x": -2.5411969162,
				"y": -0.2604041766,
				"z": 1.2805400594,
				"element": "C" 
			},
			{
				"x": -1.1104677483,
				"y": -0.6823494665,
				"z": 1.6348502938,
				"element": "C" 
			},
			{
				"x": -0.1663611277,
				"y": 0.222160896,
				"z": 0.9942624221,
				"element": "N" 
			},
			{
				"x": -0.5931739876,
				"y": 1.6125659161,
				"z": 0.8413323665,
				"element": "C" 
			},
			{
				"x": -1.6825948913,
				"y": 1.9562229965,
				"z": 1.8566085287,
				"element": "C" 
			},
			{
				"x": 1.1718379688,
				"y": -0.135635437,
				"z": 0.8412717401,
				"element": "C" 
			},
			{
				"x": 1.7206426932,
				"y": -1.2852461371,
				"z": 1.4404012845,
				"element": "C" 
			},
			{
				"x": 2.989236197,
				"y": -1.6846053963,
				"z": 1.292146122,
				"element": "N" 
			},
			{
				"x": 3.8186754075,
				"y": -0.9426345829,
				"z": 0.5524700649,
				"element": "C" 
			},
			{
				"x": 5.1514983166,
				"y": -1.3589800545,
				"z": 0.4919733412,
				"element": "N" 
			},
			{
				"x": 3.3832869906,
				"y": 0.232239108,
				"z": -0.0864316426,
				"element": "C" 
			},
			{
				"x": 2.0608680113,
				"y": 0.6236202744,
				"z": 0.0493035404,
				"element": "C" 
			},
			{
				"x": -4.0513640371,
				"y": 2.2759699418,
				"z": 2.9548285427,
				"element": "H" 
			},
			{
				"x": -3.3529562498,
				"y": 0.8526042538,
				"z": 3.7558703059,
				"element": "H" 
			},
			{
				"x": -4.6976251986,
				"y": 0.6706714516,
				"z": 2.5978556202,
				"element": "H" 
			},
			{
				"x": -3.2441871686,
				"y": -0.9500636423,
				"z": 1.7589478792,
				"element": "H" 
			},
			{
				"x": -2.6699207348,
				"y": -0.3742907205,
				"z": 0.1952696285,
				"element": "H" 
			},
			{
				"x": -0.9822756553,
				"y": -0.7201360694,
				"z": 2.7313736422,
				"element": "H" 
			},
			{
				"x": -0.9422475179,
				"y": -1.699184592,
				"z": 1.2611699363,
				"element": "H" 
			},
			{
				"x": 0.2600298666,
				"y": 2.2765520694,
				"z": 1.0176205225,
				"element": "H" 
			},
			{
				"x": -0.9629015254,
				"y": 1.8172770972,
				"z": -0.1760786121,
				"element": "H" 
			},
			{
				"x": -1.9644402477,
				"y": 3.0108504977,
				"z": 1.7411402652,
				"element": "H" 
			},
			{
				"x": -1.2538109808,
				"y": 1.8513215592,
				"z": 2.8728523923,
				"element": "H" 
			},
			{
				"x": 1.1076923755,
				"y": -1.9209902712,
				"z": 2.0736888421,
				"element": "H" 
			},
			{
				"x": 5.6255340469,
				"y": -1.1618280591,
				"z": -0.379033482,
				"element": "H" 
			},
			{
				"x": 5.258772157,
				"y": -2.3222107953,
				"z": 0.7832770566,
				"element": "H" 
			},
			{
				"x": 4.0718295825,
				"y": 0.823287613,
				"z": -0.6838312677,
				"element": "H" 
			},
			{
				"x": 1.7132136612,
				"y": 1.509920684,
				"z": -0.4710325476,
				"element": "H" 
			}
		],
		 "valence_orbital": [ 
			{
				"type": "occ",
				"energy": -0.2682,
				"method": "rhf"
			},
			{
				"type": "occ",
				"energy": -0.24466,
				"method": "rhf"
			},
			{
				"type": "occ",
				"energy": -0.24083,
				"method": "rhf"
			},
			{
				"type": "occ",
				"energy": -0.20678,
				"method": "rhf"
			},
			{
				"type": "occ",
				"energy": -0.16931,
				"method": "rhf"
			},
			{
				"type": "unocc",
				"energy": -0.00595,
				"method": "rhf"
			},
			{
				"type": "unocc",
				"energy": 0.03282,
				"method": "rhf"
			},
			{
				"type": "unocc",
				"energy": 0.07515,
				"method": "rhf"
			},
			{
				"type": "unocc",
				"energy": 0.09722,
				"method": "rhf"
			},
			{
				"type": "unocc",
				"energy": 0.10664,
				"method": "rhf"
			}
		],
		"cosmo_sigma_profile": { 
			"-0.025": 0.0,
			"-0.024": 0.0,
			"-0.023": 0.0,
			"-0.022": 0.0,
			"-0.021": 0.0,
			"-0.02": 0.0,
			"-0.019": 0.0,
			"-0.018": 0.0,
			"-0.017": 0.0,
			"-0.016": 0.0,
			"-0.015": 0.0,
			"-0.014": 0.0,
			"-0.013": 0.0785959629802,
			"-0.012": 1.16769243675,
			"-0.011": 2.3000076521,
			"-0.01": 2.1910081255,
			"-0.009": 2.62346284977,
			"-0.008": 2.86471909115,
			"-0.007": 2.12728485625,
			"-0.006": 5.27326455509,
			"-0.005": 10.9454393018,
			"-0.004": 21.3811164818,
			"-0.003": 28.5906090507,
			"-0.002": 35.4468413809,
			"-0.001": 24.8024158293,
			"0.0": 19.6432587074,
			"0.001": 9.97198150198,
			"0.002": 8.18350368651,
			"0.003": 8.41348064439,
			"0.004": 10.8946031905,
			"0.005": 13.4826534248,
			"0.006": 5.65663858288,
			"0.007": 4.20431487855,
			"0.008": 4.2431938164,
			"0.009": 2.79423927821,
			"0.01": 2.79770986052,
			"0.011": 2.09605584285,
			"0.012": 2.40806994511,
			"0.013": 2.28052560802,
			"0.014": 2.44035541489,
			"0.015": 1.28958818143,
			"0.016": 1.23790579453,
			"0.017": 0.334167825846,
			"0.018": 0.0,
			"0.019": 0.0,
			"0.02": 0.0,
			"0.021": 0.0,
			"0.022": 0.0,
			"0.023": 0.0,
			"0.024": 0.0,
			"0.025": 0.0
		}
	}
}
