{
	 "smiles": "CC1=CC(C(O)=O)=C(C)N1C1=CC=CC=C1", 
	 "Tm": 487.15, 
	 "num_atms": 29, 
	 "gaussian": { 
		 "optdone": 1, 
		 "sigma_profile": "yes", 
		 "theory": "DFT", 
		 "functional": "B3LYP", 
		 "basiset": "6-31G**", 
		 "properties": { 
			 "R2extent": 4690.3698, 
			 "electric_dipole_moment_norm": 6.96703509249, 
			 "electric_quadrupole_moment_norm": 26.2263380444, 
			 "total_energy": -708.434827524, 
			 "HOMO_LUMO_gap": 0.1828, 
			 "cosmo_polarized_energy": -15.82, 
			 "cosmo_cavitation_energy": 32.86, 
			 "cosmo_dispersion_energy": -22.81, 
			 "cosmo_repulsion_energy": 1.78, 
			 "cosmo_total_nonelectrostatic_energy": 11.83, 
			 "SMD_solvation_energy": 6.9 
		},
		"coords": [
			{
				"x": -0.8480084854,
				"y": 3.0643535625,
				"z": 1.286324666,
				"element": "C" 
			},
			{
				"x": -0.0974908466,
				"y": 2.5819577273,
				"z": 0.0872410902,
				"element": "C" 
			},
			{
				"x": 0.2509263969,
				"y": 3.2332514671,
				"z": -1.0679634185,
				"element": "C" 
			},
			{
				"x": 0.9351511964,
				"y": 2.3023658302,
				"z": -1.9201687841,
				"element": "C" 
			},
			{
				"x": 1.5026790993,
				"y": 2.5516032506,
				"z": -3.2561726071,
				"element": "C" 
			},
			{
				"x": 1.5834557771,
				"y": 3.8637288854,
				"z": -3.6298787039,
				"element": "O" 
			},
			{
				"x": 1.8910526327,
				"y": 1.6993134676,
				"z": -4.0290352949,
				"element": "O" 
			},
			{
				"x": 0.9820731812,
				"y": 1.0841930069,
				"z": -1.2486307812,
				"element": "C" 
			},
			{
				"x": 1.590224958,
				"y": -0.2220466423,
				"z": -1.6439600054,
				"element": "C" 
			},
			{
				"x": 0.3584942865,
				"y": 1.2673922354,
				"z": -0.0301068582,
				"element": "N" 
			},
			{
				"x": 0.2006358265,
				"y": 0.2556204878,
				"z": 0.9728880579,
				"element": "C" 
			},
			{
				"x": 1.0791071501,
				"y": 0.2095646711,
				"z": 2.0595268191,
				"element": "C" 
			},
			{
				"x": 0.9188709637,
				"y": -0.7725109459,
				"z": 3.0379263298,
				"element": "C" 
			},
			{
				"x": -0.1115635164,
				"y": -1.7086639008,
				"z": 2.9294542579,
				"element": "C" 
			},
			{
				"x": -0.9855258336,
				"y": -1.6614559942,
				"z": 1.8413335478,
				"element": "C" 
			},
			{
				"x": -0.833714821,
				"y": -0.6784670512,
				"z": 0.8625879265,
				"element": "C" 
			},
			{
				"x": -1.7634960041,
				"y": 2.4865957246,
				"z": 1.4602470348,
				"element": "H" 
			},
			{
				"x": -0.251688639,
				"y": 3.0047920254,
				"z": 2.2042997409,
				"element": "H" 
			},
			{
				"x": -1.1331000618,
				"y": 4.1088158499,
				"z": 1.1399860078,
				"element": "H" 
			},
			{
				"x": -0.0119524539,
				"y": 4.2607968778,
				"z": -1.2870759628,
				"element": "H" 
			},
			{
				"x": 1.3550109447,
				"y": 4.430323457,
				"z": -2.8806671356,
				"element": "H" 
			},
			{
				"x": 2.0543296429,
				"y": -0.1093393835,
				"z": -2.6228757442,
				"element": "H" 
			},
			{
				"x": 2.3427860244,
				"y": -0.5514160054,
				"z": -0.9178773589,
				"element": "H" 
			},
			{
				"x": 0.8360990965,
				"y": -1.0150662643,
				"z": -1.7083067129,
				"element": "H" 
			},
			{
				"x": 1.8813843507,
				"y": 0.9378588955,
				"z": 2.1261769262,
				"element": "H" 
			},
			{
				"x": 1.601698828,
				"y": -0.808220639,
				"z": 3.8814848384,
				"element": "H" 
			},
			{
				"x": -0.2327654089,
				"y": -2.4735887938,
				"z": 3.690622213,
				"element": "H" 
			},
			{
				"x": -1.7880916002,
				"y": -2.3876948094,
				"z": 1.7544528306,
				"element": "H" 
			},
			{
				"x": -1.5095826847,
				"y": -0.6258569924,
				"z": 0.0147670808,
				"element": "H" 
			}
		],
		 "valence_orbital": [ 
			{
				"type": "occ",
				"energy": -0.27255,
				"method": "rhf"
			},
			{
				"type": "occ",
				"energy": -0.2724,
				"method": "rhf"
			},
			{
				"type": "occ",
				"energy": -0.25307,
				"method": "rhf"
			},
			{
				"type": "occ",
				"energy": -0.24762,
				"method": "rhf"
			},
			{
				"type": "occ",
				"energy": -0.20994,
				"method": "rhf"
			},
			{
				"type": "unocc",
				"energy": -0.02714,
				"method": "rhf"
			},
			{
				"type": "unocc",
				"energy": -0.02423,
				"method": "rhf"
			},
			{
				"type": "unocc",
				"energy": -0.00464,
				"method": "rhf"
			},
			{
				"type": "unocc",
				"energy": 0.03363,
				"method": "rhf"
			},
			{
				"type": "unocc",
				"energy": 0.07232,
				"method": "rhf"
			}
		],
		"cosmo_sigma_profile": { 
			"-0.025": 0.0,
			"-0.024": 0.0,
			"-0.023": 0.0,
			"-0.022": 0.0,
			"-0.021": 0.0,
			"-0.02": 0.0,
			"-0.019": 0.0,
			"-0.018": 0.0288955647075,
			"-0.017": 0.51325023117,
			"-0.016": 0.902825916565,
			"-0.015": 0.991226892523,
			"-0.014": 1.03350848362,
			"-0.013": 0.874701886775,
			"-0.012": 0.773296538745,
			"-0.011": 1.1687082567,
			"-0.01": 1.08117939611,
			"-0.009": 1.05510190974,
			"-0.008": 0.928533278152,
			"-0.007": 4.58756488209,
			"-0.006": 12.0942849033,
			"-0.005": 16.5896920265,
			"-0.004": 23.6194363594,
			"-0.003": 21.0188739319,
			"-0.002": 21.9441238014,
			"-0.001": 24.9630954154,
			"0.0": 23.2160248427,
			"0.001": 17.5468364221,
			"0.002": 13.9352977022,
			"0.003": 14.2268858261,
			"0.004": 16.5481116746,
			"0.005": 8.84354266779,
			"0.006": 5.26530535404,
			"0.007": 3.52038734409,
			"0.008": 2.85355874754,
			"0.009": 2.50324333852,
			"0.01": 3.34944548887,
			"0.011": 4.4039587249,
			"0.012": 5.25722497435,
			"0.013": 3.75063088821,
			"0.014": 2.05141132534,
			"0.015": 0.200190023971,
			"0.016": 0.0,
			"0.017": 0.0,
			"0.018": 0.0,
			"0.019": 0.0,
			"0.02": 0.0,
			"0.021": 0.0,
			"0.022": 0.0,
			"0.023": 0.0,
			"0.024": 0.0,
			"0.0": 0.0
		}
	}
}
