{
	 "smiles": "CCOC(=O)C(=CNC1=C(F)C=CC(Cl)=C1)C#N", 
	 "Tm": 421.15, 
	 "num_atms": 28, 
	 "gaussian": { 
		 "optdone": 1, 
		 "sigma_profile": "yes", 
		 "theory": "DFT", 
		 "functional": "B3LYP", 
		 "basiset": "6-31G**", 
		 "properties": { 
			 "R2extent": 5534.6323, 
			 "electric_dipole_moment_norm": 4.70808955416, 
			 "electric_quadrupole_moment_norm": 22.984123548, 
			 "total_energy": -1283.25727847, 
			 "HOMO_LUMO_gap": 0.16312, 
			 "cosmo_polarized_energy": -19.21, 
			 "cosmo_cavitation_energy": 36.4, 
			 "cosmo_dispersion_energy": -24.25, 
			 "cosmo_repulsion_energy": 1.88, 
			 "cosmo_total_nonelectrostatic_energy": 14.02, 
			 "SMD_solvation_energy": 8.77 
		},
		"coords": [
			{
				"x": -0.2120560631,
				"y": 0.1357540126,
				"z": -4.2123950657,
				"element": "C" 
			},
			{
				"x": 1.1804600029,
				"y": -0.1044501813,
				"z": -3.6494757196,
				"element": "C" 
			},
			{
				"x": 1.1426113783,
				"y": -1.0270439247,
				"z": -2.5330319995,
				"element": "O" 
			},
			{
				"x": 0.9219547427,
				"y": -0.4950486122,
				"z": -1.3143819455,
				"element": "C" 
			},
			{
				"x": 0.7265310856,
				"y": 0.6900031854,
				"z": -1.1061735255,
				"element": "O" 
			},
			{
				"x": 0.9968952474,
				"y": -1.5264233078,
				"z": -0.2566359943,
				"element": "C" 
			},
			{
				"x": 0.7152143709,
				"y": -1.3189692157,
				"z": 1.0742547444,
				"element": "C" 
			},
			{
				"x": 0.0832411747,
				"y": -0.3107686765,
				"z": 1.7292846431,
				"element": "N" 
			},
			{
				"x": -0.869343659,
				"y": 0.6381232222,
				"z": 1.3196750994,
				"element": "C" 
			},
			{
				"x": -1.0313915563,
				"y": 1.768020667,
				"z": 2.1306279638,
				"element": "C" 
			},
			{
				"x": -0.2218736716,
				"y": 1.8818899636,
				"z": 3.2118697114,
				"element": "F" 
			},
			{
				"x": -1.9913708079,
				"y": 2.7315454816,
				"z": 1.87807059,
				"element": "C" 
			},
			{
				"x": -2.8364142295,
				"y": 2.5767359138,
				"z": 0.7779692598,
				"element": "C" 
			},
			{
				"x": -2.6983913042,
				"y": 1.443243624,
				"z": -0.0226542408,
				"element": "C" 
			},
			{
				"x": -3.7718147801,
				"y": 1.224979981,
				"z": -1.3958048424,
				"element": "Cl" 
			},
			{
				"x": -1.7356508597,
				"y": 0.4706131005,
				"z": 0.235132716,
				"element": "C" 
			},
			{
				"x": 1.5498874991,
				"y": -2.8045787863,
				"z": -0.5844955631,
				"element": "C" 
			},
			{
				"x": 1.9943498623,
				"y": -3.8553573317,
				"z": -0.8174403523,
				"element": "N" 
			},
			{
				"x": -0.8452427073,
				"y": 0.6413773682,
				"z": -3.4790808595,
				"element": "H" 
			},
			{
				"x": -0.1459866904,
				"y": 0.7701749823,
				"z": -5.1025937258,
				"element": "H" 
			},
			{
				"x": -0.6840097532,
				"y": -0.8086355962,
				"z": -4.4985157821,
				"element": "H" 
			},
			{
				"x": 1.8295841645,
				"y": -0.5941790863,
				"z": -4.3786953295,
				"element": "H" 
			},
			{
				"x": 1.6414559351,
				"y": 0.8293130326,
				"z": -3.3191299644,
				"element": "H" 
			},
			{
				"x": 1.0580656568,
				"y": -2.0934046408,
				"z": 1.7563842308,
				"element": "H" 
			},
			{
				"x": 0.260212016,
				"y": -0.281270357,
				"z": 2.7245072447,
				"element": "H" 
			},
			{
				"x": -2.0676962743,
				"y": 3.5898972872,
				"z": 2.5359635149,
				"element": "H" 
			},
			{
				"x": -3.5905542531,
				"y": 3.3204740078,
				"z": 0.5504845404,
				"element": "H" 
			},
			{
				"x": -1.6720665263,
				"y": -0.4119161132,
				"z": -0.3863193486,
				"element": "H" 
			}
		],
		 "valence_orbital": [ 
			{
				"type": "occ",
				"energy": -0.30617,
				"method": "rhf"
			},
			{
				"type": "occ",
				"energy": -0.28517,
				"method": "rhf"
			},
			{
				"type": "occ",
				"energy": -0.27539,
				"method": "rhf"
			},
			{
				"type": "occ",
				"energy": -0.26015,
				"method": "rhf"
			},
			{
				"type": "occ",
				"energy": -0.2317,
				"method": "rhf"
			},
			{
				"type": "unocc",
				"energy": -0.06858,
				"method": "rhf"
			},
			{
				"type": "unocc",
				"energy": -0.02617,
				"method": "rhf"
			},
			{
				"type": "unocc",
				"energy": -0.01169,
				"method": "rhf"
			},
			{
				"type": "unocc",
				"energy": 0.01329,
				"method": "rhf"
			},
			{
				"type": "unocc",
				"energy": 0.02693,
				"method": "rhf"
			}
		],
		"cosmo_sigma_profile": { 
			"-0.025": 0.0,
			"-0.024": 0.0,
			"-0.023": 0.0,
			"-0.022": 0.0,
			"-0.021": 0.0,
			"-0.02": 0.0,
			"-0.019": 0.0,
			"-0.018": 0.163527862831,
			"-0.017": 1.17115956436,
			"-0.016": 0.94519193493,
			"-0.015": 1.33644585215,
			"-0.014": 1.12893595211,
			"-0.013": 1.43873609801,
			"-0.012": 1.79245207516,
			"-0.011": 2.35910518766,
			"-0.01": 2.39921486009,
			"-0.009": 2.87636159632,
			"-0.008": 7.11216066938,
			"-0.007": 7.87108299277,
			"-0.006": 9.22766842659,
			"-0.005": 12.136852022,
			"-0.004": 18.2789442287,
			"-0.003": 20.2856421801,
			"-0.002": 21.420808009,
			"-0.001": 24.7675450385,
			"0.0": 27.9660975649,
			"0.001": 24.114949798,
			"0.002": 21.7668619602,
			"0.003": 18.6879964458,
			"0.004": 15.2269303849,
			"0.005": 7.91587694635,
			"0.006": 4.29997583279,
			"0.007": 5.9984994637,
			"0.008": 6.80421450162,
			"0.009": 5.89148365051,
			"0.01": 5.71905598649,
			"0.011": 5.49490500798,
			"0.012": 4.41765302504,
			"0.013": 2.53461645283,
			"0.014": 0.911525056223,
			"0.015": 0.0,
			"0.016": 0.0,
			"0.017": 0.0,
			"0.018": 0.0,
			"0.019": 0.0,
			"0.02": 0.0,
			"0.021": 0.0,
			"0.022": 0.0,
			"0.023": 0.0,
			"0.024": 0.0,
			"0.025": 0.0
		}
	}
}
