{
	 "smiles": "COC1=CC=C(C=CC2=NC3=C(C=C(Br)C=C3)C(=C2)C(O)=O)C=C1", 
	 "Tm": 569.15, 
	 "num_atms": 38, 
	 "gaussian": { 
		 "optdone": 1, 
		 "sigma_profile": "yes", 
		 "theory": "DFT", 
		 "functional": "B3LYP", 
		 "basiset": "6-31G**", 
		 "properties": { 
			 "R2extent": 20287.8945, 
			 "electric_dipole_moment_norm": 4.30241891731, 
			 "electric_quadrupole_moment_norm": 36.5729295719, 
			 "total_energy": -3584.28340927, 
			 "HOMO_LUMO_gap": 0.12227, 
			 "cosmo_polarized_energy": -18.17, 
			 "cosmo_cavitation_energy": 46.01, 
			 "cosmo_dispersion_energy": -33.68, 
			 "cosmo_repulsion_energy": 2.52, 
			 "cosmo_total_nonelectrostatic_energy": 14.85, 
			 "SMD_solvation_energy": 6.72 
		},
		"coords": [
			{
				"x": 3.6255898212,
				"y": 0.8054567161,
				"z": 7.1287551098,
				"element": "C" 
			},
			{
				"x": 4.0974226854,
				"y": 0.3843992479,
				"z": 5.8567143287,
				"element": "O" 
			},
			{
				"x": 3.2255599156,
				"y": 0.3779353857,
				"z": 4.8129250471,
				"element": "C" 
			},
			{
				"x": 1.8808409974,
				"y": 0.7592911517,
				"z": 4.8906422826,
				"element": "C" 
			},
			{
				"x": 1.0877635746,
				"y": 0.7082695566,
				"z": 3.7450954052,
				"element": "C" 
			},
			{
				"x": 1.5926240025,
				"y": 0.2842140241,
				"z": 2.5048511682,
				"element": "C" 
			},
			{
				"x": 0.7018311529,
				"y": 0.2568051322,
				"z": 1.3489532639,
				"element": "C" 
			},
			{
				"x": 1.0089072472,
				"y": -0.1282992851,
				"z": 0.0907211976,
				"element": "C" 
			},
			{
				"x": 0.1016317501,
				"y": -0.1532774593,
				"z": -1.0538109028,
				"element": "C" 
			},
			{
				"x": 0.6217775965,
				"y": -0.5972018537,
				"z": -2.1962145428,
				"element": "N" 
			},
			{
				"x": -0.1687414467,
				"y": -0.6744251546,
				"z": -3.2975984257,
				"element": "C" 
			},
			{
				"x": -1.5463261606,
				"y": -0.2729737008,
				"z": -3.3156354044,
				"element": "C" 
			},
			{
				"x": -2.3011315855,
				"y": -0.4598833238,
				"z": -4.5044858076,
				"element": "C" 
			},
			{
				"x": -1.694251857,
				"y": -0.9790068134,
				"z": -5.6280989478,
				"element": "C" 
			},
			{
				"x": -2.7195481928,
				"y": -1.2328119488,
				"z": -7.2175608111,
				"element": "Br" 
			},
			{
				"x": -0.3296043514,
				"y": -1.3415661666,
				"z": -5.6365785824,
				"element": "C" 
			},
			{
				"x": 0.4106308218,
				"y": -1.1944832396,
				"z": -4.486680886,
				"element": "C" 
			},
			{
				"x": -2.0648740297,
				"y": 0.2578612363,
				"z": -2.0871033757,
				"element": "C" 
			},
			{
				"x": -1.2568513292,
				"y": 0.2808812512,
				"z": -0.9766396139,
				"element": "C" 
			},
			{
				"x": -3.4543686597,
				"y": 0.8147743529,
				"z": -1.9125568662,
				"element": "C" 
			},
			{
				"x": -3.9630777666,
				"y": 1.5234074337,
				"z": -2.9545959106,
				"element": "O" 
			},
			{
				"x": -4.0909871027,
				"y": 0.6908902831,
				"z": -0.895082214,
				"element": "O" 
			},
			{
				"x": 2.9531788293,
				"y": -0.0949608517,
				"z": 2.4539248198,
				"element": "C" 
			},
			{
				"x": 3.7535172457,
				"y": -0.0500122218,
				"z": 3.5808429727,
				"element": "C" 
			},
			{
				"x": 4.4782664081,
				"y": 0.7316113644,
				"z": 7.8049748607,
				"element": "H" 
			},
			{
				"x": 3.2723156722,
				"y": 1.8440127641,
				"z": 7.1042633115,
				"element": "H" 
			},
			{
				"x": 2.8176753894,
				"y": 0.1587604097,
				"z": 7.4934787279,
				"element": "H" 
			},
			{
				"x": 1.4462529317,
				"y": 1.0929067803,
				"z": 5.8252370798,
				"element": "H" 
			},
			{
				"x": 0.0446257811,
				"y": 1.0060606403,
				"z": 3.8166914846,
				"element": "H" 
			},
			{
				"x": -0.3135688236,
				"y": 0.5867679432,
				"z": 1.5626443123,
				"element": "H" 
			},
			{
				"x": 2.0097269936,
				"y": -0.4700851636,
				"z": -0.1575269197,
				"element": "H" 
			},
			{
				"x": -3.3609580719,
				"y": -0.236068732,
				"z": -4.5286090044,
				"element": "H" 
			},
			{
				"x": 0.1151899048,
				"y": -1.7427921766,
				"z": -6.5398554869,
				"element": "H" 
			},
			{
				"x": 1.4561935845,
				"y": -1.4809207502,
				"z": -4.4478773796,
				"element": "H" 
			},
			{
				"x": -1.6713090219,
				"y": 0.6554164065,
				"z": -0.0483626124,
				"element": "H" 
			},
			{
				"x": -3.2912193041,
				"y": 1.6382798041,
				"z": -3.6428799244,
				"element": "H" 
			},
			{
				"x": 3.3880174008,
				"y": -0.4288921744,
				"z": 1.5172999565,
				"element": "H" 
			},
			{
				"x": 4.798077997,
				"y": -0.3410408684,
				"z": 3.5417382895,
				"element": "H" 
			}
		],
		 "valence_orbital": [ 
			{
				"type": "occ",
				"energy": -0.26858,
				"method": "rhf"
			},
			{
				"type": "occ",
				"energy": -0.26294,
				"method": "rhf"
			},
			{
				"type": "occ",
				"energy": -0.26024,
				"method": "rhf"
			},
			{
				"type": "occ",
				"energy": -0.24718,
				"method": "rhf"
			},
			{
				"type": "occ",
				"energy": -0.20745,
				"method": "rhf"
			},
			{
				"type": "unocc",
				"energy": -0.08518,
				"method": "rhf"
			},
			{
				"type": "unocc",
				"energy": -0.05773,
				"method": "rhf"
			},
			{
				"type": "unocc",
				"energy": -0.02262,
				"method": "rhf"
			},
			{
				"type": "unocc",
				"energy": -0.01432,
				"method": "rhf"
			},
			{
				"type": "unocc",
				"energy": -0.01031,
				"method": "rhf"
			}
		],
		"cosmo_sigma_profile": { 
			"-0.025": 0.0,
			"-0.024": 0.0,
			"-0.023": 0.0,
			"-0.022": 0.0,
			"-0.021": 0.0,
			"-0.02": 0.0,
			"-0.019": 0.00576196858414,
			"-0.018": 0.67794316324,
			"-0.017": 0.641969425585,
			"-0.016": 1.15420335532,
			"-0.015": 0.430686372071,
			"-0.014": 0.961389958456,
			"-0.013": 1.55731028628,
			"-0.012": 0.964931890674,
			"-0.011": 0.608813866375,
			"-0.01": 1.13180101444,
			"-0.009": 2.15583996786,
			"-0.008": 4.87013458739,
			"-0.007": 13.2040523416,
			"-0.006": 21.0091948826,
			"-0.005": 26.1003897954,
			"-0.004": 24.9626528597,
			"-0.003": 23.6946249895,
			"-0.002": 21.1950671908,
			"-0.001": 22.0906662629,
			"0.0": 27.9388914653,
			"0.001": 31.6486041967,
			"0.002": 30.50077844,
			"0.003": 28.4981955618,
			"0.004": 33.1952083605,
			"0.005": 13.9325841452,
			"0.006": 5.70343731558,
			"0.007": 4.50243373691,
			"0.008": 5.31940706072,
			"0.009": 6.90386002627,
			"0.01": 6.69908501224,
			"0.011": 6.71948439987,
			"0.012": 3.02170004314,
			"0.013": 1.05087608307,
			"0.014": 0.325209210898,
			"0.015": 0.0,
			"0.016": 0.0,
			"0.017": 0.0,
			"0.018": 0.0,
			"0.019": 0.0,
			"0.02": 0.0,
			"0.021": 0.0,
			"0.022": 0.0,
			"0.023": 0.0,
			"0.024": 0.0,
			"0.025": 0.0
		}
	}
}
