{
	 "smiles": "NC1=C(N)C=C(F)C=C1", 
	 "Tm": 360.15, 
	 "num_atms": 16, 
	 "gaussian": { 
		 "optdone": 1, 
		 "sigma_profile": "yes", 
		 "theory": "DFT", 
		 "functional": "B3LYP", 
		 "basiset": "6-31G**", 
		 "properties": { 
			 "R2extent": 1713.4769, 
			 "electric_dipole_moment_norm": 2.68618101773, 
			 "electric_quadrupole_moment_norm": 9.46664334387, 
			 "total_energy": -442.1983033, 
			 "HOMO_LUMO_gap": 0.1991, 
			 "cosmo_polarized_energy": -10.22, 
			 "cosmo_cavitation_energy": 20.02, 
			 "cosmo_dispersion_energy": -15.06, 
			 "cosmo_repulsion_energy": 1.22, 
			 "cosmo_total_nonelectrostatic_energy": 6.18, 
			 "SMD_solvation_energy": 3.96 
		},
		"coords": [
			{
				"x": 1.0321701697,
				"y": 1.6646120391,
				"z": -0.5261015519,
				"element": "N" 
			},
			{
				"x": 0.3386967559,
				"y": 0.8422635039,
				"z": 0.3945437962,
				"element": "C" 
			},
			{
				"x": -0.0003161577,
				"y": 1.409438585,
				"z": 1.6474495572,
				"element": "C" 
			},
			{
				"x": 0.4321614781,
				"y": 2.7163800334,
				"z": 1.9140445955,
				"element": "N" 
			},
			{
				"x": -0.7032610485,
				"y": 0.6442809921,
				"z": 2.5821267052,
				"element": "C" 
			},
			{
				"x": -1.0788424368,
				"y": -0.6553268304,
				"z": 2.2574431515,
				"element": "C" 
			},
			{
				"x": -1.7644525114,
				"y": -1.3756580433,
				"z": 3.1769585941,
				"element": "F" 
			},
			{
				"x": -0.7868872596,
				"y": -1.2242287994,
				"z": 1.0278838208,
				"element": "C" 
			},
			{
				"x": -0.0645958251,
				"y": -0.4606539136,
				"z": 0.1042188093,
				"element": "C" 
			},
			{
				"x": 1.8625061781,
				"y": 2.0792742374,
				"z": -0.1104007634,
				"element": "H" 
			},
			{
				"x": 1.2930689284,
				"y": 1.1670820334,
				"z": -1.3693663573,
				"element": "H" 
			},
			{
				"x": -0.0176584451,
				"y": 3.1408995708,
				"z": 2.7150755759,
				"element": "H" 
			},
			{
				"x": 0.3646560654,
				"y": 3.3156879908,
				"z": 1.0970885891,
				"element": "H" 
			},
			{
				"x": -0.9735078384,
				"y": 1.0525389029,
				"z": 3.5510511661,
				"element": "H" 
			},
			{
				"x": -1.1012188888,
				"y": -2.2377489713,
				"z": 0.8075088906,
				"element": "H" 
			},
			{
				"x": 0.1940808358,
				"y": -0.8920413307,
				"z": -0.8599245789,
				"element": "H" 
			}
		],
		 "valence_orbital": [ 
			{
				"type": "occ",
				"energy": -0.3411,
				"method": "rhf"
			},
			{
				"type": "occ",
				"energy": -0.31123,
				"method": "rhf"
			},
			{
				"type": "occ",
				"energy": -0.29121,
				"method": "rhf"
			},
			{
				"type": "occ",
				"energy": -0.2247,
				"method": "rhf"
			},
			{
				"type": "occ",
				"energy": -0.18939,
				"method": "rhf"
			},
			{
				"type": "unocc",
				"energy": 0.00971,
				"method": "rhf"
			},
			{
				"type": "unocc",
				"energy": 0.02892,
				"method": "rhf"
			},
			{
				"type": "unocc",
				"energy": 0.074,
				"method": "rhf"
			},
			{
				"type": "unocc",
				"energy": 0.0992,
				"method": "rhf"
			},
			{
				"type": "unocc",
				"energy": 0.10295,
				"method": "rhf"
			}
		],
		"cosmo_sigma_profile": { 
			"-0.025": 0.0,
			"-0.024": 0.0,
			"-0.023": 0.0,
			"-0.022": 0.0,
			"-0.021": 0.0,
			"-0.02": 0.0,
			"-0.019": 0.0,
			"-0.018": 0.0,
			"-0.017": 0.0,
			"-0.016": 0.0,
			"-0.015": 0.0,
			"-0.014": 0.0,
			"-0.013": 0.126593468647,
			"-0.012": 1.92412706873,
			"-0.011": 3.96773748193,
			"-0.01": 5.21660668665,
			"-0.009": 5.29091843405,
			"-0.008": 6.0712286154,
			"-0.007": 5.30553509537,
			"-0.006": 8.15588877502,
			"-0.005": 7.53680306628,
			"-0.004": 6.86533024259,
			"-0.003": 6.57497820415,
			"-0.002": 5.66824974788,
			"-0.001": 5.94363419037,
			"0.0": 6.84952311752,
			"0.001": 5.68224226775,
			"0.002": 7.30055964333,
			"0.003": 12.5775154585,
			"0.004": 13.9573297164,
			"0.005": 20.5927136618,
			"0.006": 11.498519338,
			"0.007": 2.69504322945,
			"0.008": 1.3750239234,
			"0.009": 0.953174287497,
			"0.01": 1.80490933417,
			"0.011": 1.19587518945,
			"0.012": 0.856265327087,
			"0.013": 1.15397424014,
			"0.014": 1.09289412027,
			"0.015": 0.376392677179,
			"0.016": 0.0,
			"0.017": 0.0,
			"0.018": 0.0,
			"0.019": 0.0,
			"0.02": 0.0,
			"0.021": 0.0,
			"0.022": 0.0,
			"0.023": 0.0,
			"0.024": 0.0,
			"0.025": 0.0
		}
	}
}
