{
	 "smiles": "CC(=O)N1C(=O)[C@@]2(O[C@@H]3OC(C)=N[C@]23C2=CC=CC=C2)C2=CC=CC=C12", 
	 "Tm": 424.0, 
	 "num_atms": 42, 
	 "gaussian": { 
		 "optdone": 1, 
		 "sigma_profile": "yes", 
		 "theory": "DFT", 
		 "functional": "B3LYP", 
		 "basiset": "6-31G**", 
		 "properties": { 
			 "R2extent": 7657.7162, 
			 "electric_dipole_moment_norm": 2.95967495175, 
			 "electric_quadrupole_moment_norm": 12.6837743184, 
			 "total_energy": -1182.15683252, 
			 "HOMO_LUMO_gap": 0.18037, 
			 "cosmo_polarized_energy": -15.96, 
			 "cosmo_cavitation_energy": 44.96, 
			 "cosmo_dispersion_energy": -30.2, 
			 "cosmo_repulsion_energy": 2.27, 
			 "cosmo_total_nonelectrostatic_energy": 17.02, 
			 "SMD_solvation_energy": 6.79 
		},
		"coords": [
			{
				"x": -1.342563891,
				"y": 0.4680886392,
				"z": 4.3104004454,
				"element": "C" 
			},
			{
				"x": -1.5567184723,
				"y": 1.3537720676,
				"z": 3.1054159454,
				"element": "C" 
			},
			{
				"x": -1.9963354657,
				"y": 2.485245639,
				"z": 3.2013043151,
				"element": "O" 
			},
			{
				"x": -1.2074032939,
				"y": 0.8352159693,
				"z": 1.8363485289,
				"element": "N" 
			},
			{
				"x": -0.751254541,
				"y": -0.4786917993,
				"z": 1.5655065008,
				"element": "C" 
			},
			{
				"x": -0.7313687897,
				"y": -1.4062824,
				"z": 2.3409217485,
				"element": "O" 
			},
			{
				"x": -0.3031845642,
				"y": -0.5111130484,
				"z": 0.0922700376,
				"element": "C" 
			},
			{
				"x": -0.6237127871,
				"y": -1.7547210314,
				"z": -0.5708109434,
				"element": "O" 
			},
			{
				"x": 0.7316174799,
				"y": -2.1223126971,
				"z": -0.7627705145,
				"element": "C" 
			},
			{
				"x": 1.1808882304,
				"y": -3.1598061492,
				"z": 0.1039777293,
				"element": "O" 
			},
			{
				"x": 1.7996176738,
				"y": -2.5303456477,
				"z": 1.1607641049,
				"element": "C" 
			},
			{
				"x": 2.2579215982,
				"y": -3.4325637703,
				"z": 2.2503070133,
				"element": "C" 
			},
			{
				"x": 1.9213311993,
				"y": -1.2600559996,
				"z": 1.1154189406,
				"element": "N" 
			},
			{
				"x": 1.2727079071,
				"y": -0.8215423254,
				"z": -0.1138612096,
				"element": "C" 
			},
			{
				"x": 2.1011860891,
				"y": 0.178675352,
				"z": -0.8746995769,
				"element": "C" 
			},
			{
				"x": 2.1972334953,
				"y": 0.1534753385,
				"z": -2.2714274196,
				"element": "C" 
			},
			{
				"x": 2.9714609768,
				"y": 1.0980080842,
				"z": -2.9485590883,
				"element": "C" 
			},
			{
				"x": 3.6554825431,
				"y": 2.0827096512,
				"z": -2.2364316388,
				"element": "C" 
			},
			{
				"x": 3.5667219566,
				"y": 2.1136992988,
				"z": -0.842515937,
				"element": "C" 
			},
			{
				"x": 2.7996079164,
				"y": 1.1673215217,
				"z": -0.1661688602,
				"element": "C" 
			},
			{
				"x": -0.9049134626,
				"y": 0.7361782205,
				"z": -0.4603126584,
				"element": "C" 
			},
			{
				"x": -1.0388398526,
				"y": 1.1591800026,
				"z": -1.7767432352,
				"element": "C" 
			},
			{
				"x": -1.6114077958,
				"y": 2.4089178993,
				"z": -2.0300188565,
				"element": "C" 
			},
			{
				"x": -2.0310757356,
				"y": 3.2132531526,
				"z": -0.9688030629,
				"element": "C" 
			},
			{
				"x": -1.9201578127,
				"y": 2.7933017871,
				"z": 0.362553295,
				"element": "C" 
			},
			{
				"x": -1.3629833676,
				"y": 1.5386736432,
				"z": 0.5966524354,
				"element": "C" 
			},
			{
				"x": -0.3180273638,
				"y": 0.0913444092,
				"z": 4.3572210535,
				"element": "H" 
			},
			{
				"x": -1.9924481916,
				"y": -0.4091063747,
				"z": 4.2726157345,
				"element": "H" 
			},
			{
				"x": -1.5695696668,
				"y": 1.0707573653,
				"z": 5.189946932,
				"element": "H" 
			},
			{
				"x": 0.9312516352,
				"y": -2.435309231,
				"z": -1.7887968794,
				"element": "H" 
			},
			{
				"x": 1.3841089239,
				"y": -3.8602027244,
				"z": 2.7522011564,
				"element": "H" 
			},
			{
				"x": 2.8507509055,
				"y": -2.8696392492,
				"z": 2.9707243111,
				"element": "H" 
			},
			{
				"x": 2.8470758974,
				"y": -4.2581853847,
				"z": 1.8405535747,
				"element": "H" 
			},
			{
				"x": 1.6751463812,
				"y": -0.6080562008,
				"z": -2.8433250673,
				"element": "H" 
			},
			{
				"x": 3.0407436294,
				"y": 1.0595212068,
				"z": -4.0318796233,
				"element": "H" 
			},
			{
				"x": 4.2575045169,
				"y": 2.818059001,
				"z": -2.7622788925,
				"element": "H" 
			},
			{
				"x": 4.1019192075,
				"y": 2.8733315369,
				"z": -0.2800162511,
				"element": "H" 
			},
			{
				"x": 2.7498045339,
				"y": 1.1722277967,
				"z": 0.9172524983,
				"element": "H" 
			},
			{
				"x": -0.712913232,
				"y": 0.5220086507,
				"z": -2.5913079724,
				"element": "H" 
			},
			{
				"x": -1.7282080621,
				"y": 2.7539786096,
				"z": -3.0525884091,
				"element": "H" 
			},
			{
				"x": -2.4667191007,
				"y": 4.1869696654,
				"z": -1.1732117653,
				"element": "H" 
			},
			{
				"x": -2.2637772483,
				"y": 3.4066195246,
				"z": 1.181571561,
				"element": "H" 
			}
		],
		 "valence_orbital": [ 
			{
				"type": "occ",
				"energy": -0.26506,
				"method": "rhf"
			},
			{
				"type": "occ",
				"energy": -0.25678,
				"method": "rhf"
			},
			{
				"type": "occ",
				"energy": -0.25201,
				"method": "rhf"
			},
			{
				"type": "occ",
				"energy": -0.25006,
				"method": "rhf"
			},
			{
				"type": "occ",
				"energy": -0.23397,
				"method": "rhf"
			},
			{
				"type": "unocc",
				"energy": -0.0536,
				"method": "rhf"
			},
			{
				"type": "unocc",
				"energy": -0.02337,
				"method": "rhf"
			},
			{
				"type": "unocc",
				"energy": -0.0153,
				"method": "rhf"
			},
			{
				"type": "unocc",
				"energy": -0.01079,
				"method": "rhf"
			},
			{
				"type": "unocc",
				"energy": -0.00581,
				"method": "rhf"
			}
		],
		"cosmo_sigma_profile": { 
			"-0.025": 0.0,
			"-0.024": 0.0,
			"-0.023": 0.0,
			"-0.022": 0.0,
			"-0.021": 0.0,
			"-0.02": 0.0,
			"-0.019": 0.0,
			"-0.018": 0.0,
			"-0.017": 0.0,
			"-0.016": 0.0,
			"-0.015": 0.0,
			"-0.014": 0.0,
			"-0.013": 0.0,
			"-0.012": 0.0,
			"-0.011": 0.0,
			"-0.01": 0.929728292146,
			"-0.009": 2.96539833214,
			"-0.008": 3.20389605281,
			"-0.007": 6.97222901751,
			"-0.006": 24.8463737031,
			"-0.005": 31.9932695632,
			"-0.004": 34.2450034621,
			"-0.003": 28.4148879343,
			"-0.002": 31.0267537246,
			"-0.001": 23.0120334743,
			"0.0": 16.6170444672,
			"0.001": 19.4234122536,
			"0.002": 21.0601309107,
			"0.003": 23.0965200407,
			"0.004": 23.9812581218,
			"0.005": 19.4957832334,
			"0.006": 10.0435929658,
			"0.007": 7.36493021917,
			"0.008": 8.59262884819,
			"0.009": 8.15257399078,
			"0.01": 6.85011537653,
			"0.011": 3.96238929578,
			"0.012": 2.48738232543,
			"0.013": 0.761906427937,
			"0.014": 0.154605769983,
			"0.015": 0.0,
			"0.016": 0.0,
			"0.017": 0.0,
			"0.018": 0.0,
			"0.019": 0.0,
			"0.02": 0.0,
			"0.021": 0.0,
			"0.022": 0.0,
			"0.023": 0.0,
			"0.024": 0.0,
			"0.025": 0.0
		}
	}
}
