{
	 "smiles": "OC(=O)C1(CCCC1)S(=O)(=O)C1=CC=C(Br)C=C1", 
	 "Tm": 412.15, 
	 "num_atms": 31, 
	 "gaussian": { 
		 "optdone": 1, 
		 "sigma_profile": "yes", 
		 "theory": "DFT", 
		 "functional": "B3LYP", 
		 "basiset": "6-31G**", 
		 "properties": { 
			 "R2extent": 9195.4459, 
			 "electric_dipole_moment_norm": 2.34224892144, 
			 "electric_quadrupole_moment_norm": 14.1567041472, 
			 "total_energy": -3735.55179798, 
			 "HOMO_LUMO_gap": 0.20819, 
			 "cosmo_polarized_energy": -13.85, 
			 "cosmo_cavitation_energy": 36.24, 
			 "cosmo_dispersion_energy": -26.6, 
			 "cosmo_repulsion_energy": 2.0, 
			 "cosmo_total_nonelectrostatic_energy": 11.64, 
			 "SMD_solvation_energy": 4.72 
		},
		"coords": [
			{
				"x": 0.3042850288,
				"y": 1.6924074604,
				"z": 3.3277713111,
				"element": "O" 
			},
			{
				"x": -0.4495627777,
				"y": 1.2127659282,
				"z": 2.3260667051,
				"element": "C" 
			},
			{
				"x": -1.1990885401,
				"y": 1.9301303166,
				"z": 1.7072071923,
				"element": "O" 
			},
			{
				"x": -0.388078799,
				"y": -0.3177740816,
				"z": 2.073468829,
				"element": "C" 
			},
			{
				"x": -1.1912640309,
				"y": -1.0545094063,
				"z": 3.2071832206,
				"element": "C" 
			},
			{
				"x": -2.5254486594,
				"y": -1.4178008218,
				"z": 2.535208732,
				"element": "C" 
			},
			{
				"x": -2.1058312024,
				"y": -1.8021160588,
				"z": 1.1103772647,
				"element": "C" 
			},
			{
				"x": -1.0669831827,
				"y": -0.7274148646,
				"z": 0.7379958595,
				"element": "C" 
			},
			{
				"x": 1.3527102015,
				"y": -0.9564589316,
				"z": 2.1504889911,
				"element": "S" 
			},
			{
				"x": 1.9276339897,
				"y": -0.430733895,
				"z": 3.4196114502,
				"element": "O" 
			},
			{
				"x": 1.3173016068,
				"y": -2.4079410191,
				"z": 1.9176423898,
				"element": "O" 
			},
			{
				"x": 2.2477839119,
				"y": -0.2040681942,
				"z": 0.7854315519,
				"element": "C" 
			},
			{
				"x": 2.5614807939,
				"y": -0.9941556057,
				"z": -0.3224591451,
				"element": "C" 
			},
			{
				"x": 3.2737522513,
				"y": -0.4337745357,
				"z": -1.3814536245,
				"element": "C" 
			},
			{
				"x": 3.6563542116,
				"y": 0.9064577854,
				"z": -1.3117998307,
				"element": "C" 
			},
			{
				"x": 4.6249311357,
				"y": 1.6747396584,
				"z": -2.7597653753,
				"element": "Br" 
			},
			{
				"x": 3.3496113969,
				"y": 1.6955190156,
				"z": -0.2014230806,
				"element": "C" 
			},
			{
				"x": 2.6435615435,
				"y": 1.1347765686,
				"z": 0.8606904688,
				"element": "C" 
			},
			{
				"x": 0.9079577902,
				"y": 0.9929237435,
				"z": 3.6719046437,
				"element": "H" 
			},
			{
				"x": -0.6656392688,
				"y": -1.9707062761,
				"z": 3.4939051214,
				"element": "H" 
			},
			{
				"x": -1.2946537594,
				"y": -0.4351112045,
				"z": 4.1009206216,
				"element": "H" 
			},
			{
				"x": -3.1863023696,
				"y": -0.543522744,
				"z": 2.5127899404,
				"element": "H" 
			},
			{
				"x": -3.0462478412,
				"y": -2.2183916421,
				"z": 3.0688206489,
				"element": "H" 
			},
			{
				"x": -1.6378759137,
				"y": -2.7928835335,
				"z": 1.1151561448,
				"element": "H" 
			},
			{
				"x": -2.9418326904,
				"y": -1.8285823605,
				"z": 0.4055145387,
				"element": "H" 
			},
			{
				"x": -1.5531328626,
				"y": 0.1665151626,
				"z": 0.3412675489,
				"element": "H" 
			},
			{
				"x": -0.3503335768,
				"y": -1.0733401893,
				"z": -0.0108183651,
				"element": "H" 
			},
			{
				"x": 2.2647038932,
				"y": -2.0370163081,
				"z": -0.3408760574,
				"element": "H" 
			},
			{
				"x": 3.5315256947,
				"y": -1.0309357828,
				"z": -2.2482603469,
				"element": "H" 
			},
			{
				"x": 3.6630174935,
				"y": 2.7321279145,
				"z": -0.1645946164,
				"element": "H" 
			},
			{
				"x": 2.4112645313,
				"y": 1.7356739014,
				"z": 1.7328272676,
				"element": "H" 
			}
		],
		 "valence_orbital": [ 
			{
				"type": "occ",
				"energy": -0.30718,
				"method": "rhf"
			},
			{
				"type": "occ",
				"energy": -0.30541,
				"method": "rhf"
			},
			{
				"type": "occ",
				"energy": -0.29343,
				"method": "rhf"
			},
			{
				"type": "occ",
				"energy": -0.2797,
				"method": "rhf"
			},
			{
				"type": "occ",
				"energy": -0.27205,
				"method": "rhf"
			},
			{
				"type": "unocc",
				"energy": -0.06386,
				"method": "rhf"
			},
			{
				"type": "unocc",
				"energy": -0.04575,
				"method": "rhf"
			},
			{
				"type": "unocc",
				"energy": -0.01624,
				"method": "rhf"
			},
			{
				"type": "unocc",
				"energy": -0.01229,
				"method": "rhf"
			},
			{
				"type": "unocc",
				"energy": 0.0425,
				"method": "rhf"
			}
		],
		"cosmo_sigma_profile": { 
			"-0.025": 0.0,
			"-0.024": 0.0,
			"-0.023": 0.0,
			"-0.022": 0.0,
			"-0.021": 0.0,
			"-0.02": 0.0,
			"-0.019": 0.0,
			"-0.018": 0.0,
			"-0.017": 0.0,
			"-0.016": 0.0,
			"-0.015": 0.0,
			"-0.014": 0.0,
			"-0.013": 0.0,
			"-0.012": 0.0,
			"-0.011": 0.0,
			"-0.01": 0.0742707347611,
			"-0.009": 2.3316946142,
			"-0.008": 8.27932000497,
			"-0.007": 9.12201463698,
			"-0.006": 11.5489630497,
			"-0.005": 13.9304413422,
			"-0.004": 21.3975194278,
			"-0.003": 29.8217972156,
			"-0.002": 29.4533092439,
			"-0.001": 28.5953932692,
			"0.0": 32.2007978868,
			"0.001": 17.8842945021,
			"0.002": 12.1122520451,
			"0.003": 14.4801285697,
			"0.004": 11.1663208786,
			"0.005": 4.07345839129,
			"0.006": 4.63020776343,
			"0.007": 5.58802429185,
			"0.008": 5.50476701031,
			"0.009": 8.9298716751,
			"0.01": 10.8752241969,
			"0.011": 7.61972388537,
			"0.012": 1.52583440631,
			"0.013": 0.0288771138514,
			"0.014": 0.0,
			"0.015": 0.0,
			"0.016": 0.0,
			"0.017": 0.0,
			"0.018": 0.0,
			"0.019": 0.0,
			"0.02": 0.0,
			"0.021": 0.0,
			"0.022": 0.0,
			"0.023": 0.0,
			"0.024": 0.0,
			"0.025": 0.0
		}
	}
}
