{
	 "smiles": "OC(=O)CNC1CCS(=O)(=O)C1", 
	 "Tm": 515.15, 
	 "num_atms": 23, 
	 "gaussian": { 
		 "optdone": 1, 
		 "sigma_profile": "yes", 
		 "theory": "DFT", 
		 "functional": "B3LYP", 
		 "basiset": "6-31G**", 
		 "properties": { 
			 "R2extent": 2554.2247, 
			 "electric_dipole_moment_norm": 6.20564896284, 
			 "electric_quadrupole_moment_norm": 23.8999681339, 
			 "total_energy": -989.0436828, 
			 "HOMO_LUMO_gap": 0.26298, 
			 "cosmo_polarized_energy": -26.71, 
			 "cosmo_cavitation_energy": 26.0, 
			 "cosmo_dispersion_energy": -19.78, 
			 "cosmo_repulsion_energy": 1.51, 
			 "cosmo_total_nonelectrostatic_energy": 7.74, 
			 "SMD_solvation_energy": 4.32 
		},
		"coords": [
			{
				"x": -1.7715798931,
				"y": -1.3410671355,
				"z": -1.9704324918,
				"element": "O" 
			},
			{
				"x": -1.3770214563,
				"y": -0.6681385955,
				"z": -3.0656985543,
				"element": "C" 
			},
			{
				"x": -2.1384800265,
				"y": -0.2915542895,
				"z": -3.9228000752,
				"element": "O" 
			},
			{
				"x": 0.1446949445,
				"y": -0.4522988374,
				"z": -3.1441862618,
				"element": "C" 
			},
			{
				"x": 0.779653552,
				"y": -0.6273543763,
				"z": -1.8377327306,
				"element": "N" 
			},
			{
				"x": 1.1580142865,
				"y": 0.5949286783,
				"z": -1.1156846094,
				"element": "C" 
			},
			{
				"x": -0.0710769517,
				"y": 1.4781132189,
				"z": -0.7695402065,
				"element": "C" 
			},
			{
				"x": -0.8603775262,
				"y": 0.8384585678,
				"z": 0.3836955284,
				"element": "C" 
			},
			{
				"x": 0.3495493881,
				"y": -0.1807312993,
				"z": 1.3246240038,
				"element": "S" 
			},
			{
				"x": 0.0024670514,
				"y": -1.6040057184,
				"z": 1.1704977505,
				"element": "O" 
			},
			{
				"x": 0.5848885905,
				"y": 0.3904690991,
				"z": 2.6589730704,
				"element": "O" 
			},
			{
				"x": 1.7755355948,
				"y": 0.2114804021,
				"z": 0.2312397131,
				"element": "C" 
			},
			{
				"x": -0.9639483225,
				"y": -1.4933602925,
				"z": -1.4286597343,
				"element": "H" 
			},
			{
				"x": 0.3294188375,
				"y": 0.5265986088,
				"z": -3.6030264843,
				"element": "H" 
			},
			{
				"x": 0.5298449407,
				"y": -1.2034477697,
				"z": -3.8424689635,
				"element": "H" 
			},
			{
				"x": 1.5800762235,
				"y": -1.2468197878,
				"z": -1.8992665752,
				"element": "H" 
			},
			{
				"x": 1.8732855528,
				"y": 1.201331415,
				"z": -1.6952031248,
				"element": "H" 
			},
			{
				"x": 0.3055077564,
				"y": 2.4598061891,
				"z": -0.4652631106,
				"element": "H" 
			},
			{
				"x": -0.7121247872,
				"y": 1.6415614363,
				"z": -1.6397993906,
				"element": "H" 
			},
			{
				"x": -1.2793331157,
				"y": 1.5654108988,
				"z": 1.0803876659,
				"element": "H" 
			},
			{
				"x": -1.6408341412,
				"y": 0.1585134963,
				"z": 0.0406373724,
				"element": "H" 
			},
			{
				"x": 2.4259276357,
				"y": -0.665500423,
				"z": 0.205335202,
				"element": "H" 
			},
			{
				"x": 2.3053118659,
				"y": 1.0521065144,
				"z": 0.6846720065,
				"element": "H" 
			}
		],
		 "valence_orbital": [ 
			{
				"type": "occ",
				"energy": -0.31269,
				"method": "rhf"
			},
			{
				"type": "occ",
				"energy": -0.30546,
				"method": "rhf"
			},
			{
				"type": "occ",
				"energy": -0.29571,
				"method": "rhf"
			},
			{
				"type": "occ",
				"energy": -0.28582,
				"method": "rhf"
			},
			{
				"type": "occ",
				"energy": -0.26051,
				"method": "rhf"
			},
			{
				"type": "unocc",
				"energy": 0.00247,
				"method": "rhf"
			},
			{
				"type": "unocc",
				"energy": 0.03301,
				"method": "rhf"
			},
			{
				"type": "unocc",
				"energy": 0.04848,
				"method": "rhf"
			},
			{
				"type": "unocc",
				"energy": 0.05538,
				"method": "rhf"
			},
			{
				"type": "unocc",
				"energy": 0.06101,
				"method": "rhf"
			}
		],
		"cosmo_sigma_profile": { 
			"-0.025": 0.0,
			"-0.024": 0.0,
			"-0.023": 0.0,
			"-0.022": 0.0,
			"-0.021": 0.0,
			"-0.02": 0.0,
			"-0.019": 0.0,
			"-0.018": 0.0,
			"-0.017": 0.0,
			"-0.016": 0.0,
			"-0.015": 0.0,
			"-0.014": 0.0,
			"-0.013": 1.3368165862,
			"-0.012": 2.83703372701,
			"-0.011": 1.79147625667,
			"-0.01": 1.94961006043,
			"-0.009": 6.0489108118,
			"-0.008": 11.9978270983,
			"-0.007": 15.1241454907,
			"-0.006": 22.4522118753,
			"-0.005": 20.894606421,
			"-0.004": 15.1297385367,
			"-0.003": 10.6403131128,
			"-0.002": 5.62100299721,
			"-0.001": 4.86255996114,
			"0.0": 3.65364357795,
			"0.001": 3.3579441433,
			"0.002": 4.13208859021,
			"0.003": 2.99669205675,
			"0.004": 3.58349265312,
			"0.005": 3.49767631,
			"0.006": 4.19933178543,
			"0.007": 4.414487381,
			"0.008": 4.17154719385,
			"0.009": 6.67557739082,
			"0.01": 8.44414857339,
			"0.011": 11.8551976778,
			"0.012": 16.147990672,
			"0.013": 5.81610194553,
			"0.014": 0.350671415677,
			"0.015": 0.0,
			"0.016": 0.0,
			"0.017": 0.0,
			"0.018": 0.0,
			"0.019": 0.0,
			"0.02": 0.0,
			"0.021": 0.0,
			"0.022": 0.0,
			"0.023": 0.0,
			"0.024": 0.0,
			"0.025": 0.0
		}
	}
}
