{
	 "smiles": "CC(NC(=S)NN)C1CC1", 
	 "Tm": 342.15, 
	 "num_atms": 23, 
	 "gaussian": { 
		 "optdone": 1, 
		 "sigma_profile": "yes", 
		 "theory": "DFT", 
		 "functional": "B3LYP", 
		 "basiset": "6-31G**", 
		 "properties": { 
			 "R2extent": 2183.036, 
			 "electric_dipole_moment_norm": 3.94820476166, 
			 "electric_quadrupole_moment_norm": 4.70707613068, 
			 "total_energy": -798.860752977, 
			 "HOMO_LUMO_gap": 0.20199, 
			 "cosmo_polarized_energy": -16.7, 
			 "cosmo_cavitation_energy": 26.3, 
			 "cosmo_dispersion_energy": -19.52, 
			 "cosmo_repulsion_energy": 1.56, 
			 "cosmo_total_nonelectrostatic_energy": 8.35, 
			 "SMD_solvation_energy": 3.6 
		},
		"coords": [
			{
				"x": -0.940092761,
				"y": -1.4217504666,
				"z": 1.0175392498,
				"element": "C" 
			},
			{
				"x": 0.3235330968,
				"y": -0.6007516516,
				"z": 0.7336851806,
				"element": "C" 
			},
			{
				"x": 0.6828494597,
				"y": -0.6228256233,
				"z": -0.7028853019,
				"element": "N" 
			},
			{
				"x": 0.0103914731,
				"y": -0.1179872064,
				"z": -1.7720172168,
				"element": "C" 
			},
			{
				"x": -1.4842776498,
				"y": 0.6521385416,
				"z": -1.7405124954,
				"element": "S" 
			},
			{
				"x": 0.696536031,
				"y": -0.2958933141,
				"z": -2.9564568829,
				"element": "N" 
			},
			{
				"x": 0.142007804,
				"y": -0.004699323,
				"z": -4.2157124203,
				"element": "N" 
			},
			{
				"x": 0.3465689461,
				"y": 0.8145394339,
				"z": 1.3137760787,
				"element": "C" 
			},
			{
				"x": 0.0199393597,
				"y": 1.0695635741,
				"z": 2.7702593617,
				"element": "C" 
			},
			{
				"x": -0.8809271602,
				"y": 1.6003399617,
				"z": 1.6833485755,
				"element": "C" 
			},
			{
				"x": -1.8116136166,
				"y": -0.9901825911,
				"z": 0.5248893648,
				"element": "H" 
			},
			{
				"x": -1.1269048873,
				"y": -1.4738825485,
				"z": 2.0942902248,
				"element": "H" 
			},
			{
				"x": -0.8064902058,
				"y": -2.4435387924,
				"z": 0.6509008273,
				"element": "H" 
			},
			{
				"x": 1.1633621737,
				"y": -1.1355039174,
				"z": 1.1969423183,
				"element": "H" 
			},
			{
				"x": 1.6343135184,
				"y": -0.9127966331,
				"z": -0.8870933016,
				"element": "H" 
			},
			{
				"x": 1.3722278931,
				"y": -1.0480533617,
				"z": -3.0011305971,
				"element": "H" 
			},
			{
				"x": -0.8564321687,
				"y": -0.2227404952,
				"z": -4.1662596449,
				"element": "H" 
			},
			{
				"x": 0.1819920155,
				"y": 1.0069801484,
				"z": -4.3347324136,
				"element": "H" 
			},
			{
				"x": 1.1773531605,
				"y": 1.3979245224,
				"z": 0.9213994841,
				"element": "H" 
			},
			{
				"x": -0.3450446495,
				"y": 0.2419746049,
				"z": 3.3723465413,
				"element": "H" 
			},
			{
				"x": 0.6505580775,
				"y": 1.7638736437,
				"z": 3.3180134433,
				"element": "H" 
			},
			{
				"x": -1.847332235,
				"y": 1.1293188262,
				"z": 1.5445740949,
				"element": "H" 
			},
			{
				"x": -0.8789176754,
				"y": 2.6650526675,
				"z": 1.4725355294,
				"element": "H" 
			}
		],
		 "valence_orbital": [ 
			{
				"type": "occ",
				"energy": -0.28469,
				"method": "rhf"
			},
			{
				"type": "occ",
				"energy": -0.2759,
				"method": "rhf"
			},
			{
				"type": "occ",
				"energy": -0.25182,
				"method": "rhf"
			},
			{
				"type": "occ",
				"energy": -0.21697,
				"method": "rhf"
			},
			{
				"type": "occ",
				"energy": -0.20194,
				"method": "rhf"
			},
			{
				"type": "unocc",
				"energy": 5e-05,
				"method": "rhf"
			},
			{
				"type": "unocc",
				"energy": 0.04887,
				"method": "rhf"
			},
			{
				"type": "unocc",
				"energy": 0.08872,
				"method": "rhf"
			},
			{
				"type": "unocc",
				"energy": 0.0988,
				"method": "rhf"
			},
			{
				"type": "unocc",
				"energy": 0.10058,
				"method": "rhf"
			}
		],
		"cosmo_sigma_profile": { 
			"-0.025": 0.0,
			"-0.024": 0.0,
			"-0.023": 0.0,
			"-0.022": 0.0,
			"-0.021": 0.0,
			"-0.02": 0.0,
			"-0.019": 0.0,
			"-0.018": 0.0181664976572,
			"-0.017": 1.11222491777,
			"-0.016": 1.59926776863,
			"-0.015": 2.00881646176,
			"-0.014": 1.67359050826,
			"-0.013": 2.32928829028,
			"-0.012": 1.66468920443,
			"-0.011": 2.38758963976,
			"-0.01": 2.63523944951,
			"-0.009": 2.91495229416,
			"-0.008": 3.49055537191,
			"-0.007": 3.41621553618,
			"-0.006": 3.36784807349,
			"-0.005": 8.27152520985,
			"-0.004": 11.5089415135,
			"-0.003": 17.7289238317,
			"-0.002": 18.8491426452,
			"-0.001": 15.4751872017,
			"0.0": 15.3634444186,
			"0.001": 15.2612408858,
			"0.002": 10.862744804,
			"0.003": 9.47044035491,
			"0.004": 8.81075729677,
			"0.005": 7.53618390941,
			"0.006": 6.9117649101,
			"0.007": 5.61896032176,
			"0.008": 6.01158911973,
			"0.009": 5.35897283538,
			"0.01": 6.44937472725,
			"0.011": 5.19309479492,
			"0.012": 1.40618848176,
			"0.013": 0.359729741044,
			"0.014": 0.640726788612,
			"0.015": 0.759090393109,
			"0.016": 0.501484622082,
			"0.017": 0.192968923918,
			"0.018": 0.0,
			"0.019": 0.0,
			"0.02": 0.0,
			"0.021": 0.0,
			"0.022": 0.0,
			"0.023": 0.0,
			"0.024": 0.0,
			"0.025": 0.0
		}
	}
}
