{
	 "smiles": "[O-][N+](=O)C1=CC(C=CC(=O)C2=CC=CC=C2)=CC=C1", 
	 "Tm": 419.15, 
	 "num_atms": 30, 
	 "gaussian": { 
		 "optdone": 1, 
		 "sigma_profile": "yes", 
		 "theory": "DFT", 
		 "functional": "B3LYP", 
		 "basiset": "6-31G**", 
		 "properties": { 
			 "R2extent": 7673.5627, 
			 "electric_dipole_moment_norm": 6.55199871032, 
			 "electric_quadrupole_moment_norm": 8.2580315772, 
			 "total_energy": -858.533743906, 
			 "HOMO_LUMO_gap": 0.15404, 
			 "cosmo_polarized_energy": -15.33, 
			 "cosmo_cavitation_energy": 36.33, 
			 "cosmo_dispersion_energy": -25.81, 
			 "cosmo_repulsion_energy": 1.97, 
			 "cosmo_total_nonelectrostatic_energy": 12.48, 
			 "SMD_solvation_energy": 8.93 
		},
		"coords": [
			{
				"x": 4.0646937148,
				"y": 1.5833234467,
				"z": 1.6587335081,
				"element": "O" 
			},
			{
				"x": 3.3362292346,
				"y": 1.9776721505,
				"z": 2.5674457324,
				"element": "N" 
			},
			{
				"x": 3.7139344474,
				"y": 2.6322284693,
				"z": 3.5377200646,
				"element": "O" 
			},
			{
				"x": 1.900895999,
				"y": 1.6421734774,
				"z": 2.4898000881,
				"element": "C" 
			},
			{
				"x": 1.4501408025,
				"y": 0.9002120265,
				"z": 1.4067738909,
				"element": "C" 
			},
			{
				"x": 0.0862274005,
				"y": 0.5744575225,
				"z": 1.315411149,
				"element": "C" 
			},
			{
				"x": -0.4757451278,
				"y": -0.2025122364,
				"z": 0.2034798877,
				"element": "C" 
			},
			{
				"x": 0.2067413048,
				"y": -0.7829216928,
				"z": -0.8021778563,
				"element": "C" 
			},
			{
				"x": -0.3786885219,
				"y": -1.6738426923,
				"z": -1.8393551041,
				"element": "C" 
			},
			{
				"x": 0.334928311,
				"y": -2.5441422187,
				"z": -2.3290184831,
				"element": "O" 
			},
			{
				"x": -1.8105689691,
				"y": -1.540048414,
				"z": -2.2662150836,
				"element": "C" 
			},
			{
				"x": -2.4986983136,
				"y": -0.3166329384,
				"z": -2.2698150906,
				"element": "C" 
			},
			{
				"x": -3.8127981461,
				"y": -0.2496690802,
				"z": -2.735273882,
				"element": "C" 
			},
			{
				"x": -4.4533431851,
				"y": -1.4028200641,
				"z": -3.1911269794,
				"element": "C" 
			},
			{
				"x": -3.7708977157,
				"y": -2.6235660117,
				"z": -3.2002797551,
				"element": "C" 
			},
			{
				"x": -2.4547117282,
				"y": -2.6888460998,
				"z": -2.753377505,
				"element": "C" 
			},
			{
				"x": -0.7739670787,
				"y": 1.0230371633,
				"z": 2.3356161841,
				"element": "C" 
			},
			{
				"x": -0.2984325857,
				"y": 1.7661056994,
				"z": 3.4159728993,
				"element": "C" 
			},
			{
				"x": 1.0537145846,
				"y": 2.0860208953,
				"z": 3.5056977063,
				"element": "C" 
			},
			{
				"x": 2.1652775978,
				"y": 0.5930320457,
				"z": 0.6545831994,
				"element": "H" 
			},
			{
				"x": -1.5558285215,
				"y": -0.326600715,
				"z": 0.2350628655,
				"element": "H" 
			},
			{
				"x": 1.2926893038,
				"y": -0.7494331593,
				"z": -0.8416347807,
				"element": "H" 
			},
			{
				"x": -1.9975120643,
				"y": 0.5872793292,
				"z": -1.9401999947,
				"element": "H" 
			},
			{
				"x": -4.3330520364,
				"y": 0.7036727524,
				"z": -2.7475625194,
				"element": "H" 
			},
			{
				"x": -5.4784383725,
				"y": -1.350282805,
				"z": -3.546728849,
				"element": "H" 
			},
			{
				"x": -4.2652871175,
				"y": -3.5201595934,
				"z": -3.5626731095,
				"element": "H" 
			},
			{
				"x": -1.9004990978,
				"y": -3.6213493854,
				"z": -2.7729207473,
				"element": "H" 
			},
			{
				"x": -1.8313938698,
				"y": 0.7798119646,
				"z": 2.2768079137,
				"element": "H" 
			},
			{
				"x": -0.9834684816,
				"y": 2.0972715081,
				"z": 4.1898007941,
				"element": "H" 
			},
			{
				"x": 1.4595582326,
				"y": 2.6616286557,
				"z": 4.3276538565,
				"element": "H" 
			}
		],
		 "valence_orbital": [ 
			{
				"type": "occ",
				"energy": -0.29122,
				"method": "rhf"
			},
			{
				"type": "occ",
				"energy": -0.26705,
				"method": "rhf"
			},
			{
				"type": "occ",
				"energy": -0.26557,
				"method": "rhf"
			},
			{
				"type": "occ",
				"energy": -0.25895,
				"method": "rhf"
			},
			{
				"type": "occ",
				"energy": -0.25001,
				"method": "rhf"
			},
			{
				"type": "unocc",
				"energy": -0.09597,
				"method": "rhf"
			},
			{
				"type": "unocc",
				"energy": -0.08666,
				"method": "rhf"
			},
			{
				"type": "unocc",
				"energy": -0.04127,
				"method": "rhf"
			},
			{
				"type": "unocc",
				"energy": -0.01568,
				"method": "rhf"
			},
			{
				"type": "unocc",
				"energy": -0.01252,
				"method": "rhf"
			}
		],
		"cosmo_sigma_profile": { 
			"-0.025": 0.0,
			"-0.024": 0.0,
			"-0.023": 0.0,
			"-0.022": 0.0,
			"-0.021": 0.0,
			"-0.02": 0.0,
			"-0.019": 0.0,
			"-0.018": 0.0,
			"-0.017": 0.0,
			"-0.016": 0.0,
			"-0.015": 0.0,
			"-0.014": 0.0,
			"-0.013": 0.0,
			"-0.012": 0.0,
			"-0.011": 4.93009171882e-05,
			"-0.01": 0.681723767278,
			"-0.009": 2.12902997373,
			"-0.008": 6.22937283196,
			"-0.007": 10.9359737933,
			"-0.006": 19.9019403841,
			"-0.005": 20.2932420227,
			"-0.004": 20.0174002683,
			"-0.003": 19.8562996218,
			"-0.002": 21.6920622564,
			"-0.001": 22.4632566114,
			"0.0": 26.9290333674,
			"0.001": 24.9738785237,
			"0.002": 16.9970918748,
			"0.003": 12.8689784735,
			"0.004": 16.572393926,
			"0.005": 6.27091331022,
			"0.006": 6.04399033238,
			"0.007": 10.5775731214,
			"0.008": 8.08779927853,
			"0.009": 6.06870203445,
			"0.01": 3.18195189045,
			"0.011": 2.95730384014,
			"0.012": 4.46476109493,
			"0.013": 2.41274056924,
			"0.014": 0.133719108958,
			"0.015": 0.0,
			"0.016": 0.0,
			"0.017": 0.0,
			"0.018": 0.0,
			"0.019": 0.0,
			"0.02": 0.0,
			"0.021": 0.0,
			"0.022": 0.0,
			"0.023": 0.0,
			"0.024": 0.0,
			"0.025": 0.0
		}
	}
}
