{
	 "smiles": "ClCC(=O)NCC1=C(C=CC=C1)S(=O)(=O)N1CCOCC1", 
	 "Tm": 397.15, 
	 "num_atms": 38, 
	 "gaussian": { 
		 "optdone": 1, 
		 "sigma_profile": "yes", 
		 "theory": "DFT", 
		 "functional": "B3LYP", 
		 "basiset": "6-31G**", 
		 "properties": { 
			 "R2extent": 7429.6986, 
			 "electric_dipole_moment_norm": 6.93694565857, 
			 "electric_quadrupole_moment_norm": 28.298967854, 
			 "total_energy": -1774.31581081, 
			 "HOMO_LUMO_gap": 0.19453, 
			 "cosmo_polarized_energy": -22.78, 
			 "cosmo_cavitation_energy": 42.14, 
			 "cosmo_dispersion_energy": -29.35, 
			 "cosmo_repulsion_energy": 2.23, 
			 "cosmo_total_nonelectrostatic_energy": 15.03, 
			 "SMD_solvation_energy": 5.1 
		},
		"coords": [
			{
				"x": -1.0403161017,
				"y": -1.2511600499,
				"z": 4.1957198609,
				"element": "Cl" 
			},
			{
				"x": 0.758181262,
				"y": -1.1314854614,
				"z": 3.9187565841,
				"element": "C" 
			},
			{
				"x": 1.2566901132,
				"y": 0.3107508361,
				"z": 3.8675771211,
				"element": "C" 
			},
			{
				"x": 2.0419570598,
				"y": 0.7178249145,
				"z": 4.7127951656,
				"element": "O" 
			},
			{
				"x": 0.8364854659,
				"y": 1.1115724937,
				"z": 2.8412857493,
				"element": "N" 
			},
			{
				"x": -0.0998726374,
				"y": 0.8309640145,
				"z": 1.7567208601,
				"element": "C" 
			},
			{
				"x": 0.3857738137,
				"y": 1.4765440205,
				"z": 0.4651228129,
				"element": "C" 
			},
			{
				"x": 1.1855919168,
				"y": 0.8642816471,
				"z": -0.5234294328,
				"element": "C" 
			},
			{
				"x": 1.6737715303,
				"y": 1.6026947739,
				"z": -1.6104726081,
				"element": "C" 
			},
			{
				"x": 1.3599663294,
				"y": 2.9525235262,
				"z": -1.7479581473,
				"element": "C" 
			},
			{
				"x": 0.5450183128,
				"y": 3.5683410688,
				"z": -0.7992631769,
				"element": "C" 
			},
			{
				"x": 0.0735486983,
				"y": 2.8336253648,
				"z": 0.2865764947,
				"element": "C" 
			},
			{
				"x": 1.5889394442,
				"y": -0.9060375548,
				"z": -0.5669600824,
				"element": "S" 
			},
			{
				"x": 1.5506730933,
				"y": -1.4301100562,
				"z": 0.8014597048,
				"element": "O" 
			},
			{
				"x": 2.778848971,
				"y": -1.0478415664,
				"z": -1.4066690498,
				"element": "O" 
			},
			{
				"x": 0.3457962668,
				"y": -1.6658441956,
				"z": -1.3901000121,
				"element": "N" 
			},
			{
				"x": -0.971496095,
				"y": -1.7728919364,
				"z": -0.7379305404,
				"element": "C" 
			},
			{
				"x": -1.9049778249,
				"y": -2.5393262439,
				"z": -1.6711994377,
				"element": "C" 
			},
			{
				"x": -2.113968733,
				"y": -1.8724634625,
				"z": -2.9111981998,
				"element": "O" 
			},
			{
				"x": -0.9942405181,
				"y": -1.1277743346,
				"z": -3.3877900706,
				"element": "C" 
			},
			{
				"x": 0.3361612398,
				"y": -1.6645475242,
				"z": -2.8680116477,
				"element": "C" 
			},
			{
				"x": 0.9793193936,
				"y": -1.6675335277,
				"z": 2.9959403626,
				"element": "H" 
			},
			{
				"x": 1.2390084078,
				"y": -1.6060326285,
				"z": 4.7703015541,
				"element": "H" 
			},
			{
				"x": 1.2073795013,
				"y": 2.0514056346,
				"z": 2.9042376914,
				"element": "H" 
			},
			{
				"x": -1.0908701027,
				"y": 1.2403379698,
				"z": 1.9939458652,
				"element": "H" 
			},
			{
				"x": -0.2062748265,
				"y": -0.2436234113,
				"z": 1.6591067192,
				"element": "H" 
			},
			{
				"x": 2.3229613982,
				"y": 1.1137031972,
				"z": -2.3274444816,
				"element": "H" 
			},
			{
				"x": 1.7519628567,
				"y": 3.5154596332,
				"z": -2.5892460932,
				"element": "H" 
			},
			{
				"x": 0.282048069,
				"y": 4.6171620662,
				"z": -0.8981438697,
				"element": "H" 
			},
			{
				"x": -0.5534046241,
				"y": 3.321020673,
				"z": 1.0293823431,
				"element": "H" 
			},
			{
				"x": -0.8632182666,
				"y": -2.3091273651,
				"z": 0.2081039399,
				"element": "H" 
			},
			{
				"x": -1.40675099,
				"y": -0.7830892373,
				"z": -0.5319018468,
				"element": "H" 
			},
			{
				"x": -2.8866391755,
				"y": -2.6433219311,
				"z": -1.1993895933,
				"element": "H" 
			},
			{
				"x": -1.5018908779,
				"y": -3.5496987792,
				"z": -1.837063232,
				"element": "H" 
			},
			{
				"x": -1.0143804348,
				"y": -1.1824960288,
				"z": -4.4816512819,
				"element": "H" 
			},
			{
				"x": -1.0984698801,
				"y": -0.0696452818,
				"z": -3.1026756697,
				"element": "H" 
			},
			{
				"x": 1.1659584188,
				"y": -1.062799896,
				"z": -3.2426389426,
				"element": "H" 
			},
			{
				"x": 0.4980295259,
				"y": -2.6883613615,
				"z": -3.2252954125,
				"element": "H" 
			}
		],
		 "valence_orbital": [ 
			{
				"type": "occ",
				"energy": -0.28446,
				"method": "rhf"
			},
			{
				"type": "occ",
				"energy": -0.27049,
				"method": "rhf"
			},
			{
				"type": "occ",
				"energy": -0.26015,
				"method": "rhf"
			},
			{
				"type": "occ",
				"energy": -0.2542,
				"method": "rhf"
			},
			{
				"type": "occ",
				"energy": -0.24931,
				"method": "rhf"
			},
			{
				"type": "unocc",
				"energy": -0.05478,
				"method": "rhf"
			},
			{
				"type": "unocc",
				"energy": -0.04016,
				"method": "rhf"
			},
			{
				"type": "unocc",
				"energy": -0.01056,
				"method": "rhf"
			},
			{
				"type": "unocc",
				"energy": 0.03883,
				"method": "rhf"
			},
			{
				"type": "unocc",
				"energy": 0.06252,
				"method": "rhf"
			}
		],
		"cosmo_sigma_profile": { 
			"-0.025": 0.0,
			"-0.024": 0.0,
			"-0.023": 0.0,
			"-0.022": 0.0,
			"-0.021": 0.0,
			"-0.02": 0.0,
			"-0.019": 0.0,
			"-0.018": 0.0,
			"-0.017": 0.0,
			"-0.016": 0.0,
			"-0.015": 0.0,
			"-0.014": 0.0740824021734,
			"-0.013": 0.570852514785,
			"-0.012": 0.810870592897,
			"-0.011": 0.961215402517,
			"-0.01": 1.24730871032,
			"-0.009": 1.86716245698,
			"-0.008": 3.89189197475,
			"-0.007": 12.0175933603,
			"-0.006": 26.8505259012,
			"-0.005": 37.8106530197,
			"-0.004": 33.9723361999,
			"-0.003": 22.5837422381,
			"-0.002": 17.6957624128,
			"-0.001": 15.4936333098,
			"0.0": 17.930047724,
			"0.001": 19.9072315401,
			"0.002": 19.7241413542,
			"0.003": 19.5813318736,
			"0.004": 13.8962099284,
			"0.005": 11.5383444389,
			"0.006": 10.0884441013,
			"0.007": 6.3537470467,
			"0.008": 5.47928622997,
			"0.009": 5.00802725212,
			"0.01": 7.87631272935,
			"0.011": 7.35778978475,
			"0.012": 4.91712338039,
			"0.013": 7.69532617318,
			"0.014": 2.30828572825,
			"0.015": 0.0360642347138,
			"0.016": 0.0,
			"0.017": 0.0,
			"0.018": 0.0,
			"0.019": 0.0,
			"0.02": 0.0,
			"0.021": 0.0,
			"0.022": 0.0,
			"0.023": 0.0,
			"0.024": 0.0,
			"0.025": 0.0
		}
	}
}
