{
	 "smiles": "CC1=CC(NC2CCN(CC2)C(=O)OC(C)(C)C)=CC=C1", 
	 "Tm": 428.15, 
	 "num_atms": 47, 
	 "gaussian": { 
		 "optdone": 1, 
		 "sigma_profile": "yes", 
		 "theory": "DFT", 
		 "functional": "B3LYP", 
		 "basiset": "6-31G**", 
		 "properties": { 
			 "R2extent": 11268.1074, 
			 "electric_dipole_moment_norm": 2.09327114345, 
			 "electric_quadrupole_moment_norm": 13.0059348722, 
			 "total_energy": -923.478170084, 
			 "HOMO_LUMO_gap": 0.19858, 
			 "cosmo_polarized_energy": -12.97, 
			 "cosmo_cavitation_energy": 46.72, 
			 "cosmo_dispersion_energy": -32.57, 
			 "cosmo_repulsion_energy": 2.51, 
			 "cosmo_total_nonelectrostatic_energy": 16.66, 
			 "SMD_solvation_energy": 6.94 
		},
		"coords": [
			{
				"x": -1.6965864524,
				"y": -5.6152594765,
				"z": 1.4682513963,
				"element": "C" 
			},
			{
				"x": -0.3571489811,
				"y": -4.9697542797,
				"z": 1.7427002139,
				"element": "C" 
			},
			{
				"x": -0.0230607087,
				"y": -3.7642434655,
				"z": 1.1105694566,
				"element": "C" 
			},
			{
				"x": 1.2035412301,
				"y": -3.123540558,
				"z": 1.358127026,
				"element": "C" 
			},
			{
				"x": 1.590588897,
				"y": -1.9564279498,
				"z": 0.7012059819,
				"element": "N" 
			},
			{
				"x": 0.6641397361,
				"y": -1.0846274322,
				"z": -0.0088503006,
				"element": "C" 
			},
			{
				"x": -0.3768039926,
				"y": -0.3642139779,
				"z": 0.8998156689,
				"element": "C" 
			},
			{
				"x": 0.0717224473,
				"y": 1.0465190993,
				"z": 1.2834807497,
				"element": "C" 
			},
			{
				"x": 0.2359624291,
				"y": 1.863145803,
				"z": 0.075156523,
				"element": "N" 
			},
			{
				"x": 0.6793544771,
				"y": 1.19839018,
				"z": -1.1565129216,
				"element": "C" 
			},
			{
				"x": 1.4882479387,
				"y": -0.0521605902,
				"z": -0.8078971949,
				"element": "C" 
			},
			{
				"x": -0.1510580886,
				"y": 3.1753972095,
				"z": 0.1181302602,
				"element": "C" 
			},
			{
				"x": -0.5458284415,
				"y": 3.7372326753,
				"z": 1.131912276,
				"element": "O" 
			},
			{
				"x": -0.0346275726,
				"y": 3.7493929956,
				"z": -1.1076654729,
				"element": "O" 
			},
			{
				"x": -0.3550019645,
				"y": 5.1701004502,
				"z": -1.3067542504,
				"element": "C" 
			},
			{
				"x": 0.5672914069,
				"y": 6.0455686357,
				"z": -0.4511570036,
				"element": "C" 
			},
			{
				"x": -0.0631410182,
				"y": 5.3706791874,
				"z": -2.7965814284,
				"element": "C" 
			},
			{
				"x": -1.8368508062,
				"y": 5.4215636502,
				"z": -1.0064901139,
				"element": "C" 
			},
			{
				"x": 2.095317995,
				"y": -3.7189278596,
				"z": 2.2745492435,
				"element": "C" 
			},
			{
				"x": 1.764255944,
				"y": -4.9124404683,
				"z": 2.9019499375,
				"element": "C" 
			},
			{
				"x": 0.5452106525,
				"y": -5.5453949857,
				"z": 2.6418758294,
				"element": "C" 
			},
			{
				"x": -1.9448063754,
				"y": -5.5883609281,
				"z": 0.4018880086,
				"element": "H" 
			},
			{
				"x": -1.7091531728,
				"y": -6.6600047845,
				"z": 1.791312331,
				"element": "H" 
			},
			{
				"x": -2.5042690311,
				"y": -5.0969528508,
				"z": 2.0002324369,
				"element": "H" 
			},
			{
				"x": -0.7335305824,
				"y": -3.3275106336,
				"z": 0.4158014714,
				"element": "H" 
			},
			{
				"x": 2.3571967483,
				"y": -1.4713875967,
				"z": 1.1484131326,
				"element": "H" 
			},
			{
				"x": 0.1183287949,
				"y": -1.7087731992,
				"z": -0.7257228474,
				"element": "H" 
			},
			{
				"x": -1.3364725267,
				"y": -0.2907496706,
				"z": 0.3735135959,
				"element": "H" 
			},
			{
				"x": -0.553735058,
				"y": -0.9601534234,
				"z": 1.8000989589,
				"element": "H" 
			},
			{
				"x": -0.6604371242,
				"y": 1.5437855967,
				"z": 1.9207302743,
				"element": "H" 
			},
			{
				"x": 1.0129304969,
				"y": 1.0066182951,
				"z": 1.8525986044,
				"element": "H" 
			},
			{
				"x": -0.180951392,
				"y": 0.9308134862,
				"z": -1.7889512223,
				"element": "H" 
			},
			{
				"x": 1.2895868626,
				"y": 1.8948138014,
				"z": -1.7336419481,
				"element": "H" 
			},
			{
				"x": 1.8836897775,
				"y": -0.5079250668,
				"z": -1.720362756,
				"element": "H" 
			},
			{
				"x": 2.3568228067,
				"y": 0.2592785768,
				"z": -0.2118957498,
				"element": "H" 
			},
			{
				"x": 0.3995881318,
				"y": 7.1006273574,
				"z": -0.6913143434,
				"element": "H" 
			},
			{
				"x": 0.3773990209,
				"y": 5.889652374,
				"z": 0.6108171046,
				"element": "H" 
			},
			{
				"x": 1.6157923108,
				"y": 5.8123282426,
				"z": -0.6631447849,
				"element": "H" 
			},
			{
				"x": -0.2703766614,
				"y": 6.4056202499,
				"z": -3.0846079001,
				"element": "H" 
			},
			{
				"x": 0.9860720915,
				"y": 5.1535600543,
				"z": -3.0180455426,
				"element": "H" 
			},
			{
				"x": -0.6879642821,
				"y": 4.710073675,
				"z": -3.40482472,
				"element": "H" 
			},
			{
				"x": -2.0947563432,
				"y": 6.4540874214,
				"z": -1.2641490881,
				"element": "H" 
			},
			{
				"x": -2.4636731712,
				"y": 4.7551728176,
				"z": -1.6078174369,
				"element": "H" 
			},
			{
				"x": -2.0529724205,
				"y": 5.2545731718,
				"z": 0.0487077259,
				"element": "H" 
			},
			{
				"x": 3.0508741172,
				"y": -3.2402779462,
				"z": 2.4770724052,
				"element": "H" 
			},
			{
				"x": 2.4663286614,
				"y": -5.3579691386,
				"z": 3.6017720267,
				"element": "H" 
			},
			{
				"x": 0.2964631933,
				"y": -6.4792387244,
				"z": 3.1379043865,
				"element": "H" 
			}
		],
		 "valence_orbital": [ 
			{
				"type": "occ",
				"energy": -0.28258,
				"method": "rhf"
			},
			{
				"type": "occ",
				"energy": -0.25552,
				"method": "rhf"
			},
			{
				"type": "occ",
				"energy": -0.23408,
				"method": "rhf"
			},
			{
				"type": "occ",
				"energy": -0.23147,
				"method": "rhf"
			},
			{
				"type": "occ",
				"energy": -0.1914,
				"method": "rhf"
			},
			{
				"type": "unocc",
				"energy": 0.00718,
				"method": "rhf"
			},
			{
				"type": "unocc",
				"energy": 0.0234,
				"method": "rhf"
			},
			{
				"type": "unocc",
				"energy": 0.05713,
				"method": "rhf"
			},
			{
				"type": "unocc",
				"energy": 0.07122,
				"method": "rhf"
			},
			{
				"type": "unocc",
				"energy": 0.08036,
				"method": "rhf"
			}
		],
		"cosmo_sigma_profile": { 
			"-0.025": 0.0,
			"-0.024": 0.0,
			"-0.023": 0.0,
			"-0.022": 0.0,
			"-0.021": 0.0,
			"-0.02": 0.0,
			"-0.019": 0.0,
			"-0.018": 0.0,
			"-0.017": 0.0,
			"-0.016": 0.0,
			"-0.015": 0.0,
			"-0.014": 0.0,
			"-0.013": 0.0,
			"-0.012": 0.487825601249,
			"-0.011": 1.14888142884,
			"-0.01": 1.49880514981,
			"-0.009": 1.68712299491,
			"-0.008": 1.99915175483,
			"-0.007": 2.16765414232,
			"-0.006": 2.94927068889,
			"-0.005": 8.61125813432,
			"-0.004": 34.6993742051,
			"-0.003": 51.6814671016,
			"-0.002": 43.1142344339,
			"-0.001": 40.4193805151,
			"0.0": 44.1077923825,
			"0.001": 35.303219859,
			"0.002": 15.8739124945,
			"0.003": 13.3879939332,
			"0.004": 10.6108394494,
			"0.005": 10.6521786904,
			"0.006": 12.1397484926,
			"0.007": 11.42975808,
			"0.008": 7.07504114094,
			"0.009": 1.89360610093,
			"0.01": 2.31766667503,
			"0.011": 2.05556235861,
			"0.012": 1.57037500247,
			"0.013": 2.26066204259,
			"0.014": 2.66701320841,
			"0.015": 0.0770727207584,
			"0.016": 0.0,
			"0.017": 0.0,
			"0.018": 0.0,
			"0.019": 0.0,
			"0.02": 0.0,
			"0.021": 0.0,
			"0.022": 0.0,
			"0.023": 0.0,
			"0.024": 0.0,
			"0.025": 0.0
		}
	}
}
