{
	 "smiles": "NC(=O)CCC1=CC=C(C=C1)C(=O)CCl", 
	 "Tm": 413.15, 
	 "num_atms": 27, 
	 "gaussian": { 
		 "optdone": 1, 
		 "sigma_profile": "yes", 
		 "theory": "DFT", 
		 "functional": "B3LYP", 
		 "basiset": "6-31G**", 
		 "properties": { 
			 "R2extent": 5206.703, 
			 "electric_dipole_moment_norm": 5.56055518901, 
			 "electric_quadrupole_moment_norm": 22.6979881274, 
			 "total_energy": -1091.81956102, 
			 "HOMO_LUMO_gap": 0.18415, 
			 "cosmo_polarized_energy": -18.27, 
			 "cosmo_cavitation_energy": 33.01, 
			 "cosmo_dispersion_energy": -23.48, 
			 "cosmo_repulsion_energy": 1.89, 
			 "cosmo_total_nonelectrostatic_energy": 11.42, 
			 "SMD_solvation_energy": 6.29 
		},
		"coords": [
			{
				"x": -0.0214284208,
				"y": 3.4683618361,
				"z": -2.6161783004,
				"element": "N" 
			},
			{
				"x": 1.00629092,
				"y": 2.6336512692,
				"z": -2.2864152399,
				"element": "C" 
			},
			{
				"x": 1.2885478385,
				"y": 1.6501153922,
				"z": -2.9590351952,
				"element": "O" 
			},
			{
				"x": 1.8079572069,
				"y": 3.046357997,
				"z": -1.0498672839,
				"element": "C" 
			},
			{
				"x": 2.4761057552,
				"y": 1.8455135413,
				"z": -0.3532857146,
				"element": "C" 
			},
			{
				"x": 1.5032810124,
				"y": 0.9743314417,
				"z": 0.4127547711,
				"element": "C" 
			},
			{
				"x": 0.8221670725,
				"y": -0.0773295362,
				"z": -0.218403774,
				"element": "C" 
			},
			{
				"x": -0.0854335013,
				"y": -0.8636121563,
				"z": 0.4872906687,
				"element": "C" 
			},
			{
				"x": -0.3404250013,
				"y": -0.6146577447,
				"z": 1.845378987,
				"element": "C" 
			},
			{
				"x": 0.3400446998,
				"y": 0.4381594167,
				"z": 2.4795319992,
				"element": "C" 
			},
			{
				"x": 1.248234385,
				"y": 1.2158625395,
				"z": 1.7727855056,
				"element": "C" 
			},
			{
				"x": -1.3193575984,
				"y": -1.3945626249,
				"z": 2.6510613903,
				"element": "C" 
			},
			{
				"x": -1.5784858028,
				"y": -1.1085164516,
				"z": 3.8099574732,
				"element": "O" 
			},
			{
				"x": -2.0685844382,
				"y": -2.5710577934,
				"z": 2.0153484162,
				"element": "C" 
			},
			{
				"x": -0.9733091179,
				"y": -3.9888776211,
				"z": 1.7176963978,
				"element": "Cl" 
			},
			{
				"x": -0.2845713737,
				"y": 4.2568680304,
				"z": -2.048431693,
				"element": "H" 
			},
			{
				"x": -0.5605215111,
				"y": 3.2573359377,
				"z": -3.442351162,
				"element": "H" 
			},
			{
				"x": 1.177403372,
				"y": 3.6029150107,
				"z": -0.3464273263,
				"element": "H" 
			},
			{
				"x": 2.5855667692,
				"y": 3.7409280154,
				"z": -1.3948130024,
				"element": "H" 
			},
			{
				"x": 3.2413557118,
				"y": 2.2238956598,
				"z": 0.3326845633,
				"element": "H" 
			},
			{
				"x": 2.9811831397,
				"y": 1.2552562564,
				"z": -1.122999685,
				"element": "H" 
			},
			{
				"x": 1.0057740683,
				"y": -0.267300957,
				"z": -1.2708910792,
				"element": "H" 
			},
			{
				"x": -0.5801902837,
				"y": -1.6814569827,
				"z": -0.0257092744,
				"element": "H" 
			},
			{
				"x": 0.1392899291,
				"y": 0.6222547103,
				"z": 3.5296462756,
				"element": "H" 
			},
			{
				"x": 1.7755762796,
				"y": 2.0201674117,
				"z": 2.2805695084,
				"element": "H" 
			},
			{
				"x": -2.8340987226,
				"y": -2.8983544579,
				"z": 2.7161570158,
				"element": "H" 
			},
			{
				"x": -2.5171723884,
				"y": -2.3083481402,
				"z": 1.055545758,
				"element": "H" 
			}
		],
		 "valence_orbital": [ 
			{
				"type": "occ",
				"energy": -0.27658,
				"method": "rhf"
			},
			{
				"type": "occ",
				"energy": -0.26009,
				"method": "rhf"
			},
			{
				"type": "occ",
				"energy": -0.25775,
				"method": "rhf"
			},
			{
				"type": "occ",
				"energy": -0.25639,
				"method": "rhf"
			},
			{
				"type": "occ",
				"energy": -0.25127,
				"method": "rhf"
			},
			{
				"type": "unocc",
				"energy": -0.06712,
				"method": "rhf"
			},
			{
				"type": "unocc",
				"energy": -0.01005,
				"method": "rhf"
			},
			{
				"type": "unocc",
				"energy": 0.00587,
				"method": "rhf"
			},
			{
				"type": "unocc",
				"energy": 0.02027,
				"method": "rhf"
			},
			{
				"type": "unocc",
				"energy": 0.05416,
				"method": "rhf"
			}
		],
		"cosmo_sigma_profile": { 
			"-0.025": 0.0,
			"-0.024": 0.0,
			"-0.023": 0.0,
			"-0.022": 0.0,
			"-0.021": 0.0,
			"-0.02": 0.0,
			"-0.019": 0.0,
			"-0.018": 0.0,
			"-0.017": 0.0,
			"-0.016": 0.0,
			"-0.015": 0.0630922937959,
			"-0.014": 1.6820775664,
			"-0.013": 2.56812820058,
			"-0.012": 2.06928238736,
			"-0.011": 3.06716164369,
			"-0.01": 2.76726256922,
			"-0.009": 4.86610879631,
			"-0.008": 7.04054985581,
			"-0.007": 6.01407147658,
			"-0.006": 11.4605872591,
			"-0.005": 17.8310401661,
			"-0.004": 18.3120164824,
			"-0.003": 16.1987203858,
			"-0.002": 16.4022492257,
			"-0.001": 15.5726201844,
			"0.0": 14.7791214864,
			"0.001": 16.1641509946,
			"0.002": 16.541220826,
			"0.003": 20.881891036,
			"0.004": 20.8260800246,
			"0.005": 12.8439307716,
			"0.006": 6.17088429932,
			"0.007": 3.15287252145,
			"0.008": 3.1855710482,
			"0.009": 2.9202682173,
			"0.01": 4.25241324868,
			"0.011": 5.57676493938,
			"0.012": 2.74851212259,
			"0.013": 3.02233481421,
			"0.014": 3.65023683148,
			"0.015": 0.924023783051,
			"0.016": 0.0,
			"0.017": 0.0,
			"0.018": 0.0,
			"0.019": 0.0,
			"0.02": 0.0,
			"0.021": 0.0,
			"0.022": 0.0,
			"0.023": 0.0,
			"0.024": 0.0,
			"0.025": 0.0
		}
	}
}
