{
	 "smiles": "COC(=O)C1=CC(=CC=C1O)[N+]([O-])=O", 
	 "Tm": 388.65, 
	 "num_atms": 21, 
	 "gaussian": { 
		 "optdone": 1, 
		 "sigma_profile": "yes", 
		 "theory": "DFT", 
		 "functional": "B3LYP", 
		 "basiset": "6-31G**", 
		 "properties": { 
			 "R2extent": 3604.827, 
			 "electric_dipole_moment_norm": 3.63117987161, 
			 "electric_quadrupole_moment_norm": 29.0188928359, 
			 "total_energy": -739.840739085, 
			 "HOMO_LUMO_gap": 0.17408, 
			 "cosmo_polarized_energy": -18.25, 
			 "cosmo_cavitation_energy": 26.97, 
			 "cosmo_dispersion_energy": -19.79, 
			 "cosmo_repulsion_energy": 1.56, 
			 "cosmo_total_nonelectrostatic_energy": 8.74, 
			 "SMD_solvation_energy": 9.0 
		},
		"coords": [
			{
				"x": 2.4602661486,
				"y": -2.2094978589,
				"z": 1.7615983376,
				"element": "C" 
			},
			{
				"x": 1.735297208,
				"y": -1.1480810375,
				"z": 1.1215625372,
				"element": "O" 
			},
			{
				"x": 1.4622432393,
				"y": -0.0808477413,
				"z": 1.9121730199,
				"element": "C" 
			},
			{
				"x": 1.8005071299,
				"y": -0.0179503798,
				"z": 3.0743288401,
				"element": "O" 
			},
			{
				"x": 0.7083424532,
				"y": 0.9677862496,
				"z": 1.1600110637,
				"element": "C" 
			},
			{
				"x": 0.3836046909,
				"y": 0.7672122938,
				"z": -0.1856131538,
				"element": "C" 
			},
			{
				"x": -0.3165457309,
				"y": 1.734847234,
				"z": -0.8948231322,
				"element": "C" 
			},
			{
				"x": -0.7165587941,
				"y": 2.9297452762,
				"z": -0.2943235667,
				"element": "C" 
			},
			{
				"x": -0.4021823348,
				"y": 3.1418791834,
				"z": 1.0369278566,
				"element": "C" 
			},
			{
				"x": 0.3064184512,
				"y": 2.1787961638,
				"z": 1.7798111418,
				"element": "C" 
			},
			{
				"x": 0.6075893587,
				"y": 2.3938507981,
				"z": 3.0742266607,
				"element": "O" 
			},
			{
				"x": -0.6427650614,
				"y": 1.4979367234,
				"z": -2.3021921412,
				"element": "N" 
			},
			{
				"x": -1.2647248921,
				"y": 2.3794350708,
				"z": -2.8979273275,
				"element": "O" 
			},
			{
				"x": -0.2776126212,
				"y": 0.4355773615,
				"z": -2.8056632345,
				"element": "O" 
			},
			{
				"x": 3.4280622912,
				"y": -1.8517484183,
				"z": 2.1216352397,
				"element": "H" 
			},
			{
				"x": 2.5936447802,
				"y": -2.9746609747,
				"z": 0.9972131314,
				"element": "H" 
			},
			{
				"x": 1.8944905798,
				"y": -2.6055053101,
				"z": 2.6085463528,
				"element": "H" 
			},
			{
				"x": 0.6778733566,
				"y": -0.1468422244,
				"z": -0.6819432888,
				"element": "H" 
			},
			{
				"x": -1.261164471,
				"y": 3.6640658982,
				"z": -0.8745420511,
				"element": "H" 
			},
			{
				"x": -0.7047867674,
				"y": 4.0661716966,
				"z": 1.523310067,
				"element": "H" 
			},
			{
				"x": 0.2653009855,
				"y": 3.2583299955,
				"z": 3.3416836474,
				"element": "H" 
			}
		],
		 "valence_orbital": [ 
			{
				"type": "occ",
				"energy": -0.30719,
				"method": "rhf"
			},
			{
				"type": "occ",
				"energy": -0.29003,
				"method": "rhf"
			},
			{
				"type": "occ",
				"energy": -0.28848,
				"method": "rhf"
			},
			{
				"type": "occ",
				"energy": -0.27633,
				"method": "rhf"
			},
			{
				"type": "occ",
				"energy": -0.26091,
				"method": "rhf"
			},
			{
				"type": "unocc",
				"energy": -0.08683,
				"method": "rhf"
			},
			{
				"type": "unocc",
				"energy": -0.06222,
				"method": "rhf"
			},
			{
				"type": "unocc",
				"energy": -0.00408,
				"method": "rhf"
			},
			{
				"type": "unocc",
				"energy": 0.04497,
				"method": "rhf"
			},
			{
				"type": "unocc",
				"energy": 0.04914,
				"method": "rhf"
			}
		],
		"cosmo_sigma_profile": { 
			"-0.025": 0.0,
			"-0.024": 0.0,
			"-0.023": 0.0,
			"-0.022": 0.0,
			"-0.021": 0.0,
			"-0.02": 0.233170328466,
			"-0.019": 1.58702988091,
			"-0.018": 0.762602156717,
			"-0.017": 1.85253937221,
			"-0.016": 0.766331132432,
			"-0.015": 0.62006450858,
			"-0.014": 0.841752617604,
			"-0.013": 1.18887983416,
			"-0.012": 1.67718455866,
			"-0.011": 1.05937575263,
			"-0.01": 1.0715965188,
			"-0.009": 1.84690801198,
			"-0.008": 3.14827296261,
			"-0.007": 5.25448633058,
			"-0.006": 9.09792341433,
			"-0.005": 11.2437564409,
			"-0.004": 13.9085601653,
			"-0.003": 18.9781392554,
			"-0.002": 16.5082124925,
			"-0.001": 24.3419656115,
			"0.0": 16.3139613886,
			"0.001": 10.1425337971,
			"0.002": 7.59545087724,
			"0.003": 6.40802537118,
			"0.004": 5.52451186441,
			"0.005": 5.55683530742,
			"0.006": 5.72940911566,
			"0.007": 8.09039197033,
			"0.008": 10.5915929495,
			"0.009": 6.58446948361,
			"0.01": 5.68233801251,
			"0.011": 3.45859870555,
			"0.012": 3.86898760393,
			"0.013": 1.81663964514,
			"0.014": 1.66342734083,
			"0.015": 0.888280605419,
			"0.016": 0.0272725703439,
			"0.017": 0.0,
			"0.018": 0.0,
			"0.019": 0.0,
			"0.02": 0.0,
			"0.021": 0.0,
			"0.022": 0.0,
			"0.023": 0.0,
			"0.024": 0.0,
			"0.025": 0.0
		}
	}
}
