{
	 "smiles": "OC(=O)C1CCN(C1=O)C1=C(Br)C=CC=C1", 
	 "Tm": 438.15, 
	 "num_atms": 26, 
	 "gaussian": { 
		 "optdone": 1, 
		 "sigma_profile": "yes", 
		 "theory": "DFT", 
		 "functional": "B3LYP", 
		 "basiset": "6-31G**", 
		 "properties": { 
			 "R2extent": 5554.706, 
			 "electric_dipole_moment_norm": 6.35451091824, 
			 "electric_quadrupole_moment_norm": 20.9064769605, 
			 "total_energy": -3277.05521612, 
			 "HOMO_LUMO_gap": 0.22211, 
			 "cosmo_polarized_energy": -16.25, 
			 "cosmo_cavitation_energy": 32.08, 
			 "cosmo_dispersion_energy": -23.12, 
			 "cosmo_repulsion_energy": 1.81, 
			 "cosmo_total_nonelectrostatic_energy": 10.77, 
			 "SMD_solvation_energy": 6.14 
		},
		"coords": [
			{
				"x": -1.7844401604,
				"y": -3.2757071205,
				"z": 3.1433445946,
				"element": "O" 
			},
			{
				"x": -2.0403322448,
				"y": -3.3322258577,
				"z": 1.8315913988,
				"element": "C" 
			},
			{
				"x": -3.0405444474,
				"y": -3.8358070415,
				"z": 1.3765832949,
				"element": "O" 
			},
			{
				"x": -0.9373471735,
				"y": -2.7589915788,
				"z": 0.9291793682,
				"element": "C" 
			},
			{
				"x": -1.4032832413,
				"y": -2.3006811242,
				"z": -0.4588766249,
				"element": "C" 
			},
			{
				"x": -0.4548046116,
				"y": -1.1342204701,
				"z": -0.810477358,
				"element": "C" 
			},
			{
				"x": 0.0147833565,
				"y": -0.6611630853,
				"z": 0.5056850428,
				"element": "N" 
			},
			{
				"x": -0.2356104568,
				"y": -1.537545495,
				"z": 1.5180839537,
				"element": "C" 
			},
			{
				"x": 0.0523813317,
				"y": -1.3882065658,
				"z": 2.7059017219,
				"element": "O" 
			},
			{
				"x": 0.7002203404,
				"y": 0.5728430997,
				"z": 0.6958693882,
				"element": "C" 
			},
			{
				"x": 2.041997167,
				"y": 0.7451179603,
				"z": 0.3263767742,
				"element": "C" 
			},
			{
				"x": 3.0434543596,
				"y": -0.7068542834,
				"z": -0.4044698234,
				"element": "Br" 
			},
			{
				"x": 2.6805483157,
				"y": 1.971552446,
				"z": 0.5042156031,
				"element": "C" 
			},
			{
				"x": 1.982820276,
				"y": 3.0372877848,
				"z": 1.0719420373,
				"element": "C" 
			},
			{
				"x": 0.652467353,
				"y": 2.877273295,
				"z": 1.4610232683,
				"element": "C" 
			},
			{
				"x": 0.0180424265,
				"y": 1.6522408763,
				"z": 1.2684914731,
				"element": "C" 
			},
			{
				"x": -1.0071301667,
				"y": -2.6811718658,
				"z": 3.2936379381,
				"element": "H" 
			},
			{
				"x": -0.1693844511,
				"y": -3.543247351,
				"z": 0.8546776876,
				"element": "H" 
			},
			{
				"x": -1.3688788496,
				"y": -3.0959715589,
				"z": -1.2045447848,
				"element": "H" 
			},
			{
				"x": -2.4389292222,
				"y": -1.9573680001,
				"z": -0.3938377609,
				"element": "H" 
			},
			{
				"x": -0.960491329,
				"y": -0.3202686287,
				"z": -1.3378378165,
				"element": "H" 
			},
			{
				"x": 0.397198628,
				"y": -1.4588110261,
				"z": -1.4175494904,
				"element": "H" 
			},
			{
				"x": 3.7174619792,
				"y": 2.0823448229,
				"z": 0.2087287244,
				"element": "H" 
			},
			{
				"x": 2.485529517,
				"y": 3.9891204026,
				"z": 1.2130092554,
				"element": "H" 
			},
			{
				"x": 0.1089268738,
				"y": 3.7023840807,
				"z": 1.9098911733,
				"element": "H" 
			},
			{
				"x": -1.0166555703,
				"y": 1.5103762844,
				"z": 1.5628609611,
				"element": "H" 
			}
		],
		 "valence_orbital": [ 
			{
				"type": "occ",
				"energy": -0.28693,
				"method": "rhf"
			},
			{
				"type": "occ",
				"energy": -0.28426,
				"method": "rhf"
			},
			{
				"type": "occ",
				"energy": -0.2715,
				"method": "rhf"
			},
			{
				"type": "occ",
				"energy": -0.26393,
				"method": "rhf"
			},
			{
				"type": "occ",
				"energy": -0.25905,
				"method": "rhf"
			},
			{
				"type": "unocc",
				"energy": -0.03694,
				"method": "rhf"
			},
			{
				"type": "unocc",
				"energy": -0.03171,
				"method": "rhf"
			},
			{
				"type": "unocc",
				"energy": -0.01123,
				"method": "rhf"
			},
			{
				"type": "unocc",
				"energy": -0.00195,
				"method": "rhf"
			},
			{
				"type": "unocc",
				"energy": 0.02088,
				"method": "rhf"
			}
		],
		"cosmo_sigma_profile": { 
			"-0.025": 0.0,
			"-0.024": 0.0,
			"-0.023": 0.0,
			"-0.022": 0.0,
			"-0.021": 0.0,
			"-0.02": 0.0,
			"-0.019": 0.0,
			"-0.018": 0.0,
			"-0.017": 0.0,
			"-0.016": 0.0,
			"-0.015": 0.0,
			"-0.014": 0.0,
			"-0.013": 0.0,
			"-0.012": 0.0,
			"-0.011": 0.0,
			"-0.01": 0.268503448234,
			"-0.009": 4.09138618539,
			"-0.008": 5.16466639168,
			"-0.007": 11.5930239797,
			"-0.006": 18.0919252855,
			"-0.005": 24.8684269034,
			"-0.004": 21.6915308764,
			"-0.003": 19.702408186,
			"-0.002": 13.3664823475,
			"-0.001": 13.1684300245,
			"0.0": 15.1562336349,
			"0.001": 17.2897800021,
			"0.002": 18.2379887587,
			"0.003": 19.4806167161,
			"0.004": 11.2617324872,
			"0.005": 4.90143451712,
			"0.006": 3.07666760812,
			"0.007": 3.70077973712,
			"0.008": 5.0041444974,
			"0.009": 5.35221251616,
			"0.01": 5.83662656941,
			"0.011": 8.00367378852,
			"0.012": 7.28635185906,
			"0.013": 2.36316487886,
			"0.014": 0.133865238806,
			"0.015": 0.0,
			"0.016": 0.0,
			"0.017": 0.0,
			"0.018": 0.0,
			"0.019": 0.0,
			"0.02": 0.0,
			"0.021": 0.0,
			"0.022": 0.0,
			"0.023": 0.0,
			"0.024": 0.0,
			"0.025": 0.0
		}
	}
}
