{
	 "smiles": "CN1CCC2=C(C1)SC(N)=N2", 
	 "Tm": 442.15, 
	 "num_atms": 22, 
	 "gaussian": { 
		 "optdone": 1, 
		 "sigma_profile": "yes", 
		 "theory": "DFT", 
		 "functional": "B3LYP", 
		 "basiset": "6-31G**", 
		 "properties": { 
			 "R2extent": 2391.7672, 
			 "electric_dipole_moment_norm": 1.70775539525, 
			 "electric_quadrupole_moment_norm": 11.6379995025, 
			 "total_energy": -835.805843976, 
			 "HOMO_LUMO_gap": 0.20068, 
			 "cosmo_polarized_energy": -10.92, 
			 "cosmo_cavitation_energy": 25.61, 
			 "cosmo_dispersion_energy": -19.96, 
			 "cosmo_repulsion_energy": 1.57, 
			 "cosmo_total_nonelectrostatic_energy": 7.22, 
			 "SMD_solvation_energy": -0.66 
		},
		"coords": [
			{
				"x": 2.2355857273,
				"y": -2.8747434114,
				"z": 2.3256452851,
				"element": "C" 
			},
			{
				"x": 1.5762062137,
				"y": -2.2669155723,
				"z": 1.180819601,
				"element": "N" 
			},
			{
				"x": 0.2181979752,
				"y": -2.779423833,
				"z": 0.980641558,
				"element": "C" 
			},
			{
				"x": -0.3295244759,
				"y": -2.3573478799,
				"z": -0.3899091182,
				"element": "C" 
			},
			{
				"x": -0.0989521764,
				"y": -0.8888912642,
				"z": -0.5967450473,
				"element": "C" 
			},
			{
				"x": 0.7910856671,
				"y": -0.2059288049,
				"z": 0.1711671277,
				"element": "C" 
			},
			{
				"x": 1.6075244096,
				"y": -0.8049440953,
				"z": 1.2781014001,
				"element": "C" 
			},
			{
				"x": 0.8198826294,
				"y": 1.4808399582,
				"z": -0.3189258316,
				"element": "S" 
			},
			{
				"x": -0.4141236228,
				"y": 1.083338087,
				"z": -1.5331021128,
				"element": "C" 
			},
			{
				"x": -0.8634533821,
				"y": 2.0427304964,
				"z": -2.4171029912,
				"element": "N" 
			},
			{
				"x": -0.7818628054,
				"y": -0.1626276892,
				"z": -1.5588344229,
				"element": "N" 
			},
			{
				"x": 3.2631570045,
				"y": -2.5029920264,
				"z": 2.4001660702,
				"element": "H" 
			},
			{
				"x": 1.7298527608,
				"y": -2.6654931659,
				"z": 3.288847787,
				"element": "H" 
			},
			{
				"x": 2.2787461488,
				"y": -3.9604795853,
				"z": 2.1942211222,
				"element": "H" 
			},
			{
				"x": -0.4704790058,
				"y": -2.432436066,
				"z": 1.7771890618,
				"element": "H" 
			},
			{
				"x": 0.256026933,
				"y": -3.8718385551,
				"z": 1.0457594187,
				"element": "H" 
			},
			{
				"x": -1.4003280755,
				"y": -2.5821606177,
				"z": -0.4557494646,
				"element": "H" 
			},
			{
				"x": 0.167542813,
				"y": -2.9291637973,
				"z": -1.1841956002,
				"element": "H" 
			},
			{
				"x": 2.6548021607,
				"y": -0.4803874695,
				"z": 1.2156961239,
				"element": "H" 
			},
			{
				"x": 1.2288136018,
				"y": -0.4519108342,
				"z": 2.2616617732,
				"element": "H" 
			},
			{
				"x": -1.6845702017,
				"y": 1.7405531936,
				"z": -2.926091184,
				"element": "H" 
			},
			{
				"x": -0.9353302991,
				"y": 2.9854229326,
				"z": -2.0604605563,
				"element": "H" 
			}
		],
		 "valence_orbital": [ 
			{
				"type": "occ",
				"energy": -0.3025,
				"method": "rhf"
			},
			{
				"type": "occ",
				"energy": -0.26513,
				"method": "rhf"
			},
			{
				"type": "occ",
				"energy": -0.26413,
				"method": "rhf"
			},
			{
				"type": "occ",
				"energy": -0.21259,
				"method": "rhf"
			},
			{
				"type": "occ",
				"energy": -0.19733,
				"method": "rhf"
			},
			{
				"type": "unocc",
				"energy": 0.00335,
				"method": "rhf"
			},
			{
				"type": "unocc",
				"energy": 0.01564,
				"method": "rhf"
			},
			{
				"type": "unocc",
				"energy": 0.06697,
				"method": "rhf"
			},
			{
				"type": "unocc",
				"energy": 0.07609,
				"method": "rhf"
			},
			{
				"type": "unocc",
				"energy": 0.09116,
				"method": "rhf"
			}
		],
		"cosmo_sigma_profile": { 
			"-0.025": 0.0,
			"-0.024": 0.0,
			"-0.023": 0.0,
			"-0.022": 0.0,
			"-0.021": 0.0,
			"-0.02": 0.0,
			"-0.019": 0.0,
			"-0.018": 0.0,
			"-0.017": 0.0,
			"-0.016": 0.0,
			"-0.015": 0.164973823915,
			"-0.014": 1.4384559892,
			"-0.013": 2.28642923526,
			"-0.012": 3.00057193867,
			"-0.011": 2.42972014941,
			"-0.01": 2.58978242238,
			"-0.009": 1.90524143195,
			"-0.008": 1.6736726117,
			"-0.007": 1.62057907438,
			"-0.006": 2.12493957129,
			"-0.005": 4.02256971466,
			"-0.004": 14.8483874997,
			"-0.003": 17.1466698897,
			"-0.002": 26.9707626176,
			"-0.001": 26.3387527351,
			"0.0": 18.7153374505,
			"0.001": 8.67905928637,
			"0.002": 8.82042843671,
			"0.003": 11.6222518003,
			"0.004": 11.8252286898,
			"0.005": 8.73591406455,
			"0.006": 4.38993092221,
			"0.007": 3.43479492789,
			"0.008": 3.375129329,
			"0.009": 2.40248451854,
			"0.01": 2.35055593218,
			"0.011": 2.97363117419,
			"0.012": 2.17834154481,
			"0.013": 1.38850626636,
			"0.014": 1.11238074698,
			"0.015": 1.32172135054,
			"0.016": 0.831891452788,
			"0.017": 0.0986044353162,
			"0.018": 0.0,
			"0.019": 0.0,
			"0.02": 0.0,
			"0.021": 0.0,
			"0.022": 0.0,
			"0.023": 0.0,
			"0.024": 0.0,
			"0.025": 0.0
		}
	}
}
