{
	 "smiles": "OC(=O)C1=NOC(=C1)C1=CN=CC=C1", 
	 "Tm": 453.15, 
	 "num_atms": 20, 
	 "gaussian": { 
		 "optdone": 1, 
		 "sigma_profile": "yes", 
		 "theory": "DFT", 
		 "functional": "B3LYP", 
		 "basiset": "6-31G**", 
		 "properties": { 
			 "R2extent": 3921.4188, 
			 "electric_dipole_moment_norm": 4.69412593781, 
			 "electric_quadrupole_moment_norm": 13.7780159315, 
			 "total_energy": -681.699325271, 
			 "HOMO_LUMO_gap": 0.17976, 
			 "cosmo_polarized_energy": -13.73, 
			 "cosmo_cavitation_energy": 26.22, 
			 "cosmo_dispersion_energy": -19.48, 
			 "cosmo_repulsion_energy": 1.5, 
			 "cosmo_total_nonelectrostatic_energy": 8.25, 
			 "SMD_solvation_energy": 4.43 
		},
		"coords": [
			{
				"x": 5.1598413124,
				"y": -0.4869256595,
				"z": -1.2881548146,
				"element": "O" 
			},
			{
				"x": 4.2934746404,
				"y": -0.014757797,
				"z": -0.3721219561,
				"element": "C" 
			},
			{
				"x": 4.6492117839,
				"y": 0.5190402439,
				"z": 0.6498565692,
				"element": "O" 
			},
			{
				"x": 2.8504358374,
				"y": -0.2046175067,
				"z": -0.7180232595,
				"element": "C" 
			},
			{
				"x": 2.5240555339,
				"y": -0.7956207541,
				"z": -1.8487706495,
				"element": "N" 
			},
			{
				"x": 1.1434296689,
				"y": -0.8173181975,
				"z": -1.8728138122,
				"element": "O" 
			},
			{
				"x": 0.660044552,
				"y": -0.2316014737,
				"z": -0.7416858404,
				"element": "C" 
			},
			{
				"x": 1.7125695757,
				"y": 0.1788020234,
				"z": 0.0331220562,
				"element": "C" 
			},
			{
				"x": -0.7899569288,
				"y": -0.1670378476,
				"z": -0.5991030684,
				"element": "C" 
			},
			{
				"x": -1.3713517332,
				"y": 0.4205747376,
				"z": 0.5385573108,
				"element": "C" 
			},
			{
				"x": -2.685745667,
				"y": 0.514839358,
				"z": 0.7366530199,
				"element": "N" 
			},
			{
				"x": -3.4920807958,
				"y": 0.0169346897,
				"z": -0.2107753355,
				"element": "C" 
			},
			{
				"x": -3.0243756804,
				"y": -0.5874762388,
				"z": -1.3793465525,
				"element": "C" 
			},
			{
				"x": -1.6517061319,
				"y": -0.6823932549,
				"z": -1.5794065712,
				"element": "C" 
			},
			{
				"x": 4.6628487649,
				"y": -0.8762675215,
				"z": -2.0294977178,
				"element": "H" 
			},
			{
				"x": 1.7068557602,
				"y": 0.6765483538,
				"z": 0.9890229225,
				"element": "H" 
			},
			{
				"x": -0.7395519364,
				"y": 0.8327157351,
				"z": 1.3232871779,
				"element": "H" 
			},
			{
				"x": -4.5605809225,
				"y": 0.1060537525,
				"z": -0.0257072499,
				"element": "H" 
			},
			{
				"x": -3.7227574785,
				"y": -0.9741898674,
				"z": -2.1143331871,
				"element": "H" 
			},
			{
				"x": -1.2459601554,
				"y": -1.1443027753,
				"z": -2.4730590417,
				"element": "H" 
			}
		],
		 "valence_orbital": [ 
			{
				"type": "occ",
				"energy": -0.31837,
				"method": "rhf"
			},
			{
				"type": "occ",
				"energy": -0.3027,
				"method": "rhf"
			},
			{
				"type": "occ",
				"energy": -0.28992,
				"method": "rhf"
			},
			{
				"type": "occ",
				"energy": -0.27558,
				"method": "rhf"
			},
			{
				"type": "occ",
				"energy": -0.26091,
				"method": "rhf"
			},
			{
				"type": "unocc",
				"energy": -0.08115,
				"method": "rhf"
			},
			{
				"type": "unocc",
				"energy": -0.04891,
				"method": "rhf"
			},
			{
				"type": "unocc",
				"energy": -0.04288,
				"method": "rhf"
			},
			{
				"type": "unocc",
				"energy": 0.02687,
				"method": "rhf"
			},
			{
				"type": "unocc",
				"energy": 0.05809,
				"method": "rhf"
			}
		],
		"cosmo_sigma_profile": { 
			"-0.025": 0.0,
			"-0.024": 0.0,
			"-0.023": 0.0,
			"-0.022": 0.0,
			"-0.021": 0.0,
			"-0.02": 0.0,
			"-0.019": 0.0,
			"-0.018": 0.0,
			"-0.017": 0.0743953670523,
			"-0.016": 0.638240065446,
			"-0.015": 0.47372164289,
			"-0.014": 0.348776649061,
			"-0.013": 1.24774867806,
			"-0.012": 0.556958373092,
			"-0.011": 0.73375484002,
			"-0.01": 2.87469296203,
			"-0.009": 3.8564606628,
			"-0.008": 5.35898227025,
			"-0.007": 10.3342659265,
			"-0.006": 11.6316578135,
			"-0.005": 11.4271227132,
			"-0.004": 9.23066612205,
			"-0.003": 12.8863589979,
			"-0.002": 18.9493738789,
			"-0.001": 17.6576200343,
			"0.0": 18.0709230949,
			"0.001": 15.8790916585,
			"0.002": 8.85605052668,
			"0.003": 6.2575261906,
			"0.004": 6.78272472002,
			"0.005": 7.47258314292,
			"0.006": 5.90530918094,
			"0.007": 5.60763787936,
			"0.008": 5.4883765391,
			"0.009": 7.02958382559,
			"0.01": 5.78702997022,
			"0.011": 5.66903338461,
			"0.012": 2.27200670748,
			"0.013": 0.505237777704,
			"0.014": 0.955184391699,
			"0.015": 1.04853004953,
			"0.016": 0.388522795907,
			"0.017": 0.0,
			"0.018": 0.0,
			"0.019": 0.0,
			"0.02": 0.0,
			"0.021": 0.0,
			"0.022": 0.0,
			"0.023": 0.0,
			"0.024": 0.0,
			"0.025": 0.0
		}
	}
}
