{
	 "smiles": "NC(=O)C1CCCN1CC1=C(N)C=CC=C1", 
	 "Tm": 395.15, 
	 "num_atms": 33, 
	 "gaussian": { 
		 "optdone": 1, 
		 "sigma_profile": "yes", 
		 "theory": "DFT", 
		 "functional": "B3LYP", 
		 "basiset": "6-31G**", 
		 "properties": { 
			 "R2extent": 3998.467, 
			 "electric_dipole_moment_norm": 5.127481371, 
			 "electric_quadrupole_moment_norm": 11.043498371, 
			 "total_energy": -707.021500784, 
			 "HOMO_LUMO_gap": 0.20636, 
			 "cosmo_polarized_energy": -16.58, 
			 "cosmo_cavitation_energy": 33.7, 
			 "cosmo_dispersion_energy": -23.67, 
			 "cosmo_repulsion_energy": 1.86, 
			 "cosmo_total_nonelectrostatic_energy": 11.88, 
			 "SMD_solvation_energy": 5.74 
		},
		"coords": [
			{
				"x": -1.2514425578,
				"y": 0.0686651748,
				"z": 0.7646083563,
				"element": "N" 
			},
			{
				"x": -0.8441336013,
				"y": 1.3576998655,
				"z": 0.647453982,
				"element": "C" 
			},
			{
				"x": -1.324400549,
				"y": 2.2853746482,
				"z": 1.2909308763,
				"element": "O" 
			},
			{
				"x": 0.2590095177,
				"y": 1.6421834692,
				"z": -0.3930028748,
				"element": "C" 
			},
			{
				"x": -0.274467919,
				"y": 2.6129387117,
				"z": -1.4725171277,
				"element": "C" 
			},
			{
				"x": -0.6643348221,
				"y": 1.6651380852,
				"z": -2.6148333083,
				"element": "C" 
			},
			{
				"x": 0.4771048084,
				"y": 0.6481644521,
				"z": -2.5725076241,
				"element": "C" 
			},
			{
				"x": 0.7415411356,
				"y": 0.4496149901,
				"z": -1.1326737407,
				"element": "N" 
			},
			{
				"x": 2.1268075613,
				"y": 0.0555719696,
				"z": -0.8552774032,
				"element": "C" 
			},
			{
				"x": 2.3577574902,
				"y": -0.5043990831,
				"z": 0.5322610892,
				"element": "C" 
			},
			{
				"x": 1.7167425886,
				"y": -1.6915611418,
				"z": 0.9555942255,
				"element": "C" 
			},
			{
				"x": 0.7502217455,
				"y": -2.3179500776,
				"z": 0.1514560856,
				"element": "N" 
			},
			{
				"x": 2.0037974605,
				"y": -2.2150444354,
				"z": 2.2252198867,
				"element": "C" 
			},
			{
				"x": 2.9065063475,
				"y": -1.5774334354,
				"z": 3.072340328,
				"element": "C" 
			},
			{
				"x": 3.539291483,
				"y": -0.4017336607,
				"z": 2.6680880887,
				"element": "C" 
			},
			{
				"x": 3.256928631,
				"y": 0.1172300189,
				"z": 1.4045769919,
				"element": "C" 
			},
			{
				"x": -1.8867520288,
				"y": -0.1343454079,
				"z": 1.5219111634,
				"element": "H" 
			},
			{
				"x": -0.7203474673,
				"y": -0.6879086266,
				"z": 0.3478229498,
				"element": "H" 
			},
			{
				"x": 1.0736573312,
				"y": 2.1076842723,
				"z": 0.1756845595,
				"element": "H" 
			},
			{
				"x": -1.0899922919,
				"y": 3.227297845,
				"z": -1.0877819685,
				"element": "H" 
			},
			{
				"x": 0.5283767392,
				"y": 3.2820917991,
				"z": -1.8027192382,
				"element": "H" 
			},
			{
				"x": -0.7493816079,
				"y": 2.1602882913,
				"z": -3.5862024828,
				"element": "H" 
			},
			{
				"x": -1.6195509636,
				"y": 1.1748654539,
				"z": -2.3964066216,
				"element": "H" 
			},
			{
				"x": 1.361794403,
				"y": 1.0622548236,
				"z": -3.0892252552,
				"element": "H" 
			},
			{
				"x": 0.2309323801,
				"y": -0.3042645898,
				"z": -3.0590927954,
				"element": "H" 
			},
			{
				"x": 2.3918593341,
				"y": -0.7088552533,
				"z": -1.6018495828,
				"element": "H" 
			},
			{
				"x": 2.8294650564,
				"y": 0.8927445326,
				"z": -1.0228951407,
				"element": "H" 
			},
			{
				"x": 0.7962854419,
				"y": -2.0937709842,
				"z": -0.8330333127,
				"element": "H" 
			},
			{
				"x": 0.6509191458,
				"y": -3.3117297412,
				"z": 0.3135316847,
				"element": "H" 
			},
			{
				"x": 1.5056321781,
				"y": -3.1270093417,
				"z": 2.5466402828,
				"element": "H" 
			},
			{
				"x": 3.112026787,
				"y": -2.0022518337,
				"z": 4.0508323185,
				"element": "H" 
			},
			{
				"x": 4.2412814891,
				"y": 0.1031429322,
				"z": 3.3239566286,
				"element": "H" 
			},
			{
				"x": 3.7508647535,
				"y": 1.0283062767,
				"z": 1.0750089794,
				"element": "H" 
			}
		],
		 "valence_orbital": [ 
			{
				"type": "occ",
				"energy": -0.24884,
				"method": "rhf"
			},
			{
				"type": "occ",
				"energy": -0.24296,
				"method": "rhf"
			},
			{
				"type": "occ",
				"energy": -0.23859,
				"method": "rhf"
			},
			{
				"type": "occ",
				"energy": -0.21054,
				"method": "rhf"
			},
			{
				"type": "occ",
				"energy": -0.20794,
				"method": "rhf"
			},
			{
				"type": "unocc",
				"energy": -0.00158,
				"method": "rhf"
			},
			{
				"type": "unocc",
				"energy": 0.01002,
				"method": "rhf"
			},
			{
				"type": "unocc",
				"energy": 0.0459,
				"method": "rhf"
			},
			{
				"type": "unocc",
				"energy": 0.06298,
				"method": "rhf"
			},
			{
				"type": "unocc",
				"energy": 0.09189,
				"method": "rhf"
			}
		],
		"cosmo_sigma_profile": { 
			"-0.025": 0.0,
			"-0.024": 0.0,
			"-0.023": 0.0,
			"-0.022": 0.0,
			"-0.021": 0.0,
			"-0.02": 0.0,
			"-0.019": 0.0,
			"-0.018": 0.0,
			"-0.017": 0.0,
			"-0.016": 0.0,
			"-0.015": 0.0,
			"-0.014": 0.0201842070788,
			"-0.013": 1.08077299773,
			"-0.012": 2.43600036792,
			"-0.011": 2.31230909065,
			"-0.01": 3.17633125792,
			"-0.009": 3.8941553157,
			"-0.008": 4.15310170789,
			"-0.007": 4.03812524613,
			"-0.006": 4.98551157872,
			"-0.005": 10.3966230109,
			"-0.004": 18.8003665009,
			"-0.003": 30.0232569519,
			"-0.002": 33.1351492114,
			"-0.001": 26.7456314613,
			"0.0": 21.537997302,
			"0.001": 13.7510431767,
			"0.002": 11.2145873194,
			"0.003": 10.434493739,
			"0.004": 12.8608505056,
			"0.005": 11.3867415821,
			"0.006": 9.60123662625,
			"0.007": 8.24915395081,
			"0.008": 2.22003000012,
			"0.009": 1.51144865676,
			"0.01": 1.1589206573,
			"0.011": 0.812482147491,
			"0.012": 1.83412054964,
			"0.013": 2.03612719659,
			"0.014": 3.80972408805,
			"0.015": 5.02831891441,
			"0.016": 1.01202356663,
			"0.017": 0.0,
			"0.018": 0.0,
			"0.019": 0.0,
			"0.02": 0.0,
			"0.021": 0.0,
			"0.022": 0.0,
			"0.023": 0.0,
			"0.024": 0.0,
			"0.025": 0.0
		}
	}
}
