{
	 "smiles": "COC1=CC(=CC=C1)C(N)=NO", 
	 "Tm": 377.15, 
	 "num_atms": 22, 
	 "gaussian": { 
		 "optdone": 1, 
		 "sigma_profile": "yes", 
		 "theory": "DFT", 
		 "functional": "B3LYP", 
		 "basiset": "6-31G**", 
		 "properties": { 
			 "R2extent": 3114.6542, 
			 "electric_dipole_moment_norm": 2.12278468527, 
			 "electric_quadrupole_moment_norm": 5.67116488387, 
			 "total_energy": -570.767924522, 
			 "HOMO_LUMO_gap": 0.182, 
			 "cosmo_polarized_energy": -13.14, 
			 "cosmo_cavitation_energy": 26.07, 
			 "cosmo_dispersion_energy": -19.37, 
			 "cosmo_repulsion_energy": 1.57, 
			 "cosmo_total_nonelectrostatic_energy": 8.26, 
			 "SMD_solvation_energy": 5.37 
		},
		"coords": [
			{
				"x": 0.1548622091,
				"y": -2.794165101,
				"z": 0.445732919,
				"element": "C" 
			},
			{
				"x": -1.0938896274,
				"y": -2.2166638855,
				"z": 0.1024325197,
				"element": "O" 
			},
			{
				"x": -1.0958528314,
				"y": -1.0255211641,
				"z": -0.5661064457,
				"element": "C" 
			},
			{
				"x": 0.0574180988,
				"y": -0.3346847385,
				"z": -0.951118727,
				"element": "C" 
			},
			{
				"x": -0.0534767383,
				"y": 0.8910835622,
				"z": -1.631405114,
				"element": "C" 
			},
			{
				"x": -1.3174328086,
				"y": 1.4186006437,
				"z": -1.9191766884,
				"element": "C" 
			},
			{
				"x": -2.4603592841,
				"y": 0.7210538518,
				"z": -1.5260247243,
				"element": "C" 
			},
			{
				"x": -2.3606077924,
				"y": -0.4951194496,
				"z": -0.8579814602,
				"element": "C" 
			},
			{
				"x": 1.1730875019,
				"y": 1.6162428387,
				"z": -2.0431342193,
				"element": "C" 
			},
			{
				"x": 2.336745415,
				"y": 0.8856436349,
				"z": -2.2163249622,
				"element": "N" 
			},
			{
				"x": 1.1024649637,
				"y": 2.9023295535,
				"z": -2.1673696171,
				"element": "N" 
			},
			{
				"x": 2.356476035,
				"y": 3.4080195438,
				"z": -2.6147419135,
				"element": "O" 
			},
			{
				"x": -0.0762590468,
				"y": -3.7236768177,
				"z": 0.9684476375,
				"element": "H" 
			},
			{
				"x": 0.755735934,
				"y": -3.0224111964,
				"z": -0.4445423757,
				"element": "H" 
			},
			{
				"x": 0.7356001442,
				"y": -2.1415616478,
				"z": 1.110328778,
				"element": "H" 
			},
			{
				"x": 1.0412534659,
				"y": -0.7108400389,
				"z": -0.7001728362,
				"element": "H" 
			},
			{
				"x": -1.388388759,
				"y": 2.3617562832,
				"z": -2.4475674974,
				"element": "H" 
			},
			{
				"x": -3.4425744916,
				"y": 1.1269145025,
				"z": -1.7506743058,
				"element": "H" 
			},
			{
				"x": -3.2404023578,
				"y": -1.0505642869,
				"z": -0.5502666,
				"element": "H" 
			},
			{
				"x": 2.2112003222,
				"y": -0.0365956086,
				"z": -2.6091985,
				"element": "H" 
			},
			{
				"x": 3.0798811466,
				"y": 1.4205198072,
				"z": -2.6464412123,
				"element": "H" 
			},
			{
				"x": 2.1839185009,
				"y": 4.3560397136,
				"z": -2.655894655,
				"element": "H" 
			}
		],
		 "valence_orbital": [ 
			{
				"type": "occ",
				"energy": -0.30814,
				"method": "rhf"
			},
			{
				"type": "occ",
				"energy": -0.27063,
				"method": "rhf"
			},
			{
				"type": "occ",
				"energy": -0.25327,
				"method": "rhf"
			},
			{
				"type": "occ",
				"energy": -0.22503,
				"method": "rhf"
			},
			{
				"type": "occ",
				"energy": -0.20439,
				"method": "rhf"
			},
			{
				"type": "unocc",
				"energy": -0.02239,
				"method": "rhf"
			},
			{
				"type": "unocc",
				"energy": 0.01087,
				"method": "rhf"
			},
			{
				"type": "unocc",
				"energy": 0.06218,
				"method": "rhf"
			},
			{
				"type": "unocc",
				"energy": 0.07994,
				"method": "rhf"
			},
			{
				"type": "unocc",
				"energy": 0.0929,
				"method": "rhf"
			}
		],
		"cosmo_sigma_profile": { 
			"-0.025": 0.0,
			"-0.024": 0.0,
			"-0.023": 0.0,
			"-0.022": 0.0,
			"-0.021": 0.0,
			"-0.02": 0.0,
			"-0.019": 0.0,
			"-0.018": 0.0,
			"-0.017": 0.415941375549,
			"-0.016": 1.17131037095,
			"-0.015": 0.612687898403,
			"-0.014": 0.537162538382,
			"-0.013": 1.80599013905,
			"-0.012": 2.40121465777,
			"-0.011": 2.28699228098,
			"-0.01": 2.73190121838,
			"-0.009": 2.9883296119,
			"-0.008": 2.11145274333,
			"-0.007": 3.76583074401,
			"-0.006": 10.7138020769,
			"-0.005": 15.9298972726,
			"-0.004": 15.5660263795,
			"-0.003": 17.4159036486,
			"-0.002": 8.82408408869,
			"-0.001": 9.87476413648,
			"0.0": 8.2927242247,
			"0.001": 8.87113486519,
			"0.002": 12.395666666,
			"0.003": 13.0489531575,
			"0.004": 14.5137454374,
			"0.005": 14.8662643657,
			"0.006": 6.73063248875,
			"0.007": 7.65963905078,
			"0.008": 6.57530120993,
			"0.009": 5.10884340009,
			"0.01": 5.02204564189,
			"0.011": 1.77290770709,
			"0.012": 0.824031429263,
			"0.013": 1.03729846513,
			"0.014": 0.69478523369,
			"0.015": 0.0466180622349,
			"0.016": 0.0,
			"0.017": 0.0,
			"0.018": 0.0,
			"0.019": 0.0,
			"0.02": 0.0,
			"0.021": 0.0,
			"0.022": 0.0,
			"0.023": 0.0,
			"0.024": 0.0,
			"0.025": 0.0
		}
	}
}
