{
	 "smiles": "OC1=C(CC=C)C(C=O)=CC=C1", 
	 "Tm": 378.15, 
	 "num_atms": 22, 
	 "gaussian": { 
		 "optdone": 1, 
		 "sigma_profile": "yes", 
		 "theory": "DFT", 
		 "functional": "B3LYP", 
		 "basiset": "6-31G**", 
		 "properties": { 
			 "R2extent": 3465.904, 
			 "electric_dipole_moment_norm": 3.15556184696, 
			 "electric_quadrupole_moment_norm": 11.2455724136, 
			 "total_energy": -537.502341507, 
			 "HOMO_LUMO_gap": 0.16996, 
			 "cosmo_polarized_energy": -10.16, 
			 "cosmo_cavitation_energy": 25.61, 
			 "cosmo_dispersion_energy": -18.3, 
			 "cosmo_repulsion_energy": 1.44, 
			 "cosmo_total_nonelectrostatic_energy": 8.76, 
			 "SMD_solvation_energy": 6.02 
		},
		"coords": [
			{
				"x": 3.4577259126,
				"y": -0.5988765111,
				"z": -3.153628524,
				"element": "O" 
			},
			{
				"x": 2.3004925927,
				"y": -0.1750939968,
				"z": -2.5600630337,
				"element": "C" 
			},
			{
				"x": 2.0271495051,
				"y": -0.4271896318,
				"z": -1.1997321525,
				"element": "C" 
			},
			{
				"x": 3.106261037,
				"y": -1.1021251433,
				"z": -0.3733540698,
				"element": "C" 
			},
			{
				"x": 3.3722391482,
				"y": -2.5635987449,
				"z": -0.6752566845,
				"element": "C" 
			},
			{
				"x": 2.6510832535,
				"y": -3.3526648406,
				"z": -1.4758221649,
				"element": "C" 
			},
			{
				"x": 0.7947176841,
				"y": 0.0295854877,
				"z": -0.6801717212,
				"element": "C" 
			},
			{
				"x": 0.3648861121,
				"y": -0.2470839319,
				"z": 0.7148079422,
				"element": "C" 
			},
			{
				"x": -0.6689415212,
				"y": 0.1727486088,
				"z": 1.2034936224,
				"element": "O" 
			},
			{
				"x": -0.0956842558,
				"y": 0.7597391558,
				"z": -1.4843047622,
				"element": "C" 
			},
			{
				"x": 0.2195919731,
				"y": 1.033426045,
				"z": -2.8092973525,
				"element": "C" 
			},
			{
				"x": 1.4126916457,
				"y": 0.55754262,
				"z": -3.352080163,
				"element": "C" 
			},
			{
				"x": 3.7656023563,
				"y": -1.4035215009,
				"z": -2.7089227033,
				"element": "H" 
			},
			{
				"x": 4.0452946667,
				"y": -0.5508862471,
				"z": -0.5324050186,
				"element": "H" 
			},
			{
				"x": 2.9089174251,
				"y": -1.0019257725,
				"z": 0.6982025115,
				"element": "H" 
			},
			{
				"x": 4.244615406,
				"y": -2.9786988905,
				"z": -0.1702158525,
				"element": "H" 
			},
			{
				"x": 2.9186737448,
				"y": -4.3936869869,
				"z": -1.6277715293,
				"element": "H" 
			},
			{
				"x": 1.7638117629,
				"y": -2.9927711203,
				"z": -1.9898065782,
				"element": "H" 
			},
			{
				"x": 1.0331850483,
				"y": -0.892637242,
				"z": 1.3188448664,
				"element": "H" 
			},
			{
				"x": -1.0255401568,
				"y": 1.0939777582,
				"z": -1.0375265108,
				"element": "H" 
			},
			{
				"x": -0.4662837338,
				"y": 1.6017598272,
				"z": -3.43039677,
				"element": "H" 
			},
			{
				"x": 1.6777103933,
				"y": 0.7359810579,
				"z": -4.3891933517,
				"element": "H" 
			}
		],
		 "valence_orbital": [ 
			{
				"type": "occ",
				"energy": -0.32858,
				"method": "rhf"
			},
			{
				"type": "occ",
				"energy": -0.28107,
				"method": "rhf"
			},
			{
				"type": "occ",
				"energy": -0.25973,
				"method": "rhf"
			},
			{
				"type": "occ",
				"energy": -0.25161,
				"method": "rhf"
			},
			{
				"type": "occ",
				"energy": -0.23193,
				"method": "rhf"
			},
			{
				"type": "unocc",
				"energy": -0.06197,
				"method": "rhf"
			},
			{
				"type": "unocc",
				"energy": -0.00568,
				"method": "rhf"
			},
			{
				"type": "unocc",
				"energy": -0.00212,
				"method": "rhf"
			},
			{
				"type": "unocc",
				"energy": 0.04486,
				"method": "rhf"
			},
			{
				"type": "unocc",
				"energy": 0.07764,
				"method": "rhf"
			}
		],
		"cosmo_sigma_profile": { 
			"-0.025": 0.0,
			"-0.024": 0.0,
			"-0.023": 0.0,
			"-0.022": 0.0,
			"-0.021": 0.0,
			"-0.02": 0.0,
			"-0.019": 0.0,
			"-0.018": 0.0,
			"-0.017": 0.0,
			"-0.016": 0.0,
			"-0.015": 0.0,
			"-0.014": 0.0,
			"-0.013": 0.0,
			"-0.012": 0.142531708116,
			"-0.011": 0.489647159781,
			"-0.01": 0.463344607606,
			"-0.009": 1.34668252617,
			"-0.008": 2.77175895618,
			"-0.007": 5.37813705222,
			"-0.006": 11.5395914655,
			"-0.005": 17.5771519707,
			"-0.004": 18.0145010505,
			"-0.003": 18.8313942883,
			"-0.002": 14.6470580519,
			"-0.001": 15.5099788632,
			"0.0": 13.1813228689,
			"0.001": 11.8313847422,
			"0.002": 14.4750531661,
			"0.003": 14.1122833409,
			"0.004": 11.4174506104,
			"0.005": 5.78717978769,
			"0.006": 3.69984564386,
			"0.007": 2.31861809706,
			"0.008": 3.29307500647,
			"0.009": 2.95001599133,
			"0.01": 4.45011009787,
			"0.011": 5.70332755308,
			"0.012": 3.73571908232,
			"0.013": 0.812252992547,
			"0.014": 0.0,
			"0.015": 0.0,
			"0.016": 0.0,
			"0.017": 0.0,
			"0.018": 0.0,
			"0.019": 0.0,
			"0.02": 0.0,
			"0.021": 0.0,
			"0.022": 0.0,
			"0.023": 0.0,
			"0.024": 0.0,
			"0.025": 0.0
		}
	}
}
