{
	 "smiles": "NS(=O)(=O)C1=C(F)C=C(Cl)C=C1", 
	 "Tm": 378.15, 
	 "num_atms": 17, 
	 "gaussian": { 
		 "optdone": 1, 
		 "sigma_profile": "yes", 
		 "theory": "DFT", 
		 "functional": "B3LYP", 
		 "basiset": "6-31G**", 
		 "properties": { 
			 "R2extent": 3439.5164, 
			 "electric_dipole_moment_norm": 4.02457069139, 
			 "electric_quadrupole_moment_norm": 17.9951438188, 
			 "total_energy": -1394.98704776, 
			 "HOMO_LUMO_gap": 0.2157, 
			 "cosmo_polarized_energy": -15.56, 
			 "cosmo_cavitation_energy": 25.35, 
			 "cosmo_dispersion_energy": -19.32, 
			 "cosmo_repulsion_energy": 1.48, 
			 "cosmo_total_nonelectrostatic_energy": 7.5, 
			 "SMD_solvation_energy": 4.23 
		},
		"coords": [
			{
				"x": -1.4652773722,
				"y": -3.1319111289,
				"z": -0.0520389703,
				"element": "N" 
			},
			{
				"x": 0.0995678548,
				"y": -2.9510034899,
				"z": -0.6688898764,
				"element": "S" 
			},
			{
				"x": 0.0478557259,
				"y": -3.2630974756,
				"z": -2.0972810932,
				"element": "O" 
			},
			{
				"x": 1.0134677604,
				"y": -3.641266196,
				"z": 0.2414437801,
				"element": "O" 
			},
			{
				"x": 0.370028872,
				"y": -1.1844842492,
				"z": -0.4948991689,
				"element": "C" 
			},
			{
				"x": 1.5965624538,
				"y": -0.6625207731,
				"z": -0.9171342501,
				"element": "C" 
			},
			{
				"x": 2.5225097421,
				"y": -1.4817253579,
				"z": -1.4322750866,
				"element": "F" 
			},
			{
				"x": 1.888377809,
				"y": 0.6908339565,
				"z": -0.8186385989,
				"element": "C" 
			},
			{
				"x": 0.9183820996,
				"y": 1.5368787821,
				"z": -0.2809888447,
				"element": "C" 
			},
			{
				"x": 1.2650087846,
				"y": 3.2469817138,
				"z": -0.147377333,
				"element": "Cl" 
			},
			{
				"x": -0.3155233399,
				"y": 1.0489771887,
				"z": 0.1497331677,
				"element": "C" 
			},
			{
				"x": -0.5826428688,
				"y": -0.3152721883,
				"z": 0.0392798214,
				"element": "C" 
			},
			{
				"x": -2.070454449,
				"y": -3.4986002691,
				"z": -0.7818750529,
				"element": "H" 
			},
			{
				"x": -1.435311865,
				"y": -3.7474853313,
				"z": 0.756372805,
				"element": "H" 
			},
			{
				"x": 2.8491952106,
				"y": 1.0596317071,
				"z": -1.1558645386,
				"element": "H" 
			},
			{
				"x": -1.0545927465,
				"y": 1.7241467091,
				"z": 0.564283756,
				"element": "H" 
			},
			{
				"x": -1.5330536714,
				"y": -0.7191835982,
				"z": 0.3664494836,
				"element": "H" 
			}
		],
		 "valence_orbital": [ 
			{
				"type": "occ",
				"energy": -0.32707,
				"method": "rhf"
			},
			{
				"type": "occ",
				"energy": -0.31373,
				"method": "rhf"
			},
			{
				"type": "occ",
				"energy": -0.30281,
				"method": "rhf"
			},
			{
				"type": "occ",
				"energy": -0.2822,
				"method": "rhf"
			},
			{
				"type": "occ",
				"energy": -0.26623,
				"method": "rhf"
			},
			{
				"type": "unocc",
				"energy": -0.05053,
				"method": "rhf"
			},
			{
				"type": "unocc",
				"energy": -0.03253,
				"method": "rhf"
			},
			{
				"type": "unocc",
				"energy": 0.00759,
				"method": "rhf"
			},
			{
				"type": "unocc",
				"energy": 0.04087,
				"method": "rhf"
			},
			{
				"type": "unocc",
				"energy": 0.06531,
				"method": "rhf"
			}
		],
		"cosmo_sigma_profile": { 
			"-0.025": 0.0,
			"-0.024": 0.0,
			"-0.023": 0.0,
			"-0.022": 0.0,
			"-0.021": 0.0,
			"-0.02": 0.0,
			"-0.019": 0.0,
			"-0.018": 0.0,
			"-0.017": 0.0,
			"-0.016": 0.14943915558,
			"-0.015": 1.89916953345,
			"-0.014": 3.16633047799,
			"-0.013": 2.45709422315,
			"-0.012": 2.01363199907,
			"-0.011": 1.73028483375,
			"-0.01": 2.46028022962,
			"-0.009": 3.89157176893,
			"-0.008": 5.84620623558,
			"-0.007": 7.34821035957,
			"-0.006": 5.9653467903,
			"-0.005": 5.85722053174,
			"-0.004": 7.10488618937,
			"-0.003": 8.91069915952,
			"-0.002": 13.5753342144,
			"-0.001": 18.3900032225,
			"0.0": 21.1434612535,
			"0.001": 14.7867247579,
			"0.002": 12.6535473113,
			"0.003": 17.6183908683,
			"0.004": 10.3374097779,
			"0.005": 4.35455308379,
			"0.006": 3.3162598426,
			"0.007": 3.57071001428,
			"0.008": 2.80290149209,
			"0.009": 4.34449414971,
			"0.01": 11.5327180037,
			"0.011": 8.25087467433,
			"0.012": 0.331543324155,
			"0.013": 0.0,
			"0.014": 0.0,
			"0.015": 0.0,
			"0.016": 0.0,
			"0.017": 0.0,
			"0.018": 0.0,
			"0.019": 0.0,
			"0.02": 0.0,
			"0.021": 0.0,
			"0.022": 0.0,
			"0.023": 0.0,
			"0.024": 0.0,
			"0.025": 0.0
		}
	}
}
