{
	 "smiles": "O=C1NN=NN1C1=CC=CC=C1", 
	 "Tm": 461.15, 
	 "num_atms": 18, 
	 "gaussian": { 
		 "optdone": 1, 
		 "sigma_profile": "yes", 
		 "theory": "DFT", 
		 "functional": "B3LYP", 
		 "basiset": "6-31G**", 
		 "properties": { 
			 "R2extent": 2151.9168, 
			 "electric_dipole_moment_norm": 0.257423017619, 
			 "electric_quadrupole_moment_norm": 11.2509641, 
			 "total_energy": -564.546281129, 
			 "HOMO_LUMO_gap": 0.19124, 
			 "cosmo_polarized_energy": -11.2, 
			 "cosmo_cavitation_energy": 22.8, 
			 "cosmo_dispersion_energy": -17.42, 
			 "cosmo_repulsion_energy": 1.37, 
			 "cosmo_total_nonelectrostatic_energy": 6.74, 
			 "SMD_solvation_energy": 4.2 
		},
		"coords": [
			{
				"x": 2.8833343932,
				"y": 0.3648107778,
				"z": 0.9910211831,
				"element": "O" 
			},
			{
				"x": 2.0086754889,
				"y": 1.2118327505,
				"z": 1.0210645225,
				"element": "C" 
			},
			{
				"x": 2.0240763365,
				"y": 2.462293404,
				"z": 1.6164339488,
				"element": "N" 
			},
			{
				"x": 0.8605910961,
				"y": 3.1372522522,
				"z": 1.4436323738,
				"element": "N" 
			},
			{
				"x": 0.0788969798,
				"y": 2.3990147038,
				"z": 0.7663358164,
				"element": "N" 
			},
			{
				"x": 0.716895862,
				"y": 1.2192867233,
				"z": 0.4797440811,
				"element": "N" 
			},
			{
				"x": 0.0622920935,
				"y": 0.2035505972,
				"z": -0.2745711161,
				"element": "C" 
			},
			{
				"x": -1.2462997057,
				"y": 0.4240676505,
				"z": -0.7224143833,
				"element": "C" 
			},
			{
				"x": -1.8880941831,
				"y": -0.5678302505,
				"z": -1.4600369442,
				"element": "C" 
			},
			{
				"x": -1.2398877682,
				"y": -1.7697180758,
				"z": -1.7526963338,
				"element": "C" 
			},
			{
				"x": 0.0632015166,
				"y": -1.9742854101,
				"z": -1.2996749097,
				"element": "C" 
			},
			{
				"x": 0.72677405,
				"y": -0.9955849909,
				"z": -0.5590922206,
				"element": "C" 
			},
			{
				"x": 2.7881951038,
				"y": 2.8715173915,
				"z": 2.1314365484,
				"element": "H" 
			},
			{
				"x": -1.7438158026,
				"y": 1.3578325837,
				"z": -0.4924492009,
				"element": "H" 
			},
			{
				"x": -2.9028308555,
				"y": -0.396113066,
				"z": -1.8069611919,
				"element": "H" 
			},
			{
				"x": -1.7466893758,
				"y": -2.5381434081,
				"z": -2.3281880959,
				"element": "H" 
			},
			{
				"x": 0.5775116692,
				"y": -2.9049133039,
				"z": -1.5210646891,
				"element": "H" 
			},
			{
				"x": 1.7375731014,
				"y": -1.1481703292,
				"z": -0.2048193886,
				"element": "H" 
			}
		],
		 "valence_orbital": [ 
			{
				"type": "occ",
				"energy": -0.34177,
				"method": "rhf"
			},
			{
				"type": "occ",
				"energy": -0.28128,
				"method": "rhf"
			},
			{
				"type": "occ",
				"energy": -0.27536,
				"method": "rhf"
			},
			{
				"type": "occ",
				"energy": -0.26013,
				"method": "rhf"
			},
			{
				"type": "occ",
				"energy": -0.23589,
				"method": "rhf"
			},
			{
				"type": "unocc",
				"energy": -0.04465,
				"method": "rhf"
			},
			{
				"type": "unocc",
				"energy": -0.01147,
				"method": "rhf"
			},
			{
				"type": "unocc",
				"energy": -0.00046,
				"method": "rhf"
			},
			{
				"type": "unocc",
				"energy": 0.04981,
				"method": "rhf"
			},
			{
				"type": "unocc",
				"energy": 0.06845,
				"method": "rhf"
			}
		],
		"cosmo_sigma_profile": { 
			"-0.025": 0.0,
			"-0.024": 0.0,
			"-0.023": 0.0,
			"-0.022": 0.0,
			"-0.021": 0.0,
			"-0.02": 0.0,
			"-0.019": 0.735981281339,
			"-0.018": 1.70131710582,
			"-0.017": 1.46198392941,
			"-0.016": 0.949519768359,
			"-0.015": 0.62346808456,
			"-0.014": 1.42249334253,
			"-0.013": 0.897975703299,
			"-0.012": 0.318782041689,
			"-0.011": 0.902628525791,
			"-0.01": 0.732480555062,
			"-0.009": 0.685559131253,
			"-0.008": 0.562097327455,
			"-0.007": 2.71024557439,
			"-0.006": 9.41795449985,
			"-0.005": 12.9871045255,
			"-0.004": 14.602945624,
			"-0.003": 11.634885286,
			"-0.002": 11.8067914455,
			"-0.001": 10.0766136583,
			"0.0": 11.4281343006,
			"0.001": 12.6204110787,
			"0.002": 11.6798399043,
			"0.003": 13.8391815193,
			"0.004": 13.5860483115,
			"0.005": 9.000871629,
			"0.006": 5.6651808737,
			"0.007": 3.82004737372,
			"0.008": 4.2311271307,
			"0.009": 2.85789400858,
			"0.01": 2.8612147622,
			"0.011": 3.47409264319,
			"0.012": 4.22651045043,
			"0.013": 0.68621740999,
			"0.014": 0.0,
			"0.015": 0.0,
			"0.016": 0.0,
			"0.017": 0.0,
			"0.018": 0.0,
			"0.019": 0.0,
			"0.02": 0.0,
			"0.021": 0.0,
			"0.022": 0.0,
			"0.023": 0.0,
			"0.024": 0.0,
			"0.025": 0.0
		}
	}
}
