{
	 "smiles": "CC1=CC=C(C=C1)C(O)(C1=CC=C(C)C=C1)C1=CC=C(C)C=C1", 
	 "Tm": 368.15, 
	 "num_atms": 45, 
	 "gaussian": { 
		 "optdone": 1, 
		 "sigma_profile": "yes", 
		 "theory": "DFT", 
		 "functional": "B3LYP", 
		 "basiset": "6-31G**", 
		 "properties": { 
			 "R2extent": 8664.0164, 
			 "electric_dipole_moment_norm": 1.44894705217, 
			 "electric_quadrupole_moment_norm": 5.00713092799, 
			 "total_energy": -926.840051875, 
			 "HOMO_LUMO_gap": 0.21479, 
			 "cosmo_polarized_energy": -10.15, 
			 "cosmo_cavitation_energy": 46.68, 
			 "cosmo_dispersion_energy": -31.95, 
			 "cosmo_repulsion_energy": 2.47, 
			 "cosmo_total_nonelectrostatic_energy": 17.19, 
			 "SMD_solvation_energy": 8.02 
		},
		"coords": [
			{
				"x": 5.4649719383,
				"y": 2.7843092707,
				"z": 0.5845031676,
				"element": "C" 
			},
			{
				"x": 4.2921338423,
				"y": 1.9143837877,
				"z": 0.1973615709,
				"element": "C" 
			},
			{
				"x": 3.0625540544,
				"y": 2.4704840208,
				"z": -0.1677774822,
				"element": "C" 
			},
			{
				"x": 1.9884193605,
				"y": 1.6642195853,
				"z": -0.5525169472,
				"element": "C" 
			},
			{
				"x": 2.1110528341,
				"y": 0.2718193816,
				"z": -0.5741822868,
				"element": "C" 
			},
			{
				"x": 3.3398850026,
				"y": -0.2921676274,
				"z": -0.203493302,
				"element": "C" 
			},
			{
				"x": 4.4088509956,
				"y": 0.5166649387,
				"z": 0.1714900852,
				"element": "C" 
			},
			{
				"x": 0.9335957183,
				"y": -0.6507763978,
				"z": -0.9300705711,
				"element": "C" 
			},
			{
				"x": 1.5263001125,
				"y": -1.7844737978,
				"z": -1.5936769893,
				"element": "O" 
			},
			{
				"x": 0.2431715819,
				"y": -1.1041206342,
				"z": 0.3742950238,
				"element": "C" 
			},
			{
				"x": -0.236170527,
				"y": -0.1702306185,
				"z": 1.3068787585,
				"element": "C" 
			},
			{
				"x": -0.8634541427,
				"y": -0.5833608753,
				"z": 2.4784477836,
				"element": "C" 
			},
			{
				"x": -1.0280737628,
				"y": -1.9452188868,
				"z": 2.7747620961,
				"element": "C" 
			},
			{
				"x": -1.6962826294,
				"y": -2.3840880546,
				"z": 4.0564518786,
				"element": "C" 
			},
			{
				"x": -0.5370559812,
				"y": -2.8716096214,
				"z": 1.8514486816,
				"element": "C" 
			},
			{
				"x": 0.089499645,
				"y": -2.4599627656,
				"z": 0.6718068575,
				"element": "C" 
			},
			{
				"x": -0.0347608556,
				"y": 0.0054483701,
				"z": -1.932368652,
				"element": "C" 
			},
			{
				"x": 0.4757886882,
				"y": 0.3721956603,
				"z": -3.1913030019,
				"element": "C" 
			},
			{
				"x": -0.3485449926,
				"y": 0.9168000283,
				"z": -4.1684760761,
				"element": "C" 
			},
			{
				"x": -1.7194706741,
				"y": 1.114952058,
				"z": -3.9340990452,
				"element": "C" 
			},
			{
				"x": -2.6061296948,
				"y": 1.7183208556,
				"z": -4.9975250774,
				"element": "C" 
			},
			{
				"x": -2.2254119181,
				"y": 0.7399173006,
				"z": -2.6877253199,
				"element": "C" 
			},
			{
				"x": -1.3997415479,
				"y": 0.1908259517,
				"z": -1.7003993926,
				"element": "C" 
			},
			{
				"x": 6.1985507661,
				"y": 2.8498704309,
				"z": -0.228859732,
				"element": "H" 
			},
			{
				"x": 5.1463476294,
				"y": 3.8036568851,
				"z": 0.8211247599,
				"element": "H" 
			},
			{
				"x": 5.9899101668,
				"y": 2.3833485005,
				"z": 1.4580752155,
				"element": "H" 
			},
			{
				"x": 2.9400445951,
				"y": 3.5510582534,
				"z": -0.1597332067,
				"element": "H" 
			},
			{
				"x": 1.0533848543,
				"y": 2.1299934962,
				"z": -0.8480018714,
				"element": "H" 
			},
			{
				"x": 3.4529370714,
				"y": -1.3703577209,
				"z": -0.2166712833,
				"element": "H" 
			},
			{
				"x": 5.3529185679,
				"y": 0.054520744,
				"z": 0.451782723,
				"element": "H" 
			},
			{
				"x": 0.812941801,
				"y": -2.2416262716,
				"z": -2.0589763638,
				"element": "H" 
			},
			{
				"x": -0.1090217305,
				"y": 0.8916378838,
				"z": 1.1200328419,
				"element": "H" 
			},
			{
				"x": -1.2251733679,
				"y": 0.1646964918,
				"z": 3.1805105862,
				"element": "H" 
			},
			{
				"x": -1.8282302649,
				"y": -3.469291622,
				"z": 4.0866177963,
				"element": "H" 
			},
			{
				"x": -1.1043440739,
				"y": -2.0971936302,
				"z": 4.9339171889,
				"element": "H" 
			},
			{
				"x": -2.6836755195,
				"y": -1.9227643055,
				"z": 4.1720388642,
				"element": "H" 
			},
			{
				"x": -0.6387701578,
				"y": -3.9349992901,
				"z": 2.0555723199,
				"element": "H" 
			},
			{
				"x": 0.4837967691,
				"y": -3.2030591013,
				"z": -0.0119471458,
				"element": "H" 
			},
			{
				"x": 1.5309541647,
				"y": 0.2201087725,
				"z": -3.3956325344,
				"element": "H" 
			},
			{
				"x": 0.0750624626,
				"y": 1.1926530413,
				"z": -5.1316555369,
				"element": "H" 
			},
			{
				"x": -2.5191761151,
				"y": 1.1760425956,
				"z": -5.9457942262,
				"element": "H" 
			},
			{
				"x": -2.3326785361,
				"y": 2.7610253132,
				"z": -5.1992737345,
				"element": "H" 
			},
			{
				"x": -3.6575581953,
				"y": 1.7034631297,
				"z": -4.6974388162,
				"element": "H" 
			},
			{
				"x": -3.2843621454,
				"y": 0.8721874233,
				"z": -2.4789697513,
				"element": "H" 
			},
			{
				"x": -1.8325857898,
				"y": -0.0947029495,
				"z": -0.7484498531,
				"element": "H" 
			}
		],
		 "valence_orbital": [ 
			{
				"type": "occ",
				"energy": -0.24377,
				"method": "rhf"
			},
			{
				"type": "occ",
				"energy": -0.23928,
				"method": "rhf"
			},
			{
				"type": "occ",
				"energy": -0.23728,
				"method": "rhf"
			},
			{
				"type": "occ",
				"energy": -0.23142,
				"method": "rhf"
			},
			{
				"type": "occ",
				"energy": -0.21999,
				"method": "rhf"
			},
			{
				"type": "unocc",
				"energy": -0.0052,
				"method": "rhf"
			},
			{
				"type": "unocc",
				"energy": -0.004,
				"method": "rhf"
			},
			{
				"type": "unocc",
				"energy": -0.00248,
				"method": "rhf"
			},
			{
				"type": "unocc",
				"energy": 0.00359,
				"method": "rhf"
			},
			{
				"type": "unocc",
				"energy": 0.01578,
				"method": "rhf"
			}
		],
		"cosmo_sigma_profile": { 
			"-0.025": 0.0,
			"-0.024": 0.0,
			"-0.023": 0.0,
			"-0.022": 0.0,
			"-0.021": 0.0,
			"-0.02": 0.0,
			"-0.019": 0.0,
			"-0.018": 0.0,
			"-0.017": 0.0,
			"-0.016": 0.00298624602025,
			"-0.015": 0.464322785441,
			"-0.014": 0.756868049768,
			"-0.013": 0.607265113856,
			"-0.012": 0.899894960585,
			"-0.011": 0.613720364215,
			"-0.01": 0.875455804458,
			"-0.009": 1.16352449081,
			"-0.008": 0.785874613859,
			"-0.007": 1.30142668966,
			"-0.006": 1.66199792149,
			"-0.005": 15.560746178,
			"-0.004": 37.5063286133,
			"-0.003": 43.9027711878,
			"-0.002": 37.7616744626,
			"-0.001": 36.7925119535,
			"0.0": 39.6356104989,
			"0.001": 29.6412699202,
			"0.002": 21.7736691352,
			"0.003": 19.8968385744,
			"0.004": 22.7432915609,
			"0.005": 24.4363498528,
			"0.006": 20.599442592,
			"0.007": 3.62084586954,
			"0.008": 1.60006243608,
			"0.009": 1.2540429702,
			"0.01": 1.24845251365,
			"0.011": 1.39834344829,
			"0.012": 0.783093081934,
			"0.013": 0.148974786618,
			"0.014": 0.0,
			"0.015": 0.0,
			"0.016": 0.0,
			"0.017": 0.0,
			"0.018": 0.0,
			"0.019": 0.0,
			"0.02": 0.0,
			"0.021": 0.0,
			"0.022": 0.0,
			"0.023": 0.0,
			"0.024": 0.0,
			"0.025": 0.0
		}
	}
}
