{
	 "smiles": "BrC1=CC=C(NC(=O)CNC2=CC=CC=C2)C=C1", 
	 "Tm": 427.15, 
	 "num_atms": 31, 
	 "gaussian": { 
		 "optdone": 1, 
		 "sigma_profile": "yes", 
		 "theory": "DFT", 
		 "functional": "B3LYP", 
		 "basiset": "6-31G**", 
		 "properties": { 
			 "R2extent": 11071.0238, 
			 "electric_dipole_moment_norm": 4.89785609425, 
			 "electric_quadrupole_moment_norm": 12.248339603, 
			 "total_energy": -3297.47686128, 
			 "HOMO_LUMO_gap": 0.19392, 
			 "cosmo_polarized_energy": -15.05, 
			 "cosmo_cavitation_energy": 37.65, 
			 "cosmo_dispersion_energy": -27.32, 
			 "cosmo_repulsion_energy": 2.12, 
			 "cosmo_total_nonelectrostatic_energy": 12.46, 
			 "SMD_solvation_energy": 5.24 
		},
		"coords": [
			{
				"x": 0.1216827775,
				"y": 5.8648946473,
				"z": -3.2655917672,
				"element": "Br" 
			},
			{
				"x": 0.2592554475,
				"y": 4.1880714226,
				"z": -2.3562458255,
				"element": "C" 
			},
			{
				"x": 0.7785502784,
				"y": 4.1472828822,
				"z": -1.0635706769,
				"element": "C" 
			},
			{
				"x": 0.8759751176,
				"y": 2.9239488574,
				"z": -0.4076819407,
				"element": "C" 
			},
			{
				"x": 0.4593465955,
				"y": 1.7379657099,
				"z": -1.0326731274,
				"element": "C" 
			},
			{
				"x": 0.5924483035,
				"y": 0.5383553311,
				"z": -0.3108206038,
				"element": "N" 
			},
			{
				"x": 0.2286738246,
				"y": -0.7284308857,
				"z": -0.6746215953,
				"element": "C" 
			},
			{
				"x": -0.2863247917,
				"y": -1.0556008904,
				"z": -1.7355581735,
				"element": "O" 
			},
			{
				"x": 0.5685846908,
				"y": -1.7967187478,
				"z": 0.3814625772,
				"element": "C" 
			},
			{
				"x": 0.8971278246,
				"y": -1.2797655828,
				"z": 1.7029609682,
				"element": "N" 
			},
			{
				"x": -0.1081671973,
				"y": -1.1063293412,
				"z": 2.6762313704,
				"element": "C" 
			},
			{
				"x": 0.249401125,
				"y": -1.0821120196,
				"z": 4.0355010143,
				"element": "C" 
			},
			{
				"x": -0.7147743099,
				"y": -0.8704589095,
				"z": 5.0164582086,
				"element": "C" 
			},
			{
				"x": -2.0542672976,
				"y": -0.6794687476,
				"z": 4.6669338762,
				"element": "C" 
			},
			{
				"x": -2.4110811914,
				"y": -0.7014835222,
				"z": 3.3191671334,
				"element": "C" 
			},
			{
				"x": -1.4533954501,
				"y": -0.9105373766,
				"z": 2.3251292721,
				"element": "C" 
			},
			{
				"x": -0.0624310279,
				"y": 1.7934440015,
				"z": -2.3349445529,
				"element": "C" 
			},
			{
				"x": -0.1596816439,
				"y": 3.0204395242,
				"z": -2.989846355,
				"element": "C" 
			},
			{
				"x": 1.1023008868,
				"y": 5.0582406825,
				"z": -0.5734043835,
				"element": "H" 
			},
			{
				"x": 1.2784096971,
				"y": 2.8905388673,
				"z": 0.6017778289,
				"element": "H" 
			},
			{
				"x": 0.9841268842,
				"y": 0.5947482064,
				"z": 0.623913967,
				"element": "H" 
			},
			{
				"x": -0.2713574249,
				"y": -2.5021778363,
				"z": 0.3966381399,
				"element": "H" 
			},
			{
				"x": 1.434117168,
				"y": -2.3443080746,
				"z": -0.0057853547,
				"element": "H" 
			},
			{
				"x": 1.7442595603,
				"y": -1.6734943465,
				"z": 2.0894689254,
				"element": "H" 
			},
			{
				"x": 1.2893230369,
				"y": -1.2322245047,
				"z": 4.3179503382,
				"element": "H" 
			},
			{
				"x": -0.4166288942,
				"y": -0.8598607639,
				"z": 6.0611086139,
				"element": "H" 
			},
			{
				"x": -2.8052728139,
				"y": -0.5163560091,
				"z": 5.4332967573,
				"element": "H" 
			},
			{
				"x": -3.4471991254,
				"y": -0.5531184179,
				"z": 3.0283520923,
				"element": "H" 
			},
			{
				"x": -1.7576114034,
				"y": -0.9118296366,
				"z": 1.2839343958,
				"element": "H" 
			},
			{
				"x": -0.3858385091,
				"y": 0.8810587355,
				"z": -2.8164510723,
				"element": "H" 
			},
			{
				"x": -0.5628521374,
				"y": 3.0628867452,
				"z": -3.9953900505,
				"element": "H" 
			}
		],
		 "valence_orbital": [ 
			{
				"type": "occ",
				"energy": -0.26157,
				"method": "rhf"
			},
			{
				"type": "occ",
				"energy": -0.25935,
				"method": "rhf"
			},
			{
				"type": "occ",
				"energy": -0.25615,
				"method": "rhf"
			},
			{
				"type": "occ",
				"energy": -0.21926,
				"method": "rhf"
			},
			{
				"type": "occ",
				"energy": -0.21607,
				"method": "rhf"
			},
			{
				"type": "unocc",
				"energy": -0.02215,
				"method": "rhf"
			},
			{
				"type": "unocc",
				"energy": -0.0116,
				"method": "rhf"
			},
			{
				"type": "unocc",
				"energy": -0.00705,
				"method": "rhf"
			},
			{
				"type": "unocc",
				"energy": 0.00537,
				"method": "rhf"
			},
			{
				"type": "unocc",
				"energy": 0.01206,
				"method": "rhf"
			}
		],
		"cosmo_sigma_profile": { 
			"-0.025": 0.0,
			"-0.024": 0.0,
			"-0.023": 0.0,
			"-0.022": 0.0,
			"-0.021": 0.0,
			"-0.02": 0.0,
			"-0.019": 0.0,
			"-0.018": 0.0,
			"-0.017": 0.0,
			"-0.016": 0.0,
			"-0.015": 0.0,
			"-0.014": 0.283923410881,
			"-0.013": 1.45235566827,
			"-0.012": 2.53303651309,
			"-0.011": 2.45255883552,
			"-0.01": 2.47277721332,
			"-0.009": 3.7290350433,
			"-0.008": 5.91309890272,
			"-0.007": 7.67746625227,
			"-0.006": 11.3032115677,
			"-0.005": 21.2773260766,
			"-0.004": 20.4678198373,
			"-0.003": 23.2161605136,
			"-0.002": 18.2462713323,
			"-0.001": 16.3043649022,
			"0.0": 18.328106624,
			"0.001": 20.5270595754,
			"0.002": 24.5338618195,
			"0.003": 29.3289068352,
			"0.004": 26.3842928244,
			"0.005": 17.645149225,
			"0.006": 10.034273229,
			"0.007": 7.07531485965,
			"0.008": 1.44101130092,
			"0.009": 1.3155935076,
			"0.01": 1.60965468512,
			"0.011": 1.79356832623,
			"0.012": 2.70716791983,
			"0.013": 3.19426665594,
			"0.014": 1.20203922732,
			"0.015": 0.0425825708121,
			"0.016": 0.0,
			"0.017": 0.0,
			"0.018": 0.0,
			"0.019": 0.0,
			"0.02": 0.0,
			"0.021": 0.0,
			"0.022": 0.0,
			"0.023": 0.0,
			"0.024": 0.0,
			"0.025": 0.0
		}
	}
}
