{
	 "smiles": "CN1N=C(C)C=C1C(N)=S", 
	 "Tm": 443.15, 
	 "num_atms": 19, 
	 "gaussian": { 
		 "optdone": 1, 
		 "sigma_profile": "yes", 
		 "theory": "DFT", 
		 "functional": "B3LYP", 
		 "basiset": "6-31G**", 
		 "properties": { 
			 "R2extent": 2844.693, 
			 "electric_dipole_moment_norm": 4.08777481278, 
			 "electric_quadrupole_moment_norm": 26.8736159733, 
			 "total_energy": -796.494709926, 
			 "HOMO_LUMO_gap": 0.14984, 
			 "cosmo_polarized_energy": -16.9, 
			 "cosmo_cavitation_energy": 24.48, 
			 "cosmo_dispersion_energy": -18.38, 
			 "cosmo_repulsion_energy": 1.47, 
			 "cosmo_total_nonelectrostatic_energy": 7.57, 
			 "SMD_solvation_energy": 2.63 
		},
		"coords": [
			{
				"x": 2.312351877,
				"y": 0.6838837357,
				"z": -0.5166001533,
				"element": "C" 
			},
			{
				"x": 1.0183614208,
				"y": 0.911298656,
				"z": 0.1104157377,
				"element": "N" 
			},
			{
				"x": -0.0809248591,
				"y": 0.7789684458,
				"z": -0.6592278491,
				"element": "N" 
			},
			{
				"x": -1.1282067791,
				"y": 0.9171207459,
				"z": 0.1634556666,
				"element": "C" 
			},
			{
				"x": -2.5262383911,
				"y": 0.8444651821,
				"z": -0.370971319,
				"element": "C" 
			},
			{
				"x": -0.6968332559,
				"y": 1.1134959435,
				"z": 1.4889548979,
				"element": "C" 
			},
			{
				"x": 0.6911031353,
				"y": 1.109276053,
				"z": 1.4359366638,
				"element": "C" 
			},
			{
				"x": 1.6392577604,
				"y": 1.3156270314,
				"z": 2.5370181875,
				"element": "C" 
			},
			{
				"x": 2.8243513134,
				"y": 1.8986464847,
				"z": 2.209163143,
				"element": "N" 
			},
			{
				"x": 1.3002791832,
				"y": 0.8517941008,
				"z": 4.1021392059,
				"element": "S" 
			},
			{
				"x": 2.987705204,
				"y": 0.1836359143,
				"z": 0.1781583696,
				"element": "H" 
			},
			{
				"x": 2.7695558389,
				"y": 1.6218340576,
				"z": -0.8547686445,
				"element": "H" 
			},
			{
				"x": 2.141177579,
				"y": 0.051609401,
				"z": -1.3873259817,
				"element": "H" 
			},
			{
				"x": -2.5034577889,
				"y": 0.6222933596,
				"z": -1.4400523171,
				"element": "H" 
			},
			{
				"x": -3.1049180775,
				"y": 0.0636031883,
				"z": 0.1337226915,
				"element": "H" 
			},
			{
				"x": -3.0593384912,
				"y": 1.7908563422,
				"z": -0.2273094754,
				"element": "H" 
			},
			{
				"x": -1.2893237176,
				"y": 1.2496277251,
				"z": 2.380520002,
				"element": "H" 
			},
			{
				"x": 3.4495323934,
				"y": 2.1138407568,
				"z": 2.9735636335,
				"element": "H" 
			},
			{
				"x": 2.912665655,
				"y": 2.449622876,
				"z": 1.3674075411,
				"element": "H" 
			}
		],
		 "valence_orbital": [ 
			{
				"type": "occ",
				"energy": -0.29424,
				"method": "rhf"
			},
			{
				"type": "occ",
				"energy": -0.26165,
				"method": "rhf"
			},
			{
				"type": "occ",
				"energy": -0.24684,
				"method": "rhf"
			},
			{
				"type": "occ",
				"energy": -0.23139,
				"method": "rhf"
			},
			{
				"type": "occ",
				"energy": -0.21035,
				"method": "rhf"
			},
			{
				"type": "unocc",
				"energy": -0.06051,
				"method": "rhf"
			},
			{
				"type": "unocc",
				"energy": 0.03087,
				"method": "rhf"
			},
			{
				"type": "unocc",
				"energy": 0.0491,
				"method": "rhf"
			},
			{
				"type": "unocc",
				"energy": 0.07614,
				"method": "rhf"
			},
			{
				"type": "unocc",
				"energy": 0.08942,
				"method": "rhf"
			}
		],
		"cosmo_sigma_profile": { 
			"-0.025": 0.0,
			"-0.024": 0.0,
			"-0.023": 0.0,
			"-0.022": 0.0,
			"-0.021": 0.0,
			"-0.02": 0.0,
			"-0.019": 0.0,
			"-0.018": 0.0,
			"-0.017": 0.0,
			"-0.016": 0.155754824525,
			"-0.015": 2.45926462931,
			"-0.014": 2.29211949731,
			"-0.013": 2.98203971932,
			"-0.012": 2.81927548327,
			"-0.011": 2.37722776387,
			"-0.01": 1.96923021195,
			"-0.009": 2.0609011236,
			"-0.008": 1.92232130659,
			"-0.007": 4.41226524751,
			"-0.006": 7.54344982179,
			"-0.005": 10.1282195044,
			"-0.004": 15.1458754333,
			"-0.003": 15.8016070266,
			"-0.002": 13.1841050576,
			"-0.001": 13.4095471104,
			"0.0": 12.3294159202,
			"0.001": 8.48838462162,
			"0.002": 9.19365371315,
			"0.003": 10.5888659265,
			"0.004": 9.20150542505,
			"0.005": 6.30834694073,
			"0.006": 6.10173136199,
			"0.007": 6.72812231377,
			"0.008": 8.3466840006,
			"0.009": 7.48457617385,
			"0.01": 5.21570928804,
			"0.011": 4.04715634637,
			"0.012": 1.51020070711,
			"0.013": 1.50453678319,
			"0.014": 0.681329154401,
			"0.015": 0.418207631137,
			"0.016": 0.0,
			"0.017": 0.0,
			"0.018": 0.0,
			"0.019": 0.0,
			"0.02": 0.0,
			"0.021": 0.0,
			"0.022": 0.0,
			"0.023": 0.0,
			"0.024": 0.0,
			"0.025": 0.0
		}
	}
}
