{
	 "smiles": "NC1=CC(Cl)=NC=C1", 
	 "Tm": 366.15, 
	 "num_atms": 13, 
	 "gaussian": { 
		 "optdone": 1, 
		 "sigma_profile": "yes", 
		 "theory": "DFT", 
		 "functional": "B3LYP", 
		 "basiset": "6-31G**", 
		 "properties": { 
			 "R2extent": 1403.892, 
			 "electric_dipole_moment_norm": 5.3752367706, 
			 "electric_quadrupole_moment_norm": 7.47859583612, 
			 "total_energy": -763.243331084, 
			 "HOMO_LUMO_gap": 0.22135, 
			 "cosmo_polarized_energy": -12.99, 
			 "cosmo_cavitation_energy": 19.0, 
			 "cosmo_dispersion_energy": -14.58, 
			 "cosmo_repulsion_energy": 1.22, 
			 "cosmo_total_nonelectrostatic_energy": 5.64, 
			 "SMD_solvation_energy": 1.69 
		},
		"coords": [
			{
				"x": -1.0144969153,
				"y": 1.3038206198,
				"z": 1.1990837337,
				"element": "N" 
			},
			{
				"x": -0.7047597542,
				"y": 0.1386281255,
				"z": 0.5315132457,
				"element": "C" 
			},
			{
				"x": 0.6206249396,
				"y": -0.1694481175,
				"z": 0.1816027815,
				"element": "C" 
			},
			{
				"x": 0.844657445,
				"y": -1.3417643837,
				"z": -0.5335173999,
				"element": "C" 
			},
			{
				"x": 2.5143405754,
				"y": -1.7295834835,
				"z": -0.9697867266,
				"element": "Cl" 
			},
			{
				"x": -0.0771687761,
				"y": -2.2051132525,
				"z": -0.9196868131,
				"element": "N" 
			},
			{
				"x": -1.3415344307,
				"y": -1.8988522475,
				"z": -0.5796019199,
				"element": "C" 
			},
			{
				"x": -1.7085098253,
				"y": -0.7662128035,
				"z": 0.1301527385,
				"element": "C" 
			},
			{
				"x": -0.2670716621,
				"y": 1.771832661,
				"z": 1.6893735797,
				"element": "H" 
			},
			{
				"x": -1.9073329232,
				"y": 1.3466084742,
				"z": 1.6667593619,
				"element": "H" 
			},
			{
				"x": 1.443371614,
				"y": 0.4817381223,
				"z": 0.4539598201,
				"element": "H" 
			},
			{
				"x": -2.1005051226,
				"y": -2.6106345766,
				"z": -0.8973630126,
				"element": "H" 
			},
			{
				"x": -2.7513151643,
				"y": -0.579319138,
				"z": 0.3683106111,
				"element": "H" 
			}
		],
		 "valence_orbital": [ 
			{
				"type": "occ",
				"energy": -0.32042,
				"method": "rhf"
			},
			{
				"type": "occ",
				"energy": -0.30489,
				"method": "rhf"
			},
			{
				"type": "occ",
				"energy": -0.26592,
				"method": "rhf"
			},
			{
				"type": "occ",
				"energy": -0.25328,
				"method": "rhf"
			},
			{
				"type": "occ",
				"energy": -0.23734,
				"method": "rhf"
			},
			{
				"type": "unocc",
				"energy": -0.01599,
				"method": "rhf"
			},
			{
				"type": "unocc",
				"energy": -0.00935,
				"method": "rhf"
			},
			{
				"type": "unocc",
				"energy": 0.04064,
				"method": "rhf"
			},
			{
				"type": "unocc",
				"energy": 0.06362,
				"method": "rhf"
			},
			{
				"type": "unocc",
				"energy": 0.10349,
				"method": "rhf"
			}
		],
		"cosmo_sigma_profile": { 
			"-0.025": 0.0,
			"-0.024": 0.0,
			"-0.023": 0.0,
			"-0.022": 0.0,
			"-0.021": 0.0,
			"-0.02": 0.0,
			"-0.019": 0.0,
			"-0.018": 0.0,
			"-0.017": 0.0,
			"-0.016": 0.0,
			"-0.015": 0.0,
			"-0.014": 1.43857580013,
			"-0.013": 2.92041638846,
			"-0.012": 3.82183213498,
			"-0.011": 3.19879919956,
			"-0.01": 2.95223271545,
			"-0.009": 3.00052053816,
			"-0.008": 3.80504260526,
			"-0.007": 5.35187580861,
			"-0.006": 6.35784337188,
			"-0.005": 5.95509098727,
			"-0.004": 4.7036585853,
			"-0.003": 4.81668831741,
			"-0.002": 5.57369633075,
			"-0.001": 6.81115667822,
			"0.0": 6.59767257799,
			"0.001": 11.4435822125,
			"0.002": 18.2186357097,
			"0.003": 14.9880472031,
			"0.004": 11.0356512789,
			"0.005": 10.8822056317,
			"0.006": 4.0442259165,
			"0.007": 3.15153415221,
			"0.008": 2.63058421798,
			"0.009": 2.31207917228,
			"0.01": 1.94773253958,
			"0.011": 1.4494537704,
			"0.012": 1.37091865809,
			"0.013": 1.18639075432,
			"0.014": 1.0585161794,
			"0.015": 0.630820859842,
			"0.016": 0.538590012989,
			"0.017": 0.0,
			"0.018": 0.0,
			"0.019": 0.0,
			"0.02": 0.0,
			"0.021": 0.0,
			"0.022": 0.0,
			"0.023": 0.0,
			"0.024": 0.0,
			"0.025": 0.0
		}
	}
}
