{
	 "smiles": "OCC1=CC(Br)=CC(CO)=C1O", 
	 "Tm": 438.15, 
	 "num_atms": 21, 
	 "gaussian": { 
		 "optdone": 1, 
		 "sigma_profile": "yes", 
		 "theory": "DFT", 
		 "functional": "B3LYP", 
		 "basiset": "6-31G**", 
		 "properties": { 
			 "R2extent": 3581.0647, 
			 "electric_dipole_moment_norm": 4.99550052047, 
			 "electric_quadrupole_moment_norm": 16.4701115467, 
			 "total_energy": -3107.33438661, 
			 "HOMO_LUMO_gap": 0.2003, 
			 "cosmo_polarized_energy": -13.73, 
			 "cosmo_cavitation_energy": 26.55, 
			 "cosmo_dispersion_energy": -20.45, 
			 "cosmo_repulsion_energy": 1.65, 
			 "cosmo_total_nonelectrostatic_energy": 7.75, 
			 "SMD_solvation_energy": 3.51 
		},
		"coords": [
			{
				"x": -1.1574978135,
				"y": -3.0987971531,
				"z": -1.4677241343,
				"element": "O" 
			},
			{
				"x": -0.7768183504,
				"y": -2.8012035517,
				"z": -0.1341257225,
				"element": "C" 
			},
			{
				"x": -0.3101377467,
				"y": -1.3706246983,
				"z": 0.0597028161,
				"element": "C" 
			},
			{
				"x": 0.9413087363,
				"y": -1.068866674,
				"z": 0.5966128623,
				"element": "C" 
			},
			{
				"x": 1.3195734018,
				"y": 0.2581183884,
				"z": 0.7963954664,
				"element": "C" 
			},
			{
				"x": 3.0304031816,
				"y": 0.6510634249,
				"z": 1.5579164915,
				"element": "Br" 
			},
			{
				"x": 0.4692799851,
				"y": 1.3013447356,
				"z": 0.4482486737,
				"element": "C" 
			},
			{
				"x": -0.7800901238,
				"y": 1.0251094196,
				"z": -0.1167598768,
				"element": "C" 
			},
			{
				"x": -1.6581381956,
				"y": 2.1509201626,
				"z": -0.6040402204,
				"element": "C" 
			},
			{
				"x": -3.0302633219,
				"y": 1.8705821142,
				"z": -0.2614275683,
				"element": "O" 
			},
			{
				"x": -1.1665944824,
				"y": -0.3141874305,
				"z": -0.2949950779,
				"element": "C" 
			},
			{
				"x": -2.3836663774,
				"y": -0.6447468707,
				"z": -0.8250454514,
				"element": "O" 
			},
			{
				"x": -1.9009649141,
				"y": -2.5127910766,
				"z": -1.6696793577,
				"element": "H" 
			},
			{
				"x": -1.6035378485,
				"y": -3.0021425618,
				"z": 0.5670531656,
				"element": "H" 
			},
			{
				"x": 0.0370529625,
				"y": -3.4874539692,
				"z": 0.1183232194,
				"element": "H" 
			},
			{
				"x": 1.61709086,
				"y": -1.8722935242,
				"z": 0.8703271823,
				"element": "H" 
			},
			{
				"x": 0.7771879917,
				"y": 2.3298619865,
				"z": 0.6050880857,
				"element": "H" 
			},
			{
				"x": -1.3388833146,
				"y": 3.0987502095,
				"z": -0.1530355942,
				"element": "H" 
			},
			{
				"x": -1.565169537,
				"y": 2.2507966028,
				"z": -1.696758985,
				"element": "H" 
			},
			{
				"x": -3.59651238,
				"y": 2.4985687495,
				"z": -0.7284869589,
				"element": "H" 
			},
			{
				"x": -2.959122713,
				"y": 0.1440917165,
				"z": -0.7468890156,
				"element": "H" 
			}
		],
		 "valence_orbital": [ 
			{
				"type": "occ",
				"energy": -0.28933,
				"method": "rhf"
			},
			{
				"type": "occ",
				"energy": -0.28422,
				"method": "rhf"
			},
			{
				"type": "occ",
				"energy": -0.25706,
				"method": "rhf"
			},
			{
				"type": "occ",
				"energy": -0.25653,
				"method": "rhf"
			},
			{
				"type": "occ",
				"energy": -0.2201,
				"method": "rhf"
			},
			{
				"type": "unocc",
				"energy": -0.0198,
				"method": "rhf"
			},
			{
				"type": "unocc",
				"energy": -0.00568,
				"method": "rhf"
			},
			{
				"type": "unocc",
				"energy": 0.01008,
				"method": "rhf"
			},
			{
				"type": "unocc",
				"energy": 0.04575,
				"method": "rhf"
			},
			{
				"type": "unocc",
				"energy": 0.10408,
				"method": "rhf"
			}
		],
		"cosmo_sigma_profile": { 
			"-0.025": 0.0,
			"-0.024": 0.0,
			"-0.023": 0.0,
			"-0.022": 0.0,
			"-0.021": 0.0,
			"-0.02": 0.0,
			"-0.019": 0.0,
			"-0.018": 0.108457260835,
			"-0.017": 1.07777468111,
			"-0.016": 1.2555834857,
			"-0.015": 1.25247400759,
			"-0.014": 0.819622264572,
			"-0.013": 0.782266810927,
			"-0.012": 0.540208850976,
			"-0.011": 1.06843883782,
			"-0.01": 1.64746362726,
			"-0.009": 2.13505430618,
			"-0.008": 2.50017384667,
			"-0.007": 7.59893275416,
			"-0.006": 13.3438219024,
			"-0.005": 12.9986759434,
			"-0.004": 13.5513732416,
			"-0.003": 13.1539360461,
			"-0.002": 11.1097288783,
			"-0.001": 10.944341732,
			"0.0": 10.6110587708,
			"0.001": 12.458507748,
			"0.002": 17.0462084855,
			"0.003": 22.5712183137,
			"0.004": 18.7240887497,
			"0.005": 14.0670582622,
			"0.006": 4.35460125046,
			"0.007": 2.57319920081,
			"0.008": 1.90577204656,
			"0.009": 1.53455691859,
			"0.01": 2.16895061052,
			"0.011": 2.23118024879,
			"0.012": 2.31911317651,
			"0.013": 1.10485697673,
			"0.014": 2.8100241089,
			"0.015": 0.982067301795,
			"0.016": 0.0,
			"0.017": 0.0,
			"0.018": 0.0,
			"0.019": 0.0,
			"0.02": 0.0,
			"0.021": 0.0,
			"0.022": 0.0,
			"0.023": 0.0,
			"0.024": 0.0,
			"0.025": 0.0
		}
	}
}
