{
	 "smiles": "CC1=CC(N)=C(C=C1)C(N)=O", 
	 "Tm": 421.15, 
	 "num_atms": 21, 
	 "gaussian": { 
		 "optdone": 1, 
		 "sigma_profile": "yes", 
		 "theory": "DFT", 
		 "functional": "B3LYP", 
		 "basiset": "6-31G**", 
		 "properties": { 
			 "R2extent": 2364.4112, 
			 "electric_dipole_moment_norm": 2.04281730216, 
			 "electric_quadrupole_moment_norm": 12.4303993733, 
			 "total_energy": -495.642596453, 
			 "HOMO_LUMO_gap": 0.1693, 
			 "cosmo_polarized_energy": -12.71, 
			 "cosmo_cavitation_energy": 24.21, 
			 "cosmo_dispersion_energy": -18.34, 
			 "cosmo_repulsion_energy": 1.48, 
			 "cosmo_total_nonelectrostatic_energy": 7.35, 
			 "SMD_solvation_energy": 4.71 
		},
		"coords": [
			{
				"x": 2.7544917253,
				"y": -0.9062375802,
				"z": -0.1366635621,
				"element": "C" 
			},
			{
				"x": 1.3510021198,
				"y": -0.4272245527,
				"z": -0.4200610084,
				"element": "C" 
			},
			{
				"x": 0.8787722679,
				"y": -0.3344844451,
				"z": -1.7219671228,
				"element": "C" 
			},
			{
				"x": -0.4297555358,
				"y": 0.1092090945,
				"z": -2.0239254556,
				"element": "C" 
			},
			{
				"x": -0.8340965087,
				"y": 0.2016169423,
				"z": -3.3283540953,
				"element": "N" 
			},
			{
				"x": -1.2799265164,
				"y": 0.493706882,
				"z": -0.9468642328,
				"element": "C" 
			},
			{
				"x": -0.7872536073,
				"y": 0.3750896494,
				"z": 0.3671793273,
				"element": "C" 
			},
			{
				"x": 0.494208205,
				"y": -0.0719873334,
				"z": 0.6406248286,
				"element": "C" 
			},
			{
				"x": -2.6572464857,
				"y": 0.9774891502,
				"z": -1.2187508534,
				"element": "C" 
			},
			{
				"x": -3.3189581557,
				"y": 1.6000406262,
				"z": -0.1828422252,
				"element": "N" 
			},
			{
				"x": -3.232799454,
				"y": 0.8260823445,
				"z": -2.3040490665,
				"element": "O" 
			},
			{
				"x": 2.7489606403,
				"y": -1.7637014502,
				"z": 0.5458112924,
				"element": "H" 
			},
			{
				"x": 3.3489818675,
				"y": -0.119902285,
				"z": 0.3433527966,
				"element": "H" 
			},
			{
				"x": 3.2720994614,
				"y": -1.2062194842,
				"z": -1.0516698975,
				"element": "H" 
			},
			{
				"x": 1.5287886109,
				"y": -0.6139605944,
				"z": -2.5486496311,
				"element": "H" 
			},
			{
				"x": -0.2910316716,
				"y": -0.2842562329,
				"z": -4.0239444315,
				"element": "H" 
			},
			{
				"x": -1.833597381,
				"y": 0.303451961,
				"z": -3.4706511881,
				"element": "H" 
			},
			{
				"x": -1.447419142,
				"y": 0.6018858329,
				"z": 1.1992517521,
				"element": "H" 
			},
			{
				"x": 0.8345478814,
				"y": -0.160335135,
				"z": 1.6682649973,
				"element": "H" 
			},
			{
				"x": -4.1954807268,
				"y": 2.0258681141,
				"z": -0.4482975304,
				"element": "H" 
			},
			{
				"x": -2.7943875944,
				"y": 2.0654684957,
				"z": 0.5409053066,
				"element": "H" 
			}
		],
		 "valence_orbital": [ 
			{
				"type": "occ",
				"energy": -0.30235,
				"method": "rhf"
			},
			{
				"type": "occ",
				"energy": -0.26882,
				"method": "rhf"
			},
			{
				"type": "occ",
				"energy": -0.24925,
				"method": "rhf"
			},
			{
				"type": "occ",
				"energy": -0.24226,
				"method": "rhf"
			},
			{
				"type": "occ",
				"energy": -0.19621,
				"method": "rhf"
			},
			{
				"type": "unocc",
				"energy": -0.02691,
				"method": "rhf"
			},
			{
				"type": "unocc",
				"energy": 0.01553,
				"method": "rhf"
			},
			{
				"type": "unocc",
				"energy": 0.06298,
				"method": "rhf"
			},
			{
				"type": "unocc",
				"energy": 0.08622,
				"method": "rhf"
			},
			{
				"type": "unocc",
				"energy": 0.10153,
				"method": "rhf"
			}
		],
		"cosmo_sigma_profile": { 
			"-0.025": 0.0,
			"-0.024": 0.0,
			"-0.023": 0.0,
			"-0.022": 0.0,
			"-0.021": 0.0,
			"-0.02": 0.0,
			"-0.019": 0.0,
			"-0.018": 0.0,
			"-0.017": 0.0,
			"-0.016": 0.0,
			"-0.015": 0.0,
			"-0.014": 0.566272952669,
			"-0.013": 2.79902535003,
			"-0.012": 3.5931375659,
			"-0.011": 3.06750571894,
			"-0.01": 4.23189056816,
			"-0.009": 4.81162368457,
			"-0.008": 2.91813288183,
			"-0.007": 4.31712803426,
			"-0.006": 4.11282858134,
			"-0.005": 7.94556572642,
			"-0.004": 12.5497315355,
			"-0.003": 13.641352133,
			"-0.002": 13.5692754451,
			"-0.001": 12.9177314561,
			"0.0": 13.9217426179,
			"0.001": 9.78942672439,
			"0.002": 9.51053489778,
			"0.003": 11.2829618267,
			"0.004": 10.5037146666,
			"0.005": 12.8647946938,
			"0.006": 11.4043690999,
			"0.007": 3.75308649638,
			"0.008": 2.83804870741,
			"0.009": 3.12148843259,
			"0.01": 2.17208019318,
			"0.011": 2.17570889684,
			"0.012": 2.48014511775,
			"0.013": 2.2840035403,
			"0.014": 1.97478454241,
			"0.015": 0.250734315297,
			"0.016": 0.0,
			"0.017": 0.0,
			"0.018": 0.0,
			"0.019": 0.0,
			"0.02": 0.0,
			"0.021": 0.0,
			"0.022": 0.0,
			"0.023": 0.0,
			"0.024": 0.0,
			"0.025": 0.0
		}
	}
}
