{
	 "smiles": "BrCC(=O)C1=CC=C(OCC2=CC=CC=C2)C=C1", 
	 "Tm": 359.15, 
	 "num_atms": 31, 
	 "gaussian": { 
		 "optdone": 1, 
		 "sigma_profile": "yes", 
		 "theory": "DFT", 
		 "functional": "B3LYP", 
		 "basiset": "6-31G**", 
		 "properties": { 
			 "R2extent": 13574.3359, 
			 "electric_dipole_moment_norm": 4.84757486275, 
			 "electric_quadrupole_moment_norm": 24.5544181525, 
			 "total_energy": -3301.27560072, 
			 "HOMO_LUMO_gap": 0.16932, 
			 "cosmo_polarized_energy": -12.16, 
			 "cosmo_cavitation_energy": 37.68, 
			 "cosmo_dispersion_energy": -26.96, 
			 "cosmo_repulsion_energy": 2.1, 
			 "cosmo_total_nonelectrostatic_energy": 12.82, 
			 "SMD_solvation_energy": 5.9 
		},
		"coords": [
			{
				"x": -5.9331040618,
				"y": -0.7350195181,
				"z": -4.236758829,
				"element": "Br" 
			},
			{
				"x": -4.3960646016,
				"y": 0.3131545591,
				"z": -4.9207872724,
				"element": "C" 
			},
			{
				"x": -4.1038431112,
				"y": 1.5240947328,
				"z": -4.0353475043,
				"element": "C" 
			},
			{
				"x": -4.3882689076,
				"y": 2.6322305388,
				"z": -4.4678120914,
				"element": "O" 
			},
			{
				"x": -3.447199558,
				"y": 1.3372285053,
				"z": -2.7182061608,
				"element": "C" 
			},
			{
				"x": -3.0985146524,
				"y": 0.0833219362,
				"z": -2.1964806255,
				"element": "C" 
			},
			{
				"x": -2.4583496006,
				"y": -0.0349483511,
				"z": -0.9646645185,
				"element": "C" 
			},
			{
				"x": -2.1607553095,
				"y": 1.1202891786,
				"z": -0.2282063682,
				"element": "C" 
			},
			{
				"x": -1.5530764657,
				"y": 1.1321835312,
				"z": 0.9895846018,
				"element": "O" 
			},
			{
				"x": -1.2759620747,
				"y": -0.1031147232,
				"z": 1.6551303759,
				"element": "C" 
			},
			{
				"x": -0.0604258802,
				"y": -0.8356512058,
				"z": 1.1220347185,
				"element": "C" 
			},
			{
				"x": -0.0043507686,
				"y": -2.2329521825,
				"z": 1.1809101174,
				"element": "C" 
			},
			{
				"x": 1.1346030295,
				"y": -2.9159154848,
				"z": 0.7504597387,
				"element": "C" 
			},
			{
				"x": 2.2260628646,
				"y": -2.2061328934,
				"z": 0.2476584025,
				"element": "C" 
			},
			{
				"x": 2.1735976085,
				"y": -0.8118955009,
				"z": 0.1811796077,
				"element": "C" 
			},
			{
				"x": 1.0389335637,
				"y": -0.129389535,
				"z": 0.6198198283,
				"element": "C" 
			},
			{
				"x": -2.5031900355,
				"y": 2.3849040774,
				"z": -0.7403642709,
				"element": "C" 
			},
			{
				"x": -3.1366520851,
				"y": 2.4868973328,
				"z": -1.9651481194,
				"element": "C" 
			},
			{
				"x": -4.6899920301,
				"y": 0.6676813113,
				"z": -5.9052705596,
				"element": "H" 
			},
			{
				"x": -3.5626727365,
				"y": -0.3858127171,
				"z": -4.986926269,
				"element": "H" 
			},
			{
				"x": -3.3372755016,
				"y": -0.824067626,
				"z": -2.7406168275,
				"element": "H" 
			},
			{
				"x": -2.1809758374,
				"y": -1.0157451029,
				"z": -0.6000944815,
				"element": "H" 
			},
			{
				"x": -2.1609753107,
				"y": -0.7517237289,
				"z": 1.6367623519,
				"element": "H" 
			},
			{
				"x": -1.1102686227,
				"y": 0.1956081187,
				"z": 2.6956256536,
				"element": "H" 
			},
			{
				"x": -0.8553089034,
				"y": -2.7913498417,
				"z": 1.5652570461,
				"element": "H" 
			},
			{
				"x": 1.1649102315,
				"y": -4.0005784201,
				"z": 0.8004615931,
				"element": "H" 
			},
			{
				"x": 3.110711224,
				"y": -2.7358042367,
				"z": -0.0935857265,
				"element": "H" 
			},
			{
				"x": 3.0188310478,
				"y": -0.2542287528,
				"z": -0.2120322565,
				"element": "H" 
			},
			{
				"x": 0.9959042723,
				"y": 0.9540769778,
				"z": 0.5666503717,
				"element": "H" 
			},
			{
				"x": -2.2635980204,
				"y": 3.2634428847,
				"z": -0.1504751104,
				"element": "H" 
			},
			{
				"x": -3.4079297667,
				"y": 3.4551161361,
				"z": -2.3720574159,
				"element": "H" 
			}
		],
		 "valence_orbital": [ 
			{
				"type": "occ",
				"energy": -0.26427,
				"method": "rhf"
			},
			{
				"type": "occ",
				"energy": -0.26056,
				"method": "rhf"
			},
			{
				"type": "occ",
				"energy": -0.2544,
				"method": "rhf"
			},
			{
				"type": "occ",
				"energy": -0.25163,
				"method": "rhf"
			},
			{
				"type": "occ",
				"energy": -0.23404,
				"method": "rhf"
			},
			{
				"type": "unocc",
				"energy": -0.06472,
				"method": "rhf"
			},
			{
				"type": "unocc",
				"energy": -0.01806,
				"method": "rhf"
			},
			{
				"type": "unocc",
				"energy": -0.01375,
				"method": "rhf"
			},
			{
				"type": "unocc",
				"energy": -0.00849,
				"method": "rhf"
			},
			{
				"type": "unocc",
				"energy": -0.00392,
				"method": "rhf"
			}
		],
		"cosmo_sigma_profile": { 
			"-0.025": 0.0,
			"-0.024": 0.0,
			"-0.023": 0.0,
			"-0.022": 0.0,
			"-0.021": 0.0,
			"-0.02": 0.0,
			"-0.019": 0.0,
			"-0.018": 0.0,
			"-0.017": 0.0,
			"-0.016": 0.0,
			"-0.015": 0.0,
			"-0.014": 0.0,
			"-0.013": 0.0,
			"-0.012": 0.0,
			"-0.011": 0.0,
			"-0.01": 0.0755481526146,
			"-0.009": 2.48556654772,
			"-0.008": 4.47996423413,
			"-0.007": 10.0733631165,
			"-0.006": 20.3686137029,
			"-0.005": 23.7515459774,
			"-0.004": 23.8340470909,
			"-0.003": 20.0188782803,
			"-0.002": 17.3191836385,
			"-0.001": 17.3251418925,
			"0.0": 16.9470359233,
			"0.001": 22.1152761693,
			"0.002": 26.1104518276,
			"0.003": 30.4590706504,
			"0.004": 23.440434009,
			"0.005": 20.4113728582,
			"0.006": 8.62985982645,
			"0.007": 2.20672695853,
			"0.008": 2.66643498985,
			"0.009": 2.56268141305,
			"0.01": 2.594573626,
			"0.011": 3.92565635199,
			"0.012": 2.46897960703,
			"0.013": 0.313250470864,
			"0.014": 0.0,
			"0.015": 0.0,
			"0.016": 0.0,
			"0.017": 0.0,
			"0.018": 0.0,
			"0.019": 0.0,
			"0.02": 0.0,
			"0.021": 0.0,
			"0.022": 0.0,
			"0.023": 0.0,
			"0.024": 0.0,
			"0.025": 0.0
		}
	}
}
