{
	 "smiles": "CCCCC(C)CCCC", 
	 "Tm": 185.35, 
	 "num_atms": 32, 
	 "gaussian": { 
		 "optdone": 1, 
		 "sigma_profile": "yes", 
		 "theory": "DFT", 
		 "functional": "B3LYP", 
		 "basiset": "6-31G**", 
		 "properties": { 
			 "R2extent": 2736.8828, 
			 "electric_dipole_moment_norm": 0.0812695514938, 
			 "electric_quadrupole_moment_norm": 0.465778563268, 
			 "total_energy": -394.355953824, 
			 "HOMO_LUMO_gap": 0.36506, 
			 "cosmo_polarized_energy": -0.84, 
			 "cosmo_cavitation_energy": 31.38, 
			 "cosmo_dispersion_energy": -21.61, 
			 "cosmo_repulsion_energy": 1.79, 
			 "cosmo_total_nonelectrostatic_energy": 11.56, 
			 "SMD_solvation_energy": 4.79 
		},
		"coords": [
			{
				"x": 1.9539096879,
				"y": 4.0455696289,
				"z": -1.5635756235,
				"element": "C" 
			},
			{
				"x": 2.6456511864,
				"y": 2.7153266296,
				"z": -1.2415037794,
				"element": "C" 
			},
			{
				"x": 1.9659149933,
				"y": 1.8907126958,
				"z": -0.1336827489,
				"element": "C" 
			},
			{
				"x": 0.5757608022,
				"y": 1.3575745909,
				"z": -0.5155322831,
				"element": "C" 
			},
			{
				"x": -0.1428309979,
				"y": 0.4978277995,
				"z": 0.5520178822,
				"element": "C" 
			},
			{
				"x": -0.4946985773,
				"y": 1.3149283451,
				"z": 1.8065882358,
				"element": "C" 
			},
			{
				"x": 0.6222192227,
				"y": -0.7833259191,
				"z": 0.9492278161,
				"element": "C" 
			},
			{
				"x": 0.9745718018,
				"y": -1.7523046883,
				"z": -0.1941653064,
				"element": "C" 
			},
			{
				"x": -0.2173155436,
				"y": -2.3223415623,
				"z": -0.9839490611,
				"element": "C" 
			},
			{
				"x": -1.1871807763,
				"y": -3.1636086273,
				"z": -0.145660258,
				"element": "C" 
			},
			{
				"x": 0.9413011001,
				"y": 3.8982830273,
				"z": -1.9525936382,
				"element": "H" 
			},
			{
				"x": 2.5147596476,
				"y": 4.6081471934,
				"z": -2.3173971535,
				"element": "H" 
			},
			{
				"x": 1.8763779572,
				"y": 4.6755597823,
				"z": -0.6695389284,
				"element": "H" 
			},
			{
				"x": 2.7116111357,
				"y": 2.1075789192,
				"z": -2.1547130177,
				"element": "H" 
			},
			{
				"x": 3.6810498736,
				"y": 2.919515598,
				"z": -0.939705409,
				"element": "H" 
			},
			{
				"x": 1.8959447897,
				"y": 2.5063674404,
				"z": 0.7731412111,
				"element": "H" 
			},
			{
				"x": 2.6220158267,
				"y": 1.0488051404,
				"z": 0.1207429165,
				"element": "H" 
			},
			{
				"x": 0.668742058,
				"y": 0.776496231,
				"z": -1.4430907634,
				"element": "H" 
			},
			{
				"x": -0.0825426211,
				"y": 2.2012581899,
				"z": -0.7597037902,
				"element": "H" 
			},
			{
				"x": -1.0957232681,
				"y": 0.1869893366,
				"z": 0.0996289547,
				"element": "H" 
			},
			{
				"x": -1.1120749189,
				"y": 0.7280674171,
				"z": 2.4956553576,
				"element": "H" 
			},
			{
				"x": -1.0533318679,
				"y": 2.2215904197,
				"z": 1.5482265089,
				"element": "H" 
			},
			{
				"x": 0.4025742731,
				"y": 1.6222308766,
				"z": 2.3553232196,
				"element": "H" 
			},
			{
				"x": 0.0253470118,
				"y": -1.3149676299,
				"z": 1.7019995518,
				"element": "H" 
			},
			{
				"x": 1.5508931102,
				"y": -0.502205604,
				"z": 1.4635579519,
				"element": "H" 
			},
			{
				"x": 1.6574372787,
				"y": -1.2573427733,
				"z": -0.8964089121,
				"element": "H" 
			},
			{
				"x": 1.5435006719,
				"y": -2.5904931598,
				"z": 0.2316702726,
				"element": "H" 
			},
			{
				"x": -0.7687163931,
				"y": -1.5065795982,
				"z": -1.4691478082,
				"element": "H" 
			},
			{
				"x": 0.1766161295,
				"y": -2.9413601762,
				"z": -1.8003343551,
				"element": "H" 
			},
			{
				"x": -1.6760309308,
				"y": -2.5695369337,
				"z": 0.6335120216,
				"element": "H" 
			},
			{
				"x": -0.6654590407,
				"y": -3.9911814645,
				"z": 0.3494408094,
				"element": "H" 
			},
			{
				"x": -1.9759936221,
				"y": -3.5954811251,
				"z": -0.7705298735,
				"element": "H" 
			}
		],
		 "valence_orbital": [ 
			{
				"type": "occ",
				"energy": -0.31898,
				"method": "rhf"
			},
			{
				"type": "occ",
				"energy": -0.31565,
				"method": "rhf"
			},
			{
				"type": "occ",
				"energy": -0.3022,
				"method": "rhf"
			},
			{
				"type": "occ",
				"energy": -0.29722,
				"method": "rhf"
			},
			{
				"type": "occ",
				"energy": -0.2915,
				"method": "rhf"
			},
			{
				"type": "unocc",
				"energy": 0.07356,
				"method": "rhf"
			},
			{
				"type": "unocc",
				"energy": 0.09775,
				"method": "rhf"
			},
			{
				"type": "unocc",
				"energy": 0.10591,
				"method": "rhf"
			},
			{
				"type": "unocc",
				"energy": 0.10988,
				"method": "rhf"
			},
			{
				"type": "unocc",
				"energy": 0.12683,
				"method": "rhf"
			}
		],
		"cosmo_sigma_profile": { 
			"-0.025": 0.0,
			"-0.024": 0.0,
			"-0.023": 0.0,
			"-0.022": 0.0,
			"-0.021": 0.0,
			"-0.02": 0.0,
			"-0.019": 0.0,
			"-0.018": 0.0,
			"-0.017": 0.0,
			"-0.016": 0.0,
			"-0.015": 0.0,
			"-0.014": 0.0,
			"-0.013": 0.0,
			"-0.012": 0.0,
			"-0.011": 0.0,
			"-0.01": 0.0,
			"-0.009": 0.0,
			"-0.008": 0.0,
			"-0.007": 0.0,
			"-0.006": 0.0,
			"-0.005": 0.0,
			"-0.004": 0.0,
			"-0.003": 2.8706364945,
			"-0.002": 28.6608137326,
			"-0.001": 59.9587066348,
			"0.0": 58.4992043888,
			"0.001": 55.5355297745,
			"0.002": 32.2082892921,
			"0.003": 1.84128402576,
			"0.004": 0.0,
			"0.005": 0.0,
			"0.006": 0.0,
			"0.007": 0.0,
			"0.008": 0.0,
			"0.009": 0.0,
			"0.01": 0.0,
			"0.011": 0.0,
			"0.012": 0.0,
			"0.013": 0.0,
			"0.014": 0.0,
			"0.015": 0.0,
			"0.016": 0.0,
			"0.017": 0.0,
			"0.018": 0.0,
			"0.019": 0.0,
			"0.02": 0.0,
			"0.021": 0.0,
			"0.022": 0.0,
			"0.023": 0.0,
			"0.024": 0.0,
			"0.025": 0.0
		}
	}
}
