{
	 "smiles": "COC1=C(OC)C(N)=CC(=C1)C(O)=O", 
	 "Tm": 409.15, 
	 "num_atms": 25, 
	 "gaussian": { 
		 "optdone": 1, 
		 "sigma_profile": "yes", 
		 "theory": "DFT", 
		 "functional": "B3LYP", 
		 "basiset": "6-31G**", 
		 "properties": { 
			 "R2extent": 3625.0471, 
			 "electric_dipole_moment_norm": 2.85504585602, 
			 "electric_quadrupole_moment_norm": 10.3232071315, 
			 "total_energy": -705.223630689, 
			 "HOMO_LUMO_gap": 0.16718, 
			 "cosmo_polarized_energy": -14.29, 
			 "cosmo_cavitation_energy": 29.13, 
			 "cosmo_dispersion_energy": -21.0, 
			 "cosmo_repulsion_energy": 1.67, 
			 "cosmo_total_nonelectrostatic_energy": 9.8, 
			 "SMD_solvation_energy": 7.61 
		},
		"coords": [
			{
				"x": 1.25433823,
				"y": 1.3576471674,
				"z": -3.5407933958,
				"element": "C" 
			},
			{
				"x": 0.4394794343,
				"y": 1.8166078234,
				"z": -2.4554860279,
				"element": "O" 
			},
			{
				"x": -0.1105202605,
				"y": 0.8092949554,
				"z": -1.690132121,
				"element": "C" 
			},
			{
				"x": 0.6932450463,
				"y": 0.0458848015,
				"z": -0.828879479,
				"element": "C" 
			},
			{
				"x": 2.0546101154,
				"y": 0.2438378567,
				"z": -0.7165392458,
				"element": "O" 
			},
			{
				"x": 2.4464435462,
				"y": 1.5233358583,
				"z": -0.1927479839,
				"element": "C" 
			},
			{
				"x": 0.1286586245,
				"y": -0.9969765585,
				"z": -0.0607276791,
				"element": "C" 
			},
			{
				"x": 0.9610046342,
				"y": -1.8000863251,
				"z": 0.7056387476,
				"element": "N" 
			},
			{
				"x": -1.2528069487,
				"y": -1.2105014549,
				"z": -0.13455403,
				"element": "C" 
			},
			{
				"x": -2.0531581059,
				"y": -0.4145443539,
				"z": -0.9596881362,
				"element": "C" 
			},
			{
				"x": -1.4853733062,
				"y": 0.5910529551,
				"z": -1.7520954488,
				"element": "C" 
			},
			{
				"x": -3.5119462116,
				"y": -0.6914689228,
				"z": -0.9706933433,
				"element": "C" 
			},
			{
				"x": -4.2049000509,
				"y": 0.1204767974,
				"z": -1.810526839,
				"element": "O" 
			},
			{
				"x": -4.0663867225,
				"y": -1.5483004305,
				"z": -0.3083994698,
				"element": "O" 
			},
			{
				"x": 1.6051988119,
				"y": 2.2520672463,
				"z": -4.0597347525,
				"element": "H" 
			},
			{
				"x": 2.1116994461,
				"y": 0.7791611996,
				"z": -3.1810462253,
				"element": "H" 
			},
			{
				"x": 0.6665026653,
				"y": 0.7434972175,
				"z": -4.2339934774,
				"element": "H" 
			},
			{
				"x": 3.5369134025,
				"y": 1.5074867823,
				"z": -0.1394224309,
				"element": "H" 
			},
			{
				"x": 2.033781079,
				"y": 1.6731116574,
				"z": 0.8124769522,
				"element": "H" 
			},
			{
				"x": 2.114767861,
				"y": 2.3351483339,
				"z": -0.8445651767,
				"element": "H" 
			},
			{
				"x": 1.8857691,
				"y": -1.4224502655,
				"z": 0.8537852279,
				"element": "H" 
			},
			{
				"x": 0.5450029659,
				"y": -2.2249388043,
				"z": 1.5208900673,
				"element": "H" 
			},
			{
				"x": -1.7232004692,
				"y": -1.9925362483,
				"z": 0.452427916,
				"element": "H" 
			},
			{
				"x": -2.0897761089,
				"y": 1.2020222189,
				"z": -2.4102373123,
				"element": "H" 
			},
			{
				"x": -5.1325467779,
				"y": -0.1547295073,
				"z": -1.7293563362,
				"element": "H" 
			}
		],
		 "valence_orbital": [ 
			{
				"type": "occ",
				"energy": -0.29907,
				"method": "rhf"
			},
			{
				"type": "occ",
				"energy": -0.27495,
				"method": "rhf"
			},
			{
				"type": "occ",
				"energy": -0.26364,
				"method": "rhf"
			},
			{
				"type": "occ",
				"energy": -0.2337,
				"method": "rhf"
			},
			{
				"type": "occ",
				"energy": -0.20455,
				"method": "rhf"
			},
			{
				"type": "unocc",
				"energy": -0.03737,
				"method": "rhf"
			},
			{
				"type": "unocc",
				"energy": 0.01055,
				"method": "rhf"
			},
			{
				"type": "unocc",
				"energy": 0.06841,
				"method": "rhf"
			},
			{
				"type": "unocc",
				"energy": 0.07031,
				"method": "rhf"
			},
			{
				"type": "unocc",
				"energy": 0.0863,
				"method": "rhf"
			}
		],
		"cosmo_sigma_profile": { 
			"-0.025": 0.0,
			"-0.024": 0.0,
			"-0.023": 0.0,
			"-0.022": 0.0,
			"-0.021": 0.0,
			"-0.02": 0.0,
			"-0.019": 0.00792633164954,
			"-0.018": 0.657127992896,
			"-0.017": 1.1052427792,
			"-0.016": 0.818156734636,
			"-0.015": 0.391041551211,
			"-0.014": 0.533859600444,
			"-0.013": 1.42885999659,
			"-0.012": 2.12874224558,
			"-0.011": 3.07970416001,
			"-0.01": 2.61112370399,
			"-0.009": 3.27775486217,
			"-0.008": 3.57018928685,
			"-0.007": 3.57310956723,
			"-0.006": 5.30214057244,
			"-0.005": 10.9290439738,
			"-0.004": 17.1706338257,
			"-0.003": 22.9172231955,
			"-0.002": 20.6411613275,
			"-0.001": 16.2135796342,
			"0.0": 11.7894571519,
			"0.001": 11.3801134823,
			"0.002": 14.948281651,
			"0.003": 16.7618656721,
			"0.004": 14.7887567077,
			"0.005": 7.00642092092,
			"0.006": 6.13531336764,
			"0.007": 6.52461943499,
			"0.008": 4.54721139568,
			"0.009": 3.64989346692,
			"0.01": 4.10814637015,
			"0.011": 5.58616419354,
			"0.012": 5.9182749482,
			"0.013": 0.899319848107,
			"0.014": 0.167433656372,
			"0.015": 0.0,
			"0.016": 0.0,
			"0.017": 0.0,
			"0.018": 0.0,
			"0.019": 0.0,
			"0.02": 0.0,
			"0.021": 0.0,
			"0.022": 0.0,
			"0.023": 0.0,
			"0.024": 0.0,
			"0.025": 0.0
		}
	}
}
