{
	 "smiles": "CC(CCC(O)=O)C1CCC2C3C(O)CC4CC(O)CCC4(C)C3CC(=O)C12C", 
	 "Tm": 493.15, 
	 "num_atms": 67, 
	 "gaussian": { 
		 "optdone": 1, 
		 "sigma_profile": "yes", 
		 "theory": "DFT", 
		 "functional": "B3LYP", 
		 "basiset": "6-31G**", 
		 "properties": { 
			 "R2extent": 15891.2576, 
			 "electric_dipole_moment_norm": 3.5801075752, 
			 "electric_quadrupole_moment_norm": 9.16293364813, 
			 "total_energy": -1313.58193711, 
			 "HOMO_LUMO_gap": 0.21896, 
			 "cosmo_polarized_energy": -22.56, 
			 "cosmo_cavitation_energy": 57.03, 
			 "cosmo_dispersion_energy": -39.04, 
			 "cosmo_repulsion_energy": 2.87, 
			 "cosmo_total_nonelectrostatic_energy": 20.86, 
			 "SMD_solvation_energy": 9.53 
		},
		"coords": [
			{
				"x": 1.4831194824,
				"y": -0.8940016018,
				"z": -3.1426403756,
				"element": "C" 
			},
			{
				"x": 2.7819280496,
				"y": -0.7984348729,
				"z": -2.3236517476,
				"element": "C" 
			},
			{
				"x": 3.6230312755,
				"y": 0.4512949051,
				"z": -2.6714916587,
				"element": "C" 
			},
			{
				"x": 4.0453038667,
				"y": 0.5675178322,
				"z": -4.1404241655,
				"element": "C" 
			},
			{
				"x": 5.0178790637,
				"y": -0.5016014112,
				"z": -4.5908294076,
				"element": "C" 
			},
			{
				"x": 5.1360394551,
				"y": -0.5332920919,
				"z": -5.9432130601,
				"element": "O" 
			},
			{
				"x": 5.6558076876,
				"y": -1.2428606009,
				"z": -3.8735009382,
				"element": "O" 
			},
			{
				"x": 2.5904955348,
				"y": -0.9618456902,
				"z": -0.7854489726,
				"element": "C" 
			},
			{
				"x": 2.3835888976,
				"y": -2.4649713611,
				"z": -0.4022694822,
				"element": "C" 
			},
			{
				"x": 1.2722152085,
				"y": -2.5361076726,
				"z": 0.6601286795,
				"element": "C" 
			},
			{
				"x": 0.3877621037,
				"y": -1.3371143862,
				"z": 0.2915637825,
				"element": "C" 
			},
			{
				"x": -0.7590014657,
				"y": -0.9141918039,
				"z": 1.2359788825,
				"element": "C" 
			},
			{
				"x": -1.9190262651,
				"y": -1.9165121373,
				"z": 1.2721206281,
				"element": "C" 
			},
			{
				"x": -1.4079270701,
				"y": -3.206830728,
				"z": 1.615912498,
				"element": "O" 
			},
			{
				"x": -2.9783974543,
				"y": -1.4916059969,
				"z": 2.2981670456,
				"element": "C" 
			},
			{
				"x": -3.2816066093,
				"y": 0.0310783601,
				"z": 2.3535334144,
				"element": "C" 
			},
			{
				"x": -4.7689520639,
				"y": 0.304014595,
				"z": 2.6925726026,
				"element": "C" 
			},
			{
				"x": -5.7011505524,
				"y": 0.3857548494,
				"z": 1.4635268914,
				"element": "C" 
			},
			{
				"x": -6.9142693207,
				"y": -0.2791273203,
				"z": 1.8219949865,
				"element": "O" 
			},
			{
				"x": -5.0664701323,
				"y": -0.2380169233,
				"z": 0.216376451,
				"element": "C" 
			},
			{
				"x": -3.703859634,
				"y": 0.3884678295,
				"z": -0.1531368198,
				"element": "C" 
			},
			{
				"x": -2.820421606,
				"y": 0.7912447542,
				"z": 1.0767226651,
				"element": "C" 
			},
			{
				"x": -2.9924213328,
				"y": 2.3102304852,
				"z": 1.3270638203,
				"element": "C" 
			},
			{
				"x": -1.2824048604,
				"y": 0.5311670832,
				"z": 0.8636957702,
				"element": "C" 
			},
			{
				"x": -0.7954160586,
				"y": 0.9704491021,
				"z": -0.5398369361,
				"element": "C" 
			},
			{
				"x": 0.7248496055,
				"y": 0.9816355984,
				"z": -0.6466440856,
				"element": "C" 
			},
			{
				"x": 1.3119225987,
				"y": 1.9349569011,
				"z": -1.1313660586,
				"element": "O" 
			},
			{
				"x": 1.4289156071,
				"y": -0.2129485068,
				"z": -0.0029833142,
				"element": "C" 
			},
			{
				"x": 2.0612471317,
				"y": 0.3666498885,
				"z": 1.2969790346,
				"element": "C" 
			},
			{
				"x": 1.6957205297,
				"y": -1.021602262,
				"z": -4.208944033,
				"element": "H" 
			},
			{
				"x": 0.868329878,
				"y": 0.0060061789,
				"z": -3.0435856567,
				"element": "H" 
			},
			{
				"x": 0.8795279657,
				"y": -1.7565666162,
				"z": -2.8406865451,
				"element": "H" 
			},
			{
				"x": 3.3990361279,
				"y": -1.6628839288,
				"z": -2.6035573451,
				"element": "H" 
			},
			{
				"x": 4.5344318838,
				"y": 0.4262572658,
				"z": -2.0628079595,
				"element": "H" 
			},
			{
				"x": 3.0754891507,
				"y": 1.353090773,
				"z": -2.389169035,
				"element": "H" 
			},
			{
				"x": 4.5503315025,
				"y": 1.528922333,
				"z": -4.3066400277,
				"element": "H" 
			},
			{
				"x": 3.1930073331,
				"y": 0.5705828387,
				"z": -4.8274614055,
				"element": "H" 
			},
			{
				"x": 5.7985378985,
				"y": -1.2180568273,
				"z": -6.1360188435,
				"element": "H" 
			},
			{
				"x": 3.5330414731,
				"y": -0.6230975467,
				"z": -0.3430922325,
				"element": "H" 
			},
			{
				"x": 2.063214955,
				"y": -3.0240219558,
				"z": -1.289702775,
				"element": "H" 
			},
			{
				"x": 3.3203013209,
				"y": -2.9248881901,
				"z": -0.0721292632,
				"element": "H" 
			},
			{
				"x": 1.6725036135,
				"y": -2.4204147352,
				"z": 1.6742827004,
				"element": "H" 
			},
			{
				"x": 0.7249496381,
				"y": -3.4777863121,
				"z": 0.6428524917,
				"element": "H" 
			},
			{
				"x": -0.0751029009,
				"y": -1.5880650231,
				"z": -0.6752706645,
				"element": "H" 
			},
			{
				"x": -0.3632720098,
				"y": -0.8773565248,
				"z": 2.2601067755,
				"element": "H" 
			},
			{
				"x": -2.368349719,
				"y": -1.9697928287,
				"z": 0.2673693821,
				"element": "H" 
			},
			{
				"x": -2.1619577281,
				"y": -3.8051943348,
				"z": 1.6993699152,
				"element": "H" 
			},
			{
				"x": -3.8974413053,
				"y": -2.0625958439,
				"z": 2.1190903695,
				"element": "H" 
			},
			{
				"x": -2.6080848489,
				"y": -1.814501643,
				"z": 3.2786769399,
				"element": "H" 
			},
			{
				"x": -2.682816052,
				"y": 0.4401904315,
				"z": 3.1773212033,
				"element": "H" 
			},
			{
				"x": -4.8629284572,
				"y": 1.2241459583,
				"z": 3.2774326244,
				"element": "H" 
			},
			{
				"x": -5.1472033936,
				"y": -0.5021516944,
				"z": 3.3298872759,
				"element": "H" 
			},
			{
				"x": -5.9193613149,
				"y": 1.4440141407,
				"z": 1.24524775,
				"element": "H" 
			},
			{
				"x": -7.5409153439,
				"y": -0.163466018,
				"z": 1.0953787824,
				"element": "H" 
			},
			{
				"x": -5.7549643918,
				"y": -0.1382597315,
				"z": -0.6333647611,
				"element": "H" 
			},
			{
				"x": -4.9622217887,
				"y": -1.3135343999,
				"z": 0.3944944447,
				"element": "H" 
			},
			{
				"x": -3.1767433012,
				"y": -0.3146047156,
				"z": -0.8042331146,
				"element": "H" 
			},
			{
				"x": -3.8721712639,
				"y": 1.2812484912,
				"z": -0.7669705041,
				"element": "H" 
			},
			{
				"x": -2.5745519649,
				"y": 2.8975671836,
				"z": 0.5036291208,
				"element": "H" 
			},
			{
				"x": -2.4831944821,
				"y": 2.6183785445,
				"z": 2.2471596817,
				"element": "H" 
			},
			{
				"x": -4.0438847545,
				"y": 2.5947771552,
				"z": 1.4185649098,
				"element": "H" 
			},
			{
				"x": -0.7963743397,
				"y": 1.2124273586,
				"z": 1.5726702403,
				"element": "H" 
			},
			{
				"x": -1.1780223963,
				"y": 0.287233727,
				"z": -1.3092176283,
				"element": "H" 
			},
			{
				"x": -1.1438762641,
				"y": 1.9725428043,
				"z": -0.7987341902,
				"element": "H" 
			},
			{
				"x": 2.599668117,
				"y": -0.4075351547,
				"z": 1.8498246197,
				"element": "H" 
			},
			{
				"x": 1.3230178128,
				"y": 0.8082743242,
				"z": 1.9727567819,
				"element": "H" 
			},
			{
				"x": 2.7727476778,
				"y": 1.1499176992,
				"z": 1.0223698453,
				"element": "H" 
			}
		],
		 "valence_orbital": [ 
			{
				"type": "occ",
				"energy": -0.28107,
				"method": "rhf"
			},
			{
				"type": "occ",
				"energy": -0.2669,
				"method": "rhf"
			},
			{
				"type": "occ",
				"energy": -0.26549,
				"method": "rhf"
			},
			{
				"type": "occ",
				"energy": -0.26111,
				"method": "rhf"
			},
			{
				"type": "occ",
				"energy": -0.23175,
				"method": "rhf"
			},
			{
				"type": "unocc",
				"energy": -0.01279,
				"method": "rhf"
			},
			{
				"type": "unocc",
				"energy": 0.01681,
				"method": "rhf"
			},
			{
				"type": "unocc",
				"energy": 0.05759,
				"method": "rhf"
			},
			{
				"type": "unocc",
				"energy": 0.06293,
				"method": "rhf"
			},
			{
				"type": "unocc",
				"energy": 0.07091,
				"method": "rhf"
			}
		],
		"cosmo_sigma_profile": { 
			"-0.025": 0.0,
			"-0.024": 0.0,
			"-0.023": 0.0,
			"-0.022": 0.0,
			"-0.021": 0.0,
			"-0.02": 0.0,
			"-0.019": 0.0,
			"-0.018": 0.34787485131,
			"-0.017": 1.01568532614,
			"-0.016": 1.19584990298,
			"-0.015": 1.09786339733,
			"-0.014": 3.02638778499,
			"-0.013": 2.12231666124,
			"-0.012": 2.92713827362,
			"-0.011": 2.28065461795,
			"-0.01": 2.35414274161,
			"-0.009": 2.25342220225,
			"-0.008": 1.93786238121,
			"-0.007": 2.93645230759,
			"-0.006": 7.15558116391,
			"-0.005": 13.0234417753,
			"-0.004": 24.904082418,
			"-0.003": 45.1698368066,
			"-0.002": 64.620869118,
			"-0.001": 62.9782861199,
			"0.0": 48.5998623688,
			"0.001": 36.3697670423,
			"0.002": 18.7659252153,
			"0.003": 11.2982959613,
			"0.004": 7.79408726036,
			"0.005": 7.34063510539,
			"0.006": 7.18491859556,
			"0.007": 9.46978195461,
			"0.008": 8.34057658616,
			"0.009": 7.30384833707,
			"0.01": 7.23406619296,
			"0.011": 7.11856858689,
			"0.012": 9.19439067009,
			"0.013": 4.78326737644,
			"0.014": 3.64704602414,
			"0.015": 0.789770939854,
			"0.016": 0.0,
			"0.017": 0.0,
			"0.018": 0.0,
			"0.019": 0.0,
			"0.02": 0.0,
			"0.021": 0.0,
			"0.022": 0.0,
			"0.023": 0.0,
			"0.024": 0.0,
			"0.025": 0.0
		}
	}
}
