{
	 "smiles": "O=C1OC=C/C(CC2=CC=CC=C12)C1=CC=CC=C1", 
	 "Tm": 393.15, 
	 "num_atms": 33, 
	 "gaussian": { 
		 "optdone": 1, 
		 "sigma_profile": "yes", 
		 "theory": "DFT", 
		 "functional": "B3LYP", 
		 "basiset": "6-31G**", 
		 "properties": { 
			 "R2extent": 5665.7822, 
			 "electric_dipole_moment_norm": 4.05876761591, 
			 "electric_quadrupole_moment_norm": 16.8168480659, 
			 "total_energy": -806.66802479, 
			 "HOMO_LUMO_gap": 0.21811, 
			 "cosmo_polarized_energy": -12.1, 
			 "cosmo_cavitation_energy": 36.0, 
			 "cosmo_dispersion_energy": -25.52, 
			 "cosmo_repulsion_energy": 1.96, 
			 "cosmo_total_nonelectrostatic_energy": 12.43, 
			 "SMD_solvation_energy": 6.91 
		},
		"coords": [
			{
				"x": 3.8159591972,
				"y": -0.6956079297,
				"z": 0.3146729583,
				"element": "O" 
			},
			{
				"x": 2.6709138285,
				"y": -1.0624984461,
				"z": 0.3982887573,
				"element": "C" 
			},
			{
				"x": 2.1897529938,
				"y": -1.4009991546,
				"z": 1.6430101307,
				"element": "O" 
			},
			{
				"x": 0.842925705,
				"y": -1.5960955482,
				"z": 1.9030482827,
				"element": "C" 
			},
			{
				"x": -0.0802140104,
				"y": -0.660941842,
				"z": 1.6891425445,
				"element": "C" 
			},
			{
				"x": 0.2481591314,
				"y": 0.6730199305,
				"z": 1.0631271633,
				"element": "C" 
			},
			{
				"x": 0.1084265995,
				"y": 0.6224891993,
				"z": -0.4853082498,
				"element": "C" 
			},
			{
				"x": 0.6659057632,
				"y": -0.5968806791,
				"z": -1.2014729906,
				"element": "C" 
			},
			{
				"x": 0.0266678024,
				"y": -0.9833931247,
				"z": -2.3906196652,
				"element": "C" 
			},
			{
				"x": 0.4878316847,
				"y": -2.0371972647,
				"z": -3.1748063548,
				"element": "C" 
			},
			{
				"x": 1.6280920081,
				"y": -2.7395899782,
				"z": -2.7860608152,
				"element": "C" 
			},
			{
				"x": 2.2841594821,
				"y": -2.3737182327,
				"z": -1.6156212728,
				"element": "C" 
			},
			{
				"x": 1.8060243691,
				"y": -1.3272873208,
				"z": -0.8085991769,
				"element": "C" 
			},
			{
				"x": -0.5788304993,
				"y": 1.8142230083,
				"z": 1.6434554195,
				"element": "C" 
			},
			{
				"x": -1.9801902001,
				"y": 1.8066737217,
				"z": 1.580548093,
				"element": "C" 
			},
			{
				"x": -2.726321743,
				"y": 2.8608504018,
				"z": 2.1071843187,
				"element": "C" 
			},
			{
				"x": -2.0825012188,
				"y": 3.9461146819,
				"z": 2.705765256,
				"element": "C" 
			},
			{
				"x": -0.6893421844,
				"y": 3.9663313778,
				"z": 2.7737478387,
				"element": "C" 
			},
			{
				"x": 0.0535225071,
				"y": 2.9075519756,
				"z": 2.2474467124,
				"element": "C" 
			},
			{
				"x": 0.6465494129,
				"y": -2.5552374838,
				"z": 2.3707416565,
				"element": "H" 
			},
			{
				"x": -1.1075187862,
				"y": -0.884583223,
				"z": 1.9608340951,
				"element": "H" 
			},
			{
				"x": 1.2965735038,
				"y": 0.8915778184,
				"z": 1.2936921167,
				"element": "H" 
			},
			{
				"x": 0.5774935064,
				"y": 1.5288871654,
				"z": -0.8924237436,
				"element": "H" 
			},
			{
				"x": -0.953136374,
				"y": 0.7003332747,
				"z": -0.7420808421,
				"element": "H" 
			},
			{
				"x": -0.8555463308,
				"y": -0.4325648327,
				"z": -2.7069496469,
				"element": "H" 
			},
			{
				"x": -0.0400142833,
				"y": -2.3051036454,
				"z": -4.0854919289,
				"element": "H" 
			},
			{
				"x": 2.0073184152,
				"y": -3.5592623697,
				"z": -3.3885826044,
				"element": "H" 
			},
			{
				"x": 3.1830086124,
				"y": -2.8996816308,
				"z": -1.3092135127,
				"element": "H" 
			},
			{
				"x": -2.4976651482,
				"y": 0.9700919892,
				"z": 1.116738824,
				"element": "H" 
			},
			{
				"x": -3.8109612946,
				"y": 2.834771611,
				"z": 2.0502699225,
				"element": "H" 
			},
			{
				"x": -2.6628276266,
				"y": 4.7674311546,
				"z": 3.1160424863,
				"element": "H" 
			},
			{
				"x": -0.1777227091,
				"y": 4.8044193496,
				"z": 3.2384662952,
				"element": "H" 
			},
			{
				"x": 1.1388078857,
				"y": 2.9288760463,
				"z": 2.3087079327,
				"element": "H" 
			}
		],
		 "valence_orbital": [ 
			{
				"type": "occ",
				"energy": -0.25578,
				"method": "rhf"
			},
			{
				"type": "occ",
				"energy": -0.2552,
				"method": "rhf"
			},
			{
				"type": "occ",
				"energy": -0.25356,
				"method": "rhf"
			},
			{
				"type": "occ",
				"energy": -0.25012,
				"method": "rhf"
			},
			{
				"type": "occ",
				"energy": -0.24379,
				"method": "rhf"
			},
			{
				"type": "unocc",
				"energy": -0.02568,
				"method": "rhf"
			},
			{
				"type": "unocc",
				"energy": -0.01157,
				"method": "rhf"
			},
			{
				"type": "unocc",
				"energy": -0.01022,
				"method": "rhf"
			},
			{
				"type": "unocc",
				"energy": -0.00524,
				"method": "rhf"
			},
			{
				"type": "unocc",
				"energy": 0.00734,
				"method": "rhf"
			}
		],
		"cosmo_sigma_profile": { 
			"-0.025": 0.0,
			"-0.024": 0.0,
			"-0.023": 0.0,
			"-0.022": 0.0,
			"-0.021": 0.0,
			"-0.02": 0.0,
			"-0.019": 0.0,
			"-0.018": 0.0,
			"-0.017": 0.0,
			"-0.016": 0.0,
			"-0.015": 0.0,
			"-0.014": 0.0,
			"-0.013": 0.0,
			"-0.012": 0.0,
			"-0.011": 0.0,
			"-0.01": 0.0,
			"-0.009": 0.0332280012612,
			"-0.008": 1.48777206892,
			"-0.007": 4.5626627935,
			"-0.006": 22.5649934206,
			"-0.005": 29.5785376922,
			"-0.004": 28.7380223016,
			"-0.003": 23.7182328448,
			"-0.002": 18.5686742887,
			"-0.001": 17.4838076289,
			"0.0": 16.4685211842,
			"0.001": 15.161417769,
			"0.002": 16.9180778106,
			"0.003": 20.3840370291,
			"0.004": 23.0114145908,
			"0.005": 15.9375766354,
			"0.006": 10.1659469235,
			"0.007": 3.1653991632,
			"0.008": 2.51609981484,
			"0.009": 3.35835769751,
			"0.01": 4.08698087852,
			"0.011": 6.03666785818,
			"0.012": 3.34307786194,
			"0.013": 0.223412106759,
			"0.014": 0.0,
			"0.015": 0.0,
			"0.016": 0.0,
			"0.017": 0.0,
			"0.018": 0.0,
			"0.019": 0.0,
			"0.02": 0.0,
			"0.021": 0.0,
			"0.022": 0.0,
			"0.023": 0.0,
			"0.024": 0.0,
			"0.025": 0.0
		}
	}
}
