{
	 "smiles": "COC1=CC=C(C=C1)C1=CSC(=N1)C(=C/C1=CC=CS1)C#N", 
	 "Tm": 413.15, 
	 "num_atms": 34, 
	 "gaussian": { 
		 "optdone": 1, 
		 "sigma_profile": "yes", 
		 "theory": "DFT", 
		 "functional": "B3LYP", 
		 "basiset": "6-31G**", 
		 "properties": { 
			 "R2extent": 10397.8618, 
			 "electric_dipole_moment_norm": 6.44855365877, 
			 "electric_quadrupole_moment_norm": 28.0007149923, 
			 "total_energy": -1636.08372135, 
			 "HOMO_LUMO_gap": 0.11616, 
			 "cosmo_polarized_energy": -14.11, 
			 "cosmo_cavitation_energy": 43.25, 
			 "cosmo_dispersion_energy": -30.97, 
			 "cosmo_repulsion_energy": 2.23, 
			 "cosmo_total_nonelectrostatic_energy": 14.51, 
			 "SMD_solvation_energy": 8.54 
		},
		"coords": [
			{
				"x": 0.3664823508,
				"y": 0.0053520078,
				"z": 5.878538179,
				"element": "C" 
			},
			{
				"x": 1.5233122663,
				"y": 0.1741738784,
				"z": 5.0737625409,
				"element": "O" 
			},
			{
				"x": 1.393563658,
				"y": 0.0564913472,
				"z": 3.722240049,
				"element": "C" 
			},
			{
				"x": 2.5708214707,
				"y": 0.2373964081,
				"z": 2.978762002,
				"element": "C" 
			},
			{
				"x": 2.5450272708,
				"y": 0.1405839314,
				"z": 1.5961467727,
				"element": "C" 
			},
			{
				"x": 1.3505159709,
				"y": -0.1438215612,
				"z": 0.9078411081,
				"element": "C" 
			},
			{
				"x": 0.1834045877,
				"y": -0.3171376908,
				"z": 1.6628678739,
				"element": "C" 
			},
			{
				"x": 0.1941730747,
				"y": -0.2202204498,
				"z": 3.0549448299,
				"element": "C" 
			},
			{
				"x": 1.319593528,
				"y": -0.2715229549,
				"z": -0.5603060109,
				"element": "C" 
			},
			{
				"x": 2.3866363338,
				"y": -0.5986148123,
				"z": -1.3670820088,
				"element": "C" 
			},
			{
				"x": 1.9146316642,
				"y": -0.6667375547,
				"z": -3.0217968771,
				"element": "S" 
			},
			{
				"x": 0.2669792662,
				"y": -0.2432500888,
				"z": -2.5316862418,
				"element": "C" 
			},
			{
				"x": 0.1364529976,
				"y": -0.0791839727,
				"z": -1.2406070959,
				"element": "N" 
			},
			{
				"x": -0.7778834996,
				"y": -0.1135997612,
				"z": -3.5472980563,
				"element": "C" 
			},
			{
				"x": -2.0725042803,
				"y": 0.3424024967,
				"z": -3.4413556318,
				"element": "C" 
			},
			{
				"x": -2.8573173122,
				"y": 0.8886015055,
				"z": -2.3714468826,
				"element": "C" 
			},
			{
				"x": -2.6054046522,
				"y": 1.1795289478,
				"z": -1.0377314967,
				"element": "C" 
			},
			{
				"x": -3.711284047,
				"y": 1.7606480508,
				"z": -0.372126857,
				"element": "C" 
			},
			{
				"x": -4.8116782295,
				"y": 1.9139794202,
				"z": -1.1817278623,
				"element": "C" 
			},
			{
				"x": -4.5132856751,
				"y": 1.3519840224,
				"z": -2.7803226553,
				"element": "S" 
			},
			{
				"x": -0.3907133341,
				"y": -0.5269800088,
				"z": -4.8686509093,
				"element": "C" 
			},
			{
				"x": -0.0735462195,
				"y": -0.8577731281,
				"z": -5.9392528902,
				"element": "N" 
			},
			{
				"x": 0.6949343208,
				"y": 0.1402649822,
				"z": 6.9101002335,
				"element": "H" 
			},
			{
				"x": -0.0627867909,
				"y": -0.9983423826,
				"z": 5.7650065128,
				"element": "H" 
			},
			{
				"x": -0.4023229131,
				"y": 0.752813218,
				"z": 5.6440746289,
				"element": "H" 
			},
			{
				"x": 3.4890153586,
				"y": 0.4641563461,
				"z": 3.5104450461,
				"element": "H" 
			},
			{
				"x": 3.461856681,
				"y": 0.3103177902,
				"z": 1.0392062185,
				"element": "H" 
			},
			{
				"x": -0.7452206538,
				"y": -0.5473769264,
				"z": 1.1514412408,
				"element": "H" 
			},
			{
				"x": -0.7285814526,
				"y": -0.3679025226,
				"z": 3.6033849661,
				"element": "H" 
			},
			{
				"x": 3.3985359114,
				"y": -0.8345502345,
				"z": -1.0720101553,
				"element": "H" 
			},
			{
				"x": -2.6120382672,
				"y": 0.2930877698,
				"z": -4.3848515281,
				"element": "H" 
			},
			{
				"x": -1.6466551204,
				"y": 0.9641197841,
				"z": -0.5877144437,
				"element": "H" 
			},
			{
				"x": -3.6971141372,
				"y": 2.0554927798,
				"z": 0.6708557939,
				"element": "H" 
			},
			{
				"x": -5.7783001266,
				"y": 2.323519363,
				"z": -0.9215503932,
				"element": "H" 
			}
		],
		 "valence_orbital": [ 
			{
				"type": "occ",
				"energy": -0.2734,
				"method": "rhf"
			},
			{
				"type": "occ",
				"energy": -0.2669,
				"method": "rhf"
			},
			{
				"type": "occ",
				"energy": -0.25915,
				"method": "rhf"
			},
			{
				"type": "occ",
				"energy": -0.22972,
				"method": "rhf"
			},
			{
				"type": "occ",
				"energy": -0.20679,
				"method": "rhf"
			},
			{
				"type": "unocc",
				"energy": -0.09063,
				"method": "rhf"
			},
			{
				"type": "unocc",
				"energy": -0.0333,
				"method": "rhf"
			},
			{
				"type": "unocc",
				"energy": -0.01271,
				"method": "rhf"
			},
			{
				"type": "unocc",
				"energy": -0.00653,
				"method": "rhf"
			},
			{
				"type": "unocc",
				"energy": 0.00094,
				"method": "rhf"
			}
		],
		"cosmo_sigma_profile": { 
			"-0.025": 0.0,
			"-0.024": 0.0,
			"-0.023": 0.0,
			"-0.022": 0.0,
			"-0.021": 0.0,
			"-0.02": 0.0,
			"-0.019": 0.0,
			"-0.018": 0.0,
			"-0.017": 0.0,
			"-0.016": 0.0,
			"-0.015": 0.0,
			"-0.014": 0.0,
			"-0.013": 0.0,
			"-0.012": 0.0,
			"-0.011": 0.0,
			"-0.01": 1.5418326707,
			"-0.009": 6.39586085127,
			"-0.008": 6.7371209487,
			"-0.007": 9.09086058223,
			"-0.006": 16.8725012263,
			"-0.005": 21.2327183377,
			"-0.004": 22.8151314748,
			"-0.003": 25.8003361458,
			"-0.002": 21.3401284052,
			"-0.001": 23.1931640284,
			"0.0": 25.5853066987,
			"0.001": 35.6040930086,
			"0.002": 41.3349989855,
			"0.003": 33.5289536425,
			"0.004": 19.7937540338,
			"0.005": 14.7653002587,
			"0.006": 4.79525388383,
			"0.007": 4.06968475695,
			"0.008": 4.10166590416,
			"0.009": 4.46600026078,
			"0.01": 4.57893901022,
			"0.011": 2.78838953649,
			"0.012": 2.54619911368,
			"0.013": 1.23522248599,
			"0.014": 0.0,
			"0.015": 0.0,
			"0.016": 0.0,
			"0.017": 0.0,
			"0.018": 0.0,
			"0.019": 0.0,
			"0.02": 0.0,
			"0.021": 0.0,
			"0.022": 0.0,
			"0.023": 0.0,
			"0.024": 0.0,
			"0.025": 0.0
		}
	}
}
