{
	 "smiles": "CC(C)(C)S(=O)(=O)C1=CN=C(N=C1N)N1CCOCC1", 
	 "Tm": 470.15, 
	 "num_atms": 40, 
	 "gaussian": { 
		 "optdone": 1, 
		 "sigma_profile": "yes", 
		 "theory": "DFT", 
		 "functional": "B3LYP", 
		 "basiset": "6-31G**", 
		 "properties": { 
			 "R2extent": 7926.6068, 
			 "electric_dipole_moment_norm": 4.0932249303, 
			 "electric_quadrupole_moment_norm": 19.4796015295, 
			 "total_energy": -1312.16300677, 
			 "HOMO_LUMO_gap": 0.19158, 
			 "cosmo_polarized_energy": -17.18, 
			 "cosmo_cavitation_energy": 41.04, 
			 "cosmo_dispersion_energy": -29.94, 
			 "cosmo_repulsion_energy": 2.24, 
			 "cosmo_total_nonelectrostatic_energy": 13.34, 
			 "SMD_solvation_energy": 3.69 
		},
		"coords": [
			{
				"x": -3.3231130597,
				"y": -0.5532692843,
				"z": 0.8527337474,
				"element": "C" 
			},
			{
				"x": -2.9683430388,
				"y": 0.6275004747,
				"z": 1.7633283739,
				"element": "C" 
			},
			{
				"x": -2.1106159464,
				"y": 0.1888498264,
				"z": 2.9551241701,
				"element": "C" 
			},
			{
				"x": -4.2331720826,
				"y": 1.3669497636,
				"z": 2.2299667865,
				"element": "C" 
			},
			{
				"x": -2.0190872709,
				"y": 1.8886640655,
				"z": 0.7602765251,
				"element": "S" 
			},
			{
				"x": -1.635668594,
				"y": 2.9775488227,
				"z": 1.6966932593,
				"element": "O" 
			},
			{
				"x": -2.8416687316,
				"y": 2.1984500447,
				"z": -0.4242071006,
				"element": "O" 
			},
			{
				"x": -0.5205368125,
				"y": 1.1222962265,
				"z": 0.1910347086,
				"element": "C" 
			},
			{
				"x": -0.5124908696,
				"y": 0.4866342555,
				"z": -1.0530533457,
				"element": "C" 
			},
			{
				"x": 0.5518454989,
				"y": -0.1038293859,
				"z": -1.5797025346,
				"element": "N" 
			},
			{
				"x": 1.6820022833,
				"y": -0.0458487576,
				"z": -0.826712666,
				"element": "C" 
			},
			{
				"x": 1.8154232598,
				"y": 0.5951144829,
				"z": 0.3488033606,
				"element": "N" 
			},
			{
				"x": 0.734262849,
				"y": 1.1886256256,
				"z": 0.8698007229,
				"element": "C" 
			},
			{
				"x": 0.8960933385,
				"y": 1.8285112312,
				"z": 2.0527753941,
				"element": "N" 
			},
			{
				"x": 2.7793501022,
				"y": -0.6893716925,
				"z": -1.3166499801,
				"element": "N" 
			},
			{
				"x": 2.795708278,
				"y": -1.3262769712,
				"z": -2.6329464732,
				"element": "C" 
			},
			{
				"x": 3.4588285236,
				"y": -2.6997232041,
				"z": -2.5244429384,
				"element": "C" 
			},
			{
				"x": 4.75257597,
				"y": -2.6087420001,
				"z": -1.9412106902,
				"element": "O" 
			},
			{
				"x": 4.686006287,
				"y": -2.0533397762,
				"z": -0.635012288,
				"element": "C" 
			},
			{
				"x": 4.0798217711,
				"y": -0.6489147389,
				"z": -0.6524232004,
				"element": "C" 
			},
			{
				"x": -3.8958480344,
				"y": -0.2230678303,
				"z": -0.0170497567,
				"element": "H" 
			},
			{
				"x": -3.9346883764,
				"y": -1.2647659853,
				"z": 1.417854334,
				"element": "H" 
			},
			{
				"x": -2.4305547447,
				"y": -1.0833554342,
				"z": 0.5078240673,
				"element": "H" 
			},
			{
				"x": -1.8460590672,
				"y": 1.0381878283,
				"z": 3.5888992463,
				"element": "H" 
			},
			{
				"x": -1.1904954369,
				"y": -0.3087266833,
				"z": 2.6359921059,
				"element": "H" 
			},
			{
				"x": -2.6835250483,
				"y": -0.5233569622,
				"z": 3.5587388894,
				"element": "H" 
			},
			{
				"x": -4.8302032441,
				"y": 1.7024045047,
				"z": 1.3785797464,
				"element": "H" 
			},
			{
				"x": -4.8396043431,
				"y": 0.6819867399,
				"z": 2.831993638,
				"element": "H" 
			},
			{
				"x": -3.9793549275,
				"y": 2.2353456256,
				"z": 2.842697505,
				"element": "H" 
			},
			{
				"x": -1.4235048117,
				"y": 0.4771405157,
				"z": -1.647543252,
				"element": "H" 
			},
			{
				"x": 1.8496529952,
				"y": 1.9509638488,
				"z": 2.3582937557,
				"element": "H" 
			},
			{
				"x": 0.1900675851,
				"y": 2.5057938205,
				"z": 2.319633484,
				"element": "H" 
			},
			{
				"x": 3.3708123411,
				"y": -0.7009966517,
				"z": -3.331854625,
				"element": "H" 
			},
			{
				"x": 1.7724438013,
				"y": -1.40487313,
				"z": -2.997633187,
				"element": "H" 
			},
			{
				"x": 2.8197217368,
				"y": -3.3721416487,
				"z": -1.9285843337,
				"element": "H" 
			},
			{
				"x": 3.5937383475,
				"y": -3.1361390314,
				"z": -3.5182839196,
				"element": "H" 
			},
			{
				"x": 4.0884284549,
				"y": -2.7035653438,
				"z": 0.0253159817,
				"element": "H" 
			},
			{
				"x": 5.7116803478,
				"y": -2.0195586373,
				"z": -0.2561528103,
				"element": "H" 
			},
			{
				"x": 4.7499220202,
				"y": 0.0285828092,
				"z": -1.2023770721,
				"element": "H" 
			},
			{
				"x": 3.9478486491,
				"y": -0.2617873632,
				"z": 0.357180371,
				"element": "H" 
			}
		],
		 "valence_orbital": [ 
			{
				"type": "occ",
				"energy": -0.27489,
				"method": "rhf"
			},
			{
				"type": "occ",
				"energy": -0.26747,
				"method": "rhf"
			},
			{
				"type": "occ",
				"energy": -0.25328,
				"method": "rhf"
			},
			{
				"type": "occ",
				"energy": -0.24935,
				"method": "rhf"
			},
			{
				"type": "occ",
				"energy": -0.22051,
				"method": "rhf"
			},
			{
				"type": "unocc",
				"energy": -0.02893,
				"method": "rhf"
			},
			{
				"type": "unocc",
				"energy": -0.0117,
				"method": "rhf"
			},
			{
				"type": "unocc",
				"energy": 0.06123,
				"method": "rhf"
			},
			{
				"type": "unocc",
				"energy": 0.07014,
				"method": "rhf"
			},
			{
				"type": "unocc",
				"energy": 0.08348,
				"method": "rhf"
			}
		],
		"cosmo_sigma_profile": { 
			"-0.025": 0.0,
			"-0.024": 0.0,
			"-0.023": 0.0,
			"-0.022": 0.0,
			"-0.021": 0.0,
			"-0.02": 0.0,
			"-0.019": 0.0,
			"-0.018": 0.0,
			"-0.017": 0.0,
			"-0.016": 0.0,
			"-0.015": 0.0,
			"-0.014": 0.593670398349,
			"-0.013": 1.21732802082,
			"-0.012": 0.786629616531,
			"-0.011": 0.779720792702,
			"-0.01": 1.81345184691,
			"-0.009": 1.71120745939,
			"-0.008": 1.29104852582,
			"-0.007": 2.36613248113,
			"-0.006": 5.7795845978,
			"-0.005": 21.1091493141,
			"-0.004": 42.6554463695,
			"-0.003": 38.1723918471,
			"-0.002": 32.6807603717,
			"-0.001": 35.0631182298,
			"0.0": 28.5837353238,
			"0.001": 16.2447916674,
			"0.002": 11.7476580483,
			"0.003": 9.11822787247,
			"0.004": 9.46232354749,
			"0.005": 8.47278207097,
			"0.006": 7.51695255957,
			"0.007": 6.36640920693,
			"0.008": 5.87356079799,
			"0.009": 6.47985894068,
			"0.01": 6.75488168673,
			"0.011": 8.23616684196,
			"0.012": 7.09666990719,
			"0.013": 3.36868584465,
			"0.014": 0.0898408832058,
			"0.015": 0.0,
			"0.016": 0.0,
			"0.017": 0.0,
			"0.018": 0.0,
			"0.019": 0.0,
			"0.02": 0.0,
			"0.021": 0.0,
			"0.022": 0.0,
			"0.023": 0.0,
			"0.024": 0.0,
			"0.025": 0.0
		}
	}
}
