{
	 "smiles": "CC(=O)OC1(C)CC2=C1C(C)=C(C)C(C)=C2C", 
	 "Tm": 343.15, 
	 "num_atms": 37, 
	 "gaussian": { 
		 "optdone": 1, 
		 "sigma_profile": "yes", 
		 "theory": "DFT", 
		 "functional": "B3LYP", 
		 "basiset": "6-31G**", 
		 "properties": { 
			 "R2extent": 5315.8453, 
			 "electric_dipole_moment_norm": 2.30031132241, 
			 "electric_quadrupole_moment_norm": 5.45129038118, 
			 "total_energy": -734.106483848, 
			 "HOMO_LUMO_gap": 0.22158, 
			 "cosmo_polarized_energy": -8.12, 
			 "cosmo_cavitation_energy": 38.18, 
			 "cosmo_dispersion_energy": -26.13, 
			 "cosmo_repulsion_energy": 2.06, 
			 "cosmo_total_nonelectrostatic_energy": 14.11, 
			 "SMD_solvation_energy": 7.31 
		},
		"coords": [
			{
				"x": -1.6529566768,
				"y": -1.9965835608,
				"z": 3.2315321081,
				"element": "C" 
			},
			{
				"x": -0.5895839195,
				"y": -1.6972076682,
				"z": 2.1983466655,
				"element": "C" 
			},
			{
				"x": 0.6019615611,
				"y": -1.8566273365,
				"z": 2.3607025425,
				"element": "O" 
			},
			{
				"x": -1.1519651077,
				"y": -1.2192354348,
				"z": 1.0656315377,
				"element": "O" 
			},
			{
				"x": -0.2843860705,
				"y": -0.8765048204,
				"z": -0.0539479419,
				"element": "C" 
			},
			{
				"x": 0.265923489,
				"y": -2.1440016461,
				"z": -0.6985960915,
				"element": "C" 
			},
			{
				"x": 0.7676723988,
				"y": 0.2706201477,
				"z": 0.2390576889,
				"element": "C" 
			},
			{
				"x": -0.0086369217,
				"y": 1.095638502,
				"z": -0.7780308413,
				"element": "C" 
			},
			{
				"x": -0.9745297812,
				"y": 0.1203887,
				"z": -0.9755216881,
				"element": "C" 
			},
			{
				"x": -2.0623067888,
				"y": 0.2727029651,
				"z": -1.8255791769,
				"element": "C" 
			},
			{
				"x": -3.1045369905,
				"y": -0.8115169935,
				"z": -1.9784136602,
				"element": "C" 
			},
			{
				"x": -2.1110092476,
				"y": 1.5119645194,
				"z": -2.5108612306,
				"element": "C" 
			},
			{
				"x": -3.2461824182,
				"y": 1.7987301097,
				"z": -3.472055552,
				"element": "C" 
			},
			{
				"x": -1.1136402095,
				"y": 2.507723049,
				"z": -2.3236761471,
				"element": "C" 
			},
			{
				"x": -1.2388099555,
				"y": 3.8048612063,
				"z": -3.0958392226,
				"element": "C" 
			},
			{
				"x": -0.0228501216,
				"y": 2.317524483,
				"z": -1.4382421697,
				"element": "C" 
			},
			{
				"x": 1.0543331685,
				"y": 3.3512423525,
				"z": -1.2024385678,
				"element": "C" 
			},
			{
				"x": -2.2315911747,
				"y": -1.0938386871,
				"z": 3.4480839705,
				"element": "H" 
			},
			{
				"x": -2.3512382664,
				"y": -2.7449733347,
				"z": 2.8449622698,
				"element": "H" 
			},
			{
				"x": -1.1803727291,
				"y": -2.36483622,
				"z": 4.1416554368,
				"element": "H" 
			},
			{
				"x": -0.5518918507,
				"y": -2.8010684577,
				"z": -1.0110626477,
				"element": "H" 
			},
			{
				"x": 0.850992101,
				"y": -1.8840944064,
				"z": -1.5854782206,
				"element": "H" 
			},
			{
				"x": 0.9075810939,
				"y": -2.6817889383,
				"z": 0.0024351622,
				"element": "H" 
			},
			{
				"x": 0.734100372,
				"y": 0.636484271,
				"z": 1.2684989283,
				"element": "H" 
			},
			{
				"x": 1.8035856944,
				"y": 0.0107149321,
				"z": -0.0025601258,
				"element": "H" 
			},
			{
				"x": -3.1281196282,
				"y": -1.2220763633,
				"z": -2.9950522508,
				"element": "H" 
			},
			{
				"x": -4.1126866609,
				"y": -0.4440849514,
				"z": -1.7561654395,
				"element": "H" 
			},
			{
				"x": -2.8997559563,
				"y": -1.6341084912,
				"z": -1.2892456387,
				"element": "H" 
			},
			{
				"x": -3.8340105637,
				"y": 2.6701658851,
				"z": -3.1573573073,
				"element": "H" 
			},
			{
				"x": -3.9335897916,
				"y": 0.9568476043,
				"z": -3.5587926876,
				"element": "H" 
			},
			{
				"x": -2.8755201384,
				"y": 2.022117371,
				"z": -4.4798474406,
				"element": "H" 
			},
			{
				"x": -1.2196654171,
				"y": 3.6332199157,
				"z": -4.1792729839,
				"element": "H" 
			},
			{
				"x": -0.4335057099,
				"y": 4.5019389506,
				"z": -2.8629645628,
				"element": "H" 
			},
			{
				"x": -2.1857994758,
				"y": 4.3142188162,
				"z": -2.8794150571,
				"element": "H" 
			},
			{
				"x": 0.6483964288,
				"y": 4.2887924646,
				"z": -0.8046860085,
				"element": "H" 
			},
			{
				"x": 1.7856350174,
				"y": 2.9783953521,
				"z": -0.4802713151,
				"element": "H" 
			},
			{
				"x": 1.5973602469,
				"y": 3.6001557132,
				"z": -2.1217323344,
				"element": "H" 
			}
		],
		 "valence_orbital": [ 
			{
				"type": "occ",
				"energy": -0.30637,
				"method": "rhf"
			},
			{
				"type": "occ",
				"energy": -0.28202,
				"method": "rhf"
			},
			{
				"type": "occ",
				"energy": -0.26055,
				"method": "rhf"
			},
			{
				"type": "occ",
				"energy": -0.22461,
				"method": "rhf"
			},
			{
				"type": "occ",
				"energy": -0.22051,
				"method": "rhf"
			},
			{
				"type": "unocc",
				"energy": 0.00107,
				"method": "rhf"
			},
			{
				"type": "unocc",
				"energy": 0.00941,
				"method": "rhf"
			},
			{
				"type": "unocc",
				"energy": 0.01799,
				"method": "rhf"
			},
			{
				"type": "unocc",
				"energy": 0.08573,
				"method": "rhf"
			},
			{
				"type": "unocc",
				"energy": 0.10059,
				"method": "rhf"
			}
		],
		"cosmo_sigma_profile": { 
			"-0.025": 0.0,
			"-0.024": 0.0,
			"-0.023": 0.0,
			"-0.022": 0.0,
			"-0.021": 0.0,
			"-0.02": 0.0,
			"-0.019": 0.0,
			"-0.018": 0.0,
			"-0.017": 0.0,
			"-0.016": 0.0,
			"-0.015": 0.0,
			"-0.014": 0.0,
			"-0.013": 0.0,
			"-0.012": 0.0,
			"-0.011": 0.0,
			"-0.01": 0.0,
			"-0.009": 0.0,
			"-0.008": 0.0,
			"-0.007": 0.437704066873,
			"-0.006": 4.31023860893,
			"-0.005": 6.36262132874,
			"-0.004": 23.4504283104,
			"-0.003": 43.0430972153,
			"-0.002": 40.9716066551,
			"-0.001": 41.271383561,
			"0.0": 42.5773768873,
			"0.001": 29.5234349539,
			"0.002": 11.2453705747,
			"0.003": 9.74955944883,
			"0.004": 7.70765630234,
			"0.005": 8.41312481986,
			"0.006": 9.10196019579,
			"0.007": 6.53315589129,
			"0.008": 2.29369475514,
			"0.009": 2.24412185825,
			"0.01": 1.87924346904,
			"0.011": 2.08178996143,
			"0.012": 3.8838325164,
			"0.013": 1.8334097719,
			"0.014": 0.0685208675419,
			"0.015": 0.0,
			"0.016": 0.0,
			"0.017": 0.0,
			"0.018": 0.0,
			"0.019": 0.0,
			"0.02": 0.0,
			"0.021": 0.0,
			"0.022": 0.0,
			"0.023": 0.0,
			"0.024": 0.0,
			"0.025": 0.0
		}
	}
}
