{
	 "smiles": "ClC(Cl)C1=CC=C(C=C1)C(Cl)Cl", 
	 "Tm": 365.65, 
	 "num_atms": 18, 
	 "gaussian": { 
		 "optdone": 1, 
		 "sigma_profile": "yes", 
		 "theory": "DFT", 
		 "functional": "B3LYP", 
		 "basiset": "6-31G**", 
		 "properties": { 
			 "R2extent": 5564.1014, 
			 "electric_dipole_moment_norm": 0.000141421356237, 
			 "electric_quadrupole_moment_norm": 17.0711823094, 
			 "total_energy": -2149.23458549, 
			 "HOMO_LUMO_gap": 0.20486, 
			 "cosmo_polarized_energy": -9.16, 
			 "cosmo_cavitation_energy": 29.48, 
			 "cosmo_dispersion_energy": -21.4, 
			 "cosmo_repulsion_energy": 1.75, 
			 "cosmo_total_nonelectrostatic_energy": 9.83, 
			 "SMD_solvation_energy": 3.44 
		},
		"coords": [
			{
				"x": -2.8489695235,
				"y": -3.8148005822,
				"z": -1.9821821452,
				"element": "Cl" 
			},
			{
				"x": -2.1132179309,
				"y": -3.1811968879,
				"z": -0.4512259299,
				"element": "C" 
			},
			{
				"x": -1.0432734031,
				"y": -4.445484327,
				"z": 0.2859766715,
				"element": "Cl" 
			},
			{
				"x": -1.3804777208,
				"y": -1.8875537996,
				"z": -0.6748465759,
				"element": "C" 
			},
			{
				"x": -0.2776551312,
				"y": -1.8081627766,
				"z": -1.5310917663,
				"element": "C" 
			},
			{
				"x": 0.3761603936,
				"y": -0.5930162633,
				"z": -1.7136065071,
				"element": "C" 
			},
			{
				"x": -0.0616064494,
				"y": 0.5570347916,
				"z": -1.0448229528,
				"element": "C" 
			},
			{
				"x": -1.1644301502,
				"y": 0.4776450271,
				"z": -0.1885841003,
				"element": "C" 
			},
			{
				"x": -1.8182456157,
				"y": -0.7375040645,
				"z": -0.0060663709,
				"element": "C" 
			},
			{
				"x": 0.6711408709,
				"y": 1.8506740582,
				"z": -1.2684429743,
				"element": "C" 
			},
			{
				"x": 1.40695158,
				"y": 2.4842353755,
				"z": 0.2625099556,
				"element": "Cl" 
			},
			{
				"x": -0.398803396,
				"y": 3.1149908837,
				"z": -2.0055808652,
				"element": "Cl" 
			},
			{
				"x": -2.9409492796,
				"y": -3.0559449432,
				"z": 0.2425876029,
				"element": "H" 
			},
			{
				"x": 0.0667540977,
				"y": -2.6953775438,
				"z": -2.0523461424,
				"element": "H" 
			},
			{
				"x": 1.2321645485,
				"y": -0.5391101133,
				"z": -2.3804326366,
				"element": "H" 
			},
			{
				"x": -1.508848586,
				"y": 1.3648557828,
				"z": 0.3326712287,
				"element": "H" 
			},
			{
				"x": -2.6742481336,
				"y": -0.7914078855,
				"z": 0.6607619578,
				"element": "H" 
			},
			{
				"x": 1.4988538291,
				"y": 1.7254232679,
				"z": -1.9622784498,
				"element": "H" 
			}
		],
		 "valence_orbital": [ 
			{
				"type": "occ",
				"energy": -0.31347,
				"method": "rhf"
			},
			{
				"type": "occ",
				"energy": -0.31302,
				"method": "rhf"
			},
			{
				"type": "occ",
				"energy": -0.30985,
				"method": "rhf"
			},
			{
				"type": "occ",
				"energy": -0.28168,
				"method": "rhf"
			},
			{
				"type": "occ",
				"energy": -0.269,
				"method": "rhf"
			},
			{
				"type": "unocc",
				"energy": -0.06414,
				"method": "rhf"
			},
			{
				"type": "unocc",
				"energy": -0.03004,
				"method": "rhf"
			},
			{
				"type": "unocc",
				"energy": -0.01993,
				"method": "rhf"
			},
			{
				"type": "unocc",
				"energy": -0.01988,
				"method": "rhf"
			},
			{
				"type": "unocc",
				"energy": 0.01317,
				"method": "rhf"
			}
		],
		"cosmo_sigma_profile": { 
			"-0.025": 0.0,
			"-0.024": 0.0,
			"-0.023": 0.0,
			"-0.022": 0.0,
			"-0.021": 0.0,
			"-0.02": 0.0,
			"-0.019": 0.0,
			"-0.018": 0.0,
			"-0.017": 0.0,
			"-0.016": 0.0,
			"-0.015": 0.0,
			"-0.014": 0.0,
			"-0.013": 0.0,
			"-0.012": 0.00923427794648,
			"-0.011": 5.02074928049,
			"-0.01": 5.1394143612,
			"-0.009": 4.29951105039,
			"-0.008": 5.46598685485,
			"-0.007": 8.50677996278,
			"-0.006": 10.1051457369,
			"-0.005": 7.26290676099,
			"-0.004": 7.95535454351,
			"-0.003": 8.93283252486,
			"-0.002": 12.5925155086,
			"-0.001": 13.3922369002,
			"0.0": 15.8657724863,
			"0.001": 18.1577022379,
			"0.002": 29.481691588,
			"0.003": 30.3984723022,
			"0.004": 38.4672153173,
			"0.005": 23.5090212395,
			"0.006": 0.0,
			"0.007": 0.0,
			"0.008": 0.0,
			"0.009": 0.0,
			"0.01": 0.0,
			"0.011": 0.0,
			"0.012": 0.0,
			"0.013": 0.0,
			"0.014": 0.0,
			"0.015": 0.0,
			"0.016": 0.0,
			"0.017": 0.0,
			"0.018": 0.0,
			"0.019": 0.0,
			"0.02": 0.0,
			"0.021": 0.0,
			"0.022": 0.0,
			"0.023": 0.0,
			"0.024": 0.0,
			"0.025": 0.0
		}
	}
}
