{
	 "smiles": "COC1=C(C(C)=C(C=C1C(C)(C)C)N(=O)=O)N(=O)=O", 
	 "Tm": 358.15, 
	 "num_atms": 35, 
	 "gaussian": { 
		 "optdone": 1, 
		 "sigma_profile": "yes", 
		 "theory": "DFT", 
		 "functional": "B3LYP", 
		 "basiset": "6-31G**", 
		 "properties": { 
			 "R2extent": 5115.7968, 
			 "electric_dipole_moment_norm": 4.24858006515, 
			 "electric_quadrupole_moment_norm": 11.8149241039, 
			 "total_energy": -952.324885906, 
			 "HOMO_LUMO_gap": 0.16195, 
			 "cosmo_polarized_energy": -10.56, 
			 "cosmo_cavitation_energy": 37.07, 
			 "cosmo_dispersion_energy": -25.45, 
			 "cosmo_repulsion_energy": 1.92, 
			 "cosmo_total_nonelectrostatic_energy": 13.55, 
			 "SMD_solvation_energy": 11.58 
		},
		"coords": [
			{
				"x": -1.7520564344,
				"y": -1.6980241864,
				"z": -1.9412218771,
				"element": "C" 
			},
			{
				"x": -0.4619600012,
				"y": -1.0664059475,
				"z": -1.8805226007,
				"element": "O" 
			},
			{
				"x": -0.0261728365,
				"y": -0.3997073466,
				"z": -0.7854492575,
				"element": "C" 
			},
			{
				"x": -0.8553879873,
				"y": 0.4287655249,
				"z": -0.0012513546,
				"element": "C" 
			},
			{
				"x": -0.4383104722,
				"y": 1.1271280787,
				"z": 1.1445412719,
				"element": "C" 
			},
			{
				"x": -1.3848696519,
				"y": 2.0107741416,
				"z": 1.9229883219,
				"element": "C" 
			},
			{
				"x": 0.9194820257,
				"y": 0.9472374339,
				"z": 1.4566207434,
				"element": "C" 
			},
			{
				"x": 1.7684326829,
				"y": 0.149985188,
				"z": 0.6853775684,
				"element": "C" 
			},
			{
				"x": 1.3449225243,
				"y": -0.5359835094,
				"z": -0.4467493044,
				"element": "C" 
			},
			{
				"x": 2.3219566255,
				"y": -1.3971352674,
				"z": -1.276385435,
				"element": "C" 
			},
			{
				"x": 2.40378579,
				"y": -0.8567414681,
				"z": -2.7255664974,
				"element": "C" 
			},
			{
				"x": 1.8651775746,
				"y": -2.87683984,
				"z": -1.281682518,
				"element": "C" 
			},
			{
				"x": 3.7463448239,
				"y": -1.356968868,
				"z": -0.6848167986,
				"element": "C" 
			},
			{
				"x": 1.5461027508,
				"y": 1.5994395256,
				"z": 2.6187034239,
				"element": "N" 
			},
			{
				"x": 0.9619535911,
				"y": 2.5434770161,
				"z": 3.1520437314,
				"element": "O" 
			},
			{
				"x": 2.6378598715,
				"y": 1.1676732554,
				"z": 2.9923106622,
				"element": "O" 
			},
			{
				"x": -2.2383007197,
				"y": 0.6469243686,
				"z": -0.4753936009,
				"element": "N" 
			},
			{
				"x": -3.1643315628,
				"y": 0.2253350536,
				"z": 0.2153264319,
				"element": "O" 
			},
			{
				"x": -2.3640192724,
				"y": 1.2379258728,
				"z": -1.5445063472,
				"element": "O" 
			},
			{
				"x": -2.0995088963,
				"y": -1.9829660104,
				"z": -0.9448567283,
				"element": "H" 
			},
			{
				"x": -1.6139745184,
				"y": -2.5936711183,
				"z": -2.5494750372,
				"element": "H" 
			},
			{
				"x": -2.4812949374,
				"y": -1.040642066,
				"z": -2.4193263049,
				"element": "H" 
			},
			{
				"x": -1.0997205179,
				"y": 3.0597496726,
				"z": 1.814363887,
				"element": "H" 
			},
			{
				"x": -1.3259212674,
				"y": 1.7894851396,
				"z": 2.9900287232,
				"element": "H" 
			},
			{
				"x": -2.414593058,
				"y": 1.8773927718,
				"z": 1.6005568961,
				"element": "H" 
			},
			{
				"x": 2.7909259547,
				"y": 0.0748563031,
				"z": 1.0231346109,
				"element": "H" 
			},
			{
				"x": 1.43611248,
				"y": -0.8854319375,
				"z": -3.2273176398,
				"element": "H" 
			},
			{
				"x": 2.7655892807,
				"y": 0.1768729442,
				"z": -2.7336085459,
				"element": "H" 
			},
			{
				"x": 3.10923497,
				"y": -1.4624467399,
				"z": -3.3048593838,
				"element": "H" 
			},
			{
				"x": 1.8039489707,
				"y": -3.2703461994,
				"z": -0.26142686,
				"element": "H" 
			},
			{
				"x": 0.893637233,
				"y": -3.0026377665,
				"z": -1.7600048177,
				"element": "H" 
			},
			{
				"x": 2.5929781551,
				"y": -3.4837531881,
				"z": -1.8309328626,
				"element": "H" 
			},
			{
				"x": 4.1594140622,
				"y": -0.3432160169,
				"z": -0.6684817701,
				"element": "H" 
			},
			{
				"x": 3.7861816522,
				"y": -1.7636457826,
				"z": 0.3310332915,
				"element": "H" 
			},
			{
				"x": 4.4065811149,
				"y": -1.9679590316,
				"z": -1.3074940217,
				"element": "H" 
			}
		],
		 "valence_orbital": [ 
			{
				"type": "occ",
				"energy": -0.31159,
				"method": "rhf"
			},
			{
				"type": "occ",
				"energy": -0.30818,
				"method": "rhf"
			},
			{
				"type": "occ",
				"energy": -0.29121,
				"method": "rhf"
			},
			{
				"type": "occ",
				"energy": -0.27533,
				"method": "rhf"
			},
			{
				"type": "occ",
				"energy": -0.259,
				"method": "rhf"
			},
			{
				"type": "unocc",
				"energy": -0.09705,
				"method": "rhf"
			},
			{
				"type": "unocc",
				"energy": -0.08896,
				"method": "rhf"
			},
			{
				"type": "unocc",
				"energy": -0.03598,
				"method": "rhf"
			},
			{
				"type": "unocc",
				"energy": -0.01044,
				"method": "rhf"
			},
			{
				"type": "unocc",
				"energy": 0.05983,
				"method": "rhf"
			}
		],
		"cosmo_sigma_profile": { 
			"-0.025": 0.0,
			"-0.024": 0.0,
			"-0.023": 0.0,
			"-0.022": 0.0,
			"-0.021": 0.0,
			"-0.02": 0.0,
			"-0.019": 0.0,
			"-0.018": 0.0,
			"-0.017": 0.0,
			"-0.016": 0.0,
			"-0.015": 0.0,
			"-0.014": 0.0,
			"-0.013": 0.0,
			"-0.012": 0.0,
			"-0.011": 0.0,
			"-0.01": 0.0,
			"-0.009": 0.0,
			"-0.008": 0.387037704629,
			"-0.007": 4.90957578212,
			"-0.006": 10.287543309,
			"-0.005": 17.7684784044,
			"-0.004": 24.2452411421,
			"-0.003": 35.370059615,
			"-0.002": 32.077416315,
			"-0.001": 31.2459038636,
			"0.0": 29.5115418518,
			"0.001": 25.8640229381,
			"0.002": 11.4792404577,
			"0.003": 8.54597727184,
			"0.004": 7.20971919743,
			"0.005": 8.18447861595,
			"0.006": 9.98013094641,
			"0.007": 14.5399290812,
			"0.008": 11.2906269495,
			"0.009": 6.12157706478,
			"0.01": 2.94414210785,
			"0.011": 0.279960391598,
			"0.012": 0.0,
			"0.013": 0.0,
			"0.014": 0.0,
			"0.015": 0.0,
			"0.016": 0.0,
			"0.017": 0.0,
			"0.018": 0.0,
			"0.019": 0.0,
			"0.02": 0.0,
			"0.021": 0.0,
			"0.022": 0.0,
			"0.023": 0.0,
			"0.024": 0.0,
			"0.025": 0.0
		}
	}
}
