{
	 "smiles": "FC1=C(F)C(F)=C(C(F)=C1F)C1=C(F)C(F)=C(F)C(F)=C1F", 
	 "Tm": 340.65, 
	 "num_atms": 22, 
	 "gaussian": { 
		 "optdone": 1, 
		 "sigma_profile": "yes", 
		 "theory": "DFT", 
		 "functional": "B3LYP", 
		 "basiset": "6-31G**", 
		 "properties": { 
			 "R2extent": 7156.3497, 
			 "electric_dipole_moment_norm": 0.0001, 
			 "electric_quadrupole_moment_norm": 5.97247081952, 
			 "total_energy": -1455.54891934, 
			 "HOMO_LUMO_gap": 0.20205, 
			 "cosmo_polarized_energy": -3.68, 
			 "cosmo_cavitation_energy": 33.26, 
			 "cosmo_dispersion_energy": -22.31, 
			 "cosmo_repulsion_energy": 1.49, 
			 "cosmo_total_nonelectrostatic_energy": 12.43, 
			 "SMD_solvation_energy": 10.23 
		},
		"coords": [
			{
				"x": -2.989568793,
				"y": -4.0711745074,
				"z": -0.6370836629,
				"element": "F" 
			},
			{
				"x": -2.3674603412,
				"y": -2.9445962846,
				"z": -0.2883438958,
				"element": "C" 
			},
			{
				"x": -1.494011838,
				"y": -2.9377678996,
				"z": 0.7972490061,
				"element": "C" 
			},
			{
				"x": -1.2854055016,
				"y": -4.0590941403,
				"z": 1.4931686304,
				"element": "F" 
			},
			{
				"x": -0.8536147178,
				"y": -1.7553814396,
				"z": 1.1560822287,
				"element": "C" 
			},
			{
				"x": -0.0376724664,
				"y": -1.7743702322,
				"z": 2.2166262295,
				"element": "F" 
			},
			{
				"x": -1.0531939956,
				"y": -0.5642063649,
				"z": 0.4484829922,
				"element": "C" 
			},
			{
				"x": -1.9322262308,
				"y": -0.6038106873,
				"z": -0.6401668161,
				"element": "C" 
			},
			{
				"x": -2.1490694315,
				"y": 0.5000503917,
				"z": -1.3649789336,
				"element": "F" 
			},
			{
				"x": -2.590332473,
				"y": -1.7732427223,
				"z": -1.0092684522,
				"element": "C" 
			},
			{
				"x": -3.4223426602,
				"y": -1.7810636246,
				"z": -2.0546769121,
				"element": "F" 
			},
			{
				"x": -0.3631186459,
				"y": 0.6858916359,
				"z": 0.8356464122,
				"element": "C" 
			},
			{
				"x": 1.0299327623,
				"y": 0.739763745,
				"z": 0.9619412798,
				"element": "C" 
			},
			{
				"x": 1.7664297334,
				"y": -0.3497328742,
				"z": 0.7140179152,
				"element": "F" 
			},
			{
				"x": 1.6882802244,
				"y": 1.9092325977,
				"z": 1.33049624,
				"element": "C" 
			},
			{
				"x": 3.019641334,
				"y": 1.9309079546,
				"z": 1.4409071647,
				"element": "F" 
			},
			{
				"x": 0.9508186581,
				"y": 3.0662993701,
				"z": 1.5730322531,
				"element": "C" 
			},
			{
				"x": 1.5727099027,
				"y": 4.1929355858,
				"z": 1.9219725916,
				"element": "F" 
			},
			{
				"x": -0.4370047368,
				"y": 3.0451231074,
				"z": 1.4506780471,
				"element": "C" 
			},
			{
				"x": -1.1451421413,
				"y": 4.152540378,
				"z": 1.6901728626,
				"element": "F" 
			},
			{
				"x": -1.0768042884,
				"y": 1.8627616373,
				"z": 1.0907059452,
				"element": "C" 
			},
			{
				"x": -2.4121443533,
				"y": 1.8673343734,
				"z": 1.0027388743,
				"element": "F" 
			}
		],
		 "valence_orbital": [ 
			{
				"type": "occ",
				"energy": -0.35966,
				"method": "rhf"
			},
			{
				"type": "occ",
				"energy": -0.29663,
				"method": "rhf"
			},
			{
				"type": "occ",
				"energy": -0.26788,
				"method": "rhf"
			},
			{
				"type": "occ",
				"energy": -0.26658,
				"method": "rhf"
			},
			{
				"type": "occ",
				"energy": -0.2643,
				"method": "rhf"
			},
			{
				"type": "unocc",
				"energy": -0.06225,
				"method": "rhf"
			},
			{
				"type": "unocc",
				"energy": -0.02846,
				"method": "rhf"
			},
			{
				"type": "unocc",
				"energy": -0.02538,
				"method": "rhf"
			},
			{
				"type": "unocc",
				"energy": -0.01988,
				"method": "rhf"
			},
			{
				"type": "unocc",
				"energy": -0.00426,
				"method": "rhf"
			}
		],
		"cosmo_sigma_profile": { 
			"-0.025": 0.0,
			"-0.024": 0.0,
			"-0.023": 0.0,
			"-0.022": 0.0,
			"-0.021": 0.0,
			"-0.02": 0.0,
			"-0.019": 0.0,
			"-0.018": 0.0,
			"-0.017": 0.0,
			"-0.016": 0.0,
			"-0.015": 0.0,
			"-0.014": 0.0,
			"-0.013": 0.0,
			"-0.012": 0.0,
			"-0.011": 0.0,
			"-0.01": 0.0,
			"-0.009": 0.0,
			"-0.008": 0.0,
			"-0.007": 0.0,
			"-0.006": 1.01840341418,
			"-0.005": 7.33896403352,
			"-0.004": 33.9023015727,
			"-0.003": 27.1488331488,
			"-0.002": 16.212089616,
			"-0.001": 18.1449092741,
			"0.0": 17.5484915691,
			"0.001": 26.2560109722,
			"0.002": 88.5060355762,
			"0.003": 35.7862874424,
			"0.004": 0.247906621758,
			"0.005": 0.0,
			"0.006": 0.0,
			"0.007": 0.0,
			"0.008": 0.0,
			"0.009": 0.0,
			"0.01": 0.0,
			"0.011": 0.0,
			"0.012": 0.0,
			"0.013": 0.0,
			"0.014": 0.0,
			"0.015": 0.0,
			"0.016": 0.0,
			"0.017": 0.0,
			"0.018": 0.0,
			"0.019": 0.0,
			"0.02": 0.0,
			"0.021": 0.0,
			"0.022": 0.0,
			"0.023": 0.0,
			"0.024": 0.0,
			"0.025": 0.0
		}
	}
}
