{
	 "smiles": "CN1N(C(=O)C(NS(=O)(=O)C2=CC(=C(Cl)C=C2)[N+]([O-])=O)=C1C)C1=CC=CC=C1", 
	 "Tm": 501.15, 
	 "num_atms": 43, 
	 "gaussian": { 
		 "optdone": 1, 
		 "sigma_profile": "yes", 
		 "theory": "DFT", 
		 "functional": "B3LYP", 
		 "basiset": "6-31G**", 
		 "properties": { 
			 "R2extent": 16360.5343, 
			 "electric_dipole_moment_norm": 7.92759378942, 
			 "electric_quadrupole_moment_norm": 31.954192759, 
			 "total_energy": -2110.14323761, 
			 "HOMO_LUMO_gap": 0.13824, 
			 "cosmo_polarized_energy": -28.03, 
			 "cosmo_cavitation_energy": 51.42, 
			 "cosmo_dispersion_energy": -35.04, 
			 "cosmo_repulsion_energy": 2.59, 
			 "cosmo_total_nonelectrostatic_energy": 18.98, 
			 "SMD_solvation_energy": 10.42 
		},
		"coords": [
			{
				"x": -1.8830144018,
				"y": -0.6855103713,
				"z": -2.8656221494,
				"element": "C" 
			},
			{
				"x": -0.8516577349,
				"y": -0.6509108069,
				"z": -1.8186719431,
				"element": "N" 
			},
			{
				"x": -0.3010733191,
				"y": 0.6285350481,
				"z": -1.5882879761,
				"element": "N" 
			},
			{
				"x": -0.1339088217,
				"y": 0.8400584151,
				"z": -0.2049224698,
				"element": "C" 
			},
			{
				"x": 0.4159736692,
				"y": 1.8152989881,
				"z": 0.295918658,
				"element": "O" 
			},
			{
				"x": -0.7064217963,
				"y": -0.3516305665,
				"z": 0.4120465745,
				"element": "C" 
			},
			{
				"x": -0.7644439396,
				"y": -0.5327299312,
				"z": 1.8066942825,
				"element": "N" 
			},
			{
				"x": 0.5895417116,
				"y": -1.1319080354,
				"z": 2.6568247915,
				"element": "S" 
			},
			{
				"x": 1.6790507814,
				"y": -1.2860299711,
				"z": 1.6967100085,
				"element": "O" 
			},
			{
				"x": 0.1060592535,
				"y": -2.2505033289,
				"z": 3.4764243511,
				"element": "O" 
			},
			{
				"x": 0.9996544416,
				"y": 0.1995728906,
				"z": 3.7936918267,
				"element": "C" 
			},
			{
				"x": 1.3052698972,
				"y": 1.4689865405,
				"z": 3.3070396172,
				"element": "C" 
			},
			{
				"x": 1.6396938112,
				"y": 2.46505211,
				"z": 4.2209096619,
				"element": "C" 
			},
			{
				"x": 1.7107005748,
				"y": 2.1982636716,
				"z": 5.5975314057,
				"element": "C" 
			},
			{
				"x": 2.2021398183,
				"y": 3.3890336535,
				"z": 6.7677145337,
				"element": "Cl" 
			},
			{
				"x": 1.4266114782,
				"y": 0.9092200886,
				"z": 6.0532880309,
				"element": "C" 
			},
			{
				"x": 1.0581814628,
				"y": -0.0905753209,
				"z": 5.1565856765,
				"element": "C" 
			},
			{
				"x": 1.9055344978,
				"y": 3.8058626516,
				"z": 3.6647899588,
				"element": "N" 
			},
			{
				"x": 1.4263609102,
				"y": 4.769518713,
				"z": 4.2543904368,
				"element": "O" 
			},
			{
				"x": 2.5673064395,
				"y": 3.8506674337,
				"z": 2.6324042647,
				"element": "O" 
			},
			{
				"x": -1.1262659944,
				"y": -1.1978257974,
				"z": -0.574022452,
				"element": "C" 
			},
			{
				"x": -1.8120542993,
				"y": -2.5178737288,
				"z": -0.4451429978,
				"element": "C" 
			},
			{
				"x": 0.4939500581,
				"y": 1.2382769092,
				"z": -2.5978015395,
				"element": "C" 
			},
			{
				"x": 0.6522277835,
				"y": 2.629977471,
				"z": -2.5836644569,
				"element": "C" 
			},
			{
				"x": 1.4363741636,
				"y": 3.2378227433,
				"z": -3.5624815678,
				"element": "C" 
			},
			{
				"x": 2.0433908726,
				"y": 2.4777347577,
				"z": -4.564565755,
				"element": "C" 
			},
			{
				"x": 1.8779461875,
				"y": 1.0921219333,
				"z": -4.5727746197,
				"element": "C" 
			},
			{
				"x": 1.1152235231,
				"y": 0.4654646726,
				"z": -3.587392067,
				"element": "C" 
			},
			{
				"x": -2.1829802815,
				"y": -1.7227011875,
				"z": -3.0210286738,
				"element": "H" 
			},
			{
				"x": -2.7577957528,
				"y": -0.0818468738,
				"z": -2.5925974643,
				"element": "H" 
			},
			{
				"x": -1.4584944027,
				"y": -0.3049962846,
				"z": -3.7947763688,
				"element": "H" 
			},
			{
				"x": -1.6119028995,
				"y": -0.9391304656,
				"z": 2.1875028441,
				"element": "H" 
			},
			{
				"x": 1.2481337325,
				"y": 1.7041138054,
				"z": 2.2452514842,
				"element": "H" 
			},
			{
				"x": 1.4980575696,
				"y": 0.6985580669,
				"z": 7.1141193687,
				"element": "H" 
			},
			{
				"x": 0.8215775373,
				"y": -1.0895310711,
				"z": 5.5046506465,
				"element": "H" 
			},
			{
				"x": -1.3837152026,
				"y": -3.2489108188,
				"z": -1.1370645671,
				"element": "H" 
			},
			{
				"x": -1.6850122418,
				"y": -2.8995382593,
				"z": 0.5705172169,
				"element": "H" 
			},
			{
				"x": -2.8871678053,
				"y": -2.4483497914,
				"z": -0.6504860074,
				"element": "H" 
			},
			{
				"x": 0.1834046207,
				"y": 3.2132960044,
				"z": -1.801823222,
				"element": "H" 
			},
			{
				"x": 1.5657096456,
				"y": 4.3158134813,
				"z": -3.5429458597,
				"element": "H" 
			},
			{
				"x": 2.6445244591,
				"y": 2.9607461499,
				"z": -5.3288276455,
				"element": "H" 
			},
			{
				"x": 2.3567255619,
				"y": 0.4890854441,
				"z": -5.3387977665,
				"element": "H" 
			},
			{
				"x": 1.017684431,
				"y": -0.6144790332,
				"z": -3.5661080701,
				"element": "H" 
			}
		],
		 "valence_orbital": [ 
			{
				"type": "occ",
				"energy": -0.27233,
				"method": "rhf"
			},
			{
				"type": "occ",
				"energy": -0.26209,
				"method": "rhf"
			},
			{
				"type": "occ",
				"energy": -0.25391,
				"method": "rhf"
			},
			{
				"type": "occ",
				"energy": -0.24423,
				"method": "rhf"
			},
			{
				"type": "occ",
				"energy": -0.22183,
				"method": "rhf"
			},
			{
				"type": "unocc",
				"energy": -0.08359,
				"method": "rhf"
			},
			{
				"type": "unocc",
				"energy": -0.05345,
				"method": "rhf"
			},
			{
				"type": "unocc",
				"energy": -0.03923,
				"method": "rhf"
			},
			{
				"type": "unocc",
				"energy": -0.02303,
				"method": "rhf"
			},
			{
				"type": "unocc",
				"energy": -0.0085,
				"method": "rhf"
			}
		],
		"cosmo_sigma_profile": { 
			"-0.025": 0.0,
			"-0.024": 0.0,
			"-0.023": 0.0,
			"-0.022": 0.0,
			"-0.021": 0.0,
			"-0.02": 0.0,
			"-0.019": 0.0,
			"-0.018": 0.0,
			"-0.017": 0.0,
			"-0.016": 0.197200766972,
			"-0.015": 0.800442979273,
			"-0.014": 0.794444712167,
			"-0.013": 1.64232696284,
			"-0.012": 0.747279117183,
			"-0.011": 1.49852209932,
			"-0.01": 1.33208959585,
			"-0.009": 4.99498534509,
			"-0.008": 6.35480815434,
			"-0.007": 10.6451450131,
			"-0.006": 25.6543569936,
			"-0.005": 30.0695412344,
			"-0.004": 34.1044792755,
			"-0.003": 36.3091835861,
			"-0.002": 33.509902096,
			"-0.001": 27.562960975,
			"0.0": 23.3463539387,
			"0.001": 21.1692018176,
			"0.002": 23.0387490136,
			"0.003": 19.4422978998,
			"0.004": 18.0923752927,
			"0.005": 19.4767729929,
			"0.006": 12.6126503662,
			"0.007": 20.0892508181,
			"0.008": 11.4905438406,
			"0.009": 9.9055778624,
			"0.01": 11.2545167188,
			"0.011": 6.79066633384,
			"0.012": 1.71138635334,
			"0.013": 0.0650767204907,
			"0.014": 0.0,
			"0.015": 0.0,
			"0.016": 0.0,
			"0.017": 0.0,
			"0.018": 0.0,
			"0.019": 0.0,
			"0.02": 0.0,
			"0.021": 0.0,
			"0.022": 0.0,
			"0.023": 0.0,
			"0.024": 0.0,
			"0.025": 0.0
		}
	}
}
