{
	 "smiles": "CC(C)N(C(C)C)C(=O)COC(=O)C1=CC=CC=C1OC(C)=O", 
	 "Tm": 381.15, 
	 "num_atms": 46, 
	 "gaussian": { 
		 "optdone": 1, 
		 "sigma_profile": "yes", 
		 "theory": "DFT", 
		 "functional": "B3LYP", 
		 "basiset": "6-31G**", 
		 "properties": { 
			 "R2extent": 10827.0946, 
			 "electric_dipole_moment_norm": 5.21464928159, 
			 "electric_quadrupole_moment_norm": 24.1188543266, 
			 "total_energy": -1092.57693715, 
			 "HOMO_LUMO_gap": 0.19106, 
			 "cosmo_polarized_energy": -18.8, 
			 "cosmo_cavitation_energy": 48.64, 
			 "cosmo_dispersion_energy": -31.97, 
			 "cosmo_repulsion_energy": 2.47, 
			 "cosmo_total_nonelectrostatic_energy": 19.13, 
			 "SMD_solvation_energy": 10.96 
		},
		"coords": [
			{
				"x": -3.7472474145,
				"y": -0.4086917008,
				"z": 4.0010179399,
				"element": "C" 
			},
			{
				"x": -3.4624999018,
				"y": -0.047695369,
				"z": 2.5374188527,
				"element": "C" 
			},
			{
				"x": -3.7754720923,
				"y": 1.421817699,
				"z": 2.2228049879,
				"element": "C" 
			},
			{
				"x": -2.0816438414,
				"y": -0.4181966357,
				"z": 2.1308930053,
				"element": "N" 
			},
			{
				"x": -0.9635578044,
				"y": 0.2250905218,
				"z": 2.865543898,
				"element": "C" 
			},
			{
				"x": -0.1610375718,
				"y": -0.7449421039,
				"z": 3.7508418881,
				"element": "C" 
			},
			{
				"x": -0.0800181876,
				"y": 1.1246835543,
				"z": 1.9841048979,
				"element": "C" 
			},
			{
				"x": -1.9759633704,
				"y": -1.2254311518,
				"z": 1.0230592474,
				"element": "C" 
			},
			{
				"x": -2.9489234801,
				"y": -1.6052058801,
				"z": 0.3759952499,
				"element": "O" 
			},
			{
				"x": -0.6022865736,
				"y": -1.7222407666,
				"z": 0.5642608637,
				"element": "C" 
			},
			{
				"x": -0.3662047171,
				"y": -1.0975287453,
				"z": -0.7105677485,
				"element": "O" 
			},
			{
				"x": 0.7333728745,
				"y": -1.5310763829,
				"z": -1.3750942417,
				"element": "C" 
			},
			{
				"x": 1.5126886469,
				"y": -2.3292295961,
				"z": -0.890277644,
				"element": "O" 
			},
			{
				"x": 0.8334375626,
				"y": -0.9035059151,
				"z": -2.7228342473,
				"element": "C" 
			},
			{
				"x": -0.262808884,
				"y": -0.2140265082,
				"z": -3.2683424079,
				"element": "C" 
			},
			{
				"x": -0.1835358046,
				"y": 0.3797105163,
				"z": -4.5242605885,
				"element": "C" 
			},
			{
				"x": 1.0036231208,
				"y": 0.3018859316,
				"z": -5.2555656889,
				"element": "C" 
			},
			{
				"x": 2.1026774209,
				"y": -0.3765914845,
				"z": -4.7321914281,
				"element": "C" 
			},
			{
				"x": 2.0178509397,
				"y": -0.9785864683,
				"z": -3.47986237,
				"element": "C" 
			},
			{
				"x": 3.1604343163,
				"y": -1.5732812745,
				"z": -2.9687776105,
				"element": "O" 
			},
			{
				"x": 3.2529234282,
				"y": -2.951080126,
				"z": -3.0357904992,
				"element": "C" 
			},
			{
				"x": 4.4164167276,
				"y": -3.4223801059,
				"z": -2.2086288944,
				"element": "C" 
			},
			{
				"x": 2.4948333205,
				"y": -3.6308588962,
				"z": -3.6758254781,
				"element": "O" 
			},
			{
				"x": -3.1574798328,
				"y": 0.185835562,
				"z": 4.7078842172,
				"element": "H" 
			},
			{
				"x": -4.8025068126,
				"y": -0.2216048483,
				"z": 4.224575323,
				"element": "H" 
			},
			{
				"x": -3.545280997,
				"y": -1.4673100367,
				"z": 4.189165425,
				"element": "H" 
			},
			{
				"x": -4.0988893444,
				"y": -0.6659060006,
				"z": 1.9034742916,
				"element": "H" 
			},
			{
				"x": -3.6123684711,
				"y": 1.6313517155,
				"z": 1.1618262968,
				"element": "H" 
			},
			{
				"x": -3.1632744166,
				"y": 2.115133574,
				"z": 2.8110943674,
				"element": "H" 
			},
			{
				"x": -4.8238835503,
				"y": 1.637367191,
				"z": 2.4537677846,
				"element": "H" 
			},
			{
				"x": -1.4677734441,
				"y": 0.9030365846,
				"z": 3.5588526763,
				"element": "H" 
			},
			{
				"x": 0.456946014,
				"y": -1.4407375045,
				"z": 3.1774433158,
				"element": "H" 
			},
			{
				"x": 0.5101484474,
				"y": -0.1763590737,
				"z": 4.4032407519,
				"element": "H" 
			},
			{
				"x": -0.8316828871,
				"y": -1.3332259383,
				"z": 4.3828613897,
				"element": "H" 
			},
			{
				"x": 0.5167198172,
				"y": 0.5688004216,
				"z": 1.258156695,
				"element": "H" 
			},
			{
				"x": -0.6951556387,
				"y": 1.8402327249,
				"z": 1.4314962399,
				"element": "H" 
			},
			{
				"x": 0.612711288,
				"y": 1.6885650164,
				"z": 2.617618358,
				"element": "H" 
			},
			{
				"x": 0.2320395599,
				"y": -1.5123349423,
				"z": 1.2287322664,
				"element": "H" 
			},
			{
				"x": -0.6725461459,
				"y": -2.8050553187,
				"z": 0.4314625001,
				"element": "H" 
			},
			{
				"x": -1.1786423429,
				"y": -0.1606238465,
				"z": -2.692004482,
				"element": "H" 
			},
			{
				"x": -1.0441287194,
				"y": 0.9015851596,
				"z": -4.9305801874,
				"element": "H" 
			},
			{
				"x": 1.0747482772,
				"y": 0.7646686642,
				"z": -6.2354595626,
				"element": "H" 
			},
			{
				"x": 3.0360640723,
				"y": -0.4496402707,
				"z": -5.2798206645,
				"element": "H" 
			},
			{
				"x": 4.6428957528,
				"y": -4.4595439367,
				"z": -2.4544531227,
				"element": "H" 
			},
			{
				"x": 5.2919651829,
				"y": -2.7880230292,
				"z": -2.3663649636,
				"element": "H" 
			},
			{
				"x": 4.1291154765,
				"y": -3.3476509795,
				"z": -1.1554908995,
				"element": "H" 
			}
		],
		 "valence_orbital": [ 
			{
				"type": "occ",
				"energy": -0.27051,
				"method": "rhf"
			},
			{
				"type": "occ",
				"energy": -0.26386,
				"method": "rhf"
			},
			{
				"type": "occ",
				"energy": -0.25172,
				"method": "rhf"
			},
			{
				"type": "occ",
				"energy": -0.24776,
				"method": "rhf"
			},
			{
				"type": "occ",
				"energy": -0.24026,
				"method": "rhf"
			},
			{
				"type": "unocc",
				"energy": -0.0492,
				"method": "rhf"
			},
			{
				"type": "unocc",
				"energy": -0.00913,
				"method": "rhf"
			},
			{
				"type": "unocc",
				"energy": 0.00916,
				"method": "rhf"
			},
			{
				"type": "unocc",
				"energy": 0.01844,
				"method": "rhf"
			},
			{
				"type": "unocc",
				"energy": 0.05137,
				"method": "rhf"
			}
		],
		"cosmo_sigma_profile": { 
			"-0.025": 0.0,
			"-0.024": 0.0,
			"-0.023": 0.0,
			"-0.022": 0.0,
			"-0.021": 0.0,
			"-0.02": 0.0,
			"-0.019": 0.0,
			"-0.018": 0.0,
			"-0.017": 0.0,
			"-0.016": 0.0,
			"-0.015": 0.0,
			"-0.014": 0.0,
			"-0.013": 0.0,
			"-0.012": 0.0,
			"-0.011": 0.0,
			"-0.01": 0.0,
			"-0.009": 0.0,
			"-0.008": 0.675850260403,
			"-0.007": 9.70395099005,
			"-0.006": 18.3734152426,
			"-0.005": 24.1582481369,
			"-0.004": 30.8234681473,
			"-0.003": 44.0442358849,
			"-0.002": 42.6012367811,
			"-0.001": 38.8748077961,
			"0.0": 41.7807496883,
			"0.001": 29.5382291736,
			"0.002": 18.9532940009,
			"0.003": 15.8118346579,
			"0.004": 8.23385626028,
			"0.005": 7.94969236351,
			"0.006": 6.36746545019,
			"0.007": 7.7982875032,
			"0.008": 6.49805901438,
			"0.009": 5.41980883375,
			"0.01": 5.57987834019,
			"0.011": 6.78629507001,
			"0.012": 4.74076137431,
			"0.013": 3.4912106807,
			"0.014": 4.20557616154,
			"0.015": 0.707713921805,
			"0.016": 0.0,
			"0.017": 0.0,
			"0.018": 0.0,
			"0.019": 0.0,
			"0.02": 0.0,
			"0.021": 0.0,
			"0.022": 0.0,
			"0.023": 0.0,
			"0.024": 0.0,
			"0.025": 0.0
		}
	}
}
