{
	 "smiles": "OC(=O)C1=CC2=C(N1)C=CC(O)=C2", 
	 "Tm": 522.15, 
	 "num_atms": 20, 
	 "gaussian": { 
		 "optdone": 1, 
		 "sigma_profile": "yes", 
		 "theory": "DFT", 
		 "functional": "B3LYP", 
		 "basiset": "6-31G**", 
		 "properties": { 
			 "R2extent": 3209.9438, 
			 "electric_dipole_moment_norm": 3.65183388039, 
			 "electric_quadrupole_moment_norm": 15.0921026537, 
			 "total_energy": -627.609363584, 
			 "HOMO_LUMO_gap": 0.15573, 
			 "cosmo_polarized_energy": -19.33, 
			 "cosmo_cavitation_energy": 25.03, 
			 "cosmo_dispersion_energy": -18.88, 
			 "cosmo_repulsion_energy": 1.48, 
			 "cosmo_total_nonelectrostatic_energy": 7.62, 
			 "SMD_solvation_energy": 5.4 
		},
		"coords": [
			{
				"x": -0.2317243189,
				"y": -4.6054087776,
				"z": -0.9991127009,
				"element": "O" 
			},
			{
				"x": -0.7081595123,
				"y": -3.5933948612,
				"z": -0.2343269921,
				"element": "C" 
			},
			{
				"x": -1.4412877212,
				"y": -3.8194194971,
				"z": 0.7060104277,
				"element": "O" 
			},
			{
				"x": -0.2968857196,
				"y": -2.226532906,
				"z": -0.5968199958,
				"element": "C" 
			},
			{
				"x": 0.5090266202,
				"y": -1.7070795624,
				"z": -1.5943282921,
				"element": "C" 
			},
			{
				"x": 0.5245444996,
				"y": -0.2878954042,
				"z": -1.4261326754,
				"element": "C" 
			},
			{
				"x": -0.2997294148,
				"y": -0.0005939036,
				"z": -0.2969884447,
				"element": "C" 
			},
			{
				"x": -0.7801801714,
				"y": -1.1961856246,
				"z": 0.1799159723,
				"element": "N" 
			},
			{
				"x": -0.5032025885,
				"y": 1.311350284,
				"z": 0.1467860166,
				"element": "C" 
			},
			{
				"x": 0.125697021,
				"y": 2.3322401759,
				"z": -0.5497733251,
				"element": "C" 
			},
			{
				"x": 0.9471453889,
				"y": 2.0638144941,
				"z": -1.6726497936,
				"element": "C" 
			},
			{
				"x": 1.5673333574,
				"y": 3.0753957596,
				"z": -2.3589297492,
				"element": "O" 
			},
			{
				"x": 1.152130377,
				"y": 0.7657430373,
				"z": -2.1165949528,
				"element": "C" 
			},
			{
				"x": 0.3348227106,
				"y": -4.2586250734,
				"z": -1.7026684128,
				"element": "H" 
			},
			{
				"x": 1.0339992872,
				"y": -2.2598914024,
				"z": -2.3626484058,
				"element": "H" 
			},
			{
				"x": -1.390914311,
				"y": -1.3617236664,
				"z": 0.9661240057,
				"element": "H" 
			},
			{
				"x": -1.1302243957,
				"y": 1.5295944318,
				"z": 1.0056629638,
				"element": "H" 
			},
			{
				"x": -0.0127192353,
				"y": 3.3626772612,
				"z": -0.2295319382,
				"element": "H" 
			},
			{
				"x": 1.3432217485,
				"y": 3.9205629928,
				"z": -1.9499964393,
				"element": "H" 
			},
			{
				"x": 1.7860063782,
				"y": 0.5892722423,
				"z": -2.9789972683,
				"element": "H" 
			}
		],
		 "valence_orbital": [ 
			{
				"type": "occ",
				"energy": -0.31101,
				"method": "rhf"
			},
			{
				"type": "occ",
				"energy": -0.29299,
				"method": "rhf"
			},
			{
				"type": "occ",
				"energy": -0.28114,
				"method": "rhf"
			},
			{
				"type": "occ",
				"energy": -0.22746,
				"method": "rhf"
			},
			{
				"type": "occ",
				"energy": -0.21001,
				"method": "rhf"
			},
			{
				"type": "unocc",
				"energy": -0.05428,
				"method": "rhf"
			},
			{
				"type": "unocc",
				"energy": 0.01249,
				"method": "rhf"
			},
			{
				"type": "unocc",
				"energy": 0.0293,
				"method": "rhf"
			},
			{
				"type": "unocc",
				"energy": 0.05296,
				"method": "rhf"
			},
			{
				"type": "unocc",
				"energy": 0.06644,
				"method": "rhf"
			}
		],
		"cosmo_sigma_profile": { 
			"-0.025": 0.0,
			"-0.024": 0.0,
			"-0.023": 0.0,
			"-0.022": 0.0,
			"-0.021": 0.0,
			"-0.02": 0.0,
			"-0.019": 0.104532417061,
			"-0.018": 1.29926971349,
			"-0.017": 1.70077894899,
			"-0.016": 2.41869539191,
			"-0.015": 2.63325675678,
			"-0.014": 3.42744394837,
			"-0.013": 3.20844873212,
			"-0.012": 2.1350024156,
			"-0.011": 2.30017476609,
			"-0.01": 3.94488649537,
			"-0.009": 3.54478784475,
			"-0.008": 3.48034070884,
			"-0.007": 6.30761790203,
			"-0.006": 7.6994115512,
			"-0.005": 9.1714013735,
			"-0.004": 7.5240167776,
			"-0.003": 8.37308953479,
			"-0.002": 8.26475278661,
			"-0.001": 8.64199358589,
			"0.0": 9.4833918124,
			"0.001": 7.67136389411,
			"0.002": 9.86271840069,
			"0.003": 15.6333371404,
			"0.004": 17.0390264009,
			"0.005": 17.0991692393,
			"0.006": 4.64205950478,
			"0.007": 3.78252409108,
			"0.008": 3.58686026864,
			"0.009": 4.94038342487,
			"0.01": 6.54145296302,
			"0.011": 6.63809186024,
			"0.012": 5.42129550481,
			"0.013": 1.75104861355,
			"0.014": 0.0917198942198,
			"0.015": 0.0,
			"0.016": 0.0,
			"0.017": 0.0,
			"0.018": 0.0,
			"0.019": 0.0,
			"0.02": 0.0,
			"0.021": 0.0,
			"0.022": 0.0,
			"0.023": 0.0,
			"0.024": 0.0,
			"0.025": 0.0
		}
	}
}
