{
	 "smiles": "COC1=CC(=CC(OC)=C1OC)C(O)=O", 
	 "Tm": 444.15, 
	 "num_atms": 27, 
	 "gaussian": { 
		 "optdone": 1, 
		 "sigma_profile": "yes", 
		 "theory": "DFT", 
		 "functional": "B3LYP", 
		 "basiset": "6-31G**", 
		 "properties": { 
			 "R2extent": 3643.7674, 
			 "electric_dipole_moment_norm": 4.28697772446, 
			 "electric_quadrupole_moment_norm": 15.5909277825, 
			 "total_energy": -764.374635249, 
			 "HOMO_LUMO_gap": 0.18806, 
			 "cosmo_polarized_energy": -16.02, 
			 "cosmo_cavitation_energy": 31.19, 
			 "cosmo_dispersion_energy": -22.18, 
			 "cosmo_repulsion_energy": 1.76, 
			 "cosmo_total_nonelectrostatic_energy": 10.77, 
			 "SMD_solvation_energy": 9.0 
		},
		"coords": [
			{
				"x": -2.9060210748,
				"y": -1.0706643921,
				"z": -2.6390023081,
				"element": "C" 
			},
			{
				"x": -1.5485113105,
				"y": -0.6267171069,
				"z": -2.7648129388,
				"element": "O" 
			},
			{
				"x": -0.88319924,
				"y": -0.3679532474,
				"z": -1.5958561368,
				"element": "C" 
			},
			{
				"x": -0.4481273058,
				"y": 0.9406592261,
				"z": -1.3613872357,
				"element": "C" 
			},
			{
				"x": 0.289225322,
				"y": 1.2383369949,
				"z": -0.2131213286,
				"element": "C" 
			},
			{
				"x": 0.5612234071,
				"y": 0.2362247007,
				"z": 0.7286614626,
				"element": "C" 
			},
			{
				"x": 0.1295683871,
				"y": -1.0697377992,
				"z": 0.5032905564,
				"element": "C" 
			},
			{
				"x": 0.3516623372,
				"y": -2.1145927767,
				"z": 1.3472211182,
				"element": "O" 
			},
			{
				"x": 1.0395190296,
				"y": -1.8545752964,
				"z": 2.5653727484,
				"element": "C" 
			},
			{
				"x": -0.5878349891,
				"y": -1.3847681386,
				"z": -0.6753794866,
				"element": "C" 
			},
			{
				"x": -1.0440016472,
				"y": -2.6552653458,
				"z": -0.9043425213,
				"element": "O" 
			},
			{
				"x": -0.0405121556,
				"y": -3.6145100828,
				"z": -1.2629049328,
				"element": "C" 
			},
			{
				"x": 0.7874948779,
				"y": 2.6162437712,
				"z": 0.0997053591,
				"element": "C" 
			},
			{
				"x": 0.8653374169,
				"y": 3.4888071629,
				"z": -0.9401455622,
				"element": "O" 
			},
			{
				"x": 1.1183206358,
				"y": 2.9691495867,
				"z": 1.2085589277,
				"element": "O" 
			},
			{
				"x": -3.5138415217,
				"y": -0.3153064387,
				"z": -2.125100447,
				"element": "H" 
			},
			{
				"x": -3.2755888163,
				"y": -1.1958495544,
				"z": -3.6585875882,
				"element": "H" 
			},
			{
				"x": -2.9665211285,
				"y": -2.0203379976,
				"z": -2.1022483499,
				"element": "H" 
			},
			{
				"x": -0.7355634488,
				"y": 1.6944228825,
				"z": -2.0882792316,
				"element": "H" 
			},
			{
				"x": 1.1066532774,
				"y": 0.5153654983,
				"z": 1.6205540005,
				"element": "H" 
			},
			{
				"x": 0.4979274164,
				"y": -1.1288194041,
				"z": 3.1835124526,
				"element": "H" 
			},
			{
				"x": 2.0561915604,
				"y": -1.4851270785,
				"z": 2.383585022,
				"element": "H" 
			},
			{
				"x": 1.0895305773,
				"y": -2.8101477112,
				"z": 3.0887339785,
				"element": "H" 
			},
			{
				"x": -0.5690658443,
				"y": -4.5537781293,
				"z": -1.435592657,
				"element": "H" 
			},
			{
				"x": 0.4741463462,
				"y": -3.3119008808,
				"z": -2.1824455353,
				"element": "H" 
			},
			{
				"x": 0.6850775374,
				"y": -3.7458177718,
				"z": -0.4551470242,
				"element": "H" 
			},
			{
				"x": 0.7215103539,
				"y": 3.0215593287,
				"z": -1.7748423421,
				"element": "H" 
			}
		],
		 "valence_orbital": [ 
			{
				"type": "occ",
				"energy": -0.2953,
				"method": "rhf"
			},
			{
				"type": "occ",
				"energy": -0.28301,
				"method": "rhf"
			},
			{
				"type": "occ",
				"energy": -0.26686,
				"method": "rhf"
			},
			{
				"type": "occ",
				"energy": -0.23981,
				"method": "rhf"
			},
			{
				"type": "occ",
				"energy": -0.23308,
				"method": "rhf"
			},
			{
				"type": "unocc",
				"energy": -0.04502,
				"method": "rhf"
			},
			{
				"type": "unocc",
				"energy": -0.00384,
				"method": "rhf"
			},
			{
				"type": "unocc",
				"energy": 0.05328,
				"method": "rhf"
			},
			{
				"type": "unocc",
				"energy": 0.06434,
				"method": "rhf"
			},
			{
				"type": "unocc",
				"energy": 0.0809,
				"method": "rhf"
			}
		],
		"cosmo_sigma_profile": { 
			"-0.025": 0.0,
			"-0.024": 0.0,
			"-0.023": 0.0,
			"-0.022": 0.0,
			"-0.021": 0.0,
			"-0.02": 0.0,
			"-0.019": 0.0603797470728,
			"-0.018": 0.808192729375,
			"-0.017": 0.753705991847,
			"-0.016": 1.29496000542,
			"-0.015": 1.35989178622,
			"-0.014": 0.260211462718,
			"-0.013": 0.715298603713,
			"-0.012": 1.61082001504,
			"-0.011": 1.12432086111,
			"-0.01": 1.1726390614,
			"-0.009": 0.89564204012,
			"-0.008": 1.20048655309,
			"-0.007": 2.70186773673,
			"-0.006": 12.5226513845,
			"-0.005": 18.1477011754,
			"-0.004": 23.3203672066,
			"-0.003": 28.7808898165,
			"-0.002": 20.6317092399,
			"-0.001": 14.5227001728,
			"0.0": 13.3244645222,
			"0.001": 15.8610793137,
			"0.002": 15.3358826895,
			"0.003": 12.2615115541,
			"0.004": 7.52395183793,
			"0.005": 6.94424646429,
			"0.006": 5.48858832739,
			"0.007": 5.13478381196,
			"0.008": 5.02612796152,
			"0.009": 6.08321051098,
			"0.01": 8.31170753307,
			"0.011": 7.22481919743,
			"0.012": 5.28602708681,
			"0.013": 1.77253315823,
			"0.014": 0.112874597246,
			"0.015": 0.0,
			"0.016": 0.0,
			"0.017": 0.0,
			"0.018": 0.0,
			"0.019": 0.0,
			"0.02": 0.0,
			"0.021": 0.0,
			"0.022": 0.0,
			"0.023": 0.0,
			"0.024": 0.0,
			"0.025": 0.0
		}
	}
}
