{
	 "smiles": "FC1=CC=C(C=C1)N1C(=O)C2ON=C(C2C1=O)C(=O)C1=CC=C2C=CC=CC2=C1", 
	 "Tm": 466.15, 
	 "num_atms": 42, 
	 "gaussian": { 
		 "optdone": 1, 
		 "sigma_profile": "yes", 
		 "theory": "DFT", 
		 "functional": "B3LYP", 
		 "basiset": "6-31G**", 
		 "properties": { 
			 "R2extent": 15277.8999, 
			 "electric_dipole_moment_norm": 1.81330292285, 
			 "electric_quadrupole_moment_norm": 29.854884805, 
			 "total_energy": -1356.37072316, 
			 "HOMO_LUMO_gap": 0.13934, 
			 "cosmo_polarized_energy": -19.64, 
			 "cosmo_cavitation_energy": 48.65, 
			 "cosmo_dispersion_energy": -34.14, 
			 "cosmo_repulsion_energy": 2.49, 
			 "cosmo_total_nonelectrostatic_energy": 17.0, 
			 "SMD_solvation_energy": 9.76 
		},
		"coords": [
			{
				"x": -2.894983714,
				"y": 2.8829049183,
				"z": -6.5956332829,
				"element": "F" 
			},
			{
				"x": -2.9418921063,
				"y": 2.3472927576,
				"z": -5.3605997472,
				"element": "C" 
			},
			{
				"x": -1.8328614062,
				"y": 1.65979971,
				"z": -4.8807632772,
				"element": "C" 
			},
			{
				"x": -1.8806339023,
				"y": 1.1109699781,
				"z": -3.6015366022,
				"element": "C" 
			},
			{
				"x": -3.0379956244,
				"y": 1.248787358,
				"z": -2.8270905303,
				"element": "C" 
			},
			{
				"x": -4.1470939547,
				"y": 1.9394365422,
				"z": -3.3281039866,
				"element": "C" 
			},
			{
				"x": -4.0977465264,
				"y": 2.4982534675,
				"z": -4.6031394754,
				"element": "C" 
			},
			{
				"x": -3.0863223981,
				"y": 0.6799330328,
				"z": -1.512313925,
				"element": "N" 
			},
			{
				"x": -3.6365133437,
				"y": 1.3390239581,
				"z": -0.4004510604,
				"element": "C" 
			},
			{
				"x": -4.1643654765,
				"y": 2.4260057098,
				"z": -0.4032821226,
				"element": "O" 
			},
			{
				"x": -3.4492204486,
				"y": 0.4319576597,
				"z": 0.8204367148,
				"element": "C" 
			},
			{
				"x": -2.4417814008,
				"y": 1.0186516646,
				"z": 1.703366272,
				"element": "O" 
			},
			{
				"x": -1.3563858973,
				"y": 0.1681246734,
				"z": 1.8016963145,
				"element": "N" 
			},
			{
				"x": -1.5252655034,
				"y": -0.874607785,
				"z": 1.0691915593,
				"element": "C" 
			},
			{
				"x": -2.8268966771,
				"y": -0.8536723351,
				"z": 0.2942227684,
				"element": "C" 
			},
			{
				"x": -2.6003001811,
				"y": -0.6077286446,
				"z": -1.2074001485,
				"element": "C" 
			},
			{
				"x": -2.0874607117,
				"y": -1.3686826555,
				"z": -1.9914227542,
				"element": "O" 
			},
			{
				"x": -0.6394218595,
				"y": -2.0853650685,
				"z": 1.0759312952,
				"element": "C" 
			},
			{
				"x": -1.1815553255,
				"y": -3.141273529,
				"z": 0.7654326504,
				"element": "O" 
			},
			{
				"x": 0.7970024089,
				"y": -2.0193049381,
				"z": 1.4479307604,
				"element": "C" 
			},
			{
				"x": 1.4915287513,
				"y": -3.2620875217,
				"z": 1.5431436692,
				"element": "C" 
			},
			{
				"x": 2.8242808664,
				"y": -3.2938275803,
				"z": 1.8608898537,
				"element": "C" 
			},
			{
				"x": 3.5511328478,
				"y": -2.0921831352,
				"z": 2.0966810166,
				"element": "C" 
			},
			{
				"x": 4.9311365413,
				"y": -2.0883273313,
				"z": 2.4254186118,
				"element": "C" 
			},
			{
				"x": 5.5988006115,
				"y": -0.9026561252,
				"z": 2.6443668429,
				"element": "C" 
			},
			{
				"x": 4.9178319143,
				"y": 0.3354740027,
				"z": 2.5448564105,
				"element": "C" 
			},
			{
				"x": 3.578775016,
				"y": 0.3652141202,
				"z": 2.2269546526,
				"element": "C" 
			},
			{
				"x": 2.8611732389,
				"y": -0.8402372072,
				"z": 1.9956692872,
				"element": "C" 
			},
			{
				"x": 1.4820083546,
				"y": -0.8345086123,
				"z": 1.6665495024,
				"element": "C" 
			},
			{
				"x": -0.9499556507,
				"y": 1.5626732655,
				"z": -5.5024362208,
				"element": "H" 
			},
			{
				"x": -1.0288782824,
				"y": 0.566493436,
				"z": -3.2148180679,
				"element": "H" 
			},
			{
				"x": -5.0359978794,
				"y": 2.0544744046,
				"z": -2.7215732038,
				"element": "H" 
			},
			{
				"x": -4.941409397,
				"y": 3.0425992526,
				"z": -5.0122549374,
				"element": "H" 
			},
			{
				"x": -4.3797360737,
				"y": 0.3455096942,
				"z": 1.3852510605,
				"element": "H" 
			},
			{
				"x": -3.389729099,
				"y": -1.7794950038,
				"z": 0.4285130005,
				"element": "H" 
			},
			{
				"x": 0.9331330085,
				"y": -4.1723623963,
				"z": 1.3567577101,
				"element": "H" 
			},
			{
				"x": 3.3468983713,
				"y": -4.2438643347,
				"z": 1.9351938218,
				"element": "H" 
			},
			{
				"x": 5.4547289579,
				"y": -3.0375830992,
				"z": 2.5018675213,
				"element": "H" 
			},
			{
				"x": 6.6555050948,
				"y": -0.9135615515,
				"z": 2.8954240205,
				"element": "H" 
			},
			{
				"x": 5.4576001692,
				"y": 1.2610454491,
				"z": 2.7211016746,
				"element": "H" 
			},
			{
				"x": 3.0496776023,
				"y": 1.3114027378,
				"z": 2.1506370818,
				"element": "H" 
			},
			{
				"x": 0.9688890848,
				"y": 0.1175010617,
				"z": 1.6002352696,
				"element": "H" 
			}
		],
		 "valence_orbital": [ 
			{
				"type": "occ",
				"energy": -0.27141,
				"method": "rhf"
			},
			{
				"type": "occ",
				"energy": -0.26576,
				"method": "rhf"
			},
			{
				"type": "occ",
				"energy": -0.25593,
				"method": "rhf"
			},
			{
				"type": "occ",
				"energy": -0.24776,
				"method": "rhf"
			},
			{
				"type": "occ",
				"energy": -0.22944,
				"method": "rhf"
			},
			{
				"type": "unocc",
				"energy": -0.0901,
				"method": "rhf"
			},
			{
				"type": "unocc",
				"energy": -0.05234,
				"method": "rhf"
			},
			{
				"type": "unocc",
				"energy": -0.04846,
				"method": "rhf"
			},
			{
				"type": "unocc",
				"energy": -0.03469,
				"method": "rhf"
			},
			{
				"type": "unocc",
				"energy": -0.02172,
				"method": "rhf"
			}
		],
		"cosmo_sigma_profile": { 
			"-0.025": 0.0,
			"-0.024": 0.0,
			"-0.023": 0.0,
			"-0.022": 0.0,
			"-0.021": 0.0,
			"-0.02": 0.0,
			"-0.019": 0.0,
			"-0.018": 0.0,
			"-0.017": 0.0,
			"-0.016": 0.0,
			"-0.015": 0.0,
			"-0.014": 0.0,
			"-0.013": 0.0395873090125,
			"-0.012": 0.815763367894,
			"-0.011": 2.36037463416,
			"-0.01": 7.68120892771,
			"-0.009": 6.55683445224,
			"-0.008": 6.96349458566,
			"-0.007": 16.4294121875,
			"-0.006": 26.1256577357,
			"-0.005": 23.9593213125,
			"-0.004": 23.8238192324,
			"-0.003": 19.3325710435,
			"-0.002": 18.6235849607,
			"-0.001": 19.3960057619,
			"0.0": 25.5582070209,
			"0.001": 26.977024563,
			"0.002": 41.4542188767,
			"0.003": 34.9335461205,
			"0.004": 28.4383327465,
			"0.005": 9.66983345287,
			"0.006": 8.248462968,
			"0.007": 9.51699003258,
			"0.008": 9.67516546579,
			"0.009": 9.03983392421,
			"0.01": 12.1246648029,
			"0.011": 5.17959419027,
			"0.012": 0.0427936527427,
			"0.013": 0.0,
			"0.014": 0.0,
			"0.015": 0.0,
			"0.016": 0.0,
			"0.017": 0.0,
			"0.018": 0.0,
			"0.019": 0.0,
			"0.02": 0.0,
			"0.021": 0.0,
			"0.022": 0.0,
			"0.023": 0.0,
			"0.024": 0.0,
			"0.025": 0.0
		}
	}
}
