{
	 "smiles": "COC(CCNC1=CC(=O)C2=CC=CC=C2C1=O)OC", 
	 "Tm": 387.15, 
	 "num_atms": 37, 
	 "gaussian": { 
		 "optdone": 1, 
		 "sigma_profile": "yes", 
		 "theory": "DFT", 
		 "functional": "B3LYP", 
		 "basiset": "6-31G**", 
		 "properties": { 
			 "R2extent": 8169.644, 
			 "electric_dipole_moment_norm": 2.64400675869, 
			 "electric_quadrupole_moment_norm": 28.7434786741, 
			 "total_energy": -937.464486016, 
			 "HOMO_LUMO_gap": 0.11602, 
			 "cosmo_polarized_energy": -17.0, 
			 "cosmo_cavitation_energy": 39.86, 
			 "cosmo_dispersion_energy": -28.5, 
			 "cosmo_repulsion_energy": 2.16, 
			 "cosmo_total_nonelectrostatic_energy": 13.52, 
			 "SMD_solvation_energy": 7.63 
		},
		"coords": [
			{
				"x": 0.2459639662,
				"y": -0.5953929571,
				"z": 3.4999712388,
				"element": "C" 
			},
			{
				"x": -1.0735861498,
				"y": -1.1243875961,
				"z": 3.3484467213,
				"element": "O" 
			},
			{
				"x": -1.9871365463,
				"y": -0.2980948417,
				"z": 2.6550352297,
				"element": "C" 
			},
			{
				"x": -1.6011787928,
				"y": -0.0158909051,
				"z": 1.201392596,
				"element": "C" 
			},
			{
				"x": -1.3696976756,
				"y": -1.3082245753,
				"z": 0.405994488,
				"element": "C" 
			},
			{
				"x": -1.1962353058,
				"y": -1.0863988268,
				"z": -1.0312384868,
				"element": "N" 
			},
			{
				"x": -0.0956502438,
				"y": -0.7703002264,
				"z": -1.7698282939,
				"element": "C" 
			},
			{
				"x": -0.1859343714,
				"y": -0.5823510655,
				"z": -3.127314983,
				"element": "C" 
			},
			{
				"x": 0.9406714643,
				"y": -0.2889997289,
				"z": -3.9896033223,
				"element": "C" 
			},
			{
				"x": 0.813068589,
				"y": -0.1326163789,
				"z": -5.2063615095,
				"element": "O" 
			},
			{
				"x": 2.2901927041,
				"y": -0.1906499389,
				"z": -3.3462676832,
				"element": "C" 
			},
			{
				"x": 3.4162823643,
				"y": 0.0682120727,
				"z": -4.1284853963,
				"element": "C" 
			},
			{
				"x": 4.6741223236,
				"y": 0.160149826,
				"z": -3.5324565095,
				"element": "C" 
			},
			{
				"x": 4.8120257258,
				"y": -0.0031537334,
				"z": -2.1496555643,
				"element": "C" 
			},
			{
				"x": 3.6913959469,
				"y": -0.2577567322,
				"z": -1.3624684757,
				"element": "C" 
			},
			{
				"x": 2.4266085983,
				"y": -0.3551987303,
				"z": -1.9572023285,
				"element": "C" 
			},
			{
				"x": 1.2453891465,
				"y": -0.617346625,
				"z": -1.0939575876,
				"element": "C" 
			},
			{
				"x": 1.3585887102,
				"y": -0.6936058259,
				"z": 0.1258672711,
				"element": "O" 
			},
			{
				"x": -2.1744722741,
				"y": 0.9509912862,
				"z": 3.2763811898,
				"element": "O" 
			},
			{
				"x": -2.7860663897,
				"y": 0.8662598647,
				"z": 4.5564503005,
				"element": "C" 
			},
			{
				"x": 0.8030881331,
				"y": -0.6055833851,
				"z": 2.5568164336,
				"element": "H" 
			},
			{
				"x": 0.2217671378,
				"y": 0.4264704816,
				"z": 3.8942448926,
				"element": "H" 
			},
			{
				"x": 0.7506247095,
				"y": -1.2454327965,
				"z": 4.2183576343,
				"element": "H" 
			},
			{
				"x": -2.9242743586,
				"y": -0.8783193483,
				"z": 2.6906799455,
				"element": "H" 
			},
			{
				"x": -2.4134539919,
				"y": 0.5640832792,
				"z": 0.749341246,
				"element": "H" 
			},
			{
				"x": -0.7032328331,
				"y": 0.60672178,
				"z": 1.1677790419,
				"element": "H" 
			},
			{
				"x": -2.2433430722,
				"y": -1.9631727436,
				"z": 0.5057083126,
				"element": "H" 
			},
			{
				"x": -0.5136908226,
				"y": -1.8484953686,
				"z": 0.8027262011,
				"element": "H" 
			},
			{
				"x": -2.0528278287,
				"y": -1.0976785802,
				"z": -1.5670377414,
				"element": "H" 
			},
			{
				"x": -1.1465709107,
				"y": -0.6662377984,
				"z": -3.6296738814,
				"element": "H" 
			},
			{
				"x": 3.2778234927,
				"y": 0.1931891088,
				"z": -5.1972091458,
				"element": "H" 
			},
			{
				"x": 5.5493451489,
				"y": 0.3601742952,
				"z": -4.1439786027,
				"element": "H" 
			},
			{
				"x": 5.7924442282,
				"y": 0.0694168608,
				"z": -1.6883284365,
				"element": "H" 
			},
			{
				"x": 3.7720227962,
				"y": -0.3842010412,
				"z": -0.2882110288,
				"element": "H" 
			},
			{
				"x": -3.7902464672,
				"y": 0.4212677355,
				"z": 4.4888882828,
				"element": "H" 
			},
			{
				"x": -2.8746935719,
				"y": 1.8874406865,
				"z": 4.933290931,
				"element": "H" 
			},
			{
				"x": -2.1874335795,
				"y": 0.2698124723,
				"z": 5.2544070205,
				"element": "H" 
			}
		],
		 "valence_orbital": [ 
			{
				"type": "occ",
				"energy": -0.2687,
				"method": "rhf"
			},
			{
				"type": "occ",
				"energy": -0.26341,
				"method": "rhf"
			},
			{
				"type": "occ",
				"energy": -0.26227,
				"method": "rhf"
			},
			{
				"type": "occ",
				"energy": -0.24327,
				"method": "rhf"
			},
			{
				"type": "occ",
				"energy": -0.21847,
				"method": "rhf"
			},
			{
				"type": "unocc",
				"energy": -0.10245,
				"method": "rhf"
			},
			{
				"type": "unocc",
				"energy": -0.03248,
				"method": "rhf"
			},
			{
				"type": "unocc",
				"energy": -0.007,
				"method": "rhf"
			},
			{
				"type": "unocc",
				"energy": 0.05051,
				"method": "rhf"
			},
			{
				"type": "unocc",
				"energy": 0.06537,
				"method": "rhf"
			}
		],
		"cosmo_sigma_profile": { 
			"-0.025": 0.0,
			"-0.024": 0.0,
			"-0.023": 0.0,
			"-0.022": 0.0,
			"-0.021": 0.0,
			"-0.02": 0.0,
			"-0.019": 0.0,
			"-0.018": 0.0,
			"-0.017": 0.0,
			"-0.016": 0.0,
			"-0.015": 0.433602555409,
			"-0.014": 1.51374317443,
			"-0.013": 1.54739023108,
			"-0.012": 1.52825959027,
			"-0.011": 1.16592109374,
			"-0.01": 1.58607339057,
			"-0.009": 1.79765012734,
			"-0.008": 1.29511961348,
			"-0.007": 5.11088907408,
			"-0.006": 11.5729838603,
			"-0.005": 22.2766369809,
			"-0.004": 25.9586689639,
			"-0.003": 26.9746332178,
			"-0.002": 32.8808770574,
			"-0.001": 27.9194886502,
			"0.0": 24.1717244934,
			"0.001": 24.4233077434,
			"0.002": 24.1422500947,
			"0.003": 21.9730067504,
			"0.004": 8.85402355327,
			"0.005": 6.65143582226,
			"0.006": 5.45311940622,
			"0.007": 5.31776222589,
			"0.008": 6.33363898676,
			"0.009": 3.48604860317,
			"0.01": 3.45689804954,
			"0.011": 4.21328763705,
			"0.012": 4.76081330372,
			"0.013": 6.37513531427,
			"0.014": 2.17406245459,
			"0.015": 0.397663937482,
			"0.016": 0.0,
			"0.017": 0.0,
			"0.018": 0.0,
			"0.019": 0.0,
			"0.02": 0.0,
			"0.021": 0.0,
			"0.022": 0.0,
			"0.023": 0.0,
			"0.024": 0.0,
			"0.025": 0.0
		}
	}
}
