{
	 "smiles": "CCOC(=O)C1=C(Cl)C2=C(N=C1)N(C)N=C2", 
	 "Tm": 357.15, 
	 "num_atms": 26, 
	 "gaussian": { 
		 "optdone": 1, 
		 "sigma_profile": "yes", 
		 "theory": "DFT", 
		 "functional": "B3LYP", 
		 "basiset": "6-31G**", 
		 "properties": { 
			 "R2extent": 5846.3135, 
			 "electric_dipole_moment_norm": 0.750157510127, 
			 "electric_quadrupole_moment_norm": 12.8462170229, 
			 "total_energy": -1161.9825826, 
			 "HOMO_LUMO_gap": 0.17949, 
			 "cosmo_polarized_energy": -9.31, 
			 "cosmo_cavitation_energy": 32.28, 
			 "cosmo_dispersion_energy": -23.57, 
			 "cosmo_repulsion_energy": 1.83, 
			 "cosmo_total_nonelectrostatic_energy": 10.54, 
			 "SMD_solvation_energy": 4.32 
		},
		"coords": [
			{
				"x": -1.5403070013,
				"y": 3.0109352949,
				"z": 1.933901366,
				"element": "C" 
			},
			{
				"x": -1.0683814273,
				"y": 2.5600527531,
				"z": 0.5601027584,
				"element": "C" 
			},
			{
				"x": -0.7253882444,
				"y": 1.1512469985,
				"z": 0.5567939867,
				"element": "O" 
			},
			{
				"x": 0.5171000671,
				"y": 0.8344436907,
				"z": 0.9545404161,
				"element": "C" 
			},
			{
				"x": 1.3380278418,
				"y": 1.6572808345,
				"z": 1.3201077515,
				"element": "O" 
			},
			{
				"x": 0.8096681278,
				"y": -0.6322486043,
				"z": 0.9260892775,
				"element": "C" 
			},
			{
				"x": 0.0269880636,
				"y": -1.6632513357,
				"z": 0.3873627857,
				"element": "C" 
			},
			{
				"x": -1.5064130966,
				"y": -1.4528839272,
				"z": -0.4165870014,
				"element": "Cl" 
			},
			{
				"x": 0.5172887208,
				"y": -2.9723746196,
				"z": 0.4821453784,
				"element": "C" 
			},
			{
				"x": 1.7710088707,
				"y": -3.1606136263,
				"z": 1.117528618,
				"element": "C" 
			},
			{
				"x": 2.554470059,
				"y": -2.2086190034,
				"z": 1.6424293691,
				"element": "N" 
			},
			{
				"x": 2.0563679852,
				"y": -0.9874943748,
				"z": 1.5295739278,
				"element": "C" 
			},
			{
				"x": 2.0239264602,
				"y": -4.4972928268,
				"z": 1.0841371644,
				"element": "N" 
			},
			{
				"x": 3.1855866433,
				"y": -5.1906678078,
				"z": 1.6059656339,
				"element": "C" 
			},
			{
				"x": 1.0178794632,
				"y": -5.180274975,
				"z": 0.4700671276,
				"element": "N" 
			},
			{
				"x": 0.1147006752,
				"y": -4.2860619807,
				"z": 0.1055197844,
				"element": "C" 
			},
			{
				"x": -1.8701440878,
				"y": 4.0541202889,
				"z": 1.8867654175,
				"element": "H" 
			},
			{
				"x": -2.3805519211,
				"y": 2.4001957059,
				"z": 2.2767410553,
				"element": "H" 
			},
			{
				"x": -0.7286149715,
				"y": 2.9406107108,
				"z": 2.6617417811,
				"element": "H" 
			},
			{
				"x": -1.863595115,
				"y": 2.6406668503,
				"z": -0.1843421625,
				"element": "H" 
			},
			{
				"x": -0.1995534061,
				"y": 3.1343869366,
				"z": 0.2311289412,
				"element": "H" 
			},
			{
				"x": 2.6478985453,
				"y": -0.1709933931,
				"z": 1.9322055713,
				"element": "H" 
			},
			{
				"x": 2.8819045905,
				"y": -5.9130126885,
				"z": 2.3679835218,
				"element": "H" 
			},
			{
				"x": 3.704314036,
				"y": -5.7155438819,
				"z": 0.7996763909,
				"element": "H" 
			},
			{
				"x": 3.8461551214,
				"y": -4.4431773993,
				"z": 2.0463127838,
				"element": "H" 
			},
			{
				"x": -0.7850359998,
				"y": -4.5969296199,
				"z": -0.4061916446,
				"element": "H" 
			}
		],
		 "valence_orbital": [ 
			{
				"type": "occ",
				"energy": -0.29742,
				"method": "rhf"
			},
			{
				"type": "occ",
				"energy": -0.28669,
				"method": "rhf"
			},
			{
				"type": "occ",
				"energy": -0.27595,
				"method": "rhf"
			},
			{
				"type": "occ",
				"energy": -0.263,
				"method": "rhf"
			},
			{
				"type": "occ",
				"energy": -0.24574,
				"method": "rhf"
			},
			{
				"type": "unocc",
				"energy": -0.06625,
				"method": "rhf"
			},
			{
				"type": "unocc",
				"energy": -0.03734,
				"method": "rhf"
			},
			{
				"type": "unocc",
				"energy": 0.0207,
				"method": "rhf"
			},
			{
				"type": "unocc",
				"energy": 0.02955,
				"method": "rhf"
			},
			{
				"type": "unocc",
				"energy": 0.06023,
				"method": "rhf"
			}
		],
		"cosmo_sigma_profile": { 
			"-0.025": 0.0,
			"-0.024": 0.0,
			"-0.023": 0.0,
			"-0.022": 0.0,
			"-0.021": 0.0,
			"-0.02": 0.0,
			"-0.019": 0.0,
			"-0.018": 0.0,
			"-0.017": 0.0,
			"-0.016": 0.0,
			"-0.015": 0.0,
			"-0.014": 0.0,
			"-0.013": 0.0,
			"-0.012": 0.0,
			"-0.011": 0.0,
			"-0.01": 0.0,
			"-0.009": 0.568976609375,
			"-0.008": 1.42632761726,
			"-0.007": 3.37118373013,
			"-0.006": 10.0127295504,
			"-0.005": 13.7032678759,
			"-0.004": 22.0657257089,
			"-0.003": 29.3794785834,
			"-0.002": 30.1921000311,
			"-0.001": 34.879960045,
			"0.0": 25.1479683816,
			"0.001": 15.8869960825,
			"0.002": 14.0044951411,
			"0.003": 11.9411137845,
			"0.004": 8.60212958358,
			"0.005": 6.41316414548,
			"0.006": 6.70196115923,
			"0.007": 4.50975828408,
			"0.008": 3.89299507357,
			"0.009": 2.80792966706,
			"0.01": 4.55769734816,
			"0.011": 5.16471723471,
			"0.012": 3.3696024436,
			"0.013": 1.27946705918,
			"0.014": 0.575711180161,
			"0.015": 0.00132956406291,
			"0.016": 0.0,
			"0.017": 0.0,
			"0.018": 0.0,
			"0.019": 0.0,
			"0.02": 0.0,
			"0.021": 0.0,
			"0.022": 0.0,
			"0.023": 0.0,
			"0.024": 0.0,
			"0.025": 0.0
		}
	}
}
