{
	 "smiles": "CN1N=CC(CN)=C1C", 
	 "Tm": 312.15, 
	 "num_atms": 20, 
	 "gaussian": { 
		 "optdone": 1, 
		 "sigma_profile": "yes", 
		 "theory": "DFT", 
		 "functional": "B3LYP", 
		 "basiset": "6-31G**", 
		 "properties": { 
			 "R2extent": 1560.6647, 
			 "electric_dipole_moment_norm": 1.77919776585, 
			 "electric_quadrupole_moment_norm": 9.69701018923, 
			 "total_energy": -399.502525541, 
			 "HOMO_LUMO_gap": 0.24708, 
			 "cosmo_polarized_energy": -9.71, 
			 "cosmo_cavitation_energy": 22.72, 
			 "cosmo_dispersion_energy": -16.66, 
			 "cosmo_repulsion_energy": 1.39, 
			 "cosmo_total_nonelectrostatic_energy": 7.46, 
			 "SMD_solvation_energy": 2.6 
		},
		"coords": [
			{
				"x": 1.6668508067,
				"y": 0.5019654536,
				"z": -2.5879186071,
				"element": "C" 
			},
			{
				"x": 0.7528691155,
				"y": 0.2717321945,
				"z": -1.4865008582,
				"element": "N" 
			},
			{
				"x": 0.8697407723,
				"y": 1.0162620939,
				"z": -0.3595367792,
				"element": "N" 
			},
			{
				"x": -0.0905605145,
				"y": 0.55473683,
				"z": 0.4387374763,
				"element": "C" 
			},
			{
				"x": -0.8359435405,
				"y": -0.4857232453,
				"z": -0.1601934,
				"element": "C" 
			},
			{
				"x": -1.995837562,
				"y": -1.236786818,
				"z": 0.4284946879,
				"element": "C" 
			},
			{
				"x": -1.7915317466,
				"y": -2.6943905835,
				"z": 0.3524669376,
				"element": "N" 
			},
			{
				"x": -0.2553303961,
				"y": -0.6462189828,
				"z": -1.4158181369,
				"element": "C" 
			},
			{
				"x": -0.5866015617,
				"y": -1.5812140167,
				"z": -2.5354745591,
				"element": "C" 
			},
			{
				"x": 2.2686830451,
				"y": -0.3890703046,
				"z": -2.7969607613,
				"element": "H" 
			},
			{
				"x": 1.1264417973,
				"y": 0.7832009857,
				"z": -3.4978013272,
				"element": "H" 
			},
			{
				"x": 2.324245592,
				"y": 1.3184168044,
				"z": -2.2915780789,
				"element": "H" 
			},
			{
				"x": -0.2210791716,
				"y": 0.984852035,
				"z": 1.4242579568,
				"element": "H" 
			},
			{
				"x": -2.1608305511,
				"y": -0.8614641987,
				"z": 1.4532607261,
				"element": "H" 
			},
			{
				"x": -2.917685706,
				"y": -1.0143651012,
				"z": -0.1264788319,
				"element": "H" 
			},
			{
				"x": -0.9612039538,
				"y": -2.9442482245,
				"z": 0.8850712799,
				"element": "H" 
			},
			{
				"x": -2.5753092349,
				"y": -3.1757654053,
				"z": 0.7881999786,
				"element": "H" 
			},
			{
				"x": -1.0822681055,
				"y": -1.0660508896,
				"z": -3.368665533,
				"element": "H" 
			},
			{
				"x": -1.2496237807,
				"y": -2.3619401139,
				"z": -2.1585376702,
				"element": "H" 
			},
			{
				"x": 0.3103746962,
				"y": -2.064928513,
				"z": -2.9398245001,
				"element": "H" 
			}
		],
		 "valence_orbital": [ 
			{
				"type": "occ",
				"energy": -0.35882,
				"method": "rhf"
			},
			{
				"type": "occ",
				"energy": -0.27056,
				"method": "rhf"
			},
			{
				"type": "occ",
				"energy": -0.23671,
				"method": "rhf"
			},
			{
				"type": "occ",
				"energy": -0.23208,
				"method": "rhf"
			},
			{
				"type": "occ",
				"energy": -0.21747,
				"method": "rhf"
			},
			{
				"type": "unocc",
				"energy": 0.02961,
				"method": "rhf"
			},
			{
				"type": "unocc",
				"energy": 0.06777,
				"method": "rhf"
			},
			{
				"type": "unocc",
				"energy": 0.09318,
				"method": "rhf"
			},
			{
				"type": "unocc",
				"energy": 0.10712,
				"method": "rhf"
			},
			{
				"type": "unocc",
				"energy": 0.13016,
				"method": "rhf"
			}
		],
		"cosmo_sigma_profile": { 
			"-0.025": 0.0,
			"-0.024": 0.0,
			"-0.023": 0.0,
			"-0.022": 0.0,
			"-0.021": 0.0,
			"-0.02": 0.0,
			"-0.019": 0.0,
			"-0.018": 0.0,
			"-0.017": 0.0,
			"-0.016": 0.0,
			"-0.015": 0.0,
			"-0.014": 0.0,
			"-0.013": 0.0,
			"-0.012": 0.0,
			"-0.011": 0.0,
			"-0.01": 0.826985840156,
			"-0.009": 2.48406632331,
			"-0.008": 2.57549538119,
			"-0.007": 2.99318700169,
			"-0.006": 7.92372864177,
			"-0.005": 13.9137709646,
			"-0.004": 15.6038452589,
			"-0.003": 21.668192652,
			"-0.002": 19.7836101425,
			"-0.001": 14.487993953,
			"0.0": 15.0337098491,
			"0.001": 7.36259341994,
			"0.002": 5.55136973714,
			"0.003": 5.56111527952,
			"0.004": 6.93529278099,
			"0.005": 6.07752205702,
			"0.006": 6.85657652409,
			"0.007": 3.44354744167,
			"0.008": 3.01843554781,
			"0.009": 2.93033641313,
			"0.01": 1.96934269676,
			"0.011": 2.53251369506,
			"0.012": 2.42581925172,
			"0.013": 1.72521426652,
			"0.014": 1.50376322913,
			"0.015": 1.72986161514,
			"0.016": 0.622546463538,
			"0.017": 0.41180322469,
			"0.018": 0.0,
			"0.019": 0.0,
			"0.02": 0.0,
			"0.021": 0.0,
			"0.022": 0.0,
			"0.023": 0.0,
			"0.024": 0.0,
			"0.025": 0.0
		}
	}
}
