{
	 "smiles": "O=C1COC2=C(N1)C=CC=N2", 
	 "Tm": 528.15, 
	 "num_atms": 17, 
	 "gaussian": { 
		 "optdone": 1, 
		 "sigma_profile": "yes", 
		 "theory": "DFT", 
		 "functional": "B3LYP", 
		 "basiset": "6-31G**", 
		 "properties": { 
			 "R2extent": 1731.6667, 
			 "electric_dipole_moment_norm": 3.30259880397, 
			 "electric_quadrupole_moment_norm": 8.44349041511, 
			 "total_energy": -530.3114342, 
			 "HOMO_LUMO_gap": 0.19394, 
			 "cosmo_polarized_energy": -15.14, 
			 "cosmo_cavitation_energy": 21.29, 
			 "cosmo_dispersion_energy": -16.44, 
			 "cosmo_repulsion_energy": 1.31, 
			 "cosmo_total_nonelectrostatic_energy": 6.15, 
			 "SMD_solvation_energy": 3.1 
		},
		"coords": [
			{
				"x": 0.9072689918,
				"y": -0.6644157959,
				"z": 2.9307471436,
				"element": "O" 
			},
			{
				"x": 0.6933905656,
				"y": -0.0709984966,
				"z": 1.8886550846,
				"element": "C" 
			},
			{
				"x": 0.3034178247,
				"y": 1.404315102,
				"z": 1.8447270482,
				"element": "C" 
			},
			{
				"x": -0.4713489854,
				"y": 1.786104625,
				"z": 0.7061071636,
				"element": "O" 
			},
			{
				"x": -0.0603014081,
				"y": 1.2899492865,
				"z": -0.4961238273,
				"element": "C" 
			},
			{
				"x": 0.6131361698,
				"y": 0.0504879742,
				"z": -0.5493062017,
				"element": "C" 
			},
			{
				"x": 0.8381166257,
				"y": -0.6430428947,
				"z": 0.6485980443,
				"element": "N" 
			},
			{
				"x": 0.9854934403,
				"y": -0.4348837885,
				"z": -1.7981447681,
				"element": "C" 
			},
			{
				"x": 0.6578623452,
				"y": 0.3108815136,
				"z": -2.9338199337,
				"element": "C" 
			},
			{
				"x": -0.0271293612,
				"y": 1.5105402776,
				"z": -2.765405677,
				"element": "C" 
			},
			{
				"x": -0.3766395484,
				"y": 1.9971529786,
				"z": -1.5638741495,
				"element": "N" 
			},
			{
				"x": 1.2250554979,
				"y": 2.0039956501,
				"z": 1.895666898,
				"element": "H" 
			},
			{
				"x": -0.2995676144,
				"y": 1.6251662486,
				"z": 2.7253141031,
				"element": "H" 
			},
			{
				"x": 1.1588593059,
				"y": -1.6030552375,
				"z": 0.6296397025,
				"element": "H" 
			},
			{
				"x": 1.5088343121,
				"y": -1.3839274084,
				"z": -1.8799182235,
				"element": "H" 
			},
			{
				"x": 0.9273739428,
				"y": -0.038695372,
				"z": -3.9244304564,
				"element": "H" 
			},
			{
				"x": -0.3107221043,
				"y": 2.1144253374,
				"z": -3.6240319509,
				"element": "H" 
			}
		],
		 "valence_orbital": [ 
			{
				"type": "occ",
				"energy": -0.33512,
				"method": "rhf"
			},
			{
				"type": "occ",
				"energy": -0.28045,
				"method": "rhf"
			},
			{
				"type": "occ",
				"energy": -0.27241,
				"method": "rhf"
			},
			{
				"type": "occ",
				"energy": -0.26575,
				"method": "rhf"
			},
			{
				"type": "occ",
				"energy": -0.22808,
				"method": "rhf"
			},
			{
				"type": "unocc",
				"energy": -0.03414,
				"method": "rhf"
			},
			{
				"type": "unocc",
				"energy": -0.01995,
				"method": "rhf"
			},
			{
				"type": "unocc",
				"energy": 0.01984,
				"method": "rhf"
			},
			{
				"type": "unocc",
				"energy": 0.0706,
				"method": "rhf"
			},
			{
				"type": "unocc",
				"energy": 0.09091,
				"method": "rhf"
			}
		],
		"cosmo_sigma_profile": { 
			"-0.025": 0.0,
			"-0.024": 0.0,
			"-0.023": 0.0,
			"-0.022": 0.0,
			"-0.021": 0.0,
			"-0.02": 0.0,
			"-0.019": 0.0,
			"-0.018": 0.0,
			"-0.017": 0.0456398551941,
			"-0.016": 0.89149478048,
			"-0.015": 1.34065697389,
			"-0.014": 1.62427415334,
			"-0.013": 1.12127955894,
			"-0.012": 0.723594153398,
			"-0.011": 1.37448453703,
			"-0.01": 1.27116195157,
			"-0.009": 2.42268747611,
			"-0.008": 7.79777098397,
			"-0.007": 8.97566615053,
			"-0.006": 11.1741328395,
			"-0.005": 11.6621297875,
			"-0.004": 9.41449927203,
			"-0.003": 8.10711701569,
			"-0.002": 8.5655576456,
			"-0.001": 10.0379147842,
			"0.0": 11.3740536293,
			"0.001": 9.98102292902,
			"0.002": 9.77451672531,
			"0.003": 9.23046958711,
			"0.004": 4.33992040467,
			"0.005": 3.42663285011,
			"0.006": 2.81088195306,
			"0.007": 3.46020766477,
			"0.008": 3.57703881757,
			"0.009": 3.14658487426,
			"0.01": 4.02668114214,
			"0.011": 4.18804876989,
			"0.012": 6.73043555327,
			"0.013": 5.06180304939,
			"0.014": 1.52290112277,
			"0.015": 0.994942542686,
			"0.016": 0.561642062672,
			"0.017": 0.0,
			"0.018": 0.0,
			"0.019": 0.0,
			"0.02": 0.0,
			"0.021": 0.0,
			"0.022": 0.0,
			"0.023": 0.0,
			"0.024": 0.0,
			"0.025": 0.0
		}
	}
}
