{
	 "smiles": "CC1=C(Br)C=CC(=C1)N1CCCC1=O", 
	 "Tm": 381.15, 
	 "num_atms": 26, 
	 "gaussian": { 
		 "optdone": 1, 
		 "sigma_profile": "yes", 
		 "theory": "DFT", 
		 "functional": "B3LYP", 
		 "basiset": "6-31G**", 
		 "properties": { 
			 "R2extent": 7238.3198, 
			 "electric_dipole_moment_norm": 4.78236330385, 
			 "electric_quadrupole_moment_norm": 5.91840963351, 
			 "total_energy": -3127.81208947, 
			 "HOMO_LUMO_gap": 0.19651, 
			 "cosmo_polarized_energy": -10.41, 
			 "cosmo_cavitation_energy": 30.61, 
			 "cosmo_dispersion_energy": -23.14, 
			 "cosmo_repulsion_energy": 1.81, 
			 "cosmo_total_nonelectrostatic_energy": 9.27, 
			 "SMD_solvation_energy": 4.03 
		},
		"coords": [
			{
				"x": -0.060106632,
				"y": 4.6256215236,
				"z": -1.0876380511,
				"element": "C" 
			},
			{
				"x": 0.6457692452,
				"y": 3.3053850621,
				"z": -0.9129829307,
				"element": "C" 
			},
			{
				"x": 1.8362389119,
				"y": 2.9940957028,
				"z": -1.5799556101,
				"element": "C" 
			},
			{
				"x": 2.6411253394,
				"y": 4.2675170791,
				"z": -2.7661125929,
				"element": "Br" 
			},
			{
				"x": 2.4649393188,
				"y": 1.7635435291,
				"z": -1.4052706235,
				"element": "C" 
			},
			{
				"x": 1.925677005,
				"y": 0.8054180753,
				"z": -0.5535893897,
				"element": "C" 
			},
			{
				"x": 0.7323764134,
				"y": 1.0834357923,
				"z": 0.1360215277,
				"element": "C" 
			},
			{
				"x": 0.1144651293,
				"y": 2.3294933064,
				"z": -0.0604774482,
				"element": "C" 
			},
			{
				"x": 0.1503220896,
				"y": 0.1510926632,
				"z": 1.0259851772,
				"element": "N" 
			},
			{
				"x": -0.9900768894,
				"y": 0.512422786,
				"z": 1.8778825376,
				"element": "C" 
			},
			{
				"x": -1.1022790538,
				"y": -0.6599817615,
				"z": 2.8683998492,
				"element": "C" 
			},
			{
				"x": -0.5225713907,
				"y": -1.8433143566,
				"z": 2.0883759914,
				"element": "C" 
			},
			{
				"x": 0.455855623,
				"y": -1.2054510791,
				"z": 1.1055248477,
				"element": "C" 
			},
			{
				"x": 1.3297145853,
				"y": -1.7921071351,
				"z": 0.4905051358,
				"element": "O" 
			},
			{
				"x": -0.3343671492,
				"y": 4.7929634964,
				"z": -2.1345939003,
				"element": "H" 
			},
			{
				"x": -0.9700546264,
				"y": 4.6646770853,
				"z": -0.4834075939,
				"element": "H" 
			},
			{
				"x": 0.5841326158,
				"y": 5.4613141012,
				"z": -0.7942929325,
				"element": "H" 
			},
			{
				"x": 3.3857187637,
				"y": 1.550844103,
				"z": -1.9367278397,
				"element": "H" 
			},
			{
				"x": 2.4096570841,
				"y": -0.1516247481,
				"z": -0.4274106625,
				"element": "H" 
			},
			{
				"x": -0.8137153941,
				"y": 2.5633727137,
				"z": 0.447735347,
				"element": "H" 
			},
			{
				"x": -1.9020412307,
				"y": 0.6229571015,
				"z": 1.2741102985,
				"element": "H" 
			},
			{
				"x": -0.8034242622,
				"y": 1.4657742544,
				"z": 2.3806690957,
				"element": "H" 
			},
			{
				"x": -2.1306662504,
				"y": -0.8127886319,
				"z": 3.2036428438,
				"element": "H" 
			},
			{
				"x": -0.4889718522,
				"y": -0.4548821581,
				"z": 3.751417786,
				"element": "H" 
			},
			{
				"x": -0.0092248762,
				"y": -2.5887353856,
				"z": 2.6988699845,
				"element": "H" 
			},
			{
				"x": -1.289292517,
				"y": -2.3685431193,
				"z": 1.5048191532,
				"element": "H" 
			}
		],
		 "valence_orbital": [ 
			{
				"type": "occ",
				"energy": -0.2811,
				"method": "rhf"
			},
			{
				"type": "occ",
				"energy": -0.2764,
				"method": "rhf"
			},
			{
				"type": "occ",
				"energy": -0.25443,
				"method": "rhf"
			},
			{
				"type": "occ",
				"energy": -0.2502,
				"method": "rhf"
			},
			{
				"type": "occ",
				"energy": -0.21503,
				"method": "rhf"
			},
			{
				"type": "unocc",
				"energy": -0.01852,
				"method": "rhf"
			},
			{
				"type": "unocc",
				"energy": -0.00601,
				"method": "rhf"
			},
			{
				"type": "unocc",
				"energy": 0.01525,
				"method": "rhf"
			},
			{
				"type": "unocc",
				"energy": 0.03517,
				"method": "rhf"
			},
			{
				"type": "unocc",
				"energy": 0.07588,
				"method": "rhf"
			}
		],
		"cosmo_sigma_profile": { 
			"-0.025": 0.0,
			"-0.024": 0.0,
			"-0.023": 0.0,
			"-0.022": 0.0,
			"-0.021": 0.0,
			"-0.02": 0.0,
			"-0.019": 0.0,
			"-0.018": 0.0,
			"-0.017": 0.0,
			"-0.016": 0.0,
			"-0.015": 0.0,
			"-0.014": 0.0,
			"-0.013": 0.0,
			"-0.012": 0.0,
			"-0.011": 0.0,
			"-0.01": 0.0,
			"-0.009": 0.0,
			"-0.008": 0.0,
			"-0.007": 2.08356748953,
			"-0.006": 10.4771210379,
			"-0.005": 20.7179218319,
			"-0.004": 29.607590855,
			"-0.003": 22.7947632965,
			"-0.002": 20.7231563767,
			"-0.001": 21.311430352,
			"0.0": 18.3595317474,
			"0.001": 13.8474974277,
			"0.002": 16.1615459135,
			"0.003": 19.113469992,
			"0.004": 21.9667861205,
			"0.005": 10.5912513337,
			"0.006": 2.00696380177,
			"0.007": 1.85343958582,
			"0.008": 1.80718887779,
			"0.009": 1.28710810569,
			"0.01": 1.75618540672,
			"0.011": 1.95400050295,
			"0.012": 3.16278855338,
			"0.013": 2.72069227389,
			"0.014": 1.48421097248,
			"0.015": 0.0471986151665,
			"0.016": 0.0,
			"0.017": 0.0,
			"0.018": 0.0,
			"0.019": 0.0,
			"0.02": 0.0,
			"0.021": 0.0,
			"0.022": 0.0,
			"0.023": 0.0,
			"0.024": 0.0,
			"0.025": 0.0
		}
	}
}
