{
	 "smiles": "OC(=O)CSC1=NC=CS1", 
	 "Tm": 425.15, 
	 "num_atms": 15, 
	 "gaussian": { 
		 "optdone": 1, 
		 "sigma_profile": "yes", 
		 "theory": "DFT", 
		 "functional": "B3LYP", 
		 "basiset": "6-31G**", 
		 "properties": { 
			 "R2extent": 2352.3438, 
			 "electric_dipole_moment_norm": 6.253919503, 
			 "electric_quadrupole_moment_norm": 11.6811654936, 
			 "total_energy": -1195.11455411, 
			 "HOMO_LUMO_gap": 0.18618, 
			 "cosmo_polarized_energy": -12.9, 
			 "cosmo_cavitation_energy": 22.65, 
			 "cosmo_dispersion_energy": -17.92, 
			 "cosmo_repulsion_energy": 1.35, 
			 "cosmo_total_nonelectrostatic_energy": 6.08, 
			 "SMD_solvation_energy": 4.58 
		},
		"coords": [
			{
				"x": -1.7834401826,
				"y": -0.0219923079,
				"z": 1.099442405,
				"element": "O" 
			},
			{
				"x": -2.3558447747,
				"y": -0.7549201538,
				"z": 0.1415499954,
				"element": "C" 
			},
			{
				"x": -3.5027642552,
				"y": -1.1317177145,
				"z": 0.2059138735,
				"element": "O" 
			},
			{
				"x": -1.464076326,
				"y": -1.1415694032,
				"z": -1.0485705296,
				"element": "C" 
			},
			{
				"x": -0.90494448,
				"y": 0.2524294688,
				"z": -2.1212542621,
				"element": "S" 
			},
			{
				"x": 0.4902929749,
				"y": 0.8314303426,
				"z": -1.216243913,
				"element": "C" 
			},
			{
				"x": 0.6718817971,
				"y": 0.6720344457,
				"z": 0.070799478,
				"element": "N" 
			},
			{
				"x": 1.8501576747,
				"y": 1.2530928376,
				"z": 0.4911678444,
				"element": "C" 
			},
			{
				"x": 2.5745524873,
				"y": 1.8769273161,
				"z": -0.4769058312,
				"element": "C" 
			},
			{
				"x": 1.7759655858,
				"y": 1.7174595236,
				"z": -2.0139554132,
				"element": "S" 
			},
			{
				"x": -0.8419422672,
				"y": 0.1945709094,
				"z": 0.8718360898,
				"element": "H" 
			},
			{
				"x": -0.5744607662,
				"y": -1.6843228023,
				"z": -0.7163795884,
				"element": "H" 
			},
			{
				"x": -2.053120373,
				"y": -1.7779294948,
				"z": -1.7093069702,
				"element": "H" 
			},
			{
				"x": 2.1205133504,
				"y": 1.1940929224,
				"z": 1.5380712537,
				"element": "H" 
			},
			{
				"x": 3.5077295547,
				"y": 2.4132141102,
				"z": -0.3843644322,
				"element": "H" 
			}
		],
		 "valence_orbital": [ 
			{
				"type": "occ",
				"energy": -0.31664,
				"method": "rhf"
			},
			{
				"type": "occ",
				"energy": -0.3094,
				"method": "rhf"
			},
			{
				"type": "occ",
				"energy": -0.29998,
				"method": "rhf"
			},
			{
				"type": "occ",
				"energy": -0.26476,
				"method": "rhf"
			},
			{
				"type": "occ",
				"energy": -0.24285,
				"method": "rhf"
			},
			{
				"type": "unocc",
				"energy": -0.05667,
				"method": "rhf"
			},
			{
				"type": "unocc",
				"energy": -0.02205,
				"method": "rhf"
			},
			{
				"type": "unocc",
				"energy": -0.00908,
				"method": "rhf"
			},
			{
				"type": "unocc",
				"energy": 0.01773,
				"method": "rhf"
			},
			{
				"type": "unocc",
				"energy": 0.02729,
				"method": "rhf"
			}
		],
		"cosmo_sigma_profile": { 
			"-0.025": 0.0,
			"-0.024": 0.0,
			"-0.023": 0.0,
			"-0.022": 0.0,
			"-0.021": 0.0,
			"-0.02": 0.0,
			"-0.019": 0.0,
			"-0.018": 0.0,
			"-0.017": 0.0,
			"-0.016": 0.0,
			"-0.015": 0.0,
			"-0.014": 0.0,
			"-0.013": 0.0,
			"-0.012": 0.0,
			"-0.011": 0.0656140938568,
			"-0.01": 1.89334612488,
			"-0.009": 6.07381793891,
			"-0.008": 8.09933805107,
			"-0.007": 8.47313535109,
			"-0.006": 8.4575398924,
			"-0.005": 9.36866224487,
			"-0.004": 10.1361672087,
			"-0.003": 10.7153044327,
			"-0.002": 11.6978577502,
			"-0.001": 16.1075240155,
			"0.0": 17.9994666979,
			"0.001": 17.4366199338,
			"0.002": 13.7843340732,
			"0.003": 7.64258379275,
			"0.004": 5.14657673461,
			"0.005": 3.98197110598,
			"0.006": 3.23997323139,
			"0.007": 1.33491097786,
			"0.008": 2.76087538102,
			"0.009": 3.14041021587,
			"0.01": 3.8248544322,
			"0.011": 5.89732172519,
			"0.012": 6.54197592097,
			"0.013": 2.41874840687,
			"0.014": 0.226258280167,
			"0.015": 0.0,
			"0.016": 0.0,
			"0.017": 0.0,
			"0.018": 0.0,
			"0.019": 0.0,
			"0.02": 0.0,
			"0.021": 0.0,
			"0.022": 0.0,
			"0.023": 0.0,
			"0.024": 0.0,
			"0.025": 0.0
		}
	}
}
