{
	 "smiles": "NC1=CC=CC2=C1C=CC=C2N", 
	 "Tm": 463.15, 
	 "num_atms": 22, 
	 "gaussian": { 
		 "optdone": 1, 
		 "sigma_profile": "yes", 
		 "theory": "DFT", 
		 "functional": "B3LYP", 
		 "basiset": "6-31G**", 
		 "properties": { 
			 "R2extent": 2221.9903, 
			 "electric_dipole_moment_norm": 2.23595881223, 
			 "electric_quadrupole_moment_norm": 14.0546523475, 
			 "total_energy": -496.608646172, 
			 "HOMO_LUMO_gap": 0.15811, 
			 "cosmo_polarized_energy": -13.09, 
			 "cosmo_cavitation_energy": 24.67, 
			 "cosmo_dispersion_energy": -18.89, 
			 "cosmo_repulsion_energy": 1.48, 
			 "cosmo_total_nonelectrostatic_energy": 7.26, 
			 "SMD_solvation_energy": 3.78 
		},
		"coords": [
			{
				"x": -0.5165966666,
				"y": -0.9722331025,
				"z": 3.1903692807,
				"element": "N" 
			},
			{
				"x": 0.2208723354,
				"y": -0.2050839223,
				"z": 2.2804950352,
				"element": "C" 
			},
			{
				"x": 1.5652082087,
				"y": 0.0551291566,
				"z": 2.4972870554,
				"element": "C" 
			},
			{
				"x": 2.2963873068,
				"y": 0.8690908213,
				"z": 1.6101774118,
				"element": "C" 
			},
			{
				"x": 1.7048727813,
				"y": 1.3906702257,
				"z": 0.4811469148,
				"element": "C" 
			},
			{
				"x": 0.3337921183,
				"y": 1.1351938647,
				"z": 0.2101450526,
				"element": "C" 
			},
			{
				"x": -0.4404703793,
				"y": 0.3640382392,
				"z": 1.1380105029,
				"element": "C" 
			},
			{
				"x": -1.8333051788,
				"y": 0.1911471075,
				"z": 0.9175453856,
				"element": "C" 
			},
			{
				"x": -2.4293892338,
				"y": 0.7297383044,
				"z": -0.2010424224,
				"element": "C" 
			},
			{
				"x": -1.6693178127,
				"y": 1.4340543812,
				"z": -1.1551777291,
				"element": "C" 
			},
			{
				"x": -0.311089862,
				"y": 1.6414957925,
				"z": -0.9706693538,
				"element": "C" 
			},
			{
				"x": 0.4323262678,
				"y": 2.3857718383,
				"z": -1.8948780122,
				"element": "N" 
			},
			{
				"x": -1.2079382722,
				"y": -1.5778850822,
				"z": 2.7680123899,
				"element": "H" 
			},
			{
				"x": 0.0579679656,
				"y": -1.4856824687,
				"z": 3.8457035703,
				"element": "H" 
			},
			{
				"x": 2.0581459017,
				"y": -0.3740548105,
				"z": 3.3665861417,
				"element": "H" 
			},
			{
				"x": 3.342014953,
				"y": 1.0753767219,
				"z": 1.8208757563,
				"element": "H" 
			},
			{
				"x": 2.277596378,
				"y": 2.0367360747,
				"z": -0.1750107116,
				"element": "H" 
			},
			{
				"x": -2.4403739347,
				"y": -0.3242723037,
				"z": 1.6536141495,
				"element": "H" 
			},
			{
				"x": -3.4967074147,
				"y": 0.6057133654,
				"z": -0.3614259703,
				"element": "H" 
			},
			{
				"x": -2.1520273842,
				"y": 1.8244202571,
				"z": -2.0481955496,
				"element": "H" 
			},
			{
				"x": -0.0454448299,
				"y": 2.5310151668,
				"z": -2.7746392775,
				"element": "H" 
			},
			{
				"x": 1.3726767523,
				"y": 2.0465203725,
				"z": -2.0495296204,
				"element": "H" 
			}
		],
		 "valence_orbital": [ 
			{
				"type": "occ",
				"energy": -0.30049,
				"method": "rhf"
			},
			{
				"type": "occ",
				"energy": -0.29174,
				"method": "rhf"
			},
			{
				"type": "occ",
				"energy": -0.23286,
				"method": "rhf"
			},
			{
				"type": "occ",
				"energy": -0.21589,
				"method": "rhf"
			},
			{
				"type": "occ",
				"energy": -0.17573,
				"method": "rhf"
			},
			{
				"type": "unocc",
				"energy": -0.01762,
				"method": "rhf"
			},
			{
				"type": "unocc",
				"energy": 0.00179,
				"method": "rhf"
			},
			{
				"type": "unocc",
				"energy": 0.06028,
				"method": "rhf"
			},
			{
				"type": "unocc",
				"energy": 0.07816,
				"method": "rhf"
			},
			{
				"type": "unocc",
				"energy": 0.08767,
				"method": "rhf"
			}
		],
		"cosmo_sigma_profile": { 
			"-0.025": 0.0,
			"-0.024": 0.0,
			"-0.023": 0.0,
			"-0.022": 0.0,
			"-0.021": 0.0,
			"-0.02": 0.0,
			"-0.019": 0.0,
			"-0.018": 0.0,
			"-0.017": 0.0,
			"-0.016": 0.0,
			"-0.015": 0.0,
			"-0.014": 0.0,
			"-0.013": 0.0562845092047,
			"-0.012": 3.13733820551,
			"-0.011": 5.87210646233,
			"-0.01": 5.31959925508,
			"-0.009": 6.44012996924,
			"-0.008": 5.98621817454,
			"-0.007": 4.5928840714,
			"-0.006": 7.39812359556,
			"-0.005": 10.5069576184,
			"-0.004": 11.5891673484,
			"-0.003": 12.8554740148,
			"-0.002": 10.6041958806,
			"-0.001": 8.81925852001,
			"0.0": 8.61202183289,
			"0.001": 6.91676885616,
			"0.002": 8.31030744537,
			"0.003": 8.49830855409,
			"0.004": 10.2201981681,
			"0.005": 16.6220433351,
			"0.006": 21.4101390693,
			"0.007": 11.7330797898,
			"0.008": 1.68173800252,
			"0.009": 1.52525287368,
			"0.01": 1.50703467595,
			"0.011": 1.47081836939,
			"0.012": 1.3675955047,
			"0.013": 1.29992428649,
			"0.014": 1.03935661416,
			"0.015": 0.737166359712,
			"0.016": 0.00665763877099,
			"0.017": 0.0,
			"0.018": 0.0,
			"0.019": 0.0,
			"0.02": 0.0,
			"0.021": 0.0,
			"0.022": 0.0,
			"0.023": 0.0,
			"0.024": 0.0,
			"0.025": 0.0
		}
	}
}
