{
	 "smiles": "CC1=CC(=CC(C)=C1)C1(CCC1)C(O)=O", 
	 "Tm": 406.15, 
	 "num_atms": 31, 
	 "gaussian": { 
		 "optdone": 1, 
		 "sigma_profile": "yes", 
		 "theory": "DFT", 
		 "functional": "B3LYP", 
		 "basiset": "6-31G**", 
		 "properties": { 
			 "R2extent": 3761.6158, 
			 "electric_dipole_moment_norm": 1.70355861067, 
			 "electric_quadrupole_moment_norm": 5.12989855163, 
			 "total_energy": -655.479957978, 
			 "HOMO_LUMO_gap": 0.22276, 
			 "cosmo_polarized_energy": -9.76, 
			 "cosmo_cavitation_energy": 33.25, 
			 "cosmo_dispersion_energy": -23.19, 
			 "cosmo_repulsion_energy": 1.86, 
			 "cosmo_total_nonelectrostatic_energy": 11.93, 
			 "SMD_solvation_energy": 6.61 
		},
		"coords": [
			{
				"x": 1.3645078585,
				"y": 0.6276438924,
				"z": 4.26444563,
				"element": "C" 
			},
			{
				"x": 1.134273081,
				"y": -0.1685549854,
				"z": 3.0004486033,
				"element": "C" 
			},
			{
				"x": 1.1741767637,
				"y": 0.4574057355,
				"z": 1.7481596909,
				"element": "C" 
			},
			{
				"x": 0.9969966881,
				"y": -0.270454076,
				"z": 0.567521134,
				"element": "C" 
			},
			{
				"x": 0.7416885503,
				"y": -1.6456189239,
				"z": 0.6561026197,
				"element": "C" 
			},
			{
				"x": 0.6924977273,
				"y": -2.2986552435,
				"z": 1.8916864775,
				"element": "C" 
			},
			{
				"x": 0.4467540738,
				"y": -3.7878971053,
				"z": 1.968952573,
				"element": "C" 
			},
			{
				"x": 0.8942186237,
				"y": -1.5451372024,
				"z": 3.0543883801,
				"element": "C" 
			},
			{
				"x": 0.9873074385,
				"y": 0.4101311751,
				"z": -0.8038245854,
				"element": "C" 
			},
			{
				"x": 1.9566700618,
				"y": 1.6291662048,
				"z": -0.9784498217,
				"element": "C" 
			},
			{
				"x": 2.9323573826,
				"y": 0.7095098274,
				"z": -1.7539849535,
				"element": "C" 
			},
			{
				"x": 1.7955027407,
				"y": -0.3302601678,
				"z": -1.9159558144,
				"element": "C" 
			},
			{
				"x": -0.4643190788,
				"y": 0.6765780723,
				"z": -1.1693428628,
				"element": "C" 
			},
			{
				"x": -0.9619277727,
				"y": 1.7542299005,
				"z": -0.5140904071,
				"element": "O" 
			},
			{
				"x": -1.1301083907,
				"y": 0.0209044109,
				"z": -1.9414066813,
				"element": "O" 
			},
			{
				"x": 2.4339221318,
				"y": 0.6973826347,
				"z": 4.5007884377,
				"element": "H" 
			},
			{
				"x": 0.8716176861,
				"y": 0.1648194149,
				"z": 5.1246345299,
				"element": "H" 
			},
			{
				"x": 0.9874915434,
				"y": 1.6504997662,
				"z": 4.1676108193,
				"element": "H" 
			},
			{
				"x": 1.3300415622,
				"y": 1.5310177618,
				"z": 1.7031380257,
				"element": "H" 
			},
			{
				"x": 0.5624590836,
				"y": -2.2155929012,
				"z": -0.2515507753,
				"element": "H" 
			},
			{
				"x": 1.3916838326,
				"y": -4.3457154823,
				"z": 1.9856103946,
				"element": "H" 
			},
			{
				"x": -0.1030641234,
				"y": -4.0564493711,
				"z": 2.8763197447,
				"element": "H" 
			},
			{
				"x": -0.1257862739,
				"y": -4.1440577481,
				"z": 1.1074584877,
				"element": "H" 
			},
			{
				"x": 0.8540986763,
				"y": -2.0403727821,
				"z": 4.0227015423,
				"element": "H" 
			},
			{
				"x": 1.5144086059,
				"y": 2.403120013,
				"z": -1.6114785289,
				"element": "H" 
			},
			{
				"x": 2.3306905477,
				"y": 2.1034780197,
				"z": -0.0692717432,
				"element": "H" 
			},
			{
				"x": 3.7390807316,
				"y": 0.3402293096,
				"z": -1.1144720817,
				"element": "H" 
			},
			{
				"x": 3.3714045652,
				"y": 1.1130163912,
				"z": -2.670209533,
				"element": "H" 
			},
			{
				"x": 2.0463245125,
				"y": -1.3757096691,
				"z": -1.7261236465,
				"element": "H" 
			},
			{
				"x": 1.2847751193,
				"y": -0.263633458,
				"z": -2.879209423,
				"element": "H" 
			},
			{
				"x": -1.8929439485,
				"y": 1.8260765864,
				"z": -0.7837962327,
				"element": "H" 
			}
		],
		 "valence_orbital": [ 
			{
				"type": "occ",
				"energy": -0.3086,
				"method": "rhf"
			},
			{
				"type": "occ",
				"energy": -0.3038,
				"method": "rhf"
			},
			{
				"type": "occ",
				"energy": -0.2705,
				"method": "rhf"
			},
			{
				"type": "occ",
				"energy": -0.23268,
				"method": "rhf"
			},
			{
				"type": "occ",
				"energy": -0.23241,
				"method": "rhf"
			},
			{
				"type": "unocc",
				"energy": -0.00965,
				"method": "rhf"
			},
			{
				"type": "unocc",
				"energy": 0.00303,
				"method": "rhf"
			},
			{
				"type": "unocc",
				"energy": 0.02886,
				"method": "rhf"
			},
			{
				"type": "unocc",
				"energy": 0.07675,
				"method": "rhf"
			},
			{
				"type": "unocc",
				"energy": 0.09662,
				"method": "rhf"
			}
		],
		"cosmo_sigma_profile": { 
			"-0.025": 0.0,
			"-0.024": 0.0,
			"-0.023": 0.0,
			"-0.022": 0.0,
			"-0.021": 0.0,
			"-0.02": 0.0,
			"-0.019": 0.0245022660292,
			"-0.018": 0.556389069787,
			"-0.017": 0.887105790695,
			"-0.016": 1.15175049083,
			"-0.015": 0.467205612431,
			"-0.014": 0.675516345764,
			"-0.013": 0.625317701053,
			"-0.012": 0.668482997131,
			"-0.011": 0.88255390379,
			"-0.01": 0.935179947618,
			"-0.009": 0.38387293227,
			"-0.008": 0.768410024906,
			"-0.007": 0.781689555299,
			"-0.006": 1.42468230621,
			"-0.005": 6.65025822454,
			"-0.004": 24.5540285594,
			"-0.003": 29.4824417709,
			"-0.002": 28.2131681457,
			"-0.001": 29.562147505,
			"0.0": 35.8152058038,
			"0.001": 25.1035598859,
			"0.002": 11.6150072007,
			"0.003": 9.56810706473,
			"0.004": 9.48286513641,
			"0.005": 8.37683271093,
			"0.006": 11.4491350685,
			"0.007": 4.84065049553,
			"0.008": 2.73516873017,
			"0.009": 2.74940209786,
			"0.01": 1.81475081399,
			"0.011": 3.44517496273,
			"0.012": 4.54791130237,
			"0.013": 0.614136164046,
			"0.014": 0.0,
			"0.015": 0.0,
			"0.016": 0.0,
			"0.017": 0.0,
			"0.018": 0.0,
			"0.019": 0.0,
			"0.02": 0.0,
			"0.021": 0.0,
			"0.022": 0.0,
			"0.023": 0.0,
			"0.024": 0.0,
			"0.025": 0.0
		}
	}
}
