{
	 "smiles": "CC(C(O)=O)C(O)(C1=CC=CC=C1)C1=CC=CC=C1", 
	 "Tm": 455.15, 
	 "num_atms": 35, 
	 "gaussian": { 
		 "optdone": 1, 
		 "sigma_profile": "yes", 
		 "theory": "DFT", 
		 "functional": "B3LYP", 
		 "basiset": "6-31G**", 
		 "properties": { 
			 "R2extent": 4545.049, 
			 "electric_dipole_moment_norm": 0.627542468682, 
			 "electric_quadrupole_moment_norm": 9.17731864326, 
			 "total_energy": -845.024846532, 
			 "HOMO_LUMO_gap": 0.2255, 
			 "cosmo_polarized_energy": -13.51, 
			 "cosmo_cavitation_energy": 36.71, 
			 "cosmo_dispersion_energy": -25.25, 
			 "cosmo_repulsion_energy": 1.95, 
			 "cosmo_total_nonelectrostatic_energy": 13.41, 
			 "SMD_solvation_energy": 7.27 
		},
		"coords": [
			{
				"x": -0.8303067882,
				"y": -2.9113613733,
				"z": 0.0736186586,
				"element": "C" 
			},
			{
				"x": -0.1600931772,
				"y": -1.7931755463,
				"z": 0.8888281498,
				"element": "C" 
			},
			{
				"x": -1.1895535441,
				"y": -1.1013418115,
				"z": 1.772925271,
				"element": "C" 
			},
			{
				"x": -0.785411818,
				"y": -1.0504645673,
				"z": 3.0604352505,
				"element": "O" 
			},
			{
				"x": -2.2717783786,
				"y": -0.6685951878,
				"z": 1.4266632309,
				"element": "O" 
			},
			{
				"x": 0.7635209518,
				"y": -0.8277315156,
				"z": 0.0311095305,
				"element": "C" 
			},
			{
				"x": 1.9130699067,
				"y": -1.6213604763,
				"z": -0.3050168432,
				"element": "O" 
			},
			{
				"x": 0.1583821186,
				"y": -0.268504337,
				"z": -1.2696614305,
				"element": "C" 
			},
			{
				"x": 1.0422467642,
				"y": 0.0449687888,
				"z": -2.3163784661,
				"element": "C" 
			},
			{
				"x": 0.5743817659,
				"y": 0.577579732,
				"z": -3.5167317046,
				"element": "C" 
			},
			{
				"x": -0.7896912151,
				"y": 0.8141524712,
				"z": -3.6956403001,
				"element": "C" 
			},
			{
				"x": -1.6743234982,
				"y": 0.5190785905,
				"z": -2.6592396031,
				"element": "C" 
			},
			{
				"x": -1.208530939,
				"y": -0.0155111906,
				"z": -1.4546152051,
				"element": "C" 
			},
			{
				"x": 1.2841736104,
				"y": 0.3038222734,
				"z": 0.9325572416,
				"element": "C" 
			},
			{
				"x": 2.472158676,
				"y": 0.1329984991,
				"z": 1.6554038178,
				"element": "C" 
			},
			{
				"x": 2.9320836821,
				"y": 1.1354856146,
				"z": 2.5102117579,
				"element": "C" 
			},
			{
				"x": 2.2111957545,
				"y": 2.3209145073,
				"z": 2.6599919126,
				"element": "C" 
			},
			{
				"x": 1.0267615797,
				"y": 2.4976991676,
				"z": 1.9438308749,
				"element": "C" 
			},
			{
				"x": 0.5682161738,
				"y": 1.498689242,
				"z": 1.0839645785,
				"element": "C" 
			},
			{
				"x": -1.6054269342,
				"y": -2.5288912087,
				"z": -0.5911611338,
				"element": "H" 
			},
			{
				"x": -1.2881191687,
				"y": -3.6460927024,
				"z": 0.7431205697,
				"element": "H" 
			},
			{
				"x": -0.086647792,
				"y": -3.4435105279,
				"z": -0.5275787075,
				"element": "H" 
			},
			{
				"x": 0.5590906474,
				"y": -2.2472353445,
				"z": 1.5747509582,
				"element": "H" 
			},
			{
				"x": -1.4871500218,
				"y": -0.5854191292,
				"z": 3.5476466335,
				"element": "H" 
			},
			{
				"x": 1.6607165105,
				"y": -2.1969571982,
				"z": -1.0387822525,
				"element": "H" 
			},
			{
				"x": 2.1045281438,
				"y": -0.1256216792,
				"z": -2.1783154767,
				"element": "H" 
			},
			{
				"x": 1.2783860596,
				"y": 0.8112440594,
				"z": -4.3106784173,
				"element": "H" 
			},
			{
				"x": -1.1571604559,
				"y": 1.2273656922,
				"z": -4.6306928304,
				"element": "H" 
			},
			{
				"x": -2.738193462,
				"y": 0.7024096188,
				"z": -2.7822662881,
				"element": "H" 
			},
			{
				"x": -1.9143710971,
				"y": -0.2255812964,
				"z": -0.6594297394,
				"element": "H" 
			},
			{
				"x": 3.039146422,
				"y": -0.7824456412,
				"z": 1.5354372124,
				"element": "H" 
			},
			{
				"x": 3.8586418253,
				"y": 0.988396551,
				"z": 3.0584203187,
				"element": "H" 
			},
			{
				"x": 2.5714731442,
				"y": 3.1014674598,
				"z": 3.3241673967,
				"element": "H" 
			},
			{
				"x": 0.460160295,
				"y": 3.4192999509,
				"z": 2.0442029665,
				"element": "H" 
			},
			{
				"x": -0.3457757414,
				"y": 1.657228515,
				"z": 0.5212020681,
				"element": "H" 
			}
		],
		 "valence_orbital": [ 
			{
				"type": "occ",
				"energy": -0.27217,
				"method": "rhf"
			},
			{
				"type": "occ",
				"energy": -0.24806,
				"method": "rhf"
			},
			{
				"type": "occ",
				"energy": -0.24739,
				"method": "rhf"
			},
			{
				"type": "occ",
				"energy": -0.24313,
				"method": "rhf"
			},
			{
				"type": "occ",
				"energy": -0.23633,
				"method": "rhf"
			},
			{
				"type": "unocc",
				"energy": -0.01083,
				"method": "rhf"
			},
			{
				"type": "unocc",
				"energy": -0.00347,
				"method": "rhf"
			},
			{
				"type": "unocc",
				"energy": -0.00157,
				"method": "rhf"
			},
			{
				"type": "unocc",
				"energy": 0.00369,
				"method": "rhf"
			},
			{
				"type": "unocc",
				"energy": 0.01299,
				"method": "rhf"
			}
		],
		"cosmo_sigma_profile": { 
			"-0.025": 0.0,
			"-0.024": 0.0,
			"-0.023": 0.0,
			"-0.022": 0.0,
			"-0.021": 0.0,
			"-0.02": 0.0,
			"-0.019": 0.0,
			"-0.018": 0.612090796924,
			"-0.017": 1.02246192195,
			"-0.016": 1.06674774169,
			"-0.015": 0.959967651631,
			"-0.014": 1.61232934314,
			"-0.013": 1.0166015827,
			"-0.012": 1.65374259283,
			"-0.011": 2.12646549298,
			"-0.01": 1.95852398409,
			"-0.009": 1.39758736439,
			"-0.008": 1.57043978725,
			"-0.007": 1.99160207107,
			"-0.006": 7.5309306223,
			"-0.005": 18.9588452297,
			"-0.004": 24.8487219615,
			"-0.003": 26.7977872508,
			"-0.002": 21.4479904923,
			"-0.001": 22.7322788431,
			"0.0": 19.7039659389,
			"0.001": 19.3911908965,
			"0.002": 17.1873550937,
			"0.003": 17.6721317801,
			"0.004": 20.2338349853,
			"0.005": 19.7119124823,
			"0.006": 13.589125585,
			"0.007": 6.22436883923,
			"0.008": 5.18573683517,
			"0.009": 4.32689319245,
			"0.01": 3.14522354286,
			"0.011": 3.93688580359,
			"0.012": 1.42732779471,
			"0.013": 0.0,
			"0.014": 0.0,
			"0.015": 0.0,
			"0.016": 0.0,
			"0.017": 0.0,
			"0.018": 0.0,
			"0.019": 0.0,
			"0.02": 0.0,
			"0.021": 0.0,
			"0.022": 0.0,
			"0.023": 0.0,
			"0.024": 0.0,
			"0.025": 0.0
		}
	}
}
