{
	 "smiles": "CC(C(O)=O)C1=CC=C(NCC(C)=C)C=C1", 
	 "Tm": 380.15, 
	 "num_atms": 33, 
	 "gaussian": { 
		 "optdone": 1, 
		 "sigma_profile": "yes", 
		 "theory": "DFT", 
		 "functional": "B3LYP", 
		 "basiset": "6-31G**", 
		 "properties": { 
			 "R2extent": 5788.4863, 
			 "electric_dipole_moment_norm": 6.09415405532, 
			 "electric_quadrupole_moment_norm": 30.3072076546, 
			 "total_energy": -710.827484943, 
			 "HOMO_LUMO_gap": 0.18963, 
			 "cosmo_polarized_energy": -15.4, 
			 "cosmo_cavitation_energy": 36.16, 
			 "cosmo_dispersion_energy": -24.7, 
			 "cosmo_repulsion_energy": 1.94, 
			 "cosmo_total_nonelectrostatic_energy": 13.4, 
			 "SMD_solvation_energy": 7.18 
		},
		"coords": [
			{
				"x": 0.4724400511,
				"y": 4.0276948548,
				"z": 2.5290911509,
				"element": "C" 
			},
			{
				"x": -0.0616977195,
				"y": 2.6072720866,
				"z": 2.7671483022,
				"element": "C" 
			},
			{
				"x": 0.4265252743,
				"y": 2.069994801,
				"z": 4.1283982969,
				"element": "C" 
			},
			{
				"x": 0.3343264597,
				"y": 0.7275068955,
				"z": 4.2915418096,
				"element": "O" 
			},
			{
				"x": 0.8203905773,
				"y": 2.7707545515,
				"z": 5.0286882809,
				"element": "O" 
			},
			{
				"x": 0.216713194,
				"y": 1.6476759644,
				"z": 1.6197872105,
				"element": "C" 
			},
			{
				"x": 1.5312574493,
				"y": 1.3096679069,
				"z": 1.2483444197,
				"element": "C" 
			},
			{
				"x": 1.7872706538,
				"y": 0.4491307271,
				"z": 0.191824611,
				"element": "C" 
			},
			{
				"x": 0.7359018383,
				"y": -0.1220194412,
				"z": -0.5616558043,
				"element": "C" 
			},
			{
				"x": 1.0506908261,
				"y": -0.9314280127,
				"z": -1.6409094024,
				"element": "N" 
			},
			{
				"x": 0.1454129835,
				"y": -1.8399620356,
				"z": -2.3360779651,
				"element": "C" 
			},
			{
				"x": 0.1878836391,
				"y": -3.2694937898,
				"z": -1.8205074919,
				"element": "C" 
			},
			{
				"x": -0.2613954922,
				"y": -3.499262319,
				"z": -0.3998588546,
				"element": "C" 
			},
			{
				"x": 0.6148795212,
				"y": -4.258782871,
				"z": -2.6120096946,
				"element": "C" 
			},
			{
				"x": -0.5817859527,
				"y": 0.2059989649,
				"z": -0.1894613475,
				"element": "C" 
			},
			{
				"x": -0.821488549,
				"y": 1.0727825226,
				"z": 0.8763949661,
				"element": "C" 
			},
			{
				"x": 0.2487904854,
				"y": 4.6646045793,
				"z": 3.3870609787,
				"element": "H" 
			},
			{
				"x": 0.0196279219,
				"y": 4.4562959769,
				"z": 1.6309320711,
				"element": "H" 
			},
			{
				"x": 1.5580411501,
				"y": 4.0216022692,
				"z": 2.3945560974,
				"element": "H" 
			},
			{
				"x": -1.1544345399,
				"y": 2.6707162039,
				"z": 2.8799153725,
				"element": "H" 
			},
			{
				"x": 0.0831730008,
				"y": 0.3294130017,
				"z": 3.4416337623,
				"element": "H" 
			},
			{
				"x": 2.3710276942,
				"y": 1.7238753612,
				"z": 1.8011552734,
				"element": "H" 
			},
			{
				"x": 2.8157393412,
				"y": 0.2096375231,
				"z": -0.0688036242,
				"element": "H" 
			},
			{
				"x": 2.0233812598,
				"y": -1.1994777674,
				"z": -1.6963610411,
				"element": "H" 
			},
			{
				"x": -0.869647816,
				"y": -1.4380015797,
				"z": -2.2622937629,
				"element": "H" 
			},
			{
				"x": 0.4018723265,
				"y": -1.8319647133,
				"z": -3.4015434599,
				"element": "H" 
			},
			{
				"x": 0.3199726285,
				"y": -2.8938172531,
				"z": 0.3046332065,
				"element": "H" 
			},
			{
				"x": -1.3114430311,
				"y": -3.2084638608,
				"z": -0.2673715013,
				"element": "H" 
			},
			{
				"x": -0.1603976279,
				"y": -4.5492293615,
				"z": -0.1134188209,
				"element": "H" 
			},
			{
				"x": 0.6550408126,
				"y": -5.2890293756,
				"z": -2.2692008865,
				"element": "H" 
			},
			{
				"x": 0.9330578052,
				"y": -4.0740125611,
				"z": -3.634898977,
				"element": "H" 
			},
			{
				"x": -1.4276250971,
				"y": -0.2041869818,
				"z": -0.7292000874,
				"element": "H" 
			},
			{
				"x": -1.8524010684,
				"y": 1.311107733,
				"z": 1.129666912,
				"element": "H" 
			}
		],
		 "valence_orbital": [ 
			{
				"type": "occ",
				"energy": -0.30194,
				"method": "rhf"
			},
			{
				"type": "occ",
				"energy": -0.26499,
				"method": "rhf"
			},
			{
				"type": "occ",
				"energy": -0.26041,
				"method": "rhf"
			},
			{
				"type": "occ",
				"energy": -0.25814,
				"method": "rhf"
			},
			{
				"type": "occ",
				"energy": -0.20272,
				"method": "rhf"
			},
			{
				"type": "unocc",
				"energy": -0.01309,
				"method": "rhf"
			},
			{
				"type": "unocc",
				"energy": -0.00472,
				"method": "rhf"
			},
			{
				"type": "unocc",
				"energy": 0.01462,
				"method": "rhf"
			},
			{
				"type": "unocc",
				"energy": 0.02014,
				"method": "rhf"
			},
			{
				"type": "unocc",
				"energy": 0.07757,
				"method": "rhf"
			}
		],
		"cosmo_sigma_profile": { 
			"-0.025": 0.0,
			"-0.024": 0.0,
			"-0.023": 0.0,
			"-0.022": 0.0,
			"-0.021": 0.0,
			"-0.02": 0.0,
			"-0.019": 0.0,
			"-0.018": 0.0,
			"-0.017": 0.0,
			"-0.016": 0.0,
			"-0.015": 0.0,
			"-0.014": 0.150489216162,
			"-0.013": 0.826870123874,
			"-0.012": 1.40494264029,
			"-0.011": 2.09750591961,
			"-0.01": 2.39245643598,
			"-0.009": 2.11810187283,
			"-0.008": 2.92450691072,
			"-0.007": 7.85778528552,
			"-0.006": 12.8095652553,
			"-0.005": 15.5003884222,
			"-0.004": 23.7060849268,
			"-0.003": 26.1766428934,
			"-0.002": 23.2731560234,
			"-0.001": 24.2974359523,
			"0.0": 26.1172805049,
			"0.001": 20.8620003775,
			"0.002": 13.9460755554,
			"0.003": 11.4505488394,
			"0.004": 12.7778851783,
			"0.005": 12.1074450644,
			"0.006": 10.89459552,
			"0.007": 5.02700529848,
			"0.008": 3.65724049399,
			"0.009": 3.68699132263,
			"0.01": 4.50007395093,
			"0.011": 5.31830610179,
			"0.012": 5.67952665581,
			"0.013": 2.62010554645,
			"0.014": 0.36706838142,
			"0.015": 0.0,
			"0.016": 0.0,
			"0.017": 0.0,
			"0.018": 0.0,
			"0.019": 0.0,
			"0.02": 0.0,
			"0.021": 0.0,
			"0.022": 0.0,
			"0.023": 0.0,
			"0.024": 0.0,
			"0.025": 0.0
		}
	}
}
