{
	 "smiles": "CCCCCCCCOC1=CC=C(O)C=C1", 
	 "Tm": 353.15, 
	 "num_atms": 38, 
	 "gaussian": { 
		 "optdone": 1, 
		 "sigma_profile": "yes", 
		 "theory": "DFT", 
		 "functional": "B3LYP", 
		 "basiset": "6-31G**", 
		 "properties": { 
			 "R2extent": 8601.3652, 
			 "electric_dipole_moment_norm": 0.7088873888, 
			 "electric_quadrupole_moment_norm": 14.1808323881, 
			 "total_energy": -697.206732799, 
			 "HOMO_LUMO_gap": 0.19559, 
			 "cosmo_polarized_energy": -9.71, 
			 "cosmo_cavitation_energy": 39.96, 
			 "cosmo_dispersion_energy": -28.48, 
			 "cosmo_repulsion_energy": 2.29, 
			 "cosmo_total_nonelectrostatic_energy": 13.77, 
			 "SMD_solvation_energy": 6.43 
		},
		"coords": [
			{
				"x": 0.4084704238,
				"y": -2.7172300295,
				"z": -4.5528901592,
				"element": "C" 
			},
			{
				"x": -1.0329188059,
				"y": -3.1627911702,
				"z": -4.2777814253,
				"element": "C" 
			},
			{
				"x": -1.645524371,
				"y": -2.5797403155,
				"z": -2.9931341727,
				"element": "C" 
			},
			{
				"x": -0.9754138792,
				"y": -3.0601830181,
				"z": -1.6966681106,
				"element": "C" 
			},
			{
				"x": -1.6757719641,
				"y": -2.5975934439,
				"z": -0.4079353966,
				"element": "C" 
			},
			{
				"x": -1.6239023249,
				"y": -1.0838367554,
				"z": -0.1592060146,
				"element": "C" 
			},
			{
				"x": -2.2693696701,
				"y": -0.6769668563,
				"z": 1.171563116,
				"element": "C" 
			},
			{
				"x": -2.2196692641,
				"y": 0.8204367571,
				"z": 1.4473750645,
				"element": "C" 
			},
			{
				"x": -0.8524327531,
				"y": 1.2031060884,
				"z": 1.5661202725,
				"element": "O" 
			},
			{
				"x": -0.5579094214,
				"y": 2.520472538,
				"z": 1.7983320234,
				"element": "C" 
			},
			{
				"x": 0.8034416184,
				"y": 2.8356658527,
				"z": 1.8948877058,
				"element": "C" 
			},
			{
				"x": 1.2106538788,
				"y": 4.1447071789,
				"z": 2.1312922678,
				"element": "C" 
			},
			{
				"x": 0.2617140159,
				"y": 5.1642904573,
				"z": 2.2755277251,
				"element": "C" 
			},
			{
				"x": 0.6037772961,
				"y": 6.4719993699,
				"z": 2.5093547537,
				"element": "O" 
			},
			{
				"x": -1.0946397156,
				"y": 4.8533970201,
				"z": 2.1801200001,
				"element": "C" 
			},
			{
				"x": -1.5067681981,
				"y": 3.5400899337,
				"z": 1.9431727677,
				"element": "C" 
			},
			{
				"x": 0.7708221813,
				"y": -3.1208584361,
				"z": -5.5041968121,
				"element": "H" 
			},
			{
				"x": 1.0970479251,
				"y": -3.0538529707,
				"z": -3.7711749356,
				"element": "H" 
			},
			{
				"x": 0.479343965,
				"y": -1.624473633,
				"z": -4.6076836418,
				"element": "H" 
			},
			{
				"x": -1.0733227796,
				"y": -4.2599333676,
				"z": -4.2305008516,
				"element": "H" 
			},
			{
				"x": -1.6624926718,
				"y": -2.8735069258,
				"z": -5.1290897778,
				"element": "H" 
			},
			{
				"x": -1.6102177914,
				"y": -1.4834528096,
				"z": -3.0495742957,
				"element": "H" 
			},
			{
				"x": -2.7106884177,
				"y": -2.8484133446,
				"z": -2.9568470236,
				"element": "H" 
			},
			{
				"x": -0.9459230994,
				"y": -4.1587067464,
				"z": -1.7052043262,
				"element": "H" 
			},
			{
				"x": 0.071047103,
				"y": -2.728693597,
				"z": -1.6702422135,
				"element": "H" 
			},
			{
				"x": -1.2131948105,
				"y": -3.109436554,
				"z": 0.4470122421,
				"element": "H" 
			},
			{
				"x": -2.7245358221,
				"y": -2.9287470196,
				"z": -0.4269972876,
				"element": "H" 
			},
			{
				"x": -2.1279188498,
				"y": -0.5501032673,
				"z": -0.9759420711,
				"element": "H" 
			},
			{
				"x": -0.5809564901,
				"y": -0.7449887684,
				"z": -0.1665807806,
				"element": "H" 
			},
			{
				"x": -3.3236348049,
				"y": -0.9846774934,
				"z": 1.1860584357,
				"element": "H" 
			},
			{
				"x": -1.7782907628,
				"y": -1.2007375229,
				"z": 2.0015497576,
				"element": "H" 
			},
			{
				"x": -2.6971407127,
				"y": 1.3802871323,
				"z": 0.6284943737,
				"element": "H" 
			},
			{
				"x": -2.7582171701,
				"y": 1.0598352337,
				"z": 2.376100701,
				"element": "H" 
			},
			{
				"x": 1.5306278057,
				"y": 2.038276406,
				"z": 1.781511011,
				"element": "H" 
			},
			{
				"x": 2.2722074392,
				"y": 4.3734463364,
				"z": 2.2035874631,
				"element": "H" 
			},
			{
				"x": 1.5658506852,
				"y": 6.5408229343,
				"z": 2.5514447274,
				"element": "H" 
			},
			{
				"x": -1.8241669212,
				"y": 5.6486575515,
				"z": 2.2932967887,
				"element": "H" 
			},
			{
				"x": -2.5670828655,
				"y": 3.328233255,
				"z": 1.8748480996,
				"element": "H" 
			}
		],
		 "valence_orbital": [ 
			{
				"type": "occ",
				"energy": -0.30479,
				"method": "rhf"
			},
			{
				"type": "occ",
				"energy": -0.3035,
				"method": "rhf"
			},
			{
				"type": "occ",
				"energy": -0.28813,
				"method": "rhf"
			},
			{
				"type": "occ",
				"energy": -0.2485,
				"method": "rhf"
			},
			{
				"type": "occ",
				"energy": -0.19517,
				"method": "rhf"
			},
			{
				"type": "unocc",
				"energy": 0.00042,
				"method": "rhf"
			},
			{
				"type": "unocc",
				"energy": 0.031,
				"method": "rhf"
			},
			{
				"type": "unocc",
				"energy": 0.07497,
				"method": "rhf"
			},
			{
				"type": "unocc",
				"energy": 0.09089,
				"method": "rhf"
			},
			{
				"type": "unocc",
				"energy": 0.09757,
				"method": "rhf"
			}
		],
		"cosmo_sigma_profile": { 
			"-0.025": 0.0,
			"-0.024": 0.0,
			"-0.023": 0.0,
			"-0.022": 0.0,
			"-0.021": 0.0,
			"-0.02": 0.0,
			"-0.019": 0.0,
			"-0.018": 0.0727883379083,
			"-0.017": 1.02380314023,
			"-0.016": 0.897096374833,
			"-0.015": 1.0949145412,
			"-0.014": 1.33868178655,
			"-0.013": 0.964623856718,
			"-0.012": 0.941869343633,
			"-0.011": 0.408263551192,
			"-0.01": 1.11698497406,
			"-0.009": 1.39644647541,
			"-0.008": 1.34721521636,
			"-0.007": 1.05918867879,
			"-0.006": 5.53785193231,
			"-0.005": 8.02483367013,
			"-0.004": 15.1433382766,
			"-0.003": 19.1224898759,
			"-0.002": 35.8187516218,
			"-0.001": 44.2483871667,
			"0.0": 45.5285955575,
			"0.001": 41.8582989829,
			"0.002": 18.928739885,
			"0.003": 8.86193850889,
			"0.004": 13.5630817426,
			"0.005": 15.4988862552,
			"0.006": 11.7268876015,
			"0.007": 3.81424671524,
			"0.008": 2.56930510328,
			"0.009": 2.33880559771,
			"0.01": 2.30494212707,
			"0.011": 2.10876161921,
			"0.012": 1.70573739146,
			"0.013": 0.121766946242,
			"0.014": 0.0,
			"0.015": 0.0,
			"0.016": 0.0,
			"0.017": 0.0,
			"0.018": 0.0,
			"0.019": 0.0,
			"0.02": 0.0,
			"0.021": 0.0,
			"0.022": 0.0,
			"0.023": 0.0,
			"0.024": 0.0,
			"0.025": 0.0
		}
	}
}
