{
	 "smiles": "OC(=O)C1=CC(Cl)=C(OC2=C(C(F)=CC=C2)[N+]([O-])=O)C=C1", 
	 "Tm": 443.15, 
	 "num_atms": 28, 
	 "gaussian": { 
		 "optdone": 1, 
		 "sigma_profile": "yes", 
		 "theory": "DFT", 
		 "functional": "B3LYP", 
		 "basiset": "6-31G**", 
		 "properties": { 
			 "R2extent": 8654.0075, 
			 "electric_dipole_moment_norm": 6.13674126064, 
			 "electric_quadrupole_moment_norm": 22.4255838537, 
			 "total_energy": -1490.38419445, 
			 "HOMO_LUMO_gap": 0.15477, 
			 "cosmo_polarized_energy": -17.15, 
			 "cosmo_cavitation_energy": 37.26, 
			 "cosmo_dispersion_energy": -25.62, 
			 "cosmo_repulsion_energy": 1.94, 
			 "cosmo_total_nonelectrostatic_energy": 13.58, 
			 "SMD_solvation_energy": 10.27 
		},
		"coords": [
			{
				"x": 3.7899633524,
				"y": 1.4790615163,
				"z": 1.7439835523,
				"element": "O" 
			},
			{
				"x": 3.0009105051,
				"y": 0.7316559462,
				"z": 2.5552801401,
				"element": "C" 
			},
			{
				"x": 3.1978176541,
				"y": 0.6438042194,
				"z": 3.7508568346,
				"element": "O" 
			},
			{
				"x": 1.8979863476,
				"y": 0.055405848,
				"z": 1.8256296944,
				"element": "C" 
			},
			{
				"x": 1.0232013032,
				"y": -0.7480105733,
				"z": 2.56892881,
				"element": "C" 
			},
			{
				"x": -0.0237297059,
				"y": -1.406993124,
				"z": 1.941058559,
				"element": "C" 
			},
			{
				"x": -1.1137037231,
				"y": -2.4039864348,
				"z": 2.8695673835,
				"element": "Cl" 
			},
			{
				"x": -0.2087872867,
				"y": -1.2700548408,
				"z": 0.5542538199,
				"element": "C" 
			},
			{
				"x": -1.2933294948,
				"y": -1.9134386981,
				"z": 0.0116396115,
				"element": "O" 
			},
			{
				"x": -1.4112908505,
				"y": -2.1272883773,
				"z": -1.3367561025,
				"element": "C" 
			},
			{
				"x": -0.482229601,
				"y": -2.876559519,
				"z": -2.0806846548,
				"element": "C" 
			},
			{
				"x": -0.7168712318,
				"y": -3.098695775,
				"z": -3.4420524785,
				"element": "C" 
			},
			{
				"x": 0.1497731564,
				"y": -3.8320125078,
				"z": -4.1469580848,
				"element": "F" 
			},
			{
				"x": -1.856988281,
				"y": -2.6118888985,
				"z": -4.0679669006,
				"element": "C" 
			},
			{
				"x": -2.7713247523,
				"y": -1.87303279,
				"z": -3.3185820456,
				"element": "C" 
			},
			{
				"x": -2.5498812617,
				"y": -1.6232099368,
				"z": -1.9649400025,
				"element": "C" 
			},
			{
				"x": 0.7195300858,
				"y": -3.4472544885,
				"z": -1.4609797227,
				"element": "N" 
			},
			{
				"x": 0.5695341451,
				"y": -4.0530645608,
				"z": -0.4040448278,
				"element": "O" 
			},
			{
				"x": 1.7828844754,
				"y": -3.2742373212,
				"z": -2.0493188665,
				"element": "O" 
			},
			{
				"x": 0.6560427936,
				"y": -0.459319445,
				"z": -0.185595396,
				"element": "C" 
			},
			{
				"x": 1.7083189609,
				"y": 0.1964597262,
				"z": 0.4466191087,
				"element": "C" 
			},
			{
				"x": 4.469661228,
				"y": 1.866432842,
				"z": 2.3195147014,
				"element": "H" 
			},
			{
				"x": 1.1768823514,
				"y": -0.8516532495,
				"z": 3.6366413809,
				"element": "H" 
			},
			{
				"x": -2.0077562576,
				"y": -2.8232731881,
				"z": -5.1201563306,
				"element": "H" 
			},
			{
				"x": -3.6644318966,
				"y": -1.4835217065,
				"z": -3.7960116426,
				"element": "H" 
			},
			{
				"x": -3.2477276132,
				"y": -1.04476611,
				"z": -1.3706752113,
				"element": "H" 
			},
			{
				"x": 0.5021508144,
				"y": -0.3402681709,
				"z": -1.2522022779,
				"element": "H" 
			},
			{
				"x": 2.3799947829,
				"y": 0.8214096177,
				"z": -0.1295490519,
				"element": "H" 
			}
		],
		 "valence_orbital": [ 
			{
				"type": "occ",
				"energy": -0.28588,
				"method": "rhf"
			},
			{
				"type": "occ",
				"energy": -0.28318,
				"method": "rhf"
			},
			{
				"type": "occ",
				"energy": -0.27953,
				"method": "rhf"
			},
			{
				"type": "occ",
				"energy": -0.26708,
				"method": "rhf"
			},
			{
				"type": "occ",
				"energy": -0.24886,
				"method": "rhf"
			},
			{
				"type": "unocc",
				"energy": -0.09409,
				"method": "rhf"
			},
			{
				"type": "unocc",
				"energy": -0.05715,
				"method": "rhf"
			},
			{
				"type": "unocc",
				"energy": -0.03507,
				"method": "rhf"
			},
			{
				"type": "unocc",
				"energy": -0.03225,
				"method": "rhf"
			},
			{
				"type": "unocc",
				"energy": -0.02688,
				"method": "rhf"
			}
		],
		"cosmo_sigma_profile": { 
			"-0.025": 0.0,
			"-0.024": 0.0,
			"-0.023": 0.0,
			"-0.022": 0.0,
			"-0.021": 0.0,
			"-0.02": 0.0,
			"-0.019": 0.0364199415937,
			"-0.018": 1.18264387966,
			"-0.017": 0.772040990856,
			"-0.016": 0.771642840861,
			"-0.015": 0.824282750815,
			"-0.014": 0.263511116012,
			"-0.013": 0.701302845356,
			"-0.012": 0.870352542674,
			"-0.011": 1.08365189481,
			"-0.01": 0.71123740672,
			"-0.009": 3.6540384664,
			"-0.008": 10.2908724111,
			"-0.007": 13.5567057108,
			"-0.006": 11.7282981079,
			"-0.005": 10.3026052987,
			"-0.004": 13.0565199641,
			"-0.003": 15.0092637167,
			"-0.002": 24.1550515875,
			"-0.001": 24.866844661,
			"0.0": 29.5487220081,
			"0.001": 29.4065971512,
			"0.002": 18.902816879,
			"0.003": 17.145989183,
			"0.004": 16.1174258037,
			"0.005": 9.8380269618,
			"0.006": 13.7394223461,
			"0.007": 15.26334284,
			"0.008": 6.43534750205,
			"0.009": 3.40304055512,
			"0.01": 2.25397325112,
			"0.011": 4.27176577995,
			"0.012": 2.62570438028,
			"0.013": 0.0,
			"0.014": 0.0,
			"0.015": 0.0,
			"0.016": 0.0,
			"0.017": 0.0,
			"0.018": 0.0,
			"0.019": 0.0,
			"0.02": 0.0,
			"0.021": 0.0,
			"0.022": 0.0,
			"0.023": 0.0,
			"0.024": 0.0,
			"0.025": 0.0
		}
	}
}
