{
	 "smiles": "CCC(C)OC(=O)COC1=CC(Cl)=C(Cl)C=C1Cl", 
	 "Tm": 312.15, 
	 "num_atms": 31, 
	 "gaussian": { 
		 "optdone": 1, 
		 "sigma_profile": "yes", 
		 "theory": "DFT", 
		 "functional": "B3LYP", 
		 "basiset": "6-31G**", 
		 "properties": { 
			 "R2extent": 8061.9943, 
			 "electric_dipole_moment_norm": 1.37715064172, 
			 "electric_quadrupole_moment_norm": 14.9148923117, 
			 "total_energy": -2071.36106094, 
			 "HOMO_LUMO_gap": 0.20984, 
			 "cosmo_polarized_energy": -9.07, 
			 "cosmo_cavitation_energy": 40.54, 
			 "cosmo_dispersion_energy": -26.98, 
			 "cosmo_repulsion_energy": 2.11, 
			 "cosmo_total_nonelectrostatic_energy": 15.68, 
			 "SMD_solvation_energy": 7.19 
		},
		"coords": [
			{
				"x": -2.2314730786,
				"y": 0.7340723493,
				"z": -1.0457319439,
				"element": "C" 
			},
			{
				"x": -1.7598856246,
				"y": 0.6095952863,
				"z": -2.4973521561,
				"element": "C" 
			},
			{
				"x": -0.38082885,
				"y": 1.2112608811,
				"z": -2.755184485,
				"element": "C" 
			},
			{
				"x": 0.0490475091,
				"y": 1.1654505636,
				"z": -4.2166399156,
				"element": "C" 
			},
			{
				"x": 0.5762813038,
				"y": 0.4289655163,
				"z": -1.9645470507,
				"element": "O" 
			},
			{
				"x": 1.6507478557,
				"y": 1.0773162563,
				"z": -1.4948420128,
				"element": "C" 
			},
			{
				"x": 1.8862507028,
				"y": 2.2571795363,
				"z": -1.6461012532,
				"element": "O" 
			},
			{
				"x": 2.6025670843,
				"y": 0.1924096152,
				"z": -0.6908227312,
				"element": "C" 
			},
			{
				"x": 2.3861076777,
				"y": -1.2106073597,
				"z": -0.8130986254,
				"element": "O" 
			},
			{
				"x": 1.6068445788,
				"y": -1.830900416,
				"z": 0.1240131641,
				"element": "C" 
			},
			{
				"x": 0.352108313,
				"y": -2.3093875629,
				"z": -0.2575311805,
				"element": "C" 
			},
			{
				"x": -0.4464522943,
				"y": -3.0258881807,
				"z": 0.6323512545,
				"element": "C" 
			},
			{
				"x": -2.0022377969,
				"y": -3.5987294054,
				"z": 0.0881780226,
				"element": "Cl" 
			},
			{
				"x": 0.0075034618,
				"y": -3.2656635208,
				"z": 1.9366242439,
				"element": "C" 
			},
			{
				"x": -0.9513368358,
				"y": -4.1484691143,
				"z": 3.0956327745,
				"element": "Cl" 
			},
			{
				"x": 1.2630727817,
				"y": -2.797583962,
				"z": 2.3260364838,
				"element": "C" 
			},
			{
				"x": 2.0603564766,
				"y": -2.0932945919,
				"z": 1.4275661127,
				"element": "C" 
			},
			{
				"x": 3.6537364998,
				"y": -1.576377479,
				"z": 1.933322658,
				"element": "Cl" 
			},
			{
				"x": -2.2855079135,
				"y": 1.7839846474,
				"z": -0.7366848349,
				"element": "H" 
			},
			{
				"x": -3.2262225903,
				"y": 0.296868038,
				"z": -0.9193591452,
				"element": "H" 
			},
			{
				"x": -1.5502341425,
				"y": 0.2175351062,
				"z": -0.3638890202,
				"element": "H" 
			},
			{
				"x": -1.7515686381,
				"y": -0.4433186462,
				"z": -2.8073161919,
				"element": "H" 
			},
			{
				"x": -2.4664817287,
				"y": 1.1209227155,
				"z": -3.1629452855,
				"element": "H" 
			},
			{
				"x": -0.3360925184,
				"y": 2.2398772474,
				"z": -2.385574727,
				"element": "H" 
			},
			{
				"x": 1.0430542074,
				"y": 1.6028157137,
				"z": -4.3390371308,
				"element": "H" 
			},
			{
				"x": 0.0684342166,
				"y": 0.1344938499,
				"z": -4.5839324014,
				"element": "H" 
			},
			{
				"x": -0.6521248498,
				"y": 1.7381387786,
				"z": -4.8319223531,
				"element": "H" 
			},
			{
				"x": 2.56021636,
				"y": 0.5235346552,
				"z": 0.3524158296,
				"element": "H" 
			},
			{
				"x": 3.611838902,
				"y": 0.3953029621,
				"z": -1.0566511218,
				"element": "H" 
			},
			{
				"x": 0.0139018746,
				"y": -2.1072496011,
				"z": -1.2652714412,
				"element": "H" 
			},
			{
				"x": 1.622877056,
				"y": -2.9959538784,
				"z": 3.3281944635,
				"element": "H" 
			}
		],
		 "valence_orbital": [ 
			{
				"type": "occ",
				"energy": -0.31672,
				"method": "rhf"
			},
			{
				"type": "occ",
				"energy": -0.30632,
				"method": "rhf"
			},
			{
				"type": "occ",
				"energy": -0.27872,
				"method": "rhf"
			},
			{
				"type": "occ",
				"energy": -0.26753,
				"method": "rhf"
			},
			{
				"type": "occ",
				"energy": -0.24856,
				"method": "rhf"
			},
			{
				"type": "unocc",
				"energy": -0.03872,
				"method": "rhf"
			},
			{
				"type": "unocc",
				"energy": -0.03319,
				"method": "rhf"
			},
			{
				"type": "unocc",
				"energy": -0.01441,
				"method": "rhf"
			},
			{
				"type": "unocc",
				"energy": 0.00125,
				"method": "rhf"
			},
			{
				"type": "unocc",
				"energy": 0.024,
				"method": "rhf"
			}
		],
		"cosmo_sigma_profile": { 
			"-0.025": 0.0,
			"-0.024": 0.0,
			"-0.023": 0.0,
			"-0.022": 0.0,
			"-0.021": 0.0,
			"-0.02": 0.0,
			"-0.019": 0.0,
			"-0.018": 0.0,
			"-0.017": 0.0,
			"-0.016": 0.0,
			"-0.015": 0.0,
			"-0.014": 0.0,
			"-0.013": 0.0,
			"-0.012": 0.0,
			"-0.011": 0.0,
			"-0.01": 0.0490161095039,
			"-0.009": 2.13211052778,
			"-0.008": 5.23258789463,
			"-0.007": 5.63887528587,
			"-0.006": 6.58689590248,
			"-0.005": 9.15687893952,
			"-0.004": 20.1667001668,
			"-0.003": 29.3530710934,
			"-0.002": 29.5532757272,
			"-0.001": 44.9241976818,
			"0.0": 50.9258401125,
			"0.001": 28.3638053344,
			"0.002": 23.4333421873,
			"0.003": 25.0788043023,
			"0.004": 20.0095523877,
			"0.005": 6.36677521541,
			"0.006": 2.65447877336,
			"0.007": 2.91526458462,
			"0.008": 3.02881442511,
			"0.009": 2.57351294651,
			"0.01": 2.36137731842,
			"0.011": 3.47786028793,
			"0.012": 3.78946400895,
			"0.013": 0.277046496439,
			"0.014": 0.0,
			"0.015": 0.0,
			"0.016": 0.0,
			"0.017": 0.0,
			"0.018": 0.0,
			"0.019": 0.0,
			"0.02": 0.0,
			"0.021": 0.0,
			"0.022": 0.0,
			"0.023": 0.0,
			"0.024": 0.0,
			"0.025": 0.0
		}
	}
}
