{
	 "smiles": "OCC1=CC2=C(O1)C=CC(Br)=C2", 
	 "Tm": 375.15, 
	 "num_atms": 19, 
	 "gaussian": { 
		 "optdone": 1, 
		 "sigma_profile": "yes", 
		 "theory": "DFT", 
		 "functional": "B3LYP", 
		 "basiset": "6-31G**", 
		 "properties": { 
			 "R2extent": 4423.7109, 
			 "electric_dipole_moment_norm": 1.58287957217, 
			 "electric_quadrupole_moment_norm": 11.2683756749, 
			 "total_energy": -3069.00651692, 
			 "HOMO_LUMO_gap": 0.19666, 
			 "cosmo_polarized_energy": -8.74, 
			 "cosmo_cavitation_energy": 25.9, 
			 "cosmo_dispersion_energy": -19.77, 
			 "cosmo_repulsion_energy": 1.59, 
			 "cosmo_total_nonelectrostatic_energy": 7.72, 
			 "SMD_solvation_energy": 3.48 
		},
		"coords": [
			{
				"x": 2.580451546,
				"y": -3.2100733266,
				"z": -0.8530302562,
				"element": "O" 
			},
			{
				"x": 1.1590125658,
				"y": -3.244794208,
				"z": -0.8310416445,
				"element": "C" 
			},
			{
				"x": 0.5539694935,
				"y": -1.9824755916,
				"z": -0.311766654,
				"element": "C" 
			},
			{
				"x": -0.1996186744,
				"y": -1.6796775047,
				"z": 0.7768019524,
				"element": "C" 
			},
			{
				"x": -0.4573605537,
				"y": -0.2614221794,
				"z": 0.7164756193,
				"element": "C" 
			},
			{
				"x": 0.1947011232,
				"y": 0.1880052519,
				"z": -0.447443727,
				"element": "C" 
			},
			{
				"x": 0.8080035077,
				"y": -0.8602641503,
				"z": -1.079146767,
				"element": "O" 
			},
			{
				"x": 0.1926905628,
				"y": 1.5120635839,
				"z": -0.8659440863,
				"element": "C" 
			},
			{
				"x": -0.502486198,
				"y": 2.4224692482,
				"z": -0.0711960816,
				"element": "C" 
			},
			{
				"x": -1.1590019281,
				"y": 1.9892573251,
				"z": 1.0933583089,
				"element": "C" 
			},
			{
				"x": -2.097282331,
				"y": 3.2864084671,
				"z": 2.1450142867,
				"element": "Br" 
			},
			{
				"x": -1.1536178157,
				"y": 0.6629063654,
				"z": 1.5091518803,
				"element": "C" 
			},
			{
				"x": 2.8403749836,
				"y": -2.4625805674,
				"z": -1.40793915,
				"element": "H" 
			},
			{
				"x": 0.7520062751,
				"y": -3.4593470922,
				"z": -1.8323559705,
				"element": "H" 
			},
			{
				"x": 0.8736822161,
				"y": -4.0700556796,
				"z": -0.1739577865,
				"element": "H" 
			},
			{
				"x": -0.5279785836,
				"y": -2.3766906812,
				"z": 1.5343667827,
				"element": "H" 
			},
			{
				"x": 0.7061045743,
				"y": 1.8235992857,
				"z": -1.7688419257,
				"element": "H" 
			},
			{
				"x": -0.5403107318,
				"y": 3.4692461671,
				"z": -0.3480327325,
				"element": "H" 
			},
			{
				"x": -1.6693400318,
				"y": 0.3622252866,
				"z": 2.4136279514,
				"element": "H" 
			}
		],
		 "valence_orbital": [ 
			{
				"type": "occ",
				"energy": -0.30142,
				"method": "rhf"
			},
			{
				"type": "occ",
				"energy": -0.28658,
				"method": "rhf"
			},
			{
				"type": "occ",
				"energy": -0.28328,
				"method": "rhf"
			},
			{
				"type": "occ",
				"energy": -0.23729,
				"method": "rhf"
			},
			{
				"type": "occ",
				"energy": -0.23201,
				"method": "rhf"
			},
			{
				"type": "unocc",
				"energy": -0.03535,
				"method": "rhf"
			},
			{
				"type": "unocc",
				"energy": -0.003,
				"method": "rhf"
			},
			{
				"type": "unocc",
				"energy": 0.00699,
				"method": "rhf"
			},
			{
				"type": "unocc",
				"energy": 0.03823,
				"method": "rhf"
			},
			{
				"type": "unocc",
				"energy": 0.08152,
				"method": "rhf"
			}
		],
		"cosmo_sigma_profile": { 
			"-0.025": 0.0,
			"-0.024": 0.0,
			"-0.023": 0.0,
			"-0.022": 0.0,
			"-0.021": 0.0,
			"-0.02": 0.0,
			"-0.019": 0.0,
			"-0.018": 0.0,
			"-0.017": 0.0,
			"-0.016": 0.0,
			"-0.015": 0.530869443658,
			"-0.014": 0.838461208133,
			"-0.013": 0.749198082135,
			"-0.012": 0.643033994978,
			"-0.011": 0.927055396605,
			"-0.01": 0.792974218976,
			"-0.009": 0.6731563679,
			"-0.008": 2.83258519628,
			"-0.007": 9.81353878878,
			"-0.006": 12.2030157013,
			"-0.005": 14.4166267271,
			"-0.004": 12.5048388493,
			"-0.003": 11.4618403554,
			"-0.002": 9.82780232047,
			"-0.001": 10.3472879124,
			"0.0": 13.4919975342,
			"0.001": 16.8216660508,
			"0.002": 21.9077657693,
			"0.003": 27.9470493131,
			"0.004": 16.2716582416,
			"0.005": 11.2495047808,
			"0.006": 2.16472283928,
			"0.007": 1.9719139312,
			"0.008": 1.51961023453,
			"0.009": 1.43403628708,
			"0.01": 0.759512293004,
			"0.011": 1.46034739054,
			"0.012": 1.65955762547,
			"0.013": 2.15310901537,
			"0.014": 1.39464660329,
			"0.015": 0.0,
			"0.016": 0.0,
			"0.017": 0.0,
			"0.018": 0.0,
			"0.019": 0.0,
			"0.02": 0.0,
			"0.021": 0.0,
			"0.022": 0.0,
			"0.023": 0.0,
			"0.024": 0.0,
			"0.025": 0.0
		}
	}
}
