{
	 "smiles": "NC1=CC2=C(C=C1)N(CC2)C(=O)C1=COC=C1", 
	 "Tm": 447.15, 
	 "num_atms": 29, 
	 "gaussian": { 
		 "optdone": 1, 
		 "sigma_profile": "yes", 
		 "theory": "DFT", 
		 "functional": "B3LYP", 
		 "basiset": "6-31G**", 
		 "properties": { 
			 "R2extent": 5251.0368, 
			 "electric_dipole_moment_norm": 3.98001409671, 
			 "electric_quadrupole_moment_norm": 18.4556308172, 
			 "total_energy": -762.550540529, 
			 "HOMO_LUMO_gap": 0.16239, 
			 "cosmo_polarized_energy": -16.81, 
			 "cosmo_cavitation_energy": 32.41, 
			 "cosmo_dispersion_energy": -24.16, 
			 "cosmo_repulsion_energy": 1.83, 
			 "cosmo_total_nonelectrostatic_energy": 10.08, 
			 "SMD_solvation_energy": 6.53 
		},
		"coords": [
			{
				"x": -3.2598422004,
				"y": -1.3537869088,
				"z": 3.6018701899,
				"element": "N" 
			},
			{
				"x": -2.2219649396,
				"y": -0.9327945184,
				"z": 2.7597069276,
				"element": "C" 
			},
			{
				"x": -2.4326461604,
				"y": 0.1015099909,
				"z": 1.8284253168,
				"element": "C" 
			},
			{
				"x": -1.4118559518,
				"y": 0.456892981,
				"z": 0.9595812784,
				"element": "C" 
			},
			{
				"x": -0.173975142,
				"y": -0.1959803473,
				"z": 0.9924958653,
				"element": "C" 
			},
			{
				"x": 0.0599842848,
				"y": -1.2171927693,
				"z": 1.9153375646,
				"element": "C" 
			},
			{
				"x": -0.9706844984,
				"y": -1.5723672222,
				"z": 2.7868143645,
				"element": "C" 
			},
			{
				"x": 0.683349114,
				"y": 0.3334335857,
				"z": -0.0126395843,
				"element": "N" 
			},
			{
				"x": -0.1021563675,
				"y": 1.232686133,
				"z": -0.8859333137,
				"element": "C" 
			},
			{
				"x": -1.3791899591,
				"y": 1.5557439894,
				"z": -0.0767091906,
				"element": "C" 
			},
			{
				"x": 2.0328436247,
				"y": 0.080806642,
				"z": -0.0921890938,
				"element": "C" 
			},
			{
				"x": 2.6162654539,
				"y": -0.5967835008,
				"z": 0.7574016249,
				"element": "O" 
			},
			{
				"x": 2.8138797172,
				"y": 0.653819761,
				"z": -1.2249088708,
				"element": "C" 
			},
			{
				"x": 4.1755682753,
				"y": 0.7634087088,
				"z": -1.126933809,
				"element": "C" 
			},
			{
				"x": 4.7081564063,
				"y": 1.2598056613,
				"z": -2.2677483995,
				"element": "O" 
			},
			{
				"x": 3.6722297984,
				"y": 1.4613821357,
				"z": -3.1350689283,
				"element": "C" 
			},
			{
				"x": 2.4927162271,
				"y": 1.1138182149,
				"z": -2.5568437703,
				"element": "C" 
			},
			{
				"x": -2.9513687349,
				"y": -1.8211348644,
				"z": 4.4439962778,
				"element": "H" 
			},
			{
				"x": -3.9471021579,
				"y": -0.6418295971,
				"z": 3.8108898088,
				"element": "H" 
			},
			{
				"x": -3.3924625074,
				"y": 0.6121204233,
				"z": 1.7916632233,
				"element": "H" 
			},
			{
				"x": 1.0223305608,
				"y": -1.7062773367,
				"z": 1.9568103076,
				"element": "H" 
			},
			{
				"x": -0.8008733588,
				"y": -2.3707226959,
				"z": 3.505260772,
				"element": "H" 
			},
			{
				"x": -0.3648289735,
				"y": 0.7133836528,
				"z": -1.816487018,
				"element": "H" 
			},
			{
				"x": 0.4744099854,
				"y": 2.1234236816,
				"z": -1.1380331507,
				"element": "H" 
			},
			{
				"x": -1.3023960392,
				"y": 2.5395554865,
				"z": 0.4043862133,
				"element": "H" 
			},
			{
				"x": -2.265996364,
				"y": 1.5773169608,
				"z": -0.717200645,
				"element": "H" 
			},
			{
				"x": 4.8579081183,
				"y": 0.5258993021,
				"z": -0.3271386855,
				"element": "H" 
			},
			{
				"x": 3.9386738285,
				"y": 1.8440531122,
				"z": -4.1078640974,
				"element": "H" 
			},
			{
				"x": 1.5276279602,
				"y": 1.1525093377,
				"z": -3.0363411778,
				"element": "H" 
			}
		],
		 "valence_orbital": [ 
			{
				"type": "occ",
				"energy": -0.25443,
				"method": "rhf"
			},
			{
				"type": "occ",
				"energy": -0.2464,
				"method": "rhf"
			},
			{
				"type": "occ",
				"energy": -0.23896,
				"method": "rhf"
			},
			{
				"type": "occ",
				"energy": -0.22967,
				"method": "rhf"
			},
			{
				"type": "occ",
				"energy": -0.18077,
				"method": "rhf"
			},
			{
				"type": "unocc",
				"energy": -0.01838,
				"method": "rhf"
			},
			{
				"type": "unocc",
				"energy": 0.0031,
				"method": "rhf"
			},
			{
				"type": "unocc",
				"energy": 0.01766,
				"method": "rhf"
			},
			{
				"type": "unocc",
				"energy": 0.04149,
				"method": "rhf"
			},
			{
				"type": "unocc",
				"energy": 0.08439,
				"method": "rhf"
			}
		],
		"cosmo_sigma_profile": { 
			"-0.025": 0.0,
			"-0.024": 0.0,
			"-0.023": 0.0,
			"-0.022": 0.0,
			"-0.021": 0.0,
			"-0.02": 0.0,
			"-0.019": 0.0,
			"-0.018": 0.0,
			"-0.017": 0.0,
			"-0.016": 0.0,
			"-0.015": 0.0,
			"-0.014": 0.0,
			"-0.013": 0.0603709008842,
			"-0.012": 1.95762424367,
			"-0.011": 2.92928372367,
			"-0.01": 2.76367140108,
			"-0.009": 6.20781427125,
			"-0.008": 7.11913044909,
			"-0.007": 9.06552737382,
			"-0.006": 11.1771767926,
			"-0.005": 19.0300599928,
			"-0.004": 19.1028150155,
			"-0.003": 18.6397690768,
			"-0.002": 15.9122420627,
			"-0.001": 13.2535282498,
			"0.0": 12.8205128157,
			"0.001": 14.8243057364,
			"0.002": 17.8924766151,
			"0.003": 16.336515267,
			"0.004": 13.5944435045,
			"0.005": 11.824202652,
			"0.006": 14.8054121248,
			"0.007": 7.2122651511,
			"0.008": 3.86632559887,
			"0.009": 3.47963799255,
			"0.01": 1.82557526329,
			"0.011": 2.47303567647,
			"0.012": 3.16719334515,
			"0.013": 3.38513664213,
			"0.014": 3.22027449381,
			"0.015": 0.629406030841,
			"0.016": 0.0699480635684,
			"0.017": 0.0,
			"0.018": 0.0,
			"0.019": 0.0,
			"0.02": 0.0,
			"0.021": 0.0,
			"0.022": 0.0,
			"0.023": 0.0,
			"0.024": 0.0,
			"0.025": 0.0
		}
	}
}
