{
	 "smiles": "COC1=CC=CC=C1N1NC=C2C1=NC=NC2=O", 
	 "Tm": 544.15, 
	 "num_atms": 28, 
	 "gaussian": { 
		 "optdone": 1, 
		 "sigma_profile": "yes", 
		 "theory": "DFT", 
		 "functional": "B3LYP", 
		 "basiset": "6-31G**", 
		 "properties": { 
			 "R2extent": 5002.569, 
			 "electric_dipole_moment_norm": 12.3227482414, 
			 "electric_quadrupole_moment_norm": 33.3815226921, 
			 "total_energy": -832.696627136, 
			 "HOMO_LUMO_gap": 0.14598, 
			 "cosmo_polarized_energy": -29.55, 
			 "cosmo_cavitation_energy": 32.26, 
			 "cosmo_dispersion_energy": -24.08, 
			 "cosmo_repulsion_energy": 1.81, 
			 "cosmo_total_nonelectrostatic_energy": 9.99, 
			 "SMD_solvation_energy": 4.61 
		},
		"coords": [
			{
				"x": -4.7888975373,
				"y": -0.77748957,
				"z": -0.2079599706,
				"element": "C" 
			},
			{
				"x": -3.4227698861,
				"y": -0.3984273385,
				"z": -0.0512199994,
				"element": "O" 
			},
			{
				"x": -2.4481157313,
				"y": -1.3658520585,
				"z": -0.1664585583,
				"element": "C" 
			},
			{
				"x": -2.7333015712,
				"y": -2.7203804236,
				"z": -0.3414155781,
				"element": "C" 
			},
			{
				"x": -1.6984967533,
				"y": -3.6487439438,
				"z": -0.4724580331,
				"element": "C" 
			},
			{
				"x": -0.3732018176,
				"y": -3.2276712767,
				"z": -0.4230388722,
				"element": "C" 
			},
			{
				"x": -0.0741096729,
				"y": -1.8801806671,
				"z": -0.2286987837,
				"element": "C" 
			},
			{
				"x": -1.100635574,
				"y": -0.9386932445,
				"z": -0.0973331577,
				"element": "C" 
			},
			{
				"x": -0.7682010248,
				"y": 0.4321061126,
				"z": 0.0721459751,
				"element": "N" 
			},
			{
				"x": -1.5881196494,
				"y": 1.3024688441,
				"z": 0.7802135667,
				"element": "N" 
			},
			{
				"x": -0.9898828448,
				"y": 2.5101397175,
				"z": 0.8762166976,
				"element": "C" 
			},
			{
				"x": 0.2689668843,
				"y": 2.4288006755,
				"z": 0.3282233951,
				"element": "C" 
			},
			{
				"x": 0.4187057704,
				"y": 1.1046664527,
				"z": -0.1750685742,
				"element": "C" 
			},
			{
				"x": 1.5022762436,
				"y": 0.6187823093,
				"z": -0.7526453938,
				"element": "N" 
			},
			{
				"x": 2.4894341459,
				"y": 1.5703555985,
				"z": -0.8356736425,
				"element": "C" 
			},
			{
				"x": 2.5146513805,
				"y": 2.8204059329,
				"z": -0.4392503404,
				"element": "N" 
			},
			{
				"x": 1.392814431,
				"y": 3.3704782886,
				"z": 0.1906935073,
				"element": "C" 
			},
			{
				"x": 1.339293389,
				"y": 4.527739706,
				"z": 0.5922091339,
				"element": "O" 
			},
			{
				"x": -5.3649265994,
				"y": 0.1455435538,
				"z": -0.1351453622,
				"element": "H" 
			},
			{
				"x": -5.104519389,
				"y": -1.4677538056,
				"z": 0.5824574394,
				"element": "H" 
			},
			{
				"x": -4.9583264212,
				"y": -1.2362507742,
				"z": -1.1878756087,
				"element": "H" 
			},
			{
				"x": -3.7616023527,
				"y": -3.0569087295,
				"z": -0.3842722261,
				"element": "H" 
			},
			{
				"x": -1.9401443224,
				"y": -4.6972246311,
				"z": -0.6153713273,
				"element": "H" 
			},
			{
				"x": 0.4365461432,
				"y": -3.9419530204,
				"z": -0.5286221998,
				"element": "H" 
			},
			{
				"x": 0.9497415884,
				"y": -1.529074669,
				"z": -0.2120447343,
				"element": "H" 
			},
			{
				"x": -2.5778498333,
				"y": 1.078760628,
				"z": 0.7638223416,
				"element": "H" 
			},
			{
				"x": -1.5008988024,
				"y": 3.3432850582,
				"z": 1.3373708494,
				"element": "H" 
			},
			{
				"x": 3.3990698066,
				"y": 1.2045712748,
				"z": -1.3144005438,
				"element": "H" 
			}
		],
		 "valence_orbital": [ 
			{
				"type": "occ",
				"energy": -0.26609,
				"method": "rhf"
			},
			{
				"type": "occ",
				"energy": -0.24811,
				"method": "rhf"
			},
			{
				"type": "occ",
				"energy": -0.24014,
				"method": "rhf"
			},
			{
				"type": "occ",
				"energy": -0.21555,
				"method": "rhf"
			},
			{
				"type": "occ",
				"energy": -0.20952,
				"method": "rhf"
			},
			{
				"type": "unocc",
				"energy": -0.06354,
				"method": "rhf"
			},
			{
				"type": "unocc",
				"energy": -0.02281,
				"method": "rhf"
			},
			{
				"type": "unocc",
				"energy": -0.01589,
				"method": "rhf"
			},
			{
				"type": "unocc",
				"energy": 0.02335,
				"method": "rhf"
			},
			{
				"type": "unocc",
				"energy": 0.0404,
				"method": "rhf"
			}
		],
		"cosmo_sigma_profile": { 
			"-0.025": 0.0,
			"-0.024": 0.0,
			"-0.023": 0.0,
			"-0.022": 0.0,
			"-0.021": 0.0,
			"-0.02": 0.0,
			"-0.019": 0.0,
			"-0.018": 0.0,
			"-0.017": 0.373150567024,
			"-0.016": 0.601937574004,
			"-0.015": 0.838793920173,
			"-0.014": 0.936289583914,
			"-0.013": 0.777464186744,
			"-0.012": 2.59953494737,
			"-0.011": 2.9213360561,
			"-0.01": 2.50540518645,
			"-0.009": 1.70743992477,
			"-0.008": 3.3323091827,
			"-0.007": 10.3451949064,
			"-0.006": 20.0496420439,
			"-0.005": 18.3709759535,
			"-0.004": 22.1153074173,
			"-0.003": 16.6928703172,
			"-0.002": 19.3368836447,
			"-0.001": 18.7291182012,
			"0.0": 17.2779601221,
			"0.001": 13.2725032436,
			"0.002": 13.8907056263,
			"0.003": 13.0018023926,
			"0.004": 12.343891449,
			"0.005": 4.66255129197,
			"0.006": 3.99591464293,
			"0.007": 3.43979502662,
			"0.008": 3.46685727216,
			"0.009": 2.99748930365,
			"0.01": 3.09753716871,
			"0.011": 2.46811366536,
			"0.012": 3.2286950239,
			"0.013": 3.97628405741,
			"0.014": 6.99878877715,
			"0.015": 3.59899124297,
			"0.016": 2.55965749419,
			"0.017": 2.34401634721,
			"0.018": 1.38601667029,
			"0.019": 0.0306143222722,
			"0.02": 0.0,
			"0.021": 0.0,
			"0.022": 0.0,
			"0.023": 0.0,
			"0.024": 0.0,
			"0.025": 0.0
		}
	}
}
