{
	 "smiles": "OCC1CCCCC1", 
	 "Tm": 230.15, 
	 "num_atms": 22, 
	 "gaussian": { 
		 "optdone": 1, 
		 "sigma_profile": "yes", 
		 "theory": "DFT", 
		 "functional": "B3LYP", 
		 "basiset": "6-31G**", 
		 "properties": { 
			 "R2extent": 1199.3407, 
			 "electric_dipole_moment_norm": 1.58478368871, 
			 "electric_quadrupole_moment_norm": 6.45260703205, 
			 "total_energy": -350.416662612, 
			 "HOMO_LUMO_gap": 0.3315, 
			 "cosmo_polarized_energy": -5.45, 
			 "cosmo_cavitation_energy": 22.02, 
			 "cosmo_dispersion_energy": -16.68, 
			 "cosmo_repulsion_energy": 1.4, 
			 "cosmo_total_nonelectrostatic_energy": 6.74, 
			 "SMD_solvation_energy": 2.9 
		},
		"coords": [
			{
				"x": 0.2442220053,
				"y": 2.7628209362,
				"z": -1.5166558434,
				"element": "O" 
			},
			{
				"x": 1.1664433509,
				"y": 1.9114337693,
				"z": -0.84318712,
				"element": "C" 
			},
			{
				"x": 0.5277158263,
				"y": 0.649301238,
				"z": -0.2431791096,
				"element": "C" 
			},
			{
				"x": -0.4737951486,
				"y": 0.9844278665,
				"z": 0.8791812709,
				"element": "C" 
			},
			{
				"x": -1.1231906475,
				"y": -0.2748664868,
				"z": 1.4738128012,
				"element": "C" 
			},
			{
				"x": -1.7893043147,
				"y": -1.1286878555,
				"z": 0.3847448352,
				"element": "C" 
			},
			{
				"x": -0.7951894451,
				"y": -1.4801495551,
				"z": -0.7321409776,
				"element": "C" 
			},
			{
				"x": -0.1378579347,
				"y": -0.2235169782,
				"z": -1.3228612476,
				"element": "C" 
			},
			{
				"x": -0.338268537,
				"y": 3.1516239681,
				"z": -0.8525286516,
				"element": "H" 
			},
			{
				"x": 1.706514451,
				"y": 2.4621281065,
				"z": -0.0552810296,
				"element": "H" 
			},
			{
				"x": 1.9035972601,
				"y": 1.6247796855,
				"z": -1.6015301833,
				"element": "H" 
			},
			{
				"x": 1.3514964839,
				"y": 0.0721233918,
				"z": 0.2075708008,
				"element": "H" 
			},
			{
				"x": -1.2689107361,
				"y": 1.6266368543,
				"z": 0.4708017511,
				"element": "H" 
			},
			{
				"x": 0.0260155319,
				"y": 1.5626057046,
				"z": 1.668052249,
				"element": "H" 
			},
			{
				"x": -0.351698803,
				"y": -0.8721495554,
				"z": 1.9804533783,
				"element": "H" 
			},
			{
				"x": -1.8543600346,
				"y": 0.0044941111,
				"z": 2.2420720936,
				"element": "H" 
			},
			{
				"x": -2.2098861067,
				"y": -2.0419336293,
				"z": 0.8226805529,
				"element": "H" 
			},
			{
				"x": -2.6337145471,
				"y": -0.5706949461,
				"z": -0.0447620954,
				"element": "H" 
			},
			{
				"x": -0.0157411942,
				"y": -2.1396244929,
				"z": -0.3236293458,
				"element": "H" 
			},
			{
				"x": -1.2982410541,
				"y": -2.0490925411,
				"z": -1.5233812924,
				"element": "H" 
			},
			{
				"x": -0.8896984441,
				"y": 0.3834723549,
				"z": -1.8431381379,
				"element": "H" 
			},
			{
				"x": 0.6063520381,
				"y": -0.5064319465,
				"z": -2.0784946989,
				"element": "H" 
			}
		],
		 "valence_orbital": [ 
			{
				"type": "occ",
				"energy": -0.32216,
				"method": "rhf"
			},
			{
				"type": "occ",
				"energy": -0.31067,
				"method": "rhf"
			},
			{
				"type": "occ",
				"energy": -0.30601,
				"method": "rhf"
			},
			{
				"type": "occ",
				"energy": -0.29136,
				"method": "rhf"
			},
			{
				"type": "occ",
				"energy": -0.25873,
				"method": "rhf"
			},
			{
				"type": "unocc",
				"energy": 0.07277,
				"method": "rhf"
			},
			{
				"type": "unocc",
				"energy": 0.08906,
				"method": "rhf"
			},
			{
				"type": "unocc",
				"energy": 0.10589,
				"method": "rhf"
			},
			{
				"type": "unocc",
				"energy": 0.12826,
				"method": "rhf"
			},
			{
				"type": "unocc",
				"energy": 0.14108,
				"method": "rhf"
			}
		],
		"cosmo_sigma_profile": { 
			"-0.025": 0.0,
			"-0.024": 0.0,
			"-0.023": 0.0,
			"-0.022": 0.0,
			"-0.021": 0.0,
			"-0.02": 0.0,
			"-0.019": 0.0,
			"-0.018": 0.0,
			"-0.017": 0.0,
			"-0.016": 0.0,
			"-0.015": 0.0260786900596,
			"-0.014": 0.65562347201,
			"-0.013": 0.87735294216,
			"-0.012": 0.849155709325,
			"-0.011": 0.918885098636,
			"-0.01": 1.35946324701,
			"-0.009": 0.6800849132,
			"-0.008": 0.741759251097,
			"-0.007": 1.13472428581,
			"-0.006": 1.11942309804,
			"-0.005": 1.56427617065,
			"-0.004": 1.71091653937,
			"-0.003": 8.45982191596,
			"-0.002": 26.9578607407,
			"-0.001": 35.0900117517,
			"0.0": 32.8052065901,
			"0.001": 25.2802370729,
			"0.002": 8.99199880395,
			"0.003": 2.07421573428,
			"0.004": 1.63351552992,
			"0.005": 1.4211732213,
			"0.006": 1.05818996841,
			"0.007": 1.69912582462,
			"0.008": 1.33962561723,
			"0.009": 1.08754402143,
			"0.01": 1.60039914383,
			"0.011": 1.11411536969,
			"0.012": 1.16403145937,
			"0.013": 1.31945618495,
			"0.014": 2.12580441775,
			"0.015": 1.33740886355,
			"0.016": 0.0,
			"0.017": 0.0,
			"0.018": 0.0,
			"0.019": 0.0,
			"0.02": 0.0,
			"0.021": 0.0,
			"0.022": 0.0,
			"0.023": 0.0,
			"0.024": 0.0,
			"0.025": 0.0
		}
	}
}
