{
	 "smiles": "[O-][N+](=O)C1=CC2=C(OC=C(C=O)C2=O)C=C1", 
	 "Tm": 432.15, 
	 "num_atms": 21, 
	 "gaussian": { 
		 "optdone": 1, 
		 "sigma_profile": "yes", 
		 "theory": "DFT", 
		 "functional": "B3LYP", 
		 "basiset": "6-31G**", 
		 "properties": { 
			 "R2extent": 4391.8966, 
			 "electric_dipole_moment_norm": 4.56512555578, 
			 "electric_quadrupole_moment_norm": 24.2609876994, 
			 "total_energy": -814.822081066, 
			 "HOMO_LUMO_gap": 0.15298, 
			 "cosmo_polarized_energy": -15.68, 
			 "cosmo_cavitation_energy": 27.89, 
			 "cosmo_dispersion_energy": -20.38, 
			 "cosmo_repulsion_energy": 1.54, 
			 "cosmo_total_nonelectrostatic_energy": 9.05, 
			 "SMD_solvation_energy": 9.44 
		},
		"coords": [
			{
				"x": -2.923921974,
				"y": -1.7675095582,
				"z": 0.2488103071,
				"element": "O" 
			},
			{
				"x": -2.7684135117,
				"y": -0.849063151,
				"z": -0.5515326226,
				"element": "N" 
			},
			{
				"x": -3.6630742635,
				"y": -0.3304241863,
				"z": -1.218116104,
				"element": "O" 
			},
			{
				"x": -1.4024375084,
				"y": -0.3244862677,
				"z": -0.7293572609,
				"element": "C" 
			},
			{
				"x": -0.3663814895,
				"y": -0.8804886732,
				"z": 0.0019815906,
				"element": "C" 
			},
			{
				"x": 0.930597959,
				"y": -0.3804155273,
				"z": -0.1686483959,
				"element": "C" 
			},
			{
				"x": 1.1317701827,
				"y": 0.6694129724,
				"z": -1.0779527045,
				"element": "C" 
			},
			{
				"x": 2.3784589314,
				"y": 1.2049728822,
				"z": -1.2916769833,
				"element": "O" 
			},
			{
				"x": 3.4259190825,
				"y": 0.7083364785,
				"z": -0.6116796255,
				"element": "C" 
			},
			{
				"x": 3.3595435229,
				"y": -0.3014578715,
				"z": 0.2906562419,
				"element": "C" 
			},
			{
				"x": 4.6079666052,
				"y": -0.7414624327,
				"z": 0.9630956373,
				"element": "C" 
			},
			{
				"x": 5.6971667676,
				"y": -0.2413999254,
				"z": 0.7472368993,
				"element": "O" 
			},
			{
				"x": 2.0736808829,
				"y": -0.9460698326,
				"z": 0.5948080998,
				"element": "C" 
			},
			{
				"x": 1.9436998628,
				"y": -1.8630107728,
				"z": 1.3987761319,
				"element": "O" 
			},
			{
				"x": 0.0799923469,
				"y": 1.2264599736,
				"z": -1.8137048548,
				"element": "C" 
			},
			{
				"x": -1.1990387493,
				"y": 0.7242410556,
				"z": -1.6372336831,
				"element": "C" 
			},
			{
				"x": -0.5381474845,
				"y": -1.690755848,
				"z": 0.7002265248,
				"element": "H" 
			},
			{
				"x": 4.3561267698,
				"y": 1.2072130746,
				"z": -0.8612282546,
				"element": "H" 
			},
			{
				"x": 4.4704604225,
				"y": -1.5677653277,
				"z": 1.6831897223,
				"element": "H" 
			},
			{
				"x": 0.2835936323,
				"y": 2.0365825888,
				"z": -2.5048285329,
				"element": "H" 
			},
			{
				"x": -2.0450619876,
				"y": 1.1219903486,
				"z": -2.1833221331,
				"element": "H" 
			}
		],
		 "valence_orbital": [ 
			{
				"type": "occ",
				"energy": -0.30615,
				"method": "rhf"
			},
			{
				"type": "occ",
				"energy": -0.30375,
				"method": "rhf"
			},
			{
				"type": "occ",
				"energy": -0.29011,
				"method": "rhf"
			},
			{
				"type": "occ",
				"energy": -0.27937,
				"method": "rhf"
			},
			{
				"type": "occ",
				"energy": -0.26284,
				"method": "rhf"
			},
			{
				"type": "unocc",
				"energy": -0.10986,
				"method": "rhf"
			},
			{
				"type": "unocc",
				"energy": -0.08941,
				"method": "rhf"
			},
			{
				"type": "unocc",
				"energy": -0.07887,
				"method": "rhf"
			},
			{
				"type": "unocc",
				"energy": -0.02538,
				"method": "rhf"
			},
			{
				"type": "unocc",
				"energy": -0.00336,
				"method": "rhf"
			}
		],
		"cosmo_sigma_profile": { 
			"-0.025": 0.0,
			"-0.024": 0.0,
			"-0.023": 0.0,
			"-0.022": 0.0,
			"-0.021": 0.0,
			"-0.02": 0.0,
			"-0.019": 0.0,
			"-0.018": 0.0,
			"-0.017": 0.0,
			"-0.016": 0.0,
			"-0.015": 0.0,
			"-0.014": 0.0,
			"-0.013": 0.0,
			"-0.012": 0.0854716147722,
			"-0.011": 1.49018239634,
			"-0.01": 1.76844646813,
			"-0.009": 4.37683385033,
			"-0.008": 7.11029952882,
			"-0.007": 8.30829502373,
			"-0.006": 11.8031005467,
			"-0.005": 14.2994170885,
			"-0.004": 20.0721236034,
			"-0.003": 23.9901216598,
			"-0.002": 23.7338069574,
			"-0.001": 15.3948445804,
			"0.0": 8.67240915111,
			"0.001": 6.23193284343,
			"0.002": 7.70076363941,
			"0.003": 6.69380717711,
			"0.004": 5.38261672043,
			"0.005": 6.53461688723,
			"0.006": 6.74373003657,
			"0.007": 12.6720238787,
			"0.008": 8.39450966044,
			"0.009": 7.07273679642,
			"0.01": 6.711068846,
			"0.011": 6.95725494646,
			"0.012": 3.87205734811,
			"0.013": 0.103408457198,
			"0.014": 0.0,
			"0.015": 0.0,
			"0.016": 0.0,
			"0.017": 0.0,
			"0.018": 0.0,
			"0.019": 0.0,
			"0.02": 0.0,
			"0.021": 0.0,
			"0.022": 0.0,
			"0.023": 0.0,
			"0.024": 0.0,
			"0.025": 0.0
		}
	}
}
