{
	 "smiles": "NC1=CC=C(C=CC(=NO)C2=CC=CC=C2)C=C1", 
	 "Tm": 411.15, 
	 "num_atms": 32, 
	 "gaussian": { 
		 "optdone": 1, 
		 "sigma_profile": "yes", 
		 "theory": "DFT", 
		 "functional": "B3LYP", 
		 "basiset": "6-31G**", 
		 "properties": { 
			 "R2extent": 7530.278, 
			 "electric_dipole_moment_norm": 2.90840959117, 
			 "electric_quadrupole_moment_norm": 17.735531305, 
			 "total_energy": -764.696608159, 
			 "HOMO_LUMO_gap": 0.14306, 
			 "cosmo_polarized_energy": -16.22, 
			 "cosmo_cavitation_energy": 36.96, 
			 "cosmo_dispersion_energy": -26.26, 
			 "cosmo_repulsion_energy": 2.06, 
			 "cosmo_total_nonelectrostatic_energy": 12.76, 
			 "SMD_solvation_energy": 6.08 
		},
		"coords": [
			{
				"x": 0.019801106,
				"y": 4.9953956778,
				"z": 0.3144866392,
				"element": "N" 
			},
			{
				"x": -0.1517422009,
				"y": 3.6161555589,
				"z": 0.2368061707,
				"element": "C" 
			},
			{
				"x": 0.8906934304,
				"y": 2.7358334955,
				"z": 0.5736374691,
				"element": "C" 
			},
			{
				"x": 0.6890980037,
				"y": 1.3618619327,
				"z": 0.5440198299,
				"element": "C" 
			},
			{
				"x": -0.5484497794,
				"y": 0.7961823299,
				"z": 0.1821596707,
				"element": "C" 
			},
			{
				"x": -0.6917745174,
				"y": -0.6573981923,
				"z": 0.1720348369,
				"element": "C" 
			},
			{
				"x": -1.8092808754,
				"y": -1.3650677839,
				"z": -0.1045494395,
				"element": "C" 
			},
			{
				"x": -1.921171037,
				"y": -2.8215089018,
				"z": -0.0927934082,
				"element": "C" 
			},
			{
				"x": -3.1318801226,
				"y": -3.2612699516,
				"z": -0.2531022099,
				"element": "N" 
			},
			{
				"x": -3.206402321,
				"y": -4.6612787441,
				"z": -0.2507760985,
				"element": "O" 
			},
			{
				"x": -0.7222091584,
				"y": -3.6928208343,
				"z": 0.0955256616,
				"element": "C" 
			},
			{
				"x": -0.6500613174,
				"y": -4.5936067756,
				"z": 1.1682452404,
				"element": "C" 
			},
			{
				"x": 0.4764396527,
				"y": -5.3957350163,
				"z": 1.3425440413,
				"element": "C" 
			},
			{
				"x": 1.5416202629,
				"y": -5.3182088111,
				"z": 0.4420721866,
				"element": "C" 
			},
			{
				"x": 1.4753449943,
				"y": -4.4309149755,
				"z": -0.6329855531,
				"element": "C" 
			},
			{
				"x": 0.3525298878,
				"y": -3.6194701203,
				"z": -0.8026547983,
				"element": "C" 
			},
			{
				"x": -1.5844190331,
				"y": 1.6912610122,
				"z": -0.1551275859,
				"element": "C" 
			},
			{
				"x": -1.3954404098,
				"y": 3.0644687297,
				"z": -0.1291488565,
				"element": "C" 
			},
			{
				"x": -0.6150839309,
				"y": 5.5480623671,
				"z": -0.2442888396,
				"element": "H" 
			},
			{
				"x": 0.9735532686,
				"y": 5.3225058679,
				"z": 0.2503716785,
				"element": "H" 
			},
			{
				"x": 1.8592700061,
				"y": 3.1367469889,
				"z": 0.8625118042,
				"element": "H" 
			},
			{
				"x": 1.5122893703,
				"y": 0.7021801298,
				"z": 0.8076791255,
				"element": "H" 
			},
			{
				"x": 0.2126245455,
				"y": -1.2074818444,
				"z": 0.4236680845,
				"element": "H" 
			},
			{
				"x": -2.7451194896,
				"y": -0.8619486283,
				"z": -0.334474288,
				"element": "H" 
			},
			{
				"x": -4.1504984444,
				"y": -4.8068896715,
				"z": -0.397184331,
				"element": "H" 
			},
			{
				"x": -1.4827725874,
				"y": -4.6644239252,
				"z": 1.8597240225,
				"element": "H" 
			},
			{
				"x": 0.5214717127,
				"y": -6.0855212473,
				"z": 2.1806242073,
				"element": "H" 
			},
			{
				"x": 2.4170400523,
				"y": -5.947123326,
				"z": 0.5773786366,
				"element": "H" 
			},
			{
				"x": 2.2973386774,
				"y": -4.368178593,
				"z": -1.3405393956,
				"element": "H" 
			},
			{
				"x": 0.3021040573,
				"y": -2.9288357745,
				"z": -1.63895532,
				"element": "H" 
			},
			{
				"x": -2.5562586509,
				"y": 1.3064211962,
				"z": -0.4488395234,
				"element": "H" 
			},
			{
				"x": -2.2160551523,
				"y": 3.7279078305,
				"z": -0.3919696581,
				"element": "H" 
			}
		],
		 "valence_orbital": [ 
			{
				"type": "occ",
				"energy": -0.24967,
				"method": "rhf"
			},
			{
				"type": "occ",
				"energy": -0.2489,
				"method": "rhf"
			},
			{
				"type": "occ",
				"energy": -0.24537,
				"method": "rhf"
			},
			{
				"type": "occ",
				"energy": -0.23015,
				"method": "rhf"
			},
			{
				"type": "occ",
				"energy": -0.18379,
				"method": "rhf"
			},
			{
				"type": "unocc",
				"energy": -0.04073,
				"method": "rhf"
			},
			{
				"type": "unocc",
				"energy": -0.00564,
				"method": "rhf"
			},
			{
				"type": "unocc",
				"energy": 0.0029,
				"method": "rhf"
			},
			{
				"type": "unocc",
				"energy": 0.00368,
				"method": "rhf"
			},
			{
				"type": "unocc",
				"energy": 0.04102,
				"method": "rhf"
			}
		],
		"cosmo_sigma_profile": { 
			"-0.025": 0.0,
			"-0.024": 0.0,
			"-0.023": 0.0,
			"-0.022": 0.0,
			"-0.021": 0.0,
			"-0.02": 0.0,
			"-0.019": 0.0,
			"-0.018": 0.0,
			"-0.017": 0.77772301874,
			"-0.016": 0.92644430034,
			"-0.015": 0.771502425259,
			"-0.014": 0.753741677922,
			"-0.013": 2.28069665158,
			"-0.012": 3.23006259925,
			"-0.011": 3.64511334692,
			"-0.01": 2.96628493833,
			"-0.009": 3.77602379455,
			"-0.008": 3.66840138439,
			"-0.007": 5.23346805757,
			"-0.006": 14.7439141302,
			"-0.005": 20.1174855837,
			"-0.004": 20.5582632712,
			"-0.003": 20.5423383319,
			"-0.002": 15.085660989,
			"-0.001": 15.9233670573,
			"0.0": 16.0824363777,
			"0.001": 16.7650028552,
			"0.002": 15.9650679348,
			"0.003": 20.5222428936,
			"0.004": 21.9796903564,
			"0.005": 25.668472457,
			"0.006": 18.878431558,
			"0.007": 4.59248328908,
			"0.008": 5.08351912335,
			"0.009": 3.95890810735,
			"0.01": 3.07188048325,
			"0.011": 3.62375852426,
			"0.012": 1.37238273459,
			"0.013": 1.43201504456,
			"0.014": 0.582606374677,
			"0.015": 0.0,
			"0.016": 0.0,
			"0.017": 0.0,
			"0.018": 0.0,
			"0.019": 0.0,
			"0.02": 0.0,
			"0.021": 0.0,
			"0.022": 0.0,
			"0.023": 0.0,
			"0.024": 0.0,
			"0.025": 0.0
		}
	}
}
