{
	 "smiles": "CC1=CC=C(C=C1)C(C1=CC=C(C)C=C1)(C(F)(F)F)C(F)(F)F", 
	 "Tm": 355.65, 
	 "num_atms": 37, 
	 "gaussian": { 
		 "optdone": 1, 
		 "sigma_profile": "yes", 
		 "theory": "DFT", 
		 "functional": "B3LYP", 
		 "basiset": "6-31G**", 
		 "properties": { 
			 "R2extent": 7049.4575, 
			 "electric_dipole_moment_norm": 3.07720155661, 
			 "electric_quadrupole_moment_norm": 12.8496812167, 
			 "total_energy": -1255.31163274, 
			 "HOMO_LUMO_gap": 0.22537, 
			 "cosmo_polarized_energy": -5.55, 
			 "cosmo_cavitation_energy": 40.55, 
			 "cosmo_dispersion_energy": -27.74, 
			 "cosmo_repulsion_energy": 2.02, 
			 "cosmo_total_nonelectrostatic_energy": 14.82, 
			 "SMD_solvation_energy": 8.88 
		},
		"coords": [
			{
				"x": 0.7344503072,
				"y": -3.1318651252,
				"z": 3.7301709445,
				"element": "C" 
			},
			{
				"x": 0.4540878944,
				"y": -2.310716113,
				"z": 2.4946563775,
				"element": "C" 
			},
			{
				"x": 0.8136100003,
				"y": -0.9585523722,
				"z": 2.4267550665,
				"element": "C" 
			},
			{
				"x": 0.5245876209,
				"y": -0.1906057265,
				"z": 1.3023978352,
				"element": "C" 
			},
			{
				"x": -0.1337536862,
				"y": -0.7470462893,
				"z": 0.1952125845,
				"element": "C" 
			},
			{
				"x": -0.4753666957,
				"y": -2.1039792051,
				"z": 0.2496707212,
				"element": "C" 
			},
			{
				"x": -0.1916776064,
				"y": -2.8641928924,
				"z": 1.3846016458,
				"element": "C" 
			},
			{
				"x": -0.3696242921,
				"y": 0.1432298721,
				"z": -1.0463000509,
				"element": "C" 
			},
			{
				"x": -0.880285761,
				"y": 1.5466794209,
				"z": -0.6473200793,
				"element": "C" 
			},
			{
				"x": -0.4464030554,
				"y": 2.7296311514,
				"z": -1.2582919553,
				"element": "C" 
			},
			{
				"x": -0.9828545983,
				"y": 3.9619815238,
				"z": -0.8841691661,
				"element": "C" 
			},
			{
				"x": -1.977552017,
				"y": 4.0616137596,
				"z": 0.0937135205,
				"element": "C" 
			},
			{
				"x": -2.5351203628,
				"y": 5.400531732,
				"z": 0.5129962278,
				"element": "C" 
			},
			{
				"x": -2.4241766747,
				"y": 2.8734341464,
				"z": 0.6861210977,
				"element": "C" 
			},
			{
				"x": -1.8864624518,
				"y": 1.6410683901,
				"z": 0.326095503,
				"element": "C" 
			},
			{
				"x": 0.9862926011,
				"y": 0.1980695412,
				"z": -1.8093413808,
				"element": "C" 
			},
			{
				"x": 1.8962558448,
				"y": 0.9163084774,
				"z": -1.1199868135,
				"element": "F" 
			},
			{
				"x": 0.8779441199,
				"y": 0.7613877003,
				"z": -3.0347670325,
				"element": "F" 
			},
			{
				"x": 1.4988083264,
				"y": -1.0305083977,
				"z": -1.9905680076,
				"element": "F" 
			},
			{
				"x": -1.4360404239,
				"y": -0.4519996345,
				"z": -2.0117583016,
				"element": "C" 
			},
			{
				"x": -1.7548005036,
				"y": 0.4148519557,
				"z": -2.9874087244,
				"element": "F" 
			},
			{
				"x": -2.5726116766,
				"y": -0.7472008447,
				"z": -1.3482622652,
				"element": "F" 
			},
			{
				"x": -1.0208577624,
				"y": -1.5880068433,
				"z": -2.618174122,
				"element": "F" 
			},
			{
				"x": -0.0576284529,
				"y": -3.0033094131,
				"z": 4.4785744334,
				"element": "H" 
			},
			{
				"x": 0.7922752475,
				"y": -4.1989642942,
				"z": 3.4969221829,
				"element": "H" 
			},
			{
				"x": 1.6762160805,
				"y": -2.8354143116,
				"z": 4.2023144185,
				"element": "H" 
			},
			{
				"x": 1.3276998675,
				"y": -0.4965349476,
				"z": 3.2659898007,
				"element": "H" 
			},
			{
				"x": 0.8145449163,
				"y": 0.8537570581,
				"z": 1.2853474299,
				"element": "H" 
			},
			{
				"x": -0.960690134,
				"y": -2.5881526613,
				"z": -0.5870814518,
				"element": "H" 
			},
			{
				"x": -0.4753482449,
				"y": -3.913561682,
				"z": 1.3985425255,
				"element": "H" 
			},
			{
				"x": 0.3079574525,
				"y": 2.7095579083,
				"z": -2.0332953245,
				"element": "H" 
			},
			{
				"x": -0.6203905893,
				"y": 4.862958426,
				"z": -1.3727377256,
				"element": "H" 
			},
			{
				"x": -2.0162000939,
				"y": 5.7847028218,
				"z": 1.4002140305,
				"element": "H" 
			},
			{
				"x": -2.422597096,
				"y": 6.1466665064,
				"z": -0.2788835374,
				"element": "H" 
			},
			{
				"x": -3.597684789,
				"y": 5.330072763,
				"z": 0.7654101423,
				"element": "H" 
			},
			{
				"x": -3.2048873754,
				"y": 2.9103381222,
				"z": 1.441893454,
				"element": "H" 
			},
			{
				"x": -2.2536159361,
				"y": 0.741869477,
				"z": 0.8074459967,
				"element": "H" 
			}
		],
		 "valence_orbital": [ 
			{
				"type": "occ",
				"energy": -0.33585,
				"method": "rhf"
			},
			{
				"type": "occ",
				"energy": -0.25802,
				"method": "rhf"
			},
			{
				"type": "occ",
				"energy": -0.25195,
				"method": "rhf"
			},
			{
				"type": "occ",
				"energy": -0.24978,
				"method": "rhf"
			},
			{
				"type": "occ",
				"energy": -0.2391,
				"method": "rhf"
			},
			{
				"type": "unocc",
				"energy": -0.01373,
				"method": "rhf"
			},
			{
				"type": "unocc",
				"energy": -0.01248,
				"method": "rhf"
			},
			{
				"type": "unocc",
				"energy": -0.01103,
				"method": "rhf"
			},
			{
				"type": "unocc",
				"energy": 0.00198,
				"method": "rhf"
			},
			{
				"type": "unocc",
				"energy": 0.09019,
				"method": "rhf"
			}
		],
		"cosmo_sigma_profile": { 
			"-0.025": 0.0,
			"-0.024": 0.0,
			"-0.023": 0.0,
			"-0.022": 0.0,
			"-0.021": 0.0,
			"-0.02": 0.0,
			"-0.019": 0.0,
			"-0.018": 0.0,
			"-0.017": 0.0,
			"-0.016": 0.0,
			"-0.015": 0.0,
			"-0.014": 0.0,
			"-0.013": 0.0,
			"-0.012": 0.0,
			"-0.011": 0.0,
			"-0.01": 0.0,
			"-0.009": 0.0,
			"-0.008": 0.0,
			"-0.007": 0.0,
			"-0.006": 5.1517394586,
			"-0.005": 18.3716193443,
			"-0.004": 29.7993705474,
			"-0.003": 23.1814232577,
			"-0.002": 25.6663959629,
			"-0.001": 30.2692954278,
			"0.0": 31.2986304985,
			"0.001": 32.8733690437,
			"0.002": 62.6596914683,
			"0.003": 32.8561130915,
			"0.004": 18.2285070538,
			"0.005": 12.465048145,
			"0.006": 0.0383896264667,
			"0.007": 0.0,
			"0.008": 0.0,
			"0.009": 0.0,
			"0.01": 0.0,
			"0.011": 0.0,
			"0.012": 0.0,
			"0.013": 0.0,
			"0.014": 0.0,
			"0.015": 0.0,
			"0.016": 0.0,
			"0.017": 0.0,
			"0.018": 0.0,
			"0.019": 0.0,
			"0.02": 0.0,
			"0.021": 0.0,
			"0.022": 0.0,
			"0.023": 0.0,
			"0.024": 0.0,
			"0.025": 0.0
		}
	}
}
