{
	 "smiles": "CC1=NC2=C(C=CC=C2)C(=O)N1C1=CC=C(Br)C=C1", 
	 "Tm": 450.15, 
	 "num_atms": 30, 
	 "gaussian": { 
		 "optdone": 1, 
		 "sigma_profile": "yes", 
		 "theory": "DFT", 
		 "functional": "B3LYP", 
		 "basiset": "6-31G**", 
		 "properties": { 
			 "R2extent": 10226.3682, 
			 "electric_dipole_moment_norm": 2.020355147, 
			 "electric_quadrupole_moment_norm": 10.6669481245, 
			 "total_energy": -3334.38811409, 
			 "HOMO_LUMO_gap": 0.18658, 
			 "cosmo_polarized_energy": -13.14, 
			 "cosmo_cavitation_energy": 36.83, 
			 "cosmo_dispersion_energy": -26.54, 
			 "cosmo_repulsion_energy": 2.03, 
			 "cosmo_total_nonelectrostatic_energy": 12.32, 
			 "SMD_solvation_energy": 4.32 
		},
		"coords": [
			{
				"x": 0.2570607587,
				"y": -2.1712228907,
				"z": -0.0814472124,
				"element": "C" 
			},
			{
				"x": 0.2606559337,
				"y": -0.7649784801,
				"z": 0.4540973367,
				"element": "C" 
			},
			{
				"x": 1.0425949984,
				"y": -0.4794085462,
				"z": 1.4458661472,
				"element": "N" 
			},
			{
				"x": 1.0445508897,
				"y": 0.8171453688,
				"z": 1.9379581043,
				"element": "C" 
			},
			{
				"x": 0.2266108955,
				"y": 1.8320937998,
				"z": 1.3962687881,
				"element": "C" 
			},
			{
				"x": 0.2586152016,
				"y": 3.1333666412,
				"z": 1.9239352463,
				"element": "C" 
			},
			{
				"x": 1.0998229058,
				"y": 3.4265066776,
				"z": 2.9860753888,
				"element": "C" 
			},
			{
				"x": 1.9178440741,
				"y": 2.4194703731,
				"z": 3.5309262383,
				"element": "C" 
			},
			{
				"x": 1.8937575256,
				"y": 1.1318657636,
				"z": 3.0172966285,
				"element": "C" 
			},
			{
				"x": -0.6610580484,
				"y": 1.5195246455,
				"z": 0.2745242192,
				"element": "C" 
			},
			{
				"x": -1.4138248821,
				"y": 2.3066531659,
				"z": -0.2797210979,
				"element": "O" 
			},
			{
				"x": -0.5869933573,
				"y": 0.1648210315,
				"z": -0.1527951631,
				"element": "N" 
			},
			{
				"x": -1.4399497882,
				"y": -0.2053941519,
				"z": -1.2564210094,
				"element": "C" 
			},
			{
				"x": -2.7326196539,
				"y": -0.6706821952,
				"z": -1.0112119838,
				"element": "C" 
			},
			{
				"x": -3.5592081425,
				"y": -1.0330232182,
				"z": -2.0739999563,
				"element": "C" 
			},
			{
				"x": -3.0795034426,
				"y": -0.9177672384,
				"z": -3.3781122148,
				"element": "C" 
			},
			{
				"x": -4.2040200241,
				"y": -1.4176114912,
				"z": -4.8376464643,
				"element": "Br" 
			},
			{
				"x": -1.7945793224,
				"y": -0.4418367413,
				"z": -3.6361115738,
				"element": "C" 
			},
			{
				"x": -0.9755154613,
				"y": -0.0821006516,
				"z": -2.5666418604,
				"element": "C" 
			},
			{
				"x": -0.7347632251,
				"y": -2.6278977932,
				"z": -0.0056524443,
				"element": "H" 
			},
			{
				"x": 0.9693075203,
				"y": -2.7525056789,
				"z": 0.5028523988,
				"element": "H" 
			},
			{
				"x": 0.5428144399,
				"y": -2.2000859401,
				"z": -1.1376200246,
				"element": "H" 
			},
			{
				"x": -0.3855805808,
				"y": 3.8844861693,
				"z": 1.4790521167,
				"element": "H" 
			},
			{
				"x": 1.1288781003,
				"y": 4.430551116,
				"z": 3.39815028,
				"element": "H" 
			},
			{
				"x": 2.5755982614,
				"y": 2.6536177047,
				"z": 4.3633006811,
				"element": "H" 
			},
			{
				"x": 2.5173252591,
				"y": 0.3428306437,
				"z": 3.4244494018,
				"element": "H" 
			},
			{
				"x": -3.0929317745,
				"y": -0.7431150902,
				"z": 0.0099837817,
				"element": "H" 
			},
			{
				"x": -4.5638023935,
				"y": -1.3962607829,
				"z": -1.8914274957,
				"element": "H" 
			},
			{
				"x": -1.4405345275,
				"y": -0.3499275139,
				"z": -4.6562476489,
				"element": "H" 
			},
			{
				"x": 0.0235478601,
				"y": 0.3007853034,
				"z": -2.7487806078,
				"element": "H" 
			}
		],
		 "valence_orbital": [ 
			{
				"type": "occ",
				"energy": -0.27452,
				"method": "rhf"
			},
			{
				"type": "occ",
				"energy": -0.26304,
				"method": "rhf"
			},
			{
				"type": "occ",
				"energy": -0.2595,
				"method": "rhf"
			},
			{
				"type": "occ",
				"energy": -0.25122,
				"method": "rhf"
			},
			{
				"type": "occ",
				"energy": -0.22836,
				"method": "rhf"
			},
			{
				"type": "unocc",
				"energy": -0.04178,
				"method": "rhf"
			},
			{
				"type": "unocc",
				"energy": -0.03418,
				"method": "rhf"
			},
			{
				"type": "unocc",
				"energy": -0.0308,
				"method": "rhf"
			},
			{
				"type": "unocc",
				"energy": -0.02804,
				"method": "rhf"
			},
			{
				"type": "unocc",
				"energy": -0.00145,
				"method": "rhf"
			}
		],
		"cosmo_sigma_profile": { 
			"-0.025": 0.0,
			"-0.024": 0.0,
			"-0.023": 0.0,
			"-0.022": 0.0,
			"-0.021": 0.0,
			"-0.02": 0.0,
			"-0.019": 0.0,
			"-0.018": 0.0,
			"-0.017": 0.0,
			"-0.016": 0.0,
			"-0.015": 0.0,
			"-0.014": 0.0,
			"-0.013": 0.0,
			"-0.012": 0.0,
			"-0.011": 0.0,
			"-0.01": 0.0,
			"-0.009": 0.00353285428444,
			"-0.008": 4.09102103811,
			"-0.007": 10.9266324345,
			"-0.006": 20.6728056927,
			"-0.005": 23.2730291547,
			"-0.004": 23.0331592479,
			"-0.003": 20.8147874993,
			"-0.002": 21.2517409305,
			"-0.001": 20.4770915603,
			"0.0": 18.9573565361,
			"0.001": 24.1508138878,
			"0.002": 27.762930352,
			"0.003": 26.1587513743,
			"0.004": 22.3357114301,
			"0.005": 6.41062406582,
			"0.006": 3.98279558539,
			"0.007": 3.13941292883,
			"0.008": 2.66671782232,
			"0.009": 2.62212428221,
			"0.01": 3.41769747505,
			"0.011": 2.96311352389,
			"0.012": 4.43177717573,
			"0.013": 4.95568834805,
			"0.014": 0.79510533076,
			"0.015": 0.147187867463,
			"0.016": 0.0,
			"0.017": 0.0,
			"0.018": 0.0,
			"0.019": 0.0,
			"0.02": 0.0,
			"0.021": 0.0,
			"0.022": 0.0,
			"0.023": 0.0,
			"0.024": 0.0,
			"0.025": 0.0
		}
	}
}
