{
	 "smiles": "CC1C(=O)NC2=CC(C)=NN2C1=O", 
	 "Tm": 562.15, 
	 "num_atms": 22, 
	 "gaussian": { 
		 "optdone": 1, 
		 "sigma_profile": "yes", 
		 "theory": "DFT", 
		 "functional": "B3LYP", 
		 "basiset": "6-31G**", 
		 "properties": { 
			 "R2extent": 2469.9748, 
			 "electric_dipole_moment_norm": 3.93406520917, 
			 "electric_quadrupole_moment_norm": 11.3001989757, 
			 "total_energy": -624.984140722, 
			 "HOMO_LUMO_gap": 0.1874, 
			 "cosmo_polarized_energy": -19.01, 
			 "cosmo_cavitation_energy": 26.24, 
			 "cosmo_dispersion_energy": -19.42, 
			 "cosmo_repulsion_energy": 1.54, 
			 "cosmo_total_nonelectrostatic_energy": 8.36, 
			 "SMD_solvation_energy": 5.18 
		},
		"coords": [
			{
				"x": -3.2848767687,
				"y": 0.759575512,
				"z": -1.0620683337,
				"element": "C" 
			},
			{
				"x": -1.7621832305,
				"y": 0.5903721073,
				"z": -1.0928784492,
				"element": "C" 
			},
			{
				"x": -1.3610368194,
				"y": -0.8401895,
				"z": -1.4715621423,
				"element": "C" 
			},
			{
				"x": -2.0387726347,
				"y": -1.5535746884,
				"z": -2.1872610441,
				"element": "O" 
			},
			{
				"x": -0.1288249733,
				"y": -1.2613751925,
				"z": -1.0007776331,
				"element": "N" 
			},
			{
				"x": 0.6129839907,
				"y": -0.5848996264,
				"z": -0.0491997095,
				"element": "C" 
			},
			{
				"x": 1.8094640501,
				"y": -0.8487656275,
				"z": 0.5636734823,
				"element": "C" 
			},
			{
				"x": 1.9781508138,
				"y": 0.2325825353,
				"z": 1.4904229981,
				"element": "C" 
			},
			{
				"x": 3.1263673038,
				"y": 0.4511422329,
				"z": 2.4249501746,
				"element": "C" 
			},
			{
				"x": 0.9733103334,
				"y": 1.08897206,
				"z": 1.4547420238,
				"element": "N" 
			},
			{
				"x": 0.1243691397,
				"y": 0.5867572962,
				"z": 0.4925928942,
				"element": "N" 
			},
			{
				"x": -1.1031923485,
				"y": 1.1837851303,
				"z": 0.1602116802,
				"element": "C" 
			},
			{
				"x": -1.5627017071,
				"y": 2.1172842241,
				"z": 0.7728399103,
				"element": "O" 
			},
			{
				"x": -3.7235791146,
				"y": 0.1654047666,
				"z": -0.2556730527,
				"element": "H" 
			},
			{
				"x": -3.5363172872,
				"y": 1.8065483281,
				"z": -0.8907653232,
				"element": "H" 
			},
			{
				"x": -3.711584025,
				"y": 0.4218443222,
				"z": -2.0068238687,
				"element": "H" 
			},
			{
				"x": -1.3611407564,
				"y": 1.2054501616,
				"z": -1.9165335351,
				"element": "H" 
			},
			{
				"x": 0.1547789917,
				"y": -2.1928876456,
				"z": -1.2753695698,
				"element": "H" 
			},
			{
				"x": 2.4681844919,
				"y": -1.6866475654,
				"z": 0.3905183506,
				"element": "H" 
			},
			{
				"x": 2.9621909627,
				"y": 1.3606208464,
				"z": 3.0056116573,
				"element": "H" 
			},
			{
				"x": 4.0689944161,
				"y": 0.5499995756,
				"z": 1.8755398528,
				"element": "H" 
			},
			{
				"x": 3.2371151715,
				"y": -0.3916992529,
				"z": 3.1160096372,
				"element": "H" 
			}
		],
		 "valence_orbital": [ 
			{
				"type": "occ",
				"energy": -0.30014,
				"method": "rhf"
			},
			{
				"type": "occ",
				"energy": -0.2921,
				"method": "rhf"
			},
			{
				"type": "occ",
				"energy": -0.27155,
				"method": "rhf"
			},
			{
				"type": "occ",
				"energy": -0.27047,
				"method": "rhf"
			},
			{
				"type": "occ",
				"energy": -0.23783,
				"method": "rhf"
			},
			{
				"type": "unocc",
				"energy": -0.05043,
				"method": "rhf"
			},
			{
				"type": "unocc",
				"energy": -0.0034,
				"method": "rhf"
			},
			{
				"type": "unocc",
				"energy": 0.04552,
				"method": "rhf"
			},
			{
				"type": "unocc",
				"energy": 0.05838,
				"method": "rhf"
			},
			{
				"type": "unocc",
				"energy": 0.07003,
				"method": "rhf"
			}
		],
		"cosmo_sigma_profile": { 
			"-0.025": 0.0,
			"-0.024": 0.0,
			"-0.023": 0.0,
			"-0.022": 0.0,
			"-0.021": 0.0,
			"-0.02": 0.0,
			"-0.019": 0.0,
			"-0.018": 0.0,
			"-0.017": 0.707821879513,
			"-0.016": 1.52800202416,
			"-0.015": 0.923980586562,
			"-0.014": 0.776964661881,
			"-0.013": 1.49040638395,
			"-0.012": 0.861856930083,
			"-0.011": 1.7829210471,
			"-0.01": 4.70400488826,
			"-0.009": 4.91619647651,
			"-0.008": 5.58730929582,
			"-0.007": 5.19177354783,
			"-0.006": 6.6684314474,
			"-0.005": 11.368607124,
			"-0.004": 14.6688109972,
			"-0.003": 17.839941988,
			"-0.002": 17.9607599659,
			"-0.001": 18.1763937766,
			"0.0": 16.2617663855,
			"0.001": 8.26448634379,
			"0.002": 8.06493999773,
			"0.003": 7.41558716096,
			"0.004": 5.01368729548,
			"0.005": 3.68194690989,
			"0.006": 3.89379352643,
			"0.007": 3.5681573314,
			"0.008": 3.88912644179,
			"0.009": 4.53457841483,
			"0.01": 6.07988290567,
			"0.011": 8.11796558686,
			"0.012": 7.86274986408,
			"0.013": 2.21429947416,
			"0.014": 1.52504003289,
			"0.015": 1.73149986604,
			"0.016": 1.03952126492,
			"0.017": 0.188253246737,
			"0.018": 0.0,
			"0.019": 0.0,
			"0.02": 0.0,
			"0.021": 0.0,
			"0.022": 0.0,
			"0.023": 0.0,
			"0.024": 0.0,
			"0.025": 0.0
		}
	}
}
