{
	 "smiles": "CC1=NC(=NC(Cl)=C1)C1=CC=C(C=C1)[N+]([O-])=O", 
	 "Tm": 458.15, 
	 "num_atms": 25, 
	 "gaussian": { 
		 "optdone": 1, 
		 "sigma_profile": "yes", 
		 "theory": "DFT", 
		 "functional": "B3LYP", 
		 "basiset": "6-31G**", 
		 "properties": { 
			 "R2extent": 6544.5708, 
			 "electric_dipole_moment_norm": 6.44128640413, 
			 "electric_quadrupole_moment_norm": 15.0002854919, 
			 "total_energy": -1198.80357048, 
			 "HOMO_LUMO_gap": 0.16471, 
			 "cosmo_polarized_energy": -10.5, 
			 "cosmo_cavitation_energy": 32.87, 
			 "cosmo_dispersion_energy": -24.13, 
			 "cosmo_repulsion_energy": 1.87, 
			 "cosmo_total_nonelectrostatic_energy": 10.61, 
			 "SMD_solvation_energy": 5.64 
		},
		"coords": [
			{
				"x": -3.4359456879,
				"y": 1.9001773271,
				"z": -0.2582817042,
				"element": "C" 
			},
			{
				"x": -2.0293113761,
				"y": 1.8107979853,
				"z": 0.2706929479,
				"element": "C" 
			},
			{
				"x": -1.2932404773,
				"y": 0.7530271803,
				"z": -0.0983201721,
				"element": "N" 
			},
			{
				"x": -0.0395669061,
				"y": 0.6707208324,
				"z": 0.3714662834,
				"element": "C" 
			},
			{
				"x": 0.5434650145,
				"y": 1.5678748661,
				"z": 1.1873665405,
				"element": "N" 
			},
			{
				"x": -0.1956080393,
				"y": 2.6023358992,
				"z": 1.5402637996,
				"element": "C" 
			},
			{
				"x": 0.546883021,
				"y": 3.7841303907,
				"z": 2.604539298,
				"element": "Cl" 
			},
			{
				"x": -1.5067998948,
				"y": 2.7963134464,
				"z": 1.1179597215,
				"element": "C" 
			},
			{
				"x": 0.7759871527,
				"y": -0.5017344228,
				"z": -0.0378503358,
				"element": "C" 
			},
			{
				"x": 2.0959227458,
				"y": -0.6412329771,
				"z": 0.4222865078,
				"element": "C" 
			},
			{
				"x": 2.8625847823,
				"y": -1.7367583938,
				"z": 0.0418894813,
				"element": "C" 
			},
			{
				"x": 2.29558798,
				"y": -2.6900991631,
				"z": -0.8026092532,
				"element": "C" 
			},
			{
				"x": 0.9886613417,
				"y": -2.5779265811,
				"z": -1.2748574197,
				"element": "C" 
			},
			{
				"x": 0.2313175205,
				"y": -1.4783835037,
				"z": -0.8880695627,
				"element": "C" 
			},
			{
				"x": 3.1026289187,
				"y": -3.8528450965,
				"z": -1.2090016347,
				"element": "N" 
			},
			{
				"x": 2.5775831237,
				"y": -4.6789407312,
				"z": -1.9549826082,
				"element": "O" 
			},
			{
				"x": 4.2529531237,
				"y": -3.9275171635,
				"z": -0.7784666418,
				"element": "O" 
			},
			{
				"x": -4.1601115226,
				"y": 1.9221132079,
				"z": 0.563290439,
				"element": "H" 
			},
			{
				"x": -3.647492822,
				"y": 1.0409970665,
				"z": -0.8955660076,
				"element": "H" 
			},
			{
				"x": -3.5758235958,
				"y": 2.818382903,
				"z": -0.8389773127,
				"element": "H" 
			},
			{
				"x": -2.085256945,
				"y": 3.6578978656,
				"z": 1.4273798462,
				"element": "H" 
			},
			{
				"x": 2.5065647558,
				"y": 0.1176399602,
				"z": 1.0776374255,
				"element": "H" 
			},
			{
				"x": 3.8818051521,
				"y": -1.8662706701,
				"z": 0.3832677271,
				"element": "H" 
			},
			{
				"x": 0.5913173426,
				"y": -3.343624633,
				"z": -1.9290321386,
				"element": "H" 
			},
			{
				"x": -0.7876047084,
				"y": -1.3593755949,
				"z": -1.2361252263,
				"element": "H" 
			}
		],
		 "valence_orbital": [ 
			{
				"type": "occ",
				"energy": -0.30537,
				"method": "rhf"
			},
			{
				"type": "occ",
				"energy": -0.29067,
				"method": "rhf"
			},
			{
				"type": "occ",
				"energy": -0.2782,
				"method": "rhf"
			},
			{
				"type": "occ",
				"energy": -0.27779,
				"method": "rhf"
			},
			{
				"type": "occ",
				"energy": -0.26566,
				"method": "rhf"
			},
			{
				"type": "unocc",
				"energy": -0.10095,
				"method": "rhf"
			},
			{
				"type": "unocc",
				"energy": -0.05794,
				"method": "rhf"
			},
			{
				"type": "unocc",
				"energy": -0.05358,
				"method": "rhf"
			},
			{
				"type": "unocc",
				"energy": -0.02412,
				"method": "rhf"
			},
			{
				"type": "unocc",
				"energy": 0.01691,
				"method": "rhf"
			}
		],
		"cosmo_sigma_profile": { 
			"-0.025": 0.0,
			"-0.024": 0.0,
			"-0.023": 0.0,
			"-0.022": 0.0,
			"-0.021": 0.0,
			"-0.02": 0.0,
			"-0.019": 0.0,
			"-0.018": 0.0,
			"-0.017": 0.0,
			"-0.016": 0.0,
			"-0.015": 0.0,
			"-0.014": 0.0,
			"-0.013": 0.0,
			"-0.012": 0.0,
			"-0.011": 0.0,
			"-0.01": 0.0295278708787,
			"-0.009": 1.44862667625,
			"-0.008": 2.89095667009,
			"-0.007": 6.29291787327,
			"-0.006": 14.4801107624,
			"-0.005": 15.3303373222,
			"-0.004": 15.6887374097,
			"-0.003": 19.3150227176,
			"-0.002": 30.085450866,
			"-0.001": 27.0595940053,
			"0.0": 24.7182212671,
			"0.001": 26.2188201054,
			"0.002": 12.9743913988,
			"0.003": 16.2401732941,
			"0.004": 10.128278585,
			"0.005": 8.71151705896,
			"0.006": 7.08301606856,
			"0.007": 11.4517306441,
			"0.008": 10.1448531484,
			"0.009": 4.62811056684,
			"0.01": 2.34566951523,
			"0.011": 0.0199732028068,
			"0.012": 0.0,
			"0.013": 0.0,
			"0.014": 0.0,
			"0.015": 0.0,
			"0.016": 0.0,
			"0.017": 0.0,
			"0.018": 0.0,
			"0.019": 0.0,
			"0.02": 0.0,
			"0.021": 0.0,
			"0.022": 0.0,
			"0.023": 0.0,
			"0.024": 0.0,
			"0.025": 0.0
		}
	}
}
