{
	 "smiles": "CCSC1=NC(NC(C)C)=NC(NC(C)C)=N1", 
	 "Tm": 378.15, 
	 "num_atms": 38, 
	 "gaussian": { 
		 "optdone": 1, 
		 "sigma_profile": "yes", 
		 "theory": "DFT", 
		 "functional": "B3LYP", 
		 "basiset": "6-31G**", 
		 "properties": { 
			 "R2extent": 6096.0279, 
			 "electric_dipole_moment_norm": 2.99525316125, 
			 "electric_quadrupole_moment_norm": 14.4376343256, 
			 "total_energy": -1103.84083195, 
			 "HOMO_LUMO_gap": 0.21638, 
			 "cosmo_polarized_energy": -11.71, 
			 "cosmo_cavitation_energy": 41.47, 
			 "cosmo_dispersion_energy": -28.62, 
			 "cosmo_repulsion_energy": 2.26, 
			 "cosmo_total_nonelectrostatic_energy": 15.11, 
			 "SMD_solvation_energy": 4.12 
		},
		"coords": [
			{
				"x": 1.8293338792,
				"y": 3.6608625046,
				"z": 2.5810456495,
				"element": "C" 
			},
			{
				"x": 2.3059456958,
				"y": 3.7708045451,
				"z": 1.1345754205,
				"element": "C" 
			},
			{
				"x": 3.231257575,
				"y": 2.3026180259,
				"z": 0.5338719394,
				"element": "S" 
			},
			{
				"x": 1.9309625995,
				"y": 1.1728218444,
				"z": 0.0947966309,
				"element": "C" 
			},
			{
				"x": 2.3783172221,
				"y": 0.002447252,
				"z": -0.3480680314,
				"element": "N" 
			},
			{
				"x": 1.3970743751,
				"y": -0.8636875386,
				"z": -0.7047224999,
				"element": "C" 
			},
			{
				"x": 1.8309925333,
				"y": -2.0656188308,
				"z": -1.1554921708,
				"element": "N" 
			},
			{
				"x": 1.027751538,
				"y": -3.2048842485,
				"z": -1.6187010255,
				"element": "C" 
			},
			{
				"x": 0.1537244298,
				"y": -3.7927611243,
				"z": -0.5005508953,
				"element": "C" 
			},
			{
				"x": 0.2165081536,
				"y": -2.8700385114,
				"z": -2.8795214972,
				"element": "C" 
			},
			{
				"x": 0.0802388638,
				"y": -0.6136383018,
				"z": -0.6401412188,
				"element": "N" 
			},
			{
				"x": -0.2288856742,
				"y": 0.6123731462,
				"z": -0.1754312978,
				"element": "C" 
			},
			{
				"x": -1.551130123,
				"y": 0.910176362,
				"z": -0.1213322205,
				"element": "N" 
			},
			{
				"x": -2.1317373661,
				"y": 2.1219612066,
				"z": 0.4529304338,
				"element": "C" 
			},
			{
				"x": -2.4137118016,
				"y": 1.9555044965,
				"z": 1.9539772148,
				"element": "C" 
			},
			{
				"x": -3.3926654785,
				"y": 2.4980665377,
				"z": -0.3318928129,
				"element": "C" 
			},
			{
				"x": 0.6558979164,
				"y": 1.5535963012,
				"z": 0.2193709932,
				"element": "N" 
			},
			{
				"x": 1.3228139923,
				"y": 4.5857092843,
				"z": 2.8823391148,
				"element": "H" 
			},
			{
				"x": 1.1233285298,
				"y": 2.8340347013,
				"z": 2.6878364035,
				"element": "H" 
			},
			{
				"x": 2.6667056973,
				"y": 3.4923414569,
				"z": 3.2644739878,
				"element": "H" 
			},
			{
				"x": 1.4693253374,
				"y": 3.9300878327,
				"z": 0.4519212397,
				"element": "H" 
			},
			{
				"x": 3.012302244,
				"y": 4.5976551712,
				"z": 1.0105079266,
				"element": "H" 
			},
			{
				"x": 2.8366163016,
				"y": -2.1467880072,
				"z": -1.1635751593,
				"element": "H" 
			},
			{
				"x": 1.7733095259,
				"y": -3.9610678885,
				"z": -1.8921515263,
				"element": "H" 
			},
			{
				"x": -0.6002934975,
				"y": -3.068969944,
				"z": -0.1848983156,
				"element": "H" 
			},
			{
				"x": -0.3532058204,
				"y": -4.6961419477,
				"z": -0.8560145636,
				"element": "H" 
			},
			{
				"x": 0.7638834926,
				"y": -4.0605721877,
				"z": 0.3674915102,
				"element": "H" 
			},
			{
				"x": -0.5345167162,
				"y": -2.1086854672,
				"z": -2.6596171419,
				"element": "H" 
			},
			{
				"x": -0.2904965368,
				"y": -3.7677242024,
				"z": -3.2490385499,
				"element": "H" 
			},
			{
				"x": 0.8707288172,
				"y": -2.4945288537,
				"z": -3.6722868924,
				"element": "H" 
			},
			{
				"x": -2.1627152405,
				"y": 0.1414647254,
				"z": -0.3585207707,
				"element": "H" 
			},
			{
				"x": -1.3797160045,
				"y": 2.9045483376,
				"z": 0.3247965578,
				"element": "H" 
			},
			{
				"x": -3.1510658536,
				"y": 1.1631684789,
				"z": 2.1282828588,
				"element": "H" 
			},
			{
				"x": -2.8079780098,
				"y": 2.8841782989,
				"z": 2.3805484795,
				"element": "H" 
			},
			{
				"x": -1.4966452781,
				"y": 1.6941126169,
				"z": 2.4889286488,
				"element": "H" 
			},
			{
				"x": -3.1661011712,
				"y": 2.648744147,
				"z": -1.3912549954,
				"element": "H" 
			},
			{
				"x": -3.8297068482,
				"y": 3.4197583357,
				"z": 0.0637110036,
				"element": "H" 
			},
			{
				"x": -4.1547472996,
				"y": 1.7124714448,
				"z": -0.2527944284,
				"element": "H" 
			}
		],
		 "valence_orbital": [ 
			{
				"type": "occ",
				"energy": -0.25523,
				"method": "rhf"
			},
			{
				"type": "occ",
				"energy": -0.25001,
				"method": "rhf"
			},
			{
				"type": "occ",
				"energy": -0.23413,
				"method": "rhf"
			},
			{
				"type": "occ",
				"energy": -0.22758,
				"method": "rhf"
			},
			{
				"type": "occ",
				"energy": -0.22,
				"method": "rhf"
			},
			{
				"type": "unocc",
				"energy": -0.00362,
				"method": "rhf"
			},
			{
				"type": "unocc",
				"energy": 0.01417,
				"method": "rhf"
			},
			{
				"type": "unocc",
				"energy": 0.05055,
				"method": "rhf"
			},
			{
				"type": "unocc",
				"energy": 0.07916,
				"method": "rhf"
			},
			{
				"type": "unocc",
				"energy": 0.08083,
				"method": "rhf"
			}
		],
		"cosmo_sigma_profile": { 
			"-0.025": 0.0,
			"-0.024": 0.0,
			"-0.023": 0.0,
			"-0.022": 0.0,
			"-0.021": 0.0,
			"-0.02": 0.0,
			"-0.019": 0.0,
			"-0.018": 0.0,
			"-0.017": 0.0,
			"-0.016": 0.0,
			"-0.015": 0.0,
			"-0.014": 0.136847196556,
			"-0.013": 1.27944717468,
			"-0.012": 1.81708570384,
			"-0.011": 2.02278942085,
			"-0.01": 1.57188156434,
			"-0.009": 2.17602883863,
			"-0.008": 2.13452702744,
			"-0.007": 2.29397921389,
			"-0.006": 4.24839321911,
			"-0.005": 6.82124707096,
			"-0.004": 14.3780501839,
			"-0.003": 36.7701257107,
			"-0.002": 36.8127199476,
			"-0.001": 37.247468242,
			"0.0": 41.3732091749,
			"0.001": 42.5047817346,
			"0.002": 22.9179530415,
			"0.003": 17.1165794386,
			"0.004": 10.3215803207,
			"0.005": 11.6071551774,
			"0.006": 10.431393644,
			"0.007": 8.09877656041,
			"0.008": 4.91731395672,
			"0.009": 1.37392193205,
			"0.01": 1.81283527241,
			"0.011": 1.15895376319,
			"0.012": 1.05533925818,
			"0.013": 0.958598344452,
			"0.014": 0.480384774381,
			"0.015": 0.0,
			"0.016": 0.0,
			"0.017": 0.0,
			"0.018": 0.0,
			"0.019": 0.0,
			"0.02": 0.0,
			"0.021": 0.0,
			"0.022": 0.0,
			"0.023": 0.0,
			"0.024": 0.0,
			"0.025": 0.0
		}
	}
}
