{
	 "smiles": "CC1=C(C)N=C(S)S1", 
	 "Tm": 440.15, 
	 "num_atms": 15, 
	 "gaussian": { 
		 "optdone": 1, 
		 "sigma_profile": "yes", 
		 "theory": "DFT", 
		 "functional": "B3LYP", 
		 "basiset": "6-31G**", 
		 "properties": { 
			 "R2extent": 2804.1828, 
			 "electric_dipole_moment_norm": 1.81012895121, 
			 "electric_quadrupole_moment_norm": 5.27983196986, 
			 "total_energy": -1045.87269398, 
			 "HOMO_LUMO_gap": 0.1912, 
			 "cosmo_polarized_energy": -5.57, 
			 "cosmo_cavitation_energy": 21.91, 
			 "cosmo_dispersion_energy": -17.26, 
			 "cosmo_repulsion_energy": 1.35, 
			 "cosmo_total_nonelectrostatic_energy": 6.0, 
			 "SMD_solvation_energy": 1.7 
		},
		"coords": [
			{
				"x": -1.3268658328,
				"y": 1.2192310647,
				"z": 0.8809640524,
				"element": "C" 
			},
			{
				"x": 0.1273855606,
				"y": 1.3559611142,
				"z": 0.548321473,
				"element": "C" 
			},
			{
				"x": 1.1781546946,
				"y": 0.5578652348,
				"z": 0.916409138,
				"element": "C" 
			},
			{
				"x": 1.0908943572,
				"y": -0.6802289563,
				"z": 1.77069518,
				"element": "C" 
			},
			{
				"x": 2.4238093518,
				"y": 0.9472831099,
				"z": 0.4467960109,
				"element": "N" 
			},
			{
				"x": 2.3422005924,
				"y": 2.0247990653,
				"z": -0.2707190102,
				"element": "C" 
			},
			{
				"x": 3.7198758007,
				"y": 2.8296494644,
				"z": -1.0438695779,
				"element": "S" 
			},
			{
				"x": 0.7198858649,
				"y": 2.6763784907,
				"z": -0.4450932839,
				"element": "S" 
			},
			{
				"x": -1.483727414,
				"y": 0.3364418914,
				"z": 1.5059720465,
				"element": "H" 
			},
			{
				"x": -1.9445809109,
				"y": 1.104818628,
				"z": -0.0173402409,
				"element": "H" 
			},
			{
				"x": -1.7056071241,
				"y": 2.0881540328,
				"z": 1.4315448748,
				"element": "H" 
			},
			{
				"x": 0.4510930323,
				"y": -1.4451318069,
				"z": 1.3170892204,
				"element": "H" 
			},
			{
				"x": 2.0901626523,
				"y": -1.1017350728,
				"z": 1.8919080072,
				"element": "H" 
			},
			{
				"x": 0.690037022,
				"y": -0.4617906525,
				"z": 2.7665742662,
				"element": "H" 
			},
			{
				"x": 4.609882353,
				"y": 1.9301043922,
				"z": -0.5816521566,
				"element": "H" 
			}
		],
		 "valence_orbital": [ 
			{
				"type": "occ",
				"energy": -0.34782,
				"method": "rhf"
			},
			{
				"type": "occ",
				"energy": -0.29092,
				"method": "rhf"
			},
			{
				"type": "occ",
				"energy": -0.2742,
				"method": "rhf"
			},
			{
				"type": "occ",
				"energy": -0.27417,
				"method": "rhf"
			},
			{
				"type": "occ",
				"energy": -0.21328,
				"method": "rhf"
			},
			{
				"type": "unocc",
				"energy": -0.02208,
				"method": "rhf"
			},
			{
				"type": "unocc",
				"energy": -0.00371,
				"method": "rhf"
			},
			{
				"type": "unocc",
				"energy": 0.03127,
				"method": "rhf"
			},
			{
				"type": "unocc",
				"energy": 0.05297,
				"method": "rhf"
			},
			{
				"type": "unocc",
				"energy": 0.05507,
				"method": "rhf"
			}
		],
		"cosmo_sigma_profile": { 
			"-0.025": 0.0,
			"-0.024": 0.0,
			"-0.023": 0.0,
			"-0.022": 0.0,
			"-0.021": 0.0,
			"-0.02": 0.0,
			"-0.019": 0.0,
			"-0.018": 0.0,
			"-0.017": 0.0,
			"-0.016": 0.0,
			"-0.015": 0.0,
			"-0.014": 0.0,
			"-0.013": 0.0,
			"-0.012": 0.476487369223,
			"-0.011": 1.654455255,
			"-0.01": 1.25319999384,
			"-0.009": 1.07724958484,
			"-0.008": 1.25329461956,
			"-0.007": 0.943928037083,
			"-0.006": 1.45597536134,
			"-0.005": 7.3402656821,
			"-0.004": 18.0780455229,
			"-0.003": 16.6781655381,
			"-0.002": 16.3558471362,
			"-0.001": 19.2541128445,
			"0.0": 16.4885347124,
			"0.001": 13.759827624,
			"0.002": 18.3669965989,
			"0.003": 15.6945870534,
			"0.004": 9.37777145477,
			"0.005": 4.95062953025,
			"0.006": 4.47238988721,
			"0.007": 2.92333287146,
			"0.008": 1.83096427001,
			"0.009": 1.26973478033,
			"0.01": 1.17117989157,
			"0.011": 0.831056037859,
			"0.012": 0.599238672332,
			"0.013": 0.939480475472,
			"0.014": 0.334742849244,
			"0.015": 0.0,
			"0.016": 0.0,
			"0.017": 0.0,
			"0.018": 0.0,
			"0.019": 0.0,
			"0.02": 0.0,
			"0.021": 0.0,
			"0.022": 0.0,
			"0.023": 0.0,
			"0.024": 0.0,
			"0.025": 0.0
		}
	}
}
