{
	 "smiles": "CC1=CC(O[Si]23OCCN(CCO2)CCO3)=CC=C1", 
	 "Tm": 439.15, 
	 "num_atms": 38, 
	 "gaussian": { 
		 "optdone": 1, 
		 "sigma_profile": "yes", 
		 "theory": "DFT", 
		 "functional": "B3LYP", 
		 "basiset": "6-31G**", 
		 "properties": { 
			 "R2extent": 6086.4586, 
			 "electric_dipole_moment_norm": 6.68967097846, 
			 "electric_quadrupole_moment_norm": 11.0577483155, 
			 "total_energy": -1152.12571388, 
			 "HOMO_LUMO_gap": 0.22061, 
			 "cosmo_polarized_energy": -18.07, 
			 "cosmo_cavitation_energy": 38.72, 
			 "cosmo_dispersion_energy": -27.15, 
			 "cosmo_repulsion_energy": 2.17, 
			 "cosmo_total_nonelectrostatic_energy": 13.74, 
			 "SMD_solvation_energy": 6.39 
		},
		"coords": [
			{
				"x": -4.088610456,
				"y": 0.1436486108,
				"z": 2.6093728499,
				"element": "C" 
			},
			{
				"x": -2.6511927444,
				"y": 0.1290255716,
				"z": 3.0783723753,
				"element": "C" 
			},
			{
				"x": -1.6376908533,
				"y": -0.3147427601,
				"z": 2.2190752932,
				"element": "C" 
			},
			{
				"x": -0.3000400989,
				"y": -0.3038642881,
				"z": 2.6294582156,
				"element": "C" 
			},
			{
				"x": 0.7204340576,
				"y": -0.7468677879,
				"z": 1.8374518845,
				"element": "O" 
			},
			{
				"x": 0.9080559259,
				"y": -0.7536364417,
				"z": 0.1853862659,
				"element": "Si" 
			},
			{
				"x": 2.4515546292,
				"y": -1.3628837573,
				"z": 0.0717648697,
				"element": "O" 
			},
			{
				"x": 3.3230121579,
				"y": -1.1055801886,
				"z": -1.0085265642,
				"element": "C" 
			},
			{
				"x": 2.600752849,
				"y": -1.3167987405,
				"z": -2.3535636181,
				"element": "C" 
			},
			{
				"x": 1.2482388094,
				"y": -0.7611415296,
				"z": -2.2899114155,
				"element": "N" 
			},
			{
				"x": 0.1641062364,
				"y": -1.6679601844,
				"z": -2.6794784736,
				"element": "C" 
			},
			{
				"x": -0.1546618283,
				"y": -2.5822931641,
				"z": -1.4908901762,
				"element": "C" 
			},
			{
				"x": -0.2830774442,
				"y": -1.8114853339,
				"z": -0.3129612336,
				"element": "O" 
			},
			{
				"x": 1.0915407997,
				"y": 0.6614867782,
				"z": -2.5902766885,
				"element": "C" 
			},
			{
				"x": 1.3043643514,
				"y": 1.4941133468,
				"z": -1.3096523468,
				"element": "C" 
			},
			{
				"x": 0.7201817198,
				"y": 0.8578543378,
				"z": -0.1937339308,
				"element": "O" 
			},
			{
				"x": 0.0324191259,
				"y": 0.1369873542,
				"z": 3.9163126721,
				"element": "C" 
			},
			{
				"x": -0.9750490786,
				"y": 0.5710632586,
				"z": 4.7734742799,
				"element": "C" 
			},
			{
				"x": -2.309734069,
				"y": 0.5709864592,
				"z": 4.3619695872,
				"element": "C" 
			},
			{
				"x": -4.3195043683,
				"y": -0.7339732366,
				"z": 1.9967323287,
				"element": "H" 
			},
			{
				"x": -4.2979493259,
				"y": 1.0293770633,
				"z": 1.9960029798,
				"element": "H" 
			},
			{
				"x": -4.7843852785,
				"y": 0.1594452726,
				"z": 3.4535844058,
				"element": "H" 
			},
			{
				"x": -1.8852219144,
				"y": -0.6894600223,
				"z": 1.2306874989,
				"element": "H" 
			},
			{
				"x": 4.1752045674,
				"y": -1.7905057693,
				"z": -0.9337234876,
				"element": "H" 
			},
			{
				"x": 3.7239203945,
				"y": -0.0848049344,
				"z": -0.9416429984,
				"element": "H" 
			},
			{
				"x": 2.5163066755,
				"y": -2.3912767025,
				"z": -2.5413422509,
				"element": "H" 
			},
			{
				"x": 3.1854189752,
				"y": -0.8827563092,
				"z": -3.178709624,
				"element": "H" 
			},
			{
				"x": -0.7195492604,
				"y": -1.0652985527,
				"z": -2.9037285081,
				"element": "H" 
			},
			{
				"x": 0.4052928516,
				"y": -2.2574761653,
				"z": -3.5768620869,
				"element": "H" 
			},
			{
				"x": -1.0965334777,
				"y": -3.1148002395,
				"z": -1.6627744328,
				"element": "H" 
			},
			{
				"x": 0.6338138711,
				"y": -3.3383742437,
				"z": -1.3634634242,
				"element": "H" 
			},
			{
				"x": 1.7763284078,
				"y": 0.9963098987,
				"z": -3.383923867,
				"element": "H" 
			},
			{
				"x": 0.0712549137,
				"y": 0.8219143651,
				"z": -2.9474978626,
				"element": "H" 
			},
			{
				"x": 2.3749866101,
				"y": 1.6649247847,
				"z": -1.1300809079,
				"element": "H" 
			},
			{
				"x": 0.8388007375,
				"y": 2.4791104023,
				"z": -1.4282094122,
				"element": "H" 
			},
			{
				"x": 1.0742387275,
				"y": 0.1280976987,
				"z": 4.2191278994,
				"element": "H" 
			},
			{
				"x": -0.7175590447,
				"y": 0.9106473095,
				"z": 5.7732861145,
				"element": "H" 
			},
			{
				"x": -3.0883681514,
				"y": 0.9110878395,
				"z": 5.0397937896,
				"element": "H" 
			}
		],
		 "valence_orbital": [ 
			{
				"type": "occ",
				"energy": -0.27913,
				"method": "rhf"
			},
			{
				"type": "occ",
				"energy": -0.26851,
				"method": "rhf"
			},
			{
				"type": "occ",
				"energy": -0.25303,
				"method": "rhf"
			},
			{
				"type": "occ",
				"energy": -0.22031,
				"method": "rhf"
			},
			{
				"type": "occ",
				"energy": -0.19913,
				"method": "rhf"
			},
			{
				"type": "unocc",
				"energy": 0.02148,
				"method": "rhf"
			},
			{
				"type": "unocc",
				"energy": 0.03409,
				"method": "rhf"
			},
			{
				"type": "unocc",
				"energy": 0.05914,
				"method": "rhf"
			},
			{
				"type": "unocc",
				"energy": 0.07761,
				"method": "rhf"
			},
			{
				"type": "unocc",
				"energy": 0.08602,
				"method": "rhf"
			}
		],
		"cosmo_sigma_profile": { 
			"-0.025": 0.0,
			"-0.024": 0.0,
			"-0.023": 0.0,
			"-0.022": 0.0,
			"-0.021": 0.0,
			"-0.02": 0.0,
			"-0.019": 0.0,
			"-0.018": 0.0,
			"-0.017": 0.0,
			"-0.016": 0.0,
			"-0.015": 0.0,
			"-0.014": 0.0,
			"-0.013": 0.0,
			"-0.012": 0.0,
			"-0.011": 0.0,
			"-0.01": 0.0,
			"-0.009": 0.0,
			"-0.008": 0.000487882934116,
			"-0.007": 1.50106196179,
			"-0.006": 10.7607637033,
			"-0.005": 35.9330104963,
			"-0.004": 44.1360557784,
			"-0.003": 35.2030761038,
			"-0.002": 28.2192912363,
			"-0.001": 19.6276594628,
			"0.0": 17.1640475197,
			"0.001": 11.249001296,
			"0.002": 10.785284115,
			"0.003": 9.55420213442,
			"0.004": 10.7973295672,
			"0.005": 14.2523469774,
			"0.006": 15.6565732043,
			"0.007": 9.5571089071,
			"0.008": 6.57091582035,
			"0.009": 4.88326225116,
			"0.01": 3.96468379397,
			"0.011": 4.19179799317,
			"0.012": 3.6881741067,
			"0.013": 2.16061260703,
			"0.014": 1.33429096921,
			"0.015": 0.160381520668,
			"0.016": 0.0,
			"0.017": 0.0,
			"0.018": 0.0,
			"0.019": 0.0,
			"0.02": 0.0,
			"0.021": 0.0,
			"0.022": 0.0,
			"0.023": 0.0,
			"0.024": 0.0,
			"0.025": 0.0
		}
	}
}
