{
	 "smiles": "OC(=O)CCCCC1=CC=C(F)C=C1", 
	 "Tm": 347.15, 
	 "num_atms": 27, 
	 "gaussian": { 
		 "optdone": 1, 
		 "sigma_profile": "yes", 
		 "theory": "DFT", 
		 "functional": "B3LYP", 
		 "basiset": "6-31G**", 
		 "properties": { 
			 "R2extent": 4540.356, 
			 "electric_dipole_moment_norm": 4.29136198543, 
			 "electric_quadrupole_moment_norm": 19.8759280015, 
			 "total_energy": -677.306619792, 
			 "HOMO_LUMO_gap": 0.22546, 
			 "cosmo_polarized_energy": -15.91, 
			 "cosmo_cavitation_energy": 31.19, 
			 "cosmo_dispersion_energy": -21.82, 
			 "cosmo_repulsion_energy": 1.72, 
			 "cosmo_total_nonelectrostatic_energy": 11.09, 
			 "SMD_solvation_energy": 6.26 
		},
		"coords": [
			{
				"x": 1.4833726596,
				"y": 3.9450683538,
				"z": 0.7304946616,
				"element": "O" 
			},
			{
				"x": 1.7438223227,
				"y": 2.9456607014,
				"z": -0.1562198333,
				"element": "C" 
			},
			{
				"x": 1.3770065793,
				"y": 3.0493595973,
				"z": -1.2999885704,
				"element": "O" 
			},
			{
				"x": 2.5461964187,
				"y": 1.7726805286,
				"z": 0.4009948145,
				"element": "C" 
			},
			{
				"x": 2.5727333139,
				"y": 0.5414562044,
				"z": -0.5166043975,
				"element": "C" 
			},
			{
				"x": 1.3954917392,
				"y": -0.4316899789,
				"z": -0.3386900779,
				"element": "C" 
			},
			{
				"x": -0.0009423349,
				"y": 0.1446917546,
				"z": -0.6552950928,
				"element": "C" 
			},
			{
				"x": -1.0886982911,
				"y": -0.9048487015,
				"z": -0.565945594,
				"element": "C" 
			},
			{
				"x": -1.7686154814,
				"y": -1.1423999276,
				"z": 0.6367140879,
				"element": "C" 
			},
			{
				"x": -2.7465688957,
				"y": -2.1325539033,
				"z": 0.7377469694,
				"element": "C" 
			},
			{
				"x": -3.0428300784,
				"y": -2.8921468064,
				"z": -0.3874986632,
				"element": "C" 
			},
			{
				"x": -3.9905141771,
				"y": -3.8516570381,
				"z": -0.3019880502,
				"element": "F" 
			},
			{
				"x": -2.3948719876,
				"y": -2.6877211932,
				"z": -1.5999859834,
				"element": "C" 
			},
			{
				"x": -1.42051069,
				"y": -1.6924376793,
				"z": -1.6777879687,
				"element": "C" 
			},
			{
				"x": 1.8370959336,
				"y": 3.7185620122,
				"z": 1.6023529392,
				"element": "H" 
			},
			{
				"x": 2.1677688492,
				"y": 1.5102566451,
				"z": 1.399191723,
				"element": "H" 
			},
			{
				"x": 3.567129832,
				"y": 2.1493105097,
				"z": 0.5558411327,
				"element": "H" 
			},
			{
				"x": 2.6142534556,
				"y": 0.8934390042,
				"z": -1.5529101163,
				"element": "H" 
			},
			{
				"x": 3.5009269113,
				"y": -0.0099022985,
				"z": -0.3282870114,
				"element": "H" 
			},
			{
				"x": 1.5676831137,
				"y": -1.3000520234,
				"z": -0.9867234737,
				"element": "H" 
			},
			{
				"x": 1.395263072,
				"y": -0.8219571551,
				"z": 0.6889593964,
				"element": "H" 
			},
			{
				"x": 0.012566095,
				"y": 0.5912657473,
				"z": -1.6552689503,
				"element": "H" 
			},
			{
				"x": -0.2330820433,
				"y": 0.962501472,
				"z": 0.0368483463,
				"element": "H" 
			},
			{
				"x": -1.5355014678,
				"y": -0.5388393075,
				"z": 1.5106378336,
				"element": "H" 
			},
			{
				"x": -3.2793286616,
				"y": -2.3166623043,
				"z": 1.6646070857,
				"element": "H" 
			},
			{
				"x": -2.6594680151,
				"y": -3.2956354979,
				"z": -2.4586000468,
				"element": "H" 
			},
			{
				"x": -0.9131781717,
				"y": -1.5208487157,
				"z": -2.6238951605,
				"element": "H" 
			}
		],
		 "valence_orbital": [ 
			{
				"type": "occ",
				"energy": -0.33078,
				"method": "rhf"
			},
			{
				"type": "occ",
				"energy": -0.31839,
				"method": "rhf"
			},
			{
				"type": "occ",
				"energy": -0.2755,
				"method": "rhf"
			},
			{
				"type": "occ",
				"energy": -0.25609,
				"method": "rhf"
			},
			{
				"type": "occ",
				"energy": -0.23318,
				"method": "rhf"
			},
			{
				"type": "unocc",
				"energy": -0.00772,
				"method": "rhf"
			},
			{
				"type": "unocc",
				"energy": 0.00556,
				"method": "rhf"
			},
			{
				"type": "unocc",
				"energy": 0.00615,
				"method": "rhf"
			},
			{
				"type": "unocc",
				"energy": 0.04855,
				"method": "rhf"
			},
			{
				"type": "unocc",
				"energy": 0.08162,
				"method": "rhf"
			}
		],
		"cosmo_sigma_profile": { 
			"-0.025": 0.0,
			"-0.024": 0.0,
			"-0.023": 0.0,
			"-0.022": 0.0,
			"-0.021": 0.0,
			"-0.02": 0.0,
			"-0.019": 0.472630201352,
			"-0.018": 1.01305218579,
			"-0.017": 0.75183588182,
			"-0.016": 1.51312581529,
			"-0.015": 1.04266313889,
			"-0.014": 0.606581346324,
			"-0.013": 0.93346218345,
			"-0.012": 1.58328117421,
			"-0.011": 1.48425681781,
			"-0.01": 0.935343719861,
			"-0.009": 1.17576182113,
			"-0.008": 1.75185109573,
			"-0.007": 5.31351630879,
			"-0.006": 10.5246834327,
			"-0.005": 12.9346290801,
			"-0.004": 17.5970289766,
			"-0.003": 19.0310000996,
			"-0.002": 20.7956034765,
			"-0.001": 21.2124180862,
			"0.0": 16.211989471,
			"0.001": 15.5572733898,
			"0.002": 15.0192369303,
			"0.003": 13.7319691742,
			"0.004": 18.7828219828,
			"0.005": 17.4286198926,
			"0.006": 3.15157425408,
			"0.007": 2.85490072271,
			"0.008": 2.83171973456,
			"0.009": 3.17662166146,
			"0.01": 3.78185911822,
			"0.011": 5.46697843445,
			"0.012": 4.47856199866,
			"0.013": 2.2854592357,
			"0.014": 0.189398709237,
			"0.015": 0.0,
			"0.016": 0.0,
			"0.017": 0.0,
			"0.018": 0.0,
			"0.019": 0.0,
			"0.02": 0.0,
			"0.021": 0.0,
			"0.022": 0.0,
			"0.023": 0.0,
			"0.024": 0.0,
			"0.025": 0.0
		}
	}
}
