{
	 "smiles": "CC1NC(=O)C2=C(NC1=O)C=CC=C2", 
	 "Tm": 611.15, 
	 "num_atms": 24, 
	 "gaussian": { 
		 "optdone": 1, 
		 "sigma_profile": "yes", 
		 "theory": "DFT", 
		 "functional": "B3LYP", 
		 "basiset": "6-31G**", 
		 "properties": { 
			 "R2extent": 3596.5825, 
			 "electric_dipole_moment_norm": 2.87428625923, 
			 "electric_quadrupole_moment_norm": 20.0239141453, 
			 "total_energy": -647.073179935, 
			 "HOMO_LUMO_gap": 0.19061, 
			 "cosmo_polarized_energy": -16.84, 
			 "cosmo_cavitation_energy": 27.2, 
			 "cosmo_dispersion_energy": -19.99, 
			 "cosmo_repulsion_energy": 1.56, 
			 "cosmo_total_nonelectrostatic_energy": 8.77, 
			 "SMD_solvation_energy": 5.31 
		},
		"coords": [
			{
				"x": 0.0079772151,
				"y": 0.2741789822,
				"z": -1.1929762289,
				"element": "C" 
			},
			{
				"x": -0.8515216335,
				"y": 1.2393048623,
				"z": -0.35421189,
				"element": "C" 
			},
			{
				"x": -0.1892064112,
				"y": 2.4940281096,
				"z": -0.0080217306,
				"element": "N" 
			},
			{
				"x": 0.9829178974,
				"y": 2.6880055066,
				"z": 0.6777824839,
				"element": "C" 
			},
			{
				"x": 1.5743544104,
				"y": 3.7617872808,
				"z": 0.5963504424,
				"element": "O" 
			},
			{
				"x": 1.5143925082,
				"y": 1.5838168574,
				"z": 1.5437764991,
				"element": "C" 
			},
			{
				"x": 0.7583137135,
				"y": 0.5517885915,
				"z": 2.141771635,
				"element": "C" 
			},
			{
				"x": -0.6264869108,
				"y": 0.3652206172,
				"z": 1.967116939,
				"element": "N" 
			},
			{
				"x": -1.4476403607,
				"y": 0.5532665532,
				"z": 0.8741620272,
				"element": "C" 
			},
			{
				"x": -2.602362595,
				"y": 0.1572093237,
				"z": 0.8935696735,
				"element": "O" 
			},
			{
				"x": 1.3951462437,
				"y": -0.336417073,
				"z": 3.0281503641,
				"element": "C" 
			},
			{
				"x": 2.7497860438,
				"y": -0.2245366007,
				"z": 3.3106096459,
				"element": "C" 
			},
			{
				"x": 3.5078320409,
				"y": 0.7851786128,
				"z": 2.710504998,
				"element": "C" 
			},
			{
				"x": 2.8834810413,
				"y": 1.6761867657,
				"z": 1.8491737708,
				"element": "C" 
			},
			{
				"x": 0.9020946866,
				"y": -0.0488808233,
				"z": -0.654825699,
				"element": "H" 
			},
			{
				"x": 0.324033323,
				"y": 0.7699789132,
				"z": -2.1152125773,
				"element": "H" 
			},
			{
				"x": -0.5781053712,
				"y": -0.6109091939,
				"z": -1.4579336247,
				"element": "H" 
			},
			{
				"x": -1.7296824919,
				"y": 1.5148992532,
				"z": -0.940866603,
				"element": "H" 
			},
			{
				"x": -0.443989133,
				"y": 3.3094657791,
				"z": -0.5501546169,
				"element": "H" 
			},
			{
				"x": -1.0896365696,
				"y": -0.1812670157,
				"z": 2.6838782688,
				"element": "H" 
			},
			{
				"x": 0.8071071763,
				"y": -1.1248971839,
				"z": 3.4907439153,
				"element": "H" 
			},
			{
				"x": 3.2127051214,
				"y": -0.9278077204,
				"z": 3.9965797011,
				"element": "H" 
			},
			{
				"x": 4.5676075795,
				"y": 0.8808103842,
				"z": 2.9234724541,
				"element": "H" 
			},
			{
				"x": 3.4300824758,
				"y": 2.4963892181,
				"z": 1.3974601521,
				"element": "H" 
			}
		],
		 "valence_orbital": [ 
			{
				"type": "occ",
				"energy": -0.28404,
				"method": "rhf"
			},
			{
				"type": "occ",
				"energy": -0.26861,
				"method": "rhf"
			},
			{
				"type": "occ",
				"energy": -0.25815,
				"method": "rhf"
			},
			{
				"type": "occ",
				"energy": -0.24535,
				"method": "rhf"
			},
			{
				"type": "occ",
				"energy": -0.2351,
				"method": "rhf"
			},
			{
				"type": "unocc",
				"energy": -0.04449,
				"method": "rhf"
			},
			{
				"type": "unocc",
				"energy": -0.02254,
				"method": "rhf"
			},
			{
				"type": "unocc",
				"energy": 0.0176,
				"method": "rhf"
			},
			{
				"type": "unocc",
				"energy": 0.05027,
				"method": "rhf"
			},
			{
				"type": "unocc",
				"energy": 0.06804,
				"method": "rhf"
			}
		],
		"cosmo_sigma_profile": { 
			"-0.025": 0.0,
			"-0.024": 0.0,
			"-0.023": 0.0,
			"-0.022": 0.0,
			"-0.021": 0.0,
			"-0.02": 0.0,
			"-0.019": 0.0,
			"-0.018": 0.0,
			"-0.017": 0.0,
			"-0.016": 0.0,
			"-0.015": 0.891809917636,
			"-0.014": 2.59804148051,
			"-0.013": 2.05877258454,
			"-0.012": 2.22731247515,
			"-0.011": 2.69981980114,
			"-0.01": 2.58226817492,
			"-0.009": 1.55816838916,
			"-0.008": 4.14721131307,
			"-0.007": 5.27734691418,
			"-0.006": 8.86332166065,
			"-0.005": 14.3368122058,
			"-0.004": 15.6495295258,
			"-0.003": 16.6762293101,
			"-0.002": 17.4188105632,
			"-0.001": 17.3467747298,
			"0.0": 14.6801499511,
			"0.001": 12.1314357541,
			"0.002": 12.4775286719,
			"0.003": 11.9766950488,
			"0.004": 10.6881973063,
			"0.005": 3.4733472616,
			"0.006": 2.63462215086,
			"0.007": 2.90023963438,
			"0.008": 2.07965172338,
			"0.009": 2.40113149345,
			"0.01": 3.14038593492,
			"0.011": 3.67553357842,
			"0.012": 6.20039060859,
			"0.013": 8.96373986656,
			"0.014": 4.13841166104,
			"0.015": 0.158610301075,
			"0.016": 0.0,
			"0.017": 0.0,
			"0.018": 0.0,
			"0.019": 0.0,
			"0.02": 0.0,
			"0.021": 0.0,
			"0.022": 0.0,
			"0.023": 0.0,
			"0.024": 0.0,
			"0.025": 0.0
		}
	}
}
