{
	 "smiles": "O=C1NC(=S)NC(=O)C1=NNC1=CC=CC=C1", 
	 "Tm": 563.15, 
	 "num_atms": 25, 
	 "gaussian": { 
		 "optdone": 1, 
		 "sigma_profile": "yes", 
		 "theory": "DFT", 
		 "functional": "B3LYP", 
		 "basiset": "6-31G**", 
		 "properties": { 
			 "R2extent": 7710.2757, 
			 "electric_dipole_moment_norm": 5.04704139076, 
			 "electric_quadrupole_moment_norm": 9.89779654064, 
			 "total_energy": -1153.54397735, 
			 "HOMO_LUMO_gap": 0.12778, 
			 "cosmo_polarized_energy": -18.61, 
			 "cosmo_cavitation_energy": 32.82, 
			 "cosmo_dispersion_energy": -24.67, 
			 "cosmo_repulsion_energy": 1.85, 
			 "cosmo_total_nonelectrostatic_energy": 10.0, 
			 "SMD_solvation_energy": 5.34 
		},
		"coords": [
			{
				"x": -1.9049997618,
				"y": -1.5662246296,
				"z": -2.6789069565,
				"element": "O" 
			},
			{
				"x": -0.7448734951,
				"y": -1.9971002955,
				"z": -2.6634422896,
				"element": "C" 
			},
			{
				"x": -0.3866706995,
				"y": -3.0436099118,
				"z": -3.5051623998,
				"element": "N" 
			},
			{
				"x": 0.8527907599,
				"y": -3.6380462227,
				"z": -3.6125015649,
				"element": "C" 
			},
			{
				"x": 1.1460398724,
				"y": -4.8892404042,
				"z": -4.6658583143,
				"element": "S" 
			},
			{
				"x": 1.8048232584,
				"y": -3.1102703183,
				"z": -2.7832720573,
				"element": "N" 
			},
			{
				"x": 1.671764113,
				"y": -2.0558809492,
				"z": -1.853730214,
				"element": "C" 
			},
			{
				"x": 2.6298066198,
				"y": -1.7100453982,
				"z": -1.1903654216,
				"element": "O" 
			},
			{
				"x": 0.3148591955,
				"y": -1.4778109624,
				"z": -1.8034705514,
				"element": "C" 
			},
			{
				"x": 0.1421626844,
				"y": -0.4856805634,
				"z": -0.9456969823,
				"element": "N" 
			},
			{
				"x": -1.0135696513,
				"y": 0.0899778089,
				"z": -0.8255898161,
				"element": "N" 
			},
			{
				"x": -1.2130207789,
				"y": 1.1478555635,
				"z": 0.0834036593,
				"element": "C" 
			},
			{
				"x": -2.4921138781,
				"y": 1.7133928512,
				"z": 0.1517816883,
				"element": "C" 
			},
			{
				"x": -2.7318162398,
				"y": 2.7618764322,
				"z": 1.037761505,
				"element": "C" 
			},
			{
				"x": -1.7046992645,
				"y": 3.2445097024,
				"z": 1.8506528016,
				"element": "C" 
			},
			{
				"x": -0.4311880405,
				"y": 2.6710459873,
				"z": 1.7728950426,
				"element": "C" 
			},
			{
				"x": -0.1739542464,
				"y": 1.623284053,
				"z": 0.8938152686,
				"element": "C" 
			},
			{
				"x": -1.1165216674,
				"y": -3.4095857445,
				"z": -4.1051492622,
				"element": "H" 
			},
			{
				"x": 2.7274969097,
				"y": -3.5250521269,
				"z": -2.8370277963,
				"element": "H" 
			},
			{
				"x": -1.7845808782,
				"y": -0.2501861792,
				"z": -1.4165149453,
				"element": "H" 
			},
			{
				"x": -3.2885670838,
				"y": 1.3342036828,
				"z": -0.4830327212,
				"element": "H" 
			},
			{
				"x": -3.7235898467,
				"y": 3.2002638694,
				"z": 1.0907609268,
				"element": "H" 
			},
			{
				"x": -1.893466323,
				"y": 4.0613402734,
				"z": 2.5401600129,
				"element": "H" 
			},
			{
				"x": 0.3707142704,
				"y": 3.0433152392,
				"z": 2.4032920421,
				"element": "H" 
			},
			{
				"x": 0.8072741717,
				"y": 1.1691682422,
				"z": 0.8225983454,
				"element": "H" 
			}
		],
		 "valence_orbital": [ 
			{
				"type": "occ",
				"energy": -0.28329,
				"method": "rhf"
			},
			{
				"type": "occ",
				"energy": -0.27286,
				"method": "rhf"
			},
			{
				"type": "occ",
				"energy": -0.25351,
				"method": "rhf"
			},
			{
				"type": "occ",
				"energy": -0.23468,
				"method": "rhf"
			},
			{
				"type": "occ",
				"energy": -0.23431,
				"method": "rhf"
			},
			{
				"type": "unocc",
				"energy": -0.10653,
				"method": "rhf"
			},
			{
				"type": "unocc",
				"energy": -0.03543,
				"method": "rhf"
			},
			{
				"type": "unocc",
				"energy": -0.02215,
				"method": "rhf"
			},
			{
				"type": "unocc",
				"energy": -0.01492,
				"method": "rhf"
			},
			{
				"type": "unocc",
				"energy": 0.00186,
				"method": "rhf"
			}
		],
		"cosmo_sigma_profile": { 
			"-0.025": 0.0,
			"-0.024": 0.0,
			"-0.023": 0.0,
			"-0.022": 0.0,
			"-0.021": 0.0,
			"-0.02": 0.0,
			"-0.019": 0.0,
			"-0.018": 0.0,
			"-0.017": 0.261234166441,
			"-0.016": 1.38507713768,
			"-0.015": 1.98063768953,
			"-0.014": 0.788872752192,
			"-0.013": 1.54597383894,
			"-0.012": 2.92028740078,
			"-0.011": 2.96464456579,
			"-0.01": 2.92960022807,
			"-0.009": 3.22261215975,
			"-0.008": 4.8896460388,
			"-0.007": 7.43094379216,
			"-0.006": 16.8467548725,
			"-0.005": 19.6138589931,
			"-0.004": 19.8105608219,
			"-0.003": 16.7775885189,
			"-0.002": 14.5086417876,
			"-0.001": 12.781312332,
			"0.0": 13.8547230708,
			"0.001": 13.356475318,
			"0.002": 15.9956556176,
			"0.003": 15.6372859892,
			"0.004": 16.8207220742,
			"0.005": 7.43981712185,
			"0.006": 7.88373150602,
			"0.007": 9.61887038246,
			"0.008": 8.61743410521,
			"0.009": 8.35535013031,
			"0.01": 5.3146721122,
			"0.011": 6.27388178209,
			"0.012": 5.20460657009,
			"0.013": 2.1127260791,
			"0.014": 0.245748890759,
			"0.015": 0.0,
			"0.016": 0.0,
			"0.017": 0.0,
			"0.018": 0.0,
			"0.019": 0.0,
			"0.02": 0.0,
			"0.021": 0.0,
			"0.022": 0.0,
			"0.023": 0.0,
			"0.024": 0.0,
			"0.025": 0.0
		}
	}
}
