{
	 "smiles": "NC(=O)CNCCC1CCCCC1", 
	 "Tm": 385.15, 
	 "num_atms": 33, 
	 "gaussian": { 
		 "optdone": 1, 
		 "sigma_profile": "yes", 
		 "theory": "DFT", 
		 "functional": "B3LYP", 
		 "basiset": "6-31G**", 
		 "properties": { 
			 "R2extent": 4773.586, 
			 "electric_dipole_moment_norm": 3.9752977813, 
			 "electric_quadrupole_moment_norm": 31.0528547926, 
			 "total_energy": -577.866871458, 
			 "HOMO_LUMO_gap": 0.26881, 
			 "cosmo_polarized_energy": -12.27, 
			 "cosmo_cavitation_energy": 32.78, 
			 "cosmo_dispersion_energy": -23.76, 
			 "cosmo_repulsion_energy": 1.93, 
			 "cosmo_total_nonelectrostatic_energy": 10.95, 
			 "SMD_solvation_energy": 4.54 
		},
		"coords": [
			{
				"x": -3.9600658571,
				"y": -0.4179105896,
				"z": -3.6057507315,
				"element": "N" 
			},
			{
				"x": -4.481081589,
				"y": -0.407050756,
				"z": -2.3498359335,
				"element": "C" 
			},
			{
				"x": -5.6584662951,
				"y": -0.2015827857,
				"z": -2.0904705142,
				"element": "O" 
			},
			{
				"x": -3.4450318756,
				"y": -0.6470178866,
				"z": -1.2443038575,
				"element": "C" 
			},
			{
				"x": -2.2163946227,
				"y": -1.2771963799,
				"z": -1.7291660461,
				"element": "N" 
			},
			{
				"x": -1.0774765587,
				"y": -1.2100197735,
				"z": -0.7974424803,
				"element": "C" 
			},
			{
				"x": -0.3566084907,
				"y": 0.1424725896,
				"z": -0.8827912037,
				"element": "C" 
			},
			{
				"x": 0.8805718494,
				"y": 0.3160574049,
				"z": 0.0257092195,
				"element": "C" 
			},
			{
				"x": 1.9940811807,
				"y": -0.7464118587,
				"z": -0.228550957,
				"element": "C" 
			},
			{
				"x": 2.0642057464,
				"y": -1.8062848041,
				"z": 0.8810354125,
				"element": "C" 
			},
			{
				"x": 2.3932758854,
				"y": -1.1683012806,
				"z": 2.249857036,
				"element": "C" 
			},
			{
				"x": 1.7681934651,
				"y": 0.2415736876,
				"z": 2.4038815788,
				"element": "C" 
			},
			{
				"x": 0.517340094,
				"y": 0.3968202882,
				"z": 1.5286375538,
				"element": "C" 
			},
			{
				"x": -4.5597476041,
				"y": -0.2062055904,
				"z": -4.3873484711,
				"element": "H" 
			},
			{
				"x": -2.9658002338,
				"y": -0.5570668401,
				"z": -3.717443537,
				"element": "H" 
			},
			{
				"x": -3.1980436917,
				"y": 0.3396166873,
				"z": -0.8357616229,
				"element": "H" 
			},
			{
				"x": -3.9544493198,
				"y": -1.1975946139,
				"z": -0.438764387,
				"element": "H" 
			},
			{
				"x": -2.4158671494,
				"y": -2.2532044808,
				"z": -1.9318947027,
				"element": "H" 
			},
			{
				"x": -1.3884366703,
				"y": -1.4195565966,
				"z": 0.2397658368,
				"element": "H" 
			},
			{
				"x": -0.3825638237,
				"y": -2.0070849961,
				"z": -1.0829136421,
				"element": "H" 
			},
			{
				"x": -1.0670959159,
				"y": 0.9482052469,
				"z": -0.6534055099,
				"element": "H" 
			},
			{
				"x": -0.058252671,
				"y": 0.2883282681,
				"z": -1.9285563279,
				"element": "H" 
			},
			{
				"x": 1.3047614492,
				"y": 1.2935035704,
				"z": -0.2413413546,
				"element": "H" 
			},
			{
				"x": 2.9676845229,
				"y": -0.2435448783,
				"z": -0.287869807,
				"element": "H" 
			},
			{
				"x": 1.8474740662,
				"y": -1.223490858,
				"z": -1.2053348353,
				"element": "H" 
			},
			{
				"x": 1.1033446657,
				"y": -2.3324451229,
				"z": 0.9415175433,
				"element": "H" 
			},
			{
				"x": 2.8104325613,
				"y": -2.5695774806,
				"z": 0.6321588438,
				"element": "H" 
			},
			{
				"x": 2.0350014158,
				"y": -1.8272474336,
				"z": 3.0496824948,
				"element": "H" 
			},
			{
				"x": 3.4805228186,
				"y": -1.0998579683,
				"z": 2.374957367,
				"element": "H" 
			},
			{
				"x": 2.4976972984,
				"y": 1.0071537063,
				"z": 2.1077605301,
				"element": "H" 
			},
			{
				"x": 1.5317626108,
				"y": 0.4388300067,
				"z": 3.4553230947,
				"element": "H" 
			},
			{
				"x": 0.0182404828,
				"y": 1.352058661,
				"z": 1.7308834177,
				"element": "H" 
			},
			{
				"x": -0.2047077441,
				"y": -0.3852671423,
				"z": 1.7966759926,
				"element": "H" 
			}
		],
		 "valence_orbital": [ 
			{
				"type": "occ",
				"energy": -0.29645,
				"method": "rhf"
			},
			{
				"type": "occ",
				"energy": -0.29451,
				"method": "rhf"
			},
			{
				"type": "occ",
				"energy": -0.25546,
				"method": "rhf"
			},
			{
				"type": "occ",
				"energy": -0.24577,
				"method": "rhf"
			},
			{
				"type": "occ",
				"energy": -0.22959,
				"method": "rhf"
			},
			{
				"type": "unocc",
				"energy": 0.03922,
				"method": "rhf"
			},
			{
				"type": "unocc",
				"energy": 0.07012,
				"method": "rhf"
			},
			{
				"type": "unocc",
				"energy": 0.07754,
				"method": "rhf"
			},
			{
				"type": "unocc",
				"energy": 0.09238,
				"method": "rhf"
			},
			{
				"type": "unocc",
				"energy": 0.10353,
				"method": "rhf"
			}
		],
		"cosmo_sigma_profile": { 
			"-0.025": 0.0,
			"-0.024": 0.0,
			"-0.023": 0.0,
			"-0.022": 0.0,
			"-0.021": 0.0,
			"-0.02": 0.0,
			"-0.019": 0.0,
			"-0.018": 0.0,
			"-0.017": 0.0,
			"-0.016": 0.0,
			"-0.015": 0.0,
			"-0.014": 0.345116488926,
			"-0.013": 1.18928683292,
			"-0.012": 1.11688005357,
			"-0.011": 1.40892747938,
			"-0.01": 2.9636802318,
			"-0.009": 2.9469555929,
			"-0.008": 4.41174642058,
			"-0.007": 3.02339373057,
			"-0.006": 3.88388766402,
			"-0.005": 5.92283183355,
			"-0.004": 7.60931039599,
			"-0.003": 12.9097840973,
			"-0.002": 33.8786332315,
			"-0.001": 43.4303699117,
			"0.0": 43.5637542245,
			"0.001": 30.5455281222,
			"0.002": 16.0270242759,
			"0.003": 3.88900616802,
			"0.004": 4.60344313183,
			"0.005": 2.95064896323,
			"0.006": 2.48205569953,
			"0.007": 1.8184574213,
			"0.008": 1.87188290295,
			"0.009": 2.47574314892,
			"0.01": 1.00950864875,
			"0.011": 1.44627996785,
			"0.012": 1.19322489279,
			"0.013": 2.23178800479,
			"0.014": 5.49357917516,
			"0.015": 4.5622813108,
			"0.016": 0.578818351803,
			"0.017": 0.0,
			"0.018": 0.0,
			"0.019": 0.0,
			"0.02": 0.0,
			"0.021": 0.0,
			"0.022": 0.0,
			"0.023": 0.0,
			"0.024": 0.0,
			"0.025": 0.0
		}
	}
}
