{
	 "smiles": "CCCCCCCCSC(=O)OC1=CC(Cl)=NN=C1C1=CC=CC=C1", 
	 "Tm": 300.15, 
	 "num_atms": 48, 
	 "gaussian": { 
		 "optdone": 1, 
		 "sigma_profile": "yes", 
		 "theory": "DFT", 
		 "functional": "B3LYP", 
		 "basiset": "6-31G**", 
		 "properties": { 
			 "R2extent": 15202.6902, 
			 "electric_dipole_moment_norm": 5.17138382544, 
			 "electric_quadrupole_moment_norm": 23.1441744322, 
			 "total_energy": -1856.20428563, 
			 "HOMO_LUMO_gap": 0.18041, 
			 "cosmo_polarized_energy": -13.13, 
			 "cosmo_cavitation_energy": 55.24, 
			 "cosmo_dispersion_energy": -35.47, 
			 "cosmo_repulsion_energy": 2.71, 
			 "cosmo_total_nonelectrostatic_energy": 22.49, 
			 "SMD_solvation_energy": 6.87 
		},
		"coords": [
			{
				"x": 5.1445093242,
				"y": -3.058554008,
				"z": -2.4788119414,
				"element": "C" 
			},
			{
				"x": 4.2969773758,
				"y": -1.8567088507,
				"z": -2.048202858,
				"element": "C" 
			},
			{
				"x": 2.7967805727,
				"y": -2.0617429094,
				"z": -2.3036018662,
				"element": "C" 
			},
			{
				"x": 1.8922619373,
				"y": -0.9122191292,
				"z": -1.8272256415,
				"element": "C" 
			},
			{
				"x": 2.0645485371,
				"y": 0.3975534631,
				"z": -2.6120527803,
				"element": "C" 
			},
			{
				"x": 1.1992667421,
				"y": 1.5647809114,
				"z": -2.1064739954,
				"element": "C" 
			},
			{
				"x": -0.3110562677,
				"y": 1.3421935245,
				"z": -2.2571550418,
				"element": "C" 
			},
			{
				"x": -1.1727146358,
				"y": 2.5487504016,
				"z": -1.8749895216,
				"element": "C" 
			},
			{
				"x": -1.0934173172,
				"y": 3.034862742,
				"z": -0.097727002,
				"element": "S" 
			},
			{
				"x": -2.1937219235,
				"y": 1.8080459077,
				"z": 0.5605022288,
				"element": "C" 
			},
			{
				"x": -2.79723169,
				"y": 0.9591193833,
				"z": -0.0408049632,
				"element": "O" 
			},
			{
				"x": -2.2676871422,
				"y": 1.996174522,
				"z": 1.9251679094,
				"element": "O" 
			},
			{
				"x": -3.0538738366,
				"y": 1.1014753618,
				"z": 2.6412250475,
				"element": "C" 
			},
			{
				"x": -4.3354016877,
				"y": 1.4766530036,
				"z": 2.9783469251,
				"element": "C" 
			},
			{
				"x": -5.0735142554,
				"y": 0.5458100251,
				"z": 3.7153487831,
				"element": "C" 
			},
			{
				"x": -6.7079155623,
				"y": 0.9353115224,
				"z": 4.1971255705,
				"element": "Cl" 
			},
			{
				"x": -4.6189190745,
				"y": -0.6444097178,
				"z": 4.0742190713,
				"element": "N" 
			},
			{
				"x": -3.372725017,
				"y": -0.9817389671,
				"z": 3.7549872065,
				"element": "N" 
			},
			{
				"x": -2.566484356,
				"y": -0.1555616265,
				"z": 3.0657226707,
				"element": "C" 
			},
			{
				"x": -1.2007074119,
				"y": -0.6687011889,
				"z": 2.7943265857,
				"element": "C" 
			},
			{
				"x": -1.0201684676,
				"y": -2.0520379049,
				"z": 2.6232528755,
				"element": "C" 
			},
			{
				"x": 0.2501022156,
				"y": -2.576108045,
				"z": 2.4007624824,
				"element": "C" 
			},
			{
				"x": 1.3620561209,
				"y": -1.7310255034,
				"z": 2.3573703526,
				"element": "C" 
			},
			{
				"x": 1.1940921024,
				"y": -0.3573331373,
				"z": 2.5393924428,
				"element": "C" 
			},
			{
				"x": -0.0774927356,
				"y": 0.1742693297,
				"z": 2.7541255469,
				"element": "C" 
			},
			{
				"x": 4.8462811197,
				"y": -3.9667002601,
				"z": -1.9423115639,
				"element": "H" 
			},
			{
				"x": 6.2086341595,
				"y": -2.8906665307,
				"z": -2.2827445618,
				"element": "H" 
			},
			{
				"x": 5.0318973285,
				"y": -3.258560071,
				"z": -3.550587441,
				"element": "H" 
			},
			{
				"x": 4.6497073033,
				"y": -0.9615060416,
				"z": -2.5754660456,
				"element": "H" 
			},
			{
				"x": 4.4553612815,
				"y": -1.6610645168,
				"z": -0.9783565968,
				"element": "H" 
			},
			{
				"x": 2.6327571356,
				"y": -2.2322504806,
				"z": -3.3776657208,
				"element": "H" 
			},
			{
				"x": 2.4812439789,
				"y": -2.9866602736,
				"z": -1.8018600695,
				"element": "H" 
			},
			{
				"x": 2.0753268402,
				"y": -0.7235466723,
				"z": -0.7596398822,
				"element": "H" 
			},
			{
				"x": 0.8490636695,
				"y": -1.2435727906,
				"z": -1.8969250467,
				"element": "H" 
			},
			{
				"x": 1.8428304184,
				"y": 0.2133653964,
				"z": -3.6735153487,
				"element": "H" 
			},
			{
				"x": 3.1144542943,
				"y": 0.7122182189,
				"z": -2.573418568,
				"element": "H" 
			},
			{
				"x": 1.4786410688,
				"y": 2.4744900798,
				"z": -2.6563839074,
				"element": "H" 
			},
			{
				"x": 1.4350994455,
				"y": 1.7596514148,
				"z": -1.0522330478,
				"element": "H" 
			},
			{
				"x": -0.5397701999,
				"y": 1.1102676089,
				"z": -3.3074682294,
				"element": "H" 
			},
			{
				"x": -0.6420468115,
				"y": 0.4780744262,
				"z": -1.6733215099,
				"element": "H" 
			},
			{
				"x": -0.8572240396,
				"y": 3.4520146406,
				"z": -2.407134805,
				"element": "H" 
			},
			{
				"x": -2.2258882846,
				"y": 2.3679103008,
				"z": -2.09923297,
				"element": "H" 
			},
			{
				"x": -4.7447492051,
				"y": 2.4320209591,
				"z": 2.6739392082,
				"element": "H" 
			},
			{
				"x": -1.8862667331,
				"y": -2.7020924229,
				"z": 2.6729643375,
				"element": "H" 
			},
			{
				"x": 0.3731586464,
				"y": -3.6463359604,
				"z": 2.2632493467,
				"element": "H" 
			},
			{
				"x": 2.3534430335,
				"y": -2.1415512364,
				"z": 2.1886972129,
				"element": "H" 
			},
			{
				"x": 2.0547943219,
				"y": 0.3047728742,
				"z": 2.5232693492,
				"element": "H" 
			},
			{
				"x": -0.190412319,
				"y": 1.2406622275,
				"z": 2.9099157726,
				"element": "H" 
			}
		],
		 "valence_orbital": [ 
			{
				"type": "occ",
				"energy": -0.29556,
				"method": "rhf"
			},
			{
				"type": "occ",
				"energy": -0.26927,
				"method": "rhf"
			},
			{
				"type": "occ",
				"energy": -0.25996,
				"method": "rhf"
			},
			{
				"type": "occ",
				"energy": -0.24937,
				"method": "rhf"
			},
			{
				"type": "occ",
				"energy": -0.24724,
				"method": "rhf"
			},
			{
				"type": "unocc",
				"energy": -0.06683,
				"method": "rhf"
			},
			{
				"type": "unocc",
				"energy": -0.05854,
				"method": "rhf"
			},
			{
				"type": "unocc",
				"energy": -0.01442,
				"method": "rhf"
			},
			{
				"type": "unocc",
				"energy": -0.00836,
				"method": "rhf"
			},
			{
				"type": "unocc",
				"energy": 0.00507,
				"method": "rhf"
			}
		],
		"cosmo_sigma_profile": { 
			"-0.025": 0.0,
			"-0.024": 0.0,
			"-0.023": 0.0,
			"-0.022": 0.0,
			"-0.021": 0.0,
			"-0.02": 0.0,
			"-0.019": 0.0,
			"-0.018": 0.0,
			"-0.017": 0.0,
			"-0.016": 0.0,
			"-0.015": 0.0,
			"-0.014": 0.0,
			"-0.013": 0.0,
			"-0.012": 0.0,
			"-0.011": 1.14574202075,
			"-0.01": 1.6208064168,
			"-0.009": 1.81407418485,
			"-0.008": 2.03460087893,
			"-0.007": 3.99978119526,
			"-0.006": 12.99679978,
			"-0.005": 20.0137107985,
			"-0.004": 25.1862493981,
			"-0.003": 32.7487959333,
			"-0.002": 46.5612316084,
			"-0.001": 52.3285202665,
			"0.0": 58.8211502114,
			"0.001": 54.5298698158,
			"0.002": 37.7780141515,
			"0.003": 27.64959389,
			"0.004": 21.7421446205,
			"0.005": 10.812290768,
			"0.006": 3.81471430334,
			"0.007": 4.80094324487,
			"0.008": 3.62608161994,
			"0.009": 4.65068699393,
			"0.01": 4.65752479658,
			"0.011": 2.43053449846,
			"0.012": 2.32910219731,
			"0.013": 1.90695479455,
			"0.014": 0.519765334709,
			"0.015": 0.00191564589689,
			"0.016": 0.0,
			"0.017": 0.0,
			"0.018": 0.0,
			"0.019": 0.0,
			"0.02": 0.0,
			"0.021": 0.0,
			"0.022": 0.0,
			"0.023": 0.0,
			"0.024": 0.0,
			"0.025": 0.0
		}
	}
}
