{
	 "smiles": "O=CC1=CC=C(N=C1)N1CCCC1", 
	 "Tm": 362.65, 
	 "num_atms": 25, 
	 "gaussian": { 
		 "optdone": 1, 
		 "sigma_profile": "yes", 
		 "theory": "DFT", 
		 "functional": "B3LYP", 
		 "basiset": "6-31G**", 
		 "properties": { 
			 "R2extent": 3469.4709, 
			 "electric_dipole_moment_norm": 5.78347668881, 
			 "electric_quadrupole_moment_norm": 16.498797795, 
			 "total_energy": -573.024328889, 
			 "HOMO_LUMO_gap": 0.16457, 
			 "cosmo_polarized_energy": -11.02, 
			 "cosmo_cavitation_energy": 27.89, 
			 "cosmo_dispersion_energy": -20.74, 
			 "cosmo_repulsion_energy": 1.64, 
			 "cosmo_total_nonelectrostatic_energy": 8.79, 
			 "SMD_solvation_energy": 3.61 
		},
		"coords": [
			{
				"x": -1.6848761171,
				"y": -4.7171746002,
				"z": 2.3293572419,
				"element": "O" 
			},
			{
				"x": -1.8155940503,
				"y": -3.5474491653,
				"z": 2.6540159679,
				"element": "C" 
			},
			{
				"x": -1.2629395053,
				"y": -2.4076980201,
				"z": 1.91917706,
				"element": "C" 
			},
			{
				"x": -0.5095299404,
				"y": -2.5802837452,
				"z": 0.739747067,
				"element": "C" 
			},
			{
				"x": -0.0085336922,
				"y": -1.4805103606,
				"z": 0.0808931521,
				"element": "C" 
			},
			{
				"x": -0.2749956724,
				"y": -0.1861910299,
				"z": 0.6166735277,
				"element": "C" 
			},
			{
				"x": -0.9931002571,
				"y": -0.0096353347,
				"z": 1.7512497879,
				"element": "N" 
			},
			{
				"x": -1.4582315447,
				"y": -1.0951165829,
				"z": 2.3635647014,
				"element": "C" 
			},
			{
				"x": 0.1836000611,
				"y": 0.9426473261,
				"z": 0.0149411457,
				"element": "N" 
			},
			{
				"x": -0.0238547534,
				"y": 2.2835732629,
				"z": 0.5790812067,
				"element": "C" 
			},
			{
				"x": 0.9372645843,
				"y": 3.1589079926,
				"z": -0.2369089301,
				"element": "C" 
			},
			{
				"x": 0.9808154079,
				"y": 2.4592786282,
				"z": -1.6055791705,
				"element": "C" 
			},
			{
				"x": 0.9317040777,
				"y": 0.9660089003,
				"z": -1.2433419947,
				"element": "C" 
			},
			{
				"x": -2.3884173546,
				"y": -3.2729349033,
				"z": 3.5689854639,
				"element": "H" 
			},
			{
				"x": -0.3357153328,
				"y": -3.5883120204,
				"z": 0.3750944887,
				"element": "H" 
			},
			{
				"x": 0.5823294445,
				"y": -1.595635084,
				"z": -0.8199459195,
				"element": "H" 
			},
			{
				"x": -2.0311356967,
				"y": -0.9156479987,
				"z": 3.274814603,
				"element": "H" 
			},
			{
				"x": -1.0695250336,
				"y": 2.5956275135,
				"z": 0.452949626,
				"element": "H" 
			},
			{
				"x": 0.1839971798,
				"y": 2.2820882793,
				"z": 1.651404653,
				"element": "H" 
			},
			{
				"x": 0.6048334153,
				"y": 4.1984973501,
				"z": -0.2963140613,
				"element": "H" 
			},
			{
				"x": 1.9323533516,
				"y": 3.1512142617,
				"z": 0.2223505425,
				"element": "H" 
			},
			{
				"x": 0.0959604362,
				"y": 2.7271515393,
				"z": -2.1936164045,
				"element": "H" 
			},
			{
				"x": 1.8643021346,
				"y": 2.7130365484,
				"z": -2.1969885444,
				"element": "H" 
			},
			{
				"x": 1.9419770668,
				"y": 0.5514905108,
				"z": -1.1069417796,
				"element": "H" 
			},
			{
				"x": 0.4304117906,
				"y": 0.368166732,
				"z": -2.0134634307,
				"element": "H" 
			}
		],
		 "valence_orbital": [ 
			{
				"type": "occ",
				"energy": -0.29543,
				"method": "rhf"
			},
			{
				"type": "occ",
				"energy": -0.28454,
				"method": "rhf"
			},
			{
				"type": "occ",
				"energy": -0.26449,
				"method": "rhf"
			},
			{
				"type": "occ",
				"energy": -0.23736,
				"method": "rhf"
			},
			{
				"type": "occ",
				"energy": -0.20935,
				"method": "rhf"
			},
			{
				"type": "unocc",
				"energy": -0.04478,
				"method": "rhf"
			},
			{
				"type": "unocc",
				"energy": -0.01813,
				"method": "rhf"
			},
			{
				"type": "unocc",
				"energy": 0.05158,
				"method": "rhf"
			},
			{
				"type": "unocc",
				"energy": 0.07243,
				"method": "rhf"
			},
			{
				"type": "unocc",
				"energy": 0.10465,
				"method": "rhf"
			}
		],
		"cosmo_sigma_profile": { 
			"-0.025": 0.0,
			"-0.024": 0.0,
			"-0.023": 0.0,
			"-0.022": 0.0,
			"-0.021": 0.0,
			"-0.02": 0.0,
			"-0.019": 0.0,
			"-0.018": 0.0,
			"-0.017": 0.0,
			"-0.016": 0.0,
			"-0.015": 0.0,
			"-0.014": 0.0,
			"-0.013": 0.0,
			"-0.012": 0.0,
			"-0.011": 0.0,
			"-0.01": 0.0,
			"-0.009": 0.0,
			"-0.008": 0.0,
			"-0.007": 4.10248543422,
			"-0.006": 9.06624478815,
			"-0.005": 12.7266684018,
			"-0.004": 22.891294177,
			"-0.003": 32.0441609591,
			"-0.002": 25.868725804,
			"-0.001": 19.3314007577,
			"0.0": 16.1326924791,
			"0.001": 15.0394726966,
			"0.002": 15.7983635888,
			"0.003": 9.69986532984,
			"0.004": 5.04404908688,
			"0.005": 3.77644039542,
			"0.006": 3.25321343491,
			"0.007": 2.54218355975,
			"0.008": 3.46557132726,
			"0.009": 2.3626424584,
			"0.01": 3.95275730736,
			"0.011": 3.42740609314,
			"0.012": 5.05110673183,
			"0.013": 3.60083872647,
			"0.014": 1.45016587432,
			"0.015": 0.0065740280121,
			"0.016": 0.0,
			"0.017": 0.0,
			"0.018": 0.0,
			"0.019": 0.0,
			"0.02": 0.0,
			"0.021": 0.0,
			"0.022": 0.0,
			"0.023": 0.0,
			"0.024": 0.0,
			"0.025": 0.0
		}
	}
}
