{
	 "smiles": "NC1=NN(CC2=CC=NC=C2)C=N1", 
	 "Tm": 430.15, 
	 "num_atms": 22, 
	 "gaussian": { 
		 "optdone": 1, 
		 "sigma_profile": "yes", 
		 "theory": "DFT", 
		 "functional": "B3LYP", 
		 "basiset": "6-31G**", 
		 "properties": { 
			 "R2extent": 3639.1884, 
			 "electric_dipole_moment_norm": 1.13068496497, 
			 "electric_quadrupole_moment_norm": 17.4144556699, 
			 "total_energy": -584.014869208, 
			 "HOMO_LUMO_gap": 0.18473, 
			 "cosmo_polarized_energy": -16.97, 
			 "cosmo_cavitation_energy": 26.77, 
			 "cosmo_dispersion_energy": -19.5, 
			 "cosmo_repulsion_energy": 1.55, 
			 "cosmo_total_nonelectrostatic_energy": 8.82, 
			 "SMD_solvation_energy": 0.89 
		},
		"coords": [
			{
				"x": -4.7770115311,
				"y": 1.1146133719,
				"z": 1.3848104891,
				"element": "N" 
			},
			{
				"x": -3.4527247351,
				"y": 1.1719086261,
				"z": 1.0014802568,
				"element": "C" 
			},
			{
				"x": -2.7418954967,
				"y": 0.0893274889,
				"z": 0.6913697796,
				"element": "N" 
			},
			{
				"x": -1.5439455207,
				"y": 0.6403391338,
				"z": 0.3071280401,
				"element": "N" 
			},
			{
				"x": -0.4260108516,
				"y": -0.20665928,
				"z": -0.0715988603,
				"element": "C" 
			},
			{
				"x": 0.3899391927,
				"y": -0.7284897176,
				"z": 1.0989364753,
				"element": "C" 
			},
			{
				"x": -0.2176432964,
				"y": -1.2417076627,
				"z": 2.2496358106,
				"element": "C" 
			},
			{
				"x": 0.5931257118,
				"y": -1.7314684073,
				"z": 3.2728757313,
				"element": "C" 
			},
			{
				"x": 1.9325645261,
				"y": -1.7496627678,
				"z": 3.2266281127,
				"element": "N" 
			},
			{
				"x": 2.5037129504,
				"y": -1.2593010814,
				"z": 2.121162003,
				"element": "C" 
			},
			{
				"x": 1.7856082006,
				"y": -0.7400588099,
				"z": 1.0421878783,
				"element": "C" 
			},
			{
				"x": -1.6078126793,
				"y": 1.9810121054,
				"z": 0.4235431343,
				"element": "C" 
			},
			{
				"x": -2.798554588,
				"y": 2.3631874022,
				"z": 0.8540835898,
				"element": "N" 
			},
			{
				"x": -5.0726313395,
				"y": 1.9157165298,
				"z": 1.9244194503,
				"element": "H" 
			},
			{
				"x": -5.0601056464,
				"y": 0.2290816398,
				"z": 1.7797667154,
				"element": "H" 
			},
			{
				"x": -0.8443681621,
				"y": -1.0412073646,
				"z": -0.6435272975,
				"element": "H" 
			},
			{
				"x": 0.2142340242,
				"y": 0.3676828242,
				"z": -0.747319866,
				"element": "H" 
			},
			{
				"x": -1.2987810055,
				"y": -1.2518194477,
				"z": 2.3402249643,
				"element": "H" 
			},
			{
				"x": 0.1415203387,
				"y": -2.1329942975,
				"z": 4.1784543087,
				"element": "H" 
			},
			{
				"x": 3.5921249831,
				"y": -1.2753059482,
				"z": 2.0943269403,
				"element": "H" 
			},
			{
				"x": 2.3131644891,
				"y": -0.3508343801,
				"z": 0.1751548999,
				"element": "H" 
			},
			{
				"x": -0.7795095642,
				"y": 2.6333400428,
				"z": 0.1811574438,
				"element": "H" 
			}
		],
		 "valence_orbital": [ 
			{
				"type": "occ",
				"energy": -0.2821,
				"method": "rhf"
			},
			{
				"type": "occ",
				"energy": -0.27353,
				"method": "rhf"
			},
			{
				"type": "occ",
				"energy": -0.26617,
				"method": "rhf"
			},
			{
				"type": "occ",
				"energy": -0.25722,
				"method": "rhf"
			},
			{
				"type": "occ",
				"energy": -0.21582,
				"method": "rhf"
			},
			{
				"type": "unocc",
				"energy": -0.03109,
				"method": "rhf"
			},
			{
				"type": "unocc",
				"energy": -0.01615,
				"method": "rhf"
			},
			{
				"type": "unocc",
				"energy": 0.00991,
				"method": "rhf"
			},
			{
				"type": "unocc",
				"energy": 0.06885,
				"method": "rhf"
			},
			{
				"type": "unocc",
				"energy": 0.09067,
				"method": "rhf"
			}
		],
		"cosmo_sigma_profile": { 
			"-0.025": 0.0,
			"-0.024": 0.0,
			"-0.023": 0.0,
			"-0.022": 0.0,
			"-0.021": 0.0,
			"-0.02": 0.0,
			"-0.019": 0.0,
			"-0.018": 0.0,
			"-0.017": 0.0,
			"-0.016": 0.0,
			"-0.015": 0.0,
			"-0.014": 0.0167972373953,
			"-0.013": 1.89049540964,
			"-0.012": 1.9518332797,
			"-0.011": 2.31867512242,
			"-0.01": 5.46902896739,
			"-0.009": 5.36841000141,
			"-0.008": 8.07883902792,
			"-0.007": 10.1779807317,
			"-0.006": 12.6057724713,
			"-0.005": 13.4506593968,
			"-0.004": 11.978932349,
			"-0.003": 10.5533758967,
			"-0.002": 9.30478259499,
			"-0.001": 10.4817525103,
			"0.0": 13.1301395418,
			"0.001": 13.3325825634,
			"0.002": 18.6487008396,
			"0.003": 12.5247681565,
			"0.004": 6.83443283228,
			"0.005": 5.49032947553,
			"0.006": 3.86367657958,
			"0.007": 5.32954175274,
			"0.008": 6.14050957398,
			"0.009": 3.69163882199,
			"0.01": 3.58636955857,
			"0.011": 3.44976421245,
			"0.012": 2.7723259747,
			"0.013": 3.77617249774,
			"0.014": 3.35105489207,
			"0.015": 2.26693017814,
			"0.016": 1.66766419965,
			"0.017": 0.687115646674,
			"0.018": 0.0,
			"0.019": 0.0,
			"0.02": 0.0,
			"0.021": 0.0,
			"0.022": 0.0,
			"0.023": 0.0,
			"0.024": 0.0,
			"0.025": 0.0
		}
	}
}
