{
	 "smiles": "BrC1=COC2=CC=CC=C2C1=O", 
	 "Tm": 369.15, 
	 "num_atms": 17, 
	 "gaussian": { 
		 "optdone": 1, 
		 "sigma_profile": "yes", 
		 "theory": "DFT", 
		 "functional": "B3LYP", 
		 "basiset": "6-31G**", 
		 "properties": { 
			 "R2extent": 4209.4623, 
			 "electric_dipole_moment_norm": 4.38192425882, 
			 "electric_quadrupole_moment_norm": 8.70147838933, 
			 "total_energy": -3067.80590972, 
			 "HOMO_LUMO_gap": 0.17585, 
			 "cosmo_polarized_energy": -10.56, 
			 "cosmo_cavitation_energy": 24.04, 
			 "cosmo_dispersion_energy": -18.53, 
			 "cosmo_repulsion_energy": 1.45, 
			 "cosmo_total_nonelectrostatic_energy": 6.96, 
			 "SMD_solvation_energy": 4.31 
		},
		"coords": [
			{
				"x": -1.1250155462,
				"y": 3.9817369943,
				"z": 1.966147082,
				"element": "Br" 
			},
			{
				"x": -1.1369313692,
				"y": 2.3316823029,
				"z": 1.0366914572,
				"element": "C" 
			},
			{
				"x": -2.3159876429,
				"y": 1.7791619661,
				"z": 0.6780484884,
				"element": "C" 
			},
			{
				"x": -2.4345215838,
				"y": 0.6085561294,
				"z": 0.0142519798,
				"element": "O" 
			},
			{
				"x": -1.2957889563,
				"y": -0.0792098658,
				"z": -0.3270401388,
				"element": "C" 
			},
			{
				"x": -1.4719775082,
				"y": -1.2847007832,
				"z": -1.0130518638,
				"element": "C" 
			},
			{
				"x": -0.3483419932,
				"y": -2.0138235726,
				"z": -1.3783780306,
				"element": "C" 
			},
			{
				"x": 0.9408606081,
				"y": -1.5496565295,
				"z": -1.0649634856,
				"element": "C" 
			},
			{
				"x": 1.0998573977,
				"y": -0.3525981434,
				"z": -0.3843679211,
				"element": "C" 
			},
			{
				"x": -0.0208961153,
				"y": 0.4055729364,
				"z": -0.002606408,
				"element": "C" 
			},
			{
				"x": 0.1485042961,
				"y": 1.6860898061,
				"z": 0.7253288489,
				"element": "C" 
			},
			{
				"x": 1.2426742416,
				"y": 2.144778365,
				"z": 1.0271864979,
				"element": "O" 
			},
			{
				"x": -3.2819799922,
				"y": 2.2211509204,
				"z": 0.887840045,
				"element": "H" 
			},
			{
				"x": -2.4768044626,
				"y": -1.6217638644,
				"z": -1.2434220858,
				"element": "H" 
			},
			{
				"x": -0.471759429,
				"y": -2.9516451484,
				"z": -1.9115207306,
				"element": "H" 
			},
			{
				"x": 1.8101035643,
				"y": -2.1303804822,
				"z": -1.3569328108,
				"element": "H" 
			},
			{
				"x": 2.0788044912,
				"y": 0.0368489688,
				"z": -0.1255109242,
				"element": "H" 
			}
		],
		 "valence_orbital": [ 
			{
				"type": "occ",
				"energy": -0.29033,
				"method": "rhf"
			},
			{
				"type": "occ",
				"energy": -0.27627,
				"method": "rhf"
			},
			{
				"type": "occ",
				"energy": -0.27131,
				"method": "rhf"
			},
			{
				"type": "occ",
				"energy": -0.25708,
				"method": "rhf"
			},
			{
				"type": "occ",
				"energy": -0.24209,
				"method": "rhf"
			},
			{
				"type": "unocc",
				"energy": -0.06624,
				"method": "rhf"
			},
			{
				"type": "unocc",
				"energy": -0.03191,
				"method": "rhf"
			},
			{
				"type": "unocc",
				"energy": -0.00976,
				"method": "rhf"
			},
			{
				"type": "unocc",
				"energy": 0.00179,
				"method": "rhf"
			},
			{
				"type": "unocc",
				"energy": 0.07336,
				"method": "rhf"
			}
		],
		"cosmo_sigma_profile": { 
			"-0.025": 0.0,
			"-0.024": 0.0,
			"-0.023": 0.0,
			"-0.022": 0.0,
			"-0.021": 0.0,
			"-0.02": 0.0,
			"-0.019": 0.0,
			"-0.018": 0.0,
			"-0.017": 0.0,
			"-0.016": 0.0,
			"-0.015": 0.0,
			"-0.014": 0.0,
			"-0.013": 0.0,
			"-0.012": 0.0968542369464,
			"-0.011": 1.49172644817,
			"-0.01": 1.71468768503,
			"-0.009": 1.80926931988,
			"-0.008": 2.68104324283,
			"-0.007": 7.42212661686,
			"-0.006": 9.77164592064,
			"-0.005": 12.9632025525,
			"-0.004": 12.0233832876,
			"-0.003": 13.8452419033,
			"-0.002": 13.352176332,
			"-0.001": 15.1535563082,
			"0.0": 16.4875273135,
			"0.001": 17.9767587586,
			"0.002": 17.7157916674,
			"0.003": 17.1559765333,
			"0.004": 10.5644985131,
			"0.005": 4.81500388978,
			"0.006": 2.26749663123,
			"0.007": 1.76715724407,
			"0.008": 2.24338638578,
			"0.009": 1.86135556461,
			"0.01": 1.95771683152,
			"0.011": 3.17899717952,
			"0.012": 4.54114296323,
			"0.013": 2.77291882185,
			"0.014": 0.227089950518,
			"0.015": 0.0,
			"0.016": 0.0,
			"0.017": 0.0,
			"0.018": 0.0,
			"0.019": 0.0,
			"0.02": 0.0,
			"0.021": 0.0,
			"0.022": 0.0,
			"0.023": 0.0,
			"0.024": 0.0,
			"0.025": 0.0
		}
	}
}
