{
	 "smiles": "CC(=O)C1=CC(Cl)=CC=C1O", 
	 "Tm": 327.65, 
	 "num_atms": 18, 
	 "gaussian": { 
		 "optdone": 1, 
		 "sigma_profile": "yes", 
		 "theory": "DFT", 
		 "functional": "B3LYP", 
		 "basiset": "6-31G**", 
		 "properties": { 
			 "R2extent": 2890.3418, 
			 "electric_dipole_moment_norm": 1.39933230507, 
			 "electric_quadrupole_moment_norm": 13.2197927291, 
			 "total_energy": -919.723943095, 
			 "HOMO_LUMO_gap": 0.15654, 
			 "cosmo_polarized_energy": -7.58, 
			 "cosmo_cavitation_energy": 23.78, 
			 "cosmo_dispersion_energy": -17.95, 
			 "cosmo_repulsion_energy": 1.43, 
			 "cosmo_total_nonelectrostatic_energy": 7.26, 
			 "SMD_solvation_energy": 4.72 
		},
		"coords": [
			{
				"x": -0.687691766,
				"y": 3.7444982729,
				"z": 1.2531535849,
				"element": "C" 
			},
			{
				"x": 0.1648513011,
				"y": 2.502178826,
				"z": 1.1048697691,
				"element": "C" 
			},
			{
				"x": 1.0944872746,
				"y": 2.311771245,
				"z": 1.9042983258,
				"element": "O" 
			},
			{
				"x": -0.1081148872,
				"y": 1.536961666,
				"z": 0.0260450396,
				"element": "C" 
			},
			{
				"x": -1.1587012299,
				"y": 1.7298198573,
				"z": -0.8954703165,
				"element": "C" 
			},
			{
				"x": -1.3902865813,
				"y": 0.8055814874,
				"z": -1.8976041206,
				"element": "C" 
			},
			{
				"x": -2.7039177583,
				"y": 1.0590995307,
				"z": -3.0395554236,
				"element": "Cl" 
			},
			{
				"x": -0.5852308732,
				"y": -0.3380778936,
				"z": -2.0145605104,
				"element": "C" 
			},
			{
				"x": 0.4516207792,
				"y": -0.5474881706,
				"z": -1.1209303631,
				"element": "C" 
			},
			{
				"x": 0.7089466916,
				"y": 0.3770594033,
				"z": -0.0920513999,
				"element": "C" 
			},
			{
				"x": 1.7217304137,
				"y": 0.126003017,
				"z": 0.7422830903,
				"element": "O" 
			},
			{
				"x": -0.6397682315,
				"y": 4.3636699376,
				"z": 0.3511511058,
				"element": "H" 
			},
			{
				"x": -1.7382754339,
				"y": 3.4826051097,
				"z": 1.4173401758,
				"element": "H" 
			},
			{
				"x": -0.320412089,
				"y": 4.3172490035,
				"z": 2.1048378887,
				"element": "H" 
			},
			{
				"x": -1.7924143382,
				"y": 2.6056239232,
				"z": -0.8235316624,
				"element": "H" 
			},
			{
				"x": -0.779714467,
				"y": -1.0537542351,
				"z": -2.8061365897,
				"element": "H" 
			},
			{
				"x": 1.0860695507,
				"y": -1.4241844568,
				"z": -1.1928262705,
				"element": "H" 
			},
			{
				"x": 1.7428216447,
				"y": 0.8816834764,
				"z": 1.3882876767,
				"element": "H" 
			}
		],
		 "valence_orbital": [ 
			{
				"type": "occ",
				"energy": -0.31976,
				"method": "rhf"
			},
			{
				"type": "occ",
				"energy": -0.31808,
				"method": "rhf"
			},
			{
				"type": "occ",
				"energy": -0.27933,
				"method": "rhf"
			},
			{
				"type": "occ",
				"energy": -0.27382,
				"method": "rhf"
			},
			{
				"type": "occ",
				"energy": -0.23085,
				"method": "rhf"
			},
			{
				"type": "unocc",
				"energy": -0.07431,
				"method": "rhf"
			},
			{
				"type": "unocc",
				"energy": -0.01106,
				"method": "rhf"
			},
			{
				"type": "unocc",
				"energy": 0.02136,
				"method": "rhf"
			},
			{
				"type": "unocc",
				"energy": 0.02287,
				"method": "rhf"
			},
			{
				"type": "unocc",
				"energy": 0.09359,
				"method": "rhf"
			}
		],
		"cosmo_sigma_profile": { 
			"-0.025": 0.0,
			"-0.024": 0.0,
			"-0.023": 0.0,
			"-0.022": 0.0,
			"-0.021": 0.0,
			"-0.02": 0.0,
			"-0.019": 0.0,
			"-0.018": 0.0,
			"-0.017": 0.0,
			"-0.016": 0.0,
			"-0.015": 0.0,
			"-0.014": 0.0,
			"-0.013": 0.0,
			"-0.012": 0.0,
			"-0.011": 0.0,
			"-0.01": 0.0,
			"-0.009": 0.0160688648064,
			"-0.008": 3.70592896192,
			"-0.007": 10.0139068891,
			"-0.006": 12.1023726519,
			"-0.005": 10.1789840465,
			"-0.004": 11.2427025725,
			"-0.003": 12.6964370227,
			"-0.002": 17.2788276196,
			"-0.001": 13.2192988943,
			"0.0": 12.5799289149,
			"0.001": 18.0149509016,
			"0.002": 20.3262800543,
			"0.003": 12.0001559711,
			"0.004": 11.3526954475,
			"0.005": 10.007311985,
			"0.006": 2.21639964132,
			"0.007": 2.31000598662,
			"0.008": 3.09715898033,
			"0.009": 2.98212512414,
			"0.01": 3.27048998368,
			"0.011": 2.82545773561,
			"0.012": 1.25572731123,
			"0.013": 0.03357627335,
			"0.014": 0.0,
			"0.015": 0.0,
			"0.016": 0.0,
			"0.017": 0.0,
			"0.018": 0.0,
			"0.019": 0.0,
			"0.02": 0.0,
			"0.021": 0.0,
			"0.022": 0.0,
			"0.023": 0.0,
			"0.024": 0.0,
			"0.025": 0.0
		}
	}
}
