{
	 "smiles": "OC=CC(=O)CCC1=CC=CC=C1", 
	 "Tm": 423.15, 
	 "num_atms": 25, 
	 "gaussian": { 
		 "optdone": 1, 
		 "sigma_profile": "yes", 
		 "theory": "DFT", 
		 "functional": "B3LYP", 
		 "basiset": "6-31G**", 
		 "properties": { 
			 "R2extent": 3339.1436, 
			 "electric_dipole_moment_norm": 5.05378243398, 
			 "electric_quadrupole_moment_norm": 12.7198993082, 
			 "total_energy": -576.828231167, 
			 "HOMO_LUMO_gap": 0.18958, 
			 "cosmo_polarized_energy": -16.64, 
			 "cosmo_cavitation_energy": 29.14, 
			 "cosmo_dispersion_energy": -20.72, 
			 "cosmo_repulsion_energy": 1.67, 
			 "cosmo_total_nonelectrostatic_energy": 10.09, 
			 "SMD_solvation_energy": 6.12 
		},
		"coords": [
			{
				"x": -2.5827854466,
				"y": 3.4465560771,
				"z": -0.3865045211,
				"element": "O" 
			},
			{
				"x": -1.5614731863,
				"y": 2.6332193729,
				"z": -0.029045956,
				"element": "C" 
			},
			{
				"x": -1.6224377481,
				"y": 1.8766533582,
				"z": 1.080106027,
				"element": "C" 
			},
			{
				"x": -0.5573190907,
				"y": 0.977902221,
				"z": 1.5497206084,
				"element": "C" 
			},
			{
				"x": -0.7215831637,
				"y": 0.3266830453,
				"z": 2.5761920677,
				"element": "O" 
			},
			{
				"x": 0.7687314511,
				"y": 0.9063120512,
				"z": 0.7824303703,
				"element": "C" 
			},
			{
				"x": 1.6322585497,
				"y": -0.314204958,
				"z": 1.1559670417,
				"element": "C" 
			},
			{
				"x": 1.1768588998,
				"y": -1.6055026731,
				"z": 0.5044137635,
				"element": "C" 
			},
			{
				"x": 0.1964973367,
				"y": -2.4144137726,
				"z": 1.0979159795,
				"element": "C" 
			},
			{
				"x": -0.2279327902,
				"y": -3.5903290796,
				"z": 0.4773020711,
				"element": "C" 
			},
			{
				"x": 0.3185309701,
				"y": -3.9792672596,
				"z": -0.7474453781,
				"element": "C" 
			},
			{
				"x": 1.2957004789,
				"y": -3.1834814655,
				"z": -1.3476828092,
				"element": "C" 
			},
			{
				"x": 1.7191849567,
				"y": -2.0086516013,
				"z": -0.7241328943,
				"element": "C" 
			},
			{
				"x": -2.3722118295,
				"y": 3.8960136499,
				"z": -1.2136736894,
				"element": "H" 
			},
			{
				"x": -0.695672566,
				"y": 2.6327787715,
				"z": -0.6882379326,
				"element": "H" 
			},
			{
				"x": -2.5118408197,
				"y": 1.9127922,
				"z": 1.7023499907,
				"element": "H" 
			},
			{
				"x": 0.5859382159,
				"y": 0.9198338617,
				"z": -0.2980588668,
				"element": "H" 
			},
			{
				"x": 1.3167368201,
				"y": 1.8309460226,
				"z": 1.0149216323,
				"element": "H" 
			},
			{
				"x": 1.6200066013,
				"y": -0.4174363671,
				"z": 2.2445659435,
				"element": "H" 
			},
			{
				"x": 2.6656748401,
				"y": -0.107368028,
				"z": 0.8565746623,
				"element": "H" 
			},
			{
				"x": -0.2348701149,
				"y": -2.1077604372,
				"z": 2.045543368,
				"element": "H" 
			},
			{
				"x": -0.986245424,
				"y": -4.2056970205,
				"z": 0.9539735218,
				"element": "H" 
			},
			{
				"x": -0.0107732999,
				"y": -4.896531173,
				"z": -1.2276069809,
				"element": "H" 
			},
			{
				"x": 1.7332397713,
				"y": -3.4797327195,
				"z": -2.2973459909,
				"element": "H" 
			},
			{
				"x": 2.488786588,
				"y": -1.3989140764,
				"z": -1.1933420285,
				"element": "H" 
			}
		],
		 "valence_orbital": [ 
			{
				"type": "occ",
				"energy": -0.32044,
				"method": "rhf"
			},
			{
				"type": "occ",
				"energy": -0.2486,
				"method": "rhf"
			},
			{
				"type": "occ",
				"energy": -0.24299,
				"method": "rhf"
			},
			{
				"type": "occ",
				"energy": -0.23896,
				"method": "rhf"
			},
			{
				"type": "occ",
				"energy": -0.23097,
				"method": "rhf"
			},
			{
				"type": "unocc",
				"energy": -0.04139,
				"method": "rhf"
			},
			{
				"type": "unocc",
				"energy": 0.00803,
				"method": "rhf"
			},
			{
				"type": "unocc",
				"energy": 0.00923,
				"method": "rhf"
			},
			{
				"type": "unocc",
				"energy": 0.04088,
				"method": "rhf"
			},
			{
				"type": "unocc",
				"energy": 0.07323,
				"method": "rhf"
			}
		],
		"cosmo_sigma_profile": { 
			"-0.025": 0.0,
			"-0.024": 0.0,
			"-0.023": 0.0,
			"-0.022": 0.0,
			"-0.021": 0.0,
			"-0.02": 0.223160576501,
			"-0.019": 1.51429701173,
			"-0.018": 1.28146613797,
			"-0.017": 1.23782632261,
			"-0.016": 1.09695372012,
			"-0.015": 0.968348086868,
			"-0.014": 0.995478479405,
			"-0.013": 1.05998236418,
			"-0.012": 0.977203645373,
			"-0.011": 1.30957077311,
			"-0.01": 1.3440410479,
			"-0.009": 2.58250789705,
			"-0.008": 2.37154001869,
			"-0.007": 2.83149566369,
			"-0.006": 4.51619557735,
			"-0.005": 14.5021876547,
			"-0.004": 17.5120553074,
			"-0.003": 20.678405246,
			"-0.002": 18.2467722787,
			"-0.001": 15.9091354142,
			"0.0": 14.3848660534,
			"0.001": 13.205634834,
			"0.002": 12.8691323363,
			"0.003": 15.0055138755,
			"0.004": 15.0122567575,
			"0.005": 12.128382081,
			"0.006": 11.8295136135,
			"0.007": 6.99515802171,
			"0.008": 3.80051100643,
			"0.009": 2.64306175959,
			"0.01": 2.94830491731,
			"0.011": 2.16846794858,
			"0.012": 2.35696315925,
			"0.013": 3.04826580134,
			"0.014": 1.31854947918,
			"0.015": 0.164320981937,
			"0.016": 0.0,
			"0.017": 0.0,
			"0.018": 0.0,
			"0.019": 0.0,
			"0.02": 0.0,
			"0.021": 0.0,
			"0.022": 0.0,
			"0.023": 0.0,
			"0.024": 0.0,
			"0.025": 0.0
		}
	}
}
