{
	 "smiles": "COC(=O)C1=CC(Br)=C(C=C1)C(=O)OC", 
	 "Tm": 326.15, 
	 "num_atms": 24, 
	 "gaussian": { 
		 "optdone": 1, 
		 "sigma_profile": "yes", 
		 "theory": "DFT", 
		 "functional": "B3LYP", 
		 "basiset": "6-31G**", 
		 "properties": { 
			 "R2extent": 5970.7694, 
			 "electric_dipole_moment_norm": 1.35204712936, 
			 "electric_quadrupole_moment_norm": 20.6811970161, 
			 "total_energy": -3258.79956503, 
			 "HOMO_LUMO_gap": 0.17542, 
			 "cosmo_polarized_energy": -10.99, 
			 "cosmo_cavitation_energy": 31.66, 
			 "cosmo_dispersion_energy": -23.36, 
			 "cosmo_repulsion_energy": 1.84, 
			 "cosmo_total_nonelectrostatic_energy": 10.14, 
			 "SMD_solvation_energy": 7.56 
		},
		"coords": [
			{
				"x": 2.2939623582,
				"y": -4.0032692014,
				"z": -1.26191695,
				"element": "C" 
			},
			{
				"x": 1.8721944813,
				"y": -2.6348602479,
				"z": -1.137019444,
				"element": "O" 
			},
			{
				"x": 1.4804548347,
				"y": -2.2630452512,
				"z": 0.0992706149,
				"element": "C" 
			},
			{
				"x": 1.4754304724,
				"y": -3.0124559256,
				"z": 1.05550478,
				"element": "O" 
			},
			{
				"x": 1.0556366027,
				"y": -0.8315415126,
				"z": 0.1575950392,
				"element": "C" 
			},
			{
				"x": 1.0801253587,
				"y": -0.0031490992,
				"z": -0.9677141988,
				"element": "C" 
			},
			{
				"x": 0.66808828,
				"y": 1.3258905131,
				"z": -0.8731685141,
				"element": "C" 
			},
			{
				"x": 0.7850064827,
				"y": 2.3516131219,
				"z": -2.4765874552,
				"element": "Br" 
			},
			{
				"x": 0.2310747922,
				"y": 1.8549991984,
				"z": 0.3560125003,
				"element": "C" 
			},
			{
				"x": 0.2277033473,
				"y": 1.0050161936,
				"z": 1.4776925378,
				"element": "C" 
			},
			{
				"x": 0.6265441266,
				"y": -0.3206669817,
				"z": 1.3873782676,
				"element": "C" 
			},
			{
				"x": -0.2625808414,
				"y": 3.2612661562,
				"z": 0.5169866421,
				"element": "C" 
			},
			{
				"x": -0.6975318746,
				"y": 3.9676618004,
				"z": -0.3657180296,
				"element": "O" 
			},
			{
				"x": -0.1854356451,
				"y": 3.6600773749,
				"z": 1.809239699,
				"element": "O" 
			},
			{
				"x": -0.6841684598,
				"y": 4.9829593368,
				"z": 2.0661871493,
				"element": "C" 
			},
			{
				"x": 1.4799224421,
				"y": -4.6808629695,
				"z": -0.9932580451,
				"element": "H" 
			},
			{
				"x": 2.5706767594,
				"y": -4.1303225277,
				"z": -2.3081082435,
				"element": "H" 
			},
			{
				"x": 3.1482853835,
				"y": -4.2016842157,
				"z": -0.6101738855,
				"element": "H" 
			},
			{
				"x": 1.4216427665,
				"y": -0.3914155886,
				"z": -1.9180784203,
				"element": "H" 
			},
			{
				"x": -0.102091561,
				"y": 1.4096050619,
				"z": 2.4264993613,
				"element": "H" 
			},
			{
				"x": 0.6146302919,
				"y": -0.9736258407,
				"z": 2.2526639151,
				"element": "H" 
			},
			{
				"x": -0.1237042916,
				"y": 5.7221809636,
				"z": 1.4889413533,
				"element": "H" 
			},
			{
				"x": -1.7412191315,
				"y": 5.0550763594,
				"z": 1.7980625653,
				"element": "H" 
			},
			{
				"x": -0.5464469753,
				"y": 5.1449532816,
				"z": 3.1350087609,
				"element": "H" 
			}
		],
		 "valence_orbital": [ 
			{
				"type": "occ",
				"energy": -0.29886,
				"method": "rhf"
			},
			{
				"type": "occ",
				"energy": -0.28525,
				"method": "rhf"
			},
			{
				"type": "occ",
				"energy": -0.27712,
				"method": "rhf"
			},
			{
				"type": "occ",
				"energy": -0.26427,
				"method": "rhf"
			},
			{
				"type": "occ",
				"energy": -0.25196,
				"method": "rhf"
			},
			{
				"type": "unocc",
				"energy": -0.07654,
				"method": "rhf"
			},
			{
				"type": "unocc",
				"energy": -0.02572,
				"method": "rhf"
			},
			{
				"type": "unocc",
				"energy": 0.00414,
				"method": "rhf"
			},
			{
				"type": "unocc",
				"energy": 0.00522,
				"method": "rhf"
			},
			{
				"type": "unocc",
				"energy": 0.06881,
				"method": "rhf"
			}
		],
		"cosmo_sigma_profile": { 
			"-0.025": 0.0,
			"-0.024": 0.0,
			"-0.023": 0.0,
			"-0.022": 0.0,
			"-0.021": 0.0,
			"-0.02": 0.0,
			"-0.019": 0.0,
			"-0.018": 0.0,
			"-0.017": 0.0,
			"-0.016": 0.0,
			"-0.015": 0.0,
			"-0.014": 0.0,
			"-0.013": 0.0,
			"-0.012": 0.0,
			"-0.011": 0.0,
			"-0.01": 0.0,
			"-0.009": 0.0,
			"-0.008": 0.323933555571,
			"-0.007": 5.36067900662,
			"-0.006": 15.4703163661,
			"-0.005": 19.08647836,
			"-0.004": 25.0838126881,
			"-0.003": 27.6198338168,
			"-0.002": 17.4420693835,
			"-0.001": 19.3903061022,
			"0.0": 27.6488220838,
			"0.001": 20.9594437155,
			"0.002": 13.7553638743,
			"0.003": 12.1429023105,
			"0.004": 14.0271364151,
			"0.005": 6.21930087328,
			"0.006": 4.63316560328,
			"0.007": 3.3818472383,
			"0.008": 3.00018426384,
			"0.009": 3.97215791793,
			"0.01": 4.76667032709,
			"0.011": 8.10676980666,
			"0.012": 4.1098926115,
			"0.013": 0.0,
			"0.014": 0.0,
			"0.015": 0.0,
			"0.016": 0.0,
			"0.017": 0.0,
			"0.018": 0.0,
			"0.019": 0.0,
			"0.02": 0.0,
			"0.021": 0.0,
			"0.022": 0.0,
			"0.023": 0.0,
			"0.024": 0.0,
			"0.025": 0.0
		}
	}
}
