{
	 "smiles": "CN1C=CN=C1C", 
	 "Tm": 311.15, 
	 "num_atms": 15, 
	 "gaussian": { 
		 "optdone": 1, 
		 "sigma_profile": "yes", 
		 "theory": "DFT", 
		 "functional": "B3LYP", 
		 "basiset": "6-31G**", 
		 "properties": { 
			 "R2extent": 832.2652, 
			 "electric_dipole_moment_norm": 3.89614090608, 
			 "electric_quadrupole_moment_norm": 7.01239164266, 
			 "total_energy": -304.854025432, 
			 "HOMO_LUMO_gap": 0.24732, 
			 "cosmo_polarized_energy": -10.26, 
			 "cosmo_cavitation_energy": 18.19, 
			 "cosmo_dispersion_energy": -13.5, 
			 "cosmo_repulsion_energy": 1.13, 
			 "cosmo_total_nonelectrostatic_energy": 5.82, 
			 "SMD_solvation_energy": 2.18 
		},
		"coords": [
			{
				"x": -1.1009350304,
				"y": 1.1803914542,
				"z": -1.6033485276,
				"element": "C" 
			},
			{
				"x": -0.3464072072,
				"y": 0.2401318702,
				"z": -0.7936687884,
				"element": "N" 
			},
			{
				"x": -0.539855552,
				"y": -0.0300316007,
				"z": 0.5494063545,
				"element": "C" 
			},
			{
				"x": 0.3988336978,
				"y": -0.9746618348,
				"z": 0.8741867867,
				"element": "C" 
			},
			{
				"x": 1.1634506206,
				"y": -1.2948044589,
				"z": -0.2241254724,
				"element": "N" 
			},
			{
				"x": 0.6966394904,
				"y": -0.5527025579,
				"z": -1.2116442371,
				"element": "C" 
			},
			{
				"x": 1.2130863627,
				"y": -0.5514177301,
				"z": -2.6137040429,
				"element": "C" 
			},
			{
				"x": -0.4494728556,
				"y": 1.9606155862,
				"z": -2.0102915667,
				"element": "H" 
			},
			{
				"x": -1.8623077097,
				"y": 1.6549114546,
				"z": -0.9824028033,
				"element": "H" 
			},
			{
				"x": -1.5991829763,
				"y": 0.6721280853,
				"z": -2.4353268371,
				"element": "H" 
			},
			{
				"x": -1.3080376943,
				"y": 0.4662320486,
				"z": 1.1231536136,
				"element": "H" 
			},
			{
				"x": 0.5665740071,
				"y": -1.4411977502,
				"z": 1.8352600941,
				"element": "H" 
			},
			{
				"x": 2.0354277607,
				"y": -1.2655889064,
				"z": -2.6739072814,
				"element": "H" 
			},
			{
				"x": 1.5889937617,
				"y": 0.4335784866,
				"z": -2.9175883376,
				"element": "H" 
			},
			{
				"x": 0.4455933245,
				"y": -0.8473841469,
				"z": -3.3397989544,
				"element": "H" 
			}
		],
		 "valence_orbital": [ 
			{
				"type": "occ",
				"energy": -0.37703,
				"method": "rhf"
			},
			{
				"type": "occ",
				"energy": -0.37654,
				"method": "rhf"
			},
			{
				"type": "occ",
				"energy": -0.25813,
				"method": "rhf"
			},
			{
				"type": "occ",
				"energy": -0.25186,
				"method": "rhf"
			},
			{
				"type": "occ",
				"energy": -0.21003,
				"method": "rhf"
			},
			{
				"type": "unocc",
				"energy": 0.03729,
				"method": "rhf"
			},
			{
				"type": "unocc",
				"energy": 0.07976,
				"method": "rhf"
			},
			{
				"type": "unocc",
				"energy": 0.08265,
				"method": "rhf"
			},
			{
				"type": "unocc",
				"energy": 0.11175,
				"method": "rhf"
			},
			{
				"type": "unocc",
				"energy": 0.12823,
				"method": "rhf"
			}
		],
		"cosmo_sigma_profile": { 
			"-0.025": 0.0,
			"-0.024": 0.0,
			"-0.023": 0.0,
			"-0.022": 0.0,
			"-0.021": 0.0,
			"-0.02": 0.0,
			"-0.019": 0.0,
			"-0.018": 0.0,
			"-0.017": 0.0,
			"-0.016": 0.0,
			"-0.015": 0.0,
			"-0.014": 0.0,
			"-0.013": 0.0,
			"-0.012": 0.0,
			"-0.011": 0.0,
			"-0.01": 0.0,
			"-0.009": 0.0,
			"-0.008": 2.06722737294,
			"-0.007": 4.22228396907,
			"-0.006": 8.06560526928,
			"-0.005": 16.566356706,
			"-0.004": 15.1834916223,
			"-0.003": 17.3052964633,
			"-0.002": 12.7480231117,
			"-0.001": 10.9123457835,
			"0.0": 8.49043801228,
			"0.001": 4.94926523805,
			"0.002": 4.51896068283,
			"0.003": 4.73545399744,
			"0.004": 4.91007155951,
			"0.005": 4.2896089938,
			"0.006": 4.74379788685,
			"0.007": 5.05010073097,
			"0.008": 1.71681296465,
			"0.009": 1.91729389022,
			"0.01": 1.46217568351,
			"0.011": 1.91665841981,
			"0.012": 0.995175293403,
			"0.013": 1.05695003184,
			"0.014": 1.3534735619,
			"0.015": 1.23667438578,
			"0.016": 0.944879181365,
			"0.017": 0.783562890543,
			"0.018": 1.30594163428,
			"0.019": 0.539589573911,
			"0.02": 0.0,
			"0.021": 0.0,
			"0.022": 0.0,
			"0.023": 0.0,
			"0.024": 0.0,
			"0.025": 0.0
		}
	}
}
