{
	 "smiles": "CCOC(=O)CC1=CC(CC(=O)OCC)=C(NC(=O)OCC)C=C1NC(=O)OCC", 
	 "Tm": 413.15, 
	 "num_atms": 58, 
	 "gaussian": { 
		 "optdone": 1, 
		 "sigma_profile": "yes", 
		 "theory": "DFT", 
		 "functional": "B3LYP", 
		 "basiset": "6-31G**", 
		 "properties": { 
			 "R2extent": 16476.4332, 
			 "electric_dipole_moment_norm": 2.78715696544, 
			 "electric_quadrupole_moment_norm": 16.9309968283, 
			 "total_energy": -1490.3843743, 
			 "HOMO_LUMO_gap": 0.21539, 
			 "cosmo_polarized_energy": -26.63, 
			 "cosmo_cavitation_energy": 63.28, 
			 "cosmo_dispersion_energy": -40.08, 
			 "cosmo_repulsion_energy": 3.26, 
			 "cosmo_total_nonelectrostatic_energy": 26.45, 
			 "SMD_solvation_energy": 15.27 
		},
		"coords": [
			{
				"x": 2.1739172263,
				"y": 0.7601399135,
				"z": -6.4937408437,
				"element": "C" 
			},
			{
				"x": 2.2023932605,
				"y": 0.1648444731,
				"z": -5.0987988036,
				"element": "C" 
			},
			{
				"x": 0.8526879585,
				"y": 0.2087828579,
				"z": -4.5799493568,
				"element": "O" 
			},
			{
				"x": 0.6865046765,
				"y": -0.2775084511,
				"z": -3.3295313853,
				"element": "C" 
			},
			{
				"x": 1.5918928724,
				"y": -0.7170967228,
				"z": -2.6560256234,
				"element": "O" 
			},
			{
				"x": -0.7856819232,
				"y": -0.2106455046,
				"z": -2.9474661208,
				"element": "C" 
			},
			{
				"x": -1.082132784,
				"y": -0.4699996899,
				"z": -1.4909101486,
				"element": "C" 
			},
			{
				"x": -0.3171493918,
				"y": 0.1319674869,
				"z": -0.4870733048,
				"element": "C" 
			},
			{
				"x": -0.5474283855,
				"y": -0.0798983987,
				"z": 0.8755141328,
				"element": "C" 
			},
			{
				"x": 0.303055586,
				"y": 0.6256423124,
				"z": 1.9185907517,
				"element": "C" 
			},
			{
				"x": 0.4328835629,
				"y": 2.1180449286,
				"z": 1.6584405126,
				"element": "C" 
			},
			{
				"x": 1.048050359,
				"y": 2.6148710534,
				"z": 0.7367092291,
				"element": "O" 
			},
			{
				"x": -0.2233844848,
				"y": 2.8328930526,
				"z": 2.5973172837,
				"element": "O" 
			},
			{
				"x": -0.1819998423,
				"y": 4.2749381325,
				"z": 2.4600969687,
				"element": "C" 
			},
			{
				"x": -1.2770786792,
				"y": 4.7715131008,
				"z": 1.5283192003,
				"element": "C" 
			},
			{
				"x": -1.5736630482,
				"y": -0.9677569043,
				"z": 1.2447312801,
				"element": "C" 
			},
			{
				"x": -1.8770777451,
				"y": -1.2472964552,
				"z": 2.6121458045,
				"element": "N" 
			},
			{
				"x": -1.1441785069,
				"y": -2.0403162477,
				"z": 3.4717688021,
				"element": "C" 
			},
			{
				"x": -1.5742500962,
				"y": -2.4414550179,
				"z": 4.5376534647,
				"element": "O" 
			},
			{
				"x": 0.0926626259,
				"y": -2.2890890781,
				"z": 2.9853462292,
				"element": "O" 
			},
			{
				"x": 0.9454489426,
				"y": -3.1024726823,
				"z": 3.8255997936,
				"element": "C" 
			},
			{
				"x": 1.6511348588,
				"y": -2.2679890646,
				"z": 4.8830925809,
				"element": "C" 
			},
			{
				"x": -2.3682578031,
				"y": -1.5522710783,
				"z": 0.2566042054,
				"element": "C" 
			},
			{
				"x": -2.1464746023,
				"y": -1.3001451667,
				"z": -1.0988294668,
				"element": "C" 
			},
			{
				"x": -2.9760018029,
				"y": -1.9605336951,
				"z": -2.0566083194,
				"element": "N" 
			},
			{
				"x": -3.9674283382,
				"y": -1.384978049,
				"z": -2.8255485239,
				"element": "C" 
			},
			{
				"x": -4.7870712985,
				"y": -2.028790391,
				"z": -3.452935894,
				"element": "O" 
			},
			{
				"x": -3.8954710261,
				"y": -0.0344999263,
				"z": -2.8073885568,
				"element": "O" 
			},
			{
				"x": -4.8929051928,
				"y": 0.6400491657,
				"z": -3.6074251191,
				"element": "C" 
			},
			{
				"x": -4.6771110375,
				"y": 2.131829495,
				"z": -3.4386555154,
				"element": "C" 
			},
			{
				"x": 1.8256480103,
				"y": 1.7967642202,
				"z": -6.4696412644,
				"element": "H" 
			},
			{
				"x": 1.5104802024,
				"y": 0.1892333545,
				"z": -7.1497856974,
				"element": "H" 
			},
			{
				"x": 3.1800487685,
				"y": 0.7452106064,
				"z": -6.9242713479,
				"element": "H" 
			},
			{
				"x": 2.8577333414,
				"y": 0.7252046083,
				"z": -4.4246844053,
				"element": "H" 
			},
			{
				"x": 2.5465349178,
				"y": -0.8743739919,
				"z": -5.1018355002,
				"element": "H" 
			},
			{
				"x": -1.1742931221,
				"y": 0.7638692969,
				"z": -3.2636673668,
				"element": "H" 
			},
			{
				"x": -1.3053710069,
				"y": -0.9441924485,
				"z": -3.5722631341,
				"element": "H" 
			},
			{
				"x": 0.4960688144,
				"y": 0.7908527659,
				"z": -0.7674507087,
				"element": "H" 
			},
			{
				"x": -0.1162292681,
				"y": 0.4722179803,
				"z": 2.911238115,
				"element": "H" 
			},
			{
				"x": 1.3159909416,
				"y": 0.2077313925,
				"z": 1.9066447507,
				"element": "H" 
			},
			{
				"x": 0.8066537555,
				"y": 4.5658148426,
				"z": 2.0973125506,
				"element": "H" 
			},
			{
				"x": -0.3213798581,
				"y": 4.6476209974,
				"z": 3.4776138413,
				"element": "H" 
			},
			{
				"x": -1.1131292731,
				"y": 4.4021788347,
				"z": 0.5130829322,
				"element": "H" 
			},
			{
				"x": -1.2731736832,
				"y": 5.8662795007,
				"z": 1.5005059053,
				"element": "H" 
			},
			{
				"x": -2.2612699127,
				"y": 4.4399376991,
				"z": 1.8720991582,
				"element": "H" 
			},
			{
				"x": -2.8461126697,
				"y": -1.1901966448,
				"z": 2.8935778804,
				"element": "H" 
			},
			{
				"x": 1.6558246351,
				"y": -3.5522742798,
				"z": 3.128021883,
				"element": "H" 
			},
			{
				"x": 0.3397545522,
				"y": -3.8871426448,
				"z": 4.2846560481,
				"element": "H" 
			},
			{
				"x": 2.3376914545,
				"y": -2.8999480749,
				"z": 5.4564595656,
				"element": "H" 
			},
			{
				"x": 0.9243643673,
				"y": -1.8355962898,
				"z": 5.574962184,
				"element": "H" 
			},
			{
				"x": 2.231625381,
				"y": -1.4621486242,
				"z": 4.4238893663,
				"element": "H" 
			},
			{
				"x": -3.1759070969,
				"y": -2.2178804977,
				"z": 0.5486646765,
				"element": "H" 
			},
			{
				"x": -3.1263052274,
				"y": -2.9527154578,
				"z": -1.9352848271,
				"element": "H" 
			},
			{
				"x": -5.8861901709,
				"y": 0.3288392531,
				"z": -3.2701983274,
				"element": "H" 
			},
			{
				"x": -4.78540085,
				"y": 0.3245022167,
				"z": -4.6498528208,
				"element": "H" 
			},
			{
				"x": -5.42239508,
				"y": 2.6809879122,
				"z": -4.0223988725,
				"element": "H" 
			},
			{
				"x": -3.6832666736,
				"y": 2.4280391317,
				"z": -3.7869450218,
				"element": "H" 
			},
			{
				"x": -4.7761811902,
				"y": 2.4252108924,
				"z": -2.38969282,
				"element": "H" 
			}
		],
		 "valence_orbital": [ 
			{
				"type": "occ",
				"energy": -0.27385,
				"method": "rhf"
			},
			{
				"type": "occ",
				"energy": -0.26957,
				"method": "rhf"
			},
			{
				"type": "occ",
				"energy": -0.26704,
				"method": "rhf"
			},
			{
				"type": "occ",
				"energy": -0.24251,
				"method": "rhf"
			},
			{
				"type": "occ",
				"energy": -0.2314,
				"method": "rhf"
			},
			{
				"type": "unocc",
				"energy": -0.01601,
				"method": "rhf"
			},
			{
				"type": "unocc",
				"energy": -0.01474,
				"method": "rhf"
			},
			{
				"type": "unocc",
				"energy": 0.01428,
				"method": "rhf"
			},
			{
				"type": "unocc",
				"energy": 0.01543,
				"method": "rhf"
			},
			{
				"type": "unocc",
				"energy": 0.04896,
				"method": "rhf"
			}
		],
		"cosmo_sigma_profile": { 
			"-0.025": 0.0,
			"-0.024": 0.0,
			"-0.023": 0.0,
			"-0.022": 0.0,
			"-0.021": 0.0,
			"-0.02": 0.0,
			"-0.019": 0.0,
			"-0.018": 0.0,
			"-0.017": 0.0,
			"-0.016": 0.0,
			"-0.015": 1.09736280589,
			"-0.014": 1.8448552294,
			"-0.013": 2.35569880782,
			"-0.012": 1.47766482064,
			"-0.011": 1.57717271106,
			"-0.01": 2.2309244496,
			"-0.009": 2.85093128633,
			"-0.008": 3.8358797324,
			"-0.007": 4.93031700564,
			"-0.006": 12.2287282189,
			"-0.005": 29.4700819663,
			"-0.004": 53.9477177397,
			"-0.003": 59.3502979501,
			"-0.002": 55.2627672768,
			"-0.001": 46.2180221273,
			"0.0": 48.8135889667,
			"0.001": 28.3110741267,
			"0.002": 18.7839521611,
			"0.003": 17.3331050538,
			"0.004": 15.2764252234,
			"0.005": 11.3756200399,
			"0.006": 10.2638138573,
			"0.007": 11.3183679518,
			"0.008": 9.91875579979,
			"0.009": 6.41558260485,
			"0.01": 6.64818904903,
			"0.011": 8.79599214939,
			"0.012": 13.5558516022,
			"0.013": 10.7021089459,
			"0.014": 0.871993682317,
			"0.015": 0.0,
			"0.016": 0.0,
			"0.017": 0.0,
			"0.018": 0.0,
			"0.019": 0.0,
			"0.02": 0.0,
			"0.021": 0.0,
			"0.022": 0.0,
			"0.023": 0.0,
			"0.024": 0.0,
			"0.025": 0.0
		}
	}
}
