{
	 "smiles": "CC(C)(C)OC(=O)NC1CC2CCCC(C1)C2N", 
	 "Tm": 384.15, 
	 "num_atms": 44, 
	 "gaussian": { 
		 "optdone": 1, 
		 "sigma_profile": "yes", 
		 "theory": "DFT", 
		 "functional": "B3LYP", 
		 "basiset": "6-31G**", 
		 "properties": { 
			 "R2extent": 5660.9022, 
			 "electric_dipole_moment_norm": 2.43436474054, 
			 "electric_quadrupole_moment_norm": 16.0052160682, 
			 "total_energy": -809.143439883, 
			 "HOMO_LUMO_gap": 0.28491, 
			 "cosmo_polarized_energy": -12.37, 
			 "cosmo_cavitation_energy": 40.19, 
			 "cosmo_dispersion_energy": -27.63, 
			 "cosmo_repulsion_energy": 2.12, 
			 "cosmo_total_nonelectrostatic_energy": 14.68, 
			 "SMD_solvation_energy": 5.1 
		},
		"coords": [
			{
				"x": 2.8301709596,
				"y": 0.0487226842,
				"z": 1.8553971505,
				"element": "C" 
			},
			{
				"x": 1.6069934522,
				"y": -0.7450973974,
				"z": 1.3832012759,
				"element": "C" 
			},
			{
				"x": 1.8696908117,
				"y": -1.3708939078,
				"z": 0.0109119231,
				"element": "C" 
			},
			{
				"x": 1.1861174683,
				"y": -1.8196308874,
				"z": 2.3920716226,
				"element": "C" 
			},
			{
				"x": 0.4812121702,
				"y": 0.1688357351,
				"z": 1.1181856639,
				"element": "O" 
			},
			{
				"x": -0.0448494278,
				"y": 0.9127590519,
				"z": 2.1256353674,
				"element": "C" 
			},
			{
				"x": 0.3398214884,
				"y": 0.9125123163,
				"z": 3.2860765931,
				"element": "O" 
			},
			{
				"x": -1.0857882118,
				"y": 1.6921266959,
				"z": 1.7013226522,
				"element": "N" 
			},
			{
				"x": -1.6951612752,
				"y": 1.839406589,
				"z": 0.3738955195,
				"element": "C" 
			},
			{
				"x": -2.3561824665,
				"y": 0.5424824187,
				"z": -0.1404219159,
				"element": "C" 
			},
			{
				"x": -3.0964815969,
				"y": 0.7320965128,
				"z": -1.5077125518,
				"element": "C" 
			},
			{
				"x": -2.7648303651,
				"y": -0.4160886138,
				"z": -2.4951938093,
				"element": "C" 
			},
			{
				"x": -1.4670643734,
				"y": -0.1561887119,
				"z": -3.3087856031,
				"element": "C" 
			},
			{
				"x": -0.5048205098,
				"y": 0.83090887,
				"z": -2.6228485858,
				"element": "C" 
			},
			{
				"x": -1.1653137866,
				"y": 2.1600973943,
				"z": -2.1243117263,
				"element": "C" 
			},
			{
				"x": -0.7336038015,
				"y": 2.4774382807,
				"z": -0.6683962777,
				"element": "C" 
			},
			{
				"x": -2.7090919642,
				"y": 2.0938281675,
				"z": -2.1440659219,
				"element": "C" 
			},
			{
				"x": -3.2774158812,
				"y": 2.3940026906,
				"z": -3.4643309379,
				"element": "N" 
			},
			{
				"x": 3.6920065023,
				"y": -0.6215403986,
				"z": 1.9393019624,
				"element": "H" 
			},
			{
				"x": 2.6443421638,
				"y": 0.5106969139,
				"z": 2.8247184924,
				"element": "H" 
			},
			{
				"x": 3.0784033636,
				"y": 0.830380155,
				"z": 1.1301142536,
				"element": "H" 
			},
			{
				"x": 0.9856104102,
				"y": -1.9060443042,
				"z": -0.3484063133,
				"element": "H" 
			},
			{
				"x": 2.6981693855,
				"y": -2.0824402979,
				"z": 0.0780623331,
				"element": "H" 
			},
			{
				"x": 2.1334092425,
				"y": -0.6039889316,
				"z": -0.7231208803,
				"element": "H" 
			},
			{
				"x": 0.9828617633,
				"y": -1.379641215,
				"z": 3.3680797399,
				"element": "H" 
			},
			{
				"x": 0.2879994519,
				"y": -2.3383101174,
				"z": 2.0413446018,
				"element": "H" 
			},
			{
				"x": 1.9866441975,
				"y": -2.5596789614,
				"z": 2.494480082,
				"element": "H" 
			},
			{
				"x": -1.4660304121,
				"y": 2.2387710277,
				"z": 2.4584861757,
				"element": "H" 
			},
			{
				"x": -2.5053775486,
				"y": 2.5549175686,
				"z": 0.5517556328,
				"element": "H" 
			},
			{
				"x": -1.5867117096,
				"y": -0.2276863594,
				"z": -0.2289877099,
				"element": "H" 
			},
			{
				"x": -3.0569707145,
				"y": 0.1853110991,
				"z": 0.6223038339,
				"element": "H" 
			},
			{
				"x": -4.1783238148,
				"y": 0.7268708744,
				"z": -1.3209487248,
				"element": "H" 
			},
			{
				"x": -3.6003362354,
				"y": -0.5622438436,
				"z": -3.1892044703,
				"element": "H" 
			},
			{
				"x": -2.6789916641,
				"y": -1.351924756,
				"z": -1.931075783,
				"element": "H" 
			},
			{
				"x": -1.7212550067,
				"y": 0.2229265728,
				"z": -4.306653061,
				"element": "H" 
			},
			{
				"x": -0.9439312882,
				"y": -1.1015519448,
				"z": -3.4918261391,
				"element": "H" 
			},
			{
				"x": 0.3171697093,
				"y": 1.0671262873,
				"z": -3.3083431623,
				"element": "H" 
			},
			{
				"x": -0.0403964237,
				"y": 0.3247241847,
				"z": -1.7710368716,
				"element": "H" 
			},
			{
				"x": -0.8571431956,
				"y": 2.9821621992,
				"z": -2.778233236,
				"element": "H" 
			},
			{
				"x": -0.7197549736,
				"y": 3.5613630197,
				"z": -0.5031139756,
				"element": "H" 
			},
			{
				"x": 0.2827116524,
				"y": 2.1171107386,
				"z": -0.4909993889,
				"element": "H" 
			},
			{
				"x": -3.0820056028,
				"y": 2.9003608649,
				"z": -1.500345523,
				"element": "H" 
			},
			{
				"x": -3.0225660484,
				"y": 1.6872964401,
				"z": -4.1470100613,
				"element": "H" 
			},
			{
				"x": -4.2938358942,
				"y": 2.381815295,
				"z": -3.4086722456,
				"element": "H" 
			}
		],
		 "valence_orbital": [ 
			{
				"type": "occ",
				"energy": -0.28394,
				"method": "rhf"
			},
			{
				"type": "occ",
				"energy": -0.2828,
				"method": "rhf"
			},
			{
				"type": "occ",
				"energy": -0.25635,
				"method": "rhf"
			},
			{
				"type": "occ",
				"energy": -0.24049,
				"method": "rhf"
			},
			{
				"type": "occ",
				"energy": -0.22632,
				"method": "rhf"
			},
			{
				"type": "unocc",
				"energy": 0.05859,
				"method": "rhf"
			},
			{
				"type": "unocc",
				"energy": 0.06263,
				"method": "rhf"
			},
			{
				"type": "unocc",
				"energy": 0.07014,
				"method": "rhf"
			},
			{
				"type": "unocc",
				"energy": 0.07487,
				"method": "rhf"
			},
			{
				"type": "unocc",
				"energy": 0.09827,
				"method": "rhf"
			}
		],
		"cosmo_sigma_profile": { 
			"-0.025": 0.0,
			"-0.024": 0.0,
			"-0.023": 0.0,
			"-0.022": 0.0,
			"-0.021": 0.0,
			"-0.02": 0.0,
			"-0.019": 0.0,
			"-0.018": 0.0,
			"-0.017": 0.0,
			"-0.016": 0.0,
			"-0.015": 0.0,
			"-0.014": 0.119807673633,
			"-0.013": 1.03879080177,
			"-0.012": 1.02071999682,
			"-0.011": 0.848158382586,
			"-0.01": 1.61186837144,
			"-0.009": 2.08458579638,
			"-0.008": 2.7453116417,
			"-0.007": 3.74829350951,
			"-0.006": 4.59228777686,
			"-0.005": 6.57676863413,
			"-0.004": 16.2684991126,
			"-0.003": 25.091030528,
			"-0.002": 38.5293320495,
			"-0.001": 48.0074428931,
			"0.0": 50.9023624685,
			"0.001": 43.4497514654,
			"0.002": 16.913239376,
			"0.003": 10.9069226959,
			"0.004": 3.58932229854,
			"0.005": 3.2378230545,
			"0.006": 3.17047285776,
			"0.007": 2.27667101321,
			"0.008": 2.80134820886,
			"0.009": 1.80666393847,
			"0.01": 1.99825434099,
			"0.011": 2.38833274777,
			"0.012": 2.29939291551,
			"0.013": 2.65537360879,
			"0.014": 3.74057569025,
			"0.015": 1.41830715779,
			"0.016": 0.707585917565,
			"0.017": 0.673025006689,
			"0.018": 0.479946625128,
			"0.019": 0.459989005519,
			"0.02": 0.428336153788,
			"0.021": 0.0,
			"0.022": 0.0,
			"0.023": 0.0,
			"0.024": 0.0,
			"0.025": 0.0
		}
	}
}
