{
	 "smiles": "CCC1=CC(=O)NC(=N1)C1=CC=NC=C1", 
	 "Tm": 446.15, 
	 "num_atms": 26, 
	 "gaussian": { 
		 "optdone": 1, 
		 "sigma_profile": "yes", 
		 "theory": "DFT", 
		 "functional": "B3LYP", 
		 "basiset": "6-31G**", 
		 "properties": { 
			 "R2extent": 4465.0587, 
			 "electric_dipole_moment_norm": 1.88546444411, 
			 "electric_quadrupole_moment_norm": 15.2501846949, 
			 "total_energy": -665.298760947, 
			 "HOMO_LUMO_gap": 0.16062, 
			 "cosmo_polarized_energy": -15.32, 
			 "cosmo_cavitation_energy": 30.45, 
			 "cosmo_dispersion_energy": -22.09, 
			 "cosmo_repulsion_energy": 1.73, 
			 "cosmo_total_nonelectrostatic_energy": 10.09, 
			 "SMD_solvation_energy": 3.64 
		},
		"coords": [
			{
				"x": -2.123425849,
				"y": -1.4589835265,
				"z": 0.7373520545,
				"element": "C" 
			},
			{
				"x": -2.2826363389,
				"y": 0.0261771987,
				"z": 0.3709254687,
				"element": "C" 
			},
			{
				"x": -1.0409702626,
				"y": 0.8300222613,
				"z": 0.6675005102,
				"element": "C" 
			},
			{
				"x": -1.010767844,
				"y": 1.8040684097,
				"z": 1.6283553713,
				"element": "C" 
			},
			{
				"x": 0.2050786006,
				"y": 2.5358505441,
				"z": 1.9085945602,
				"element": "C" 
			},
			{
				"x": 0.3899954993,
				"y": 3.410254363,
				"z": 2.7431961119,
				"element": "O" 
			},
			{
				"x": 1.2732720718,
				"y": 2.1195372911,
				"z": 1.0724647772,
				"element": "N" 
			},
			{
				"x": 1.1706194384,
				"y": 1.1514021923,
				"z": 0.1175730464,
				"element": "C" 
			},
			{
				"x": 0.0584903994,
				"y": 0.5004115349,
				"z": -0.0989936507,
				"element": "N" 
			},
			{
				"x": 2.3702283527,
				"y": 0.8347116732,
				"z": -0.7004606568,
				"element": "C" 
			},
			{
				"x": 3.4723191608,
				"y": 1.693176039,
				"z": -0.8050412572,
				"element": "C" 
			},
			{
				"x": 4.5544512183,
				"y": 1.3066694283,
				"z": -1.5967806012,
				"element": "C" 
			},
			{
				"x": 4.6097865778,
				"y": 0.1537387756,
				"z": -2.2719405422,
				"element": "N" 
			},
			{
				"x": 3.5471971864,
				"y": -0.6576929608,
				"z": -2.1740123592,
				"element": "C" 
			},
			{
				"x": 2.4155601817,
				"y": -0.3688685351,
				"z": -1.4156565238,
				"element": "C" 
			},
			{
				"x": -1.9589769097,
				"y": -1.5836154676,
				"z": 1.8124658012,
				"element": "H" 
			},
			{
				"x": -1.2705356156,
				"y": -1.8944489592,
				"z": 0.2098404495,
				"element": "H" 
			},
			{
				"x": -3.0211911293,
				"y": -2.021248485,
				"z": 0.4633997189,
				"element": "H" 
			},
			{
				"x": -2.4912151497,
				"y": 0.1104614159,
				"z": -0.7026786879,
				"element": "H" 
			},
			{
				"x": -3.1343030853,
				"y": 0.4594617943,
				"z": 0.9048740572,
				"element": "H" 
			},
			{
				"x": -1.8848320936,
				"y": 2.0531384074,
				"z": 2.2181426375,
				"element": "H" 
			},
			{
				"x": 2.1569150092,
				"y": 2.5759308587,
				"z": 1.262883311,
				"element": "H" 
			},
			{
				"x": 3.4992955905,
				"y": 2.6623274288,
				"z": -0.3160729395,
				"element": "H" 
			},
			{
				"x": 5.417029785,
				"y": 1.9632256261,
				"z": -1.6932145368,
				"element": "H" 
			},
			{
				"x": 3.6048103545,
				"y": -1.5904385627,
				"z": -2.7315539378,
				"element": "H" 
			},
			{
				"x": 1.5759048512,
				"y": -1.0516687459,
				"z": -1.3685621825,
				"element": "H" 
			}
		],
		 "valence_orbital": [ 
			{
				"type": "occ",
				"energy": -0.28831,
				"method": "rhf"
			},
			{
				"type": "occ",
				"energy": -0.27918,
				"method": "rhf"
			},
			{
				"type": "occ",
				"energy": -0.27002,
				"method": "rhf"
			},
			{
				"type": "occ",
				"energy": -0.26059,
				"method": "rhf"
			},
			{
				"type": "occ",
				"energy": -0.24054,
				"method": "rhf"
			},
			{
				"type": "unocc",
				"energy": -0.07992,
				"method": "rhf"
			},
			{
				"type": "unocc",
				"energy": -0.03036,
				"method": "rhf"
			},
			{
				"type": "unocc",
				"energy": -0.02173,
				"method": "rhf"
			},
			{
				"type": "unocc",
				"energy": 0.01632,
				"method": "rhf"
			},
			{
				"type": "unocc",
				"energy": 0.06297,
				"method": "rhf"
			}
		],
		"cosmo_sigma_profile": { 
			"-0.025": 0.0,
			"-0.024": 0.0,
			"-0.023": 0.0,
			"-0.022": 0.0,
			"-0.021": 0.0,
			"-0.02": 0.0,
			"-0.019": 0.0,
			"-0.018": 0.0,
			"-0.017": 0.120750829265,
			"-0.016": 1.19255321534,
			"-0.015": 1.22427149254,
			"-0.014": 1.3235835744,
			"-0.013": 0.951971761864,
			"-0.012": 1.13192399977,
			"-0.011": 1.49560231638,
			"-0.01": 0.943148084864,
			"-0.009": 1.96094723995,
			"-0.008": 1.69657160762,
			"-0.007": 7.36216912096,
			"-0.006": 11.8566760099,
			"-0.005": 10.0882825582,
			"-0.004": 14.5088424196,
			"-0.003": 19.9226776222,
			"-0.002": 22.4773817619,
			"-0.001": 25.1150672266,
			"0.0": 25.6969595164,
			"0.001": 29.327504285,
			"0.002": 12.5495456707,
			"0.003": 6.13482957624,
			"0.004": 6.19954534247,
			"0.005": 4.61961598074,
			"0.006": 2.75886460772,
			"0.007": 3.9530907813,
			"0.008": 3.94232276641,
			"0.009": 2.57114308079,
			"0.01": 2.59243877106,
			"0.011": 3.34533026627,
			"0.012": 2.6464071494,
			"0.013": 6.42881146252,
			"0.014": 5.14614918732,
			"0.015": 1.47181093629,
			"0.016": 0.544416570659,
			"0.017": 0.0645695303754,
			"0.018": 0.0,
			"0.019": 0.0,
			"0.02": 0.0,
			"0.021": 0.0,
			"0.022": 0.0,
			"0.023": 0.0,
			"0.024": 0.0,
			"0.025": 0.0
		}
	}
}
