{
	 "smiles": "N#CCC1=CC=C(CC#N)C=C1", 
	 "Tm": 368.65, 
	 "num_atms": 20, 
	 "gaussian": { 
		 "optdone": 1, 
		 "sigma_profile": "yes", 
		 "theory": "DFT", 
		 "functional": "B3LYP", 
		 "basiset": "6-31G**", 
		 "properties": { 
			 "R2extent": 2901.3548, 
			 "electric_dipole_moment_norm": 6.76864151584, 
			 "electric_quadrupole_moment_norm": 20.4742501176, 
			 "total_energy": -495.353229782, 
			 "HOMO_LUMO_gap": 0.23407, 
			 "cosmo_polarized_energy": -18.55, 
			 "cosmo_cavitation_energy": 26.82, 
			 "cosmo_dispersion_energy": -17.84, 
			 "cosmo_repulsion_energy": 1.45, 
			 "cosmo_total_nonelectrostatic_energy": 10.43, 
			 "SMD_solvation_energy": 7.46 
		},
		"coords": [
			{
				"x": -1.705859222,
				"y": -4.4070314975,
				"z": 0.4227705431,
				"element": "N" 
			},
			{
				"x": -1.1520103911,
				"y": -3.6620606795,
				"z": -0.2736703795,
				"element": "C" 
			},
			{
				"x": -0.4510191683,
				"y": -2.7146630623,
				"z": -1.1514787511,
				"element": "C" 
			},
			{
				"x": 0.0284656587,
				"y": -1.4702484604,
				"z": -0.4158511493,
				"element": "C" 
			},
			{
				"x": 1.2963195668,
				"y": -1.437598002,
				"z": 0.1733757869,
				"element": "C" 
			},
			{
				"x": 1.7348472724,
				"y": -0.2989469296,
				"z": 0.8475326821,
				"element": "C" 
			},
			{
				"x": 0.9139813952,
				"y": 0.8290077286,
				"z": 0.9454241415,
				"element": "C" 
			},
			{
				"x": 1.3926936279,
				"y": 2.0727160164,
				"z": 1.6827829959,
				"element": "C" 
			},
			{
				"x": 1.0495725299,
				"y": 2.0566618763,
				"z": 3.1116099448,
				"element": "C" 
			},
			{
				"x": 0.7767121891,
				"y": 2.040232993,
				"z": 4.2394690508,
				"element": "N" 
			},
			{
				"x": -0.3551928451,
				"y": 0.79513783,
				"z": 0.3591290205,
				"element": "C" 
			},
			{
				"x": -0.7937280485,
				"y": -0.343518409,
				"z": -0.3150086639,
				"element": "C" 
			},
			{
				"x": 0.395239684,
				"y": -3.2390888762,
				"z": -1.6094151327,
				"element": "H" 
			},
			{
				"x": -1.1308137749,
				"y": -2.4403158357,
				"z": -1.9660327073,
				"element": "H" 
			},
			{
				"x": 1.9473812131,
				"y": -2.304925352,
				"z": 0.1044103781,
				"element": "H" 
			},
			{
				"x": 2.723742893,
				"y": -0.2890552405,
				"z": 1.2979504507,
				"element": "H" 
			},
			{
				"x": 0.9546610293,
				"y": 2.9738060912,
				"z": 1.2388776123,
				"element": "H" 
			},
			{
				"x": 2.480347934,
				"y": 2.1746948429,
				"z": 1.5962358313,
				"element": "H" 
			},
			{
				"x": -1.0055332506,
				"y": 1.6631281111,
				"z": 0.4264927344,
				"element": "H" 
			},
			{
				"x": -1.781908293,
				"y": -0.3527331446,
				"z": -0.767004389,
				"element": "H" 
			}
		],
		 "valence_orbital": [ 
			{
				"type": "occ",
				"energy": -0.32814,
				"method": "rhf"
			},
			{
				"type": "occ",
				"energy": -0.32805,
				"method": "rhf"
			},
			{
				"type": "occ",
				"energy": -0.32597,
				"method": "rhf"
			},
			{
				"type": "occ",
				"energy": -0.27646,
				"method": "rhf"
			},
			{
				"type": "occ",
				"energy": -0.27051,
				"method": "rhf"
			},
			{
				"type": "unocc",
				"energy": -0.03644,
				"method": "rhf"
			},
			{
				"type": "unocc",
				"energy": -0.0317,
				"method": "rhf"
			},
			{
				"type": "unocc",
				"energy": 0.03226,
				"method": "rhf"
			},
			{
				"type": "unocc",
				"energy": 0.03227,
				"method": "rhf"
			},
			{
				"type": "unocc",
				"energy": 0.0341,
				"method": "rhf"
			}
		],
		"cosmo_sigma_profile": { 
			"-0.025": 0.0,
			"-0.024": 0.0,
			"-0.023": 0.0,
			"-0.022": 0.0,
			"-0.021": 0.0,
			"-0.02": 0.0,
			"-0.019": 0.0,
			"-0.018": 0.0,
			"-0.017": 0.0,
			"-0.016": 0.0,
			"-0.015": 0.0,
			"-0.014": 0.0,
			"-0.013": 0.0,
			"-0.012": 0.0,
			"-0.011": 0.0,
			"-0.01": 0.00620288288163,
			"-0.009": 8.41825445424,
			"-0.008": 14.8749777057,
			"-0.007": 15.8556672399,
			"-0.006": 17.2653991534,
			"-0.005": 16.1584083658,
			"-0.004": 10.886186719,
			"-0.003": 9.41069584586,
			"-0.002": 8.22607940611,
			"-0.001": 7.97187844832,
			"0.0": 8.46422709425,
			"0.001": 11.7612218919,
			"0.002": 11.1982811489,
			"0.003": 11.2939938979,
			"0.004": 13.9510184665,
			"0.005": 3.33561347857,
			"0.006": 6.56079378259,
			"0.007": 5.05734976055,
			"0.008": 6.15343094465,
			"0.009": 7.70447000412,
			"0.01": 6.32020047319,
			"0.011": 5.98298018197,
			"0.012": 5.03688738536,
			"0.013": 3.87189601872,
			"0.014": 0.587982571635,
			"0.015": 0.0,
			"0.016": 0.0,
			"0.017": 0.0,
			"0.018": 0.0,
			"0.019": 0.0,
			"0.02": 0.0,
			"0.021": 0.0,
			"0.022": 0.0,
			"0.023": 0.0,
			"0.024": 0.0,
			"0.025": 0.0
		}
	}
}
