{
	 "smiles": "OC(=O)C(F)(F)OC1=CC(C=O)=CC=C1", 
	 "Tm": 338.15, 
	 "num_atms": 21, 
	 "gaussian": { 
		 "optdone": 1, 
		 "sigma_profile": "yes", 
		 "theory": "DFT", 
		 "functional": "B3LYP", 
		 "basiset": "6-31G**", 
		 "properties": { 
			 "R2extent": 4211.3773, 
			 "electric_dipole_moment_norm": 3.98126375539, 
			 "electric_quadrupole_moment_norm": 15.2901469264, 
			 "total_energy": -847.130216831, 
			 "HOMO_LUMO_gap": 0.18849, 
			 "cosmo_polarized_energy": -14.06, 
			 "cosmo_cavitation_energy": 27.83, 
			 "cosmo_dispersion_energy": -19.4, 
			 "cosmo_repulsion_energy": 1.49, 
			 "cosmo_total_nonelectrostatic_energy": 9.91, 
			 "SMD_solvation_energy": 8.0 
		},
		"coords": [
			{
				"x": 4.2555340756,
				"y": -1.2470451754,
				"z": 0.9209780907,
				"element": "O" 
			},
			{
				"x": 3.0021107136,
				"y": -1.7120311998,
				"z": 0.8424455725,
				"element": "C" 
			},
			{
				"x": 2.2528601201,
				"y": -1.7742526,
				"z": 1.7798163042,
				"element": "O" 
			},
			{
				"x": 2.5822600396,
				"y": -2.2328201985,
				"z": -0.5648891376,
				"element": "C" 
			},
			{
				"x": 3.5021503833,
				"y": -1.7563088706,
				"z": -1.4953914869,
				"element": "F" 
			},
			{
				"x": 2.6856275538,
				"y": -3.5723882588,
				"z": -0.5745776918,
				"element": "F" 
			},
			{
				"x": 1.3133437443,
				"y": -1.9304047402,
				"z": -0.9401248431,
				"element": "O" 
			},
			{
				"x": 0.9277286338,
				"y": -0.5806379052,
				"z": -0.9510973143,
				"element": "C" 
			},
			{
				"x": 0.1303436547,
				"y": -0.1091805751,
				"z": 0.0863973447,
				"element": "C" 
			},
			{
				"x": -0.3263417992,
				"y": 1.212835802,
				"z": 0.0404182572,
				"element": "C" 
			},
			{
				"x": -1.1762436015,
				"y": 1.7325134863,
				"z": 1.1413661447,
				"element": "C" 
			},
			{
				"x": -1.6200547237,
				"y": 2.8628865968,
				"z": 1.1849890154,
				"element": "O" 
			},
			{
				"x": 0.0172205601,
				"y": 2.0427985816,
				"z": -1.0373991602,
				"element": "C" 
			},
			{
				"x": 0.8136986073,
				"y": 1.5505892199,
				"z": -2.0663996971,
				"element": "C" 
			},
			{
				"x": 1.2732586466,
				"y": 0.2296230321,
				"z": -2.0314788439,
				"element": "C" 
			},
			{
				"x": 4.652653558,
				"y": -1.2496243587,
				"z": 0.0346752659,
				"element": "H" 
			},
			{
				"x": -0.1104395455,
				"y": -0.7645276017,
				"z": 0.9170407908,
				"element": "H" 
			},
			{
				"x": -1.3884632973,
				"y": 0.9996878974,
				"z": 1.9498758775,
				"element": "H" 
			},
			{
				"x": -0.3543573573,
				"y": 3.0622068846,
				"z": -1.0432808796,
				"element": "H" 
			},
			{
				"x": 1.078385951,
				"y": 2.1864019077,
				"z": -2.9055498941,
				"element": "H" 
			},
			{
				"x": 1.8824240827,
				"y": -0.1769219245,
				"z": -2.8307137152,
				"element": "H" 
			}
		],
		 "valence_orbital": [ 
			{
				"type": "occ",
				"energy": -0.34543,
				"method": "rhf"
			},
			{
				"type": "occ",
				"energy": -0.30509,
				"method": "rhf"
			},
			{
				"type": "occ",
				"energy": -0.2829,
				"method": "rhf"
			},
			{
				"type": "occ",
				"energy": -0.27486,
				"method": "rhf"
			},
			{
				"type": "occ",
				"energy": -0.26511,
				"method": "rhf"
			},
			{
				"type": "unocc",
				"energy": -0.07662,
				"method": "rhf"
			},
			{
				"type": "unocc",
				"energy": -0.03927,
				"method": "rhf"
			},
			{
				"type": "unocc",
				"energy": -0.02743,
				"method": "rhf"
			},
			{
				"type": "unocc",
				"energy": 0.02409,
				"method": "rhf"
			},
			{
				"type": "unocc",
				"energy": 0.06545,
				"method": "rhf"
			}
		],
		"cosmo_sigma_profile": { 
			"-0.025": 0.0,
			"-0.024": 0.0,
			"-0.023": 0.0,
			"-0.022": 0.0,
			"-0.021": 0.0,
			"-0.02": 0.0,
			"-0.019": 0.200879283784,
			"-0.018": 0.452648253139,
			"-0.017": 0.814098985028,
			"-0.016": 0.692927530261,
			"-0.015": 0.837466818529,
			"-0.014": 1.48682263711,
			"-0.013": 0.779728038626,
			"-0.012": 0.873482075044,
			"-0.011": 0.855902508441,
			"-0.01": 1.74765727669,
			"-0.009": 2.78206963128,
			"-0.008": 5.23145525273,
			"-0.007": 10.1572506611,
			"-0.006": 11.1823547281,
			"-0.005": 11.0869229123,
			"-0.004": 10.3032093853,
			"-0.003": 10.6834127967,
			"-0.002": 11.0604888023,
			"-0.001": 14.3093331189,
			"0.0": 19.4266591866,
			"0.001": 23.3906335197,
			"0.002": 25.6650483042,
			"0.003": 9.60678674983,
			"0.004": 6.08440136295,
			"0.005": 6.00207561246,
			"0.006": 6.39866970883,
			"0.007": 6.22282719435,
			"0.008": 6.02967596136,
			"0.009": 6.01502082135,
			"0.01": 5.96816798132,
			"0.011": 5.42698460309,
			"0.012": 1.69916994168,
			"0.013": 0.285975404753,
			"0.014": 0.0,
			"0.015": 0.0,
			"0.016": 0.0,
			"0.017": 0.0,
			"0.018": 0.0,
			"0.019": 0.0,
			"0.02": 0.0,
			"0.021": 0.0,
			"0.022": 0.0,
			"0.023": 0.0,
			"0.024": 0.0,
			"0.025": 0.0
		}
	}
}
