{
	 "smiles": "CC(=O)NC1=C(C)C(Cl)=CC=C1", 
	 "Tm": 429.15, 
	 "num_atms": 22, 
	 "gaussian": { 
		 "optdone": 1, 
		 "sigma_profile": "yes", 
		 "theory": "DFT", 
		 "functional": "B3LYP", 
		 "basiset": "6-31G**", 
		 "properties": { 
			 "R2extent": 2816.7059, 
			 "electric_dipole_moment_norm": 2.80466036981, 
			 "electric_quadrupole_moment_norm": 13.6034566916, 
			 "total_energy": -939.174270447, 
			 "HOMO_LUMO_gap": 0.21752, 
			 "cosmo_polarized_energy": -10.89, 
			 "cosmo_cavitation_energy": 27.31, 
			 "cosmo_dispersion_energy": -19.42, 
			 "cosmo_repulsion_energy": 1.56, 
			 "cosmo_total_nonelectrostatic_energy": 9.45, 
			 "SMD_solvation_energy": 5.66 
		},
		"coords": [
			{
				"x": -0.2296038783,
				"y": -2.3587648843,
				"z": -1.233390862,
				"element": "C" 
			},
			{
				"x": 1.0850431112,
				"y": -1.9055240862,
				"z": -0.6238399175,
				"element": "C" 
			},
			{
				"x": 2.0688271948,
				"y": -2.6256518057,
				"z": -0.5519415919,
				"element": "O" 
			},
			{
				"x": 1.1242699024,
				"y": -0.6125957364,
				"z": -0.1293820901,
				"element": "N" 
			},
			{
				"x": 0.123108007,
				"y": 0.4004999057,
				"z": -0.2571813545,
				"element": "C" 
			},
			{
				"x": -0.9350696586,
				"y": 0.4827101845,
				"z": 0.6748893559,
				"element": "C" 
			},
			{
				"x": -1.05467276,
				"y": -0.4694437249,
				"z": 1.835994908,
				"element": "C" 
			},
			{
				"x": -1.8713369936,
				"y": 1.5106535348,
				"z": 0.4723757144,
				"element": "C" 
			},
			{
				"x": -3.2351729074,
				"y": 1.6691177259,
				"z": 1.5784142085,
				"element": "Cl" 
			},
			{
				"x": -1.7728352099,
				"y": 2.4310674773,
				"z": -0.5686428404,
				"element": "C" 
			},
			{
				"x": -0.7053155644,
				"y": 2.3370641272,
				"z": -1.4594202758,
				"element": "C" 
			},
			{
				"x": 0.2346625829,
				"y": 1.3223217461,
				"z": -1.3053421793,
				"element": "C" 
			},
			{
				"x": -1.0205750586,
				"y": -2.3961561029,
				"z": -0.4776002994,
				"element": "H" 
			},
			{
				"x": -0.5625416795,
				"y": -1.6759061286,
				"z": -2.0206820211,
				"element": "H" 
			},
			{
				"x": -0.0821857138,
				"y": -3.3559428529,
				"z": -1.646843972,
				"element": "H" 
			},
			{
				"x": 2.0464727652,
				"y": -0.3391421357,
				"z": 0.188925595,
				"element": "H" 
			},
			{
				"x": -0.1787810304,
				"y": -1.1146740184,
				"z": 1.9013065129,
				"element": "H" 
			},
			{
				"x": -1.946955143,
				"y": -1.098878363,
				"z": 1.7419314009,
				"element": "H" 
			},
			{
				"x": -1.1583055727,
				"y": 0.0789921423,
				"z": 2.777178201,
				"element": "H" 
			},
			{
				"x": -2.5230792404,
				"y": 3.206786563,
				"z": -0.672781526,
				"element": "H" 
			},
			{
				"x": -0.615107837,
				"y": 3.0495284816,
				"z": -2.2733381436,
				"element": "H" 
			},
			{
				"x": 1.066254684,
				"y": 1.2262379507,
				"z": -1.996428823,
				"element": "H" 
			}
		],
		 "valence_orbital": [ 
			{
				"type": "occ",
				"energy": -0.31933,
				"method": "rhf"
			},
			{
				"type": "occ",
				"energy": -0.27423,
				"method": "rhf"
			},
			{
				"type": "occ",
				"energy": -0.25875,
				"method": "rhf"
			},
			{
				"type": "occ",
				"energy": -0.255,
				"method": "rhf"
			},
			{
				"type": "occ",
				"energy": -0.24537,
				"method": "rhf"
			},
			{
				"type": "unocc",
				"energy": -0.02785,
				"method": "rhf"
			},
			{
				"type": "unocc",
				"energy": -0.02329,
				"method": "rhf"
			},
			{
				"type": "unocc",
				"energy": 0.0214,
				"method": "rhf"
			},
			{
				"type": "unocc",
				"energy": 0.02726,
				"method": "rhf"
			},
			{
				"type": "unocc",
				"energy": 0.08831,
				"method": "rhf"
			}
		],
		"cosmo_sigma_profile": { 
			"-0.025": 0.0,
			"-0.024": 0.0,
			"-0.023": 0.0,
			"-0.022": 0.0,
			"-0.021": 0.0,
			"-0.02": 0.0,
			"-0.019": 0.0,
			"-0.018": 0.0,
			"-0.017": 0.0,
			"-0.016": 0.0,
			"-0.015": 0.0,
			"-0.014": 0.652992944468,
			"-0.013": 1.10925724515,
			"-0.012": 0.733853857103,
			"-0.011": 0.874378077457,
			"-0.01": 0.902644776432,
			"-0.009": 0.879832922536,
			"-0.008": 1.30650500094,
			"-0.007": 4.39531673992,
			"-0.006": 7.39828539869,
			"-0.005": 14.7936539308,
			"-0.004": 18.5834725626,
			"-0.003": 19.6758307932,
			"-0.002": 19.5402161617,
			"-0.001": 23.2182075717,
			"0.0": 19.1714570029,
			"0.001": 13.9823544988,
			"0.002": 15.2867976701,
			"0.003": 16.5887365883,
			"0.004": 12.661285987,
			"0.005": 6.87352882448,
			"0.006": 1.02295045655,
			"0.007": 1.2761708917,
			"0.008": 1.27418366076,
			"0.009": 0.860334330166,
			"0.01": 2.010596689,
			"0.011": 1.42727794846,
			"0.012": 1.88773887732,
			"0.013": 4.39806364869,
			"0.014": 5.05988243703,
			"0.015": 0.992814653146,
			"0.016": 0.0,
			"0.017": 0.0,
			"0.018": 0.0,
			"0.019": 0.0,
			"0.02": 0.0,
			"0.021": 0.0,
			"0.022": 0.0,
			"0.023": 0.0,
			"0.024": 0.0,
			"0.025": 0.0
		}
	}
}
