{
	 "smiles": "OC(=O)C1=CC2=C(O1)C=CC(Br)=C2", 
	 "Tm": 531.15, 
	 "num_atms": 18, 
	 "gaussian": { 
		 "optdone": 1, 
		 "sigma_profile": "yes", 
		 "theory": "DFT", 
		 "functional": "B3LYP", 
		 "basiset": "6-31G**", 
		 "properties": { 
			 "R2extent": 5210.2731, 
			 "electric_dipole_moment_norm": 3.54824773092, 
			 "electric_quadrupole_moment_norm": 22.503886136, 
			 "total_energy": -3143.03603071, 
			 "HOMO_LUMO_gap": 0.17514, 
			 "cosmo_polarized_energy": -16.49, 
			 "cosmo_cavitation_energy": 26.02, 
			 "cosmo_dispersion_energy": -19.8, 
			 "cosmo_repulsion_energy": 1.56, 
			 "cosmo_total_nonelectrostatic_energy": 7.77, 
			 "SMD_solvation_energy": 4.89 
		},
		"coords": [
			{
				"x": -0.4439824078,
				"y": -2.0508248252,
				"z": -3.7126798265,
				"element": "O" 
			},
			{
				"x": -1.0170579669,
				"y": -1.9383216353,
				"z": -2.4848966222,
				"element": "C" 
			},
			{
				"x": -1.9188862502,
				"y": -2.6620039051,
				"z": -2.1464000092,
				"element": "O" 
			},
			{
				"x": -0.4655075246,
				"y": -0.8587009336,
				"z": -1.6321900899,
				"element": "C" 
			},
			{
				"x": 0.3148791995,
				"y": 0.2300346401,
				"z": -1.9070367638,
				"element": "C" 
			},
			{
				"x": 0.4707656195,
				"y": 0.9373229913,
				"z": -0.6665954404,
				"element": "C" 
			},
			{
				"x": -0.2563928141,
				"y": 0.1872841547,
				"z": 0.2785171018,
				"element": "C" 
			},
			{
				"x": -0.8274467747,
				"y": -0.9001483496,
				"z": -0.3103447297,
				"element": "O" 
			},
			{
				"x": -0.3557570818,
				"y": 0.5381263518,
				"z": 1.6211916033,
				"element": "C" 
			},
			{
				"x": 0.3062052922,
				"y": 1.6967482793,
				"z": 2.0142358076,
				"element": "C" 
			},
			{
				"x": 1.0354151327,
				"y": 2.4594394918,
				"z": 1.0800467322,
				"element": "C" 
			},
			{
				"x": 1.92040436,
				"y": 4.0400400643,
				"z": 1.69217472,
				"element": "Br" 
			},
			{
				"x": 1.1339968763,
				"y": 2.1066188436,
				"z": -0.2579455693,
				"element": "C" 
			},
			{
				"x": 0.3594928208,
				"y": -1.514381868,
				"z": -3.7658516389,
				"element": "H" 
			},
			{
				"x": 0.7073657386,
				"y": 0.524007016,
				"z": -2.8711321428,
				"element": "H" 
			},
			{
				"x": -0.9235269979,
				"y": -0.0618711038,
				"z": 2.3230852053,
				"element": "H" 
			},
			{
				"x": 0.2638266814,
				"y": 2.0221405658,
				"z": 3.0468889716,
				"element": "H" 
			},
			{
				"x": 1.702306097,
				"y": 2.7123902219,
				"z": -0.953867309,
				"element": "H" 
			}
		],
		 "valence_orbital": [ 
			{
				"type": "occ",
				"energy": -0.31544,
				"method": "rhf"
			},
			{
				"type": "occ",
				"energy": -0.29751,
				"method": "rhf"
			},
			{
				"type": "occ",
				"energy": -0.28782,
				"method": "rhf"
			},
			{
				"type": "occ",
				"energy": -0.25471,
				"method": "rhf"
			},
			{
				"type": "occ",
				"energy": -0.24978,
				"method": "rhf"
			},
			{
				"type": "unocc",
				"energy": -0.07464,
				"method": "rhf"
			},
			{
				"type": "unocc",
				"energy": -0.01947,
				"method": "rhf"
			},
			{
				"type": "unocc",
				"energy": -0.00509,
				"method": "rhf"
			},
			{
				"type": "unocc",
				"energy": -0.0032,
				"method": "rhf"
			},
			{
				"type": "unocc",
				"energy": 0.04597,
				"method": "rhf"
			}
		],
		"cosmo_sigma_profile": { 
			"-0.025": 0.0,
			"-0.024": 0.0,
			"-0.023": 0.0,
			"-0.022": 0.0,
			"-0.021": 0.0,
			"-0.02": 0.0,
			"-0.019": 0.592811068246,
			"-0.018": 1.69707066134,
			"-0.017": 0.950043799557,
			"-0.016": 1.13291553241,
			"-0.015": 1.17632835746,
			"-0.014": 1.19024476997,
			"-0.013": 1.08256730944,
			"-0.012": 1.30829309631,
			"-0.011": 1.15644198944,
			"-0.01": 1.76941772077,
			"-0.009": 2.15200906959,
			"-0.008": 7.20387264333,
			"-0.007": 8.83708646629,
			"-0.006": 6.6738329605,
			"-0.005": 7.61421865835,
			"-0.004": 9.79878302806,
			"-0.003": 8.32383186789,
			"-0.002": 12.7174087732,
			"-0.001": 14.3543856958,
			"0.0": 16.502083463,
			"0.001": 22.2663583957,
			"0.002": 21.7282192636,
			"0.003": 10.0561691038,
			"0.004": 13.8731106561,
			"0.005": 8.15642953485,
			"0.006": 1.93259472335,
			"0.007": 4.01128303107,
			"0.008": 3.8694049021,
			"0.009": 4.77570920224,
			"0.01": 5.85296311357,
			"0.011": 6.72642519012,
			"0.012": 3.63640171815,
			"0.013": 0.396436120464,
			"0.014": 0.0,
			"0.015": 0.0,
			"0.016": 0.0,
			"0.017": 0.0,
			"0.018": 0.0,
			"0.019": 0.0,
			"0.02": 0.0,
			"0.021": 0.0,
			"0.022": 0.0,
			"0.023": 0.0,
			"0.024": 0.0,
			"0.025": 0.0
		}
	}
}
