{
	 "smiles": "ClC1=CC(C#N)=C(OC2CCOC2)C=C1", 
	 "Tm": 402.15, 
	 "num_atms": 25, 
	 "gaussian": { 
		 "optdone": 1, 
		 "sigma_profile": "yes", 
		 "theory": "DFT", 
		 "functional": "B3LYP", 
		 "basiset": "6-31G**", 
		 "properties": { 
			 "R2extent": 5452.2967, 
			 "electric_dipole_moment_norm": 2.5396904083, 
			 "electric_quadrupole_moment_norm": 10.7347404799, 
			 "total_energy": -1090.54218859, 
			 "HOMO_LUMO_gap": 0.18134, 
			 "cosmo_polarized_energy": -10.64, 
			 "cosmo_cavitation_energy": 30.9, 
			 "cosmo_dispersion_energy": -22.2, 
			 "cosmo_repulsion_energy": 1.75, 
			 "cosmo_total_nonelectrostatic_energy": 10.44, 
			 "SMD_solvation_energy": 5.96 
		},
		"coords": [
			{
				"x": 2.6078716712,
				"y": 4.3873616913,
				"z": 0.8479672805,
				"element": "Cl" 
			},
			{
				"x": 1.4792204566,
				"y": 3.0485040352,
				"z": 0.9390951376,
				"element": "C" 
			},
			{
				"x": 1.4013469273,
				"y": 2.2887896829,
				"z": 2.0916864401,
				"element": "C" 
			},
			{
				"x": 0.4971128754,
				"y": 1.2041518067,
				"z": 2.1835101416,
				"element": "C" 
			},
			{
				"x": 0.503379543,
				"y": 0.4989952276,
				"z": 3.4298291273,
				"element": "C" 
			},
			{
				"x": 0.5639438675,
				"y": -0.027138279,
				"z": 4.4668017569,
				"element": "N" 
			},
			{
				"x": -0.3347245221,
				"y": 0.8950575894,
				"z": 1.0787094388,
				"element": "C" 
			},
			{
				"x": -1.2671945162,
				"y": -0.0795230903,
				"z": 0.9752018279,
				"element": "O" 
			},
			{
				"x": -1.4826631974,
				"y": -1.1068249027,
				"z": 1.9710177373,
				"element": "C" 
			},
			{
				"x": -0.4020924948,
				"y": -2.19669946,
				"z": 1.9091939276,
				"element": "C" 
			},
			{
				"x": -0.9803289603,
				"y": -3.153162092,
				"z": 0.8629129602,
				"element": "C" 
			},
			{
				"x": -2.3787302803,
				"y": -3.1684213351,
				"z": 1.1367978003,
				"element": "O" 
			},
			{
				"x": -2.7637866154,
				"y": -1.856712578,
				"z": 1.5390229137,
				"element": "C" 
			},
			{
				"x": -0.2263347663,
				"y": 1.6912633348,
				"z": -0.0773720985,
				"element": "C" 
			},
			{
				"x": 0.6593923376,
				"y": 2.7520129514,
				"z": -0.1564624748,
				"element": "C" 
			},
			{
				"x": 2.0325790325,
				"y": 2.5151551519,
				"z": 2.9428555407,
				"element": "H" 
			},
			{
				"x": -1.5841542,
				"y": -0.6436745822,
				"z": 2.9523817156,
				"element": "H" 
			},
			{
				"x": -0.3333153595,
				"y": -2.6878430364,
				"z": 2.8845623216,
				"element": "H" 
			},
			{
				"x": 0.5842248534,
				"y": -1.8009662106,
				"z": 1.6563392343,
				"element": "H" 
			},
			{
				"x": -0.779652686,
				"y": -2.7860645405,
				"z": -0.1563139075,
				"element": "H" 
			},
			{
				"x": -0.6103077859,
				"y": -4.178359542,
				"z": 0.9443385589,
				"element": "H" 
			},
			{
				"x": -3.4817146545,
				"y": -1.950463051,
				"z": 2.3600302769,
				"element": "H" 
			},
			{
				"x": -3.238430851,
				"y": -1.3056493204,
				"z": 0.7157696364,
				"element": "H" 
			},
			{
				"x": -0.8700072592,
				"y": 1.4424218381,
				"z": -0.913854092,
				"element": "H" 
			},
			{
				"x": 0.7210665844,
				"y": 3.3487887111,
				"z": -1.0597212015,
				"element": "H" 
			}
		],
		 "valence_orbital": [ 
			{
				"type": "occ",
				"energy": -0.31834,
				"method": "rhf"
			},
			{
				"type": "occ",
				"energy": -0.31531,
				"method": "rhf"
			},
			{
				"type": "occ",
				"energy": -0.28131,
				"method": "rhf"
			},
			{
				"type": "occ",
				"energy": -0.25938,
				"method": "rhf"
			},
			{
				"type": "occ",
				"energy": -0.24217,
				"method": "rhf"
			},
			{
				"type": "unocc",
				"energy": -0.06083,
				"method": "rhf"
			},
			{
				"type": "unocc",
				"energy": -0.02735,
				"method": "rhf"
			},
			{
				"type": "unocc",
				"energy": 0.00763,
				"method": "rhf"
			},
			{
				"type": "unocc",
				"energy": 0.02722,
				"method": "rhf"
			},
			{
				"type": "unocc",
				"energy": 0.06362,
				"method": "rhf"
			}
		],
		"cosmo_sigma_profile": { 
			"-0.025": 0.0,
			"-0.024": 0.0,
			"-0.023": 0.0,
			"-0.022": 0.0,
			"-0.021": 0.0,
			"-0.02": 0.0,
			"-0.019": 0.0,
			"-0.018": 0.0,
			"-0.017": 0.0,
			"-0.016": 0.0,
			"-0.015": 0.0,
			"-0.014": 0.0,
			"-0.013": 0.0,
			"-0.012": 0.0,
			"-0.011": 0.0,
			"-0.01": 0.0520459378582,
			"-0.009": 1.62736753874,
			"-0.008": 4.2075814339,
			"-0.007": 7.8597711565,
			"-0.006": 12.6896602525,
			"-0.005": 16.8117473976,
			"-0.004": 19.9554931825,
			"-0.003": 21.6774799776,
			"-0.002": 21.1182189406,
			"-0.001": 19.8154071016,
			"0.0": 21.7543482095,
			"0.001": 22.7302114225,
			"0.002": 14.9098815027,
			"0.003": 12.0534181956,
			"0.004": 14.9144816696,
			"0.005": 6.65315282743,
			"0.006": 3.85760076123,
			"0.007": 4.02321600074,
			"0.008": 3.62968459996,
			"0.009": 3.57752952659,
			"0.01": 3.70710933513,
			"0.011": 4.12321941623,
			"0.012": 3.46205796274,
			"0.013": 3.32627132295,
			"0.014": 0.572228563768,
			"0.015": 0.0,
			"0.016": 0.0,
			"0.017": 0.0,
			"0.018": 0.0,
			"0.019": 0.0,
			"0.02": 0.0,
			"0.021": 0.0,
			"0.022": 0.0,
			"0.023": 0.0,
			"0.024": 0.0,
			"0.025": 0.0
		}
	}
}
