{
	 "smiles": "COCCC(NC(C)=O)C(O)=O", 
	 "Tm": 426.15, 
	 "num_atms": 25, 
	 "gaussian": { 
		 "optdone": 1, 
		 "sigma_profile": "yes", 
		 "theory": "DFT", 
		 "functional": "B3LYP", 
		 "basiset": "6-31G**", 
		 "properties": { 
			 "R2extent": 3360.0873, 
			 "electric_dipole_moment_norm": 3.83192029275, 
			 "electric_quadrupole_moment_norm": 15.4390588952, 
			 "total_energy": -630.241163886, 
			 "HOMO_LUMO_gap": 0.23545, 
			 "cosmo_polarized_energy": -17.73, 
			 "cosmo_cavitation_energy": 28.89, 
			 "cosmo_dispersion_energy": -20.26, 
			 "cosmo_repulsion_energy": 1.68, 
			 "cosmo_total_nonelectrostatic_energy": 10.31, 
			 "SMD_solvation_energy": 6.96 
		},
		"coords": [
			{
				"x": 2.7954838156,
				"y": -1.4105438518,
				"z": -1.427467609,
				"element": "C" 
			},
			{
				"x": 2.2081655386,
				"y": -0.5002758556,
				"z": -2.3361941678,
				"element": "O" 
			},
			{
				"x": 1.7888512717,
				"y": 0.7225268777,
				"z": -1.7515493053,
				"element": "C" 
			},
			{
				"x": 0.4483835732,
				"y": 0.5832706938,
				"z": -1.0164635714,
				"element": "C" 
			},
			{
				"x": -0.0467931935,
				"y": 1.8885519117,
				"z": -0.339587654,
				"element": "C" 
			},
			{
				"x": -1.1926860985,
				"y": 1.6543124398,
				"z": 0.5261581535,
				"element": "N" 
			},
			{
				"x": -1.0244264708,
				"y": 1.2267072812,
				"z": 1.8144995173,
				"element": "C" 
			},
			{
				"x": -2.3032054615,
				"y": 1.0231909303,
				"z": 2.6111381967,
				"element": "C" 
			},
			{
				"x": 0.0854793768,
				"y": 1.0248706336,
				"z": 2.2947705021,
				"element": "O" 
			},
			{
				"x": -0.3495849693,
				"y": 2.9520100368,
				"z": -1.3830286153,
				"element": "C" 
			},
			{
				"x": -1.6761773217,
				"y": 3.0701650405,
				"z": -1.6472611292,
				"element": "O" 
			},
			{
				"x": 0.4892583101,
				"y": 3.599467714,
				"z": -1.9666287157,
				"element": "O" 
			},
			{
				"x": 3.1457308051,
				"y": -2.263932939,
				"z": -2.0136526363,
				"element": "H" 
			},
			{
				"x": 3.6550824838,
				"y": -0.9630518037,
				"z": -0.9044442124,
				"element": "H" 
			},
			{
				"x": 2.0872905131,
				"y": -1.7777584312,
				"z": -0.6702405425,
				"element": "H" 
			},
			{
				"x": 1.7048121434,
				"y": 1.4377337878,
				"z": -2.5735365826,
				"element": "H" 
			},
			{
				"x": 2.5574707503,
				"y": 1.105990392,
				"z": -1.060380545,
				"element": "H" 
			},
			{
				"x": 0.5432213184,
				"y": -0.1478532398,
				"z": -0.2085421464,
				"element": "H" 
			},
			{
				"x": -0.3131739618,
				"y": 0.21229691,
				"z": -1.7124607049,
				"element": "H" 
			},
			{
				"x": 0.7624948298,
				"y": 2.2746136632,
				"z": 0.287570912,
				"element": "H" 
			},
			{
				"x": -2.1153824658,
				"y": 1.7892956379,
				"z": 0.1426309707,
				"element": "H" 
			},
			{
				"x": -3.2139919027,
				"y": 1.2549826321,
				"z": 2.0522820146,
				"element": "H" 
			},
			{
				"x": -2.2624579815,
				"y": 1.6530162146,
				"z": 3.503892863,
				"element": "H" 
			},
			{
				"x": -2.3463033109,
				"y": -0.0160386574,
				"z": 2.948368392,
				"element": "H" 
			},
			{
				"x": -1.7580415919,
				"y": 3.7436519813,
				"z": -2.3435733843,
				"element": "H" 
			}
		],
		 "valence_orbital": [ 
			{
				"type": "occ",
				"energy": -0.30685,
				"method": "rhf"
			},
			{
				"type": "occ",
				"energy": -0.29443,
				"method": "rhf"
			},
			{
				"type": "occ",
				"energy": -0.26355,
				"method": "rhf"
			},
			{
				"type": "occ",
				"energy": -0.25023,
				"method": "rhf"
			},
			{
				"type": "occ",
				"energy": -0.24485,
				"method": "rhf"
			},
			{
				"type": "unocc",
				"energy": -0.0094,
				"method": "rhf"
			},
			{
				"type": "unocc",
				"energy": 0.02618,
				"method": "rhf"
			},
			{
				"type": "unocc",
				"energy": 0.05581,
				"method": "rhf"
			},
			{
				"type": "unocc",
				"energy": 0.08627,
				"method": "rhf"
			},
			{
				"type": "unocc",
				"energy": 0.09918,
				"method": "rhf"
			}
		],
		"cosmo_sigma_profile": { 
			"-0.025": 0.0,
			"-0.024": 0.0,
			"-0.023": 0.0,
			"-0.022": 0.0,
			"-0.021": 0.0,
			"-0.02": 0.0,
			"-0.019": 0.521560898085,
			"-0.018": 1.02230013009,
			"-0.017": 1.12337201819,
			"-0.016": 0.344783685806,
			"-0.015": 0.673965196918,
			"-0.014": 0.192878768264,
			"-0.013": 1.11149188765,
			"-0.012": 2.85517678301,
			"-0.011": 1.67112300065,
			"-0.01": 1.48231957787,
			"-0.009": 1.67357281863,
			"-0.008": 2.27883588013,
			"-0.007": 2.38868754697,
			"-0.006": 5.35214262327,
			"-0.005": 16.564978168,
			"-0.004": 23.370805826,
			"-0.003": 25.3942858209,
			"-0.002": 26.4597188894,
			"-0.001": 20.3057965202,
			"0.0": 13.5121708576,
			"0.001": 8.97986364688,
			"0.002": 6.45329582775,
			"0.003": 6.47094086086,
			"0.004": 5.92945449553,
			"0.005": 5.59591106156,
			"0.006": 4.3292564925,
			"0.007": 3.95820980699,
			"0.008": 3.58122862336,
			"0.009": 4.72698658008,
			"0.01": 4.39709492173,
			"0.011": 6.45956507197,
			"0.012": 5.54150684122,
			"0.013": 3.67633627256,
			"0.014": 5.54605182269,
			"0.015": 1.69706422947,
			"0.016": 0.0833315752452,
			"0.017": 0.0,
			"0.018": 0.0,
			"0.019": 0.0,
			"0.02": 0.0,
			"0.021": 0.0,
			"0.022": 0.0,
			"0.023": 0.0,
			"0.024": 0.0,
			"0.025": 0.0
		}
	}
}
