{
	 "smiles": "CC(CC(O)=O)C1CCC2C3C=CC4CC(O)CCC4(C)C3CC(O)C12C", 
	 "Tm": 454.15, 
	 "num_atms": 63, 
	 "gaussian": { 
		 "optdone": 1, 
		 "sigma_profile": "yes", 
		 "theory": "DFT", 
		 "functional": "B3LYP", 
		 "basiset": "6-31G**", 
		 "properties": { 
			 "R2extent": 13719.7472, 
			 "electric_dipole_moment_norm": 1.55408690555, 
			 "electric_quadrupole_moment_norm": 15.7732631738, 
			 "total_energy": -1199.03856716, 
			 "HOMO_LUMO_gap": 0.23898, 
			 "cosmo_polarized_energy": -19.35, 
			 "cosmo_cavitation_energy": 54.04, 
			 "cosmo_dispersion_energy": -36.91, 
			 "cosmo_repulsion_energy": 2.69, 
			 "cosmo_total_nonelectrostatic_energy": 19.82, 
			 "SMD_solvation_energy": 8.4 
		},
		"coords": [
			{
				"x": -5.1470084659,
				"y": 1.0863637618,
				"z": -1.5561186928,
				"element": "C" 
			},
			{
				"x": -3.897679027,
				"y": 1.9550104137,
				"z": -1.3346026534,
				"element": "C" 
			},
			{
				"x": -4.3009152349,
				"y": 3.4495352743,
				"z": -1.1437875325,
				"element": "C" 
			},
			{
				"x": -5.045187689,
				"y": 3.7261474415,
				"z": 0.1433030183,
				"element": "C" 
			},
			{
				"x": -4.2536611558,
				"y": 4.3183997736,
				"z": 1.0761715549,
				"element": "O" 
			},
			{
				"x": -6.2051716217,
				"y": 3.4522206192,
				"z": 0.3665765984,
				"element": "O" 
			},
			{
				"x": -2.940409779,
				"y": 1.4747082034,
				"z": -0.2011760381,
				"element": "C" 
			},
			{
				"x": -3.5894373213,
				"y": 0.7885151467,
				"z": 1.0164260185,
				"element": "C" 
			},
			{
				"x": -2.3772107789,
				"y": 0.2945488504,
				"z": 1.8113307707,
				"element": "C" 
			},
			{
				"x": -1.4190686502,
				"y": -0.2657070298,
				"z": 0.7352959455,
				"element": "C" 
			},
			{
				"x": 0.0761779314,
				"y": -0.2499458674,
				"z": 1.1458912653,
				"element": "C" 
			},
			{
				"x": 0.3297820344,
				"y": -1.2705847871,
				"z": 2.2257478443,
				"element": "C" 
			},
			{
				"x": 1.4236151618,
				"y": -2.0331102143,
				"z": 2.2681441716,
				"element": "C" 
			},
			{
				"x": 2.6284902547,
				"y": -1.8890908297,
				"z": 1.3688825703,
				"element": "C" 
			},
			{
				"x": 3.8563520883,
				"y": -1.6919590111,
				"z": 2.3126292498,
				"element": "C" 
			},
			{
				"x": 5.0553202373,
				"y": -1.0256459158,
				"z": 1.6514007312,
				"element": "C" 
			},
			{
				"x": 6.0816662045,
				"y": -0.9476623317,
				"z": 2.6431151355,
				"element": "O" 
			},
			{
				"x": 4.6616792334,
				"y": 0.3705168506,
				"z": 1.1119202216,
				"element": "C" 
			},
			{
				"x": 3.1448645816,
				"y": 0.5253331353,
				"z": 0.8521117886,
				"element": "C" 
			},
			{
				"x": 2.4873890416,
				"y": -0.7566914498,
				"z": 0.2852279345,
				"element": "C" 
			},
			{
				"x": 3.2002959026,
				"y": -1.2014281183,
				"z": -1.0141755045,
				"element": "C" 
			},
			{
				"x": 0.9781404887,
				"y": -0.5418568029,
				"z": -0.0733492386,
				"element": "C" 
			},
			{
				"x": 0.748157588,
				"y": 0.4957807647,
				"z": -1.2070917266,
				"element": "C" 
			},
			{
				"x": -0.5116181943,
				"y": 1.3452545844,
				"z": -1.0172698984,
				"element": "C" 
			},
			{
				"x": -0.7030591797,
				"y": 2.0607084337,
				"z": -2.2446299656,
				"element": "O" 
			},
			{
				"x": -1.7504689803,
				"y": 0.517911358,
				"z": -0.5993877671,
				"element": "C" 
			},
			{
				"x": -2.1210709841,
				"y": -0.4832376097,
				"z": -1.7090912381,
				"element": "C" 
			},
			{
				"x": -5.8315393672,
				"y": 1.1369506225,
				"z": -0.7060324656,
				"element": "H" 
			},
			{
				"x": -4.8848113309,
				"y": 0.0401413656,
				"z": -1.7276753911,
				"element": "H" 
			},
			{
				"x": -5.6967473984,
				"y": 1.4369661671,
				"z": -2.4363392896,
				"element": "H" 
			},
			{
				"x": -3.3236538762,
				"y": 1.9477107996,
				"z": -2.2681335204,
				"element": "H" 
			},
			{
				"x": -3.4096598062,
				"y": 4.0835831854,
				"z": -1.1766930319,
				"element": "H" 
			},
			{
				"x": -4.9623585817,
				"y": 3.7440869127,
				"z": -1.9647352327,
				"element": "H" 
			},
			{
				"x": -4.8113514416,
				"y": 4.4353895954,
				"z": 1.8644690366,
				"element": "H" 
			},
			{
				"x": -2.4592723703,
				"y": 2.3797218514,
				"z": 0.2006189096,
				"element": "H" 
			},
			{
				"x": -4.2037637571,
				"y": -0.0626602742,
				"z": 0.6997313702,
				"element": "H" 
			},
			{
				"x": -4.2370833343,
				"y": 1.4555143796,
				"z": 1.5934385087,
				"element": "H" 
			},
			{
				"x": -1.9081271678,
				"y": 1.1408379811,
				"z": 2.3320139023,
				"element": "H" 
			},
			{
				"x": -2.6386838247,
				"y": -0.4461707089,
				"z": 2.5735595307,
				"element": "H" 
			},
			{
				"x": -1.6831089329,
				"y": -1.318149415,
				"z": 0.5656712367,
				"element": "H" 
			},
			{
				"x": 0.3051115495,
				"y": 0.7524191815,
				"z": 1.5423544231,
				"element": "H" 
			},
			{
				"x": -0.4454923951,
				"y": -1.4094909961,
				"z": 2.9771628868,
				"element": "H" 
			},
			{
				"x": 1.5196494965,
				"y": -2.7802357835,
				"z": 3.056279233,
				"element": "H" 
			},
			{
				"x": 2.773245677,
				"y": -2.8413501503,
				"z": 0.836367059,
				"element": "H" 
			},
			{
				"x": 4.1590902933,
				"y": -2.656587465,
				"z": 2.7335007245,
				"element": "H" 
			},
			{
				"x": 3.5653706408,
				"y": -1.0632575016,
				"z": 3.1630900743,
				"element": "H" 
			},
			{
				"x": 5.4081080639,
				"y": -1.6614110879,
				"z": 0.824467995,
				"element": "H" 
			},
			{
				"x": 6.854267941,
				"y": -0.5359591229,
				"z": 2.2347093206,
				"element": "H" 
			},
			{
				"x": 4.9683158136,
				"y": 1.1047407356,
				"z": 1.8657489651,
				"element": "H" 
			},
			{
				"x": 5.2293735988,
				"y": 0.5946285887,
				"z": 0.2006244964,
				"element": "H" 
			},
			{
				"x": 2.9848965843,
				"y": 1.3760295835,
				"z": 0.1817190504,
				"element": "H" 
			},
			{
				"x": 2.6473971927,
				"y": 0.7822223272,
				"z": 1.794574817,
				"element": "H" 
			},
			{
				"x": 3.2147596404,
				"y": -0.4011024229,
				"z": -1.7605394245,
				"element": "H" 
			},
			{
				"x": 2.6821117474,
				"y": -2.0598383225,
				"z": -1.4570771933,
				"element": "H" 
			},
			{
				"x": 4.2353840457,
				"y": -1.5043422803,
				"z": -0.842041021,
				"element": "H" 
			},
			{
				"x": 0.6355236998,
				"y": -1.5184539918,
				"z": -0.4459625404,
				"element": "H" 
			},
			{
				"x": 1.5883477438,
				"y": 1.1902977945,
				"z": -1.297467465,
				"element": "H" 
			},
			{
				"x": 0.6752374519,
				"y": -0.0062732001,
				"z": -2.1771027833,
				"element": "H" 
			},
			{
				"x": -0.3177460583,
				"y": 2.0706336745,
				"z": -0.2115825041,
				"element": "H" 
			},
			{
				"x": -1.2344762914,
				"y": 2.8431181835,
				"z": -2.0545668001,
				"element": "H" 
			},
			{
				"x": -2.3085661679,
				"y": 0.0138038353,
				"z": -2.6639769427,
				"element": "H" 
			},
			{
				"x": -3.0071354785,
				"y": -1.0638507795,
				"z": -1.4353809316,
				"element": "H" 
			},
			{
				"x": -1.310477286,
				"y": -1.2009979058,
				"z": -1.8691895662,
				"element": "H" 
			}
		],
		 "valence_orbital": [ 
			{
				"type": "occ",
				"energy": -0.28106,
				"method": "rhf"
			},
			{
				"type": "occ",
				"energy": -0.27256,
				"method": "rhf"
			},
			{
				"type": "occ",
				"energy": -0.25828,
				"method": "rhf"
			},
			{
				"type": "occ",
				"energy": -0.25583,
				"method": "rhf"
			},
			{
				"type": "occ",
				"energy": -0.23648,
				"method": "rhf"
			},
			{
				"type": "unocc",
				"energy": 0.0025,
				"method": "rhf"
			},
			{
				"type": "unocc",
				"energy": 0.028,
				"method": "rhf"
			},
			{
				"type": "unocc",
				"energy": 0.05118,
				"method": "rhf"
			},
			{
				"type": "unocc",
				"energy": 0.06967,
				"method": "rhf"
			},
			{
				"type": "unocc",
				"energy": 0.07475,
				"method": "rhf"
			}
		],
		"cosmo_sigma_profile": { 
			"-0.025": 0.0,
			"-0.024": 0.0,
			"-0.023": 0.0,
			"-0.022": 0.0,
			"-0.021": 0.0,
			"-0.02": 0.0,
			"-0.019": 0.0,
			"-0.018": 0.245989866512,
			"-0.017": 1.08156813659,
			"-0.016": 0.843496529747,
			"-0.015": 1.0545660489,
			"-0.014": 1.99371031435,
			"-0.013": 1.85312662076,
			"-0.012": 3.20209337028,
			"-0.011": 3.27516217975,
			"-0.01": 3.63614116284,
			"-0.009": 2.37207895761,
			"-0.008": 2.89082618694,
			"-0.007": 3.5572346688,
			"-0.006": 4.10652394154,
			"-0.005": 6.10844256686,
			"-0.004": 13.7906774271,
			"-0.003": 39.5779838204,
			"-0.002": 66.4074621336,
			"-0.001": 61.4942951621,
			"0.0": 48.9606438061,
			"0.001": 42.7556002967,
			"0.002": 24.061074479,
			"0.003": 11.448486596,
			"0.004": 8.42604788004,
			"0.005": 8.66939073445,
			"0.006": 7.95837361805,
			"0.007": 6.30938884703,
			"0.008": 5.59010178267,
			"0.009": 5.16870350433,
			"0.01": 4.70688680372,
			"0.011": 4.6719100116,
			"0.012": 7.50872249592,
			"0.013": 4.35138399475,
			"0.014": 3.28352483834,
			"0.015": 2.0155188917,
			"0.016": 0.0,
			"0.017": 0.0,
			"0.018": 0.0,
			"0.019": 0.0,
			"0.02": 0.0,
			"0.021": 0.0,
			"0.022": 0.0,
			"0.023": 0.0,
			"0.024": 0.0,
			"0.025": 0.0
		}
	}
}
