{
	 "smiles": "OC(=O)C1=CC=C(N1)C#N", 
	 "Tm": 513.15, 
	 "num_atms": 14, 
	 "gaussian": { 
		 "optdone": 1, 
		 "sigma_profile": "yes", 
		 "theory": "DFT", 
		 "functional": "B3LYP", 
		 "basiset": "6-31G**", 
		 "properties": { 
			 "R2extent": 2125.7039, 
			 "electric_dipole_moment_norm": 1.29193688313, 
			 "electric_quadrupole_moment_norm": 23.2729088509, 
			 "total_energy": -490.973989729, 
			 "HOMO_LUMO_gap": 0.18515, 
			 "cosmo_polarized_energy": -21.88, 
			 "cosmo_cavitation_energy": 20.78, 
			 "cosmo_dispersion_energy": -14.64, 
			 "cosmo_repulsion_energy": 1.2, 
			 "cosmo_total_nonelectrostatic_energy": 7.33, 
			 "SMD_solvation_energy": 6.35 
		},
		"coords": [
			{
				"x": 3.0142962023,
				"y": -0.5082380274,
				"z": 0.6046853412,
				"element": "O" 
			},
			{
				"x": 2.0944618595,
				"y": -0.4978270107,
				"z": -0.408097834,
				"element": "C" 
			},
			{
				"x": 2.0690408117,
				"y": -1.3819701123,
				"z": -1.2279905756,
				"element": "O" 
			},
			{
				"x": 1.1476929519,
				"y": 0.6336723915,
				"z": -0.4081493919,
				"element": "C" 
			},
			{
				"x": 0.3989592217,
				"y": 1.1271120446,
				"z": -1.467697835,
				"element": "C" 
			},
			{
				"x": -0.3554249434,
				"y": 2.217465805,
				"z": -0.9907181322,
				"element": "C" 
			},
			{
				"x": -0.0632701059,
				"y": 2.3621387646,
				"z": 0.3627902199,
				"element": "C" 
			},
			{
				"x": 0.872039571,
				"y": 1.4056836601,
				"z": 0.7003138717,
				"element": "N" 
			},
			{
				"x": -0.5678739047,
				"y": 3.2772826455,
				"z": 1.3189607465,
				"element": "C" 
			},
			{
				"x": -0.9778961076,
				"y": 4.0258508033,
				"z": 2.1113496836,
				"element": "N" 
			},
			{
				"x": 3.1379184768,
				"y": 0.3839510576,
				"z": 0.9595244357,
				"element": "H" 
			},
			{
				"x": 0.4292856268,
				"y": 0.7360059339,
				"z": -2.4736969453,
				"element": "H" 
			},
			{
				"x": -1.0346887279,
				"y": 2.8436825637,
				"z": -1.5500680511,
				"element": "H" 
			},
			{
				"x": 1.1179590679,
				"y": 1.1729894806,
				"z": 1.6517944666,
				"element": "H" 
			}
		],
		 "valence_orbital": [ 
			{
				"type": "occ",
				"energy": -0.35484,
				"method": "rhf"
			},
			{
				"type": "occ",
				"energy": -0.33684,
				"method": "rhf"
			},
			{
				"type": "occ",
				"energy": -0.29789,
				"method": "rhf"
			},
			{
				"type": "occ",
				"energy": -0.29455,
				"method": "rhf"
			},
			{
				"type": "occ",
				"energy": -0.25812,
				"method": "rhf"
			},
			{
				"type": "unocc",
				"energy": -0.07297,
				"method": "rhf"
			},
			{
				"type": "unocc",
				"energy": -0.01182,
				"method": "rhf"
			},
			{
				"type": "unocc",
				"energy": -0.00341,
				"method": "rhf"
			},
			{
				"type": "unocc",
				"energy": 0.0273,
				"method": "rhf"
			},
			{
				"type": "unocc",
				"energy": 0.07561,
				"method": "rhf"
			}
		],
		"cosmo_sigma_profile": { 
			"-0.025": 0.0,
			"-0.024": 0.0,
			"-0.023": 0.0,
			"-0.022": 0.0,
			"-0.021": 0.124233212093,
			"-0.02": 1.40276234191,
			"-0.019": 2.74935285974,
			"-0.018": 1.68857243429,
			"-0.017": 1.92006739807,
			"-0.016": 1.95370835238,
			"-0.015": 2.09647928935,
			"-0.014": 2.28873331271,
			"-0.013": 1.19256220526,
			"-0.012": 1.58438183986,
			"-0.011": 2.0651698228,
			"-0.01": 0.847387375891,
			"-0.009": 1.878582865,
			"-0.008": 5.64165445066,
			"-0.007": 4.66454533961,
			"-0.006": 5.43429224599,
			"-0.005": 6.43949334727,
			"-0.004": 5.96029378271,
			"-0.003": 7.27884223422,
			"-0.002": 9.04131062355,
			"-0.001": 9.63714316842,
			"0.0": 9.18549281626,
			"0.001": 9.55402075535,
			"0.002": 8.57979705057,
			"0.003": 8.18602289797,
			"0.004": 4.49454526811,
			"0.005": 4.82049356231,
			"0.006": 5.46880892746,
			"0.007": 5.89430942145,
			"0.008": 5.35900113555,
			"0.009": 7.50293502344,
			"0.01": 8.11637481968,
			"0.011": 8.6321942984,
			"0.012": 5.49163768618,
			"0.013": 1.08395677248,
			"0.014": 0.0,
			"0.015": 0.0,
			"0.016": 0.0,
			"0.017": 0.0,
			"0.018": 0.0,
			"0.019": 0.0,
			"0.02": 0.0,
			"0.021": 0.0,
			"0.022": 0.0,
			"0.023": 0.0,
			"0.024": 0.0,
			"0.025": 0.0
		}
	}
}
