{
	 "smiles": "COC1=C(O)C=C(C=CC2=CC=C(C=C2[N+]([O-])=O)[N+]([O-])=O)C=C1", 
	 "Tm": 463.15, 
	 "num_atms": 35, 
	 "gaussian": { 
		 "optdone": 1, 
		 "sigma_profile": "yes", 
		 "theory": "DFT", 
		 "functional": "B3LYP", 
		 "basiset": "6-31G**", 
		 "properties": { 
			 "R2extent": 13769.733, 
			 "electric_dipole_moment_norm": 9.5565433934, 
			 "electric_quadrupole_moment_norm": 13.2090241676, 
			 "total_energy": -1139.43874809, 
			 "HOMO_LUMO_gap": 0.10749, 
			 "cosmo_polarized_energy": -19.18, 
			 "cosmo_cavitation_energy": 42.07, 
			 "cosmo_dispersion_energy": -29.77, 
			 "cosmo_repulsion_energy": 2.24, 
			 "cosmo_total_nonelectrostatic_energy": 14.54, 
			 "SMD_solvation_energy": 12.69 
		},
		"coords": [
			{
				"x": 3.5553342725,
				"y": -1.1790283678,
				"z": -5.143873559,
				"element": "C" 
			},
			{
				"x": 4.0008020709,
				"y": -1.1076725837,
				"z": -3.7953627508,
				"element": "O" 
			},
			{
				"x": 3.066391404,
				"y": -1.1482747147,
				"z": -2.7961022383,
				"element": "C" 
			},
			{
				"x": 3.6172034525,
				"y": -1.0872515637,
				"z": -1.4980901019,
				"element": "C" 
			},
			{
				"x": 4.9627266511,
				"y": -0.9950391209,
				"z": -1.3294461905,
				"element": "O" 
			},
			{
				"x": 2.7773910906,
				"y": -1.1233676918,
				"z": -0.3950571079,
				"element": "C" 
			},
			{
				"x": 1.3779772982,
				"y": -1.213150572,
				"z": -0.5473599296,
				"element": "C" 
			},
			{
				"x": 0.5528676877,
				"y": -1.237371852,
				"z": 0.6570721759,
				"element": "C" 
			},
			{
				"x": -0.7930381357,
				"y": -1.1328700558,
				"z": 0.7185466206,
				"element": "C" 
			},
			{
				"x": -1.6108156972,
				"y": -1.0978202249,
				"z": 1.9282368475,
				"element": "C" 
			},
			{
				"x": -2.8173663156,
				"y": -0.3622658594,
				"z": 1.882786725,
				"element": "C" 
			},
			{
				"x": -3.6262157564,
				"y": -0.179711271,
				"z": 2.9940684289,
				"element": "C" 
			},
			{
				"x": -3.2310007451,
				"y": -0.7364027473,
				"z": 4.2104033302,
				"element": "C" 
			},
			{
				"x": -2.0658147582,
				"y": -1.4868487695,
				"z": 4.317274652,
				"element": "C" 
			},
			{
				"x": -1.2980328358,
				"y": -1.6845075936,
				"z": 3.1777236926,
				"element": "C" 
			},
			{
				"x": -0.1637106748,
				"y": -2.6167155109,
				"z": 3.344788748,
				"element": "N" 
			},
			{
				"x": 0.564813103,
				"y": -2.4375878184,
				"z": 4.3199196015,
				"element": "O" 
			},
			{
				"x": -0.0538504419,
				"y": -3.5270954092,
				"z": 2.5302074878,
				"element": "O" 
			},
			{
				"x": -4.0623767791,
				"y": -0.5381187879,
				"z": 5.4015820482,
				"element": "N" 
			},
			{
				"x": -3.6802070747,
				"y": -1.0465803766,
				"z": 6.4550175724,
				"element": "O" 
			},
			{
				"x": -5.0907860433,
				"y": 0.126008516,
				"z": 5.2703099635,
				"element": "O" 
			},
			{
				"x": 0.8492426654,
				"y": -1.2800429346,
				"z": -1.8479079675,
				"element": "C" 
			},
			{
				"x": 1.6848376198,
				"y": -1.2476504749,
				"z": -2.9634209146,
				"element": "C" 
			},
			{
				"x": 3.0267162905,
				"y": -2.1199810163,
				"z": -5.338044904,
				"element": "H" 
			},
			{
				"x": 4.4523324837,
				"y": -1.1330157065,
				"z": -5.7623917235,
				"element": "H" 
			},
			{
				"x": 2.8993748817,
				"y": -0.3354996201,
				"z": -5.3904661075,
				"element": "H" 
			},
			{
				"x": 5.3646935405,
				"y": -0.992199553,
				"z": -2.211624181,
				"element": "H" 
			},
			{
				"x": 3.2250670752,
				"y": -1.0784207,
				"z": 0.5928561208,
				"element": "H" 
			},
			{
				"x": 1.1170691696,
				"y": -1.3136454335,
				"z": 1.583582907,
				"element": "H" 
			},
			{
				"x": -1.3523797033,
				"y": -0.9616768847,
				"z": -0.1979730996,
				"element": "H" 
			},
			{
				"x": -3.1004774153,
				"y": 0.0972144423,
				"z": 0.9408711149,
				"element": "H" 
			},
			{
				"x": -4.5440689112,
				"y": 0.3924112143,
				"z": 2.9434247185,
				"element": "H" 
			},
			{
				"x": -1.7793257338,
				"y": -1.9262113967,
				"z": 5.2637767329,
				"element": "H" 
			},
			{
				"x": -0.2199913683,
				"y": -1.3778176456,
				"z": -2.0010199032,
				"element": "H" 
			},
			{
				"x": 1.2549176326,
				"y": -1.3071919155,
				"z": -3.9566088092,
				"element": "H" 
			}
		],
		 "valence_orbital": [ 
			{
				"type": "occ",
				"energy": -0.29587,
				"method": "rhf"
			},
			{
				"type": "occ",
				"energy": -0.28351,
				"method": "rhf"
			},
			{
				"type": "occ",
				"energy": -0.27733,
				"method": "rhf"
			},
			{
				"type": "occ",
				"energy": -0.24365,
				"method": "rhf"
			},
			{
				"type": "occ",
				"energy": -0.21377,
				"method": "rhf"
			},
			{
				"type": "unocc",
				"energy": -0.10628,
				"method": "rhf"
			},
			{
				"type": "unocc",
				"energy": -0.08561,
				"method": "rhf"
			},
			{
				"type": "unocc",
				"energy": -0.04941,
				"method": "rhf"
			},
			{
				"type": "unocc",
				"energy": -0.03383,
				"method": "rhf"
			},
			{
				"type": "unocc",
				"energy": -0.00764,
				"method": "rhf"
			}
		],
		"cosmo_sigma_profile": { 
			"-0.025": 0.0,
			"-0.024": 0.0,
			"-0.023": 0.0,
			"-0.022": 0.0,
			"-0.021": 0.0,
			"-0.02": 0.0,
			"-0.019": 0.0,
			"-0.018": 0.0,
			"-0.017": 0.0,
			"-0.016": 0.0,
			"-0.015": 0.294422936886,
			"-0.014": 0.211895177847,
			"-0.013": 0.639828046256,
			"-0.012": 1.01279392456,
			"-0.011": 0.531814802389,
			"-0.01": 0.467009754501,
			"-0.009": 3.27018034288,
			"-0.008": 11.3583162047,
			"-0.007": 17.0713955851,
			"-0.006": 21.7047026352,
			"-0.005": 21.9030734756,
			"-0.004": 23.1914766062,
			"-0.003": 20.5625272186,
			"-0.002": 23.8160534425,
			"-0.001": 21.5359389932,
			"0.0": 19.7145874485,
			"0.001": 18.8147111668,
			"0.002": 16.6651814219,
			"0.003": 20.4812040718,
			"0.004": 19.1294398239,
			"0.005": 12.6899375214,
			"0.006": 10.8583507345,
			"0.007": 20.9441501397,
			"0.008": 15.2722393315,
			"0.009": 8.50393560235,
			"0.01": 4.36562342188,
			"0.011": 1.91306073053,
			"0.012": 0.487150865944,
			"0.013": 0.0,
			"0.014": 0.0,
			"0.015": 0.0,
			"0.016": 0.0,
			"0.017": 0.0,
			"0.018": 0.0,
			"0.019": 0.0,
			"0.02": 0.0,
			"0.021": 0.0,
			"0.022": 0.0,
			"0.023": 0.0,
			"0.024": 0.0,
			"0.025": 0.0
		}
	}
}
