{
	 "smiles": "FC(F)(F)COC(=O)NC1=CC=C(OC(F)(F)F)C=C1", 
	 "Tm": 338.15, 
	 "num_atms": 27, 
	 "gaussian": { 
		 "optdone": 1, 
		 "sigma_profile": "yes", 
		 "theory": "DFT", 
		 "functional": "B3LYP", 
		 "basiset": "6-31G**", 
		 "properties": { 
			 "R2extent": 9157.9564, 
			 "electric_dipole_moment_norm": 1.37405866687, 
			 "electric_quadrupole_moment_norm": 14.0084454398, 
			 "total_energy": -1264.77245008, 
			 "HOMO_LUMO_gap": 0.20721, 
			 "cosmo_polarized_energy": -10.93, 
			 "cosmo_cavitation_energy": 35.66, 
			 "cosmo_dispersion_energy": -24.58, 
			 "cosmo_repulsion_energy": 1.76, 
			 "cosmo_total_nonelectrostatic_energy": 12.84, 
			 "SMD_solvation_energy": 9.86 
		},
		"coords": [
			{
				"x": 0.0073448728,
				"y": 6.07592141,
				"z": 0.3879258435,
				"element": "F" 
			},
			{
				"x": -0.1856515925,
				"y": 4.7682920045,
				"z": 0.6491377778,
				"element": "C" 
			},
			{
				"x": -1.2431432251,
				"y": 4.6495093934,
				"z": 1.4718662773,
				"element": "F" 
			},
			{
				"x": -0.5021864118,
				"y": 4.1531692994,
				"z": -0.5109358118,
				"element": "F" 
			},
			{
				"x": 1.0699471286,
				"y": 4.1764423746,
				"z": 1.2660122597,
				"element": "C" 
			},
			{
				"x": 0.8696849884,
				"y": 2.7824705669,
				"z": 1.4650946072,
				"element": "O" 
			},
			{
				"x": 0.624967381,
				"y": 2.3865137365,
				"z": 2.7494574166,
				"element": "C" 
			},
			{
				"x": 0.7355797791,
				"y": 3.1021360175,
				"z": 3.7243865898,
				"element": "O" 
			},
			{
				"x": 0.2645002354,
				"y": 1.0674522693,
				"z": 2.8174804965,
				"element": "N" 
			},
			{
				"x": 0.0595571054,
				"y": 0.0858334521,
				"z": 1.8173676849,
				"element": "C" 
			},
			{
				"x": 0.1990820874,
				"y": -1.2545190861,
				"z": 2.1987987448,
				"element": "C" 
			},
			{
				"x": -0.0305675964,
				"y": -2.2952115178,
				"z": 1.3008089107,
				"element": "C" 
			},
			{
				"x": -0.3960936797,
				"y": -1.9838009052,
				"z": -0.0073203713,
				"element": "C" 
			},
			{
				"x": -0.6478242171,
				"y": -2.9185718135,
				"z": -1.0155298067,
				"element": "O" 
			},
			{
				"x": -0.5684197838,
				"y": -4.2483530603,
				"z": -0.7753411288,
				"element": "C" 
			},
			{
				"x": -1.4307464419,
				"y": -4.6550859018,
				"z": 0.1782502281,
				"element": "F" 
			},
			{
				"x": -0.8655689944,
				"y": -4.8773672296,
				"z": -1.9105283195,
				"element": "F" 
			},
			{
				"x": 0.6641462402,
				"y": -4.631544422,
				"z": -0.383992518,
				"element": "F" 
			},
			{
				"x": -0.5400862115,
				"y": -0.6557682576,
				"z": -0.4035613369,
				"element": "C" 
			},
			{
				"x": -0.3244609347,
				"y": 0.379424762,
				"z": 0.500136828,
				"element": "C" 
			},
			{
				"x": 1.9000743316,
				"y": 4.2996492205,
				"z": 0.5679715869,
				"element": "H" 
			},
			{
				"x": 1.2825722599,
				"y": 4.6766882846,
				"z": 2.2121664054,
				"element": "H" 
			},
			{
				"x": 0.187248474,
				"y": 0.7566532292,
				"z": 3.7756243373,
				"element": "H" 
			},
			{
				"x": 0.497820583,
				"y": -1.495013955,
				"z": 3.2156089987,
				"element": "H" 
			},
			{
				"x": 0.0863238544,
				"y": -3.319154563,
				"z": 1.6288762828,
				"element": "H" 
			},
			{
				"x": -0.8346832394,
				"y": -0.4419569921,
				"z": -1.4252187602,
				"element": "H" 
			},
			{
				"x": -0.4510169932,
				"y": 1.4035916835,
				"z": 0.1788567772,
				"element": "H" 
			}
		],
		 "valence_orbital": [ 
			{
				"type": "occ",
				"energy": -0.32425,
				"method": "rhf"
			},
			{
				"type": "occ",
				"energy": -0.31056,
				"method": "rhf"
			},
			{
				"type": "occ",
				"energy": -0.29908,
				"method": "rhf"
			},
			{
				"type": "occ",
				"energy": -0.27313,
				"method": "rhf"
			},
			{
				"type": "occ",
				"energy": -0.23083,
				"method": "rhf"
			},
			{
				"type": "unocc",
				"energy": -0.02362,
				"method": "rhf"
			},
			{
				"type": "unocc",
				"energy": -0.01926,
				"method": "rhf"
			},
			{
				"type": "unocc",
				"energy": 0.04304,
				"method": "rhf"
			},
			{
				"type": "unocc",
				"energy": 0.06175,
				"method": "rhf"
			},
			{
				"type": "unocc",
				"energy": 0.08254,
				"method": "rhf"
			}
		],
		"cosmo_sigma_profile": { 
			"-0.025": 0.0,
			"-0.024": 0.0,
			"-0.023": 0.0,
			"-0.022": 0.0,
			"-0.021": 0.0,
			"-0.02": 0.0,
			"-0.019": 0.0,
			"-0.018": 0.0,
			"-0.017": 0.0,
			"-0.016": 0.439452069586,
			"-0.015": 1.15151147984,
			"-0.014": 1.09546674069,
			"-0.013": 1.13954998796,
			"-0.012": 1.11456740667,
			"-0.011": 1.19753266994,
			"-0.01": 1.71173599306,
			"-0.009": 4.67635873612,
			"-0.008": 6.32564333234,
			"-0.007": 9.16135259106,
			"-0.006": 9.12830555968,
			"-0.005": 8.50556796793,
			"-0.004": 7.86389048567,
			"-0.003": 13.2149913232,
			"-0.002": 14.7706066855,
			"-0.001": 17.8124087015,
			"0.0": 25.6690280758,
			"0.001": 39.795068145,
			"0.002": 62.0338620768,
			"0.003": 31.5547882357,
			"0.004": 8.00826001131,
			"0.005": 4.23149822637,
			"0.006": 2.75441467363,
			"0.007": 1.21927444393,
			"0.008": 0.977166721672,
			"0.009": 1.25071733787,
			"0.01": 1.82514717882,
			"0.011": 3.01315503144,
			"0.012": 4.22944504217,
			"0.013": 0.529901699707,
			"0.014": 0.0,
			"0.015": 0.0,
			"0.016": 0.0,
			"0.017": 0.0,
			"0.018": 0.0,
			"0.019": 0.0,
			"0.02": 0.0,
			"0.021": 0.0,
			"0.022": 0.0,
			"0.023": 0.0,
			"0.024": 0.0,
			"0.025": 0.0
		}
	}
}
