{
	 "smiles": "FC1=CC(F)=C(NCC2=CN=CC=C2)C=C1", 
	 "Tm": 361.15, 
	 "num_atms": 26, 
	 "gaussian": { 
		 "optdone": 1, 
		 "sigma_profile": "yes", 
		 "theory": "DFT", 
		 "functional": "B3LYP", 
		 "basiset": "6-31G**", 
		 "properties": { 
			 "R2extent": 4301.0946, 
			 "electric_dipole_moment_norm": 0.563086139059, 
			 "electric_quadrupole_moment_norm": 14.0462094107, 
			 "total_energy": -772.46245038, 
			 "HOMO_LUMO_gap": 0.17873, 
			 "cosmo_polarized_energy": -10.66, 
			 "cosmo_cavitation_energy": 30.81, 
			 "cosmo_dispersion_energy": -21.72, 
			 "cosmo_repulsion_energy": 1.64, 
			 "cosmo_total_nonelectrostatic_energy": 10.73, 
			 "SMD_solvation_energy": 3.43 
		},
		"coords": [
			{
				"x": -2.9683664639,
				"y": -2.6429135573,
				"z": -1.6699269172,
				"element": "F" 
			},
			{
				"x": -1.9178906325,
				"y": -1.8264538503,
				"z": -1.4400306095,
				"element": "C" 
			},
			{
				"x": -1.9047714691,
				"y": -0.5646718925,
				"z": -2.0206904635,
				"element": "C" 
			},
			{
				"x": -0.8140292611,
				"y": 0.2593378043,
				"z": -1.7844163048,
				"element": "C" 
			},
			{
				"x": -0.8190009014,
				"y": 1.485456988,
				"z": -2.3758529994,
				"element": "F" 
			},
			{
				"x": 0.2665129926,
				"y": -0.1072907773,
				"z": -0.9642176116,
				"element": "C" 
			},
			{
				"x": 1.4043851041,
				"y": 0.6875815992,
				"z": -0.7752896211,
				"element": "N" 
			},
			{
				"x": 1.3396656093,
				"y": 2.1487064817,
				"z": -0.5918347806,
				"element": "C" 
			},
			{
				"x": 0.5620847269,
				"y": 2.6091345766,
				"z": 0.6270913948,
				"element": "C" 
			},
			{
				"x": 1.1881665485,
				"y": 2.7294351975,
				"z": 1.8747686881,
				"element": "C" 
			},
			{
				"x": 0.5700307727,
				"y": 3.092239642,
				"z": 3.003180868,
				"element": "N" 
			},
			{
				"x": -0.7401459574,
				"y": 3.3589169441,
				"z": 2.922006977,
				"element": "C" 
			},
			{
				"x": -1.4680063528,
				"y": 3.2828816814,
				"z": 1.7337719614,
				"element": "C" 
			},
			{
				"x": -0.8049105234,
				"y": 2.902594491,
				"z": 0.5684022849,
				"element": "C" 
			},
			{
				"x": 0.1929782637,
				"y": -1.3925573178,
				"z": -0.3944611283,
				"element": "C" 
			},
			{
				"x": -0.8755285148,
				"y": -2.2551471263,
				"z": -0.6286708182,
				"element": "C" 
			},
			{
				"x": -2.7137169675,
				"y": -0.2272624631,
				"z": -2.6574355945,
				"element": "H" 
			},
			{
				"x": 2.0276576426,
				"y": 0.2620367727,
				"z": -0.0999543615,
				"element": "H" 
			},
			{
				"x": 2.3779750819,
				"y": 2.4864505846,
				"z": -0.5143330321,
				"element": "H" 
			},
			{
				"x": 0.9227895171,
				"y": 2.5937542363,
				"z": -1.495036966,
				"element": "H" 
			},
			{
				"x": 2.2571864714,
				"y": 2.5280078281,
				"z": 1.9627601136,
				"element": "H" 
			},
			{
				"x": -1.2283735309,
				"y": 3.652008447,
				"z": 3.8498566483,
				"element": "H" 
			},
			{
				"x": -2.527561647,
				"y": 3.5195876991,
				"z": 1.7240143475,
				"element": "H" 
			},
			{
				"x": -1.3323542452,
				"y": 2.8378270452,
				"z": -0.3787129417,
				"element": "H" 
			},
			{
				"x": 1.0041975427,
				"y": -1.7191870473,
				"z": 0.2510207693,
				"element": "H" 
			},
			{
				"x": -0.9093738062,
				"y": -3.2419739867,
				"z": -0.1812099029,
				"element": "H" 
			}
		],
		 "valence_orbital": [ 
			{
				"type": "occ",
				"energy": -0.28587,
				"method": "rhf"
			},
			{
				"type": "occ",
				"energy": -0.26225,
				"method": "rhf"
			},
			{
				"type": "occ",
				"energy": -0.25903,
				"method": "rhf"
			},
			{
				"type": "occ",
				"energy": -0.2544,
				"method": "rhf"
			},
			{
				"type": "occ",
				"energy": -0.20642,
				"method": "rhf"
			},
			{
				"type": "unocc",
				"energy": -0.02769,
				"method": "rhf"
			},
			{
				"type": "unocc",
				"energy": -0.01662,
				"method": "rhf"
			},
			{
				"type": "unocc",
				"energy": -0.01098,
				"method": "rhf"
			},
			{
				"type": "unocc",
				"energy": 0.00953,
				"method": "rhf"
			},
			{
				"type": "unocc",
				"energy": 0.07154,
				"method": "rhf"
			}
		],
		"cosmo_sigma_profile": { 
			"-0.025": 0.0,
			"-0.024": 0.0,
			"-0.023": 0.0,
			"-0.022": 0.0,
			"-0.021": 0.0,
			"-0.02": 0.0,
			"-0.019": 0.0,
			"-0.018": 0.0,
			"-0.017": 0.0,
			"-0.016": 0.0,
			"-0.015": 0.0,
			"-0.014": 0.0,
			"-0.013": 0.322196321363,
			"-0.012": 1.76875030889,
			"-0.011": 1.64475549054,
			"-0.01": 1.68066323759,
			"-0.009": 2.35975979012,
			"-0.008": 3.5082476684,
			"-0.007": 8.37117592572,
			"-0.006": 14.0216990653,
			"-0.005": 15.9702319228,
			"-0.004": 14.7644639267,
			"-0.003": 15.1757538089,
			"-0.002": 14.5731188582,
			"-0.001": 12.1670766858,
			"0.0": 15.2104292589,
			"0.001": 20.0416698402,
			"0.002": 28.727324039,
			"0.003": 27.3162725834,
			"0.004": 21.2916671403,
			"0.005": 11.2847736749,
			"0.006": 2.0407364445,
			"0.007": 1.71030915772,
			"0.008": 2.47101624511,
			"0.009": 1.88284472325,
			"0.01": 2.13450433013,
			"0.011": 1.42551562574,
			"0.012": 1.1184449592,
			"0.013": 0.916131137354,
			"0.014": 1.30718942299,
			"0.015": 0.782013093438,
			"0.016": 0.790444476215,
			"0.017": 0.47396456532,
			"0.018": 0.0,
			"0.019": 0.0,
			"0.02": 0.0,
			"0.021": 0.0,
			"0.022": 0.0,
			"0.023": 0.0,
			"0.024": 0.0,
			"0.025": 0.0
		}
	}
}
