{
	 "smiles": "CCCCOCCO", 
	 "Tm": 196.25, 
	 "num_atms": 22, 
	 "gaussian": { 
		 "optdone": 1, 
		 "sigma_profile": "yes", 
		 "theory": "DFT", 
		 "functional": "B3LYP", 
		 "basiset": "6-31G**", 
		 "properties": { 
			 "R2extent": 1625.5021, 
			 "electric_dipole_moment_norm": 2.29996639323, 
			 "electric_quadrupole_moment_norm": 8.45549113003, 
			 "total_energy": -387.50536141, 
			 "HOMO_LUMO_gap": 0.31361, 
			 "cosmo_polarized_energy": -8.28, 
			 "cosmo_cavitation_energy": 23.93, 
			 "cosmo_dispersion_energy": -17.27, 
			 "cosmo_repulsion_energy": 1.49, 
			 "cosmo_total_nonelectrostatic_energy": 8.15, 
			 "SMD_solvation_energy": 4.13 
		},
		"coords": [
			{
				"x": 0.8337501372,
				"y": -0.9521150656,
				"z": -2.4695641493,
				"element": "C" 
			},
			{
				"x": -0.2726606877,
				"y": -1.7494260737,
				"z": -1.768504235,
				"element": "C" 
			},
			{
				"x": -0.0351041925,
				"y": -2.0213090995,
				"z": -0.2725161833,
				"element": "C" 
			},
			{
				"x": -0.2009357484,
				"y": -0.822522816,
				"z": 0.6571830965,
				"element": "C" 
			},
			{
				"x": 0.8661542706,
				"y": 0.0978206572,
				"z": 0.4595386121,
				"element": "O" 
			},
			{
				"x": 0.8825169202,
				"y": 1.1916815191,
				"z": 1.3591225204,
				"element": "C" 
			},
			{
				"x": -0.0603727501,
				"y": 2.329251755,
				"z": 0.9474314869,
				"element": "C" 
			},
			{
				"x": 0.0618353796,
				"y": 3.4435662756,
				"z": 1.8211701096,
				"element": "O" 
			},
			{
				"x": 1.7949940546,
				"y": -1.473957747,
				"z": -2.3981751596,
				"element": "H" 
			},
			{
				"x": 0.9629012451,
				"y": 0.03210937,
				"z": -2.0150605221,
				"element": "H" 
			},
			{
				"x": 0.6049265683,
				"y": -0.8202968372,
				"z": -3.5327342716,
				"element": "H" 
			},
			{
				"x": -0.3915314364,
				"y": -2.7155262516,
				"z": -2.2760299567,
				"element": "H" 
			},
			{
				"x": -1.2341481103,
				"y": -1.2296451473,
				"z": -1.8860408817,
				"element": "H" 
			},
			{
				"x": 0.9670793468,
				"y": -2.4422651373,
				"z": -0.1198442557,
				"element": "H" 
			},
			{
				"x": -0.749346288,
				"y": -2.7834408677,
				"z": 0.066412971,
				"element": "H" 
			},
			{
				"x": -1.1772381555,
				"y": -0.3438352042,
				"z": 0.4751610882,
				"element": "H" 
			},
			{
				"x": -0.1981201458,
				"y": -1.1637207185,
				"z": 1.7065602953,
				"element": "H" 
			},
			{
				"x": 0.6375000988,
				"y": 0.8563958293,
				"z": 2.3829172064,
				"element": "H" 
			},
			{
				"x": 1.907538616,
				"y": 1.5758333887,
				"z": 1.3748411196,
				"element": "H" 
			},
			{
				"x": -1.1000691662,
				"y": 1.972730885,
				"z": 0.8882246032,
				"element": "H" 
			},
			{
				"x": 0.2194818605,
				"y": 2.6845747262,
				"z": -0.0486537394,
				"element": "H" 
			},
			{
				"x": -0.2784518168,
				"y": 3.1818965597,
				"z": 2.6864602453,
				"element": "H" 
			}
		],
		 "valence_orbital": [ 
			{
				"type": "occ",
				"energy": -0.32421,
				"method": "rhf"
			},
			{
				"type": "occ",
				"energy": -0.32097,
				"method": "rhf"
			},
			{
				"type": "occ",
				"energy": -0.30706,
				"method": "rhf"
			},
			{
				"type": "occ",
				"energy": -0.28385,
				"method": "rhf"
			},
			{
				"type": "occ",
				"energy": -0.24507,
				"method": "rhf"
			},
			{
				"type": "unocc",
				"energy": 0.06854,
				"method": "rhf"
			},
			{
				"type": "unocc",
				"energy": 0.08164,
				"method": "rhf"
			},
			{
				"type": "unocc",
				"energy": 0.10977,
				"method": "rhf"
			},
			{
				"type": "unocc",
				"energy": 0.11923,
				"method": "rhf"
			},
			{
				"type": "unocc",
				"energy": 0.12462,
				"method": "rhf"
			}
		],
		"cosmo_sigma_profile": { 
			"-0.025": 0.0,
			"-0.024": 0.0,
			"-0.023": 0.0,
			"-0.022": 0.0,
			"-0.021": 0.0,
			"-0.02": 0.0,
			"-0.019": 0.0,
			"-0.018": 0.0,
			"-0.017": 0.0,
			"-0.016": 0.164493300369,
			"-0.015": 1.28641243931,
			"-0.014": 0.641409015449,
			"-0.013": 0.980116790594,
			"-0.012": 1.25900492136,
			"-0.011": 1.18475198981,
			"-0.01": 0.813586087188,
			"-0.009": 1.00551833571,
			"-0.008": 1.00022255386,
			"-0.007": 1.02346538305,
			"-0.006": 1.59443362786,
			"-0.005": 2.17837347231,
			"-0.004": 11.1381639187,
			"-0.003": 20.0740942886,
			"-0.002": 27.8159386736,
			"-0.001": 24.7201323975,
			"0.0": 22.3780816762,
			"0.001": 18.0496291126,
			"0.002": 12.4906066761,
			"0.003": 5.54085550209,
			"0.004": 3.03730996147,
			"0.005": 3.7324458035,
			"0.006": 3.10089877836,
			"0.007": 2.15942665401,
			"0.008": 2.19962931267,
			"0.009": 2.46762557276,
			"0.01": 2.28236558351,
			"0.011": 2.41357703612,
			"0.012": 1.94899344492,
			"0.013": 2.5487994398,
			"0.014": 2.21047164827,
			"0.015": 0.623595589352,
			"0.016": 0.0,
			"0.017": 0.0,
			"0.018": 0.0,
			"0.019": 0.0,
			"0.02": 0.0,
			"0.021": 0.0,
			"0.022": 0.0,
			"0.023": 0.0,
			"0.024": 0.0,
			"0.025": 0.0
		}
	}
}
