{
	 "smiles": "CN1C(=O)N(CC(O)=O)C(=O)C1=O", 
	 "Tm": 465.15, 
	 "num_atms": 19, 
	 "gaussian": { 
		 "optdone": 1, 
		 "sigma_profile": "yes", 
		 "theory": "DFT", 
		 "functional": "B3LYP", 
		 "basiset": "6-31G**", 
		 "properties": { 
			 "R2extent": 2774.6249, 
			 "electric_dipole_moment_norm": 4.72279165113, 
			 "electric_quadrupole_moment_norm": 16.3347154637, 
			 "total_energy": -717.918871037, 
			 "HOMO_LUMO_gap": 0.16456, 
			 "cosmo_polarized_energy": -19.37, 
			 "cosmo_cavitation_energy": 24.78, 
			 "cosmo_dispersion_energy": -17.92, 
			 "cosmo_repulsion_energy": 1.41, 
			 "cosmo_total_nonelectrostatic_energy": 8.27, 
			 "SMD_solvation_energy": 8.03 
		},
		"coords": [
			{
				"x": -1.4160714903,
				"y": 3.0017109016,
				"z": -2.3396116194,
				"element": "C" 
			},
			{
				"x": -1.3052750009,
				"y": 1.9296418266,
				"z": -1.3581514889,
				"element": "N" 
			},
			{
				"x": -0.8927002462,
				"y": 2.1402028337,
				"z": -0.0408673917,
				"element": "C" 
			},
			{
				"x": -0.6006577633,
				"y": 3.1936637443,
				"z": 0.4681992984,
				"element": "O" 
			},
			{
				"x": -0.8947944453,
				"y": 0.8743065194,
				"z": 0.5984854634,
				"element": "N" 
			},
			{
				"x": -0.6099114661,
				"y": 0.711054236,
				"z": 2.0252585967,
				"element": "C" 
			},
			{
				"x": 0.6326522906,
				"y": -0.1461089495,
				"z": 2.3431704719,
				"element": "C" 
			},
			{
				"x": 0.666601041,
				"y": -1.3732003138,
				"z": 1.8032082025,
				"element": "O" 
			},
			{
				"x": 1.4984071442,
				"y": 0.2588223884,
				"z": 3.0772048154,
				"element": "O" 
			},
			{
				"x": -1.3153769723,
				"y": -0.1125013772,
				"z": -0.25782177,
				"element": "C" 
			},
			{
				"x": -1.4230670209,
				"y": -1.3003785733,
				"z": -0.0095070692,
				"element": "O" 
			},
			{
				"x": -1.6020113757,
				"y": 0.5960093936,
				"z": -1.5992715409,
				"element": "C" 
			},
			{
				"x": -1.9920931039,
				"y": 0.0953625476,
				"z": -2.6250851471,
				"element": "O" 
			},
			{
				"x": -0.4410368267,
				"y": 3.464234042,
				"z": -2.507568355,
				"element": "H" 
			},
			{
				"x": -2.1186571399,
				"y": 3.7619479617,
				"z": -1.9917359098,
				"element": "H" 
			},
			{
				"x": -1.7792554494,
				"y": 2.5529351202,
				"z": -3.264370471,
				"element": "H" 
			},
			{
				"x": -0.4438036391,
				"y": 1.7058358862,
				"z": 2.4347853306,
				"element": "H" 
			},
			{
				"x": -1.4863108897,
				"y": 0.260731291,
				"z": 2.5067670965,
				"element": "H" 
			},
			{
				"x": -0.1300376461,
				"y": -1.5589694784,
				"z": 1.2618114876,
				"element": "H" 
			}
		],
		 "valence_orbital": [ 
			{
				"type": "occ",
				"energy": -0.32597,
				"method": "rhf"
			},
			{
				"type": "occ",
				"energy": -0.32192,
				"method": "rhf"
			},
			{
				"type": "occ",
				"energy": -0.31608,
				"method": "rhf"
			},
			{
				"type": "occ",
				"energy": -0.30352,
				"method": "rhf"
			},
			{
				"type": "occ",
				"energy": -0.27747,
				"method": "rhf"
			},
			{
				"type": "unocc",
				"energy": -0.11291,
				"method": "rhf"
			},
			{
				"type": "unocc",
				"energy": -0.00952,
				"method": "rhf"
			},
			{
				"type": "unocc",
				"energy": 0.00751,
				"method": "rhf"
			},
			{
				"type": "unocc",
				"energy": 0.04143,
				"method": "rhf"
			},
			{
				"type": "unocc",
				"energy": 0.08197,
				"method": "rhf"
			}
		],
		"cosmo_sigma_profile": { 
			"-0.025": 0.0,
			"-0.024": 0.0,
			"-0.023": 0.0,
			"-0.022": 0.0,
			"-0.021": 0.0,
			"-0.02": 0.0,
			"-0.019": 0.0,
			"-0.018": 0.0,
			"-0.017": 0.0,
			"-0.016": 0.0,
			"-0.015": 0.0,
			"-0.014": 0.0,
			"-0.013": 0.0353937562485,
			"-0.012": 1.6403601257,
			"-0.011": 3.4315059411,
			"-0.01": 6.22581159134,
			"-0.009": 6.79536608562,
			"-0.008": 9.19554010401,
			"-0.007": 14.82741533,
			"-0.006": 16.1047311526,
			"-0.005": 13.7018187325,
			"-0.004": 12.887389333,
			"-0.003": 8.97549302139,
			"-0.002": 6.00298441708,
			"-0.001": 6.02986758237,
			"0.0": 5.87835225679,
			"0.001": 4.6829589882,
			"0.002": 5.8781525007,
			"0.003": 5.1298261628,
			"0.004": 5.21711127366,
			"0.005": 5.32314144456,
			"0.006": 7.02667169752,
			"0.007": 6.95176854156,
			"0.008": 10.3254996597,
			"0.009": 13.3549117221,
			"0.01": 13.4881114473,
			"0.011": 6.07665235646,
			"0.012": 3.24632188581,
			"0.013": 0.283231119929,
			"0.014": 0.0,
			"0.015": 0.0,
			"0.016": 0.0,
			"0.017": 0.0,
			"0.018": 0.0,
			"0.019": 0.0,
			"0.02": 0.0,
			"0.021": 0.0,
			"0.022": 0.0,
			"0.023": 0.0,
			"0.024": 0.0,
			"0.025": 0.0
		}
	}
}
