{
	 "smiles": "OC1=CC=CC=C1C(=O)OC1=CC=CC=C1", 
	 "Tm": 315.65, 
	 "num_atms": 26, 
	 "gaussian": { 
		 "optdone": 1, 
		 "sigma_profile": "yes", 
		 "theory": "DFT", 
		 "functional": "B3LYP", 
		 "basiset": "6-31G**", 
		 "properties": { 
			 "R2extent": 4823.4894, 
			 "electric_dipole_moment_norm": 3.49579585788, 
			 "electric_quadrupole_moment_norm": 13.4675171457, 
			 "total_energy": -727.081665372, 
			 "HOMO_LUMO_gap": 0.18412, 
			 "cosmo_polarized_energy": -13.83, 
			 "cosmo_cavitation_energy": 31.03, 
			 "cosmo_dispersion_energy": -22.73, 
			 "cosmo_repulsion_energy": 1.75, 
			 "cosmo_total_nonelectrostatic_energy": 10.05, 
			 "SMD_solvation_energy": 6.64 
		},
		"coords": [
			{
				"x": -1.6749663415,
				"y": -0.1974608298,
				"z": 1.3707762009,
				"element": "O" 
			},
			{
				"x": -1.4516549891,
				"y": -1.5329186537,
				"z": 1.2598880635,
				"element": "C" 
			},
			{
				"x": -2.4773357358,
				"y": -2.4458685121,
				"z": 1.5518476104,
				"element": "C" 
			},
			{
				"x": -2.2722360387,
				"y": -3.8161784518,
				"z": 1.4413777896,
				"element": "C" 
			},
			{
				"x": -1.0298169723,
				"y": -4.3087775515,
				"z": 1.0329343684,
				"element": "C" 
			},
			{
				"x": -0.0117572079,
				"y": -3.4107227048,
				"z": 0.7433211545,
				"element": "C" 
			},
			{
				"x": -0.1885636203,
				"y": -2.0191668255,
				"z": 0.84776421,
				"element": "C" 
			},
			{
				"x": 1.0087051016,
				"y": -1.1998787421,
				"z": 0.4991621056,
				"element": "C" 
			},
			{
				"x": 2.0583780174,
				"y": -1.6819226514,
				"z": 0.1247718834,
				"element": "O" 
			},
			{
				"x": 0.7961934934,
				"y": 0.1352155942,
				"z": 0.6450751078,
				"element": "O" 
			},
			{
				"x": 1.7802317693,
				"y": 1.0794917873,
				"z": 0.3564795937,
				"element": "C" 
			},
			{
				"x": 3.1276766286,
				"y": 0.9256423312,
				"z": 0.687821207,
				"element": "C" 
			},
			{
				"x": 4.0063339082,
				"y": 1.9774146519,
				"z": 0.4204648427,
				"element": "C" 
			},
			{
				"x": 3.552045333,
				"y": 3.1623122105,
				"z": -0.1612067847,
				"element": "C" 
			},
			{
				"x": 2.1991599475,
				"y": 3.3007378655,
				"z": -0.4786400243,
				"element": "C" 
			},
			{
				"x": 1.3090115199,
				"y": 2.2595986304,
				"z": -0.2198891112,
				"element": "C" 
			},
			{
				"x": -2.5857772138,
				"y": -0.0643494607,
				"z": 1.6662928961,
				"element": "H" 
			},
			{
				"x": -3.4461283679,
				"y": -2.0639303558,
				"z": 1.8684929638,
				"element": "H" 
			},
			{
				"x": -3.085196125,
				"y": -4.4979134615,
				"z": 1.674358695,
				"element": "H" 
			},
			{
				"x": -0.8610379384,
				"y": -5.3767370113,
				"z": 0.9432018114,
				"element": "H" 
			},
			{
				"x": 0.9645519208,
				"y": -3.7573502629,
				"z": 0.4232124898,
				"element": "H" 
			},
			{
				"x": 3.4812938056,
				"y": 0.0041185504,
				"z": 1.1288721683,
				"element": "H" 
			},
			{
				"x": 5.0569167855,
				"y": 1.8637325382,
				"z": 0.6719026904,
				"element": "H" 
			},
			{
				"x": 4.2466646949,
				"y": 3.9718555423,
				"z": -0.3643335755,
				"element": "H" 
			},
			{
				"x": 1.8332602146,
				"y": 4.2194219556,
				"z": -0.927890149,
				"element": "H" 
			},
			{
				"x": 0.2522474103,
				"y": 2.3422338178,
				"z": -0.4507582077,
				"element": "H" 
			}
		],
		 "valence_orbital": [ 
			{
				"type": "occ",
				"energy": -0.27332,
				"method": "rhf"
			},
			{
				"type": "occ",
				"energy": -0.26281,
				"method": "rhf"
			},
			{
				"type": "occ",
				"energy": -0.24704,
				"method": "rhf"
			},
			{
				"type": "occ",
				"energy": -0.23627,
				"method": "rhf"
			},
			{
				"type": "occ",
				"energy": -0.23118,
				"method": "rhf"
			},
			{
				"type": "unocc",
				"energy": -0.04706,
				"method": "rhf"
			},
			{
				"type": "unocc",
				"energy": 2e-05,
				"method": "rhf"
			},
			{
				"type": "unocc",
				"energy": 0.00201,
				"method": "rhf"
			},
			{
				"type": "unocc",
				"energy": 0.00818,
				"method": "rhf"
			},
			{
				"type": "unocc",
				"energy": 0.05861,
				"method": "rhf"
			}
		],
		"cosmo_sigma_profile": { 
			"-0.025": 0.0,
			"-0.024": 0.0,
			"-0.023": 0.0,
			"-0.022": 0.0,
			"-0.021": 0.0,
			"-0.02": 0.0,
			"-0.019": 0.0427443276991,
			"-0.018": 1.02780368009,
			"-0.017": 1.063226264,
			"-0.016": 1.32152200567,
			"-0.015": 0.914336868356,
			"-0.014": 0.910347761928,
			"-0.013": 1.39592670906,
			"-0.012": 0.692272828917,
			"-0.011": 0.38141883387,
			"-0.01": 1.53419985777,
			"-0.009": 1.22230144274,
			"-0.008": 1.31146208233,
			"-0.007": 3.91762044921,
			"-0.006": 13.2335102208,
			"-0.005": 17.2341067597,
			"-0.004": 19.7338087979,
			"-0.003": 16.2306026388,
			"-0.002": 14.3918994877,
			"-0.001": 14.6035994172,
			"0.0": 14.7421134976,
			"0.001": 18.9905318323,
			"0.002": 20.3205770964,
			"0.003": 21.2060237892,
			"0.004": 21.9801111523,
			"0.005": 15.0022892678,
			"0.006": 4.01045309884,
			"0.007": 3.33162831914,
			"0.008": 3.70604731964,
			"0.009": 3.73039906657,
			"0.01": 3.81512924337,
			"0.011": 4.91754908113,
			"0.012": 2.39598422225,
			"0.013": 0.0590478127958,
			"0.014": 0.0,
			"0.015": 0.0,
			"0.016": 0.0,
			"0.017": 0.0,
			"0.018": 0.0,
			"0.019": 0.0,
			"0.02": 0.0,
			"0.021": 0.0,
			"0.022": 0.0,
			"0.023": 0.0,
			"0.024": 0.0,
			"0.025": 0.0
		}
	}
}
