{
	 "smiles": "CC1=C(C=CC(=C1)C(O)=O)N1C(=O)C=CC1=O", 
	 "Tm": 477.15, 
	 "num_atms": 26, 
	 "gaussian": { 
		 "optdone": 1, 
		 "sigma_profile": "yes", 
		 "theory": "DFT", 
		 "functional": "B3LYP", 
		 "basiset": "6-31G**", 
		 "properties": { 
			 "R2extent": 4559.2668, 
			 "electric_dipole_moment_norm": 6.23990907466, 
			 "electric_quadrupole_moment_norm": 17.0025381399, 
			 "total_energy": -818.35904184, 
			 "HOMO_LUMO_gap": 0.14786, 
			 "cosmo_polarized_energy": -20.9, 
			 "cosmo_cavitation_energy": 31.62, 
			 "cosmo_dispersion_energy": -22.27, 
			 "cosmo_repulsion_energy": 1.71, 
			 "cosmo_total_nonelectrostatic_energy": 11.06, 
			 "SMD_solvation_energy": 8.42 
		},
		"coords": [
			{
				"x": 0.2181456238,
				"y": 2.4770394401,
				"z": 0.5654457717,
				"element": "C" 
			},
			{
				"x": -0.0231147288,
				"y": 1.3017315928,
				"z": -0.3475468014,
				"element": "C" 
			},
			{
				"x": 0.3165409774,
				"y": -0.0154959818,
				"z": 0.013265047,
				"element": "C" 
			},
			{
				"x": 0.0207440243,
				"y": -1.0951831677,
				"z": -0.8270130079,
				"element": "C" 
			},
			{
				"x": -0.5970332007,
				"y": -0.8824707943,
				"z": -2.0517648743,
				"element": "C" 
			},
			{
				"x": -0.8994408202,
				"y": 0.4215978679,
				"z": -2.4596618797,
				"element": "C" 
			},
			{
				"x": -0.6200623077,
				"y": 1.4899784686,
				"z": -1.5992515485,
				"element": "C" 
			},
			{
				"x": -1.5557140846,
				"y": 0.6022750923,
				"z": -3.7962021622,
				"element": "C" 
			},
			{
				"x": -1.4577762614,
				"y": 1.8347238575,
				"z": -4.3638435644,
				"element": "O" 
			},
			{
				"x": -2.1476457417,
				"y": -0.2819238267,
				"z": -4.3685133605,
				"element": "O" 
			},
			{
				"x": 0.9477817668,
				"y": -0.2835178006,
				"z": 1.2653114063,
				"element": "N" 
			},
			{
				"x": 2.2112120816,
				"y": 0.1986439495,
				"z": 1.6624714262,
				"element": "C" 
			},
			{
				"x": 2.9199296761,
				"y": 0.9527864153,
				"z": 1.0310413528,
				"element": "O" 
			},
			{
				"x": 2.4876759586,
				"y": -0.4161052977,
				"z": 3.0024671817,
				"element": "C" 
			},
			{
				"x": 1.4690401969,
				"y": -1.2137415545,
				"z": 3.3346813153,
				"element": "C" 
			},
			{
				"x": 0.4487972815,
				"y": -1.1842361057,
				"z": 2.2360369787,
				"element": "C" 
			},
			{
				"x": -0.5920500092,
				"y": -1.7980184605,
				"z": 2.1687333869,
				"element": "O" 
			},
			{
				"x": -0.3573398905,
				"y": 3.3458621819,
				"z": 0.2364505097,
				"element": "H" 
			},
			{
				"x": 1.2779183617,
				"y": 2.7490733775,
				"z": 0.5825469538,
				"element": "H" 
			},
			{
				"x": -0.0755817098,
				"y": 2.247675722,
				"z": 1.5949279843,
				"element": "H" 
			},
			{
				"x": 0.2752839435,
				"y": -2.099689808,
				"z": -0.5083297381,
				"element": "H" 
			},
			{
				"x": -0.8430441901,
				"y": -1.7083840282,
				"z": -2.7094747618,
				"element": "H" 
			},
			{
				"x": -0.9152981682,
				"y": 2.5017957436,
				"z": -1.8685098968,
				"element": "H" 
			},
			{
				"x": -0.819689148,
				"y": 2.3753557537,
				"z": -3.8780117363,
				"element": "H" 
			},
			{
				"x": 3.3982980463,
				"y": -0.2003697402,
				"z": 3.5456600794,
				"element": "H" 
			},
			{
				"x": 1.3282223225,
				"y": -1.8178028967,
				"z": 4.2212839379,
				"element": "H" 
			}
		],
		 "valence_orbital": [ 
			{
				"type": "occ",
				"energy": -0.30972,
				"method": "rhf"
			},
			{
				"type": "occ",
				"energy": -0.28547,
				"method": "rhf"
			},
			{
				"type": "occ",
				"energy": -0.27604,
				"method": "rhf"
			},
			{
				"type": "occ",
				"energy": -0.26958,
				"method": "rhf"
			},
			{
				"type": "occ",
				"energy": -0.25782,
				"method": "rhf"
			},
			{
				"type": "unocc",
				"energy": -0.10996,
				"method": "rhf"
			},
			{
				"type": "unocc",
				"energy": -0.05747,
				"method": "rhf"
			},
			{
				"type": "unocc",
				"energy": -0.02401,
				"method": "rhf"
			},
			{
				"type": "unocc",
				"energy": 0.031,
				"method": "rhf"
			},
			{
				"type": "unocc",
				"energy": 0.05091,
				"method": "rhf"
			}
		],
		"cosmo_sigma_profile": { 
			"-0.025": 0.0,
			"-0.024": 0.0,
			"-0.023": 0.0,
			"-0.022": 0.0,
			"-0.021": 0.0,
			"-0.02": 0.0,
			"-0.019": 0.339631936001,
			"-0.018": 0.671113590264,
			"-0.017": 1.18466977794,
			"-0.016": 0.596688130065,
			"-0.015": 0.958643802717,
			"-0.014": 0.59517978753,
			"-0.013": 1.12270821642,
			"-0.012": 1.94449967288,
			"-0.011": 1.05480342273,
			"-0.01": 3.77468073989,
			"-0.009": 4.62232504376,
			"-0.008": 6.00259327994,
			"-0.007": 9.49330391537,
			"-0.006": 14.5388710016,
			"-0.005": 16.1957459076,
			"-0.004": 15.5660586861,
			"-0.003": 18.6259110744,
			"-0.002": 17.6896953422,
			"-0.001": 19.8693389344,
			"0.0": 14.2087469296,
			"0.001": 11.6001327804,
			"0.002": 15.9355621673,
			"0.003": 7.97204440772,
			"0.004": 7.14513143402,
			"0.005": 5.84725128926,
			"0.006": 5.80484455355,
			"0.007": 6.01012593094,
			"0.008": 6.13471041,
			"0.009": 8.24742385753,
			"0.01": 13.2255937777,
			"0.011": 10.8671093148,
			"0.012": 5.04807699169,
			"0.013": 1.13787893554,
			"0.014": 0.00805245718759,
			"0.015": 0.0,
			"0.016": 0.0,
			"0.017": 0.0,
			"0.018": 0.0,
			"0.019": 0.0,
			"0.02": 0.0,
			"0.021": 0.0,
			"0.022": 0.0,
			"0.023": 0.0,
			"0.024": 0.0,
			"0.025": 0.0
		}
	}
}
