{
	 "smiles": "COC1=CC=C(C=C1CCl)C(C)=O", 
	 "Tm": 390.15, 
	 "num_atms": 24, 
	 "gaussian": { 
		 "optdone": 1, 
		 "sigma_profile": "yes", 
		 "theory": "DFT", 
		 "functional": "B3LYP", 
		 "basiset": "6-31G**", 
		 "properties": { 
			 "R2extent": 3656.7302, 
			 "electric_dipole_moment_norm": 2.99030775339, 
			 "electric_quadrupole_moment_norm": 24.9193716084, 
			 "total_energy": -998.334151271, 
			 "HOMO_LUMO_gap": 0.18453, 
			 "cosmo_polarized_energy": -12.72, 
			 "cosmo_cavitation_energy": 29.73, 
			 "cosmo_dispersion_energy": -21.2, 
			 "cosmo_repulsion_energy": 1.7, 
			 "cosmo_total_nonelectrostatic_energy": 10.23, 
			 "SMD_solvation_energy": 6.21 
		},
		"coords": [
			{
				"x": 1.2322006157,
				"y": -4.0968964104,
				"z": 1.0673931893,
				"element": "C" 
			},
			{
				"x": 0.7526183444,
				"y": -2.8750284042,
				"z": 1.6166488987,
				"element": "O" 
			},
			{
				"x": 0.4509086913,
				"y": -1.851373297,
				"z": 0.7800187396,
				"element": "C" 
			},
			{
				"x": 0.6059106168,
				"y": -1.9001616702,
				"z": -0.6131353719,
				"element": "C" 
			},
			{
				"x": 0.270700886,
				"y": -0.7934616029,
				"z": -1.3839361348,
				"element": "C" 
			},
			{
				"x": -0.2203157624,
				"y": 0.3805224452,
				"z": -0.7958501221,
				"element": "C" 
			},
			{
				"x": -0.3679347403,
				"y": 0.4137146719,
				"z": 0.598933084,
				"element": "C" 
			},
			{
				"x": -0.0396520328,
				"y": -0.6784866877,
				"z": 1.3992138827,
				"element": "C" 
			},
			{
				"x": -0.2014810041,
				"y": -0.6205751276,
				"z": 2.8845650527,
				"element": "C" 
			},
			{
				"x": -1.8072896381,
				"y": -1.3241067302,
				"z": 3.447003963,
				"element": "Cl" 
			},
			{
				"x": -0.5596849249,
				"y": 1.5329371338,
				"z": -1.6844987253,
				"element": "C" 
			},
			{
				"x": -1.1040476737,
				"y": 2.8070305737,
				"z": -1.0586677927,
				"element": "C" 
			},
			{
				"x": -0.4040740387,
				"y": 1.4540864909,
				"z": -2.8951060145,
				"element": "O" 
			},
			{
				"x": 2.1814178503,
				"y": -3.9534831927,
				"z": 0.5371849993,
				"element": "H" 
			},
			{
				"x": 1.3887204138,
				"y": -4.7628475048,
				"z": 1.9164689428,
				"element": "H" 
			},
			{
				"x": 0.498183088,
				"y": -4.5431872696,
				"z": 0.3864466029,
				"element": "H" 
			},
			{
				"x": 0.9837871771,
				"y": -2.7935505708,
				"z": -1.0953297709,
				"element": "H" 
			},
			{
				"x": 0.3840981215,
				"y": -0.8147408163,
				"z": -2.4627676275,
				"element": "H" 
			},
			{
				"x": -0.7493037386,
				"y": 1.3064878554,
				"z": 1.0857739694,
				"element": "H" 
			},
			{
				"x": -0.1965544548,
				"y": 0.4070042627,
				"z": 3.2467511737,
				"element": "H" 
			},
			{
				"x": 0.5581608798,
				"y": -1.203267862,
				"z": 3.4018830919,
				"element": "H" 
			},
			{
				"x": -2.0340133075,
				"y": 2.612066297,
				"z": -0.5131144061,
				"element": "H" 
			},
			{
				"x": -0.3895889349,
				"y": 3.2327646337,
				"z": -0.3452280778,
				"element": "H" 
			},
			{
				"x": -1.2952664342,
				"y": 3.5299527821,
				"z": -1.8520515462,
				"element": "H" 
			}
		],
		 "valence_orbital": [ 
			{
				"type": "occ",
				"energy": -0.29352,
				"method": "rhf"
			},
			{
				"type": "occ",
				"energy": -0.2897,
				"method": "rhf"
			},
			{
				"type": "occ",
				"energy": -0.26576,
				"method": "rhf"
			},
			{
				"type": "occ",
				"energy": -0.24639,
				"method": "rhf"
			},
			{
				"type": "occ",
				"energy": -0.23602,
				"method": "rhf"
			},
			{
				"type": "unocc",
				"energy": -0.05149,
				"method": "rhf"
			},
			{
				"type": "unocc",
				"energy": -0.03149,
				"method": "rhf"
			},
			{
				"type": "unocc",
				"energy": 0.02564,
				"method": "rhf"
			},
			{
				"type": "unocc",
				"energy": 0.05678,
				"method": "rhf"
			},
			{
				"type": "unocc",
				"energy": 0.08477,
				"method": "rhf"
			}
		],
		"cosmo_sigma_profile": { 
			"-0.025": 0.0,
			"-0.024": 0.0,
			"-0.023": 0.0,
			"-0.022": 0.0,
			"-0.021": 0.0,
			"-0.02": 0.0,
			"-0.019": 0.0,
			"-0.018": 0.0,
			"-0.017": 0.0,
			"-0.016": 0.0,
			"-0.015": 0.0,
			"-0.014": 0.0,
			"-0.013": 0.0,
			"-0.012": 0.0,
			"-0.011": 0.0,
			"-0.01": 0.0,
			"-0.009": 0.0197101325643,
			"-0.008": 2.81111973711,
			"-0.007": 8.93382087979,
			"-0.006": 22.344003639,
			"-0.005": 20.7681820431,
			"-0.004": 21.2704166976,
			"-0.003": 17.8728375509,
			"-0.002": 13.50372426,
			"-0.001": 13.8629770741,
			"0.0": 13.2598217051,
			"0.001": 13.0512910585,
			"0.002": 14.1259296427,
			"0.003": 18.6816901954,
			"0.004": 11.0034004139,
			"0.005": 8.01648977848,
			"0.006": 10.9772082321,
			"0.007": 11.3901562977,
			"0.008": 3.18719121466,
			"0.009": 1.67847794506,
			"0.01": 2.42454138685,
			"0.011": 2.46505051814,
			"0.012": 3.94473758271,
			"0.013": 2.35791676132,
			"0.014": 0.39618469518,
			"0.015": 0.0,
			"0.016": 0.0,
			"0.017": 0.0,
			"0.018": 0.0,
			"0.019": 0.0,
			"0.02": 0.0,
			"0.021": 0.0,
			"0.022": 0.0,
			"0.023": 0.0,
			"0.024": 0.0,
			"0.025": 0.0
		}
	}
}
