{
	 "smiles": "[O-][N+](=O)C1=CC(=C(CC(=O)C2=CC=CC=C2)C=C1Cl)[N+]([O-])=O", 
	 "Tm": 406.15, 
	 "num_atms": 31, 
	 "gaussian": { 
		 "optdone": 1, 
		 "sigma_profile": "yes", 
		 "theory": "DFT", 
		 "functional": "B3LYP", 
		 "basiset": "6-31G**", 
		 "properties": { 
			 "R2extent": 11441.3422, 
			 "electric_dipole_moment_norm": 7.24140064697, 
			 "electric_quadrupole_moment_norm": 19.8926034277, 
			 "total_energy": -1484.51054988, 
			 "HOMO_LUMO_gap": 0.15984, 
			 "cosmo_polarized_energy": -17.7, 
			 "cosmo_cavitation_energy": 39.45, 
			 "cosmo_dispersion_energy": -27.85, 
			 "cosmo_repulsion_energy": 2.1, 
			 "cosmo_total_nonelectrostatic_energy": 13.69, 
			 "SMD_solvation_energy": 10.98 
		},
		"coords": [
			{
				"x": -2.2312876021,
				"y": -4.580042797,
				"z": -4.8197421275,
				"element": "O" 
			},
			{
				"x": -2.6751702271,
				"y": -3.4436696533,
				"z": -4.704112052,
				"element": "N" 
			},
			{
				"x": -3.4499424522,
				"y": -2.8956852232,
				"z": -5.486171096,
				"element": "O" 
			},
			{
				"x": -2.22686744,
				"y": -2.640247764,
				"z": -3.5513708691,
				"element": "C" 
			},
			{
				"x": -2.1712897753,
				"y": -1.264566455,
				"z": -3.7423365088,
				"element": "C" 
			},
			{
				"x": -1.7414127303,
				"y": -0.4325040615,
				"z": -2.7179640532,
				"element": "C" 
			},
			{
				"x": -1.3555343355,
				"y": -0.939713391,
				"z": -1.462146688,
				"element": "C" 
			},
			{
				"x": -0.833965479,
				"y": -0.1134653904,
				"z": -0.3149606354,
				"element": "C" 
			},
			{
				"x": 0.5091888179,
				"y": 0.5724990312,
				"z": -0.6342956046,
				"element": "C" 
			},
			{
				"x": 1.0190665378,
				"y": 0.4542684491,
				"z": -1.7356085974,
				"element": "O" 
			},
			{
				"x": 1.1631022589,
				"y": 1.3656716247,
				"z": 0.4489769348,
				"element": "C" 
			},
			{
				"x": 0.5922293946,
				"y": 1.5436398686,
				"z": 1.7190060956,
				"element": "C" 
			},
			{
				"x": 1.2530355113,
				"y": 2.2984756878,
				"z": 2.6873146832,
				"element": "C" 
			},
			{
				"x": 2.4887015005,
				"y": 2.8800415497,
				"z": 2.3966192387,
				"element": "C" 
			},
			{
				"x": 3.0641742706,
				"y": 2.7082071274,
				"z": 1.1338209616,
				"element": "C" 
			},
			{
				"x": 2.4057754703,
				"y": 1.9567671184,
				"z": 0.1660923589,
				"element": "C" 
			},
			{
				"x": -1.4333692109,
				"y": -2.3258821624,
				"z": -1.3008720753,
				"element": "C" 
			},
			{
				"x": -1.860124483,
				"y": -3.1886801924,
				"z": -2.3136938631,
				"element": "C" 
			},
			{
				"x": -1.9603989644,
				"y": -4.8792498618,
				"z": -1.9333547889,
				"element": "Cl" 
			},
			{
				"x": -1.7466406057,
				"y": 1.0113674127,
				"z": -3.0209889216,
				"element": "N" 
			},
			{
				"x": -1.7737572885,
				"y": 1.7998599169,
				"z": -2.0763509146,
				"element": "O" 
			},
			{
				"x": -1.7569072087,
				"y": 1.3388573521,
				"z": -4.2031611783,
				"element": "O" 
			},
			{
				"x": -2.4633629043,
				"y": -0.8444365752,
				"z": -4.6951708636,
				"element": "H" 
			},
			{
				"x": -0.6934843598,
				"y": -0.7611927348,
				"z": 0.557174683,
				"element": "H" 
			},
			{
				"x": -1.552700695,
				"y": 0.6608837302,
				"z": -0.036350475,
				"element": "H" 
			},
			{
				"x": -0.369581062,
				"y": 1.1029283966,
				"z": 1.9602340164,
				"element": "H" 
			},
			{
				"x": 0.80382017,
				"y": 2.4337849202,
				"z": 3.6665229855,
				"element": "H" 
			},
			{
				"x": 3.0020514968,
				"y": 3.4676487294,
				"z": 3.1522751654,
				"element": "H" 
			},
			{
				"x": 4.024136069,
				"y": 3.162276778,
				"z": 0.9069835772,
				"element": "H" 
			},
			{
				"x": 2.8300839123,
				"y": 1.8119770986,
				"z": -0.821557472,
				"element": "H" 
			},
			{
				"x": -1.1492685863,
				"y": -2.7626185295,
				"z": -0.3500119158,
				"element": "H" 
			}
		],
		 "valence_orbital": [ 
			{
				"type": "occ",
				"energy": -0.29498,
				"method": "rhf"
			},
			{
				"type": "occ",
				"energy": -0.28856,
				"method": "rhf"
			},
			{
				"type": "occ",
				"energy": -0.27461,
				"method": "rhf"
			},
			{
				"type": "occ",
				"energy": -0.27127,
				"method": "rhf"
			},
			{
				"type": "occ",
				"energy": -0.27037,
				"method": "rhf"
			},
			{
				"type": "unocc",
				"energy": -0.11053,
				"method": "rhf"
			},
			{
				"type": "unocc",
				"energy": -0.09734,
				"method": "rhf"
			},
			{
				"type": "unocc",
				"energy": -0.07188,
				"method": "rhf"
			},
			{
				"type": "unocc",
				"energy": -0.04122,
				"method": "rhf"
			},
			{
				"type": "unocc",
				"energy": -0.02287,
				"method": "rhf"
			}
		],
		"cosmo_sigma_profile": { 
			"-0.025": 0.0,
			"-0.024": 0.0,
			"-0.023": 0.0,
			"-0.022": 0.0,
			"-0.021": 0.0,
			"-0.02": 0.0,
			"-0.019": 0.0,
			"-0.018": 0.0,
			"-0.017": 0.0,
			"-0.016": 0.0,
			"-0.015": 0.0,
			"-0.014": 0.0,
			"-0.013": 0.0,
			"-0.012": 0.0,
			"-0.011": 0.46980259667,
			"-0.01": 2.44322819388,
			"-0.009": 4.22160304551,
			"-0.008": 9.33988496726,
			"-0.007": 13.5002799575,
			"-0.006": 17.8421530985,
			"-0.005": 20.9602110438,
			"-0.004": 24.403168391,
			"-0.003": 23.8751170115,
			"-0.002": 21.0577407316,
			"-0.001": 15.7411706701,
			"0.0": 17.3914946314,
			"0.001": 19.9589346884,
			"0.002": 24.0633300608,
			"0.003": 21.0979196745,
			"0.004": 18.8096896194,
			"0.005": 9.29929689196,
			"0.006": 12.9392436809,
			"0.007": 19.1371951136,
			"0.008": 10.7637886829,
			"0.009": 6.84457249168,
			"0.01": 2.64528842054,
			"0.011": 2.74410937612,
			"0.012": 0.21566244863,
			"0.013": 0.0,
			"0.014": 0.0,
			"0.015": 0.0,
			"0.016": 0.0,
			"0.017": 0.0,
			"0.018": 0.0,
			"0.019": 0.0,
			"0.02": 0.0,
			"0.021": 0.0,
			"0.022": 0.0,
			"0.023": 0.0,
			"0.024": 0.0,
			"0.025": 0.0
		}
	}
}
