{
	 "smiles": "BrC1=NNC=C1", 
	 "Tm": 348.15, 
	 "num_atms": 9, 
	 "gaussian": { 
		 "optdone": 1, 
		 "sigma_profile": "yes", 
		 "theory": "DFT", 
		 "functional": "B3LYP", 
		 "basiset": "6-31G**", 
		 "properties": { 
			 "R2extent": 2025.5955, 
			 "electric_dipole_moment_norm": 3.72491050228, 
			 "electric_quadrupole_moment_norm": 5.90917767968, 
			 "total_energy": -2797.00033363, 
			 "HOMO_LUMO_gap": 0.25125, 
			 "cosmo_polarized_energy": -10.07, 
			 "cosmo_cavitation_energy": 15.6, 
			 "cosmo_dispersion_energy": -12.46, 
			 "cosmo_repulsion_energy": 1.08, 
			 "cosmo_total_nonelectrostatic_energy": 4.21, 
			 "SMD_solvation_energy": 1.1 
		},
		"coords": [
			{
				"x": -2.7385284386,
				"y": -1.4112109501,
				"z": 1.7810047036,
				"element": "Br" 
			},
			{
				"x": -1.3924567357,
				"y": -0.2464520497,
				"z": 1.1546192442,
				"element": "C" 
			},
			{
				"x": -1.4215653887,
				"y": 0.2060354522,
				"z": -0.091009269,
				"element": "N" 
			},
			{
				"x": -0.3227516031,
				"y": 0.989530601,
				"z": -0.1624286106,
				"element": "N" 
			},
			{
				"x": 0.3838984264,
				"y": 1.0365595651,
				"z": 0.9969471868,
				"element": "C" 
			},
			{
				"x": -0.2885623572,
				"y": 0.2326300649,
				"z": 1.8955150586,
				"element": "C" 
			},
			{
				"x": -0.1207018191,
				"y": 1.4581705161,
				"z": -1.0317269443,
				"element": "H" 
			},
			{
				"x": 1.2868979751,
				"y": 1.6215219106,
				"z": 1.0940470639,
				"element": "H" 
			},
			{
				"x": -0.0347300591,
				"y": 0.01841489,
				"z": 2.9210315667,
				"element": "H" 
			}
		],
		 "valence_orbital": [ 
			{
				"type": "occ",
				"energy": -0.32416,
				"method": "rhf"
			},
			{
				"type": "occ",
				"energy": -0.30512,
				"method": "rhf"
			},
			{
				"type": "occ",
				"energy": -0.2847,
				"method": "rhf"
			},
			{
				"type": "occ",
				"energy": -0.26139,
				"method": "rhf"
			},
			{
				"type": "occ",
				"energy": -0.24467,
				"method": "rhf"
			},
			{
				"type": "unocc",
				"energy": 0.00658,
				"method": "rhf"
			},
			{
				"type": "unocc",
				"energy": 0.01697,
				"method": "rhf"
			},
			{
				"type": "unocc",
				"energy": 0.0573,
				"method": "rhf"
			},
			{
				"type": "unocc",
				"energy": 0.08146,
				"method": "rhf"
			},
			{
				"type": "unocc",
				"energy": 0.12415,
				"method": "rhf"
			}
		],
		"cosmo_sigma_profile": { 
			"-0.025": 0.0,
			"-0.024": 0.0,
			"-0.023": 0.0,
			"-0.022": 0.0,
			"-0.021": 0.0,
			"-0.02": 0.0,
			"-0.019": 0.0,
			"-0.018": 0.0201087480785,
			"-0.017": 1.47375779286,
			"-0.016": 1.84876137755,
			"-0.015": 0.941598000038,
			"-0.014": 1.63901181217,
			"-0.013": 0.822376449787,
			"-0.012": 0.627092348168,
			"-0.011": 1.22234407518,
			"-0.01": 2.21734714292,
			"-0.009": 3.60148047663,
			"-0.008": 2.79176694662,
			"-0.007": 3.79676984082,
			"-0.006": 3.62073393798,
			"-0.005": 4.43213710038,
			"-0.004": 5.10490378894,
			"-0.003": 4.6168779447,
			"-0.002": 5.75865175634,
			"-0.001": 4.63457986831,
			"0.0": 5.69459593604,
			"0.001": 7.41998176145,
			"0.002": 12.121811344,
			"0.003": 14.9005517361,
			"0.004": 17.2899606994,
			"0.005": 8.09092640637,
			"0.006": 3.11124173734,
			"0.007": 2.22173980244,
			"0.008": 1.07769135503,
			"0.009": 1.60155302804,
			"0.01": 1.3404602767,
			"0.011": 0.865270390277,
			"0.012": 1.19507982884,
			"0.013": 1.20600160255,
			"0.014": 0.996297394655,
			"0.015": 0.60046571984,
			"0.016": 0.0220267414044,
			"0.017": 0.0,
			"0.018": 0.0,
			"0.019": 0.0,
			"0.02": 0.0,
			"0.021": 0.0,
			"0.022": 0.0,
			"0.023": 0.0,
			"0.024": 0.0,
			"0.025": 0.0
		}
	}
}
