{
	 "smiles": "OC(=O)CCCCN1CCOCC1", 
	 "Tm": 373.15, 
	 "num_atms": 30, 
	 "gaussian": { 
		 "optdone": 1, 
		 "sigma_profile": "yes", 
		 "theory": "DFT", 
		 "functional": "B3LYP", 
		 "basiset": "6-31G**", 
		 "properties": { 
			 "R2extent": 4135.5198, 
			 "electric_dipole_moment_norm": 3.06163768921, 
			 "electric_quadrupole_moment_norm": 23.2811108646, 
			 "total_energy": -633.600739255, 
			 "HOMO_LUMO_gap": 0.21598, 
			 "cosmo_polarized_energy": -18.04, 
			 "cosmo_cavitation_energy": 30.92, 
			 "cosmo_dispersion_energy": -22.48, 
			 "cosmo_repulsion_energy": 1.81, 
			 "cosmo_total_nonelectrostatic_energy": 10.25, 
			 "SMD_solvation_energy": 3.48 
		},
		"coords": [
			{
				"x": 3.0210153308,
				"y": -0.5353692111,
				"z": 3.2929067067,
				"element": "O" 
			},
			{
				"x": 2.614330946,
				"y": -0.9481472122,
				"z": 2.0602385209,
				"element": "C" 
			},
			{
				"x": 2.9133873628,
				"y": -2.0485268318,
				"z": 1.6685685494,
				"element": "O" 
			},
			{
				"x": 1.8101552646,
				"y": 0.0758283036,
				"z": 1.2655425036,
				"element": "C" 
			},
			{
				"x": 1.239798346,
				"y": -0.4783957397,
				"z": -0.046510478,
				"element": "C" 
			},
			{
				"x": 0.0925189374,
				"y": -1.490497469,
				"z": 0.1368273448,
				"element": "C" 
			},
			{
				"x": -1.2551799541,
				"y": -0.939683384,
				"z": 0.6518665534,
				"element": "C" 
			},
			{
				"x": -2.2029591671,
				"y": -0.6051277165,
				"z": -0.4117053913,
				"element": "N" 
			},
			{
				"x": -1.780357804,
				"y": 0.5269053629,
				"z": -1.2437292869,
				"element": "C" 
			},
			{
				"x": -2.9679622822,
				"y": 1.0978254706,
				"z": -2.0104744895,
				"element": "C" 
			},
			{
				"x": -3.9584500463,
				"y": 1.6500412215,
				"z": -1.1457781667,
				"element": "O" 
			},
			{
				"x": -4.0485076815,
				"y": 0.9997116151,
				"z": 0.1217526235,
				"element": "C" 
			},
			{
				"x": -3.5990821565,
				"y": -0.4589056989,
				"z": 0.0439595837,
				"element": "C" 
			},
			{
				"x": 2.7075930765,
				"y": 0.3643292029,
				"z": 3.4631394992,
				"element": "H" 
			},
			{
				"x": 2.4792320231,
				"y": 0.9234767168,
				"z": 1.0600955276,
				"element": "H" 
			},
			{
				"x": 1.0126318987,
				"y": 0.4730312607,
				"z": 1.908499321,
				"element": "H" 
			},
			{
				"x": 2.0558844816,
				"y": -0.9726024194,
				"z": -0.5833522461,
				"element": "H" 
			},
			{
				"x": 0.9180004077,
				"y": 0.3661755311,
				"z": -0.6639348802,
				"element": "H" 
			},
			{
				"x": -0.1024104205,
				"y": -1.9981807287,
				"z": -0.8146074219,
				"element": "H" 
			},
			{
				"x": 0.4451883685,
				"y": -2.2660984853,
				"z": 0.8243960719,
				"element": "H" 
			},
			{
				"x": -1.7284317026,
				"y": -1.7164587684,
				"z": 1.2611401041,
				"element": "H" 
			},
			{
				"x": -1.0789819533,
				"y": -0.0786463199,
				"z": 1.3317849525,
				"element": "H" 
			},
			{
				"x": -1.3344583074,
				"y": 1.3419418854,
				"z": -0.6398643551,
				"element": "H" 
			},
			{
				"x": -1.013126827,
				"y": 0.2028314899,
				"z": -1.9577479084,
				"element": "H" 
			},
			{
				"x": -2.637257163,
				"y": 1.908516182,
				"z": -2.6677589945,
				"element": "H" 
			},
			{
				"x": -3.4051790244,
				"y": 0.3103442059,
				"z": -2.6441084502,
				"element": "H" 
			},
			{
				"x": -5.0951422388,
				"y": 1.0650811632,
				"z": 0.4408007399,
				"element": "H" 
			},
			{
				"x": -3.441265558,
				"y": 1.5399554441,
				"z": 0.8662592303,
				"element": "H" 
			},
			{
				"x": -4.2687980775,
				"y": -0.994694826,
				"z": -0.6430485177,
				"element": "H" 
			},
			{
				"x": -3.7144860797,
				"y": -0.9292602448,
				"z": 1.0257427542,
				"element": "H" 
			}
		],
		 "valence_orbital": [ 
			{
				"type": "occ",
				"energy": -0.31649,
				"method": "rhf"
			},
			{
				"type": "occ",
				"energy": -0.30035,
				"method": "rhf"
			},
			{
				"type": "occ",
				"energy": -0.27283,
				"method": "rhf"
			},
			{
				"type": "occ",
				"energy": -0.24643,
				"method": "rhf"
			},
			{
				"type": "occ",
				"energy": -0.2081,
				"method": "rhf"
			},
			{
				"type": "unocc",
				"energy": 0.00788,
				"method": "rhf"
			},
			{
				"type": "unocc",
				"energy": 0.05189,
				"method": "rhf"
			},
			{
				"type": "unocc",
				"energy": 0.0753,
				"method": "rhf"
			},
			{
				"type": "unocc",
				"energy": 0.09716,
				"method": "rhf"
			},
			{
				"type": "unocc",
				"energy": 0.10131,
				"method": "rhf"
			}
		],
		"cosmo_sigma_profile": { 
			"-0.025": 0.0,
			"-0.024": 0.0,
			"-0.023": 0.0,
			"-0.022": 0.0,
			"-0.021": 0.0,
			"-0.02": 0.0,
			"-0.019": 0.305626791727,
			"-0.018": 1.23116750683,
			"-0.017": 0.735830601806,
			"-0.016": 0.906933875461,
			"-0.015": 1.42136487831,
			"-0.014": 0.843471347848,
			"-0.013": 1.05547002106,
			"-0.012": 1.35081928245,
			"-0.011": 0.741498077241,
			"-0.01": 1.47347950067,
			"-0.009": 1.87309629956,
			"-0.008": 1.32061915843,
			"-0.007": 2.74802651814,
			"-0.006": 4.58226587945,
			"-0.005": 9.13242287737,
			"-0.004": 18.6927155235,
			"-0.003": 34.3557454549,
			"-0.002": 41.5796575309,
			"-0.001": 23.2397721459,
			"0.0": 15.1347088282,
			"0.001": 9.15844014509,
			"0.002": 6.34360203589,
			"0.003": 5.45480397336,
			"0.004": 4.68357407422,
			"0.005": 4.8659282622,
			"0.006": 4.10810541739,
			"0.007": 4.83481610216,
			"0.008": 4.86869767876,
			"0.009": 4.39381023097,
			"0.01": 6.08927493638,
			"0.011": 7.09936174629,
			"0.012": 7.57342572686,
			"0.013": 4.27555169542,
			"0.014": 1.98266405832,
			"0.015": 0.624457589836,
			"0.016": 0.0729954400134,
			"0.017": 0.0,
			"0.018": 0.0,
			"0.019": 0.0,
			"0.02": 0.0,
			"0.021": 0.0,
			"0.022": 0.0,
			"0.023": 0.0,
			"0.024": 0.0,
			"0.025": 0.0
		}
	}
}
