{
	 "smiles": "OC(=O)C1=CC(O)=CS1", 
	 "Tm": 480.15, 
	 "num_atms": 13, 
	 "gaussian": { 
		 "optdone": 1, 
		 "sigma_profile": "yes", 
		 "theory": "DFT", 
		 "functional": "B3LYP", 
		 "basiset": "6-31G**", 
		 "properties": { 
			 "R2extent": 1879.4497, 
			 "electric_dipole_moment_norm": 3.26634973326, 
			 "electric_quadrupole_moment_norm": 12.4373801277, 
			 "total_energy": -816.779647803, 
			 "HOMO_LUMO_gap": 0.17347, 
			 "cosmo_polarized_energy": -16.36, 
			 "cosmo_cavitation_energy": 19.63, 
			 "cosmo_dispersion_energy": -15.36, 
			 "cosmo_repulsion_energy": 1.21, 
			 "cosmo_total_nonelectrostatic_energy": 5.49, 
			 "SMD_solvation_energy": 5.13 
		},
		"coords": [
			{
				"x": 0.2362129474,
				"y": -0.5112000646,
				"z": 3.4454088962,
				"element": "O" 
			},
			{
				"x": -0.1402154037,
				"y": 0.0595970901,
				"z": 2.2712380265,
				"element": "C" 
			},
			{
				"x": -1.2127815473,
				"y": 0.6116232292,
				"z": 2.1835054521,
				"element": "O" 
			},
			{
				"x": 0.7980284025,
				"y": -0.0224983874,
				"z": 1.1277492859,
				"element": "C" 
			},
			{
				"x": 0.5389047484,
				"y": 0.5116867483,
				"z": -0.1110917178,
				"element": "C" 
			},
			{
				"x": 1.5976503936,
				"y": 0.3002023542,
				"z": -1.0397117036,
				"element": "C" 
			},
			{
				"x": 1.6098693837,
				"y": 0.7203853851,
				"z": -2.3345315386,
				"element": "O" 
			},
			{
				"x": 2.6542929031,
				"y": -0.3940691771,
				"z": -0.4981864689,
				"element": "C" 
			},
			{
				"x": 2.3630072959,
				"y": -0.7967805429,
				"z": 1.1574061002,
				"element": "S" 
			},
			{
				"x": 1.1116195966,
				"y": -0.9200075172,
				"z": 3.3884966185,
				"element": "H" 
			},
			{
				"x": -0.3872480935,
				"y": 1.0340315836,
				"z": -0.323599353,
				"element": "H" 
			},
			{
				"x": 0.7859920107,
				"y": 1.1857545049,
				"z": -2.5258855362,
				"element": "H" 
			},
			{
				"x": 3.5725673627,
				"y": -0.6811252063,
				"z": -0.9886980615,
				"element": "H" 
			}
		],
		 "valence_orbital": [ 
			{
				"type": "occ",
				"energy": -0.36133,
				"method": "rhf"
			},
			{
				"type": "occ",
				"energy": -0.3209,
				"method": "rhf"
			},
			{
				"type": "occ",
				"energy": -0.28064,
				"method": "rhf"
			},
			{
				"type": "occ",
				"energy": -0.26773,
				"method": "rhf"
			},
			{
				"type": "occ",
				"energy": -0.23733,
				"method": "rhf"
			},
			{
				"type": "unocc",
				"energy": -0.06386,
				"method": "rhf"
			},
			{
				"type": "unocc",
				"energy": -0.01216,
				"method": "rhf"
			},
			{
				"type": "unocc",
				"energy": 0.04012,
				"method": "rhf"
			},
			{
				"type": "unocc",
				"energy": 0.05712,
				"method": "rhf"
			},
			{
				"type": "unocc",
				"energy": 0.06058,
				"method": "rhf"
			}
		],
		"cosmo_sigma_profile": { 
			"-0.025": 0.0,
			"-0.024": 0.0,
			"-0.023": 0.0,
			"-0.022": 0.0,
			"-0.021": 0.0,
			"-0.02": 0.0,
			"-0.019": 0.366410636161,
			"-0.018": 2.04716677017,
			"-0.017": 1.98108853241,
			"-0.016": 1.49449225351,
			"-0.015": 2.15643903643,
			"-0.014": 1.80463956958,
			"-0.013": 2.1047428714,
			"-0.012": 2.12305405759,
			"-0.011": 2.05586541124,
			"-0.01": 2.6271359583,
			"-0.009": 4.02004935026,
			"-0.008": 4.34990848139,
			"-0.007": 4.38277456256,
			"-0.006": 4.37330784989,
			"-0.005": 4.32727584324,
			"-0.004": 4.434518893,
			"-0.003": 6.17190397694,
			"-0.002": 6.75965328956,
			"-0.001": 6.59645389716,
			"0.0": 9.39882407329,
			"0.001": 12.6915349922,
			"0.002": 16.5160068831,
			"0.003": 11.8872950406,
			"0.004": 4.96571479095,
			"0.005": 3.56189578643,
			"0.006": 3.76285172503,
			"0.007": 3.8695588449,
			"0.008": 4.35763075264,
			"0.009": 5.29817989379,
			"0.01": 5.92100270272,
			"0.011": 7.2831043105,
			"0.012": 4.6594409754,
			"0.013": 1.18894067564,
			"0.014": 0.0,
			"0.015": 0.0,
			"0.016": 0.0,
			"0.017": 0.0,
			"0.018": 0.0,
			"0.019": 0.0,
			"0.02": 0.0,
			"0.021": 0.0,
			"0.022": 0.0,
			"0.023": 0.0,
			"0.024": 0.0,
			"0.025": 0.0
		}
	}
}
