{
	 "smiles": "CC1=C(F)C=C(C=C1)C(=O)NCCN", 
	 "Tm": 345.15, 
	 "num_atms": 27, 
	 "gaussian": { 
		 "optdone": 1, 
		 "sigma_profile": "yes", 
		 "theory": "DFT", 
		 "functional": "B3LYP", 
		 "basiset": "6-31G**", 
		 "properties": { 
			 "R2extent": 4088.9474, 
			 "electric_dipole_moment_norm": 4.51041066866, 
			 "electric_quadrupole_moment_norm": 32.6335200607, 
			 "total_energy": -673.478993685, 
			 "HOMO_LUMO_gap": 0.20096, 
			 "cosmo_polarized_energy": -14.22, 
			 "cosmo_cavitation_energy": 30.9, 
			 "cosmo_dispersion_energy": -22.12, 
			 "cosmo_repulsion_energy": 1.77, 
			 "cosmo_total_nonelectrostatic_energy": 10.55, 
			 "SMD_solvation_energy": 4.98 
		},
		"coords": [
			{
				"x": 1.1538326745,
				"y": 1.7939729225,
				"z": -2.7671310027,
				"element": "C" 
			},
			{
				"x": 0.633304232,
				"y": 0.8531999824,
				"z": -1.712290649,
				"element": "C" 
			},
			{
				"x": 1.2386059057,
				"y": 0.7956663719,
				"z": -0.4550291282,
				"element": "C" 
			},
			{
				"x": 2.305314432,
				"y": 1.599138491,
				"z": -0.2231945591,
				"element": "F" 
			},
			{
				"x": 0.8077330406,
				"y": -0.0422221705,
				"z": 0.56282213,
				"element": "C" 
			},
			{
				"x": -0.2865555769,
				"y": -0.8873092879,
				"z": 0.3314286726,
				"element": "C" 
			},
			{
				"x": -0.899721205,
				"y": -0.8736080877,
				"z": -0.9273403272,
				"element": "C" 
			},
			{
				"x": -0.4519619168,
				"y": -0.0073561739,
				"z": -1.9225907268,
				"element": "C" 
			},
			{
				"x": -0.7782214931,
				"y": -1.8915869393,
				"z": 1.339646472,
				"element": "C" 
			},
			{
				"x": -1.1938280876,
				"y": -2.9869946631,
				"z": 0.9695884413,
				"element": "O" 
			},
			{
				"x": -0.7131323241,
				"y": -1.5704576755,
				"z": 2.6717126967,
				"element": "N" 
			},
			{
				"x": -0.7273648331,
				"y": -0.258576394,
				"z": 3.302622247,
				"element": "C" 
			},
			{
				"x": -1.872091107,
				"y": -0.1742404609,
				"z": 4.3211762399,
				"element": "C" 
			},
			{
				"x": -1.774460156,
				"y": -1.2854886385,
				"z": 5.2725404771,
				"element": "N" 
			},
			{
				"x": 1.1043337263,
				"y": 2.8355461421,
				"z": -2.4312242006,
				"element": "H" 
			},
			{
				"x": 0.5750461769,
				"y": 1.703963394,
				"z": -3.6894676557,
				"element": "H" 
			},
			{
				"x": 2.204128759,
				"y": 1.5872278599,
				"z": -2.9994122072,
				"element": "H" 
			},
			{
				"x": 1.3466490218,
				"y": -0.0448528863,
				"z": 1.503481654,
				"element": "H" 
			},
			{
				"x": -1.7200157513,
				"y": -1.5585373823,
				"z": -1.1110343383,
				"element": "H" 
			},
			{
				"x": -0.9451474411,
				"y": 0.0007224541,
				"z": -2.8910866133,
				"element": "H" 
			},
			{
				"x": -1.0497649365,
				"y": -2.3101836577,
				"z": 3.2816870413,
				"element": "H" 
			},
			{
				"x": -0.8506770345,
				"y": 0.5214592222,
				"z": 2.548380522,
				"element": "H" 
			},
			{
				"x": 0.2268059824,
				"y": -0.0628265957,
				"z": 3.8171694938,
				"element": "H" 
			},
			{
				"x": -1.8569671993,
				"y": 0.8265836158,
				"z": 4.7846200314,
				"element": "H" 
			},
			{
				"x": -2.8242880535,
				"y": -0.2722766343,
				"z": 3.78825481,
				"element": "H" 
			},
			{
				"x": -1.0293810138,
				"y": -1.116251879,
				"z": 5.9441621441,
				"element": "H" 
			},
			{
				"x": -2.6342758216,
				"y": -1.3825109296,
				"z": 5.803708335,
				"element": "H" 
			}
		],
		 "valence_orbital": [ 
			{
				"type": "occ",
				"energy": -0.2598,
				"method": "rhf"
			},
			{
				"type": "occ",
				"energy": -0.25442,
				"method": "rhf"
			},
			{
				"type": "occ",
				"energy": -0.24846,
				"method": "rhf"
			},
			{
				"type": "occ",
				"energy": -0.23968,
				"method": "rhf"
			},
			{
				"type": "occ",
				"energy": -0.22907,
				"method": "rhf"
			},
			{
				"type": "unocc",
				"energy": -0.02811,
				"method": "rhf"
			},
			{
				"type": "unocc",
				"energy": -0.00094,
				"method": "rhf"
			},
			{
				"type": "unocc",
				"energy": 0.05991,
				"method": "rhf"
			},
			{
				"type": "unocc",
				"energy": 0.0704,
				"method": "rhf"
			},
			{
				"type": "unocc",
				"energy": 0.09476,
				"method": "rhf"
			}
		],
		"cosmo_sigma_profile": { 
			"-0.025": 0.0,
			"-0.024": 0.0,
			"-0.023": 0.0,
			"-0.022": 0.0,
			"-0.021": 0.0,
			"-0.02": 0.0,
			"-0.019": 0.0,
			"-0.018": 0.0,
			"-0.017": 0.0,
			"-0.016": 0.0,
			"-0.015": 0.0,
			"-0.014": 0.0,
			"-0.013": 0.0,
			"-0.012": 0.0,
			"-0.011": 0.315725771725,
			"-0.01": 2.23417127939,
			"-0.009": 3.29625138177,
			"-0.008": 2.57345256239,
			"-0.007": 5.40497007348,
			"-0.006": 8.0969564416,
			"-0.005": 16.4449949114,
			"-0.004": 22.949788576,
			"-0.003": 26.9212424739,
			"-0.002": 20.0832367609,
			"-0.001": 20.983857513,
			"0.0": 20.3003138612,
			"0.001": 14.829137583,
			"0.002": 14.4372844469,
			"0.003": 13.7418158998,
			"0.004": 16.7265898472,
			"0.005": 7.31660805425,
			"0.006": 2.81607573216,
			"0.007": 2.30744599101,
			"0.008": 2.52692244249,
			"0.009": 2.29165472955,
			"0.01": 1.48883364129,
			"0.011": 1.92386679778,
			"0.012": 2.70244409964,
			"0.013": 3.33547437951,
			"0.014": 5.51897283033,
			"0.015": 1.76110848841,
			"0.016": 0.0,
			"0.017": 0.0,
			"0.018": 0.0,
			"0.019": 0.0,
			"0.02": 0.0,
			"0.021": 0.0,
			"0.022": 0.0,
			"0.023": 0.0,
			"0.024": 0.0,
			"0.025": 0.0
		}
	}
}
