{
	 "smiles": "CCC(=O)C1=CC=CC(Cl)=C1", 
	 "Tm": 319.15, 
	 "num_atms": 20, 
	 "gaussian": { 
		 "optdone": 1, 
		 "sigma_profile": "yes", 
		 "theory": "DFT", 
		 "functional": "B3LYP", 
		 "basiset": "6-31G**", 
		 "properties": { 
			 "R2extent": 2841.5284, 
			 "electric_dipole_moment_norm": 3.92736576601, 
			 "electric_quadrupole_moment_norm": 4.85772196199, 
			 "total_energy": -883.804443414, 
			 "HOMO_LUMO_gap": 0.18677, 
			 "cosmo_polarized_energy": -8.05, 
			 "cosmo_cavitation_energy": 25.63, 
			 "cosmo_dispersion_energy": -18.72, 
			 "cosmo_repulsion_energy": 1.51, 
			 "cosmo_total_nonelectrostatic_energy": 8.42, 
			 "SMD_solvation_energy": 4.71 
		},
		"coords": [
			{
				"x": 0.2200457725,
				"y": -0.4405751898,
				"z": 3.3189568258,
				"element": "C" 
			},
			{
				"x": 1.0420648659,
				"y": 0.6511622683,
				"z": 2.6061183864,
				"element": "C" 
			},
			{
				"x": 0.9873654467,
				"y": 0.4980208049,
				"z": 1.0913392502,
				"element": "C" 
			},
			{
				"x": 1.8845749181,
				"y": -0.0837148895,
				"z": 0.5001306522,
				"element": "O" 
			},
			{
				"x": -0.1968402647,
				"y": 1.0297777077,
				"z": 0.3293630755,
				"element": "C" 
			},
			{
				"x": -1.2485825035,
				"y": 1.7352028932,
				"z": 0.9315170382,
				"element": "C" 
			},
			{
				"x": -2.3146432928,
				"y": 2.1991187103,
				"z": 0.1600547254,
				"element": "C" 
			},
			{
				"x": -2.3464257394,
				"y": 1.9686187826,
				"z": -1.2148400498,
				"element": "C" 
			},
			{
				"x": -1.2941755121,
				"y": 1.2654163129,
				"z": -1.8073696299,
				"element": "C" 
			},
			{
				"x": -1.3288355581,
				"y": 0.9722360953,
				"z": -3.5402196232,
				"element": "Cl" 
			},
			{
				"x": -0.2261776481,
				"y": 0.7957775164,
				"z": -1.054515771,
				"element": "C" 
			},
			{
				"x": -0.8420069167,
				"y": -0.3831321863,
				"z": 3.0617404006,
				"element": "H" 
			},
			{
				"x": 0.3114896498,
				"y": -0.3388219844,
				"z": 4.4043141573,
				"element": "H" 
			},
			{
				"x": 0.5809721906,
				"y": -1.4347598829,
				"z": 3.039620226,
				"element": "H" 
			},
			{
				"x": 0.696647533,
				"y": 1.6445025436,
				"z": 2.9124801759,
				"element": "H" 
			},
			{
				"x": 2.0949121409,
				"y": 0.5621675608,
				"z": 2.8859003399,
				"element": "H" 
			},
			{
				"x": -1.2438969426,
				"y": 1.9272523639,
				"z": 1.9986458982,
				"element": "H" 
			},
			{
				"x": -3.1272913732,
				"y": 2.745382708,
				"z": 0.6291969251,
				"element": "H" 
			},
			{
				"x": -3.1704842615,
				"y": 2.3263535164,
				"z": -1.8222643325,
				"element": "H" 
			},
			{
				"x": 0.5927874951,
				"y": 0.2505143489,
				"z": -1.5088686704,
				"element": "H" 
			}
		],
		 "valence_orbital": [ 
			{
				"type": "occ",
				"energy": -0.33549,
				"method": "rhf"
			},
			{
				"type": "occ",
				"energy": -0.31672,
				"method": "rhf"
			},
			{
				"type": "occ",
				"energy": -0.27093,
				"method": "rhf"
			},
			{
				"type": "occ",
				"energy": -0.25684,
				"method": "rhf"
			},
			{
				"type": "occ",
				"energy": -0.25266,
				"method": "rhf"
			},
			{
				"type": "unocc",
				"energy": -0.06589,
				"method": "rhf"
			},
			{
				"type": "unocc",
				"energy": -0.02258,
				"method": "rhf"
			},
			{
				"type": "unocc",
				"energy": 0.02602,
				"method": "rhf"
			},
			{
				"type": "unocc",
				"energy": 0.02807,
				"method": "rhf"
			},
			{
				"type": "unocc",
				"energy": 0.08444,
				"method": "rhf"
			}
		],
		"cosmo_sigma_profile": { 
			"-0.025": 0.0,
			"-0.024": 0.0,
			"-0.023": 0.0,
			"-0.022": 0.0,
			"-0.021": 0.0,
			"-0.02": 0.0,
			"-0.019": 0.0,
			"-0.018": 0.0,
			"-0.017": 0.0,
			"-0.016": 0.0,
			"-0.015": 0.0,
			"-0.014": 0.0,
			"-0.013": 0.0,
			"-0.012": 0.0,
			"-0.011": 0.0,
			"-0.01": 0.0,
			"-0.009": 0.0,
			"-0.008": 2.22751915308,
			"-0.007": 6.36337652017,
			"-0.006": 9.43108601929,
			"-0.005": 9.68674660654,
			"-0.004": 13.5522484572,
			"-0.003": 17.3116978404,
			"-0.002": 21.7940708275,
			"-0.001": 19.6545218664,
			"0.0": 19.3276136333,
			"0.001": 20.6467537033,
			"0.002": 19.8260797258,
			"0.003": 12.7623862748,
			"0.004": 11.4810219575,
			"0.005": 5.92576203805,
			"0.006": 1.64405133901,
			"0.007": 2.03354727758,
			"0.008": 1.47800895718,
			"0.009": 1.16577939914,
			"0.01": 2.63889319075,
			"0.011": 3.23872987927,
			"0.012": 3.04481429544,
			"0.013": 1.16698701444,
			"0.014": 0.053793303925,
			"0.015": 0.0,
			"0.016": 0.0,
			"0.017": 0.0,
			"0.018": 0.0,
			"0.019": 0.0,
			"0.02": 0.0,
			"0.021": 0.0,
			"0.022": 0.0,
			"0.023": 0.0,
			"0.024": 0.0,
			"0.025": 0.0
		}
	}
}
