{
	 "smiles": "ClC1=CC=C(C=C(/C#N)C2=NC3=C(S2)C=CC=C3)C=C1", 
	 "Tm": 423.15, 
	 "num_atms": 29, 
	 "gaussian": { 
		 "optdone": 1, 
		 "sigma_profile": "yes", 
		 "theory": "DFT", 
		 "functional": "B3LYP", 
		 "basiset": "6-31G**", 
		 "properties": { 
			 "R2extent": 11332.3069, 
			 "electric_dipole_moment_norm": 3.48265996043, 
			 "electric_quadrupole_moment_norm": 13.2437986635, 
			 "total_energy": -1582.99277894, 
			 "HOMO_LUMO_gap": 0.12772, 
			 "cosmo_polarized_energy": -10.34, 
			 "cosmo_cavitation_energy": 38.71, 
			 "cosmo_dispersion_energy": -28.36, 
			 "cosmo_repulsion_energy": 2.09, 
			 "cosmo_total_nonelectrostatic_energy": 12.44, 
			 "SMD_solvation_energy": 5.29 
		},
		"coords": [
			{
				"x": 3.6887282137,
				"y": 2.7850610791,
				"z": 5.0195912312,
				"element": "Cl" 
			},
			{
				"x": 2.5073502738,
				"y": 2.148855067,
				"z": 3.8944346766,
				"element": "C" 
			},
			{
				"x": 2.8606220507,
				"y": 1.0973519317,
				"z": 3.0478182817,
				"element": "C" 
			},
			{
				"x": 1.9127505645,
				"y": 0.6030960536,
				"z": 2.1603641539,
				"element": "C" 
			},
			{
				"x": 0.6065607853,
				"y": 1.1360762388,
				"z": 2.0943130206,
				"element": "C" 
			},
			{
				"x": -0.2951750421,
				"y": 0.5353869459,
				"z": 1.1257191462,
				"element": "C" 
			},
			{
				"x": -1.5961467141,
				"y": 0.7976002175,
				"z": 0.8048557273,
				"element": "C" 
			},
			{
				"x": -2.3818185753,
				"y": 1.81601807,
				"z": 1.4312461492,
				"element": "C" 
			},
			{
				"x": -3.0459626313,
				"y": 2.6369519383,
				"z": 1.9226043198,
				"element": "N" 
			},
			{
				"x": -2.2621578147,
				"y": 0.0052634005,
				"z": -0.2428600657,
				"element": "C" 
			},
			{
				"x": -1.6802501111,
				"y": -0.9531539175,
				"z": -0.9000747763,
				"element": "N" 
			},
			{
				"x": -2.535069948,
				"y": -1.5243409486,
				"z": -1.8204112327,
				"element": "C" 
			},
			{
				"x": -3.8388817816,
				"y": -0.9674378143,
				"z": -1.8632450898,
				"element": "C" 
			},
			{
				"x": -3.957304066,
				"y": 0.3221222746,
				"z": -0.6864987741,
				"element": "S" 
			},
			{
				"x": -4.8082616513,
				"y": -1.4478646862,
				"z": -2.7474677159,
				"element": "C" 
			},
			{
				"x": -4.4593680677,
				"y": -2.496790343,
				"z": -3.5935832846,
				"element": "C" 
			},
			{
				"x": -3.169414915,
				"y": -3.0583450416,
				"z": -3.5612950416,
				"element": "C" 
			},
			{
				"x": -2.2051160273,
				"y": -2.5823042849,
				"z": -2.6834535317,
				"element": "C" 
			},
			{
				"x": 0.2843483398,
				"y": 2.1997422533,
				"z": 2.9661411208,
				"element": "C" 
			},
			{
				"x": 1.2246122336,
				"y": 2.7017683726,
				"z": 3.8575943303,
				"element": "C" 
			},
			{
				"x": 3.8592579545,
				"y": 0.6772423154,
				"z": 3.0863405432,
				"element": "H" 
			},
			{
				"x": 2.1835985411,
				"y": -0.2154303005,
				"z": 1.4994637859,
				"element": "H" 
			},
			{
				"x": 0.1347503669,
				"y": -0.2750389932,
				"z": 0.5417802384,
				"element": "H" 
			},
			{
				"x": -5.804366119,
				"y": -1.0183391005,
				"z": -2.7763050512,
				"element": "H" 
			},
			{
				"x": -5.1962275231,
				"y": -2.8866685902,
				"z": -4.2892484214,
				"element": "H" 
			},
			{
				"x": -2.9271418343,
				"y": -3.8757021007,
				"z": -4.2336423593,
				"element": "H" 
			},
			{
				"x": -1.2066391964,
				"y": -3.0050896503,
				"z": -2.6471401264,
				"element": "H" 
			},
			{
				"x": -0.7031729496,
				"y": 2.6425926148,
				"z": 2.9540450768,
				"element": "H" 
			},
			{
				"x": 0.967795644,
				"y": 3.5184769984,
				"z": 4.5228136689,
				"element": "H" 
			}
		],
		 "valence_orbital": [ 
			{
				"type": "occ",
				"energy": -0.2891,
				"method": "rhf"
			},
			{
				"type": "occ",
				"energy": -0.28071,
				"method": "rhf"
			},
			{
				"type": "occ",
				"energy": -0.26626,
				"method": "rhf"
			},
			{
				"type": "occ",
				"energy": -0.24334,
				"method": "rhf"
			},
			{
				"type": "occ",
				"energy": -0.2271,
				"method": "rhf"
			},
			{
				"type": "unocc",
				"energy": -0.09938,
				"method": "rhf"
			},
			{
				"type": "unocc",
				"energy": -0.03076,
				"method": "rhf"
			},
			{
				"type": "unocc",
				"energy": -0.02704,
				"method": "rhf"
			},
			{
				"type": "unocc",
				"energy": -0.01354,
				"method": "rhf"
			},
			{
				"type": "unocc",
				"energy": -0.00521,
				"method": "rhf"
			}
		],
		"cosmo_sigma_profile": { 
			"-0.025": 0.0,
			"-0.024": 0.0,
			"-0.023": 0.0,
			"-0.022": 0.0,
			"-0.021": 0.0,
			"-0.02": 0.0,
			"-0.019": 0.0,
			"-0.018": 0.0,
			"-0.017": 0.0,
			"-0.016": 0.0,
			"-0.015": 0.0,
			"-0.014": 0.0,
			"-0.013": 0.0,
			"-0.012": 0.0,
			"-0.011": 0.0,
			"-0.01": 0.210710631645,
			"-0.009": 1.77070310383,
			"-0.008": 5.61617590251,
			"-0.007": 11.6789462139,
			"-0.006": 15.8945936087,
			"-0.005": 15.5624055514,
			"-0.004": 16.8216033211,
			"-0.003": 19.6906933202,
			"-0.002": 22.2538453663,
			"-0.001": 27.3487332493,
			"0.0": 31.0348510211,
			"0.001": 37.4374822972,
			"0.002": 33.8983298391,
			"0.003": 26.9839985751,
			"0.004": 22.5729759949,
			"0.005": 6.63521540747,
			"0.006": 3.83075182218,
			"0.007": 4.19509288742,
			"0.008": 3.57680354998,
			"0.009": 3.72015730618,
			"0.01": 3.58560571382,
			"0.011": 2.56934821917,
			"0.012": 1.73340908963,
			"0.013": 0.159639292717,
			"0.014": 0.0,
			"0.015": 0.0,
			"0.016": 0.0,
			"0.017": 0.0,
			"0.018": 0.0,
			"0.019": 0.0,
			"0.02": 0.0,
			"0.021": 0.0,
			"0.022": 0.0,
			"0.023": 0.0,
			"0.024": 0.0,
			"0.025": 0.0
		}
	}
}
