{
	 "smiles": "CC1=CC=CC=C1C1CC2=CC=CC=C2C(O)O1", 
	 "Tm": 378.15, 
	 "num_atms": 34, 
	 "gaussian": { 
		 "optdone": 1, 
		 "sigma_profile": "yes", 
		 "theory": "DFT", 
		 "functional": "B3LYP", 
		 "basiset": "6-31G**", 
		 "properties": { 
			 "R2extent": 5898.484, 
			 "electric_dipole_moment_norm": 1.2768818152, 
			 "electric_quadrupole_moment_norm": 5.15770964092, 
			 "total_energy": -769.791936384, 
			 "HOMO_LUMO_gap": 0.22951, 
			 "cosmo_polarized_energy": -10.97, 
			 "cosmo_cavitation_energy": 35.71, 
			 "cosmo_dispersion_energy": -25.72, 
			 "cosmo_repulsion_energy": 1.96, 
			 "cosmo_total_nonelectrostatic_energy": 11.94, 
			 "SMD_solvation_energy": 5.54 
		},
		"coords": [
			{
				"x": -2.7561564196,
				"y": 0.9484657873,
				"z": -0.4253879612,
				"element": "C" 
			},
			{
				"x": -2.3311413675,
				"y": -0.443705709,
				"z": -0.8415630591,
				"element": "C" 
			},
			{
				"x": -2.9427156026,
				"y": -1.0227830022,
				"z": -1.9623506768,
				"element": "C" 
			},
			{
				"x": -2.6223737588,
				"y": -2.3061308026,
				"z": -2.4049161791,
				"element": "C" 
			},
			{
				"x": -1.6681090352,
				"y": -3.0506858523,
				"z": -1.7164001316,
				"element": "C" 
			},
			{
				"x": -1.0544238973,
				"y": -2.495606013,
				"z": -0.5942088704,
				"element": "C" 
			},
			{
				"x": -1.3636759559,
				"y": -1.2053144779,
				"z": -0.1450059146,
				"element": "C" 
			},
			{
				"x": -0.5852827241,
				"y": -0.6855937608,
				"z": 1.0502663135,
				"element": "C" 
			},
			{
				"x": 0.5678341813,
				"y": 0.2587924148,
				"z": 0.6654519878,
				"element": "C" 
			},
			{
				"x": 1.1623630106,
				"y": 0.9435115979,
				"z": 1.8803514109,
				"element": "C" 
			},
			{
				"x": 2.4033852001,
				"y": 1.5888579888,
				"z": 1.8024964269,
				"element": "C" 
			},
			{
				"x": 2.9416540231,
				"y": 2.2433093279,
				"z": 2.9084819581,
				"element": "C" 
			},
			{
				"x": 2.2401336469,
				"y": 2.2603936027,
				"z": 4.1167676324,
				"element": "C" 
			},
			{
				"x": 1.0078866365,
				"y": 1.6172424589,
				"z": 4.2087483872,
				"element": "C" 
			},
			{
				"x": 0.4651960794,
				"y": 0.9622777481,
				"z": 3.0977202414,
				"element": "C" 
			},
			{
				"x": -0.8523504687,
				"y": 0.2211754822,
				"z": 3.2207246149,
				"element": "C" 
			},
			{
				"x": -1.7346033856,
				"y": 0.9751214351,
				"z": 3.9958382071,
				"element": "O" 
			},
			{
				"x": -1.4612216762,
				"y": -0.0138329621,
				"z": 1.9593084116,
				"element": "O" 
			},
			{
				"x": -1.9065149402,
				"y": 1.6243010547,
				"z": -0.293092286,
				"element": "H" 
			},
			{
				"x": -3.4169167716,
				"y": 1.3832882791,
				"z": -1.1806167529,
				"element": "H" 
			},
			{
				"x": -3.2826812495,
				"y": 0.933001579,
				"z": 0.5319633848,
				"element": "H" 
			},
			{
				"x": -3.6903690637,
				"y": -0.4454482486,
				"z": -2.500716411,
				"element": "H" 
			},
			{
				"x": -3.1181423543,
				"y": -2.7181341227,
				"z": -3.2793771587,
				"element": "H" 
			},
			{
				"x": -1.4068494209,
				"y": -4.0537517645,
				"z": -2.0407589575,
				"element": "H" 
			},
			{
				"x": -0.3156739046,
				"y": -3.0783163988,
				"z": -0.0485250631,
				"element": "H" 
			},
			{
				"x": -0.1493248311,
				"y": -1.555784106,
				"z": 1.5694993362,
				"element": "H" 
			},
			{
				"x": 0.1974974809,
				"y": 1.0133016565,
				"z": -0.0390661603,
				"element": "H" 
			},
			{
				"x": 1.3379513502,
				"y": -0.3095881201,
				"z": 0.1305486957,
				"element": "H" 
			},
			{
				"x": 2.9485675847,
				"y": 1.5776210159,
				"z": 0.8614218159,
				"element": "H" 
			},
			{
				"x": 3.9057247068,
				"y": 2.7378441006,
				"z": 2.8290793421,
				"element": "H" 
			},
			{
				"x": 2.651607321,
				"y": 2.7732096256,
				"z": 4.981370215,
				"element": "H" 
			},
			{
				"x": 0.4486551969,
				"y": 1.6286309503,
				"z": 5.1387111172,
				"element": "H" 
			},
			{
				"x": -0.6707605599,
				"y": -0.7674818221,
				"z": 3.6910898532,
				"element": "H" 
			},
			{
				"x": -2.5492690309,
				"y": 0.4606110573,
				"z": 4.0803462302,
				"element": "H" 
			}
		],
		 "valence_orbital": [ 
			{
				"type": "occ",
				"energy": -0.25815,
				"method": "rhf"
			},
			{
				"type": "occ",
				"energy": -0.24543,
				"method": "rhf"
			},
			{
				"type": "occ",
				"energy": -0.24283,
				"method": "rhf"
			},
			{
				"type": "occ",
				"energy": -0.23839,
				"method": "rhf"
			},
			{
				"type": "occ",
				"energy": -0.23504,
				"method": "rhf"
			},
			{
				"type": "unocc",
				"energy": -0.00553,
				"method": "rhf"
			},
			{
				"type": "unocc",
				"energy": -0.00188,
				"method": "rhf"
			},
			{
				"type": "unocc",
				"energy": 0.00058,
				"method": "rhf"
			},
			{
				"type": "unocc",
				"energy": 0.00515,
				"method": "rhf"
			},
			{
				"type": "unocc",
				"energy": 0.08551,
				"method": "rhf"
			}
		],
		"cosmo_sigma_profile": { 
			"-0.025": 0.0,
			"-0.024": 0.0,
			"-0.023": 0.0,
			"-0.022": 0.0,
			"-0.021": 0.0,
			"-0.02": 0.0,
			"-0.019": 0.0,
			"-0.018": 0.0,
			"-0.017": 0.227584529693,
			"-0.016": 0.849242939333,
			"-0.015": 0.957273985774,
			"-0.014": 0.862017613437,
			"-0.013": 0.818537635262,
			"-0.012": 0.689580932642,
			"-0.011": 0.455103166424,
			"-0.01": 0.403400274397,
			"-0.009": 1.19793402842,
			"-0.008": 1.09896807437,
			"-0.007": 0.486791372245,
			"-0.006": 6.43144663966,
			"-0.005": 25.8813795177,
			"-0.004": 30.7016710538,
			"-0.003": 27.5143693625,
			"-0.002": 21.0837180949,
			"-0.001": 22.2206145526,
			"0.0": 17.3145058932,
			"0.001": 19.5564752157,
			"0.002": 15.9053654117,
			"0.003": 15.0235072519,
			"0.004": 17.8514592264,
			"0.005": 18.8545831983,
			"0.006": 19.1542310478,
			"0.007": 4.1225474387,
			"0.008": 3.74796750548,
			"0.009": 2.45484635503,
			"0.01": 2.67433479779,
			"0.011": 1.60808896381,
			"0.012": 1.53409967709,
			"0.013": 0.840921669775,
			"0.014": 0.00693186292836,
			"0.015": 0.0,
			"0.016": 0.0,
			"0.017": 0.0,
			"0.018": 0.0,
			"0.019": 0.0,
			"0.02": 0.0,
			"0.021": 0.0,
			"0.022": 0.0,
			"0.023": 0.0,
			"0.024": 0.0,
			"0.025": 0.0
		}
	}
}
