{
	 "smiles": "COC1=C(C=C(N)C=C1)S(=O)(=O)NC1=CC=C(Cl)C=C1", 
	 "Tm": 379.15, 
	 "num_atms": 33, 
	 "gaussian": { 
		 "optdone": 1, 
		 "sigma_profile": "yes", 
		 "theory": "DFT", 
		 "functional": "B3LYP", 
		 "basiset": "6-31G**", 
		 "properties": { 
			 "R2extent": 8862.6679, 
			 "electric_dipole_moment_norm": 5.29539929184, 
			 "electric_quadrupole_moment_norm": 21.9355811302, 
			 "total_energy": -1696.68293493, 
			 "HOMO_LUMO_gap": 0.18094, 
			 "cosmo_polarized_energy": -22.92, 
			 "cosmo_cavitation_energy": 40.29, 
			 "cosmo_dispersion_energy": -28.75, 
			 "cosmo_repulsion_energy": 2.19, 
			 "cosmo_total_nonelectrostatic_energy": 13.74, 
			 "SMD_solvation_energy": 6.61 
		},
		"coords": [
			{
				"x": -2.45943768,
				"y": 0.4265285705,
				"z": -3.3097599625,
				"element": "C" 
			},
			{
				"x": -1.6892936855,
				"y": -0.7785796982,
				"z": -3.4056027342,
				"element": "O" 
			},
			{
				"x": -0.4227819572,
				"y": -0.7203515102,
				"z": -2.8850417413,
				"element": "C" 
			},
			{
				"x": -0.1208421209,
				"y": -1.3815413504,
				"z": -1.68468574,
				"element": "C" 
			},
			{
				"x": 1.179739352,
				"y": -1.4182107175,
				"z": -1.1824878892,
				"element": "C" 
			},
			{
				"x": 2.2185979979,
				"y": -0.7618078869,
				"z": -1.8626394693,
				"element": "C" 
			},
			{
				"x": 3.5300082206,
				"y": -0.8354695978,
				"z": -1.3948647737,
				"element": "N" 
			},
			{
				"x": 1.9134558009,
				"y": -0.0870488944,
				"z": -3.0578460633,
				"element": "C" 
			},
			{
				"x": 0.6161711698,
				"y": -0.0738430444,
				"z": -3.5592981724,
				"element": "C" 
			},
			{
				"x": -1.4778493239,
				"y": -2.1959152184,
				"z": -0.8321640962,
				"element": "S" 
			},
			{
				"x": -2.4838913164,
				"y": -1.1815530734,
				"z": -0.5125692401,
				"element": "O" 
			},
			{
				"x": -1.8284650958,
				"y": -3.4400205852,
				"z": -1.518016182,
				"element": "O" 
			},
			{
				"x": -0.7402936841,
				"y": -2.7352786452,
				"z": 0.6159873756,
				"element": "N" 
			},
			{
				"x": -0.8477301834,
				"y": -2.0623422449,
				"z": 1.8575205752,
				"element": "C" 
			},
			{
				"x": -0.6705941391,
				"y": -0.675781838,
				"z": 1.961181964,
				"element": "C" 
			},
			{
				"x": -0.7249696068,
				"y": -0.0532771888,
				"z": 3.2058879426,
				"element": "C" 
			},
			{
				"x": -0.9346769515,
				"y": -0.8151561818,
				"z": 4.3544976841,
				"element": "C" 
			},
			{
				"x": -0.9861594157,
				"y": -0.0270988,
				"z": 5.9254527146,
				"element": "Cl" 
			},
			{
				"x": -1.1038177414,
				"y": -2.1956240402,
				"z": 4.2689297246,
				"element": "C" 
			},
			{
				"x": -1.0697101601,
				"y": -2.8124034252,
				"z": 3.0203842587,
				"element": "C" 
			},
			{
				"x": -2.6779286768,
				"y": 0.6583792127,
				"z": -2.2629155206,
				"element": "H" 
			},
			{
				"x": -1.9398132287,
				"y": 1.2693380121,
				"z": -3.7823502428,
				"element": "H" 
			},
			{
				"x": -3.3912494534,
				"y": 0.2319108302,
				"z": -3.8430052035,
				"element": "H" 
			},
			{
				"x": 1.3810274212,
				"y": -1.9578119854,
				"z": -0.2639394133,
				"element": "H" 
			},
			{
				"x": 4.1429410358,
				"y": -0.0933768508,
				"z": -1.7020905605,
				"element": "H" 
			},
			{
				"x": 3.6303780879,
				"y": -1.0271582355,
				"z": -0.4079126665,
				"element": "H" 
			},
			{
				"x": 2.7065392057,
				"y": 0.415223882,
				"z": -3.6057141389,
				"element": "H" 
			},
			{
				"x": 0.3965135085,
				"y": 0.4276757256,
				"z": -4.4966937923,
				"element": "H" 
			},
			{
				"x": -0.867991199,
				"y": -3.7414335958,
				"z": 0.6576022373,
				"element": "H" 
			},
			{
				"x": -0.5003125703,
				"y": -0.0791115679,
				"z": 1.0732565802,
				"element": "H" 
			},
			{
				"x": -0.5968394195,
				"y": 1.0206838707,
				"z": 3.283103864,
				"element": "H" 
			},
			{
				"x": -1.2715222404,
				"y": -2.7822943706,
				"z": 5.1652023188,
				"element": "H" 
			},
			{
				"x": -1.2164019507,
				"y": -3.8870495571,
				"z": 2.9510903628,
				"element": "H" 
			}
		],
		 "valence_orbital": [ 
			{
				"type": "occ",
				"energy": -0.27758,
				"method": "rhf"
			},
			{
				"type": "occ",
				"energy": -0.27022,
				"method": "rhf"
			},
			{
				"type": "occ",
				"energy": -0.26748,
				"method": "rhf"
			},
			{
				"type": "occ",
				"energy": -0.22799,
				"method": "rhf"
			},
			{
				"type": "occ",
				"energy": -0.21475,
				"method": "rhf"
			},
			{
				"type": "unocc",
				"energy": -0.03381,
				"method": "rhf"
			},
			{
				"type": "unocc",
				"energy": -0.01907,
				"method": "rhf"
			},
			{
				"type": "unocc",
				"energy": -0.01375,
				"method": "rhf"
			},
			{
				"type": "unocc",
				"energy": -0.00477,
				"method": "rhf"
			},
			{
				"type": "unocc",
				"energy": 0.02772,
				"method": "rhf"
			}
		],
		"cosmo_sigma_profile": { 
			"-0.025": 0.0,
			"-0.024": 0.0,
			"-0.023": 0.0,
			"-0.022": 0.0,
			"-0.021": 0.0,
			"-0.02": 0.0,
			"-0.019": 0.0,
			"-0.018": 0.0,
			"-0.017": 0.0,
			"-0.016": 0.219357761764,
			"-0.015": 0.773055944916,
			"-0.014": 1.55867227225,
			"-0.013": 2.57779382842,
			"-0.012": 4.02209948999,
			"-0.011": 4.8150963955,
			"-0.01": 4.32928793758,
			"-0.009": 4.97961133381,
			"-0.008": 5.7883645696,
			"-0.007": 11.6369328689,
			"-0.006": 15.7565052294,
			"-0.005": 18.8297166914,
			"-0.004": 16.5320415039,
			"-0.003": 19.3617998991,
			"-0.002": 17.860555281,
			"-0.001": 19.6842432015,
			"0.0": 16.3897308031,
			"0.001": 20.076503339,
			"0.002": 23.9755105695,
			"0.003": 30.7321281413,
			"0.004": 22.7750877063,
			"0.005": 13.2106457116,
			"0.006": 5.40011934144,
			"0.007": 6.19938910264,
			"0.008": 6.11802747192,
			"0.009": 7.23679636844,
			"0.01": 11.0451388098,
			"0.011": 9.48381889732,
			"0.012": 1.51906292247,
			"0.013": 0.732035398614,
			"0.014": 0.192018738493,
			"0.015": 0.0,
			"0.016": 0.0,
			"0.017": 0.0,
			"0.018": 0.0,
			"0.019": 0.0,
			"0.02": 0.0,
			"0.021": 0.0,
			"0.022": 0.0,
			"0.023": 0.0,
			"0.024": 0.0,
			"0.025": 0.0
		}
	}
}
