{
	 "smiles": "CC1=CC=CC=C1NC(=N)NC(N)=N", 
	 "Tm": 417.15, 
	 "num_atms": 27, 
	 "gaussian": { 
		 "optdone": 1, 
		 "sigma_profile": "yes", 
		 "theory": "DFT", 
		 "functional": "B3LYP", 
		 "basiset": "6-31G**", 
		 "properties": { 
			 "R2extent": 2941.8986, 
			 "electric_dipole_moment_norm": 4.32121472389, 
			 "electric_quadrupole_moment_norm": 9.67862729162, 
			 "total_energy": -624.550859446, 
			 "HOMO_LUMO_gap": 0.20788, 
			 "cosmo_polarized_energy": -20.51, 
			 "cosmo_cavitation_energy": 30.34, 
			 "cosmo_dispersion_energy": -21.26, 
			 "cosmo_repulsion_energy": 1.7, 
			 "cosmo_total_nonelectrostatic_energy": 10.78, 
			 "SMD_solvation_energy": 3.59 
		},
		"coords": [
			{
				"x": 2.2741005979,
				"y": -1.1161016442,
				"z": -2.2587822629,
				"element": "C" 
			},
			{
				"x": 1.500909305,
				"y": 0.1661476647,
				"z": -2.06125793,
				"element": "C" 
			},
			{
				"x": 1.2758150892,
				"y": 1.0345406877,
				"z": -3.1334945372,
				"element": "C" 
			},
			{
				"x": 0.5615941049,
				"y": 2.2225026159,
				"z": -2.9782940651,
				"element": "C" 
			},
			{
				"x": 0.0670508901,
				"y": 2.5588017434,
				"z": -1.719609324,
				"element": "C" 
			},
			{
				"x": 0.2868992686,
				"y": 1.7207569048,
				"z": -0.6272527797,
				"element": "C" 
			},
			{
				"x": 0.9933377171,
				"y": 0.5228592426,
				"z": -0.7915115391,
				"element": "C" 
			},
			{
				"x": 1.2401214452,
				"y": -0.3773140631,
				"z": 0.286503764,
				"element": "N" 
			},
			{
				"x": 0.8300541891,
				"y": -0.2267579556,
				"z": 1.626228613,
				"element": "C" 
			},
			{
				"x": 1.5893725148,
				"y": -0.3188558914,
				"z": 2.6541482103,
				"element": "N" 
			},
			{
				"x": -0.5246316066,
				"y": 0.0371616196,
				"z": 1.8339288676,
				"element": "N" 
			},
			{
				"x": -1.6715557702,
				"y": -0.5239100779,
				"z": 1.2113907342,
				"element": "C" 
			},
			{
				"x": -1.4384653747,
				"y": -1.5115077153,
				"z": 0.2815965554,
				"element": "N" 
			},
			{
				"x": -2.8703226554,
				"y": -0.190412344,
				"z": 1.5176488906,
				"element": "N" 
			},
			{
				"x": 3.2325223664,
				"y": -1.1127442086,
				"z": -1.7193702642,
				"element": "H" 
			},
			{
				"x": 1.7145709461,
				"y": -1.9923942381,
				"z": -1.9093493596,
				"element": "H" 
			},
			{
				"x": 2.5071736849,
				"y": -1.2687035782,
				"z": -3.3150975507,
				"element": "H" 
			},
			{
				"x": 1.6667395437,
				"y": 0.7640949629,
				"z": -4.1111769417,
				"element": "H" 
			},
			{
				"x": 0.3942069894,
				"y": 2.8742669695,
				"z": -3.8300879473,
				"element": "H" 
			},
			{
				"x": -0.4876770406,
				"y": 3.4813567849,
				"z": -1.5763178443,
				"element": "H" 
			},
			{
				"x": -0.0952649473,
				"y": 1.9904860108,
				"z": 0.3491801303,
				"element": "H" 
			},
			{
				"x": 2.1368181826,
				"y": -0.8417248467,
				"z": 0.2271048249,
				"element": "H" 
			},
			{
				"x": 2.5732874737,
				"y": -0.342173445,
				"z": 2.3851634463,
				"element": "H" 
			},
			{
				"x": -0.683162372,
				"y": 0.3044178499,
				"z": 2.7967312078,
				"element": "H" 
			},
			{
				"x": -2.2404136841,
				"y": -1.69625653,
				"z": -0.3025606428,
				"element": "H" 
			},
			{
				"x": -0.5370483345,
				"y": -1.5312993176,
				"z": -0.1700702593,
				"element": "H" 
			},
			{
				"x": -2.8820325235,
				"y": 0.5353627991,
				"z": 2.2328080035,
				"element": "H" 
			}
		],
		 "valence_orbital": [ 
			{
				"type": "occ",
				"energy": -0.26103,
				"method": "rhf"
			},
			{
				"type": "occ",
				"energy": -0.25548,
				"method": "rhf"
			},
			{
				"type": "occ",
				"energy": -0.25237,
				"method": "rhf"
			},
			{
				"type": "occ",
				"energy": -0.22301,
				"method": "rhf"
			},
			{
				"type": "occ",
				"energy": -0.22139,
				"method": "rhf"
			},
			{
				"type": "unocc",
				"energy": -0.01351,
				"method": "rhf"
			},
			{
				"type": "unocc",
				"energy": -0.00731,
				"method": "rhf"
			},
			{
				"type": "unocc",
				"energy": 0.0228,
				"method": "rhf"
			},
			{
				"type": "unocc",
				"energy": 0.05363,
				"method": "rhf"
			},
			{
				"type": "unocc",
				"energy": 0.07416,
				"method": "rhf"
			}
		],
		"cosmo_sigma_profile": { 
			"-0.025": 0.0,
			"-0.024": 0.0,
			"-0.023": 0.0,
			"-0.022": 0.0,
			"-0.021": 0.0,
			"-0.02": 0.0,
			"-0.019": 0.0,
			"-0.018": 0.0,
			"-0.017": 0.0,
			"-0.016": 0.0,
			"-0.015": 0.306479806454,
			"-0.014": 2.44024797953,
			"-0.013": 3.12844933209,
			"-0.012": 4.53418502805,
			"-0.011": 4.79122517473,
			"-0.01": 4.62442738093,
			"-0.009": 4.47002357801,
			"-0.008": 4.58904067497,
			"-0.007": 4.87917920365,
			"-0.006": 8.14956871779,
			"-0.005": 15.5925039608,
			"-0.004": 17.6144602511,
			"-0.003": 16.8026829766,
			"-0.002": 16.1215978844,
			"-0.001": 15.0997825822,
			"0.0": 15.3307177393,
			"0.001": 13.7590130176,
			"0.002": 10.1997290559,
			"0.003": 11.1844179088,
			"0.004": 10.5530016544,
			"0.005": 10.8121139567,
			"0.006": 10.547998985,
			"0.007": 3.92718040685,
			"0.008": 3.3481942498,
			"0.009": 3.84847104406,
			"0.01": 2.68351953194,
			"0.011": 3.10464677,
			"0.012": 3.19056191744,
			"0.013": 2.13140514955,
			"0.014": 2.69746872933,
			"0.015": 2.3432297492,
			"0.016": 2.19035975221,
			"0.017": 1.99352104883,
			"0.018": 1.72145276442,
			"0.019": 0.841713949564,
			"0.02": 0.0198332456135,
			"0.021": 0.0,
			"0.022": 0.0,
			"0.023": 0.0,
			"0.024": 0.0,
			"0.025": 0.0
		}
	}
}
