{
	 "smiles": "COC(=O)C1=CC=C(C=C1)C#C", 
	 "Tm": 366.15, 
	 "num_atms": 20, 
	 "gaussian": { 
		 "optdone": 1, 
		 "sigma_profile": "yes", 
		 "theory": "DFT", 
		 "functional": "B3LYP", 
		 "basiset": "6-31G**", 
		 "properties": { 
			 "R2extent": 3091.124, 
			 "electric_dipole_moment_norm": 1.70788292632, 
			 "electric_quadrupole_moment_norm": 12.6090566431, 
			 "total_energy": -536.274925892, 
			 "HOMO_LUMO_gap": 0.1796, 
			 "cosmo_polarized_energy": -8.18, 
			 "cosmo_cavitation_energy": 26.04, 
			 "cosmo_dispersion_energy": -18.37, 
			 "cosmo_repulsion_energy": 1.45, 
			 "cosmo_total_nonelectrostatic_energy": 9.12, 
			 "SMD_solvation_energy": 7.45 
		},
		"coords": [
			{
				"x": 0.0442618972,
				"y": -4.4964317137,
				"z": 2.0746456027,
				"element": "C" 
			},
			{
				"x": 0.0169618216,
				"y": -3.0610030022,
				"z": 2.0755401438,
				"element": "O" 
			},
			{
				"x": -0.1266100156,
				"y": -2.4874914332,
				"z": 0.8585768503,
				"element": "C" 
			},
			{
				"x": -0.2265012031,
				"y": -3.1286769713,
				"z": -0.1697617621,
				"element": "O" 
			},
			{
				"x": -0.1472125087,
				"y": -0.9994757627,
				"z": 0.9290582745,
				"element": "C" 
			},
			{
				"x": -0.0286070226,
				"y": -0.3000190762,
				"z": 2.1386415786,
				"element": "C" 
			},
			{
				"x": -0.0539883784,
				"y": 1.0896356386,
				"z": 2.1474970889,
				"element": "C" 
			},
			{
				"x": -0.1987288966,
				"y": 1.8084767607,
				"z": 0.9446047657,
				"element": "C" 
			},
			{
				"x": -0.3173935662,
				"y": 1.0990009557,
				"z": -0.2672924819,
				"element": "C" 
			},
			{
				"x": -0.2915006105,
				"y": -0.2892517783,
				"z": -0.2710233691,
				"element": "C" 
			},
			{
				"x": -0.2247816391,
				"y": 3.2366260946,
				"z": 0.9536549785,
				"element": "C" 
			},
			{
				"x": -0.2468748477,
				"y": 4.4466232258,
				"z": 0.9610541077,
				"element": "C" 
			},
			{
				"x": 0.8794998189,
				"y": -4.8652397143,
				"z": 1.4739559166,
				"element": "H" 
			},
			{
				"x": -0.8862123496,
				"y": -4.8989906826,
				"z": 1.666430054,
				"element": "H" 
			},
			{
				"x": 0.1635503668,
				"y": -4.7891272522,
				"z": 3.1177530396,
				"element": "H" 
			},
			{
				"x": 0.0829110424,
				"y": -0.8500698796,
				"z": 3.0657469019,
				"element": "H" 
			},
			{
				"x": 0.0375246613,
				"y": 1.6337107913,
				"z": 3.081643188,
				"element": "H" 
			},
			{
				"x": -0.4289748196,
				"y": 1.649708917,
				"z": -1.1953064887,
				"element": "H" 
			},
			{
				"x": -0.3817521956,
				"y": -0.8481248813,
				"z": -1.1961972138,
				"element": "H" 
			},
			{
				"x": -0.2663715548,
				"y": 5.5118197637,
				"z": 0.9670788247,
				"element": "H" 
			}
		],
		 "valence_orbital": [ 
			{
				"type": "occ",
				"energy": -0.30352,
				"method": "rhf"
			},
			{
				"type": "occ",
				"energy": -0.28087,
				"method": "rhf"
			},
			{
				"type": "occ",
				"energy": -0.27513,
				"method": "rhf"
			},
			{
				"type": "occ",
				"energy": -0.26537,
				"method": "rhf"
			},
			{
				"type": "occ",
				"energy": -0.24115,
				"method": "rhf"
			},
			{
				"type": "unocc",
				"energy": -0.06155,
				"method": "rhf"
			},
			{
				"type": "unocc",
				"energy": -0.01286,
				"method": "rhf"
			},
			{
				"type": "unocc",
				"energy": 0.02903,
				"method": "rhf"
			},
			{
				"type": "unocc",
				"energy": 0.04736,
				"method": "rhf"
			},
			{
				"type": "unocc",
				"energy": 0.09573,
				"method": "rhf"
			}
		],
		"cosmo_sigma_profile": { 
			"-0.025": 0.0,
			"-0.024": 0.0,
			"-0.023": 0.0,
			"-0.022": 0.0,
			"-0.021": 0.0,
			"-0.02": 0.0,
			"-0.019": 0.0,
			"-0.018": 0.0,
			"-0.017": 0.0,
			"-0.016": 0.0,
			"-0.015": 0.0,
			"-0.014": 0.0,
			"-0.013": 0.215746251025,
			"-0.012": 1.46038437185,
			"-0.011": 0.44385351713,
			"-0.01": 0.200344558446,
			"-0.009": 2.58428256441,
			"-0.008": 1.2950774498,
			"-0.007": 4.4003266929,
			"-0.006": 13.244503974,
			"-0.005": 14.9516775683,
			"-0.004": 13.9273985961,
			"-0.003": 16.4633281055,
			"-0.002": 13.5121895723,
			"-0.001": 13.5752623429,
			"0.0": 14.9408467524,
			"0.001": 16.4050334583,
			"0.002": 24.5034531953,
			"0.003": 16.9292162993,
			"0.004": 7.70623628808,
			"0.005": 12.3388333252,
			"0.006": 7.7069273431,
			"0.007": 1.21936447186,
			"0.008": 1.88577369158,
			"0.009": 1.52799346518,
			"0.01": 1.42562682182,
			"0.011": 3.24538853659,
			"0.012": 3.96197163758,
			"0.013": 0.151373212101,
			"0.014": 0.0,
			"0.015": 0.0,
			"0.016": 0.0,
			"0.017": 0.0,
			"0.018": 0.0,
			"0.019": 0.0,
			"0.02": 0.0,
			"0.021": 0.0,
			"0.022": 0.0,
			"0.023": 0.0,
			"0.024": 0.0,
			"0.025": 0.0
		}
	}
}
