{
	 "smiles": "NC(=S)C1=CC=CC=C1", 
	 "Tm": 389.15, 
	 "num_atms": 16, 
	 "gaussian": { 
		 "optdone": 1, 
		 "sigma_profile": "yes", 
		 "theory": "DFT", 
		 "functional": "B3LYP", 
		 "basiset": "6-31G**", 
		 "properties": { 
			 "R2extent": 1868.6818, 
			 "electric_dipole_moment_norm": 4.58523911263, 
			 "electric_quadrupole_moment_norm": 7.25872632767, 
			 "total_energy": -723.911563748, 
			 "HOMO_LUMO_gap": 0.14714, 
			 "cosmo_polarized_energy": -14.5, 
			 "cosmo_cavitation_energy": 21.55, 
			 "cosmo_dispersion_energy": -16.56, 
			 "cosmo_repulsion_energy": 1.31, 
			 "cosmo_total_nonelectrostatic_energy": 6.3, 
			 "SMD_solvation_energy": 2.86 
		},
		"coords": [
			{
				"x": -0.1274621278,
				"y": -0.9251648148,
				"z": 1.5803015651,
				"element": "N" 
			},
			{
				"x": -0.3374894098,
				"y": 0.2212219089,
				"z": 0.8918997558,
				"element": "C" 
			},
			{
				"x": 0.3861219828,
				"y": 1.6540220606,
				"z": 1.3487817906,
				"element": "S" 
			},
			{
				"x": -1.2245025934,
				"y": 0.0877044621,
				"z": -0.2981916545,
				"element": "C" 
			},
			{
				"x": -2.0122863969,
				"y": 1.1720174354,
				"z": -0.7158039477,
				"element": "C" 
			},
			{
				"x": -2.8545880974,
				"y": 1.0494272659,
				"z": -1.8173678349,
				"element": "C" 
			},
			{
				"x": -2.9127553171,
				"y": -0.1508425959,
				"z": -2.5309851017,
				"element": "C" 
			},
			{
				"x": -2.1204223042,
				"y": -1.2298402538,
				"z": -2.1364262966,
				"element": "C" 
			},
			{
				"x": -1.2857946299,
				"y": -1.1145178471,
				"z": -1.0253996326,
				"element": "C" 
			},
			{
				"x": 0.4459781024,
				"y": -0.881590809,
				"z": 2.4100578017,
				"element": "H" 
			},
			{
				"x": -0.7172598348,
				"y": -1.7326729395,
				"z": 1.4434953426,
				"element": "H" 
			},
			{
				"x": -1.950714088,
				"y": 2.1019631564,
				"z": -0.1613324149,
				"element": "H" 
			},
			{
				"x": -3.4662736821,
				"y": 1.8934835929,
				"z": -2.1219821767,
				"element": "H" 
			},
			{
				"x": -3.565739683,
				"y": -0.2414388248,
				"z": -3.3941721531,
				"element": "H" 
			},
			{
				"x": -2.1438400725,
				"y": -2.1590866507,
				"z": -2.6981424719,
				"element": "H" 
			},
			{
				"x": -0.6454718482,
				"y": -1.9481851468,
				"z": -0.7519325712,
				"element": "H" 
			}
		],
		 "valence_orbital": [ 
			{
				"type": "occ",
				"energy": -0.34535,
				"method": "rhf"
			},
			{
				"type": "occ",
				"energy": -0.26601,
				"method": "rhf"
			},
			{
				"type": "occ",
				"energy": -0.26306,
				"method": "rhf"
			},
			{
				"type": "occ",
				"energy": -0.22877,
				"method": "rhf"
			},
			{
				"type": "occ",
				"energy": -0.20653,
				"method": "rhf"
			},
			{
				"type": "unocc",
				"energy": -0.05939,
				"method": "rhf"
			},
			{
				"type": "unocc",
				"energy": -0.01372,
				"method": "rhf"
			},
			{
				"type": "unocc",
				"energy": 0.02028,
				"method": "rhf"
			},
			{
				"type": "unocc",
				"energy": 0.07155,
				"method": "rhf"
			},
			{
				"type": "unocc",
				"energy": 0.09198,
				"method": "rhf"
			}
		],
		"cosmo_sigma_profile": { 
			"-0.025": 0.0,
			"-0.024": 0.0,
			"-0.023": 0.0,
			"-0.022": 0.0,
			"-0.021": 0.0,
			"-0.02": 0.0,
			"-0.019": 0.0,
			"-0.018": 0.0,
			"-0.017": 0.0,
			"-0.016": 0.133031498564,
			"-0.015": 1.52803433057,
			"-0.014": 2.84371962304,
			"-0.013": 2.16961945087,
			"-0.012": 2.61017246071,
			"-0.011": 2.16722025641,
			"-0.01": 2.21447794126,
			"-0.009": 2.07608546817,
			"-0.008": 1.77444101888,
			"-0.007": 3.90113304103,
			"-0.006": 9.91531602432,
			"-0.005": 11.9544059532,
			"-0.004": 10.8160041685,
			"-0.003": 8.82692472438,
			"-0.002": 6.95260867755,
			"-0.001": 8.40550817156,
			"0.0": 9.83693837968,
			"0.001": 9.78825652184,
			"0.002": 9.73448818165,
			"0.003": 13.2209876157,
			"0.004": 15.8542300609,
			"0.005": 6.83926621949,
			"0.006": 4.02034326556,
			"0.007": 4.77871973793,
			"0.008": 6.30112754384,
			"0.009": 6.53168349787,
			"0.01": 4.27016944983,
			"0.011": 3.64842380542,
			"0.012": 1.93173589224,
			"0.013": 0.0494436270398,
			"0.014": 0.0,
			"0.015": 0.0,
			"0.016": 0.0,
			"0.017": 0.0,
			"0.018": 0.0,
			"0.019": 0.0,
			"0.02": 0.0,
			"0.021": 0.0,
			"0.022": 0.0,
			"0.023": 0.0,
			"0.024": 0.0,
			"0.025": 0.0
		}
	}
}
