{
	 "smiles": "ONC(=O)C1CC1", 
	 "Tm": 401.15, 
	 "num_atms": 14, 
	 "gaussian": { 
		 "optdone": 1, 
		 "sigma_profile": "yes", 
		 "theory": "DFT", 
		 "functional": "B3LYP", 
		 "basiset": "6-31G**", 
		 "properties": { 
			 "R2extent": 1084.9342, 
			 "electric_dipole_moment_norm": 3.26005620044, 
			 "electric_quadrupole_moment_norm": 4.30861775747, 
			 "total_energy": -361.766176008, 
			 "HOMO_LUMO_gap": 0.24215, 
			 "cosmo_polarized_energy": -11.01, 
			 "cosmo_cavitation_energy": 17.7, 
			 "cosmo_dispersion_energy": -13.32, 
			 "cosmo_repulsion_energy": 1.14, 
			 "cosmo_total_nonelectrostatic_energy": 5.52, 
			 "SMD_solvation_energy": 4.34 
		},
		"coords": [
			{
				"x": 0.4772613266,
				"y": 1.6039095056,
				"z": -2.6216310593,
				"element": "O" 
			},
			{
				"x": 0.144308903,
				"y": 0.5265877497,
				"z": -1.7839571378,
				"element": "N" 
			},
			{
				"x": 1.0467447825,
				"y": 0.269879406,
				"z": -0.7844180485,
				"element": "C" 
			},
			{
				"x": 2.15611139,
				"y": 0.8102308545,
				"z": -0.813711666,
				"element": "O" 
			},
			{
				"x": 0.6171316489,
				"y": -0.7133503183,
				"z": 0.2436690208,
				"element": "C" 
			},
			{
				"x": 1.1276815666,
				"y": -0.4992491336,
				"z": 1.6599290378,
				"element": "C" 
			},
			{
				"x": 1.6915811826,
				"y": -1.6099232509,
				"z": 0.8350238846,
				"element": "C" 
			},
			{
				"x": 1.3791630924,
				"y": 1.8132030819,
				"z": -2.2907900596,
				"element": "H" 
			},
			{
				"x": -0.8474295952,
				"y": 0.5328165602,
				"z": -1.5800880953,
				"element": "H" 
			},
			{
				"x": -0.3767021114,
				"y": -1.1354684783,
				"z": 0.1208124467,
				"element": "H" 
			},
			{
				"x": 1.7495212589,
				"y": 0.3763146978,
				"z": 1.813642123,
				"element": "H" 
			},
			{
				"x": 0.4477852601,
				"y": -0.7389515606,
				"z": 2.4712002701,
				"element": "H" 
			},
			{
				"x": 1.4091646734,
				"y": -2.6321156023,
				"z": 1.0651205108,
				"element": "H" 
			},
			{
				"x": 2.6903766214,
				"y": -1.4778835115,
				"z": 0.4329987726,
				"element": "H" 
			}
		],
		 "valence_orbital": [ 
			{
				"type": "occ",
				"energy": -0.35354,
				"method": "rhf"
			},
			{
				"type": "occ",
				"energy": -0.31728,
				"method": "rhf"
			},
			{
				"type": "occ",
				"energy": -0.3007,
				"method": "rhf"
			},
			{
				"type": "occ",
				"energy": -0.27728,
				"method": "rhf"
			},
			{
				"type": "occ",
				"energy": -0.23528,
				"method": "rhf"
			},
			{
				"type": "unocc",
				"energy": 0.00687,
				"method": "rhf"
			},
			{
				"type": "unocc",
				"energy": 0.07141,
				"method": "rhf"
			},
			{
				"type": "unocc",
				"energy": 0.08502,
				"method": "rhf"
			},
			{
				"type": "unocc",
				"energy": 0.10493,
				"method": "rhf"
			},
			{
				"type": "unocc",
				"energy": 0.12042,
				"method": "rhf"
			}
		],
		"cosmo_sigma_profile": { 
			"-0.025": 0.0,
			"-0.024": 0.0,
			"-0.023": 0.0,
			"-0.022": 0.0,
			"-0.021": 0.0,
			"-0.02": 0.0,
			"-0.019": 0.0,
			"-0.018": 0.0,
			"-0.017": 0.157509220344,
			"-0.016": 1.17189188408,
			"-0.015": 1.58457110887,
			"-0.014": 1.01681148116,
			"-0.013": 0.967347795834,
			"-0.012": 1.68690145644,
			"-0.011": 1.70655052179,
			"-0.01": 2.02660158886,
			"-0.009": 1.71868766366,
			"-0.008": 1.79605606274,
			"-0.007": 2.50194136266,
			"-0.006": 5.51018369193,
			"-0.005": 9.79677809301,
			"-0.004": 8.11261603368,
			"-0.003": 9.47348366961,
			"-0.002": 8.39076091784,
			"-0.001": 10.1858710839,
			"0.0": 9.88066438645,
			"0.001": 10.3564437388,
			"0.002": 9.71432357015,
			"0.003": 6.13867229029,
			"0.004": 4.19284587186,
			"0.005": 3.82826836557,
			"0.006": 2.67053740781,
			"0.007": 3.52781048759,
			"0.008": 2.88713452566,
			"0.009": 3.65847479115,
			"0.01": 3.98212900344,
			"0.011": 4.15799540107,
			"0.012": 4.02565174763,
			"0.013": 2.17977739752,
			"0.014": 0.219793429597,
			"0.015": 0.0,
			"0.016": 0.0,
			"0.017": 0.0,
			"0.018": 0.0,
			"0.019": 0.0,
			"0.02": 0.0,
			"0.021": 0.0,
			"0.022": 0.0,
			"0.023": 0.0,
			"0.024": 0.0,
			"0.025": 0.0
		}
	}
}
