{
	 "smiles": "CC(C)C(NC(=O)C1=CC=NC=C1)C(O)=O", 
	 "Tm": 461.15, 
	 "num_atms": 30, 
	 "gaussian": { 
		 "optdone": 1, 
		 "sigma_profile": "yes", 
		 "theory": "DFT", 
		 "functional": "B3LYP", 
		 "basiset": "6-31G**", 
		 "properties": { 
			 "R2extent": 4244.0529, 
			 "electric_dipole_moment_norm": 4.53804399053, 
			 "electric_quadrupole_moment_norm": 22.2626228659, 
			 "total_energy": -762.799331919, 
			 "HOMO_LUMO_gap": 0.19872, 
			 "cosmo_polarized_energy": -22.24, 
			 "cosmo_cavitation_energy": 33.51, 
			 "cosmo_dispersion_energy": -22.55, 
			 "cosmo_repulsion_energy": 1.77, 
			 "cosmo_total_nonelectrostatic_energy": 12.73, 
			 "SMD_solvation_energy": 5.64 
		},
		"coords": [
			{
				"x": 1.9307641372,
				"y": 0.3640102231,
				"z": -3.2762254039,
				"element": "C" 
			},
			{
				"x": 0.8320357914,
				"y": 0.7450659775,
				"z": -2.2755272215,
				"element": "C" 
			},
			{
				"x": -0.1050193828,
				"y": 1.8205058459,
				"z": -2.8456808929,
				"element": "C" 
			},
			{
				"x": 1.4062029805,
				"y": 1.1389620298,
				"z": -0.8714580718,
				"element": "C" 
			},
			{
				"x": 2.1485161563,
				"y": 0.0620053318,
				"z": -0.2315949579,
				"element": "N" 
			},
			{
				"x": 1.680208042,
				"y": -1.166346208,
				"z": 0.1684518278,
				"element": "C" 
			},
			{
				"x": 2.4217830756,
				"y": -2.1355030345,
				"z": 0.2699090703,
				"element": "O" 
			},
			{
				"x": 0.2243342435,
				"y": -1.2850068685,
				"z": 0.5430528055,
				"element": "C" 
			},
			{
				"x": -0.4256494689,
				"y": -0.3727452885,
				"z": 1.3818479467,
				"element": "C" 
			},
			{
				"x": -1.7534371691,
				"y": -0.6173384794,
				"z": 1.7377539206,
				"element": "C" 
			},
			{
				"x": -2.4557659675,
				"y": -1.6733661301,
				"z": 1.3116040813,
				"element": "N" 
			},
			{
				"x": -1.8195761153,
				"y": -2.5490555802,
				"z": 0.521071232,
				"element": "C" 
			},
			{
				"x": -0.490286989,
				"y": -2.4118083605,
				"z": 0.1240684186,
				"element": "C" 
			},
			{
				"x": 2.3758118133,
				"y": 2.3260352013,
				"z": -0.9725538456,
				"element": "C" 
			},
			{
				"x": 1.8152511443,
				"y": 3.553558583,
				"z": -1.0676960096,
				"element": "O" 
			},
			{
				"x": 3.5747910389,
				"y": 2.1959326522,
				"z": -1.0049995359,
				"element": "O" 
			},
			{
				"x": 2.5686002909,
				"y": 1.2197531551,
				"z": -3.5215007678,
				"element": "H" 
			},
			{
				"x": 2.5713211053,
				"y": -0.4318675723,
				"z": -2.8864445622,
				"element": "H" 
			},
			{
				"x": 1.4818074255,
				"y": 0.0039518327,
				"z": -4.2069785223,
				"element": "H" 
			},
			{
				"x": 0.2244225143,
				"y": -0.1470417696,
				"z": -2.0764240772,
				"element": "H" 
			},
			{
				"x": -0.8882321521,
				"y": 2.1012700343,
				"z": -2.129389013,
				"element": "H" 
			},
			{
				"x": 0.4399454463,
				"y": 2.7233375559,
				"z": -3.1417359203,
				"element": "H" 
			},
			{
				"x": -0.6112173792,
				"y": 1.4437845215,
				"z": -3.7392498927,
				"element": "H" 
			},
			{
				"x": 0.5594389874,
				"y": 1.4289888624,
				"z": -0.239116392,
				"element": "H" 
			},
			{
				"x": 3.1459396073,
				"y": 0.0796795491,
				"z": -0.4231999138,
				"element": "H" 
			},
			{
				"x": 0.096867182,
				"y": 0.4903213174,
				"z": 1.7828638269,
				"element": "H" 
			},
			{
				"x": -2.2757446578,
				"y": 0.0705597259,
				"z": 2.4006377819,
				"element": "H" 
			},
			{
				"x": -2.4016163019,
				"y": -3.4084945001,
				"z": 0.1936020597,
				"element": "H" 
			},
			{
				"x": -0.0074936893,
				"y": -3.1637136002,
				"z": -0.4909166059,
				"element": "H" 
			},
			{
				"x": 0.8510982908,
				"y": 3.4943649931,
				"z": -1.0091713648,
				"element": "H" 
			}
		],
		 "valence_orbital": [ 
			{
				"type": "occ",
				"energy": -0.29683,
				"method": "rhf"
			},
			{
				"type": "occ",
				"energy": -0.27763,
				"method": "rhf"
			},
			{
				"type": "occ",
				"energy": -0.27129,
				"method": "rhf"
			},
			{
				"type": "occ",
				"energy": -0.26787,
				"method": "rhf"
			},
			{
				"type": "occ",
				"energy": -0.25477,
				"method": "rhf"
			},
			{
				"type": "unocc",
				"energy": -0.05605,
				"method": "rhf"
			},
			{
				"type": "unocc",
				"energy": -0.02708,
				"method": "rhf"
			},
			{
				"type": "unocc",
				"energy": -0.01519,
				"method": "rhf"
			},
			{
				"type": "unocc",
				"energy": 0.02696,
				"method": "rhf"
			},
			{
				"type": "unocc",
				"energy": 0.0334,
				"method": "rhf"
			}
		],
		"cosmo_sigma_profile": { 
			"-0.025": 0.0,
			"-0.024": 0.0,
			"-0.023": 0.0,
			"-0.022": 0.0,
			"-0.021": 0.0,
			"-0.02": 0.0,
			"-0.019": 0.17393982004,
			"-0.018": 0.851138279044,
			"-0.017": 1.36492579916,
			"-0.016": 1.31637056794,
			"-0.015": 0.761370560129,
			"-0.014": 1.18069570404,
			"-0.013": 1.13128344578,
			"-0.012": 1.06419112701,
			"-0.011": 1.39194339468,
			"-0.01": 1.54439564166,
			"-0.009": 2.90930193825,
			"-0.008": 4.51349159066,
			"-0.007": 9.49294864417,
			"-0.006": 12.7636656385,
			"-0.005": 11.8604432356,
			"-0.004": 18.9265027793,
			"-0.003": 26.6500628341,
			"-0.002": 22.193990108,
			"-0.001": 18.8989812873,
			"0.0": 23.523588728,
			"0.001": 20.7342153295,
			"0.002": 11.8286385899,
			"0.003": 7.91826725878,
			"0.004": 5.30553295565,
			"0.005": 4.95316922703,
			"0.006": 3.71204603071,
			"0.007": 5.8373628076,
			"0.008": 6.96176502967,
			"0.009": 6.30874427399,
			"0.01": 6.61906303622,
			"0.011": 5.46018742916,
			"0.012": 6.57486079085,
			"0.013": 6.11297814318,
			"0.014": 2.13461178339,
			"0.015": 0.858930595801,
			"0.016": 0.710485621555,
			"0.017": 0.0367374715545,
			"0.018": 0.0,
			"0.019": 0.0,
			"0.02": 0.0,
			"0.021": 0.0,
			"0.022": 0.0,
			"0.023": 0.0,
			"0.024": 0.0,
			"0.025": 0.0
		}
	}
}
