{
	 "smiles": "CC(=O)N1C(=O)[C@@](O)(C2=COC3=C2C=CC=C3)C2=CC=CC=C12", 
	 "Tm": 383.0, 
	 "num_atms": 36, 
	 "gaussian": { 
		 "optdone": 1, 
		 "sigma_profile": "yes", 
		 "theory": "DFT", 
		 "functional": "B3LYP", 
		 "basiset": "6-31G**", 
		 "properties": { 
			 "R2extent": 6660.3533, 
			 "electric_dipole_moment_norm": 2.04068564213, 
			 "electric_quadrupole_moment_norm": 12.0285038438, 
			 "total_energy": -1049.39908573, 
			 "HOMO_LUMO_gap": 0.17218, 
			 "cosmo_polarized_energy": -15.15, 
			 "cosmo_cavitation_energy": 40.23, 
			 "cosmo_dispersion_energy": -27.54, 
			 "cosmo_repulsion_energy": 2.07, 
			 "cosmo_total_nonelectrostatic_energy": 14.75, 
			 "SMD_solvation_energy": 8.81 
		},
		"coords": [
			{
				"x": -0.2639382342,
				"y": -4.5948863135,
				"z": -1.0911792923,
				"element": "C" 
			},
			{
				"x": 0.4944861167,
				"y": -3.3741451356,
				"z": -1.5545186764,
				"element": "C" 
			},
			{
				"x": 1.6173646324,
				"y": -3.4461005145,
				"z": -2.0193170426,
				"element": "O" 
			},
			{
				"x": -0.1380800562,
				"y": -2.1113049882,
				"z": -1.4279680855,
				"element": "N" 
			},
			{
				"x": -1.4454968237,
				"y": -1.878123802,
				"z": -0.9316310699,
				"element": "C" 
			},
			{
				"x": -2.2408811439,
				"y": -2.7189291106,
				"z": -0.5861867471,
				"element": "O" 
			},
			{
				"x": -1.706046657,
				"y": -0.3336901883,
				"z": -0.9471700461,
				"element": "C" 
			},
			{
				"x": -2.8568563345,
				"y": -0.0515292991,
				"z": -1.7373088406,
				"element": "O" 
			},
			{
				"x": -2.0071142576,
				"y": 0.1563487774,
				"z": 0.4408870791,
				"element": "C" 
			},
			{
				"x": -3.2313445089,
				"y": 0.5573188568,
				"z": 0.8725481965,
				"element": "C" 
			},
			{
				"x": -3.2233240973,
				"y": 0.9269390706,
				"z": 2.1906328795,
				"element": "O" 
			},
			{
				"x": -1.9388589359,
				"y": 0.7460840332,
				"z": 2.6306456327,
				"element": "C" 
			},
			{
				"x": -1.124746282,
				"y": 0.2662894641,
				"z": 1.5866974034,
				"element": "C" 
			},
			{
				"x": 0.2333457834,
				"y": 0.0233105385,
				"z": 1.8506019076,
				"element": "C" 
			},
			{
				"x": 0.7127207153,
				"y": 0.2649683676,
				"z": 3.1351784704,
				"element": "C" 
			},
			{
				"x": -0.1293271844,
				"y": 0.7438768583,
				"z": 4.1559177075,
				"element": "C" 
			},
			{
				"x": -1.4794549859,
				"y": 0.995726681,
				"z": 3.9179331293,
				"element": "C" 
			},
			{
				"x": -0.4202695424,
				"y": 0.1898020422,
				"z": -1.5417515853,
				"element": "C" 
			},
			{
				"x": -0.0759453331,
				"y": 1.5019049576,
				"z": -1.8388049635,
				"element": "C" 
			},
			{
				"x": 1.1735404335,
				"y": 1.7575545193,
				"z": -2.4110245214,
				"element": "C" 
			},
			{
				"x": 2.0505847322,
				"y": 0.7013037236,
				"z": -2.6689569787,
				"element": "C" 
			},
			{
				"x": 1.7146291071,
				"y": -0.6260696753,
				"z": -2.3756998877,
				"element": "C" 
			},
			{
				"x": 0.4614891771,
				"y": -0.8649425986,
				"z": -1.8113756124,
				"element": "C" 
			},
			{
				"x": -1.1905929787,
				"y": -4.7252966448,
				"z": -1.6547005904,
				"element": "H" 
			},
			{
				"x": 0.3956847249,
				"y": -5.4501248463,
				"z": -1.2386288494,
				"element": "H" 
			},
			{
				"x": -0.5546237595,
				"y": -4.5115783292,
				"z": -0.041361249,
				"element": "H" 
			},
			{
				"x": -2.6500814356,
				"y": -0.2630400926,
				"z": -2.6577383326,
				"element": "H" 
			},
			{
				"x": -4.1789946745,
				"y": 0.6321361686,
				"z": 0.3649032328,
				"element": "H" 
			},
			{
				"x": 0.9002916463,
				"y": -0.3370479673,
				"z": 1.0744413836,
				"element": "H" 
			},
			{
				"x": 1.7602783123,
				"y": 0.0820775015,
				"z": 3.355171646,
				"element": "H" 
			},
			{
				"x": 0.2792656421,
				"y": 0.921414438,
				"z": 5.1460497152,
				"element": "H" 
			},
			{
				"x": -2.145129547,
				"y": 1.3655586013,
				"z": 4.6901148291,
				"element": "H" 
			},
			{
				"x": -0.7720368512,
				"y": 2.306787977,
				"z": -1.6226241005,
				"element": "H" 
			},
			{
				"x": 1.4637020645,
				"y": 2.7757867021,
				"z": -2.65075306,
				"element": "H" 
			},
			{
				"x": 3.0218257528,
				"y": 0.9063232799,
				"z": -3.1097489071,
				"element": "H" 
			},
			{
				"x": 2.3937347832,
				"y": -1.4399030528,
				"z": -2.5789747741,
				"element": "H" 
			}
		],
		 "valence_orbital": [ 
			{
				"type": "occ",
				"energy": -0.26563,
				"method": "rhf"
			},
			{
				"type": "occ",
				"energy": -0.26087,
				"method": "rhf"
			},
			{
				"type": "occ",
				"energy": -0.24216,
				"method": "rhf"
			},
			{
				"type": "occ",
				"energy": -0.23941,
				"method": "rhf"
			},
			{
				"type": "occ",
				"energy": -0.22192,
				"method": "rhf"
			},
			{
				"type": "unocc",
				"energy": -0.04974,
				"method": "rhf"
			},
			{
				"type": "unocc",
				"energy": -0.02765,
				"method": "rhf"
			},
			{
				"type": "unocc",
				"energy": -0.02069,
				"method": "rhf"
			},
			{
				"type": "unocc",
				"energy": -0.01421,
				"method": "rhf"
			},
			{
				"type": "unocc",
				"energy": 0.01153,
				"method": "rhf"
			}
		],
		"cosmo_sigma_profile": { 
			"-0.025": 0.0,
			"-0.024": 0.0,
			"-0.023": 0.0,
			"-0.022": 0.0,
			"-0.021": 0.0,
			"-0.02": 0.0,
			"-0.019": 0.0,
			"-0.018": 0.220707508816,
			"-0.017": 1.0515845143,
			"-0.016": 0.996518550507,
			"-0.015": 1.54137967668,
			"-0.014": 0.500449573559,
			"-0.013": 0.96052462764,
			"-0.012": 0.376625736842,
			"-0.011": 1.10655782884,
			"-0.01": 1.41022275293,
			"-0.009": 1.98804166318,
			"-0.008": 2.12039338009,
			"-0.007": 6.63390779349,
			"-0.006": 18.0652654094,
			"-0.005": 24.6319711491,
			"-0.004": 27.0752059439,
			"-0.003": 20.7886170833,
			"-0.002": 22.4952893574,
			"-0.001": 19.2853310942,
			"0.0": 19.6869168302,
			"0.001": 22.561810383,
			"0.002": 27.7310969797,
			"0.003": 23.6301145281,
			"0.004": 22.252319529,
			"0.005": 15.2174727714,
			"0.006": 7.05138718104,
			"0.007": 6.99790893167,
			"0.008": 6.4854405727,
			"0.009": 5.59008315829,
			"0.01": 6.95954331811,
			"0.011": 5.18281693909,
			"0.012": 1.97996221392,
			"0.013": 0.251800554645,
			"0.014": 0.0,
			"0.015": 0.0,
			"0.016": 0.0,
			"0.017": 0.0,
			"0.018": 0.0,
			"0.019": 0.0,
			"0.02": 0.0,
			"0.021": 0.0,
			"0.022": 0.0,
			"0.023": 0.0,
			"0.024": 0.0,
			"0.025": 0.0
		}
	}
}
