{
	 "smiles": "OC(=O)C1=CC2=C(O1)C(Br)=CC=C2", 
	 "Tm": 530.15, 
	 "num_atms": 18, 
	 "gaussian": { 
		 "optdone": 1, 
		 "sigma_profile": "yes", 
		 "theory": "DFT", 
		 "functional": "B3LYP", 
		 "basiset": "6-31G**", 
		 "properties": { 
			 "R2extent": 4297.125, 
			 "electric_dipole_moment_norm": 6.08282041408, 
			 "electric_quadrupole_moment_norm": 15.3150172739, 
			 "total_energy": -3143.03374305, 
			 "HOMO_LUMO_gap": 0.17218, 
			 "cosmo_polarized_energy": -17.44, 
			 "cosmo_cavitation_energy": 25.94, 
			 "cosmo_dispersion_energy": -19.56, 
			 "cosmo_repulsion_energy": 1.55, 
			 "cosmo_total_nonelectrostatic_energy": 7.93, 
			 "SMD_solvation_energy": 4.89 
		},
		"coords": [
			{
				"x": -2.92834175,
				"y": -3.019676378,
				"z": -1.3415266628,
				"element": "O" 
			},
			{
				"x": -2.4360447164,
				"y": -2.5812010009,
				"z": -0.1516791671,
				"element": "C" 
			},
			{
				"x": -2.9896035655,
				"y": -2.8362361107,
				"z": 0.8871354888,
				"element": "O" 
			},
			{
				"x": -1.2056066259,
				"y": -1.7605851743,
				"z": -0.2506310133,
				"element": "C" 
			},
			{
				"x": -0.6123206011,
				"y": -1.1061622104,
				"z": -1.2933085622,
				"element": "C" 
			},
			{
				"x": 0.5338760509,
				"y": -0.4303895253,
				"z": -0.7509876431,
				"element": "C" 
			},
			{
				"x": 0.524444106,
				"y": -0.7511401801,
				"z": 0.6224158284,
				"element": "C" 
			},
			{
				"x": -0.5303044425,
				"y": -1.551477477,
				"z": 0.9252482823,
				"element": "O" 
			},
			{
				"x": 1.4946776144,
				"y": -0.2826592378,
				"z": 1.5058366222,
				"element": "C" 
			},
			{
				"x": 1.4452767551,
				"y": -0.7435492302,
				"z": 3.343734533,
				"element": "Br" 
			},
			{
				"x": 2.4925203092,
				"y": 0.5331476148,
				"z": 0.9840386989,
				"element": "C" 
			},
			{
				"x": 2.5137127327,
				"y": 0.8659103385,
				"z": -0.385235319,
				"element": "C" 
			},
			{
				"x": 1.5471007234,
				"y": 0.3960191584,
				"z": -1.2645574901,
				"element": "C" 
			},
			{
				"x": -2.2860675616,
				"y": -2.8748256644,
				"z": -2.0505188384,
				"element": "H" 
			},
			{
				"x": -0.9548463761,
				"y": -1.0698748808,
				"z": -2.3187599111,
				"element": "H" 
			},
			{
				"x": 3.2608718192,
				"y": 0.9156937311,
				"z": 1.6462377302,
				"element": "H" 
			},
			{
				"x": 3.3103321582,
				"y": 1.5058763072,
				"z": -0.7512909434,
				"element": "H" 
			},
			{
				"x": 1.5738233699,
				"y": 0.6580299201,
				"z": -2.3172516333,
				"element": "H" 
			}
		],
		 "valence_orbital": [ 
			{
				"type": "occ",
				"energy": -0.29854,
				"method": "rhf"
			},
			{
				"type": "occ",
				"energy": -0.29583,
				"method": "rhf"
			},
			{
				"type": "occ",
				"energy": -0.28644,
				"method": "rhf"
			},
			{
				"type": "occ",
				"energy": -0.26002,
				"method": "rhf"
			},
			{
				"type": "occ",
				"energy": -0.2446,
				"method": "rhf"
			},
			{
				"type": "unocc",
				"energy": -0.07242,
				"method": "rhf"
			},
			{
				"type": "unocc",
				"energy": -0.01628,
				"method": "rhf"
			},
			{
				"type": "unocc",
				"energy": -0.00254,
				"method": "rhf"
			},
			{
				"type": "unocc",
				"energy": -0.00131,
				"method": "rhf"
			},
			{
				"type": "unocc",
				"energy": 0.04882,
				"method": "rhf"
			}
		],
		"cosmo_sigma_profile": { 
			"-0.025": 0.0,
			"-0.024": 0.0,
			"-0.023": 0.0,
			"-0.022": 0.0,
			"-0.021": 0.0,
			"-0.02": 0.125010249221,
			"-0.019": 0.726245216209,
			"-0.018": 1.18486455308,
			"-0.017": 1.21888506967,
			"-0.016": 1.05567521262,
			"-0.015": 1.28675837167,
			"-0.014": 0.991406901636,
			"-0.013": 0.916180650315,
			"-0.012": 1.3568182902,
			"-0.011": 1.66749695521,
			"-0.01": 1.61164955625,
			"-0.009": 2.1420117112,
			"-0.008": 3.52485964915,
			"-0.007": 8.62099891835,
			"-0.006": 9.19250721265,
			"-0.005": 10.4171124067,
			"-0.004": 8.64299482818,
			"-0.003": 10.0101079226,
			"-0.002": 11.9553117231,
			"-0.001": 14.5060628848,
			"0.0": 15.9008831759,
			"0.001": 20.2386501374,
			"0.002": 17.8349919537,
			"0.003": 16.4848950207,
			"0.004": 14.08749022,
			"0.005": 4.38641289398,
			"0.006": 4.01998249829,
			"0.007": 3.43550380254,
			"0.008": 4.09623020803,
			"0.009": 4.78500321213,
			"0.01": 6.3483495092,
			"0.011": 5.87055070898,
			"0.012": 3.84558613417,
			"0.013": 0.327465304098,
			"0.014": 0.0,
			"0.015": 0.0,
			"0.016": 0.0,
			"0.017": 0.0,
			"0.018": 0.0,
			"0.019": 0.0,
			"0.02": 0.0,
			"0.021": 0.0,
			"0.022": 0.0,
			"0.023": 0.0,
			"0.024": 0.0,
			"0.025": 0.0
		}
	}
}
