{
	 "smiles": "NCC1=NC(=CS1)C1=CC=C(Cl)C=C1", 
	 "Tm": 379.15, 
	 "num_atms": 23, 
	 "gaussian": { 
		 "optdone": 1, 
		 "sigma_profile": "yes", 
		 "theory": "DFT", 
		 "functional": "B3LYP", 
		 "basiset": "6-31G**", 
		 "properties": { 
			 "R2extent": 6489.1478, 
			 "electric_dipole_moment_norm": 2.1016031024, 
			 "electric_quadrupole_moment_norm": 11.857940602, 
			 "total_energy": -1354.36815561, 
			 "HOMO_LUMO_gap": 0.17421, 
			 "cosmo_polarized_energy": -9.84, 
			 "cosmo_cavitation_energy": 30.8, 
			 "cosmo_dispersion_energy": -23.18, 
			 "cosmo_repulsion_energy": 1.78, 
			 "cosmo_total_nonelectrostatic_energy": 9.4, 
			 "SMD_solvation_energy": 2.36 
		},
		"coords": [
			{
				"x": -1.6134922467,
				"y": 2.5774431739,
				"z": 2.2106357139,
				"element": "N" 
			},
			{
				"x": -2.1007684811,
				"y": 3.3733385382,
				"z": 1.0961003901,
				"element": "C" 
			},
			{
				"x": -1.7585574151,
				"y": 2.8361209798,
				"z": -0.2826842901,
				"element": "C" 
			},
			{
				"x": -1.0790484188,
				"y": 1.7517016292,
				"z": -0.4930916074,
				"element": "N" 
			},
			{
				"x": -0.9065987314,
				"y": 1.4867798192,
				"z": -1.845016785,
				"element": "C" 
			},
			{
				"x": -1.4824812733,
				"y": 2.4136046719,
				"z": -2.6767291064,
				"element": "C" 
			},
			{
				"x": -2.265147463,
				"y": 3.6572796936,
				"z": -1.7606829051,
				"element": "S" 
			},
			{
				"x": -0.1522553221,
				"y": 0.2842744697,
				"z": -2.2462133144,
				"element": "C" 
			},
			{
				"x": 0.3740533537,
				"y": -0.570096353,
				"z": -1.2635463834,
				"element": "C" 
			},
			{
				"x": 1.0906199464,
				"y": -1.7129206926,
				"z": -1.610374973,
				"element": "C" 
			},
			{
				"x": 1.2877981291,
				"y": -2.0122176898,
				"z": -2.9573019063,
				"element": "C" 
			},
			{
				"x": 2.1906384258,
				"y": -3.4520029933,
				"z": -3.4059645166,
				"element": "Cl" 
			},
			{
				"x": 0.7770507796,
				"y": -1.1824290003,
				"z": -3.9560705302,
				"element": "C" 
			},
			{
				"x": 0.0630270786,
				"y": -0.0437681425,
				"z": -3.5953324026,
				"element": "C" 
			},
			{
				"x": -1.9750452267,
				"y": 1.6301167735,
				"z": 2.1240956158,
				"element": "H" 
			},
			{
				"x": -0.6034235861,
				"y": 2.4813665764,
				"z": 2.132162029,
				"element": "H" 
			},
			{
				"x": -3.1909011841,
				"y": 3.4691758179,
				"z": 1.1784191476,
				"element": "H" 
			},
			{
				"x": -1.7036200428,
				"y": 4.392308333,
				"z": 1.1876215713,
				"element": "H" 
			},
			{
				"x": -1.494973888,
				"y": 2.4413798469,
				"z": -3.7562837836,
				"element": "H" 
			},
			{
				"x": 0.2133503993,
				"y": -0.3254551423,
				"z": -0.2200958043,
				"element": "H" 
			},
			{
				"x": 1.4928578092,
				"y": -2.3661298881,
				"z": -0.8438169354,
				"element": "H" 
			},
			{
				"x": 0.9374073633,
				"y": -1.4262194535,
				"z": -5.0004119814,
				"element": "H" 
			},
			{
				"x": -0.3282900057,
				"y": 0.592849032,
				"z": -4.3827172425,
				"element": "H" 
			}
		],
		 "valence_orbital": [ 
			{
				"type": "occ",
				"energy": -0.28287,
				"method": "rhf"
			},
			{
				"type": "occ",
				"energy": -0.27373,
				"method": "rhf"
			},
			{
				"type": "occ",
				"energy": -0.26427,
				"method": "rhf"
			},
			{
				"type": "occ",
				"energy": -0.25145,
				"method": "rhf"
			},
			{
				"type": "occ",
				"energy": -0.22098,
				"method": "rhf"
			},
			{
				"type": "unocc",
				"energy": -0.04677,
				"method": "rhf"
			},
			{
				"type": "unocc",
				"energy": -0.018,
				"method": "rhf"
			},
			{
				"type": "unocc",
				"energy": -0.00802,
				"method": "rhf"
			},
			{
				"type": "unocc",
				"energy": 0.00956,
				"method": "rhf"
			},
			{
				"type": "unocc",
				"energy": 0.03113,
				"method": "rhf"
			}
		],
		"cosmo_sigma_profile": { 
			"-0.025": 0.0,
			"-0.024": 0.0,
			"-0.023": 0.0,
			"-0.022": 0.0,
			"-0.021": 0.0,
			"-0.02": 0.0,
			"-0.019": 0.0,
			"-0.018": 0.0,
			"-0.017": 0.0,
			"-0.016": 0.0,
			"-0.015": 0.0,
			"-0.014": 0.0,
			"-0.013": 0.0,
			"-0.012": 0.0,
			"-0.011": 0.00300928364695,
			"-0.01": 2.03286084559,
			"-0.009": 5.03444366135,
			"-0.008": 3.80834285758,
			"-0.007": 9.06016744435,
			"-0.006": 15.346653797,
			"-0.005": 18.0122806871,
			"-0.004": 13.1396924785,
			"-0.003": 11.8137836307,
			"-0.002": 12.1740516287,
			"-0.001": 13.3773962351,
			"0.0": 15.1416081452,
			"0.001": 22.015987094,
			"0.002": 30.7901553145,
			"0.003": 31.7434085377,
			"0.004": 22.5825558963,
			"0.005": 10.5852935507,
			"0.006": 2.82209452072,
			"0.007": 3.13569988133,
			"0.008": 1.22074198495,
			"0.009": 0.793742160707,
			"0.01": 0.402621641765,
			"0.011": 1.01658555135,
			"0.012": 0.76696829376,
			"0.013": 0.607911397719,
			"0.014": 0.377471053452,
			"0.015": 0.968577167523,
			"0.016": 0.382333129016,
			"0.017": 0.674996493998,
			"0.018": 0.648893457061,
			"0.019": 0.415587754714,
			"0.02": 0.0,
			"0.021": 0.0,
			"0.022": 0.0,
			"0.023": 0.0,
			"0.024": 0.0,
			"0.025": 0.0
		}
	}
}
