{
	 "smiles": "CCC(=O)C1=CC=C(C(F)=C1)C(F)(F)F", 
	 "Tm": 310.15, 
	 "num_atms": 23, 
	 "gaussian": { 
		 "optdone": 1, 
		 "sigma_profile": "yes", 
		 "theory": "DFT", 
		 "functional": "B3LYP", 
		 "basiset": "6-31G**", 
		 "properties": { 
			 "R2extent": 4802.971, 
			 "electric_dipole_moment_norm": 1.94124120346, 
			 "electric_quadrupole_moment_norm": 14.406990893, 
			 "total_energy": -860.476001583, 
			 "HOMO_LUMO_gap": 0.18568, 
			 "cosmo_polarized_energy": -7.71, 
			 "cosmo_cavitation_energy": 29.23, 
			 "cosmo_dispersion_energy": -20.61, 
			 "cosmo_repulsion_energy": 1.53, 
			 "cosmo_total_nonelectrostatic_energy": 10.15, 
			 "SMD_solvation_energy": 7.09 
		},
		"coords": [
			{
				"x": -0.542402865,
				"y": 2.477617191,
				"z": 3.0571970202,
				"element": "C" 
			},
			{
				"x": -0.6490406557,
				"y": 1.2615470501,
				"z": 2.1392349995,
				"element": "C" 
			},
			{
				"x": 0.3087946195,
				"y": 1.3212688157,
				"z": 0.9570631625,
				"element": "C" 
			},
			{
				"x": 1.0654563412,
				"y": 2.2659660113,
				"z": 0.8015943369,
				"element": "O" 
			},
			{
				"x": 0.3138484783,
				"y": 0.1853159485,
				"z": -0.0345658049,
				"element": "C" 
			},
			{
				"x": 1.2028298955,
				"y": 0.2573082211,
				"z": -1.1162696354,
				"element": "C" 
			},
			{
				"x": 1.2497446646,
				"y": -0.7625818002,
				"z": -2.0610909947,
				"element": "C" 
			},
			{
				"x": 0.41082716,
				"y": -1.8750172526,
				"z": -1.9461594885,
				"element": "C" 
			},
			{
				"x": -0.4693599248,
				"y": -1.9332122177,
				"z": -0.8637679092,
				"element": "C" 
			},
			{
				"x": -1.2836914445,
				"y": -2.9961967565,
				"z": -0.7375771829,
				"element": "F" 
			},
			{
				"x": -0.5310200273,
				"y": -0.926741606,
				"z": 0.0884323756,
				"element": "C" 
			},
			{
				"x": 0.4384177436,
				"y": -2.99544787,
				"z": -2.9536569605,
				"element": "C" 
			},
			{
				"x": 1.3486810249,
				"y": -2.7629492411,
				"z": -3.9235981124,
				"element": "F" 
			},
			{
				"x": 0.7548414096,
				"y": -4.1729669922,
				"z": -2.37681254,
				"element": "F" 
			},
			{
				"x": -0.7595826628,
				"y": -3.1522079498,
				"z": -3.553373045,
				"element": "F" 
			},
			{
				"x": -0.7603453558,
				"y": 3.3992812503,
				"z": 2.5118886591,
				"element": "H" 
			},
			{
				"x": 0.467204755,
				"y": 2.5724180316,
				"z": 3.4646706037,
				"element": "H" 
			},
			{
				"x": -1.2466319526,
				"y": 2.3911091927,
				"z": 3.8894554699,
				"element": "H" 
			},
			{
				"x": -0.4517456121,
				"y": 0.3341682932,
				"z": 2.6947140983,
				"element": "H" 
			},
			{
				"x": -1.6706253244,
				"y": 1.1552395429,
				"z": 1.7486185889,
				"element": "H" 
			},
			{
				"x": 1.8478857613,
				"y": 1.1249341096,
				"z": -1.1940566056,
				"element": "H" 
			},
			{
				"x": 1.9367752658,
				"y": -0.7074605502,
				"z": -2.8975067662,
				"element": "H" 
			},
			{
				"x": -1.2364612944,
				"y": -1.0334914217,
				"z": 0.9037657305,
				"element": "H" 
			}
		],
		 "valence_orbital": [ 
			{
				"type": "occ",
				"energy": -0.36877,
				"method": "rhf"
			},
			{
				"type": "occ",
				"energy": -0.35546,
				"method": "rhf"
			},
			{
				"type": "occ",
				"energy": -0.28791,
				"method": "rhf"
			},
			{
				"type": "occ",
				"energy": -0.26965,
				"method": "rhf"
			},
			{
				"type": "occ",
				"energy": -0.26439,
				"method": "rhf"
			},
			{
				"type": "unocc",
				"energy": -0.07871,
				"method": "rhf"
			},
			{
				"type": "unocc",
				"energy": -0.02627,
				"method": "rhf"
			},
			{
				"type": "unocc",
				"energy": 0.01431,
				"method": "rhf"
			},
			{
				"type": "unocc",
				"energy": 0.07477,
				"method": "rhf"
			},
			{
				"type": "unocc",
				"energy": 0.09669,
				"method": "rhf"
			}
		],
		"cosmo_sigma_profile": { 
			"-0.025": 0.0,
			"-0.024": 0.0,
			"-0.023": 0.0,
			"-0.022": 0.0,
			"-0.021": 0.0,
			"-0.02": 0.0,
			"-0.019": 0.0,
			"-0.018": 0.0,
			"-0.017": 0.0,
			"-0.016": 0.0,
			"-0.015": 0.0,
			"-0.014": 0.0,
			"-0.013": 0.0,
			"-0.012": 0.0,
			"-0.011": 0.0,
			"-0.01": 0.0,
			"-0.009": 0.479782414653,
			"-0.008": 3.75446874132,
			"-0.007": 5.86803678259,
			"-0.006": 11.1577854033,
			"-0.005": 9.40514162234,
			"-0.004": 10.4486836866,
			"-0.003": 16.9589733856,
			"-0.002": 21.0259253672,
			"-0.001": 23.5133445365,
			"0.0": 24.0913538487,
			"0.001": 23.5479949194,
			"0.002": 31.0449303086,
			"0.003": 30.5277406522,
			"0.004": 5.25429649684,
			"0.005": 1.4391267258,
			"0.006": 1.45280913351,
			"0.007": 1.59454670738,
			"0.008": 2.00848972437,
			"0.009": 1.88894067268,
			"0.01": 2.36702510917,
			"0.011": 3.44329058862,
			"0.012": 2.12577310835,
			"0.013": 0.168708499223,
			"0.014": 0.0,
			"0.015": 0.0,
			"0.016": 0.0,
			"0.017": 0.0,
			"0.018": 0.0,
			"0.019": 0.0,
			"0.02": 0.0,
			"0.021": 0.0,
			"0.022": 0.0,
			"0.023": 0.0,
			"0.024": 0.0,
			"0.025": 0.0
		}
	}
}
