{
	 "smiles": "CC1(C)CCC2=C(C1)SC(N)=C2C(N)=O", 
	 "Tm": 418.15, 
	 "num_atms": 31, 
	 "gaussian": { 
		 "optdone": 1, 
		 "sigma_profile": "yes", 
		 "theory": "DFT", 
		 "functional": "B3LYP", 
		 "basiset": "6-31G**", 
		 "properties": { 
			 "R2extent": 4611.7618, 
			 "electric_dipole_moment_norm": 2.84515850877, 
			 "electric_quadrupole_moment_norm": 11.9720846881, 
			 "total_energy": -1011.76622282, 
			 "HOMO_LUMO_gap": 0.17966, 
			 "cosmo_polarized_energy": -12.76, 
			 "cosmo_cavitation_energy": 32.55, 
			 "cosmo_dispersion_energy": -24.47, 
			 "cosmo_repulsion_energy": 1.85, 
			 "cosmo_total_nonelectrostatic_energy": 9.93, 
			 "SMD_solvation_energy": 4.95 
		},
		"coords": [
			{
				"x": 1.7663018176,
				"y": -1.8205822542,
				"z": 2.3160825856,
				"element": "C" 
			},
			{
				"x": 1.4368394036,
				"y": -0.8154621529,
				"z": 1.1996395862,
				"element": "C" 
			},
			{
				"x": 2.6222781971,
				"y": -0.7468449456,
				"z": 0.2168422336,
				"element": "C" 
			},
			{
				"x": 0.1445493751,
				"y": -1.2570354975,
				"z": 0.4753388661,
				"element": "C" 
			},
			{
				"x": -0.2839878042,
				"y": -0.3137782569,
				"z": -0.6624060891,
				"element": "C" 
			},
			{
				"x": -0.2090837173,
				"y": 1.1426759109,
				"z": -0.2586058735,
				"element": "C" 
			},
			{
				"x": 0.4667367455,
				"y": 1.4938421108,
				"z": 0.8708696262,
				"element": "C" 
			},
			{
				"x": 1.1799052943,
				"y": 0.57950521,
				"z": 1.8267562936,
				"element": "C" 
			},
			{
				"x": 0.3771676942,
				"y": 3.2303905315,
				"z": 1.1683339621,
				"element": "S" 
			},
			{
				"x": -0.5819645622,
				"y": 3.4743866474,
				"z": -0.2761652624,
				"element": "C" 
			},
			{
				"x": -1.0622470731,
				"y": 4.7043524978,
				"z": -0.596056298,
				"element": "N" 
			},
			{
				"x": -0.8077865367,
				"y": 2.2748014526,
				"z": -0.9551010173,
				"element": "C" 
			},
			{
				"x": -1.5222959587,
				"y": 2.3185544908,
				"z": -2.2391180962,
				"element": "C" 
			},
			{
				"x": -1.6309776693,
				"y": 1.162409932,
				"z": -2.9803243113,
				"element": "N" 
			},
			{
				"x": -2.0459588949,
				"y": 3.3581591104,
				"z": -2.6764126084,
				"element": "O" 
			},
			{
				"x": 1.9912958472,
				"y": -2.809299807,
				"z": 1.9003951886,
				"element": "H" 
			},
			{
				"x": 2.6397410862,
				"y": -1.4960476369,
				"z": 2.8933433943,
				"element": "H" 
			},
			{
				"x": 0.9272413711,
				"y": -1.9324463592,
				"z": 3.0120688146,
				"element": "H" 
			},
			{
				"x": 3.5520592318,
				"y": -0.5200917174,
				"z": 0.7503540653,
				"element": "H" 
			},
			{
				"x": 2.4807336821,
				"y": 0.0296341803,
				"z": -0.5404252884,
				"element": "H" 
			},
			{
				"x": 2.7603109923,
				"y": -1.7051066647,
				"z": -0.2972630573,
				"element": "H" 
			},
			{
				"x": 0.2711385155,
				"y": -2.2717566306,
				"z": 0.0777880995,
				"element": "H" 
			},
			{
				"x": -0.665629963,
				"y": -1.308827848,
				"z": 1.2143228753,
				"element": "H" 
			},
			{
				"x": -1.3048558674,
				"y": -0.5674307688,
				"z": -0.9701942542,
				"element": "H" 
			},
			{
				"x": 0.3589295722,
				"y": -0.4943860466,
				"z": -1.5393045818,
				"element": "H" 
			},
			{
				"x": 2.1350581701,
				"y": 1.0196656011,
				"z": 2.1442452884,
				"element": "H" 
			},
			{
				"x": 0.5847016212,
				"y": 0.4576501344,
				"z": 2.744192626,
				"element": "H" 
			},
			{
				"x": -0.5742719147,
				"y": 5.524729712,
				"z": -0.2722980287,
				"element": "H" 
			},
			{
				"x": -1.5321423933,
				"y": 4.7180584283,
				"z": -1.501880679,
				"element": "H" 
			},
			{
				"x": -1.9926664603,
				"y": 1.3067584727,
				"z": -3.9123036726,
				"element": "H" 
			},
			{
				"x": -0.975919802,
				"y": 0.4080221635,
				"z": -2.8583143872,
				"element": "H" 
			}
		],
		 "valence_orbital": [ 
			{
				"type": "occ",
				"energy": -0.2937,
				"method": "rhf"
			},
			{
				"type": "occ",
				"energy": -0.26257,
				"method": "rhf"
			},
			{
				"type": "occ",
				"energy": -0.24666,
				"method": "rhf"
			},
			{
				"type": "occ",
				"energy": -0.24045,
				"method": "rhf"
			},
			{
				"type": "occ",
				"energy": -0.18526,
				"method": "rhf"
			},
			{
				"type": "unocc",
				"energy": -0.0056,
				"method": "rhf"
			},
			{
				"type": "unocc",
				"energy": 0.01786,
				"method": "rhf"
			},
			{
				"type": "unocc",
				"energy": 0.02341,
				"method": "rhf"
			},
			{
				"type": "unocc",
				"energy": 0.07171,
				"method": "rhf"
			},
			{
				"type": "unocc",
				"energy": 0.08311,
				"method": "rhf"
			}
		],
		"cosmo_sigma_profile": { 
			"-0.025": 0.0,
			"-0.024": 0.0,
			"-0.023": 0.0,
			"-0.022": 0.0,
			"-0.021": 0.0,
			"-0.02": 0.0,
			"-0.019": 0.0,
			"-0.018": 0.0,
			"-0.017": 0.0,
			"-0.016": 0.0,
			"-0.015": 0.00507630471386,
			"-0.014": 1.10247024392,
			"-0.013": 1.88609089996,
			"-0.012": 2.91276277119,
			"-0.011": 3.74625239641,
			"-0.01": 3.76810380533,
			"-0.009": 3.45399632408,
			"-0.008": 4.34141816236,
			"-0.007": 4.01778943704,
			"-0.006": 3.60376265066,
			"-0.005": 3.3882138138,
			"-0.004": 6.32265274288,
			"-0.003": 19.3425840762,
			"-0.002": 38.1263921589,
			"-0.001": 28.4563714393,
			"0.0": 22.4368534266,
			"0.001": 23.9081585923,
			"0.002": 18.3622394855,
			"0.003": 12.33420271,
			"0.004": 13.3886302132,
			"0.005": 14.2484332719,
			"0.006": 7.39787794646,
			"0.007": 2.44846181285,
			"0.008": 2.99314964947,
			"0.009": 3.2194014675,
			"0.01": 1.94597231959,
			"0.011": 1.1716442413,
			"0.012": 2.02112876284,
			"0.013": 2.12162360959,
			"0.014": 2.45888302059,
			"0.015": 1.01515061962,
			"0.016": 0.0,
			"0.017": 0.0,
			"0.018": 0.0,
			"0.019": 0.0,
			"0.02": 0.0,
			"0.021": 0.0,
			"0.022": 0.0,
			"0.023": 0.0,
			"0.024": 0.0,
			"0.025": 0.0
		}
	}
}
