{
	 "smiles": "C[C@@]12CCC(O)C1(C)CCC1C2CC=C2CC(O)CCC12C", 
	 "Tm": 456.15, 
	 "num_atms": 54, 
	 "gaussian": { 
		 "optdone": 1, 
		 "sigma_profile": "yes", 
		 "theory": "DFT", 
		 "functional": "B3LYP", 
		 "basiset": "6-31G**", 
		 "properties": { 
			 "R2extent": 7262.8302, 
			 "electric_dipole_moment_norm": 2.36553613585, 
			 "electric_quadrupole_moment_norm": 10.9584603294, 
			 "total_energy": -931.848116558, 
			 "HOMO_LUMO_gap": 0.25415, 
			 "cosmo_polarized_energy": -11.31, 
			 "cosmo_cavitation_energy": 44.56, 
			 "cosmo_dispersion_energy": -31.67, 
			 "cosmo_repulsion_energy": 2.32, 
			 "cosmo_total_nonelectrostatic_energy": 15.21, 
			 "SMD_solvation_energy": 6.27 
		},
		"coords": [
			{
				"x": -2.3025471656,
				"y": -2.1753706748,
				"z": -0.6027474969,
				"element": "C" 
			},
			{
				"x": -0.7656746789,
				"y": -2.1597543631,
				"z": -0.4511634626,
				"element": "C" 
			},
			{
				"x": -0.3066562636,
				"y": -3.480603732,
				"z": 0.2426675867,
				"element": "C" 
			},
			{
				"x": 1.0785867423,
				"y": -3.8558748423,
				"z": -0.3421109508,
				"element": "C" 
			},
			{
				"x": 1.3693813931,
				"y": -2.8299994919,
				"z": -1.4630362804,
				"element": "C" 
			},
			{
				"x": 1.9905666667,
				"y": -3.3918019259,
				"z": -2.6184086449,
				"element": "O" 
			},
			{
				"x": -0.0060181229,
				"y": -2.2124095847,
				"z": -1.8383805138,
				"element": "C" 
			},
			{
				"x": -0.7037793871,
				"y": -3.1539871514,
				"z": -2.845829974,
				"element": "C" 
			},
			{
				"x": 0.156011984,
				"y": -0.8340804489,
				"z": -2.5157405249,
				"element": "C" 
			},
			{
				"x": 0.5365922037,
				"y": 0.3217998918,
				"z": -1.5794680803,
				"element": "C" 
			},
			{
				"x": -0.4747786301,
				"y": 0.4214711467,
				"z": -0.4236198067,
				"element": "C" 
			},
			{
				"x": -0.408304207,
				"y": -0.8852049837,
				"z": 0.4128607167,
				"element": "C" 
			},
			{
				"x": 0.902759613,
				"y": -0.9397816435,
				"z": 1.2365619857,
				"element": "C" 
			},
			{
				"x": 1.3089219245,
				"y": 0.3921757949,
				"z": 1.8079719877,
				"element": "C" 
			},
			{
				"x": 0.7668001388,
				"y": 1.5698396496,
				"z": 1.4787126586,
				"element": "C" 
			},
			{
				"x": 1.2789049703,
				"y": 2.880863228,
				"z": 2.0219063151,
				"element": "C" 
			},
			{
				"x": 1.8977562745,
				"y": 3.7625268969,
				"z": 0.9019700617,
				"element": "C" 
			},
			{
				"x": 1.6664694254,
				"y": 5.1511250866,
				"z": 1.151689856,
				"element": "O" 
			},
			{
				"x": 1.2792209353,
				"y": 3.436713286,
				"z": -0.4664153205,
				"element": "C" 
			},
			{
				"x": -0.1894117086,
				"y": 3.0091759106,
				"z": -0.3442643521,
				"element": "C" 
			},
			{
				"x": -0.3847700099,
				"y": 1.6937903092,
				"z": 0.4838182738,
				"element": "C" 
			},
			{
				"x": -1.7200560983,
				"y": 1.8447497778,
				"z": 1.2609074098,
				"element": "C" 
			},
			{
				"x": -2.7751237253,
				"y": -2.1851624055,
				"z": 0.3860911593,
				"element": "H" 
			},
			{
				"x": -2.6833667501,
				"y": -1.2996200912,
				"z": -1.1379371806,
				"element": "H" 
			},
			{
				"x": -2.6489225772,
				"y": -3.0638040947,
				"z": -1.1352271887,
				"element": "H" 
			},
			{
				"x": -0.2968234757,
				"y": -3.385282163,
				"z": 1.3324796794,
				"element": "H" 
			},
			{
				"x": -1.0283781281,
				"y": -4.2724803011,
				"z": 0.0180901689,
				"element": "H" 
			},
			{
				"x": 1.8673499218,
				"y": -3.8574919338,
				"z": 0.4181218658,
				"element": "H" 
			},
			{
				"x": 1.0609805073,
				"y": -4.855093518,
				"z": -0.7888554361,
				"element": "H" 
			},
			{
				"x": 2.020506076,
				"y": -2.03398439,
				"z": -1.0800380715,
				"element": "H" 
			},
			{
				"x": 2.8936107793,
				"y": -3.6323298692,
				"z": -2.3778327587,
				"element": "H" 
			},
			{
				"x": -0.0833304279,
				"y": -3.2624390468,
				"z": -3.7375399497,
				"element": "H" 
			},
			{
				"x": -0.8676242078,
				"y": -4.1575499852,
				"z": -2.4402976224,
				"element": "H" 
			},
			{
				"x": -1.6725838272,
				"y": -2.7504125293,
				"z": -3.1522233272,
				"element": "H" 
			},
			{
				"x": -0.7907052294,
				"y": -0.5717205143,
				"z": -3.0078067789,
				"element": "H" 
			},
			{
				"x": 0.8971605198,
				"y": -0.9346971118,
				"z": -3.3184229257,
				"element": "H" 
			},
			{
				"x": 1.5542336172,
				"y": 0.1937808238,
				"z": -1.1903638543,
				"element": "H" 
			},
			{
				"x": 0.5506536038,
				"y": 1.244195188,
				"z": -2.1681281784,
				"element": "H" 
			},
			{
				"x": -1.4673863403,
				"y": 0.4713221602,
				"z": -0.8936056263,
				"element": "H" 
			},
			{
				"x": -1.2041019225,
				"y": -0.8326327934,
				"z": 1.1650694675,
				"element": "H" 
			},
			{
				"x": 0.7873572982,
				"y": -1.6579628697,
				"z": 2.0584075264,
				"element": "H" 
			},
			{
				"x": 1.7475490079,
				"y": -1.3193514544,
				"z": 0.6506354478,
				"element": "H" 
			},
			{
				"x": 2.1332925111,
				"y": 0.3737291916,
				"z": 2.5219125041,
				"element": "H" 
			},
			{
				"x": 1.9983165104,
				"y": 2.717363814,
				"z": 2.8324495649,
				"element": "H" 
			},
			{
				"x": 0.4439224783,
				"y": 3.4591585162,
				"z": 2.4403877414,
				"element": "H" 
			},
			{
				"x": 2.9814793206,
				"y": 3.5719312326,
				"z": 0.8533830235,
				"element": "H" 
			},
			{
				"x": 2.002097897,
				"y": 5.3528319175,
				"z": 2.03501158,
				"element": "H" 
			},
			{
				"x": 1.3769184465,
				"y": 4.3245772858,
				"z": -1.0997735567,
				"element": "H" 
			},
			{
				"x": 1.8664217541,
				"y": 2.6406677088,
				"z": -0.934155635,
				"element": "H" 
			},
			{
				"x": -0.7347092989,
				"y": 3.824641542,
				"z": 0.1449580099,
				"element": "H" 
			},
			{
				"x": -0.6470333658,
				"y": 2.8961908416,
				"z": -1.333836841,
				"element": "H" 
			},
			{
				"x": -2.5435961373,
				"y": 2.0425957121,
				"z": 0.5643878135,
				"element": "H" 
			},
			{
				"x": -1.9693785137,
				"y": 0.951007343,
				"z": 1.8382445074,
				"element": "H" 
			},
			{
				"x": -1.673562322,
				"y": 2.6848596585,
				"z": 1.9611334276,
				"element": "H" 
			}
		],
		 "valence_orbital": [ 
			{
				"type": "occ",
				"energy": -0.2735,
				"method": "rhf"
			},
			{
				"type": "occ",
				"energy": -0.27076,
				"method": "rhf"
			},
			{
				"type": "occ",
				"energy": -0.2603,
				"method": "rhf"
			},
			{
				"type": "occ",
				"energy": -0.25745,
				"method": "rhf"
			},
			{
				"type": "occ",
				"energy": -0.22413,
				"method": "rhf"
			},
			{
				"type": "unocc",
				"energy": 0.03002,
				"method": "rhf"
			},
			{
				"type": "unocc",
				"energy": 0.06756,
				"method": "rhf"
			},
			{
				"type": "unocc",
				"energy": 0.07594,
				"method": "rhf"
			},
			{
				"type": "unocc",
				"energy": 0.08109,
				"method": "rhf"
			},
			{
				"type": "unocc",
				"energy": 0.0926,
				"method": "rhf"
			}
		],
		"cosmo_sigma_profile": { 
			"-0.025": 0.0,
			"-0.024": 0.0,
			"-0.023": 0.0,
			"-0.022": 0.0,
			"-0.021": 0.0,
			"-0.02": 0.0,
			"-0.019": 0.0,
			"-0.018": 0.0,
			"-0.017": 0.0,
			"-0.016": 0.028520966086,
			"-0.015": 1.58159829917,
			"-0.014": 1.71008912684,
			"-0.013": 1.8565057902,
			"-0.012": 1.18581575497,
			"-0.011": 2.13288930555,
			"-0.01": 2.40119434737,
			"-0.009": 0.998548733504,
			"-0.008": 1.36866302308,
			"-0.007": 1.44497091175,
			"-0.006": 2.58442878633,
			"-0.005": 2.73471523931,
			"-0.004": 6.30205384163,
			"-0.003": 23.6252843398,
			"-0.002": 54.3881481197,
			"-0.001": 61.2910710288,
			"0.0": 50.826144083,
			"0.001": 44.5353842003,
			"0.002": 28.2337628035,
			"0.003": 10.4704963798,
			"0.004": 6.67098108263,
			"0.005": 4.8180703173,
			"0.006": 4.29600654667,
			"0.007": 5.04380357321,
			"0.008": 2.75165789399,
			"0.009": 2.27928302614,
			"0.01": 2.97983448666,
			"0.011": 2.50850481682,
			"0.012": 3.16197736926,
			"0.013": 3.04126149576,
			"0.014": 1.96878825715,
			"0.015": 0.736077437801,
			"0.016": 0.0,
			"0.017": 0.0,
			"0.018": 0.0,
			"0.019": 0.0,
			"0.02": 0.0,
			"0.021": 0.0,
			"0.022": 0.0,
			"0.023": 0.0,
			"0.024": 0.0,
			"0.025": 0.0
		}
	}
}
