{
	 "smiles": "NC1=NC=C(CC2=C(C=C(C=C2)C#N)C(F)(F)F)S1", 
	 "Tm": 470.15, 
	 "num_atms": 27, 
	 "gaussian": { 
		 "optdone": 1, 
		 "sigma_profile": "yes", 
		 "theory": "DFT", 
		 "functional": "B3LYP", 
		 "basiset": "6-31G**", 
		 "properties": { 
			 "R2extent": 6460.1639, 
			 "electric_dipole_moment_norm": 3.50250818414, 
			 "electric_quadrupole_moment_norm": 30.907437723, 
			 "total_energy": -1324.0454684, 
			 "HOMO_LUMO_gap": 0.1454, 
			 "cosmo_polarized_energy": -17.26, 
			 "cosmo_cavitation_energy": 35.47, 
			 "cosmo_dispersion_energy": -24.49, 
			 "cosmo_repulsion_energy": 1.79, 
			 "cosmo_total_nonelectrostatic_energy": 12.78, 
			 "SMD_solvation_energy": 6.05 
		},
		"coords": [
			{
				"x": 0.5995939586,
				"y": 3.0649401195,
				"z": -4.7730055299,
				"element": "N" 
			},
			{
				"x": 0.0799089846,
				"y": 2.3836147037,
				"z": -3.6960672647,
				"element": "C" 
			},
			{
				"x": -0.7687488479,
				"y": 1.4018711346,
				"z": -3.7954975349,
				"element": "N" 
			},
			{
				"x": -1.1589854013,
				"y": 0.9751597078,
				"z": -2.5450250184,
				"element": "C" 
			},
			{
				"x": -0.6230555943,
				"y": 1.6079723537,
				"z": -1.4650950698,
				"element": "C" 
			},
			{
				"x": -0.8810961978,
				"y": 1.3559668739,
				"z": -0.0056505828,
				"element": "C" 
			},
			{
				"x": 0.3526772267,
				"y": 1.0272600121,
				"z": 0.8281896798,
				"element": "C" 
			},
			{
				"x": 1.0645312923,
				"y": -0.1913136972,
				"z": 0.7516704365,
				"element": "C" 
			},
			{
				"x": 2.1819485922,
				"y": -0.4093161545,
				"z": 1.5566327289,
				"element": "C" 
			},
			{
				"x": 2.6213912178,
				"y": 0.5740987295,
				"z": 2.4542926499,
				"element": "C" 
			},
			{
				"x": 1.9236887486,
				"y": 1.7857664417,
				"z": 2.5422148961,
				"element": "C" 
			},
			{
				"x": 0.8076241372,
				"y": 1.9910242134,
				"z": 1.7386457207,
				"element": "C" 
			},
			{
				"x": 3.7715463362,
				"y": 0.3351781893,
				"z": 3.2765397785,
				"element": "C" 
			},
			{
				"x": 4.7042265493,
				"y": 0.1458881927,
				"z": 3.9451194023,
				"element": "N" 
			},
			{
				"x": 0.697520024,
				"y": -1.2913166404,
				"z": -0.2238096457,
				"element": "C" 
			},
			{
				"x": -0.6370606087,
				"y": -1.515358086,
				"z": -0.2766368493,
				"element": "F" 
			},
			{
				"x": 1.1051125967,
				"y": -1.0031668972,
				"z": -1.4762862839,
				"element": "F" 
			},
			{
				"x": 1.272420084,
				"y": -2.4658206442,
				"z": 0.1160407708,
				"element": "F" 
			},
			{
				"x": 0.4675973478,
				"y": 2.8717953187,
				"z": -2.0379446407,
				"element": "S" 
			},
			{
				"x": 1.5279495861,
				"y": 3.448593066,
				"z": -4.6672338352,
				"element": "H" 
			},
			{
				"x": 0.4545898453,
				"y": 2.5781225805,
				"z": -5.6483803086,
				"element": "H" 
			},
			{
				"x": -1.8548958279,
				"y": 0.1467584009,
				"z": -2.4684594913,
				"element": "H" 
			},
			{
				"x": -1.3599161726,
				"y": 2.2323186184,
				"z": 0.4480090228,
				"element": "H" 
			},
			{
				"x": -1.6026151465,
				"y": 0.5382305059,
				"z": 0.0597602342,
				"element": "H" 
			},
			{
				"x": 2.713861937,
				"y": -1.3502625916,
				"z": 1.493859253,
				"element": "H" 
			},
			{
				"x": 2.2527454565,
				"y": 2.5515076224,
				"z": 3.2364763196,
				"element": "H" 
			},
			{
				"x": 0.2658398763,
				"y": 2.9289879266,
				"z": 1.8181411621,
				"element": "H" 
			}
		],
		 "valence_orbital": [ 
			{
				"type": "occ",
				"energy": -0.29279,
				"method": "rhf"
			},
			{
				"type": "occ",
				"energy": -0.28218,
				"method": "rhf"
			},
			{
				"type": "occ",
				"energy": -0.27737,
				"method": "rhf"
			},
			{
				"type": "occ",
				"energy": -0.26949,
				"method": "rhf"
			},
			{
				"type": "occ",
				"energy": -0.2134,
				"method": "rhf"
			},
			{
				"type": "unocc",
				"energy": -0.068,
				"method": "rhf"
			},
			{
				"type": "unocc",
				"energy": -0.04682,
				"method": "rhf"
			},
			{
				"type": "unocc",
				"energy": -0.01136,
				"method": "rhf"
			},
			{
				"type": "unocc",
				"energy": 0.00629,
				"method": "rhf"
			},
			{
				"type": "unocc",
				"energy": 0.02767,
				"method": "rhf"
			}
		],
		"cosmo_sigma_profile": { 
			"-0.025": 0.0,
			"-0.024": 0.0,
			"-0.023": 0.0,
			"-0.022": 0.0,
			"-0.021": 0.0,
			"-0.02": 0.0,
			"-0.019": 0.0,
			"-0.018": 0.0,
			"-0.017": 0.0,
			"-0.016": 0.0,
			"-0.015": 0.289935795502,
			"-0.014": 1.89202704462,
			"-0.013": 2.50748037833,
			"-0.012": 2.96606810791,
			"-0.011": 2.59471752783,
			"-0.01": 2.01189532845,
			"-0.009": 4.09020254752,
			"-0.008": 8.53643890623,
			"-0.007": 11.1347695118,
			"-0.006": 11.6939585296,
			"-0.005": 13.5289460183,
			"-0.004": 12.7315797796,
			"-0.003": 15.9876364367,
			"-0.002": 18.0815663383,
			"-0.001": 18.797242782,
			"0.0": 23.268145178,
			"0.001": 22.4218981899,
			"0.002": 27.1137095392,
			"0.003": 27.3342585792,
			"0.004": 13.9719823251,
			"0.005": 8.41212031135,
			"0.006": 4.84563646239,
			"0.007": 5.45273981408,
			"0.008": 5.87036154817,
			"0.009": 5.418072071,
			"0.01": 4.63598392305,
			"0.011": 3.53538435799,
			"0.012": 4.52127023958,
			"0.013": 1.91709870329,
			"0.014": 0.900378402337,
			"0.015": 0.831265289849,
			"0.016": 0.470898209675,
			"0.017": 0.0,
			"0.018": 0.0,
			"0.019": 0.0,
			"0.02": 0.0,
			"0.021": 0.0,
			"0.022": 0.0,
			"0.023": 0.0,
			"0.024": 0.0,
			"0.025": 0.0
		}
	}
}
