{
	 "smiles": "CC(=O)C1=C(C)N=C2SC=CN12", 
	 "Tm": 406.15, 
	 "num_atms": 20, 
	 "gaussian": { 
		 "optdone": 1, 
		 "sigma_profile": "yes", 
		 "theory": "DFT", 
		 "functional": "B3LYP", 
		 "basiset": "6-31G**", 
		 "properties": { 
			 "R2extent": 2977.7123, 
			 "electric_dipole_moment_norm": 4.80665576051, 
			 "electric_quadrupole_moment_norm": 8.81848084139, 
			 "total_energy": -892.570705419, 
			 "HOMO_LUMO_gap": 0.17904, 
			 "cosmo_polarized_energy": -13.62, 
			 "cosmo_cavitation_energy": 25.64, 
			 "cosmo_dispersion_energy": -19.37, 
			 "cosmo_repulsion_energy": 1.46, 
			 "cosmo_total_nonelectrostatic_energy": 7.73, 
			 "SMD_solvation_energy": 3.46 
		},
		"coords": [
			{
				"x": -0.617711102,
				"y": 1.722094598,
				"z": 0.5399222795,
				"element": "C" 
			},
			{
				"x": -0.0421275754,
				"y": 1.0372106673,
				"z": -0.6919960418,
				"element": "C" 
			},
			{
				"x": 0.6075422039,
				"y": 1.682061698,
				"z": -1.5111892528,
				"element": "O" 
			},
			{
				"x": -0.2653725044,
				"y": -0.3895066119,
				"z": -0.8947902118,
				"element": "C" 
			},
			{
				"x": 0.1788996587,
				"y": -1.1926336679,
				"z": -1.9563770544,
				"element": "C" 
			},
			{
				"x": 0.9914113414,
				"y": -0.7694038089,
				"z": -3.1364355844,
				"element": "C" 
			},
			{
				"x": -0.2232854363,
				"y": -2.4935326938,
				"z": -1.8116315532,
				"element": "N" 
			},
			{
				"x": -0.9046471327,
				"y": -2.5021195043,
				"z": -0.6828120166,
				"element": "C" 
			},
			{
				"x": -1.7502837702,
				"y": -3.7272810688,
				"z": 0.2294397769,
				"element": "S" 
			},
			{
				"x": -2.1777253913,
				"y": -2.5135374461,
				"z": 1.4285170126,
				"element": "C" 
			},
			{
				"x": -1.698436542,
				"y": -1.2859461433,
				"z": 1.1261598474,
				"element": "C" 
			},
			{
				"x": -0.9787977172,
				"y": -1.2753709543,
				"z": -0.0657607426,
				"element": "N" 
			},
			{
				"x": -0.2225913428,
				"y": 1.2802611013,
				"z": 1.462250024,
				"element": "H" 
			},
			{
				"x": -1.7107474082,
				"y": 1.6408551675,
				"z": 0.5664093639,
				"element": "H" 
			},
			{
				"x": -0.3408626649,
				"y": 2.7762339496,
				"z": 0.5043318292,
				"element": "H" 
			},
			{
				"x": 0.4816372148,
				"y": 0.0142902667,
				"z": -3.7048734026,
				"element": "H" 
			},
			{
				"x": 1.1684992473,
				"y": -1.633772422,
				"z": -3.7791232222,
				"element": "H" 
			},
			{
				"x": 1.9481759864,
				"y": -0.3412400389,
				"z": -2.8226715126,
				"element": "H" 
			},
			{
				"x": -2.7638594219,
				"y": -2.7840843972,
				"z": 2.2938428901,
				"element": "H" 
			},
			{
				"x": -1.826917643,
				"y": -0.384078691,
				"z": 1.7029875713,
				"element": "H" 
			}
		],
		 "valence_orbital": [ 
			{
				"type": "occ",
				"energy": -0.32847,
				"method": "rhf"
			},
			{
				"type": "occ",
				"energy": -0.28728,
				"method": "rhf"
			},
			{
				"type": "occ",
				"energy": -0.24603,
				"method": "rhf"
			},
			{
				"type": "occ",
				"energy": -0.24289,
				"method": "rhf"
			},
			{
				"type": "occ",
				"energy": -0.22653,
				"method": "rhf"
			},
			{
				"type": "unocc",
				"energy": -0.04749,
				"method": "rhf"
			},
			{
				"type": "unocc",
				"energy": -0.00958,
				"method": "rhf"
			},
			{
				"type": "unocc",
				"energy": -0.00071,
				"method": "rhf"
			},
			{
				"type": "unocc",
				"energy": 0.04104,
				"method": "rhf"
			},
			{
				"type": "unocc",
				"energy": 0.07062,
				"method": "rhf"
			}
		],
		"cosmo_sigma_profile": { 
			"-0.025": 0.0,
			"-0.024": 0.0,
			"-0.023": 0.0,
			"-0.022": 0.0,
			"-0.021": 0.0,
			"-0.02": 0.0,
			"-0.019": 0.0,
			"-0.018": 0.0,
			"-0.017": 0.0,
			"-0.016": 0.0,
			"-0.015": 0.0,
			"-0.014": 0.0,
			"-0.013": 0.0,
			"-0.012": 0.0,
			"-0.011": 0.349873778649,
			"-0.01": 3.19290550155,
			"-0.009": 4.63586123776,
			"-0.008": 6.02043979171,
			"-0.007": 9.25888672384,
			"-0.006": 6.0151514762,
			"-0.005": 6.98367190913,
			"-0.004": 12.395004114,
			"-0.003": 13.2542836547,
			"-0.002": 18.8685091296,
			"-0.001": 24.0169286469,
			"0.0": 22.7491372433,
			"0.001": 18.4099399582,
			"0.002": 14.5454231696,
			"0.003": 8.49758614584,
			"0.004": 4.8353728797,
			"0.005": 4.8222487283,
			"0.006": 3.14071901351,
			"0.007": 3.70480025388,
			"0.008": 2.01711969912,
			"0.009": 2.67428295942,
			"0.01": 2.47448460752,
			"0.011": 3.40373012573,
			"0.012": 3.35900622622,
			"0.013": 4.30202666108,
			"0.014": 2.01816906488,
			"0.015": 0.700119103941,
			"0.016": 0.638595379333,
			"0.017": 0.0876475384143,
			"0.018": 0.0,
			"0.019": 0.0,
			"0.02": 0.0,
			"0.021": 0.0,
			"0.022": 0.0,
			"0.023": 0.0,
			"0.024": 0.0,
			"0.025": 0.0
		}
	}
}
