{
	 "smiles": "COC1=C(C=C(Br)C=C1)C(O)=O", 
	 "Tm": 386.15, 
	 "num_atms": 19, 
	 "gaussian": { 
		 "optdone": 1, 
		 "sigma_profile": "yes", 
		 "theory": "DFT", 
		 "functional": "B3LYP", 
		 "basiset": "6-31G**", 
		 "properties": { 
			 "R2extent": 5616.5366, 
			 "electric_dipole_moment_norm": 4.5128412281, 
			 "electric_quadrupole_moment_norm": 9.67487144256, 
			 "total_energy": -3106.14446015, 
			 "HOMO_LUMO_gap": 0.17585, 
			 "cosmo_polarized_energy": -12.13, 
			 "cosmo_cavitation_energy": 26.02, 
			 "cosmo_dispersion_energy": -19.64, 
			 "cosmo_repulsion_energy": 1.57, 
			 "cosmo_total_nonelectrostatic_energy": 7.95, 
			 "SMD_solvation_energy": 5.43 
		},
		"coords": [
			{
				"x": 0.8635732046,
				"y": -1.8656498315,
				"z": 0.1078638432,
				"element": "C" 
			},
			{
				"x": 0.0982080911,
				"y": -0.7260806319,
				"z": -0.2594375424,
				"element": "O" 
			},
			{
				"x": 0.4924231476,
				"y": 0.4966762067,
				"z": 0.1638346402,
				"element": "C" 
			},
			{
				"x": -0.2856354192,
				"y": 1.6216320833,
				"z": -0.2124454017,
				"element": "C" 
			},
			{
				"x": 0.1083107822,
				"y": 2.8971854459,
				"z": 0.2172133943,
				"element": "C" 
			},
			{
				"x": 1.2404075369,
				"y": 3.070145926,
				"z": 0.9994341901,
				"element": "C" 
			},
			{
				"x": 1.75032617,
				"y": 4.8207059703,
				"z": 1.5687338007,
				"element": "Br" 
			},
			{
				"x": 2.0086423336,
				"y": 1.969941907,
				"z": 1.372387153,
				"element": "C" 
			},
			{
				"x": 1.6351311405,
				"y": 0.6949381956,
				"z": 0.9563837422,
				"element": "C" 
			},
			{
				"x": -1.5243765513,
				"y": 1.6002201311,
				"z": -1.0464186836,
				"element": "C" 
			},
			{
				"x": -1.9199192335,
				"y": 0.3811321279,
				"z": -1.4684873567,
				"element": "O" 
			},
			{
				"x": -2.1480457219,
				"y": 2.6058015006,
				"z": -1.3353866795,
				"element": "O" 
			},
			{
				"x": 0.3546102026,
				"y": -2.7180138064,
				"z": -0.3432407805,
				"element": "H" 
			},
			{
				"x": 1.8875280793,
				"y": -1.8079709855,
				"z": -0.2814811751,
				"element": "H" 
			},
			{
				"x": 0.8955749504,
				"y": -1.9977517389,
				"z": 1.1963999116,
				"element": "H" 
			},
			{
				"x": -0.5027418395,
				"y": 3.7392004546,
				"z": -0.083706491,
				"element": "H" 
			},
			{
				"x": 2.894279644,
				"y": 2.1023272146,
				"z": 1.983907144,
				"element": "H" 
			},
			{
				"x": 2.2447212705,
				"y": -0.1479046763,
				"z": 1.2561537985,
				"element": "H" 
			},
			{
				"x": -2.7252177881,
				"y": 0.5490645068,
				"z": -1.9871075073,
				"element": "H" 
			}
		],
		 "valence_orbital": [ 
			{
				"type": "occ",
				"energy": -0.29468,
				"method": "rhf"
			},
			{
				"type": "occ",
				"energy": -0.28759,
				"method": "rhf"
			},
			{
				"type": "occ",
				"energy": -0.27669,
				"method": "rhf"
			},
			{
				"type": "occ",
				"energy": -0.2714,
				"method": "rhf"
			},
			{
				"type": "occ",
				"energy": -0.22922,
				"method": "rhf"
			},
			{
				"type": "unocc",
				"energy": -0.05337,
				"method": "rhf"
			},
			{
				"type": "unocc",
				"energy": -0.0089,
				"method": "rhf"
			},
			{
				"type": "unocc",
				"energy": 0.00679,
				"method": "rhf"
			},
			{
				"type": "unocc",
				"energy": 0.05022,
				"method": "rhf"
			},
			{
				"type": "unocc",
				"energy": 0.0845,
				"method": "rhf"
			}
		],
		"cosmo_sigma_profile": { 
			"-0.025": 0.0,
			"-0.024": 0.0,
			"-0.023": 0.0,
			"-0.022": 0.0,
			"-0.021": 0.0,
			"-0.02": 0.0,
			"-0.019": 0.0,
			"-0.018": 0.457339367895,
			"-0.017": 1.19810050679,
			"-0.016": 0.705686337065,
			"-0.015": 0.648743658323,
			"-0.014": 0.560729675477,
			"-0.013": 0.80320473692,
			"-0.012": 0.652616244707,
			"-0.011": 0.959421258845,
			"-0.01": 0.855018212527,
			"-0.009": 0.556001548325,
			"-0.008": 2.76430925521,
			"-0.007": 7.27978082692,
			"-0.006": 13.8793619431,
			"-0.005": 12.2264580368,
			"-0.004": 13.5839704805,
			"-0.003": 12.5044420547,
			"-0.002": 12.6131224423,
			"-0.001": 12.0020881351,
			"0.0": 15.8986406047,
			"0.001": 19.5886212197,
			"0.002": 21.0478130631,
			"0.003": 12.9009055215,
			"0.004": 12.9803912437,
			"0.005": 8.91149553402,
			"0.006": 3.00621762177,
			"0.007": 2.46083945945,
			"0.008": 2.59184454822,
			"0.009": 3.35577082624,
			"0.01": 3.45356623794,
			"0.011": 4.15755646948,
			"0.012": 5.73854735203,
			"0.013": 1.05426470709,
			"0.014": 0.00650334461777,
			"0.015": 0.0,
			"0.016": 0.0,
			"0.017": 0.0,
			"0.018": 0.0,
			"0.019": 0.0,
			"0.02": 0.0,
			"0.021": 0.0,
			"0.022": 0.0,
			"0.023": 0.0,
			"0.024": 0.0,
			"0.025": 0.0
		}
	}
}
