{
	 "smiles": "NC1=C(C=C(C=C1)N1CCOCC1)C(F)(F)F", 
	 "Tm": 348.15, 
	 "num_atms": 30, 
	 "gaussian": { 
		 "optdone": 1, 
		 "sigma_profile": "yes", 
		 "theory": "DFT", 
		 "functional": "B3LYP", 
		 "basiset": "6-31G**", 
		 "properties": { 
			 "R2extent": 5393.9182, 
			 "electric_dipole_moment_norm": 2.45877776548, 
			 "electric_quadrupole_moment_norm": 13.528145574, 
			 "total_energy": -911.235005566, 
			 "HOMO_LUMO_gap": 0.16149, 
			 "cosmo_polarized_energy": -10.94, 
			 "cosmo_cavitation_energy": 32.85, 
			 "cosmo_dispersion_energy": -24.07, 
			 "cosmo_repulsion_energy": 1.8, 
			 "cosmo_total_nonelectrostatic_energy": 10.58, 
			 "SMD_solvation_energy": 5.3 
		},
		"coords": [
			{
				"x": -1.823697063,
				"y": 0.9562585463,
				"z": -4.0501110844,
				"element": "N" 
			},
			{
				"x": -1.4097683242,
				"y": 0.8742943638,
				"z": -2.717290921,
				"element": "C" 
			},
			{
				"x": -0.0709213141,
				"y": 0.6263764368,
				"z": -2.3495154249,
				"element": "C" 
			},
			{
				"x": 0.2981553664,
				"y": 0.4853379494,
				"z": -1.0082388936,
				"element": "C" 
			},
			{
				"x": -0.6396435232,
				"y": 0.5967276343,
				"z": 0.0313583917,
				"element": "C" 
			},
			{
				"x": -1.9767856068,
				"y": 0.8500525033,
				"z": -0.3406906205,
				"element": "C" 
			},
			{
				"x": -2.3432176985,
				"y": 0.9777248899,
				"z": -1.6736218603,
				"element": "C" 
			},
			{
				"x": -0.2693829099,
				"y": 0.4829587419,
				"z": 1.3710088551,
				"element": "N" 
			},
			{
				"x": 1.1312281324,
				"y": 0.4226263586,
				"z": 1.7606585283,
				"element": "C" 
			},
			{
				"x": 1.2668140741,
				"y": 0.7636993629,
				"z": 3.2430105917,
				"element": "C" 
			},
			{
				"x": 0.5235333096,
				"y": -0.1032842077,
				"z": 4.0967516665,
				"element": "O" 
			},
			{
				"x": -0.5735879946,
				"y": -0.7509050586,
				"z": 3.4655456346,
				"element": "C" 
			},
			{
				"x": -1.2430078143,
				"y": 0.1078915654,
				"z": 2.393223071,
				"element": "C" 
			},
			{
				"x": 0.977035471,
				"y": 0.4574884291,
				"z": -3.4108646057,
				"element": "C" 
			},
			{
				"x": 0.7675844555,
				"y": -0.639710687,
				"z": -4.1739941187,
				"element": "F" 
			},
			{
				"x": 2.2244925938,
				"y": 0.3573916336,
				"z": -2.9066702878,
				"element": "F" 
			},
			{
				"x": 0.9942190022,
				"y": 1.515495924,
				"z": -4.2793561522,
				"element": "F" 
			},
			{
				"x": -2.7074126956,
				"y": 1.4302981414,
				"z": -4.1764573092,
				"element": "H" 
			},
			{
				"x": -1.1240752948,
				"y": 1.2916197539,
				"z": -4.697363469,
				"element": "H" 
			},
			{
				"x": 1.3359410518,
				"y": 0.2726906587,
				"z": -0.7905969404,
				"element": "H" 
			},
			{
				"x": -2.7390357241,
				"y": 0.9762703776,
				"z": 0.4203283729,
				"element": "H" 
			},
			{
				"x": -3.3840937039,
				"y": 1.1752228817,
				"z": -1.9186615179,
				"element": "H" 
			},
			{
				"x": 1.7011517111,
				"y": 1.1641636947,
				"z": 1.1885493179,
				"element": "H" 
			},
			{
				"x": 1.5875586199,
				"y": -0.5617690835,
				"z": 1.5567935159,
				"element": "H" 
			},
			{
				"x": 0.9409844363,
				"y": 1.8035181699,
				"z": 3.3980410368,
				"element": "H" 
			},
			{
				"x": 2.317710866,
				"y": 0.6922694773,
				"z": 3.5442692214,
				"element": "H" 
			},
			{
				"x": -0.2483092303,
				"y": -1.7006529154,
				"z": 3.0123553075,
				"element": "H" 
			},
			{
				"x": -1.2944131181,
				"y": -0.9887477347,
				"z": 4.2545840009,
				"element": "H" 
			},
			{
				"x": -1.7061788265,
				"y": 0.9908975296,
				"z": 2.8619709658,
				"element": "H" 
			},
			{
				"x": -2.049878248,
				"y": -0.4805053373,
				"z": 1.9399847274,
				"element": "H" 
			}
		],
		 "valence_orbital": [ 
			{
				"type": "occ",
				"energy": -0.3082,
				"method": "rhf"
			},
			{
				"type": "occ",
				"energy": -0.25852,
				"method": "rhf"
			},
			{
				"type": "occ",
				"energy": -0.25597,
				"method": "rhf"
			},
			{
				"type": "occ",
				"energy": -0.24774,
				"method": "rhf"
			},
			{
				"type": "occ",
				"energy": -0.17672,
				"method": "rhf"
			},
			{
				"type": "unocc",
				"energy": -0.01523,
				"method": "rhf"
			},
			{
				"type": "unocc",
				"energy": 0.0206,
				"method": "rhf"
			},
			{
				"type": "unocc",
				"energy": 0.07837,
				"method": "rhf"
			},
			{
				"type": "unocc",
				"energy": 0.08925,
				"method": "rhf"
			},
			{
				"type": "unocc",
				"energy": 0.1038,
				"method": "rhf"
			}
		],
		"cosmo_sigma_profile": { 
			"-0.025": 0.0,
			"-0.024": 0.0,
			"-0.023": 0.0,
			"-0.022": 0.0,
			"-0.021": 0.0,
			"-0.02": 0.0,
			"-0.019": 0.0,
			"-0.018": 0.0,
			"-0.017": 0.0,
			"-0.016": 0.0,
			"-0.015": 0.0,
			"-0.014": 0.0,
			"-0.013": 0.213258218605,
			"-0.012": 1.32625890262,
			"-0.011": 1.78228121555,
			"-0.01": 2.11750420284,
			"-0.009": 3.05814882243,
			"-0.008": 2.42393723133,
			"-0.007": 2.4003509875,
			"-0.006": 7.42194180833,
			"-0.005": 18.3566977467,
			"-0.004": 27.985699699,
			"-0.003": 27.8219172046,
			"-0.002": 17.7424680511,
			"-0.001": 13.7709816187,
			"0.0": 12.619710688,
			"0.001": 14.7339184057,
			"0.002": 19.4728980148,
			"0.003": 33.483863955,
			"0.004": 13.6455343881,
			"0.005": 13.5594898396,
			"0.006": 8.28533134022,
			"0.007": 2.84112701764,
			"0.008": 2.65414375534,
			"0.009": 2.14249196646,
			"0.01": 1.54437378235,
			"0.011": 1.99144107128,
			"0.012": 2.17992931419,
			"0.013": 2.40178745347,
			"0.014": 1.18467379525,
			"0.015": 0.0799020211266,
			"0.016": 0.0,
			"0.017": 0.0,
			"0.018": 0.0,
			"0.019": 0.0,
			"0.02": 0.0,
			"0.021": 0.0,
			"0.022": 0.0,
			"0.023": 0.0,
			"0.024": 0.0,
			"0.025": 0.0
		}
	}
}
