{
	 "smiles": "NNC(=O)C1=CC(=CC(N)=C1)[N+]([O-])=O", 
	 "Tm": 501.15, 
	 "num_atms": 22, 
	 "gaussian": { 
		 "optdone": 1, 
		 "sigma_profile": "yes", 
		 "theory": "DFT", 
		 "functional": "B3LYP", 
		 "basiset": "6-31G**", 
		 "properties": { 
			 "R2extent": 3465.3723, 
			 "electric_dipole_moment_norm": 6.98752955557, 
			 "electric_quadrupole_moment_norm": 10.9081721718, 
			 "total_energy": -716.128585731, 
			 "HOMO_LUMO_gap": 0.14419, 
			 "cosmo_polarized_energy": -22.17, 
			 "cosmo_cavitation_energy": 27.83, 
			 "cosmo_dispersion_energy": -20.35, 
			 "cosmo_repulsion_energy": 1.62, 
			 "cosmo_total_nonelectrostatic_energy": 9.1, 
			 "SMD_solvation_energy": 8.11 
		},
		"coords": [
			{
				"x": -3.4675620665,
				"y": 2.7440744537,
				"z": -0.7921879004,
				"element": "N" 
			},
			{
				"x": -2.4524696377,
				"y": 1.7604165079,
				"z": -0.7730740936,
				"element": "N" 
			},
			{
				"x": -1.6971953029,
				"y": 1.5844954002,
				"z": 0.3644992655,
				"element": "C" 
			},
			{
				"x": -1.9642350748,
				"y": 2.163703759,
				"z": 1.4111820005,
				"element": "O" 
			},
			{
				"x": -0.5288877655,
				"y": 0.647815294,
				"z": 0.2362579944,
				"element": "C" 
			},
			{
				"x": 0.5236285022,
				"y": 0.8123113226,
				"z": 1.1423378943,
				"element": "C" 
			},
			{
				"x": 1.6092651375,
				"y": -0.046969405,
				"z": 1.0311621797,
				"element": "C" 
			},
			{
				"x": 1.685942181,
				"y": -1.0584751015,
				"z": 0.0798956012,
				"element": "C" 
			},
			{
				"x": 0.6192835696,
				"y": -1.2365806216,
				"z": -0.8150012022,
				"element": "C" 
			},
			{
				"x": 0.6272678151,
				"y": -2.2826880658,
				"z": -1.7255374468,
				"element": "N" 
			},
			{
				"x": -0.4857002298,
				"y": -0.3685115613,
				"z": -0.723630174,
				"element": "C" 
			},
			{
				"x": 2.7434720301,
				"y": 0.1154801018,
				"z": 1.9631842647,
				"element": "N" 
			},
			{
				"x": 2.6710623516,
				"y": 1.0143765149,
				"z": 2.7974946221,
				"element": "O" 
			},
			{
				"x": 3.6933349342,
				"y": -0.6588948984,
				"z": 1.8456099862,
				"element": "O" 
			},
			{
				"x": -3.2019890593,
				"y": 3.4457432644,
				"z": -0.0983072563,
				"element": "H" 
			},
			{
				"x": -4.313698004,
				"y": 2.3104942156,
				"z": -0.4242236765,
				"element": "H" 
			},
			{
				"x": -2.0105130091,
				"y": 1.6202308464,
				"z": -1.6709549868,
				"element": "H" 
			},
			{
				"x": 0.4862862915,
				"y": 1.5812377263,
				"z": 1.9015223804,
				"element": "H" 
			},
			{
				"x": 2.5604855715,
				"y": -1.6974045371,
				"z": 0.0553340722,
				"element": "H" 
			},
			{
				"x": 1.527635451,
				"y": -2.6849347248,
				"z": -1.9412450415,
				"element": "H" 
			},
			{
				"x": 0.030869803,
				"y": -2.1849768654,
				"z": -2.5338955138,
				"element": "H" 
			},
			{
				"x": -1.3326834887,
				"y": -0.5250436258,
				"z": -1.3859229691,
				"element": "H" 
			}
		],
		 "valence_orbital": [ 
			{
				"type": "occ",
				"energy": -0.29036,
				"method": "rhf"
			},
			{
				"type": "occ",
				"energy": -0.28572,
				"method": "rhf"
			},
			{
				"type": "occ",
				"energy": -0.27056,
				"method": "rhf"
			},
			{
				"type": "occ",
				"energy": -0.26278,
				"method": "rhf"
			},
			{
				"type": "occ",
				"energy": -0.23383,
				"method": "rhf"
			},
			{
				"type": "unocc",
				"energy": -0.08964,
				"method": "rhf"
			},
			{
				"type": "unocc",
				"energy": -0.04788,
				"method": "rhf"
			},
			{
				"type": "unocc",
				"energy": 0.00131,
				"method": "rhf"
			},
			{
				"type": "unocc",
				"energy": 0.04486,
				"method": "rhf"
			},
			{
				"type": "unocc",
				"energy": 0.05937,
				"method": "rhf"
			}
		],
		"cosmo_sigma_profile": { 
			"-0.025": 0.0,
			"-0.024": 0.0,
			"-0.023": 0.0,
			"-0.022": 0.0,
			"-0.021": 0.0,
			"-0.02": 0.0,
			"-0.019": 0.0,
			"-0.018": 0.0,
			"-0.017": 0.0,
			"-0.016": 0.0,
			"-0.015": 0.299802084145,
			"-0.014": 1.38421075229,
			"-0.013": 4.43126797138,
			"-0.012": 5.30712232827,
			"-0.011": 6.59109607963,
			"-0.01": 6.81699847163,
			"-0.009": 7.98940650463,
			"-0.008": 6.19101410301,
			"-0.007": 5.14772021763,
			"-0.006": 6.90955471152,
			"-0.005": 7.41023548277,
			"-0.004": 8.20106629486,
			"-0.003": 9.91851891407,
			"-0.002": 10.114372057,
			"-0.001": 13.8971941542,
			"0.0": 14.2304479355,
			"0.001": 18.6782943081,
			"0.002": 12.8033198505,
			"0.003": 9.05899484241,
			"0.004": 6.4137122285,
			"0.005": 5.69152629381,
			"0.006": 6.22814617557,
			"0.007": 11.484319766,
			"0.008": 9.10097566455,
			"0.009": 7.15123814782,
			"0.01": 5.13508805874,
			"0.011": 3.95691259306,
			"0.012": 4.15790837041,
			"0.013": 4.0163667678,
			"0.014": 0.96402506944,
			"0.015": 0.802893178575,
			"0.016": 0.47424970445,
			"0.017": 0.205328461699,
			"0.018": 0.0,
			"0.019": 0.0,
			"0.02": 0.0,
			"0.021": 0.0,
			"0.022": 0.0,
			"0.023": 0.0,
			"0.024": 0.0,
			"0.025": 0.0
		}
	}
}
