{
	 "smiles": "CC1=CC(Cl)=C(N)C=C1", 
	 "Tm": 280.15, 
	 "num_atms": 17, 
	 "gaussian": { 
		 "optdone": 1, 
		 "sigma_profile": "yes", 
		 "theory": "DFT", 
		 "functional": "B3LYP", 
		 "basiset": "6-31G**", 
		 "properties": { 
			 "R2extent": 2212.0783, 
			 "electric_dipole_moment_norm": 2.01731478208, 
			 "electric_quadrupole_moment_norm": 11.2482537583, 
			 "total_energy": -786.522139085, 
			 "HOMO_LUMO_gap": 0.19784, 
			 "cosmo_polarized_energy": -7.08, 
			 "cosmo_cavitation_energy": 22.03, 
			 "cosmo_dispersion_energy": -16.68, 
			 "cosmo_repulsion_energy": 1.37, 
			 "cosmo_total_nonelectrostatic_energy": 6.72, 
			 "SMD_solvation_energy": 3.51 
		},
		"coords": [
			{
				"x": -0.127184846,
				"y": -0.537579735,
				"z": 1.7288046735,
				"element": "C" 
			},
			{
				"x": -0.1829964491,
				"y": 0.2304303592,
				"z": 0.4288216821,
				"element": "C" 
			},
			{
				"x": -1.0011922323,
				"y": -0.1868626008,
				"z": -0.6243658309,
				"element": "C" 
			},
			{
				"x": -1.0637570462,
				"y": 0.5370886235,
				"z": -1.8126115268,
				"element": "C" 
			},
			{
				"x": -2.12523508,
				"y": -0.0341248393,
				"z": -3.1053227976,
				"element": "Cl" 
			},
			{
				"x": -0.3138149118,
				"y": 1.7084166591,
				"z": -2.014955164,
				"element": "C" 
			},
			{
				"x": -0.3257187116,
				"y": 2.3989491452,
				"z": -3.2201722797,
				"element": "N" 
			},
			{
				"x": 0.5063788371,
				"y": 2.1193886052,
				"z": -0.9469597491,
				"element": "C" 
			},
			{
				"x": 0.5689736234,
				"y": 1.3991036139,
				"z": 0.2392378045,
				"element": "C" 
			},
			{
				"x": -0.5815042331,
				"y": -1.5272456968,
				"z": 1.6270592429,
				"element": "H" 
			},
			{
				"x": 0.9051928314,
				"y": -0.6776527449,
				"z": 2.0672728567,
				"element": "H" 
			},
			{
				"x": -0.660765132,
				"y": -0.0124022766,
				"z": 2.5309463617,
				"element": "H" 
			},
			{
				"x": -1.6041080209,
				"y": -1.0843103005,
				"z": -0.5274046607,
				"element": "H" 
			},
			{
				"x": -1.1338403312,
				"y": 2.2365292129,
				"z": -3.8047716587,
				"element": "H" 
			},
			{
				"x": -0.0706877692,
				"y": 3.3741311109,
				"z": -3.158707256,
				"element": "H" 
			},
			{
				"x": 1.107923077,
				"y": 3.0168334943,
				"z": -1.0693051471,
				"element": "H" 
			},
			{
				"x": 1.2182363946,
				"y": 1.7532073697,
				"z": 1.0362334491,
				"element": "H" 
			}
		],
		 "valence_orbital": [ 
			{
				"type": "occ",
				"energy": -0.3304,
				"method": "rhf"
			},
			{
				"type": "occ",
				"energy": -0.31126,
				"method": "rhf"
			},
			{
				"type": "occ",
				"energy": -0.30337,
				"method": "rhf"
			},
			{
				"type": "occ",
				"energy": -0.24243,
				"method": "rhf"
			},
			{
				"type": "occ",
				"energy": -0.20145,
				"method": "rhf"
			},
			{
				"type": "unocc",
				"energy": -0.00361,
				"method": "rhf"
			},
			{
				"type": "unocc",
				"energy": 0.01323,
				"method": "rhf"
			},
			{
				"type": "unocc",
				"energy": 0.03492,
				"method": "rhf"
			},
			{
				"type": "unocc",
				"energy": 0.08651,
				"method": "rhf"
			},
			{
				"type": "unocc",
				"energy": 0.10997,
				"method": "rhf"
			}
		],
		"cosmo_sigma_profile": { 
			"-0.025": 0.0,
			"-0.024": 0.0,
			"-0.023": 0.0,
			"-0.022": 0.0,
			"-0.021": 0.0,
			"-0.02": 0.0,
			"-0.019": 0.0,
			"-0.018": 0.0,
			"-0.017": 0.0,
			"-0.016": 0.0,
			"-0.015": 0.0,
			"-0.014": 0.00401744758596,
			"-0.013": 0.812982752468,
			"-0.012": 1.29382882373,
			"-0.011": 2.24466837501,
			"-0.01": 2.51244358726,
			"-0.009": 3.04066275625,
			"-0.008": 2.42108973727,
			"-0.007": 2.22879483703,
			"-0.006": 4.83253916778,
			"-0.005": 8.21167140872,
			"-0.004": 11.2141120567,
			"-0.003": 12.4773344987,
			"-0.002": 12.8447562546,
			"-0.001": 14.3019089037,
			"0.0": 14.2184004362,
			"0.001": 13.2506555136,
			"0.002": 10.9961027255,
			"0.003": 14.0686061116,
			"0.004": 14.5625103433,
			"0.005": 17.7060128566,
			"0.006": 8.0960761782,
			"0.007": 1.08682208353,
			"0.008": 0.869151032728,
			"0.009": 0.773947715683,
			"0.01": 0.594511581916,
			"0.011": 0.495207968531,
			"0.012": 0.74512827814,
			"0.013": 0.611051134391,
			"0.014": 0.319431185313,
			"0.015": 0.0,
			"0.016": 0.0,
			"0.017": 0.0,
			"0.018": 0.0,
			"0.019": 0.0,
			"0.02": 0.0,
			"0.021": 0.0,
			"0.022": 0.0,
			"0.023": 0.0,
			"0.024": 0.0,
			"0.025": 0.0
		}
	}
}
