{
	 "smiles": "CC(C)(C)OC(=O)N1CCC(CC1)(C(O)=O)C1=CC=CC=C1", 
	 "Tm": 390.15, 
	 "num_atms": 45, 
	 "gaussian": { 
		 "optdone": 1, 
		 "sigma_profile": "yes", 
		 "theory": "DFT", 
		 "functional": "B3LYP", 
		 "basiset": "6-31G**", 
		 "properties": { 
			 "R2extent": 9119.981, 
			 "electric_dipole_moment_norm": 5.63303326282, 
			 "electric_quadrupole_moment_norm": 21.5126628503, 
			 "total_energy": -1017.3629922, 
			 "HOMO_LUMO_gap": 0.20244, 
			 "cosmo_polarized_energy": -17.75, 
			 "cosmo_cavitation_energy": 44.85, 
			 "cosmo_dispersion_energy": -31.0, 
			 "cosmo_repulsion_energy": 2.36, 
			 "cosmo_total_nonelectrostatic_energy": 16.21, 
			 "SMD_solvation_energy": 8.55 
		},
		"coords": [
			{
				"x": 4.4359180376,
				"y": -2.9058853865,
				"z": -0.0398961817,
				"element": "C" 
			},
			{
				"x": 2.9929492075,
				"y": -3.2660610502,
				"z": -0.4100611448,
				"element": "C" 
			},
			{
				"x": 2.4261051171,
				"y": -4.3786507684,
				"z": 0.4789292386,
				"element": "C" 
			},
			{
				"x": 2.8930661287,
				"y": -3.6512242964,
				"z": -1.88880162,
				"element": "C" 
			},
			{
				"x": 2.1365142064,
				"y": -2.0739145276,
				"z": -0.3327785078,
				"element": "O" 
			},
			{
				"x": 1.9789451377,
				"y": -1.4064397981,
				"z": 0.8395891505,
				"element": "C" 
			},
			{
				"x": 2.46722326,
				"y": -1.7297860117,
				"z": 1.9149146476,
				"element": "O" 
			},
			{
				"x": 1.1870817964,
				"y": -0.3043698097,
				"z": 0.6654034098,
				"element": "N" 
			},
			{
				"x": 0.813780799,
				"y": 0.4798845655,
				"z": 1.8462600619,
				"element": "C" 
			},
			{
				"x": -0.6316246969,
				"y": 0.9558521482,
				"z": 1.6935306959,
				"element": "C" 
			},
			{
				"x": -0.7941605787,
				"y": 1.952409548,
				"z": 0.4982950537,
				"element": "C" 
			},
			{
				"x": 0.2042576807,
				"y": 1.53560164,
				"z": -0.626404739,
				"element": "C" 
			},
			{
				"x": 0.5565553958,
				"y": 0.0469355085,
				"z": -0.6109654565,
				"element": "C" 
			},
			{
				"x": -0.3642639359,
				"y": 3.338975589,
				"z": 1.0614874879,
				"element": "C" 
			},
			{
				"x": -1.3175605971,
				"y": 4.0201777126,
				"z": 1.7388707736,
				"element": "O" 
			},
			{
				"x": 0.7579326201,
				"y": 3.7801915645,
				"z": 0.992735798,
				"element": "O" 
			},
			{
				"x": -2.2428297524,
				"y": 2.0490590725,
				"z": -0.0138245219,
				"element": "C" 
			},
			{
				"x": -2.519706736,
				"y": 2.8693401915,
				"z": -1.1252344689,
				"element": "C" 
			},
			{
				"x": -3.8150690463,
				"y": 3.0176756943,
				"z": -1.6125293517,
				"element": "C" 
			},
			{
				"x": -4.878978101,
				"y": 2.3535924245,
				"z": -0.9952348693,
				"element": "C" 
			},
			{
				"x": -4.6292980351,
				"y": 1.5536704512,
				"z": 0.1164813798,
				"element": "C" 
			},
			{
				"x": -3.326074439,
				"y": 1.4065394144,
				"z": 0.6052024385,
				"element": "C" 
			},
			{
				"x": 4.5076908868,
				"y": -2.6113076912,
				"z": 1.0071129031,
				"element": "H" 
			},
			{
				"x": 4.7938975917,
				"y": -2.082351406,
				"z": -0.666101223,
				"element": "H" 
			},
			{
				"x": 5.0860856267,
				"y": -3.7700490787,
				"z": -0.2115811903,
				"element": "H" 
			},
			{
				"x": 1.3844207423,
				"y": -4.5837454539,
				"z": 0.2114861852,
				"element": "H" 
			},
			{
				"x": 3.0018595327,
				"y": -5.2981279234,
				"z": 0.3302759468,
				"element": "H" 
			},
			{
				"x": 2.4730790138,
				"y": -4.0967390116,
				"z": 1.5307713607,
				"element": "H" 
			},
			{
				"x": 3.2622346349,
				"y": -2.8414928046,
				"z": -2.5251966939,
				"element": "H" 
			},
			{
				"x": 1.8551646693,
				"y": -3.8606383136,
				"z": -2.1640534945,
				"element": "H" 
			},
			{
				"x": 3.4910447106,
				"y": -4.5460212169,
				"z": -2.0857645424,
				"element": "H" 
			},
			{
				"x": 0.9221793696,
				"y": -0.1631298636,
				"z": 2.720944303,
				"element": "H" 
			},
			{
				"x": 1.4888388858,
				"y": 1.335084578,
				"z": 1.9793001097,
				"element": "H" 
			},
			{
				"x": -1.2550519061,
				"y": 0.0742323832,
				"z": 1.5157756519,
				"element": "H" 
			},
			{
				"x": -0.9773375729,
				"y": 1.4115676421,
				"z": 2.627488828,
				"element": "H" 
			},
			{
				"x": -0.2013212337,
				"y": 1.7855366873,
				"z": -1.6095379857,
				"element": "H" 
			},
			{
				"x": 1.1195866713,
				"y": 2.1177615748,
				"z": -0.4943113362,
				"element": "H" 
			},
			{
				"x": -0.3396069335,
				"y": -0.5670573585,
				"z": -0.7887093014,
				"element": "H" 
			},
			{
				"x": 1.2541623965,
				"y": -0.1722081485,
				"z": -1.4205654877,
				"element": "H" 
			},
			{
				"x": -2.1766840619,
				"y": 3.584365676,
				"z": 1.6171315251,
				"element": "H" 
			},
			{
				"x": -1.7089666642,
				"y": 3.4063476825,
				"z": -1.6103363642,
				"element": "H" 
			},
			{
				"x": -3.9953689938,
				"y": 3.6557697503,
				"z": -2.4727373356,
				"element": "H" 
			},
			{
				"x": -5.890014646,
				"y": 2.4663214997,
				"z": -1.3749447638,
				"element": "H" 
			},
			{
				"x": -5.4459301041,
				"y": 1.0369532683,
				"z": 0.6123349661,
				"element": "H" 
			},
			{
				"x": -3.1696260841,
				"y": 0.778753652,
				"z": 1.4750486649,
				"element": "H" 
			}
		],
		 "valence_orbital": [ 
			{
				"type": "occ",
				"energy": -0.28154,
				"method": "rhf"
			},
			{
				"type": "occ",
				"energy": -0.27121,
				"method": "rhf"
			},
			{
				"type": "occ",
				"energy": -0.25645,
				"method": "rhf"
			},
			{
				"type": "occ",
				"energy": -0.25405,
				"method": "rhf"
			},
			{
				"type": "occ",
				"energy": -0.23091,
				"method": "rhf"
			},
			{
				"type": "unocc",
				"energy": -0.02847,
				"method": "rhf"
			},
			{
				"type": "unocc",
				"energy": -0.02374,
				"method": "rhf"
			},
			{
				"type": "unocc",
				"energy": 0.00728,
				"method": "rhf"
			},
			{
				"type": "unocc",
				"energy": 0.05924,
				"method": "rhf"
			},
			{
				"type": "unocc",
				"energy": 0.07099,
				"method": "rhf"
			}
		],
		"cosmo_sigma_profile": { 
			"-0.025": 0.0,
			"-0.024": 0.0,
			"-0.023": 0.0,
			"-0.022": 0.0,
			"-0.021": 0.0,
			"-0.02": 0.0,
			"-0.019": 0.0,
			"-0.018": 0.0,
			"-0.017": 0.0,
			"-0.016": 0.0,
			"-0.015": 0.0412926531829,
			"-0.014": 0.339662559379,
			"-0.013": 0.717907337498,
			"-0.012": 0.714779901347,
			"-0.011": 1.62851776058,
			"-0.01": 1.04138256085,
			"-0.009": 0.938389213314,
			"-0.008": 1.38120177672,
			"-0.007": 3.82082136379,
			"-0.006": 13.7876772418,
			"-0.005": 20.8919983235,
			"-0.004": 35.2051146898,
			"-0.003": 40.4448713056,
			"-0.002": 31.5203208619,
			"-0.001": 31.5031934044,
			"0.0": 35.3268099924,
			"0.001": 31.1939374531,
			"0.002": 18.1474439114,
			"0.003": 14.2765800906,
			"0.004": 13.1402783825,
			"0.005": 11.3306160773,
			"0.006": 6.0624461449,
			"0.007": 5.29693910499,
			"0.008": 4.15774424873,
			"0.009": 4.87766615099,
			"0.01": 6.58144019484,
			"0.011": 5.80016353869,
			"0.012": 5.54833044064,
			"0.013": 3.48696488521,
			"0.014": 2.17428017093,
			"0.015": 0.0218781201374,
			"0.016": 0.0,
			"0.017": 0.0,
			"0.018": 0.0,
			"0.019": 0.0,
			"0.02": 0.0,
			"0.021": 0.0,
			"0.022": 0.0,
			"0.023": 0.0,
			"0.024": 0.0,
			"0.025": 0.0
		}
	}
}
