{
	 "smiles": "NCCN1CCOCC1", 
	 "Tm": 297.95, 
	 "num_atms": 23, 
	 "gaussian": { 
		 "optdone": 1, 
		 "sigma_profile": "yes", 
		 "theory": "DFT", 
		 "functional": "B3LYP", 
		 "basiset": "6-31G**", 
		 "properties": { 
			 "R2extent": 1530.9423, 
			 "electric_dipole_moment_norm": 3.04587920148, 
			 "electric_quadrupole_moment_norm": 4.38630471012, 
			 "total_energy": -421.75974069, 
			 "HOMO_LUMO_gap": 0.25851, 
			 "cosmo_polarized_energy": -8.03, 
			 "cosmo_cavitation_energy": 23.21, 
			 "cosmo_dispersion_energy": -17.62, 
			 "cosmo_repulsion_energy": 1.47, 
			 "cosmo_total_nonelectrostatic_energy": 7.06, 
			 "SMD_solvation_energy": 1.27 
		},
		"coords": [
			{
				"x": -0.760464077,
				"y": 1.1121433281,
				"z": 1.7236615118,
				"element": "N" 
			},
			{
				"x": -1.1252799006,
				"y": 2.0140983062,
				"z": 0.6249851436,
				"element": "C" 
			},
			{
				"x": -1.9310168583,
				"y": 1.2891838154,
				"z": -0.4736931392,
				"element": "C" 
			},
			{
				"x": -1.2668668143,
				"y": 0.2659852172,
				"z": -1.2620831214,
				"element": "N" 
			},
			{
				"x": -0.1839881829,
				"y": 0.7408701917,
				"z": -2.1170450675,
				"element": "C" 
			},
			{
				"x": 0.5173484545,
				"y": -0.4518056989,
				"z": -2.7589077282,
				"element": "C" 
			},
			{
				"x": 1.1498577533,
				"y": -1.292001355,
				"z": -1.798016608,
				"element": "O" 
			},
			{
				"x": 0.4972120692,
				"y": -1.3251123964,
				"z": -0.5242363158,
				"element": "C" 
			},
			{
				"x": -0.9983200955,
				"y": -1.0345064081,
				"z": -0.6283574702,
				"element": "C" 
			},
			{
				"x": -1.5901327812,
				"y": 0.8702759703,
				"z": 2.2617085236,
				"element": "H" 
			},
			{
				"x": -0.1304348852,
				"y": 1.580870242,
				"z": 2.3694048788,
				"element": "H" 
			},
			{
				"x": -1.7165607752,
				"y": 2.891666107,
				"z": 0.9457035585,
				"element": "H" 
			},
			{
				"x": -0.197739204,
				"y": 2.4103169324,
				"z": 0.196452999,
				"element": "H" 
			},
			{
				"x": -2.300638749,
				"y": 2.0580070369,
				"z": -1.1680505977,
				"element": "H" 
			},
			{
				"x": -2.8242243701,
				"y": 0.8409026981,
				"z": -0.0161306,
				"element": "H" 
			},
			{
				"x": -0.5948322018,
				"y": 1.3930700727,
				"z": -2.9017880296,
				"element": "H" 
			},
			{
				"x": 0.5784270544,
				"y": 1.3338228545,
				"z": -1.578131178,
				"element": "H" 
			},
			{
				"x": 1.3012607892,
				"y": -0.1073426834,
				"z": -3.4419609589,
				"element": "H" 
			},
			{
				"x": -0.2154371789,
				"y": -1.0251392,
				"z": -3.3491665945,
				"element": "H" 
			},
			{
				"x": 0.9558669809,
				"y": -0.5968317527,
				"z": 0.1588038409,
				"element": "H" 
			},
			{
				"x": 0.6639084036,
				"y": -2.3273646676,
				"z": -0.1121726387,
				"element": "H" 
			},
			{
				"x": -1.423407986,
				"y": -1.0524413058,
				"z": 0.377185841,
				"element": "H" 
			},
			{
				"x": -1.4774374452,
				"y": -1.8394673044,
				"z": -1.2076662495,
				"element": "H" 
			}
		],
		 "valence_orbital": [ 
			{
				"type": "occ",
				"energy": -0.33838,
				"method": "rhf"
			},
			{
				"type": "occ",
				"energy": -0.28624,
				"method": "rhf"
			},
			{
				"type": "occ",
				"energy": -0.24486,
				"method": "rhf"
			},
			{
				"type": "occ",
				"energy": -0.22883,
				"method": "rhf"
			},
			{
				"type": "occ",
				"energy": -0.18957,
				"method": "rhf"
			},
			{
				"type": "unocc",
				"energy": 0.06894,
				"method": "rhf"
			},
			{
				"type": "unocc",
				"energy": 0.10564,
				"method": "rhf"
			},
			{
				"type": "unocc",
				"energy": 0.11314,
				"method": "rhf"
			},
			{
				"type": "unocc",
				"energy": 0.12273,
				"method": "rhf"
			},
			{
				"type": "unocc",
				"energy": 0.13025,
				"method": "rhf"
			}
		],
		"cosmo_sigma_profile": { 
			"-0.025": 0.0,
			"-0.024": 0.0,
			"-0.023": 0.0,
			"-0.022": 0.0,
			"-0.021": 0.0,
			"-0.02": 0.0,
			"-0.019": 0.0,
			"-0.018": 0.0,
			"-0.017": 0.0,
			"-0.016": 0.0,
			"-0.015": 0.0,
			"-0.014": 0.0,
			"-0.013": 0.0,
			"-0.012": 0.0,
			"-0.011": 0.0,
			"-0.01": 0.467847164543,
			"-0.009": 2.59826386645,
			"-0.008": 2.54872609012,
			"-0.007": 3.16715226051,
			"-0.006": 3.29752918269,
			"-0.005": 4.06282044241,
			"-0.004": 9.87157425682,
			"-0.003": 23.354678577,
			"-0.002": 30.8764241422,
			"-0.001": 29.3171073053,
			"0.0": 17.5952928693,
			"0.001": 8.35714360099,
			"0.002": 6.34770368292,
			"0.003": 3.71079077897,
			"0.004": 4.05568552932,
			"0.005": 3.79096520027,
			"0.006": 3.25847399552,
			"0.007": 3.25250991658,
			"0.008": 2.07715606162,
			"0.009": 2.99060333472,
			"0.01": 2.60309258538,
			"0.011": 3.13209741263,
			"0.012": 2.61964935049,
			"0.013": 2.25996186394,
			"0.014": 2.09443291468,
			"0.015": 0.52984661053,
			"0.016": 0.0169016791624,
			"0.017": 0.0,
			"0.018": 0.0,
			"0.019": 0.0,
			"0.02": 0.0,
			"0.021": 0.0,
			"0.022": 0.0,
			"0.023": 0.0,
			"0.024": 0.0,
			"0.025": 0.0
		}
	}
}
