{
	 "smiles": "CC(C)N1C(=O)C2=C(C=C(C=C2)C(O)=O)S1(=O)=O", 
	 "Tm": 512.15, 
	 "num_atms": 29, 
	 "gaussian": { 
		 "optdone": 1, 
		 "sigma_profile": "yes", 
		 "theory": "DFT", 
		 "functional": "B3LYP", 
		 "basiset": "6-31G**", 
		 "properties": { 
			 "R2extent": 6001.1415, 
			 "electric_dipole_moment_norm": 2.21694650815, 
			 "electric_quadrupole_moment_norm": 9.6308316401, 
			 "total_energy": -1254.8094123, 
			 "HOMO_LUMO_gap": 0.18074, 
			 "cosmo_polarized_energy": -21.89, 
			 "cosmo_cavitation_energy": 34.76, 
			 "cosmo_dispersion_energy": -24.89, 
			 "cosmo_repulsion_energy": 1.85, 
			 "cosmo_total_nonelectrostatic_energy": 11.71, 
			 "SMD_solvation_energy": 6.79 
		},
		"coords": [
			{
				"x": -2.710555694,
				"y": -0.2660443477,
				"z": -1.9867313206,
				"element": "C" 
			},
			{
				"x": -1.4334558389,
				"y": 0.3509135148,
				"z": -2.5704621181,
				"element": "C" 
			},
			{
				"x": -1.5726538954,
				"y": 1.8461261691,
				"z": -2.8689163885,
				"element": "C" 
			},
			{
				"x": -0.2581613971,
				"y": 0.0710541055,
				"z": -1.7032038299,
				"element": "N" 
			},
			{
				"x": 0.5084487963,
				"y": -1.0798626208,
				"z": -1.867698096,
				"element": "C" 
			},
			{
				"x": 0.3746467706,
				"y": -1.8764478166,
				"z": -2.7788085895,
				"element": "O" 
			},
			{
				"x": 1.5068055815,
				"y": -1.1822110831,
				"z": -0.761626191,
				"element": "C" 
			},
			{
				"x": 1.4085175816,
				"y": -0.1587644583,
				"z": 0.172953569,
				"element": "C" 
			},
			{
				"x": 2.2465705691,
				"y": -0.0690906687,
				"z": 1.2742872198,
				"element": "C" 
			},
			{
				"x": 3.2178189527,
				"y": -1.0705995302,
				"z": 1.4302971448,
				"element": "C" 
			},
			{
				"x": 3.305683896,
				"y": -2.1251732479,
				"z": 0.5042861569,
				"element": "C" 
			},
			{
				"x": 2.4606658332,
				"y": -2.1850884607,
				"z": -0.6018679087,
				"element": "C" 
			},
			{
				"x": 4.1687216462,
				"y": -1.0970215901,
				"z": 2.597399473,
				"element": "C" 
			},
			{
				"x": 4.4083603192,
				"y": 0.0823426428,
				"z": 3.2216567392,
				"element": "O" 
			},
			{
				"x": 4.7004739821,
				"y": -2.1112318529,
				"z": 2.9780994379,
				"element": "O" 
			},
			{
				"x": 0.1017712901,
				"y": 0.9749005069,
				"z": -0.278658848,
				"element": "S" 
			},
			{
				"x": 0.6629023652,
				"y": 2.2795387058,
				"z": -0.627846857,
				"element": "O" 
			},
			{
				"x": -1.0246836917,
				"y": 0.9087835639,
				"z": 0.6540860225,
				"element": "O" 
			},
			{
				"x": -2.5830099859,
				"y": -1.3404351177,
				"z": -1.8285531277,
				"element": "H" 
			},
			{
				"x": -2.9731584894,
				"y": 0.1998185653,
				"z": -1.0336605728,
				"element": "H" 
			},
			{
				"x": -3.5399993285,
				"y": -0.121883937,
				"z": -2.686316579,
				"element": "H" 
			},
			{
				"x": -1.1774598288,
				"y": -0.1761151776,
				"z": -3.4946164543,
				"element": "H" 
			},
			{
				"x": -2.3581228168,
				"y": 1.9829576534,
				"z": -3.6178593315,
				"element": "H" 
			},
			{
				"x": -0.6425015517,
				"y": 2.2647087028,
				"z": -3.2598720304,
				"element": "H" 
			},
			{
				"x": -1.8591195168,
				"y": 2.4161179868,
				"z": -1.9802554395,
				"element": "H" 
			},
			{
				"x": 2.1184535342,
				"y": 0.7277089224,
				"z": 2.0009523808,
				"element": "H" 
			},
			{
				"x": 4.0524034457,
				"y": -2.8917764764,
				"z": 0.6795422444,
				"element": "H" 
			},
			{
				"x": 2.5256286699,
				"y": -2.9868365905,
				"z": -1.3296262731,
				"element": "H" 
			},
			{
				"x": 4.0679088014,
				"y": 0.8259119367,
				"z": 2.7050195671,
				"element": "H" 
			}
		],
		 "valence_orbital": [ 
			{
				"type": "occ",
				"energy": -0.30841,
				"method": "rhf"
			},
			{
				"type": "occ",
				"energy": -0.3031,
				"method": "rhf"
			},
			{
				"type": "occ",
				"energy": -0.2948,
				"method": "rhf"
			},
			{
				"type": "occ",
				"energy": -0.29274,
				"method": "rhf"
			},
			{
				"type": "occ",
				"energy": -0.28161,
				"method": "rhf"
			},
			{
				"type": "unocc",
				"energy": -0.10087,
				"method": "rhf"
			},
			{
				"type": "unocc",
				"energy": -0.0691,
				"method": "rhf"
			},
			{
				"type": "unocc",
				"energy": -0.01657,
				"method": "rhf"
			},
			{
				"type": "unocc",
				"energy": 0.02172,
				"method": "rhf"
			},
			{
				"type": "unocc",
				"energy": 0.02764,
				"method": "rhf"
			}
		],
		"cosmo_sigma_profile": { 
			"-0.025": 0.0,
			"-0.024": 0.0,
			"-0.023": 0.0,
			"-0.022": 0.0,
			"-0.021": 0.0,
			"-0.02": 0.64642561821,
			"-0.019": 0.819879986252,
			"-0.018": 1.41368829506,
			"-0.017": 1.0320994147,
			"-0.016": 1.09860111098,
			"-0.015": 1.39190806189,
			"-0.014": 1.66362224845,
			"-0.013": 1.23204799996,
			"-0.012": 1.39802826135,
			"-0.011": 2.23224355109,
			"-0.01": 1.96275768433,
			"-0.009": 2.73664268221,
			"-0.008": 5.56311728638,
			"-0.007": 7.13697740797,
			"-0.006": 7.72580650194,
			"-0.005": 15.2642589853,
			"-0.004": 21.7058352171,
			"-0.003": 23.4274495301,
			"-0.002": 29.2417837064,
			"-0.001": 27.6001191186,
			"0.0": 19.2525745779,
			"0.001": 9.286305241,
			"0.002": 7.64828496708,
			"0.003": 6.40363742191,
			"0.004": 7.72201870346,
			"0.005": 5.86855818061,
			"0.006": 5.97231060378,
			"0.007": 7.08308214586,
			"0.008": 9.69907763211,
			"0.009": 17.1195239359,
			"0.01": 13.8490530854,
			"0.011": 9.8820112726,
			"0.012": 1.99924518429,
			"0.013": 0.0923134309273,
			"0.014": 0.0,
			"0.015": 0.0,
			"0.016": 0.0,
			"0.017": 0.0,
			"0.018": 0.0,
			"0.019": 0.0,
			"0.02": 0.0,
			"0.021": 0.0,
			"0.022": 0.0,
			"0.023": 0.0,
			"0.024": 0.0,
			"0.025": 0.0
		}
	}
}
