{
	 "smiles": "CCC1=CC=C(C=C1)C1=NOC(S)=N1", 
	 "Tm": 433.15, 
	 "num_atms": 24, 
	 "gaussian": { 
		 "optdone": 1, 
		 "sigma_profile": "yes", 
		 "theory": "DFT", 
		 "functional": "B3LYP", 
		 "basiset": "6-31G**", 
		 "properties": { 
			 "R2extent": 6189.8109, 
			 "electric_dipole_moment_norm": 2.52451109722, 
			 "electric_quadrupole_moment_norm": 16.2301052766, 
			 "total_energy": -969.971915943, 
			 "HOMO_LUMO_gap": 0.19078, 
			 "cosmo_polarized_energy": -8.37, 
			 "cosmo_cavitation_energy": 30.56, 
			 "cosmo_dispersion_energy": -22.89, 
			 "cosmo_repulsion_energy": 1.76, 
			 "cosmo_total_nonelectrostatic_energy": 9.43, 
			 "SMD_solvation_energy": 3.3 
		},
		"coords": [
			{
				"x": 1.7729912664,
				"y": -0.4979125099,
				"z": -3.1824826016,
				"element": "C" 
			},
			{
				"x": 1.8731719464,
				"y": 0.4958666128,
				"z": -2.0103440131,
				"element": "C" 
			},
			{
				"x": 0.756188357,
				"y": 0.3277972371,
				"z": -1.003467649,
				"element": "C" 
			},
			{
				"x": 0.8901847058,
				"y": -0.5466300028,
				"z": 0.0834854815,
				"element": "C" 
			},
			{
				"x": -0.1490313675,
				"y": -0.7336028131,
				"z": 0.9915277095,
				"element": "C" 
			},
			{
				"x": -1.3570296228,
				"y": -0.0417577727,
				"z": 0.8302020183,
				"element": "C" 
			},
			{
				"x": -1.5032770705,
				"y": 0.8386715729,
				"z": -0.2533339324,
				"element": "C" 
			},
			{
				"x": -0.4579370236,
				"y": 1.0162265218,
				"z": -1.152828973,
				"element": "C" 
			},
			{
				"x": -2.447997279,
				"y": -0.2388937512,
				"z": 1.7920350423,
				"element": "C" 
			},
			{
				"x": -3.6032500256,
				"y": 0.3829696345,
				"z": 1.6977476836,
				"element": "N" 
			},
			{
				"x": -4.3274168041,
				"y": -0.1029171156,
				"z": 2.8108969567,
				"element": "O" 
			},
			{
				"x": -3.5086044275,
				"y": -0.9606082564,
				"z": 3.4347712636,
				"element": "C" 
			},
			{
				"x": -4.1400574184,
				"y": -1.7368087599,
				"z": 4.8772275692,
				"element": "S" 
			},
			{
				"x": -2.3443513182,
				"y": -1.0973649295,
				"z": 2.8748862668,
				"element": "N" 
			},
			{
				"x": 1.8153612661,
				"y": -1.5317419588,
				"z": -2.824886608,
				"element": "H" 
			},
			{
				"x": 2.5939377589,
				"y": -0.3491565835,
				"z": -3.8915573892,
				"element": "H" 
			},
			{
				"x": 0.8295220577,
				"y": -0.3728597591,
				"z": -3.723496365,
				"element": "H" 
			},
			{
				"x": 2.8395328173,
				"y": 0.36619319,
				"z": -1.5088637801,
				"element": "H" 
			},
			{
				"x": 1.8597236512,
				"y": 1.5194122795,
				"z": -2.4033141873,
				"element": "H" 
			},
			{
				"x": 1.8240595916,
				"y": -1.0857905663,
				"z": 0.2228705524,
				"element": "H" 
			},
			{
				"x": -0.0352400394,
				"y": -1.4095738716,
				"z": 1.8320340533,
				"element": "H" 
			},
			{
				"x": -2.4350018305,
				"y": 1.3804697655,
				"z": -0.3789310899,
				"element": "H" 
			},
			{
				"x": -0.5817167424,
				"y": 1.704584222,
				"z": -1.9852956156,
				"element": "H" 
			},
			{
				"x": -3.0088624488,
				"y": -2.4356723857,
				"z": 5.0875176071,
				"element": "H" 
			}
		],
		 "valence_orbital": [ 
			{
				"type": "occ",
				"energy": -0.32829,
				"method": "rhf"
			},
			{
				"type": "occ",
				"energy": -0.30076,
				"method": "rhf"
			},
			{
				"type": "occ",
				"energy": -0.26728,
				"method": "rhf"
			},
			{
				"type": "occ",
				"energy": -0.2559,
				"method": "rhf"
			},
			{
				"type": "occ",
				"energy": -0.2365,
				"method": "rhf"
			},
			{
				"type": "unocc",
				"energy": -0.04572,
				"method": "rhf"
			},
			{
				"type": "unocc",
				"energy": -0.01024,
				"method": "rhf"
			},
			{
				"type": "unocc",
				"energy": -0.0064,
				"method": "rhf"
			},
			{
				"type": "unocc",
				"energy": -0.00029,
				"method": "rhf"
			},
			{
				"type": "unocc",
				"energy": 0.0393,
				"method": "rhf"
			}
		],
		"cosmo_sigma_profile": { 
			"-0.025": 0.0,
			"-0.024": 0.0,
			"-0.023": 0.0,
			"-0.022": 0.0,
			"-0.021": 0.0,
			"-0.02": 0.0,
			"-0.019": 0.0,
			"-0.018": 0.0,
			"-0.017": 0.0,
			"-0.016": 0.0,
			"-0.015": 0.0,
			"-0.014": 0.166805768642,
			"-0.013": 1.81327005803,
			"-0.012": 1.652243566,
			"-0.011": 1.24923710197,
			"-0.01": 1.03978898002,
			"-0.009": 1.65718422519,
			"-0.008": 1.05338452743,
			"-0.007": 1.33887679205,
			"-0.006": 5.21411637062,
			"-0.005": 9.80198521671,
			"-0.004": 15.2729499379,
			"-0.003": 22.2520213386,
			"-0.002": 25.1331311261,
			"-0.001": 26.8701386063,
			"0.0": 26.1690108299,
			"0.001": 24.3674877294,
			"0.002": 19.2520619614,
			"0.003": 15.7771077223,
			"0.004": 17.165491464,
			"0.005": 9.80921471116,
			"0.006": 6.87963296484,
			"0.007": 2.91290089291,
			"0.008": 2.22522990741,
			"0.009": 2.85423720911,
			"0.01": 2.08513445162,
			"0.011": 1.75914581946,
			"0.012": 0.921194539412,
			"0.013": 0.0703209594675,
			"0.014": 0.0,
			"0.015": 0.0,
			"0.016": 0.0,
			"0.017": 0.0,
			"0.018": 0.0,
			"0.019": 0.0,
			"0.02": 0.0,
			"0.021": 0.0,
			"0.022": 0.0,
			"0.023": 0.0,
			"0.024": 0.0,
			"0.025": 0.0
		}
	}
}
