{
	 "smiles": "SC1=NC2=CC(Cl)=C(Cl)C=C2N1", 
	 "Tm": 573.15, 
	 "num_atms": 16, 
	 "gaussian": { 
		 "optdone": 1, 
		 "sigma_profile": "yes", 
		 "theory": "DFT", 
		 "functional": "B3LYP", 
		 "basiset": "6-31G**", 
		 "properties": { 
			 "R2extent": 4400.7088, 
			 "electric_dipole_moment_norm": 4.27051906213, 
			 "electric_quadrupole_moment_norm": 13.3397401819, 
			 "total_energy": -1697.23098765, 
			 "HOMO_LUMO_gap": 0.18972, 
			 "cosmo_polarized_energy": -13.28, 
			 "cosmo_cavitation_energy": 26.13, 
			 "cosmo_dispersion_energy": -20.51, 
			 "cosmo_repulsion_energy": 1.58, 
			 "cosmo_total_nonelectrostatic_energy": 7.2, 
			 "SMD_solvation_energy": 1.22 
		},
		"coords": [
			{
				"x": -1.2422215777,
				"y": -2.4577384289,
				"z": 2.3913279593,
				"element": "S" 
			},
			{
				"x": -0.9255072304,
				"y": -1.1383140977,
				"z": 1.2613503872,
				"element": "C" 
			},
			{
				"x": 0.2509389384,
				"y": -0.6526678893,
				"z": 0.9576495809,
				"element": "N" 
			},
			{
				"x": -0.0153443284,
				"y": 0.3554701042,
				"z": 0.040458661,
				"element": "C" 
			},
			{
				"x": 0.8661453077,
				"y": 1.2123484251,
				"z": -0.6218242809,
				"element": "C" 
			},
			{
				"x": 0.3376294746,
				"y": 2.1507088868,
				"z": -1.5052753018,
				"element": "C" 
			},
			{
				"x": 1.4459542699,
				"y": 3.223208774,
				"z": -2.3335936427,
				"element": "Cl" 
			},
			{
				"x": -1.0554974859,
				"y": 2.2390234874,
				"z": -1.7306829636,
				"element": "C" 
			},
			{
				"x": -1.7155440139,
				"y": 3.4187432575,
				"z": -2.8408819661,
				"element": "Cl" 
			},
			{
				"x": -1.9486072491,
				"y": 1.3895237719,
				"z": -1.0761367027,
				"element": "C" 
			},
			{
				"x": -1.4056820099,
				"y": 0.4585778871,
				"z": -0.197675809,
				"element": "C" 
			},
			{
				"x": -1.9705500544,
				"y": -0.52013839,
				"z": 0.6055540974,
				"element": "N" 
			},
			{
				"x": 0.0613716444,
				"y": -2.6269337609,
				"z": 2.6785641102,
				"element": "H" 
			},
			{
				"x": 1.934692353,
				"y": 1.1512610219,
				"z": -0.4547914597,
				"element": "H" 
			},
			{
				"x": -3.013044659,
				"y": 1.472554604,
				"z": -1.2620892559,
				"element": "H" 
			},
			{
				"x": -2.9504333793,
				"y": -0.7400276531,
				"z": 0.6957465864,
				"element": "H" 
			}
		],
		 "valence_orbital": [ 
			{
				"type": "occ",
				"energy": -0.30539,
				"method": "rhf"
			},
			{
				"type": "occ",
				"energy": -0.29548,
				"method": "rhf"
			},
			{
				"type": "occ",
				"energy": -0.28586,
				"method": "rhf"
			},
			{
				"type": "occ",
				"energy": -0.24289,
				"method": "rhf"
			},
			{
				"type": "occ",
				"energy": -0.22629,
				"method": "rhf"
			},
			{
				"type": "unocc",
				"energy": -0.03657,
				"method": "rhf"
			},
			{
				"type": "unocc",
				"energy": -0.0109,
				"method": "rhf"
			},
			{
				"type": "unocc",
				"energy": -0.00437,
				"method": "rhf"
			},
			{
				"type": "unocc",
				"energy": 0.00373,
				"method": "rhf"
			},
			{
				"type": "unocc",
				"energy": 0.03254,
				"method": "rhf"
			}
		],
		"cosmo_sigma_profile": { 
			"-0.025": 0.0,
			"-0.024": 0.0,
			"-0.023": 0.0,
			"-0.022": 0.0,
			"-0.021": 0.0,
			"-0.02": 0.0,
			"-0.019": 0.0,
			"-0.018": 0.714424370292,
			"-0.017": 1.8124712311,
			"-0.016": 1.21883727549,
			"-0.015": 1.4655356955,
			"-0.014": 1.66564371567,
			"-0.013": 1.48946757922,
			"-0.012": 2.45866310955,
			"-0.011": 2.73925412249,
			"-0.01": 2.73452384007,
			"-0.009": 3.29631446556,
			"-0.008": 4.49395645817,
			"-0.007": 4.04899551659,
			"-0.006": 5.02112432789,
			"-0.005": 6.17424552947,
			"-0.004": 4.23971463638,
			"-0.003": 7.35375804843,
			"-0.002": 9.47211429614,
			"-0.001": 13.1014185305,
			"0.0": 17.4172408832,
			"0.001": 27.4237284929,
			"0.002": 30.0177463334,
			"0.003": 18.960043865,
			"0.004": 21.4870670046,
			"0.005": 13.5026195374,
			"0.006": 6.00053262425,
			"0.007": 1.5617461197,
			"0.008": 1.36375199335,
			"0.009": 0.587869793806,
			"0.01": 0.878829757357,
			"0.011": 1.26469694849,
			"0.012": 0.960748578163,
			"0.013": 0.778257533359,
			"0.014": 1.09743267819,
			"0.015": 0.530975381836,
			"0.016": 0.440569119515,
			"0.017": 0.0,
			"0.018": 0.0,
			"0.019": 0.0,
			"0.02": 0.0,
			"0.021": 0.0,
			"0.022": 0.0,
			"0.023": 0.0,
			"0.024": 0.0,
			"0.025": 0.0
		}
	}
}
