{
	 "smiles": "FC1=CC=C(C=C1)C1=CSC2=C1C(Cl)=NC=N2", 
	 "Tm": 413.15, 
	 "num_atms": 23, 
	 "gaussian": { 
		 "optdone": 1, 
		 "sigma_profile": "yes", 
		 "theory": "DFT", 
		 "functional": "B3LYP", 
		 "basiset": "6-31G**", 
		 "properties": { 
			 "R2extent": 5376.7948, 
			 "electric_dipole_moment_norm": 2.44734391535, 
			 "electric_quadrupole_moment_norm": 8.53974294812, 
			 "total_energy": -1528.60192558, 
			 "HOMO_LUMO_gap": 0.18574, 
			 "cosmo_polarized_energy": -8.56, 
			 "cosmo_cavitation_energy": 32.11, 
			 "cosmo_dispersion_energy": -23.3, 
			 "cosmo_repulsion_energy": 1.73, 
			 "cosmo_total_nonelectrostatic_energy": 10.54, 
			 "SMD_solvation_energy": 2.46 
		},
		"coords": [
			{
				"x": 1.9926888657,
				"y": -3.8289582372,
				"z": 1.161404976,
				"element": "F" 
			},
			{
				"x": 1.3672416302,
				"y": -2.6631158168,
				"z": 0.9016996265,
				"element": "C" 
			},
			{
				"x": 2.0216471385,
				"y": -1.4695782995,
				"z": 1.1847810277,
				"element": "C" 
			},
			{
				"x": 1.3679362109,
				"y": -0.2683153982,
				"z": 0.9143600304,
				"element": "C" 
			},
			{
				"x": 0.0778337478,
				"y": -0.2585804041,
				"z": 0.3647922978,
				"element": "C" 
			},
			{
				"x": -0.5545822073,
				"y": -1.4814876036,
				"z": 0.0982077454,
				"element": "C" 
			},
			{
				"x": 0.0858694123,
				"y": -2.6911224736,
				"z": 0.3629875725,
				"element": "C" 
			},
			{
				"x": -0.6276748824,
				"y": 1.030642912,
				"z": 0.1105386484,
				"element": "C" 
			},
			{
				"x": -1.4058213455,
				"y": 1.6268965089,
				"z": 1.0604557345,
				"element": "C" 
			},
			{
				"x": -2.1477966637,
				"y": 3.1307434035,
				"z": 0.5728066739,
				"element": "S" 
			},
			{
				"x": -1.3960071958,
				"y": 2.9963978432,
				"z": -1.0027905967,
				"element": "C" 
			},
			{
				"x": -0.6086582595,
				"y": 1.8178997098,
				"z": -1.1070433492,
				"element": "C" 
			},
			{
				"x": 0.0093790919,
				"y": 1.6840056223,
				"z": -2.3671070444,
				"element": "C" 
			},
			{
				"x": 1.0320377898,
				"y": 0.307788455,
				"z": -2.7318712851,
				"element": "Cl" 
			},
			{
				"x": -0.1373190378,
				"y": 2.5660632073,
				"z": -3.3343988482,
				"element": "N" 
			},
			{
				"x": -0.9154360706,
				"y": 3.6360286535,
				"z": -3.0904333796,
				"element": "C" 
			},
			{
				"x": -1.5637027368,
				"y": 3.9060254626,
				"z": -1.9616080711,
				"element": "N" 
			},
			{
				"x": 3.0197574317,
				"y": -1.4921443462,
				"z": 1.6083546798,
				"element": "H" 
			},
			{
				"x": 1.8655280537,
				"y": 0.6724722789,
				"z": 1.1288448711,
				"element": "H" 
			},
			{
				"x": -1.5551400211,
				"y": -1.4860615981,
				"z": -0.3231548429,
				"element": "H" 
			},
			{
				"x": -0.3905447221,
				"y": -3.6441444238,
				"z": 0.160660837,
				"element": "H" 
			},
			{
				"x": -1.5891209003,
				"y": 1.2483809609,
				"z": 2.0573120577,
				"element": "H" 
			},
			{
				"x": -1.0204153296,
				"y": 4.3486635833,
				"z": -3.9040993616,
				"element": "H" 
			}
		],
		 "valence_orbital": [ 
			{
				"type": "occ",
				"energy": -0.28271,
				"method": "rhf"
			},
			{
				"type": "occ",
				"energy": -0.27489,
				"method": "rhf"
			},
			{
				"type": "occ",
				"energy": -0.26983,
				"method": "rhf"
			},
			{
				"type": "occ",
				"energy": -0.25089,
				"method": "rhf"
			},
			{
				"type": "occ",
				"energy": -0.24887,
				"method": "rhf"
			},
			{
				"type": "unocc",
				"energy": -0.06313,
				"method": "rhf"
			},
			{
				"type": "unocc",
				"energy": -0.04533,
				"method": "rhf"
			},
			{
				"type": "unocc",
				"energy": -0.01973,
				"method": "rhf"
			},
			{
				"type": "unocc",
				"energy": -0.01926,
				"method": "rhf"
			},
			{
				"type": "unocc",
				"energy": 0.00814,
				"method": "rhf"
			}
		],
		"cosmo_sigma_profile": { 
			"-0.025": 0.0,
			"-0.024": 0.0,
			"-0.023": 0.0,
			"-0.022": 0.0,
			"-0.021": 0.0,
			"-0.02": 0.0,
			"-0.019": 0.0,
			"-0.018": 0.0,
			"-0.017": 0.0,
			"-0.016": 0.0,
			"-0.015": 0.0,
			"-0.014": 0.0,
			"-0.013": 0.0,
			"-0.012": 0.0,
			"-0.011": 0.0,
			"-0.01": 1.22305869991,
			"-0.009": 2.80163684238,
			"-0.008": 4.39785509182,
			"-0.007": 8.55462160213,
			"-0.006": 11.1569731735,
			"-0.005": 10.7937296714,
			"-0.004": 13.4655116944,
			"-0.003": 17.9241742259,
			"-0.002": 24.0300144144,
			"-0.001": 21.4843200436,
			"0.0": 25.6128112058,
			"0.001": 27.9022335774,
			"0.002": 23.52799365,
			"0.003": 23.1003644861,
			"0.004": 24.0676745406,
			"0.005": 8.091601755,
			"0.006": 3.16148997321,
			"0.007": 2.44752251972,
			"0.008": 1.87166034254,
			"0.009": 1.88505147755,
			"0.01": 2.25787437899,
			"0.011": 1.54037015134,
			"0.012": 1.72535210724,
			"0.013": 1.53113091714,
			"0.014": 0.181163860965,
			"0.015": 0.0,
			"0.016": 0.0,
			"0.017": 0.0,
			"0.018": 0.0,
			"0.019": 0.0,
			"0.02": 0.0,
			"0.021": 0.0,
			"0.022": 0.0,
			"0.023": 0.0,
			"0.024": 0.0,
			"0.025": 0.0
		}
	}
}
