{
	 "smiles": "CC(C)NCC(O)C1=CC=C(C=C1)[N+]([O-])=O", 
	 "Tm": 371.15, 
	 "num_atms": 32, 
	 "gaussian": { 
		 "optdone": 1, 
		 "sigma_profile": "yes", 
		 "theory": "DFT", 
		 "functional": "B3LYP", 
		 "basiset": "6-31G**", 
		 "properties": { 
			 "R2extent": 5250.1795, 
			 "electric_dipole_moment_norm": 6.21968975191, 
			 "electric_quadrupole_moment_norm": 18.468963769, 
			 "total_energy": -763.890376447, 
			 "HOMO_LUMO_gap": 0.16656, 
			 "cosmo_polarized_energy": -13.01, 
			 "cosmo_cavitation_energy": 34.88, 
			 "cosmo_dispersion_energy": -23.85, 
			 "cosmo_repulsion_energy": 1.88, 
			 "cosmo_total_nonelectrostatic_energy": 12.91, 
			 "SMD_solvation_energy": 7.86 
		},
		"coords": [
			{
				"x": -1.8804681805,
				"y": 1.2416882595,
				"z": -1.1870459773,
				"element": "C" 
			},
			{
				"x": -1.62641246,
				"y": 0.1959733327,
				"z": -0.0893045968,
				"element": "C" 
			},
			{
				"x": -2.5715443756,
				"y": 0.3949553252,
				"z": 1.0990293377,
				"element": "C" 
			},
			{
				"x": -1.7543067766,
				"y": -1.1954372082,
				"z": -0.5709972294,
				"element": "N" 
			},
			{
				"x": -0.7041880901,
				"y": -1.7038814974,
				"z": -1.458755951,
				"element": "C" 
			},
			{
				"x": 0.3459992662,
				"y": -2.5018072526,
				"z": -0.627011613,
				"element": "C" 
			},
			{
				"x": -0.3433174936,
				"y": -3.3056307864,
				"z": 0.3020600064,
				"element": "O" 
			},
			{
				"x": 1.3976505967,
				"y": -1.6124562855,
				"z": 0.0350863055,
				"element": "C" 
			},
			{
				"x": 2.2770100826,
				"y": -0.8476744627,
				"z": -0.7494910265,
				"element": "C" 
			},
			{
				"x": 3.2421337177,
				"y": -0.0374349315,
				"z": -0.1622485447,
				"element": "C" 
			},
			{
				"x": 3.3257099589,
				"y": -0.0007526017,
				"z": 1.2300083218,
				"element": "C" 
			},
			{
				"x": 2.479680627,
				"y": -0.7590350583,
				"z": 2.0361056577,
				"element": "C" 
			},
			{
				"x": 1.5203988319,
				"y": -1.5665999312,
				"z": 1.4292175547,
				"element": "C" 
			},
			{
				"x": 4.3389796378,
				"y": 0.8557241561,
				"z": 1.8605931287,
				"element": "N" 
			},
			{
				"x": 4.3925311348,
				"y": 0.869691818,
				"z": 3.0905577573,
				"element": "O" 
			},
			{
				"x": 5.0743147963,
				"y": 1.5117460813,
				"z": 1.1216545041,
				"element": "O" 
			},
			{
				"x": -1.7244751108,
				"y": 2.2560372048,
				"z": -0.8053198712,
				"element": "H" 
			},
			{
				"x": -1.2126653718,
				"y": 1.105424603,
				"z": -2.0435820445,
				"element": "H" 
			},
			{
				"x": -2.9139113962,
				"y": 1.1772020056,
				"z": -1.5498822208,
				"element": "H" 
			},
			{
				"x": -0.5965710023,
				"y": 0.3061495359,
				"z": 0.2679803249,
				"element": "H" 
			},
			{
				"x": -2.4794078163,
				"y": 1.4059278775,
				"z": 1.5077578604,
				"element": "H" 
			},
			{
				"x": -3.6160390211,
				"y": 0.2550494053,
				"z": 0.7935088359,
				"element": "H" 
			},
			{
				"x": -2.3532088443,
				"y": -0.3236482862,
				"z": 1.8937491643,
				"element": "H" 
			},
			{
				"x": -2.6670514062,
				"y": -1.3179496188,
				"z": -0.9997085425,
				"element": "H" 
			},
			{
				"x": -0.2162246719,
				"y": -0.9208927546,
				"z": -2.0546423334,
				"element": "H" 
			},
			{
				"x": -1.1653724406,
				"y": -2.4079217936,
				"z": -2.1580015826,
				"element": "H" 
			},
			{
				"x": 0.8762381726,
				"y": -3.1694819623,
				"z": -1.3207601293,
				"element": "H" 
			},
			{
				"x": -1.1483101977,
				"y": -2.7806503705,
				"z": 0.4946637304,
				"element": "H" 
			},
			{
				"x": 2.2131237327,
				"y": -0.8907245159,
				"z": -1.8338944184,
				"element": "H" 
			},
			{
				"x": 3.9272226769,
				"y": 0.558354264,
				"z": -0.7523102472,
				"element": "H" 
			},
			{
				"x": 2.5866395233,
				"y": -0.7103702087,
				"z": 3.1127077637,
				"element": "H" 
			},
			{
				"x": 0.8616419001,
				"y": -2.1861743429,
				"z": 2.026376075,
				"element": "H" 
			}
		],
		 "valence_orbital": [ 
			{
				"type": "occ",
				"energy": -0.28484,
				"method": "rhf"
			},
			{
				"type": "occ",
				"energy": -0.27825,
				"method": "rhf"
			},
			{
				"type": "occ",
				"energy": -0.27269,
				"method": "rhf"
			},
			{
				"type": "occ",
				"energy": -0.26608,
				"method": "rhf"
			},
			{
				"type": "occ",
				"energy": -0.24964,
				"method": "rhf"
			},
			{
				"type": "unocc",
				"energy": -0.08308,
				"method": "rhf"
			},
			{
				"type": "unocc",
				"energy": -0.02322,
				"method": "rhf"
			},
			{
				"type": "unocc",
				"energy": 0.00554,
				"method": "rhf"
			},
			{
				"type": "unocc",
				"energy": 0.05712,
				"method": "rhf"
			},
			{
				"type": "unocc",
				"energy": 0.0847,
				"method": "rhf"
			}
		],
		"cosmo_sigma_profile": { 
			"-0.025": 0.0,
			"-0.024": 0.0,
			"-0.023": 0.0,
			"-0.022": 0.0,
			"-0.021": 0.0,
			"-0.02": 0.0,
			"-0.019": 0.0,
			"-0.018": 0.0,
			"-0.017": 0.0,
			"-0.016": 0.0,
			"-0.015": 0.0,
			"-0.014": 0.0,
			"-0.013": 0.0,
			"-0.012": 0.0,
			"-0.011": 0.314122468464,
			"-0.01": 1.15772664008,
			"-0.009": 1.67411003704,
			"-0.008": 1.30000620258,
			"-0.007": 7.23988830978,
			"-0.006": 10.2447492597,
			"-0.005": 19.0043166355,
			"-0.004": 18.2344296695,
			"-0.003": 24.282361699,
			"-0.002": 26.4247413714,
			"-0.001": 30.8078984616,
			"0.0": 28.254988061,
			"0.001": 30.2405691398,
			"0.002": 18.5131672276,
			"0.003": 7.38699732708,
			"0.004": 5.20979913715,
			"0.005": 4.0242450281,
			"0.006": 4.80310873231,
			"0.007": 6.9216449856,
			"0.008": 11.0530473943,
			"0.009": 5.30210453648,
			"0.01": 4.49510446591,
			"0.011": 2.05637911835,
			"0.012": 1.03085857916,
			"0.013": 1.29187330002,
			"0.014": 1.82154455708,
			"0.015": 0.843183679542,
			"0.016": 0.0,
			"0.017": 0.0,
			"0.018": 0.0,
			"0.019": 0.0,
			"0.02": 0.0,
			"0.021": 0.0,
			"0.022": 0.0,
			"0.023": 0.0,
			"0.024": 0.0,
			"0.025": 0.0
		}
	}
}
