{
	 "smiles": "CN1C(=C)C(=NNC2=C(Cl)C=C(Cl)C(Cl)=C2)C(=O)N(C)C1=O", 
	 "Tm": 515.15, 
	 "num_atms": 33, 
	 "gaussian": { 
		 "optdone": 1, 
		 "sigma_profile": "yes", 
		 "theory": "DFT", 
		 "functional": "B3LYP", 
		 "basiset": "6-31G**", 
		 "properties": { 
			 "R2extent": 13521.8271, 
			 "electric_dipole_moment_norm": 1.45567866303, 
			 "electric_quadrupole_moment_norm": 14.4341620508, 
			 "total_energy": -2252.03411488, 
			 "HOMO_LUMO_gap": 0.12206, 
			 "cosmo_polarized_energy": -10.32, 
			 "cosmo_cavitation_energy": 42.85, 
			 "cosmo_dispersion_energy": -31.08, 
			 "cosmo_repulsion_energy": 2.31, 
			 "cosmo_total_nonelectrostatic_energy": 14.09, 
			 "SMD_solvation_energy": 7.78 
		},
		"coords": [
			{
				"x": -0.5290598345,
				"y": 0.1484750207,
				"z": 4.1645558247,
				"element": "C" 
			},
			{
				"x": -0.385436366,
				"y": -0.4231457614,
				"z": 2.8270543117,
				"element": "N" 
			},
			{
				"x": -0.5284709247,
				"y": 0.430132007,
				"z": 1.7107379835,
				"element": "C" 
			},
			{
				"x": -0.857609139,
				"y": 1.7296696597,
				"z": 1.8448480694,
				"element": "C" 
			},
			{
				"x": -0.282470331,
				"y": -0.1935410829,
				"z": 0.3912063006,
				"element": "C" 
			},
			{
				"x": -0.2587068017,
				"y": 0.5978610062,
				"z": -0.6511051225,
				"element": "N" 
			},
			{
				"x": -0.0789836469,
				"y": 0.1303077016,
				"z": -1.8730879565,
				"element": "N" 
			},
			{
				"x": -0.0291441872,
				"y": 1.0041542656,
				"z": -2.9556799462,
				"element": "C" 
			},
			{
				"x": 0.1301093691,
				"y": 0.5026024833,
				"z": -4.2610904838,
				"element": "C" 
			},
			{
				"x": 0.2663982319,
				"y": -1.2242669606,
				"z": -4.5304408453,
				"element": "Cl" 
			},
			{
				"x": 0.181009288,
				"y": 1.3592967444,
				"z": -5.3539707549,
				"element": "C" 
			},
			{
				"x": 0.0739845207,
				"y": 2.7386447287,
				"z": -5.1754659637,
				"element": "C" 
			},
			{
				"x": 0.1421738653,
				"y": 3.7747518636,
				"z": -6.5757707193,
				"element": "Cl" 
			},
			{
				"x": -0.0838293753,
				"y": 3.2505759217,
				"z": -3.8786968138,
				"element": "C" 
			},
			{
				"x": -0.2199884822,
				"y": 4.9663039237,
				"z": -3.5923933677,
				"element": "Cl" 
			},
			{
				"x": -0.1325179473,
				"y": 2.3915987452,
				"z": -2.7864349245,
				"element": "C" 
			},
			{
				"x": -0.0808008505,
				"y": -1.6502983715,
				"z": 0.2895270656,
				"element": "C" 
			},
			{
				"x": 0.0711175188,
				"y": -2.2218597333,
				"z": -0.7984896468,
				"element": "O" 
			},
			{
				"x": -0.0612379168,
				"y": -2.3593149614,
				"z": 1.4762422186,
				"element": "N" 
			},
			{
				"x": 0.1424537706,
				"y": -3.813944663,
				"z": 1.4417314269,
				"element": "C" 
			},
			{
				"x": -0.1755572002,
				"y": -1.7877010975,
				"z": 2.7585757822,
				"element": "C" 
			},
			{
				"x": -0.0895025189,
				"y": -2.5035279005,
				"z": 3.7451736343,
				"element": "O" 
			},
			{
				"x": -0.3456749658,
				"y": -0.6407118314,
				"z": 4.8886121429,
				"element": "H" 
			},
			{
				"x": 0.1934521988,
				"y": 0.9585885487,
				"z": 4.3014766723,
				"element": "H" 
			},
			{
				"x": -1.5398487387,
				"y": 0.5466788096,
				"z": 4.3023802057,
				"element": "H" 
			},
			{
				"x": -1.0263049984,
				"y": 2.19892884,
				"z": 2.8024687066,
				"element": "H" 
			},
			{
				"x": -0.9578754336,
				"y": 2.339942778,
				"z": 0.9590494205,
				"element": "H" 
			},
			{
				"x": 0.0324798784,
				"y": -0.8834361785,
				"z": -1.9903499493,
				"element": "H" 
			},
			{
				"x": 0.3034809001,
				"y": 0.9533401602,
				"z": -6.3505552011,
				"element": "H" 
			},
			{
				"x": -0.2494913061,
				"y": 2.7878920416,
				"z": -1.7868920244,
				"element": "H" 
			},
			{
				"x": 1.0881999394,
				"y": -4.0704066687,
				"z": 1.9234717642,
				"element": "H" 
			},
			{
				"x": -0.6655603803,
				"y": -4.3086011346,
				"z": 1.9821877783,
				"element": "H" 
			},
			{
				"x": 0.153811864,
				"y": -4.1195889044,
				"z": 0.398724412,
				"element": "H" 
			}
		],
		 "valence_orbital": [ 
			{
				"type": "occ",
				"energy": -0.28714,
				"method": "rhf"
			},
			{
				"type": "occ",
				"energy": -0.27518,
				"method": "rhf"
			},
			{
				"type": "occ",
				"energy": -0.26471,
				"method": "rhf"
			},
			{
				"type": "occ",
				"energy": -0.24483,
				"method": "rhf"
			},
			{
				"type": "occ",
				"energy": -0.21371,
				"method": "rhf"
			},
			{
				"type": "unocc",
				"energy": -0.09165,
				"method": "rhf"
			},
			{
				"type": "unocc",
				"energy": -0.0374,
				"method": "rhf"
			},
			{
				"type": "unocc",
				"energy": -0.01672,
				"method": "rhf"
			},
			{
				"type": "unocc",
				"energy": -0.0129,
				"method": "rhf"
			},
			{
				"type": "unocc",
				"energy": 0.0073,
				"method": "rhf"
			}
		],
		"cosmo_sigma_profile": { 
			"-0.025": 0.0,
			"-0.024": 0.0,
			"-0.023": 0.0,
			"-0.022": 0.0,
			"-0.021": 0.0,
			"-0.02": 0.0,
			"-0.019": 0.0,
			"-0.018": 0.0,
			"-0.017": 0.0,
			"-0.016": 0.0,
			"-0.015": 0.0,
			"-0.014": 0.0,
			"-0.013": 0.0,
			"-0.012": 0.0,
			"-0.011": 0.0,
			"-0.01": 0.126978903002,
			"-0.009": 1.16446570549,
			"-0.008": 1.42999595861,
			"-0.007": 3.84921878659,
			"-0.006": 11.3929953902,
			"-0.005": 20.451423997,
			"-0.004": 26.0227989665,
			"-0.003": 33.3872396368,
			"-0.002": 33.3645136699,
			"-0.001": 37.1967718258,
			"0.0": 43.2662014954,
			"0.001": 27.9639291314,
			"0.002": 25.680832738,
			"0.003": 30.660252206,
			"0.004": 22.3255492045,
			"0.005": 9.02193763819,
			"0.006": 4.03451004982,
			"0.007": 2.35700992994,
			"0.008": 3.13021059679,
			"0.009": 3.46283123938,
			"0.01": 3.16446584861,
			"0.011": 2.47912568149,
			"0.012": 4.40094101086,
			"0.013": 0.887022268871,
			"0.014": 0.0,
			"0.015": 0.0,
			"0.016": 0.0,
			"0.017": 0.0,
			"0.018": 0.0,
			"0.019": 0.0,
			"0.02": 0.0,
			"0.021": 0.0,
			"0.022": 0.0,
			"0.023": 0.0,
			"0.024": 0.0,
			"0.025": 0.0
		}
	}
}
