{
	 "smiles": "CCC#CCN1C(=O)C2=CC=CC=C2C1=O", 
	 "Tm": 372.15, 
	 "num_atms": 27, 
	 "gaussian": { 
		 "optdone": 1, 
		 "sigma_profile": "yes", 
		 "theory": "DFT", 
		 "functional": "B3LYP", 
		 "basiset": "6-31G**", 
		 "properties": { 
			 "R2extent": 4926.5226, 
			 "electric_dipole_moment_norm": 2.39209378997, 
			 "electric_quadrupole_moment_norm": 18.7486054423, 
			 "total_energy": -707.182486563, 
			 "HOMO_LUMO_gap": 0.16958, 
			 "cosmo_polarized_energy": -11.94, 
			 "cosmo_cavitation_energy": 33.28, 
			 "cosmo_dispersion_energy": -22.98, 
			 "cosmo_repulsion_energy": 1.85, 
			 "cosmo_total_nonelectrostatic_energy": 12.15, 
			 "SMD_solvation_energy": 7.13 
		},
		"coords": [
			{
				"x": -2.6104229534,
				"y": -1.2952800718,
				"z": -2.9416405922,
				"element": "C" 
			},
			{
				"x": -2.8285113183,
				"y": -2.0561337509,
				"z": -1.6200063019,
				"element": "C" 
			},
			{
				"x": -1.7820623008,
				"y": -1.7920662474,
				"z": -0.6307806903,
				"element": "C" 
			},
			{
				"x": -0.9057474221,
				"y": -1.5576946848,
				"z": 0.1688166559,
				"element": "C" 
			},
			{
				"x": 0.1446102038,
				"y": -1.290087907,
				"z": 1.1554020384,
				"element": "C" 
			},
			{
				"x": 1.1697103255,
				"y": -0.3640143988,
				"z": 0.6790319737,
				"element": "N" 
			},
			{
				"x": 2.3257600115,
				"y": -0.767481148,
				"z": -0.0106063636,
				"element": "C" 
			},
			{
				"x": 2.6356514277,
				"y": -1.9167349809,
				"z": -0.250668793,
				"element": "O" 
			},
			{
				"x": 3.0516148487,
				"y": 0.4959444801,
				"z": -0.3406197042,
				"element": "C" 
			},
			{
				"x": 4.252144864,
				"y": 0.6889087315,
				"z": -1.0084928503,
				"element": "C" 
			},
			{
				"x": 4.695837332,
				"y": 2.0084631214,
				"z": -1.1687057943,
				"element": "C" 
			},
			{
				"x": 3.9539746122,
				"y": 3.0866654496,
				"z": -0.6689567037,
				"element": "C" 
			},
			{
				"x": 2.7440791523,
				"y": 2.8806778947,
				"z": 0.0074229475,
				"element": "C" 
			},
			{
				"x": 2.3119086721,
				"y": 1.5710229127,
				"z": 0.1576963191,
				"element": "C" 
			},
			{
				"x": 1.088013244,
				"y": 1.0314635582,
				"z": 0.8232484573,
				"element": "C" 
			},
			{
				"x": 0.1966814859,
				"y": 1.6281143009,
				"z": 1.3924549888,
				"element": "O" 
			},
			{
				"x": -3.4145011438,
				"y": -1.5233758323,
				"z": -3.6480218426,
				"element": "H" 
			},
			{
				"x": -1.6584979441,
				"y": -1.5770324157,
				"z": -3.4002238544,
				"element": "H" 
			},
			{
				"x": -2.5974672302,
				"y": -0.2151793798,
				"z": -2.7711784928,
				"element": "H" 
			},
			{
				"x": -3.8041591061,
				"y": -1.7841110211,
				"z": -1.1964005803,
				"element": "H" 
			},
			{
				"x": -2.8734835271,
				"y": -3.1346402974,
				"z": -1.8203262296,
				"element": "H" 
			},
			{
				"x": 0.6565991076,
				"y": -2.218537682,
				"z": 1.4281657529,
				"element": "H" 
			},
			{
				"x": -0.2859795447,
				"y": -0.849653544,
				"z": 2.0604735616,
				"element": "H" 
			},
			{
				"x": 4.8192855449,
				"y": -0.154182936,
				"z": -1.3895974432,
				"element": "H" 
			},
			{
				"x": 5.6299768394,
				"y": 2.2007299074,
				"z": -1.6880167502,
				"element": "H" 
			},
			{
				"x": 4.3247254155,
				"y": 4.097738999,
				"z": -0.8087432384,
				"element": "H" 
			},
			{
				"x": 2.1619594035,
				"y": 3.7078769423,
				"z": 0.4005735299,
				"element": "H" 
			}
		],
		 "valence_orbital": [ 
			{
				"type": "occ",
				"energy": -0.2773,
				"method": "rhf"
			},
			{
				"type": "occ",
				"energy": -0.27053,
				"method": "rhf"
			},
			{
				"type": "occ",
				"energy": -0.26662,
				"method": "rhf"
			},
			{
				"type": "occ",
				"energy": -0.2549,
				"method": "rhf"
			},
			{
				"type": "occ",
				"energy": -0.24996,
				"method": "rhf"
			},
			{
				"type": "unocc",
				"energy": -0.08038,
				"method": "rhf"
			},
			{
				"type": "unocc",
				"energy": -0.04016,
				"method": "rhf"
			},
			{
				"type": "unocc",
				"energy": 0.02875,
				"method": "rhf"
			},
			{
				"type": "unocc",
				"energy": 0.0418,
				"method": "rhf"
			},
			{
				"type": "unocc",
				"energy": 0.06002,
				"method": "rhf"
			}
		],
		"cosmo_sigma_profile": { 
			"-0.025": 0.0,
			"-0.024": 0.0,
			"-0.023": 0.0,
			"-0.022": 0.0,
			"-0.021": 0.0,
			"-0.02": 0.0,
			"-0.019": 0.0,
			"-0.018": 0.0,
			"-0.017": 0.0,
			"-0.016": 0.0,
			"-0.015": 0.0,
			"-0.014": 0.0,
			"-0.013": 0.0,
			"-0.012": 0.0,
			"-0.011": 0.0,
			"-0.01": 0.0,
			"-0.009": 0.0,
			"-0.008": 2.91118414168,
			"-0.007": 11.1506739272,
			"-0.006": 13.7739345231,
			"-0.005": 19.2697116702,
			"-0.004": 21.6659495894,
			"-0.003": 22.5419999816,
			"-0.002": 23.8925661959,
			"-0.001": 22.8546376997,
			"0.0": 23.5729482449,
			"0.001": 21.1084588292,
			"0.002": 19.2821884958,
			"0.003": 8.12899431837,
			"0.004": 8.44454800361,
			"0.005": 10.0044216821,
			"0.006": 8.74417511545,
			"0.007": 4.50033163249,
			"0.008": 3.57235497405,
			"0.009": 3.62014369695,
			"0.01": 5.65407356233,
			"0.011": 10.0181654801,
			"0.012": 2.15935452897,
			"0.013": 0.0,
			"0.014": 0.0,
			"0.015": 0.0,
			"0.016": 0.0,
			"0.017": 0.0,
			"0.018": 0.0,
			"0.019": 0.0,
			"0.02": 0.0,
			"0.021": 0.0,
			"0.022": 0.0,
			"0.023": 0.0,
			"0.024": 0.0,
			"0.025": 0.0
		}
	}
}
