{
	 "smiles": "BrC1=CC=CC2=C1OC1=C(O2)C=CC=C1", 
	 "Tm": 377.15, 
	 "num_atms": 22, 
	 "gaussian": { 
		 "optdone": 1, 
		 "sigma_profile": "yes", 
		 "theory": "DFT", 
		 "functional": "B3LYP", 
		 "basiset": "6-31G**", 
		 "properties": { 
			 "R2extent": 5120.6314, 
			 "electric_dipole_moment_norm": 1.58935520888, 
			 "electric_quadrupole_moment_norm": 10.939422615, 
			 "total_energy": -3183.3265957, 
			 "HOMO_LUMO_gap": 0.18095, 
			 "cosmo_polarized_energy": -5.88, 
			 "cosmo_cavitation_energy": 28.6, 
			 "cosmo_dispersion_energy": -22.01, 
			 "cosmo_repulsion_energy": 1.69, 
			 "cosmo_total_nonelectrostatic_energy": 8.28, 
			 "SMD_solvation_energy": 4.21 
		},
		"coords": [
			{
				"x": -0.6693491981,
				"y": 4.1387559002,
				"z": 1.12187433,
				"element": "Br" 
			},
			{
				"x": -0.8607620953,
				"y": 2.7670965543,
				"z": -0.1834429933,
				"element": "C" 
			},
			{
				"x": -1.5020307268,
				"y": 3.0452546445,
				"z": -1.3923917833,
				"element": "C" 
			},
			{
				"x": -1.6391427961,
				"y": 2.0378644464,
				"z": -2.3441166392,
				"element": "C" 
			},
			{
				"x": -1.1402411827,
				"y": 0.7582068527,
				"z": -2.0944901699,
				"element": "C" 
			},
			{
				"x": -0.5036408998,
				"y": 0.4914728256,
				"z": -0.8882195921,
				"element": "C" 
			},
			{
				"x": -0.3564052648,
				"y": 1.4934350597,
				"z": 0.0819840708,
				"element": "C" 
			},
			{
				"x": 0.2682932861,
				"y": 1.2560656709,
				"z": 1.2813191623,
				"element": "O" 
			},
			{
				"x": 0.74742307,
				"y": -0.023899014,
				"z": 1.4875799041,
				"element": "C" 
			},
			{
				"x": 0.6033003706,
				"y": -1.026082426,
				"z": 0.5238378364,
				"element": "C" 
			},
			{
				"x": -0.0257184434,
				"y": -0.78461431,
				"z": -0.6820982825,
				"element": "O" 
			},
			{
				"x": 1.0974124226,
				"y": -2.3028411792,
				"z": 0.7647884328,
				"element": "C" 
			},
			{
				"x": 1.7389133166,
				"y": -2.5805383029,
				"z": 1.9746364518,
				"element": "C" 
			},
			{
				"x": 1.8824141475,
				"y": -1.5800270336,
				"z": 2.9360429542,
				"element": "C" 
			},
			{
				"x": 1.3850630004,
				"y": -0.2973654343,
				"z": 2.6918310693,
				"element": "C" 
			},
			{
				"x": -1.8845636861,
				"y": 4.042511407,
				"z": -1.573507466,
				"element": "H" 
			},
			{
				"x": -2.1365967245,
				"y": 2.2490591666,
				"z": -3.2849687713,
				"element": "H" 
			},
			{
				"x": -1.2335022304,
				"y": -0.0441752755,
				"z": -2.8181291345,
				"element": "H" 
			},
			{
				"x": 0.9707741598,
				"y": -3.0601033662,
				"z": -0.0018339785,
				"element": "H" 
			},
			{
				"x": 2.123478559,
				"y": -3.5783416035,
				"z": 2.1595693064,
				"element": "H" 
			},
			{
				"x": 2.3798206818,
				"y": -1.7906827001,
				"z": 3.8772319245,
				"element": "H" 
			},
			{
				"x": 1.4808602334,
				"y": 0.5019481174,
				"z": 3.4191033681,
				"element": "H" 
			}
		],
		 "valence_orbital": [ 
			{
				"type": "occ",
				"energy": -0.28593,
				"method": "rhf"
			},
			{
				"type": "occ",
				"energy": -0.2706,
				"method": "rhf"
			},
			{
				"type": "occ",
				"energy": -0.26034,
				"method": "rhf"
			},
			{
				"type": "occ",
				"energy": -0.23699,
				"method": "rhf"
			},
			{
				"type": "occ",
				"energy": -0.20439,
				"method": "rhf"
			},
			{
				"type": "unocc",
				"energy": -0.02344,
				"method": "rhf"
			},
			{
				"type": "unocc",
				"energy": -0.01557,
				"method": "rhf"
			},
			{
				"type": "unocc",
				"energy": -0.00922,
				"method": "rhf"
			},
			{
				"type": "unocc",
				"energy": 0.00256,
				"method": "rhf"
			},
			{
				"type": "unocc",
				"energy": 0.02127,
				"method": "rhf"
			}
		],
		"cosmo_sigma_profile": { 
			"-0.025": 0.0,
			"-0.024": 0.0,
			"-0.023": 0.0,
			"-0.022": 0.0,
			"-0.021": 0.0,
			"-0.02": 0.0,
			"-0.019": 0.0,
			"-0.018": 0.0,
			"-0.017": 0.0,
			"-0.016": 0.0,
			"-0.015": 0.0,
			"-0.014": 0.0,
			"-0.013": 0.0,
			"-0.012": 0.0,
			"-0.011": 0.0,
			"-0.01": 0.0,
			"-0.009": 0.0,
			"-0.008": 0.667772296613,
			"-0.007": 8.59398687124,
			"-0.006": 12.9074939401,
			"-0.005": 15.5817166781,
			"-0.004": 15.7430965901,
			"-0.003": 13.9321990356,
			"-0.002": 13.5974321191,
			"-0.001": 14.4868178421,
			"0.0": 16.3514125314,
			"0.001": 25.5847922636,
			"0.002": 28.8230628756,
			"0.003": 26.1282762525,
			"0.004": 22.6830902548,
			"0.005": 9.87454168033,
			"0.006": 3.82533984568,
			"0.007": 4.03442964409,
			"0.008": 1.59135094294,
			"0.009": 0.208540398181,
			"0.01": 0.0,
			"0.011": 0.0,
			"0.012": 0.0,
			"0.013": 0.0,
			"0.014": 0.0,
			"0.015": 0.0,
			"0.016": 0.0,
			"0.017": 0.0,
			"0.018": 0.0,
			"0.019": 0.0,
			"0.02": 0.0,
			"0.021": 0.0,
			"0.022": 0.0,
			"0.023": 0.0,
			"0.024": 0.0,
			"0.025": 0.0
		}
	}
}
