{
	 "smiles": "CC(C)NCC1=NC2=C(C=CC=C2)C(=O)N1", 
	 "Tm": 419.15, 
	 "num_atms": 31, 
	 "gaussian": { 
		 "optdone": 1, 
		 "sigma_profile": "yes", 
		 "theory": "DFT", 
		 "functional": "B3LYP", 
		 "basiset": "6-31G**", 
		 "properties": { 
			 "R2extent": 4696.5422, 
			 "electric_dipole_moment_norm": 1.6709009456, 
			 "electric_quadrupole_moment_norm": 15.2196776106, 
			 "total_energy": -705.830877794, 
			 "HOMO_LUMO_gap": 0.17996, 
			 "cosmo_polarized_energy": -14.12, 
			 "cosmo_cavitation_energy": 33.6, 
			 "cosmo_dispersion_energy": -24.04, 
			 "cosmo_repulsion_energy": 1.87, 
			 "cosmo_total_nonelectrostatic_energy": 11.43, 
			 "SMD_solvation_energy": 3.17 
		},
		"coords": [
			{
				"x": -2.8863111324,
				"y": -0.7345335351,
				"z": 0.0013528027,
				"element": "C" 
			},
			{
				"x": -2.4813525217,
				"y": -2.1170643023,
				"z": 0.546204673,
				"element": "C" 
			},
			{
				"x": -3.4778745582,
				"y": -2.6209982447,
				"z": 1.5982842214,
				"element": "C" 
			},
			{
				"x": -1.0982470805,
				"y": -2.2228190679,
				"z": 1.055851397,
				"element": "N" 
			},
			{
				"x": -0.6848379961,
				"y": -1.2638056243,
				"z": 2.0620946471,
				"element": "C" 
			},
			{
				"x": 0.0307737547,
				"y": -0.0277555749,
				"z": 1.5307002585,
				"element": "C" 
			},
			{
				"x": 0.4778653434,
				"y": -0.0014927365,
				"z": 0.3174194182,
				"element": "N" 
			},
			{
				"x": 1.1824025177,
				"y": 1.1267437687,
				"z": -0.0903899897,
				"element": "C" 
			},
			{
				"x": 1.4285148831,
				"y": 2.2243623583,
				"z": 0.7697646766,
				"element": "C" 
			},
			{
				"x": 2.1460934582,
				"y": 3.3411472279,
				"z": 0.3145177281,
				"element": "C" 
			},
			{
				"x": 2.6209702887,
				"y": 3.3746793673,
				"z": -0.9878316341,
				"element": "C" 
			},
			{
				"x": 2.3810358063,
				"y": 2.2880213211,
				"z": -1.8477426899,
				"element": "C" 
			},
			{
				"x": 1.672838041,
				"y": 1.1788633076,
				"z": -1.4093416597,
				"element": "C" 
			},
			{
				"x": 0.9231982047,
				"y": 2.1840637371,
				"z": 2.1465933081,
				"element": "C" 
			},
			{
				"x": 1.052804868,
				"y": 3.0491267552,
				"z": 3.0009976787,
				"element": "O" 
			},
			{
				"x": 0.2278881541,
				"y": 0.9969092433,
				"z": 2.4277518826,
				"element": "N" 
			},
			{
				"x": -3.888704186,
				"y": -0.773326364,
				"z": -0.439513007,
				"element": "H" 
			},
			{
				"x": -2.9115508124,
				"y": 0.0211586718,
				"z": 0.7957878483,
				"element": "H" 
			},
			{
				"x": -2.1849567417,
				"y": -0.3924440858,
				"z": -0.7644903215,
				"element": "H" 
			},
			{
				"x": -2.5137580764,
				"y": -2.8241457249,
				"z": -0.2927549986,
				"element": "H" 
			},
			{
				"x": -3.5305382545,
				"y": -1.9506482428,
				"z": 2.4646361823,
				"element": "H" 
			},
			{
				"x": -4.4865091449,
				"y": -2.6794168589,
				"z": 1.1764214096,
				"element": "H" 
			},
			{
				"x": -3.1873337415,
				"y": -3.6129179432,
				"z": 1.9546054199,
				"element": "H" 
			},
			{
				"x": -0.4469896094,
				"y": -2.1492123889,
				"z": 0.2778660173,
				"element": "H" 
			},
			{
				"x": 0.0111758132,
				"y": -1.742573066,
				"z": 2.7708052013,
				"element": "H" 
			},
			{
				"x": -1.5449296208,
				"y": -0.9469076669,
				"z": 2.6635770982,
				"element": "H" 
			},
			{
				"x": 2.3122166511,
				"y": 4.1610669131,
				"z": 1.0055813446,
				"element": "H" 
			},
			{
				"x": 3.1767644216,
				"y": 4.2363317927,
				"z": -1.3445718088,
				"element": "H" 
			},
			{
				"x": 2.7546991245,
				"y": 2.3170432671,
				"z": -2.8674322649,
				"element": "H" 
			},
			{
				"x": 1.4807151861,
				"y": 0.3328922595,
				"z": -2.0610757157,
				"element": "H" 
			},
			{
				"x": -0.1417630397,
				"y": 0.9309514363,
				"z": 3.3693308763,
				"element": "H" 
			}
		],
		 "valence_orbital": [ 
			{
				"type": "occ",
				"energy": -0.28063,
				"method": "rhf"
			},
			{
				"type": "occ",
				"energy": -0.26624,
				"method": "rhf"
			},
			{
				"type": "occ",
				"energy": -0.26192,
				"method": "rhf"
			},
			{
				"type": "occ",
				"energy": -0.23187,
				"method": "rhf"
			},
			{
				"type": "occ",
				"energy": -0.22268,
				"method": "rhf"
			},
			{
				"type": "unocc",
				"energy": -0.04272,
				"method": "rhf"
			},
			{
				"type": "unocc",
				"energy": -0.03547,
				"method": "rhf"
			},
			{
				"type": "unocc",
				"energy": 0.02654,
				"method": "rhf"
			},
			{
				"type": "unocc",
				"energy": 0.06749,
				"method": "rhf"
			},
			{
				"type": "unocc",
				"energy": 0.07212,
				"method": "rhf"
			}
		],
		"cosmo_sigma_profile": { 
			"-0.025": 0.0,
			"-0.024": 0.0,
			"-0.023": 0.0,
			"-0.022": 0.0,
			"-0.021": 0.0,
			"-0.02": 0.0,
			"-0.019": 0.0,
			"-0.018": 0.0,
			"-0.017": 0.0403243909793,
			"-0.016": 0.836860533747,
			"-0.015": 1.27989837564,
			"-0.014": 1.0881668116,
			"-0.013": 1.31724607368,
			"-0.012": 1.12004894186,
			"-0.011": 1.2419806022,
			"-0.01": 1.58185187312,
			"-0.009": 1.15531552263,
			"-0.008": 1.10711664384,
			"-0.007": 3.90467327402,
			"-0.006": 12.9298146767,
			"-0.005": 14.6814323748,
			"-0.004": 16.4531261993,
			"-0.003": 19.7543815871,
			"-0.002": 26.5144033405,
			"-0.001": 23.1565393353,
			"0.0": 23.2343453634,
			"0.001": 26.0037566301,
			"0.002": 21.4958217788,
			"0.003": 18.0644939595,
			"0.004": 13.335872084,
			"0.005": 4.71726720432,
			"0.006": 3.56448773434,
			"0.007": 3.90266984307,
			"0.008": 2.49112539975,
			"0.009": 3.02026561618,
			"0.01": 2.34355119664,
			"0.011": 1.98366927133,
			"0.012": 3.97919074425,
			"0.013": 6.18464776699,
			"0.014": 1.39415434446,
			"0.015": 0.367912325914,
			"0.016": 0.403225428465,
			"0.017": 0.41236748856,
			"0.018": 0.058673718019,
			"0.019": 0.0,
			"0.02": 0.0,
			"0.021": 0.0,
			"0.022": 0.0,
			"0.023": 0.0,
			"0.024": 0.0,
			"0.025": 0.0
		}
	}
}
