{
	 "smiles": "CC1=CC(=NN1C1=CC=CC=C1)C(O)=O", 
	 "Tm": 456.15, 
	 "num_atms": 25, 
	 "gaussian": { 
		 "optdone": 1, 
		 "sigma_profile": "yes", 
		 "theory": "DFT", 
		 "functional": "B3LYP", 
		 "basiset": "6-31G**", 
		 "properties": { 
			 "R2extent": 5649.0402, 
			 "electric_dipole_moment_norm": 4.36841026462, 
			 "electric_quadrupole_moment_norm": 18.281042932, 
			 "total_energy": -685.146997731, 
			 "HOMO_LUMO_gap": 0.20069, 
			 "cosmo_polarized_energy": -15.69, 
			 "cosmo_cavitation_energy": 29.94, 
			 "cosmo_dispersion_energy": -21.66, 
			 "cosmo_repulsion_energy": 1.7, 
			 "cosmo_total_nonelectrostatic_energy": 9.99, 
			 "SMD_solvation_energy": 5.72 
		},
		"coords": [
			{
				"x": -0.230700041,
				"y": 0.3712523534,
				"z": 1.9216831701,
				"element": "C" 
			},
			{
				"x": -1.156025818,
				"y": 1.0450211618,
				"z": 0.9571674369,
				"element": "C" 
			},
			{
				"x": -2.5346247877,
				"y": 1.0574425467,
				"z": 0.9271085136,
				"element": "C" 
			},
			{
				"x": -2.8784770326,
				"y": 1.90247291,
				"z": -0.1545971039,
				"element": "C" 
			},
			{
				"x": -1.7947302189,
				"y": 2.3879314021,
				"z": -0.7626276122,
				"element": "N" 
			},
			{
				"x": -0.7539496669,
				"y": 1.8554804641,
				"z": -0.0894317672,
				"element": "N" 
			},
			{
				"x": 0.5664781572,
				"y": 2.2319937336,
				"z": -0.4775742417,
				"element": "C" 
			},
			{
				"x": 0.8038394611,
				"y": 3.5595162344,
				"z": -0.8510065466,
				"element": "C" 
			},
			{
				"x": 2.0839548192,
				"y": 3.9432037614,
				"z": -1.2433746918,
				"element": "C" 
			},
			{
				"x": 3.1286041491,
				"y": 3.0153088408,
				"z": -1.2579361275,
				"element": "C" 
			},
			{
				"x": 2.8818579871,
				"y": 1.6916381122,
				"z": -0.8929642657,
				"element": "C" 
			},
			{
				"x": 1.6003939128,
				"y": 1.2916851107,
				"z": -0.5112644518,
				"element": "C" 
			},
			{
				"x": -4.2226118875,
				"y": 2.2766071661,
				"z": -0.6387032756,
				"element": "C" 
			},
			{
				"x": -5.1925928489,
				"y": 1.6662708832,
				"z": 0.0964724538,
				"element": "O" 
			},
			{
				"x": -4.4741478275,
				"y": 3.0229868508,
				"z": -1.5590947968,
				"element": "O" 
			},
			{
				"x": 0.1721954031,
				"y": -0.5697491337,
				"z": 1.5299013323,
				"element": "H" 
			},
			{
				"x": -0.7783701455,
				"y": 0.1359396377,
				"z": 2.8372619215,
				"element": "H" 
			},
			{
				"x": 0.6176648568,
				"y": 1.0096532399,
				"z": 2.1846562966,
				"element": "H" 
			},
			{
				"x": -3.2054789598,
				"y": 0.5432986598,
				"z": 1.5978352334,
				"element": "H" 
			},
			{
				"x": -0.0192018783,
				"y": 4.264105077,
				"z": -0.8387237077,
				"element": "H" 
			},
			{
				"x": 2.2660539898,
				"y": 4.9735459929,
				"z": -1.5338560207,
				"element": "H" 
			},
			{
				"x": 4.1259374382,
				"y": 3.320765193,
				"z": -1.5593927913,
				"element": "H" 
			},
			{
				"x": 3.682976918,
				"y": 0.9590441816,
				"z": -0.9193705959,
				"element": "H" 
			},
			{
				"x": 1.4029957652,
				"y": 0.253895832,
				"z": -0.2700086784,
				"element": "H" 
			},
			{
				"x": -6.0339417451,
				"y": 1.9667897883,
				"z": -0.2843596836,
				"element": "H" 
			}
		],
		 "valence_orbital": [ 
			{
				"type": "occ",
				"energy": -0.28865,
				"method": "rhf"
			},
			{
				"type": "occ",
				"energy": -0.26686,
				"method": "rhf"
			},
			{
				"type": "occ",
				"energy": -0.26326,
				"method": "rhf"
			},
			{
				"type": "occ",
				"energy": -0.24797,
				"method": "rhf"
			},
			{
				"type": "occ",
				"energy": -0.23851,
				"method": "rhf"
			},
			{
				"type": "unocc",
				"energy": -0.03782,
				"method": "rhf"
			},
			{
				"type": "unocc",
				"energy": -0.01415,
				"method": "rhf"
			},
			{
				"type": "unocc",
				"energy": -0.00644,
				"method": "rhf"
			},
			{
				"type": "unocc",
				"energy": 0.03169,
				"method": "rhf"
			},
			{
				"type": "unocc",
				"energy": 0.07827,
				"method": "rhf"
			}
		],
		"cosmo_sigma_profile": { 
			"-0.025": 0.0,
			"-0.024": 0.0,
			"-0.023": 0.0,
			"-0.022": 0.0,
			"-0.021": 0.0,
			"-0.02": 0.0,
			"-0.019": 0.119483049071,
			"-0.018": 0.807975097294,
			"-0.017": 0.463930242603,
			"-0.016": 1.36493978778,
			"-0.015": 0.493954349138,
			"-0.014": 0.782075595577,
			"-0.013": 0.758481012426,
			"-0.012": 0.529584707931,
			"-0.011": 0.962920963919,
			"-0.01": 0.619885822924,
			"-0.009": 0.274616016286,
			"-0.008": 1.83333977671,
			"-0.007": 6.43908963768,
			"-0.006": 14.733311406,
			"-0.005": 19.666469878,
			"-0.004": 17.5319594151,
			"-0.003": 15.9349149988,
			"-0.002": 21.3075810349,
			"-0.001": 17.2755492626,
			"0.0": 12.9364244439,
			"0.001": 15.1467123758,
			"0.002": 16.4906632273,
			"0.003": 17.0634228152,
			"0.004": 16.2188031546,
			"0.005": 7.63825061009,
			"0.006": 3.28361833484,
			"0.007": 4.17709206937,
			"0.008": 3.75075580932,
			"0.009": 2.96697922503,
			"0.01": 2.75458823213,
			"0.011": 4.27254111556,
			"0.012": 5.6280153422,
			"0.013": 2.55349714525,
			"0.014": 1.97855982061,
			"0.015": 0.827036325153,
			"0.016": 0.0153934889071,
			"0.017": 0.0,
			"0.018": 0.0,
			"0.019": 0.0,
			"0.02": 0.0,
			"0.021": 0.0,
			"0.022": 0.0,
			"0.023": 0.0,
			"0.024": 0.0,
			"0.025": 0.0
		}
	}
}
