{
	 "smiles": "COC(=O)CC(NC(=S)NC12CC3CC(CC(C3)C1)C2)C(=O)OC", 
	 "Tm": 391.15, 
	 "num_atms": 50, 
	 "gaussian": { 
		 "optdone": 1, 
		 "sigma_profile": "yes", 
		 "theory": "DFT", 
		 "functional": "B3LYP", 
		 "basiset": "6-31G**", 
		 "properties": { 
			 "R2extent": 11301.8269, 
			 "electric_dipole_moment_norm": 6.44045435121, 
			 "electric_quadrupole_moment_norm": 15.7451202949, 
			 "total_energy": -1472.12259129, 
			 "HOMO_LUMO_gap": 0.20121, 
			 "cosmo_polarized_energy": -22.78, 
			 "cosmo_cavitation_energy": 49.84, 
			 "cosmo_dispersion_energy": -34.24, 
			 "cosmo_repulsion_energy": 2.62, 
			 "cosmo_total_nonelectrostatic_energy": 18.21, 
			 "SMD_solvation_energy": 8.69 
		},
		"coords": [
			{
				"x": 2.9848892308,
				"y": 1.1554803276,
				"z": -3.9597127375,
				"element": "C" 
			},
			{
				"x": 1.6492318018,
				"y": 0.7531212717,
				"z": -3.6020916104,
				"element": "O" 
			},
			{
				"x": 0.6549505299,
				"y": 1.514463474,
				"z": -4.1382807399,
				"element": "C" 
			},
			{
				"x": 0.8720989923,
				"y": 2.4824705154,
				"z": -4.8282987949,
				"element": "O" 
			},
			{
				"x": -0.7321550124,
				"y": 1.0153307466,
				"z": -3.7755797604,
				"element": "C" 
			},
			{
				"x": -0.8176273707,
				"y": -0.2508658206,
				"z": -2.9109537581,
				"element": "C" 
			},
			{
				"x": -0.2193750229,
				"y": -0.0873005079,
				"z": -1.6050178531,
				"element": "N" 
			},
			{
				"x": -0.8733461146,
				"y": -0.280500686,
				"z": -0.4147878138,
				"element": "C" 
			},
			{
				"x": -2.545213627,
				"y": -0.5297150281,
				"z": -0.3421401963,
				"element": "S" 
			},
			{
				"x": -0.0394427097,
				"y": -0.2226589162,
				"z": 0.6565306993,
				"element": "N" 
			},
			{
				"x": -0.3165026886,
				"y": -0.3116451791,
				"z": 2.1074916543,
				"element": "C" 
			},
			{
				"x": -1.2512282259,
				"y": 0.8214242142,
				"z": 2.593758992,
				"element": "C" 
			},
			{
				"x": -1.4237343647,
				"y": 0.7350873452,
				"z": 4.125378876,
				"element": "C" 
			},
			{
				"x": -0.0528537806,
				"y": 0.9010796777,
				"z": 4.811332098,
				"element": "C" 
			},
			{
				"x": 0.8927695643,
				"y": -0.2222970375,
				"z": 4.3394764569,
				"element": "C" 
			},
			{
				"x": 0.295703298,
				"y": -1.591764978,
				"z": 4.7225162177,
				"element": "C" 
			},
			{
				"x": -1.0748914026,
				"y": -1.7604029294,
				"z": 4.0363842793,
				"element": "C" 
			},
			{
				"x": -2.0248652386,
				"y": -0.6359833917,
				"z": 4.4993931496,
				"element": "C" 
			},
			{
				"x": -0.9007293306,
				"y": -1.6883688522,
				"z": 2.5042025432,
				"element": "C" 
			},
			{
				"x": 1.054207485,
				"y": -0.1451895987,
				"z": 2.8078630638,
				"element": "C" 
			},
			{
				"x": -0.2953988821,
				"y": -1.4661836404,
				"z": -3.6821153128,
				"element": "C" 
			},
			{
				"x": -0.4347582686,
				"y": -1.602471596,
				"z": -4.8790564708,
				"element": "O" 
			},
			{
				"x": 0.2854901439,
				"y": -2.3791967307,
				"z": -2.883342235,
				"element": "O" 
			},
			{
				"x": 0.7166077623,
				"y": -3.5810015658,
				"z": -3.5459814892,
				"element": "C" 
			},
			{
				"x": 3.6492009838,
				"y": 0.4400078978,
				"z": -3.4751291231,
				"element": "H" 
			},
			{
				"x": 3.1860258951,
				"y": 2.1701771178,
				"z": -3.608179608,
				"element": "H" 
			},
			{
				"x": 3.1127275685,
				"y": 1.1253243465,
				"z": -5.0437932332,
				"element": "H" 
			},
			{
				"x": -1.2512545549,
				"y": 1.8354914074,
				"z": -3.270163815,
				"element": "H" 
			},
			{
				"x": -1.2518384356,
				"y": 0.8403995337,
				"z": -4.7215911088,
				"element": "H" 
			},
			{
				"x": -1.880858418,
				"y": -0.4507908231,
				"z": -2.7174843651,
				"element": "H" 
			},
			{
				"x": 0.7900237946,
				"y": -0.0265884318,
				"z": -1.6064407769,
				"element": "H" 
			},
			{
				"x": 0.9379757747,
				"y": -0.0704463587,
				"z": 0.4418978969,
				"element": "H" 
			},
			{
				"x": -2.2171694816,
				"y": 0.7377915499,
				"z": 2.0901955403,
				"element": "H" 
			},
			{
				"x": -0.8172205322,
				"y": 1.7895778776,
				"z": 2.3115803544,
				"element": "H" 
			},
			{
				"x": -2.0990527268,
				"y": 1.5354694129,
				"z": 4.4520443182,
				"element": "H" 
			},
			{
				"x": 0.3749350382,
				"y": 1.8831224032,
				"z": 4.5700442095,
				"element": "H" 
			},
			{
				"x": -0.1648630694,
				"y": 0.8610574244,
				"z": 5.9025100918,
				"element": "H" 
			},
			{
				"x": 1.877953093,
				"y": -0.1012421559,
				"z": 4.8069840983,
				"element": "H" 
			},
			{
				"x": 0.1875688113,
				"y": -1.6602201872,
				"z": 5.8126676843,
				"element": "H" 
			},
			{
				"x": 0.9738469878,
				"y": -2.399706959,
				"z": 4.4174702965,
				"element": "H" 
			},
			{
				"x": -1.5018679787,
				"y": -2.7359908778,
				"z": 4.2997193522,
				"element": "H" 
			},
			{
				"x": -3.0081701957,
				"y": -0.7565968716,
				"z": 4.0284303228,
				"element": "H" 
			},
			{
				"x": -2.1782733992,
				"y": -0.695984823,
				"z": 5.5848412348,
				"element": "H" 
			},
			{
				"x": -1.8574984521,
				"y": -1.8366656282,
				"z": 1.9980118224,
				"element": "H" 
			},
			{
				"x": -0.2213326092,
				"y": -2.4781232412,
				"z": 2.1579815607,
				"element": "H" 
			},
			{
				"x": 1.7390618392,
				"y": -0.9326327913,
				"z": 2.4621055095,
				"element": "H" 
			},
			{
				"x": 1.4942010549,
				"y": 0.8217753618,
				"z": 2.5248958512,
				"element": "H" 
			},
			{
				"x": -0.1326385835,
				"y": -4.0856476345,
				"z": -4.0125747231,
				"element": "H" 
			},
			{
				"x": 1.4565197795,
				"y": -3.350429438,
				"z": -4.3163961847,
				"element": "H" 
			},
			{
				"x": 1.1524710477,
				"y": -4.2057392256,
				"z": -2.7666964639,
				"element": "H" 
			}
		],
		 "valence_orbital": [ 
			{
				"type": "occ",
				"energy": -0.28274,
				"method": "rhf"
			},
			{
				"type": "occ",
				"energy": -0.27919,
				"method": "rhf"
			},
			{
				"type": "occ",
				"energy": -0.24544,
				"method": "rhf"
			},
			{
				"type": "occ",
				"energy": -0.21097,
				"method": "rhf"
			},
			{
				"type": "occ",
				"energy": -0.20087,
				"method": "rhf"
			},
			{
				"type": "unocc",
				"energy": 0.00034,
				"method": "rhf"
			},
			{
				"type": "unocc",
				"energy": 0.00578,
				"method": "rhf"
			},
			{
				"type": "unocc",
				"energy": 0.00972,
				"method": "rhf"
			},
			{
				"type": "unocc",
				"energy": 0.05255,
				"method": "rhf"
			},
			{
				"type": "unocc",
				"energy": 0.06581,
				"method": "rhf"
			}
		],
		"cosmo_sigma_profile": { 
			"-0.025": 0.0,
			"-0.024": 0.0,
			"-0.023": 0.0,
			"-0.022": 0.0,
			"-0.021": 0.0,
			"-0.02": 0.0,
			"-0.019": 0.0,
			"-0.018": 0.230660147009,
			"-0.017": 1.03845627101,
			"-0.016": 0.979115382113,
			"-0.015": 1.24123617514,
			"-0.014": 0.453638236569,
			"-0.013": 1.27629511772,
			"-0.012": 0.845272507469,
			"-0.011": 1.18485329498,
			"-0.01": 1.2446038784,
			"-0.009": 1.15053490709,
			"-0.008": 1.06478243507,
			"-0.007": 6.08531888205,
			"-0.006": 17.7704616353,
			"-0.005": 21.4151587486,
			"-0.004": 26.6120366356,
			"-0.003": 32.2860529311,
			"-0.002": 48.1562927453,
			"-0.001": 43.5187494972,
			"0.0": 44.4070201609,
			"0.001": 30.9887341387,
			"0.002": 17.1368303206,
			"0.003": 9.62673125064,
			"0.004": 9.46141146082,
			"0.005": 10.1131325431,
			"0.006": 9.13087552236,
			"0.007": 8.35894048497,
			"0.008": 8.70686254512,
			"0.009": 8.32825913851,
			"0.01": 8.55181888584,
			"0.011": 11.1207820436,
			"0.012": 6.81016838535,
			"0.013": 0.492094035859,
			"0.014": 0.0,
			"0.015": 0.0,
			"0.016": 0.0,
			"0.017": 0.0,
			"0.018": 0.0,
			"0.019": 0.0,
			"0.02": 0.0,
			"0.021": 0.0,
			"0.022": 0.0,
			"0.023": 0.0,
			"0.024": 0.0,
			"0.025": 0.0
		}
	}
}
