{
	 "smiles": "CCOC1=C(OCC)C=C2C(CC#N)NCCC2=C1", 
	 "Tm": 373.15, 
	 "num_atms": 39, 
	 "gaussian": { 
		 "optdone": 1, 
		 "sigma_profile": "yes", 
		 "theory": "DFT", 
		 "functional": "B3LYP", 
		 "basiset": "6-31G**", 
		 "properties": { 
			 "R2extent": 6329.1455, 
			 "electric_dipole_moment_norm": 4.24726158719, 
			 "electric_quadrupole_moment_norm": 19.834910872, 
			 "total_energy": -843.568015923, 
			 "HOMO_LUMO_gap": 0.21761, 
			 "cosmo_polarized_energy": -14.91, 
			 "cosmo_cavitation_energy": 41.25, 
			 "cosmo_dispersion_energy": -27.93, 
			 "cosmo_repulsion_energy": 2.2, 
			 "cosmo_total_nonelectrostatic_energy": 15.53, 
			 "SMD_solvation_energy": 6.09 
		},
		"coords": [
			{
				"x": 2.5784321682,
				"y": 3.9564800455,
				"z": -0.8840655559,
				"element": "C" 
			},
			{
				"x": 2.1735422269,
				"y": 2.6068501386,
				"z": -0.3202367779,
				"element": "C" 
			},
			{
				"x": 1.3722486432,
				"y": 1.938589068,
				"z": -1.3158904093,
				"element": "O" 
			},
			{
				"x": 0.9163482495,
				"y": 0.6901781125,
				"z": -0.9605494226,
				"element": "C" 
			},
			{
				"x": -0.0741605247,
				"y": 0.5140522227,
				"z": 0.0237020487,
				"element": "C" 
			},
			{
				"x": -0.5887743611,
				"y": 1.5815390895,
				"z": 0.7242933096,
				"element": "O" 
			},
			{
				"x": -1.4813316467,
				"y": 2.4293495596,
				"z": -0.024970723,
				"element": "C" 
			},
			{
				"x": -1.9604506698,
				"y": 3.5307050146,
				"z": 0.9028113244,
				"element": "C" 
			},
			{
				"x": -0.5129763266,
				"y": -0.7718515474,
				"z": 0.3299226744,
				"element": "C" 
			},
			{
				"x": -0.0112407636,
				"y": -1.9014406661,
				"z": -0.3343753818,
				"element": "C" 
			},
			{
				"x": -0.4854916789,
				"y": -3.3135172239,
				"z": 0.0359177252,
				"element": "C" 
			},
			{
				"x": -2.0231121583,
				"y": -3.4464560076,
				"z": 0.2117888498,
				"element": "C" 
			},
			{
				"x": -2.5550565933,
				"y": -2.9460989988,
				"z": 1.4791097237,
				"element": "C" 
			},
			{
				"x": -2.983179983,
				"y": -2.5688760714,
				"z": 2.4903457022,
				"element": "N" 
			},
			{
				"x": -0.0958443271,
				"y": -4.3523157754,
				"z": -0.926980305,
				"element": "N" 
			},
			{
				"x": 1.3057750946,
				"y": -4.2234815976,
				"z": -1.332396028,
				"element": "C" 
			},
			{
				"x": 1.5762678117,
				"y": -2.9042559782,
				"z": -2.0635805619,
				"element": "C" 
			},
			{
				"x": 0.9771570188,
				"y": -1.7238715039,
				"z": -1.321357929,
				"element": "C" 
			},
			{
				"x": 1.4230003993,
				"y": -0.4289289084,
				"z": -1.6148086347,
				"element": "C" 
			},
			{
				"x": 3.2084789175,
				"y": 4.4903426355,
				"z": -0.1656161352,
				"element": "H" 
			},
			{
				"x": 3.1398189242,
				"y": 3.83485646,
				"z": -1.8150021292,
				"element": "H" 
			},
			{
				"x": 1.6973812087,
				"y": 4.5705035722,
				"z": -1.0929015466,
				"element": "H" 
			},
			{
				"x": 3.0576519352,
				"y": 1.9911183234,
				"z": -0.1032229884,
				"element": "H" 
			},
			{
				"x": 1.5969683569,
				"y": 2.7156513098,
				"z": 0.604722661,
				"element": "H" 
			},
			{
				"x": -2.3264340898,
				"y": 1.8267995873,
				"z": -0.3863383912,
				"element": "H" 
			},
			{
				"x": -0.9561733866,
				"y": 2.8388616616,
				"z": -0.8957656986,
				"element": "H" 
			},
			{
				"x": -2.6604487944,
				"y": 4.1876567763,
				"z": 0.3768572394,
				"element": "H" 
			},
			{
				"x": -1.1195960638,
				"y": 4.1349210666,
				"z": 1.2561656648,
				"element": "H" 
			},
			{
				"x": -2.4684893736,
				"y": 3.1070786667,
				"z": 1.7737438321,
				"element": "H" 
			},
			{
				"x": -1.2581141186,
				"y": -0.8610850355,
				"z": 1.1132629657,
				"element": "H" 
			},
			{
				"x": -0.0236729107,
				"y": -3.590801416,
				"z": 0.9945464811,
				"element": "H" 
			},
			{
				"x": -2.2587097414,
				"y": -4.5151248292,
				"z": 0.1513054999,
				"element": "H" 
			},
			{
				"x": -2.5437277758,
				"y": -2.9432508786,
				"z": -0.6118830383,
				"element": "H" 
			},
			{
				"x": -0.6780540154,
				"y": -4.2600331313,
				"z": -1.7602368823,
				"element": "H" 
			},
			{
				"x": 1.5708762686,
				"y": -5.0802861441,
				"z": -1.9609704982,
				"element": "H" 
			},
			{
				"x": 1.9207036029,
				"y": -4.2887082315,
				"z": -0.4260383088,
				"element": "H" 
			},
			{
				"x": 2.6536118079,
				"y": -2.7509212234,
				"z": -2.2032264363,
				"element": "H" 
			},
			{
				"x": 1.1465775998,
				"y": -2.9620623207,
				"z": -3.07515647,
				"element": "H" 
			},
			{
				"x": 2.190299069,
				"y": -0.2713658214,
				"z": -2.36822545,
				"element": "H" 
			}
		],
		 "valence_orbital": [ 
			{
				"type": "occ",
				"energy": -0.29101,
				"method": "rhf"
			},
			{
				"type": "occ",
				"energy": -0.25979,
				"method": "rhf"
			},
			{
				"type": "occ",
				"energy": -0.24161,
				"method": "rhf"
			},
			{
				"type": "occ",
				"energy": -0.23615,
				"method": "rhf"
			},
			{
				"type": "occ",
				"energy": -0.22451,
				"method": "rhf"
			},
			{
				"type": "unocc",
				"energy": -0.0069,
				"method": "rhf"
			},
			{
				"type": "unocc",
				"energy": -0.00073,
				"method": "rhf"
			},
			{
				"type": "unocc",
				"energy": 0.03297,
				"method": "rhf"
			},
			{
				"type": "unocc",
				"energy": 0.04058,
				"method": "rhf"
			},
			{
				"type": "unocc",
				"energy": 0.08183,
				"method": "rhf"
			}
		],
		"cosmo_sigma_profile": { 
			"-0.025": 0.0,
			"-0.024": 0.0,
			"-0.023": 0.0,
			"-0.022": 0.0,
			"-0.021": 0.0,
			"-0.02": 0.0,
			"-0.019": 0.0,
			"-0.018": 0.0,
			"-0.017": 0.0,
			"-0.016": 0.0,
			"-0.015": 0.0,
			"-0.014": 0.0,
			"-0.013": 0.0,
			"-0.012": 0.0,
			"-0.011": 0.744235705369,
			"-0.01": 1.9494572472,
			"-0.009": 2.32640945973,
			"-0.008": 5.30338591657,
			"-0.007": 5.6666709019,
			"-0.006": 7.03044405057,
			"-0.005": 12.4157449065,
			"-0.004": 28.665739047,
			"-0.003": 40.5341213401,
			"-0.002": 39.3394439995,
			"-0.001": 38.0061251479,
			"0.0": 31.6593679774,
			"0.001": 19.802249422,
			"0.002": 11.4730483562,
			"0.003": 12.4038803329,
			"0.004": 14.0434482059,
			"0.005": 10.7986303703,
			"0.006": 5.93763914727,
			"0.007": 5.76851637214,
			"0.008": 5.31500707357,
			"0.009": 5.51894132102,
			"0.01": 4.99981333275,
			"0.011": 5.05274389024,
			"0.012": 4.83917614675,
			"0.013": 2.36837673247,
			"0.014": 1.13130979157,
			"0.015": 0.282415722329,
			"0.016": 0.456975219799,
			"0.017": 0.261066485138,
			"0.018": 0.0,
			"0.019": 0.0,
			"0.02": 0.0,
			"0.021": 0.0,
			"0.022": 0.0,
			"0.023": 0.0,
			"0.024": 0.0,
			"0.025": 0.0
		}
	}
}
