{
	 "smiles": "CC1=NC(C=O)=C2C=CC=CN12", 
	 "Tm": 389.15, 
	 "num_atms": 20, 
	 "gaussian": { 
		 "optdone": 1, 
		 "sigma_profile": "yes", 
		 "theory": "DFT", 
		 "functional": "B3LYP", 
		 "basiset": "6-31G**", 
		 "properties": { 
			 "R2extent": 2757.6589, 
			 "electric_dipole_moment_norm": 5.94902107325, 
			 "electric_quadrupole_moment_norm": 13.9480903657, 
			 "total_energy": -532.501266937, 
			 "HOMO_LUMO_gap": 0.15009, 
			 "cosmo_polarized_energy": -13.97, 
			 "cosmo_cavitation_energy": 24.39, 
			 "cosmo_dispersion_energy": -17.93, 
			 "cosmo_repulsion_energy": 1.4, 
			 "cosmo_total_nonelectrostatic_energy": 7.86, 
			 "SMD_solvation_energy": 3.82 
		},
		"coords": [
			{
				"x": 2.9751058278,
				"y": -0.4772146251,
				"z": 1.5602947622,
				"element": "C" 
			},
			{
				"x": 2.4793129027,
				"y": 0.0608478319,
				"z": 0.261242179,
				"element": "C" 
			},
			{
				"x": 3.2087212739,
				"y": 0.5893228335,
				"z": -0.6963085789,
				"element": "N" 
			},
			{
				"x": 2.3569195869,
				"y": 0.9535086181,
				"z": -1.710811222,
				"element": "C" 
			},
			{
				"x": 2.8147887305,
				"y": 1.573956041,
				"z": -2.9391602883,
				"element": "C" 
			},
			{
				"x": 2.0791578879,
				"y": 1.9085844374,
				"z": -3.8610713351,
				"element": "O" 
			},
			{
				"x": 1.0362944659,
				"y": 0.6350985258,
				"z": -1.3647178997,
				"element": "C" 
			},
			{
				"x": -0.2349852796,
				"y": 0.7591294556,
				"z": -1.9671375456,
				"element": "C" 
			},
			{
				"x": -1.3432161947,
				"y": 0.3133954278,
				"z": -1.2884221711,
				"element": "C" 
			},
			{
				"x": -1.2079537974,
				"y": -0.2671144398,
				"z": 0.0087217447,
				"element": "C" 
			},
			{
				"x": 0.0211078019,
				"y": -0.3867508447,
				"z": 0.5904553809,
				"element": "C" 
			},
			{
				"x": 1.1320183193,
				"y": 0.0602845617,
				"z": -0.0903810698,
				"element": "N" 
			},
			{
				"x": 2.5481507989,
				"y": 0.0573799075,
				"z": 2.4180616488,
				"element": "H" 
			},
			{
				"x": 4.0589031968,
				"y": -0.3588139611,
				"z": 1.5867031501,
				"element": "H" 
			},
			{
				"x": 2.7408281222,
				"y": -1.542182679,
				"z": 1.6819694645,
				"element": "H" 
			},
			{
				"x": 3.9131504449,
				"y": 1.7264624986,
				"z": -2.9844201526,
				"element": "H" 
			},
			{
				"x": -0.280977933,
				"y": 1.2068789043,
				"z": -2.9523362135,
				"element": "H" 
			},
			{
				"x": -2.3287216763,
				"y": 0.3996143723,
				"z": -1.7337545426,
				"element": "H" 
			},
			{
				"x": -2.0796076097,
				"y": -0.6202278493,
				"z": 0.5480454569,
				"element": "H" 
			},
			{
				"x": 0.1915031309,
				"y": -0.8165590167,
				"z": 1.5692272324,
				"element": "H" 
			}
		],
		 "valence_orbital": [ 
			{
				"type": "occ",
				"energy": -0.31422,
				"method": "rhf"
			},
			{
				"type": "occ",
				"energy": -0.28442,
				"method": "rhf"
			},
			{
				"type": "occ",
				"energy": -0.27577,
				"method": "rhf"
			},
			{
				"type": "occ",
				"energy": -0.23672,
				"method": "rhf"
			},
			{
				"type": "occ",
				"energy": -0.20721,
				"method": "rhf"
			},
			{
				"type": "unocc",
				"energy": -0.05712,
				"method": "rhf"
			},
			{
				"type": "unocc",
				"energy": -0.02778,
				"method": "rhf"
			},
			{
				"type": "unocc",
				"energy": 0.0088,
				"method": "rhf"
			},
			{
				"type": "unocc",
				"energy": 0.07468,
				"method": "rhf"
			},
			{
				"type": "unocc",
				"energy": 0.09007,
				"method": "rhf"
			}
		],
		"cosmo_sigma_profile": { 
			"-0.025": 0.0,
			"-0.024": 0.0,
			"-0.023": 0.0,
			"-0.022": 0.0,
			"-0.021": 0.0,
			"-0.02": 0.0,
			"-0.019": 0.0,
			"-0.018": 0.0,
			"-0.017": 0.0,
			"-0.016": 0.0,
			"-0.015": 0.0,
			"-0.014": 0.0,
			"-0.013": 0.0,
			"-0.012": 0.0,
			"-0.011": 0.0,
			"-0.01": 0.528782096514,
			"-0.009": 1.98273150051,
			"-0.008": 5.13049024498,
			"-0.007": 10.0357187104,
			"-0.006": 12.7451237609,
			"-0.005": 14.0690813057,
			"-0.004": 12.8382185746,
			"-0.003": 13.3530554675,
			"-0.002": 17.2392136843,
			"-0.001": 15.414812985,
			"0.0": 13.6692804871,
			"0.001": 16.0247723406,
			"0.002": 16.8824300501,
			"0.003": 7.44465286629,
			"0.004": 4.4343313046,
			"0.005": 4.20203333869,
			"0.006": 4.26008096459,
			"0.007": 2.09717860553,
			"0.008": 2.51348819151,
			"0.009": 3.04014140658,
			"0.01": 2.30893930813,
			"0.011": 3.99408956825,
			"0.012": 3.9596017859,
			"0.013": 3.86331266826,
			"0.014": 2.09834304359,
			"0.015": 0.914617095035,
			"0.016": 0.843731595617,
			"0.017": 0.0862007551145,
			"0.018": 0.0,
			"0.019": 0.0,
			"0.02": 0.0,
			"0.021": 0.0,
			"0.022": 0.0,
			"0.023": 0.0,
			"0.024": 0.0,
			"0.025": 0.0
		}
	}
}
