{
	 "smiles": "CCC(=CC1=CC=CC=C1)[N+]([O-])=O", 
	 "Tm": 363.65, 
	 "num_atms": 24, 
	 "gaussian": { 
		 "optdone": 1, 
		 "sigma_profile": "yes", 
		 "theory": "DFT", 
		 "functional": "B3LYP", 
		 "basiset": "6-31G**", 
		 "properties": { 
			 "R2extent": 3444.9807, 
			 "electric_dipole_moment_norm": 3.86084160514, 
			 "electric_quadrupole_moment_norm": 10.4012373745, 
			 "total_energy": -592.778798414, 
			 "HOMO_LUMO_gap": 0.15038, 
			 "cosmo_polarized_energy": -9.26, 
			 "cosmo_cavitation_energy": 28.07, 
			 "cosmo_dispersion_energy": -20.21, 
			 "cosmo_repulsion_energy": 1.61, 
			 "cosmo_total_nonelectrostatic_energy": 9.47, 
			 "SMD_solvation_energy": 6.9 
		},
		"coords": [
			{
				"x": 1.7855992035,
				"y": -1.4095064243,
				"z": 1.7419234674,
				"element": "C" 
			},
			{
				"x": 0.8363105786,
				"y": -0.199905551,
				"z": 1.7928886757,
				"element": "C" 
			},
			{
				"x": 0.6066787016,
				"y": 0.457253321,
				"z": 0.452996869,
				"element": "C" 
			},
			{
				"x": -0.5978381931,
				"y": 0.4934809993,
				"z": -0.1572797682,
				"element": "C" 
			},
			{
				"x": -1.1814162063,
				"y": 1.0981879333,
				"z": -1.3622538416,
				"element": "C" 
			},
			{
				"x": -2.4531600111,
				"y": 0.6139613664,
				"z": -1.7344543342,
				"element": "C" 
			},
			{
				"x": -3.1335428285,
				"y": 1.1263077867,
				"z": -2.8353524878,
				"element": "C" 
			},
			{
				"x": -2.567399758,
				"y": 2.1621865427,
				"z": -3.5790601595,
				"element": "C" 
			},
			{
				"x": -1.3195576392,
				"y": 2.6722742947,
				"z": -3.21062018,
				"element": "C" 
			},
			{
				"x": -0.628434616,
				"y": 2.1477553331,
				"z": -2.1224074982,
				"element": "C" 
			},
			{
				"x": 1.8205146144,
				"y": 1.0624655997,
				"z": -0.1158988372,
				"element": "N" 
			},
			{
				"x": 1.9485745683,
				"y": 1.1152839157,
				"z": -1.3396999398,
				"element": "O" 
			},
			{
				"x": 2.6720836574,
				"y": 1.4547919715,
				"z": 0.685920267,
				"element": "O" 
			},
			{
				"x": 2.7797557936,
				"y": -1.1139947751,
				"z": 1.396626534,
				"element": "H" 
			},
			{
				"x": 1.4024518759,
				"y": -2.1853699675,
				"z": 1.0717093384,
				"element": "H" 
			},
			{
				"x": 1.8948675856,
				"y": -1.8447013602,
				"z": 2.7399023168,
				"element": "H" 
			},
			{
				"x": -0.1383483806,
				"y": -0.5099520242,
				"z": 2.1817307504,
				"element": "H" 
			},
			{
				"x": 1.2380960927,
				"y": 0.5456760102,
				"z": 2.4862344837,
				"element": "H" 
			},
			{
				"x": -1.3468973747,
				"y": -0.0503231459,
				"z": 0.4167627561,
				"element": "H" 
			},
			{
				"x": -2.9077036085,
				"y": -0.1809493807,
				"z": -1.1484738903,
				"element": "H" 
			},
			{
				"x": -4.1059021818,
				"y": 0.7247267031,
				"z": -3.1046648113,
				"element": "H" 
			},
			{
				"x": -3.0945281411,
				"y": 2.5728215762,
				"z": -4.4353082066,
				"element": "H" 
			},
			{
				"x": -0.8763058438,
				"y": 3.4844934187,
				"z": -3.7791810854,
				"element": "H" 
			},
			{
				"x": 0.3419021115,
				"y": 2.5511358567,
				"z": -1.8703404183,
				"element": "H" 
			}
		],
		 "valence_orbital": [ 
			{
				"type": "occ",
				"energy": -0.30364,
				"method": "rhf"
			},
			{
				"type": "occ",
				"energy": -0.29805,
				"method": "rhf"
			},
			{
				"type": "occ",
				"energy": -0.28379,
				"method": "rhf"
			},
			{
				"type": "occ",
				"energy": -0.25962,
				"method": "rhf"
			},
			{
				"type": "occ",
				"energy": -0.24065,
				"method": "rhf"
			},
			{
				"type": "unocc",
				"energy": -0.09027,
				"method": "rhf"
			},
			{
				"type": "unocc",
				"energy": -0.02506,
				"method": "rhf"
			},
			{
				"type": "unocc",
				"energy": -0.00881,
				"method": "rhf"
			},
			{
				"type": "unocc",
				"energy": 0.04754,
				"method": "rhf"
			},
			{
				"type": "unocc",
				"energy": 0.07355,
				"method": "rhf"
			}
		],
		"cosmo_sigma_profile": { 
			"-0.025": 0.0,
			"-0.024": 0.0,
			"-0.023": 0.0,
			"-0.022": 0.0,
			"-0.021": 0.0,
			"-0.02": 0.0,
			"-0.019": 0.0,
			"-0.018": 0.0,
			"-0.017": 0.0,
			"-0.016": 0.0,
			"-0.015": 0.0,
			"-0.014": 0.0,
			"-0.013": 0.0,
			"-0.012": 0.0,
			"-0.011": 0.0,
			"-0.01": 0.0,
			"-0.009": 0.198780719655,
			"-0.008": 3.78359186135,
			"-0.007": 5.43309608139,
			"-0.006": 11.9282621162,
			"-0.005": 13.3511461584,
			"-0.004": 19.4623927343,
			"-0.003": 19.1000744513,
			"-0.002": 21.4772944353,
			"-0.001": 19.3077767947,
			"0.0": 18.7311824371,
			"0.001": 15.7113446295,
			"0.002": 11.2478270755,
			"0.003": 11.5498257693,
			"0.004": 15.2416765663,
			"0.005": 8.7850981314,
			"0.006": 3.39114551472,
			"0.007": 5.97754591325,
			"0.008": 9.34972332181,
			"0.009": 4.87933163047,
			"0.01": 3.71095853731,
			"0.011": 0.723761888703,
			"0.012": 0.0,
			"0.013": 0.0,
			"0.014": 0.0,
			"0.015": 0.0,
			"0.016": 0.0,
			"0.017": 0.0,
			"0.018": 0.0,
			"0.019": 0.0,
			"0.02": 0.0,
			"0.021": 0.0,
			"0.022": 0.0,
			"0.023": 0.0,
			"0.024": 0.0,
			"0.025": 0.0
		}
	}
}
