{
	 "smiles": "CCCCCCCCCCCCCCCC(Cl)=O", 
	 "Tm": 284.65, 
	 "num_atms": 49, 
	 "gaussian": { 
		 "optdone": 1, 
		 "sigma_profile": "yes", 
		 "theory": "DFT", 
		 "functional": "B3LYP", 
		 "basiset": "6-31G**", 
		 "properties": { 
			 "R2extent": 7549.9584, 
			 "electric_dipole_moment_norm": 3.09077939038, 
			 "electric_quadrupole_moment_norm": 15.5053512272, 
			 "total_energy": -1163.84919731, 
			 "HOMO_LUMO_gap": 0.25282, 
			 "cosmo_polarized_energy": -5.74, 
			 "cosmo_cavitation_energy": 50.15, 
			 "cosmo_dispersion_energy": -30.38, 
			 "cosmo_repulsion_energy": 2.4, 
			 "cosmo_total_nonelectrostatic_energy": 22.16, 
			 "SMD_solvation_energy": 6.98 
		},
		"coords": [
			{
				"x": -2.6385557977,
				"y": 1.9622608314,
				"z": -2.8588536988,
				"element": "C" 
			},
			{
				"x": -2.0211284122,
				"y": 3.274546062,
				"z": -2.3614877796,
				"element": "C" 
			},
			{
				"x": -1.278944336,
				"y": 3.1587613959,
				"z": -1.01799899,
				"element": "C" 
			},
			{
				"x": -0.0729441823,
				"y": 2.2024753195,
				"z": -0.9943073373,
				"element": "C" 
			},
			{
				"x": 1.0803434471,
				"y": 2.6197381137,
				"z": -1.9215361521,
				"element": "C" 
			},
			{
				"x": 2.3709082279,
				"y": 1.7798434483,
				"z": -1.803739211,
				"element": "C" 
			},
			{
				"x": 2.4535497278,
				"y": 0.5165361313,
				"z": -2.6840310578,
				"element": "C" 
			},
			{
				"x": 1.5104025298,
				"y": -0.6548130526,
				"z": -2.3575215367,
				"element": "C" 
			},
			{
				"x": 1.731474036,
				"y": -1.2944253488,
				"z": -0.9792589201,
				"element": "C" 
			},
			{
				"x": 0.8475007878,
				"y": -2.5275226609,
				"z": -0.7427514401,
				"element": "C" 
			},
			{
				"x": 1.1399269361,
				"y": -3.2914999169,
				"z": 0.560778934,
				"element": "C" 
			},
			{
				"x": 0.9239432132,
				"y": -2.551775807,
				"z": 1.896015324,
				"element": "C" 
			},
			{
				"x": -0.5359821555,
				"y": -2.2008644755,
				"z": 2.2555908261,
				"element": "C" 
			},
			{
				"x": -1.0263339937,
				"y": -0.8443610723,
				"z": 1.7279097712,
				"element": "C" 
			},
			{
				"x": -2.4527605542,
				"y": -0.4821270513,
				"z": 2.1946318062,
				"element": "C" 
			},
			{
				"x": -3.5060021348,
				"y": -1.4472709782,
				"z": 1.7068875261,
				"element": "C" 
			},
			{
				"x": -3.7693499176,
				"y": -1.3262445566,
				"z": -0.1164196621,
				"element": "Cl" 
			},
			{
				"x": -4.1356071126,
				"y": -2.2304993343,
				"z": 2.3390718082,
				"element": "O" 
			},
			{
				"x": -3.3094484945,
				"y": 1.5284781841,
				"z": -2.1082280507,
				"element": "H" 
			},
			{
				"x": -1.8746282504,
				"y": 1.2117790266,
				"z": -3.0881042598,
				"element": "H" 
			},
			{
				"x": -3.2208428576,
				"y": 2.1230638503,
				"z": -3.7721581629,
				"element": "H" 
			},
			{
				"x": -2.8159554935,
				"y": 4.0230752042,
				"z": -2.2487997173,
				"element": "H" 
			},
			{
				"x": -1.343980036,
				"y": 3.6736451144,
				"z": -3.1274461334,
				"element": "H" 
			},
			{
				"x": -1.9970328191,
				"y": 2.8359031358,
				"z": -0.2508397843,
				"element": "H" 
			},
			{
				"x": -0.9412280151,
				"y": 4.1595511853,
				"z": -0.7145212165,
				"element": "H" 
			},
			{
				"x": -0.4067187811,
				"y": 1.1863187724,
				"z": -1.2323323973,
				"element": "H" 
			},
			{
				"x": 0.3101491787,
				"y": 2.1586494847,
				"z": 0.0349267453,
				"element": "H" 
			},
			{
				"x": 0.7456757296,
				"y": 2.6146492653,
				"z": -2.9676376045,
				"element": "H" 
			},
			{
				"x": 1.3256341239,
				"y": 3.6664406398,
				"z": -1.6938534833,
				"element": "H" 
			},
			{
				"x": 3.2170766216,
				"y": 2.4175209594,
				"z": -2.0896517689,
				"element": "H" 
			},
			{
				"x": 2.5441948086,
				"y": 1.5212367619,
				"z": -0.7502659205,
				"element": "H" 
			},
			{
				"x": 2.2875787358,
				"y": 0.8162401313,
				"z": -3.7280170707,
				"element": "H" 
			},
			{
				"x": 3.48627283,
				"y": 0.142589251,
				"z": -2.6423161502,
				"element": "H" 
			},
			{
				"x": 0.4637841756,
				"y": -0.3380831114,
				"z": -2.4522608056,
				"element": "H" 
			},
			{
				"x": 1.6531507566,
				"y": -1.4272137213,
				"z": -3.1259062922,
				"element": "H" 
			},
			{
				"x": 1.5530297035,
				"y": -0.5507462039,
				"z": -0.1929086134,
				"element": "H" 
			},
			{
				"x": 2.7879520013,
				"y": -1.5864671717,
				"z": -0.8848786842,
				"element": "H" 
			},
			{
				"x": -0.2109533068,
				"y": -2.2393009922,
				"z": -0.7868799241,
				"element": "H" 
			},
			{
				"x": 0.9926886654,
				"y": -3.2254724646,
				"z": -1.5787036036,
				"element": "H" 
			},
			{
				"x": 2.1848350874,
				"y": -3.6302402467,
				"z": 0.5306274236,
				"element": "H" 
			},
			{
				"x": 0.530228052,
				"y": -4.2052167337,
				"z": 0.5742040269,
				"element": "H" 
			},
			{
				"x": 1.5388281425,
				"y": -1.6424336434,
				"z": 1.9319349765,
				"element": "H" 
			},
			{
				"x": 1.318133458,
				"y": -3.2017184376,
				"z": 2.6868072932,
				"element": "H" 
			},
			{
				"x": -1.1989440345,
				"y": -3.0024052566,
				"z": 1.9019874343,
				"element": "H" 
			},
			{
				"x": -0.6380687208,
				"y": -2.1919658836,
				"z": 3.3489149252,
				"element": "H" 
			},
			{
				"x": -0.3601176808,
				"y": -0.0513471507,
				"z": 2.0887493682,
				"element": "H" 
			},
			{
				"x": -0.9903895929,
				"y": -0.8068208258,
				"z": 0.6360842366,
				"element": "H" 
			},
			{
				"x": -2.7173549639,
				"y": 0.5169791545,
				"z": 1.8341748265,
				"element": "H" 
			},
			{
				"x": -2.5154893326,
				"y": -0.4921453256,
				"z": 3.2876181772,
				"element": "H" 
			}
		],
		 "valence_orbital": [ 
			{
				"type": "occ",
				"energy": -0.31004,
				"method": "rhf"
			},
			{
				"type": "occ",
				"energy": -0.30532,
				"method": "rhf"
			},
			{
				"type": "occ",
				"energy": -0.29961,
				"method": "rhf"
			},
			{
				"type": "occ",
				"energy": -0.29864,
				"method": "rhf"
			},
			{
				"type": "occ",
				"energy": -0.29255,
				"method": "rhf"
			},
			{
				"type": "unocc",
				"energy": -0.03973,
				"method": "rhf"
			},
			{
				"type": "unocc",
				"energy": 0.01631,
				"method": "rhf"
			},
			{
				"type": "unocc",
				"energy": 0.05579,
				"method": "rhf"
			},
			{
				"type": "unocc",
				"energy": 0.08028,
				"method": "rhf"
			},
			{
				"type": "unocc",
				"energy": 0.08115,
				"method": "rhf"
			}
		],
		"cosmo_sigma_profile": { 
			"-0.025": 0.0,
			"-0.024": 0.0,
			"-0.023": 0.0,
			"-0.022": 0.0,
			"-0.021": 0.0,
			"-0.02": 0.0,
			"-0.019": 0.0,
			"-0.018": 0.0,
			"-0.017": 0.0,
			"-0.016": 0.0,
			"-0.015": 0.0,
			"-0.014": 0.0,
			"-0.013": 0.0,
			"-0.012": 0.0,
			"-0.011": 0.0,
			"-0.01": 0.0,
			"-0.009": 0.0,
			"-0.008": 0.0359552478247,
			"-0.007": 2.12695067538,
			"-0.006": 5.02615747567,
			"-0.005": 5.91917260558,
			"-0.004": 10.7957310539,
			"-0.003": 16.4749300917,
			"-0.002": 46.3738413564,
			"-0.001": 77.0441851436,
			"0.0": 84.4264840254,
			"0.001": 69.2929207532,
			"0.002": 31.6645337348,
			"0.003": 8.55953727759,
			"0.004": 6.79088431812,
			"0.005": 7.98927843117,
			"0.006": 4.43777296716,
			"0.007": 3.39104946858,
			"0.008": 4.93178764035,
			"0.009": 2.48897437311,
			"0.01": 0.0383193864465,
			"0.011": 0.0,
			"0.012": 0.0,
			"0.013": 0.0,
			"0.014": 0.0,
			"0.015": 0.0,
			"0.016": 0.0,
			"0.017": 0.0,
			"0.018": 0.0,
			"0.019": 0.0,
			"0.02": 0.0,
			"0.021": 0.0,
			"0.022": 0.0,
			"0.023": 0.0,
			"0.024": 0.0,
			"0.025": 0.0
		}
	}
}
