{
	 "smiles": "O=C(NC1=CC=CC=C1)C(C1=CC=CC=C1)C1=CC=CC=C1", 
	 "Tm": 450.15, 
	 "num_atms": 39, 
	 "gaussian": { 
		 "optdone": 1, 
		 "sigma_profile": "yes", 
		 "theory": "DFT", 
		 "functional": "B3LYP", 
		 "basiset": "6-31G**", 
		 "properties": { 
			 "R2extent": 8239.057, 
			 "electric_dipole_moment_norm": 2.76083961504, 
			 "electric_quadrupole_moment_norm": 7.31996784146, 
			 "total_energy": -902.370942926, 
			 "HOMO_LUMO_gap": 0.20218, 
			 "cosmo_polarized_energy": -15.64, 
			 "cosmo_cavitation_energy": 42.8, 
			 "cosmo_dispersion_energy": -29.92, 
			 "cosmo_repulsion_energy": 2.29, 
			 "cosmo_total_nonelectrostatic_energy": 15.17, 
			 "SMD_solvation_energy": 7.25 
		},
		"coords": [
			{
				"x": 1.4687495848,
				"y": 0.1536187592,
				"z": -0.5617153955,
				"element": "O" 
			},
			{
				"x": 0.3506254937,
				"y": 0.1433606137,
				"z": -1.0619510017,
				"element": "C" 
			},
			{
				"x": 0.1019307563,
				"y": 0.3974532661,
				"z": -2.3894498102,
				"element": "N" 
			},
			{
				"x": 1.0144792742,
				"y": 0.6930180947,
				"z": -3.4274101636,
				"element": "C" 
			},
			{
				"x": 2.3984183892,
				"y": 0.8130108837,
				"z": -3.228262726,
				"element": "C" 
			},
			{
				"x": 3.2200997909,
				"y": 1.1107077899,
				"z": -4.3160075287,
				"element": "C" 
			},
			{
				"x": 2.6936176578,
				"y": 1.2916415945,
				"z": -5.5954434001,
				"element": "C" 
			},
			{
				"x": 1.3159019875,
				"y": 1.1716819317,
				"z": -5.7877452411,
				"element": "C" 
			},
			{
				"x": 0.4817050384,
				"y": 0.8749289548,
				"z": -4.7137945476,
				"element": "C" 
			},
			{
				"x": -0.9148635649,
				"y": -0.1813278244,
				"z": -0.2425140745,
				"element": "C" 
			},
			{
				"x": -0.9986964225,
				"y": 0.6988423769,
				"z": 1.0045037889,
				"element": "C" 
			},
			{
				"x": -2.0282445156,
				"y": 1.6406695749,
				"z": 1.1168412901,
				"element": "C" 
			},
			{
				"x": -2.1347840036,
				"y": 2.4556327047,
				"z": 2.2457805638,
				"element": "C" 
			},
			{
				"x": -1.2053636789,
				"y": 2.3387071087,
				"z": 3.278728963,
				"element": "C" 
			},
			{
				"x": -0.1729030172,
				"y": 1.4033282913,
				"z": 3.1737799482,
				"element": "C" 
			},
			{
				"x": -0.0698452107,
				"y": 0.5873318595,
				"z": 2.0480570409,
				"element": "C" 
			},
			{
				"x": -1.0081834626,
				"y": -1.6787130642,
				"z": 0.0762213747,
				"element": "C" 
			},
			{
				"x": -2.2780372704,
				"y": -2.2690191463,
				"z": 0.1461664314,
				"element": "C" 
			},
			{
				"x": -2.4247687843,
				"y": -3.6194207303,
				"z": 0.4606514647,
				"element": "C" 
			},
			{
				"x": -1.2979376243,
				"y": -4.4057927356,
				"z": 0.7084661241,
				"element": "C" 
			},
			{
				"x": -0.0300149837,
				"y": -3.8284630947,
				"z": 0.6384548304,
				"element": "C" 
			},
			{
				"x": 0.117368512,
				"y": -2.475233362,
				"z": 0.3252076851,
				"element": "C" 
			},
			{
				"x": -0.8637005531,
				"y": 0.34477718,
				"z": -2.6789659707,
				"element": "H" 
			},
			{
				"x": 2.8064439508,
				"y": 0.6731609707,
				"z": -2.2377671585,
				"element": "H" 
			},
			{
				"x": 4.2903254212,
				"y": 1.2018708253,
				"z": -4.1530664196,
				"element": "H" 
			},
			{
				"x": 3.346280127,
				"y": 1.5230810093,
				"z": -6.4315894975,
				"element": "H" 
			},
			{
				"x": 0.8857170301,
				"y": 1.3086162559,
				"z": -6.7756550141,
				"element": "H" 
			},
			{
				"x": -0.5910439707,
				"y": 0.7821976283,
				"z": -4.8708590018,
				"element": "H" 
			},
			{
				"x": -1.7924368505,
				"y": 0.0628249052,
				"z": -0.8525187003,
				"element": "H" 
			},
			{
				"x": -2.7564953242,
				"y": 1.7388660861,
				"z": 0.3146975977,
				"element": "H" 
			},
			{
				"x": -2.9425582777,
				"y": 3.1788276445,
				"z": 2.3149668217,
				"element": "H" 
			},
			{
				"x": -1.2839465312,
				"y": 2.9699136765,
				"z": 4.1592904495,
				"element": "H" 
			},
			{
				"x": 0.5561920746,
				"y": 1.3071989615,
				"z": 3.9734424769,
				"element": "H" 
			},
			{
				"x": 0.7378396206,
				"y": -0.130760908,
				"z": 1.9710481849,
				"element": "H" 
			},
			{
				"x": -3.1611733663,
				"y": -1.6623559336,
				"z": -0.0405934394,
				"element": "H" 
			},
			{
				"x": -3.418111135,
				"y": -4.0567665693,
				"z": 0.5092100438,
				"element": "H" 
			},
			{
				"x": -1.4081528956,
				"y": -5.4587857728,
				"z": 0.951129703,
				"element": "H" 
			},
			{
				"x": 0.8537049942,
				"y": -4.4322771527,
				"z": 0.8251283821,
				"element": "H" 
			},
			{
				"x": 1.1073617396,
				"y": -2.0369526536,
				"z": 0.2631359258,
				"element": "H" 
			}
		],
		 "valence_orbital": [ 
			{
				"type": "occ",
				"energy": -0.24953,
				"method": "rhf"
			},
			{
				"type": "occ",
				"energy": -0.24775,
				"method": "rhf"
			},
			{
				"type": "occ",
				"energy": -0.24063,
				"method": "rhf"
			},
			{
				"type": "occ",
				"energy": -0.23485,
				"method": "rhf"
			},
			{
				"type": "occ",
				"energy": -0.22185,
				"method": "rhf"
			},
			{
				"type": "unocc",
				"energy": -0.01967,
				"method": "rhf"
			},
			{
				"type": "unocc",
				"energy": -0.00895,
				"method": "rhf"
			},
			{
				"type": "unocc",
				"energy": -0.00228,
				"method": "rhf"
			},
			{
				"type": "unocc",
				"energy": -0.0013,
				"method": "rhf"
			},
			{
				"type": "unocc",
				"energy": 0.00562,
				"method": "rhf"
			}
		],
		"cosmo_sigma_profile": { 
			"-0.025": 0.0,
			"-0.024": 0.0,
			"-0.023": 0.0,
			"-0.022": 0.0,
			"-0.021": 0.0,
			"-0.02": 0.0,
			"-0.019": 0.0,
			"-0.018": 0.0,
			"-0.017": 0.0,
			"-0.016": 0.321022954775,
			"-0.015": 1.24272987218,
			"-0.014": 1.53327202327,
			"-0.013": 1.49856864718,
			"-0.012": 1.23076566414,
			"-0.011": 1.86181057703,
			"-0.01": 1.51313625144,
			"-0.009": 1.80291193084,
			"-0.008": 2.03714006968,
			"-0.007": 4.36759790494,
			"-0.006": 14.0169701572,
			"-0.005": 26.7382434635,
			"-0.004": 27.6693144435,
			"-0.003": 31.1250409631,
			"-0.002": 21.1445932626,
			"-0.001": 21.9317167793,
			"0.0": 19.9201580057,
			"0.001": 21.0843620409,
			"0.002": 23.6193364286,
			"0.003": 24.5608609006,
			"0.004": 27.4565238219,
			"0.005": 29.1465499976,
			"0.006": 24.4252086791,
			"0.007": 2.56009846628,
			"0.008": 2.37717847568,
			"0.009": 1.79652823531,
			"0.01": 1.80879498807,
			"0.011": 1.6136974712,
			"0.012": 2.19049133017,
			"0.013": 0.271749769347,
			"0.014": 0.0,
			"0.015": 0.0,
			"0.016": 0.0,
			"0.017": 0.0,
			"0.018": 0.0,
			"0.019": 0.0,
			"0.02": 0.0,
			"0.021": 0.0,
			"0.022": 0.0,
			"0.023": 0.0,
			"0.024": 0.0,
			"0.025": 0.0
		}
	}
}
