{
	 "smiles": "CC(C)C1(C)N=C(NC1=O)C1=C(C=C2C=CC=CC2=N1)C(O)=O", 
	 "Tm": 497.15, 
	 "num_atms": 40, 
	 "gaussian": { 
		 "optdone": 1, 
		 "sigma_profile": "yes", 
		 "theory": "DFT", 
		 "functional": "B3LYP", 
		 "basiset": "6-31G**", 
		 "properties": { 
			 "R2extent": 9646.4628, 
			 "electric_dipole_moment_norm": 8.17017515479, 
			 "electric_quadrupole_moment_norm": 28.7060314591, 
			 "total_energy": -1048.0142089, 
			 "HOMO_LUMO_gap": 0.14289, 
			 "cosmo_polarized_energy": -24.85, 
			 "cosmo_cavitation_energy": 43.09, 
			 "cosmo_dispersion_energy": -30.12, 
			 "cosmo_repulsion_energy": 2.28, 
			 "cosmo_total_nonelectrostatic_energy": 15.24, 
			 "SMD_solvation_energy": 5.4 
		},
		"coords": [
			{
				"x": -3.0234236697,
				"y": 0.8884368162,
				"z": -0.3710576899,
				"element": "C" 
			},
			{
				"x": -2.2337517583,
				"y": 0.7398665428,
				"z": 0.9383039591,
				"element": "C" 
			},
			{
				"x": -2.8969037724,
				"y": 1.5284181674,
				"z": 2.0779834445,
				"element": "C" 
			},
			{
				"x": -0.716801565,
				"y": 1.096514227,
				"z": 0.7521196851,
				"element": "C" 
			},
			{
				"x": -0.461975334,
				"y": 2.5858735478,
				"z": 0.4704926738,
				"element": "C" 
			},
			{
				"x": -0.1759750381,
				"y": 0.2799005541,
				"z": -0.3513234439,
				"element": "N" 
			},
			{
				"x": 0.7154388032,
				"y": -0.49464844,
				"z": 0.1546221644,
				"element": "C" 
			},
			{
				"x": 0.9172336806,
				"y": -0.351849446,
				"z": 1.5272840781,
				"element": "N" 
			},
			{
				"x": 0.094075957,
				"y": 0.6626997585,
				"z": 1.9957043405,
				"element": "C" 
			},
			{
				"x": 0.0596862321,
				"y": 1.0889201726,
				"z": 3.1345720618,
				"element": "O" 
			},
			{
				"x": 1.4389669816,
				"y": -1.5134139646,
				"z": -0.671703962,
				"element": "C" 
			},
			{
				"x": 2.8518549522,
				"y": -1.7849254019,
				"z": -0.5774090972,
				"element": "C" 
			},
			{
				"x": 3.4013417088,
				"y": -2.6873429788,
				"z": -1.4719329828,
				"element": "C" 
			},
			{
				"x": 2.5970057381,
				"y": -3.3433832471,
				"z": -2.4286919342,
				"element": "C" 
			},
			{
				"x": 3.0927061073,
				"y": -4.2961420788,
				"z": -3.3565458342,
				"element": "C" 
			},
			{
				"x": 2.2357529794,
				"y": -4.8906655289,
				"z": -4.2550961874,
				"element": "C" 
			},
			{
				"x": 0.8560306266,
				"y": -4.5595375659,
				"z": -4.2617302598,
				"element": "C" 
			},
			{
				"x": 0.3483529949,
				"y": -3.639344652,
				"z": -3.372348157,
				"element": "C" 
			},
			{
				"x": 1.207772289,
				"y": -3.0081979894,
				"z": -2.4344964286,
				"element": "C" 
			},
			{
				"x": 0.6749995886,
				"y": -2.1039568325,
				"z": -1.5712800354,
				"element": "N" 
			},
			{
				"x": 3.7719645761,
				"y": -1.2058921527,
				"z": 0.4603226524,
				"element": "C" 
			},
			{
				"x": 4.9663215948,
				"y": -0.7673122375,
				"z": -0.003085704,
				"element": "O" 
			},
			{
				"x": 3.545253348,
				"y": -1.169196031,
				"z": 1.6495502527,
				"element": "O" 
			},
			{
				"x": -4.045492598,
				"y": 0.5203423967,
				"z": -0.2299176238,
				"element": "H" 
			},
			{
				"x": -3.0966552334,
				"y": 1.9374812701,
				"z": -0.6791517781,
				"element": "H" 
			},
			{
				"x": -2.5552947819,
				"y": 0.3254907637,
				"z": -1.1807800491,
				"element": "H" 
			},
			{
				"x": -2.2497628062,
				"y": -0.3251973463,
				"z": 1.209859384,
				"element": "H" 
			},
			{
				"x": -2.320891721,
				"y": 1.4698750913,
				"z": 3.003871912,
				"element": "H" 
			},
			{
				"x": -3.0112097489,
				"y": 2.5856154106,
				"z": 1.8139985517,
				"element": "H" 
			},
			{
				"x": -3.8998486301,
				"y": 1.1301024234,
				"z": 2.2656472383,
				"element": "H" 
			},
			{
				"x": -0.7465595699,
				"y": 3.1890386994,
				"z": 1.3357949728,
				"element": "H" 
			},
			{
				"x": 0.6003516727,
				"y": 2.7561086202,
				"z": 0.2719312444,
				"element": "H" 
			},
			{
				"x": -1.0247487284,
				"y": 2.9160077482,
				"z": -0.4055187218,
				"element": "H" 
			},
			{
				"x": 1.6732713404,
				"y": -0.7829858516,
				"z": 2.0487273142,
				"element": "H" 
			},
			{
				"x": 4.4613935043,
				"y": -2.9265207445,
				"z": -1.4229925767,
				"element": "H" 
			},
			{
				"x": 4.1498724957,
				"y": -4.5479675127,
				"z": -3.3459535384,
				"element": "H" 
			},
			{
				"x": 2.6137847703,
				"y": -5.6195001403,
				"z": -4.9655310268,
				"element": "H" 
			},
			{
				"x": 0.1976688866,
				"y": -5.0405389314,
				"z": -4.9788908766,
				"element": "H" 
			},
			{
				"x": -0.7016411203,
				"y": -3.3678796072,
				"z": -3.3577960533,
				"element": "H" 
			},
			{
				"x": 4.9545352473,
				"y": -0.7372935291,
				"z": -0.9706519685,
				"element": "H" 
			}
		],
		 "valence_orbital": [ 
			{
				"type": "occ",
				"energy": -0.27938,
				"method": "rhf"
			},
			{
				"type": "occ",
				"energy": -0.27535,
				"method": "rhf"
			},
			{
				"type": "occ",
				"energy": -0.25926,
				"method": "rhf"
			},
			{
				"type": "occ",
				"energy": -0.23734,
				"method": "rhf"
			},
			{
				"type": "occ",
				"energy": -0.23142,
				"method": "rhf"
			},
			{
				"type": "unocc",
				"energy": -0.08853,
				"method": "rhf"
			},
			{
				"type": "unocc",
				"energy": -0.06801,
				"method": "rhf"
			},
			{
				"type": "unocc",
				"energy": -0.01367,
				"method": "rhf"
			},
			{
				"type": "unocc",
				"energy": -0.00283,
				"method": "rhf"
			},
			{
				"type": "unocc",
				"energy": 0.00178,
				"method": "rhf"
			}
		],
		"cosmo_sigma_profile": { 
			"-0.025": 0.0,
			"-0.024": 0.0,
			"-0.023": 0.0,
			"-0.022": 0.0,
			"-0.021": 0.0,
			"-0.02": 0.147933815489,
			"-0.019": 0.844267040078,
			"-0.018": 0.905068846592,
			"-0.017": 0.856838775296,
			"-0.016": 1.29916849107,
			"-0.015": 1.01324392881,
			"-0.014": 1.05137920576,
			"-0.013": 1.04573298383,
			"-0.012": 1.22923110653,
			"-0.011": 1.11193307729,
			"-0.01": 2.22503973954,
			"-0.009": 4.63304984804,
			"-0.008": 5.61053522742,
			"-0.007": 9.84019104683,
			"-0.006": 13.3631517978,
			"-0.005": 13.708105435,
			"-0.004": 19.3443513724,
			"-0.003": 26.2913338388,
			"-0.002": 34.1664006713,
			"-0.001": 32.1647977792,
			"0.0": 31.1582219785,
			"0.001": 33.2058320738,
			"0.002": 24.6334598639,
			"0.003": 14.6340248164,
			"0.004": 7.54872831063,
			"0.005": 6.17270458809,
			"0.006": 7.36364034758,
			"0.007": 5.57233471645,
			"0.008": 5.82133624721,
			"0.009": 7.99593443509,
			"0.01": 6.06700825882,
			"0.011": 5.41382126448,
			"0.012": 6.266393242,
			"0.013": 4.39942411844,
			"0.014": 1.40462351467,
			"0.015": 1.59951544723,
			"0.016": 1.33382068669,
			"0.017": 0.90178243332,
			"0.018": 0.0220858336855,
			"0.019": 0.0,
			"0.02": 0.0,
			"0.021": 0.0,
			"0.022": 0.0,
			"0.023": 0.0,
			"0.024": 0.0,
			"0.025": 0.0
		}
	}
}
