{
	 "smiles": "CC(C)(C)S(=O)(=O)CC1=CC(N)=CC=C1", 
	 "Tm": 449.15, 
	 "num_atms": 32, 
	 "gaussian": { 
		 "optdone": 1, 
		 "sigma_profile": "yes", 
		 "theory": "DFT", 
		 "functional": "B3LYP", 
		 "basiset": "6-31G**", 
		 "properties": { 
			 "R2extent": 4168.397, 
			 "electric_dipole_moment_norm": 4.48081109287, 
			 "electric_quadrupole_moment_norm": 20.8102746736, 
			 "total_energy": -1032.76491967, 
			 "HOMO_LUMO_gap": 0.19362, 
			 "cosmo_polarized_energy": -18.15, 
			 "cosmo_cavitation_energy": 34.36, 
			 "cosmo_dispersion_energy": -24.04, 
			 "cosmo_repulsion_energy": 1.82, 
			 "cosmo_total_nonelectrostatic_energy": 12.14, 
			 "SMD_solvation_energy": 5.09 
		},
		"coords": [
			{
				"x": -1.0212300492,
				"y": 0.0214386024,
				"z": -1.1026964947,
				"element": "C" 
			},
			{
				"x": -1.0281819823,
				"y": -1.5053302197,
				"z": -1.2429692732,
				"element": "C" 
			},
			{
				"x": -0.0424841218,
				"y": -1.9959818777,
				"z": -2.3103806535,
				"element": "C" 
			},
			{
				"x": -2.4490831631,
				"y": -2.0218432918,
				"z": -1.5288725275,
				"element": "C" 
			},
			{
				"x": -0.5831178864,
				"y": -2.2948797992,
				"z": 0.3963892842,
				"element": "S" 
			},
			{
				"x": -0.6984449768,
				"y": -3.7575933365,
				"z": 0.2227780641,
				"element": "O" 
			},
			{
				"x": -1.365736752,
				"y": -1.6212565273,
				"z": 1.4536900799,
				"element": "O" 
			},
			{
				"x": 1.2085639663,
				"y": -2.0166217816,
				"z": 0.7496966522,
				"element": "C" 
			},
			{
				"x": 1.6823081258,
				"y": -0.6030977461,
				"z": 0.9554126685,
				"element": "C" 
			},
			{
				"x": 1.1772007056,
				"y": 0.1690927153,
				"z": 2.0063577427,
				"element": "C" 
			},
			{
				"x": 1.6299852416,
				"y": 1.4815328366,
				"z": 2.2172964635,
				"element": "C" 
			},
			{
				"x": 1.0737334081,
				"y": 2.2681018387,
				"z": 3.222491466,
				"element": "N" 
			},
			{
				"x": 2.6165380645,
				"y": 2.0053851697,
				"z": 1.360874276,
				"element": "C" 
			},
			{
				"x": 3.124193439,
				"y": 1.2316017718,
				"z": 0.3223257326,
				"element": "C" 
			},
			{
				"x": 2.6639911884,
				"y": -0.0692355883,
				"z": 0.1084582668,
				"element": "C" 
			},
			{
				"x": -1.6704651284,
				"y": 0.3416696686,
				"z": -0.2850389816,
				"element": "H" 
			},
			{
				"x": -0.0185930331,
				"y": 0.4155725568,
				"z": -0.9248943126,
				"element": "H" 
			},
			{
				"x": -1.3969189034,
				"y": 0.4582366618,
				"z": -2.0350541388,
				"element": "H" 
			},
			{
				"x": -0.3827849663,
				"y": -1.6493008245,
				"z": -3.2921481656,
				"element": "H" 
			},
			{
				"x": 0.9632812463,
				"y": -1.5949800076,
				"z": -2.1538564245,
				"element": "H" 
			},
			{
				"x": 0.0068318,
				"y": -3.0878441302,
				"z": -2.333424653,
				"element": "H" 
			},
			{
				"x": -2.7907329358,
				"y": -1.5949660532,
				"z": -2.4777114013,
				"element": "H" 
			},
			{
				"x": -2.4681493069,
				"y": -3.1110529508,
				"z": -1.6054034467,
				"element": "H" 
			},
			{
				"x": -3.1440005781,
				"y": -1.714506773,
				"z": -0.7429453536,
				"element": "H" 
			},
			{
				"x": 1.7518838252,
				"y": -2.5252037226,
				"z": -0.0486945431,
				"element": "H" 
			},
			{
				"x": 1.3096104315,
				"y": -2.6227518954,
				"z": 1.656603,
				"element": "H" 
			},
			{
				"x": 0.4024104079,
				"y": -0.243524097,
				"z": 2.6457216582,
				"element": "H" 
			},
			{
				"x": 0.6109467466,
				"y": 1.7648043824,
				"z": 3.9661523646,
				"element": "H" 
			},
			{
				"x": 1.6546568442,
				"y": 3.0196236238,
				"z": 3.566037429,
				"element": "H" 
			},
			{
				"x": 2.9769934914,
				"y": 3.0194455397,
				"z": 1.5146284098,
				"element": "H" 
			},
			{
				"x": 3.8904620722,
				"y": 1.6466200612,
				"z": -0.3264399788,
				"element": "H" 
			},
			{
				"x": 3.075332779,
				"y": -0.6699548065,
				"z": -0.6977832096,
				"element": "H" 
			}
		],
		 "valence_orbital": [ 
			{
				"type": "occ",
				"energy": -0.29918,
				"method": "rhf"
			},
			{
				"type": "occ",
				"energy": -0.28292,
				"method": "rhf"
			},
			{
				"type": "occ",
				"energy": -0.27192,
				"method": "rhf"
			},
			{
				"type": "occ",
				"energy": -0.24368,
				"method": "rhf"
			},
			{
				"type": "occ",
				"energy": -0.20835,
				"method": "rhf"
			},
			{
				"type": "unocc",
				"energy": -0.01473,
				"method": "rhf"
			},
			{
				"type": "unocc",
				"energy": 0.00737,
				"method": "rhf"
			},
			{
				"type": "unocc",
				"energy": 0.05764,
				"method": "rhf"
			},
			{
				"type": "unocc",
				"energy": 0.06848,
				"method": "rhf"
			},
			{
				"type": "unocc",
				"energy": 0.0789,
				"method": "rhf"
			}
		],
		"cosmo_sigma_profile": { 
			"-0.025": 0.0,
			"-0.024": 0.0,
			"-0.023": 0.0,
			"-0.022": 0.0,
			"-0.021": 0.0,
			"-0.02": 0.0,
			"-0.019": 0.0,
			"-0.018": 0.0,
			"-0.017": 0.0,
			"-0.016": 0.0,
			"-0.015": 0.0,
			"-0.014": 0.0,
			"-0.013": 0.416926916604,
			"-0.012": 2.72575315863,
			"-0.011": 2.29532297614,
			"-0.01": 3.41777802835,
			"-0.009": 2.96593210167,
			"-0.008": 6.21387427497,
			"-0.007": 8.01949729109,
			"-0.006": 10.0176196432,
			"-0.005": 18.8010570905,
			"-0.004": 19.8229916834,
			"-0.003": 23.4326069125,
			"-0.002": 23.2304149092,
			"-0.001": 26.1250441313,
			"0.0": 21.6828795065,
			"0.001": 11.0823168832,
			"0.002": 9.50617302208,
			"0.003": 9.77530478158,
			"0.004": 11.2110809779,
			"0.005": 12.0814451335,
			"0.006": 9.54167774497,
			"0.007": 4.1619679009,
			"0.008": 3.32521123626,
			"0.009": 4.27270917605,
			"0.01": 3.82769144608,
			"0.011": 6.25357978599,
			"0.012": 8.81225841595,
			"0.013": 5.28975933515,
			"0.014": 0.541518017481,
			"0.015": 0.0796881859821,
			"0.016": 0.0,
			"0.017": 0.0,
			"0.018": 0.0,
			"0.019": 0.0,
			"0.02": 0.0,
			"0.021": 0.0,
			"0.022": 0.0,
			"0.023": 0.0,
			"0.024": 0.0,
			"0.025": 0.0
		}
	}
}
