{
	 "smiles": "OCCCO", 
	 "Tm": 246.65, 
	 "num_atms": 13, 
	 "gaussian": { 
		 "optdone": 1, 
		 "sigma_profile": "yes", 
		 "theory": "DFT", 
		 "functional": "B3LYP", 
		 "basiset": "6-31G**", 
		 "properties": { 
			 "R2extent": 772.7548, 
			 "electric_dipole_moment_norm": 1.84076195636, 
			 "electric_quadrupole_moment_norm": 5.65935473795, 
			 "total_energy": -269.566845073, 
			 "HOMO_LUMO_gap": 0.33131, 
			 "cosmo_polarized_energy": -10.2, 
			 "cosmo_cavitation_energy": 15.69, 
			 "cosmo_dispersion_energy": -11.86, 
			 "cosmo_repulsion_energy": 1.09, 
			 "cosmo_total_nonelectrostatic_energy": 4.92, 
			 "SMD_solvation_energy": 2.97 
		},
		"coords": [
			{
				"x": -1.3873912986,
				"y": -0.5862687451,
				"z": 2.4396903152,
				"element": "O" 
			},
			{
				"x": -0.1147629185,
				"y": -1.1301456213,
				"z": 2.0998726548,
				"element": "C" 
			},
			{
				"x": -0.2882917535,
				"y": -1.9586519305,
				"z": 0.8322257983,
				"element": "C" 
			},
			{
				"x": -0.635270356,
				"y": -1.1030347314,
				"z": -0.3888819485,
				"element": "C" 
			},
			{
				"x": 0.3848646499,
				"y": -0.1606696241,
				"z": -0.7101651656,
				"element": "O" 
			},
			{
				"x": -1.252418997,
				"y": 0.1169307152,
				"z": 3.0857152439,
				"element": "H" 
			},
			{
				"x": 0.620456362,
				"y": -0.3359344236,
				"z": 1.9067394591,
				"element": "H" 
			},
			{
				"x": 0.2739078882,
				"y": -1.7643504405,
				"z": 2.9127031364,
				"element": "H" 
			},
			{
				"x": 0.6370486113,
				"y": -2.5214035627,
				"z": 0.6424083789,
				"element": "H" 
			},
			{
				"x": -1.0822598656,
				"y": -2.6983397333,
				"z": 0.9954428572,
				"element": "H" 
			},
			{
				"x": -1.5274078202,
				"y": -0.510320269,
				"z": -0.1707831681,
				"element": "H" 
			},
			{
				"x": -0.8638395493,
				"y": -1.7504505881,
				"z": -1.2496993496,
				"element": "H" 
			},
			{
				"x": 1.1687650472,
				"y": -0.6583610457,
				"z": -0.9771682121,
				"element": "H" 
			}
		],
		 "valence_orbital": [ 
			{
				"type": "occ",
				"energy": -0.35958,
				"method": "rhf"
			},
			{
				"type": "occ",
				"energy": -0.32832,
				"method": "rhf"
			},
			{
				"type": "occ",
				"energy": -0.31338,
				"method": "rhf"
			},
			{
				"type": "occ",
				"energy": -0.26375,
				"method": "rhf"
			},
			{
				"type": "occ",
				"energy": -0.26104,
				"method": "rhf"
			},
			{
				"type": "unocc",
				"energy": 0.07027,
				"method": "rhf"
			},
			{
				"type": "unocc",
				"energy": 0.09097,
				"method": "rhf"
			},
			{
				"type": "unocc",
				"energy": 0.13124,
				"method": "rhf"
			},
			{
				"type": "unocc",
				"energy": 0.14225,
				"method": "rhf"
			},
			{
				"type": "unocc",
				"energy": 0.1554,
				"method": "rhf"
			}
		],
		"cosmo_sigma_profile": { 
			"-0.025": 0.0,
			"-0.024": 0.0,
			"-0.023": 0.0,
			"-0.022": 0.0,
			"-0.021": 0.0,
			"-0.02": 0.0,
			"-0.019": 0.0,
			"-0.018": 0.0,
			"-0.017": 0.0,
			"-0.016": 0.132804098994,
			"-0.015": 1.94337175282,
			"-0.014": 2.00827638586,
			"-0.013": 1.79166986563,
			"-0.012": 1.31380840175,
			"-0.011": 2.18348042208,
			"-0.01": 1.91759798228,
			"-0.009": 1.94979814347,
			"-0.008": 1.38894332745,
			"-0.007": 1.55364980358,
			"-0.006": 2.74652796494,
			"-0.005": 2.79895440847,
			"-0.004": 4.65378912776,
			"-0.003": 13.2557992168,
			"-0.002": 17.1132273122,
			"-0.001": 13.9284620663,
			"0.0": 8.46750019064,
			"0.001": 3.49512990962,
			"0.002": 3.12855655605,
			"0.003": 2.71023978623,
			"0.004": 2.47949979746,
			"0.005": 2.98356864804,
			"0.006": 2.8132955392,
			"0.007": 3.17563680544,
			"0.008": 2.88048985378,
			"0.009": 2.53774220385,
			"0.01": 2.38970469654,
			"0.011": 2.42681217971,
			"0.012": 2.7079450984,
			"0.013": 2.8508295199,
			"0.014": 3.07227101012,
			"0.015": 1.88666437957,
			"0.016": 0.0,
			"0.017": 0.0,
			"0.018": 0.0,
			"0.019": 0.0,
			"0.02": 0.0,
			"0.021": 0.0,
			"0.022": 0.0,
			"0.023": 0.0,
			"0.024": 0.0,
			"0.025": 0.0
		}
	}
}
