{
	 "smiles": "CC1=NC(NC2=CC=CC=C2)=NC(=C1)C1CC1", 
	 "Tm": 349.05, 
	 "num_atms": 32, 
	 "gaussian": { 
		 "optdone": 1, 
		 "sigma_profile": "yes", 
		 "theory": "DFT", 
		 "functional": "B3LYP", 
		 "basiset": "6-31G**", 
		 "properties": { 
			 "R2extent": 4908.6786, 
			 "electric_dipole_moment_norm": 1.77675156114, 
			 "electric_quadrupole_moment_norm": 9.97884981899, 
			 "total_energy": -706.787373872, 
			 "HOMO_LUMO_gap": 0.17198, 
			 "cosmo_polarized_energy": -8.99, 
			 "cosmo_cavitation_energy": 35.51, 
			 "cosmo_dispersion_energy": -25.34, 
			 "cosmo_repulsion_energy": 1.95, 
			 "cosmo_total_nonelectrostatic_energy": 12.12, 
			 "SMD_solvation_energy": 3.88 
		},
		"coords": [
			{
				"x": -1.495531954,
				"y": -1.5062777273,
				"z": -4.0190782387,
				"element": "C" 
			},
			{
				"x": -0.8362592367,
				"y": -1.1891203365,
				"z": -2.7013390463,
				"element": "C" 
			},
			{
				"x": -1.0876596158,
				"y": 0.0066798235,
				"z": -2.1677140533,
				"element": "N" 
			},
			{
				"x": -0.4895022862,
				"y": 0.2768595323,
				"z": -0.9828379347,
				"element": "C" 
			},
			{
				"x": -0.8009127882,
				"y": 1.5281624084,
				"z": -0.5030287006,
				"element": "N" 
			},
			{
				"x": -0.4285735324,
				"y": 2.2280663812,
				"z": 0.6529323548,
				"element": "C" 
			},
			{
				"x": 0.4265380697,
				"y": 1.7244503576,
				"z": 1.6473916531,
				"element": "C" 
			},
			{
				"x": 0.7295195178,
				"y": 2.5114369583,
				"z": 2.7591426371,
				"element": "C" 
			},
			{
				"x": 0.2014260007,
				"y": 3.7937491606,
				"z": 2.908995906,
				"element": "C" 
			},
			{
				"x": -0.6487341438,
				"y": 4.2934301096,
				"z": 1.9195498585,
				"element": "C" 
			},
			{
				"x": -0.9611847848,
				"y": 3.5225409811,
				"z": 0.8050979552,
				"element": "C" 
			},
			{
				"x": 0.3244471882,
				"y": -0.5330450785,
				"z": -0.2984588666,
				"element": "N" 
			},
			{
				"x": 0.5714050826,
				"y": -1.7381410576,
				"z": -0.8471253444,
				"element": "C" 
			},
			{
				"x": 0.0042367992,
				"y": -2.1133621633,
				"z": -2.0644293601,
				"element": "C" 
			},
			{
				"x": 1.4723597584,
				"y": -2.6551529416,
				"z": -0.1066176814,
				"element": "C" 
			},
			{
				"x": 1.4615046226,
				"y": -2.6605893848,
				"z": 1.4138357966,
				"element": "C" 
			},
			{
				"x": 2.6381957473,
				"y": -2.0896549538,
				"z": 0.6890049253,
				"element": "C" 
			},
			{
				"x": -2.091854013,
				"y": -0.6556672975,
				"z": -4.3520782782,
				"element": "H" 
			},
			{
				"x": -2.1464889697,
				"y": -2.3829757445,
				"z": -3.9274793988,
				"element": "H" 
			},
			{
				"x": -0.7464798436,
				"y": -1.7387304521,
				"z": -4.7841304491,
				"element": "H" 
			},
			{
				"x": -1.4240331199,
				"y": 2.0147349264,
				"z": -1.1326525398,
				"element": "H" 
			},
			{
				"x": 0.838197637,
				"y": 0.7323620316,
				"z": 1.5363060325,
				"element": "H" 
			},
			{
				"x": 1.3925763436,
				"y": 2.1071740281,
				"z": 3.5194154593,
				"element": "H" 
			},
			{
				"x": 0.446444889,
				"y": 4.3941444095,
				"z": 3.779672478,
				"element": "H" 
			},
			{
				"x": -1.0728574687,
				"y": 5.2892555547,
				"z": 2.0131945713,
				"element": "H" 
			},
			{
				"x": -1.6242252913,
				"y": 3.9204083729,
				"z": 0.0398472489,
				"element": "H" 
			},
			{
				"x": 0.2058926635,
				"y": -3.084607381,
				"z": -2.502773207,
				"element": "H" 
			},
			{
				"x": 1.6352015943,
				"y": -3.6112691701,
				"z": -0.5954251109,
				"element": "H" 
			},
			{
				"x": 1.5660746024,
				"y": -3.6222135005,
				"z": 1.9069307671,
				"element": "H" 
			},
			{
				"x": 0.7746540092,
				"y": -1.9680999895,
				"z": 1.8889038649,
				"element": "H" 
			},
			{
				"x": 2.7482449957,
				"y": -1.0104637751,
				"z": 0.6731250716,
				"element": "H" 
			},
			{
				"x": 3.567377527,
				"y": -2.6510840821,
				"z": 0.6742216295,
				"element": "H" 
			}
		],
		 "valence_orbital": [ 
			{
				"type": "occ",
				"energy": -0.27641,
				"method": "rhf"
			},
			{
				"type": "occ",
				"energy": -0.25221,
				"method": "rhf"
			},
			{
				"type": "occ",
				"energy": -0.24442,
				"method": "rhf"
			},
			{
				"type": "occ",
				"energy": -0.24267,
				"method": "rhf"
			},
			{
				"type": "occ",
				"energy": -0.19689,
				"method": "rhf"
			},
			{
				"type": "unocc",
				"energy": -0.02491,
				"method": "rhf"
			},
			{
				"type": "unocc",
				"energy": -0.01183,
				"method": "rhf"
			},
			{
				"type": "unocc",
				"energy": 0.00737,
				"method": "rhf"
			},
			{
				"type": "unocc",
				"energy": 0.03621,
				"method": "rhf"
			},
			{
				"type": "unocc",
				"energy": 0.08963,
				"method": "rhf"
			}
		],
		"cosmo_sigma_profile": { 
			"-0.025": 0.0,
			"-0.024": 0.0,
			"-0.023": 0.0,
			"-0.022": 0.0,
			"-0.021": 0.0,
			"-0.02": 0.0,
			"-0.019": 0.0,
			"-0.018": 0.0,
			"-0.017": 0.0,
			"-0.016": 0.0,
			"-0.015": 0.0,
			"-0.014": 0.167368104458,
			"-0.013": 1.02071156108,
			"-0.012": 0.895165378388,
			"-0.011": 1.02574662336,
			"-0.01": 1.2379989817,
			"-0.009": 1.07439897074,
			"-0.008": 1.09922133181,
			"-0.007": 1.4051352007,
			"-0.006": 7.21099775931,
			"-0.005": 20.0214635159,
			"-0.004": 23.806161459,
			"-0.003": 25.8424500642,
			"-0.002": 22.0850262127,
			"-0.001": 23.6244046465,
			"0.0": 24.290208824,
			"0.001": 22.8405481481,
			"0.002": 24.5455096827,
			"0.003": 25.6036212019,
			"0.004": 18.7385626173,
			"0.005": 13.9395274352,
			"0.006": 12.0380177609,
			"0.007": 4.42006183209,
			"0.008": 1.32558516031,
			"0.009": 1.16992528955,
			"0.01": 0.847549530102,
			"0.011": 0.702286467943,
			"0.012": 1.30761625782,
			"0.013": 0.609458927197,
			"0.014": 0.0,
			"0.015": 0.0,
			"0.016": 0.0,
			"0.017": 0.0,
			"0.018": 0.0,
			"0.019": 0.0,
			"0.02": 0.0,
			"0.021": 0.0,
			"0.022": 0.0,
			"0.023": 0.0,
			"0.024": 0.0,
			"0.025": 0.0
		}
	}
}
