{
	 "smiles": "CCCCCCCCCCCCCCCCCCCCCCCC", 
	 "Tm": 325.65, 
	 "num_atms": 74, 
	 "gaussian": { 
		 "optdone": 1, 
		 "sigma_profile": "yes", 
		 "theory": "DFT", 
		 "functional": "B3LYP", 
		 "basiset": "6-31G**", 
		 "properties": { 
			 "R2extent": 21154.7218, 
			 "electric_dipole_moment_norm": 0.077717565582, 
			 "electric_quadrupole_moment_norm": 0.864793911866, 
			 "total_energy": -944.758145593, 
			 "HOMO_LUMO_gap": 0.36368, 
			 "cosmo_polarized_energy": -1.48, 
			 "cosmo_cavitation_energy": 69.15, 
			 "cosmo_dispersion_energy": -45.37, 
			 "cosmo_repulsion_energy": 3.7, 
			 "cosmo_total_nonelectrostatic_energy": 27.48, 
			 "SMD_solvation_energy": 8.58 
		},
		"coords": [
			{
				"x": -1.9680689213,
				"y": 7.656792578,
				"z": 3.1472067528,
				"element": "C" 
			},
			{
				"x": -3.085118223,
				"y": 6.7730408798,
				"z": 2.5828128383,
				"element": "C" 
			},
			{
				"x": -2.647020206,
				"y": 5.323015912,
				"z": 2.3396263682,
				"element": "C" 
			},
			{
				"x": -3.7758343819,
				"y": 4.4312136285,
				"z": 1.7997268988,
				"element": "C" 
			},
			{
				"x": -3.3926448435,
				"y": 2.9550025437,
				"z": 1.5524090925,
				"element": "C" 
			},
			{
				"x": -2.8915573439,
				"y": 2.6116522593,
				"z": 0.1377992558,
				"element": "C" 
			},
			{
				"x": -1.5764446779,
				"y": 3.2727397892,
				"z": -0.2986340513,
				"element": "C" 
			},
			{
				"x": -1.0872475539,
				"y": 2.7695795645,
				"z": -1.6649754932,
				"element": "C" 
			},
			{
				"x": 0.166430313,
				"y": 3.4822172596,
				"z": -2.2018958887,
				"element": "C" 
			},
			{
				"x": 1.4434021429,
				"y": 3.3279622271,
				"z": -1.3552378503,
				"element": "C" 
			},
			{
				"x": 1.9990831486,
				"y": 1.9020807566,
				"z": -1.1692973899,
				"element": "C" 
			},
			{
				"x": 2.5356789775,
				"y": 1.2196206585,
				"z": -2.449032981,
				"element": "C" 
			},
			{
				"x": 1.535612112,
				"y": 0.3603245947,
				"z": -3.2463507255,
				"element": "C" 
			},
			{
				"x": 1.1235824353,
				"y": -0.9437873918,
				"z": -2.5468980042,
				"element": "C" 
			},
			{
				"x": 0.1650376787,
				"y": -1.7931466948,
				"z": -3.3931098561,
				"element": "C" 
			},
			{
				"x": -0.3886619943,
				"y": -3.0655874795,
				"z": -2.7263064284,
				"element": "C" 
			},
			{
				"x": 0.6498299388,
				"y": -4.1530265863,
				"z": -2.3698388731,
				"element": "C" 
			},
			{
				"x": 1.2272585423,
				"y": -4.069637621,
				"z": -0.9481517114,
				"element": "C" 
			},
			{
				"x": 2.2671304149,
				"y": -5.1641689482,
				"z": -0.6607960646,
				"element": "C" 
			},
			{
				"x": 2.8655745588,
				"y": -5.1463509268,
				"z": 0.7643956489,
				"element": "C" 
			},
			{
				"x": 2.1762912825,
				"y": -6.0551922875,
				"z": 1.7991328883,
				"element": "C" 
			},
			{
				"x": 0.7146792668,
				"y": -5.7141532884,
				"z": 2.1229690894,
				"element": "C" 
			},
			{
				"x": 0.0844805256,
				"y": -6.6015307821,
				"z": 3.2112479617,
				"element": "C" 
			},
			{
				"x": 0.6744349382,
				"y": -6.4091394734,
				"z": 4.6137072205,
				"element": "C" 
			},
			{
				"x": -1.6057686588,
				"y": 7.2723772069,
				"z": 4.1076413448,
				"element": "H" 
			},
			{
				"x": -2.3115239575,
				"y": 8.6839132527,
				"z": 3.3090644056,
				"element": "H" 
			},
			{
				"x": -1.1111157434,
				"y": 7.696730239,
				"z": 2.4649159599,
				"element": "H" 
			},
			{
				"x": -3.9418482735,
				"y": 6.7815250172,
				"z": 3.270766536,
				"element": "H" 
			},
			{
				"x": -3.4509869007,
				"y": 7.2031011005,
				"z": 1.6402640666,
				"element": "H" 
			},
			{
				"x": -2.2765221057,
				"y": 4.8952486923,
				"z": 3.2825253244,
				"element": "H" 
			},
			{
				"x": -1.792729019,
				"y": 5.3166613965,
				"z": 1.6514013291,
				"element": "H" 
			},
			{
				"x": -4.6033270359,
				"y": 4.4663112738,
				"z": 2.5209799954,
				"element": "H" 
			},
			{
				"x": -4.1751320022,
				"y": 4.8647605078,
				"z": 0.8713064688,
				"element": "H" 
			},
			{
				"x": -4.2722544109,
				"y": 2.3282545855,
				"z": 1.7460706317,
				"element": "H" 
			},
			{
				"x": -2.6401494819,
				"y": 2.6460802569,
				"z": 2.2920350739,
				"element": "H" 
			},
			{
				"x": -2.7699672198,
				"y": 1.5210796573,
				"z": 0.0741317405,
				"element": "H" 
			},
			{
				"x": -3.6771474861,
				"y": 2.8668589298,
				"z": -0.5882021881,
				"element": "H" 
			},
			{
				"x": -1.7031848719,
				"y": 4.3623342108,
				"z": -0.3479129868,
				"element": "H" 
			},
			{
				"x": -0.8102243802,
				"y": 3.0876949068,
				"z": 0.4660902618,
				"element": "H" 
			},
			{
				"x": -1.8967392103,
				"y": 2.8974913321,
				"z": -2.3969169126,
				"element": "H" 
			},
			{
				"x": -0.9092008446,
				"y": 1.6872786571,
				"z": -1.6065360761,
				"element": "H" 
			},
			{
				"x": 0.3622698125,
				"y": 3.1362983012,
				"z": -3.2244189937,
				"element": "H" 
			},
			{
				"x": -0.0545079142,
				"y": 4.5550969244,
				"z": -2.2912414695,
				"element": "H" 
			},
			{
				"x": 2.2307057713,
				"y": 3.9457715911,
				"z": -1.8090519183,
				"element": "H" 
			},
			{
				"x": 1.2667457263,
				"y": 3.7601693701,
				"z": -0.3617722505,
				"element": "H" 
			},
			{
				"x": 1.2466078424,
				"y": 1.2639801152,
				"z": -0.6889355507,
				"element": "H" 
			},
			{
				"x": 2.8210862483,
				"y": 1.9724244245,
				"z": -0.4458997846,
				"element": "H" 
			},
			{
				"x": 2.9523240869,
				"y": 1.9916638388,
				"z": -3.1103348031,
				"element": "H" 
			},
			{
				"x": 3.3835365502,
				"y": 0.5760446533,
				"z": -2.1778726926,
				"element": "H" 
			},
			{
				"x": 1.991365988,
				"y": 0.1059122894,
				"z": -4.2133655588,
				"element": "H" 
			},
			{
				"x": 0.6361608203,
				"y": 0.9417817959,
				"z": -3.4838245909,
				"element": "H" 
			},
			{
				"x": 2.029261486,
				"y": -1.519640673,
				"z": -2.3154379907,
				"element": "H" 
			},
			{
				"x": 0.6492072798,
				"y": -0.7201384801,
				"z": -1.5814300955,
				"element": "H" 
			},
			{
				"x": 0.6695937313,
				"y": -2.0745858195,
				"z": -4.3288503546,
				"element": "H" 
			},
			{
				"x": -0.6863002596,
				"y": -1.1648845667,
				"z": -3.6906689939,
				"element": "H" 
			},
			{
				"x": -0.9510566085,
				"y": -2.7897423964,
				"z": -1.8227843396,
				"element": "H" 
			},
			{
				"x": -1.1268967391,
				"y": -3.4975140145,
				"z": -3.4136287807,
				"element": "H" 
			},
			{
				"x": 1.4698342108,
				"y": -4.1285943775,
				"z": -3.1023824099,
				"element": "H" 
			},
			{
				"x": 0.1830119861,
				"y": -5.1406110271,
				"z": -2.4839904941,
				"element": "H" 
			},
			{
				"x": 0.4016447558,
				"y": -4.1322356689,
				"z": -0.2282722928,
				"element": "H" 
			},
			{
				"x": 1.6932285695,
				"y": -3.0902126342,
				"z": -0.7837593667,
				"element": "H" 
			},
			{
				"x": 3.0806551955,
				"y": -5.0529910385,
				"z": -1.3901223875,
				"element": "H" 
			},
			{
				"x": 1.8265982255,
				"y": -6.1519947381,
				"z": -0.8600898351,
				"element": "H" 
			},
			{
				"x": 2.8805694293,
				"y": -4.1130566274,
				"z": 1.1394363261,
				"element": "H" 
			},
			{
				"x": 3.9168203217,
				"y": -5.4556064566,
				"z": 0.7088927781,
				"element": "H" 
			},
			{
				"x": 2.2264078957,
				"y": -7.0956948825,
				"z": 1.4457975958,
				"element": "H" 
			},
			{
				"x": 2.7686921064,
				"y": -6.0229225088,
				"z": 2.7224113428,
				"element": "H" 
			},
			{
				"x": 0.6446873922,
				"y": -4.6606865612,
				"z": 2.4314270305,
				"element": "H" 
			},
			{
				"x": 0.1114189955,
				"y": -5.8060149069,
				"z": 1.2115617648,
				"element": "H" 
			},
			{
				"x": -0.9928614419,
				"y": -6.3953311415,
				"z": 3.2501912081,
				"element": "H" 
			},
			{
				"x": 0.179199998,
				"y": -7.6557716498,
				"z": 2.9159568234,
				"element": "H" 
			},
			{
				"x": 1.7348729298,
				"y": -6.6779987899,
				"z": 4.6543917429,
				"element": "H" 
			},
			{
				"x": 0.5851933509,
				"y": -5.3656766112,
				"z": 4.9382638942,
				"element": "H" 
			},
			{
				"x": 0.1520357299,
				"y": -7.0304601282,
				"z": 5.3487707745,
				"element": "H" 
			}
		],
		 "valence_orbital": [ 
			{
				"type": "occ",
				"energy": -0.29878,
				"method": "rhf"
			},
			{
				"type": "occ",
				"energy": -0.29712,
				"method": "rhf"
			},
			{
				"type": "occ",
				"energy": -0.29348,
				"method": "rhf"
			},
			{
				"type": "occ",
				"energy": -0.29154,
				"method": "rhf"
			},
			{
				"type": "occ",
				"energy": -0.29011,
				"method": "rhf"
			},
			{
				"type": "unocc",
				"energy": 0.07357,
				"method": "rhf"
			},
			{
				"type": "unocc",
				"energy": 0.0846,
				"method": "rhf"
			},
			{
				"type": "unocc",
				"energy": 0.08882,
				"method": "rhf"
			},
			{
				"type": "unocc",
				"energy": 0.0942,
				"method": "rhf"
			},
			{
				"type": "unocc",
				"energy": 0.09942,
				"method": "rhf"
			}
		],
		"cosmo_sigma_profile": { 
			"-0.025": 0.0,
			"-0.024": 0.0,
			"-0.023": 0.0,
			"-0.022": 0.0,
			"-0.021": 0.0,
			"-0.02": 0.0,
			"-0.019": 0.0,
			"-0.018": 0.0,
			"-0.017": 0.0,
			"-0.016": 0.0,
			"-0.015": 0.0,
			"-0.014": 0.0,
			"-0.013": 0.0,
			"-0.012": 0.0,
			"-0.011": 0.0,
			"-0.01": 0.0,
			"-0.009": 0.0,
			"-0.008": 0.0,
			"-0.007": 0.0,
			"-0.006": 0.0,
			"-0.005": 0.0,
			"-0.004": 0.0,
			"-0.003": 3.30743762908,
			"-0.002": 50.4692388884,
			"-0.001": 134.886269273,
			"0.0": 154.107178593,
			"0.001": 122.342126276,
			"0.002": 59.7861204403,
			"0.003": 1.65159618244,
			"0.004": 0.0,
			"0.005": 0.0,
			"0.006": 0.0,
			"0.007": 0.0,
			"0.008": 0.0,
			"0.009": 0.0,
			"0.01": 0.0,
			"0.011": 0.0,
			"0.012": 0.0,
			"0.013": 0.0,
			"0.014": 0.0,
			"0.015": 0.0,
			"0.016": 0.0,
			"0.017": 0.0,
			"0.018": 0.0,
			"0.019": 0.0,
			"0.02": 0.0,
			"0.021": 0.0,
			"0.022": 0.0,
			"0.023": 0.0,
			"0.024": 0.0,
			"0.025": 0.0
		}
	}
}
