{
	 "smiles": "O=CC1=CNN=C1C1=CC=CS1", 
	 "Tm": 375.15, 
	 "num_atms": 18, 
	 "gaussian": { 
		 "optdone": 1, 
		 "sigma_profile": "yes", 
		 "theory": "DFT", 
		 "functional": "B3LYP", 
		 "basiset": "6-31G**", 
		 "properties": { 
			 "R2extent": 2720.2158, 
			 "electric_dipole_moment_norm": 2.05294754439, 
			 "electric_quadrupole_moment_norm": 23.9966942625, 
			 "total_energy": -891.336225662, 
			 "HOMO_LUMO_gap": 0.1707, 
			 "cosmo_polarized_energy": -14.97, 
			 "cosmo_cavitation_energy": 24.72, 
			 "cosmo_dispersion_energy": -18.76, 
			 "cosmo_repulsion_energy": 1.44, 
			 "cosmo_total_nonelectrostatic_energy": 7.4, 
			 "SMD_solvation_energy": 4.65 
		},
		"coords": [
			{
				"x": 3.1793082304,
				"y": 0.1299383561,
				"z": -2.6252349005,
				"element": "O" 
			},
			{
				"x": 2.1942674677,
				"y": -0.1275468735,
				"z": -1.9512221605,
				"element": "C" 
			},
			{
				"x": 0.9416119356,
				"y": 0.6214024731,
				"z": -2.0308879927,
				"element": "C" 
			},
			{
				"x": 0.7736328888,
				"y": 1.7901821198,
				"z": -2.7653302163,
				"element": "C" 
			},
			{
				"x": -0.4720836396,
				"y": 2.2251912826,
				"z": -2.506220641,
				"element": "N" 
			},
			{
				"x": -1.1628028839,
				"y": 1.4250742632,
				"z": -1.6592273532,
				"element": "N" 
			},
			{
				"x": -0.3142187548,
				"y": 0.4372937374,
				"z": -1.3584379318,
				"element": "C" 
			},
			{
				"x": -0.7308078914,
				"y": -0.6241966244,
				"z": -0.4502421064,
				"element": "C" 
			},
			{
				"x": -0.295696974,
				"y": -1.9287319835,
				"z": -0.3722937444,
				"element": "C" 
			},
			{
				"x": -0.9521729911,
				"y": -2.6815992876,
				"z": 0.6434299714,
				"element": "C" 
			},
			{
				"x": -1.8836377241,
				"y": -1.945991846,
				"z": 1.3249271692,
				"element": "C" 
			},
			{
				"x": -1.9783939502,
				"y": -0.3199578431,
				"z": 0.7380558721,
				"element": "S" 
			},
			{
				"x": 2.2140153343,
				"y": -0.9518802682,
				"z": -1.2106596271,
				"element": "H" 
			},
			{
				"x": 1.4627558375,
				"y": 2.3099560877,
				"z": -3.4138895862,
				"element": "H" 
			},
			{
				"x": -0.9287254865,
				"y": 3.0470533344,
				"z": -2.8722466137,
				"element": "H" 
			},
			{
				"x": 0.4453990761,
				"y": -2.3478802687,
				"z": -1.0421370855,
				"element": "H" 
			},
			{
				"x": -0.7441306059,
				"y": -3.7252305616,
				"z": 0.8491819882,
				"element": "H" 
			},
			{
				"x": -2.5245198688,
				"y": -2.2648760976,
				"z": 2.1354349583,
				"element": "H" 
			}
		],
		 "valence_orbital": [ 
			{
				"type": "occ",
				"energy": -0.29902,
				"method": "rhf"
			},
			{
				"type": "occ",
				"energy": -0.26538,
				"method": "rhf"
			},
			{
				"type": "occ",
				"energy": -0.25627,
				"method": "rhf"
			},
			{
				"type": "occ",
				"energy": -0.24928,
				"method": "rhf"
			},
			{
				"type": "occ",
				"energy": -0.2237,
				"method": "rhf"
			},
			{
				"type": "unocc",
				"energy": -0.053,
				"method": "rhf"
			},
			{
				"type": "unocc",
				"energy": -0.03145,
				"method": "rhf"
			},
			{
				"type": "unocc",
				"energy": 0.01933,
				"method": "rhf"
			},
			{
				"type": "unocc",
				"energy": 0.03792,
				"method": "rhf"
			},
			{
				"type": "unocc",
				"energy": 0.06073,
				"method": "rhf"
			}
		],
		"cosmo_sigma_profile": { 
			"-0.025": 0.0,
			"-0.024": 0.0,
			"-0.023": 0.0,
			"-0.022": 0.0,
			"-0.021": 0.0,
			"-0.02": 0.0,
			"-0.019": 0.0,
			"-0.018": 0.89837240136,
			"-0.017": 1.86639116036,
			"-0.016": 1.41885630741,
			"-0.015": 1.77567931376,
			"-0.014": 0.633319459544,
			"-0.013": 0.804514557669,
			"-0.012": 1.24706355363,
			"-0.011": 1.46956817968,
			"-0.01": 3.06516183551,
			"-0.009": 2.93061850519,
			"-0.008": 6.35544061815,
			"-0.007": 7.2293844238,
			"-0.006": 9.30989250993,
			"-0.005": 8.53640697412,
			"-0.004": 9.9368740953,
			"-0.003": 9.79912393808,
			"-0.002": 9.00712410184,
			"-0.001": 8.48344196675,
			"0.0": 13.315486014,
			"0.001": 15.653511204,
			"0.002": 15.7798151371,
			"0.003": 15.4319517473,
			"0.004": 17.699867828,
			"0.005": 9.29964134643,
			"0.006": 4.38218529994,
			"0.007": 2.58964545151,
			"0.008": 3.44421002816,
			"0.009": 2.7582282242,
			"0.01": 3.39609895657,
			"0.011": 4.61955343785,
			"0.012": 5.46120942926,
			"0.013": 2.61576613819,
			"0.014": 0.516201668352,
			"0.015": 0.0,
			"0.016": 0.0,
			"0.017": 0.0,
			"0.018": 0.0,
			"0.019": 0.0,
			"0.02": 0.0,
			"0.021": 0.0,
			"0.022": 0.0,
			"0.023": 0.0,
			"0.024": 0.0,
			"0.025": 0.0
		}
	}
}
