{
	 "smiles": "CC1=CC(=NO1)N1C(C)=CC(C(O)=O)=C1C", 
	 "Tm": 451.15, 
	 "num_atms": 28, 
	 "gaussian": { 
		 "optdone": 1, 
		 "sigma_profile": "yes", 
		 "theory": "DFT", 
		 "functional": "B3LYP", 
		 "basiset": "6-31G**", 
		 "properties": { 
			 "R2extent": 4662.9725, 
			 "electric_dipole_moment_norm": 5.60811168041, 
			 "electric_quadrupole_moment_norm": 11.2371867293, 
			 "total_energy": -761.549125433, 
			 "HOMO_LUMO_gap": 0.17649, 
			 "cosmo_polarized_energy": -15.26, 
			 "cosmo_cavitation_energy": 32.41, 
			 "cosmo_dispersion_energy": -23.1, 
			 "cosmo_repulsion_energy": 1.81, 
			 "cosmo_total_nonelectrostatic_energy": 11.13, 
			 "SMD_solvation_energy": 7.07 
		},
		"coords": [
			{
				"x": -2.1500851074,
				"y": -2.2473907187,
				"z": -2.9521738593,
				"element": "C" 
			},
			{
				"x": -1.5841913888,
				"y": -1.8757409714,
				"z": -1.6261787986,
				"element": "C" 
			},
			{
				"x": -1.0642338765,
				"y": -0.7267306972,
				"z": -1.1107939667,
				"element": "C" 
			},
			{
				"x": -0.7195294616,
				"y": -1.0835230574,
				"z": 0.2262456675,
				"element": "C" 
			},
			{
				"x": -1.0011311187,
				"y": -2.3420197853,
				"z": 0.4943961546,
				"element": "N" 
			},
			{
				"x": -1.5611836663,
				"y": -2.8415883349,
				"z": -0.6793375652,
				"element": "O" 
			},
			{
				"x": -0.1757708342,
				"y": -0.256057236,
				"z": 1.2246047957,
				"element": "N" 
			},
			{
				"x": -0.7029517878,
				"y": -0.1074095424,
				"z": 2.5213286533,
				"element": "C" 
			},
			{
				"x": -1.9417565985,
				"y": -0.8048727307,
				"z": 2.9819938428,
				"element": "C" 
			},
			{
				"x": 0.1044008848,
				"y": 0.7776720844,
				"z": 3.1757326123,
				"element": "C" 
			},
			{
				"x": 1.1523435729,
				"y": 1.1810803445,
				"z": 2.2859202673,
				"element": "C" 
			},
			{
				"x": 2.1937972646,
				"y": 2.1249206318,
				"z": 2.6908600591,
				"element": "C" 
			},
			{
				"x": 3.0990530699,
				"y": 2.4254146453,
				"z": 1.7132675836,
				"element": "O" 
			},
			{
				"x": 2.2780222062,
				"y": 2.6274108451,
				"z": 3.797048934,
				"element": "O" 
			},
			{
				"x": 0.9631213078,
				"y": 0.5258963888,
				"z": 1.0758666872,
				"element": "C" 
			},
			{
				"x": 1.7621224291,
				"y": 0.5326632221,
				"z": -0.1889793016,
				"element": "C" 
			},
			{
				"x": -3.1820030635,
				"y": -2.5985209715,
				"z": -2.8501266034,
				"element": "H" 
			},
			{
				"x": -1.5695452029,
				"y": -3.0543478979,
				"z": -3.4113092167,
				"element": "H" 
			},
			{
				"x": -2.1386517795,
				"y": -1.3853371064,
				"z": -3.6216530723,
				"element": "H" 
			},
			{
				"x": -0.9582170549,
				"y": 0.2322449369,
				"z": -1.5915531779,
				"element": "H" 
			},
			{
				"x": -1.8258572643,
				"y": -1.8923609986,
				"z": 2.9914800847,
				"element": "H" 
			},
			{
				"x": -2.8038768906,
				"y": -0.5772688965,
				"z": 2.3434243942,
				"element": "H" 
			},
			{
				"x": -2.1771424768,
				"y": -0.4695286419,
				"z": 3.994770506,
				"element": "H" 
			},
			{
				"x": -0.0155543398,
				"y": 1.1270035576,
				"z": 4.1904623862,
				"element": "H" 
			},
			{
				"x": 3.719899443,
				"y": 3.0448342887,
				"z": 2.1310277638,
				"element": "H" 
			},
			{
				"x": 1.3103432442,
				"y": 1.1682013367,
				"z": -0.9613814154,
				"element": "H" 
			},
			{
				"x": 1.8564702603,
				"y": -0.4746872228,
				"z": -0.6067404967,
				"element": "H" 
			},
			{
				"x": 2.756708229,
				"y": 0.9261425275,
				"z": 0.0131970812,
				"element": "H" 
			}
		],
		 "valence_orbital": [ 
			{
				"type": "occ",
				"energy": -0.30306,
				"method": "rhf"
			},
			{
				"type": "occ",
				"energy": -0.27188,
				"method": "rhf"
			},
			{
				"type": "occ",
				"energy": -0.26259,
				"method": "rhf"
			},
			{
				"type": "occ",
				"energy": -0.2442,
				"method": "rhf"
			},
			{
				"type": "occ",
				"energy": -0.20988,
				"method": "rhf"
			},
			{
				"type": "unocc",
				"energy": -0.03339,
				"method": "rhf"
			},
			{
				"type": "unocc",
				"energy": -0.00889,
				"method": "rhf"
			},
			{
				"type": "unocc",
				"energy": 0.03094,
				"method": "rhf"
			},
			{
				"type": "unocc",
				"energy": 0.06024,
				"method": "rhf"
			},
			{
				"type": "unocc",
				"energy": 0.0765,
				"method": "rhf"
			}
		],
		"cosmo_sigma_profile": { 
			"-0.025": 0.0,
			"-0.024": 0.0,
			"-0.023": 0.0,
			"-0.022": 0.0,
			"-0.021": 0.0,
			"-0.02": 0.0,
			"-0.019": 0.0,
			"-0.018": 0.254398005447,
			"-0.017": 0.75112257158,
			"-0.016": 1.15565668145,
			"-0.015": 0.464294347878,
			"-0.014": 0.53892345732,
			"-0.013": 0.648685732513,
			"-0.012": 0.569915085382,
			"-0.011": 0.925201479055,
			"-0.01": 1.00009999772,
			"-0.009": 1.21504591132,
			"-0.008": 2.84365735693,
			"-0.007": 5.91842305973,
			"-0.006": 12.2639141825,
			"-0.005": 16.6572153267,
			"-0.004": 18.0376529321,
			"-0.003": 21.8280294206,
			"-0.002": 22.9158723027,
			"-0.001": 26.1643015053,
			"0.0": 22.6173562832,
			"0.001": 14.6396984312,
			"0.002": 12.2698212464,
			"0.003": 12.530026502,
			"0.004": 12.662242603,
			"0.005": 9.26051989667,
			"0.006": 8.09144445134,
			"0.007": 7.60016554042,
			"0.008": 5.42807976777,
			"0.009": 2.30410258652,
			"0.01": 3.1507239862,
			"0.011": 3.15303006112,
			"0.012": 5.81019438814,
			"0.013": 3.88677699871,
			"0.014": 0.0,
			"0.015": 0.0,
			"0.016": 0.0,
			"0.017": 0.0,
			"0.018": 0.0,
			"0.019": 0.0,
			"0.02": 0.0,
			"0.021": 0.0,
			"0.022": 0.0,
			"0.023": 0.0,
			"0.024": 0.0,
			"0.025": 0.0
		}
	}
}
