{
	 "smiles": "CC1=CC=C(C=C1)S(=O)(=O)N[C@@H]1CC2CC1C(=C)C2(C)C", 
	 "Tm": 385.15, 
	 "num_atms": 44, 
	 "gaussian": { 
		 "optdone": 1, 
		 "sigma_profile": "yes", 
		 "theory": "DFT", 
		 "functional": "B3LYP", 
		 "basiset": "6-31G**", 
		 "properties": { 
			 "R2extent": 8851.541, 
			 "electric_dipole_moment_norm": 4.81797949145, 
			 "electric_quadrupole_moment_norm": 28.3540264596, 
			 "total_energy": -1264.9804494, 
			 "HOMO_LUMO_gap": 0.20237, 
			 "cosmo_polarized_energy": -14.66, 
			 "cosmo_cavitation_energy": 45.14, 
			 "cosmo_dispersion_energy": -30.92, 
			 "cosmo_repulsion_energy": 2.31, 
			 "cosmo_total_nonelectrostatic_energy": 16.53, 
			 "SMD_solvation_energy": 6.55 
		},
		"coords": [
			{
				"x": -6.3841595526,
				"y": -0.0824529579,
				"z": -0.3259461509,
				"element": "C" 
			},
			{
				"x": -5.0738361486,
				"y": -0.7191072633,
				"z": 0.07018633,
				"element": "C" 
			},
			{
				"x": -4.6745697553,
				"y": -1.9398484512,
				"z": -0.5008462328,
				"element": "C" 
			},
			{
				"x": -3.4804254631,
				"y": -2.5495254421,
				"z": -0.1335030624,
				"element": "C" 
			},
			{
				"x": -2.6651530165,
				"y": -1.9296882379,
				"z": 0.818487798,
				"element": "C" 
			},
			{
				"x": -3.0375805235,
				"y": -0.7224697333,
				"z": 1.4059701972,
				"element": "C" 
			},
			{
				"x": -4.2398455177,
				"y": -0.1240528598,
				"z": 1.0236933452,
				"element": "C" 
			},
			{
				"x": -1.1375690162,
				"y": -2.7210477744,
				"z": 1.3177615498,
				"element": "S" 
			},
			{
				"x": -1.3552567698,
				"y": -4.1666239471,
				"z": 1.4445299107,
				"element": "O" 
			},
			{
				"x": -0.593860534,
				"y": -1.9387277193,
				"z": 2.437119781,
				"element": "O" 
			},
			{
				"x": -0.1865540621,
				"y": -2.5651807575,
				"z": -0.0721973884,
				"element": "N" 
			},
			{
				"x": 0.5771743999,
				"y": -1.3272813542,
				"z": -0.2949924166,
				"element": "C" 
			},
			{
				"x": 1.1077784876,
				"y": -1.2826667387,
				"z": -1.7642467403,
				"element": "C" 
			},
			{
				"x": 2.625388612,
				"y": -1.0307600976,
				"z": -1.5948901726,
				"element": "C" 
			},
			{
				"x": 2.9099109474,
				"y": -1.9144019975,
				"z": -0.3576918288,
				"element": "C" 
			},
			{
				"x": 1.8910108843,
				"y": -1.1810252453,
				"z": 0.5440417716,
				"element": "C" 
			},
			{
				"x": 2.3444581498,
				"y": 0.2600834908,
				"z": 0.39267746,
				"element": "C" 
			},
			{
				"x": 2.2671268066,
				"y": 1.2088096401,
				"z": 1.3260065226,
				"element": "C" 
			},
			{
				"x": 2.8966372339,
				"y": 0.410520378,
				"z": -1.0406341736,
				"element": "C" 
			},
			{
				"x": 2.197672066,
				"y": 1.5331733209,
				"z": -1.830037463,
				"element": "C" 
			},
			{
				"x": 4.4124844664,
				"y": 0.7097792153,
				"z": -1.0306022252,
				"element": "C" 
			},
			{
				"x": -7.2325476883,
				"y": -0.6388250836,
				"z": 0.0904717992,
				"element": "H" 
			},
			{
				"x": -6.5095298715,
				"y": -0.0718151371,
				"z": -1.4137039029,
				"element": "H" 
			},
			{
				"x": -6.4549588881,
				"y": 0.9472195644,
				"z": 0.0342344885,
				"element": "H" 
			},
			{
				"x": -5.3117983818,
				"y": -2.4172657929,
				"z": -1.2408512024,
				"element": "H" 
			},
			{
				"x": -3.1809780927,
				"y": -3.4956207524,
				"z": -0.57143024,
				"element": "H" 
			},
			{
				"x": -2.3957081939,
				"y": -0.2708102135,
				"z": 2.1541114862,
				"element": "H" 
			},
			{
				"x": -4.5334979922,
				"y": 0.8184242281,
				"z": 1.477968111,
				"element": "H" 
			},
			{
				"x": 0.3503524699,
				"y": -3.4246472685,
				"z": -0.1699101609,
				"element": "H" 
			},
			{
				"x": -0.1048169689,
				"y": -0.4997986713,
				"z": -0.0839650322,
				"element": "H" 
			},
			{
				"x": 0.5920193478,
				"y": -0.538524683,
				"z": -2.3741119742,
				"element": "H" 
			},
			{
				"x": 0.9423092198,
				"y": -2.2533092685,
				"z": -2.2442527288,
				"element": "H" 
			},
			{
				"x": 3.2034534063,
				"y": -1.256410449,
				"z": -2.4958506279,
				"element": "H" 
			},
			{
				"x": 3.9347002846,
				"y": -1.8588147832,
				"z": 0.0158228412,
				"element": "H" 
			},
			{
				"x": 2.6688892672,
				"y": -2.9710466198,
				"z": -0.5246704978,
				"element": "H" 
			},
			{
				"x": 1.7737998351,
				"y": -1.5149584578,
				"z": 1.5747898979,
				"element": "H" 
			},
			{
				"x": 1.8651736758,
				"y": 0.9999229224,
				"z": 2.3135101791,
				"element": "H" 
			},
			{
				"x": 2.6040676417,
				"y": 2.2260427211,
				"z": 1.1426206642,
				"element": "H" 
			},
			{
				"x": 1.1080238423,
				"y": 1.463128898,
				"z": -1.7855636535,
				"element": "H" 
			},
			{
				"x": 2.5002696776,
				"y": 1.5164523962,
				"z": -2.883941083,
				"element": "H" 
			},
			{
				"x": 2.4740225719,
				"y": 2.5115975275,
				"z": -1.4239092616,
				"element": "H" 
			},
			{
				"x": 4.6101401975,
				"y": 1.6624519487,
				"z": -0.5291370217,
				"element": "H" 
			},
			{
				"x": 4.7954644355,
				"y": 0.7825823842,
				"z": -2.0554800221,
				"element": "H" 
			},
			{
				"x": 4.9880185099,
				"y": -0.0590808783,
				"z": -0.5089388696,
				"element": "H" 
			}
		],
		 "valence_orbital": [ 
			{
				"type": "occ",
				"energy": -0.29125,
				"method": "rhf"
			},
			{
				"type": "occ",
				"energy": -0.27386,
				"method": "rhf"
			},
			{
				"type": "occ",
				"energy": -0.26572,
				"method": "rhf"
			},
			{
				"type": "occ",
				"energy": -0.25349,
				"method": "rhf"
			},
			{
				"type": "occ",
				"energy": -0.23525,
				"method": "rhf"
			},
			{
				"type": "unocc",
				"energy": -0.03288,
				"method": "rhf"
			},
			{
				"type": "unocc",
				"energy": -0.01652,
				"method": "rhf"
			},
			{
				"type": "unocc",
				"energy": 0.01842,
				"method": "rhf"
			},
			{
				"type": "unocc",
				"energy": 0.06008,
				"method": "rhf"
			},
			{
				"type": "unocc",
				"energy": 0.07772,
				"method": "rhf"
			}
		],
		"cosmo_sigma_profile": { 
			"-0.025": 0.0,
			"-0.024": 0.0,
			"-0.023": 0.0,
			"-0.022": 0.0,
			"-0.021": 0.0,
			"-0.02": 0.0,
			"-0.019": 0.0,
			"-0.018": 0.0,
			"-0.017": 0.0,
			"-0.016": 0.0,
			"-0.015": 0.0,
			"-0.014": 0.0199194558164,
			"-0.013": 0.427084809059,
			"-0.012": 1.42943622444,
			"-0.011": 1.23226593234,
			"-0.01": 1.25218377821,
			"-0.009": 1.29169455623,
			"-0.008": 2.16975713014,
			"-0.007": 3.58006531796,
			"-0.006": 9.08569045157,
			"-0.005": 15.4463973933,
			"-0.004": 25.7921179401,
			"-0.003": 35.8758204011,
			"-0.002": 40.7282086104,
			"-0.001": 41.1026773859,
			"0.0": 40.3925298922,
			"0.001": 34.7277661461,
			"0.002": 20.9497597779,
			"0.003": 20.3133219948,
			"0.004": 13.5667144958,
			"0.005": 6.52679768255,
			"0.006": 6.33147424035,
			"0.007": 4.49877496397,
			"0.008": 4.70296911407,
			"0.009": 4.09410935716,
			"0.01": 4.89999375176,
			"0.011": 8.37696976506,
			"0.012": 4.87364608418,
			"0.013": 0.0370315692803,
			"0.014": 0.0,
			"0.015": 0.0,
			"0.016": 0.0,
			"0.017": 0.0,
			"0.018": 0.0,
			"0.019": 0.0,
			"0.02": 0.0,
			"0.021": 0.0,
			"0.022": 0.0,
			"0.023": 0.0,
			"0.024": 0.0,
			"0.025": 0.0
		}
	}
}
