{
	 "smiles": "COC(=O)C1=C(C)NC(=S)NC1C1=CC=CC=C1", 
	 "Tm": 497.15, 
	 "num_atms": 32, 
	 "gaussian": { 
		 "optdone": 1, 
		 "sigma_profile": "yes", 
		 "theory": "DFT", 
		 "functional": "B3LYP", 
		 "basiset": "6-31G**", 
		 "properties": { 
			 "R2extent": 5240.7392, 
			 "electric_dipole_moment_norm": 4.69325789724, 
			 "electric_quadrupole_moment_norm": 17.4696354086, 
			 "total_energy": -1161.98370345, 
			 "HOMO_LUMO_gap": 0.15628, 
			 "cosmo_polarized_energy": -17.78, 
			 "cosmo_cavitation_energy": 36.76, 
			 "cosmo_dispersion_energy": -26.26, 
			 "cosmo_repulsion_energy": 2.0, 
			 "cosmo_total_nonelectrostatic_energy": 12.5, 
			 "SMD_solvation_energy": 5.89 
		},
		"coords": [
			{
				"x": 0.385952727,
				"y": 4.0598079505,
				"z": 0.5052329674,
				"element": "C" 
			},
			{
				"x": 0.1791468371,
				"y": 2.8917877688,
				"z": -0.3050672272,
				"element": "O" 
			},
			{
				"x": 0.5730818343,
				"y": 1.7232537999,
				"z": 0.2627040816,
				"element": "C" 
			},
			{
				"x": 1.0710801023,
				"y": 1.6832720718,
				"z": 1.3781616944,
				"element": "O" 
			},
			{
				"x": 0.3744201826,
				"y": 0.5358806948,
				"z": -0.5770937444,
				"element": "C" 
			},
			{
				"x": -0.0716164678,
				"y": 0.5305300475,
				"z": -1.8638533,
				"element": "C" 
			},
			{
				"x": -0.5806593278,
				"y": 1.6999628572,
				"z": -2.667695017,
				"element": "C" 
			},
			{
				"x": -0.0491167935,
				"y": -0.6659757214,
				"z": -2.5673655348,
				"element": "N" 
			},
			{
				"x": 0.6484085787,
				"y": -1.7966376005,
				"z": -2.1858153222,
				"element": "C" 
			},
			{
				"x": 0.845619951,
				"y": -3.0837742632,
				"z": -3.2404025674,
				"element": "S" 
			},
			{
				"x": 1.1546881799,
				"y": -1.7432617641,
				"z": -0.9386237567,
				"element": "N" 
			},
			{
				"x": 0.7455008252,
				"y": -0.7830996062,
				"z": 0.0949341215,
				"element": "C" 
			},
			{
				"x": -0.3715075784,
				"y": -1.3338911857,
				"z": 0.9907761648,
				"element": "C" 
			},
			{
				"x": -1.3573468029,
				"y": -2.1955131053,
				"z": 0.4915988174,
				"element": "C" 
			},
			{
				"x": -2.3722969492,
				"y": -2.6680909388,
				"z": 1.325325563,
				"element": "C" 
			},
			{
				"x": -2.41492622,
				"y": -2.287623785,
				"z": 2.6674463363,
				"element": "C" 
			},
			{
				"x": -1.4333919539,
				"y": -1.4328998033,
				"z": 3.172500561,
				"element": "C" 
			},
			{
				"x": -0.4168610188,
				"y": -0.9612007621,
				"z": 2.3415178133,
				"element": "C" 
			},
			{
				"x": 0.0183545221,
				"y": 4.8965367717,
				"z": -0.0891519572,
				"element": "H" 
			},
			{
				"x": -0.1687419543,
				"y": 3.9822971221,
				"z": 1.4434521197,
				"element": "H" 
			},
			{
				"x": 1.4465806583,
				"y": 4.1884717816,
				"z": 0.7343514704,
				"element": "H" 
			},
			{
				"x": 0.2341955165,
				"y": 2.3876877437,
				"z": -2.9107273161,
				"element": "H" 
			},
			{
				"x": -1.0295625834,
				"y": 1.3541815756,
				"z": -3.6033219688,
				"element": "H" 
			},
			{
				"x": -1.3222187238,
				"y": 2.2688530233,
				"z": -2.1077273791,
				"element": "H" 
			},
			{
				"x": -0.3790887783,
				"y": -0.6879981929,
				"z": -3.5215189539,
				"element": "H" 
			},
			{
				"x": 1.6295884785,
				"y": -2.5846220144,
				"z": -0.6414019985,
				"element": "H" 
			},
			{
				"x": 1.6170659761,
				"y": -0.594290861,
				"z": 0.7273580462,
				"element": "H" 
			},
			{
				"x": -1.3312980184,
				"y": -2.517647349,
				"z": -0.5447193918,
				"element": "H" 
			},
			{
				"x": -3.1263234307,
				"y": -3.3396649094,
				"z": 0.924551319,
				"element": "H" 
			},
			{
				"x": -3.2032053624,
				"y": -2.6593810568,
				"z": 3.3158444246,
				"element": "H" 
			},
			{
				"x": -1.4538703948,
				"y": -1.1365758717,
				"z": 4.2175719659,
				"element": "H" 
			},
			{
				"x": 0.339347989,
				"y": -0.2867744179,
				"z": 2.7298579687,
				"element": "H" 
			}
		],
		 "valence_orbital": [ 
			{
				"type": "occ",
				"energy": -0.25003,
				"method": "rhf"
			},
			{
				"type": "occ",
				"energy": -0.24771,
				"method": "rhf"
			},
			{
				"type": "occ",
				"energy": -0.2417,
				"method": "rhf"
			},
			{
				"type": "occ",
				"energy": -0.21929,
				"method": "rhf"
			},
			{
				"type": "occ",
				"energy": -0.21426,
				"method": "rhf"
			},
			{
				"type": "unocc",
				"energy": -0.05798,
				"method": "rhf"
			},
			{
				"type": "unocc",
				"energy": -0.00369,
				"method": "rhf"
			},
			{
				"type": "unocc",
				"energy": -0.00219,
				"method": "rhf"
			},
			{
				"type": "unocc",
				"energy": 0.01135,
				"method": "rhf"
			},
			{
				"type": "unocc",
				"energy": 0.05503,
				"method": "rhf"
			}
		],
		"cosmo_sigma_profile": { 
			"-0.025": 0.0,
			"-0.024": 0.0,
			"-0.023": 0.0,
			"-0.022": 0.0,
			"-0.021": 0.0,
			"-0.02": 0.0,
			"-0.019": 0.0,
			"-0.018": 0.0,
			"-0.017": 0.0,
			"-0.016": 0.297746348448,
			"-0.015": 2.02560754017,
			"-0.014": 2.11459957119,
			"-0.013": 1.58428714908,
			"-0.012": 2.22194062712,
			"-0.011": 1.83347239612,
			"-0.01": 2.41905263204,
			"-0.009": 1.90768139097,
			"-0.008": 2.27618589076,
			"-0.007": 3.27887811408,
			"-0.006": 10.8832970805,
			"-0.005": 20.4721010059,
			"-0.004": 24.8263770741,
			"-0.003": 29.841345708,
			"-0.002": 25.8316077775,
			"-0.001": 22.5001472114,
			"0.0": 17.1507030001,
			"0.001": 16.1075007147,
			"0.002": 16.0278512255,
			"0.003": 15.2948307423,
			"0.004": 14.0268696941,
			"0.005": 13.9351579758,
			"0.006": 10.5691013676,
			"0.007": 4.29736900281,
			"0.008": 6.570119616,
			"0.009": 6.18222737452,
			"0.01": 9.41062726937,
			"0.011": 6.50163753058,
			"0.012": 3.97774347229,
			"0.013": 0.792591696082,
			"0.014": 0.0,
			"0.015": 0.0,
			"0.016": 0.0,
			"0.017": 0.0,
			"0.018": 0.0,
			"0.019": 0.0,
			"0.02": 0.0,
			"0.021": 0.0,
			"0.022": 0.0,
			"0.023": 0.0,
			"0.024": 0.0,
			"0.025": 0.0
		}
	}
}
