{
	 "smiles": "CC1=C(C=CC=C1)C(N)CO", 
	 "Tm": 373.15, 
	 "num_atms": 24, 
	 "gaussian": { 
		 "optdone": 1, 
		 "sigma_profile": "yes", 
		 "theory": "DFT", 
		 "functional": "B3LYP", 
		 "basiset": "6-31G**", 
		 "properties": { 
			 "R2extent": 2030.9886, 
			 "electric_dipole_moment_norm": 1.92080791596, 
			 "electric_quadrupole_moment_norm": 6.02997208866, 
			 "total_energy": -480.755701956, 
			 "HOMO_LUMO_gap": 0.2244, 
			 "cosmo_polarized_energy": -12.08, 
			 "cosmo_cavitation_energy": 26.06, 
			 "cosmo_dispersion_energy": -18.79, 
			 "cosmo_repulsion_energy": 1.52, 
			 "cosmo_total_nonelectrostatic_energy": 8.79, 
			 "SMD_solvation_energy": 3.32 
		},
		"coords": [
			{
				"x": -1.484961889,
				"y": -2.3918887355,
				"z": 0.1547401124,
				"element": "C" 
			},
			{
				"x": -0.2916105258,
				"y": -1.4781632072,
				"z": -0.0332670062,
				"element": "C" 
			},
			{
				"x": -0.3932000636,
				"y": -0.2378339148,
				"z": -0.7060550567,
				"element": "C" 
			},
			{
				"x": 0.7535696976,
				"y": 0.5586606713,
				"z": -0.8263283121,
				"element": "C" 
			},
			{
				"x": 1.9845633531,
				"y": 0.1501509775,
				"z": -0.3128280324,
				"element": "C" 
			},
			{
				"x": 2.0856515702,
				"y": -1.074982199,
				"z": 0.3423846138,
				"element": "C" 
			},
			{
				"x": 0.9505719199,
				"y": -1.8738627956,
				"z": 0.4786294088,
				"element": "C" 
			},
			{
				"x": -1.7110170682,
				"y": 0.1889251217,
				"z": -1.3534616982,
				"element": "C" 
			},
			{
				"x": -1.9150114033,
				"y": -0.3572927372,
				"z": -2.7120702252,
				"element": "N" 
			},
			{
				"x": -1.9211744159,
				"y": 1.7099943096,
				"z": -1.4580747216,
				"element": "C" 
			},
			{
				"x": -1.7097153681,
				"y": 2.4143986122,
				"z": -0.2459738985,
				"element": "O" 
			},
			{
				"x": -2.2915407877,
				"y": -1.9089863438,
				"z": 0.7190979165,
				"element": "H" 
			},
			{
				"x": -1.9171911207,
				"y": -2.7189001884,
				"z": -0.798580956,
				"element": "H" 
			},
			{
				"x": -1.1973890512,
				"y": -3.2923528405,
				"z": 0.7037808989,
				"element": "H" 
			},
			{
				"x": 0.6848197712,
				"y": 1.5267707767,
				"z": -1.3109485387,
				"element": "H" 
			},
			{
				"x": 2.8549676711,
				"y": 0.7914954077,
				"z": -0.4186885653,
				"element": "H" 
			},
			{
				"x": 3.0363419856,
				"y": -1.4060825777,
				"z": 0.7506711373,
				"element": "H" 
			},
			{
				"x": 1.0256496978,
				"y": -2.8273438804,
				"z": 0.9961742724,
				"element": "H" 
			},
			{
				"x": -2.5366516135,
				"y": -0.2004556258,
				"z": -0.7435938849,
				"element": "H" 
			},
			{
				"x": -1.0763828184,
				"y": -0.1814189922,
				"z": -3.2632838261,
				"element": "H" 
			},
			{
				"x": -2.0070851048,
				"y": -1.3692342123,
				"z": -2.6700367772,
				"element": "H" 
			},
			{
				"x": -2.9279173794,
				"y": 1.8745716288,
				"z": -1.8669459338,
				"element": "H" 
			},
			{
				"x": -1.2170702381,
				"y": 2.1391316583,
				"z": -2.1798662277,
				"element": "H" 
			},
			{
				"x": -2.3213168187,
				"y": 2.0635990867,
				"z": 0.4141253006,
				"element": "H" 
			}
		],
		 "valence_orbital": [ 
			{
				"type": "occ",
				"energy": -0.31414,
				"method": "rhf"
			},
			{
				"type": "occ",
				"energy": -0.2669,
				"method": "rhf"
			},
			{
				"type": "occ",
				"energy": -0.25395,
				"method": "rhf"
			},
			{
				"type": "occ",
				"energy": -0.2389,
				"method": "rhf"
			},
			{
				"type": "occ",
				"energy": -0.2262,
				"method": "rhf"
			},
			{
				"type": "unocc",
				"energy": -0.0018,
				"method": "rhf"
			},
			{
				"type": "unocc",
				"energy": 0.00575,
				"method": "rhf"
			},
			{
				"type": "unocc",
				"energy": 0.07249,
				"method": "rhf"
			},
			{
				"type": "unocc",
				"energy": 0.07593,
				"method": "rhf"
			},
			{
				"type": "unocc",
				"energy": 0.101,
				"method": "rhf"
			}
		],
		"cosmo_sigma_profile": { 
			"-0.025": 0.0,
			"-0.024": 0.0,
			"-0.023": 0.0,
			"-0.022": 0.0,
			"-0.021": 0.0,
			"-0.02": 0.0,
			"-0.019": 0.0,
			"-0.018": 0.0,
			"-0.017": 0.0,
			"-0.016": 0.086680259823,
			"-0.015": 0.855611615737,
			"-0.014": 1.38288001442,
			"-0.013": 0.811994821017,
			"-0.012": 0.436629400157,
			"-0.011": 1.05457730874,
			"-0.01": 1.40036212913,
			"-0.009": 3.54400993098,
			"-0.008": 4.27111272146,
			"-0.007": 5.05055146799,
			"-0.006": 6.68222063786,
			"-0.005": 13.9187086153,
			"-0.004": 18.7975544478,
			"-0.003": 19.0122786281,
			"-0.002": 16.5468668275,
			"-0.001": 15.1187487724,
			"0.0": 14.6259214492,
			"0.001": 11.4847681905,
			"0.002": 8.5927419384,
			"0.003": 7.63857223698,
			"0.004": 7.87540546641,
			"0.005": 9.27156928633,
			"0.006": 8.09687235323,
			"0.007": 7.3736827762,
			"0.008": 2.77839782521,
			"0.009": 2.51738128804,
			"0.01": 1.80234801901,
			"0.011": 2.70919826862,
			"0.012": 2.13730920298,
			"0.013": 2.44694770601,
			"0.014": 2.39375917284,
			"0.015": 1.13103142652,
			"0.016": 0.484588579794,
			"0.017": 0.685098375169,
			"0.018": 0.504580592622,
			"0.019": 0.280840814522,
			"0.02": 0.0,
			"0.021": 0.0,
			"0.022": 0.0,
			"0.023": 0.0,
			"0.024": 0.0,
			"0.025": 0.0
		}
	}
}
