{
	 "smiles": "CCN(CCO)C1=CC(C)=CC=C1", 
	 "Tm": 254.15, 
	 "num_atms": 30, 
	 "gaussian": { 
		 "optdone": 1, 
		 "sigma_profile": "yes", 
		 "theory": "DFT", 
		 "functional": "B3LYP", 
		 "basiset": "6-31G**", 
		 "properties": { 
			 "R2extent": 3087.0922, 
			 "electric_dipole_moment_norm": 2.52571012984, 
			 "electric_quadrupole_moment_norm": 9.77169887379, 
			 "total_energy": -559.383930265, 
			 "HOMO_LUMO_gap": 0.19361, 
			 "cosmo_polarized_energy": -10.29, 
			 "cosmo_cavitation_energy": 31.55, 
			 "cosmo_dispersion_energy": -22.34, 
			 "cosmo_repulsion_energy": 1.79, 
			 "cosmo_total_nonelectrostatic_energy": 11.01, 
			 "SMD_solvation_energy": 5.15 
		},
		"coords": [
			{
				"x": 0.8629541956,
				"y": -2.8663132375,
				"z": -1.878681402,
				"element": "C" 
			},
			{
				"x": -0.163689843,
				"y": -1.7247361179,
				"z": -1.8491089636,
				"element": "C" 
			},
			{
				"x": -0.1827476286,
				"y": -0.9673286442,
				"z": -0.6024077676,
				"element": "N" 
			},
			{
				"x": -1.0704408397,
				"y": -1.4516920326,
				"z": 0.4429745799,
				"element": "C" 
			},
			{
				"x": -2.4358559792,
				"y": -0.7430836849,
				"z": 0.466577786,
				"element": "C" 
			},
			{
				"x": -3.2591882843,
				"y": -1.2119827521,
				"z": 1.5246620835,
				"element": "O" 
			},
			{
				"x": 0.7016315116,
				"y": 0.0876587371,
				"z": -0.3768054436,
				"element": "C" 
			},
			{
				"x": 0.631606776,
				"y": 0.8631630025,
				"z": 0.8035706861,
				"element": "C" 
			},
			{
				"x": 1.5040514724,
				"y": 1.9268784999,
				"z": 1.045645778,
				"element": "C" 
			},
			{
				"x": 1.4087417489,
				"y": 2.7053989653,
				"z": 2.3383233232,
				"element": "C" 
			},
			{
				"x": 2.4744580726,
				"y": 2.2521864246,
				"z": 0.0894387156,
				"element": "C" 
			},
			{
				"x": 2.555397969,
				"y": 1.5019834341,
				"z": -1.081464491,
				"element": "C" 
			},
			{
				"x": 1.6941407998,
				"y": 0.4339182039,
				"z": -1.3208197506,
				"element": "C" 
			},
			{
				"x": 0.6662223426,
				"y": -3.5892413705,
				"z": -1.0799843984,
				"element": "H" 
			},
			{
				"x": 0.819893281,
				"y": -3.3994790848,
				"z": -2.8349385923,
				"element": "H" 
			},
			{
				"x": 1.8792582073,
				"y": -2.4867710129,
				"z": -1.7419128803,
				"element": "H" 
			},
			{
				"x": 0.0058406528,
				"y": -1.038412717,
				"z": -2.6850896102,
				"element": "H" 
			},
			{
				"x": -1.1686614781,
				"y": -2.1343243512,
				"z": -2.0031084332,
				"element": "H" 
			},
			{
				"x": -1.231034556,
				"y": -2.5273940938,
				"z": 0.2888732156,
				"element": "H" 
			},
			{
				"x": -0.6008126306,
				"y": -1.3560516825,
				"z": 1.427201453,
				"element": "H" 
			},
			{
				"x": -2.2949473294,
				"y": 0.3275264638,
				"z": 0.6393735839,
				"element": "H" 
			},
			{
				"x": -2.9254071619,
				"y": -0.8489935473,
				"z": -0.5145798701,
				"element": "H" 
			},
			{
				"x": -3.4868201014,
				"y": -2.1324557133,
				"z": 1.3404264709,
				"element": "H" 
			},
			{
				"x": -0.1268069012,
				"y": 0.6509247847,
				"z": 1.5486408937,
				"element": "H" 
			},
			{
				"x": 0.4204132413,
				"y": 2.6072052613,
				"z": 2.7971091184,
				"element": "H" 
			},
			{
				"x": 1.6029898768,
				"y": 3.7706367532,
				"z": 2.177196442,
				"element": "H" 
			},
			{
				"x": 2.1459521788,
				"y": 2.350139299,
				"z": 3.0694489624,
				"element": "H" 
			},
			{
				"x": 3.1542053948,
				"y": 3.0821212484,
				"z": 0.2609277192,
				"element": "H" 
			},
			{
				"x": 3.3068818273,
				"y": 1.7454139217,
				"z": -1.8282820304,
				"element": "H" 
			},
			{
				"x": 1.806873185,
				"y": -0.1294949569,
				"z": -2.2387071784,
				"element": "H" 
			}
		],
		 "valence_orbital": [ 
			{
				"type": "occ",
				"energy": -0.32105,
				"method": "rhf"
			},
			{
				"type": "occ",
				"energy": -0.28636,
				"method": "rhf"
			},
			{
				"type": "occ",
				"energy": -0.26383,
				"method": "rhf"
			},
			{
				"type": "occ",
				"energy": -0.22956,
				"method": "rhf"
			},
			{
				"type": "occ",
				"energy": -0.18136,
				"method": "rhf"
			},
			{
				"type": "unocc",
				"energy": 0.01225,
				"method": "rhf"
			},
			{
				"type": "unocc",
				"energy": 0.02652,
				"method": "rhf"
			},
			{
				"type": "unocc",
				"energy": 0.06519,
				"method": "rhf"
			},
			{
				"type": "unocc",
				"energy": 0.08497,
				"method": "rhf"
			},
			{
				"type": "unocc",
				"energy": 0.10336,
				"method": "rhf"
			}
		],
		"cosmo_sigma_profile": { 
			"-0.025": 0.0,
			"-0.024": 0.0,
			"-0.023": 0.0,
			"-0.022": 0.0,
			"-0.021": 0.0,
			"-0.02": 0.0,
			"-0.019": 0.0,
			"-0.018": 0.0,
			"-0.017": 0.0,
			"-0.016": 0.283403825937,
			"-0.015": 1.13175368849,
			"-0.014": 0.74242809568,
			"-0.013": 0.979032466595,
			"-0.012": 1.13128481218,
			"-0.011": 1.46288489031,
			"-0.01": 0.555646999028,
			"-0.009": 0.665292048944,
			"-0.008": 0.948978689587,
			"-0.007": 1.50465538827,
			"-0.006": 2.24125761976,
			"-0.005": 9.88410612219,
			"-0.004": 23.6141634016,
			"-0.003": 29.6000673627,
			"-0.002": 28.9390976314,
			"-0.001": 26.9566680794,
			"0.0": 24.4334292518,
			"0.001": 19.9877913366,
			"0.002": 11.3431483506,
			"0.003": 10.0053411049,
			"0.004": 8.66549386816,
			"0.005": 8.52085841595,
			"0.006": 7.37532512801,
			"0.007": 8.7805751806,
			"0.008": 6.55680976018,
			"0.009": 1.13931736614,
			"0.01": 1.78012170327,
			"0.011": 1.38606350651,
			"0.012": 1.34709462449,
			"0.013": 1.2605124293,
			"0.014": 2.70069093164,
			"0.015": 0.651287744876,
			"0.016": 0.0,
			"0.017": 0.0,
			"0.018": 0.0,
			"0.019": 0.0,
			"0.02": 0.0,
			"0.021": 0.0,
			"0.022": 0.0,
			"0.023": 0.0,
			"0.024": 0.0,
			"0.025": 0.0
		}
	}
}
