{
	 "smiles": "CCC(CCC(C)C1CCC2C3CC=C4CC(O)CCC4(C)C3CCC12C)C(C)C", 
	 "Tm": 420.15, 
	 "num_atms": 80, 
	 "gaussian": { 
		 "optdone": 1, 
		 "sigma_profile": "yes", 
		 "theory": "DFT", 
		 "functional": "B3LYP", 
		 "basiset": "6-31G**", 
		 "properties": { 
			 "R2extent": 17068.6492, 
			 "electric_dipole_moment_norm": 1.61537753791, 
			 "electric_quadrupole_moment_norm": 11.8592599617, 
			 "total_energy": -1210.46467443, 
			 "HOMO_LUMO_gap": 0.25691, 
			 "cosmo_polarized_energy": -6.71, 
			 "cosmo_cavitation_energy": 66.61, 
			 "cosmo_dispersion_energy": -43.3, 
			 "cosmo_repulsion_energy": 3.25, 
			 "cosmo_total_nonelectrostatic_energy": 26.57, 
			 "SMD_solvation_energy": 9.35 
		},
		"coords": [
			{
				"x": -3.0018654966,
				"y": -3.3625274189,
				"z": -4.9211702869,
				"element": "C" 
			},
			{
				"x": -1.6529776503,
				"y": -2.8868692755,
				"z": -5.4729941932,
				"element": "C" 
			},
			{
				"x": -0.5701236958,
				"y": -2.6136670808,
				"z": -4.4060879197,
				"element": "C" 
			},
			{
				"x": -0.9732211023,
				"y": -1.4702008098,
				"z": -3.4312314932,
				"element": "C" 
			},
			{
				"x": -1.4687497235,
				"y": -1.9643811702,
				"z": -2.0596421315,
				"element": "C" 
			},
			{
				"x": -1.7435847039,
				"y": -0.8460214979,
				"z": -1.0283144914,
				"element": "C" 
			},
			{
				"x": -2.7708110569,
				"y": 0.1565639386,
				"z": -1.591590534,
				"element": "C" 
			},
			{
				"x": -2.234974941,
				"y": -1.376780068,
				"z": 0.3609519507,
				"element": "C" 
			},
			{
				"x": -1.6590753544,
				"y": -2.7504276859,
				"z": 0.7753512873,
				"element": "C" 
			},
			{
				"x": -0.2828776513,
				"y": -2.4152595566,
				"z": 1.3567767989,
				"element": "C" 
			},
			{
				"x": -0.5082678841,
				"y": -1.114560752,
				"z": 2.1673816838,
				"element": "C" 
			},
			{
				"x": 0.6991732576,
				"y": -0.1578422069,
				"z": 2.1373597523,
				"element": "C" 
			},
			{
				"x": 1.954739067,
				"y": -0.8147609049,
				"z": 2.7318630671,
				"element": "C" 
			},
			{
				"x": 3.0875203941,
				"y": 0.1658250949,
				"z": 2.869338525,
				"element": "C" 
			},
			{
				"x": 2.9396366255,
				"y": 1.4967413775,
				"z": 2.8745815415,
				"element": "C" 
			},
			{
				"x": 4.1424727034,
				"y": 2.4180772827,
				"z": 2.8662461497,
				"element": "C" 
			},
			{
				"x": 4.0550961171,
				"y": 3.4786636698,
				"z": 1.7362004116,
				"element": "C" 
			},
			{
				"x": 3.8248666571,
				"y": 4.7504409079,
				"z": 2.3563677764,
				"element": "O" 
			},
			{
				"x": 2.944587363,
				"y": 3.113303099,
				"z": 0.7449849883,
				"element": "C" 
			},
			{
				"x": 1.5574629817,
				"y": 2.9691362071,
				"z": 1.4046775871,
				"element": "C" 
			},
			{
				"x": 1.5805601069,
				"y": 2.1878436962,
				"z": 2.7719541508,
				"element": "C" 
			},
			{
				"x": 1.4353306895,
				"y": 3.2000226354,
				"z": 3.93912712,
				"element": "C" 
			},
			{
				"x": 0.4146926415,
				"y": 1.1537608421,
				"z": 2.8989813051,
				"element": "C" 
			},
			{
				"x": -0.982556635,
				"y": 1.7462953613,
				"z": 2.5418500944,
				"element": "C" 
			},
			{
				"x": -1.678792893,
				"y": 1.0268044191,
				"z": 1.3729361586,
				"element": "C" 
			},
			{
				"x": -1.8578402095,
				"y": -0.4881484683,
				"z": 1.6210893254,
				"element": "C" 
			},
			{
				"x": -2.9741482951,
				"y": -0.6731281987,
				"z": 2.6757400624,
				"element": "C" 
			},
			{
				"x": 0.8227261706,
				"y": -2.398759534,
				"z": -5.0682472674,
				"element": "C" 
			},
			{
				"x": 1.9651465,
				"y": -2.4807331121,
				"z": -4.0432017513,
				"element": "C" 
			},
			{
				"x": 0.9279034055,
				"y": -1.1057110634,
				"z": -5.8943699638,
				"element": "C" 
			},
			{
				"x": -2.888166435,
				"y": -4.2727506765,
				"z": -4.3209975623,
				"element": "H" 
			},
			{
				"x": -3.474971568,
				"y": -2.6048863252,
				"z": -4.2882546182,
				"element": "H" 
			},
			{
				"x": -3.6986264619,
				"y": -3.5878014046,
				"z": -5.7356679411,
				"element": "H" 
			},
			{
				"x": -1.2715087295,
				"y": -3.6452776068,
				"z": -6.1701513918,
				"element": "H" 
			},
			{
				"x": -1.8145662298,
				"y": -1.9797886555,
				"z": -6.0703186643,
				"element": "H" 
			},
			{
				"x": -0.4739884668,
				"y": -3.5372566722,
				"z": -3.8140587736,
				"element": "H" 
			},
			{
				"x": -1.7350089772,
				"y": -0.8437366261,
				"z": -3.9092282497,
				"element": "H" 
			},
			{
				"x": -0.116757378,
				"y": -0.8066789113,
				"z": -3.2556174159,
				"element": "H" 
			},
			{
				"x": -2.3737262642,
				"y": -2.5739716123,
				"z": -2.1878769202,
				"element": "H" 
			},
			{
				"x": -0.7016917486,
				"y": -2.6400161572,
				"z": -1.664793811,
				"element": "H" 
			},
			{
				"x": -0.7899058647,
				"y": -0.3174947005,
				"z": -0.8893223503,
				"element": "H" 
			},
			{
				"x": -3.6773834809,
				"y": -0.3730811562,
				"z": -1.911283222,
				"element": "H" 
			},
			{
				"x": -3.0732924948,
				"y": 0.8967683074,
				"z": -0.8486369449,
				"element": "H" 
			},
			{
				"x": -2.382376204,
				"y": 0.7017297855,
				"z": -2.4567149697,
				"element": "H" 
			},
			{
				"x": -3.3288436953,
				"y": -1.4487065712,
				"z": 0.29204515,
				"element": "H" 
			},
			{
				"x": -2.2927384032,
				"y": -3.1864267645,
				"z": 1.5562106673,
				"element": "H" 
			},
			{
				"x": -1.6257806503,
				"y": -3.4834008038,
				"z": -0.0330063969,
				"element": "H" 
			},
			{
				"x": 0.1362504953,
				"y": -3.2260064689,
				"z": 1.9614829117,
				"element": "H" 
			},
			{
				"x": 0.4286868652,
				"y": -2.2282898625,
				"z": 0.5407391195,
				"element": "H" 
			},
			{
				"x": -0.6676240224,
				"y": -1.3849319717,
				"z": 3.2214901128,
				"element": "H" 
			},
			{
				"x": 0.9214921625,
				"y": 0.0825677758,
				"z": 1.08588388,
				"element": "H" 
			},
			{
				"x": 2.2794380373,
				"y": -1.655989464,
				"z": 2.1065154258,
				"element": "H" 
			},
			{
				"x": 1.7061179615,
				"y": -1.2560097721,
				"z": 3.7112347067,
				"element": "H" 
			},
			{
				"x": 4.0931760462,
				"y": -0.2502024608,
				"z": 2.9361637018,
				"element": "H" 
			},
			{
				"x": 5.0523169283,
				"y": 1.8215196455,
				"z": 2.7469748943,
				"element": "H" 
			},
			{
				"x": 4.2436351911,
				"y": 2.9647960566,
				"z": 3.8110252172,
				"element": "H" 
			},
			{
				"x": 5.0159563627,
				"y": 3.5131268837,
				"z": 1.1993373075,
				"element": "H" 
			},
			{
				"x": 3.7022743017,
				"y": 5.4038145481,
				"z": 1.6549117699,
				"element": "H" 
			},
			{
				"x": 2.8997662875,
				"y": 3.8576221927,
				"z": -0.0623446948,
				"element": "H" 
			},
			{
				"x": 3.2271062751,
				"y": 2.164910063,
				"z": 0.2713272192,
				"element": "H" 
			},
			{
				"x": 1.1302737388,
				"y": 3.9645924658,
				"z": 1.5658675321,
				"element": "H" 
			},
			{
				"x": 0.8993144498,
				"y": 2.4630735165,
				"z": 0.6903648874,
				"element": "H" 
			},
			{
				"x": 0.4293056837,
				"y": 3.6334973168,
				"z": 3.9411157073,
				"element": "H" 
			},
			{
				"x": 2.1488726979,
				"y": 4.0208494387,
				"z": 3.8494515679,
				"element": "H" 
			},
			{
				"x": 1.5868032394,
				"y": 2.7034064483,
				"z": 4.9042866975,
				"element": "H" 
			},
			{
				"x": 0.390515229,
				"y": 0.8730843691,
				"z": 3.9622762427,
				"element": "H" 
			},
			{
				"x": -0.8986158051,
				"y": 2.8077168816,
				"z": 2.2876055797,
				"element": "H" 
			},
			{
				"x": -1.6300120228,
				"y": 1.7124007699,
				"z": 3.4244158705,
				"element": "H" 
			},
			{
				"x": -1.0957412199,
				"y": 1.2011418974,
				"z": 0.4637723745,
				"element": "H" 
			},
			{
				"x": -2.656076636,
				"y": 1.495432467,
				"z": 1.2034230078,
				"element": "H" 
			},
			{
				"x": -3.1492983711,
				"y": -1.7295516358,
				"z": 2.9013665348,
				"element": "H" 
			},
			{
				"x": -2.7206770446,
				"y": -0.1826797879,
				"z": 3.6211936353,
				"element": "H" 
			},
			{
				"x": -3.9199373722,
				"y": -0.246685574,
				"z": 2.3215038681,
				"element": "H" 
			},
			{
				"x": 0.9599212552,
				"y": -3.2395327033,
				"z": -5.7644972707,
				"element": "H" 
			},
			{
				"x": 1.9335174374,
				"y": -3.423613888,
				"z": -3.4858043085,
				"element": "H" 
			},
			{
				"x": 1.9208113601,
				"y": -1.6623780132,
				"z": -3.3153256383,
				"element": "H" 
			},
			{
				"x": 2.9396843106,
				"y": -2.4189854411,
				"z": -4.5400309528,
				"element": "H" 
			},
			{
				"x": 0.1706082476,
				"y": -1.0579417232,
				"z": -6.6828215514,
				"element": "H" 
			},
			{
				"x": 1.9090070698,
				"y": -1.0383812824,
				"z": -6.3771987232,
				"element": "H" 
			},
			{
				"x": 0.8130165246,
				"y": -0.214895864,
				"z": -5.2665429216,
				"element": "H" 
			}
		],
		 "valence_orbital": [ 
			{
				"type": "occ",
				"energy": -0.27391,
				"method": "rhf"
			},
			{
				"type": "occ",
				"energy": -0.27146,
				"method": "rhf"
			},
			{
				"type": "occ",
				"energy": -0.26873,
				"method": "rhf"
			},
			{
				"type": "occ",
				"energy": -0.25787,
				"method": "rhf"
			},
			{
				"type": "occ",
				"energy": -0.22305,
				"method": "rhf"
			},
			{
				"type": "unocc",
				"energy": 0.03386,
				"method": "rhf"
			},
			{
				"type": "unocc",
				"energy": 0.06559,
				"method": "rhf"
			},
			{
				"type": "unocc",
				"energy": 0.07475,
				"method": "rhf"
			},
			{
				"type": "unocc",
				"energy": 0.07966,
				"method": "rhf"
			},
			{
				"type": "unocc",
				"energy": 0.0848,
				"method": "rhf"
			}
		],
		"cosmo_sigma_profile": { 
			"-0.025": 0.0,
			"-0.024": 0.0,
			"-0.023": 0.0,
			"-0.022": 0.0,
			"-0.021": 0.0,
			"-0.02": 0.0,
			"-0.019": 0.0,
			"-0.018": 0.0,
			"-0.017": 0.0,
			"-0.016": 0.0,
			"-0.015": 0.441127602165,
			"-0.014": 1.09388668728,
			"-0.013": 0.70755333591,
			"-0.012": 0.968126065212,
			"-0.011": 1.14533356459,
			"-0.01": 0.928817790436,
			"-0.009": 0.453879150474,
			"-0.008": 0.870093318706,
			"-0.007": 0.851437514633,
			"-0.006": 1.53050374302,
			"-0.005": 1.30623541937,
			"-0.004": 2.37282747555,
			"-0.003": 18.539544954,
			"-0.002": 68.5273692358,
			"-0.001": 109.823344509,
			"0.0": 113.147528144,
			"0.001": 92.6220185538,
			"0.002": 55.9235664314,
			"0.003": 13.2070298888,
			"0.004": 4.65015971128,
			"0.005": 4.28457994034,
			"0.006": 3.18693346144,
			"0.007": 2.75245397653,
			"0.008": 1.86313452222,
			"0.009": 1.25588057439,
			"0.01": 0.822951429502,
			"0.011": 0.948342871669,
			"0.012": 0.902686425216,
			"0.013": 1.04227080088,
			"0.014": 0.802314875394,
			"0.015": 0.391434327861,
			"0.016": 0.0,
			"0.017": 0.0,
			"0.018": 0.0,
			"0.019": 0.0,
			"0.02": 0.0,
			"0.021": 0.0,
			"0.022": 0.0,
			"0.023": 0.0,
			"0.024": 0.0,
			"0.025": 0.0
		}
	}
}
