{
	 "smiles": "CCOC(=O)C(C)OC1=CC=C(OC2=NC3=CC=C(Cl)C=C3O2)C=C1", 
	 "Tm": 363.15, 
	 "num_atms": 41, 
	 "gaussian": { 
		 "optdone": 1, 
		 "sigma_profile": "yes", 
		 "theory": "DFT", 
		 "functional": "B3LYP", 
		 "basiset": "6-31G**", 
		 "properties": { 
			 "R2extent": 13459.9721, 
			 "electric_dipole_moment_norm": 3.33510799076, 
			 "electric_quadrupole_moment_norm": 4.57095495821, 
			 "total_energy": -1586.6083875, 
			 "HOMO_LUMO_gap": 0.19483, 
			 "cosmo_polarized_energy": -14.72, 
			 "cosmo_cavitation_energy": 48.44, 
			 "cosmo_dispersion_energy": -32.83, 
			 "cosmo_repulsion_energy": 2.51, 
			 "cosmo_total_nonelectrostatic_energy": 18.12, 
			 "SMD_solvation_energy": 7.5 
		},
		"coords": [
			{
				"x": -1.0865914465,
				"y": 3.3665289128,
				"z": -0.1474492112,
				"element": "C" 
			},
			{
				"x": -1.1714767152,
				"y": 3.9930686044,
				"z": 1.2352347828,
				"element": "C" 
			},
			{
				"x": -1.1237756793,
				"y": 2.983094045,
				"z": 2.2779103593,
				"element": "O" 
			},
			{
				"x": -2.2866485332,
				"y": 2.4096164517,
				"z": 2.6193588257,
				"element": "C" 
			},
			{
				"x": -3.3666470091,
				"y": 2.6811408693,
				"z": 2.1370380687,
				"element": "O" 
			},
			{
				"x": -2.0911435015,
				"y": 1.4048952665,
				"z": 3.769776172,
				"element": "C" 
			},
			{
				"x": -3.3392093159,
				"y": 0.5751637539,
				"z": 4.0577280879,
				"element": "C" 
			},
			{
				"x": -0.8996736657,
				"y": 0.625856601,
				"z": 3.6420181203,
				"element": "O" 
			},
			{
				"x": -0.6912618406,
				"y": -0.2031664238,
				"z": 2.5742766764,
				"element": "C" 
			},
			{
				"x": 0.4712396838,
				"y": -0.9841701528,
				"z": 2.659121593,
				"element": "C" 
			},
			{
				"x": 0.8133467632,
				"y": -1.8549259651,
				"z": 1.6316652008,
				"element": "C" 
			},
			{
				"x": -0.0131485762,
				"y": -1.9491889057,
				"z": 0.5148806625,
				"element": "C" 
			},
			{
				"x": 0.320761989,
				"y": -2.9057072219,
				"z": -0.4584157517,
				"element": "O" 
			},
			{
				"x": 0.5279661481,
				"y": -2.5433288413,
				"z": -1.7200318808,
				"element": "C" 
			},
			{
				"x": 0.5985345368,
				"y": -3.3573268028,
				"z": -2.7202440201,
				"element": "N" 
			},
			{
				"x": 0.8788242027,
				"y": -2.515339296,
				"z": -3.7993257639,
				"element": "C" 
			},
			{
				"x": 1.0743622534,
				"y": -2.7830185353,
				"z": -5.154295709,
				"element": "C" 
			},
			{
				"x": 1.3340357584,
				"y": -1.704811952,
				"z": -6.003172278,
				"element": "C" 
			},
			{
				"x": 1.3944985567,
				"y": -0.3954926958,
				"z": -5.5032082671,
				"element": "C" 
			},
			{
				"x": 1.7257605865,
				"y": 0.9255904046,
				"z": -6.6169682819,
				"element": "Cl" 
			},
			{
				"x": 1.2023442389,
				"y": -0.0951397917,
				"z": -4.1508397477,
				"element": "C" 
			},
			{
				"x": 0.950229566,
				"y": -1.1904879613,
				"z": -3.3452781944,
				"element": "C" 
			},
			{
				"x": 0.7230907844,
				"y": -1.2096453225,
				"z": -1.9832570957,
				"element": "O" 
			},
			{
				"x": -1.1753673597,
				"y": -1.1948890508,
				"z": 0.4181331132,
				"element": "C" 
			},
			{
				"x": -1.5163779177,
				"y": -0.3129551269,
				"z": 1.4464829501,
				"element": "C" 
			},
			{
				"x": -1.0275608128,
				"y": 4.1550700338,
				"z": -0.9049595301,
				"element": "H" 
			},
			{
				"x": -0.1984141365,
				"y": 2.7347751935,
				"z": -0.235178946,
				"element": "H" 
			},
			{
				"x": -1.9725370727,
				"y": 2.761311696,
				"z": -0.3538427744,
				"element": "H" 
			},
			{
				"x": -0.3074894284,
				"y": 4.6283569971,
				"z": 1.4418280689,
				"element": "H" 
			},
			{
				"x": -2.0888271107,
				"y": 4.574587159,
				"z": 1.353076208,
				"element": "H" 
			},
			{
				"x": -1.8748510123,
				"y": 2.0235170783,
				"z": 4.6494368408,
				"element": "H" 
			},
			{
				"x": -3.6031145492,
				"y": -0.0831727719,
				"z": 3.2285445936,
				"element": "H" 
			},
			{
				"x": -3.166525091,
				"y": -0.0364175895,
				"z": 4.9467143829,
				"element": "H" 
			},
			{
				"x": -4.1860903245,
				"y": 1.2398884586,
				"z": 4.2406100429,
				"element": "H" 
			},
			{
				"x": 1.0956153571,
				"y": -0.8877215358,
				"z": 3.5406098286,
				"element": "H" 
			},
			{
				"x": 1.7090756,
				"y": -2.4640340199,
				"z": 1.6879380602,
				"element": "H" 
			},
			{
				"x": 1.0256877948,
				"y": -3.7972361918,
				"z": -5.5348447054,
				"element": "H" 
			},
			{
				"x": 1.4921985279,
				"y": -1.870936513,
				"z": -7.0626397615,
				"element": "H" 
			},
			{
				"x": 1.251778592,
				"y": 0.9178524039,
				"z": -3.7718994587,
				"element": "H" 
			},
			{
				"x": -1.8191186849,
				"y": -1.2911892132,
				"z": -0.4497490914,
				"element": "H" 
			},
			{
				"x": -2.4242011561,
				"y": 0.2687879513,
				"z": 1.3506178307,
				"element": "H" 
			}
		],
		 "valence_orbital": [ 
			{
				"type": "occ",
				"energy": -0.28288,
				"method": "rhf"
			},
			{
				"type": "occ",
				"energy": -0.26959,
				"method": "rhf"
			},
			{
				"type": "occ",
				"energy": -0.25859,
				"method": "rhf"
			},
			{
				"type": "occ",
				"energy": -0.23505,
				"method": "rhf"
			},
			{
				"type": "occ",
				"energy": -0.22177,
				"method": "rhf"
			},
			{
				"type": "unocc",
				"energy": -0.02694,
				"method": "rhf"
			},
			{
				"type": "unocc",
				"energy": -0.02238,
				"method": "rhf"
			},
			{
				"type": "unocc",
				"energy": -0.00867,
				"method": "rhf"
			},
			{
				"type": "unocc",
				"energy": -0.00594,
				"method": "rhf"
			},
			{
				"type": "unocc",
				"energy": -0.0005,
				"method": "rhf"
			}
		],
		"cosmo_sigma_profile": { 
			"-0.025": 0.0,
			"-0.024": 0.0,
			"-0.023": 0.0,
			"-0.022": 0.0,
			"-0.021": 0.0,
			"-0.02": 0.0,
			"-0.019": 0.0,
			"-0.018": 0.0,
			"-0.017": 0.0,
			"-0.016": 0.0,
			"-0.015": 0.0,
			"-0.014": 0.0,
			"-0.013": 0.0,
			"-0.012": 0.0,
			"-0.011": 0.0,
			"-0.01": 0.0,
			"-0.009": 2.04487389419,
			"-0.008": 8.18036758661,
			"-0.007": 13.56724539,
			"-0.006": 17.589698042,
			"-0.005": 24.158354007,
			"-0.004": 30.2248479722,
			"-0.003": 30.8715112306,
			"-0.002": 27.8721890733,
			"-0.001": 31.0690358888,
			"0.0": 32.3761957954,
			"0.001": 30.0531051821,
			"0.002": 32.871598416,
			"0.003": 32.8232215383,
			"0.004": 22.701108172,
			"0.005": 13.1912206391,
			"0.006": 7.41653642016,
			"0.007": 7.30129494851,
			"0.008": 5.08273364751,
			"0.009": 5.30688442047,
			"0.01": 4.21456158861,
			"0.011": 5.12527213916,
			"0.012": 2.24768994561,
			"0.013": 1.3182165862,
			"0.014": 1.06780656782,
			"0.015": 0.808228840575,
			"0.016": 0.000536431908286,
			"0.017": 0.0,
			"0.018": 0.0,
			"0.019": 0.0,
			"0.02": 0.0,
			"0.021": 0.0,
			"0.022": 0.0,
			"0.023": 0.0,
			"0.024": 0.0,
			"0.025": 0.0
		}
	}
}
