{
	 "smiles": "CC1=CC=C(C)N1C1=CC(Cl)=C(C=C1Cl)[N+]([O-])=O", 
	 "Tm": 356.15, 
	 "num_atms": 28, 
	 "gaussian": { 
		 "optdone": 1, 
		 "sigma_profile": "yes", 
		 "theory": "DFT", 
		 "functional": "B3LYP", 
		 "basiset": "6-31G**", 
		 "properties": { 
			 "R2extent": 5662.0726, 
			 "electric_dipole_moment_norm": 2.75648831124, 
			 "electric_quadrupole_moment_norm": 16.7816847033, 
			 "total_energy": -1643.51863643, 
			 "HOMO_LUMO_gap": 0.09894, 
			 "cosmo_polarized_energy": -10.05, 
			 "cosmo_cavitation_energy": 36.37, 
			 "cosmo_dispersion_energy": -24.78, 
			 "cosmo_repulsion_energy": 1.93, 
			 "cosmo_total_nonelectrostatic_energy": 13.52, 
			 "SMD_solvation_energy": 8.33 
		},
		"coords": [
			{
				"x": 0.9810647154,
				"y": -1.1267494359,
				"z": 2.8174652309,
				"element": "C" 
			},
			{
				"x": -0.2172297839,
				"y": -0.2333674979,
				"z": 2.8529358164,
				"element": "C" 
			},
			{
				"x": -0.9128468873,
				"y": 0.2892820672,
				"z": 3.9166862195,
				"element": "C" 
			},
			{
				"x": -2.0011585252,
				"y": 1.0561809928,
				"z": 3.405909516,
				"element": "C" 
			},
			{
				"x": -1.9675630177,
				"y": 0.9918068281,
				"z": 2.0336474714,
				"element": "C" 
			},
			{
				"x": -2.8494534646,
				"y": 1.6250358817,
				"z": 1.0063410282,
				"element": "C" 
			},
			{
				"x": -0.8691928469,
				"y": 0.1960092698,
				"z": 1.691719412,
				"element": "N" 
			},
			{
				"x": -0.4478687937,
				"y": -0.0915162716,
				"z": 0.3713244201,
				"element": "C" 
			},
			{
				"x": 0.630614875,
				"y": 0.6128224198,
				"z": -0.1719478595,
				"element": "C" 
			},
			{
				"x": 1.0891222797,
				"y": 0.3781953016,
				"z": -1.4692397369,
				"element": "C" 
			},
			{
				"x": 2.4700613388,
				"y": 1.2852777346,
				"z": -2.011597907,
				"element": "Cl" 
			},
			{
				"x": 0.4420754396,
				"y": -0.602750419,
				"z": -2.2352742535,
				"element": "C" 
			},
			{
				"x": -0.6195057994,
				"y": -1.3337916069,
				"z": -1.7037630499,
				"element": "C" 
			},
			{
				"x": -1.0694547316,
				"y": -1.0802831113,
				"z": -0.4135422505,
				"element": "C" 
			},
			{
				"x": -2.3921839029,
				"y": -2.0212171529,
				"z": 0.2199932705,
				"element": "Cl" 
			},
			{
				"x": 0.8169188535,
				"y": -0.9274454795,
				"z": -3.6253560781,
				"element": "N" 
			},
			{
				"x": 1.2676894811,
				"y": -0.0272472644,
				"z": -4.3236659426,
				"element": "O" 
			},
			{
				"x": 0.6190792088,
				"y": -2.0848492453,
				"z": -3.9925525484,
				"element": "O" 
			},
			{
				"x": 1.8392090326,
				"y": -0.6707830062,
				"z": 2.3082553625,
				"element": "H" 
			},
			{
				"x": 0.7754205346,
				"y": -2.0804475262,
				"z": 2.315529085,
				"element": "H" 
			},
			{
				"x": 1.2887769836,
				"y": -1.3522938871,
				"z": 3.8411020013,
				"element": "H" 
			},
			{
				"x": -0.6653411054,
				"y": 0.1278804334,
				"z": 4.9570299982,
				"element": "H" 
			},
			{
				"x": -2.7346750335,
				"y": 1.6040799963,
				"z": 3.9815284779,
				"element": "H" 
			},
			{
				"x": -3.6007151258,
				"y": 2.238708251,
				"z": 1.5087958497,
				"element": "H" 
			},
			{
				"x": -3.3812129309,
				"y": 0.8854956305,
				"z": 0.3955066224,
				"element": "H" 
			},
			{
				"x": -2.2932962721,
				"y": 2.2776655475,
				"z": 0.32172323,
				"element": "H" 
			},
			{
				"x": 1.1171086305,
				"y": 1.3663583244,
				"z": 0.436186412,
				"element": "H" 
			},
			{
				"x": -1.0759431522,
				"y": -2.1043567745,
				"z": -2.3114397976,
				"element": "H" 
			}
		],
		 "valence_orbital": [ 
			{
				"type": "occ",
				"energy": -0.3115,
				"method": "rhf"
			},
			{
				"type": "occ",
				"energy": -0.29549,
				"method": "rhf"
			},
			{
				"type": "occ",
				"energy": -0.27438,
				"method": "rhf"
			},
			{
				"type": "occ",
				"energy": -0.24477,
				"method": "rhf"
			},
			{
				"type": "occ",
				"energy": -0.20381,
				"method": "rhf"
			},
			{
				"type": "unocc",
				"energy": -0.10487,
				"method": "rhf"
			},
			{
				"type": "unocc",
				"energy": -0.05657,
				"method": "rhf"
			},
			{
				"type": "unocc",
				"energy": -0.03559,
				"method": "rhf"
			},
			{
				"type": "unocc",
				"energy": -0.00755,
				"method": "rhf"
			},
			{
				"type": "unocc",
				"energy": 0.01418,
				"method": "rhf"
			}
		],
		"cosmo_sigma_profile": { 
			"-0.025": 0.0,
			"-0.024": 0.0,
			"-0.023": 0.0,
			"-0.022": 0.0,
			"-0.021": 0.0,
			"-0.02": 0.0,
			"-0.019": 0.0,
			"-0.018": 0.0,
			"-0.017": 0.0,
			"-0.016": 0.0,
			"-0.015": 0.0,
			"-0.014": 0.0,
			"-0.013": 0.0,
			"-0.012": 0.0,
			"-0.011": 0.0,
			"-0.01": 0.293966103787,
			"-0.009": 3.25812988041,
			"-0.008": 3.93273716152,
			"-0.007": 5.33391557106,
			"-0.006": 5.56508525018,
			"-0.005": 11.9223954712,
			"-0.004": 23.2508515125,
			"-0.003": 34.8259566478,
			"-0.002": 37.6835278908,
			"-0.001": 28.9900599641,
			"0.0": 23.3903011358,
			"0.001": 17.412516497,
			"0.002": 19.4383903836,
			"0.003": 19.6698255878,
			"0.004": 10.0280038845,
			"0.005": 9.24644663893,
			"0.006": 11.1515077668,
			"0.007": 15.6101748513,
			"0.008": 9.85304639487,
			"0.009": 4.14163961156,
			"0.01": 0.158586901517,
			"0.011": 0.0,
			"0.012": 0.0,
			"0.013": 0.0,
			"0.014": 0.0,
			"0.015": 0.0,
			"0.016": 0.0,
			"0.017": 0.0,
			"0.018": 0.0,
			"0.019": 0.0,
			"0.02": 0.0,
			"0.021": 0.0,
			"0.022": 0.0,
			"0.023": 0.0,
			"0.024": 0.0,
			"0.025": 0.0
		}
	}
}
