{
	 "smiles": "OC(=O)C1=C(Br)C=CC(Cl)=C1", 
	 "Tm": 427.15, 
	 "num_atms": 15, 
	 "gaussian": { 
		 "optdone": 1, 
		 "sigma_profile": "yes", 
		 "theory": "DFT", 
		 "functional": "B3LYP", 
		 "basiset": "6-31G**", 
		 "properties": { 
			 "R2extent": 3223.623, 
			 "electric_dipole_moment_norm": 1.7048887647, 
			 "electric_quadrupole_moment_norm": 8.53898393897, 
			 "total_energy": -3451.20685729, 
			 "HOMO_LUMO_gap": 0.18332, 
			 "cosmo_polarized_energy": -8.91, 
			 "cosmo_cavitation_energy": 24.04, 
			 "cosmo_dispersion_energy": -18.45, 
			 "cosmo_repulsion_energy": 1.48, 
			 "cosmo_total_nonelectrostatic_energy": 7.07, 
			 "SMD_solvation_energy": 4.13 
		},
		"coords": [
			{
				"x": -1.0342301168,
				"y": -2.0620238734,
				"z": -2.2646565256,
				"element": "O" 
			},
			{
				"x": 0.1419048927,
				"y": -1.6196066997,
				"z": -1.7858213523,
				"element": "C" 
			},
			{
				"x": 1.2014508582,
				"y": -2.1037052584,
				"z": -2.1343005679,
				"element": "O" 
			},
			{
				"x": 0.0503964001,
				"y": -0.4818789474,
				"z": -0.8115164583,
				"element": "C" 
			},
			{
				"x": -1.1036055153,
				"y": 0.0870373925,
				"z": -0.2383997817,
				"element": "C" 
			},
			{
				"x": -2.8898184066,
				"y": -0.4980741442,
				"z": -0.5644666321,
				"element": "Br" 
			},
			{
				"x": -0.9856239278,
				"y": 1.15519337,
				"z": 0.6569635558,
				"element": "C" 
			},
			{
				"x": 0.2587580145,
				"y": 1.6745986107,
				"z": 0.9969245256,
				"element": "C" 
			},
			{
				"x": 1.403565287,
				"y": 1.1104624448,
				"z": 0.4343080941,
				"element": "C" 
			},
			{
				"x": 2.9818565919,
				"y": 1.7477278753,
				"z": 0.8524438235,
				"element": "Cl" 
			},
			{
				"x": 1.3025859502,
				"y": 0.0494163562,
				"z": -0.4523762677,
				"element": "C" 
			},
			{
				"x": -0.8116379849,
				"y": -2.7850824978,
				"z": -2.8756820361,
				"element": "H" 
			},
			{
				"x": -1.882928844,
				"y": 1.579932222,
				"z": 1.091105517,
				"element": "H" 
			},
			{
				"x": 0.3370871598,
				"y": 2.5042027051,
				"z": 1.6907424679,
				"element": "H" 
			},
			{
				"x": 2.1850396409,
				"y": -0.3991995557,
				"z": -0.8917683622,
				"element": "H" 
			}
		],
		 "valence_orbital": [ 
			{
				"type": "occ",
				"energy": -0.30933,
				"method": "rhf"
			},
			{
				"type": "occ",
				"energy": -0.29642,
				"method": "rhf"
			},
			{
				"type": "occ",
				"energy": -0.28676,
				"method": "rhf"
			},
			{
				"type": "occ",
				"energy": -0.28378,
				"method": "rhf"
			},
			{
				"type": "occ",
				"energy": -0.25228,
				"method": "rhf"
			},
			{
				"type": "unocc",
				"energy": -0.06896,
				"method": "rhf"
			},
			{
				"type": "unocc",
				"energy": -0.03407,
				"method": "rhf"
			},
			{
				"type": "unocc",
				"energy": -0.00749,
				"method": "rhf"
			},
			{
				"type": "unocc",
				"energy": 0.02147,
				"method": "rhf"
			},
			{
				"type": "unocc",
				"energy": 0.03675,
				"method": "rhf"
			}
		],
		"cosmo_sigma_profile": { 
			"-0.025": 0.0,
			"-0.024": 0.0,
			"-0.023": 0.0,
			"-0.022": 0.0,
			"-0.021": 0.0,
			"-0.02": 0.0,
			"-0.019": 0.241613391717,
			"-0.018": 1.21287085703,
			"-0.017": 0.503196775659,
			"-0.016": 0.664434760406,
			"-0.015": 1.37675930712,
			"-0.014": 0.543292345126,
			"-0.013": 0.4938130072,
			"-0.012": 0.94745110138,
			"-0.011": 0.87904165026,
			"-0.01": 0.376897656359,
			"-0.009": 1.32829967401,
			"-0.008": 4.68159622706,
			"-0.007": 5.84730114437,
			"-0.006": 4.7809885801,
			"-0.005": 6.07931386146,
			"-0.004": 8.36015136361,
			"-0.003": 10.380012893,
			"-0.002": 13.697274664,
			"-0.001": 16.6839176314,
			"0.0": 28.4186061705,
			"0.001": 19.8219362841,
			"0.002": 12.8684193441,
			"0.003": 15.7895955242,
			"0.004": 17.3435290321,
			"0.005": 5.55453086114,
			"0.006": 4.01095581194,
			"0.007": 3.38642840287,
			"0.008": 2.65400962501,
			"0.009": 1.87250427287,
			"0.01": 2.80637679721,
			"0.011": 4.37249539387,
			"0.012": 0.933673833756,
			"0.013": 0.0,
			"0.014": 0.0,
			"0.015": 0.0,
			"0.016": 0.0,
			"0.017": 0.0,
			"0.018": 0.0,
			"0.019": 0.0,
			"0.02": 0.0,
			"0.021": 0.0,
			"0.022": 0.0,
			"0.023": 0.0,
			"0.024": 0.0,
			"0.025": 0.0
		}
	}
}
