{
	 "smiles": "CO[C@@H](C1=CC2=C(C=CC=C2)[C@H](C)N=N1)C(C)(C)C", 
	 "Tm": 381.0, 
	 "num_atms": 41, 
	 "gaussian": { 
		 "optdone": 1, 
		 "sigma_profile": "yes", 
		 "theory": "DFT", 
		 "functional": "B3LYP", 
		 "basiset": "6-31G**", 
		 "properties": { 
			 "R2extent": 5487.0503, 
			 "electric_dipole_moment_norm": 3.55986344822, 
			 "electric_quadrupole_moment_norm": 8.89714656224, 
			 "total_energy": -807.62167967, 
			 "HOMO_LUMO_gap": 0.14055, 
			 "cosmo_polarized_energy": -12.07, 
			 "cosmo_cavitation_energy": 40.47, 
			 "cosmo_dispersion_energy": -27.29, 
			 "cosmo_repulsion_energy": 2.07, 
			 "cosmo_total_nonelectrostatic_energy": 15.26, 
			 "SMD_solvation_energy": 4.6 
		},
		"coords": [
			{
				"x": 2.8363629815,
				"y": 1.2768724813,
				"z": -0.7215957389,
				"element": "C" 
			},
			{
				"x": 2.2652700263,
				"y": 0.3698716169,
				"z": -1.6433731349,
				"element": "O" 
			},
			{
				"x": 1.5926388461,
				"y": -0.7359038204,
				"z": -1.0626901558,
				"element": "C" 
			},
			{
				"x": 0.386363126,
				"y": -0.2926824848,
				"z": -0.2237685614,
				"element": "C" 
			},
			{
				"x": 0.3367786602,
				"y": -0.5916205055,
				"z": 1.1081552072,
				"element": "C" 
			},
			{
				"x": -0.6477848686,
				"y": -0.1761903126,
				"z": 2.0846383877,
				"element": "C" 
			},
			{
				"x": -1.9465932845,
				"y": 0.2738290857,
				"z": 1.7346019642,
				"element": "C" 
			},
			{
				"x": -2.7856727586,
				"y": 0.7833984908,
				"z": 2.7371644665,
				"element": "C" 
			},
			{
				"x": -2.3976559668,
				"y": 0.7850250996,
				"z": 4.0721112195,
				"element": "C" 
			},
			{
				"x": -1.1386943428,
				"y": 0.2855246834,
				"z": 4.4322731017,
				"element": "C" 
			},
			{
				"x": -0.2801111068,
				"y": -0.1826048829,
				"z": 3.4505543935,
				"element": "C" 
			},
			{
				"x": -2.4397586466,
				"y": 0.1891578421,
				"z": 0.3156916837,
				"element": "C" 
			},
			{
				"x": -2.6544015498,
				"y": -1.2343036711,
				"z": -0.2187752472,
				"element": "C" 
			},
			{
				"x": -1.5579254894,
				"y": 1.0519206864,
				"z": -0.5580604008,
				"element": "N" 
			},
			{
				"x": -0.3836878009,
				"y": 0.7221558994,
				"z": -0.8098021577,
				"element": "N" 
			},
			{
				"x": 1.2986946606,
				"y": -1.7424230165,
				"z": -2.2170479746,
				"element": "C" 
			},
			{
				"x": 0.6805771708,
				"y": -3.0278134819,
				"z": -1.6379486266,
				"element": "C" 
			},
			{
				"x": 0.3580790815,
				"y": -1.1267181236,
				"z": -3.2697925837,
				"element": "C" 
			},
			{
				"x": 2.6423326353,
				"y": -2.1025393152,
				"z": -2.8852563953,
				"element": "C" 
			},
			{
				"x": 3.5211025348,
				"y": 0.768085064,
				"z": -0.0241301521,
				"element": "H" 
			},
			{
				"x": 3.4063137509,
				"y": 2.0016043034,
				"z": -1.3079604568,
				"element": "H" 
			},
			{
				"x": 2.0749614808,
				"y": 1.8129030967,
				"z": -0.140944757,
				"element": "H" 
			},
			{
				"x": 2.2776490102,
				"y": -1.2512550007,
				"z": -0.3644935614,
				"element": "H" 
			},
			{
				"x": 1.1997318438,
				"y": -1.1180022759,
				"z": 1.5149947736,
				"element": "H" 
			},
			{
				"x": -3.7695489114,
				"y": 1.1523151782,
				"z": 2.4597631705,
				"element": "H" 
			},
			{
				"x": -3.0759905914,
				"y": 1.1575841746,
				"z": 4.8340257699,
				"element": "H" 
			},
			{
				"x": -0.8319658045,
				"y": 0.2751583294,
				"z": 5.4739312251,
				"element": "H" 
			},
			{
				"x": 0.7092878192,
				"y": -0.5421887938,
				"z": 3.7213004342,
				"element": "H" 
			},
			{
				"x": -3.4036691616,
				"y": 0.7043214092,
				"z": 0.2653015875,
				"element": "H" 
			},
			{
				"x": -2.9011020199,
				"y": -1.2039545801,
				"z": -1.2849028623,
				"element": "H" 
			},
			{
				"x": -3.4969331843,
				"y": -1.6885949905,
				"z": 0.3114247859,
				"element": "H" 
			},
			{
				"x": -1.7851189592,
				"y": -1.8749565803,
				"z": -0.0777488241,
				"element": "H" 
			},
			{
				"x": 0.5498208808,
				"y": -3.7707368407,
				"z": -2.4320566538,
				"element": "H" 
			},
			{
				"x": -0.3007430272,
				"y": -2.8494731411,
				"z": -1.1909913162,
				"element": "H" 
			},
			{
				"x": 1.3250675924,
				"y": -3.47415826,
				"z": -0.8712900104,
				"element": "H" 
			},
			{
				"x": 0.2374963667,
				"y": -1.8156138426,
				"z": -4.1134876284,
				"element": "H" 
			},
			{
				"x": 0.7618233775,
				"y": -0.1843530122,
				"z": -3.6469956465,
				"element": "H" 
			},
			{
				"x": -0.6365657226,
				"y": -0.925465691,
				"z": -2.8614529665,
				"element": "H" 
			},
			{
				"x": 3.338216776,
				"y": -2.544770732,
				"z": -2.1619237062,
				"element": "H" 
			},
			{
				"x": 2.482163134,
				"y": -2.8357676919,
				"z": -3.6832800508,
				"element": "H" 
			},
			{
				"x": 3.1176914414,
				"y": -1.2188363942,
				"z": -3.3147626014,
				"element": "H" 
			}
		],
		 "valence_orbital": [ 
			{
				"type": "occ",
				"energy": -0.29309,
				"method": "rhf"
			},
			{
				"type": "occ",
				"energy": -0.26203,
				"method": "rhf"
			},
			{
				"type": "occ",
				"energy": -0.25408,
				"method": "rhf"
			},
			{
				"type": "occ",
				"energy": -0.23087,
				"method": "rhf"
			},
			{
				"type": "occ",
				"energy": -0.20877,
				"method": "rhf"
			},
			{
				"type": "unocc",
				"energy": -0.06822,
				"method": "rhf"
			},
			{
				"type": "unocc",
				"energy": -0.01904,
				"method": "rhf"
			},
			{
				"type": "unocc",
				"energy": -0.00721,
				"method": "rhf"
			},
			{
				"type": "unocc",
				"energy": 0.05119,
				"method": "rhf"
			},
			{
				"type": "unocc",
				"energy": 0.07796,
				"method": "rhf"
			}
		],
		"cosmo_sigma_profile": { 
			"-0.025": 0.0,
			"-0.024": 0.0,
			"-0.023": 0.0,
			"-0.022": 0.0,
			"-0.021": 0.0,
			"-0.02": 0.0,
			"-0.019": 0.0,
			"-0.018": 0.0,
			"-0.017": 0.0,
			"-0.016": 0.0,
			"-0.015": 0.0,
			"-0.014": 0.0,
			"-0.013": 0.0,
			"-0.012": 0.0,
			"-0.011": 0.0,
			"-0.01": 0.0,
			"-0.009": 0.0,
			"-0.008": 0.00507626714137,
			"-0.007": 3.34645426849,
			"-0.006": 13.4043703721,
			"-0.005": 14.7769124521,
			"-0.004": 23.6828835905,
			"-0.003": 32.2730949784,
			"-0.002": 42.5531680352,
			"-0.001": 33.4941055874,
			"0.0": 32.8789616047,
			"0.001": 33.3353808289,
			"0.002": 25.541866272,
			"0.003": 13.6380804544,
			"0.004": 14.0444101974,
			"0.005": 6.95665777527,
			"0.006": 3.50578073903,
			"0.007": 2.5277256296,
			"0.008": 3.56050068476,
			"0.009": 2.80802294192,
			"0.01": 2.70582662262,
			"0.011": 2.98157905241,
			"0.012": 2.19888537464,
			"0.013": 2.5716228046,
			"0.014": 2.31012729514,
			"0.015": 1.65693545152,
			"0.016": 0.139721632743,
			"0.017": 0.0,
			"0.018": 0.0,
			"0.019": 0.0,
			"0.02": 0.0,
			"0.021": 0.0,
			"0.022": 0.0,
			"0.023": 0.0,
			"0.024": 0.0,
			"0.025": 0.0
		}
	}
}
