{
	 "smiles": "NC1=CC=C(OC2=CC=C(C=C2)[N+]([O-])=O)C=C1", 
	 "Tm": 406.15, 
	 "num_atms": 27, 
	 "gaussian": { 
		 "optdone": 1, 
		 "sigma_profile": "yes", 
		 "theory": "DFT", 
		 "functional": "B3LYP", 
		 "basiset": "6-31G**", 
		 "properties": { 
			 "R2extent": 6493.6394, 
			 "electric_dipole_moment_norm": 7.03104513284, 
			 "electric_quadrupole_moment_norm": 32.8561863654, 
			 "total_energy": -798.373275355, 
			 "HOMO_LUMO_gap": 0.13874, 
			 "cosmo_polarized_energy": -14.51, 
			 "cosmo_cavitation_energy": 32.82, 
			 "cosmo_dispersion_energy": -23.7, 
			 "cosmo_repulsion_energy": 1.84, 
			 "cosmo_total_nonelectrostatic_energy": 10.96, 
			 "SMD_solvation_energy": 8.03 
		},
		"coords": [
			{
				"x": -0.4432681164,
				"y": -0.0550261838,
				"z": 4.9025766365,
				"element": "N" 
			},
			{
				"x": -0.187465552,
				"y": -0.0663386958,
				"z": 3.5324441177,
				"element": "C" 
			},
			{
				"x": 0.3491394128,
				"y": 1.0653892633,
				"z": 2.8917173028,
				"element": "C" 
			},
			{
				"x": 0.6606040863,
				"y": 1.0355764962,
				"z": 1.5350201184,
				"element": "C" 
			},
			{
				"x": 0.4376263874,
				"y": -0.1263252482,
				"z": 0.7987191086,
				"element": "C" 
			},
			{
				"x": 0.8219513225,
				"y": -0.1806765631,
				"z": -0.5437737427,
				"element": "O" 
			},
			{
				"x": -0.0682503426,
				"y": 0.1570127787,
				"z": -1.5203502907,
				"element": "C" 
			},
			{
				"x": 0.4138677235,
				"y": 0.0689315078,
				"z": -2.8371996851,
				"element": "C" 
			},
			{
				"x": -0.4132668364,
				"y": 0.3908901848,
				"z": -3.9013230727,
				"element": "C" 
			},
			{
				"x": -1.7243369086,
				"y": 0.8011879458,
				"z": -3.6434920944,
				"element": "C" 
			},
			{
				"x": -2.2144777031,
				"y": 0.8925665623,
				"z": -2.3416770421,
				"element": "C" 
			},
			{
				"x": -1.3857268544,
				"y": 0.5698942182,
				"z": -1.2726159336,
				"element": "C" 
			},
			{
				"x": -2.6004038304,
				"y": 1.1418641889,
				"z": -4.7628388789,
				"element": "N" 
			},
			{
				"x": -3.7514105307,
				"y": 1.5003397387,
				"z": -4.5043466106,
				"element": "O" 
			},
			{
				"x": -2.1381242882,
				"y": 1.0512455873,
				"z": -5.9020660377,
				"element": "O" 
			},
			{
				"x": -0.0891624044,
				"y": -1.2602966872,
				"z": 1.41394984,
				"element": "C" 
			},
			{
				"x": -0.4005251356,
				"y": -1.2297658398,
				"z": 2.7706701916,
				"element": "C" 
			},
			{
				"x": -1.1166613653,
				"y": -0.7351314858,
				"z": 5.2261552122,
				"element": "H" 
			},
			{
				"x": -0.5966505389,
				"y": 0.8566243764,
				"z": 5.3100999484,
				"element": "H" 
			},
			{
				"x": 0.5311577099,
				"y": 1.9704165749,
				"z": 3.4653368151,
				"element": "H" 
			},
			{
				"x": 1.0819606442,
				"y": 1.9073406149,
				"z": 1.0446923293,
				"element": "H" 
			},
			{
				"x": 1.4370158237,
				"y": -0.2534765631,
				"z": -2.9961223242,
				"element": "H" 
			},
			{
				"x": -0.067423031,
				"y": 0.3317928814,
				"z": -4.9256488868,
				"element": "H" 
			},
			{
				"x": -3.2361986269,
				"y": 1.2145038471,
				"z": -2.1830753927,
				"element": "H" 
			},
			{
				"x": -1.7529284189,
				"y": 0.6362419536,
				"z": -0.2559422489,
				"element": "H" 
			},
			{
				"x": -0.2467878502,
				"y": -2.1616447732,
				"z": 0.8302788507,
				"element": "H" 
			},
			{
				"x": -0.8041547764,
				"y": -2.1179366803,
				"z": 3.2497117698,
				"element": "H" 
			}
		],
		 "valence_orbital": [ 
			{
				"type": "occ",
				"energy": -0.27912,
				"method": "rhf"
			},
			{
				"type": "occ",
				"energy": -0.27475,
				"method": "rhf"
			},
			{
				"type": "occ",
				"energy": -0.2662,
				"method": "rhf"
			},
			{
				"type": "occ",
				"energy": -0.24507,
				"method": "rhf"
			},
			{
				"type": "occ",
				"energy": -0.215,
				"method": "rhf"
			},
			{
				"type": "unocc",
				"energy": -0.07626,
				"method": "rhf"
			},
			{
				"type": "unocc",
				"energy": -0.02581,
				"method": "rhf"
			},
			{
				"type": "unocc",
				"energy": -0.0128,
				"method": "rhf"
			},
			{
				"type": "unocc",
				"energy": 0.00219,
				"method": "rhf"
			},
			{
				"type": "unocc",
				"energy": 0.01787,
				"method": "rhf"
			}
		],
		"cosmo_sigma_profile": { 
			"-0.025": 0.0,
			"-0.024": 0.0,
			"-0.023": 0.0,
			"-0.022": 0.0,
			"-0.021": 0.0,
			"-0.02": 0.0,
			"-0.019": 0.0,
			"-0.018": 0.0,
			"-0.017": 0.0,
			"-0.016": 0.0,
			"-0.015": 0.0,
			"-0.014": 0.0,
			"-0.013": 0.616515469261,
			"-0.012": 2.65936582963,
			"-0.011": 3.22680312474,
			"-0.01": 2.32889772207,
			"-0.009": 3.87347981241,
			"-0.008": 4.07226981882,
			"-0.007": 10.1182723727,
			"-0.006": 15.4887227042,
			"-0.005": 15.6213811407,
			"-0.004": 15.1054618137,
			"-0.003": 14.2647858973,
			"-0.002": 14.9477489085,
			"-0.001": 19.6470193111,
			"0.0": 18.7877252539,
			"0.001": 23.0999752054,
			"0.002": 18.9303623876,
			"0.003": 12.2740731716,
			"0.004": 13.3884724741,
			"0.005": 12.8920173324,
			"0.006": 7.89182837535,
			"0.007": 6.71818562712,
			"0.008": 11.8145088682,
			"0.009": 7.22170171573,
			"0.01": 4.35416857689,
			"0.011": 1.79289438647,
			"0.012": 0.67286418129,
			"0.013": 0.603747201939,
			"0.014": 0.556915031209,
			"0.015": 0.0286540225658,
			"0.016": 0.0,
			"0.017": 0.0,
			"0.018": 0.0,
			"0.019": 0.0,
			"0.02": 0.0,
			"0.021": 0.0,
			"0.022": 0.0,
			"0.023": 0.0,
			"0.024": 0.0,
			"0.025": 0.0
		}
	}
}
