{
	 "smiles": "CC1CC(C)CN(C1)C(=O)C1=CC(N)=C(C)C=C1", 
	 "Tm": 428.15, 
	 "num_atms": 40, 
	 "gaussian": { 
		 "optdone": 1, 
		 "sigma_profile": "yes", 
		 "theory": "DFT", 
		 "functional": "B3LYP", 
		 "basiset": "6-31G**", 
		 "properties": { 
			 "R2extent": 6432.5718, 
			 "electric_dipole_moment_norm": 3.92537372998, 
			 "electric_quadrupole_moment_norm": 20.6390953985, 
			 "total_energy": -769.626068478, 
			 "HOMO_LUMO_gap": 0.1859, 
			 "cosmo_polarized_energy": -14.73, 
			 "cosmo_cavitation_energy": 39.99, 
			 "cosmo_dispersion_energy": -27.82, 
			 "cosmo_repulsion_energy": 2.15, 
			 "cosmo_total_nonelectrostatic_energy": 14.32, 
			 "SMD_solvation_energy": 6.83 
		},
		"coords": [
			{
				"x": -3.8040707255,
				"y": -0.369542673,
				"z": -0.3881288436,
				"element": "C" 
			},
			{
				"x": -2.4729641801,
				"y": -0.0642759839,
				"z": -1.0834744634,
				"element": "C" 
			},
			{
				"x": -2.6609519671,
				"y": 0.1918148376,
				"z": -2.5906777218,
				"element": "C" 
			},
			{
				"x": -1.3587482941,
				"y": 0.6231792148,
				"z": -3.2993555803,
				"element": "C" 
			},
			{
				"x": -0.3624990419,
				"y": -0.5329581096,
				"z": -3.4753212932,
				"element": "C" 
			},
			{
				"x": -0.7285142395,
				"y": 1.8104188092,
				"z": -2.5474805126,
				"element": "C" 
			},
			{
				"x": -0.537171397,
				"y": 1.4856800435,
				"z": -1.131694512,
				"element": "N" 
			},
			{
				"x": -1.7823365399,
				"y": 1.1484212618,
				"z": -0.4382619717,
				"element": "C" 
			},
			{
				"x": 0.6220603231,
				"y": 1.9159550153,
				"z": -0.5148673432,
				"element": "C" 
			},
			{
				"x": 1.4546237246,
				"y": 2.6006731459,
				"z": -1.1079798168,
				"element": "O" 
			},
			{
				"x": 0.8860004911,
				"y": 1.4858326598,
				"z": 0.9044444596,
				"element": "C" 
			},
			{
				"x": 1.4869789667,
				"y": 2.418714337,
				"z": 1.7529617391,
				"element": "C" 
			},
			{
				"x": 1.8390117477,
				"y": 2.0863880528,
				"z": 3.0673877794,
				"element": "C" 
			},
			{
				"x": 2.4784791624,
				"y": 3.0229190991,
				"z": 3.8842074635,
				"element": "N" 
			},
			{
				"x": 1.6071701684,
				"y": 0.7725295654,
				"z": 3.540242474,
				"element": "C" 
			},
			{
				"x": 2.0053058655,
				"y": 0.3902602718,
				"z": 4.9431928126,
				"element": "C" 
			},
			{
				"x": 1.0277507051,
				"y": -0.1535740294,
				"z": 2.6704392561,
				"element": "C" 
			},
			{
				"x": 0.6616372793,
				"y": 0.1825986199,
				"z": 1.3670747432,
				"element": "C" 
			},
			{
				"x": -4.2917128574,
				"y": -1.2404123377,
				"z": -0.8385117331,
				"element": "H" 
			},
			{
				"x": -3.6614663478,
				"y": -0.580103696,
				"z": 0.6776513319,
				"element": "H" 
			},
			{
				"x": -4.4962931136,
				"y": 0.4770655917,
				"z": -0.4715977617,
				"element": "H" 
			},
			{
				"x": -1.8086216528,
				"y": -0.9296342441,
				"z": -0.9532808279,
				"element": "H" 
			},
			{
				"x": -3.4102642521,
				"y": 0.9883178046,
				"z": -2.7113834375,
				"element": "H" 
			},
			{
				"x": -3.0774550077,
				"y": -0.701019048,
				"z": -3.0740475395,
				"element": "H" 
			},
			{
				"x": -1.6274930056,
				"y": 0.9886906079,
				"z": -4.2999261423,
				"element": "H" 
			},
			{
				"x": 0.5043774897,
				"y": -0.212611026,
				"z": -4.0628162493,
				"element": "H" 
			},
			{
				"x": 0.0118581783,
				"y": -0.8956617546,
				"z": -2.513367876,
				"element": "H" 
			},
			{
				"x": -0.8279723015,
				"y": -1.3767868572,
				"z": -3.9963315579,
				"element": "H" 
			},
			{
				"x": -1.3831454387,
				"y": 2.6927085859,
				"z": -2.6335538953,
				"element": "H" 
			},
			{
				"x": 0.2435395403,
				"y": 2.0832957354,
				"z": -2.9584415499,
				"element": "H" 
			},
			{
				"x": -1.578737018,
				"y": 0.9672844516,
				"z": 0.6163863224,
				"element": "H" 
			},
			{
				"x": -2.46516298,
				"y": 2.0146257395,
				"z": -0.4953149941,
				"element": "H" 
			},
			{
				"x": 1.6964984537,
				"y": 3.41263911,
				"z": 1.3678332052,
				"element": "H" 
			},
			{
				"x": 2.3103448141,
				"y": 2.9285106448,
				"z": 4.8759599407,
				"element": "H" 
			},
			{
				"x": 2.3906719987,
				"y": 3.981735708,
				"z": 3.5769423863,
				"element": "H" 
			},
			{
				"x": 1.8249165905,
				"y": -0.6714899432,
				"z": 5.128617728,
				"element": "H" 
			},
			{
				"x": 1.4394091132,
				"y": 0.951981228,
				"z": 5.7006906946,
				"element": "H" 
			},
			{
				"x": 3.0684492747,
				"y": 0.590881991,
				"z": 5.1251530705,
				"element": "H" 
			},
			{
				"x": 0.8678862755,
				"y": -1.1693721162,
				"z": 3.0243063246,
				"element": "H" 
			},
			{
				"x": 0.2379101976,
				"y": -0.5693803136,
				"z": 0.7096238915,
				"element": "H" 
			}
		],
		 "valence_orbital": [ 
			{
				"type": "occ",
				"energy": -0.30278,
				"method": "rhf"
			},
			{
				"type": "occ",
				"energy": -0.25007,
				"method": "rhf"
			},
			{
				"type": "occ",
				"energy": -0.23141,
				"method": "rhf"
			},
			{
				"type": "occ",
				"energy": -0.22302,
				"method": "rhf"
			},
			{
				"type": "occ",
				"energy": -0.20165,
				"method": "rhf"
			},
			{
				"type": "unocc",
				"energy": -0.01575,
				"method": "rhf"
			},
			{
				"type": "unocc",
				"energy": 0.01371,
				"method": "rhf"
			},
			{
				"type": "unocc",
				"energy": 0.05847,
				"method": "rhf"
			},
			{
				"type": "unocc",
				"energy": 0.07502,
				"method": "rhf"
			},
			{
				"type": "unocc",
				"energy": 0.07841,
				"method": "rhf"
			}
		],
		"cosmo_sigma_profile": { 
			"-0.025": 0.0,
			"-0.024": 0.0,
			"-0.023": 0.0,
			"-0.022": 0.0,
			"-0.021": 0.0,
			"-0.02": 0.0,
			"-0.019": 0.0,
			"-0.018": 0.0,
			"-0.017": 0.0,
			"-0.016": 0.0,
			"-0.015": 0.0,
			"-0.014": 0.0,
			"-0.013": 0.156027138589,
			"-0.012": 1.57829314903,
			"-0.011": 2.55413895604,
			"-0.01": 2.97118034818,
			"-0.009": 3.04388071441,
			"-0.008": 2.73627547914,
			"-0.007": 3.99994684174,
			"-0.006": 2.41316466573,
			"-0.005": 6.35964237348,
			"-0.004": 14.9030646005,
			"-0.003": 38.601891209,
			"-0.002": 47.9886943634,
			"-0.001": 42.015839441,
			"0.0": 35.8911592333,
			"0.001": 29.3118506651,
			"0.002": 15.6209771657,
			"0.003": 7.24370885656,
			"0.004": 8.51714624532,
			"0.005": 10.1029927551,
			"0.006": 9.15930004998,
			"0.007": 3.16052599066,
			"0.008": 3.07490681208,
			"0.009": 2.06188158159,
			"0.01": 1.93630744197,
			"0.011": 2.66103188319,
			"0.012": 2.53344254364,
			"0.013": 3.14724798632,
			"0.014": 5.40083279875,
			"0.015": 1.87723883307,
			"0.016": 0.0809061064021,
			"0.017": 0.0,
			"0.018": 0.0,
			"0.019": 0.0,
			"0.02": 0.0,
			"0.021": 0.0,
			"0.022": 0.0,
			"0.023": 0.0,
			"0.024": 0.0,
			"0.025": 0.0
		}
	}
}
