{
	 "smiles": "BrCCCOC1=CC2=C(OCO2)C=C1", 
	 "Tm": 334.15, 
	 "num_atms": 25, 
	 "gaussian": { 
		 "optdone": 1, 
		 "sigma_profile": "yes", 
		 "theory": "DFT", 
		 "functional": "B3LYP", 
		 "basiset": "6-31G**", 
		 "properties": { 
			 "R2extent": 8444.284, 
			 "electric_dipole_moment_norm": 2.71664326882, 
			 "electric_quadrupole_moment_norm": 8.76911585737, 
			 "total_energy": -3184.73730801, 
			 "HOMO_LUMO_gap": 0.19376, 
			 "cosmo_polarized_energy": -9.8, 
			 "cosmo_cavitation_energy": 31.08, 
			 "cosmo_dispersion_energy": -23.65, 
			 "cosmo_repulsion_energy": 1.89, 
			 "cosmo_total_nonelectrostatic_energy": 9.33, 
			 "SMD_solvation_energy": 4.62 
		},
		"coords": [
			{
				"x": 3.8964118622,
				"y": 1.4780623312,
				"z": -4.799439516,
				"element": "Br" 
			},
			{
				"x": 3.1373147538,
				"y": 0.7530056546,
				"z": -3.1210799837,
				"element": "C" 
			},
			{
				"x": 2.543402963,
				"y": 1.8589490229,
				"z": -2.2595499968,
				"element": "C" 
			},
			{
				"x": 1.9694166832,
				"y": 1.3147528493,
				"z": -0.9536767481,
				"element": "C" 
			},
			{
				"x": 0.9193475614,
				"y": 0.4130182218,
				"z": -1.2826318409,
				"element": "O" 
			},
			{
				"x": 0.2465143186,
				"y": -0.2188606081,
				"z": -0.2683713591,
				"element": "C" 
			},
			{
				"x": 0.5235274516,
				"y": -0.0042417773,
				"z": 1.0976551045,
				"element": "C" 
			},
			{
				"x": -0.2512954002,
				"y": -0.7138267605,
				"z": 1.9987603824,
				"element": "C" 
			},
			{
				"x": -1.2493807707,
				"y": -1.5944920532,
				"z": 1.6026530948,
				"element": "C" 
			},
			{
				"x": -1.8221437877,
				"y": -2.1776245335,
				"z": 2.7155694171,
				"element": "O" 
			},
			{
				"x": -1.2841027654,
				"y": -1.4645757905,
				"z": 3.8306210441,
				"element": "C" 
			},
			{
				"x": -0.1603060093,
				"y": -0.7000762712,
				"z": 3.3695985745,
				"element": "O" 
			},
			{
				"x": -1.5258500891,
				"y": -1.8121099558,
				"z": 0.2660118962,
				"element": "C" 
			},
			{
				"x": -0.7594505277,
				"y": -1.1056562819,
				"z": -0.6723432359,
				"element": "C" 
			},
			{
				"x": 3.9640466007,
				"y": 0.2416217185,
				"z": -2.6265379597,
				"element": "H" 
			},
			{
				"x": 2.3868550745,
				"y": 0.0259908633,
				"z": -3.4243009084,
				"element": "H" 
			},
			{
				"x": 1.7533311475,
				"y": 2.3761202939,
				"z": -2.812690032,
				"element": "H" 
			},
			{
				"x": 3.3126307274,
				"y": 2.6002512652,
				"z": -2.0183164394,
				"element": "H" 
			},
			{
				"x": 1.5861625046,
				"y": 2.1431280521,
				"z": -0.3409656979,
				"element": "H" 
			},
			{
				"x": 2.7466791672,
				"y": 0.7967651178,
				"z": -0.3715358799,
				"element": "H" 
			},
			{
				"x": 1.2924244732,
				"y": 0.6725414855,
				"z": 1.4450884275,
				"element": "H" 
			},
			{
				"x": -2.044746072,
				"y": -0.7811138251,
				"z": 4.2374325842,
				"element": "H" 
			},
			{
				"x": -0.9506248421,
				"y": -2.1740471718,
				"z": 4.5934658699,
				"element": "H" 
			},
			{
				"x": -2.3015812543,
				"y": -2.5023227045,
				"z": -0.0455600101,
				"element": "H" 
			},
			{
				"x": -0.9344837704,
				"y": -1.2315591427,
				"z": -1.7348567875,
				"element": "H" 
			}
		],
		 "valence_orbital": [ 
			{
				"type": "occ",
				"energy": -0.28665,
				"method": "rhf"
			},
			{
				"type": "occ",
				"energy": -0.27145,
				"method": "rhf"
			},
			{
				"type": "occ",
				"energy": -0.27015,
				"method": "rhf"
			},
			{
				"type": "occ",
				"energy": -0.24604,
				"method": "rhf"
			},
			{
				"type": "occ",
				"energy": -0.19622,
				"method": "rhf"
			},
			{
				"type": "unocc",
				"energy": -0.00246,
				"method": "rhf"
			},
			{
				"type": "unocc",
				"energy": 0.00155,
				"method": "rhf"
			},
			{
				"type": "unocc",
				"energy": 0.01959,
				"method": "rhf"
			},
			{
				"type": "unocc",
				"energy": 0.09106,
				"method": "rhf"
			},
			{
				"type": "unocc",
				"energy": 0.09531,
				"method": "rhf"
			}
		],
		"cosmo_sigma_profile": { 
			"-0.025": 0.0,
			"-0.024": 0.0,
			"-0.023": 0.0,
			"-0.022": 0.0,
			"-0.021": 0.0,
			"-0.02": 0.0,
			"-0.019": 0.0,
			"-0.018": 0.0,
			"-0.017": 0.0,
			"-0.016": 0.0,
			"-0.015": 0.0,
			"-0.014": 0.0,
			"-0.013": 0.0,
			"-0.012": 0.0,
			"-0.011": 0.0,
			"-0.01": 0.0,
			"-0.009": 0.0,
			"-0.008": 2.39418541645,
			"-0.007": 11.3036222856,
			"-0.006": 19.5415012443,
			"-0.005": 24.3549401603,
			"-0.004": 20.6205520091,
			"-0.003": 15.514385991,
			"-0.002": 13.5246576381,
			"-0.001": 12.5767196569,
			"0.0": 12.3654735042,
			"0.001": 13.1538166199,
			"0.002": 15.1135687047,
			"0.003": 18.8492311917,
			"0.004": 20.5403696005,
			"0.005": 16.950618655,
			"0.006": 15.1411200541,
			"0.007": 7.398191612,
			"0.008": 3.94821330178,
			"0.009": 4.02154339413,
			"0.01": 2.4934307441,
			"0.011": 0.146072400246,
			"0.012": 0.0,
			"0.013": 0.0,
			"0.014": 0.0,
			"0.015": 0.0,
			"0.016": 0.0,
			"0.017": 0.0,
			"0.018": 0.0,
			"0.019": 0.0,
			"0.02": 0.0,
			"0.021": 0.0,
			"0.022": 0.0,
			"0.023": 0.0,
			"0.024": 0.0,
			"0.025": 0.0
		}
	}
}
