{
	 "smiles": "NC1=CC=C(NC(=O)NCC=C)C=C1", 
	 "Tm": 431.15, 
	 "num_atms": 27, 
	 "gaussian": { 
		 "optdone": 1, 
		 "sigma_profile": "yes", 
		 "theory": "DFT", 
		 "functional": "B3LYP", 
		 "basiset": "6-31G**", 
		 "properties": { 
			 "R2extent": 4050.3538, 
			 "electric_dipole_moment_norm": 3.92831054526, 
			 "electric_quadrupole_moment_norm": 18.0899085633, 
			 "total_energy": -628.379016358, 
			 "HOMO_LUMO_gap": 0.18428, 
			 "cosmo_polarized_energy": -17.9, 
			 "cosmo_cavitation_energy": 30.83, 
			 "cosmo_dispersion_energy": -22.12, 
			 "cosmo_repulsion_energy": 1.76, 
			 "cosmo_total_nonelectrostatic_energy": 10.47, 
			 "SMD_solvation_energy": 5.94 
		},
		"coords": [
			{
				"x": 1.8281891742,
				"y": -2.5002661082,
				"z": -3.2975098337,
				"element": "N" 
			},
			{
				"x": 1.1015228296,
				"y": -1.7387327209,
				"z": -2.3692734148,
				"element": "C" 
			},
			{
				"x": -0.2438379837,
				"y": -2.0245922745,
				"z": -2.0918515128,
				"element": "C" 
			},
			{
				"x": -0.9961580696,
				"y": -1.2404947925,
				"z": -1.2206531758,
				"element": "C" 
			},
			{
				"x": -0.4107692765,
				"y": -0.1320964627,
				"z": -0.591510301,
				"element": "C" 
			},
			{
				"x": -1.089401228,
				"y": 0.7092806134,
				"z": 0.3220419609,
				"element": "N" 
			},
			{
				"x": -2.4200918999,
				"y": 0.6633622098,
				"z": 0.6811292999,
				"element": "C" 
			},
			{
				"x": -3.2490137613,
				"y": -0.1201741403,
				"z": 0.2300332959,
				"element": "O" 
			},
			{
				"x": -2.7858714328,
				"y": 1.6276522599,
				"z": 1.6213881746,
				"element": "N" 
			},
			{
				"x": -1.8902636759,
				"y": 2.1882589234,
				"z": 2.6252703002,
				"element": "C" 
			},
			{
				"x": -1.1365217238,
				"y": 3.4277923982,
				"z": 2.1940307652,
				"element": "C" 
			},
			{
				"x": -1.3098367442,
				"y": 4.0784380244,
				"z": 1.0432458278,
				"element": "C" 
			},
			{
				"x": 0.9337529326,
				"y": 0.1586347529,
				"z": -0.8629661572,
				"element": "C" 
			},
			{
				"x": 1.6783047135,
				"y": -0.6268293125,
				"z": -1.7367608189,
				"element": "C" 
			},
			{
				"x": 2.8290299844,
				"y": -2.4909874252,
				"z": -3.1506221236,
				"element": "H" 
			},
			{
				"x": 1.489838102,
				"y": -3.4468135426,
				"z": -3.4110639318,
				"element": "H" 
			},
			{
				"x": -0.717856966,
				"y": -2.876458102,
				"z": -2.5741544655,
				"element": "H" 
			},
			{
				"x": -2.0339111574,
				"y": -1.4718350899,
				"z": -1.0263006076,
				"element": "H" 
			},
			{
				"x": -0.5779429934,
				"y": 1.5352688436,
				"z": 0.6024439142,
				"element": "H" 
			},
			{
				"x": -3.746459953,
				"y": 1.4881417066,
				"z": 1.8994747055,
				"element": "H" 
			},
			{
				"x": -1.1657825479,
				"y": 1.4314701035,
				"z": 2.9645649636,
				"element": "H" 
			},
			{
				"x": -2.4921159812,
				"y": 2.4350888908,
				"z": 3.5089666522,
				"element": "H" 
			},
			{
				"x": -0.4006503136,
				"y": 3.7835454034,
				"z": 2.9155401992,
				"element": "H" 
			},
			{
				"x": -0.7328796805,
				"y": 4.9658587237,
				"z": 0.8030165293,
				"element": "H" 
			},
			{
				"x": -2.0440064682,
				"y": 3.7446526893,
				"z": 0.3158508115,
				"element": "H" 
			},
			{
				"x": 1.4086932801,
				"y": 1.0110254966,
				"z": -0.3813881847,
				"element": "H" 
			},
			{
				"x": 2.7170408406,
				"y": -0.3723910682,
				"z": -1.9331428725,
				"element": "H" 
			}
		],
		 "valence_orbital": [ 
			{
				"type": "occ",
				"energy": -0.26183,
				"method": "rhf"
			},
			{
				"type": "occ",
				"energy": -0.25895,
				"method": "rhf"
			},
			{
				"type": "occ",
				"energy": -0.24392,
				"method": "rhf"
			},
			{
				"type": "occ",
				"energy": -0.23867,
				"method": "rhf"
			},
			{
				"type": "occ",
				"energy": -0.17894,
				"method": "rhf"
			},
			{
				"type": "unocc",
				"energy": 0.00534,
				"method": "rhf"
			},
			{
				"type": "unocc",
				"energy": 0.00958,
				"method": "rhf"
			},
			{
				"type": "unocc",
				"energy": 0.02086,
				"method": "rhf"
			},
			{
				"type": "unocc",
				"energy": 0.07123,
				"method": "rhf"
			},
			{
				"type": "unocc",
				"energy": 0.0812,
				"method": "rhf"
			}
		],
		"cosmo_sigma_profile": { 
			"-0.025": 0.0,
			"-0.024": 0.0,
			"-0.023": 0.0,
			"-0.022": 0.0,
			"-0.021": 0.0,
			"-0.02": 0.0,
			"-0.019": 0.0,
			"-0.018": 0.0,
			"-0.017": 0.0,
			"-0.016": 0.0,
			"-0.015": 0.0,
			"-0.014": 0.109290212464,
			"-0.013": 0.930216997812,
			"-0.012": 2.61386468394,
			"-0.011": 3.95578245641,
			"-0.01": 4.99198477543,
			"-0.009": 5.03361917201,
			"-0.008": 6.16186894998,
			"-0.007": 7.58951050958,
			"-0.006": 10.6267280829,
			"-0.005": 18.8591491905,
			"-0.004": 16.6247475418,
			"-0.003": 16.8426495766,
			"-0.002": 15.2917218851,
			"-0.001": 13.0181317439,
			"0.0": 14.0509537776,
			"0.001": 10.5936428304,
			"0.002": 11.5189415347,
			"0.003": 13.0756757956,
			"0.004": 12.9905823469,
			"0.005": 14.1897806423,
			"0.006": 13.9167852505,
			"0.007": 9.47864803858,
			"0.008": 2.59919081235,
			"0.009": 2.84456527498,
			"0.01": 1.82926343162,
			"0.011": 1.99142568326,
			"0.012": 2.3282607048,
			"0.013": 3.81133974557,
			"0.014": 4.6476552972,
			"0.015": 1.49254808333,
			"0.016": 0.169431680897,
			"0.017": 0.0,
			"0.018": 0.0,
			"0.019": 0.0,
			"0.02": 0.0,
			"0.021": 0.0,
			"0.022": 0.0,
			"0.023": 0.0,
			"0.024": 0.0,
			"0.025": 0.0
		}
	}
}
