{
	 "smiles": "N#CC1=CC=C(OCCN2CCOCC2)C=C1", 
	 "Tm": 361.65, 
	 "num_atms": 33, 
	 "gaussian": { 
		 "optdone": 1, 
		 "sigma_profile": "yes", 
		 "theory": "DFT", 
		 "functional": "B3LYP", 
		 "basiset": "6-31G**", 
		 "properties": { 
			 "R2extent": 7447.089, 
			 "electric_dipole_moment_norm": 5.20695455041, 
			 "electric_quadrupole_moment_norm": 46.5713865037, 
			 "total_energy": -764.92354479, 
			 "HOMO_LUMO_gap": 0.17515, 
			 "cosmo_polarized_energy": -14.99, 
			 "cosmo_cavitation_energy": 36.21, 
			 "cosmo_dispersion_energy": -25.73, 
			 "cosmo_repulsion_energy": 2.0, 
			 "cosmo_total_nonelectrostatic_energy": 12.48, 
			 "SMD_solvation_energy": 5.29 
		},
		"coords": [
			{
				"x": -0.4780424485,
				"y": 7.3274294752,
				"z": 1.6979570426,
				"element": "N" 
			},
			{
				"x": -0.5343820846,
				"y": 6.3589780068,
				"z": 1.0546340331,
				"element": "C" 
			},
			{
				"x": -0.6027686279,
				"y": 5.1681147591,
				"z": 0.2635142584,
				"element": "C" 
			},
			{
				"x": -0.0900066294,
				"y": 5.1509657973,
				"z": -1.0486017201,
				"element": "C" 
			},
			{
				"x": -0.1564698615,
				"y": 3.9959864277,
				"z": -1.8093768511,
				"element": "C" 
			},
			{
				"x": -0.7354552958,
				"y": 2.8275082623,
				"z": -1.2827329353,
				"element": "C" 
			},
			{
				"x": -0.7574193037,
				"y": 1.7626395389,
				"z": -2.1250430848,
				"element": "O" 
			},
			{
				"x": -1.2909445926,
				"y": 0.5062925501,
				"z": -1.6922081172,
				"element": "C" 
			},
			{
				"x": -0.2668316435,
				"y": -0.3098335738,
				"z": -0.891194867,
				"element": "C" 
			},
			{
				"x": -0.8220915322,
				"y": -1.6298546194,
				"z": -0.5902648967,
				"element": "N" 
			},
			{
				"x": -0.4774463601,
				"y": -2.1831572989,
				"z": 0.7260258784,
				"element": "C" 
			},
			{
				"x": 0.9194297324,
				"y": -2.8110003155,
				"z": 0.7619753155,
				"element": "C" 
			},
			{
				"x": 1.045385951,
				"y": -3.8057112342,
				"z": -0.2488946713,
				"element": "O" 
			},
			{
				"x": 0.8138263605,
				"y": -3.2614894252,
				"z": -1.5436301633,
				"element": "C" 
			},
			{
				"x": -0.5851368678,
				"y": -2.6405621557,
				"z": -1.6329482333,
				"element": "C" 
			},
			{
				"x": -1.2471481475,
				"y": 2.8366791232,
				"z": 0.0243019442,
				"element": "C" 
			},
			{
				"x": -1.179717842,
				"y": 4.0007193053,
				"z": 0.7852390661,
				"element": "C" 
			},
			{
				"x": 0.3571959568,
				"y": 6.0494058805,
				"z": -1.4606998673,
				"element": "H" 
			},
			{
				"x": 0.2311159128,
				"y": 3.9673258181,
				"z": -2.8219769966,
				"element": "H" 
			},
			{
				"x": -1.5518690055,
				"y": -0.0154113384,
				"z": -2.6164437764,
				"element": "H" 
			},
			{
				"x": -2.2139742392,
				"y": 0.6395030193,
				"z": -1.1184573771,
				"element": "H" 
			},
			{
				"x": 0.6776060293,
				"y": -0.3345323136,
				"z": -1.4579255002,
				"element": "H" 
			},
			{
				"x": -0.0474867546,
				"y": 0.208201147,
				"z": 0.0476297621,
				"element": "H" 
			},
			{
				"x": -0.5709093432,
				"y": -1.3993825759,
				"z": 1.4858249772,
				"element": "H" 
			},
			{
				"x": -1.21229486,
				"y": -2.9635418762,
				"z": 0.9642460164,
				"element": "H" 
			},
			{
				"x": 1.1011351826,
				"y": -3.3137191495,
				"z": 1.7173193715,
				"element": "H" 
			},
			{
				"x": 1.6941684035,
				"y": -2.0355608036,
				"z": 0.6303557893,
				"element": "H" 
			},
			{
				"x": 0.9204010299,
				"y": -4.0881797562,
				"z": -2.2531387045,
				"element": "H" 
			},
			{
				"x": 1.5865332463,
				"y": -2.5097608968,
				"z": -1.7798512864,
				"element": "H" 
			},
			{
				"x": -1.3306129183,
				"y": -3.4367541347,
				"z": -1.5109188084,
				"element": "H" 
			},
			{
				"x": -0.7426306194,
				"y": -2.1947648149,
				"z": -2.6212333712,
				"element": "H" 
			},
			{
				"x": -1.6968866661,
				"y": 1.9513105976,
				"z": 0.4563190676,
				"element": "H" 
			},
			{
				"x": -1.5762721616,
				"y": 4.0062565737,
				"z": 1.7951987056,
				"element": "H" 
			}
		],
		 "valence_orbital": [ 
			{
				"type": "occ",
				"energy": -0.31674,
				"method": "rhf"
			},
			{
				"type": "occ",
				"energy": -0.27949,
				"method": "rhf"
			},
			{
				"type": "occ",
				"energy": -0.27556,
				"method": "rhf"
			},
			{
				"type": "occ",
				"energy": -0.23692,
				"method": "rhf"
			},
			{
				"type": "occ",
				"energy": -0.21329,
				"method": "rhf"
			},
			{
				"type": "unocc",
				"energy": -0.03814,
				"method": "rhf"
			},
			{
				"type": "unocc",
				"energy": -0.02403,
				"method": "rhf"
			},
			{
				"type": "unocc",
				"energy": 0.0424,
				"method": "rhf"
			},
			{
				"type": "unocc",
				"energy": 0.05651,
				"method": "rhf"
			},
			{
				"type": "unocc",
				"energy": 0.08163,
				"method": "rhf"
			}
		],
		"cosmo_sigma_profile": { 
			"-0.025": 0.0,
			"-0.024": 0.0,
			"-0.023": 0.0,
			"-0.022": 0.0,
			"-0.021": 0.0,
			"-0.02": 0.0,
			"-0.019": 0.0,
			"-0.018": 0.0,
			"-0.017": 0.0,
			"-0.016": 0.0,
			"-0.015": 0.0,
			"-0.014": 0.0,
			"-0.013": 0.0,
			"-0.012": 0.0,
			"-0.011": 0.0,
			"-0.01": 0.0,
			"-0.009": 0.0,
			"-0.008": 3.77216035852,
			"-0.007": 9.44717526218,
			"-0.006": 14.4454404345,
			"-0.005": 19.9283178908,
			"-0.004": 29.2280362101,
			"-0.003": 35.7459355325,
			"-0.002": 27.4052438382,
			"-0.001": 21.0289014575,
			"0.0": 18.2058923393,
			"0.001": 16.5337257452,
			"0.002": 19.1191996407,
			"0.003": 14.2634650684,
			"0.004": 6.91843268397,
			"0.005": 4.64639718582,
			"0.006": 6.79797345423,
			"0.007": 5.13140763734,
			"0.008": 5.89844582339,
			"0.009": 7.4109713142,
			"0.01": 5.25944408015,
			"0.011": 4.81906073824,
			"0.012": 3.7924481638,
			"0.013": 4.96574400889,
			"0.014": 1.72412001105,
			"0.015": 0.0,
			"0.016": 0.0,
			"0.017": 0.0,
			"0.018": 0.0,
			"0.019": 0.0,
			"0.02": 0.0,
			"0.021": 0.0,
			"0.022": 0.0,
			"0.023": 0.0,
			"0.024": 0.0,
			"0.025": 0.0
		}
	}
}
