{
	 "smiles": "CCOC1OC2=CC=C(C)C=C2C(=O)C1=CNC1=NC2=C(S1)C=C(Cl)C=C2", 
	 "Tm": 420.15, 
	 "num_atms": 44, 
	 "gaussian": { 
		 "optdone": 1, 
		 "sigma_profile": "yes", 
		 "theory": "DFT", 
		 "functional": "B3LYP", 
		 "basiset": "6-31G**", 
		 "properties": { 
			 "R2extent": 21437.8146, 
			 "electric_dipole_moment_norm": 3.64348331134, 
			 "electric_quadrupole_moment_norm": 7.21182226833, 
			 "total_energy": -1965.93756063, 
			 "HOMO_LUMO_gap": 0.14301, 
			 "cosmo_polarized_energy": -16.14, 
			 "cosmo_cavitation_energy": 51.89, 
			 "cosmo_dispersion_energy": -37.13, 
			 "cosmo_repulsion_energy": 2.75, 
			 "cosmo_total_nonelectrostatic_energy": 17.5, 
			 "SMD_solvation_energy": 7.05 
		},
		"coords": [
			{
				"x": -2.6164132806,
				"y": 0.8191737276,
				"z": 2.1865029734,
				"element": "C" 
			},
			{
				"x": -1.2255166759,
				"y": 0.3938769081,
				"z": 1.7513489952,
				"element": "C" 
			},
			{
				"x": -0.55828352,
				"y": 1.5609812627,
				"z": 1.2245799615,
				"element": "O" 
			},
			{
				"x": 0.7537952403,
				"y": 1.3541630102,
				"z": 0.7494897205,
				"element": "C" 
			},
			{
				"x": 1.5286904466,
				"y": 0.8700903971,
				"z": 1.8470739143,
				"element": "O" 
			},
			{
				"x": 2.6531996773,
				"y": 0.124180524,
				"z": 1.62251602,
				"element": "C" 
			},
			{
				"x": 3.5413661006,
				"y": -0.0082337345,
				"z": 2.695979081,
				"element": "C" 
			},
			{
				"x": 4.6880248553,
				"y": -0.7776282685,
				"z": 2.5452351586,
				"element": "C" 
			},
			{
				"x": 4.9884788422,
				"y": -1.4332767852,
				"z": 1.3346369177,
				"element": "C" 
			},
			{
				"x": 6.2473064267,
				"y": -2.2569040787,
				"z": 1.1955787484,
				"element": "C" 
			},
			{
				"x": 4.0884258456,
				"y": -1.291493371,
				"z": 0.2837084048,
				"element": "C" 
			},
			{
				"x": 2.9208185531,
				"y": -0.5203438715,
				"z": 0.4070581147,
				"element": "C" 
			},
			{
				"x": 1.9655834596,
				"y": -0.4224339175,
				"z": -0.7182823106,
				"element": "C" 
			},
			{
				"x": 2.1153994909,
				"y": -1.0595846646,
				"z": -1.7610526646,
				"element": "O" 
			},
			{
				"x": 0.8230366222,
				"y": 0.4884474428,
				"z": -0.4950900926,
				"element": "C" 
			},
			{
				"x": -0.0650215819,
				"y": 0.6304464225,
				"z": -1.5128684552,
				"element": "C" 
			},
			{
				"x": -1.1634909066,
				"y": 1.4531281674,
				"z": -1.4870063787,
				"element": "N" 
			},
			{
				"x": -2.0293681527,
				"y": 1.6030385993,
				"z": -2.5464188924,
				"element": "C" 
			},
			{
				"x": -1.8968353142,
				"y": 1.0231617138,
				"z": -3.6944923466,
				"element": "N" 
			},
			{
				"x": -2.9333369505,
				"y": 1.3768684026,
				"z": -4.5415383849,
				"element": "C" 
			},
			{
				"x": -3.892192861,
				"y": 2.2701910938,
				"z": -4.0021766593,
				"element": "C" 
			},
			{
				"x": -3.4477038529,
				"y": 2.6711726855,
				"z": -2.3469709121,
				"element": "S" 
			},
			{
				"x": -4.9883515784,
				"y": 2.7147792566,
				"z": -4.7378282158,
				"element": "C" 
			},
			{
				"x": -5.1118293631,
				"y": 2.2423785384,
				"z": -6.0431682526,
				"element": "C" 
			},
			{
				"x": -6.4794845145,
				"y": 2.7744483463,
				"z": -7.011159693,
				"element": "Cl" 
			},
			{
				"x": -4.1810609645,
				"y": 1.358064206,
				"z": -6.6060583745,
				"element": "C" 
			},
			{
				"x": -3.0919092151,
				"y": 0.9245809476,
				"z": -5.8578387306,
				"element": "C" 
			},
			{
				"x": -3.1461889947,
				"y": -0.0322543304,
				"z": 2.6245352758,
				"element": "H" 
			},
			{
				"x": -3.2060609991,
				"y": 1.1837028444,
				"z": 1.3390423647,
				"element": "H" 
			},
			{
				"x": -2.5607563808,
				"y": 1.614571724,
				"z": 2.934927507,
				"element": "H" 
			},
			{
				"x": -0.6477144707,
				"y": 0.0089622017,
				"z": 2.5968463045,
				"element": "H" 
			},
			{
				"x": -1.2688054074,
				"y": -0.3887088691,
				"z": 0.9828846808,
				"element": "H" 
			},
			{
				"x": 1.1089524182,
				"y": 2.3712536776,
				"z": 0.5243365588,
				"element": "H" 
			},
			{
				"x": 3.3154314088,
				"y": 0.4965957253,
				"z": 3.6293682766,
				"element": "H" 
			},
			{
				"x": 5.3720811203,
				"y": -0.8714156739,
				"z": 3.385539424,
				"element": "H" 
			},
			{
				"x": 6.2988687265,
				"y": -2.738012055,
				"z": 0.2154289657,
				"element": "H" 
			},
			{
				"x": 7.145634138,
				"y": -1.6387888052,
				"z": 1.3107660334,
				"element": "H" 
			},
			{
				"x": 6.2984457489,
				"y": -3.0432089037,
				"z": 1.9574980552,
				"element": "H" 
			},
			{
				"x": 4.2568196009,
				"y": -1.7805460553,
				"z": -0.6711896816,
				"element": "H" 
			},
			{
				"x": 0.081060115,
				"y": 0.0665051546,
				"z": -2.4279247247,
				"element": "H" 
			},
			{
				"x": -1.3582913585,
				"y": 1.9188530111,
				"z": -0.6047056502,
				"element": "H" 
			},
			{
				"x": -5.7213636222,
				"y": 3.3981788911,
				"z": -4.3256754528,
				"element": "H" 
			},
			{
				"x": -4.3181746633,
				"y": 1.0172807839,
				"z": -7.6259013314,
				"element": "H" 
			},
			{
				"x": -2.3616642084,
				"y": 0.2408577182,
				"z": -6.2769342525,
				"element": "H" 
			}
		],
		 "valence_orbital": [ 
			{
				"type": "occ",
				"energy": -0.25674,
				"method": "rhf"
			},
			{
				"type": "occ",
				"energy": -0.24919,
				"method": "rhf"
			},
			{
				"type": "occ",
				"energy": -0.24501,
				"method": "rhf"
			},
			{
				"type": "occ",
				"energy": -0.22775,
				"method": "rhf"
			},
			{
				"type": "occ",
				"energy": -0.21574,
				"method": "rhf"
			},
			{
				"type": "unocc",
				"energy": -0.07273,
				"method": "rhf"
			},
			{
				"type": "unocc",
				"energy": -0.03091,
				"method": "rhf"
			},
			{
				"type": "unocc",
				"energy": -0.021,
				"method": "rhf"
			},
			{
				"type": "unocc",
				"energy": -0.01956,
				"method": "rhf"
			},
			{
				"type": "unocc",
				"energy": 0.00053,
				"method": "rhf"
			}
		],
		"cosmo_sigma_profile": { 
			"-0.025": 0.0,
			"-0.024": 0.0,
			"-0.023": 0.0,
			"-0.022": 0.0,
			"-0.021": 0.0,
			"-0.02": 0.0,
			"-0.019": 0.0,
			"-0.018": 0.0,
			"-0.017": 0.0,
			"-0.016": 0.0,
			"-0.015": 0.0,
			"-0.014": 0.0,
			"-0.013": 0.500578267152,
			"-0.012": 0.696331965613,
			"-0.011": 0.900590083406,
			"-0.01": 0.901420856109,
			"-0.009": 2.30375636557,
			"-0.008": 5.86569239251,
			"-0.007": 11.3658106754,
			"-0.006": 15.2123785855,
			"-0.005": 16.2054362756,
			"-0.004": 28.520680122,
			"-0.003": 36.9728354485,
			"-0.002": 38.3046161906,
			"-0.001": 39.2405561629,
			"0.0": 40.4552927413,
			"0.001": 35.9045785741,
			"0.002": 40.8031374488,
			"0.003": 34.4226423704,
			"0.004": 26.3014144559,
			"0.005": 11.5540887335,
			"0.006": 5.41334414763,
			"0.007": 4.76036621897,
			"0.008": 4.68666387217,
			"0.009": 4.26389272187,
			"0.01": 3.93819173537,
			"0.011": 2.55604594959,
			"0.012": 2.93941358325,
			"0.013": 4.33955184328,
			"0.014": 0.295037302328,
			"0.015": 0.0,
			"0.016": 0.0,
			"0.017": 0.0,
			"0.018": 0.0,
			"0.019": 0.0,
			"0.02": 0.0,
			"0.021": 0.0,
			"0.022": 0.0,
			"0.023": 0.0,
			"0.024": 0.0,
			"0.025": 0.0
		}
	}
}
