{
	 "smiles": "COC1=CC=CC(F)=C1C=O", 
	 "Tm": 332.15, 
	 "num_atms": 18, 
	 "gaussian": { 
		 "optdone": 1, 
		 "sigma_profile": "yes", 
		 "theory": "DFT", 
		 "functional": "B3LYP", 
		 "basiset": "6-31G**", 
		 "properties": { 
			 "R2extent": 2374.0087, 
			 "electric_dipole_moment_norm": 5.92063605029, 
			 "electric_quadrupole_moment_norm": 12.6929182334, 
			 "total_energy": -559.323278986, 
			 "HOMO_LUMO_gap": 0.18032, 
			 "cosmo_polarized_energy": -10.89, 
			 "cosmo_cavitation_energy": 22.8, 
			 "cosmo_dispersion_energy": -16.72, 
			 "cosmo_repulsion_energy": 1.32, 
			 "cosmo_total_nonelectrostatic_energy": 7.4, 
			 "SMD_solvation_energy": 6.3 
		},
		"coords": [
			{
				"x": -1.0726638516,
				"y": 1.8862315907,
				"z": -0.5125007133,
				"element": "C" 
			},
			{
				"x": -0.2253197957,
				"y": 0.868247017,
				"z": -1.0294908695,
				"element": "O" 
			},
			{
				"x": 0.7522089144,
				"y": 0.3586492134,
				"z": -0.2351242026,
				"element": "C" 
			},
			{
				"x": 0.9768325044,
				"y": 0.7825467949,
				"z": 1.0793185577,
				"element": "C" 
			},
			{
				"x": 2.0059170459,
				"y": 0.201709528,
				"z": 1.8226070202,
				"element": "C" 
			},
			{
				"x": 2.8158284226,
				"y": -0.7931008704,
				"z": 1.2825755394,
				"element": "C" 
			},
			{
				"x": 2.5771362894,
				"y": -1.200899525,
				"z": -0.024926602,
				"element": "C" 
			},
			{
				"x": 3.3651380326,
				"y": -2.1579714077,
				"z": -0.5276330008,
				"element": "F" 
			},
			{
				"x": 1.558061216,
				"y": -0.6546485915,
				"z": -0.8214703145,
				"element": "C" 
			},
			{
				"x": 1.3101083042,
				"y": -1.09528064,
				"z": -2.2152979272,
				"element": "C" 
			},
			{
				"x": 1.9420922939,
				"y": -1.9525028234,
				"z": -2.8052345438,
				"element": "O" 
			},
			{
				"x": -1.6384573216,
				"y": 1.5337297107,
				"z": 0.3582412795,
				"element": "H" 
			},
			{
				"x": -0.5027214559,
				"y": 2.7821163651,
				"z": -0.2383916122,
				"element": "H" 
			},
			{
				"x": -1.765627198,
				"y": 2.1317989026,
				"z": -1.3177995499,
				"element": "H" 
			},
			{
				"x": 0.3637442307,
				"y": 1.5541170999,
				"z": 1.5267174108,
				"element": "H" 
			},
			{
				"x": 2.1755415294,
				"y": 0.5347610283,
				"z": 2.8422778532,
				"element": "H" 
			},
			{
				"x": 3.6189541308,
				"y": -1.2550536433,
				"z": 1.8445936812,
				"element": "H" 
			},
			{
				"x": 0.4722267085,
				"y": -0.5693497493,
				"z": -2.7092620063,
				"element": "H" 
			}
		],
		 "valence_orbital": [ 
			{
				"type": "occ",
				"energy": -0.35277,
				"method": "rhf"
			},
			{
				"type": "occ",
				"energy": -0.33415,
				"method": "rhf"
			},
			{
				"type": "occ",
				"energy": -0.25925,
				"method": "rhf"
			},
			{
				"type": "occ",
				"energy": -0.24017,
				"method": "rhf"
			},
			{
				"type": "occ",
				"energy": -0.23917,
				"method": "rhf"
			},
			{
				"type": "unocc",
				"energy": -0.05885,
				"method": "rhf"
			},
			{
				"type": "unocc",
				"energy": -0.00148,
				"method": "rhf"
			},
			{
				"type": "unocc",
				"energy": 0.03809,
				"method": "rhf"
			},
			{
				"type": "unocc",
				"energy": 0.07359,
				"method": "rhf"
			},
			{
				"type": "unocc",
				"energy": 0.08938,
				"method": "rhf"
			}
		],
		"cosmo_sigma_profile": { 
			"-0.025": 0.0,
			"-0.024": 0.0,
			"-0.023": 0.0,
			"-0.022": 0.0,
			"-0.021": 0.0,
			"-0.02": 0.0,
			"-0.019": 0.0,
			"-0.018": 0.0,
			"-0.017": 0.0,
			"-0.016": 0.0,
			"-0.015": 0.0,
			"-0.014": 0.0,
			"-0.013": 0.0,
			"-0.012": 0.0,
			"-0.011": 0.0,
			"-0.01": 0.0,
			"-0.009": 0.0,
			"-0.008": 1.11137759591,
			"-0.007": 8.01221906717,
			"-0.006": 14.849612352,
			"-0.005": 15.0273422383,
			"-0.004": 14.9786232108,
			"-0.003": 12.9934392368,
			"-0.002": 9.26500401459,
			"-0.001": 12.1175464705,
			"0.0": 15.822442337,
			"0.001": 16.7911568395,
			"0.002": 11.648134533,
			"0.003": 14.2170269903,
			"0.004": 9.20284597045,
			"0.005": 4.39010868724,
			"0.006": 3.07748499278,
			"0.007": 2.02059143598,
			"0.008": 1.95778690814,
			"0.009": 2.25159598635,
			"0.01": 2.62853003558,
			"0.011": 4.16282660113,
			"0.012": 4.80058257058,
			"0.013": 1.46700805062,
			"0.014": 0.114864467253,
			"0.015": 0.0,
			"0.016": 0.0,
			"0.017": 0.0,
			"0.018": 0.0,
			"0.019": 0.0,
			"0.02": 0.0,
			"0.021": 0.0,
			"0.022": 0.0,
			"0.023": 0.0,
			"0.024": 0.0,
			"0.025": 0.0
		}
	}
}
