{
	 "smiles": "FC(F)(F)C1=CC(=CC=C1)C(F)(F)F", 
	 "Tm": 238.15, 
	 "num_atms": 18, 
	 "gaussian": { 
		 "optdone": 1, 
		 "sigma_profile": "yes", 
		 "theory": "DFT", 
		 "functional": "B3LYP", 
		 "basiset": "6-31G**", 
		 "properties": { 
			 "R2extent": 3054.6511, 
			 "electric_dipole_moment_norm": 2.41150150114, 
			 "electric_quadrupole_moment_norm": 9.88864541987, 
			 "total_energy": -906.317842497, 
			 "HOMO_LUMO_gap": 0.23724, 
			 "cosmo_polarized_energy": -4.11, 
			 "cosmo_cavitation_energy": 25.51, 
			 "cosmo_dispersion_energy": -17.63, 
			 "cosmo_repulsion_energy": 1.27, 
			 "cosmo_total_nonelectrostatic_energy": 9.15, 
			 "SMD_solvation_energy": 6.74 
		},
		"coords": [
			{
				"x": -1.6564574804,
				"y": -1.9503802862,
				"z": 0.8016017719,
				"element": "F" 
			},
			{
				"x": -1.3496474418,
				"y": -1.854623097,
				"z": -0.5093714169,
				"element": "C" 
			},
			{
				"x": -2.4974425504,
				"y": -1.9827706048,
				"z": -1.2101739341,
				"element": "F" 
			},
			{
				"x": -0.5800619681,
				"y": -2.923691897,
				"z": -0.8158908239,
				"element": "F" 
			},
			{
				"x": -0.6464900913,
				"y": -0.5608073607,
				"z": -0.828217565,
				"element": "C" 
			},
			{
				"x": 0.1121784609,
				"y": 0.0776204466,
				"z": 0.1532547807,
				"element": "C" 
			},
			{
				"x": 0.8065800386,
				"y": 1.2447311274,
				"z": -0.1663155314,
				"element": "C" 
			},
			{
				"x": 0.7459255077,
				"y": 1.7718306007,
				"z": -1.4591403724,
				"element": "C" 
			},
			{
				"x": -0.0156286089,
				"y": 1.1290147106,
				"z": -2.4341879346,
				"element": "C" 
			},
			{
				"x": -0.7136061359,
				"y": -0.036850191,
				"z": -2.1220065177,
				"element": "C" 
			},
			{
				"x": 1.5781629189,
				"y": 1.9749452,
				"z": 0.9021020636,
				"element": "C" 
			},
			{
				"x": 0.8226402298,
				"y": 2.9288514356,
				"z": 1.492323924,
				"element": "F" 
			},
			{
				"x": 2.6665402422,
				"y": 2.5937473362,
				"z": 0.3946613041,
				"element": "F" 
			},
			{
				"x": 1.9974644617,
				"y": 1.1418420591,
				"z": 1.8778420891,
				"element": "F" 
			},
			{
				"x": 0.1617395221,
				"y": -0.32984217,
				"z": 1.1558769753,
				"element": "H" 
			},
			{
				"x": 1.2962761385,
				"y": 2.6754477768,
				"z": -1.698120725,
				"element": "H" 
			},
			{
				"x": -0.0652601024,
				"y": 1.5371559885,
				"z": -3.438561509,
				"element": "H" 
			},
			{
				"x": -1.3130131412,
				"y": -0.5374210749,
				"z": -2.8747765784,
				"element": "H" 
			}
		],
		 "valence_orbital": [ 
			{
				"type": "occ",
				"energy": -0.39109,
				"method": "rhf"
			},
			{
				"type": "occ",
				"energy": -0.37357,
				"method": "rhf"
			},
			{
				"type": "occ",
				"energy": -0.36784,
				"method": "rhf"
			},
			{
				"type": "occ",
				"energy": -0.28639,
				"method": "rhf"
			},
			{
				"type": "occ",
				"energy": -0.28521,
				"method": "rhf"
			},
			{
				"type": "unocc",
				"energy": -0.04797,
				"method": "rhf"
			},
			{
				"type": "unocc",
				"energy": -0.03861,
				"method": "rhf"
			},
			{
				"type": "unocc",
				"energy": 0.08305,
				"method": "rhf"
			},
			{
				"type": "unocc",
				"energy": 0.09482,
				"method": "rhf"
			},
			{
				"type": "unocc",
				"energy": 0.12515,
				"method": "rhf"
			}
		],
		"cosmo_sigma_profile": { 
			"-0.025": 0.0,
			"-0.024": 0.0,
			"-0.023": 0.0,
			"-0.022": 0.0,
			"-0.021": 0.0,
			"-0.02": 0.0,
			"-0.019": 0.0,
			"-0.018": 0.0,
			"-0.017": 0.0,
			"-0.016": 0.0,
			"-0.015": 0.0,
			"-0.014": 0.0,
			"-0.013": 0.0,
			"-0.012": 0.0,
			"-0.011": 0.0,
			"-0.01": 0.0,
			"-0.009": 0.0,
			"-0.008": 2.31038658843,
			"-0.007": 7.97534945217,
			"-0.006": 8.51485556675,
			"-0.005": 8.42910673297,
			"-0.004": 7.12273050155,
			"-0.003": 9.13876892869,
			"-0.002": 9.70364758083,
			"-0.001": 14.659168794,
			"0.0": 18.866961986,
			"0.001": 28.3135066753,
			"0.002": 45.5589325709,
			"0.003": 44.213949978,
			"0.004": 0.836808681458,
			"0.005": 0.0,
			"0.006": 0.0,
			"0.007": 0.0,
			"0.008": 0.0,
			"0.009": 0.0,
			"0.01": 0.0,
			"0.011": 0.0,
			"0.012": 0.0,
			"0.013": 0.0,
			"0.014": 0.0,
			"0.015": 0.0,
			"0.016": 0.0,
			"0.017": 0.0,
			"0.018": 0.0,
			"0.019": 0.0,
			"0.02": 0.0,
			"0.021": 0.0,
			"0.022": 0.0,
			"0.023": 0.0,
			"0.024": 0.0,
			"0.025": 0.0
		}
	}
}
