{
	 "smiles": "OC(=O)CC(NC(=O)OCC1C2=C(C=CC=C2)C2=C1C=CC=C2)C1=CC=CC=C1", 
	 "Tm": 460.15, 
	 "num_atms": 50, 
	 "gaussian": { 
		 "optdone": 1, 
		 "sigma_profile": "yes", 
		 "theory": "DFT", 
		 "functional": "B3LYP", 
		 "basiset": "6-31G**", 
		 "properties": { 
			 "R2extent": 11884.8424, 
			 "electric_dipole_moment_norm": 6.61838523584, 
			 "electric_quadrupole_moment_norm": 48.4501695311, 
			 "total_energy": -1282.90976861, 
			 "HOMO_LUMO_gap": 0.18382, 
			 "cosmo_polarized_energy": -25.05, 
			 "cosmo_cavitation_energy": 54.49, 
			 "cosmo_dispersion_energy": -34.04, 
			 "cosmo_repulsion_energy": 2.57, 
			 "cosmo_total_nonelectrostatic_energy": 23.02, 
			 "SMD_solvation_energy": 10.43 
		},
		"coords": [
			{
				"x": 4.433224838,
				"y": -1.9360663428,
				"z": 2.6460617467,
				"element": "O" 
			},
			{
				"x": 5.1540554582,
				"y": -0.808807854,
				"z": 2.4784619173,
				"element": "C" 
			},
			{
				"x": 6.2377311001,
				"y": -0.672452187,
				"z": 2.9929428393,
				"element": "O" 
			},
			{
				"x": 4.5376527242,
				"y": 0.2594901614,
				"z": 1.568740793,
				"element": "C" 
			},
			{
				"x": 3.0159742744,
				"y": 0.474178678,
				"z": 1.703917291,
				"element": "C" 
			},
			{
				"x": 2.300430604,
				"y": -0.7512533073,
				"z": 1.2720655449,
				"element": "N" 
			},
			{
				"x": 1.033371324,
				"y": -0.996995501,
				"z": 1.7934272812,
				"element": "C" 
			},
			{
				"x": 0.594312048,
				"y": -0.4983880893,
				"z": 2.8092080999,
				"element": "O" 
			},
			{
				"x": 0.4106329427,
				"y": -1.9174419531,
				"z": 1.0227877249,
				"element": "O" 
			},
			{
				"x": -0.906238868,
				"y": -2.3365811925,
				"z": 1.4334084117,
				"element": "C" 
			},
			{
				"x": -1.9265015746,
				"y": -2.0453279501,
				"z": 0.3285617622,
				"element": "C" 
			},
			{
				"x": -2.0107129574,
				"y": -0.5830229542,
				"z": -0.085635729,
				"element": "C" 
			},
			{
				"x": -1.8392924919,
				"y": -0.462723841,
				"z": -1.4798297088,
				"element": "C" 
			},
			{
				"x": -1.8942179415,
				"y": 0.7905459621,
				"z": -2.0929856108,
				"element": "C" 
			},
			{
				"x": -2.1129920499,
				"y": 1.9193742995,
				"z": -1.3000811616,
				"element": "C" 
			},
			{
				"x": -2.2743000005,
				"y": 1.7991813652,
				"z": 0.0840953366,
				"element": "C" 
			},
			{
				"x": -2.2252265301,
				"y": 0.5432371358,
				"z": 0.7006285833,
				"element": "C" 
			},
			{
				"x": -1.6177785548,
				"y": -1.80142621,
				"z": -2.0443035994,
				"element": "C" 
			},
			{
				"x": -1.6552029732,
				"y": -2.74355124,
				"z": -0.9967560413,
				"element": "C" 
			},
			{
				"x": -1.4747992693,
				"y": -4.0968499708,
				"z": -1.257242577,
				"element": "C" 
			},
			{
				"x": -1.2506916992,
				"y": -4.5106310964,
				"z": -2.5758481741,
				"element": "C" 
			},
			{
				"x": -1.2138119159,
				"y": -3.5764868244,
				"z": -3.6165357448,
				"element": "C" 
			},
			{
				"x": -1.3985045546,
				"y": -2.2158155254,
				"z": -3.3597386323,
				"element": "C" 
			},
			{
				"x": 2.5264421579,
				"y": 1.7168524984,
				"z": 0.9718664203,
				"element": "C" 
			},
			{
				"x": 2.8634710344,
				"y": 1.9601399291,
				"z": -0.3671979567,
				"element": "C" 
			},
			{
				"x": 2.392293948,
				"y": 3.0964120676,
				"z": -1.0244459241,
				"element": "C" 
			},
			{
				"x": 1.5785914751,
				"y": 4.0088885536,
				"z": -0.3497036781,
				"element": "C" 
			},
			{
				"x": 1.2350091136,
				"y": 3.7746207873,
				"z": 0.9820677255,
				"element": "C" 
			},
			{
				"x": 1.703797463,
				"y": 2.634461512,
				"z": 1.6366538859,
				"element": "C" 
			},
			{
				"x": 3.5817588967,
				"y": -1.8435948455,
				"z": 2.1684487663,
				"element": "H" 
			},
			{
				"x": 5.0586973318,
				"y": 1.1933027295,
				"z": 1.7851598753,
				"element": "H" 
			},
			{
				"x": 4.7892641847,
				"y": -0.0061941242,
				"z": 0.532688761,
				"element": "H" 
			},
			{
				"x": 2.7658564291,
				"y": 0.5821013989,
				"z": 2.7618234705,
				"element": "H" 
			},
			{
				"x": 2.3683751816,
				"y": -0.9736171783,
				"z": 0.2835689273,
				"element": "H" 
			},
			{
				"x": -0.8466390372,
				"y": -3.4120090104,
				"z": 1.6274527772,
				"element": "H" 
			},
			{
				"x": -1.1664149738,
				"y": -1.8225306946,
				"z": 2.3603963923,
				"element": "H" 
			},
			{
				"x": -2.8975273542,
				"y": -2.3773298581,
				"z": 0.7285783367,
				"element": "H" 
			},
			{
				"x": -1.7671535474,
				"y": 0.891194139,
				"z": -3.1673756042,
				"element": "H" 
			},
			{
				"x": -2.1550064422,
				"y": 2.9013442495,
				"z": -1.7624741182,
				"element": "H" 
			},
			{
				"x": -2.4366655665,
				"y": 2.687746174,
				"z": 0.6867542264,
				"element": "H" 
			},
			{
				"x": -2.3415021439,
				"y": 0.4601235622,
				"z": 1.7777013651,
				"element": "H" 
			},
			{
				"x": -1.5059208559,
				"y": -4.8305981779,
				"z": -0.4554083323,
				"element": "H" 
			},
			{
				"x": -1.1062509347,
				"y": -5.5650369944,
				"z": -2.7925025077,
				"element": "H" 
			},
			{
				"x": -1.0413877788,
				"y": -3.9133121536,
				"z": -4.6347811932,
				"element": "H" 
			},
			{
				"x": -1.3711583459,
				"y": -1.4960536422,
				"z": -4.1732405047,
				"element": "H" 
			},
			{
				"x": 3.5026647332,
				"y": 1.2652741142,
				"z": -0.9067092727,
				"element": "H" 
			},
			{
				"x": 2.6648346091,
				"y": 3.2715889966,
				"z": -2.0612043039,
				"element": "H" 
			},
			{
				"x": 1.216758997,
				"y": 4.8970518601,
				"z": -0.8595666134,
				"element": "H" 
			},
			{
				"x": 0.602421563,
				"y": 4.4791849797,
				"z": 1.5143353808,
				"element": "H" 
			},
			{
				"x": 1.4245759298,
				"y": 2.4468035647,
				"z": 2.6693633457,
				"element": "H" 
			}
		],
		 "valence_orbital": [ 
			{
				"type": "occ",
				"energy": -0.26091,
				"method": "rhf"
			},
			{
				"type": "occ",
				"energy": -0.25573,
				"method": "rhf"
			},
			{
				"type": "occ",
				"energy": -0.25126,
				"method": "rhf"
			},
			{
				"type": "occ",
				"energy": -0.25005,
				"method": "rhf"
			},
			{
				"type": "occ",
				"energy": -0.22078,
				"method": "rhf"
			},
			{
				"type": "unocc",
				"energy": -0.03696,
				"method": "rhf"
			},
			{
				"type": "unocc",
				"energy": -0.01963,
				"method": "rhf"
			},
			{
				"type": "unocc",
				"energy": -0.01793,
				"method": "rhf"
			},
			{
				"type": "unocc",
				"energy": -0.01274,
				"method": "rhf"
			},
			{
				"type": "unocc",
				"energy": 0.0026,
				"method": "rhf"
			}
		],
		"cosmo_sigma_profile": { 
			"-0.025": 0.0,
			"-0.024": 0.0,
			"-0.023": 0.0,
			"-0.022": 0.0,
			"-0.021": 0.0,
			"-0.02": 0.0,
			"-0.019": 0.0,
			"-0.018": 0.0,
			"-0.017": 0.0,
			"-0.016": 0.0,
			"-0.015": 0.122488689672,
			"-0.014": 1.28904320213,
			"-0.013": 2.12361297035,
			"-0.012": 1.46069594548,
			"-0.011": 1.92626866558,
			"-0.01": 2.14131297009,
			"-0.009": 3.80482576542,
			"-0.008": 5.71179496201,
			"-0.007": 9.72931342349,
			"-0.006": 30.6509410361,
			"-0.005": 40.6104620304,
			"-0.004": 37.9641903292,
			"-0.003": 32.4570416589,
			"-0.002": 24.3698987434,
			"-0.001": 22.2228123754,
			"0.0": 20.6975237803,
			"0.001": 22.5149593811,
			"0.002": 23.6393718525,
			"0.003": 28.0126189981,
			"0.004": 30.4635481939,
			"0.005": 32.888986115,
			"0.006": 19.4882857006,
			"0.007": 5.2388934553,
			"0.008": 4.53855917841,
			"0.009": 4.03729467825,
			"0.01": 5.24739758635,
			"0.011": 7.79671266988,
			"0.012": 8.85433268942,
			"0.013": 3.7529951681,
			"0.014": 0.539482585124,
			"0.015": 0.0,
			"0.016": 0.0,
			"0.017": 0.0,
			"0.018": 0.0,
			"0.019": 0.0,
			"0.02": 0.0,
			"0.021": 0.0,
			"0.022": 0.0,
			"0.023": 0.0,
			"0.024": 0.0,
			"0.025": 0.0
		}
	}
}
