{
	 "smiles": "NC1=CN(CC(=O)NCCO)N=C1", 
	 "Tm": 372.15, 
	 "num_atms": 25, 
	 "gaussian": { 
		 "optdone": 1, 
		 "sigma_profile": "yes", 
		 "theory": "DFT", 
		 "functional": "B3LYP", 
		 "basiset": "6-31G**", 
		 "properties": { 
			 "R2extent": 3501.3592, 
			 "electric_dipole_moment_norm": 4.51054935679, 
			 "electric_quadrupole_moment_norm": 11.2189790511, 
			 "total_energy": -643.406103625, 
			 "HOMO_LUMO_gap": 0.21235, 
			 "cosmo_polarized_energy": -20.15, 
			 "cosmo_cavitation_energy": 29.31, 
			 "cosmo_dispersion_energy": -20.66, 
			 "cosmo_repulsion_energy": 1.71, 
			 "cosmo_total_nonelectrostatic_energy": 10.36, 
			 "SMD_solvation_energy": 4.97 
		},
		"coords": [
			{
				"x": 2.2381192886,
				"y": 0.040571997,
				"z": -2.5333561335,
				"element": "N" 
			},
			{
				"x": 1.1718685803,
				"y": 0.6106477891,
				"z": -1.8182323692,
				"element": "C" 
			},
			{
				"x": 1.1786165322,
				"y": 1.7526963507,
				"z": -1.0305390649,
				"element": "C" 
			},
			{
				"x": -0.1121311836,
				"y": 1.9632722831,
				"z": -0.6294026517,
				"element": "N" 
			},
			{
				"x": -0.601446618,
				"y": 2.9933658833,
				"z": 0.2679253776,
				"element": "C" 
			},
			{
				"x": -0.9340465654,
				"y": 2.5374169849,
				"z": 1.7026321424,
				"element": "C" 
			},
			{
				"x": -0.778818056,
				"y": 3.3197815256,
				"z": 2.6352109628,
				"element": "O" 
			},
			{
				"x": -1.4377345332,
				"y": 1.2848287493,
				"z": 1.8154709256,
				"element": "N" 
			},
			{
				"x": -1.8485914489,
				"y": 0.7265018838,
				"z": 3.0911335852,
				"element": "C" 
			},
			{
				"x": -1.23542795,
				"y": -0.6459810576,
				"z": 3.321804614,
				"element": "C" 
			},
			{
				"x": -1.7110482635,
				"y": -1.4992759634,
				"z": 2.2855421319,
				"element": "O" 
			},
			{
				"x": -0.9507392996,
				"y": 1.02014925,
				"z": -1.0959585171,
				"element": "N" 
			},
			{
				"x": -0.1814437831,
				"y": 0.1978053438,
				"z": -1.8173174673,
				"element": "C" 
			},
			{
				"x": 2.1191718464,
				"y": -0.9541502849,
				"z": -2.6814035873,
				"element": "H" 
			},
			{
				"x": 3.1402014628,
				"y": 0.2100692034,
				"z": -2.1056080222,
				"element": "H" 
			},
			{
				"x": 1.97718326,
				"y": 2.4230782858,
				"z": -0.7492160623,
				"element": "H" 
			},
			{
				"x": -1.5041252338,
				"y": 3.432945255,
				"z": -0.1693360447,
				"element": "H" 
			},
			{
				"x": 0.1527531061,
				"y": 3.7760661228,
				"z": 0.3512090092,
				"element": "H" 
			},
			{
				"x": -1.5637788598,
				"y": 0.7282398027,
				"z": 0.9756490242,
				"element": "H" 
			},
			{
				"x": -1.5352819385,
				"y": 1.4261420322,
				"z": 3.8693549693,
				"element": "H" 
			},
			{
				"x": -2.9423451165,
				"y": 0.6365846681,
				"z": 3.131470819,
				"element": "H" 
			},
			{
				"x": -0.1383044555,
				"y": -0.5643414297,
				"z": 3.3038240121,
				"element": "H" 
			},
			{
				"x": -1.5352386693,
				"y": -1.0133793685,
				"z": 4.3162403759,
				"element": "H" 
			},
			{
				"x": -1.215469102,
				"y": -2.3261265902,
				"z": 2.3166325216,
				"element": "H" 
			},
			{
				"x": -0.6230429996,
				"y": -0.6524087164,
				"z": -2.3205305507,
				"element": "H" 
			}
		],
		 "valence_orbital": [ 
			{
				"type": "occ",
				"energy": -0.2762,
				"method": "rhf"
			},
			{
				"type": "occ",
				"energy": -0.25921,
				"method": "rhf"
			},
			{
				"type": "occ",
				"energy": -0.24458,
				"method": "rhf"
			},
			{
				"type": "occ",
				"energy": -0.23788,
				"method": "rhf"
			},
			{
				"type": "occ",
				"energy": -0.19924,
				"method": "rhf"
			},
			{
				"type": "unocc",
				"energy": 0.01311,
				"method": "rhf"
			},
			{
				"type": "unocc",
				"energy": 0.03344,
				"method": "rhf"
			},
			{
				"type": "unocc",
				"energy": 0.06867,
				"method": "rhf"
			},
			{
				"type": "unocc",
				"energy": 0.07052,
				"method": "rhf"
			},
			{
				"type": "unocc",
				"energy": 0.09557,
				"method": "rhf"
			}
		],
		"cosmo_sigma_profile": { 
			"-0.025": 0.0,
			"-0.024": 0.0,
			"-0.023": 0.0,
			"-0.022": 0.0,
			"-0.021": 0.0,
			"-0.02": 0.0,
			"-0.019": 0.0,
			"-0.018": 0.0,
			"-0.017": 0.0,
			"-0.016": 0.763529914596,
			"-0.015": 1.0426067045,
			"-0.014": 1.24256775558,
			"-0.013": 0.836540804783,
			"-0.012": 2.60575394625,
			"-0.011": 3.7706540219,
			"-0.01": 3.63400600058,
			"-0.009": 5.37601053322,
			"-0.008": 9.70782739407,
			"-0.007": 10.4753723717,
			"-0.006": 9.99350372742,
			"-0.005": 10.9551646697,
			"-0.004": 20.2730501651,
			"-0.003": 17.4516119907,
			"-0.002": 13.485264647,
			"-0.001": 10.7476682431,
			"0.0": 9.35859488478,
			"0.001": 11.5133248106,
			"0.002": 10.0793835537,
			"0.003": 8.80514459702,
			"0.004": 10.2065374117,
			"0.005": 10.3781216316,
			"0.006": 6.11332021396,
			"0.007": 5.42453167796,
			"0.008": 4.38505102152,
			"0.009": 3.81241237291,
			"0.01": 4.25437953225,
			"0.011": 3.92527333233,
			"0.012": 5.37548621637,
			"0.013": 5.4425451322,
			"0.014": 6.73433170718,
			"0.015": 1.83136181602,
			"0.016": 0.462610591342,
			"0.017": 0.126234287203,
			"0.018": 0.0,
			"0.019": 0.0,
			"0.02": 0.0,
			"0.021": 0.0,
			"0.022": 0.0,
			"0.023": 0.0,
			"0.024": 0.0,
			"0.025": 0.0
		}
	}
}
