{
	 "smiles": "NC(=O)C1=CC(Cl)=C(Cl)C=C1", 
	 "Tm": 414.15, 
	 "num_atms": 16, 
	 "gaussian": { 
		 "optdone": 1, 
		 "sigma_profile": "yes", 
		 "theory": "DFT", 
		 "functional": "B3LYP", 
		 "basiset": "6-31G**", 
		 "properties": { 
			 "R2extent": 2773.3108, 
			 "electric_dipole_moment_norm": 4.50110963652, 
			 "electric_quadrupole_moment_norm": 11.6090313717, 
			 "total_energy": -1320.1332792, 
			 "HOMO_LUMO_gap": 0.20178, 
			 "cosmo_polarized_energy": -13.27, 
			 "cosmo_cavitation_energy": 24.33, 
			 "cosmo_dispersion_energy": -18.32, 
			 "cosmo_repulsion_energy": 1.48, 
			 "cosmo_total_nonelectrostatic_energy": 7.49, 
			 "SMD_solvation_energy": 4.45 
		},
		"coords": [
			{
				"x": 1.8719004267,
				"y": -0.0631346404,
				"z": 2.8720556164,
				"element": "N" 
			},
			{
				"x": 1.5254597033,
				"y": -0.6832730309,
				"z": 1.6965067614,
				"element": "C" 
			},
			{
				"x": 2.0176453502,
				"y": -1.7503285899,
				"z": 1.3545349845,
				"element": "O" 
			},
			{
				"x": 0.4826025186,
				"y": 0.0093957621,
				"z": 0.8617066826,
				"element": "C" 
			},
			{
				"x": 0.3687206464,
				"y": -0.3978323797,
				"z": -0.4704923161,
				"element": "C" 
			},
			{
				"x": -0.5683276366,
				"y": 0.1907244482,
				"z": -1.3158505642,
				"element": "C" 
			},
			{
				"x": -0.6596413213,
				"y": -0.3427601953,
				"z": -2.9751039413,
				"element": "Cl" 
			},
			{
				"x": -1.4182528087,
				"y": 1.1934655202,
				"z": -0.8230271307,
				"element": "C" 
			},
			{
				"x": -2.6092705237,
				"y": 1.9604664479,
				"z": -1.8396301128,
				"element": "Cl" 
			},
			{
				"x": -1.3206634566,
				"y": 1.5877513797,
				"z": 0.5136049882,
				"element": "C" 
			},
			{
				"x": -0.376839793,
				"y": 1.0010907406,
				"z": 1.3512620196,
				"element": "C" 
			},
			{
				"x": 1.7376939923,
				"y": 0.9290458592,
				"z": 2.988656494,
				"element": "H" 
			},
			{
				"x": 2.6496499669,
				"y": -0.478513505,
				"z": 3.3648612459,
				"element": "H" 
			},
			{
				"x": 1.0213305525,
				"y": -1.1831347617,
				"z": -0.8337267505,
				"element": "H" 
			},
			{
				"x": -1.9952746117,
				"y": 2.3497821702,
				"z": 0.8874373778,
				"element": "H" 
			},
			{
				"x": -0.3440330053,
				"y": 1.2994547746,
				"z": 2.3942046453,
				"element": "H" 
			}
		],
		 "valence_orbital": [ 
			{
				"type": "occ",
				"energy": -0.31483,
				"method": "rhf"
			},
			{
				"type": "occ",
				"energy": -0.28512,
				"method": "rhf"
			},
			{
				"type": "occ",
				"energy": -0.27252,
				"method": "rhf"
			},
			{
				"type": "occ",
				"energy": -0.26262,
				"method": "rhf"
			},
			{
				"type": "occ",
				"energy": -0.25843,
				"method": "rhf"
			},
			{
				"type": "unocc",
				"energy": -0.05665,
				"method": "rhf"
			},
			{
				"type": "unocc",
				"energy": -0.03286,
				"method": "rhf"
			},
			{
				"type": "unocc",
				"energy": -0.00237,
				"method": "rhf"
			},
			{
				"type": "unocc",
				"energy": 0.0402,
				"method": "rhf"
			},
			{
				"type": "unocc",
				"energy": 0.05558,
				"method": "rhf"
			}
		],
		"cosmo_sigma_profile": { 
			"-0.025": 0.0,
			"-0.024": 0.0,
			"-0.023": 0.0,
			"-0.022": 0.0,
			"-0.021": 0.0,
			"-0.02": 0.0,
			"-0.019": 0.0,
			"-0.018": 0.0,
			"-0.017": 0.0,
			"-0.016": 0.0,
			"-0.015": 0.46986415048,
			"-0.014": 2.14677269713,
			"-0.013": 3.08271519112,
			"-0.012": 2.16426942468,
			"-0.011": 2.10953212412,
			"-0.01": 3.57200735525,
			"-0.009": 2.31971034899,
			"-0.008": 4.62941481562,
			"-0.007": 6.29292937333,
			"-0.006": 5.72640737763,
			"-0.005": 4.68334339114,
			"-0.004": 5.75610133358,
			"-0.003": 8.58488362924,
			"-0.002": 10.2777964002,
			"-0.001": 16.7314053192,
			"0.0": 23.0552656809,
			"0.001": 23.5114124515,
			"0.002": 16.1435265286,
			"0.003": 17.3063587969,
			"0.004": 16.155916923,
			"0.005": 5.49629719239,
			"0.006": 1.50980896796,
			"0.007": 2.45185874844,
			"0.008": 1.73784844619,
			"0.009": 1.02578017854,
			"0.01": 1.14846791011,
			"0.011": 2.32573226743,
			"0.012": 2.1719580193,
			"0.013": 5.20104192944,
			"0.014": 1.81069012929,
			"0.015": 0.035139988396,
			"0.016": 0.0,
			"0.017": 0.0,
			"0.018": 0.0,
			"0.019": 0.0,
			"0.02": 0.0,
			"0.021": 0.0,
			"0.022": 0.0,
			"0.023": 0.0,
			"0.024": 0.0,
			"0.025": 0.0
		}
	}
}
