{
	 "smiles": "CCC1CC(CC(C)(C)N1O)NC(C)=O", 
	 "Tm": 417.15, 
	 "num_atms": 37, 
	 "gaussian": { 
		 "optdone": 1, 
		 "sigma_profile": "yes", 
		 "theory": "DFT", 
		 "functional": "B3LYP", 
		 "basiset": "6-31G**", 
		 "properties": { 
			 "R2extent": 3887.0759, 
			 "electric_dipole_moment_norm": 3.10779184953, 
			 "electric_quadrupole_moment_norm": 14.4955349649, 
			 "total_energy": -692.346143517, 
			 "HOMO_LUMO_gap": 0.24835, 
			 "cosmo_polarized_energy": -18.09, 
			 "cosmo_cavitation_energy": 34.95, 
			 "cosmo_dispersion_energy": -24.32, 
			 "cosmo_repulsion_energy": 1.9, 
			 "cosmo_total_nonelectrostatic_energy": 12.53, 
			 "SMD_solvation_energy": 5.78 
		},
		"coords": [
			{
				"x": -1.0095121786,
				"y": -0.7116904367,
				"z": 4.3628879559,
				"element": "C" 
			},
			{
				"x": -1.1710675272,
				"y": 0.094180113,
				"z": 3.0672165113,
				"element": "C" 
			},
			{
				"x": 0.1026017098,
				"y": 0.8827100418,
				"z": 2.6913562112,
				"element": "C" 
			},
			{
				"x": 1.2858928001,
				"y": 0.033515647,
				"z": 2.1555081782,
				"element": "C" 
			},
			{
				"x": 1.2446147968,
				"y": -0.2790507442,
				"z": 0.6499183169,
				"element": "C" 
			},
			{
				"x": 0.9123600904,
				"y": 0.9948547226,
				"z": -0.1601469582,
				"element": "C" 
			},
			{
				"x": -0.28295577,
				"y": 1.8318032683,
				"z": 0.3618089521,
				"element": "C" 
			},
			{
				"x": -1.6367175798,
				"y": 1.1622173219,
				"z": 0.0479675834,
				"element": "C" 
			},
			{
				"x": -0.2949607454,
				"y": 3.2044746919,
				"z": -0.3352188409,
				"element": "C" 
			},
			{
				"x": -0.196379568,
				"y": 2.0645172535,
				"z": 1.8410180774,
				"element": "N" 
			},
			{
				"x": 0.8315887253,
				"y": 3.0335481718,
				"z": 2.1187959755,
				"element": "O" 
			},
			{
				"x": 0.3496896194,
				"y": -1.407423812,
				"z": 0.3635161991,
				"element": "N" 
			},
			{
				"x": 0.461596415,
				"y": -2.1253474663,
				"z": -0.7956464703,
				"element": "C" 
			},
			{
				"x": -0.4453737838,
				"y": -3.3423070102,
				"z": -0.9106156885,
				"element": "C" 
			},
			{
				"x": 1.2342465917,
				"y": -1.8038911955,
				"z": -1.6919498645,
				"element": "O" 
			},
			{
				"x": -0.7528990938,
				"y": -0.0579008059,
				"z": 5.2035228982,
				"element": "H" 
			},
			{
				"x": -0.2234515932,
				"y": -1.4715341173,
				"z": 4.2858199507,
				"element": "H" 
			},
			{
				"x": -1.9396269276,
				"y": -1.2298116995,
				"z": 4.6168076444,
				"element": "H" 
			},
			{
				"x": -1.9755257895,
				"y": 0.8267508906,
				"z": 3.1899826691,
				"element": "H" 
			},
			{
				"x": -1.4947209614,
				"y": -0.5763254704,
				"z": 2.2649445027,
				"element": "H" 
			},
			{
				"x": 0.4382122812,
				"y": 1.34289828,
				"z": 3.6261589414,
				"element": "H" 
			},
			{
				"x": 1.3888697279,
				"y": -0.891661011,
				"z": 2.734546445,
				"element": "H" 
			},
			{
				"x": 2.2144821846,
				"y": 0.5891387579,
				"z": 2.3377676373,
				"element": "H" 
			},
			{
				"x": 2.2424656683,
				"y": -0.6019982038,
				"z": 0.3302549958,
				"element": "H" 
			},
			{
				"x": 1.8158241012,
				"y": 1.6220864766,
				"z": -0.1474575147,
				"element": "H" 
			},
			{
				"x": 0.7629471112,
				"y": 0.7199888479,
				"z": -1.207480701,
				"element": "H" 
			},
			{
				"x": -2.4480290861,
				"y": 1.7358274798,
				"z": 0.5048201087,
				"element": "H" 
			},
			{
				"x": -1.7874924047,
				"y": 1.1521650581,
				"z": -1.03608258,
				"element": "H" 
			},
			{
				"x": -1.7023833291,
				"y": 0.1298927732,
				"z": 0.3860333928,
				"element": "H" 
			},
			{
				"x": -1.1105752966,
				"y": 3.8181247829,
				"z": 0.058273459,
				"element": "H" 
			},
			{
				"x": 0.6366186439,
				"y": 3.7508762481,
				"z": -0.1842053974,
				"element": "H" 
			},
			{
				"x": -0.4478919549,
				"y": 3.0667648494,
				"z": -1.4102532711,
				"element": "H" 
			},
			{
				"x": 1.6739243504,
				"y": 2.6731391151,
				"z": 1.7857268639,
				"element": "H" 
			},
			{
				"x": -0.2141224153,
				"y": -1.7809258403,
				"z": 1.1106949865,
				"element": "H" 
			},
			{
				"x": 0.1724807144,
				"y": -4.2240466164,
				"z": -1.1005598019,
				"element": "H" 
			},
			{
				"x": -1.0634577354,
				"y": -3.5220259819,
				"z": -0.0263155783,
				"element": "H" 
			},
			{
				"x": -1.0992717913,
				"y": -3.2115343799,
				"z": -1.7773157898,
				"element": "H" 
			}
		],
		 "valence_orbital": [ 
			{
				"type": "occ",
				"energy": -0.31853,
				"method": "rhf"
			},
			{
				"type": "occ",
				"energy": -0.27812,
				"method": "rhf"
			},
			{
				"type": "occ",
				"energy": -0.2508,
				"method": "rhf"
			},
			{
				"type": "occ",
				"energy": -0.24605,
				"method": "rhf"
			},
			{
				"type": "occ",
				"energy": -0.22087,
				"method": "rhf"
			},
			{
				"type": "unocc",
				"energy": 0.02748,
				"method": "rhf"
			},
			{
				"type": "unocc",
				"energy": 0.044,
				"method": "rhf"
			},
			{
				"type": "unocc",
				"energy": 0.06083,
				"method": "rhf"
			},
			{
				"type": "unocc",
				"energy": 0.08286,
				"method": "rhf"
			},
			{
				"type": "unocc",
				"energy": 0.09781,
				"method": "rhf"
			}
		],
		"cosmo_sigma_profile": { 
			"-0.025": 0.0,
			"-0.024": 0.0,
			"-0.023": 0.0,
			"-0.022": 0.0,
			"-0.021": 0.0,
			"-0.02": 0.0,
			"-0.019": 0.0,
			"-0.018": 0.0,
			"-0.017": 0.0,
			"-0.016": 0.0,
			"-0.015": 0.0,
			"-0.014": 0.433452083871,
			"-0.013": 1.14064655517,
			"-0.012": 2.16973948785,
			"-0.011": 2.85303081516,
			"-0.01": 3.10177376674,
			"-0.009": 3.45224875599,
			"-0.008": 2.82176600947,
			"-0.007": 3.91055774525,
			"-0.006": 5.34494661102,
			"-0.005": 10.6231036607,
			"-0.004": 14.6224807052,
			"-0.003": 30.6408582483,
			"-0.002": 33.0637902409,
			"-0.001": 35.7476271356,
			"0.0": 29.8788236087,
			"0.001": 28.6587286656,
			"0.002": 12.1615381845,
			"0.003": 2.85921512496,
			"0.004": 3.55787420213,
			"0.005": 3.85104184653,
			"0.006": 2.61597303759,
			"0.007": 3.06600701178,
			"0.008": 3.36932942487,
			"0.009": 3.58319758118,
			"0.01": 2.89644267418,
			"0.011": 2.26298432223,
			"0.012": 3.96023972015,
			"0.013": 4.77659519233,
			"0.014": 7.1653251415,
			"0.015": 4.04680314227,
			"0.016": 0.661547521333,
			"0.017": 0.0,
			"0.018": 0.0,
			"0.019": 0.0,
			"0.02": 0.0,
			"0.021": 0.0,
			"0.022": 0.0,
			"0.023": 0.0,
			"0.024": 0.0,
			"0.025": 0.0
		}
	}
}
