{
	 "smiles": "OC1=C(O)C(O)=C2C(=O)C3=C(C=CC=C3)C(=O)C2=C1", 
	 "Tm": 586.15, 
	 "num_atms": 27, 
	 "gaussian": { 
		 "optdone": 1, 
		 "sigma_profile": "yes", 
		 "theory": "DFT", 
		 "functional": "B3LYP", 
		 "basiset": "6-31G**", 
		 "properties": { 
			 "R2extent": 5421.8714, 
			 "electric_dipole_moment_norm": 3.36983110853, 
			 "electric_quadrupole_moment_norm": 31.3187479035, 
			 "total_energy": -914.434131645, 
			 "HOMO_LUMO_gap": 0.13526, 
			 "cosmo_polarized_energy": -20.95, 
			 "cosmo_cavitation_energy": 31.76, 
			 "cosmo_dispersion_energy": -24.09, 
			 "cosmo_repulsion_energy": 1.78, 
			 "cosmo_total_nonelectrostatic_energy": 9.45, 
			 "SMD_solvation_energy": 6.92 
		},
		"coords": [
			{
				"x": -0.6486954861,
				"y": -5.0741217682,
				"z": 1.2022959737,
				"element": "O" 
			},
			{
				"x": -0.5863581546,
				"y": -3.7099413403,
				"z": 1.0985907025,
				"element": "C" 
			},
			{
				"x": -1.5203557505,
				"y": -3.0177240319,
				"z": 1.8685051149,
				"element": "C" 
			},
			{
				"x": -2.4257318817,
				"y": -3.662972597,
				"z": 2.6635295825,
				"element": "O" 
			},
			{
				"x": -1.5719989118,
				"y": -1.6134391123,
				"z": 1.8603428294,
				"element": "C" 
			},
			{
				"x": -2.5006382001,
				"y": -1.0088891558,
				"z": 2.6287964102,
				"element": "O" 
			},
			{
				"x": -0.6632485218,
				"y": -0.8855971806,
				"z": 1.059233223,
				"element": "C" 
			},
			{
				"x": -0.6827269364,
				"y": 0.5990249158,
				"z": 1.0207337153,
				"element": "C" 
			},
			{
				"x": -1.4752082969,
				"y": 1.2717274016,
				"z": 1.67010318,
				"element": "O" 
			},
			{
				"x": 0.3228434486,
				"y": 1.2783499028,
				"z": 0.138314517,
				"element": "C" 
			},
			{
				"x": 1.2528024259,
				"y": 0.5532593148,
				"z": -0.6269858173,
				"element": "C" 
			},
			{
				"x": 2.1736272577,
				"y": 1.2299368903,
				"z": -1.4370692835,
				"element": "C" 
			},
			{
				"x": 2.1690911243,
				"y": 2.6206907348,
				"z": -1.4853960638,
				"element": "C" 
			},
			{
				"x": 1.2433416568,
				"y": 3.3443813267,
				"z": -0.7236388706,
				"element": "C" 
			},
			{
				"x": 0.3256238183,
				"y": 2.6768786652,
				"z": 0.0834734012,
				"element": "C" 
			},
			{
				"x": 1.2725547796,
				"y": -0.9314524336,
				"z": -0.5881522735,
				"element": "C" 
			},
			{
				"x": 2.0800643296,
				"y": -1.5774189195,
				"z": -1.2522379836,
				"element": "O" 
			},
			{
				"x": 0.2762503336,
				"y": -1.6146621584,
				"z": 0.2859448728,
				"element": "C" 
			},
			{
				"x": 0.3143211138,
				"y": -3.009045085,
				"z": 0.3053085785,
				"element": "C" 
			},
			{
				"x": 0.0267759794,
				"y": -5.4768469576,
				"z": 0.6416856797,
				"element": "H" 
			},
			{
				"x": -2.2826831057,
				"y": -4.6171895529,
				"z": 2.5767580779,
				"element": "H" 
			},
			{
				"x": -3.0016207916,
				"y": -1.7065881782,
				"z": 3.0812989717,
				"element": "H" 
			},
			{
				"x": 2.878239954,
				"y": 0.6417516929,
				"z": -2.0153937041,
				"element": "H" 
			},
			{
				"x": 2.8836131132,
				"y": 3.1442489028,
				"z": -2.1139170657,
				"element": "H" 
			},
			{
				"x": 1.240380639,
				"y": 4.4299592335,
				"z": -0.7618337578,
				"element": "H" 
			},
			{
				"x": -0.4018269622,
				"y": 3.2131967341,
				"z": 0.6832579986,
				"element": "H" 
			},
			{
				"x": 1.0554630254,
				"y": -3.5136172439,
				"z": -0.3072480091,
				"element": "H" 
			}
		],
		 "valence_orbital": [ 
			{
				"type": "occ",
				"energy": -0.2595,
				"method": "rhf"
			},
			{
				"type": "occ",
				"energy": -0.25912,
				"method": "rhf"
			},
			{
				"type": "occ",
				"energy": -0.24277,
				"method": "rhf"
			},
			{
				"type": "occ",
				"energy": -0.24045,
				"method": "rhf"
			},
			{
				"type": "occ",
				"energy": -0.22728,
				"method": "rhf"
			},
			{
				"type": "unocc",
				"energy": -0.09202,
				"method": "rhf"
			},
			{
				"type": "unocc",
				"energy": -0.04431,
				"method": "rhf"
			},
			{
				"type": "unocc",
				"energy": -0.01132,
				"method": "rhf"
			},
			{
				"type": "unocc",
				"energy": 0.00086,
				"method": "rhf"
			},
			{
				"type": "unocc",
				"energy": 0.03275,
				"method": "rhf"
			}
		],
		"cosmo_sigma_profile": { 
			"-0.025": 0.0,
			"-0.024": 0.0,
			"-0.023": 0.0,
			"-0.022": 0.0,
			"-0.021": 0.0,
			"-0.02": 0.0281773600785,
			"-0.019": 0.972388389865,
			"-0.018": 1.25774729284,
			"-0.017": 1.52511546298,
			"-0.016": 1.47805477215,
			"-0.015": 2.50107150134,
			"-0.014": 2.1329090727,
			"-0.013": 1.45084868454,
			"-0.012": 1.53895664515,
			"-0.011": 3.2446860944,
			"-0.01": 2.11582862028,
			"-0.009": 2.4275057956,
			"-0.008": 2.01246746499,
			"-0.007": 6.96832098356,
			"-0.006": 10.2313453669,
			"-0.005": 12.6915168956,
			"-0.004": 11.9856131107,
			"-0.003": 12.3461266137,
			"-0.002": 12.6657856273,
			"-0.001": 18.3879871951,
			"0.0": 24.3913598113,
			"0.001": 26.5583988706,
			"0.002": 25.4431473816,
			"0.003": 15.9486646075,
			"0.004": 7.7587397218,
			"0.005": 6.92557388072,
			"0.006": 5.59744721355,
			"0.007": 5.01997466306,
			"0.008": 3.67875852675,
			"0.009": 4.33877699422,
			"0.01": 3.55127664933,
			"0.011": 6.18084491559,
			"0.012": 6.35781340655,
			"0.013": 2.11353281108,
			"0.014": 1.59427551195,
			"0.015": 1.39391047494,
			"0.016": 0.854284644289,
			"0.017": 0.0783859305044,
			"0.018": 0.0,
			"0.019": 0.0,
			"0.02": 0.0,
			"0.021": 0.0,
			"0.022": 0.0,
			"0.023": 0.0,
			"0.024": 0.0,
			"0.025": 0.0
		}
	}
}
