{
	 "smiles": "CC1=NN(CCC#N)C(NC(=O)OCC(F)(F)F)=C1", 
	 "Tm": 402.15, 
	 "num_atms": 30, 
	 "gaussian": { 
		 "optdone": 1, 
		 "sigma_profile": "yes", 
		 "theory": "DFT", 
		 "functional": "B3LYP", 
		 "basiset": "6-31G**", 
		 "properties": { 
			 "R2extent": 5695.1609, 
			 "electric_dipole_moment_norm": 4.31813450231, 
			 "electric_quadrupole_moment_norm": 15.2682684945, 
			 "total_energy": -1056.65907987, 
			 "HOMO_LUMO_gap": 0.24625, 
			 "cosmo_polarized_energy": -18.15, 
			 "cosmo_cavitation_energy": 37.5, 
			 "cosmo_dispersion_energy": -24.0, 
			 "cosmo_repulsion_energy": 1.86, 
			 "cosmo_total_nonelectrostatic_energy": 15.36, 
			 "SMD_solvation_energy": 9.41 
		},
		"coords": [
			{
				"x": -2.9754912838,
				"y": -2.2544899253,
				"z": -1.5119956395,
				"element": "C" 
			},
			{
				"x": -2.2568882011,
				"y": -1.3605837911,
				"z": -0.5483715208,
				"element": "C" 
			},
			{
				"x": -1.6355517062,
				"y": -1.874141319,
				"z": 0.5162516424,
				"element": "N" 
			},
			{
				"x": -1.1082450774,
				"y": -0.8189383239,
				"z": 1.1779532729,
				"element": "N" 
			},
			{
				"x": -0.3286233967,
				"y": -1.0542132166,
				"z": 2.3775404147,
				"element": "C" 
			},
			{
				"x": 0.9497656924,
				"y": -1.8567083202,
				"z": 2.0511136383,
				"element": "C" 
			},
			{
				"x": 1.7602764196,
				"y": -2.0859695029,
				"z": 3.2475393598,
				"element": "C" 
			},
			{
				"x": 2.391087472,
				"y": -2.2462646125,
				"z": 4.2086423031,
				"element": "N" 
			},
			{
				"x": -1.3605030246,
				"y": 0.3586873607,
				"z": 0.5282696041,
				"element": "C" 
			},
			{
				"x": -0.9709437182,
				"y": 1.6119861539,
				"z": 1.0393228356,
				"element": "N" 
			},
			{
				"x": 0.2811764628,
				"y": 2.1797550547,
				"z": 0.9576568847,
				"element": "C" 
			},
			{
				"x": 0.5147237807,
				"y": 3.3496208882,
				"z": 1.1701249621,
				"element": "O" 
			},
			{
				"x": 1.2212451965,
				"y": 1.2411891664,
				"z": 0.6524715512,
				"element": "O" 
			},
			{
				"x": 2.5574582887,
				"y": 1.7251679683,
				"z": 0.529273754,
				"element": "C" 
			},
			{
				"x": 3.2338560088,
				"y": 0.9251627571,
				"z": -0.566450427,
				"element": "C" 
			},
			{
				"x": 4.5144417499,
				"y": 1.3268024659,
				"z": -0.6807603348,
				"element": "F" 
			},
			{
				"x": 3.2378423439,
				"y": -0.3972982091,
				"z": -0.2881377836,
				"element": "F" 
			},
			{
				"x": 2.6289151611,
				"y": 1.0921294264,
				"z": -1.7535478301,
				"element": "F" 
			},
			{
				"x": -2.112310277,
				"y": 0.0466153005,
				"z": -0.5884424818,
				"element": "C" 
			},
			{
				"x": -2.563922144,
				"y": -2.1647636023,
				"z": -2.5232196734,
				"element": "H" 
			},
			{
				"x": -2.8808667261,
				"y": -3.2942875023,
				"z": -1.1917932736,
				"element": "H" 
			},
			{
				"x": -4.0409958947,
				"y": -2.0060751273,
				"z": -1.5692304569,
				"element": "H" 
			},
			{
				"x": -0.9439411262,
				"y": -1.6077027762,
				"z": 3.0919928384,
				"element": "H" 
			},
			{
				"x": -0.0802958285,
				"y": -0.0856954145,
				"z": 2.8130325687,
				"element": "H" 
			},
			{
				"x": 0.6623163919,
				"y": -2.8174554146,
				"z": 1.6124641351,
				"element": "H" 
			},
			{
				"x": 1.5474159166,
				"y": -1.3199052831,
				"z": 1.3086026497,
				"element": "H" 
			},
			{
				"x": -1.6953752769,
				"y": 2.3001266722,
				"z": 1.1950336543,
				"element": "H" 
			},
			{
				"x": 3.1018386615,
				"y": 1.5751876094,
				"z": 1.4660300579,
				"element": "H" 
			},
			{
				"x": 2.5628131724,
				"y": 2.7858291969,
				"z": 0.273894403,
				"element": "H" 
			},
			{
				"x": -2.4912190375,
				"y": 0.7392323202,
				"z": -1.3255611087,
				"element": "H" 
			}
		],
		 "valence_orbital": [ 
			{
				"type": "occ",
				"energy": -0.31908,
				"method": "rhf"
			},
			{
				"type": "occ",
				"energy": -0.31146,
				"method": "rhf"
			},
			{
				"type": "occ",
				"energy": -0.29234,
				"method": "rhf"
			},
			{
				"type": "occ",
				"energy": -0.25668,
				"method": "rhf"
			},
			{
				"type": "occ",
				"energy": -0.25232,
				"method": "rhf"
			},
			{
				"type": "unocc",
				"energy": -0.00607,
				"method": "rhf"
			},
			{
				"type": "unocc",
				"energy": 0.01747,
				"method": "rhf"
			},
			{
				"type": "unocc",
				"energy": 0.03049,
				"method": "rhf"
			},
			{
				"type": "unocc",
				"energy": 0.0368,
				"method": "rhf"
			},
			{
				"type": "unocc",
				"energy": 0.04497,
				"method": "rhf"
			}
		],
		"cosmo_sigma_profile": { 
			"-0.025": 0.0,
			"-0.024": 0.0,
			"-0.023": 0.0,
			"-0.022": 0.0,
			"-0.021": 0.0,
			"-0.02": 0.0,
			"-0.019": 0.0,
			"-0.018": 0.0,
			"-0.017": 0.0,
			"-0.016": 0.70330849003,
			"-0.015": 1.17679598386,
			"-0.014": 1.29112078348,
			"-0.013": 0.60484797253,
			"-0.012": 0.869177223457,
			"-0.011": 1.11298352753,
			"-0.01": 1.34355924135,
			"-0.009": 5.14605365994,
			"-0.008": 8.31674016088,
			"-0.007": 13.647065131,
			"-0.006": 14.6898376932,
			"-0.005": 16.8822510229,
			"-0.004": 20.7335804594,
			"-0.003": 19.4538928695,
			"-0.002": 18.7774237167,
			"-0.001": 21.2618804734,
			"0.0": 18.3335228227,
			"0.001": 15.7357405855,
			"0.002": 33.2483866316,
			"0.003": 22.9436491027,
			"0.004": 9.887974935,
			"0.005": 6.52199096591,
			"0.006": 5.87259203661,
			"0.007": 5.59000894246,
			"0.008": 5.60376873232,
			"0.009": 5.64188222329,
			"0.01": 6.398304542,
			"0.011": 8.02065857991,
			"0.012": 6.37709796102,
			"0.013": 2.33329302372,
			"0.014": 0.966955810734,
			"0.015": 0.209435929413,
			"0.016": 0.0,
			"0.017": 0.0,
			"0.018": 0.0,
			"0.019": 0.0,
			"0.02": 0.0,
			"0.021": 0.0,
			"0.022": 0.0,
			"0.023": 0.0,
			"0.024": 0.0,
			"0.025": 0.0
		}
	}
}
