{
	 "smiles": "OC(=O)C1=CNC=C1C1=CC=C(C=C1)[N+]([O-])=O", 
	 "Tm": 483.15, 
	 "num_atms": 25, 
	 "gaussian": { 
		 "optdone": 1, 
		 "sigma_profile": "yes", 
		 "theory": "DFT", 
		 "functional": "B3LYP", 
		 "basiset": "6-31G**", 
		 "properties": { 
			 "R2extent": 5502.0039, 
			 "electric_dipole_moment_norm": 9.1856651991, 
			 "electric_quadrupole_moment_norm": 23.760014838, 
			 "total_energy": -834.305000004, 
			 "HOMO_LUMO_gap": 0.15256, 
			 "cosmo_polarized_energy": -20.62, 
			 "cosmo_cavitation_energy": 30.98, 
			 "cosmo_dispersion_energy": -22.66, 
			 "cosmo_repulsion_energy": 1.74, 
			 "cosmo_total_nonelectrostatic_energy": 10.06, 
			 "SMD_solvation_energy": 8.85 
		},
		"coords": [
			{
				"x": -0.5816950539,
				"y": 2.4306722009,
				"z": -2.5327030155,
				"element": "O" 
			},
			{
				"x": -0.1199531341,
				"y": 1.6793065496,
				"z": -1.4924936471,
				"element": "C" 
			},
			{
				"x": 0.5657521613,
				"y": 2.1707890966,
				"z": -0.6154199574,
				"element": "O" 
			},
			{
				"x": -0.5534093303,
				"y": 0.2827906887,
				"z": -1.5961915945,
				"element": "C" 
			},
			{
				"x": -1.3507589972,
				"y": -0.1876175759,
				"z": -2.6281788404,
				"element": "C" 
			},
			{
				"x": -1.5177430856,
				"y": -1.5268111091,
				"z": -2.4551842028,
				"element": "N" 
			},
			{
				"x": -0.8384443292,
				"y": -1.9431445457,
				"z": -1.3345454912,
				"element": "C" 
			},
			{
				"x": -0.2174089057,
				"y": -0.8498158725,
				"z": -0.7591183694,
				"element": "C" 
			},
			{
				"x": 0.5976347189,
				"y": -0.9450921973,
				"z": 0.4667031463,
				"element": "C" 
			},
			{
				"x": 0.5669200136,
				"y": 0.0399376628,
				"z": 1.471323217,
				"element": "C" 
			},
			{
				"x": 1.2978837368,
				"y": -0.1135111957,
				"z": 2.6434547555,
				"element": "C" 
			},
			{
				"x": 2.0673542796,
				"y": -1.2629330245,
				"z": 2.8181684468,
				"element": "C" 
			},
			{
				"x": 2.1278074844,
				"y": -2.2568129108,
				"z": 1.8431956933,
				"element": "C" 
			},
			{
				"x": 1.3959598809,
				"y": -2.0880470433,
				"z": 0.6742454304,
				"element": "C" 
			},
			{
				"x": 2.837273594,
				"y": -1.4300680911,
				"z": 4.0559449244,
				"element": "N" 
			},
			{
				"x": 2.7662178291,
				"y": -0.5370202782,
				"z": 4.9010390416,
				"element": "O" 
			},
			{
				"x": 3.5084567812,
				"y": -2.4561812844,
				"z": 4.1793425068,
				"element": "O" 
			},
			{
				"x": -0.2474219878,
				"y": 3.3276577024,
				"z": -2.3696224139,
				"element": "H" 
			},
			{
				"x": -1.7860852907,
				"y": 0.3453575177,
				"z": -3.4585383031,
				"element": "H" 
			},
			{
				"x": -2.0713124457,
				"y": -2.1229977646,
				"z": -3.0504657541,
				"element": "H" 
			},
			{
				"x": -0.8768295997,
				"y": -2.9705155433,
				"z": -1.0059425011,
				"element": "H" 
			},
			{
				"x": -0.0218958833,
				"y": 0.9348857713,
				"z": 1.323711281,
				"element": "H" 
			},
			{
				"x": 1.2788800668,
				"y": 0.637049183,
				"z": 3.4235521256,
				"element": "H" 
			},
			{
				"x": 2.7472058215,
				"y": -3.1293735006,
				"z": 2.0082485325,
				"element": "H" 
			},
			{
				"x": 1.458711675,
				"y": -2.8417044362,
				"z": -0.1042250106,
				"element": "H" 
			}
		],
		 "valence_orbital": [ 
			{
				"type": "occ",
				"energy": -0.28036,
				"method": "rhf"
			},
			{
				"type": "occ",
				"energy": -0.27818,
				"method": "rhf"
			},
			{
				"type": "occ",
				"energy": -0.26453,
				"method": "rhf"
			},
			{
				"type": "occ",
				"energy": -0.25801,
				"method": "rhf"
			},
			{
				"type": "occ",
				"energy": -0.23286,
				"method": "rhf"
			},
			{
				"type": "unocc",
				"energy": -0.0803,
				"method": "rhf"
			},
			{
				"type": "unocc",
				"energy": -0.03066,
				"method": "rhf"
			},
			{
				"type": "unocc",
				"energy": -0.01486,
				"method": "rhf"
			},
			{
				"type": "unocc",
				"energy": -0.00327,
				"method": "rhf"
			},
			{
				"type": "unocc",
				"energy": 0.03912,
				"method": "rhf"
			}
		],
		"cosmo_sigma_profile": { 
			"-0.025": 0.0,
			"-0.024": 0.0,
			"-0.023": 0.0,
			"-0.022": 0.0,
			"-0.021": 0.0,
			"-0.02": 0.0,
			"-0.019": 0.0,
			"-0.018": 0.34085268254,
			"-0.017": 1.87763114746,
			"-0.016": 3.27343398993,
			"-0.015": 2.29426771885,
			"-0.014": 1.66012787806,
			"-0.013": 1.54196640926,
			"-0.012": 2.16687007655,
			"-0.011": 2.41032292562,
			"-0.01": 1.84331748269,
			"-0.009": 4.79736398949,
			"-0.008": 5.15411657205,
			"-0.007": 8.18984871239,
			"-0.006": 10.0161990857,
			"-0.005": 10.6776381691,
			"-0.004": 10.6643791317,
			"-0.003": 10.1637612099,
			"-0.002": 11.7748125836,
			"-0.001": 16.6510866533,
			"0.0": 15.8015319849,
			"0.001": 19.2446363395,
			"0.002": 24.8882665223,
			"0.003": 18.2074464793,
			"0.004": 10.9326995442,
			"0.005": 6.05954254356,
			"0.006": 7.07902115451,
			"0.007": 8.13236707513,
			"0.008": 13.177660726,
			"0.009": 6.92555708496,
			"0.01": 5.55636219318,
			"0.011": 3.17734311867,
			"0.012": 3.50840542479,
			"0.013": 0.74913913183,
			"0.014": 0.0,
			"0.015": 0.0,
			"0.016": 0.0,
			"0.017": 0.0,
			"0.018": 0.0,
			"0.019": 0.0,
			"0.02": 0.0,
			"0.021": 0.0,
			"0.022": 0.0,
			"0.023": 0.0,
			"0.024": 0.0,
			"0.025": 0.0
		}
	}
}
