{
	 "smiles": "[O-][N+](=O)C1=CC(Br)=C(Cl)C=C1", 
	 "Tm": 331.15, 
	 "num_atms": 14, 
	 "gaussian": { 
		 "optdone": 1, 
		 "sigma_profile": "yes", 
		 "theory": "DFT", 
		 "functional": "B3LYP", 
		 "basiset": "6-31G**", 
		 "properties": { 
			 "R2extent": 4975.9756, 
			 "electric_dipole_moment_norm": 2.68836615066, 
			 "electric_quadrupole_moment_norm": 7.97311283753, 
			 "total_energy": -3467.13350211, 
			 "HOMO_LUMO_gap": 0.1686, 
			 "cosmo_polarized_energy": -7.19, 
			 "cosmo_cavitation_energy": 23.57, 
			 "cosmo_dispersion_energy": -17.96, 
			 "cosmo_repulsion_energy": 1.44, 
			 "cosmo_total_nonelectrostatic_energy": 7.04, 
			 "SMD_solvation_energy": 5.04 
		},
		"coords": [
			{
				"x": -0.466562697,
				"y": -1.9844442707,
				"z": 0.0391304894,
				"element": "O" 
			},
			{
				"x": 0.3018636327,
				"y": -1.0827411397,
				"z": 0.368586444,
				"element": "N" 
			},
			{
				"x": 1.2126246887,
				"y": -1.1937843819,
				"z": 1.1868735642,
				"element": "O" 
			},
			{
				"x": 0.1144154863,
				"y": 0.2313570228,
				"z": -0.2686109978,
				"element": "C" 
			},
			{
				"x": 0.9685019015,
				"y": 1.2706957712,
				"z": 0.0844080877,
				"element": "C" 
			},
			{
				"x": 0.7992158269,
				"y": 2.5177964583,
				"z": -0.5129277835,
				"element": "C" 
			},
			{
				"x": 1.9724472736,
				"y": 3.9234518489,
				"z": -0.0196637896,
				"element": "Br" 
			},
			{
				"x": -0.2249261032,
				"y": 2.7037354951,
				"z": -1.4561007609,
				"element": "C" 
			},
			{
				"x": -0.4801696539,
				"y": 4.2391669798,
				"z": -2.2316275901,
				"element": "Cl" 
			},
			{
				"x": -1.0705634956,
				"y": 1.6404084427,
				"z": -1.7931953712,
				"element": "C" 
			},
			{
				"x": -0.9070089884,
				"y": 0.3941983858,
				"z": -1.200998922,
				"element": "C" 
			},
			{
				"x": 1.7494193388,
				"y": 1.1013195069,
				"z": 0.8135809207,
				"element": "H" 
			},
			{
				"x": -1.8550756866,
				"y": 1.8033784494,
				"z": -2.5231144965,
				"element": "H" 
			},
			{
				"x": -1.5493815238,
				"y": -0.4415385685,
				"z": -1.4468397944,
				"element": "H" 
			}
		],
		 "valence_orbital": [ 
			{
				"type": "occ",
				"energy": -0.32171,
				"method": "rhf"
			},
			{
				"type": "occ",
				"energy": -0.30539,
				"method": "rhf"
			},
			{
				"type": "occ",
				"energy": -0.30437,
				"method": "rhf"
			},
			{
				"type": "occ",
				"energy": -0.2898,
				"method": "rhf"
			},
			{
				"type": "occ",
				"energy": -0.27312,
				"method": "rhf"
			},
			{
				"type": "unocc",
				"energy": -0.10452,
				"method": "rhf"
			},
			{
				"type": "unocc",
				"energy": -0.05124,
				"method": "rhf"
			},
			{
				"type": "unocc",
				"energy": -0.03128,
				"method": "rhf"
			},
			{
				"type": "unocc",
				"energy": -0.02097,
				"method": "rhf"
			},
			{
				"type": "unocc",
				"energy": 0.03132,
				"method": "rhf"
			}
		],
		"cosmo_sigma_profile": { 
			"-0.025": 0.0,
			"-0.024": 0.0,
			"-0.023": 0.0,
			"-0.022": 0.0,
			"-0.021": 0.0,
			"-0.02": 0.0,
			"-0.019": 0.0,
			"-0.018": 0.0,
			"-0.017": 0.0,
			"-0.016": 0.0,
			"-0.015": 0.0,
			"-0.014": 0.0,
			"-0.013": 0.0,
			"-0.012": 0.0,
			"-0.011": 0.0,
			"-0.01": 0.0922620741266,
			"-0.009": 2.78985589567,
			"-0.008": 5.33052993259,
			"-0.007": 5.6643301828,
			"-0.006": 6.78345466153,
			"-0.005": 7.77600174837,
			"-0.004": 9.68337805681,
			"-0.003": 12.7565686143,
			"-0.002": 24.0353814638,
			"-0.001": 23.0435615659,
			"0.0": 14.6961538727,
			"0.001": 12.5761659365,
			"0.002": 13.9846837828,
			"0.003": 19.6610632523,
			"0.004": 8.82157494135,
			"0.005": 3.98388194256,
			"0.006": 4.81491742946,
			"0.007": 9.12478027448,
			"0.008": 5.44875341497,
			"0.009": 3.74045443452,
			"0.01": 1.01863965835,
			"0.011": 0.0,
			"0.012": 0.0,
			"0.013": 0.0,
			"0.014": 0.0,
			"0.015": 0.0,
			"0.016": 0.0,
			"0.017": 0.0,
			"0.018": 0.0,
			"0.019": 0.0,
			"0.02": 0.0,
			"0.021": 0.0,
			"0.022": 0.0,
			"0.023": 0.0,
			"0.024": 0.0,
			"0.025": 0.0
		}
	}
}
