{
	 "smiles": "OC(=O)C1=C(O)C(F)=CC=C1", 
	 "Tm": 420.15, 
	 "num_atms": 16, 
	 "gaussian": { 
		 "optdone": 1, 
		 "sigma_profile": "yes", 
		 "theory": "DFT", 
		 "functional": "B3LYP", 
		 "basiset": "6-31G**", 
		 "properties": { 
			 "R2extent": 2791.4039, 
			 "electric_dipole_moment_norm": 4.68594070492, 
			 "electric_quadrupole_moment_norm": 14.6893053566, 
			 "total_energy": -595.272980726, 
			 "HOMO_LUMO_gap": 0.17397, 
			 "cosmo_polarized_energy": -13.61, 
			 "cosmo_cavitation_energy": 20.85, 
			 "cosmo_dispersion_energy": -15.94, 
			 "cosmo_repulsion_energy": 1.24, 
			 "cosmo_total_nonelectrostatic_energy": 6.14, 
			 "SMD_solvation_energy": 5.59 
		},
		"coords": [
			{
				"x": -4.143800191,
				"y": 1.8638581047,
				"z": -0.2449016662,
				"element": "O" 
			},
			{
				"x": -3.5234867868,
				"y": 0.9708194439,
				"z": 0.5497461836,
				"element": "C" 
			},
			{
				"x": -4.2123518859,
				"y": 0.1294037201,
				"z": 1.1183691058,
				"element": "O" 
			},
			{
				"x": -2.0524483486,
				"y": 1.0336960597,
				"z": 0.6984190974,
				"element": "C" 
			},
			{
				"x": -1.4313684014,
				"y": -0.0055481822,
				"z": 1.4387915301,
				"element": "C" 
			},
			{
				"x": -2.0923796529,
				"y": -1.0090867892,
				"z": 2.0177119408,
				"element": "O" 
			},
			{
				"x": -0.0273731283,
				"y": 0.0243290943,
				"z": 1.5660882768,
				"element": "C" 
			},
			{
				"x": 0.5582421867,
				"y": -0.9674185092,
				"z": 2.2565871977,
				"element": "F" 
			},
			{
				"x": 0.7391175359,
				"y": 1.030513588,
				"z": 1.0155410262,
				"element": "C" 
			},
			{
				"x": 0.1178901583,
				"y": 2.0683144027,
				"z": 0.3029630615,
				"element": "C" 
			},
			{
				"x": -1.2582777381,
				"y": 2.0639233464,
				"z": 0.1512751135,
				"element": "C" 
			},
			{
				"x": -3.5024641462,
				"y": 2.4158707061,
				"z": -0.7120406712,
				"element": "H" 
			},
			{
				"x": -3.0551420956,
				"y": -0.8389963032,
				"z": 1.8488578456,
				"element": "H" 
			},
			{
				"x": 1.8147669517,
				"y": 0.9999850368,
				"z": 1.1534287003,
				"element": "H" 
			},
			{
				"x": 0.7154129068,
				"y": 2.868664218,
				"z": -0.1190482133,
				"element": "H" 
			},
			{
				"x": -1.7179373644,
				"y": 2.8930720631,
				"z": -0.3816885287,
				"element": "H" 
			}
		],
		 "valence_orbital": [ 
			{
				"type": "occ",
				"energy": -0.35632,
				"method": "rhf"
			},
			{
				"type": "occ",
				"energy": -0.33616,
				"method": "rhf"
			},
			{
				"type": "occ",
				"energy": -0.29633,
				"method": "rhf"
			},
			{
				"type": "occ",
				"energy": -0.27557,
				"method": "rhf"
			},
			{
				"type": "occ",
				"energy": -0.23855,
				"method": "rhf"
			},
			{
				"type": "unocc",
				"energy": -0.06458,
				"method": "rhf"
			},
			{
				"type": "unocc",
				"energy": -0.01161,
				"method": "rhf"
			},
			{
				"type": "unocc",
				"energy": 0.03644,
				"method": "rhf"
			},
			{
				"type": "unocc",
				"energy": 0.0416,
				"method": "rhf"
			},
			{
				"type": "unocc",
				"energy": 0.07988,
				"method": "rhf"
			}
		],
		"cosmo_sigma_profile": { 
			"-0.025": 0.0,
			"-0.024": 0.0,
			"-0.023": 0.0,
			"-0.022": 0.0,
			"-0.021": 0.0,
			"-0.02": 0.282675855296,
			"-0.019": 0.967958394382,
			"-0.018": 1.08842266915,
			"-0.017": 1.2811836804,
			"-0.016": 1.05484385766,
			"-0.015": 0.489811962303,
			"-0.014": 0.604549805,
			"-0.013": 1.61896065307,
			"-0.012": 1.09759037791,
			"-0.011": 0.984084337708,
			"-0.01": 1.43104558044,
			"-0.009": 1.39780721427,
			"-0.008": 3.38343776031,
			"-0.007": 6.04243315175,
			"-0.006": 7.69701699116,
			"-0.005": 6.0442682473,
			"-0.004": 9.42687341027,
			"-0.003": 8.58902483108,
			"-0.002": 7.95079834917,
			"-0.001": 10.2329631857,
			"0.0": 14.0574425125,
			"0.001": 12.5530575709,
			"0.002": 11.4669832518,
			"0.003": 11.4471971294,
			"0.004": 12.4774703436,
			"0.005": 4.56674651994,
			"0.006": 3.81358228089,
			"0.007": 5.13649933029,
			"0.008": 4.61616650051,
			"0.009": 5.88334718138,
			"0.01": 5.75219431625,
			"0.011": 2.79975751012,
			"0.012": 1.64335935543,
			"0.013": 0.156229106683,
			"0.014": 0.0,
			"0.015": 0.0,
			"0.016": 0.0,
			"0.017": 0.0,
			"0.018": 0.0,
			"0.019": 0.0,
			"0.02": 0.0,
			"0.021": 0.0,
			"0.022": 0.0,
			"0.023": 0.0,
			"0.024": 0.0,
			"0.025": 0.0
		}
	}
}
