{
	 "smiles": "ClC1=CC=C(C=C1)C1=NC(C=O)=CS1", 
	 "Tm": 398.15, 
	 "num_atms": 20, 
	 "gaussian": { 
		 "optdone": 1, 
		 "sigma_profile": "yes", 
		 "theory": "DFT", 
		 "functional": "B3LYP", 
		 "basiset": "6-31G**", 
		 "properties": { 
			 "R2extent": 4889.5432, 
			 "electric_dipole_moment_norm": 4.03513880059, 
			 "electric_quadrupole_moment_norm": 16.5395444907, 
			 "total_energy": -1373.01817274, 
			 "HOMO_LUMO_gap": 0.16437, 
			 "cosmo_polarized_energy": -13.18, 
			 "cosmo_cavitation_energy": 29.09, 
			 "cosmo_dispersion_energy": -21.89, 
			 "cosmo_repulsion_energy": 1.66, 
			 "cosmo_total_nonelectrostatic_energy": 8.86, 
			 "SMD_solvation_energy": 4.48 
		},
		"coords": [
			{
				"x": -1.0672444693,
				"y": -3.2200746146,
				"z": 3.8509184861,
				"element": "Cl" 
			},
			{
				"x": -0.804739993,
				"y": -2.0342904936,
				"z": 2.5856915648,
				"element": "C" 
			},
			{
				"x": -1.3871218423,
				"y": -2.2261547801,
				"z": 1.3311608714,
				"element": "C" 
			},
			{
				"x": -1.1762569767,
				"y": -1.2835472092,
				"z": 0.3311052111,
				"element": "C" 
			},
			{
				"x": -0.3858526261,
				"y": -0.1457186565,
				"z": 0.5722924071,
				"element": "C" 
			},
			{
				"x": 0.1883049414,
				"y": 0.0240984167,
				"z": 1.8413838627,
				"element": "C" 
			},
			{
				"x": -0.0166916131,
				"y": -0.9138323966,
				"z": 2.8494987243,
				"element": "C" 
			},
			{
				"x": -0.1917526593,
				"y": 0.8217200782,
				"z": -0.5146577757,
				"element": "C" 
			},
			{
				"x": -0.707269071,
				"y": 0.6992919825,
				"z": -1.7034283227,
				"element": "N" 
			},
			{
				"x": -0.3632071426,
				"y": 1.7487525263,
				"z": -2.5223580311,
				"element": "C" 
			},
			{
				"x": -0.8315954524,
				"y": 1.8293319528,
				"z": -3.9221149608,
				"element": "C" 
			},
			{
				"x": -1.5393112707,
				"y": 1.007807467,
				"z": -4.4653895861,
				"element": "O" 
			},
			{
				"x": 0.4397031583,
				"y": 2.7070756987,
				"z": -1.9497660438,
				"element": "C" 
			},
			{
				"x": 0.79132893,
				"y": 2.2964262615,
				"z": -0.3158288554,
				"element": "S" 
			},
			{
				"x": -1.9967850458,
				"y": -3.1029035706,
				"z": 1.1435378569,
				"element": "H" 
			},
			{
				"x": -1.618990396,
				"y": -1.4128948757,
				"z": -0.6502010802,
				"element": "H" 
			},
			{
				"x": 0.8034031457,
				"y": 0.8935381432,
				"z": 2.0559201079,
				"element": "H" 
			},
			{
				"x": 0.4284175913,
				"y": -0.7794420273,
				"z": 3.8287708461,
				"element": "H" 
			},
			{
				"x": -0.4722951774,
				"y": 2.7347951118,
				"z": -4.4597169839,
				"element": "H" 
			},
			{
				"x": 0.8282559688,
				"y": 3.6090209855,
				"z": -2.4026182987,
				"element": "H" 
			}
		],
		 "valence_orbital": [ 
			{
				"type": "occ",
				"energy": -0.29228,
				"method": "rhf"
			},
			{
				"type": "occ",
				"energy": -0.28696,
				"method": "rhf"
			},
			{
				"type": "occ",
				"energy": -0.27688,
				"method": "rhf"
			},
			{
				"type": "occ",
				"energy": -0.25938,
				"method": "rhf"
			},
			{
				"type": "occ",
				"energy": -0.2394,
				"method": "rhf"
			},
			{
				"type": "unocc",
				"energy": -0.07503,
				"method": "rhf"
			},
			{
				"type": "unocc",
				"energy": -0.05792,
				"method": "rhf"
			},
			{
				"type": "unocc",
				"energy": -0.0256,
				"method": "rhf"
			},
			{
				"type": "unocc",
				"energy": -0.00238,
				"method": "rhf"
			},
			{
				"type": "unocc",
				"energy": 0.01935,
				"method": "rhf"
			}
		],
		"cosmo_sigma_profile": { 
			"-0.025": 0.0,
			"-0.024": 0.0,
			"-0.023": 0.0,
			"-0.022": 0.0,
			"-0.021": 0.0,
			"-0.02": 0.0,
			"-0.019": 0.0,
			"-0.018": 0.0,
			"-0.017": 0.0,
			"-0.016": 0.0,
			"-0.015": 0.0,
			"-0.014": 0.0,
			"-0.013": 0.0,
			"-0.012": 0.0,
			"-0.011": 1.51337905881,
			"-0.01": 3.22113707361,
			"-0.009": 2.79981620409,
			"-0.008": 6.88721420307,
			"-0.007": 10.8667593848,
			"-0.006": 10.9063550427,
			"-0.005": 10.5729612368,
			"-0.004": 11.6940649734,
			"-0.003": 12.115229876,
			"-0.002": 16.581851908,
			"-0.001": 19.7370002035,
			"0.0": 25.2338491861,
			"0.001": 24.3338305015,
			"0.002": 24.9110386342,
			"0.003": 14.1182473526,
			"0.004": 13.0631323136,
			"0.005": 5.06413260884,
			"0.006": 1.87541385963,
			"0.007": 3.47787426667,
			"0.008": 2.32405223352,
			"0.009": 2.18487232907,
			"0.01": 3.59448838755,
			"0.011": 5.16262865011,
			"0.012": 3.93204155153,
			"0.013": 2.20198048197,
			"0.014": 1.29627472413,
			"0.015": 0.181182161322,
			"0.016": 0.0,
			"0.017": 0.0,
			"0.018": 0.0,
			"0.019": 0.0,
			"0.02": 0.0,
			"0.021": 0.0,
			"0.022": 0.0,
			"0.023": 0.0,
			"0.024": 0.0,
			"0.025": 0.0
		}
	}
}
