{
	 "smiles": "OC(=O)C1CCN(CC1)C(=O)C1(CCC1)C1=CC=CC=C1", 
	 "Tm": 420.15, 
	 "num_atms": 42, 
	 "gaussian": { 
		 "optdone": 1, 
		 "sigma_profile": "yes", 
		 "theory": "DFT", 
		 "functional": "B3LYP", 
		 "basiset": "6-31G**", 
		 "properties": { 
			 "R2extent": 7536.487, 
			 "electric_dipole_moment_norm": 4.04507210937, 
			 "electric_quadrupole_moment_norm": 25.2020134313, 
			 "total_energy": -940.883779839, 
			 "HOMO_LUMO_gap": 0.22773, 
			 "cosmo_polarized_energy": -22.24, 
			 "cosmo_cavitation_energy": 42.08, 
			 "cosmo_dispersion_energy": -28.74, 
			 "cosmo_repulsion_energy": 2.2, 
			 "cosmo_total_nonelectrostatic_energy": 15.54, 
			 "SMD_solvation_energy": 7.26 
		},
		"coords": [
			{
				"x": 3.9777825008,
				"y": -1.3209903612,
				"z": 3.2182103014,
				"element": "O" 
			},
			{
				"x": 2.7308478388,
				"y": -1.5696012685,
				"z": 3.7088781587,
				"element": "C" 
			},
			{
				"x": 2.5656228349,
				"y": -1.6776294902,
				"z": 4.897834012,
				"element": "O" 
			},
			{
				"x": 1.6271368791,
				"y": -1.681862746,
				"z": 2.6614873092,
				"element": "C" 
			},
			{
				"x": 0.2649902482,
				"y": -1.9829480697,
				"z": 3.2956603867,
				"element": "C" 
			},
			{
				"x": -0.772888064,
				"y": -2.2896976255,
				"z": 2.2071080463,
				"element": "C" 
			},
			{
				"x": -0.6060953542,
				"y": -1.3894996737,
				"z": 1.052123522,
				"element": "N" 
			},
			{
				"x": 0.0938619341,
				"y": -0.1391383895,
				"z": 1.3193453765,
				"element": "C" 
			},
			{
				"x": 1.544080586,
				"y": -0.3986464007,
				"z": 1.7773111231,
				"element": "C" 
			},
			{
				"x": -1.2491921775,
				"y": -1.7359750636,
				"z": -0.1087726156,
				"element": "C" 
			},
			{
				"x": -1.9253400177,
				"y": -2.7629395191,
				"z": -0.1612975772,
				"element": "O" 
			},
			{
				"x": -1.1026415268,
				"y": -0.8309689262,
				"z": -1.3469178228,
				"element": "C" 
			},
			{
				"x": -1.4300843333,
				"y": -1.5856525003,
				"z": -2.6845545264,
				"element": "C" 
			},
			{
				"x": -0.1568351968,
				"y": -0.9777774609,
				"z": -3.3209847156,
				"element": "C" 
			},
			{
				"x": 0.3527199899,
				"y": -0.639067167,
				"z": -1.8995865124,
				"element": "C" 
			},
			{
				"x": -1.9583600129,
				"y": 0.4270856906,
				"z": -1.1923967481,
				"element": "C" 
			},
			{
				"x": -3.2684067396,
				"y": 0.2916803479,
				"z": -0.6988779438,
				"element": "C" 
			},
			{
				"x": -4.1075309767,
				"y": 1.3970881659,
				"z": -0.5764416959,
				"element": "C" 
			},
			{
				"x": -3.6601345945,
				"y": 2.6669743149,
				"z": -0.9501253076,
				"element": "C" 
			},
			{
				"x": -2.3672555577,
				"y": 2.8146309802,
				"z": -1.4486805793,
				"element": "C" 
			},
			{
				"x": -1.5248141535,
				"y": 1.7052429017,
				"z": -1.5685536082,
				"element": "C" 
			},
			{
				"x": 3.9554068647,
				"y": -1.2731529218,
				"z": 2.2519241542,
				"element": "H" 
			},
			{
				"x": 1.8908301741,
				"y": -2.5276727554,
				"z": 2.0091241302,
				"element": "H" 
			},
			{
				"x": 0.3431911998,
				"y": -2.8344229552,
				"z": 3.9758538187,
				"element": "H" 
			},
			{
				"x": -0.0408326579,
				"y": -1.1319929601,
				"z": 3.9137354376,
				"element": "H" 
			},
			{
				"x": -1.7926746498,
				"y": -2.2097866058,
				"z": 2.6062630567,
				"element": "H" 
			},
			{
				"x": -0.6631665771,
				"y": -3.3144948136,
				"z": 1.8417230473,
				"element": "H" 
			},
			{
				"x": -0.4454452929,
				"y": 0.4119326281,
				"z": 2.1014066022,
				"element": "H" 
			},
			{
				"x": 0.0769548818,
				"y": 0.4944053347,
				"z": 0.4360506051,
				"element": "H" 
			},
			{
				"x": 1.8927406384,
				"y": 0.4785164505,
				"z": 2.3346843161,
				"element": "H" 
			},
			{
				"x": 2.1930854354,
				"y": -0.500450788,
				"z": 0.8989980291,
				"element": "H" 
			},
			{
				"x": -1.366681301,
				"y": -2.6647868374,
				"z": -2.5352850866,
				"element": "H" 
			},
			{
				"x": -2.3913127075,
				"y": -1.3482189537,
				"z": -3.1454215099,
				"element": "H" 
			},
			{
				"x": -0.3732433573,
				"y": -0.0769059019,
				"z": -3.9022259546,
				"element": "H" 
			},
			{
				"x": 0.466026263,
				"y": -1.6414201191,
				"z": -3.926691726,
				"element": "H" 
			},
			{
				"x": 1.0104207669,
				"y": -1.4221123906,
				"z": -1.5094646247,
				"element": "H" 
			},
			{
				"x": 0.8483107316,
				"y": 0.3242446574,
				"z": -1.7473751799,
				"element": "H" 
			},
			{
				"x": -3.6274879212,
				"y": -0.6935717851,
				"z": -0.4148053356,
				"element": "H" 
			},
			{
				"x": -5.1142902886,
				"y": 1.265992262,
				"z": -0.1895492305,
				"element": "H" 
			},
			{
				"x": -4.3136604412,
				"y": 3.5292383626,
				"z": -0.8553410147,
				"element": "H" 
			},
			{
				"x": -2.0065926106,
				"y": 3.7948345485,
				"z": -1.7482060229,
				"element": "H" 
			},
			{
				"x": -0.5253432571,
				"y": 1.8506178047,
				"z": -1.9656660948,
				"element": "H" 
			}
		],
		 "valence_orbital": [ 
			{
				"type": "occ",
				"energy": -0.27406,
				"method": "rhf"
			},
			{
				"type": "occ",
				"energy": -0.25512,
				"method": "rhf"
			},
			{
				"type": "occ",
				"energy": -0.25402,
				"method": "rhf"
			},
			{
				"type": "occ",
				"energy": -0.23982,
				"method": "rhf"
			},
			{
				"type": "occ",
				"energy": -0.23744,
				"method": "rhf"
			},
			{
				"type": "unocc",
				"energy": -0.00971,
				"method": "rhf"
			},
			{
				"type": "unocc",
				"energy": -0.00802,
				"method": "rhf"
			},
			{
				"type": "unocc",
				"energy": 0.00455,
				"method": "rhf"
			},
			{
				"type": "unocc",
				"energy": 0.02594,
				"method": "rhf"
			},
			{
				"type": "unocc",
				"energy": 0.04026,
				"method": "rhf"
			}
		],
		"cosmo_sigma_profile": { 
			"-0.025": 0.0,
			"-0.024": 0.0,
			"-0.023": 0.0,
			"-0.022": 0.0,
			"-0.021": 0.0,
			"-0.02": 0.0,
			"-0.019": 0.00389297972826,
			"-0.018": 0.797362667309,
			"-0.017": 0.579249623279,
			"-0.016": 1.54227778392,
			"-0.015": 1.10675563194,
			"-0.014": 0.792864174224,
			"-0.013": 1.11485617506,
			"-0.012": 0.876790111222,
			"-0.011": 1.30733028673,
			"-0.01": 1.30089578579,
			"-0.009": 0.887381880621,
			"-0.008": 1.48635042437,
			"-0.007": 3.42254705293,
			"-0.006": 10.9681326543,
			"-0.005": 23.8483002508,
			"-0.004": 35.2021878848,
			"-0.003": 38.4194065025,
			"-0.002": 32.243469831,
			"-0.001": 25.7800441305,
			"0.0": 23.6674693192,
			"0.001": 22.8206621607,
			"0.002": 14.717720765,
			"0.003": 11.369163787,
			"0.004": 10.7879192978,
			"0.005": 12.0103030787,
			"0.006": 9.81567617979,
			"0.007": 4.6303298962,
			"0.008": 3.48941296481,
			"0.009": 5.190740479,
			"0.01": 6.38547373162,
			"0.011": 7.10465859499,
			"0.012": 6.73278041003,
			"0.013": 3.71400166371,
			"0.014": 4.39974136665,
			"0.015": 1.19308445673,
			"0.016": 0.0,
			"0.017": 0.0,
			"0.018": 0.0,
			"0.019": 0.0,
			"0.02": 0.0,
			"0.021": 0.0,
			"0.022": 0.0,
			"0.023": 0.0,
			"0.024": 0.0,
			"0.025": 0.0
		}
	}
}
