{
	 "smiles": "CC1(C)C(C2=C(OC1=O)C(CCC2)=CC1=CC=CC=C1)C1=CC=CC=C1", 
	 "Tm": 429.15, 
	 "num_atms": 50, 
	 "gaussian": { 
		 "optdone": 1, 
		 "sigma_profile": "yes", 
		 "theory": "DFT", 
		 "functional": "B3LYP", 
		 "basiset": "6-31G**", 
		 "properties": { 
			 "R2extent": 11417.3108, 
			 "electric_dipole_moment_norm": 3.93792842114, 
			 "electric_quadrupole_moment_norm": 21.060788, 
			 "total_energy": -1079.47560083, 
			 "HOMO_LUMO_gap": 0.15663, 
			 "cosmo_polarized_energy": -12.91, 
			 "cosmo_cavitation_energy": 50.0, 
			 "cosmo_dispersion_energy": -33.86, 
			 "cosmo_repulsion_energy": 2.56, 
			 "cosmo_total_nonelectrostatic_energy": 18.7, 
			 "SMD_solvation_energy": 8.5 
		},
		"coords": [
			{
				"x": -2.5421408576,
				"y": 1.6766299709,
				"z": -4.037789052,
				"element": "C" 
			},
			{
				"x": -1.8404373011,
				"y": 1.6662242124,
				"z": -2.6724374269,
				"element": "C" 
			},
			{
				"x": -2.138097495,
				"y": 3.0025760693,
				"z": -1.9414702493,
				"element": "C" 
			},
			{
				"x": -0.2923475573,
				"y": 1.4780661665,
				"z": -2.7968697195,
				"element": "C" 
			},
			{
				"x": 0.3164225538,
				"y": 1.2122547995,
				"z": -1.4380360674,
				"element": "C" 
			},
			{
				"x": -0.4116087583,
				"y": 0.6270086997,
				"z": -0.4660989187,
				"element": "C" 
			},
			{
				"x": -1.7163756761,
				"y": 0.1857209094,
				"z": -0.6979822341,
				"element": "O" 
			},
			{
				"x": -2.4336738605,
				"y": 0.5542114161,
				"z": -1.8092581036,
				"element": "C" 
			},
			{
				"x": -3.499687754,
				"y": 0.0233410518,
				"z": -1.995907002,
				"element": "O" 
			},
			{
				"x": 0.0549585644,
				"y": 0.3746238335,
				"z": 0.9030666267,
				"element": "C" 
			},
			{
				"x": 1.448318733,
				"y": 0.8944613645,
				"z": 1.2021083736,
				"element": "C" 
			},
			{
				"x": 2.3637377299,
				"y": 0.8225615583,
				"z": -0.0288718732,
				"element": "C" 
			},
			{
				"x": 1.7594081094,
				"y": 1.5855845678,
				"z": -1.2103885197,
				"element": "C" 
			},
			{
				"x": -0.741176609,
				"y": -0.2842700163,
				"z": 1.7808330905,
				"element": "C" 
			},
			{
				"x": -0.5034574072,
				"y": -0.6121639853,
				"z": 3.1923098796,
				"element": "C" 
			},
			{
				"x": 0.2498114571,
				"y": 0.1832805042,
				"z": 4.0786451632,
				"element": "C" 
			},
			{
				"x": 0.4184737399,
				"y": -0.1906710357,
				"z": 5.4114628002,
				"element": "C" 
			},
			{
				"x": -0.1629585186,
				"y": -1.3629823009,
				"z": 5.897239597,
				"element": "C" 
			},
			{
				"x": -0.9334929865,
				"y": -2.152513721,
				"z": 5.0397777628,
				"element": "C" 
			},
			{
				"x": -1.1084567534,
				"y": -1.7755376129,
				"z": 3.7113957631,
				"element": "C" 
			},
			{
				"x": 0.1482851675,
				"y": 0.4277286933,
				"z": -3.819689594,
				"element": "C" 
			},
			{
				"x": 0.7067842897,
				"y": 0.8269928889,
				"z": -5.0410234266,
				"element": "C" 
			},
			{
				"x": 1.110643878,
				"y": -0.113942942,
				"z": -5.9903794675,
				"element": "C" 
			},
			{
				"x": 0.9592779412,
				"y": -1.4761855875,
				"z": -5.7312606336,
				"element": "C" 
			},
			{
				"x": 0.407521814,
				"y": -1.8881134823,
				"z": -4.5159923213,
				"element": "C" 
			},
			{
				"x": 0.0119216277,
				"y": -0.9458816237,
				"z": -3.5666960476,
				"element": "C" 
			},
			{
				"x": -2.1255978436,
				"y": 2.4712781429,
				"z": -4.6657469261,
				"element": "H" 
			},
			{
				"x": -3.6117796551,
				"y": 1.8558436904,
				"z": -3.9113547368,
				"element": "H" 
			},
			{
				"x": -2.4212197935,
				"y": 0.7267257451,
				"z": -4.561298936,
				"element": "H" 
			},
			{
				"x": -1.646527453,
				"y": 3.0611951712,
				"z": -0.9674180993,
				"element": "H" 
			},
			{
				"x": -3.2150720264,
				"y": 3.1231227421,
				"z": -1.7930538864,
				"element": "H" 
			},
			{
				"x": -1.7844090755,
				"y": 3.8387325203,
				"z": -2.5541307509,
				"element": "H" 
			},
			{
				"x": 0.0971090792,
				"y": 2.4415417072,
				"z": -3.1543767554,
				"element": "H" 
			},
			{
				"x": 1.3886926421,
				"y": 1.9414123624,
				"z": 1.5368938101,
				"element": "H" 
			},
			{
				"x": 1.8848880854,
				"y": 0.3278498256,
				"z": 2.028560275,
				"element": "H" 
			},
			{
				"x": 2.5012739783,
				"y": -0.227661016,
				"z": -0.3136412657,
				"element": "H" 
			},
			{
				"x": 3.3537308606,
				"y": 1.2210392686,
				"z": 0.2182143348,
				"element": "H" 
			},
			{
				"x": 1.8391856159,
				"y": 2.6719363405,
				"z": -1.0431646545,
				"element": "H" 
			},
			{
				"x": 2.3279850383,
				"y": 1.3824822917,
				"z": -2.1269762046,
				"element": "H" 
			},
			{
				"x": -1.6837781929,
				"y": -0.6560623428,
				"z": 1.3890005508,
				"element": "H" 
			},
			{
				"x": 0.6748426508,
				"y": 1.1193685394,
				"z": 3.7354106987,
				"element": "H" 
			},
			{
				"x": 0.9981358066,
				"y": 0.444156282,
				"z": 6.0760076518,
				"element": "H" 
			},
			{
				"x": -0.0292076471,
				"y": -1.6513177474,
				"z": 6.935822417,
				"element": "H" 
			},
			{
				"x": -1.4032754332,
				"y": -3.059895265,
				"z": 5.408926386,
				"element": "H" 
			},
			{
				"x": -1.714600164,
				"y": -2.3906832254,
				"z": 3.0513590871,
				"element": "H" 
			},
			{
				"x": 0.8261895536,
				"y": 1.88726918,
				"z": -5.2514247858,
				"element": "H" 
			},
			{
				"x": 1.5440725327,
				"y": 0.2188882963,
				"z": -6.9293669158,
				"element": "H" 
			},
			{
				"x": 1.2715294606,
				"y": -2.2114746007,
				"z": -6.4671699484,
				"element": "H" 
			},
			{
				"x": 0.2889717432,
				"y": -2.9467032677,
				"z": -4.3029113948,
				"element": "H" 
			},
			{
				"x": -0.3991938338,
				"y": -1.2841490395,
				"z": -2.6202483504,
				"element": "H" 
			}
		],
		 "valence_orbital": [ 
			{
				"type": "occ",
				"energy": -0.25442,
				"method": "rhf"
			},
			{
				"type": "occ",
				"energy": -0.25057,
				"method": "rhf"
			},
			{
				"type": "occ",
				"energy": -0.24866,
				"method": "rhf"
			},
			{
				"type": "occ",
				"energy": -0.24519,
				"method": "rhf"
			},
			{
				"type": "occ",
				"energy": -0.20197,
				"method": "rhf"
			},
			{
				"type": "unocc",
				"energy": -0.04534,
				"method": "rhf"
			},
			{
				"type": "unocc",
				"energy": -0.01135,
				"method": "rhf"
			},
			{
				"type": "unocc",
				"energy": -0.00439,
				"method": "rhf"
			},
			{
				"type": "unocc",
				"energy": 0.00047,
				"method": "rhf"
			},
			{
				"type": "unocc",
				"energy": 0.00685,
				"method": "rhf"
			}
		],
		"cosmo_sigma_profile": { 
			"-0.025": 0.0,
			"-0.024": 0.0,
			"-0.023": 0.0,
			"-0.022": 0.0,
			"-0.021": 0.0,
			"-0.02": 0.0,
			"-0.019": 0.0,
			"-0.018": 0.0,
			"-0.017": 0.0,
			"-0.016": 0.0,
			"-0.015": 0.0,
			"-0.014": 0.0,
			"-0.013": 0.0,
			"-0.012": 0.0,
			"-0.011": 0.0,
			"-0.01": 0.0,
			"-0.009": 0.0,
			"-0.008": 0.0,
			"-0.007": 0.00364066033703,
			"-0.006": 8.76875868249,
			"-0.005": 26.8185529418,
			"-0.004": 38.3167613409,
			"-0.003": 49.4888484906,
			"-0.002": 44.6132938164,
			"-0.001": 43.0375737161,
			"0.0": 35.1187178555,
			"0.001": 26.7871738068,
			"0.002": 20.5756654592,
			"0.003": 21.5890248088,
			"0.004": 24.1604879744,
			"0.005": 22.1560004089,
			"0.006": 14.7304009616,
			"0.007": 1.64983537935,
			"0.008": 2.46531459909,
			"0.009": 1.72803129394,
			"0.01": 3.0284655691,
			"0.011": 4.78017093306,
			"0.012": 4.17279644418,
			"0.013": 0.982207869372,
			"0.014": 0.0,
			"0.015": 0.0,
			"0.016": 0.0,
			"0.017": 0.0,
			"0.018": 0.0,
			"0.019": 0.0,
			"0.02": 0.0,
			"0.021": 0.0,
			"0.022": 0.0,
			"0.023": 0.0,
			"0.024": 0.0,
			"0.025": 0.0
		}
	}
}
