{
	 "smiles": "CC1=CC(NC(=O)CSCC(N)C(O)=O)=NO1", 
	 "Tm": 478.15, 
	 "num_atms": 30, 
	 "gaussian": { 
		 "optdone": 1, 
		 "sigma_profile": "yes", 
		 "theory": "DFT", 
		 "functional": "B3LYP", 
		 "basiset": "6-31G**", 
		 "properties": { 
			 "R2extent": 5483.9567, 
			 "electric_dipole_moment_norm": 4.59394245937, 
			 "electric_quadrupole_moment_norm": 10.8597356616, 
			 "total_energy": -1214.08806298, 
			 "HOMO_LUMO_gap": 0.2016, 
			 "cosmo_polarized_energy": -25.5, 
			 "cosmo_cavitation_energy": 35.88, 
			 "cosmo_dispersion_energy": -25.39, 
			 "cosmo_repulsion_energy": 1.98, 
			 "cosmo_total_nonelectrostatic_energy": 12.47, 
			 "SMD_solvation_energy": 6.49 
		},
		"coords": [
			{
				"x": -4.6473440731,
				"y": 2.3545028168,
				"z": 0.7469230078,
				"element": "C" 
			},
			{
				"x": -3.8395253045,
				"y": 1.1292447551,
				"z": 0.9986639181,
				"element": "C" 
			},
			{
				"x": -2.7340483027,
				"y": 0.6002409321,
				"z": 0.4000012674,
				"element": "C" 
			},
			{
				"x": -2.4814867023,
				"y": -0.5894960458,
				"z": 1.1503204889,
				"element": "C" 
			},
			{
				"x": -1.4507984262,
				"y": -1.5271892571,
				"z": 1.0732581426,
				"element": "N" 
			},
			{
				"x": -0.7146509753,
				"y": -2.0465738885,
				"z": 0.0118689507,
				"element": "C" 
			},
			{
				"x": 0.0092392369,
				"y": -3.0060143635,
				"z": 0.2058658959,
				"element": "O" 
			},
			{
				"x": -0.8500254504,
				"y": -1.3968182775,
				"z": -1.3590831462,
				"element": "C" 
			},
			{
				"x": 0.6354386799,
				"y": -0.4612765246,
				"z": -1.9018569598,
				"element": "S" 
			},
			{
				"x": 0.786619711,
				"y": 0.8746634983,
				"z": -0.6391313112,
				"element": "C" 
			},
			{
				"x": 2.2666927188,
				"y": 1.2140664167,
				"z": -0.3695896472,
				"element": "C" 
			},
			{
				"x": 2.3733025295,
				"y": 2.5894496907,
				"z": 0.1186428195,
				"element": "N" 
			},
			{
				"x": 2.944740802,
				"y": 0.3190791049,
				"z": 0.6713941464,
				"element": "C" 
			},
			{
				"x": 2.3122401247,
				"y": -0.8462925091,
				"z": 0.8764668287,
				"element": "O" 
			},
			{
				"x": 3.9683753266,
				"y": 0.6335414852,
				"z": 1.2413411877,
				"element": "O" 
			},
			{
				"x": -3.3635289391,
				"y": -0.7553272493,
				"z": 2.1185005495,
				"element": "N" 
			},
			{
				"x": -4.2229415764,
				"y": 0.3433451403,
				"z": 2.0232288035,
				"element": "O" 
			},
			{
				"x": -5.6826290134,
				"y": 2.09451727,
				"z": 0.5027336167,
				"element": "H" 
			},
			{
				"x": -4.6671537228,
				"y": 2.9948812678,
				"z": 1.6345683226,
				"element": "H" 
			},
			{
				"x": -4.2248717596,
				"y": 2.9217404517,
				"z": -0.0844719521,
				"element": "H" 
			},
			{
				"x": -2.1762929078,
				"y": 1.0227548288,
				"z": -0.4182905719,
				"element": "H" 
			},
			{
				"x": -1.3725187191,
				"y": -2.1106771888,
				"z": 1.899935307,
				"element": "H" 
			},
			{
				"x": -1.7552161418,
				"y": -0.7993135315,
				"z": -1.4642630609,
				"element": "H" 
			},
			{
				"x": -0.9004080606,
				"y": -2.2184077431,
				"z": -2.0776996329,
				"element": "H" 
			},
			{
				"x": 0.2975813315,
				"y": 0.5709108922,
				"z": 0.2877103359,
				"element": "H" 
			},
			{
				"x": 0.2926817781,
				"y": 1.7783504562,
				"z": -1.0061483048,
				"element": "H" 
			},
			{
				"x": 2.8403760739,
				"y": 1.0362689671,
				"z": -1.2993973431,
				"element": "H" 
			},
			{
				"x": 2.3199024295,
				"y": 3.2400736382,
				"z": -0.6598795445,
				"element": "H" 
			},
			{
				"x": 3.2847131484,
				"y": 2.7060002142,
				"z": 0.5555579187,
				"element": "H" 
			},
			{
				"x": 2.8410361842,
				"y": -1.3579452475,
				"z": 1.5116299671,
				"element": "H" 
			}
		],
		 "valence_orbital": [ 
			{
				"type": "occ",
				"energy": -0.27408,
				"method": "rhf"
			},
			{
				"type": "occ",
				"energy": -0.27073,
				"method": "rhf"
			},
			{
				"type": "occ",
				"energy": -0.25145,
				"method": "rhf"
			},
			{
				"type": "occ",
				"energy": -0.2491,
				"method": "rhf"
			},
			{
				"type": "occ",
				"energy": -0.23043,
				"method": "rhf"
			},
			{
				"type": "unocc",
				"energy": -0.02883,
				"method": "rhf"
			},
			{
				"type": "unocc",
				"energy": -0.01271,
				"method": "rhf"
			},
			{
				"type": "unocc",
				"energy": -0.00055,
				"method": "rhf"
			},
			{
				"type": "unocc",
				"energy": 0.03801,
				"method": "rhf"
			},
			{
				"type": "unocc",
				"energy": 0.05664,
				"method": "rhf"
			}
		],
		"cosmo_sigma_profile": { 
			"-0.025": 0.0,
			"-0.024": 0.0,
			"-0.023": 0.0,
			"-0.022": 0.0,
			"-0.021": 0.0,
			"-0.02": 0.0,
			"-0.019": 0.37574050299,
			"-0.018": 1.0859431397,
			"-0.017": 0.87792233321,
			"-0.016": 0.835189382159,
			"-0.015": 1.07683020485,
			"-0.014": 1.47434087745,
			"-0.013": 0.985492782089,
			"-0.012": 1.15733324684,
			"-0.011": 2.62962890804,
			"-0.01": 3.29751861679,
			"-0.009": 5.90426103625,
			"-0.008": 8.49475815788,
			"-0.007": 13.8303561368,
			"-0.006": 23.2107870892,
			"-0.005": 18.2840400484,
			"-0.004": 19.1094624814,
			"-0.003": 19.4230650798,
			"-0.002": 19.5399125066,
			"-0.001": 13.6691517495,
			"0.0": 11.7424899677,
			"0.001": 13.4863920212,
			"0.002": 10.2740513172,
			"0.003": 7.69494522685,
			"0.004": 7.5865515097,
			"0.005": 8.80520697706,
			"0.006": 7.32757633306,
			"0.007": 9.72431015785,
			"0.008": 10.1660612403,
			"0.009": 6.92472314524,
			"0.01": 7.29684598866,
			"0.011": 10.200762939,
			"0.012": 8.73615657394,
			"0.013": 6.12137659879,
			"0.014": 2.15198532144,
			"0.015": 0.120061741937,
			"0.016": 0.336834843779,
			"0.017": 0.849560001576,
			"0.018": 0.34408279974,
			"0.019": 0.0,
			"0.02": 0.0,
			"0.021": 0.0,
			"0.022": 0.0,
			"0.023": 0.0,
			"0.024": 0.0,
			"0.025": 0.0
		}
	}
}
