{
	 "smiles": "OC(=O)C1=C(NC(=O)C2=C(O)C=C(Cl)C=C2)SC=C1", 
	 "Tm": 518.15, 
	 "num_atms": 27, 
	 "gaussian": { 
		 "optdone": 1, 
		 "sigma_profile": "yes", 
		 "theory": "DFT", 
		 "functional": "B3LYP", 
		 "basiset": "6-31G**", 
		 "properties": { 
			 "R2extent": 8200.4963, 
			 "electric_dipole_moment_norm": 1.90606627639, 
			 "electric_quadrupole_moment_norm": 13.1125741191, 
			 "total_energy": -1676.16050674, 
			 "HOMO_LUMO_gap": 0.1514, 
			 "cosmo_polarized_energy": -15.3, 
			 "cosmo_cavitation_energy": 35.54, 
			 "cosmo_dispersion_energy": -27.01, 
			 "cosmo_repulsion_energy": 1.99, 
			 "cosmo_total_nonelectrostatic_energy": 10.52, 
			 "SMD_solvation_energy": 7.41 
		},
		"coords": [
			{
				"x": -1.5205242437,
				"y": -2.183255059,
				"z": 2.6445565803,
				"element": "O" 
			},
			{
				"x": -2.7827155212,
				"y": -1.6908494461,
				"z": 2.8962964008,
				"element": "C" 
			},
			{
				"x": -3.4579237831,
				"y": -2.152082392,
				"z": 3.7928438954,
				"element": "O" 
			},
			{
				"x": -3.1845068078,
				"y": -0.6077852278,
				"z": 1.9972142164,
				"element": "C" 
			},
			{
				"x": -2.4410965055,
				"y": -0.0475817747,
				"z": 0.9603934852,
				"element": "C" 
			},
			{
				"x": -1.1604298797,
				"y": -0.4276974688,
				"z": 0.5957293911,
				"element": "N" 
			},
			{
				"x": -0.4187632166,
				"y": 0.1185079152,
				"z": -0.4193461061,
				"element": "C" 
			},
			{
				"x": -0.9061678957,
				"y": 1.0272749539,
				"z": -1.1201635316,
				"element": "O" 
			},
			{
				"x": 0.9422764829,
				"y": -0.4045687416,
				"z": -0.6483137188,
				"element": "C" 
			},
			{
				"x": 1.6668455819,
				"y": 0.0902112069,
				"z": -1.7696894668,
				"element": "C" 
			},
			{
				"x": 1.1755868403,
				"y": 1.0117462129,
				"z": -2.6032629364,
				"element": "O" 
			},
			{
				"x": 2.9586134123,
				"y": -0.3968323398,
				"z": -2.0374505629,
				"element": "C" 
			},
			{
				"x": 3.5197309292,
				"y": -1.343770647,
				"z": -1.1987935347,
				"element": "C" 
			},
			{
				"x": 5.13177564,
				"y": -1.940687095,
				"z": -1.5396417026,
				"element": "Cl" 
			},
			{
				"x": 2.8377454558,
				"y": -1.8372254822,
				"z": -0.0766849683,
				"element": "C" 
			},
			{
				"x": 1.5633855615,
				"y": -1.3605519602,
				"z": 0.180011649,
				"element": "C" 
			},
			{
				"x": -3.322985414,
				"y": 1.22132819,
				"z": 0.1532315011,
				"element": "S" 
			},
			{
				"x": -4.6868065056,
				"y": 0.9916793465,
				"z": 1.2192766645,
				"element": "C" 
			},
			{
				"x": -4.4743211131,
				"y": 0.0057204185,
				"z": 2.1281269683,
				"element": "C" 
			},
			{
				"x": -1.3795922368,
				"y": -2.8893092508,
				"z": 3.2964052361,
				"element": "H" 
			},
			{
				"x": -0.7933635546,
				"y": -1.1991654751,
				"z": 1.1399584917,
				"element": "H" 
			},
			{
				"x": 0.2793953316,
				"y": 1.2605453285,
				"z": -2.2569586496,
				"element": "H" 
			},
			{
				"x": 3.4901363576,
				"y": -0.0118069822,
				"z": -2.8990150156,
				"element": "H" 
			},
			{
				"x": 3.3043135891,
				"y": -2.5695204401,
				"z": 0.5705755711,
				"element": "H" 
			},
			{
				"x": 1.0548154297,
				"y": -1.7391812174,
				"z": 1.0617018509,
				"element": "H" 
			},
			{
				"x": -5.5632257923,
				"y": 1.6122833981,
				"z": 1.0943998668,
				"element": "H" 
			},
			{
				"x": -5.1819981421,
				"y": -0.3081259709,
				"z": 2.8846984247,
				"element": "H" 
			}
		],
		 "valence_orbital": [ 
			{
				"type": "occ",
				"energy": -0.29142,
				"method": "rhf"
			},
			{
				"type": "occ",
				"energy": -0.27069,
				"method": "rhf"
			},
			{
				"type": "occ",
				"energy": -0.26762,
				"method": "rhf"
			},
			{
				"type": "occ",
				"energy": -0.24601,
				"method": "rhf"
			},
			{
				"type": "occ",
				"energy": -0.22744,
				"method": "rhf"
			},
			{
				"type": "unocc",
				"energy": -0.07604,
				"method": "rhf"
			},
			{
				"type": "unocc",
				"energy": -0.03858,
				"method": "rhf"
			},
			{
				"type": "unocc",
				"energy": -0.01422,
				"method": "rhf"
			},
			{
				"type": "unocc",
				"energy": 0.00073,
				"method": "rhf"
			},
			{
				"type": "unocc",
				"energy": 0.0175,
				"method": "rhf"
			}
		],
		"cosmo_sigma_profile": { 
			"-0.025": 0.0,
			"-0.024": 0.0,
			"-0.023": 0.0,
			"-0.022": 0.0,
			"-0.021": 0.0,
			"-0.02": 0.0,
			"-0.019": 0.19734244871,
			"-0.018": 0.886631911846,
			"-0.017": 1.13891239139,
			"-0.016": 0.496237318555,
			"-0.015": 0.712983390156,
			"-0.014": 0.738574388857,
			"-0.013": 0.662948694858,
			"-0.012": 0.838125789055,
			"-0.011": 0.700094582486,
			"-0.01": 1.77579205886,
			"-0.009": 2.85799356559,
			"-0.008": 6.82256097587,
			"-0.007": 12.9429622036,
			"-0.006": 9.67554833173,
			"-0.005": 10.2008663536,
			"-0.004": 12.7096327488,
			"-0.003": 19.2987870728,
			"-0.002": 19.7380282713,
			"-0.001": 20.9070412764,
			"0.0": 24.399253284,
			"0.001": 31.7424765151,
			"0.002": 30.304661347,
			"0.003": 23.1163425838,
			"0.004": 18.355283997,
			"0.005": 7.74208895148,
			"0.006": 5.05256172734,
			"0.007": 4.73556353441,
			"0.008": 5.28882615813,
			"0.009": 4.29312339706,
			"0.01": 3.95860754915,
			"0.011": 5.6863945826,
			"0.012": 3.12873951748,
			"0.013": 0.0,
			"0.014": 0.0,
			"0.015": 0.0,
			"0.016": 0.0,
			"0.017": 0.0,
			"0.018": 0.0,
			"0.019": 0.0,
			"0.02": 0.0,
			"0.021": 0.0,
			"0.022": 0.0,
			"0.023": 0.0,
			"0.024": 0.0,
			"0.025": 0.0
		}
	}
}
