{
	 "smiles": "OC(=O)C1=CC=CC(OOCl)=C1", 
	 "Tm": 365.15, 
	 "num_atms": 17, 
	 "gaussian": { 
		 "optdone": 1, 
		 "sigma_profile": "yes", 
		 "theory": "DFT", 
		 "functional": "B3LYP", 
		 "basiset": "6-31G**", 
		 "properties": { 
			 "R2extent": 3578.1341, 
			 "electric_dipole_moment_norm": 5.14590224936, 
			 "electric_quadrupole_moment_norm": 11.0493565559, 
			 "total_energy": -1030.69181165, 
			 "HOMO_LUMO_gap": 0.14934, 
			 "cosmo_polarized_energy": -14.6, 
			 "cosmo_cavitation_energy": 24.77, 
			 "cosmo_dispersion_energy": -18.01, 
			 "cosmo_repulsion_energy": 1.46, 
			 "cosmo_total_nonelectrostatic_energy": 8.21, 
			 "SMD_solvation_energy": 4.7 
		},
		"coords": [
			{
				"x": 0.1481589287,
				"y": -2.8993614806,
				"z": -2.3681945584,
				"element": "O" 
			},
			{
				"x": -0.8720539656,
				"y": -2.0850909221,
				"z": -1.9908000764,
				"element": "C" 
			},
			{
				"x": -1.9999845578,
				"y": -2.3154802558,
				"z": -2.3545038223,
				"element": "O" 
			},
			{
				"x": -0.5131460287,
				"y": -0.9149694985,
				"z": -1.1180429334,
				"element": "C" 
			},
			{
				"x": 0.6502783203,
				"y": -0.8760863085,
				"z": -0.3372746136,
				"element": "C" 
			},
			{
				"x": 0.9161297752,
				"y": 0.2353380908,
				"z": 0.4646701149,
				"element": "C" 
			},
			{
				"x": 0.0277454538,
				"y": 1.3066085464,
				"z": 0.4981648409,
				"element": "C" 
			},
			{
				"x": -1.1271269739,
				"y": 1.2515820266,
				"z": -0.2875330957,
				"element": "C" 
			},
			{
				"x": -1.9186678213,
				"y": 2.39225368,
				"z": -0.2215305465,
				"element": "O" 
			},
			{
				"x": -3.2139066817,
				"y": 2.1696730085,
				"z": -0.7124924497,
				"element": "O" 
			},
			{
				"x": -4.2619316218,
				"y": 1.5241779739,
				"z": 0.5812922687,
				"element": "Cl" 
			},
			{
				"x": -1.4166837997,
				"y": 0.1540377212,
				"z": -1.0892864645,
				"element": "C" 
			},
			{
				"x": 0.9993934827,
				"y": -2.497123295,
				"z": -2.1467989042,
				"element": "H" 
			},
			{
				"x": 1.3314676193,
				"y": -1.72215066,
				"z": -0.3091114736,
				"element": "H" 
			},
			{
				"x": 1.8087255254,
				"y": 0.2596936801,
				"z": 1.0815414869,
				"element": "H" 
			},
			{
				"x": 0.2074265049,
				"y": 2.1760730215,
				"z": 1.1212191021,
				"element": "H" 
			},
			{
				"x": -2.3214241597,
				"y": 0.1083246714,
				"z": -1.6809188751,
				"element": "H" 
			}
		],
		 "valence_orbital": [ 
			{
				"type": "occ",
				"energy": -0.32501,
				"method": "rhf"
			},
			{
				"type": "occ",
				"energy": -0.29784,
				"method": "rhf"
			},
			{
				"type": "occ",
				"energy": -0.28991,
				"method": "rhf"
			},
			{
				"type": "occ",
				"energy": -0.2776,
				"method": "rhf"
			},
			{
				"type": "occ",
				"energy": -0.26696,
				"method": "rhf"
			},
			{
				"type": "unocc",
				"energy": -0.11762,
				"method": "rhf"
			},
			{
				"type": "unocc",
				"energy": -0.06353,
				"method": "rhf"
			},
			{
				"type": "unocc",
				"energy": -0.02885,
				"method": "rhf"
			},
			{
				"type": "unocc",
				"energy": 0.014,
				"method": "rhf"
			},
			{
				"type": "unocc",
				"energy": 0.04001,
				"method": "rhf"
			}
		],
		"cosmo_sigma_profile": { 
			"-0.025": 0.0,
			"-0.024": 0.0,
			"-0.023": 0.0,
			"-0.022": 0.0,
			"-0.021": 0.0,
			"-0.02": 0.0,
			"-0.019": 0.254736230594,
			"-0.018": 1.09145443779,
			"-0.017": 1.06696170356,
			"-0.016": 1.16001870987,
			"-0.015": 0.865650778471,
			"-0.014": 0.791835810171,
			"-0.013": 1.16703917601,
			"-0.012": 1.23827167969,
			"-0.011": 1.18106281434,
			"-0.01": 1.474054088,
			"-0.009": 1.81840013383,
			"-0.008": 5.0891565488,
			"-0.007": 7.53643611956,
			"-0.006": 9.19391300988,
			"-0.005": 7.68835066453,
			"-0.004": 7.7909265963,
			"-0.003": 9.95705602463,
			"-0.002": 11.0731924546,
			"-0.001": 11.955965933,
			"0.0": 16.8935562523,
			"0.001": 22.9810293172,
			"0.002": 21.3170903767,
			"0.003": 16.511253457,
			"0.004": 8.37129026268,
			"0.005": 5.76104193812,
			"0.006": 3.48236803192,
			"0.007": 2.76569322676,
			"0.008": 2.56889693895,
			"0.009": 3.61858556433,
			"0.01": 5.20108649741,
			"0.011": 5.36152487602,
			"0.012": 3.67958912908,
			"0.013": 0.770997732886,
			"0.014": 0.0,
			"0.015": 0.0,
			"0.016": 0.0,
			"0.017": 0.0,
			"0.018": 0.0,
			"0.019": 0.0,
			"0.02": 0.0,
			"0.021": 0.0,
			"0.022": 0.0,
			"0.023": 0.0,
			"0.024": 0.0,
			"0.025": 0.0
		}
	}
}
