{
	 "smiles": "CC1=CC=CC=C1S(Cl)(=O)=O", 
	 "Tm": 283.15, 
	 "num_atms": 18, 
	 "gaussian": { 
		 "optdone": 1, 
		 "sigma_profile": "yes", 
		 "theory": "DFT", 
		 "functional": "B3LYP", 
		 "basiset": "6-31G**", 
		 "properties": { 
			 "R2extent": 2811.8407, 
			 "electric_dipole_moment_norm": 5.24881722486, 
			 "electric_quadrupole_moment_norm": 8.40579296735, 
			 "total_energy": -1279.72804117, 
			 "HOMO_LUMO_gap": 0.18696, 
			 "cosmo_polarized_energy": -8.18, 
			 "cosmo_cavitation_energy": 24.65, 
			 "cosmo_dispersion_energy": -18.8, 
			 "cosmo_repulsion_energy": 1.45, 
			 "cosmo_total_nonelectrostatic_energy": 7.3, 
			 "SMD_solvation_energy": 3.09 
		},
		"coords": [
			{
				"x": -0.9199508553,
				"y": -0.3687129476,
				"z": -1.7112492497,
				"element": "C" 
			},
			{
				"x": -0.1050522112,
				"y": 0.4953641184,
				"z": -0.7803440773,
				"element": "C" 
			},
			{
				"x": -0.5655759763,
				"y": 1.773306379,
				"z": -0.4348401423,
				"element": "C" 
			},
			{
				"x": 0.1487674701,
				"y": 2.6142962559,
				"z": 0.4185334731,
				"element": "C" 
			},
			{
				"x": 1.3656343098,
				"y": 2.2013342658,
				"z": 0.959932147,
				"element": "C" 
			},
			{
				"x": 1.8623514649,
				"y": 0.94046622,
				"z": 0.6404138677,
				"element": "C" 
			},
			{
				"x": 1.125846054,
				"y": 0.1112297984,
				"z": -0.2107075582,
				"element": "C" 
			},
			{
				"x": 1.8427004144,
				"y": -1.5054046858,
				"z": -0.5135902225,
				"element": "S" 
			},
			{
				"x": 2.5733223328,
				"y": -1.283209938,
				"z": -2.5176075781,
				"element": "Cl" 
			},
			{
				"x": 3.024358861,
				"y": -1.6730541329,
				"z": 0.3233449707,
				"element": "O" 
			},
			{
				"x": 0.8046275379,
				"y": -2.5274339753,
				"z": -0.5758776565,
				"element": "O" 
			},
			{
				"x": -1.7737800252,
				"y": 0.1960864835,
				"z": -2.0918800213,
				"element": "H" 
			},
			{
				"x": -1.288103816,
				"y": -1.2627100928,
				"z": -1.2014813748,
				"element": "H" 
			},
			{
				"x": -0.3290321883,
				"y": -0.713355641,
				"z": -2.5650091979,
				"element": "H" 
			},
			{
				"x": -1.5103147823,
				"y": 2.1100797938,
				"z": -0.8517544481,
				"element": "H" 
			},
			{
				"x": -0.2480840499,
				"y": 3.5964628205,
				"z": 0.6576848527,
				"element": "H" 
			},
			{
				"x": 1.9265926639,
				"y": 2.8510095225,
				"z": 1.6237739497,
				"element": "H" 
			},
			{
				"x": 2.8047927956,
				"y": 0.5897457556,
				"z": 1.0437582658,
				"element": "H" 
			}
		],
		 "valence_orbital": [ 
			{
				"type": "occ",
				"energy": -0.33252,
				"method": "rhf"
			},
			{
				"type": "occ",
				"energy": -0.32817,
				"method": "rhf"
			},
			{
				"type": "occ",
				"energy": -0.31187,
				"method": "rhf"
			},
			{
				"type": "occ",
				"energy": -0.28704,
				"method": "rhf"
			},
			{
				"type": "occ",
				"energy": -0.27523,
				"method": "rhf"
			},
			{
				"type": "unocc",
				"energy": -0.08827,
				"method": "rhf"
			},
			{
				"type": "unocc",
				"energy": -0.04393,
				"method": "rhf"
			},
			{
				"type": "unocc",
				"energy": -0.0311,
				"method": "rhf"
			},
			{
				"type": "unocc",
				"energy": 0.05295,
				"method": "rhf"
			},
			{
				"type": "unocc",
				"energy": 0.07134,
				"method": "rhf"
			}
		],
		"cosmo_sigma_profile": { 
			"-0.025": 0.0,
			"-0.024": 0.0,
			"-0.023": 0.0,
			"-0.022": 0.0,
			"-0.021": 0.0,
			"-0.02": 0.0,
			"-0.019": 0.0,
			"-0.018": 0.0,
			"-0.017": 0.0,
			"-0.016": 0.0,
			"-0.015": 0.0,
			"-0.014": 0.0,
			"-0.013": 0.0,
			"-0.012": 0.0,
			"-0.011": 0.0,
			"-0.01": 0.0,
			"-0.009": 0.0,
			"-0.008": 1.58811412174,
			"-0.007": 9.4377234619,
			"-0.006": 11.1178397127,
			"-0.005": 10.5245100058,
			"-0.004": 10.867393412,
			"-0.003": 13.7670907202,
			"-0.002": 16.8298414785,
			"-0.001": 20.8996662527,
			"0.0": 15.2136924529,
			"0.001": 18.2728902402,
			"0.002": 20.2619091656,
			"0.003": 13.9344741479,
			"0.004": 10.9936719156,
			"0.005": 4.22298763838,
			"0.006": 3.18704000584,
			"0.007": 5.16376739736,
			"0.008": 8.31561433504,
			"0.009": 5.25290139176,
			"0.01": 0.138741063883,
			"0.011": 0.0,
			"0.012": 0.0,
			"0.013": 0.0,
			"0.014": 0.0,
			"0.015": 0.0,
			"0.016": 0.0,
			"0.017": 0.0,
			"0.018": 0.0,
			"0.019": 0.0,
			"0.02": 0.0,
			"0.021": 0.0,
			"0.022": 0.0,
			"0.023": 0.0,
			"0.024": 0.0,
			"0.025": 0.0
		}
	}
}
