{
	 "smiles": "CC1=CC(Br)=CC(C)=C1C#N", 
	 "Tm": 342.15, 
	 "num_atms": 19, 
	 "gaussian": { 
		 "optdone": 1, 
		 "sigma_profile": "yes", 
		 "theory": "DFT", 
		 "functional": "B3LYP", 
		 "basiset": "6-31G**", 
		 "properties": { 
			 "R2extent": 2983.3677, 
			 "electric_dipole_moment_norm": 2.20046371022, 
			 "electric_quadrupole_moment_norm": 16.7999961801, 
			 "total_energy": -2973.93535826, 
			 "HOMO_LUMO_gap": 0.19365, 
			 "cosmo_polarized_energy": -7.88, 
			 "cosmo_cavitation_energy": 26.01, 
			 "cosmo_dispersion_energy": -18.65, 
			 "cosmo_repulsion_energy": 1.5, 
			 "cosmo_total_nonelectrostatic_energy": 8.85, 
			 "SMD_solvation_energy": 4.44 
		},
		"coords": [
			{
				"x": 0.1796166329,
				"y": -0.1654364622,
				"z": 3.0038258309,
				"element": "C" 
			},
			{
				"x": 0.2478968271,
				"y": -0.3433887296,
				"z": 1.5072841128,
				"element": "C" 
			},
			{
				"x": -0.1831294188,
				"y": 0.6687388055,
				"z": 0.6479866049,
				"element": "C" 
			},
			{
				"x": -0.1129308017,
				"y": 0.4875488165,
				"z": -0.7313206499,
				"element": "C" 
			},
			{
				"x": -0.7075300448,
				"y": 1.8845163045,
				"z": -1.8845887538,
				"element": "Br" 
			},
			{
				"x": 0.38122483,
				"y": -0.6895544077,
				"z": -1.2885312606,
				"element": "C" 
			},
			{
				"x": 0.8210335346,
				"y": -1.7228498656,
				"z": -0.4594203071,
				"element": "C" 
			},
			{
				"x": 1.3593816543,
				"y": -3.0049484659,
				"z": -1.0445234601,
				"element": "C" 
			},
			{
				"x": 0.7490278981,
				"y": -1.5370046935,
				"z": 0.9398918705,
				"element": "C" 
			},
			{
				"x": 1.1962127279,
				"y": -2.5871455346,
				"z": 1.8067777313,
				"element": "C" 
			},
			{
				"x": 1.559469263,
				"y": -3.4401253388,
				"z": 2.5109596027,
				"element": "N" 
			},
			{
				"x": -0.4475653014,
				"y": -0.9353456588,
				"z": 3.465488793,
				"element": "H" 
			},
			{
				"x": -0.2320392085,
				"y": 0.812682987,
				"z": 3.2626567032,
				"element": "H" 
			},
			{
				"x": 1.1723117754,
				"y": -0.2516374143,
				"z": 3.4581159233,
				"element": "H" 
			},
			{
				"x": -0.572113444,
				"y": 1.5949992559,
				"z": 1.0551104553,
				"element": "H" 
			},
			{
				"x": 0.4247202136,
				"y": -0.8042633277,
				"z": -2.3655425714,
				"element": "H" 
			},
			{
				"x": 1.3413173548,
				"y": -2.9741033461,
				"z": -2.1362665116,
				"element": "H" 
			},
			{
				"x": 0.770788532,
				"y": -3.8677473502,
				"z": -0.7153074104,
				"element": "H" 
			},
			{
				"x": 2.3907069753,
				"y": -3.1841355744,
				"z": -0.7227967032,
				"element": "H" 
			}
		],
		 "valence_orbital": [ 
			{
				"type": "occ",
				"energy": -0.33224,
				"method": "rhf"
			},
			{
				"type": "occ",
				"energy": -0.31069,
				"method": "rhf"
			},
			{
				"type": "occ",
				"energy": -0.29905,
				"method": "rhf"
			},
			{
				"type": "occ",
				"energy": -0.26861,
				"method": "rhf"
			},
			{
				"type": "occ",
				"energy": -0.25242,
				"method": "rhf"
			},
			{
				"type": "unocc",
				"energy": -0.05877,
				"method": "rhf"
			},
			{
				"type": "unocc",
				"energy": -0.02494,
				"method": "rhf"
			},
			{
				"type": "unocc",
				"energy": -0.00475,
				"method": "rhf"
			},
			{
				"type": "unocc",
				"energy": 0.03184,
				"method": "rhf"
			},
			{
				"type": "unocc",
				"energy": 0.06872,
				"method": "rhf"
			}
		],
		"cosmo_sigma_profile": { 
			"-0.025": 0.0,
			"-0.024": 0.0,
			"-0.023": 0.0,
			"-0.022": 0.0,
			"-0.021": 0.0,
			"-0.02": 0.0,
			"-0.019": 0.0,
			"-0.018": 0.0,
			"-0.017": 0.0,
			"-0.016": 0.0,
			"-0.015": 0.0,
			"-0.014": 0.0,
			"-0.013": 0.0,
			"-0.012": 0.0,
			"-0.011": 0.0,
			"-0.01": 0.0,
			"-0.009": 0.0,
			"-0.008": 0.904360024608,
			"-0.007": 5.73007883372,
			"-0.006": 6.94379822352,
			"-0.005": 15.6393310929,
			"-0.004": 15.4985746563,
			"-0.003": 18.4779194183,
			"-0.002": 20.7783338821,
			"-0.001": 26.8196116469,
			"0.0": 16.469163531,
			"0.001": 21.2157085466,
			"0.002": 16.1657153991,
			"0.003": 10.178137957,
			"0.004": 12.7746230253,
			"0.005": 2.61940534529,
			"0.006": 2.42053345731,
			"0.007": 2.16897450793,
			"0.008": 3.04032463614,
			"0.009": 3.09491238279,
			"0.01": 3.47320983709,
			"0.011": 2.62712886097,
			"0.012": 2.60732445155,
			"0.013": 1.69228895123,
			"0.014": 0.107534792352,
			"0.015": 0.0,
			"0.016": 0.0,
			"0.017": 0.0,
			"0.018": 0.0,
			"0.019": 0.0,
			"0.02": 0.0,
			"0.021": 0.0,
			"0.022": 0.0,
			"0.023": 0.0,
			"0.024": 0.0,
			"0.025": 0.0
		}
	}
}
