{
	 "smiles": "O=C1NC(=O)C2=C1C=CN=C2", 
	 "Tm": 507.15, 
	 "num_atms": 15, 
	 "gaussian": { 
		 "optdone": 1, 
		 "sigma_profile": "yes", 
		 "theory": "DFT", 
		 "functional": "B3LYP", 
		 "basiset": "6-31G**", 
		 "properties": { 
			 "R2extent": 2312.8338, 
			 "electric_dipole_moment_norm": 1.22934912047, 
			 "electric_quadrupole_moment_norm": 9.67334231794, 
			 "total_energy": -529.120522429, 
			 "HOMO_LUMO_gap": 0.17212, 
			 "cosmo_polarized_energy": -12.61, 
			 "cosmo_cavitation_energy": 20.63, 
			 "cosmo_dispersion_energy": -15.39, 
			 "cosmo_repulsion_energy": 1.22, 
			 "cosmo_total_nonelectrostatic_energy": 6.46, 
			 "SMD_solvation_energy": 3.68 
		},
		"coords": [
			{
				"x": -2.0470774049,
				"y": 0.5173347936,
				"z": 0.1279949367,
				"element": "O" 
			},
			{
				"x": -1.0439797403,
				"y": 0.709471547,
				"z": 0.7797290891,
				"element": "C" 
			},
			{
				"x": -0.8179751423,
				"y": 0.301302443,
				"z": 2.0998415072,
				"element": "N" 
			},
			{
				"x": 0.4444632263,
				"y": 0.6663166802,
				"z": 2.5997062811,
				"element": "C" 
			},
			{
				"x": 0.8653130868,
				"y": 0.4249451023,
				"z": 3.7097613527,
				"element": "O" 
			},
			{
				"x": 1.0993629441,
				"y": 1.390657025,
				"z": 1.468205301,
				"element": "C" 
			},
			{
				"x": 0.2195078416,
				"y": 1.4186343008,
				"z": 0.3859811835,
				"element": "C" 
			},
			{
				"x": 0.5887302089,
				"y": 2.0363707183,
				"z": -0.7962011031,
				"element": "C" 
			},
			{
				"x": 1.8703172887,
				"y": 2.6088003414,
				"z": -0.813822654,
				"element": "C" 
			},
			{
				"x": 2.7278261229,
				"y": 2.5907586032,
				"z": 0.2169368935,
				"element": "N" 
			},
			{
				"x": 2.3491315181,
				"y": 1.9862201617,
				"z": 1.353948766,
				"element": "C" 
			},
			{
				"x": -1.4995773266,
				"y": -0.209161406,
				"z": 2.6444405577,
				"element": "H" 
			},
			{
				"x": -0.0694090066,
				"y": 2.0771854484,
				"z": -1.657378969,
				"element": "H" 
			},
			{
				"x": 2.2255917809,
				"y": 3.1108700164,
				"z": -1.7113881856,
				"element": "H" 
			},
			{
				"x": 3.0591746024,
				"y": 1.9828942246,
				"z": 2.1772450433,
				"element": "H" 
			}
		],
		 "valence_orbital": [ 
			{
				"type": "occ",
				"energy": -0.30606,
				"method": "rhf"
			},
			{
				"type": "occ",
				"energy": -0.30488,
				"method": "rhf"
			},
			{
				"type": "occ",
				"energy": -0.29205,
				"method": "rhf"
			},
			{
				"type": "occ",
				"energy": -0.29159,
				"method": "rhf"
			},
			{
				"type": "occ",
				"energy": -0.27177,
				"method": "rhf"
			},
			{
				"type": "unocc",
				"energy": -0.09965,
				"method": "rhf"
			},
			{
				"type": "unocc",
				"energy": -0.05778,
				"method": "rhf"
			},
			{
				"type": "unocc",
				"energy": 0.00833,
				"method": "rhf"
			},
			{
				"type": "unocc",
				"energy": 0.06407,
				"method": "rhf"
			},
			{
				"type": "unocc",
				"energy": 0.08019,
				"method": "rhf"
			}
		],
		"cosmo_sigma_profile": { 
			"-0.025": 0.0,
			"-0.024": 0.0,
			"-0.023": 0.0,
			"-0.022": 0.0,
			"-0.021": 0.0,
			"-0.02": 0.0,
			"-0.019": 0.0,
			"-0.018": 0.0,
			"-0.017": 0.778527543144,
			"-0.016": 1.36277017836,
			"-0.015": 1.28661389887,
			"-0.014": 1.02330261634,
			"-0.013": 0.323482702424,
			"-0.012": 1.00073144926,
			"-0.011": 1.09032642294,
			"-0.01": 0.788410717297,
			"-0.009": 1.68940889321,
			"-0.008": 6.45780029746,
			"-0.007": 8.99887528013,
			"-0.006": 8.40865764721,
			"-0.005": 7.67307883098,
			"-0.004": 9.66391655256,
			"-0.003": 13.1859650303,
			"-0.002": 17.8779149165,
			"-0.001": 14.1760279322,
			"0.0": 9.08693135332,
			"0.001": 5.08553955104,
			"0.002": 4.13944262222,
			"0.003": 4.52767671964,
			"0.004": 5.11954486416,
			"0.005": 2.84025804799,
			"0.006": 3.08855809352,
			"0.007": 4.61119670382,
			"0.008": 4.43267674354,
			"0.009": 5.11835004852,
			"0.01": 8.69030937005,
			"0.011": 10.0305983546,
			"0.012": 2.23408404731,
			"0.013": 0.717068361772,
			"0.014": 0.898591162262,
			"0.015": 0.612151807137,
			"0.016": 0.0735388369833,
			"0.017": 0.0,
			"0.018": 0.0,
			"0.019": 0.0,
			"0.02": 0.0,
			"0.021": 0.0,
			"0.022": 0.0,
			"0.023": 0.0,
			"0.024": 0.0,
			"0.025": 0.0
		}
	}
}
