{
	 "smiles": "[O-][N+](=O)C1=CC=CC2=C1C=CC=N2", 
	 "Tm": 347.15, 
	 "num_atms": 19, 
	 "gaussian": { 
		 "optdone": 1, 
		 "sigma_profile": "yes", 
		 "theory": "DFT", 
		 "functional": "B3LYP", 
		 "basiset": "6-31G**", 
		 "properties": { 
			 "R2extent": 2882.1923, 
			 "electric_dipole_moment_norm": 2.60296308848, 
			 "electric_quadrupole_moment_norm": 19.4634643073, 
			 "total_energy": -606.422890324, 
			 "HOMO_LUMO_gap": 0.15827, 
			 "cosmo_polarized_energy": -8.96, 
			 "cosmo_cavitation_energy": 23.79, 
			 "cosmo_dispersion_energy": -17.98, 
			 "cosmo_repulsion_energy": 1.38, 
			 "cosmo_total_nonelectrostatic_energy": 7.19, 
			 "SMD_solvation_energy": 4.69 
		},
		"coords": [
			{
				"x": -0.629620548,
				"y": -0.775551954,
				"z": 4.1095294281,
				"element": "O" 
			},
			{
				"x": -0.9221709729,
				"y": -1.5405309133,
				"z": 3.188108226,
				"element": "N" 
			},
			{
				"x": -1.1911430398,
				"y": -2.7311602824,
				"z": 3.3442803675,
				"element": "O" 
			},
			{
				"x": -0.980883545,
				"y": -1.0030809645,
				"z": 1.8158141213,
				"element": "C" 
			},
			{
				"x": -1.7240113037,
				"y": -1.7401309107,
				"z": 0.9166744591,
				"element": "C" 
			},
			{
				"x": -1.8728975971,
				"y": -1.3018976716,
				"z": -0.4138636413,
				"element": "C" 
			},
			{
				"x": -1.2618996416,
				"y": -0.1405721384,
				"z": -0.8257475448,
				"element": "C" 
			},
			{
				"x": -0.4751897799,
				"y": 0.6274378563,
				"z": 0.0735709589,
				"element": "C" 
			},
			{
				"x": -0.3181257724,
				"y": 0.2083846093,
				"z": 1.4396010159,
				"element": "C" 
			},
			{
				"x": 0.5079347172,
				"y": 1.0202652348,
				"z": 2.2658271071,
				"element": "C" 
			},
			{
				"x": 1.0908309838,
				"y": 2.1451672014,
				"z": 1.7316304162,
				"element": "C" 
			},
			{
				"x": 0.8547726997,
				"y": 2.4765542447,
				"z": 0.3765228777,
				"element": "C" 
			},
			{
				"x": 0.107257826,
				"y": 1.7538002653,
				"z": -0.4304879722,
				"element": "N" 
			},
			{
				"x": -2.1912281237,
				"y": -2.6547637102,
				"z": 1.258838264,
				"element": "H" 
			},
			{
				"x": -2.4722524758,
				"y": -1.8873346029,
				"z": -1.1032755773,
				"element": "H" 
			},
			{
				"x": -1.3523015301,
				"y": 0.2290080468,
				"z": -1.8416048803,
				"element": "H" 
			},
			{
				"x": 0.6651445168,
				"y": 0.7492374911,
				"z": 3.2993098332,
				"element": "H" 
			},
			{
				"x": 1.7272453732,
				"y": 2.7796272378,
				"z": 2.3402269114,
				"element": "H" 
			},
			{
				"x": 1.3066382132,
				"y": 3.3708409606,
				"z": -0.0507543704,
				"element": "H" 
			}
		],
		 "valence_orbital": [ 
			{
				"type": "occ",
				"energy": -0.31317,
				"method": "rhf"
			},
			{
				"type": "occ",
				"energy": -0.2928,
				"method": "rhf"
			},
			{
				"type": "occ",
				"energy": -0.27421,
				"method": "rhf"
			},
			{
				"type": "occ",
				"energy": -0.27096,
				"method": "rhf"
			},
			{
				"type": "occ",
				"energy": -0.25871,
				"method": "rhf"
			},
			{
				"type": "unocc",
				"energy": -0.10044,
				"method": "rhf"
			},
			{
				"type": "unocc",
				"energy": -0.05317,
				"method": "rhf"
			},
			{
				"type": "unocc",
				"energy": -0.03774,
				"method": "rhf"
			},
			{
				"type": "unocc",
				"energy": 0.01183,
				"method": "rhf"
			},
			{
				"type": "unocc",
				"energy": 0.07182,
				"method": "rhf"
			}
		],
		"cosmo_sigma_profile": { 
			"-0.025": 0.0,
			"-0.024": 0.0,
			"-0.023": 0.0,
			"-0.022": 0.0,
			"-0.021": 0.0,
			"-0.02": 0.0,
			"-0.019": 0.0,
			"-0.018": 0.0,
			"-0.017": 0.0,
			"-0.016": 0.0,
			"-0.015": 0.0,
			"-0.014": 0.0,
			"-0.013": 0.0,
			"-0.012": 0.0,
			"-0.011": 0.0,
			"-0.01": 0.0,
			"-0.009": 0.0253058652879,
			"-0.008": 3.09432922479,
			"-0.007": 12.6043487458,
			"-0.006": 14.3780134027,
			"-0.005": 11.5497481846,
			"-0.004": 11.8375731547,
			"-0.003": 9.74634421254,
			"-0.002": 10.7378291161,
			"-0.001": 18.1800729721,
			"0.0": 22.4513005975,
			"0.001": 21.0667831916,
			"0.002": 9.70868044151,
			"0.003": 5.39481810378,
			"0.004": 4.23217312006,
			"0.005": 4.36092720247,
			"0.006": 5.71373151662,
			"0.007": 7.73755095911,
			"0.008": 7.24558693755,
			"0.009": 5.00874773075,
			"0.01": 3.49792200228,
			"0.011": 1.27384715185,
			"0.012": 0.899146197405,
			"0.013": 0.346947192697,
			"0.014": 1.00643683268,
			"0.015": 0.46717607149,
			"0.016": 0.0224649540052,
			"0.017": 0.0,
			"0.018": 0.0,
			"0.019": 0.0,
			"0.02": 0.0,
			"0.021": 0.0,
			"0.022": 0.0,
			"0.023": 0.0,
			"0.024": 0.0,
			"0.025": 0.0
		}
	}
}
