{
	 "smiles": "OC(=O)C1=CN=CN=C1", 
	 "Tm": 533.15, 
	 "num_atms": 13, 
	 "gaussian": { 
		 "optdone": 1, 
		 "sigma_profile": "yes", 
		 "theory": "DFT", 
		 "functional": "B3LYP", 
		 "basiset": "6-31G**", 
		 "properties": { 
			 "R2extent": 1289.8474, 
			 "electric_dipole_moment_norm": 2.85622146375, 
			 "electric_quadrupole_moment_norm": 9.05419472123, 
			 "total_energy": -452.881707123, 
			 "HOMO_LUMO_gap": 0.19628, 
			 "cosmo_polarized_energy": -15.67, 
			 "cosmo_cavitation_energy": 18.22, 
			 "cosmo_dispersion_energy": -13.69, 
			 "cosmo_repulsion_energy": 1.11, 
			 "cosmo_total_nonelectrostatic_energy": 5.64, 
			 "SMD_solvation_energy": 1.69 
		},
		"coords": [
			{
				"x": 1.5144533383,
				"y": -1.8291600637,
				"z": -0.063459896,
				"element": "O" 
			},
			{
				"x": 1.2474916113,
				"y": -0.7406077515,
				"z": -0.8289598071,
				"element": "C" 
			},
			{
				"x": 2.1127126832,
				"y": -0.2437339107,
				"z": -1.5083342555,
				"element": "O" 
			},
			{
				"x": -0.1509409166,
				"y": -0.2066598957,
				"z": -0.7880043598,
				"element": "C" 
			},
			{
				"x": -1.2751281531,
				"y": -0.9256554172,
				"z": -0.3730641334,
				"element": "C" 
			},
			{
				"x": -2.5055900368,
				"y": -0.4045071548,
				"z": -0.3735495966,
				"element": "N" 
			},
			{
				"x": -2.603414982,
				"y": 0.8579555723,
				"z": -0.8036413466,
				"element": "C" 
			},
			{
				"x": -1.6106288888,
				"y": 1.6408155127,
				"z": -1.2468628568,
				"element": "N" 
			},
			{
				"x": -0.3925018926,
				"y": 1.0975145029,
				"z": -1.2426200938,
				"element": "C" 
			},
			{
				"x": 0.781245616,
				"y": -2.0235944974,
				"z": 0.5366469884,
				"element": "H" 
			},
			{
				"x": -1.2036760684,
				"y": -1.965968242,
				"z": -0.0522614445,
				"element": "H" 
			},
			{
				"x": -3.5997054949,
				"y": 1.2948741244,
				"z": -0.7982301118,
				"element": "H" 
			},
			{
				"x": 0.4352831845,
				"y": 1.7019272208,
				"z": -1.6055590865,
				"element": "H" 
			}
		],
		 "valence_orbital": [ 
			{
				"type": "occ",
				"energy": -0.33812,
				"method": "rhf"
			},
			{
				"type": "occ",
				"energy": -0.33422,
				"method": "rhf"
			},
			{
				"type": "occ",
				"energy": -0.30965,
				"method": "rhf"
			},
			{
				"type": "occ",
				"energy": -0.28972,
				"method": "rhf"
			},
			{
				"type": "occ",
				"energy": -0.27567,
				"method": "rhf"
			},
			{
				"type": "unocc",
				"energy": -0.07939,
				"method": "rhf"
			},
			{
				"type": "unocc",
				"energy": -0.06648,
				"method": "rhf"
			},
			{
				"type": "unocc",
				"energy": 0.01866,
				"method": "rhf"
			},
			{
				"type": "unocc",
				"energy": 0.04357,
				"method": "rhf"
			},
			{
				"type": "unocc",
				"energy": 0.11441,
				"method": "rhf"
			}
		],
		"cosmo_sigma_profile": { 
			"-0.025": 0.0,
			"-0.024": 0.0,
			"-0.023": 0.0,
			"-0.022": 0.0,
			"-0.021": 0.0,
			"-0.02": 0.71397937482,
			"-0.019": 1.16905202876,
			"-0.018": 1.03287591375,
			"-0.017": 1.2280383807,
			"-0.016": 1.07157923238,
			"-0.015": 1.33580618677,
			"-0.014": 0.833299967836,
			"-0.013": 1.11799115944,
			"-0.012": 1.25556936162,
			"-0.011": 1.52570852756,
			"-0.01": 1.94047657635,
			"-0.009": 2.40289222316,
			"-0.008": 5.65905070266,
			"-0.007": 4.08393147742,
			"-0.006": 6.31206032731,
			"-0.005": 6.73056770036,
			"-0.004": 9.83061770047,
			"-0.003": 12.037457283,
			"-0.002": 10.3623986012,
			"-0.001": 6.09271422377,
			"0.0": 5.85857923746,
			"0.001": 5.67253254263,
			"0.002": 5.15544318333,
			"0.003": 3.93273308965,
			"0.004": 4.90939866491,
			"0.005": 4.31955573673,
			"0.006": 4.16260993682,
			"0.007": 4.69352013308,
			"0.008": 5.48200328818,
			"0.009": 5.38233434001,
			"0.01": 6.60292276852,
			"0.011": 6.75462934686,
			"0.012": 4.04113526879,
			"0.013": 1.95840372167,
			"0.014": 1.22620309519,
			"0.015": 0.349776878898,
			"0.016": 0.0,
			"0.017": 0.0,
			"0.018": 0.0,
			"0.019": 0.0,
			"0.02": 0.0,
			"0.021": 0.0,
			"0.022": 0.0,
			"0.023": 0.0,
			"0.024": 0.0,
			"0.025": 0.0
		}
	}
}
