{
	 "smiles": "OCC1=C(C=CC=C1[N+]([O-])=O)[N+]([O-])=O", 
	 "Tm": 363.15, 
	 "num_atms": 20, 
	 "gaussian": { 
		 "optdone": 1, 
		 "sigma_profile": "yes", 
		 "theory": "DFT", 
		 "functional": "B3LYP", 
		 "basiset": "6-31G**", 
		 "properties": { 
			 "R2extent": 2644.3261, 
			 "electric_dipole_moment_norm": 3.7455826743, 
			 "electric_quadrupole_moment_norm": 14.4210365869, 
			 "total_energy": -755.755007767, 
			 "HOMO_LUMO_gap": 0.17138, 
			 "cosmo_polarized_energy": -12.9, 
			 "cosmo_cavitation_energy": 25.25, 
			 "cosmo_dispersion_energy": -18.63, 
			 "cosmo_repulsion_energy": 1.45, 
			 "cosmo_total_nonelectrostatic_energy": 8.06, 
			 "SMD_solvation_energy": 8.47 
		},
		"coords": [
			{
				"x": 2.2869682375,
				"y": -1.1547278308,
				"z": 1.200469933,
				"element": "O" 
			},
			{
				"x": 1.7645430051,
				"y": 0.1255688072,
				"z": 0.9231530093,
				"element": "C" 
			},
			{
				"x": 0.5301354574,
				"y": 0.0854722656,
				"z": 0.0099942954,
				"element": "C" 
			},
			{
				"x": -0.4784442498,
				"y": -0.8925502045,
				"z": 0.1196222493,
				"element": "C" 
			},
			{
				"x": -1.5130225436,
				"y": -1.0444905681,
				"z": -0.8040411343,
				"element": "C" 
			},
			{
				"x": -1.6006029427,
				"y": -0.1831646253,
				"z": -1.8917392707,
				"element": "C" 
			},
			{
				"x": -0.6523170691,
				"y": 0.8216284722,
				"z": -2.0353639388,
				"element": "C" 
			},
			{
				"x": 0.3679819379,
				"y": 0.947361807,
				"z": -1.091512104,
				"element": "C" 
			},
			{
				"x": 1.2827686823,
				"y": 2.0874490947,
				"z": -1.3034705411,
				"element": "N" 
			},
			{
				"x": 1.4680592501,
				"y": 2.4566411973,
				"z": -2.4606092681,
				"element": "O" 
			},
			{
				"x": 1.7711424998,
				"y": 2.6193736711,
				"z": -0.306476645,
				"element": "O" 
			},
			{
				"x": -0.5451412987,
				"y": -1.8061490877,
				"z": 1.2771552767,
				"element": "N" 
			},
			{
				"x": -0.1136200126,
				"y": -1.4001910271,
				"z": 2.3617093086,
				"element": "O" 
			},
			{
				"x": -1.0784512641,
				"y": -2.8970283121,
				"z": 1.1112526316,
				"element": "O" 
			},
			{
				"x": 1.8396673751,
				"y": -1.4861557217,
				"z": 1.9907761075,
				"element": "H" 
			},
			{
				"x": 2.5523426719,
				"y": 0.680870524,
				"z": 0.417652775,
				"element": "H" 
			},
			{
				"x": 1.5149611325,
				"y": 0.6879517796,
				"z": 1.8305551083,
				"element": "H" 
			},
			{
				"x": -2.2363928968,
				"y": -1.8348442154,
				"z": -0.6471448922,
				"element": "H" 
			},
			{
				"x": -2.40458282,
				"y": -0.2881253617,
				"z": -2.6116471588,
				"element": "H" 
			},
			{
				"x": -0.6787951521,
				"y": 1.5167093357,
				"z": -2.8654357418,
				"element": "H" 
			}
		],
		 "valence_orbital": [ 
			{
				"type": "occ",
				"energy": -0.32448,
				"method": "rhf"
			},
			{
				"type": "occ",
				"energy": -0.31958,
				"method": "rhf"
			},
			{
				"type": "occ",
				"energy": -0.30075,
				"method": "rhf"
			},
			{
				"type": "occ",
				"energy": -0.29558,
				"method": "rhf"
			},
			{
				"type": "occ",
				"energy": -0.28594,
				"method": "rhf"
			},
			{
				"type": "unocc",
				"energy": -0.11456,
				"method": "rhf"
			},
			{
				"type": "unocc",
				"energy": -0.10522,
				"method": "rhf"
			},
			{
				"type": "unocc",
				"energy": -0.04321,
				"method": "rhf"
			},
			{
				"type": "unocc",
				"energy": -0.02566,
				"method": "rhf"
			},
			{
				"type": "unocc",
				"energy": 0.05569,
				"method": "rhf"
			}
		],
		"cosmo_sigma_profile": { 
			"-0.025": 0.0,
			"-0.024": 0.0,
			"-0.023": 0.0,
			"-0.022": 0.0,
			"-0.021": 0.0,
			"-0.02": 0.0,
			"-0.019": 0.0,
			"-0.018": 0.0,
			"-0.017": 0.0,
			"-0.016": 0.0,
			"-0.015": 0.0,
			"-0.014": 0.0,
			"-0.013": 0.0,
			"-0.012": 0.354145510162,
			"-0.011": 1.10728772924,
			"-0.01": 1.66538920793,
			"-0.009": 5.85786616272,
			"-0.008": 10.0148403632,
			"-0.007": 11.3423258661,
			"-0.006": 9.92664043124,
			"-0.005": 11.2001357644,
			"-0.004": 9.55652513813,
			"-0.003": 14.8769223581,
			"-0.002": 17.5627763335,
			"-0.001": 14.2797655646,
			"0.0": 11.1601886151,
			"0.001": 6.55018062967,
			"0.002": 6.24157228861,
			"0.003": 6.49979286858,
			"0.004": 6.55713567472,
			"0.005": 7.68881613687,
			"0.006": 13.6612147313,
			"0.007": 15.0874116098,
			"0.008": 9.10314384183,
			"0.009": 5.67681017824,
			"0.01": 1.4447850495,
			"0.011": 1.42185206383,
			"0.012": 1.50009464895,
			"0.013": 1.81570622223,
			"0.014": 0.31996874131,
			"0.015": 0.0,
			"0.016": 0.0,
			"0.017": 0.0,
			"0.018": 0.0,
			"0.019": 0.0,
			"0.02": 0.0,
			"0.021": 0.0,
			"0.022": 0.0,
			"0.023": 0.0,
			"0.024": 0.0,
			"0.025": 0.0
		}
	}
}
