{
	 "smiles": "NC1=NN=C(SCC2=CC=CS2)S1", 
	 "Tm": 415.15, 
	 "num_atms": 20, 
	 "gaussian": { 
		 "optdone": 1, 
		 "sigma_profile": "yes", 
		 "theory": "DFT", 
		 "functional": "B3LYP", 
		 "basiset": "6-31G**", 
		 "properties": { 
			 "R2extent": 4446.6325, 
			 "electric_dipole_moment_norm": 3.97439794938, 
			 "electric_quadrupole_moment_norm": 28.3562877971, 
			 "total_energy": -1629.72432136, 
			 "HOMO_LUMO_gap": 0.17962, 
			 "cosmo_polarized_energy": -19.23, 
			 "cosmo_cavitation_energy": 30.02, 
			 "cosmo_dispersion_energy": -22.32, 
			 "cosmo_repulsion_energy": 1.66, 
			 "cosmo_total_nonelectrostatic_energy": 9.35, 
			 "SMD_solvation_energy": 2.2 
		},
		"coords": [
			{
				"x": 0.418020075,
				"y": -2.6636007054,
				"z": -4.9191620121,
				"element": "N" 
			},
			{
				"x": -0.1663610024,
				"y": -2.3336020313,
				"z": -3.725516575,
				"element": "C" 
			},
			{
				"x": -0.0611345142,
				"y": -3.0855400985,
				"z": -2.6543486049,
				"element": "N" 
			},
			{
				"x": -0.7665502562,
				"y": -2.6002338284,
				"z": -1.5965383287,
				"element": "N" 
			},
			{
				"x": -1.4036629618,
				"y": -1.4929823059,
				"z": -1.8367816112,
				"element": "C" 
			},
			{
				"x": -2.4372722721,
				"y": -0.6646843685,
				"z": -0.6795681945,
				"element": "S" 
			},
			{
				"x": -1.3631739733,
				"y": 0.7860063747,
				"z": -0.168190547,
				"element": "C" 
			},
			{
				"x": -0.1636005214,
				"y": 0.4519703567,
				"z": 0.6492895722,
				"element": "C" 
			},
			{
				"x": -0.0832795198,
				"y": 0.289350183,
				"z": 2.0104630735,
				"element": "C" 
			},
			{
				"x": 1.2252709423,
				"y": -0.0447300436,
				"z": 2.4656054202,
				"element": "C" 
			},
			{
				"x": 2.1332015325,
				"y": -0.1340529421,
				"z": 1.4455220758,
				"element": "C" 
			},
			{
				"x": 1.3975211004,
				"y": 0.1864084306,
				"z": -0.0885896904,
				"element": "S" 
			},
			{
				"x": -1.194179701,
				"y": -0.9274020098,
				"z": -3.5193540357,
				"element": "S" 
			},
			{
				"x": 1.1052939764,
				"y": -3.4019944416,
				"z": -4.8371815468,
				"element": "H" 
			},
			{
				"x": 0.6769762333,
				"y": -1.9114439495,
				"z": -5.5398292552,
				"element": "H" 
			},
			{
				"x": -2.0591377672,
				"y": 1.3977020839,
				"z": 0.413137472,
				"element": "H" 
			},
			{
				"x": -1.1084598086,
				"y": 1.3433180462,
				"z": -1.0723070556,
				"element": "H" 
			},
			{
				"x": -0.9406588282,
				"y": 0.4014366739,
				"z": 2.6656454525,
				"element": "H" 
			},
			{
				"x": 1.4800737643,
				"y": -0.208000068,
				"z": 3.5065071547,
				"element": "H" 
			},
			{
				"x": 3.1872135019,
				"y": -0.3674253564,
				"z": 1.502397236,
				"element": "H" 
			}
		],
		 "valence_orbital": [ 
			{
				"type": "occ",
				"energy": -0.26274,
				"method": "rhf"
			},
			{
				"type": "occ",
				"energy": -0.25084,
				"method": "rhf"
			},
			{
				"type": "occ",
				"energy": -0.24734,
				"method": "rhf"
			},
			{
				"type": "occ",
				"energy": -0.23953,
				"method": "rhf"
			},
			{
				"type": "occ",
				"energy": -0.22162,
				"method": "rhf"
			},
			{
				"type": "unocc",
				"energy": -0.042,
				"method": "rhf"
			},
			{
				"type": "unocc",
				"energy": -0.0149,
				"method": "rhf"
			},
			{
				"type": "unocc",
				"energy": -0.00705,
				"method": "rhf"
			},
			{
				"type": "unocc",
				"energy": 0.02308,
				"method": "rhf"
			},
			{
				"type": "unocc",
				"energy": 0.03102,
				"method": "rhf"
			}
		],
		"cosmo_sigma_profile": { 
			"-0.025": 0.0,
			"-0.024": 0.0,
			"-0.023": 0.0,
			"-0.022": 0.0,
			"-0.021": 0.0,
			"-0.02": 0.0,
			"-0.019": 0.0,
			"-0.018": 0.0,
			"-0.017": 0.0,
			"-0.016": 0.227787378072,
			"-0.015": 1.79931210455,
			"-0.014": 3.05754191884,
			"-0.013": 2.64743300602,
			"-0.012": 2.85715291883,
			"-0.011": 2.75995405843,
			"-0.01": 1.45477325734,
			"-0.009": 2.54628831583,
			"-0.008": 6.06545374064,
			"-0.007": 10.8058875442,
			"-0.006": 12.4103994464,
			"-0.005": 12.1211619338,
			"-0.004": 13.5414962502,
			"-0.003": 11.1018023715,
			"-0.002": 10.9916325823,
			"-0.001": 17.4594216897,
			"0.0": 18.1525946171,
			"0.001": 15.2367653086,
			"0.002": 16.1938299852,
			"0.003": 15.6901846925,
			"0.004": 15.8588684353,
			"0.005": 14.0040673835,
			"0.006": 9.18314844989,
			"0.007": 5.95634660319,
			"0.008": 4.81154264727,
			"0.009": 4.05655079695,
			"0.01": 3.11163250456,
			"0.011": 3.04408112176,
			"0.012": 3.69187063927,
			"0.013": 2.62847034008,
			"0.014": 2.22055045725,
			"0.015": 1.12912292,
			"0.016": 0.0166405380544,
			"0.017": 0.0,
			"0.018": 0.0,
			"0.019": 0.0,
			"0.02": 0.0,
			"0.021": 0.0,
			"0.022": 0.0,
			"0.023": 0.0,
			"0.024": 0.0,
			"0.025": 0.0
		}
	}
}
