{
	 "smiles": "ClC1=CC=CC(=C1)N1C(=O)NC2=C(C(=CS2)C2=CC=CC=C2)C1=O", 
	 "Tm": 543.15, 
	 "num_atms": 35, 
	 "gaussian": { 
		 "optdone": 1, 
		 "sigma_profile": "yes", 
		 "theory": "DFT", 
		 "functional": "B3LYP", 
		 "basiset": "6-31G**", 
		 "properties": { 
			 "R2extent": 11113.2685, 
			 "electric_dipole_moment_norm": 4.12678946034, 
			 "electric_quadrupole_moment_norm": 16.0599678032, 
			 "total_energy": -1810.90242151, 
			 "HOMO_LUMO_gap": 0.17987, 
			 "cosmo_polarized_energy": -20.33, 
			 "cosmo_cavitation_energy": 43.75, 
			 "cosmo_dispersion_energy": -31.42, 
			 "cosmo_repulsion_energy": 2.34, 
			 "cosmo_total_nonelectrostatic_energy": 14.66, 
			 "SMD_solvation_energy": 7.86 
		},
		"coords": [
			{
				"x": 5.0235295258,
				"y": 2.7996226522,
				"z": -1.7342928424,
				"element": "Cl" 
			},
			{
				"x": 4.4217733477,
				"y": 1.2978921383,
				"z": -1.0478767508,
				"element": "C" 
			},
			{
				"x": 5.1614142199,
				"y": 0.6509378524,
				"z": -0.0587134089,
				"element": "C" 
			},
			{
				"x": 4.6723915043,
				"y": -0.5405526879,
				"z": 0.4779175795,
				"element": "C" 
			},
			{
				"x": 3.4668062873,
				"y": -1.0792775037,
				"z": 0.0313796576,
				"element": "C" 
			},
			{
				"x": 2.7446185082,
				"y": -0.4130120903,
				"z": -0.957190406,
				"element": "C" 
			},
			{
				"x": 3.2113113781,
				"y": 0.7815118672,
				"z": -1.5040187075,
				"element": "C" 
			},
			{
				"x": 1.4907316494,
				"y": -0.9597601884,
				"z": -1.4226969639,
				"element": "N" 
			},
			{
				"x": 1.4986358571,
				"y": -1.5307067816,
				"z": -2.7029182927,
				"element": "C" 
			},
			{
				"x": 2.4794605117,
				"y": -1.5955538734,
				"z": -3.4194695897,
				"element": "O" 
			},
			{
				"x": 0.2673573342,
				"y": -2.0337438907,
				"z": -3.1120253057,
				"element": "N" 
			},
			{
				"x": -0.8602772845,
				"y": -1.9758632824,
				"z": -2.3346798889,
				"element": "C" 
			},
			{
				"x": -0.8733351495,
				"y": -1.4290033551,
				"z": -1.0680710353,
				"element": "C" 
			},
			{
				"x": -2.2001233466,
				"y": -1.4570784416,
				"z": -0.4735904672,
				"element": "C" 
			},
			{
				"x": -3.1079108509,
				"y": -2.0258507625,
				"z": -1.3239287446,
				"element": "C" 
			},
			{
				"x": -2.4174303743,
				"y": -2.5396254247,
				"z": -2.8480359611,
				"element": "S" 
			},
			{
				"x": -2.6112867957,
				"y": -0.9655075294,
				"z": 0.8650398944,
				"element": "C" 
			},
			{
				"x": -3.7914984756,
				"y": -0.2138217651,
				"z": 0.9889994235,
				"element": "C" 
			},
			{
				"x": -4.2463352668,
				"y": 0.2004954637,
				"z": 2.2405909885,
				"element": "C" 
			},
			{
				"x": -3.5275832266,
				"y": -0.1304438602,
				"z": 3.3896251125,
				"element": "C" 
			},
			{
				"x": -2.3505557689,
				"y": -0.8741105772,
				"z": 3.2769506158,
				"element": "C" 
			},
			{
				"x": -1.8934142763,
				"y": -1.2876598972,
				"z": 2.0277212746,
				"element": "C" 
			},
			{
				"x": 0.3648703734,
				"y": -0.8575104428,
				"z": -0.5385639893,
				"element": "C" 
			},
			{
				"x": 0.500810692,
				"y": -0.3259249045,
				"z": 0.5488263613,
				"element": "O" 
			},
			{
				"x": 6.0998376174,
				"y": 1.0737465644,
				"z": 0.2817647155,
				"element": "H" 
			},
			{
				"x": 5.2392387379,
				"y": -1.0517191328,
				"z": 1.2497080746,
				"element": "H" 
			},
			{
				"x": 3.0831121664,
				"y": -2.0043590087,
				"z": 0.4467210136,
				"element": "H" 
			},
			{
				"x": 2.6458112009,
				"y": 1.2935548616,
				"z": -2.2729504934,
				"element": "H" 
			},
			{
				"x": 0.2652943765,
				"y": -2.4381891004,
				"z": -4.0378118062,
				"element": "H" 
			},
			{
				"x": -4.1541573751,
				"y": -2.216903968,
				"z": -1.1349682474,
				"element": "H" 
			},
			{
				"x": -4.3410514382,
				"y": 0.0632503317,
				"z": 0.0940981172,
				"element": "H" 
			},
			{
				"x": -5.1569052493,
				"y": 0.7881084681,
				"z": 2.3151094229,
				"element": "H" 
			},
			{
				"x": -3.8772429286,
				"y": 0.193958058,
				"z": 4.3655053789,
				"element": "H" 
			},
			{
				"x": -1.783474623,
				"y": -1.1329618947,
				"z": 4.1663978549,
				"element": "H" 
			},
			{
				"x": -0.9746228581,
				"y": -1.8559378944,
				"z": 1.9509474159,
				"element": "H" 
			}
		],
		 "valence_orbital": [ 
			{
				"type": "occ",
				"energy": -0.26074,
				"method": "rhf"
			},
			{
				"type": "occ",
				"energy": -0.25012,
				"method": "rhf"
			},
			{
				"type": "occ",
				"energy": -0.24719,
				"method": "rhf"
			},
			{
				"type": "occ",
				"energy": -0.24579,
				"method": "rhf"
			},
			{
				"type": "occ",
				"energy": -0.22399,
				"method": "rhf"
			},
			{
				"type": "unocc",
				"energy": -0.04412,
				"method": "rhf"
			},
			{
				"type": "unocc",
				"energy": -0.03227,
				"method": "rhf"
			},
			{
				"type": "unocc",
				"energy": -0.01807,
				"method": "rhf"
			},
			{
				"type": "unocc",
				"energy": -0.01478,
				"method": "rhf"
			},
			{
				"type": "unocc",
				"energy": -0.01261,
				"method": "rhf"
			}
		],
		"cosmo_sigma_profile": { 
			"-0.025": 0.0,
			"-0.024": 0.0,
			"-0.023": 0.0,
			"-0.022": 0.0,
			"-0.021": 0.0,
			"-0.02": 0.0,
			"-0.019": 0.0,
			"-0.018": 0.373281716045,
			"-0.017": 1.56681734175,
			"-0.016": 1.00263155023,
			"-0.015": 1.1701844729,
			"-0.014": 1.42996301618,
			"-0.013": 1.30222023404,
			"-0.012": 0.659663815707,
			"-0.011": 1.0864583473,
			"-0.01": 0.633024002618,
			"-0.009": 2.63528050885,
			"-0.008": 5.36566577002,
			"-0.007": 11.8583608086,
			"-0.006": 16.7658530956,
			"-0.005": 24.8811506474,
			"-0.004": 23.3716009985,
			"-0.003": 25.3296789236,
			"-0.002": 21.8798260973,
			"-0.001": 22.3346397244,
			"0.0": 26.0954163922,
			"0.001": 29.4764427536,
			"0.002": 29.2689230192,
			"0.003": 28.2367040004,
			"0.004": 22.1426476457,
			"0.005": 15.8487272355,
			"0.006": 9.02249843186,
			"0.007": 4.3153459529,
			"0.008": 3.38393053265,
			"0.009": 3.56899403561,
			"0.01": 4.29376928383,
			"0.011": 5.26082866705,
			"0.012": 10.1848072551,
			"0.013": 2.47930649136,
			"0.014": 0.0,
			"0.015": 0.0,
			"0.016": 0.0,
			"0.017": 0.0,
			"0.018": 0.0,
			"0.019": 0.0,
			"0.02": 0.0,
			"0.021": 0.0,
			"0.022": 0.0,
			"0.023": 0.0,
			"0.024": 0.0,
			"0.025": 0.0
		}
	}
}
