{
	 "smiles": "CC1=NC(Cl)=NC(N)=C1N", 
	 "Tm": 523.15, 
	 "num_atms": 17, 
	 "gaussian": { 
		 "optdone": 1, 
		 "sigma_profile": "yes", 
		 "theory": "DFT", 
		 "functional": "B3LYP", 
		 "basiset": "6-31G**", 
		 "properties": { 
			 "R2extent": 2245.8621, 
			 "electric_dipole_moment_norm": 5.82623094204, 
			 "electric_quadrupole_moment_norm": 8.70892133447, 
			 "total_energy": -873.968884346, 
			 "HOMO_LUMO_gap": 0.19371, 
			 "cosmo_polarized_energy": -16.21, 
			 "cosmo_cavitation_energy": 22.7, 
			 "cosmo_dispersion_energy": -17.39, 
			 "cosmo_repulsion_energy": 1.44, 
			 "cosmo_total_nonelectrostatic_energy": 6.74, 
			 "SMD_solvation_energy": 0.85 
		},
		"coords": [
			{
				"x": -2.113717146,
				"y": -1.1091359001,
				"z": -1.830324384,
				"element": "C" 
			},
			{
				"x": -1.3002712707,
				"y": -0.9705993358,
				"z": -0.570242295,
				"element": "C" 
			},
			{
				"x": -1.9166703051,
				"y": -1.2829232515,
				"z": 0.5927056766,
				"element": "N" 
			},
			{
				"x": -1.1941634844,
				"y": -1.1512359856,
				"z": 1.6866462604,
				"element": "C" 
			},
			{
				"x": -2.012286468,
				"y": -1.51962592,
				"z": 3.2038115927,
				"element": "Cl" 
			},
			{
				"x": 0.0774519031,
				"y": -0.7877683373,
				"z": 1.8005147183,
				"element": "N" 
			},
			{
				"x": 0.6956622005,
				"y": -0.4946717319,
				"z": 0.6523890967,
				"element": "C" 
			},
			{
				"x": 2.0124904098,
				"y": -0.0926697597,
				"z": 0.7047869722,
				"element": "N" 
			},
			{
				"x": 0.02702863,
				"y": -0.5439855195,
				"z": -0.595434379,
				"element": "C" 
			},
			{
				"x": 0.7517764552,
				"y": -0.2255261093,
				"z": -1.7602514922,
				"element": "N" 
			},
			{
				"x": -2.1339402739,
				"y": -0.172003246,
				"z": -2.4013937008,
				"element": "H" 
			},
			{
				"x": -3.1374774786,
				"y": -1.3775796607,
				"z": -1.5684574755,
				"element": "H" 
			},
			{
				"x": -1.7088777306,
				"y": -1.8875903278,
				"z": -2.4890110306,
				"element": "H" 
			},
			{
				"x": 2.5763287579,
				"y": -0.3692459457,
				"z": -0.0895112932,
				"element": "H" 
			},
			{
				"x": 2.4472465793,
				"y": -0.250317559,
				"z": 1.6045943486,
				"element": "H" 
			},
			{
				"x": 0.1872200366,
				"y": -0.2285274955,
				"z": -2.6003470278,
				"element": "H" 
			},
			{
				"x": 1.241599185,
				"y": 0.6614060854,
				"z": -1.6805755874,
				"element": "H" 
			}
		],
		 "valence_orbital": [ 
			{
				"type": "occ",
				"energy": -0.30332,
				"method": "rhf"
			},
			{
				"type": "occ",
				"energy": -0.3007,
				"method": "rhf"
			},
			{
				"type": "occ",
				"energy": -0.27111,
				"method": "rhf"
			},
			{
				"type": "occ",
				"energy": -0.2538,
				"method": "rhf"
			},
			{
				"type": "occ",
				"energy": -0.21639,
				"method": "rhf"
			},
			{
				"type": "unocc",
				"energy": -0.02268,
				"method": "rhf"
			},
			{
				"type": "unocc",
				"energy": -0.00596,
				"method": "rhf"
			},
			{
				"type": "unocc",
				"energy": 0.05277,
				"method": "rhf"
			},
			{
				"type": "unocc",
				"energy": 0.05403,
				"method": "rhf"
			},
			{
				"type": "unocc",
				"energy": 0.09184,
				"method": "rhf"
			}
		],
		"cosmo_sigma_profile": { 
			"-0.025": 0.0,
			"-0.024": 0.0,
			"-0.023": 0.0,
			"-0.022": 0.0,
			"-0.021": 0.0,
			"-0.02": 0.0,
			"-0.019": 0.0,
			"-0.018": 0.0,
			"-0.017": 0.0,
			"-0.016": 0.0,
			"-0.015": 0.0,
			"-0.014": 0.141574200852,
			"-0.013": 2.26005193414,
			"-0.012": 4.27636810887,
			"-0.011": 4.80108137917,
			"-0.01": 5.26338836336,
			"-0.009": 5.61500417953,
			"-0.008": 4.68610967348,
			"-0.007": 3.93188960067,
			"-0.006": 5.76626784535,
			"-0.005": 7.34322734654,
			"-0.004": 6.86345915571,
			"-0.003": 7.72611139175,
			"-0.002": 10.1788231682,
			"-0.001": 14.5449100771,
			"0.0": 15.174518519,
			"0.001": 8.94358220805,
			"0.002": 9.6241068788,
			"0.003": 8.0766527333,
			"0.004": 11.0719306781,
			"0.005": 12.675581297,
			"0.006": 7.20449446258,
			"0.007": 5.63841686957,
			"0.008": 4.77964668262,
			"0.009": 3.43626779364,
			"0.01": 2.74208799922,
			"0.011": 3.11525422415,
			"0.012": 3.07323169371,
			"0.013": 1.88815062187,
			"0.014": 1.15752095192,
			"0.015": 0.35749069181,
			"0.016": 0.0,
			"0.017": 0.0,
			"0.018": 0.0,
			"0.019": 0.0,
			"0.02": 0.0,
			"0.021": 0.0,
			"0.022": 0.0,
			"0.023": 0.0,
			"0.024": 0.0,
			"0.025": 0.0
		}
	}
}
