{
	 "smiles": "CC1=CC(N)=NC(C)=N1", 
	 "Tm": 457.15, 
	 "num_atms": 18, 
	 "gaussian": { 
		 "optdone": 1, 
		 "sigma_profile": "yes", 
		 "theory": "DFT", 
		 "functional": "B3LYP", 
		 "basiset": "6-31G**", 
		 "properties": { 
			 "R2extent": 1863.2735, 
			 "electric_dipole_moment_norm": 2.96220788433, 
			 "electric_quadrupole_moment_norm": 7.06069832453, 
			 "total_energy": -398.345284643, 
			 "HOMO_LUMO_gap": 0.2182, 
			 "cosmo_polarized_energy": -11.09, 
			 "cosmo_cavitation_energy": 21.66, 
			 "cosmo_dispersion_energy": -16.29, 
			 "cosmo_repulsion_energy": 1.37, 
			 "cosmo_total_nonelectrostatic_energy": 6.73, 
			 "SMD_solvation_energy": 1.25 
		},
		"coords": [
			{
				"x": 2.7993466114,
				"y": 1.6686488147,
				"z": -2.4667003718,
				"element": "C" 
			},
			{
				"x": 1.848464969,
				"y": 1.4408719237,
				"z": -1.3215587934,
				"element": "C" 
			},
			{
				"x": 0.4907072718,
				"y": 1.6980682849,
				"z": -1.4317885296,
				"element": "C" 
			},
			{
				"x": -0.3013120559,
				"y": 1.4487343876,
				"z": -0.2923771383,
				"element": "C" 
			},
			{
				"x": -1.6598049069,
				"y": 1.6313448343,
				"z": -0.3002996485,
				"element": "N" 
			},
			{
				"x": 0.2340058666,
				"y": 0.986507343,
				"z": 0.8463753084,
				"element": "N" 
			},
			{
				"x": 1.5582130846,
				"y": 0.7658358278,
				"z": 0.8435941312,
				"element": "C" 
			},
			{
				"x": 2.1483277896,
				"y": 0.2381270181,
				"z": 2.1256158919,
				"element": "C" 
			},
			{
				"x": 2.3948925831,
				"y": 0.9700373801,
				"z": -0.178506602,
				"element": "N" 
			},
			{
				"x": 2.2892227867,
				"y": 2.0545269661,
				"z": -3.3530177819,
				"element": "H" 
			},
			{
				"x": 3.5805936292,
				"y": 2.3760251677,
				"z": -2.1700776259,
				"element": "H" 
			},
			{
				"x": 3.3027005401,
				"y": 0.7318539909,
				"z": -2.7271724996,
				"element": "H" 
			},
			{
				"x": 0.0552407371,
				"y": 2.069807187,
				"z": -2.3539275996,
				"element": "H" 
			},
			{
				"x": -2.1050600846,
				"y": 1.6160864263,
				"z": 0.6054152056,
				"element": "H" 
			},
			{
				"x": -2.0666098105,
				"y": 2.2356106695,
				"z": -0.9963976877,
				"element": "H" 
			},
			{
				"x": 1.7093161886,
				"y": -0.7345338711,
				"z": 2.3720926707,
				"element": "H" 
			},
			{
				"x": 3.2293447174,
				"y": 0.1335406697,
				"z": 2.0285011083,
				"element": "H" 
			},
			{
				"x": 1.9165100829,
				"y": 0.9118069796,
				"z": 2.9568299622,
				"element": "H" 
			}
		],
		 "valence_orbital": [ 
			{
				"type": "occ",
				"energy": -0.3248,
				"method": "rhf"
			},
			{
				"type": "occ",
				"energy": -0.28301,
				"method": "rhf"
			},
			{
				"type": "occ",
				"energy": -0.26602,
				"method": "rhf"
			},
			{
				"type": "occ",
				"energy": -0.23542,
				"method": "rhf"
			},
			{
				"type": "occ",
				"energy": -0.22836,
				"method": "rhf"
			},
			{
				"type": "unocc",
				"energy": -0.01016,
				"method": "rhf"
			},
			{
				"type": "unocc",
				"energy": 0.00448,
				"method": "rhf"
			},
			{
				"type": "unocc",
				"energy": 0.08149,
				"method": "rhf"
			},
			{
				"type": "unocc",
				"energy": 0.11327,
				"method": "rhf"
			},
			{
				"type": "unocc",
				"energy": 0.12928,
				"method": "rhf"
			}
		],
		"cosmo_sigma_profile": { 
			"-0.025": 0.0,
			"-0.024": 0.0,
			"-0.023": 0.0,
			"-0.022": 0.0,
			"-0.021": 0.0,
			"-0.02": 0.0,
			"-0.019": 0.0,
			"-0.018": 0.0,
			"-0.017": 0.0,
			"-0.016": 0.0,
			"-0.015": 0.0,
			"-0.014": 0.760580122252,
			"-0.013": 2.33126595565,
			"-0.012": 2.42150465586,
			"-0.011": 2.38361909429,
			"-0.01": 2.19019152232,
			"-0.009": 2.83386066115,
			"-0.008": 2.66632676517,
			"-0.007": 2.88750208412,
			"-0.006": 2.86057818067,
			"-0.005": 7.15287107827,
			"-0.004": 12.4578159585,
			"-0.003": 10.9473790115,
			"-0.002": 13.6548255601,
			"-0.001": 15.9785844931,
			"0.0": 19.529183405,
			"0.001": 14.1762243024,
			"0.002": 10.3965843003,
			"0.003": 9.67342953085,
			"0.004": 4.98689797972,
			"0.005": 4.10887834204,
			"0.006": 4.25193015923,
			"0.007": 4.26337641716,
			"0.008": 3.01098771561,
			"0.009": 2.26505960044,
			"0.01": 3.46046524313,
			"0.011": 1.9989812857,
			"0.012": 2.0886226071,
			"0.013": 1.60515070787,
			"0.014": 0.757762153142,
			"0.015": 1.6366894756,
			"0.016": 1.01957104763,
			"0.017": 0.194365926083,
			"0.018": 0.0,
			"0.019": 0.0,
			"0.02": 0.0,
			"0.021": 0.0,
			"0.022": 0.0,
			"0.023": 0.0,
			"0.024": 0.0,
			"0.025": 0.0
		}
	}
}
