{
	 "smiles": "ClC1=C(NC2=NC3=C(S2)C=CC=C3)C=CC=C1", 
	 "Tm": 400.15, 
	 "num_atms": 26, 
	 "gaussian": { 
		 "optdone": 1, 
		 "sigma_profile": "yes", 
		 "theory": "DFT", 
		 "functional": "B3LYP", 
		 "basiset": "6-31G**", 
		 "properties": { 
			 "R2extent": 6347.6858, 
			 "electric_dipole_moment_norm": 0.318907698245, 
			 "electric_quadrupole_moment_norm": 14.3750016344, 
			 "total_energy": -1468.70680353, 
			 "HOMO_LUMO_gap": 0.17478, 
			 "cosmo_polarized_energy": -8.02, 
			 "cosmo_cavitation_energy": 33.55, 
			 "cosmo_dispersion_energy": -25.6, 
			 "cosmo_repulsion_energy": 1.91, 
			 "cosmo_total_nonelectrostatic_energy": 9.86, 
			 "SMD_solvation_energy": 3.67 
		},
		"coords": [
			{
				"x": -3.8443499796,
				"y": 1.7362815615,
				"z": -0.3719711061,
				"element": "Cl" 
			},
			{
				"x": -2.3002742612,
				"y": 2.5975732821,
				"z": -0.3883515163,
				"element": "C" 
			},
			{
				"x": -1.1180565011,
				"y": 1.9191706593,
				"z": -0.023851698,
				"element": "C" 
			},
			{
				"x": -1.205109869,
				"y": 0.5710687205,
				"z": 0.3432105876,
				"element": "N" 
			},
			{
				"x": -0.2107312658,
				"y": -0.2860168861,
				"z": 0.7308072629,
				"element": "C" 
			},
			{
				"x": 1.0521526423,
				"y": -0.0170160174,
				"z": 0.8404274395,
				"element": "N" 
			},
			{
				"x": 1.7627087795,
				"y": -1.1323825034,
				"z": 1.2591907021,
				"element": "C" 
			},
			{
				"x": 0.9988218764,
				"y": -2.3047478131,
				"z": 1.4775150633,
				"element": "C" 
			},
			{
				"x": -0.6948124486,
				"y": -1.9675445755,
				"z": 1.1337139346,
				"element": "S" 
			},
			{
				"x": 1.5853846851,
				"y": -3.4961151839,
				"z": 1.8994272494,
				"element": "C" 
			},
			{
				"x": 2.9653133925,
				"y": -3.5123451368,
				"z": 2.1066003043,
				"element": "C" 
			},
			{
				"x": 3.7357811925,
				"y": -2.3596206316,
				"z": 1.8948108425,
				"element": "C" 
			},
			{
				"x": 3.1464314815,
				"y": -1.1708267821,
				"z": 1.4731960388,
				"element": "C" 
			},
			{
				"x": 0.0862042963,
				"y": 2.643801416,
				"z": -0.0514587636,
				"element": "C" 
			},
			{
				"x": 0.0922784822,
				"y": 3.9847493591,
				"z": -0.4284344918,
				"element": "C" 
			},
			{
				"x": -1.0866211772,
				"y": 4.638674918,
				"z": -0.7856000906,
				"element": "C" 
			},
			{
				"x": -2.290988165,
				"y": 3.9357127214,
				"z": -0.7641046335,
				"element": "C" 
			},
			{
				"x": -2.1398291973,
				"y": 0.187453938,
				"z": 0.3141038409,
				"element": "H" 
			},
			{
				"x": 0.9894444573,
				"y": -4.3882426241,
				"z": 2.063377217,
				"element": "H" 
			},
			{
				"x": 3.4442312988,
				"y": -4.4295275921,
				"z": 2.4354411768,
				"element": "H" 
			},
			{
				"x": 4.8081337326,
				"y": -2.3947725303,
				"z": 2.0621742869,
				"element": "H" 
			},
			{
				"x": 3.7334235277,
				"y": -0.2736107211,
				"z": 1.3064753774,
				"element": "H" 
			},
			{
				"x": 0.9979862095,
				"y": 2.1332413465,
				"z": 0.2260868029,
				"element": "H" 
			},
			{
				"x": 1.0365879516,
				"y": 4.5206612701,
				"z": -0.4409571086,
				"element": "H" 
			},
			{
				"x": -1.076702268,
				"y": 5.6834745329,
				"z": -1.0785547569,
				"element": "H" 
			},
			{
				"x": -3.2247088731,
				"y": 4.415305272,
				"z": -1.0361739617,
				"element": "H" 
			}
		],
		 "valence_orbital": [ 
			{
				"type": "occ",
				"energy": -0.2794,
				"method": "rhf"
			},
			{
				"type": "occ",
				"energy": -0.25617,
				"method": "rhf"
			},
			{
				"type": "occ",
				"energy": -0.251,
				"method": "rhf"
			},
			{
				"type": "occ",
				"energy": -0.23504,
				"method": "rhf"
			},
			{
				"type": "occ",
				"energy": -0.20701,
				"method": "rhf"
			},
			{
				"type": "unocc",
				"energy": -0.03223,
				"method": "rhf"
			},
			{
				"type": "unocc",
				"energy": -0.01348,
				"method": "rhf"
			},
			{
				"type": "unocc",
				"energy": -0.0077,
				"method": "rhf"
			},
			{
				"type": "unocc",
				"energy": -0.00478,
				"method": "rhf"
			},
			{
				"type": "unocc",
				"energy": 0.0082,
				"method": "rhf"
			}
		],
		"cosmo_sigma_profile": { 
			"-0.025": 0.0,
			"-0.024": 0.0,
			"-0.023": 0.0,
			"-0.022": 0.0,
			"-0.021": 0.0,
			"-0.02": 0.0,
			"-0.019": 0.0,
			"-0.018": 0.0,
			"-0.017": 0.0,
			"-0.016": 0.0,
			"-0.015": 0.0,
			"-0.014": 0.652253393842,
			"-0.013": 0.979748802188,
			"-0.012": 0.795214919907,
			"-0.011": 1.02463394203,
			"-0.01": 0.779732746127,
			"-0.009": 0.911255369081,
			"-0.008": 1.79350003801,
			"-0.007": 6.08088402561,
			"-0.006": 13.7371150564,
			"-0.005": 16.2695107172,
			"-0.004": 18.1422152102,
			"-0.003": 16.0078537663,
			"-0.002": 15.2515677372,
			"-0.001": 17.6137952127,
			"0.0": 23.7257788922,
			"0.001": 25.4346808706,
			"0.002": 28.5469590477,
			"0.003": 30.8667579477,
			"0.004": 31.3577730613,
			"0.005": 17.1064864725,
			"0.006": 4.17077043042,
			"0.007": 2.18355619827,
			"0.008": 1.61532041256,
			"0.009": 0.527313492837,
			"0.01": 0.0,
			"0.011": 0.0,
			"0.012": 0.0,
			"0.013": 0.0,
			"0.014": 0.0,
			"0.015": 0.0,
			"0.016": 0.0,
			"0.017": 0.0,
			"0.018": 0.0,
			"0.019": 0.0,
			"0.02": 0.0,
			"0.021": 0.0,
			"0.022": 0.0,
			"0.023": 0.0,
			"0.024": 0.0,
			"0.025": 0.0
		}
	}
}
