{
	 "smiles": "CC1=NN(CCO)C2=C1C(=CC(=N2)C1CC1)C(O)=O", 
	 "Tm": 458.15, 
	 "num_atms": 34, 
	 "gaussian": { 
		 "optdone": 1, 
		 "sigma_profile": "yes", 
		 "theory": "DFT", 
		 "functional": "B3LYP", 
		 "basiset": "6-31G**", 
		 "properties": { 
			 "R2extent": 5832.6236, 
			 "electric_dipole_moment_norm": 4.97252964798, 
			 "electric_quadrupole_moment_norm": 9.22658733227, 
			 "total_energy": -894.332658831, 
			 "HOMO_LUMO_gap": 0.1517, 
			 "cosmo_polarized_energy": -13.82, 
			 "cosmo_cavitation_energy": 37.16, 
			 "cosmo_dispersion_energy": -26.91, 
			 "cosmo_repulsion_energy": 2.09, 
			 "cosmo_total_nonelectrostatic_energy": 12.34, 
			 "SMD_solvation_energy": 4.69 
		},
		"coords": [
			{
				"x": 2.4459448346,
				"y": 2.2417228943,
				"z": 1.4495024226,
				"element": "C" 
			},
			{
				"x": 1.3110132808,
				"y": 1.6022079738,
				"z": 0.7111716493,
				"element": "C" 
			},
			{
				"x": 0.3722144403,
				"y": 2.3819006502,
				"z": 0.1855649996,
				"element": "N" 
			},
			{
				"x": -0.5519382817,
				"y": 1.5893756904,
				"z": -0.4248268167,
				"element": "N" 
			},
			{
				"x": -1.705728933,
				"y": 2.1687919267,
				"z": -1.1017227156,
				"element": "C" 
			},
			{
				"x": -2.4050855816,
				"y": 3.2209342854,
				"z": -0.2349332098,
				"element": "C" 
			},
			{
				"x": -1.6371348084,
				"y": 4.3931491285,
				"z": -0.0737679229,
				"element": "O" 
			},
			{
				"x": -0.2141660907,
				"y": 0.2772074944,
				"z": -0.3033999967,
				"element": "C" 
			},
			{
				"x": 1.0029376048,
				"y": 0.2259525454,
				"z": 0.4333356164,
				"element": "C" 
			},
			{
				"x": 1.5135411548,
				"y": -1.0768506334,
				"z": 0.6605268181,
				"element": "C" 
			},
			{
				"x": 0.7898991412,
				"y": -2.1510181479,
				"z": 0.1550790827,
				"element": "C" 
			},
			{
				"x": -0.4197973976,
				"y": -1.958399889,
				"z": -0.5648247851,
				"element": "C" 
			},
			{
				"x": -0.9230631393,
				"y": -0.7442851034,
				"z": -0.7965740375,
				"element": "N" 
			},
			{
				"x": -1.2035754773,
				"y": -3.0993355465,
				"z": -1.1076773208,
				"element": "C" 
			},
			{
				"x": -0.5259920979,
				"y": -4.346706647,
				"z": -1.6511254864,
				"element": "C" 
			},
			{
				"x": -1.2990080357,
				"y": -4.425104983,
				"z": -0.3704025551,
				"element": "C" 
			},
			{
				"x": 2.7796241853,
				"y": -1.3185616004,
				"z": 1.4108832593,
				"element": "C" 
			},
			{
				"x": 3.0853540574,
				"y": -2.6353209015,
				"z": 1.5176795962,
				"element": "O" 
			},
			{
				"x": 3.4898384453,
				"y": -0.4586070466,
				"z": 1.8901946517,
				"element": "O" 
			},
			{
				"x": 2.3077477092,
				"y": 3.3253312829,
				"z": 1.4364259078,
				"element": "H" 
			},
			{
				"x": 3.4081777715,
				"y": 1.99563146,
				"z": 0.994375144,
				"element": "H" 
			},
			{
				"x": 2.4955008346,
				"y": 1.8964038498,
				"z": 2.4849145036,
				"element": "H" 
			},
			{
				"x": -2.3727548092,
				"y": 1.33490029,
				"z": -1.3343731482,
				"element": "H" 
			},
			{
				"x": -1.3814973043,
				"y": 2.632741919,
				"z": -2.0407983671,
				"element": "H" 
			},
			{
				"x": -2.6761985426,
				"y": 2.7629656247,
				"z": 0.7312397454,
				"element": "H" 
			},
			{
				"x": -3.3364934471,
				"y": 3.5129326555,
				"z": -0.7330005603,
				"element": "H" 
			},
			{
				"x": -0.761915963,
				"y": 4.1007117822,
				"z": 0.2347099469,
				"element": "H" 
			},
			{
				"x": 1.1637068883,
				"y": -3.1534345264,
				"z": 0.3181915547,
				"element": "H" 
			},
			{
				"x": -2.0966591955,
				"y": -2.7671545574,
				"z": -1.6267686329,
				"element": "H" 
			},
			{
				"x": 0.5581458045,
				"y": -4.3902524849,
				"z": -1.6047577545,
				"element": "H" 
			},
			{
				"x": -0.9507406187,
				"y": -4.7916675206,
				"z": -2.545625214,
				"element": "H" 
			},
			{
				"x": -0.748889499,
				"y": -4.5228179944,
				"z": 0.5608563395,
				"element": "H" 
			},
			{
				"x": -2.2627311795,
				"y": -4.9248830947,
				"z": -0.3718163939,
				"element": "H" 
			},
			{
				"x": 3.9175242495,
				"y": -2.6716607761,
				"z": 2.0172436796,
				"element": "H" 
			}
		],
		 "valence_orbital": [ 
			{
				"type": "occ",
				"energy": -0.29107,
				"method": "rhf"
			},
			{
				"type": "occ",
				"energy": -0.27377,
				"method": "rhf"
			},
			{
				"type": "occ",
				"energy": -0.25549,
				"method": "rhf"
			},
			{
				"type": "occ",
				"energy": -0.24385,
				"method": "rhf"
			},
			{
				"type": "occ",
				"energy": -0.23042,
				"method": "rhf"
			},
			{
				"type": "unocc",
				"energy": -0.07872,
				"method": "rhf"
			},
			{
				"type": "unocc",
				"energy": -0.01023,
				"method": "rhf"
			},
			{
				"type": "unocc",
				"energy": 0.02687,
				"method": "rhf"
			},
			{
				"type": "unocc",
				"energy": 0.0538,
				"method": "rhf"
			},
			{
				"type": "unocc",
				"energy": 0.06783,
				"method": "rhf"
			}
		],
		"cosmo_sigma_profile": { 
			"-0.025": 0.0,
			"-0.024": 0.0,
			"-0.023": 0.0,
			"-0.022": 0.0,
			"-0.021": 0.0,
			"-0.02": 0.0,
			"-0.019": 0.203688946369,
			"-0.018": 0.802594833169,
			"-0.017": 1.26740269722,
			"-0.016": 0.594112093297,
			"-0.015": 0.592660860873,
			"-0.014": 0.733213346642,
			"-0.013": 0.546410835466,
			"-0.012": 0.712012525447,
			"-0.011": 0.760182572354,
			"-0.01": 0.6000780188,
			"-0.009": 0.598431163749,
			"-0.008": 0.847783610929,
			"-0.007": 3.6562590945,
			"-0.006": 8.7485808294,
			"-0.005": 18.2052412164,
			"-0.004": 26.0920619067,
			"-0.003": 25.4070907009,
			"-0.002": 23.1094466022,
			"-0.001": 28.0491899725,
			"0.0": 34.3540225723,
			"0.001": 29.3719956717,
			"0.002": 18.635507035,
			"0.003": 14.9435594672,
			"0.004": 10.7005249836,
			"0.005": 8.04203868796,
			"0.006": 7.52892631365,
			"0.007": 4.79357222336,
			"0.008": 4.98348859041,
			"0.009": 4.12088522383,
			"0.01": 4.48884281033,
			"0.011": 3.22788525168,
			"0.012": 2.11355041687,
			"0.013": 1.79475050926,
			"0.014": 2.20346271808,
			"0.015": 1.5771587928,
			"0.016": 0.0,
			"0.017": 0.0,
			"0.018": 0.0,
			"0.019": 0.0,
			"0.02": 0.0,
			"0.021": 0.0,
			"0.022": 0.0,
			"0.023": 0.0,
			"0.024": 0.0,
			"0.025": 0.0
		}
	}
}
