{
	 "smiles": "OC(=O)C1=CN(N=C1)C1=CC=CC=C1", 
	 "Tm": 451.15, 
	 "num_atms": 22, 
	 "gaussian": { 
		 "optdone": 1, 
		 "sigma_profile": "yes", 
		 "theory": "DFT", 
		 "functional": "B3LYP", 
		 "basiset": "6-31G**", 
		 "properties": { 
			 "R2extent": 4113.037, 
			 "electric_dipole_moment_norm": 6.09363656038, 
			 "electric_quadrupole_moment_norm": 21.9233499539, 
			 "total_energy": -645.819029394, 
			 "HOMO_LUMO_gap": 0.18904, 
			 "cosmo_polarized_energy": -19.27, 
			 "cosmo_cavitation_energy": 27.2, 
			 "cosmo_dispersion_energy": -20.2, 
			 "cosmo_repulsion_energy": 1.56, 
			 "cosmo_total_nonelectrostatic_energy": 8.56, 
			 "SMD_solvation_energy": 5.57 
		},
		"coords": [
			{
				"x": 4.9385755471,
				"y": 1.6637070075,
				"z": -0.1450316338,
				"element": "O" 
			},
			{
				"x": 4.0989559923,
				"y": 1.9391527134,
				"z": -1.1832593494,
				"element": "C" 
			},
			{
				"x": 4.5348995157,
				"y": 2.4503105716,
				"z": -2.1883683709,
				"element": "O" 
			},
			{
				"x": 2.6747155546,
				"y": 1.5906348508,
				"z": -1.0145371909,
				"element": "C" 
			},
			{
				"x": 1.9864494053,
				"y": 1.0097216826,
				"z": 0.0406542297,
				"element": "C" 
			},
			{
				"x": 0.682496214,
				"y": 0.9150284465,
				"z": -0.3348220051,
				"element": "N" 
			},
			{
				"x": 0.4839096055,
				"y": 1.4088336808,
				"z": -1.591301641,
				"element": "N" 
			},
			{
				"x": 1.6745313916,
				"y": 1.8124489032,
				"z": -1.9971004562,
				"element": "C" 
			},
			{
				"x": -0.4195045131,
				"y": 0.3888191681,
				"z": 0.4003899648,
				"element": "C" 
			},
			{
				"x": -0.2408726076,
				"y": -0.1250584926,
				"z": 1.6897774612,
				"element": "C" 
			},
			{
				"x": -1.3358463485,
				"y": -0.6338097343,
				"z": 2.3869907855,
				"element": "C" 
			},
			{
				"x": -2.6061963013,
				"y": -0.6345500797,
				"z": 1.8100938109,
				"element": "C" 
			},
			{
				"x": -2.7741979053,
				"y": -0.1197120266,
				"z": 0.5232993669,
				"element": "C" 
			},
			{
				"x": -1.6901344702,
				"y": 0.3921540463,
				"z": -0.1862262182,
				"element": "C" 
			},
			{
				"x": 4.4593283263,
				"y": 1.2592662916,
				"z": 0.5901815821,
				"element": "H" 
			},
			{
				"x": 2.3189083661,
				"y": 0.6647462093,
				"z": 1.007798355,
				"element": "H" 
			},
			{
				"x": 1.8090249067,
				"y": 2.2528862315,
				"z": -2.9748383627,
				"element": "H" 
			},
			{
				"x": 0.7362503218,
				"y": -0.1356910583,
				"z": 2.1595414981,
				"element": "H" 
			},
			{
				"x": -1.1890314602,
				"y": -1.0307522538,
				"z": 3.386895386,
				"element": "H" 
			},
			{
				"x": -3.4550898901,
				"y": -1.031934856,
				"z": 2.3575571468,
				"element": "H" 
			},
			{
				"x": -3.7574983719,
				"y": -0.1142891834,
				"z": 0.0626653767,
				"element": "H" 
			},
			{
				"x": -1.8066732786,
				"y": 0.7940878814,
				"z": -1.1842597357,
				"element": "H" 
			}
		],
		 "valence_orbital": [ 
			{
				"type": "occ",
				"energy": -0.30563,
				"method": "rhf"
			},
			{
				"type": "occ",
				"energy": -0.27863,
				"method": "rhf"
			},
			{
				"type": "occ",
				"energy": -0.27452,
				"method": "rhf"
			},
			{
				"type": "occ",
				"energy": -0.26926,
				"method": "rhf"
			},
			{
				"type": "occ",
				"energy": -0.24168,
				"method": "rhf"
			},
			{
				"type": "unocc",
				"energy": -0.05264,
				"method": "rhf"
			},
			{
				"type": "unocc",
				"energy": -0.02254,
				"method": "rhf"
			},
			{
				"type": "unocc",
				"energy": -0.01118,
				"method": "rhf"
			},
			{
				"type": "unocc",
				"energy": 0.02428,
				"method": "rhf"
			},
			{
				"type": "unocc",
				"energy": 0.04034,
				"method": "rhf"
			}
		],
		"cosmo_sigma_profile": { 
			"-0.025": 0.0,
			"-0.024": 0.0,
			"-0.023": 0.0,
			"-0.022": 0.0,
			"-0.021": 0.0,
			"-0.02": 0.175332522474,
			"-0.019": 1.44179911351,
			"-0.018": 1.00051470745,
			"-0.017": 1.12266613789,
			"-0.016": 1.16229609524,
			"-0.015": 1.21782111645,
			"-0.014": 1.43088218698,
			"-0.013": 1.65583208516,
			"-0.012": 2.14773502707,
			"-0.011": 2.01255306452,
			"-0.01": 2.13546295421,
			"-0.009": 2.49826798179,
			"-0.008": 2.61721646691,
			"-0.007": 5.15292828719,
			"-0.006": 11.0297588987,
			"-0.005": 11.8939788744,
			"-0.004": 12.2069560915,
			"-0.003": 12.2467567136,
			"-0.002": 12.2021698334,
			"-0.001": 12.7117669494,
			"0.0": 15.3020966201,
			"0.001": 16.5659287953,
			"0.002": 15.755699141,
			"0.003": 13.8280133885,
			"0.004": 14.9595974461,
			"0.005": 8.79138925938,
			"0.006": 3.80761114795,
			"0.007": 3.33365593953,
			"0.008": 4.47268970608,
			"0.009": 4.14023073045,
			"0.01": 6.22158969189,
			"0.011": 6.09088497811,
			"0.012": 5.83555504033,
			"0.013": 1.91401530804,
			"0.014": 0.232185792441,
			"0.015": 0.0,
			"0.016": 0.0,
			"0.017": 0.0,
			"0.018": 0.0,
			"0.019": 0.0,
			"0.02": 0.0,
			"0.021": 0.0,
			"0.022": 0.0,
			"0.023": 0.0,
			"0.024": 0.0,
			"0.025": 0.0
		}
	}
}
