{
	 "smiles": "NS(=O)(=O)C1=C(F)C=C(F)C=C1Br", 
	 "Tm": 398.65, 
	 "num_atms": 17, 
	 "gaussian": { 
		 "optdone": 1, 
		 "sigma_profile": "yes", 
		 "theory": "DFT", 
		 "functional": "B3LYP", 
		 "basiset": "6-31G**", 
		 "properties": { 
			 "R2extent": 3927.2568, 
			 "electric_dipole_moment_norm": 5.34956605623, 
			 "electric_quadrupole_moment_norm": 16.656982972, 
			 "total_energy": -3605.41570102, 
			 "HOMO_LUMO_gap": 0.21844, 
			 "cosmo_polarized_energy": -17.25, 
			 "cosmo_cavitation_energy": 25.8, 
			 "cosmo_dispersion_energy": -19.87, 
			 "cosmo_repulsion_energy": 1.46, 
			 "cosmo_total_nonelectrostatic_energy": 7.39, 
			 "SMD_solvation_energy": 4.04 
		},
		"coords": [
			{
				"x": -0.2569243213,
				"y": 0.4879539919,
				"z": -2.2847712431,
				"element": "N" 
			},
			{
				"x": 0.2803847322,
				"y": -1.08332304,
				"z": -2.1208280424,
				"element": "S" 
			},
			{
				"x": 1.2967520643,
				"y": -1.2538803504,
				"z": -3.1484300756,
				"element": "O" 
			},
			{
				"x": -0.8970949488,
				"y": -1.9366480582,
				"z": -2.0322396555,
				"element": "O" 
			},
			{
				"x": 1.1059490289,
				"y": -1.174340157,
				"z": -0.4915245382,
				"element": "C" 
			},
			{
				"x": 2.4480987344,
				"y": -1.5838140204,
				"z": -0.3856405209,
				"element": "C" 
			},
			{
				"x": 3.1668704146,
				"y": -1.8767038542,
				"z": -1.4696954997,
				"element": "F" 
			},
			{
				"x": 3.1027072538,
				"y": -1.7120580153,
				"z": 0.8355168486,
				"element": "C" 
			},
			{
				"x": 2.3917245164,
				"y": -1.4283339244,
				"z": 1.9892095101,
				"element": "C" 
			},
			{
				"x": 3.0005894199,
				"y": -1.5437923103,
				"z": 3.1768365071,
				"element": "F" 
			},
			{
				"x": 1.0616805626,
				"y": -1.0247909428,
				"z": 1.9561747967,
				"element": "C" 
			},
			{
				"x": 0.4356093839,
				"y": -0.9102266668,
				"z": 0.7188684494,
				"element": "C" 
			},
			{
				"x": -1.392928212,
				"y": -0.3535125144,
				"z": 0.7801593389,
				"element": "Br" 
			},
			{
				"x": -0.9433587298,
				"y": 0.7649873285,
				"z": -1.5899493676,
				"element": "H" 
			},
			{
				"x": 0.4986867843,
				"y": 1.1515432468,
				"z": -2.4186947777,
				"element": "H" 
			},
			{
				"x": 4.1368319334,
				"y": -2.0314978527,
				"z": 0.8671484721,
				"element": "H" 
			},
			{
				"x": 0.5337213832,
				"y": -0.81226286,
				"z": 2.8765597979,
				"element": "H" 
			}
		],
		 "valence_orbital": [ 
			{
				"type": "occ",
				"energy": -0.32019,
				"method": "rhf"
			},
			{
				"type": "occ",
				"energy": -0.31469,
				"method": "rhf"
			},
			{
				"type": "occ",
				"energy": -0.30277,
				"method": "rhf"
			},
			{
				"type": "occ",
				"energy": -0.27928,
				"method": "rhf"
			},
			{
				"type": "occ",
				"energy": -0.2771,
				"method": "rhf"
			},
			{
				"type": "unocc",
				"energy": -0.05866,
				"method": "rhf"
			},
			{
				"type": "unocc",
				"energy": -0.0418,
				"method": "rhf"
			},
			{
				"type": "unocc",
				"energy": -0.03659,
				"method": "rhf"
			},
			{
				"type": "unocc",
				"energy": 0.05334,
				"method": "rhf"
			},
			{
				"type": "unocc",
				"energy": 0.06271,
				"method": "rhf"
			}
		],
		"cosmo_sigma_profile": { 
			"-0.025": 0.0,
			"-0.024": 0.0,
			"-0.023": 0.0,
			"-0.022": 0.0,
			"-0.021": 0.0,
			"-0.02": 0.0,
			"-0.019": 0.0,
			"-0.018": 0.0,
			"-0.017": 0.0,
			"-0.016": 0.860049412441,
			"-0.015": 1.34736732358,
			"-0.014": 1.59276214017,
			"-0.013": 2.1206084236,
			"-0.012": 2.34333710036,
			"-0.011": 2.04157518855,
			"-0.01": 3.92638354577,
			"-0.009": 5.15888618981,
			"-0.008": 4.34227919369,
			"-0.007": 6.26947167093,
			"-0.006": 5.74725193229,
			"-0.005": 7.66519928219,
			"-0.004": 8.64258853064,
			"-0.003": 13.3697359975,
			"-0.002": 22.6949925414,
			"-0.001": 18.3492172064,
			"0.0": 11.6724133813,
			"0.001": 8.56162573606,
			"0.002": 14.7334942203,
			"0.003": 18.4228419556,
			"0.004": 5.18999059894,
			"0.005": 3.90856130653,
			"0.006": 5.00148590234,
			"0.007": 5.32457254502,
			"0.008": 5.02679998145,
			"0.009": 5.76706711259,
			"0.01": 12.5950702771,
			"0.011": 8.08105987946,
			"0.012": 0.107627937084,
			"0.013": 0.0,
			"0.014": 0.0,
			"0.015": 0.0,
			"0.016": 0.0,
			"0.017": 0.0,
			"0.018": 0.0,
			"0.019": 0.0,
			"0.02": 0.0,
			"0.021": 0.0,
			"0.022": 0.0,
			"0.023": 0.0,
			"0.024": 0.0,
			"0.025": 0.0
		}
	}
}
