{
	 "smiles": "CC1=CC=C(C=C1)C1(C)NC(=O)NC1=O", 
	 "Tm": 481.15, 
	 "num_atms": 27, 
	 "gaussian": { 
		 "optdone": 1, 
		 "sigma_profile": "yes", 
		 "theory": "DFT", 
		 "functional": "B3LYP", 
		 "basiset": "6-31G**", 
		 "properties": { 
			 "R2extent": 3489.2669, 
			 "electric_dipole_moment_norm": 2.79451468774, 
			 "electric_quadrupole_moment_norm": 9.42499079363, 
			 "total_energy": -686.405367538, 
			 "HOMO_LUMO_gap": 0.22088, 
			 "cosmo_polarized_energy": -16.06, 
			 "cosmo_cavitation_energy": 30.63, 
			 "cosmo_dispersion_energy": -21.83, 
			 "cosmo_repulsion_energy": 1.72, 
			 "cosmo_total_nonelectrostatic_energy": 10.52, 
			 "SMD_solvation_energy": 7.01 
		},
		"coords": [
			{
				"x": 3.0310889093,
				"y": -3.5586397847,
				"z": 1.793451808,
				"element": "C" 
			},
			{
				"x": 2.0400828368,
				"y": -2.5533002615,
				"z": 1.256469252,
				"element": "C" 
			},
			{
				"x": 1.2599769771,
				"y": -1.7690144782,
				"z": 2.1106017085,
				"element": "C" 
			},
			{
				"x": 0.3512473584,
				"y": -0.8337653083,
				"z": 1.6093045101,
				"element": "C" 
			},
			{
				"x": 0.1897282588,
				"y": -0.6641824183,
				"z": 0.232347965,
				"element": "C" 
			},
			{
				"x": 0.9751834351,
				"y": -1.4425517762,
				"z": -0.6327079432,
				"element": "C" 
			},
			{
				"x": 1.8831076921,
				"y": -2.3668895427,
				"z": -0.1254355877,
				"element": "C" 
			},
			{
				"x": -0.8261747852,
				"y": 0.330383982,
				"z": -0.342279569,
				"element": "C" 
			},
			{
				"x": -1.877518128,
				"y": -0.3789013468,
				"z": -1.2212077059,
				"element": "C" 
			},
			{
				"x": -1.4601484138,
				"y": 1.1582768196,
				"z": 0.6824264322,
				"element": "N" 
			},
			{
				"x": -1.2811378632,
				"y": 2.5073816112,
				"z": 0.5022444631,
				"element": "C" 
			},
			{
				"x": -1.7613329824,
				"y": 3.426071153,
				"z": 1.1318527405,
				"element": "O" 
			},
			{
				"x": -0.4030600882,
				"y": 2.6229629965,
				"z": -0.5958882724,
				"element": "N" 
			},
			{
				"x": -0.1060012501,
				"y": 1.4168899051,
				"z": -1.1892365342,
				"element": "C" 
			},
			{
				"x": 0.5618859635,
				"y": 1.2353776662,
				"z": -2.1851294543,
				"element": "O" 
			},
			{
				"x": 2.8532610623,
				"y": -4.5566217097,
				"z": 1.3772461946,
				"element": "H" 
			},
			{
				"x": 2.9735785637,
				"y": -3.6345082905,
				"z": 2.8827389947,
				"element": "H" 
			},
			{
				"x": 4.0593770389,
				"y": -3.2814419488,
				"z": 1.5327953078,
				"element": "H" 
			},
			{
				"x": 1.3637530808,
				"y": -1.8839124448,
				"z": 3.1867366963,
				"element": "H" 
			},
			{
				"x": -0.2248426749,
				"y": -0.2269569638,
				"z": 2.2996224417,
				"element": "H" 
			},
			{
				"x": 0.8978316861,
				"y": -1.2998408728,
				"z": -1.7050488383,
				"element": "H" 
			},
			{
				"x": 2.4845792971,
				"y": -2.9533715911,
				"z": -0.8160386289,
				"element": "H" 
			},
			{
				"x": -2.5971086861,
				"y": 0.343536172,
				"z": -1.618336736,
				"element": "H" 
			},
			{
				"x": -1.3938704223,
				"y": -0.8841808648,
				"z": -2.0592228312,
				"element": "H" 
			},
			{
				"x": -2.4147279577,
				"y": -1.1269341053,
				"z": -0.6302166737,
				"element": "H" 
			},
			{
				"x": -2.2116025188,
				"y": 0.83665588,
				"z": 1.2731794384,
				"element": "H" 
			},
			{
				"x": -0.0890563894,
				"y": 3.5183775226,
				"z": -0.9418691781,
				"element": "H" 
			}
		],
		 "valence_orbital": [ 
			{
				"type": "occ",
				"energy": -0.28905,
				"method": "rhf"
			},
			{
				"type": "occ",
				"energy": -0.27217,
				"method": "rhf"
			},
			{
				"type": "occ",
				"energy": -0.26452,
				"method": "rhf"
			},
			{
				"type": "occ",
				"energy": -0.25236,
				"method": "rhf"
			},
			{
				"type": "occ",
				"energy": -0.23989,
				"method": "rhf"
			},
			{
				"type": "unocc",
				"energy": -0.01901,
				"method": "rhf"
			},
			{
				"type": "unocc",
				"energy": -0.00545,
				"method": "rhf"
			},
			{
				"type": "unocc",
				"energy": 0.00404,
				"method": "rhf"
			},
			{
				"type": "unocc",
				"energy": 0.05907,
				"method": "rhf"
			},
			{
				"type": "unocc",
				"energy": 0.07317,
				"method": "rhf"
			}
		],
		"cosmo_sigma_profile": { 
			"-0.025": 0.0,
			"-0.024": 0.0,
			"-0.023": 0.0,
			"-0.022": 0.0,
			"-0.021": 0.0,
			"-0.02": 0.0,
			"-0.019": 0.0,
			"-0.018": 0.0,
			"-0.017": 0.406749810561,
			"-0.016": 1.53950538712,
			"-0.015": 1.8063303331,
			"-0.014": 2.3407485254,
			"-0.013": 1.51027616092,
			"-0.012": 2.03916634181,
			"-0.011": 1.96900417819,
			"-0.01": 1.91113684639,
			"-0.009": 1.88708451489,
			"-0.008": 2.41076870902,
			"-0.007": 2.75392107156,
			"-0.006": 5.19301038561,
			"-0.005": 15.5638522891,
			"-0.004": 20.8340475225,
			"-0.003": 21.816892374,
			"-0.002": 23.8512345088,
			"-0.001": 22.159739657,
			"0.0": 18.2573208369,
			"0.001": 13.3953608583,
			"0.002": 9.16332478401,
			"0.003": 10.1065961038,
			"0.004": 10.2079438741,
			"0.005": 9.80733540389,
			"0.006": 9.18035671385,
			"0.007": 2.85488520377,
			"0.008": 2.67697858293,
			"0.009": 2.57709493464,
			"0.01": 3.41503689023,
			"0.011": 5.83127928529,
			"0.012": 7.82948983215,
			"0.013": 6.43244309005,
			"0.014": 0.733652309181,
			"0.015": 0.0,
			"0.016": 0.0,
			"0.017": 0.0,
			"0.018": 0.0,
			"0.019": 0.0,
			"0.02": 0.0,
			"0.021": 0.0,
			"0.022": 0.0,
			"0.023": 0.0,
			"0.024": 0.0,
			"0.025": 0.0
		}
	}
}
