{
	 "smiles": "CCCCCCCCCC(N)=O", 
	 "Tm": 381.15, 
	 "num_atms": 33, 
	 "gaussian": { 
		 "optdone": 1, 
		 "sigma_profile": "yes", 
		 "theory": "DFT", 
		 "functional": "B3LYP", 
		 "basiset": "6-31G**", 
		 "properties": { 
			 "R2extent": 4490.4868, 
			 "electric_dipole_moment_norm": 3.49646896883, 
			 "electric_quadrupole_moment_norm": 22.190692418, 
			 "total_energy": -523.740103843, 
			 "HOMO_LUMO_gap": 0.27711, 
			 "cosmo_polarized_energy": -12.07, 
			 "cosmo_cavitation_energy": 34.02, 
			 "cosmo_dispersion_energy": -23.66, 
			 "cosmo_repulsion_energy": 1.96, 
			 "cosmo_total_nonelectrostatic_energy": 12.33, 
			 "SMD_solvation_energy": 5.69 
		},
		"coords": [
			{
				"x": -2.783305283,
				"y": 1.3707283162,
				"z": -3.1725884287,
				"element": "C" 
			},
			{
				"x": -2.1089598649,
				"y": 1.3654800468,
				"z": -1.7955128269,
				"element": "C" 
			},
			{
				"x": -0.5710964504,
				"y": 1.328237601,
				"z": -1.8422838497,
				"element": "C" 
			},
			{
				"x": 0.0500258619,
				"y": 0.0821694379,
				"z": -2.500493928,
				"element": "C" 
			},
			{
				"x": -0.2974880615,
				"y": -1.265620867,
				"z": -1.8405929824,
				"element": "C" 
			},
			{
				"x": 0.1229085702,
				"y": -1.4204622926,
				"z": -0.3680608052,
				"element": "C" 
			},
			{
				"x": 1.6396054154,
				"y": -1.3538495378,
				"z": -0.1309113607,
				"element": "C" 
			},
			{
				"x": 2.0768167697,
				"y": -1.6755146767,
				"z": 1.3058087938,
				"element": "C" 
			},
			{
				"x": 1.6017288018,
				"y": -0.6589440801,
				"z": 2.3511916738,
				"element": "C" 
			},
			{
				"x": 2.2723729294,
				"y": -0.8736592894,
				"z": 3.7088340415,
				"element": "C" 
			},
			{
				"x": 1.5170882028,
				"y": -0.5151935422,
				"z": 4.7924707438,
				"element": "N" 
			},
			{
				"x": 3.4062527458,
				"y": -1.3157349437,
				"z": 3.8279790703,
				"element": "O" 
			},
			{
				"x": -3.8704436177,
				"y": 1.4629935198,
				"z": -3.0789619509,
				"element": "H" 
			},
			{
				"x": -2.4300262815,
				"y": 2.2111305632,
				"z": -3.7816939986,
				"element": "H" 
			},
			{
				"x": -2.5802389888,
				"y": 0.4510774078,
				"z": -3.7310866152,
				"element": "H" 
			},
			{
				"x": -2.4851472517,
				"y": 0.5169780369,
				"z": -1.2093201827,
				"element": "H" 
			},
			{
				"x": -2.4146627013,
				"y": 2.2652636486,
				"z": -1.2460457009,
				"element": "H" 
			},
			{
				"x": -0.1857011725,
				"y": 1.4300700775,
				"z": -0.8193005937,
				"element": "H" 
			},
			{
				"x": -0.2151786409,
				"y": 2.2161589566,
				"z": -2.3828704333,
				"element": "H" 
			},
			{
				"x": -0.254777438,
				"y": 0.0376753766,
				"z": -3.5537015933,
				"element": "H" 
			},
			{
				"x": 1.1398089332,
				"y": 0.2089001826,
				"z": -2.5179053837,
				"element": "H" 
			},
			{
				"x": 0.1740113829,
				"y": -2.0668585671,
				"z": -2.4260209621,
				"element": "H" 
			},
			{
				"x": -1.3785722841,
				"y": -1.4396804747,
				"z": -1.9167926693,
				"element": "H" 
			},
			{
				"x": -0.384831921,
				"y": -0.6608776679,
				"z": 0.2405182302,
				"element": "H" 
			},
			{
				"x": -0.2458527008,
				"y": -2.3895923051,
				"z": -0.0039023913,
				"element": "H" 
			},
			{
				"x": 2.1320233783,
				"y": -2.0630557753,
				"z": -0.8102558056,
				"element": "H" 
			},
			{
				"x": 2.0194052371,
				"y": -0.3601593757,
				"z": -0.4052615742,
				"element": "H" 
			},
			{
				"x": 1.716416297,
				"y": -2.6744536582,
				"z": 1.5857558967,
				"element": "H" 
			},
			{
				"x": 3.1686108772,
				"y": -1.7202857181,
				"z": 1.3638198624,
				"element": "H" 
			},
			{
				"x": 0.5110085356,
				"y": -0.673473994,
				"z": 2.4608408319,
				"element": "H" 
			},
			{
				"x": 1.8667893559,
				"y": 0.3564638341,
				"z": 2.0216066202,
				"element": "H" 
			},
			{
				"x": 1.9442498452,
				"y": -0.5637297107,
				"z": 5.7050480272,
				"element": "H" 
			},
			{
				"x": 0.6021595191,
				"y": -0.1052805291,
				"z": 4.7027902446,
				"element": "H" 
			}
		],
		 "valence_orbital": [ 
			{
				"type": "occ",
				"energy": -0.30841,
				"method": "rhf"
			},
			{
				"type": "occ",
				"energy": -0.30314,
				"method": "rhf"
			},
			{
				"type": "occ",
				"energy": -0.30048,
				"method": "rhf"
			},
			{
				"type": "occ",
				"energy": -0.26337,
				"method": "rhf"
			},
			{
				"type": "occ",
				"energy": -0.24296,
				"method": "rhf"
			},
			{
				"type": "unocc",
				"energy": 0.03415,
				"method": "rhf"
			},
			{
				"type": "unocc",
				"energy": 0.06971,
				"method": "rhf"
			},
			{
				"type": "unocc",
				"energy": 0.07667,
				"method": "rhf"
			},
			{
				"type": "unocc",
				"energy": 0.09996,
				"method": "rhf"
			},
			{
				"type": "unocc",
				"energy": 0.10964,
				"method": "rhf"
			}
		],
		"cosmo_sigma_profile": { 
			"-0.025": 0.0,
			"-0.024": 0.0,
			"-0.023": 0.0,
			"-0.022": 0.0,
			"-0.021": 0.0,
			"-0.02": 0.0,
			"-0.019": 0.0,
			"-0.018": 0.0,
			"-0.017": 0.0,
			"-0.016": 0.0,
			"-0.015": 0.00664540782873,
			"-0.014": 1.03180859486,
			"-0.013": 2.16263142965,
			"-0.012": 2.82668962823,
			"-0.011": 1.95759159771,
			"-0.01": 2.60989201637,
			"-0.009": 2.70970187595,
			"-0.008": 1.89466036537,
			"-0.007": 2.00566036874,
			"-0.006": 2.11351945465,
			"-0.005": 3.28304313136,
			"-0.004": 5.57965473315,
			"-0.003": 8.41353267926,
			"-0.002": 33.4429994958,
			"-0.001": 50.4412986178,
			"0.0": 48.2606341809,
			"0.001": 41.387490684,
			"0.002": 18.9026085134,
			"0.003": 4.63782302529,
			"0.004": 2.14625733639,
			"0.005": 2.72362198982,
			"0.006": 2.24018289343,
			"0.007": 1.42713685211,
			"0.008": 1.77459511578,
			"0.009": 1.94669261016,
			"0.01": 1.29473641587,
			"0.011": 1.26122380307,
			"0.012": 1.62005735835,
			"0.013": 2.41667699897,
			"0.014": 6.05886977597,
			"0.015": 2.55079656078,
			"0.016": 0.00766513500531,
			"0.017": 0.0,
			"0.018": 0.0,
			"0.019": 0.0,
			"0.02": 0.0,
			"0.021": 0.0,
			"0.022": 0.0,
			"0.023": 0.0,
			"0.024": 0.0,
			"0.025": 0.0
		}
	}
}
