{
	 "smiles": "COC(=O)C(Cl)C1=CC(Cl)=CC(Cl)=C1", 
	 "Tm": 330.15, 
	 "num_atms": 21, 
	 "gaussian": { 
		 "optdone": 1, 
		 "sigma_profile": "yes", 
		 "theory": "DFT", 
		 "functional": "B3LYP", 
		 "basiset": "6-31G**", 
		 "properties": { 
			 "R2extent": 4792.0958, 
			 "electric_dipole_moment_norm": 1.61724292857, 
			 "electric_quadrupole_moment_norm": 10.3151249134, 
			 "total_energy": -1878.20446622, 
			 "HOMO_LUMO_gap": 0.2013, 
			 "cosmo_polarized_energy": -8.97, 
			 "cosmo_cavitation_energy": 31.63, 
			 "cosmo_dispersion_energy": -22.37, 
			 "cosmo_repulsion_energy": 1.82, 
			 "cosmo_total_nonelectrostatic_energy": 11.08, 
			 "SMD_solvation_energy": 6.07 
		},
		"coords": [
			{
				"x": -3.0068644592,
				"y": 0.8935301294,
				"z": 1.8522071394,
				"element": "C" 
			},
			{
				"x": -2.1553045731,
				"y": 1.1162087461,
				"z": 0.7105456895,
				"element": "O" 
			},
			{
				"x": -0.9802988923,
				"y": 1.7020382445,
				"z": 0.9766239672,
				"element": "C" 
			},
			{
				"x": -0.6057045811,
				"y": 2.0327466772,
				"z": 2.0785407946,
				"element": "O" 
			},
			{
				"x": -0.1047697647,
				"y": 1.8800467165,
				"z": -0.2678088061,
				"element": "C" 
			},
			{
				"x": -1.0312752216,
				"y": 2.7400026876,
				"z": -1.5880402694,
				"element": "Cl" 
			},
			{
				"x": 0.490216165,
				"y": 0.5780614655,
				"z": -0.7602117923,
				"element": "C" 
			},
			{
				"x": 1.8795748185,
				"y": 0.4225538753,
				"z": -0.7329996256,
				"element": "C" 
			},
			{
				"x": 2.4418814821,
				"y": -0.7788780258,
				"z": -1.164216203,
				"element": "C" 
			},
			{
				"x": 4.1840648266,
				"y": -0.9717756125,
				"z": -1.130030132,
				"element": "Cl" 
			},
			{
				"x": 1.6528374321,
				"y": -1.829276759,
				"z": -1.625793787,
				"element": "C" 
			},
			{
				"x": 0.2684963906,
				"y": -1.6485946177,
				"z": -1.6454544083,
				"element": "C" 
			},
			{
				"x": -0.7454830012,
				"y": -2.958570815,
				"z": -2.22235365,
				"element": "Cl" 
			},
			{
				"x": -0.3249147235,
				"y": -0.4646963888,
				"z": -1.2198084027,
				"element": "C" 
			},
			{
				"x": -3.9081020562,
				"y": 0.4277990212,
				"z": 1.456040145,
				"element": "H" 
			},
			{
				"x": -2.5142655708,
				"y": 0.2355706122,
				"z": 2.5717422685,
				"element": "H" 
			},
			{
				"x": -3.2436980222,
				"y": 1.8425584577,
				"z": 2.3379675584,
				"element": "H" 
			},
			{
				"x": 0.6886607925,
				"y": 2.5646274606,
				"z": 0.0263652945,
				"element": "H" 
			},
			{
				"x": 2.520662878,
				"y": 1.2234795117,
				"z": -0.3820902156,
				"element": "H" 
			},
			{
				"x": 2.0988634969,
				"y": -2.7571872156,
				"z": -1.9612569316,
				"element": "H" 
			},
			{
				"x": -1.4009774164,
				"y": -0.3486441711,
				"z": -1.2467686336,
				"element": "H" 
			}
		],
		 "valence_orbital": [ 
			{
				"type": "occ",
				"energy": -0.31862,
				"method": "rhf"
			},
			{
				"type": "occ",
				"energy": -0.31176,
				"method": "rhf"
			},
			{
				"type": "occ",
				"energy": -0.28926,
				"method": "rhf"
			},
			{
				"type": "occ",
				"energy": -0.27133,
				"method": "rhf"
			},
			{
				"type": "occ",
				"energy": -0.26206,
				"method": "rhf"
			},
			{
				"type": "unocc",
				"energy": -0.06076,
				"method": "rhf"
			},
			{
				"type": "unocc",
				"energy": -0.03554,
				"method": "rhf"
			},
			{
				"type": "unocc",
				"energy": -0.00987,
				"method": "rhf"
			},
			{
				"type": "unocc",
				"energy": -0.00132,
				"method": "rhf"
			},
			{
				"type": "unocc",
				"energy": 0.03004,
				"method": "rhf"
			}
		],
		"cosmo_sigma_profile": { 
			"-0.025": 0.0,
			"-0.024": 0.0,
			"-0.023": 0.0,
			"-0.022": 0.0,
			"-0.021": 0.0,
			"-0.02": 0.0,
			"-0.019": 0.0,
			"-0.018": 0.0,
			"-0.017": 0.0,
			"-0.016": 0.0,
			"-0.015": 0.0,
			"-0.014": 0.0,
			"-0.013": 0.0,
			"-0.012": 0.0371453511856,
			"-0.011": 1.09411079721,
			"-0.01": 2.31666084081,
			"-0.009": 3.59244300187,
			"-0.008": 3.61402134517,
			"-0.007": 6.84599255128,
			"-0.006": 11.4960610224,
			"-0.005": 12.968474551,
			"-0.004": 17.1855356043,
			"-0.003": 14.541290459,
			"-0.002": 15.7878802475,
			"-0.001": 18.8437076589,
			"0.0": 31.1671875571,
			"0.001": 27.1637451764,
			"0.002": 16.4599924628,
			"0.003": 22.8816074201,
			"0.004": 26.1290205336,
			"0.005": 9.49982599197,
			"0.006": 3.97541149105,
			"0.007": 2.28943697119,
			"0.008": 2.33217269932,
			"0.009": 1.98646881211,
			"0.01": 3.44226752857,
			"0.011": 3.86636533508,
			"0.012": 0.406618030085,
			"0.013": 0.0,
			"0.014": 0.0,
			"0.015": 0.0,
			"0.016": 0.0,
			"0.017": 0.0,
			"0.018": 0.0,
			"0.019": 0.0,
			"0.02": 0.0,
			"0.021": 0.0,
			"0.022": 0.0,
			"0.023": 0.0,
			"0.024": 0.0,
			"0.025": 0.0
		}
	}
}
