{
	 "smiles": "O=C(NC1=CNN=C1)OC1=CC=CC=C1", 
	 "Tm": 453.15, 
	 "num_atms": 24, 
	 "gaussian": { 
		 "optdone": 1, 
		 "sigma_profile": "yes", 
		 "theory": "DFT", 
		 "functional": "B3LYP", 
		 "basiset": "6-31G**", 
		 "properties": { 
			 "R2extent": 4674.737, 
			 "electric_dipole_moment_norm": 0.927385664112, 
			 "electric_quadrupole_moment_norm": 11.583167237, 
			 "total_energy": -701.179382466, 
			 "HOMO_LUMO_gap": 0.21211, 
			 "cosmo_polarized_energy": -15.53, 
			 "cosmo_cavitation_energy": 29.49, 
			 "cosmo_dispersion_energy": -22.02, 
			 "cosmo_repulsion_energy": 1.72, 
			 "cosmo_total_nonelectrostatic_energy": 9.19, 
			 "SMD_solvation_energy": 5.6 
		},
		"coords": [
			{
				"x": 0.7089424374,
				"y": -0.5806797716,
				"z": -1.3209368148,
				"element": "O" 
			},
			{
				"x": -0.0202373543,
				"y": 0.0624169724,
				"z": -0.5943036223,
				"element": "C" 
			},
			{
				"x": -1.0913457462,
				"y": 0.8093950624,
				"z": -0.9899882452,
				"element": "N" 
			},
			{
				"x": -1.515791129,
				"y": 0.9433654907,
				"z": -2.3183746566,
				"element": "C" 
			},
			{
				"x": -0.9841249524,
				"y": 0.3753378767,
				"z": -3.4643995953,
				"element": "C" 
			},
			{
				"x": -1.7679800674,
				"y": 0.8275676287,
				"z": -4.4827655432,
				"element": "N" 
			},
			{
				"x": -2.7620808669,
				"y": 1.6405344583,
				"z": -4.0861427768,
				"element": "N" 
			},
			{
				"x": -2.6149322809,
				"y": 1.7167924495,
				"z": -2.7639833859,
				"element": "C" 
			},
			{
				"x": 0.0869960034,
				"y": 0.1636658543,
				"z": 0.7726644642,
				"element": "O" 
			},
			{
				"x": 1.1120392232,
				"y": -0.4921334738,
				"z": 1.4534619021,
				"element": "C" 
			},
			{
				"x": 2.4389098887,
				"y": -0.4771329796,
				"z": 1.022407869,
				"element": "C" 
			},
			{
				"x": 3.4073581436,
				"y": -1.096093729,
				"z": 1.8143986593,
				"element": "C" 
			},
			{
				"x": 3.0607834162,
				"y": -1.7104182572,
				"z": 3.019414747,
				"element": "C" 
			},
			{
				"x": 1.7288348014,
				"y": -1.7083370709,
				"z": 3.4379010276,
				"element": "C" 
			},
			{
				"x": 0.7482645317,
				"y": -1.1009269785,
				"z": 2.6537506261,
				"element": "C" 
			},
			{
				"x": -1.6112090992,
				"y": 1.2860158382,
				"z": -0.2686058377,
				"element": "H" 
			},
			{
				"x": -0.1446420817,
				"y": -0.2843945008,
				"z": -3.6017387739,
				"element": "H" 
			},
			{
				"x": -1.6725034163,
				"y": 0.6148875441,
				"z": -5.463094996,
				"element": "H" 
			},
			{
				"x": -3.2951182976,
				"y": 2.3185283882,
				"z": -2.1754318118,
				"element": "H" 
			},
			{
				"x": 2.7025797599,
				"y": -0.0066935306,
				"z": 0.08441233,
				"element": "H" 
			},
			{
				"x": 4.4418307618,
				"y": -1.0931018944,
				"z": 1.4835263768,
				"element": "H" 
			},
			{
				"x": 3.8235526172,
				"y": -2.1864110714,
				"z": 3.6280992298,
				"element": "H" 
			},
			{
				"x": 1.4483204981,
				"y": -2.181500483,
				"z": 4.3743129791,
				"element": "H" 
			},
			{
				"x": -0.2931467907,
				"y": -1.0874838226,
				"z": 2.9580158484,
				"element": "H" 
			}
		],
		 "valence_orbital": [ 
			{
				"type": "occ",
				"energy": -0.28617,
				"method": "rhf"
			},
			{
				"type": "occ",
				"energy": -0.25662,
				"method": "rhf"
			},
			{
				"type": "occ",
				"energy": -0.2532,
				"method": "rhf"
			},
			{
				"type": "occ",
				"energy": -0.24195,
				"method": "rhf"
			},
			{
				"type": "occ",
				"energy": -0.21638,
				"method": "rhf"
			},
			{
				"type": "unocc",
				"energy": -0.00427,
				"method": "rhf"
			},
			{
				"type": "unocc",
				"energy": -0.00406,
				"method": "rhf"
			},
			{
				"type": "unocc",
				"energy": 0.01712,
				"method": "rhf"
			},
			{
				"type": "unocc",
				"energy": 0.03685,
				"method": "rhf"
			},
			{
				"type": "unocc",
				"energy": 0.0775,
				"method": "rhf"
			}
		],
		"cosmo_sigma_profile": { 
			"-0.025": 0.0,
			"-0.024": 0.0,
			"-0.023": 0.0,
			"-0.022": 0.0,
			"-0.021": 0.0,
			"-0.02": 0.0,
			"-0.019": 0.0,
			"-0.018": 0.0,
			"-0.017": 0.5779841554,
			"-0.016": 2.40553184139,
			"-0.015": 1.96788058628,
			"-0.014": 2.25203684176,
			"-0.013": 2.17528290954,
			"-0.012": 1.67353700012,
			"-0.011": 1.92880153822,
			"-0.01": 2.91466608207,
			"-0.009": 2.07661111233,
			"-0.008": 4.10166328419,
			"-0.007": 4.57119652152,
			"-0.006": 11.9597715476,
			"-0.005": 14.5638179748,
			"-0.004": 13.8536392816,
			"-0.003": 12.8043489774,
			"-0.002": 12.4550744724,
			"-0.001": 13.8277846555,
			"0.0": 11.5567558606,
			"0.001": 14.3478081887,
			"0.002": 16.7593981164,
			"0.003": 20.2629894556,
			"0.004": 20.7745422263,
			"0.005": 15.0962043421,
			"0.006": 6.8594883173,
			"0.007": 3.88904861861,
			"0.008": 3.44332442429,
			"0.009": 3.04548954253,
			"0.01": 3.10866266413,
			"0.011": 4.03974439526,
			"0.012": 3.22895504446,
			"0.013": 1.62288622102,
			"0.014": 1.05396008834,
			"0.015": 1.07825733457,
			"0.016": 0.63526491066,
			"0.017": 0.0,
			"0.018": 0.0,
			"0.019": 0.0,
			"0.02": 0.0,
			"0.021": 0.0,
			"0.022": 0.0,
			"0.023": 0.0,
			"0.024": 0.0,
			"0.025": 0.0
		}
	}
}
