{
	 "smiles": "CC1=C(C)C=C(N)C(N)=C1", 
	 "Tm": 401.15, 
	 "num_atms": 22, 
	 "gaussian": { 
		 "optdone": 1, 
		 "sigma_profile": "yes", 
		 "theory": "DFT", 
		 "functional": "B3LYP", 
		 "basiset": "6-31G**", 
		 "properties": { 
			 "R2extent": 2079.2413, 
			 "electric_dipole_moment_norm": 2.1289221827, 
			 "electric_quadrupole_moment_norm": 11.5192025002, 
			 "total_energy": -421.600354454, 
			 "HOMO_LUMO_gap": 0.19811, 
			 "cosmo_polarized_energy": -10.66, 
			 "cosmo_cavitation_energy": 24.44, 
			 "cosmo_dispersion_energy": -18.13, 
			 "cosmo_repulsion_energy": 1.48, 
			 "cosmo_total_nonelectrostatic_energy": 7.79, 
			 "SMD_solvation_energy": 4.19 
		},
		"coords": [
			{
				"x": -1.6860935607,
				"y": -1.9526116655,
				"z": 1.1121049248,
				"element": "C" 
			},
			{
				"x": -1.0932441342,
				"y": -1.1823233585,
				"z": -0.0446843383,
				"element": "C" 
			},
			{
				"x": -0.4513362965,
				"y": 0.0549722442,
				"z": 0.1633983946,
				"element": "C" 
			},
			{
				"x": -0.3295214075,
				"y": 0.6535512929,
				"z": 1.5449439146,
				"element": "C" 
			},
			{
				"x": 0.0603974259,
				"y": 0.7325810331,
				"z": -0.9484535766,
				"element": "C" 
			},
			{
				"x": -0.0207556171,
				"y": 0.2219581532,
				"z": -2.245049773,
				"element": "C" 
			},
			{
				"x": 0.5129977216,
				"y": 0.9063419914,
				"z": -3.3795510124,
				"element": "N" 
			},
			{
				"x": -0.6233650672,
				"y": -1.0375046122,
				"z": -2.4473134925,
				"element": "C" 
			},
			{
				"x": -0.6252824631,
				"y": -1.6216910316,
				"z": -3.7145429351,
				"element": "N" 
			},
			{
				"x": -1.1633040749,
				"y": -1.7037724091,
				"z": -1.3392432363,
				"element": "C" 
			},
			{
				"x": -2.1322033315,
				"y": -2.8922282169,
				"z": 0.774748709,
				"element": "H" 
			},
			{
				"x": -2.4681491315,
				"y": -1.3791091953,
				"z": 1.625648116,
				"element": "H" 
			},
			{
				"x": -0.9298966677,
				"y": -2.1967503737,
				"z": 1.8686331679,
				"element": "H" 
			},
			{
				"x": 0.1810190114,
				"y": 1.6203378786,
				"z": 1.5115343337,
				"element": "H" 
			},
			{
				"x": 0.2384060642,
				"y": 0.0050115381,
				"z": 2.2243872377,
				"element": "H" 
			},
			{
				"x": -1.3094342287,
				"y": 0.8134809672,
				"z": 2.0126892151,
				"element": "H" 
			},
			{
				"x": 0.5292623084,
				"y": 1.7051064192,
				"z": -0.8038465423,
				"element": "H" 
			},
			{
				"x": -0.226524499,
				"y": 1.2418882789,
				"z": -3.994301487,
				"element": "H" 
			},
			{
				"x": 1.0637700787,
				"y": 1.7104633644,
				"z": -3.0982818763,
				"element": "H" 
			},
			{
				"x": -1.4344815925,
				"y": -2.1685333242,
				"z": -3.9660112718,
				"element": "H" 
			},
			{
				"x": -0.2603119892,
				"y": -1.0446667884,
				"z": -4.4567710946,
				"element": "H" 
			},
			{
				"x": -1.6267485487,
				"y": -2.6759021857,
				"z": -1.4955373775,
				"element": "H" 
			}
		],
		 "valence_orbital": [ 
			{
				"type": "occ",
				"energy": -0.32521,
				"method": "rhf"
			},
			{
				"type": "occ",
				"energy": -0.2872,
				"method": "rhf"
			},
			{
				"type": "occ",
				"energy": -0.27257,
				"method": "rhf"
			},
			{
				"type": "occ",
				"energy": -0.21213,
				"method": "rhf"
			},
			{
				"type": "occ",
				"energy": -0.17538,
				"method": "rhf"
			},
			{
				"type": "unocc",
				"energy": 0.02273,
				"method": "rhf"
			},
			{
				"type": "unocc",
				"energy": 0.03112,
				"method": "rhf"
			},
			{
				"type": "unocc",
				"energy": 0.07705,
				"method": "rhf"
			},
			{
				"type": "unocc",
				"energy": 0.10329,
				"method": "rhf"
			},
			{
				"type": "unocc",
				"energy": 0.10941,
				"method": "rhf"
			}
		],
		"cosmo_sigma_profile": { 
			"-0.025": 0.0,
			"-0.024": 0.0,
			"-0.023": 0.0,
			"-0.022": 0.0,
			"-0.021": 0.0,
			"-0.02": 0.0,
			"-0.019": 0.0,
			"-0.018": 0.0,
			"-0.017": 0.0,
			"-0.016": 0.0,
			"-0.015": 0.0,
			"-0.014": 0.0,
			"-0.013": 0.0,
			"-0.012": 0.865941143221,
			"-0.011": 2.98041011058,
			"-0.01": 5.00134375358,
			"-0.009": 4.65376279787,
			"-0.008": 5.60622268182,
			"-0.007": 5.35768568885,
			"-0.006": 4.70596438971,
			"-0.005": 5.69871171653,
			"-0.004": 9.23236795581,
			"-0.003": 17.5903565454,
			"-0.002": 16.7735507978,
			"-0.001": 15.7860968449,
			"0.0": 15.2444698648,
			"0.001": 18.1647582634,
			"0.002": 9.50750995076,
			"0.003": 6.70588749964,
			"0.004": 6.34611477004,
			"0.005": 5.65791968964,
			"0.006": 6.76932908716,
			"0.007": 8.5252862972,
			"0.008": 8.33618762646,
			"0.009": 3.13906183257,
			"0.01": 1.72637521142,
			"0.011": 1.27877849707,
			"0.012": 0.919312266399,
			"0.013": 1.60588788932,
			"0.014": 1.5096761244,
			"0.015": 0.868594173437,
			"0.016": 0.315831197461,
			"0.017": 0.0244148687738,
			"0.018": 0.0,
			"0.019": 0.0,
			"0.02": 0.0,
			"0.021": 0.0,
			"0.022": 0.0,
			"0.023": 0.0,
			"0.024": 0.0,
			"0.025": 0.0
		}
	}
}
