{
	 "smiles": "COC1=CC=C(C=C1)C1(C)C=C(C)N=N1", 
	 "Tm": 343.15, 
	 "num_atms": 29, 
	 "gaussian": { 
		 "optdone": 1, 
		 "sigma_profile": "yes", 
		 "theory": "DFT", 
		 "functional": "B3LYP", 
		 "basiset": "6-31G**", 
		 "properties": { 
			 "R2extent": 4255.4796, 
			 "electric_dipole_moment_norm": 2.14209674852, 
			 "electric_quadrupole_moment_norm": 16.4107832948, 
			 "total_energy": -650.374407539, 
			 "HOMO_LUMO_gap": 0.16236, 
			 "cosmo_polarized_energy": -11.26, 
			 "cosmo_cavitation_energy": 32.38, 
			 "cosmo_dispersion_energy": -23.1, 
			 "cosmo_repulsion_energy": 1.82, 
			 "cosmo_total_nonelectrostatic_energy": 11.1, 
			 "SMD_solvation_energy": 3.9 
		},
		"coords": [
			{
				"x": 2.3780679756,
				"y": -4.0807772629,
				"z": -2.1910179229,
				"element": "C" 
			},
			{
				"x": 1.1495943566,
				"y": -3.3928768241,
				"z": -2.3641550641,
				"element": "O" 
			},
			{
				"x": 1.0263502702,
				"y": -2.1475036264,
				"z": -1.8187786172,
				"element": "C" 
			},
			{
				"x": 2.0271184643,
				"y": -1.4862627299,
				"z": -1.1000625536,
				"element": "C" 
			},
			{
				"x": 1.7872134704,
				"y": -0.2081238782,
				"z": -0.5859508829,
				"element": "C" 
			},
			{
				"x": 0.5575374366,
				"y": 0.4295615518,
				"z": -0.7704992384,
				"element": "C" 
			},
			{
				"x": -0.4359338376,
				"y": -0.2475146192,
				"z": -1.4974911242,
				"element": "C" 
			},
			{
				"x": -0.210282848,
				"y": -1.5151956507,
				"z": -2.0164689362,
				"element": "C" 
			},
			{
				"x": 0.2976178426,
				"y": 1.8421312485,
				"z": -0.2397293713,
				"element": "C" 
			},
			{
				"x": 0.4488618516,
				"y": 2.8937086488,
				"z": -1.3675575507,
				"element": "C" 
			},
			{
				"x": -0.9957405387,
				"y": 1.9826097598,
				"z": 0.5121649005,
				"element": "C" 
			},
			{
				"x": -0.690961034,
				"y": 2.3720891675,
				"z": 1.7591612614,
				"element": "C" 
			},
			{
				"x": -1.5352526228,
				"y": 2.679237805,
				"z": 2.9507005655,
				"element": "C" 
			},
			{
				"x": 0.7432453772,
				"y": 2.48970916,
				"z": 1.8829608641,
				"element": "N" 
			},
			{
				"x": 1.3100909538,
				"y": 2.191439934,
				"z": 0.802338067,
				"element": "N" 
			},
			{
				"x": 3.2157448412,
				"y": -3.5360711174,
				"z": -2.6456045323,
				"element": "H" 
			},
			{
				"x": 2.5992941646,
				"y": -4.2551938326,
				"z": -1.130079607,
				"element": "H" 
			},
			{
				"x": 2.2598423583,
				"y": -5.0412764024,
				"z": -2.6950764893,
				"element": "H" 
			},
			{
				"x": 2.9928817771,
				"y": -1.9482551886,
				"z": -0.9322654974,
				"element": "H" 
			},
			{
				"x": 2.5688251494,
				"y": 0.2984518554,
				"z": -0.0317631698,
				"element": "H" 
			},
			{
				"x": -1.4019957613,
				"y": 0.2205125682,
				"z": -1.665873444,
				"element": "H" 
			},
			{
				"x": -0.9777121079,
				"y": -2.0391706033,
				"z": -2.5768560169,
				"element": "H" 
			},
			{
				"x": 1.4545023515,
				"y": 2.8358937129,
				"z": -1.7904821926,
				"element": "H" 
			},
			{
				"x": -0.2754649038,
				"y": 2.695074508,
				"z": -2.1622447683,
				"element": "H" 
			},
			{
				"x": 0.2820941731,
				"y": 3.9030486825,
				"z": -0.9799332514,
				"element": "H" 
			},
			{
				"x": -1.982116772,
				"y": 1.8093766051,
				"z": 0.1039632887,
				"element": "H" 
			},
			{
				"x": -1.3708390048,
				"y": 3.7090231693,
				"z": 3.2871553799,
				"element": "H" 
			},
			{
				"x": -2.5972252007,
				"y": 2.5505351291,
				"z": 2.7289545315,
				"element": "H" 
			},
			{
				"x": -1.2719581826,
				"y": 2.0248182299,
				"z": 3.7891913719,
				"element": "H" 
			}
		],
		 "valence_orbital": [ 
			{
				"type": "occ",
				"energy": -0.31162,
				"method": "rhf"
			},
			{
				"type": "occ",
				"energy": -0.25632,
				"method": "rhf"
			},
			{
				"type": "occ",
				"energy": -0.24903,
				"method": "rhf"
			},
			{
				"type": "occ",
				"energy": -0.2322,
				"method": "rhf"
			},
			{
				"type": "occ",
				"energy": -0.21556,
				"method": "rhf"
			},
			{
				"type": "unocc",
				"energy": -0.0532,
				"method": "rhf"
			},
			{
				"type": "unocc",
				"energy": -0.00274,
				"method": "rhf"
			},
			{
				"type": "unocc",
				"energy": 0.01092,
				"method": "rhf"
			},
			{
				"type": "unocc",
				"energy": 0.05024,
				"method": "rhf"
			},
			{
				"type": "unocc",
				"energy": 0.08994,
				"method": "rhf"
			}
		],
		"cosmo_sigma_profile": { 
			"-0.025": 0.0,
			"-0.024": 0.0,
			"-0.023": 0.0,
			"-0.022": 0.0,
			"-0.021": 0.0,
			"-0.02": 0.0,
			"-0.019": 0.0,
			"-0.018": 0.0,
			"-0.017": 0.0,
			"-0.016": 0.0,
			"-0.015": 0.0,
			"-0.014": 0.0,
			"-0.013": 0.0,
			"-0.012": 0.0,
			"-0.011": 0.0,
			"-0.01": 0.0,
			"-0.009": 0.0266996624553,
			"-0.008": 2.3766386998,
			"-0.007": 3.66830523103,
			"-0.006": 9.6045111357,
			"-0.005": 23.863475282,
			"-0.004": 26.2520708945,
			"-0.003": 27.3920076414,
			"-0.002": 20.6229361956,
			"-0.001": 23.2119317405,
			"0.0": 23.0168559237,
			"0.001": 15.1951370595,
			"0.002": 11.7546114097,
			"0.003": 14.4631967544,
			"0.004": 12.9916739517,
			"0.005": 13.33997827,
			"0.006": 6.20033883211,
			"0.007": 3.13173650782,
			"0.008": 2.78930166135,
			"0.009": 3.16070208291,
			"0.01": 3.08472652786,
			"0.011": 3.58159702997,
			"0.012": 2.67343115509,
			"0.013": 1.77978770434,
			"0.014": 1.81724078621,
			"0.015": 0.603090087569,
			"0.016": 0.0532958177567,
			"0.017": 0.0,
			"0.018": 0.0,
			"0.019": 0.0,
			"0.02": 0.0,
			"0.021": 0.0,
			"0.022": 0.0,
			"0.023": 0.0,
			"0.024": 0.0,
			"0.025": 0.0
		}
	}
}
