{
	 "smiles": "CC1(C)C=[N+]([O-])C(C)(C)N1O", 
	 "Tm": 435.15, 
	 "num_atms": 25, 
	 "gaussian": { 
		 "optdone": 1, 
		 "sigma_profile": "yes", 
		 "theory": "DFT", 
		 "functional": "B3LYP", 
		 "basiset": "6-31G**", 
		 "properties": { 
			 "R2extent": 1987.7242, 
			 "electric_dipole_moment_norm": 3.55299325358, 
			 "electric_quadrupole_moment_norm": 13.358738327, 
			 "total_energy": -535.010821011, 
			 "HOMO_LUMO_gap": 0.20149, 
			 "cosmo_polarized_energy": -12.71, 
			 "cosmo_cavitation_energy": 26.27, 
			 "cosmo_dispersion_energy": -18.38, 
			 "cosmo_repulsion_energy": 1.46, 
			 "cosmo_total_nonelectrostatic_energy": 9.35, 
			 "SMD_solvation_energy": 5.79 
		},
		"coords": [
			{
				"x": 0.8904622544,
				"y": -0.1927703677,
				"z": -2.018245734,
				"element": "C" 
			},
			{
				"x": 1.2680492229,
				"y": -1.0673834442,
				"z": -0.802201325,
				"element": "C" 
			},
			{
				"x": 2.7762451482,
				"y": -1.3744119066,
				"z": -0.833234216,
				"element": "C" 
			},
			{
				"x": 0.4295733864,
				"y": -2.3114515732,
				"z": -0.7369160941,
				"element": "C" 
			},
			{
				"x": -0.4599627279,
				"y": -2.2736197922,
				"z": 0.217687306,
				"element": "N" 
			},
			{
				"x": -1.3414495422,
				"y": -3.1237331746,
				"z": 0.5309361606,
				"element": "O" 
			},
			{
				"x": -0.3676181877,
				"y": -0.9811059161,
				"z": 1.0045629871,
				"element": "C" 
			},
			{
				"x": -1.6025261205,
				"y": -0.1368896868,
				"z": 0.6769737168,
				"element": "C" 
			},
			{
				"x": -0.2987946902,
				"y": -1.3218003176,
				"z": 2.49093151,
				"element": "C" 
			},
			{
				"x": 0.9323847936,
				"y": -0.4595838989,
				"z": 0.5259095313,
				"element": "N" 
			},
			{
				"x": 0.9018146176,
				"y": 0.9698699338,
				"z": 0.4551900735,
				"element": "O" 
			},
			{
				"x": 1.4457104957,
				"y": 0.7474746096,
				"z": -2.0000904254,
				"element": "H" 
			},
			{
				"x": 1.1380093785,
				"y": -0.7269087555,
				"z": -2.9410547293,
				"element": "H" 
			},
			{
				"x": -0.1764205399,
				"y": 0.0389993518,
				"z": -2.0375238795,
				"element": "H" 
			},
			{
				"x": 3.053440863,
				"y": -1.8931752526,
				"z": -1.75708342,
				"element": "H" 
			},
			{
				"x": 3.3472252102,
				"y": -0.4411583341,
				"z": -0.7867589624,
				"element": "H" 
			},
			{
				"x": 3.0576968941,
				"y": -1.9967977888,
				"z": 0.0195815542,
				"element": "H" 
			},
			{
				"x": 0.4804354428,
				"y": -3.1675037131,
				"z": -1.3961640854,
				"element": "H" 
			},
			{
				"x": -1.5948139908,
				"y": 0.7835255246,
				"z": 1.2626057375,
				"element": "H" 
			},
			{
				"x": -2.4914123172,
				"y": -0.7214307216,
				"z": 0.9255357542,
				"element": "H" 
			},
			{
				"x": -1.6420060117,
				"y": 0.1293249876,
				"z": -0.3810210448,
				"element": "H" 
			},
			{
				"x": -0.2312694447,
				"y": -0.3972168071,
				"z": 3.0717689711,
				"element": "H" 
			},
			{
				"x": -1.1921893764,
				"y": -1.8730964595,
				"z": 2.7903754826,
				"element": "H" 
			},
			{
				"x": 0.5853793566,
				"y": -1.9295188783,
				"z": 2.6974329708,
				"element": "H" 
			},
			{
				"x": 1.5976358851,
				"y": 1.2236623811,
				"z": 1.0762021602,
				"element": "H" 
			}
		],
		 "valence_orbital": [ 
			{
				"type": "occ",
				"energy": -0.3484,
				"method": "rhf"
			},
			{
				"type": "occ",
				"energy": -0.29759,
				"method": "rhf"
			},
			{
				"type": "occ",
				"energy": -0.24278,
				"method": "rhf"
			},
			{
				"type": "occ",
				"energy": -0.23081,
				"method": "rhf"
			},
			{
				"type": "occ",
				"energy": -0.2125,
				"method": "rhf"
			},
			{
				"type": "unocc",
				"energy": -0.01101,
				"method": "rhf"
			},
			{
				"type": "unocc",
				"energy": 0.0548,
				"method": "rhf"
			},
			{
				"type": "unocc",
				"energy": 0.09071,
				"method": "rhf"
			},
			{
				"type": "unocc",
				"energy": 0.09638,
				"method": "rhf"
			},
			{
				"type": "unocc",
				"energy": 0.11226,
				"method": "rhf"
			}
		],
		"cosmo_sigma_profile": { 
			"-0.025": 0.0,
			"-0.024": 0.0,
			"-0.023": 0.0,
			"-0.022": 0.0,
			"-0.021": 0.0,
			"-0.02": 0.0,
			"-0.019": 0.0,
			"-0.018": 0.0,
			"-0.017": 0.144053017527,
			"-0.016": 0.798931165771,
			"-0.015": 1.01192618807,
			"-0.014": 0.856984109166,
			"-0.013": 0.918752166137,
			"-0.012": 0.333659905037,
			"-0.011": 0.620693411996,
			"-0.01": 0.730908091018,
			"-0.009": 1.36810595451,
			"-0.008": 2.58091124258,
			"-0.007": 2.59066962634,
			"-0.006": 4.04876183459,
			"-0.005": 7.35753885999,
			"-0.004": 17.8125158221,
			"-0.003": 20.7863306493,
			"-0.002": 23.2257955217,
			"-0.001": 26.4770468272,
			"0.0": 27.5877097552,
			"0.001": 15.4331947531,
			"0.002": 6.18430909474,
			"0.003": 3.90161112259,
			"0.004": 4.31340014451,
			"0.005": 3.84146310494,
			"0.006": 3.04628635116,
			"0.007": 4.30974079793,
			"0.008": 2.88112988139,
			"0.009": 3.07839963498,
			"0.01": 1.90200321537,
			"0.011": 2.20510818888,
			"0.012": 2.24507418017,
			"0.013": 4.82452114189,
			"0.014": 4.39278989458,
			"0.015": 1.68724611307,
			"0.016": 0.0491791744112,
			"0.017": 0.0,
			"0.018": 0.0,
			"0.019": 0.0,
			"0.02": 0.0,
			"0.021": 0.0,
			"0.022": 0.0,
			"0.023": 0.0,
			"0.024": 0.0,
			"0.025": 0.0
		}
	}
}
