{
	 "smiles": "CN1N=C(C)C(OCC(O)=O)=C1C", 
	 "Tm": 446.15, 
	 "num_atms": 25, 
	 "gaussian": { 
		 "optdone": 1, 
		 "sigma_profile": "yes", 
		 "theory": "DFT", 
		 "functional": "B3LYP", 
		 "basiset": "6-31G**", 
		 "properties": { 
			 "R2extent": 3319.1426, 
			 "electric_dipole_moment_norm": 5.39309164395, 
			 "electric_quadrupole_moment_norm": 27.8247994153, 
			 "total_energy": -647.240911206, 
			 "HOMO_LUMO_gap": 0.24587, 
			 "cosmo_polarized_energy": -15.49, 
			 "cosmo_cavitation_energy": 29.52, 
			 "cosmo_dispersion_energy": -20.53, 
			 "cosmo_repulsion_energy": 1.67, 
			 "cosmo_total_nonelectrostatic_energy": 10.66, 
			 "SMD_solvation_energy": 5.95 
		},
		"coords": [
			{
				"x": 2.529852886,
				"y": -0.0150180222,
				"z": -2.2182957006,
				"element": "C" 
			},
			{
				"x": 1.4429468951,
				"y": -0.0730993648,
				"z": -1.26076763,
				"element": "N" 
			},
			{
				"x": 1.4739786271,
				"y": -1.0047984631,
				"z": -0.2740272275,
				"element": "N" 
			},
			{
				"x": 0.370728836,
				"y": -0.8044805559,
				"z": 0.4477972553,
				"element": "C" 
			},
			{
				"x": 0.0597167521,
				"y": -1.6447714156,
				"z": 1.6471359566,
				"element": "C" 
			},
			{
				"x": -0.3673361707,
				"y": 0.2735962488,
				"z": -0.0976533712,
				"element": "C" 
			},
			{
				"x": -1.5354772401,
				"y": 0.8270015239,
				"z": 0.3882916978,
				"element": "O" 
			},
			{
				"x": -2.7419940927,
				"y": 0.1382315942,
				"z": 0.0467006805,
				"element": "C" 
			},
			{
				"x": -3.9079146131,
				"y": 0.7855152333,
				"z": 0.7935335441,
				"element": "C" 
			},
			{
				"x": -3.5601584762,
				"y": 1.7535801628,
				"z": 1.6580167517,
				"element": "O" 
			},
			{
				"x": -5.0485269922,
				"y": 0.4360986573,
				"z": 0.6175997651,
				"element": "O" 
			},
			{
				"x": 0.3435079553,
				"y": 0.7299727307,
				"z": -1.1974178539,
				"element": "C" 
			},
			{
				"x": 0.0599303482,
				"y": 1.8534126094,
				"z": -2.1381404657,
				"element": "C" 
			},
			{
				"x": 2.1658065623,
				"y": -0.1691559051,
				"z": -3.2394808694,
				"element": "H" 
			},
			{
				"x": 3.2243840263,
				"y": -0.8132911185,
				"z": -1.9591048876,
				"element": "H" 
			},
			{
				"x": 3.050339649,
				"y": 0.9473417961,
				"z": -2.1687896245,
				"element": "H" 
			},
			{
				"x": 0.9326744335,
				"y": -2.2452676247,
				"z": 1.9117785742,
				"element": "H" 
			},
			{
				"x": -0.7765938468,
				"y": -2.3301645945,
				"z": 1.4631236629,
				"element": "H" 
			},
			{
				"x": -0.2113542593,
				"y": -1.0230366529,
				"z": 2.506888972,
				"element": "H" 
			},
			{
				"x": -2.939959717,
				"y": 0.1905719457,
				"z": -1.0303432693,
				"element": "H" 
			},
			{
				"x": -2.6921566984,
				"y": -0.9194648502,
				"z": 0.3321682295,
				"element": "H" 
			},
			{
				"x": -2.5905752107,
				"y": 1.8516326039,
				"z": 1.613041899,
				"element": "H" 
			},
			{
				"x": 0.8689731447,
				"y": 2.5931883944,
				"z": -2.1494234407,
				"element": "H" 
			},
			{
				"x": -0.8537252132,
				"y": 2.3628285234,
				"z": -1.8232440178,
				"element": "H" 
			},
			{
				"x": -0.0827675856,
				"y": 1.5054765437,
				"z": -3.1681886303,
				"element": "H" 
			}
		],
		 "valence_orbital": [ 
			{
				"type": "occ",
				"energy": -0.3059,
				"method": "rhf"
			},
			{
				"type": "occ",
				"energy": -0.27871,
				"method": "rhf"
			},
			{
				"type": "occ",
				"energy": -0.27131,
				"method": "rhf"
			},
			{
				"type": "occ",
				"energy": -0.24349,
				"method": "rhf"
			},
			{
				"type": "occ",
				"energy": -0.23566,
				"method": "rhf"
			},
			{
				"type": "unocc",
				"energy": 0.01021,
				"method": "rhf"
			},
			{
				"type": "unocc",
				"energy": 0.01527,
				"method": "rhf"
			},
			{
				"type": "unocc",
				"energy": 0.06161,
				"method": "rhf"
			},
			{
				"type": "unocc",
				"energy": 0.06331,
				"method": "rhf"
			},
			{
				"type": "unocc",
				"energy": 0.08217,
				"method": "rhf"
			}
		],
		"cosmo_sigma_profile": { 
			"-0.025": 0.0,
			"-0.024": 0.0,
			"-0.023": 0.0,
			"-0.022": 0.0,
			"-0.021": 0.0,
			"-0.02": 0.0,
			"-0.019": 0.0,
			"-0.018": 0.0,
			"-0.017": 0.0,
			"-0.016": 0.0,
			"-0.015": 0.123547389601,
			"-0.014": 0.580010562488,
			"-0.013": 0.406255907213,
			"-0.012": 0.185997224985,
			"-0.011": 0.661643010585,
			"-0.01": 0.602143253332,
			"-0.009": 0.655235032445,
			"-0.008": 2.31303397175,
			"-0.007": 7.36838485113,
			"-0.006": 13.802295651,
			"-0.005": 23.1947739679,
			"-0.004": 22.7477366415,
			"-0.003": 24.2240786309,
			"-0.002": 20.7426024085,
			"-0.001": 17.8657720485,
			"0.0": 15.1631911501,
			"0.001": 9.41829904696,
			"0.002": 7.56975282986,
			"0.003": 8.3745949839,
			"0.004": 9.43479772093,
			"0.005": 5.653478355,
			"0.006": 4.58059941995,
			"0.007": 4.10996529802,
			"0.008": 4.35547030352,
			"0.009": 4.96912867004,
			"0.01": 6.36790389287,
			"0.011": 5.91113831458,
			"0.012": 6.7612327156,
			"0.013": 2.05431330392,
			"0.014": 1.2384936864,
			"0.015": 1.01116751801,
			"0.016": 0.463999951134,
			"0.017": 0.0420661924177,
			"0.018": 0.0,
			"0.019": 0.0,
			"0.02": 0.0,
			"0.021": 0.0,
			"0.022": 0.0,
			"0.023": 0.0,
			"0.024": 0.0,
			"0.025": 0.0
		}
	}
}
