{
	 "smiles": "NC1=C(Cl)C(Cl)=CC(Cl)=C1Cl", 
	 "Tm": 380.15, 
	 "num_atms": 14, 
	 "gaussian": { 
		 "optdone": 1, 
		 "sigma_profile": "yes", 
		 "theory": "DFT", 
		 "functional": "B3LYP", 
		 "basiset": "6-31G**", 
		 "properties": { 
			 "R2extent": 3345.013, 
			 "electric_dipole_moment_norm": 2.06270294759, 
			 "electric_quadrupole_moment_norm": 13.1430493014, 
			 "total_energy": -2125.96328578, 
			 "HOMO_LUMO_gap": 0.1939, 
			 "cosmo_polarized_energy": -6.11, 
			 "cosmo_cavitation_energy": 24.98, 
			 "cosmo_dispersion_energy": -19.46, 
			 "cosmo_repulsion_energy": 1.56, 
			 "cosmo_total_nonelectrostatic_energy": 7.08, 
			 "SMD_solvation_energy": 3.16 
		},
		"coords": [
			{
				"x": -2.8703530123,
				"y": -0.3414945873,
				"z": 0.3069598102,
				"element": "N" 
			},
			{
				"x": -1.557396043,
				"y": -0.4312121328,
				"z": -0.074527108,
				"element": "C" 
			},
			{
				"x": -0.8406182539,
				"y": 0.7105429777,
				"z": -0.5048519188,
				"element": "C" 
			},
			{
				"x": -1.6968827498,
				"y": 2.2323498543,
				"z": -0.6031060464,
				"element": "Cl" 
			},
			{
				"x": 0.5112886711,
				"y": 0.6193482141,
				"z": -0.8423278974,
				"element": "C" 
			},
			{
				"x": 1.401446255,
				"y": 2.0232094714,
				"z": -1.3720844239,
				"element": "Cl" 
			},
			{
				"x": 1.1862605971,
				"y": -0.596920468,
				"z": -0.7671734728,
				"element": "C" 
			},
			{
				"x": 0.4930312173,
				"y": -1.7317229927,
				"z": -0.3521908794,
				"element": "C" 
			},
			{
				"x": 1.360547295,
				"y": -3.2434023199,
				"z": -0.2741367904,
				"element": "Cl" 
			},
			{
				"x": -0.8590276827,
				"y": -1.6603387012,
				"z": -0.010589393,
				"element": "C" 
			},
			{
				"x": -1.7381361547,
				"y": -3.0817241603,
				"z": 0.5047442898,
				"element": "Cl" 
			},
			{
				"x": -3.394159452,
				"y": -1.2007034851,
				"z": 0.3678673239,
				"element": "H" 
			},
			{
				"x": -3.3811209739,
				"y": 0.4781913663,
				"z": 0.0179015823,
				"element": "H" 
			},
			{
				"x": 2.2341202868,
				"y": -0.6594230366,
				"z": -1.0279850759,
				"element": "H" 
			}
		],
		 "valence_orbital": [ 
			{
				"type": "occ",
				"energy": -0.32518,
				"method": "rhf"
			},
			{
				"type": "occ",
				"energy": -0.31703,
				"method": "rhf"
			},
			{
				"type": "occ",
				"energy": -0.30595,
				"method": "rhf"
			},
			{
				"type": "occ",
				"energy": -0.25182,
				"method": "rhf"
			},
			{
				"type": "occ",
				"energy": -0.23048,
				"method": "rhf"
			},
			{
				"type": "unocc",
				"energy": -0.03658,
				"method": "rhf"
			},
			{
				"type": "unocc",
				"energy": -0.02591,
				"method": "rhf"
			},
			{
				"type": "unocc",
				"energy": -0.02008,
				"method": "rhf"
			},
			{
				"type": "unocc",
				"energy": 0.01504,
				"method": "rhf"
			},
			{
				"type": "unocc",
				"energy": 0.03691,
				"method": "rhf"
			}
		],
		"cosmo_sigma_profile": { 
			"-0.025": 0.0,
			"-0.024": 0.0,
			"-0.023": 0.0,
			"-0.022": 0.0,
			"-0.021": 0.0,
			"-0.02": 0.0,
			"-0.019": 0.0,
			"-0.018": 0.0,
			"-0.017": 0.0,
			"-0.016": 0.0,
			"-0.015": 0.0,
			"-0.014": 0.253660210195,
			"-0.013": 1.14967712775,
			"-0.012": 2.03398925757,
			"-0.011": 2.56036160448,
			"-0.01": 1.7629388867,
			"-0.009": 2.20859319519,
			"-0.008": 3.04605599283,
			"-0.007": 3.43456695228,
			"-0.006": 3.53314316909,
			"-0.005": 3.84640086486,
			"-0.004": 4.84935614091,
			"-0.003": 10.7607610216,
			"-0.002": 10.4459467858,
			"-0.001": 19.826816178,
			"0.0": 35.38289841,
			"0.001": 25.3782588221,
			"0.002": 21.694576079,
			"0.003": 25.9759086389,
			"0.004": 24.8105522877,
			"0.005": 4.1301742785,
			"0.006": 0.868257174634,
			"0.007": 0.343633100056,
			"0.008": 0.509193886159,
			"0.009": 0.777327173006,
			"0.01": 0.181953574692,
			"0.011": 0.0,
			"0.012": 0.0,
			"0.013": 0.0,
			"0.014": 0.0,
			"0.015": 0.0,
			"0.016": 0.0,
			"0.017": 0.0,
			"0.018": 0.0,
			"0.019": 0.0,
			"0.02": 0.0,
			"0.021": 0.0,
			"0.022": 0.0,
			"0.023": 0.0,
			"0.024": 0.0,
			"0.025": 0.0
		}
	}
}
