{
	 "smiles": "CCCCCCCCCCCCCCCCCCC(O)=O", 
	 "Tm": 342.35, 
	 "num_atms": 59, 
	 "gaussian": { 
		 "optdone": 1, 
		 "sigma_profile": "yes", 
		 "theory": "DFT", 
		 "functional": "B3LYP", 
		 "basiset": "6-31G**", 
		 "properties": { 
			 "R2extent": 12781.3041, 
			 "electric_dipole_moment_norm": 4.38704670251, 
			 "electric_quadrupole_moment_norm": 36.9710211309, 
			 "total_energy": -897.430027313, 
			 "HOMO_LUMO_gap": 0.27484, 
			 "cosmo_polarized_energy": -13.19, 
			 "cosmo_cavitation_energy": 57.5, 
			 "cosmo_dispersion_energy": -35.34, 
			 "cosmo_repulsion_energy": 2.82, 
			 "cosmo_total_nonelectrostatic_energy": 24.98, 
			 "SMD_solvation_energy": 8.34 
		},
		"coords": [
			{
				"x": 1.8174968566,
				"y": -1.152693163,
				"z": -2.4131692836,
				"element": "C" 
			},
			{
				"x": 2.5429157557,
				"y": -0.1274724066,
				"z": -1.5356429015,
				"element": "C" 
			},
			{
				"x": 1.8300794657,
				"y": 1.2297618821,
				"z": -1.4722610199,
				"element": "C" 
			},
			{
				"x": 2.569029303,
				"y": 2.2608473058,
				"z": -0.6052380569,
				"element": "C" 
			},
			{
				"x": 1.9275190886,
				"y": 3.6641877473,
				"z": -0.5367905277,
				"element": "C" 
			},
			{
				"x": 0.9016748415,
				"y": 3.8914654406,
				"z": 0.5915806594,
				"element": "C" 
			},
			{
				"x": -0.4181671646,
				"y": 3.1027077464,
				"z": 0.5288774399,
				"element": "C" 
			},
			{
				"x": -1.293496561,
				"y": 3.4264601013,
				"z": -0.6913962266,
				"element": "C" 
			},
			{
				"x": -2.6965111924,
				"y": 2.7970132369,
				"z": -0.6564440686,
				"element": "C" 
			},
			{
				"x": -2.7190853717,
				"y": 1.2632947596,
				"z": -0.7386147211,
				"element": "C" 
			},
			{
				"x": -4.1442823323,
				"y": 0.6931750767,
				"z": -0.7596219041,
				"element": "C" 
			},
			{
				"x": -4.2697326254,
				"y": -0.8261788037,
				"z": -0.9739952138,
				"element": "C" 
			},
			{
				"x": -3.6726928235,
				"y": -1.7226907148,
				"z": 0.1342063888,
				"element": "C" 
			},
			{
				"x": -2.210681513,
				"y": -2.1459836476,
				"z": -0.0882101249,
				"element": "C" 
			},
			{
				"x": -1.6578987119,
				"y": -3.1063502443,
				"z": 0.9784129636,
				"element": "C" 
			},
			{
				"x": -1.486791182,
				"y": -2.4800395405,
				"z": 2.3719536103,
				"element": "C" 
			},
			{
				"x": -0.8146350718,
				"y": -3.3989890144,
				"z": 3.4063714436,
				"element": "C" 
			},
			{
				"x": -1.6281554971,
				"y": -4.651508893,
				"z": 3.8084884761,
				"element": "C" 
			},
			{
				"x": -2.9163612895,
				"y": -4.2700002744,
				"z": 4.5264982785,
				"element": "C" 
			},
			{
				"x": -4.0353810518,
				"y": -4.1732318126,
				"z": 3.7525838515,
				"element": "O" 
			},
			{
				"x": -2.9770175814,
				"y": -4.0140271201,
				"z": 5.7028925777,
				"element": "O" 
			},
			{
				"x": 0.8044752876,
				"y": -1.3469634416,
				"z": -2.0415126021,
				"element": "H" 
			},
			{
				"x": 1.7253953958,
				"y": -0.7961544789,
				"z": -3.4455241143,
				"element": "H" 
			},
			{
				"x": 2.351002565,
				"y": -2.1086920507,
				"z": -2.4388532817,
				"element": "H" 
			},
			{
				"x": 2.6503186556,
				"y": -0.5272839478,
				"z": -0.5178193806,
				"element": "H" 
			},
			{
				"x": 3.5649859044,
				"y": 0.018275196,
				"z": -1.911419436,
				"element": "H" 
			},
			{
				"x": 0.8082198065,
				"y": 1.0792240171,
				"z": -1.1026314667,
				"element": "H" 
			},
			{
				"x": 1.7260540377,
				"y": 1.6295242827,
				"z": -2.4914152626,
				"element": "H" 
			},
			{
				"x": 3.5877593352,
				"y": 2.3605740839,
				"z": -1.0036780961,
				"element": "H" 
			},
			{
				"x": 2.6884022703,
				"y": 1.865263099,
				"z": 0.4139526126,
				"element": "H" 
			},
			{
				"x": 1.4820994925,
				"y": 3.9101861117,
				"z": -1.5100278359,
				"element": "H" 
			},
			{
				"x": 2.7275915444,
				"y": 4.4003159057,
				"z": -0.3881590621,
				"element": "H" 
			},
			{
				"x": 1.3933659733,
				"y": 3.672335187,
				"z": 1.5494742068,
				"element": "H" 
			},
			{
				"x": 0.6587484827,
				"y": 4.9630419339,
				"z": 0.6186114291,
				"element": "H" 
			},
			{
				"x": -0.9919586465,
				"y": 3.33039633,
				"z": 1.4384301045,
				"element": "H" 
			},
			{
				"x": -0.209712759,
				"y": 2.0269951245,
				"z": 0.5726506377,
				"element": "H" 
			},
			{
				"x": -0.7843850718,
				"y": 3.1137664068,
				"z": -1.6127631434,
				"element": "H" 
			},
			{
				"x": -1.401666814,
				"y": 4.5177438402,
				"z": -0.7621554055,
				"element": "H" 
			},
			{
				"x": -3.2849839125,
				"y": 3.2011819556,
				"z": -1.4914938222,
				"element": "H" 
			},
			{
				"x": -3.2137541373,
				"y": 3.1170960693,
				"z": 0.2596825433,
				"element": "H" 
			},
			{
				"x": -2.1830993411,
				"y": 0.9420883753,
				"z": -1.6438638585,
				"element": "H" 
			},
			{
				"x": -2.1675082148,
				"y": 0.8439292578,
				"z": 0.1110114015,
				"element": "H" 
			},
			{
				"x": -4.7089514294,
				"y": 1.1965632642,
				"z": -1.556736808,
				"element": "H" 
			},
			{
				"x": -4.6498895261,
				"y": 0.961281385,
				"z": 0.1792402762,
				"element": "H" 
			},
			{
				"x": -3.8237244615,
				"y": -1.098058541,
				"z": -1.9413730291,
				"element": "H" 
			},
			{
				"x": -5.3388483721,
				"y": -1.0540932286,
				"z": -1.0660642488,
				"element": "H" 
			},
			{
				"x": -3.7812178225,
				"y": -1.2164137426,
				"z": 1.1023652344,
				"element": "H" 
			},
			{
				"x": -4.2755799926,
				"y": -2.6390169986,
				"z": 0.2081545926,
				"element": "H" 
			},
			{
				"x": -2.1387771363,
				"y": -2.6337724036,
				"z": -1.0695587439,
				"element": "H" 
			},
			{
				"x": -1.5617682596,
				"y": -1.2632193209,
				"z": -0.1423838878,
				"element": "H" 
			},
			{
				"x": -0.6835100318,
				"y": -3.4876706622,
				"z": 0.6439619614,
				"element": "H" 
			},
			{
				"x": -2.316405838,
				"y": -3.9875569296,
				"z": 1.0304165444,
				"element": "H" 
			},
			{
				"x": -2.456419517,
				"y": -2.143108787,
				"z": 2.7583679754,
				"element": "H" 
			},
			{
				"x": -0.8737587488,
				"y": -1.5749087694,
				"z": 2.2711070116,
				"element": "H" 
			},
			{
				"x": -0.6100676412,
				"y": -2.8286787388,
				"z": 4.3193517745,
				"element": "H" 
			},
			{
				"x": 0.1560549839,
				"y": -3.7345254557,
				"z": 3.0202939018,
				"element": "H" 
			},
			{
				"x": -1.041364709,
				"y": -5.2482546447,
				"z": 4.5113778718,
				"element": "H" 
			},
			{
				"x": -1.831849287,
				"y": -5.2799137761,
				"z": 2.9333366323,
				"element": "H" 
			},
			{
				"x": -3.8275974068,
				"y": -4.4058435698,
				"z": 2.8371651328,
				"element": "H" 
			}
		],
		 "valence_orbital": [ 
			{
				"type": "occ",
				"energy": -0.3065,
				"method": "rhf"
			},
			{
				"type": "occ",
				"energy": -0.30476,
				"method": "rhf"
			},
			{
				"type": "occ",
				"energy": -0.30069,
				"method": "rhf"
			},
			{
				"type": "occ",
				"energy": -0.29718,
				"method": "rhf"
			},
			{
				"type": "occ",
				"energy": -0.26492,
				"method": "rhf"
			},
			{
				"type": "unocc",
				"energy": 0.00992,
				"method": "rhf"
			},
			{
				"type": "unocc",
				"energy": 0.0364,
				"method": "rhf"
			},
			{
				"type": "unocc",
				"energy": 0.05857,
				"method": "rhf"
			},
			{
				"type": "unocc",
				"energy": 0.08544,
				"method": "rhf"
			},
			{
				"type": "unocc",
				"energy": 0.08845,
				"method": "rhf"
			}
		],
		"cosmo_sigma_profile": { 
			"-0.025": 0.0,
			"-0.024": 0.0,
			"-0.023": 0.0,
			"-0.022": 0.0,
			"-0.021": 0.0,
			"-0.02": 0.0,
			"-0.019": 0.0,
			"-0.018": 0.0,
			"-0.017": 0.0,
			"-0.016": 0.66398070617,
			"-0.015": 1.40079472149,
			"-0.014": 1.30764374644,
			"-0.013": 1.07739694722,
			"-0.012": 0.433050724009,
			"-0.011": 1.24015578577,
			"-0.01": 1.13045916844,
			"-0.009": 1.40510038494,
			"-0.008": 1.91796988902,
			"-0.007": 1.84754240932,
			"-0.006": 2.98445642286,
			"-0.005": 4.78451703918,
			"-0.004": 7.96834145457,
			"-0.003": 15.0366549932,
			"-0.002": 54.0054883828,
			"-0.001": 97.0969293533,
			"0.0": 106.35813119,
			"0.001": 73.550583291,
			"0.002": 30.6665827087,
			"0.003": 2.54501580847,
			"0.004": 1.45034620422,
			"0.005": 2.2481767204,
			"0.006": 2.23020422534,
			"0.007": 1.7404235911,
			"0.008": 2.54951950558,
			"0.009": 2.79884700107,
			"0.01": 4.28719259646,
			"0.011": 5.51798601305,
			"0.012": 5.65834158489,
			"0.013": 3.537808082,
			"0.014": 0.40645843701,
			"0.015": 0.0,
			"0.016": 0.0,
			"0.017": 0.0,
			"0.018": 0.0,
			"0.019": 0.0,
			"0.02": 0.0,
			"0.021": 0.0,
			"0.022": 0.0,
			"0.023": 0.0,
			"0.024": 0.0,
			"0.025": 0.0
		}
	}
}
