{
	 "smiles": "NC1=CC=C(C=C1)C(O)(C(F)(F)F)C(F)(F)F", 
	 "Tm": 423.15, 
	 "num_atms": 24, 
	 "gaussian": { 
		 "optdone": 1, 
		 "sigma_profile": "yes", 
		 "theory": "DFT", 
		 "functional": "B3LYP", 
		 "basiset": "6-31G**", 
		 "properties": { 
			 "R2extent": 6507.709, 
			 "electric_dipole_moment_norm": 2.92951247992, 
			 "electric_quadrupole_moment_norm": 9.41316087029, 
			 "total_energy": -1076.19868849, 
			 "HOMO_LUMO_gap": 0.20615, 
			 "cosmo_polarized_energy": -10.59, 
			 "cosmo_cavitation_energy": 29.77, 
			 "cosmo_dispersion_energy": -20.82, 
			 "cosmo_repulsion_energy": 1.51, 
			 "cosmo_total_nonelectrostatic_energy": 10.46, 
			 "SMD_solvation_energy": 7.2 
		},
		"coords": [
			{
				"x": 1.4832650561,
				"y": 2.3043515804,
				"z": 1.3599470672,
				"element": "N" 
			},
			{
				"x": 1.4221230824,
				"y": 1.1785951199,
				"z": 0.5454416148,
				"element": "C" 
			},
			{
				"x": 2.2863849083,
				"y": 1.0339846152,
				"z": -0.5535075902,
				"element": "C" 
			},
			{
				"x": 2.2599510009,
				"y": -0.1159482799,
				"z": -1.3340052062,
				"element": "C" 
			},
			{
				"x": 1.3723687754,
				"y": -1.159282957,
				"z": -1.0474423216,
				"element": "C" 
			},
			{
				"x": 0.5089664744,
				"y": -1.0191527723,
				"z": 0.0485160524,
				"element": "C" 
			},
			{
				"x": 0.531897145,
				"y": 0.1286590612,
				"z": 0.8317375745,
				"element": "C" 
			},
			{
				"x": 1.3610924731,
				"y": -2.4072785344,
				"z": -1.919971574,
				"element": "C" 
			},
			{
				"x": 2.3255937809,
				"y": -2.2698496677,
				"z": -2.9387325253,
				"element": "O" 
			},
			{
				"x": -0.0155406119,
				"y": -2.5935217419,
				"z": -2.617788285,
				"element": "C" 
			},
			{
				"x": -1.0101084781,
				"y": -2.8865364309,
				"z": -1.7597946921,
				"element": "F" 
			},
			{
				"x": 0.0507812538,
				"y": -3.6045819897,
				"z": -3.5197128802,
				"element": "F" 
			},
			{
				"x": -0.3529508952,
				"y": -1.4831578159,
				"z": -3.2862160702,
				"element": "F" 
			},
			{
				"x": 1.7417476836,
				"y": -3.6710999493,
				"z": -1.098649532,
				"element": "C" 
			},
			{
				"x": 0.8180544266,
				"y": -4.0037367937,
				"z": -0.178501018,
				"element": "F" 
			},
			{
				"x": 1.8911325129,
				"y": -4.7368717134,
				"z": -1.9249960757,
				"element": "F" 
			},
			{
				"x": 2.9098454107,
				"y": -3.4843763064,
				"z": -0.4716454658,
				"element": "F" 
			},
			{
				"x": 0.6529389817,
				"y": 2.5030129758,
				"z": 1.8997328981,
				"element": "H" 
			},
			{
				"x": 1.8772654104,
				"y": 3.132559166,
				"z": 0.9366996209,
				"element": "H" 
			},
			{
				"x": 2.9866090596,
				"y": 1.8303241242,
				"z": -0.7931691942,
				"element": "H" 
			},
			{
				"x": 2.9328364068,
				"y": -0.2066688036,
				"z": -2.1776136808,
				"element": "H" 
			},
			{
				"x": -0.191744897,
				"y": -1.8064725095,
				"z": 0.298022129,
				"element": "H" 
			},
			{
				"x": -0.144138782,
				"y": 0.2138221321,
				"z": 1.6786730879,
				"element": "H" 
			},
			{
				"x": 2.3001298216,
				"y": -3.0746725093,
				"z": -3.4763239339,
				"element": "H" 
			}
		],
		 "valence_orbital": [ 
			{
				"type": "occ",
				"energy": -0.33914,
				"method": "rhf"
			},
			{
				"type": "occ",
				"energy": -0.31799,
				"method": "rhf"
			},
			{
				"type": "occ",
				"energy": -0.30659,
				"method": "rhf"
			},
			{
				"type": "occ",
				"energy": -0.25339,
				"method": "rhf"
			},
			{
				"type": "occ",
				"energy": -0.21018,
				"method": "rhf"
			},
			{
				"type": "unocc",
				"energy": -0.00403,
				"method": "rhf"
			},
			{
				"type": "unocc",
				"energy": 0.00307,
				"method": "rhf"
			},
			{
				"type": "unocc",
				"energy": 0.06826,
				"method": "rhf"
			},
			{
				"type": "unocc",
				"energy": 0.07456,
				"method": "rhf"
			},
			{
				"type": "unocc",
				"energy": 0.1031,
				"method": "rhf"
			}
		],
		"cosmo_sigma_profile": { 
			"-0.025": 0.0,
			"-0.024": 0.0,
			"-0.023": 0.0,
			"-0.022": 0.0,
			"-0.021": 0.0,
			"-0.02": 0.0,
			"-0.019": 0.0,
			"-0.018": 0.0,
			"-0.017": 0.299856600279,
			"-0.016": 0.585190296721,
			"-0.015": 0.535803980576,
			"-0.014": 0.863404307419,
			"-0.013": 1.42818093095,
			"-0.012": 3.39855662803,
			"-0.011": 3.8066612371,
			"-0.01": 3.8984190299,
			"-0.009": 3.68847815984,
			"-0.008": 3.8245690617,
			"-0.007": 4.38263782679,
			"-0.006": 6.49767327579,
			"-0.005": 7.54167118129,
			"-0.004": 8.90822630131,
			"-0.003": 6.98357236305,
			"-0.002": 9.42419062581,
			"-0.001": 11.4986210655,
			"0.0": 14.8168161741,
			"0.001": 29.1489125508,
			"0.002": 53.4945764372,
			"0.003": 21.3142418021,
			"0.004": 12.7699800111,
			"0.005": 14.8413119693,
			"0.006": 4.8331681285,
			"0.007": 2.83191467105,
			"0.008": 1.86262821183,
			"0.009": 0.911519176558,
			"0.01": 0.890534148444,
			"0.011": 0.644974599854,
			"0.012": 0.674392071232,
			"0.013": 0.460468299093,
			"0.014": 0.292106203698,
			"0.015": 0.0,
			"0.016": 0.0,
			"0.017": 0.0,
			"0.018": 0.0,
			"0.019": 0.0,
			"0.02": 0.0,
			"0.021": 0.0,
			"0.022": 0.0,
			"0.023": 0.0,
			"0.024": 0.0,
			"0.025": 0.0
		}
	}
}
