{
	 "smiles": "O=C1CC(=NO1)C1=CC=CC=C1", 
	 "Tm": 425.15, 
	 "num_atms": 19, 
	 "gaussian": { 
		 "optdone": 1, 
		 "sigma_profile": "yes", 
		 "theory": "DFT", 
		 "functional": "B3LYP", 
		 "basiset": "6-31G**", 
		 "properties": { 
			 "R2extent": 3412.0241, 
			 "electric_dipole_moment_norm": 5.44157857703, 
			 "electric_quadrupole_moment_norm": 17.4201942816, 
			 "total_energy": -552.330173837, 
			 "HOMO_LUMO_gap": 0.18278, 
			 "cosmo_polarized_energy": -13.14, 
			 "cosmo_cavitation_energy": 23.85, 
			 "cosmo_dispersion_energy": -17.82, 
			 "cosmo_repulsion_energy": 1.41, 
			 "cosmo_total_nonelectrostatic_energy": 7.44, 
			 "SMD_solvation_energy": 4.88 
		},
		"coords": [
			{
				"x": -3.2334458212,
				"y": 2.4953323129,
				"z": -2.8803261882,
				"element": "O" 
			},
			{
				"x": -2.6242785445,
				"y": 2.0471045607,
				"z": -1.9490679915,
				"element": "C" 
			},
			{
				"x": -1.5068288363,
				"y": 2.6522353057,
				"z": -1.11464934,
				"element": "C" 
			},
			{
				"x": -1.238424182,
				"y": 1.5417099749,
				"z": -0.1446875668,
				"element": "C" 
			},
			{
				"x": -2.0025844746,
				"y": 0.5186826845,
				"z": -0.341601666,
				"element": "N" 
			},
			{
				"x": -2.8665554875,
				"y": 0.7887400553,
				"z": -1.4386253544,
				"element": "O" 
			},
			{
				"x": -0.237470058,
				"y": 1.5490087707,
				"z": 0.9302511106,
				"element": "C" 
			},
			{
				"x": 0.5822005863,
				"y": 2.6714459604,
				"z": 1.1252937219,
				"element": "C" 
			},
			{
				"x": 1.5340256563,
				"y": 2.6829256585,
				"z": 2.1447752383,
				"element": "C" 
			},
			{
				"x": 1.6771061343,
				"y": 1.5745103101,
				"z": 2.9794406699,
				"element": "C" 
			},
			{
				"x": 0.8636664728,
				"y": 0.4516767691,
				"z": 2.7913223301,
				"element": "C" 
			},
			{
				"x": -0.0864972469,
				"y": 0.4350695407,
				"z": 1.7767726275,
				"element": "C" 
			},
			{
				"x": -0.6480152306,
				"y": 2.900942396,
				"z": -1.7468959851,
				"element": "H" 
			},
			{
				"x": -1.8427620205,
				"y": 3.5796706011,
				"z": -0.6390719391,
				"element": "H" 
			},
			{
				"x": 0.478810095,
				"y": 3.5394737604,
				"z": 0.4809544853,
				"element": "H" 
			},
			{
				"x": 2.1620382806,
				"y": 3.5574989609,
				"z": 2.2852583322,
				"element": "H" 
			},
			{
				"x": 2.4180045628,
				"y": 1.5828418885,
				"z": 3.7733858835,
				"element": "H" 
			},
			{
				"x": 0.972727637,
				"y": -0.4127537506,
				"z": 3.4395248391,
				"element": "H" 
			},
			{
				"x": -0.7207175231,
				"y": -0.4316157598,
				"z": 1.6247467925,
				"element": "H" 
			}
		],
		 "valence_orbital": [ 
			{
				"type": "occ",
				"energy": -0.33429,
				"method": "rhf"
			},
			{
				"type": "occ",
				"energy": -0.30616,
				"method": "rhf"
			},
			{
				"type": "occ",
				"energy": -0.2766,
				"method": "rhf"
			},
			{
				"type": "occ",
				"energy": -0.27094,
				"method": "rhf"
			},
			{
				"type": "occ",
				"energy": -0.24985,
				"method": "rhf"
			},
			{
				"type": "unocc",
				"energy": -0.06707,
				"method": "rhf"
			},
			{
				"type": "unocc",
				"energy": -0.02056,
				"method": "rhf"
			},
			{
				"type": "unocc",
				"energy": -0.00847,
				"method": "rhf"
			},
			{
				"type": "unocc",
				"energy": 0.03748,
				"method": "rhf"
			},
			{
				"type": "unocc",
				"energy": 0.06861,
				"method": "rhf"
			}
		],
		"cosmo_sigma_profile": { 
			"-0.025": 0.0,
			"-0.024": 0.0,
			"-0.023": 0.0,
			"-0.022": 0.0,
			"-0.021": 0.0,
			"-0.02": 0.0,
			"-0.019": 0.0,
			"-0.018": 0.0,
			"-0.017": 0.0,
			"-0.016": 0.0,
			"-0.015": 0.0,
			"-0.014": 0.0,
			"-0.013": 0.0,
			"-0.012": 0.0,
			"-0.011": 0.0,
			"-0.01": 3.72150247751,
			"-0.009": 7.60349279472,
			"-0.008": 8.43724656693,
			"-0.007": 7.05246489326,
			"-0.006": 12.4920586861,
			"-0.005": 13.665587159,
			"-0.004": 12.070249072,
			"-0.003": 9.31819787694,
			"-0.002": 8.00709649172,
			"-0.001": 9.12129745644,
			"0.0": 9.21630741869,
			"0.001": 11.941889013,
			"0.002": 10.7672799629,
			"0.003": 13.8419843257,
			"0.004": 15.160288698,
			"0.005": 4.07601341948,
			"0.006": 3.52048512521,
			"0.007": 6.88146648488,
			"0.008": 7.09247157532,
			"0.009": 4.65223568831,
			"0.01": 6.01111690544,
			"0.011": 6.19605764891,
			"0.012": 1.10132962947,
			"0.013": 0.0,
			"0.014": 0.0,
			"0.015": 0.0,
			"0.016": 0.0,
			"0.017": 0.0,
			"0.018": 0.0,
			"0.019": 0.0,
			"0.02": 0.0,
			"0.021": 0.0,
			"0.022": 0.0,
			"0.023": 0.0,
			"0.024": 0.0,
			"0.025": 0.0
		}
	}
}
