{
	 "smiles": "CN1C2=C(C=CC=C2)C(C=O)=C1C1=CC=CC=C1", 
	 "Tm": 399.15, 
	 "num_atms": 31, 
	 "gaussian": { 
		 "optdone": 1, 
		 "sigma_profile": "yes", 
		 "theory": "DFT", 
		 "functional": "B3LYP", 
		 "basiset": "6-31G**", 
		 "properties": { 
			 "R2extent": 5152.7822, 
			 "electric_dipole_moment_norm": 4.3711265207, 
			 "electric_quadrupole_moment_norm": 9.87700074314, 
			 "total_energy": -747.51660065, 
			 "HOMO_LUMO_gap": 0.15851, 
			 "cosmo_polarized_energy": -12.84, 
			 "cosmo_cavitation_energy": 34.33, 
			 "cosmo_dispersion_energy": -24.45, 
			 "cosmo_repulsion_energy": 1.84, 
			 "cosmo_total_nonelectrostatic_energy": 11.73, 
			 "SMD_solvation_energy": 6.21 
		},
		"coords": [
			{
				"x": 1.501156977,
				"y": 0.8516443805,
				"z": -1.4614711551,
				"element": "C" 
			},
			{
				"x": 0.2738330746,
				"y": 0.0734408947,
				"z": -1.3927562053,
				"element": "N" 
			},
			{
				"x": -0.0726521392,
				"y": -0.8656464418,
				"z": -2.3571913695,
				"element": "C" 
			},
			{
				"x": -1.3795998582,
				"y": -1.3256979344,
				"z": -2.069940657,
				"element": "C" 
			},
			{
				"x": -1.9573153592,
				"y": -2.2912029638,
				"z": -2.9117560735,
				"element": "C" 
			},
			{
				"x": -1.2275324694,
				"y": -2.7599822122,
				"z": -3.998286563,
				"element": "C" 
			},
			{
				"x": 0.0701146238,
				"y": -2.2833972856,
				"z": -4.2670771199,
				"element": "C" 
			},
			{
				"x": 0.6668905345,
				"y": -1.3283655369,
				"z": -3.4502453221,
				"element": "C" 
			},
			{
				"x": -1.8208705308,
				"y": -0.6174114181,
				"z": -0.8891610459,
				"element": "C" 
			},
			{
				"x": -3.0959995125,
				"y": -0.8426906726,
				"z": -0.2253355348,
				"element": "C" 
			},
			{
				"x": -3.5524834528,
				"y": -0.2276878589,
				"z": 0.728840575,
				"element": "O" 
			},
			{
				"x": -0.7732956119,
				"y": 0.2277845305,
				"z": -0.5014919637,
				"element": "C" 
			},
			{
				"x": -0.6669608514,
				"y": 1.1233420257,
				"z": 0.6667411785,
				"element": "C" 
			},
			{
				"x": -1.6693659512,
				"y": 2.0679240249,
				"z": 0.9400276016,
				"element": "C" 
			},
			{
				"x": -1.5577750505,
				"y": 2.915965775,
				"z": 2.0394539924,
				"element": "C" 
			},
			{
				"x": -0.4528284383,
				"y": 2.8298445036,
				"z": 2.8894562257,
				"element": "C" 
			},
			{
				"x": 0.5428127059,
				"y": 1.8850030128,
				"z": 2.6367026577,
				"element": "C" 
			},
			{
				"x": 0.4376363453,
				"y": 1.0388969421,
				"z": 1.5333853926,
				"element": "C" 
			},
			{
				"x": 1.6378314624,
				"y": 1.2260028999,
				"z": -2.4804967742,
				"element": "H" 
			},
			{
				"x": 2.372152091,
				"y": 0.2440414214,
				"z": -1.1919744336,
				"element": "H" 
			},
			{
				"x": 1.4376024593,
				"y": 1.6979296895,
				"z": -0.7800646305,
				"element": "H" 
			},
			{
				"x": -2.9583135259,
				"y": -2.6670223653,
				"z": -2.7237272711,
				"element": "H" 
			},
			{
				"x": -1.6650363185,
				"y": -3.5068368237,
				"z": -4.6541893734,
				"element": "H" 
			},
			{
				"x": 0.6151261144,
				"y": -2.6690590144,
				"z": -5.1234033375,
				"element": "H" 
			},
			{
				"x": 1.6698148202,
				"y": -0.9671730838,
				"z": -3.6545304504,
				"element": "H" 
			},
			{
				"x": -3.6825175796,
				"y": -1.6753670894,
				"z": -0.6739640472,
				"element": "H" 
			},
			{
				"x": -2.5370554426,
				"y": 2.123714731,
				"z": 0.2945968966,
				"element": "H" 
			},
			{
				"x": -2.3401702047,
				"y": 3.6429278045,
				"z": 2.236042595,
				"element": "H" 
			},
			{
				"x": -0.3725051152,
				"y": 3.4898581039,
				"z": 3.748369521,
				"element": "H" 
			},
			{
				"x": 1.3975269527,
				"y": 1.7995290013,
				"z": 3.301439374,
				"element": "H" 
			},
			{
				"x": 1.2026792508,
				"y": 0.2884909596,
				"z": 1.3563073175,
				"element": "H" 
			}
		],
		 "valence_orbital": [ 
			{
				"type": "occ",
				"energy": -0.2633,
				"method": "rhf"
			},
			{
				"type": "occ",
				"energy": -0.25608,
				"method": "rhf"
			},
			{
				"type": "occ",
				"energy": -0.2318,
				"method": "rhf"
			},
			{
				"type": "occ",
				"energy": -0.22456,
				"method": "rhf"
			},
			{
				"type": "occ",
				"energy": -0.20802,
				"method": "rhf"
			},
			{
				"type": "unocc",
				"energy": -0.04951,
				"method": "rhf"
			},
			{
				"type": "unocc",
				"energy": -0.0062,
				"method": "rhf"
			},
			{
				"type": "unocc",
				"energy": -0.00468,
				"method": "rhf"
			},
			{
				"type": "unocc",
				"energy": 0.00242,
				"method": "rhf"
			},
			{
				"type": "unocc",
				"energy": 0.01979,
				"method": "rhf"
			}
		],
		"cosmo_sigma_profile": { 
			"-0.025": 0.0,
			"-0.024": 0.0,
			"-0.023": 0.0,
			"-0.022": 0.0,
			"-0.021": 0.0,
			"-0.02": 0.0,
			"-0.019": 0.0,
			"-0.018": 0.0,
			"-0.017": 0.0,
			"-0.016": 0.0,
			"-0.015": 0.0,
			"-0.014": 0.0,
			"-0.013": 0.0,
			"-0.012": 0.0,
			"-0.011": 0.0,
			"-0.01": 0.0,
			"-0.009": 0.0,
			"-0.008": 0.0,
			"-0.007": 2.28152471575,
			"-0.006": 20.6840513966,
			"-0.005": 28.8466194554,
			"-0.004": 29.229213175,
			"-0.003": 26.7943760741,
			"-0.002": 19.0586535379,
			"-0.001": 13.8657971475,
			"0.0": 17.5311888201,
			"0.001": 17.0686092781,
			"0.002": 17.3443575034,
			"0.003": 18.1134732599,
			"0.004": 17.8167664126,
			"0.005": 16.7686280253,
			"0.006": 10.3701040648,
			"0.007": 2.58672718914,
			"0.008": 1.43362940482,
			"0.009": 2.15118872472,
			"0.01": 2.21932454074,
			"0.011": 2.47902423912,
			"0.012": 3.48820309567,
			"0.013": 3.41997680641,
			"0.014": 1.53839833806,
			"0.015": 0.239016815926,
			"0.016": 0.0,
			"0.017": 0.0,
			"0.018": 0.0,
			"0.019": 0.0,
			"0.02": 0.0,
			"0.021": 0.0,
			"0.022": 0.0,
			"0.023": 0.0,
			"0.024": 0.0,
			"0.025": 0.0
		}
	}
}
