{
	 "smiles": "CCOC1=CC2=C(C=C1)C(=O)C(=O)N2", 
	 "Tm": 500.15, 
	 "num_atms": 23, 
	 "gaussian": { 
		 "optdone": 1, 
		 "sigma_profile": "yes", 
		 "theory": "DFT", 
		 "functional": "B3LYP", 
		 "basiset": "6-31G**", 
		 "properties": { 
			 "R2extent": 4664.9231, 
			 "electric_dipole_moment_norm": 7.61845938888, 
			 "electric_quadrupole_moment_norm": 32.1617822351, 
			 "total_energy": -666.911704922, 
			 "HOMO_LUMO_gap": 0.14665, 
			 "cosmo_polarized_energy": -17.44, 
			 "cosmo_cavitation_energy": 28.12, 
			 "cosmo_dispersion_energy": -20.74, 
			 "cosmo_repulsion_energy": 1.64, 
			 "cosmo_total_nonelectrostatic_energy": 9.02, 
			 "SMD_solvation_energy": 6.54 
		},
		"coords": [
			{
				"x": 3.2913599497,
				"y": 0.0877176866,
				"z": 1.2606480657,
				"element": "C" 
			},
			{
				"x": 2.220403342,
				"y": 0.3054480221,
				"z": 0.2073237204,
				"element": "C" 
			},
			{
				"x": 0.9924357807,
				"y": -0.2182886642,
				"z": 0.7298211104,
				"element": "O" 
			},
			{
				"x": -0.1336628238,
				"y": -0.1509283505,
				"z": -0.0172925635,
				"element": "C" 
			},
			{
				"x": -1.2805184024,
				"y": -0.6972266836,
				"z": 0.5996074221,
				"element": "C" 
			},
			{
				"x": -2.4675891052,
				"y": -0.6633323438,
				"z": -0.1048099868,
				"element": "C" 
			},
			{
				"x": -2.5446289934,
				"y": -0.1029842901,
				"z": -1.4012731317,
				"element": "C" 
			},
			{
				"x": -1.4058078173,
				"y": 0.4310975138,
				"z": -1.9950157689,
				"element": "C" 
			},
			{
				"x": -0.192069341,
				"y": 0.4112869327,
				"z": -1.3079322597,
				"element": "C" 
			},
			{
				"x": -3.9265200228,
				"y": -0.2208761017,
				"z": -1.8686486649,
				"element": "C" 
			},
			{
				"x": -4.4461861251,
				"y": 0.1214109142,
				"z": -2.9108165454,
				"element": "O" 
			},
			{
				"x": -4.6902226143,
				"y": -0.9267466375,
				"z": -0.6910562512,
				"element": "C" 
			},
			{
				"x": -5.8601319885,
				"y": -1.228731548,
				"z": -0.6335771819,
				"element": "O" 
			},
			{
				"x": -3.7259212561,
				"y": -1.1355863733,
				"z": 0.2873531946,
				"element": "N" 
			},
			{
				"x": 3.0326380424,
				"y": 0.6061211676,
				"z": 2.187912334,
				"element": "H" 
			},
			{
				"x": 3.4069345533,
				"y": -0.9771794665,
				"z": 1.480047916,
				"element": "H" 
			},
			{
				"x": 4.2501932752,
				"y": 0.4744285141,
				"z": 0.9026798571,
				"element": "H" 
			},
			{
				"x": 2.4736424165,
				"y": -0.2132538716,
				"z": -0.726653482,
				"element": "H" 
			},
			{
				"x": 2.0986549515,
				"y": 1.3732121324,
				"z": -0.0175157979,
				"element": "H" 
			},
			{
				"x": -1.193306265,
				"y": -1.1204586716,
				"z": 1.5941436202,
				"element": "H" 
			},
			{
				"x": -1.4709018142,
				"y": 0.8600142589,
				"z": -2.9905069817,
				"element": "H" 
			},
			{
				"x": 0.6940010575,
				"y": 0.8267872046,
				"z": -1.7696960138,
				"element": "H" 
			},
			{
				"x": -3.9310967997,
				"y": -1.5783313446,
				"z": 1.1710573888,
				"element": "H" 
			}
		],
		 "valence_orbital": [ 
			{
				"type": "occ",
				"energy": -0.31269,
				"method": "rhf"
			},
			{
				"type": "occ",
				"energy": -0.30158,
				"method": "rhf"
			},
			{
				"type": "occ",
				"energy": -0.25169,
				"method": "rhf"
			},
			{
				"type": "occ",
				"energy": -0.23857,
				"method": "rhf"
			},
			{
				"type": "occ",
				"energy": -0.23249,
				"method": "rhf"
			},
			{
				"type": "unocc",
				"energy": -0.08584,
				"method": "rhf"
			},
			{
				"type": "unocc",
				"energy": -0.01887,
				"method": "rhf"
			},
			{
				"type": "unocc",
				"energy": 0.02085,
				"method": "rhf"
			},
			{
				"type": "unocc",
				"energy": 0.0799,
				"method": "rhf"
			},
			{
				"type": "unocc",
				"energy": 0.08244,
				"method": "rhf"
			}
		],
		"cosmo_sigma_profile": { 
			"-0.025": 0.0,
			"-0.024": 0.0,
			"-0.023": 0.0,
			"-0.022": 0.0,
			"-0.021": 0.0,
			"-0.02": 0.0,
			"-0.019": 0.0,
			"-0.018": 0.0,
			"-0.017": 0.16485447626,
			"-0.016": 1.44448024116,
			"-0.015": 1.65130368953,
			"-0.014": 0.87369899302,
			"-0.013": 1.41097735815,
			"-0.012": 1.13043223696,
			"-0.011": 1.0145779121,
			"-0.01": 1.12409337679,
			"-0.009": 1.43031566153,
			"-0.008": 2.55478419662,
			"-0.007": 6.73603693187,
			"-0.006": 11.4299303368,
			"-0.005": 15.0346026438,
			"-0.004": 19.1699625709,
			"-0.003": 16.8463529121,
			"-0.002": 14.5896882891,
			"-0.001": 17.3147396359,
			"0.0": 19.4781386392,
			"0.001": 14.507248062,
			"0.002": 17.3755568481,
			"0.003": 9.39302547153,
			"0.004": 4.98449413701,
			"0.005": 4.09607294945,
			"0.006": 3.50657915414,
			"0.007": 3.80527312376,
			"0.008": 4.68273799103,
			"0.009": 3.95163740202,
			"0.01": 7.13880822668,
			"0.011": 9.98494036922,
			"0.012": 6.50648339238,
			"0.013": 1.20221210679,
			"0.014": 0.0,
			"0.015": 0.0,
			"0.016": 0.0,
			"0.017": 0.0,
			"0.018": 0.0,
			"0.019": 0.0,
			"0.02": 0.0,
			"0.021": 0.0,
			"0.022": 0.0,
			"0.023": 0.0,
			"0.024": 0.0,
			"0.025": 0.0
		}
	}
}
