{
	 "smiles": "[O-][N+](=O)C1=CC(=CC=C1)C(=O)OC1=CC=C(C=O)C=C1", 
	 "Tm": 417.15, 
	 "num_atms": 29, 
	 "gaussian": { 
		 "optdone": 1, 
		 "sigma_profile": "yes", 
		 "theory": "DFT", 
		 "functional": "B3LYP", 
		 "basiset": "6-31G**", 
		 "properties": { 
			 "R2extent": 8504.9966, 
			 "electric_dipole_moment_norm": 4.63609747201, 
			 "electric_quadrupole_moment_norm": 19.7050874134, 
			 "total_energy": -969.684512805, 
			 "HOMO_LUMO_gap": 0.15679, 
			 "cosmo_polarized_energy": -14.99, 
			 "cosmo_cavitation_energy": 36.56, 
			 "cosmo_dispersion_energy": -26.01, 
			 "cosmo_repulsion_energy": 1.96, 
			 "cosmo_total_nonelectrostatic_energy": 12.51, 
			 "SMD_solvation_energy": 10.55 
		},
		"coords": [
			{
				"x": -5.5377050216,
				"y": 0.4756381423,
				"z": 1.0020291202,
				"element": "O" 
			},
			{
				"x": -4.3629865332,
				"y": 0.6796820277,
				"z": 0.7015291593,
				"element": "N" 
			},
			{
				"x": -3.9537278118,
				"y": 1.6575428187,
				"z": 0.0789807338,
				"element": "O" 
			},
			{
				"x": -3.3693212488,
				"y": -0.3270718315,
				"z": 1.1202991874,
				"element": "C" 
			},
			{
				"x": -2.0325731389,
				"y": -0.1194502563,
				"z": 0.7983288018,
				"element": "C" 
			},
			{
				"x": -1.096035842,
				"y": -1.0781533585,
				"z": 1.1978695544,
				"element": "C" 
			},
			{
				"x": -1.5138468027,
				"y": -2.2155681055,
				"z": 1.905283579,
				"element": "C" 
			},
			{
				"x": -2.8604737298,
				"y": -2.3988638205,
				"z": 2.2141604064,
				"element": "C" 
			},
			{
				"x": -3.8043741147,
				"y": -1.4502844719,
				"z": 1.8221289571,
				"element": "C" 
			},
			{
				"x": 0.3602265809,
				"y": -0.9462752647,
				"z": 0.9019774108,
				"element": "C" 
			},
			{
				"x": 1.1979337037,
				"y": -1.7513693873,
				"z": 1.2393982875,
				"element": "O" 
			},
			{
				"x": 0.6163286559,
				"y": 0.1958903416,
				"z": 0.1976619785,
				"element": "O" 
			},
			{
				"x": 1.8962354023,
				"y": 0.5599720754,
				"z": -0.210292193,
				"element": "C" 
			},
			{
				"x": 1.9455038511,
				"y": 1.2475477678,
				"z": -1.4286462306,
				"element": "C" 
			},
			{
				"x": 3.1638617685,
				"y": 1.7144992052,
				"z": -1.899150639,
				"element": "C" 
			},
			{
				"x": 4.3346863589,
				"y": 1.4982100815,
				"z": -1.1553945984,
				"element": "C" 
			},
			{
				"x": 5.6371619928,
				"y": 1.9922166965,
				"z": -1.6535326988,
				"element": "C" 
			},
			{
				"x": 5.7915083875,
				"y": 2.5973731353,
				"z": -2.6973467955,
				"element": "O" 
			},
			{
				"x": 4.2618293345,
				"y": 0.8136102942,
				"z": 0.0636338427,
				"element": "C" 
			},
			{
				"x": 3.0458958327,
				"y": 0.338982856,
				"z": 0.5517808439,
				"element": "C" 
			},
			{
				"x": -1.7409123891,
				"y": 0.7669615125,
				"z": 0.2522814935,
				"element": "H" 
			},
			{
				"x": -0.7658232566,
				"y": -2.942555647,
				"z": 2.2023624917,
				"element": "H" 
			},
			{
				"x": -3.1779695912,
				"y": -3.2805678617,
				"z": 2.7609840501,
				"element": "H" 
			},
			{
				"x": -4.8581287956,
				"y": -1.5609417383,
				"z": 2.0457438558,
				"element": "H" 
			},
			{
				"x": 1.0251763802,
				"y": 1.4033247255,
				"z": -1.9814874531,
				"element": "H" 
			},
			{
				"x": 3.2362703383,
				"y": 2.2498090228,
				"z": -2.8402792418,
				"element": "H" 
			},
			{
				"x": 6.5016560832,
				"y": 1.7682477028,
				"z": -0.9893467467,
				"element": "H" 
			},
			{
				"x": 5.1685434875,
				"y": 0.6497062539,
				"z": 0.6410840954,
				"element": "H" 
			},
			{
				"x": 2.9924601179,
				"y": -0.1974129164,
				"z": 1.4882587475,
				"element": "H" 
			}
		],
		 "valence_orbital": [ 
			{
				"type": "occ",
				"energy": -0.29904,
				"method": "rhf"
			},
			{
				"type": "occ",
				"energy": -0.29737,
				"method": "rhf"
			},
			{
				"type": "occ",
				"energy": -0.2768,
				"method": "rhf"
			},
			{
				"type": "occ",
				"energy": -0.26187,
				"method": "rhf"
			},
			{
				"type": "occ",
				"energy": -0.25991,
				"method": "rhf"
			},
			{
				"type": "unocc",
				"energy": -0.10312,
				"method": "rhf"
			},
			{
				"type": "unocc",
				"energy": -0.08285,
				"method": "rhf"
			},
			{
				"type": "unocc",
				"energy": -0.06344,
				"method": "rhf"
			},
			{
				"type": "unocc",
				"energy": -0.02545,
				"method": "rhf"
			},
			{
				"type": "unocc",
				"energy": -0.02147,
				"method": "rhf"
			}
		],
		"cosmo_sigma_profile": { 
			"-0.025": 0.0,
			"-0.024": 0.0,
			"-0.023": 0.0,
			"-0.022": 0.0,
			"-0.021": 0.0,
			"-0.02": 0.0,
			"-0.019": 0.0,
			"-0.018": 0.0,
			"-0.017": 0.0,
			"-0.016": 0.0,
			"-0.015": 0.0,
			"-0.014": 0.0,
			"-0.013": 0.0,
			"-0.012": 0.0,
			"-0.011": 0.0,
			"-0.01": 0.0,
			"-0.009": 0.551390041799,
			"-0.008": 6.78563401526,
			"-0.007": 17.0713434533,
			"-0.006": 17.1057995002,
			"-0.005": 19.2964661026,
			"-0.004": 18.4278810553,
			"-0.003": 20.1283560289,
			"-0.002": 27.0310602144,
			"-0.001": 27.349705767,
			"0.0": 25.2773056506,
			"0.001": 22.6989485494,
			"0.002": 19.3216754317,
			"0.003": 8.15873844464,
			"0.004": 6.3081713953,
			"0.005": 7.01259906518,
			"0.006": 7.53265543852,
			"0.007": 12.3512592355,
			"0.008": 9.53770667742,
			"0.009": 7.84127172151,
			"0.01": 7.29177365281,
			"0.011": 4.98265585999,
			"0.012": 2.74592623701,
			"0.013": 0.674485492826,
			"0.014": 0.0,
			"0.015": 0.0,
			"0.016": 0.0,
			"0.017": 0.0,
			"0.018": 0.0,
			"0.019": 0.0,
			"0.02": 0.0,
			"0.021": 0.0,
			"0.022": 0.0,
			"0.023": 0.0,
			"0.024": 0.0,
			"0.0": 0.0
		}
	}
}
