{
	 "smiles": "CCCS", 
	 "Tm": 160.15, 
	 "num_atms": 12, 
	 "gaussian": { 
		 "optdone": 1, 
		 "sigma_profile": "yes", 
		 "theory": "DFT", 
		 "functional": "B3LYP", 
		 "basiset": "6-31G**", 
		 "properties": { 
			 "R2extent": 2070.3052, 
			 "electric_dipole_moment_norm": 1.87900872004, 
			 "electric_quadrupole_moment_norm": 8.57056111174, 
			 "total_energy": -517.335512671, 
			 "HOMO_LUMO_gap": 0.26339, 
			 "cosmo_polarized_energy": -4.03, 
			 "cosmo_cavitation_energy": 16.09, 
			 "cosmo_dispersion_energy": -12.58, 
			 "cosmo_repulsion_energy": 1.1, 
			 "cosmo_total_nonelectrostatic_energy": 4.6, 
			 "SMD_solvation_energy": 2.33 
		},
		"coords": [
			{
				"x": 0.9551032923,
				"y": -1.588701469,
				"z": 0.4553670415,
				"element": "C" 
			},
			{
				"x": 0.2887186942,
				"y": -2.236306965,
				"z": -0.7646843697,
				"element": "C" 
			},
			{
				"x": -0.8184760157,
				"y": -3.2142113318,
				"z": -0.3660888955,
				"element": "C" 
			},
			{
				"x": -1.7135764985,
				"y": -3.9798088023,
				"z": -1.7833923059,
				"element": "S" 
			},
			{
				"x": 1.7473640627,
				"y": -0.8983177106,
				"z": 0.1490773669,
				"element": "H" 
			},
			{
				"x": 0.2304877431,
				"y": -1.0207731369,
				"z": 1.0495800603,
				"element": "H" 
			},
			{
				"x": 1.4054973221,
				"y": -2.3415616106,
				"z": 1.1119928179,
				"element": "H" 
			},
			{
				"x": -0.1327406133,
				"y": -1.4656829941,
				"z": -1.4198118183,
				"element": "H" 
			},
			{
				"x": 1.0434413673,
				"y": -2.7678005478,
				"z": -1.3584130354,
				"element": "H" 
			},
			{
				"x": -1.6031785451,
				"y": -2.697715562,
				"z": 0.1965980008,
				"element": "H" 
			},
			{
				"x": -0.4305094967,
				"y": -4.0076860076,
				"z": 0.2801991126,
				"element": "H" 
			},
			{
				"x": -0.6502313125,
				"y": -4.6115338624,
				"z": -2.3219239751,
				"element": "H" 
			}
		],
		 "valence_orbital": [ 
			{
				"type": "occ",
				"energy": -0.37383,
				"method": "rhf"
			},
			{
				"type": "occ",
				"energy": -0.35108,
				"method": "rhf"
			},
			{
				"type": "occ",
				"energy": -0.34036,
				"method": "rhf"
			},
			{
				"type": "occ",
				"energy": -0.31723,
				"method": "rhf"
			},
			{
				"type": "occ",
				"energy": -0.2342,
				"method": "rhf"
			},
			{
				"type": "unocc",
				"energy": 0.02919,
				"method": "rhf"
			},
			{
				"type": "unocc",
				"energy": 0.07202,
				"method": "rhf"
			},
			{
				"type": "unocc",
				"energy": 0.10152,
				"method": "rhf"
			},
			{
				"type": "unocc",
				"energy": 0.12851,
				"method": "rhf"
			},
			{
				"type": "unocc",
				"energy": 0.13661,
				"method": "rhf"
			}
		],
		"cosmo_sigma_profile": { 
			"-0.025": 0.0,
			"-0.024": 0.0,
			"-0.023": 0.0,
			"-0.022": 0.0,
			"-0.021": 0.0,
			"-0.02": 0.0,
			"-0.019": 0.0,
			"-0.018": 0.0,
			"-0.017": 0.0,
			"-0.016": 0.0,
			"-0.015": 0.0,
			"-0.014": 0.0,
			"-0.013": 0.0,
			"-0.012": 0.0,
			"-0.011": 0.0,
			"-0.01": 0.0,
			"-0.009": 0.427243165103,
			"-0.008": 2.00530022229,
			"-0.007": 2.20362125563,
			"-0.006": 2.6378394933,
			"-0.005": 4.7738463014,
			"-0.004": 7.89262587498,
			"-0.003": 15.0838432651,
			"-0.002": 16.1010503237,
			"-0.001": 17.4095420971,
			"0.0": 13.4923398806,
			"0.001": 13.6042523897,
			"0.002": 4.78225190292,
			"0.003": 3.82316051579,
			"0.004": 2.72856051,
			"0.005": 3.46139554415,
			"0.006": 4.34850354147,
			"0.007": 3.15223241938,
			"0.008": 2.41803984476,
			"0.009": 2.42987437383,
			"0.01": 2.3859724483,
			"0.011": 1.8404039982,
			"0.012": 0.353258703288,
			"0.013": 0.0,
			"0.014": 0.0,
			"0.015": 0.0,
			"0.016": 0.0,
			"0.017": 0.0,
			"0.018": 0.0,
			"0.019": 0.0,
			"0.02": 0.0,
			"0.021": 0.0,
			"0.022": 0.0,
			"0.023": 0.0,
			"0.024": 0.0,
			"0.025": 0.0
		}
	}
}
