{
	 "smiles": "ClC1=NC=CC(=C1)C1=NC=CN1", 
	 "Tm": 461.15, 
	 "num_atms": 18, 
	 "gaussian": { 
		 "optdone": 1, 
		 "sigma_profile": "yes", 
		 "theory": "DFT", 
		 "functional": "B3LYP", 
		 "basiset": "6-31G**", 
		 "properties": { 
			 "R2extent": 3856.5319, 
			 "electric_dipole_moment_norm": 4.41134361731, 
			 "electric_quadrupole_moment_norm": 20.4021501916, 
			 "total_energy": -932.911448329, 
			 "HOMO_LUMO_gap": 0.17396, 
			 "cosmo_polarized_energy": -15.27, 
			 "cosmo_cavitation_energy": 24.69, 
			 "cosmo_dispersion_energy": -18.71, 
			 "cosmo_repulsion_energy": 1.47, 
			 "cosmo_total_nonelectrostatic_energy": 7.45, 
			 "SMD_solvation_energy": 1.4 
		},
		"coords": [
			{
				"x": 2.2946115599,
				"y": -4.7508622083,
				"z": 0.2949129248,
				"element": "Cl" 
			},
			{
				"x": 1.0052296656,
				"y": -3.5593356632,
				"z": 0.099559847,
				"element": "C" 
			},
			{
				"x": -0.0564012783,
				"y": -3.9409261822,
				"z": -0.582309364,
				"element": "N" 
			},
			{
				"x": -1.0345006655,
				"y": -3.0293382818,
				"z": -0.7275241245,
				"element": "C" 
			},
			{
				"x": -0.9778726484,
				"y": -1.7441892031,
				"z": -0.2075344958,
				"element": "C" 
			},
			{
				"x": 0.1633789047,
				"y": -1.3562717931,
				"z": 0.5169611042,
				"element": "C" 
			},
			{
				"x": 1.1870356902,
				"y": -2.3003324169,
				"z": 0.6727638476,
				"element": "C" 
			},
			{
				"x": 0.2373755883,
				"y": -0.0058967421,
				"z": 1.0707345659,
				"element": "C" 
			},
			{
				"x": -0.7068072232,
				"y": 0.9165891947,
				"z": 0.9468800835,
				"element": "N" 
			},
			{
				"x": -0.2426654864,
				"y": 2.0226001174,
				"z": 1.6043991912,
				"element": "C" 
			},
			{
				"x": 1.0022300445,
				"y": 1.7806599392,
				"z": 2.1403419898,
				"element": "C" 
			},
			{
				"x": 1.2982264177,
				"y": 0.4841336829,
				"z": 1.7935715326,
				"element": "N" 
			},
			{
				"x": -1.9045946115,
				"y": -3.3565892809,
				"z": -1.2919005837,
				"element": "H" 
			},
			{
				"x": -1.7880435253,
				"y": -1.0386980511,
				"z": -0.346756975,
				"element": "H" 
			},
			{
				"x": 2.1013581877,
				"y": -2.0894255754,
				"z": 1.2150409617,
				"element": "H" 
			},
			{
				"x": -0.8225431031,
				"y": 2.9331720544,
				"z": 1.6600343984,
				"element": "H" 
			},
			{
				"x": 1.6806360642,
				"y": 2.3908200891,
				"z": 2.7162573443,
				"element": "H" 
			},
			{
				"x": 2.1452464191,
				"y": -0.0077096796,
				"z": 2.032967752,
				"element": "H" 
			}
		],
		 "valence_orbital": [ 
			{
				"type": "occ",
				"energy": -0.29805,
				"method": "rhf"
			},
			{
				"type": "occ",
				"energy": -0.28522,
				"method": "rhf"
			},
			{
				"type": "occ",
				"energy": -0.27522,
				"method": "rhf"
			},
			{
				"type": "occ",
				"energy": -0.26129,
				"method": "rhf"
			},
			{
				"type": "occ",
				"energy": -0.23258,
				"method": "rhf"
			},
			{
				"type": "unocc",
				"energy": -0.05862,
				"method": "rhf"
			},
			{
				"type": "unocc",
				"energy": -0.02391,
				"method": "rhf"
			},
			{
				"type": "unocc",
				"energy": 0.03049,
				"method": "rhf"
			},
			{
				"type": "unocc",
				"energy": 0.03394,
				"method": "rhf"
			},
			{
				"type": "unocc",
				"energy": 0.05059,
				"method": "rhf"
			}
		],
		"cosmo_sigma_profile": { 
			"-0.025": 0.0,
			"-0.024": 0.0,
			"-0.023": 0.0,
			"-0.022": 0.0,
			"-0.021": 0.0,
			"-0.02": 0.0,
			"-0.019": 0.0,
			"-0.018": 0.172324051451,
			"-0.017": 1.62082277411,
			"-0.016": 1.40500853055,
			"-0.015": 2.00322891581,
			"-0.014": 1.64723985828,
			"-0.013": 0.860482027883,
			"-0.012": 1.54255115364,
			"-0.011": 1.85401377879,
			"-0.01": 1.53974563892,
			"-0.009": 3.67311091407,
			"-0.008": 3.82083462048,
			"-0.007": 6.72553642054,
			"-0.006": 7.91542473955,
			"-0.005": 8.59016007633,
			"-0.004": 7.7329312372,
			"-0.003": 7.16758803033,
			"-0.002": 8.59005362389,
			"-0.001": 12.1804759035,
			"0.0": 20.5214659302,
			"0.001": 21.5365649105,
			"0.002": 16.1604831933,
			"0.003": 12.7533942252,
			"0.004": 15.5671882329,
			"0.005": 9.95180404358,
			"0.006": 5.17723095506,
			"0.007": 3.72616191769,
			"0.008": 3.13216919468,
			"0.009": 2.96253926547,
			"0.01": 1.96835252754,
			"0.011": 2.45206154577,
			"0.012": 2.21752560522,
			"0.013": 1.84255331115,
			"0.014": 1.80155648218,
			"0.015": 0.989498317692,
			"0.016": 0.0657007746248,
			"0.017": 0.0,
			"0.018": 0.0,
			"0.019": 0.0,
			"0.02": 0.0,
			"0.021": 0.0,
			"0.022": 0.0,
			"0.023": 0.0,
			"0.024": 0.0,
			"0.025": 0.0
		}
	}
}
