{
	 "smiles": "NNC(=O)C1=CC(=CC=C1)C(F)(F)F", 
	 "Tm": 385.15, 
	 "num_atms": 21, 
	 "gaussian": { 
		 "optdone": 1, 
		 "sigma_profile": "yes", 
		 "theory": "DFT", 
		 "functional": "B3LYP", 
		 "basiset": "6-31G**", 
		 "properties": { 
			 "R2extent": 3577.6213, 
			 "electric_dipole_moment_norm": 0.892834150333, 
			 "electric_quadrupole_moment_norm": 12.2024640409, 
			 "total_energy": -793.3085825, 
			 "HOMO_LUMO_gap": 0.20446, 
			 "cosmo_polarized_energy": -11.93, 
			 "cosmo_cavitation_energy": 27.3, 
			 "cosmo_dispersion_energy": -19.42, 
			 "cosmo_repulsion_energy": 1.48, 
			 "cosmo_total_nonelectrostatic_energy": 9.35, 
			 "SMD_solvation_energy": 6.9 
		},
		"coords": [
			{
				"x": -1.7661205263,
				"y": 2.8351034162,
				"z": 1.7189941295,
				"element": "N" 
			},
			{
				"x": -1.3177289868,
				"y": 1.6890376216,
				"z": 1.0240507026,
				"element": "N" 
			},
			{
				"x": -0.2828025973,
				"y": 0.9428694487,
				"z": 1.5355736798,
				"element": "C" 
			},
			{
				"x": 0.1836001394,
				"y": 1.1677099758,
				"z": 2.648567821,
				"element": "O" 
			},
			{
				"x": 0.2424376133,
				"y": -0.1515086793,
				"z": 0.6521115211,
				"element": "C" 
			},
			{
				"x": -0.5023225644,
				"y": -0.713012997,
				"z": -0.3917330316,
				"element": "C" 
			},
			{
				"x": 0.0488032381,
				"y": -1.729720774,
				"z": -1.173188819,
				"element": "C" 
			},
			{
				"x": 1.341595322,
				"y": -2.1950498298,
				"z": -0.9175095119,
				"element": "C" 
			},
			{
				"x": 2.0781654019,
				"y": -1.6462680546,
				"z": 0.1324535708,
				"element": "C" 
			},
			{
				"x": 1.5298742508,
				"y": -0.6351825866,
				"z": 0.9182701768,
				"element": "C" 
			},
			{
				"x": -0.7763211004,
				"y": -2.3753369782,
				"z": -2.2547864197,
				"element": "C" 
			},
			{
				"x": -1.7186798041,
				"y": -1.5349339326,
				"z": -2.7379435003,
				"element": "F" 
			},
			{
				"x": -1.4231418303,
				"y": -3.4727509676,
				"z": -1.8004145204,
				"element": "F" 
			},
			{
				"x": -0.0121003752,
				"y": -2.77282949,
				"z": -3.2955817166,
				"element": "F" 
			},
			{
				"x": -0.9768725146,
				"y": 3.1546844422,
				"z": 2.2837699227,
				"element": "H" 
			},
			{
				"x": -2.4683338985,
				"y": 2.5253011406,
				"z": 2.3902403921,
				"element": "H" 
			},
			{
				"x": -1.4241936692,
				"y": 1.7563974555,
				"z": 0.0216148431,
				"element": "H" 
			},
			{
				"x": -1.516618578,
				"y": -0.3845157927,
				"z": -0.5900233921,
				"element": "H" 
			},
			{
				"x": 1.7638330352,
				"y": -2.979010907,
				"z": -1.5370895274,
				"element": "H" 
			},
			{
				"x": 3.0808677875,
				"y": -2.0089707903,
				"z": 0.3360134924,
				"element": "H" 
			},
			{
				"x": 2.079859657,
				"y": -0.2019117209,
				"z": 1.7467101872,
				"element": "H" 
			}
		],
		 "valence_orbital": [ 
			{
				"type": "occ",
				"energy": -0.29793,
				"method": "rhf"
			},
			{
				"type": "occ",
				"energy": -0.28035,
				"method": "rhf"
			},
			{
				"type": "occ",
				"energy": -0.27916,
				"method": "rhf"
			},
			{
				"type": "occ",
				"energy": -0.2675,
				"method": "rhf"
			},
			{
				"type": "occ",
				"energy": -0.25926,
				"method": "rhf"
			},
			{
				"type": "unocc",
				"energy": -0.0548,
				"method": "rhf"
			},
			{
				"type": "unocc",
				"energy": -0.0365,
				"method": "rhf"
			},
			{
				"type": "unocc",
				"energy": 0.0381,
				"method": "rhf"
			},
			{
				"type": "unocc",
				"energy": 0.07884,
				"method": "rhf"
			},
			{
				"type": "unocc",
				"energy": 0.08715,
				"method": "rhf"
			}
		],
		"cosmo_sigma_profile": { 
			"-0.025": 0.0,
			"-0.024": 0.0,
			"-0.023": 0.0,
			"-0.022": 0.0,
			"-0.021": 0.0,
			"-0.02": 0.0,
			"-0.019": 0.0,
			"-0.018": 0.0,
			"-0.017": 0.0,
			"-0.016": 0.0,
			"-0.015": 0.601881530438,
			"-0.014": 0.724828351838,
			"-0.013": 1.20989591196,
			"-0.012": 2.14510528059,
			"-0.011": 2.30817763095,
			"-0.01": 3.9585959956,
			"-0.009": 2.37282129983,
			"-0.008": 5.02145177946,
			"-0.007": 7.37028850109,
			"-0.006": 10.6016519475,
			"-0.005": 10.1881214625,
			"-0.004": 8.74840032803,
			"-0.003": 9.8129097842,
			"-0.002": 10.6978315962,
			"-0.001": 12.890566642,
			"0.0": 17.11772176,
			"0.001": 20.9596959743,
			"0.002": 31.6393098791,
			"0.003": 30.5753956776,
			"0.004": 3.83726786341,
			"0.005": 1.99058812968,
			"0.006": 1.40090270601,
			"0.007": 2.64986056354,
			"0.008": 2.24275887715,
			"0.009": 2.00290924175,
			"0.01": 2.67783635601,
			"0.011": 1.39785391141,
			"0.012": 3.58671593754,
			"0.013": 5.06292587474,
			"0.014": 1.12567932064,
			"0.015": 0.444725357337,
			"0.016": 0.540417000333,
			"0.017": 0.19310097222,
			"0.018": 0.0,
			"0.019": 0.0,
			"0.02": 0.0,
			"0.021": 0.0,
			"0.022": 0.0,
			"0.023": 0.0,
			"0.024": 0.0,
			"0.025": 0.0
		}
	}
}
