{
	 "smiles": "CN(C)C(C(O)=O)C1=CN=CC=C1", 
	 "Tm": 458.15, 
	 "num_atms": 25, 
	 "gaussian": { 
		 "optdone": 1, 
		 "sigma_profile": "yes", 
		 "theory": "DFT", 
		 "functional": "B3LYP", 
		 "basiset": "6-31G**", 
		 "properties": { 
			 "R2extent": 2654.8824, 
			 "electric_dipole_moment_norm": 5.27571624995, 
			 "electric_quadrupole_moment_norm": 10.5783658209, 
			 "total_energy": -610.12040109, 
			 "HOMO_LUMO_gap": 0.20043, 
			 "cosmo_polarized_energy": -18.03, 
			 "cosmo_cavitation_energy": 27.8, 
			 "cosmo_dispersion_energy": -19.78, 
			 "cosmo_repulsion_energy": 1.55, 
			 "cosmo_total_nonelectrostatic_energy": 9.57, 
			 "SMD_solvation_energy": 3.65 
		},
		"coords": [
			{
				"x": 2.065457601,
				"y": -0.3832461513,
				"z": -1.0406300313,
				"element": "C" 
			},
			{
				"x": 1.2868712661,
				"y": 0.5745700584,
				"z": -0.2517627901,
				"element": "N" 
			},
			{
				"x": 2.0550615374,
				"y": 1.1258918452,
				"z": 0.859070352,
				"element": "C" 
			},
			{
				"x": -0.0620783653,
				"y": 0.1186485111,
				"z": 0.1229130679,
				"element": "C" 
			},
			{
				"x": 0.0250636942,
				"y": -1.1713822805,
				"z": 0.9702397412,
				"element": "C" 
			},
			{
				"x": 0.0501323703,
				"y": -0.9897708164,
				"z": 2.3192290576,
				"element": "O" 
			},
			{
				"x": 0.185136731,
				"y": -2.2751873488,
				"z": 0.5102519991,
				"element": "O" 
			},
			{
				"x": -0.9711970595,
				"y": -0.001936446,
				"z": -1.0950995213,
				"element": "C" 
			},
			{
				"x": -1.9382658241,
				"y": -1.0048904623,
				"z": -1.2416446686,
				"element": "C" 
			},
			{
				"x": -2.7974365194,
				"y": -1.0703962109,
				"z": -2.2677736863,
				"element": "N" 
			},
			{
				"x": -2.7159417331,
				"y": -0.1223378973,
				"z": -3.2066403552,
				"element": "C" 
			},
			{
				"x": -1.7887784105,
				"y": 0.9205903959,
				"z": -3.1651171823,
				"element": "C" 
			},
			{
				"x": -0.9079144538,
				"y": 0.9812069109,
				"z": -2.0897055531,
				"element": "C" 
			},
			{
				"x": 2.9390121811,
				"y": 0.1346230757,
				"z": -1.4491081595,
				"element": "H" 
			},
			{
				"x": 2.4122252835,
				"y": -1.2528762982,
				"z": -0.461360619,
				"element": "H" 
			},
			{
				"x": 1.4627718905,
				"y": -0.7525734727,
				"z": -1.8724068135,
				"element": "H" 
			},
			{
				"x": 1.4751685092,
				"y": 1.9108517469,
				"z": 1.3586457394,
				"element": "H" 
			},
			{
				"x": 2.9663236707,
				"y": 1.5868932921,
				"z": 0.4660167475,
				"element": "H" 
			},
			{
				"x": 2.3580236487,
				"y": 0.3807746191,
				"z": 1.6157528448,
				"element": "H" 
			},
			{
				"x": -0.476466937,
				"y": 0.9202329055,
				"z": 0.7538473404,
				"element": "H" 
			},
			{
				"x": -0.109665269,
				"y": -0.0609535395,
				"z": 2.5364873136,
				"element": "H" 
			},
			{
				"x": -2.0202481954,
				"y": -1.802190217,
				"z": -0.5090446494,
				"element": "H" 
			},
			{
				"x": -3.4239658654,
				"y": -0.199324912,
				"z": -4.0303214302,
				"element": "H" 
			},
			{
				"x": -1.7623243542,
				"y": 1.666080049,
				"z": -3.954015404,
				"element": "H" 
			},
			{
				"x": -0.1648653969,
				"y": 1.768702643,
				"z": -2.0114233396,
				"element": "H" 
			}
		],
		 "valence_orbital": [ 
			{
				"type": "occ",
				"energy": -0.29018,
				"method": "rhf"
			},
			{
				"type": "occ",
				"energy": -0.28319,
				"method": "rhf"
			},
			{
				"type": "occ",
				"energy": -0.2598,
				"method": "rhf"
			},
			{
				"type": "occ",
				"energy": -0.25079,
				"method": "rhf"
			},
			{
				"type": "occ",
				"energy": -0.22881,
				"method": "rhf"
			},
			{
				"type": "unocc",
				"energy": -0.02838,
				"method": "rhf"
			},
			{
				"type": "unocc",
				"energy": -0.01439,
				"method": "rhf"
			},
			{
				"type": "unocc",
				"energy": -0.00226,
				"method": "rhf"
			},
			{
				"type": "unocc",
				"energy": 0.04051,
				"method": "rhf"
			},
			{
				"type": "unocc",
				"energy": 0.09961,
				"method": "rhf"
			}
		],
		"cosmo_sigma_profile": { 
			"-0.025": 0.0,
			"-0.024": 0.0,
			"-0.023": 0.0,
			"-0.022": 0.0,
			"-0.021": 0.0,
			"-0.02": 0.0,
			"-0.019": 0.233251152918,
			"-0.018": 1.24623637265,
			"-0.017": 1.41996344314,
			"-0.016": 1.13485632618,
			"-0.015": 0.882068096115,
			"-0.014": 1.62477119726,
			"-0.013": 0.877548200534,
			"-0.012": 0.721976400164,
			"-0.011": 1.6263875666,
			"-0.01": 1.85043126178,
			"-0.009": 1.08733052455,
			"-0.008": 1.73729113909,
			"-0.007": 3.90606134204,
			"-0.006": 9.71525879672,
			"-0.005": 13.3113366439,
			"-0.004": 16.3294784395,
			"-0.003": 16.8775118525,
			"-0.002": 19.6763660759,
			"-0.001": 22.181706369,
			"0.0": 14.1159677579,
			"0.001": 11.5416578582,
			"0.002": 14.7588884947,
			"0.003": 10.6256844235,
			"0.004": 7.00650387486,
			"0.005": 5.40369851962,
			"0.006": 4.61801287299,
			"0.007": 4.70153821028,
			"0.008": 4.76221835946,
			"0.009": 4.71558940879,
			"0.01": 6.10576428756,
			"0.011": 5.05207723637,
			"0.012": 4.9603487808,
			"0.013": 1.87969392099,
			"0.014": 0.542602762576,
			"0.015": 1.00882203836,
			"0.016": 0.848937069091,
			"0.017": 0.442903895186,
			"0.018": 0.0,
			"0.019": 0.0,
			"0.02": 0.0,
			"0.021": 0.0,
			"0.022": 0.0,
			"0.023": 0.0,
			"0.024": 0.0,
			"0.025": 0.0
		}
	}
}
