{
	 "smiles": "COC1=CC2=C(C=NCC2)C=C1O", 
	 "Tm": 462.15, 
	 "num_atms": 24, 
	 "gaussian": { 
		 "optdone": 1, 
		 "sigma_profile": "yes", 
		 "theory": "DFT", 
		 "functional": "B3LYP", 
		 "basiset": "6-31G**", 
		 "properties": { 
			 "R2extent": 2839.2107, 
			 "electric_dipole_moment_norm": 4.85658688381, 
			 "electric_quadrupole_moment_norm": 3.91002174291, 
			 "total_energy": -592.869938358, 
			 "HOMO_LUMO_gap": 0.172, 
			 "cosmo_polarized_energy": -11.05, 
			 "cosmo_cavitation_energy": 26.85, 
			 "cosmo_dispersion_energy": -20.27, 
			 "cosmo_repulsion_energy": 1.6, 
			 "cosmo_total_nonelectrostatic_energy": 8.18, 
			 "SMD_solvation_energy": 1.95 
		},
		"coords": [
			{
				"x": -1.5546379043,
				"y": 3.232586905,
				"z": 1.3404927741,
				"element": "C" 
			},
			{
				"x": -0.168799537,
				"y": 2.9270908595,
				"z": 1.4004246678,
				"element": "O" 
			},
			{
				"x": 0.27582039,
				"y": 1.7852275884,
				"z": 0.783095474,
				"element": "C" 
			},
			{
				"x": -0.5140584823,
				"y": 0.8738184293,
				"z": 0.0824537198,
				"element": "C" 
			},
			{
				"x": 0.071898,
				"y": -0.2495697474,
				"z": -0.5084183145,
				"element": "C" 
			},
			{
				"x": 1.4556880982,
				"y": -0.4519325589,
				"z": -0.3852177529,
				"element": "C" 
			},
			{
				"x": 2.0449342726,
				"y": -1.6377642316,
				"z": -1.0282012988,
				"element": "C" 
			},
			{
				"x": 1.4793217111,
				"y": -2.3735356857,
				"z": -1.9095681632,
				"element": "N" 
			},
			{
				"x": 0.1287913508,
				"y": -1.9740283955,
				"z": -2.3256997331,
				"element": "C" 
			},
			{
				"x": -0.7186920359,
				"y": -1.320790625,
				"z": -1.2249331378,
				"element": "C" 
			},
			{
				"x": 2.2460291056,
				"y": 0.4605083879,
				"z": 0.3302346808,
				"element": "C" 
			},
			{
				"x": 1.6665752833,
				"y": 1.5791332462,
				"z": 0.9121076314,
				"element": "C" 
			},
			{
				"x": 2.4301466637,
				"y": 2.4721683266,
				"z": 1.6010174579,
				"element": "O" 
			},
			{
				"x": -1.8882067997,
				"y": 3.3681204858,
				"z": 0.3044100253,
				"element": "H" 
			},
			{
				"x": -1.6840345649,
				"y": 4.1675686651,
				"z": 1.8872839012,
				"element": "H" 
			},
			{
				"x": -2.1566426815,
				"y": 2.4477340031,
				"z": 1.8145957741,
				"element": "H" 
			},
			{
				"x": -1.5840312868,
				"y": 1.0290631708,
				"z": -0.0083824688,
				"element": "H" 
			},
			{
				"x": 3.0689610578,
				"y": -1.8983458474,
				"z": -0.741839612,
				"element": "H" 
			},
			{
				"x": -0.3809617885,
				"y": -2.8591809102,
				"z": -2.7196161854,
				"element": "H" 
			},
			{
				"x": 0.2442586983,
				"y": -1.278786517,
				"z": -3.1717890811,
				"element": "H" 
			},
			{
				"x": -1.6432620776,
				"y": -0.9142772605,
				"z": -1.6504090244,
				"element": "H" 
			},
			{
				"x": -1.0205152148,
				"y": -2.0921354921,
				"z": -0.5000503562,
				"element": "H" 
			},
			{
				"x": 3.317019337,
				"y": 0.3122824392,
				"z": 0.4332453558,
				"element": "H" 
			},
			{
				"x": 1.835798405,
				"y": 3.1678447644,
				"z": 1.9209636662,
				"element": "H" 
			}
		],
		 "valence_orbital": [ 
			{
				"type": "occ",
				"energy": -0.33036,
				"method": "rhf"
			},
			{
				"type": "occ",
				"energy": -0.28294,
				"method": "rhf"
			},
			{
				"type": "occ",
				"energy": -0.23998,
				"method": "rhf"
			},
			{
				"type": "occ",
				"energy": -0.23414,
				"method": "rhf"
			},
			{
				"type": "occ",
				"energy": -0.20447,
				"method": "rhf"
			},
			{
				"type": "unocc",
				"energy": -0.03247,
				"method": "rhf"
			},
			{
				"type": "unocc",
				"energy": 0.00257,
				"method": "rhf"
			},
			{
				"type": "unocc",
				"energy": 0.0621,
				"method": "rhf"
			},
			{
				"type": "unocc",
				"energy": 0.07322,
				"method": "rhf"
			},
			{
				"type": "unocc",
				"energy": 0.08873,
				"method": "rhf"
			}
		],
		"cosmo_sigma_profile": { 
			"-0.025": 0.0,
			"-0.024": 0.0,
			"-0.023": 0.0,
			"-0.022": 0.0,
			"-0.021": 0.0,
			"-0.02": 0.0,
			"-0.019": 0.0,
			"-0.018": 0.0,
			"-0.017": 0.0,
			"-0.016": 0.0,
			"-0.015": 0.112913318139,
			"-0.014": 0.393665269044,
			"-0.013": 0.731663393064,
			"-0.012": 0.370536511728,
			"-0.011": 0.224630657049,
			"-0.01": 0.789662448798,
			"-0.009": 0.867809962146,
			"-0.008": 0.620769983093,
			"-0.007": 2.35849846914,
			"-0.006": 13.3578374173,
			"-0.005": 16.6167120018,
			"-0.004": 21.3719061108,
			"-0.003": 21.6217307126,
			"-0.002": 18.5704626182,
			"-0.001": 15.2830090093,
			"0.0": 13.1516827748,
			"0.001": 12.4343939363,
			"0.002": 14.3195794393,
			"0.003": 13.1604577167,
			"0.004": 14.6879635221,
			"0.005": 7.37509108634,
			"0.006": 3.13186440983,
			"0.007": 3.19505221865,
			"0.008": 2.47277180006,
			"0.009": 2.30680376141,
			"0.01": 3.02952638353,
			"0.011": 3.12626461263,
			"0.012": 1.84386263349,
			"0.013": 0.852408656484,
			"0.014": 0.804327545867,
			"0.015": 1.30830787243,
			"0.016": 0.720686507149,
			"0.017": 1.03806493775,
			"0.018": 0.456223366427,
			"0.019": 0.00922676638084,
			"0.02": 0.0,
			"0.021": 0.0,
			"0.022": 0.0,
			"0.023": 0.0,
			"0.024": 0.0,
			"0.025": 0.0
		}
	}
}
