{
	 "smiles": "CCS(=O)(=O)N(C)CC(O)=O", 
	 "Tm": 344.15, 
	 "num_atms": 22, 
	 "gaussian": { 
		 "optdone": 1, 
		 "sigma_profile": "yes", 
		 "theory": "DFT", 
		 "functional": "B3LYP", 
		 "basiset": "6-31G**", 
		 "properties": { 
			 "R2extent": 2139.6493, 
			 "electric_dipole_moment_norm": 3.90552057222, 
			 "electric_quadrupole_moment_norm": 12.2693757547, 
			 "total_energy": -950.939488051, 
			 "HOMO_LUMO_gap": 0.25616, 
			 "cosmo_polarized_energy": -19.02, 
			 "cosmo_cavitation_energy": 26.56, 
			 "cosmo_dispersion_energy": -19.04, 
			 "cosmo_repulsion_energy": 1.5, 
			 "cosmo_total_nonelectrostatic_energy": 9.03, 
			 "SMD_solvation_energy": 5.36 
		},
		"coords": [
			{
				"x": 2.841918813,
				"y": -0.440292489,
				"z": 1.1969953623,
				"element": "C" 
			},
			{
				"x": 1.6959049434,
				"y": 0.4547568618,
				"z": 1.6515778502,
				"element": "C" 
			},
			{
				"x": 0.5896752748,
				"y": 0.9588539927,
				"z": 0.301247013,
				"element": "S" 
			},
			{
				"x": -0.4376321972,
				"y": 1.8171200792,
				"z": 0.8980785108,
				"element": "O" 
			},
			{
				"x": 1.418515974,
				"y": 1.4148770627,
				"z": -0.821534736,
				"element": "O" 
			},
			{
				"x": -0.0999038128,
				"y": -0.524106652,
				"z": -0.1750660606,
				"element": "N" 
			},
			{
				"x": -1.3394136351,
				"y": -0.9119427315,
				"z": 0.5095346416,
				"element": "C" 
			},
			{
				"x": 0.0247436855,
				"y": -0.9002783467,
				"z": -1.5767170592,
				"element": "C" 
			},
			{
				"x": -0.9597823106,
				"y": -0.3022003391,
				"z": -2.5813870748,
				"element": "C" 
			},
			{
				"x": -1.6581736346,
				"y": 0.7396608323,
				"z": -2.0886280853,
				"element": "O" 
			},
			{
				"x": -1.0783254117,
				"y": -0.7171391908,
				"z": -3.7116381026,
				"element": "O" 
			},
			{
				"x": 2.4650804362,
				"y": -1.3826717969,
				"z": 0.7908814248,
				"element": "H" 
			},
			{
				"x": 3.4888049183,
				"y": -0.6696961216,
				"z": 2.049089976,
				"element": "H" 
			},
			{
				"x": 3.4414406984,
				"y": 0.0570206116,
				"z": 0.4311890019,
				"element": "H" 
			},
			{
				"x": 1.0601067072,
				"y": -0.0207986344,
				"z": 2.4036180999,
				"element": "H" 
			},
			{
				"x": 2.0493002007,
				"y": 1.4048384516,
				"z": 2.0638275675,
				"element": "H" 
			},
			{
				"x": -1.4893042429,
				"y": -1.984932634,
				"z": 0.3550161842,
				"element": "H" 
			},
			{
				"x": -1.2439821538,
				"y": -0.7348860738,
				"z": 1.5822568255,
				"element": "H" 
			},
			{
				"x": -2.2121654621,
				"y": -0.3619016664,
				"z": 0.1437056099,
				"element": "H" 
			},
			{
				"x": -0.0645123361,
				"y": -1.9887165569,
				"z": -1.657155545,
				"element": "H" 
			},
			{
				"x": 1.0220225066,
				"y": -0.630394463,
				"z": -1.9316184266,
				"element": "H" 
			},
			{
				"x": -2.2098189612,
				"y": 1.0761298041,
				"z": -2.8149729775,
				"element": "H" 
			}
		],
		 "valence_orbital": [ 
			{
				"type": "occ",
				"energy": -0.31529,
				"method": "rhf"
			},
			{
				"type": "occ",
				"energy": -0.30869,
				"method": "rhf"
			},
			{
				"type": "occ",
				"energy": -0.29802,
				"method": "rhf"
			},
			{
				"type": "occ",
				"energy": -0.28976,
				"method": "rhf"
			},
			{
				"type": "occ",
				"energy": -0.25396,
				"method": "rhf"
			},
			{
				"type": "unocc",
				"energy": 0.0022,
				"method": "rhf"
			},
			{
				"type": "unocc",
				"energy": 0.05601,
				"method": "rhf"
			},
			{
				"type": "unocc",
				"energy": 0.06194,
				"method": "rhf"
			},
			{
				"type": "unocc",
				"energy": 0.07747,
				"method": "rhf"
			},
			{
				"type": "unocc",
				"energy": 0.08605,
				"method": "rhf"
			}
		],
		"cosmo_sigma_profile": { 
			"-0.025": 0.0,
			"-0.024": 0.0,
			"-0.023": 0.0,
			"-0.022": 0.0,
			"-0.021": 0.0,
			"-0.02": 0.0,
			"-0.019": 0.445579616291,
			"-0.018": 0.988425216318,
			"-0.017": 0.962826835741,
			"-0.016": 0.790636198332,
			"-0.015": 0.982413034474,
			"-0.014": 0.812383050859,
			"-0.013": 0.391154406522,
			"-0.012": 0.534352137343,
			"-0.011": 0.969382938858,
			"-0.01": 0.684957032945,
			"-0.009": 1.11321721803,
			"-0.008": 8.88550677487,
			"-0.007": 10.0128127467,
			"-0.006": 11.3641329064,
			"-0.005": 12.5821965235,
			"-0.004": 18.6795115011,
			"-0.003": 19.6479514411,
			"-0.002": 17.7173103848,
			"-0.001": 13.3283360108,
			"0.0": 10.1756577266,
			"0.001": 6.15420629096,
			"0.002": 5.58334519734,
			"0.003": 4.36888201452,
			"0.004": 4.5207663925,
			"0.005": 4.16452007096,
			"0.006": 2.87879546353,
			"0.007": 5.48367505524,
			"0.008": 6.46825981283,
			"0.009": 5.69222945879,
			"0.01": 8.56068502894,
			"0.011": 14.3220317935,
			"0.012": 8.69389196132,
			"0.013": 0.173515775122,
			"0.014": 0.0,
			"0.015": 0.0,
			"0.016": 0.0,
			"0.017": 0.0,
			"0.018": 0.0,
			"0.019": 0.0,
			"0.02": 0.0,
			"0.021": 0.0,
			"0.022": 0.0,
			"0.023": 0.0,
			"0.024": 0.0,
			"0.025": 0.0
		}
	}
}
