{
	 "smiles": "NNC(=O)NC1=C(Cl)C=C(Cl)C=C1Cl", 
	 "Tm": 503.15, 
	 "num_atms": 20, 
	 "gaussian": { 
		 "optdone": 1, 
		 "sigma_profile": "yes", 
		 "theory": "DFT", 
		 "functional": "B3LYP", 
		 "basiset": "6-31G**", 
		 "properties": { 
			 "R2extent": 5724.5789, 
			 "electric_dipole_moment_norm": 2.23518511761, 
			 "electric_quadrupole_moment_norm": 3.55853952767, 
			 "total_energy": -1890.3968702, 
			 "HOMO_LUMO_gap": 0.20373, 
			 "cosmo_polarized_energy": -12.82, 
			 "cosmo_cavitation_energy": 30.27, 
			 "cosmo_dispersion_energy": -21.93, 
			 "cosmo_repulsion_energy": 1.76, 
			 "cosmo_total_nonelectrostatic_energy": 10.09, 
			 "SMD_solvation_energy": 5.48 
		},
		"coords": [
			{
				"x": 1.0458203586,
				"y": 0.9668587577,
				"z": -3.3835143298,
				"element": "N" 
			},
			{
				"x": 1.0630442188,
				"y": 0.3754174764,
				"z": -2.0989344285,
				"element": "N" 
			},
			{
				"x": -0.0871604566,
				"y": -0.2254970815,
				"z": -1.6384322482,
				"element": "C" 
			},
			{
				"x": -1.0660434958,
				"y": -0.4222833112,
				"z": -2.3428328336,
				"element": "O" 
			},
			{
				"x": -0.0893544201,
				"y": -0.6238541852,
				"z": -0.289068586,
				"element": "N" 
			},
			{
				"x": 1.0401715594,
				"y": -0.8384913331,
				"z": 0.5271148796,
				"element": "C" 
			},
			{
				"x": 1.5149818194,
				"y": -2.1385477309,
				"z": 0.7992460049,
				"element": "C" 
			},
			{
				"x": 0.716497734,
				"y": -3.5090723113,
				"z": 0.0602535919,
				"element": "Cl" 
			},
			{
				"x": 2.5948136035,
				"y": -2.382147802,
				"z": 1.6434598407,
				"element": "C" 
			},
			{
				"x": 3.2399229119,
				"y": -1.2965053551,
				"z": 2.23101666,
				"element": "C" 
			},
			{
				"x": 4.6108760988,
				"y": -1.5786433008,
				"z": 3.2808451675,
				"element": "Cl" 
			},
			{
				"x": 2.8099533513,
				"y": 0.0081443702,
				"z": 2.0051472851,
				"element": "C" 
			},
			{
				"x": 1.7100357327,
				"y": 0.2179265201,
				"z": 1.1752962752,
				"element": "C" 
			},
			{
				"x": 1.1493851035,
				"y": 1.8640549354,
				"z": 0.9638487593,
				"element": "Cl" 
			},
			{
				"x": 0.0939753588,
				"y": 1.2931614763,
				"z": -3.5564202945,
				"element": "H" 
			},
			{
				"x": 1.2024446585,
				"y": 0.220167722,
				"z": -4.05840722,
				"element": "H" 
			},
			{
				"x": 1.6507217019,
				"y": 0.8733073633,
				"z": -1.4460319745,
				"element": "H" 
			},
			{
				"x": -0.8649962044,
				"y": -1.256274014,
				"z": -0.1327709981,
				"element": "H" 
			},
			{
				"x": 2.9294776206,
				"y": -3.3952598074,
				"z": 1.8268390224,
				"element": "H" 
			},
			{
				"x": 3.3039327452,
				"y": 0.846637611,
				"z": 2.4793454265,
				"element": "H" 
			}
		],
		 "valence_orbital": [ 
			{
				"type": "occ",
				"energy": -0.28681,
				"method": "rhf"
			},
			{
				"type": "occ",
				"energy": -0.2795,
				"method": "rhf"
			},
			{
				"type": "occ",
				"energy": -0.27575,
				"method": "rhf"
			},
			{
				"type": "occ",
				"energy": -0.25865,
				"method": "rhf"
			},
			{
				"type": "occ",
				"energy": -0.25383,
				"method": "rhf"
			},
			{
				"type": "unocc",
				"energy": -0.0501,
				"method": "rhf"
			},
			{
				"type": "unocc",
				"energy": -0.04912,
				"method": "rhf"
			},
			{
				"type": "unocc",
				"energy": -0.0269,
				"method": "rhf"
			},
			{
				"type": "unocc",
				"energy": 0.02995,
				"method": "rhf"
			},
			{
				"type": "unocc",
				"energy": 0.03185,
				"method": "rhf"
			}
		],
		"cosmo_sigma_profile": { 
			"-0.025": 0.0,
			"-0.024": 0.0,
			"-0.023": 0.0,
			"-0.022": 0.0,
			"-0.021": 0.0,
			"-0.02": 0.0,
			"-0.019": 0.0,
			"-0.018": 0.0,
			"-0.017": 0.0,
			"-0.016": 0.0,
			"-0.015": 0.0,
			"-0.014": 0.302790939398,
			"-0.013": 1.15443733496,
			"-0.012": 1.2339570106,
			"-0.011": 2.96730165861,
			"-0.01": 4.05192852569,
			"-0.009": 6.54915367813,
			"-0.008": 6.93496803089,
			"-0.007": 6.00096784886,
			"-0.006": 6.59388634193,
			"-0.005": 8.45081821097,
			"-0.004": 8.4155935184,
			"-0.003": 13.6950718105,
			"-0.002": 17.9812532492,
			"-0.001": 27.1470547368,
			"0.0": 31.5765602114,
			"0.001": 19.2136968914,
			"0.002": 18.3619107712,
			"0.003": 25.66626151,
			"0.004": 12.9867982981,
			"0.005": 3.45814927601,
			"0.006": 3.44449419938,
			"0.007": 3.00168363766,
			"0.008": 1.68479549393,
			"0.009": 0.746984600619,
			"0.01": 2.00945896104,
			"0.011": 2.55171505329,
			"0.012": 2.80261651906,
			"0.013": 6.56737783717,
			"0.014": 1.91026358179,
			"0.015": 0.496357406404,
			"0.016": 0.549146370989,
			"0.017": 0.237397409557,
			"0.018": 0.0,
			"0.019": 0.0,
			"0.02": 0.0,
			"0.021": 0.0,
			"0.022": 0.0,
			"0.023": 0.0,
			"0.024": 0.0,
			"0.025": 0.0
		}
	}
}
