{
	 "smiles": "CN1N=C(CCl)NC1=O", 
	 "Tm": 413.15, 
	 "num_atms": 15, 
	 "gaussian": { 
		 "optdone": 1, 
		 "sigma_profile": "yes", 
		 "theory": "DFT", 
		 "functional": "B3LYP", 
		 "basiset": "6-31G**", 
		 "properties": { 
			 "R2extent": 2675.0482, 
			 "electric_dipole_moment_norm": 2.30558961223, 
			 "electric_quadrupole_moment_norm": 10.3766856255, 
			 "total_energy": -855.717018029, 
			 "HOMO_LUMO_gap": 0.19855, 
			 "cosmo_polarized_energy": -13.98, 
			 "cosmo_cavitation_energy": 21.37, 
			 "cosmo_dispersion_energy": -16.02, 
			 "cosmo_repulsion_energy": 1.35, 
			 "cosmo_total_nonelectrostatic_energy": 6.7, 
			 "SMD_solvation_energy": 3.47 
		},
		"coords": [
			{
				"x": -1.4932607531,
				"y": 0.0143016874,
				"z": -1.0579461163,
				"element": "C" 
			},
			{
				"x": -0.1756707089,
				"y": -0.4990686584,
				"z": -0.7575686489,
				"element": "N" 
			},
			{
				"x": 0.9596278566,
				"y": 0.214129551,
				"z": -1.0537652348,
				"element": "N" 
			},
			{
				"x": 1.9432071676,
				"y": -0.5429639886,
				"z": -0.6579165593,
				"element": "C" 
			},
			{
				"x": 3.3657307474,
				"y": -0.141346043,
				"z": -0.7493079799,
				"element": "C" 
			},
			{
				"x": 4.3481279045,
				"y": -1.3093184093,
				"z": -1.7572743194,
				"element": "Cl" 
			},
			{
				"x": 1.4861839896,
				"y": -1.720317546,
				"z": -0.112472996,
				"element": "N" 
			},
			{
				"x": 0.0869754121,
				"y": -1.7340208385,
				"z": -0.1810750891,
				"element": "C" 
			},
			{
				"x": -0.6923480402,
				"y": -2.6005093624,
				"z": 0.1760780344,
				"element": "O" 
			},
			{
				"x": -2.2088264773,
				"y": -0.746494515,
				"z": -0.7427475434,
				"element": "H" 
			},
			{
				"x": -1.5992088731,
				"y": 0.198670522,
				"z": -2.1308061844,
				"element": "H" 
			},
			{
				"x": -1.6791882938,
				"y": 0.9439327338,
				"z": -0.5123305204,
				"element": "H" 
			},
			{
				"x": 3.8535337613,
				"y": -0.1196507933,
				"z": 0.2267929101,
				"element": "H" 
			},
			{
				"x": 3.428202595,
				"y": 0.8377165625,
				"z": -1.2211370859,
				"element": "H" 
			},
			{
				"x": 2.0340137124,
				"y": -2.513560902,
				"z": 0.1820773332,
				"element": "H" 
			}
		],
		 "valence_orbital": [ 
			{
				"type": "occ",
				"energy": -0.32458,
				"method": "rhf"
			},
			{
				"type": "occ",
				"energy": -0.3149,
				"method": "rhf"
			},
			{
				"type": "occ",
				"energy": -0.31117,
				"method": "rhf"
			},
			{
				"type": "occ",
				"energy": -0.26909,
				"method": "rhf"
			},
			{
				"type": "occ",
				"energy": -0.22808,
				"method": "rhf"
			},
			{
				"type": "unocc",
				"energy": -0.02953,
				"method": "rhf"
			},
			{
				"type": "unocc",
				"energy": 0.0359,
				"method": "rhf"
			},
			{
				"type": "unocc",
				"energy": 0.05474,
				"method": "rhf"
			},
			{
				"type": "unocc",
				"energy": 0.07467,
				"method": "rhf"
			},
			{
				"type": "unocc",
				"energy": 0.11093,
				"method": "rhf"
			}
		],
		"cosmo_sigma_profile": { 
			"-0.025": 0.0,
			"-0.024": 0.0,
			"-0.023": 0.0,
			"-0.022": 0.0,
			"-0.021": 0.0,
			"-0.02": 0.0,
			"-0.019": 0.0,
			"-0.018": 0.0,
			"-0.017": 0.738705111217,
			"-0.016": 1.30254364707,
			"-0.015": 0.72951933179,
			"-0.014": 1.18662943162,
			"-0.013": 0.948841706018,
			"-0.012": 0.859532472862,
			"-0.011": 1.59335709268,
			"-0.01": 2.20271448909,
			"-0.009": 5.14888583771,
			"-0.008": 4.4929881402,
			"-0.007": 4.30860862136,
			"-0.006": 9.61045986718,
			"-0.005": 9.28166770788,
			"-0.004": 9.85574860952,
			"-0.003": 13.4337609714,
			"-0.002": 11.8647128847,
			"-0.001": 12.2253416478,
			"0.0": 10.4737621323,
			"0.001": 7.78896776779,
			"0.002": 6.24168811024,
			"0.003": 6.35259894971,
			"0.004": 9.17523004236,
			"0.005": 10.3968266873,
			"0.006": 7.00586255813,
			"0.007": 2.5328334927,
			"0.008": 2.30824743253,
			"0.009": 1.83784230731,
			"0.01": 2.27379640383,
			"0.011": 2.52699083749,
			"0.012": 2.37914653642,
			"0.013": 6.90488193278,
			"0.014": 4.20074395319,
			"0.015": 0.0894890328175,
			"0.016": 0.0,
			"0.017": 0.0,
			"0.018": 0.0,
			"0.019": 0.0,
			"0.02": 0.0,
			"0.021": 0.0,
			"0.022": 0.0,
			"0.023": 0.0,
			"0.024": 0.0,
			"0.025": 0.0
		}
	}
}
