{
	 "smiles": "ClC1=CC=C(C=C1)C(=O)C1=CC=CC=C1", 
	 "Tm": 349.95, 
	 "num_atms": 24, 
	 "gaussian": { 
		 "optdone": 1, 
		 "sigma_profile": "yes", 
		 "theory": "DFT", 
		 "functional": "B3LYP", 
		 "basiset": "6-31G**", 
		 "properties": { 
			 "R2extent": 5736.0352, 
			 "electric_dipole_moment_norm": 2.81774370907, 
			 "electric_quadrupole_moment_norm": 7.19614287587, 
			 "total_energy": -1036.2269232, 
			 "HOMO_LUMO_gap": 0.17795, 
			 "cosmo_polarized_energy": -8.61, 
			 "cosmo_cavitation_energy": 30.44, 
			 "cosmo_dispersion_energy": -22.29, 
			 "cosmo_repulsion_energy": 1.73, 
			 "cosmo_total_nonelectrostatic_energy": 9.88, 
			 "SMD_solvation_energy": 5.28 
		},
		"coords": [
			{
				"x": 5.3377765008,
				"y": -2.2808178545,
				"z": -1.6044706601,
				"element": "Cl" 
			},
			{
				"x": 4.0624533182,
				"y": -1.1074401315,
				"z": -1.3292080889,
				"element": "C" 
			},
			{
				"x": 2.7364041202,
				"y": -1.5363742207,
				"z": -1.2847224243,
				"element": "C" 
			},
			{
				"x": 1.7284740946,
				"y": -0.6012718804,
				"z": -1.0520711041,
				"element": "C" 
			},
			{
				"x": 2.035568564,
				"y": 0.7563051464,
				"z": -0.8754973621,
				"element": "C" 
			},
			{
				"x": 3.3770361487,
				"y": 1.1633320902,
				"z": -0.9535341361,
				"element": "C" 
			},
			{
				"x": 4.3943963583,
				"y": 0.2398132524,
				"z": -1.1657797912,
				"element": "C" 
			},
			{
				"x": 0.9932523613,
				"y": 1.8219110652,
				"z": -0.6976438723,
				"element": "C" 
			},
			{
				"x": 1.2294727373,
				"y": 2.965091502,
				"z": -1.0735876425,
				"element": "O" 
			},
			{
				"x": -0.3299487372,
				"y": 1.5007377614,
				"z": -0.0690499663,
				"element": "C" 
			},
			{
				"x": -0.4949072084,
				"y": 0.500436238,
				"z": 0.9020481288,
				"element": "C" 
			},
			{
				"x": -1.7398480065,
				"y": 0.2976005208,
				"z": 1.4989367421,
				"element": "C" 
			},
			{
				"x": -2.8320312838,
				"y": 1.0815711932,
				"z": 1.123851245,
				"element": "C" 
			},
			{
				"x": -2.6741233488,
				"y": 2.0855224375,
				"z": 0.1632214468,
				"element": "C" 
			},
			{
				"x": -1.4289496352,
				"y": 2.3022023192,
				"z": -0.4189005927,
				"element": "C" 
			},
			{
				"x": 2.4984194062,
				"y": -2.5836232146,
				"z": -1.4339207986,
				"element": "H" 
			},
			{
				"x": 0.6957981086,
				"y": -0.9322910213,
				"z": -1.0344398251,
				"element": "H" 
			},
			{
				"x": 3.6039181081,
				"y": 2.2187755526,
				"z": -0.8470318492,
				"element": "H" 
			},
			{
				"x": 5.4315353938,
				"y": 0.5529543916,
				"z": -1.2113464284,
				"element": "H" 
			},
			{
				"x": 0.3538591306,
				"y": -0.0997014627,
				"z": 1.2127064988,
				"element": "H" 
			},
			{
				"x": -1.8550770394,
				"y": -0.4696290622,
				"z": 2.2589556197,
				"element": "H" 
			},
			{
				"x": -3.8024131812,
				"y": 0.9163760594,
				"z": 1.5833203716,
				"element": "H" 
			},
			{
				"x": -3.5213413263,
				"y": 2.7011827384,
				"z": -0.1245254738,
				"element": "H" 
			},
			{
				"x": -1.2805245837,
				"y": 3.0907365794,
				"z": -1.1491100371,
				"element": "H" 
			}
		],
		 "valence_orbital": [ 
			{
				"type": "occ",
				"energy": -0.27339,
				"method": "rhf"
			},
			{
				"type": "occ",
				"energy": -0.26623,
				"method": "rhf"
			},
			{
				"type": "occ",
				"energy": -0.26375,
				"method": "rhf"
			},
			{
				"type": "occ",
				"energy": -0.25808,
				"method": "rhf"
			},
			{
				"type": "occ",
				"energy": -0.2485,
				"method": "rhf"
			},
			{
				"type": "unocc",
				"energy": -0.07055,
				"method": "rhf"
			},
			{
				"type": "unocc",
				"energy": -0.02529,
				"method": "rhf"
			},
			{
				"type": "unocc",
				"energy": -0.01977,
				"method": "rhf"
			},
			{
				"type": "unocc",
				"energy": -0.01177,
				"method": "rhf"
			},
			{
				"type": "unocc",
				"energy": 0.02429,
				"method": "rhf"
			}
		],
		"cosmo_sigma_profile": { 
			"-0.025": 0.0,
			"-0.024": 0.0,
			"-0.023": 0.0,
			"-0.022": 0.0,
			"-0.021": 0.0,
			"-0.02": 0.0,
			"-0.019": 0.0,
			"-0.018": 0.0,
			"-0.017": 0.0,
			"-0.016": 0.0,
			"-0.015": 0.0,
			"-0.014": 0.0,
			"-0.013": 0.0,
			"-0.012": 0.0,
			"-0.011": 0.0,
			"-0.01": 0.0,
			"-0.009": 0.0,
			"-0.008": 1.45615758688,
			"-0.007": 6.79148583322,
			"-0.006": 15.8640786146,
			"-0.005": 18.2184374809,
			"-0.004": 19.1144159723,
			"-0.003": 16.5642245292,
			"-0.002": 17.4026252774,
			"-0.001": 15.9627353606,
			"0.0": 19.4166085717,
			"0.001": 22.2589092872,
			"0.002": 27.8487593377,
			"0.003": 21.4235480984,
			"0.004": 23.1409480766,
			"0.005": 5.81268641668,
			"0.006": 1.8327584397,
			"0.007": 1.68913953121,
			"0.008": 1.7658483802,
			"0.009": 1.43968493875,
			"0.01": 2.45785013847,
			"0.011": 2.77159699099,
			"0.012": 3.87322627601,
			"0.013": 0.443712536216,
			"0.014": 0.0,
			"0.015": 0.0,
			"0.016": 0.0,
			"0.017": 0.0,
			"0.018": 0.0,
			"0.019": 0.0,
			"0.02": 0.0,
			"0.021": 0.0,
			"0.022": 0.0,
			"0.023": 0.0,
			"0.024": 0.0,
			"0.025": 0.0
		}
	}
}
