{
	 "smiles": "CC(=O)NC1=C(C#N)C2=C(CCCC2)S1", 
	 "Tm": 489.15, 
	 "num_atms": 27, 
	 "gaussian": { 
		 "optdone": 1, 
		 "sigma_profile": "yes", 
		 "theory": "DFT", 
		 "functional": "B3LYP", 
		 "basiset": "6-31G**", 
		 "properties": { 
			 "R2extent": 4615.362, 
			 "electric_dipole_moment_norm": 6.42891994117, 
			 "electric_quadrupole_moment_norm": 16.3020489252, 
			 "total_energy": -1009.32017011, 
			 "HOMO_LUMO_gap": 0.17049, 
			 "cosmo_polarized_energy": -13.7, 
			 "cosmo_cavitation_energy": 31.9, 
			 "cosmo_dispersion_energy": -23.33, 
			 "cosmo_repulsion_energy": 1.79, 
			 "cosmo_total_nonelectrostatic_energy": 10.37, 
			 "SMD_solvation_energy": 6.38 
		},
		"coords": [
			{
				"x": -0.7510913852,
				"y": -3.29024207,
				"z": 3.3054284816,
				"element": "C" 
			},
			{
				"x": -1.8433507443,
				"y": -3.416855525,
				"z": 2.2684535534,
				"element": "C" 
			},
			{
				"x": -2.8194221908,
				"y": -4.1309642492,
				"z": 2.4172727265,
				"element": "O" 
			},
			{
				"x": -1.7361065666,
				"y": -2.6849671372,
				"z": 1.0820438035,
				"element": "N" 
			},
			{
				"x": -0.8059218885,
				"y": -1.798905208,
				"z": 0.5723256442,
				"element": "C" 
			},
			{
				"x": -0.9279354134,
				"y": -1.1801257807,
				"z": -0.6657842124,
				"element": "C" 
			},
			{
				"x": -2.0419840082,
				"y": -1.4168915069,
				"z": -1.5138131627,
				"element": "C" 
			},
			{
				"x": -2.9702837873,
				"y": -1.6317415999,
				"z": -2.1859984954,
				"element": "N" 
			},
			{
				"x": 0.169414052,
				"y": -0.2957119195,
				"z": -0.9783275034,
				"element": "C" 
			},
			{
				"x": 1.1052219192,
				"y": -0.2552226987,
				"z": 0.0101561209,
				"element": "C" 
			},
			{
				"x": 2.3621708678,
				"y": 0.5701749478,
				"z": 0.000014734,
				"element": "C" 
			},
			{
				"x": 2.6464716792,
				"y": 1.0619482038,
				"z": -1.4332216364,
				"element": "C" 
			},
			{
				"x": 1.3744594179,
				"y": 1.5982984194,
				"z": -2.1076654914,
				"element": "C" 
			},
			{
				"x": 0.3044642847,
				"y": 0.5017066072,
				"z": -2.251278245,
				"element": "C" 
			},
			{
				"x": 0.6700702811,
				"y": -1.2939582369,
				"z": 1.361153514,
				"element": "S" 
			},
			{
				"x": 0.2180223877,
				"y": -3.6083367893,
				"z": 2.9081726593,
				"element": "H" 
			},
			{
				"x": -0.6498675116,
				"y": -2.2588547503,
				"z": 3.6577690735,
				"element": "H" 
			},
			{
				"x": -1.022760655,
				"y": -3.930907864,
				"z": 4.1438711807,
				"element": "H" 
			},
			{
				"x": -2.5318455691,
				"y": -2.8577501174,
				"z": 0.4730420526,
				"element": "H" 
			},
			{
				"x": 2.2532527909,
				"y": 1.4312719576,
				"z": 0.6750795873,
				"element": "H" 
			},
			{
				"x": 3.2146578599,
				"y": -0.0085346212,
				"z": 0.3760193289,
				"element": "H" 
			},
			{
				"x": 3.4207530223,
				"y": 1.8360625274,
				"z": -1.4050087308,
				"element": "H" 
			},
			{
				"x": 3.0483060843,
				"y": 0.2304809483,
				"z": -2.0262026214,
				"element": "H" 
			},
			{
				"x": 0.9694679632,
				"y": 2.4240607445,
				"z": -1.5082463611,
				"element": "H" 
			},
			{
				"x": 1.6129965253,
				"y": 2.0115558717,
				"z": -3.09331792,
				"element": "H" 
			},
			{
				"x": -0.6624714155,
				"y": 0.9407839321,
				"z": -2.5235508452,
				"element": "H" 
			},
			{
				"x": 0.568412,
				"y": -0.1760740854,
				"z": -3.0754872348,
				"element": "H" 
			}
		],
		 "valence_orbital": [ 
			{
				"type": "occ",
				"energy": -0.3321,
				"method": "rhf"
			},
			{
				"type": "occ",
				"energy": -0.31451,
				"method": "rhf"
			},
			{
				"type": "occ",
				"energy": -0.2726,
				"method": "rhf"
			},
			{
				"type": "occ",
				"energy": -0.26361,
				"method": "rhf"
			},
			{
				"type": "occ",
				"energy": -0.21856,
				"method": "rhf"
			},
			{
				"type": "unocc",
				"energy": -0.04807,
				"method": "rhf"
			},
			{
				"type": "unocc",
				"energy": -0.00659,
				"method": "rhf"
			},
			{
				"type": "unocc",
				"energy": 0.00835,
				"method": "rhf"
			},
			{
				"type": "unocc",
				"energy": 0.01773,
				"method": "rhf"
			},
			{
				"type": "unocc",
				"energy": 0.03351,
				"method": "rhf"
			}
		],
		"cosmo_sigma_profile": { 
			"-0.025": 0.0,
			"-0.024": 0.0,
			"-0.023": 0.0,
			"-0.022": 0.0,
			"-0.021": 0.0,
			"-0.02": 0.0,
			"-0.019": 0.0,
			"-0.018": 0.0,
			"-0.017": 0.0,
			"-0.016": 0.0,
			"-0.015": 0.0,
			"-0.014": 0.0,
			"-0.013": 0.000363161788367,
			"-0.012": 0.89284947976,
			"-0.011": 1.069496184,
			"-0.01": 0.986321390427,
			"-0.009": 1.2128880051,
			"-0.008": 2.28621354974,
			"-0.007": 4.59886152199,
			"-0.006": 6.98381524579,
			"-0.005": 10.8810758305,
			"-0.004": 21.1000206259,
			"-0.003": 31.9829467094,
			"-0.002": 37.7763128557,
			"-0.001": 32.7960952188,
			"0.0": 24.1051713319,
			"0.001": 15.1303830797,
			"0.002": 10.4019187241,
			"0.003": 7.96289958818,
			"0.004": 3.11702663568,
			"0.005": 3.10705169563,
			"0.006": 3.37241419019,
			"0.007": 3.11055913289,
			"0.008": 3.97403332598,
			"0.009": 4.91438427791,
			"0.01": 4.74485456052,
			"0.011": 5.49707252485,
			"0.012": 7.65914849932,
			"0.013": 4.82937202561,
			"0.014": 0.388885726583,
			"0.015": 0.0,
			"0.016": 0.0,
			"0.017": 0.0,
			"0.018": 0.0,
			"0.019": 0.0,
			"0.02": 0.0,
			"0.021": 0.0,
			"0.022": 0.0,
			"0.023": 0.0,
			"0.024": 0.0,
			"0.025": 0.0
		}
	}
}
