{
	 "smiles": "CNC=O", 
	 "Tm": 269.95, 
	 "num_atms": 9, 
	 "gaussian": { 
		 "optdone": 1, 
		 "sigma_profile": "yes", 
		 "theory": "DFT", 
		 "functional": "B3LYP", 
		 "basiset": "6-31G**", 
		 "properties": { 
			 "R2extent": 787.7661, 
			 "electric_dipole_moment_norm": 3.78655201734, 
			 "electric_quadrupole_moment_norm": 12.344465628, 
			 "total_energy": -209.205082159, 
			 "HOMO_LUMO_gap": 0.28336, 
			 "cosmo_polarized_energy": -10.66, 
			 "cosmo_cavitation_energy": 12.55, 
			 "cosmo_dispersion_energy": -9.45, 
			 "cosmo_repulsion_energy": 0.89, 
			 "cosmo_total_nonelectrostatic_energy": 3.98, 
			 "SMD_solvation_energy": 3.75 
		},
		"coords": [
			{
				"x": -0.9825967642,
				"y": 2.6639622356,
				"z": -0.4771482598,
				"element": "C" 
			},
			{
				"x": -0.6522807123,
				"y": 1.2699069821,
				"z": -0.7179840427,
				"element": "N" 
			},
			{
				"x": -1.5929295932,
				"y": 0.332046315,
				"z": -1.0226739517,
				"element": "C" 
			},
			{
				"x": -2.7897167874,
				"y": 0.5399084938,
				"z": -1.1281430942,
				"element": "O" 
			},
			{
				"x": -2.06224798,
				"y": 2.7644284627,
				"z": -0.5929080323,
				"element": "H" 
			},
			{
				"x": -0.4831252535,
				"y": 3.3221999135,
				"z": -1.196646434,
				"element": "H" 
			},
			{
				"x": -0.7018471903,
				"y": 2.9713671254,
				"z": 0.5363587686,
				"element": "H" 
			},
			{
				"x": 0.3102969657,
				"y": 0.9727092743,
				"z": -0.6586944665,
				"element": "H" 
			},
			{
				"x": -1.1413526849,
				"y": -0.6696288024,
				"z": -1.1690604873,
				"element": "H" 
			}
		],
		 "valence_orbital": [ 
			{
				"type": "occ",
				"energy": -0.40962,
				"method": "rhf"
			},
			{
				"type": "occ",
				"energy": -0.39099,
				"method": "rhf"
			},
			{
				"type": "occ",
				"energy": -0.37703,
				"method": "rhf"
			},
			{
				"type": "occ",
				"energy": -0.25435,
				"method": "rhf"
			},
			{
				"type": "occ",
				"energy": -0.25136,
				"method": "rhf"
			},
			{
				"type": "unocc",
				"energy": 0.032,
				"method": "rhf"
			},
			{
				"type": "unocc",
				"energy": 0.07753,
				"method": "rhf"
			},
			{
				"type": "unocc",
				"energy": 0.12187,
				"method": "rhf"
			},
			{
				"type": "unocc",
				"energy": 0.13578,
				"method": "rhf"
			},
			{
				"type": "unocc",
				"energy": 0.16422,
				"method": "rhf"
			}
		],
		"cosmo_sigma_profile": { 
			"-0.025": 0.0,
			"-0.024": 0.0,
			"-0.023": 0.0,
			"-0.022": 0.0,
			"-0.021": 0.0,
			"-0.02": 0.0,
			"-0.019": 0.0,
			"-0.018": 0.0,
			"-0.017": 0.0,
			"-0.016": 0.0,
			"-0.015": 0.399394168879,
			"-0.014": 1.76449652515,
			"-0.013": 1.42939679381,
			"-0.012": 1.32145322839,
			"-0.011": 1.26646885555,
			"-0.01": 1.09173774691,
			"-0.009": 1.6444468285,
			"-0.008": 1.84087334955,
			"-0.007": 2.5033700778,
			"-0.006": 3.34227419943,
			"-0.005": 6.91769017249,
			"-0.004": 9.38826276967,
			"-0.003": 8.36267208168,
			"-0.002": 9.15002559119,
			"-0.001": 7.89833441741,
			"0.0": 4.26353662277,
			"0.001": 4.04894835664,
			"0.002": 4.60695956814,
			"0.003": 2.63791784009,
			"0.004": 1.21426545736,
			"0.005": 2.39916318225,
			"0.006": 1.82980754611,
			"0.007": 1.12347340767,
			"0.008": 1.50947196761,
			"0.009": 1.57948090975,
			"0.01": 1.29414297431,
			"0.011": 1.53723571425,
			"0.012": 2.17599941333,
			"0.013": 3.6381119883,
			"0.014": 5.14320635435,
			"0.015": 1.39223933333,
			"0.016": 0.0772343803682,
			"0.017": 0.0,
			"0.018": 0.0,
			"0.019": 0.0,
			"0.02": 0.0,
			"0.021": 0.0,
			"0.022": 0.0,
			"0.023": 0.0,
			"0.024": 0.0,
			"0.025": 0.0
		}
	}
}
