{
	 "smiles": "BrC1=CC=C(NN=C2C(=O)NC(=O)NC2=O)C=C1", 
	 "Tm": 568.15, 
	 "num_atms": 25, 
	 "gaussian": { 
		 "optdone": 1, 
		 "sigma_profile": "yes", 
		 "theory": "DFT", 
		 "functional": "B3LYP", 
		 "basiset": "6-31G**", 
		 "properties": { 
			 "R2extent": 10375.404, 
			 "electric_dipole_moment_norm": 2.4985196217, 
			 "electric_quadrupole_moment_norm": 10.7074000607, 
			 "total_energy": -3401.39178271, 
			 "HOMO_LUMO_gap": 0.13174, 
			 "cosmo_polarized_energy": -19.42, 
			 "cosmo_cavitation_energy": 34.01, 
			 "cosmo_dispersion_energy": -25.49, 
			 "cosmo_repulsion_energy": 1.95, 
			 "cosmo_total_nonelectrostatic_energy": 10.47, 
			 "SMD_solvation_energy": 6.33 
		},
		"coords": [
			{
				"x": -3.1370620032,
				"y": -1.0877562737,
				"z": 5.1162057733,
				"element": "Br" 
			},
			{
				"x": -2.2260401125,
				"y": -0.6005925964,
				"z": 3.5128576799,
				"element": "C" 
			},
			{
				"x": -1.6379333583,
				"y": 0.659322835,
				"z": 3.4118840147,
				"element": "C" 
			},
			{
				"x": -0.9738370677,
				"y": 1.0111265865,
				"z": 2.2394892647,
				"element": "C" 
			},
			{
				"x": -0.9019576993,
				"y": 0.1024894655,
				"z": 1.1768705074,
				"element": "C" 
			},
			{
				"x": -0.2212011435,
				"y": 0.5011207791,
				"z": 0.0125481638,
				"element": "N" 
			},
			{
				"x": -0.1201546684,
				"y": -0.2959194041,
				"z": -1.0089304038,
				"element": "N" 
			},
			{
				"x": 0.519323326,
				"y": 0.0822331956,
				"z": -2.0993373599,
				"element": "C" 
			},
			{
				"x": 0.5652355564,
				"y": -0.9153547711,
				"z": -3.1934373643,
				"element": "C" 
			},
			{
				"x": 0.0719680944,
				"y": -2.0263062183,
				"z": -3.1639854371,
				"element": "O" 
			},
			{
				"x": 1.2544041121,
				"y": -0.4726102353,
				"z": -4.334372101,
				"element": "N" 
			},
			{
				"x": 1.8742206894,
				"y": 0.7470865334,
				"z": -4.5455784466,
				"element": "C" 
			},
			{
				"x": 2.4502158568,
				"y": 1.0422612281,
				"z": -5.5732794405,
				"element": "O" 
			},
			{
				"x": 1.7817649738,
				"y": 1.6247664867,
				"z": -3.4630294531,
				"element": "N" 
			},
			{
				"x": 1.1534453387,
				"y": 1.3943173189,
				"z": -2.2519863166,
				"element": "C" 
			},
			{
				"x": 1.1489065854,
				"y": 2.2684382549,
				"z": -1.3753499899,
				"element": "O" 
			},
			{
				"x": -1.4947211037,
				"y": -1.162523681,
				"z": 1.28355013,
				"element": "C" 
			},
			{
				"x": -2.1571991377,
				"y": -1.5109779009,
				"z": 2.4556173394,
				"element": "C" 
			},
			{
				"x": -1.6969008969,
				"y": 1.3584951801,
				"z": 4.2377282838,
				"element": "H" 
			},
			{
				"x": -0.5126154037,
				"y": 1.9910085057,
				"z": 2.1520637647,
				"element": "H" 
			},
			{
				"x": 0.2126415509,
				"y": 1.4316240248,
				"z": -0.0593760547,
				"element": "H" 
			},
			{
				"x": 1.3064181692,
				"y": -1.1286657601,
				"z": -5.1040092389,
				"element": "H" 
			},
			{
				"x": 2.226290315,
				"y": 2.526288696,
				"z": -3.5879241139,
				"element": "H" 
			},
			{
				"x": -1.4299554375,
				"y": -1.8540580709,
				"z": 0.4518510631,
				"element": "H" 
			},
			{
				"x": -2.6192565358,
				"y": -2.4870141786,
				"z": 2.5487297354,
				"element": "H" 
			}
		],
		 "valence_orbital": [ 
			{
				"type": "occ",
				"energy": -0.29602,
				"method": "rhf"
			},
			{
				"type": "occ",
				"energy": -0.2865,
				"method": "rhf"
			},
			{
				"type": "occ",
				"energy": -0.282,
				"method": "rhf"
			},
			{
				"type": "occ",
				"energy": -0.26843,
				"method": "rhf"
			},
			{
				"type": "occ",
				"energy": -0.23351,
				"method": "rhf"
			},
			{
				"type": "unocc",
				"energy": -0.10177,
				"method": "rhf"
			},
			{
				"type": "unocc",
				"energy": -0.03141,
				"method": "rhf"
			},
			{
				"type": "unocc",
				"energy": -0.01581,
				"method": "rhf"
			},
			{
				"type": "unocc",
				"energy": -0.00902,
				"method": "rhf"
			},
			{
				"type": "unocc",
				"energy": -0.00275,
				"method": "rhf"
			}
		],
		"cosmo_sigma_profile": { 
			"-0.025": 0.0,
			"-0.024": 0.0,
			"-0.023": 0.0,
			"-0.022": 0.0,
			"-0.021": 0.0,
			"-0.02": 0.0,
			"-0.019": 0.0,
			"-0.018": 0.0,
			"-0.017": 0.340146393242,
			"-0.016": 2.06954073545,
			"-0.015": 1.69590133269,
			"-0.014": 1.35419055121,
			"-0.013": 2.6230421119,
			"-0.012": 1.9004726903,
			"-0.011": 2.84880194392,
			"-0.01": 2.94219914687,
			"-0.009": 4.1293974694,
			"-0.008": 6.40989289848,
			"-0.007": 10.3245070041,
			"-0.006": 13.2104582939,
			"-0.005": 15.4819586588,
			"-0.004": 15.3678258234,
			"-0.003": 18.3416811565,
			"-0.002": 17.6047574592,
			"-0.001": 14.9725818512,
			"0.0": 17.1821636664,
			"0.001": 19.3483500772,
			"0.002": 25.6176602488,
			"0.003": 15.5530073272,
			"0.004": 14.619434565,
			"0.005": 6.99042691038,
			"0.006": 3.20091103905,
			"0.007": 4.23287139353,
			"0.008": 4.3640422362,
			"0.009": 4.24286396338,
			"0.01": 6.04817631333,
			"0.011": 9.7526775315,
			"0.012": 11.0265040509,
			"0.013": 2.99520502752,
			"0.014": 0.60242529923,
			"0.015": 0.0,
			"0.016": 0.0,
			"0.017": 0.0,
			"0.018": 0.0,
			"0.019": 0.0,
			"0.02": 0.0,
			"0.021": 0.0,
			"0.022": 0.0,
			"0.023": 0.0,
			"0.024": 0.0,
			"0.025": 0.0
		}
	}
}
