{
	 "smiles": "N#CC1=CC=CC=C1C1=CC=CC=C1", 
	 "Tm": 312.65, 
	 "num_atms": 23, 
	 "gaussian": { 
		 "optdone": 1, 
		 "sigma_profile": "yes", 
		 "theory": "DFT", 
		 "functional": "B3LYP", 
		 "basiset": "6-31G**", 
		 "properties": { 
			 "R2extent": 3215.4366, 
			 "electric_dipole_moment_norm": 4.15650416697, 
			 "electric_quadrupole_moment_norm": 18.5094316844, 
			 "total_energy": -555.548300646, 
			 "HOMO_LUMO_gap": 0.18552, 
			 "cosmo_polarized_energy": -10.01, 
			 "cosmo_cavitation_energy": 28.03, 
			 "cosmo_dispersion_energy": -19.76, 
			 "cosmo_repulsion_energy": 1.54, 
			 "cosmo_total_nonelectrostatic_energy": 9.81, 
			 "SMD_solvation_energy": 5.73 
		},
		"coords": [
			{
				"x": 1.8912468692,
				"y": -2.3438327118,
				"z": 2.8469794731,
				"element": "N" 
			},
			{
				"x": 1.0119070958,
				"y": -1.8530415543,
				"z": 2.2640292714,
				"element": "C" 
			},
			{
				"x": -0.1166685636,
				"y": -1.2633704506,
				"z": 1.6007383643,
				"element": "C" 
			},
			{
				"x": -1.3374196048,
				"y": -1.2417806966,
				"z": 2.2992589435,
				"element": "C" 
			},
			{
				"x": -2.4824117216,
				"y": -0.7252440528,
				"z": 1.7032736532,
				"element": "C" 
			},
			{
				"x": -2.4131347051,
				"y": -0.2275737689,
				"z": 0.4004959211,
				"element": "C" 
			},
			{
				"x": -1.2048708828,
				"y": -0.2438795147,
				"z": -0.2931634805,
				"element": "C" 
			},
			{
				"x": -0.0298322923,
				"y": -0.753985012,
				"z": 0.2809603741,
				"element": "C" 
			},
			{
				"x": 1.2333655062,
				"y": -0.7474427862,
				"z": -0.5028153046,
				"element": "C" 
			},
			{
				"x": 2.4406482937,
				"y": -0.2899012112,
				"z": 0.0499405405,
				"element": "C" 
			},
			{
				"x": 3.606447856,
				"y": -0.2649545558,
				"z": -0.7142889663,
				"element": "C" 
			},
			{
				"x": 3.5883426042,
				"y": -0.6963586715,
				"z": -2.0416475492,
				"element": "C" 
			},
			{
				"x": 2.3943131851,
				"y": -1.1526811135,
				"z": -2.6030095471,
				"element": "C" 
			},
			{
				"x": 1.2271757035,
				"y": -1.1756018799,
				"z": -1.8414117546,
				"element": "C" 
			},
			{
				"x": -1.3722957623,
				"y": -1.6442079582,
				"z": 3.306239944,
				"element": "H" 
			},
			{
				"x": -3.4198721324,
				"y": -0.7122775914,
				"z": 2.2500916104,
				"element": "H" 
			},
			{
				"x": -3.2995510878,
				"y": 0.1827809727,
				"z": -0.0742308052,
				"element": "H" 
			},
			{
				"x": -1.1551570519,
				"y": 0.1675012417,
				"z": -1.2963357729,
				"element": "H" 
			},
			{
				"x": 2.4660839545,
				"y": 0.0610214378,
				"z": 1.0760547016,
				"element": "H" 
			},
			{
				"x": 4.5295888904,
				"y": 0.0962489443,
				"z": -0.2708015446,
				"element": "H" 
			},
			{
				"x": 4.4985533563,
				"y": -0.6787176136,
				"z": -2.6339150005,
				"element": "H" 
			},
			{
				"x": 2.3719648884,
				"y": -1.4978522211,
				"z": -3.6326576945,
				"element": "H" 
			},
			{
				"x": 0.3055756012,
				"y": -1.5504492325,
				"z": -2.2771853771,
				"element": "H" 
			}
		],
		 "valence_orbital": [ 
			{
				"type": "occ",
				"energy": -0.32341,
				"method": "rhf"
			},
			{
				"type": "occ",
				"energy": -0.28521,
				"method": "rhf"
			},
			{
				"type": "occ",
				"energy": -0.26563,
				"method": "rhf"
			},
			{
				"type": "occ",
				"energy": -0.25584,
				"method": "rhf"
			},
			{
				"type": "occ",
				"energy": -0.24009,
				"method": "rhf"
			},
			{
				"type": "unocc",
				"energy": -0.05457,
				"method": "rhf"
			},
			{
				"type": "unocc",
				"energy": -0.03306,
				"method": "rhf"
			},
			{
				"type": "unocc",
				"energy": -0.00809,
				"method": "rhf"
			},
			{
				"type": "unocc",
				"energy": 0.00975,
				"method": "rhf"
			},
			{
				"type": "unocc",
				"energy": 0.04251,
				"method": "rhf"
			}
		],
		"cosmo_sigma_profile": { 
			"-0.025": 0.0,
			"-0.024": 0.0,
			"-0.023": 0.0,
			"-0.022": 0.0,
			"-0.021": 0.0,
			"-0.02": 0.0,
			"-0.019": 0.0,
			"-0.018": 0.0,
			"-0.017": 0.0,
			"-0.016": 0.0,
			"-0.015": 0.0,
			"-0.014": 0.0,
			"-0.013": 0.0,
			"-0.012": 0.0,
			"-0.011": 0.0,
			"-0.01": 0.0,
			"-0.009": 0.0,
			"-0.008": 1.13575713613,
			"-0.007": 6.89305595653,
			"-0.006": 17.2072346488,
			"-0.005": 21.3796638078,
			"-0.004": 18.6350048334,
			"-0.003": 14.8745317631,
			"-0.002": 13.9008165229,
			"-0.001": 15.724296866,
			"0.0": 16.3421295875,
			"0.001": 16.4360093389,
			"0.002": 19.8677750393,
			"0.003": 17.2418704124,
			"0.004": 11.588223104,
			"0.005": 12.3948205179,
			"0.006": 3.40413629923,
			"0.007": 3.2084358081,
			"0.008": 2.57467406882,
			"0.009": 3.76237782166,
			"0.01": 2.63486630539,
			"0.011": 3.18431232801,
			"0.012": 2.20239301114,
			"0.013": 1.89521426058,
			"0.014": 0.152425616326,
			"0.015": 0.0,
			"0.016": 0.0,
			"0.017": 0.0,
			"0.018": 0.0,
			"0.019": 0.0,
			"0.02": 0.0,
			"0.021": 0.0,
			"0.022": 0.0,
			"0.023": 0.0,
			"0.024": 0.0,
			"0.025": 0.0
		}
	}
}
