{
	 "smiles": "CCCCCCCCCCCC(Cl)=O", 
	 "Tm": 256.15, 
	 "num_atms": 37, 
	 "gaussian": { 
		 "optdone": 1, 
		 "sigma_profile": "yes", 
		 "theory": "DFT", 
		 "functional": "B3LYP", 
		 "basiset": "6-31G**", 
		 "properties": { 
			 "R2extent": 7469.4543, 
			 "electric_dipole_moment_norm": 2.92938830646, 
			 "electric_quadrupole_moment_norm": 17.0519727821, 
			 "total_energy": -1006.59345687, 
			 "HOMO_LUMO_gap": 0.25728, 
			 "cosmo_polarized_energy": -5.52, 
			 "cosmo_cavitation_energy": 39.75, 
			 "cosmo_dispersion_energy": -27.21, 
			 "cosmo_repulsion_energy": 2.26, 
			 "cosmo_total_nonelectrostatic_energy": 14.79, 
			 "SMD_solvation_energy": 5.99 
		},
		"coords": [
			{
				"x": 1.2268260538,
				"y": -4.2542436634,
				"z": -2.4545037444,
				"element": "C" 
			},
			{
				"x": 1.726168346,
				"y": -2.8146883758,
				"z": -2.6137133716,
				"element": "C" 
			},
			{
				"x": 0.9104115203,
				"y": -1.7961792925,
				"z": -1.8058907268,
				"element": "C" 
			},
			{
				"x": 1.4126248813,
				"y": -0.3555284025,
				"z": -1.9719979369,
				"element": "C" 
			},
			{
				"x": 0.6902316443,
				"y": 0.7123045368,
				"z": -1.1305201336,
				"element": "C" 
			},
			{
				"x": -0.8059414373,
				"y": 0.9148628054,
				"z": -1.4697543647,
				"element": "C" 
			},
			{
				"x": -1.8165219128,
				"y": 0.0851442703,
				"z": -0.6421692737,
				"element": "C" 
			},
			{
				"x": -2.3709113645,
				"y": 0.7909366809,
				"z": 0.6086269158,
				"element": "C" 
			},
			{
				"x": -1.3408247155,
				"y": 1.122889023,
				"z": 1.6967612126,
				"element": "C" 
			},
			{
				"x": -1.9846345441,
				"y": 1.7582472356,
				"z": 2.9371647927,
				"element": "C" 
			},
			{
				"x": -0.9939231755,
				"y": 2.0779700775,
				"z": 4.0635970449,
				"element": "C" 
			},
			{
				"x": -0.0761955936,
				"y": 3.2350638053,
				"z": 3.7492180336,
				"element": "C" 
			},
			{
				"x": 1.1583359376,
				"y": 3.5046546698,
				"z": 5.0866918421,
				"element": "Cl" 
			},
			{
				"x": -0.0838098555,
				"y": 3.9497194733,
				"z": 2.8001605776,
				"element": "O" 
			},
			{
				"x": 1.8290078069,
				"y": -4.9552195847,
				"z": -3.0419066725,
				"element": "H" 
			},
			{
				"x": 0.1863975641,
				"y": -4.3520214932,
				"z": -2.7853486525,
				"element": "H" 
			},
			{
				"x": 1.2705474412,
				"y": -4.5755068933,
				"z": -1.4073987272,
				"element": "H" 
			},
			{
				"x": 2.7800885902,
				"y": -2.7563752916,
				"z": -2.3091505187,
				"element": "H" 
			},
			{
				"x": 1.702887709,
				"y": -2.5344543391,
				"z": -3.6757630148,
				"element": "H" 
			},
			{
				"x": 0.9396599886,
				"y": -2.0735172428,
				"z": -0.7418437843,
				"element": "H" 
			},
			{
				"x": -0.1427078483,
				"y": -1.8643644995,
				"z": -2.1096159018,
				"element": "H" 
			},
			{
				"x": 2.4825121674,
				"y": -0.3272772634,
				"z": -1.7225937618,
				"element": "H" 
			},
			{
				"x": 1.3446372206,
				"y": -0.0744675194,
				"z": -3.033090988,
				"element": "H" 
			},
			{
				"x": 1.2188752759,
				"y": 1.6621817694,
				"z": -1.2786758276,
				"element": "H" 
			},
			{
				"x": 0.8053622741,
				"y": 0.4707493853,
				"z": -0.0663483054,
				"element": "H" 
			},
			{
				"x": -0.9473971271,
				"y": 0.6951106072,
				"z": -2.5361035556,
				"element": "H" 
			},
			{
				"x": -1.0616829802,
				"y": 1.9766791116,
				"z": -1.3574862709,
				"element": "H" 
			},
			{
				"x": -1.3664492304,
				"y": -0.8710562409,
				"z": -0.3478685953,
				"element": "H" 
			},
			{
				"x": -2.6728470447,
				"y": -0.1713133539,
				"z": -1.2785021778,
				"element": "H" 
			},
			{
				"x": -2.8712344885,
				"y": 1.7195734146,
				"z": 0.2986001798,
				"element": "H" 
			},
			{
				"x": -3.1548561065,
				"y": 0.1575253492,
				"z": 1.0472884911,
				"element": "H" 
			},
			{
				"x": -0.583018756,
				"y": 1.8054578855,
				"z": 1.2977677899,
				"element": "H" 
			},
			{
				"x": -0.8138716794,
				"y": 0.204543835,
				"z": 1.994058164,
				"element": "H" 
			},
			{
				"x": -2.5119021001,
				"y": 2.6761118128,
				"z": 2.6520063706,
				"element": "H" 
			},
			{
				"x": -2.7418844761,
				"y": 1.0768887362,
				"z": 3.3448884211,
				"element": "H" 
			},
			{
				"x": -0.3660776037,
				"y": 1.2146364421,
				"z": 4.3138940049,
				"element": "H" 
			},
			{
				"x": -1.5120823815,
				"y": 2.3428625292,
				"z": 4.9939224648,
				"element": "H" 
			}
		],
		 "valence_orbital": [ 
			{
				"type": "occ",
				"energy": -0.31333,
				"method": "rhf"
			},
			{
				"type": "occ",
				"energy": -0.30944,
				"method": "rhf"
			},
			{
				"type": "occ",
				"energy": -0.30275,
				"method": "rhf"
			},
			{
				"type": "occ",
				"energy": -0.29945,
				"method": "rhf"
			},
			{
				"type": "occ",
				"energy": -0.29497,
				"method": "rhf"
			},
			{
				"type": "unocc",
				"energy": -0.03769,
				"method": "rhf"
			},
			{
				"type": "unocc",
				"energy": 0.01736,
				"method": "rhf"
			},
			{
				"type": "unocc",
				"energy": 0.07955,
				"method": "rhf"
			},
			{
				"type": "unocc",
				"energy": 0.08859,
				"method": "rhf"
			},
			{
				"type": "unocc",
				"energy": 0.09927,
				"method": "rhf"
			}
		],
		"cosmo_sigma_profile": { 
			"-0.025": 0.0,
			"-0.024": 0.0,
			"-0.023": 0.0,
			"-0.022": 0.0,
			"-0.021": 0.0,
			"-0.02": 0.0,
			"-0.019": 0.0,
			"-0.018": 0.0,
			"-0.017": 0.0,
			"-0.016": 0.0,
			"-0.015": 0.0,
			"-0.014": 0.0,
			"-0.013": 0.0,
			"-0.012": 0.0,
			"-0.011": 0.0,
			"-0.01": 0.0,
			"-0.009": 0.0,
			"-0.008": 1.19810288257,
			"-0.007": 4.96886213457,
			"-0.006": 5.24215903237,
			"-0.005": 5.89093006236,
			"-0.004": 9.17085705957,
			"-0.003": 13.8409059644,
			"-0.002": 32.4309586331,
			"-0.001": 61.1473121715,
			"0.0": 64.1062419174,
			"0.001": 45.8976043647,
			"0.002": 22.6207546435,
			"0.003": 7.18044155989,
			"0.004": 10.2080362155,
			"0.005": 11.2022504817,
			"0.006": 4.3781805693,
			"0.007": 2.45168496017,
			"0.008": 4.26761805306,
			"0.009": 2.424316684,
			"0.01": 0.0668177641991,
			"0.011": 0.0,
			"0.012": 0.0,
			"0.013": 0.0,
			"0.014": 0.0,
			"0.015": 0.0,
			"0.016": 0.0,
			"0.017": 0.0,
			"0.018": 0.0,
			"0.019": 0.0,
			"0.02": 0.0,
			"0.021": 0.0,
			"0.022": 0.0,
			"0.023": 0.0,
			"0.024": 0.0,
			"0.025": 0.0
		}
	}
}
