{
	 "smiles": "FC(F)(F)C(F)(F)C(F)(F)C(F)(F)C(F)(F)F", 
	 "Tm": 173.15, 
	 "num_atms": 17, 
	 "gaussian": { 
		 "optdone": 1, 
		 "sigma_profile": "yes", 
		 "theory": "DFT", 
		 "functional": "B3LYP", 
		 "basiset": "6-31G**", 
		 "properties": { 
			 "R2extent": 3604.1712, 
			 "electric_dipole_moment_norm": 0.131343709404, 
			 "electric_quadrupole_moment_norm": 0.562566751595, 
			 "total_energy": -1388.57939474, 
			 "HOMO_LUMO_gap": 0.37813, 
			 "cosmo_polarized_energy": -0.91, 
			 "cosmo_cavitation_energy": 26.07, 
			 "cosmo_dispersion_energy": -17.4, 
			 "cosmo_repulsion_energy": 1.13, 
			 "cosmo_total_nonelectrostatic_energy": 9.79, 
			 "SMD_solvation_energy": 8.62 
		},
		"coords": [
			{
				"x": -2.5963879535,
				"y": 0.451200953,
				"z": -1.2008739514,
				"element": "F" 
			},
			{
				"x": -1.5763920783,
				"y": 1.1210760823,
				"z": -0.6565036586,
				"element": "C" 
			},
			{
				"x": -2.0303950423,
				"y": 1.8685022113,
				"z": 0.3579622206,
				"element": "F" 
			},
			{
				"x": -1.0430153264,
				"y": 1.9252902497,
				"z": -1.5832283839,
				"element": "F" 
			},
			{
				"x": -0.4835104328,
				"y": 0.1383410615,
				"z": -0.1587417774,
				"element": "C" 
			},
			{
				"x": -0.1991891755,
				"y": -0.7079900303,
				"z": -1.174286318,
				"element": "F" 
			},
			{
				"x": 0.6185469666,
				"y": 0.864929908,
				"z": 0.1401860698,
				"element": "F" 
			},
			{
				"x": -0.8826808151,
				"y": -0.6748959474,
				"z": 1.0992294668,
				"element": "C" 
			},
			{
				"x": -0.8653652287,
				"y": 0.1543414507,
				"z": 2.1652201421,
				"element": "F" 
			},
			{
				"x": -2.1440589092,
				"y": -1.1401917514,
				"z": 0.9230985984,
				"element": "F" 
			},
			{
				"x": -0.007465497,
				"y": -1.9188636688,
				"z": 1.4350587729,
				"element": "C" 
			},
			{
				"x": -0.1760962471,
				"y": -2.8452374314,
				"z": 0.4671354486,
				"element": "F" 
			},
			{
				"x": -0.4844873735,
				"y": -2.408576699,
				"z": 2.6029928933,
				"element": "F" 
			},
			{
				"x": 1.5113600663,
				"y": -1.6862634982,
				"z": 1.6183355146,
				"element": "C" 
			},
			{
				"x": 2.0663943992,
				"y": -2.8028929096,
				"z": 2.1010795087,
				"element": "F" 
			},
			{
				"x": 2.0825228045,
				"y": -1.395937427,
				"z": 0.4417574324,
				"element": "F" 
			},
			{
				"x": 1.7346198426,
				"y": -0.6828325534,
				"z": 2.4752780213,
				"element": "F" 
			}
		],
		 "valence_orbital": [ 
			{
				"type": "occ",
				"energy": -0.43142,
				"method": "rhf"
			},
			{
				"type": "occ",
				"energy": -0.42957,
				"method": "rhf"
			},
			{
				"type": "occ",
				"energy": -0.42238,
				"method": "rhf"
			},
			{
				"type": "occ",
				"energy": -0.38831,
				"method": "rhf"
			},
			{
				"type": "occ",
				"energy": -0.35778,
				"method": "rhf"
			},
			{
				"type": "unocc",
				"energy": 0.02035,
				"method": "rhf"
			},
			{
				"type": "unocc",
				"energy": 0.02324,
				"method": "rhf"
			},
			{
				"type": "unocc",
				"energy": 0.07544,
				"method": "rhf"
			},
			{
				"type": "unocc",
				"energy": 0.08037,
				"method": "rhf"
			},
			{
				"type": "unocc",
				"energy": 0.13986,
				"method": "rhf"
			}
		],
		"cosmo_sigma_profile": { 
			"-0.025": 0.0,
			"-0.024": 0.0,
			"-0.023": 0.0,
			"-0.022": 0.0,
			"-0.021": 0.0,
			"-0.02": 0.0,
			"-0.019": 0.0,
			"-0.018": 0.0,
			"-0.017": 0.0,
			"-0.016": 0.0,
			"-0.015": 0.0,
			"-0.014": 0.0,
			"-0.013": 0.0,
			"-0.012": 0.0,
			"-0.011": 0.0,
			"-0.01": 0.0,
			"-0.009": 0.0,
			"-0.008": 0.0,
			"-0.007": 0.0,
			"-0.006": 0.0,
			"-0.005": 0.50349752133,
			"-0.004": 2.86063875184,
			"-0.003": 8.26924045644,
			"-0.002": 16.5998234859,
			"-0.001": 24.930244082,
			"0.0": 63.7549606472,
			"0.001": 89.8122408686,
			"0.002": 3.2159161686,
			"0.003": 0.0,
			"0.004": 0.0,
			"0.005": 0.0,
			"0.006": 0.0,
			"0.007": 0.0,
			"0.008": 0.0,
			"0.009": 0.0,
			"0.01": 0.0,
			"0.011": 0.0,
			"0.012": 0.0,
			"0.013": 0.0,
			"0.014": 0.0,
			"0.015": 0.0,
			"0.016": 0.0,
			"0.017": 0.0,
			"0.018": 0.0,
			"0.019": 0.0,
			"0.02": 0.0,
			"0.021": 0.0,
			"0.022": 0.0,
			"0.023": 0.0,
			"0.024": 0.0,
			"0.025": 0.0
		}
	}
}
