{
	 "smiles": "COC1=CC(C=O)=CC(OC)=C1", 
	 "Tm": 319.65, 
	 "num_atms": 22, 
	 "gaussian": { 
		 "optdone": 1, 
		 "sigma_profile": "yes", 
		 "theory": "DFT", 
		 "functional": "B3LYP", 
		 "basiset": "6-31G**", 
		 "properties": { 
			 "R2extent": 2598.8138, 
			 "electric_dipole_moment_norm": 5.77774443014, 
			 "electric_quadrupole_moment_norm": 12.7323934125, 
			 "total_energy": -574.621292194, 
			 "HOMO_LUMO_gap": 0.1625, 
			 "cosmo_polarized_energy": -11.72, 
			 "cosmo_cavitation_energy": 26.39, 
			 "cosmo_dispersion_energy": -19.12, 
			 "cosmo_repulsion_energy": 1.52, 
			 "cosmo_total_nonelectrostatic_energy": 8.8, 
			 "SMD_solvation_energy": 7.21 
		},
		"coords": [
			{
				"x": 1.3713979935,
				"y": -2.5468192632,
				"z": 0.1864560881,
				"element": "C" 
			},
			{
				"x": 1.7212044108,
				"y": -1.1953450077,
				"z": 0.4377973973,
				"element": "O" 
			},
			{
				"x": 0.8107668636,
				"y": -0.2194891639,
				"z": 0.1561957999,
				"element": "C" 
			},
			{
				"x": 1.2184080129,
				"y": 1.0902778372,
				"z": 0.4269942033,
				"element": "C" 
			},
			{
				"x": 0.3426167663,
				"y": 2.1473153357,
				"z": 0.1658390524,
				"element": "C" 
			},
			{
				"x": 0.7843698451,
				"y": 3.5334502884,
				"z": 0.4565414378,
				"element": "C" 
			},
			{
				"x": 0.1116599327,
				"y": 4.5288218731,
				"z": 0.2710345925,
				"element": "O" 
			},
			{
				"x": -0.9321999947,
				"y": 1.9191262629,
				"z": -0.3607078929,
				"element": "C" 
			},
			{
				"x": -1.3311832173,
				"y": 0.6092221741,
				"z": -0.6280853311,
				"element": "C" 
			},
			{
				"x": -2.5861356025,
				"y": 0.4614179825,
				"z": -1.140217326,
				"element": "O" 
			},
			{
				"x": -3.0560863012,
				"y": -0.8434730048,
				"z": -1.4360522499,
				"element": "C" 
			},
			{
				"x": -0.4642199766,
				"y": -0.4678470586,
				"z": -0.3720056068,
				"element": "C" 
			},
			{
				"x": 1.1615588647,
				"y": -2.720797268,
				"z": -0.8769711954,
				"element": "H" 
			},
			{
				"x": 2.2372177284,
				"y": -3.1412737528,
				"z": 0.4814891675,
				"element": "H" 
			},
			{
				"x": 0.5023300639,
				"y": -2.8584253678,
				"z": 0.7804287693,
				"element": "H" 
			},
			{
				"x": 2.2088337964,
				"y": 1.2640612608,
				"z": 0.835733371,
				"element": "H" 
			},
			{
				"x": 1.8138060406,
				"y": 3.6097418591,
				"z": 0.872843536,
				"element": "H" 
			},
			{
				"x": -1.5994244557,
				"y": 2.749832771,
				"z": -0.5576635768,
				"element": "H" 
			},
			{
				"x": -4.0661211451,
				"y": -0.7168706705,
				"z": -1.8282955999,
				"element": "H" 
			},
			{
				"x": -2.4355187754,
				"y": -1.3368804096,
				"z": -2.1955490254,
				"element": "H" 
			},
			{
				"x": -3.0962928648,
				"y": -1.4746208918,
				"z": -0.5385973478,
				"element": "H" 
			},
			{
				"x": -0.7783879858,
				"y": -1.480525786,
				"z": -0.580908263,
				"element": "H" 
			}
		],
		 "valence_orbital": [ 
			{
				"type": "occ",
				"energy": -0.33587,
				"method": "rhf"
			},
			{
				"type": "occ",
				"energy": -0.30213,
				"method": "rhf"
			},
			{
				"type": "occ",
				"energy": -0.25011,
				"method": "rhf"
			},
			{
				"type": "occ",
				"energy": -0.24857,
				"method": "rhf"
			},
			{
				"type": "occ",
				"energy": -0.21817,
				"method": "rhf"
			},
			{
				"type": "unocc",
				"energy": -0.05567,
				"method": "rhf"
			},
			{
				"type": "unocc",
				"energy": 0.00667,
				"method": "rhf"
			},
			{
				"type": "unocc",
				"energy": 0.05256,
				"method": "rhf"
			},
			{
				"type": "unocc",
				"energy": 0.07846,
				"method": "rhf"
			},
			{
				"type": "unocc",
				"energy": 0.10114,
				"method": "rhf"
			}
		],
		"cosmo_sigma_profile": { 
			"-0.025": 0.0,
			"-0.024": 0.0,
			"-0.023": 0.0,
			"-0.022": 0.0,
			"-0.021": 0.0,
			"-0.02": 0.0,
			"-0.019": 0.0,
			"-0.018": 0.0,
			"-0.017": 0.0,
			"-0.016": 0.0,
			"-0.015": 0.0,
			"-0.014": 0.0,
			"-0.013": 0.0,
			"-0.012": 0.0,
			"-0.011": 0.0,
			"-0.01": 0.0,
			"-0.009": 0.0,
			"-0.008": 0.680694101954,
			"-0.007": 7.30567836125,
			"-0.006": 17.3519942411,
			"-0.005": 22.3055475317,
			"-0.004": 20.9495346645,
			"-0.003": 20.1054575083,
			"-0.002": 11.5093627816,
			"-0.001": 9.64583173122,
			"0.0": 8.80334686031,
			"0.001": 10.3492372023,
			"0.002": 13.3586876976,
			"0.003": 21.3290976965,
			"0.004": 9.64019622498,
			"0.005": 5.41521243019,
			"0.006": 3.89881129284,
			"0.007": 4.8303170896,
			"0.008": 4.31379409111,
			"0.009": 4.94421546871,
			"0.01": 5.2949553218,
			"0.011": 4.56265897192,
			"0.012": 2.73803026924,
			"0.013": 0.637302504265,
			"0.014": 0.0,
			"0.015": 0.0,
			"0.016": 0.0,
			"0.017": 0.0,
			"0.018": 0.0,
			"0.019": 0.0,
			"0.02": 0.0,
			"0.021": 0.0,
			"0.022": 0.0,
			"0.023": 0.0,
			"0.024": 0.0,
			"0.025": 0.0
		}
	}
}
