{
	 "smiles": "[O-][N+](=O)C1=CC(=C(F)C=C1Br)[N+]([O-])=O", 
	 "Tm": 366.15, 
	 "num_atms": 16, 
	 "gaussian": { 
		 "optdone": 1, 
		 "sigma_profile": "yes", 
		 "theory": "DFT", 
		 "functional": "B3LYP", 
		 "basiset": "6-31G**", 
		 "properties": { 
			 "R2extent": 4339.8769, 
			 "electric_dipole_moment_norm": 3.59163307424, 
			 "electric_quadrupole_moment_norm": 14.2638091911, 
			 "total_energy": -3311.24618172, 
			 "HOMO_LUMO_gap": 0.17783, 
			 "cosmo_polarized_energy": -11.84, 
			 "cosmo_cavitation_energy": 25.53, 
			 "cosmo_dispersion_energy": -18.96, 
			 "cosmo_repulsion_energy": 1.46, 
			 "cosmo_total_nonelectrostatic_energy": 8.03, 
			 "SMD_solvation_energy": 8.31 
		},
		"coords": [
			{
				"x": 2.3063079886,
				"y": -0.8266282108,
				"z": 2.626891204,
				"element": "O" 
			},
			{
				"x": 2.2650968285,
				"y": -0.4292839571,
				"z": 1.4685247123,
				"element": "N" 
			},
			{
				"x": 3.1853249684,
				"y": -0.4945981039,
				"z": 0.656437259,
				"element": "O" 
			},
			{
				"x": 0.9972487814,
				"y": 0.1498319391,
				"z": 0.9820595964,
				"element": "C" 
			},
			{
				"x": 0.7419962668,
				"y": -0.0047213175,
				"z": -0.3753233366,
				"element": "C" 
			},
			{
				"x": -0.4367805971,
				"y": 0.4703411396,
				"z": -0.9365951135,
				"element": "C" 
			},
			{
				"x": -1.3663391017,
				"y": 1.1291834706,
				"z": -0.1170731955,
				"element": "C" 
			},
			{
				"x": -2.5129976584,
				"y": 1.6067852746,
				"z": -0.5814591102,
				"element": "F" 
			},
			{
				"x": -1.1012625765,
				"y": 1.3029260365,
				"z": 1.2374302203,
				"element": "C" 
			},
			{
				"x": 0.0733842871,
				"y": 0.8146336034,
				"z": 1.8082377862,
				"element": "C" 
			},
			{
				"x": 0.334785128,
				"y": 1.1667708186,
				"z": 3.645378671,
				"element": "Br" 
			},
			{
				"x": -0.6492933986,
				"y": 0.2614726939,
				"z": -2.3777619895,
				"element": "N" 
			},
			{
				"x": 0.2001832379,
				"y": -0.398493158,
				"z": -2.972966979,
				"element": "O" 
			},
			{
				"x": -1.6490848823,
				"y": 0.7582034242,
				"z": -2.8846117247,
				"element": "O" 
			},
			{
				"x": 1.4664552112,
				"y": -0.5010200931,
				"z": -1.0078027795,
				"element": "H" 
			},
			{
				"x": -1.8285244833,
				"y": 1.8306964399,
				"z": 1.8416347793,
				"element": "H" 
			}
		],
		 "valence_orbital": [ 
			{
				"type": "occ",
				"energy": -0.32901,
				"method": "rhf"
			},
			{
				"type": "occ",
				"energy": -0.3142,
				"method": "rhf"
			},
			{
				"type": "occ",
				"energy": -0.31233,
				"method": "rhf"
			},
			{
				"type": "occ",
				"energy": -0.29997,
				"method": "rhf"
			},
			{
				"type": "occ",
				"energy": -0.29798,
				"method": "rhf"
			},
			{
				"type": "unocc",
				"energy": -0.12015,
				"method": "rhf"
			},
			{
				"type": "unocc",
				"energy": -0.1092,
				"method": "rhf"
			},
			{
				"type": "unocc",
				"energy": -0.05296,
				"method": "rhf"
			},
			{
				"type": "unocc",
				"energy": -0.03885,
				"method": "rhf"
			},
			{
				"type": "unocc",
				"energy": -0.02723,
				"method": "rhf"
			}
		],
		"cosmo_sigma_profile": { 
			"-0.025": 0.0,
			"-0.024": 0.0,
			"-0.023": 0.0,
			"-0.022": 0.0,
			"-0.021": 0.0,
			"-0.02": 0.0,
			"-0.019": 0.0,
			"-0.018": 0.0,
			"-0.017": 0.0,
			"-0.016": 0.0,
			"-0.015": 0.0,
			"-0.014": 0.0,
			"-0.013": 0.0,
			"-0.012": 0.0,
			"-0.011": 0.568934379019,
			"-0.01": 1.87980479861,
			"-0.009": 4.06422937956,
			"-0.008": 6.62954441549,
			"-0.007": 7.99737135543,
			"-0.006": 12.5831833879,
			"-0.005": 16.4590361142,
			"-0.004": 17.2637752332,
			"-0.003": 15.0997344029,
			"-0.002": 10.0426121357,
			"-0.001": 8.56899403707,
			"0.0": 10.4198607899,
			"0.001": 11.697948074,
			"0.002": 16.4093735611,
			"0.003": 7.86655126248,
			"0.004": 7.43310926123,
			"0.005": 8.14684295512,
			"0.006": 14.7228366071,
			"0.007": 18.7957792557,
			"0.008": 8.8449981096,
			"0.009": 4.44340599064,
			"0.01": 0.118124591101,
			"0.011": 0.0,
			"0.012": 0.0,
			"0.013": 0.0,
			"0.014": 0.0,
			"0.015": 0.0,
			"0.016": 0.0,
			"0.017": 0.0,
			"0.018": 0.0,
			"0.019": 0.0,
			"0.02": 0.0,
			"0.021": 0.0,
			"0.022": 0.0,
			"0.023": 0.0,
			"0.024": 0.0,
			"0.025": 0.0
		}
	}
}
