{
	 "smiles": "O=C(NC1=CC=CC=C1CCCCC1=C(NC(=O)C2=CC=CC=C2)C=CC=C1)C1=CC=CC=C1", 
	 "Tm": 483.15, 
	 "num_atms": 62, 
	 "gaussian": { 
		 "optdone": 1, 
		 "sigma_profile": "yes", 
		 "theory": "DFT", 
		 "functional": "B3LYP", 
		 "basiset": "6-31G**", 
		 "properties": { 
			 "R2extent": 16825.2213, 
			 "electric_dipole_moment_norm": 8.30316852834, 
			 "electric_quadrupole_moment_norm": 21.5984328982, 
			 "total_energy": -1420.07348199, 
			 "HOMO_LUMO_gap": 0.15698, 
			 "cosmo_polarized_energy": -18.95, 
			 "cosmo_cavitation_energy": 62.99, 
			 "cosmo_dispersion_energy": -40.22, 
			 "cosmo_repulsion_energy": 2.98, 
			 "cosmo_total_nonelectrostatic_energy": 25.75, 
			 "SMD_solvation_energy": 10.26 
		},
		"coords": [
			{
				"x": 0.1754653621,
				"y": -0.7781207491,
				"z": -0.2977689339,
				"element": "O" 
			},
			{
				"x": -0.9479012484,
				"y": -0.3449403409,
				"z": -0.0147067818,
				"element": "C" 
			},
			{
				"x": -1.4604070689,
				"y": 0.7129455472,
				"z": -0.7237497723,
				"element": "N" 
			},
			{
				"x": -2.4753410788,
				"y": 1.6543780922,
				"z": -0.3318717687,
				"element": "C" 
			},
			{
				"x": -3.6553483967,
				"y": 1.7085118737,
				"z": -1.080582444,
				"element": "C" 
			},
			{
				"x": -4.6542453388,
				"y": 2.6269245784,
				"z": -0.7617451484,
				"element": "C" 
			},
			{
				"x": -4.4699004911,
				"y": 3.4928199974,
				"z": 0.3169180948,
				"element": "C" 
			},
			{
				"x": -3.2848745696,
				"y": 3.4480244676,
				"z": 1.0506878278,
				"element": "C" 
			},
			{
				"x": -2.258387248,
				"y": 2.5457525376,
				"z": 0.7387183334,
				"element": "C" 
			},
			{
				"x": -0.9384445482,
				"y": 2.6012645728,
				"z": 1.4753103396,
				"element": "C" 
			},
			{
				"x": 0.0963856923,
				"y": 3.4987103769,
				"z": 0.7524415226,
				"element": "C" 
			},
			{
				"x": 1.5470713139,
				"y": 3.2453821285,
				"z": 1.2069771123,
				"element": "C" 
			},
			{
				"x": 2.206777008,
				"y": 2.0294799514,
				"z": 0.5327356099,
				"element": "C" 
			},
			{
				"x": 2.5681739345,
				"y": 2.175183239,
				"z": -0.9418211567,
				"element": "C" 
			},
			{
				"x": 3.0382637833,
				"y": 1.0559702127,
				"z": -1.6685818186,
				"element": "C" 
			},
			{
				"x": 3.0554341187,
				"y": -0.2233023399,
				"z": -1.0508620411,
				"element": "N" 
			},
			{
				"x": 4.10415618,
				"y": -1.1114760349,
				"z": -1.1334798315,
				"element": "C" 
			},
			{
				"x": 5.1582299155,
				"y": -0.8436995497,
				"z": -1.7038313443,
				"element": "O" 
			},
			{
				"x": 3.9139062825,
				"y": -2.4416380389,
				"z": -0.4489381682,
				"element": "C" 
			},
			{
				"x": 5.0758969293,
				"y": -3.1927336858,
				"z": -0.2190017771,
				"element": "C" 
			},
			{
				"x": 5.0055020355,
				"y": -4.4360517088,
				"z": 0.4039067977,
				"element": "C" 
			},
			{
				"x": 3.7673900172,
				"y": -4.9530907117,
				"z": 0.7939601251,
				"element": "C" 
			},
			{
				"x": 2.6048304863,
				"y": -4.2189430677,
				"z": 0.554331931,
				"element": "C" 
			},
			{
				"x": 2.6718786154,
				"y": -2.9679985938,
				"z": -0.0627124055,
				"element": "C" 
			},
			{
				"x": 3.4766568539,
				"y": 1.1989600755,
				"z": -2.9907707748,
				"element": "C" 
			},
			{
				"x": 3.4404709572,
				"y": 2.4420876172,
				"z": -3.617068455,
				"element": "C" 
			},
			{
				"x": 2.9554206088,
				"y": 3.5507326374,
				"z": -2.926193577,
				"element": "C" 
			},
			{
				"x": 2.52833045,
				"y": 3.4093131476,
				"z": -1.6052316415,
				"element": "C" 
			},
			{
				"x": -1.748754109,
				"y": -0.9839677941,
				"z": 1.0784967916,
				"element": "C" 
			},
			{
				"x": -1.0269384958,
				"y": -1.6199595595,
				"z": 2.10129878,
				"element": "C" 
			},
			{
				"x": -1.693105389,
				"y": -2.2730516437,
				"z": 3.1346902495,
				"element": "C" 
			},
			{
				"x": -3.0895234123,
				"y": -2.3203622992,
				"z": 3.1452948047,
				"element": "C" 
			},
			{
				"x": -3.8137823243,
				"y": -1.7127727434,
				"z": 2.1183266705,
				"element": "C" 
			},
			{
				"x": -3.1500295918,
				"y": -1.0423686017,
				"z": 1.0909013994,
				"element": "C" 
			},
			{
				"x": -0.8127855879,
				"y": 1.0157343008,
				"z": -1.445028642,
				"element": "H" 
			},
			{
				"x": -3.7787091104,
				"y": 1.0172259004,
				"z": -1.9092186016,
				"element": "H" 
			},
			{
				"x": -5.5684435908,
				"y": 2.660729193,
				"z": -1.3464584988,
				"element": "H" 
			},
			{
				"x": -5.2439878434,
				"y": 4.2066554376,
				"z": 0.5830652981,
				"element": "H" 
			},
			{
				"x": -3.1406968649,
				"y": 4.1355929172,
				"z": 1.8803155104,
				"element": "H" 
			},
			{
				"x": -0.5275026626,
				"y": 1.5959104707,
				"z": 1.599042303,
				"element": "H" 
			},
			{
				"x": -1.1022620688,
				"y": 2.9868119558,
				"z": 2.4880424955,
				"element": "H" 
			},
			{
				"x": -0.1791873422,
				"y": 4.5471328674,
				"z": 0.9183149493,
				"element": "H" 
			},
			{
				"x": 0.024658585,
				"y": 3.3388231144,
				"z": -0.3292245985,
				"element": "H" 
			},
			{
				"x": 1.5609340822,
				"y": 3.0875701443,
				"z": 2.2931582248,
				"element": "H" 
			},
			{
				"x": 2.1550766269,
				"y": 4.140494584,
				"z": 1.0345738894,
				"element": "H" 
			},
			{
				"x": 3.126485873,
				"y": 1.7748434771,
				"z": 1.0771023231,
				"element": "H" 
			},
			{
				"x": 1.5529199295,
				"y": 1.1594940396,
				"z": 0.6642741234,
				"element": "H" 
			},
			{
				"x": 2.2072439207,
				"y": -0.495939204,
				"z": -0.5684434774,
				"element": "H" 
			},
			{
				"x": 6.0229845558,
				"y": -2.7760803782,
				"z": -0.5440593132,
				"element": "H" 
			},
			{
				"x": 5.9142174626,
				"y": -5.0042427757,
				"z": 0.5820451643,
				"element": "H" 
			},
			{
				"x": 3.7089068332,
				"y": -5.9251533259,
				"z": 1.2760505247,
				"element": "H" 
			},
			{
				"x": 1.6374458914,
				"y": -4.6216248923,
				"z": 0.8417236624,
				"element": "H" 
			},
			{
				"x": 1.7477089174,
				"y": -2.4311606821,
				"z": -0.2497916552,
				"element": "H" 
			},
			{
				"x": 3.8562275808,
				"y": 0.3291577859,
				"z": -3.5118224857,
				"element": "H" 
			},
			{
				"x": 3.784491368,
				"y": 2.5385991292,
				"z": -4.6427806805,
				"element": "H" 
			},
			{
				"x": 2.9166072133,
				"y": 4.525102186,
				"z": -3.4048565199,
				"element": "H" 
			},
			{
				"x": 2.1735272384,
				"y": 4.2884674386,
				"z": -1.0781979228,
				"element": "H" 
			},
			{
				"x": 0.0568560811,
				"y": -1.5968488851,
				"z": 2.0663659617,
				"element": "H" 
			},
			{
				"x": -1.1246755464,
				"y": -2.7510031298,
				"z": 3.9269961452,
				"element": "H" 
			},
			{
				"x": -3.6107700439,
				"y": -2.8351295011,
				"z": 3.9473329157,
				"element": "H" 
			},
			{
				"x": -4.8986292051,
				"y": -1.7615687895,
				"z": 2.1139703529,
				"element": "H" 
			},
			{
				"x": -3.7234995265,
				"y": -0.5815569689,
				"z": 0.2965300022,
				"element": "H" 
			}
		],
		 "valence_orbital": [ 
			{
				"type": "occ",
				"energy": -0.24385,
				"method": "rhf"
			},
			{
				"type": "occ",
				"energy": -0.24266,
				"method": "rhf"
			},
			{
				"type": "occ",
				"energy": -0.23654,
				"method": "rhf"
			},
			{
				"type": "occ",
				"energy": -0.22796,
				"method": "rhf"
			},
			{
				"type": "occ",
				"energy": -0.20863,
				"method": "rhf"
			},
			{
				"type": "unocc",
				"energy": -0.05165,
				"method": "rhf"
			},
			{
				"type": "unocc",
				"energy": -0.02472,
				"method": "rhf"
			},
			{
				"type": "unocc",
				"energy": -0.02436,
				"method": "rhf"
			},
			{
				"type": "unocc",
				"energy": -0.01901,
				"method": "rhf"
			},
			{
				"type": "unocc",
				"energy": -0.0127,
				"method": "rhf"
			}
		],
		"cosmo_sigma_profile": { 
			"-0.025": 0.0,
			"-0.024": 0.0,
			"-0.023": 0.0,
			"-0.022": 0.0,
			"-0.021": 0.0,
			"-0.02": 0.0,
			"-0.019": 0.0,
			"-0.018": 0.0,
			"-0.017": 0.0,
			"-0.016": 0.0,
			"-0.015": 0.0,
			"-0.014": 0.00324401324646,
			"-0.013": 0.342805436428,
			"-0.012": 0.877199610355,
			"-0.011": 0.623749524775,
			"-0.01": 0.759188207359,
			"-0.009": 0.811236362618,
			"-0.008": 0.871847966118,
			"-0.007": 2.73217237556,
			"-0.006": 20.1286907261,
			"-0.005": 35.0516970243,
			"-0.004": 45.6766328352,
			"-0.003": 46.8836355596,
			"-0.002": 45.7726991272,
			"-0.001": 48.1581407945,
			"0.0": 42.2228893786,
			"0.001": 39.9306262595,
			"0.002": 32.8888223213,
			"0.003": 35.1061541943,
			"0.004": 42.7884725886,
			"0.005": 27.5134903643,
			"0.006": 10.2675176463,
			"0.007": 4.78688197091,
			"0.008": 3.36392513773,
			"0.009": 2.61496716184,
			"0.01": 1.56328864183,
			"0.011": 1.73443511916,
			"0.012": 2.42725609046,
			"0.013": 3.19140868574,
			"0.014": 3.69392732383,
			"0.015": 0.146031765224,
			"0.016": 0.0,
			"0.017": 0.0,
			"0.018": 0.0,
			"0.019": 0.0,
			"0.02": 0.0,
			"0.021": 0.0,
			"0.022": 0.0,
			"0.023": 0.0,
			"0.024": 0.0,
			"0.025": 0.0
		}
	}
}
