{
	 "smiles": "OC(=O)CCC1=CN=CC=C1", 
	 "Tm": 430.65, 
	 "num_atms": 20, 
	 "gaussian": { 
		 "optdone": 1, 
		 "sigma_profile": "yes", 
		 "theory": "DFT", 
		 "functional": "B3LYP", 
		 "basiset": "6-31G**", 
		 "properties": { 
			 "R2extent": 2118.2675, 
			 "electric_dipole_moment_norm": 2.26229608584, 
			 "electric_quadrupole_moment_norm": 9.43083329457, 
			 "total_energy": -515.490326685, 
			 "HOMO_LUMO_gap": 0.22849, 
			 "cosmo_polarized_energy": -11.7, 
			 "cosmo_cavitation_energy": 24.16, 
			 "cosmo_dispersion_energy": -17.54, 
			 "cosmo_repulsion_energy": 1.43, 
			 "cosmo_total_nonelectrostatic_energy": 8.04, 
			 "SMD_solvation_energy": 3.69 
		},
		"coords": [
			{
				"x": 2.9283999626,
				"y": -0.49487412,
				"z": 2.1302870555,
				"element": "O" 
			},
			{
				"x": 2.5828970469,
				"y": -0.479285493,
				"z": 0.8224002174,
				"element": "C" 
			},
			{
				"x": 2.4142816359,
				"y": -1.4960139561,
				"z": 0.182523566,
				"element": "O" 
			},
			{
				"x": 2.4863297473,
				"y": 0.935566172,
				"z": 0.2906744627,
				"element": "C" 
			},
			{
				"x": 1.7635361636,
				"y": 1.0345738021,
				"z": -1.0647650496,
				"element": "C" 
			},
			{
				"x": 0.2610518541,
				"y": 0.8719034459,
				"z": -0.972056829,
				"element": "C" 
			},
			{
				"x": -0.5700661551,
				"y": 1.9918328679,
				"z": -0.8299691099,
				"element": "C" 
			},
			{
				"x": -1.9022742359,
				"y": 1.9434259482,
				"z": -0.7224779959,
				"element": "N" 
			},
			{
				"x": -2.4739591428,
				"y": 0.7333503265,
				"z": -0.7585157376,
				"element": "C" 
			},
			{
				"x": -1.7513136398,
				"y": -0.451550463,
				"z": -0.9032385711,
				"element": "C" 
			},
			{
				"x": -0.3635709002,
				"y": -0.3808790684,
				"z": -1.0106748914,
				"element": "C" 
			},
			{
				"x": 3.0014252119,
				"y": -1.4312037117,
				"z": 2.381654905,
				"element": "H" 
			},
			{
				"x": 3.5177766903,
				"y": 1.3011204483,
				"z": 0.1969031159,
				"element": "H" 
			},
			{
				"x": 2.0101315308,
				"y": 1.5645557465,
				"z": 1.0496103793,
				"element": "H" 
			},
			{
				"x": 2.1812759237,
				"y": 0.2787862877,
				"z": -1.7368093062,
				"element": "H" 
			},
			{
				"x": 1.9908989738,
				"y": 2.0144422626,
				"z": -1.4981880865,
				"element": "H" 
			},
			{
				"x": -0.1283057574,
				"y": 2.9890625121,
				"z": -0.8084454992,
				"element": "H" 
			},
			{
				"x": -3.5590606297,
				"y": 0.7117073404,
				"z": -0.6712759055,
				"element": "H" 
			},
			{
				"x": -2.2658419008,
				"y": -1.4073078692,
				"z": -0.9330246541,
				"element": "H" 
			},
			{
				"x": 0.2368876209,
				"y": -1.2791124788,
				"z": -1.1154120658,
				"element": "H" 
			}
		],
		 "valence_orbital": [ 
			{
				"type": "occ",
				"energy": -0.32676,
				"method": "rhf"
			},
			{
				"type": "occ",
				"energy": -0.28488,
				"method": "rhf"
			},
			{
				"type": "occ",
				"energy": -0.278,
				"method": "rhf"
			},
			{
				"type": "occ",
				"energy": -0.25222,
				"method": "rhf"
			},
			{
				"type": "occ",
				"energy": -0.24791,
				"method": "rhf"
			},
			{
				"type": "unocc",
				"energy": -0.01942,
				"method": "rhf"
			},
			{
				"type": "unocc",
				"energy": -0.00864,
				"method": "rhf"
			},
			{
				"type": "unocc",
				"energy": 0.00205,
				"method": "rhf"
			},
			{
				"type": "unocc",
				"energy": 0.0734,
				"method": "rhf"
			},
			{
				"type": "unocc",
				"energy": 0.09636,
				"method": "rhf"
			}
		],
		"cosmo_sigma_profile": { 
			"-0.025": 0.0,
			"-0.024": 0.0,
			"-0.023": 0.0,
			"-0.022": 0.0,
			"-0.021": 0.0,
			"-0.02": 0.0,
			"-0.019": 0.0648906022816,
			"-0.018": 0.607548529342,
			"-0.017": 0.856390565517,
			"-0.016": 1.07996818096,
			"-0.015": 0.893867717237,
			"-0.014": 0.760397218539,
			"-0.013": 0.423020015121,
			"-0.012": 0.297584414992,
			"-0.011": 0.937262154132,
			"-0.01": 0.68667258176,
			"-0.009": 0.537199148501,
			"-0.008": 0.822279494072,
			"-0.007": 3.88703808193,
			"-0.006": 10.3604380226,
			"-0.005": 16.57988784,
			"-0.004": 17.8996089415,
			"-0.003": 16.4253390944,
			"-0.002": 15.3639534725,
			"-0.001": 11.2268291424,
			"0.0": 9.70746497164,
			"0.001": 10.862049428,
			"0.002": 12.4128516656,
			"0.003": 14.5129131599,
			"0.004": 8.15159371824,
			"0.005": 5.33549383676,
			"0.006": 3.75425594402,
			"0.007": 3.06172718587,
			"0.008": 5.23193624389,
			"0.009": 4.46840968398,
			"0.01": 2.80504237309,
			"0.011": 3.88350749894,
			"0.012": 3.11108733049,
			"0.013": 1.44961214158,
			"0.014": 0.976847972009,
			"0.015": 0.69422820227,
			"0.016": 0.884837633722,
			"0.017": 0.592832128101,
			"0.018": 0.0,
			"0.019": 0.0,
			"0.02": 0.0,
			"0.021": 0.0,
			"0.022": 0.0,
			"0.023": 0.0,
			"0.024": 0.0,
			"0.025": 0.0
		}
	}
}
