{
	 "smiles": "CCOC(=O)C1=NOC=N1", 
	 "Tm": 305.15, 
	 "num_atms": 16, 
	 "gaussian": { 
		 "optdone": 1, 
		 "sigma_profile": "yes", 
		 "theory": "DFT", 
		 "functional": "B3LYP", 
		 "basiset": "6-31G**", 
		 "properties": { 
			 "R2extent": 3062.4353, 
			 "electric_dipole_moment_norm": 2.87151951587, 
			 "electric_quadrupole_moment_norm": 16.4594704769, 
			 "total_energy": -529.271672037, 
			 "HOMO_LUMO_gap": 0.22378, 
			 "cosmo_polarized_energy": -11.91, 
			 "cosmo_cavitation_energy": 21.57, 
			 "cosmo_dispersion_energy": -15.85, 
			 "cosmo_repulsion_energy": 1.31, 
			 "cosmo_total_nonelectrostatic_energy": 7.02, 
			 "SMD_solvation_energy": 4.18 
		},
		"coords": [
			{
				"x": 1.1590841589,
				"y": 1.072445888,
				"z": 0.4103883607,
				"element": "C" 
			},
			{
				"x": 0.4464046749,
				"y": -0.2676214866,
				"z": 0.5054209224,
				"element": "C" 
			},
			{
				"x": -0.3095197734,
				"y": -0.5460829362,
				"z": -0.7025448616,
				"element": "O" 
			},
			{
				"x": 0.3686613587,
				"y": -1.1180219273,
				"z": -1.7062387977,
				"element": "C" 
			},
			{
				"x": 1.5398700619,
				"y": -1.4238696084,
				"z": -1.691735391,
				"element": "O" 
			},
			{
				"x": -0.5261901739,
				"y": -1.3469304072,
				"z": -2.8857055098,
				"element": "C" 
			},
			{
				"x": -0.0498818893,
				"y": -1.9043452836,
				"z": -3.9756906715,
				"element": "N" 
			},
			{
				"x": -1.1575354004,
				"y": -1.9435200435,
				"z": -4.8191050127,
				"element": "O" 
			},
			{
				"x": -2.1776385084,
				"y": -1.4011591535,
				"z": -4.1340856525,
				"element": "C" 
			},
			{
				"x": -1.8635655689,
				"y": -1.0121182939,
				"z": -2.9398625264,
				"element": "N" 
			},
			{
				"x": 0.449183179,
				"y": 1.8766798263,
				"z": 0.1972905886,
				"element": "H" 
			},
			{
				"x": 1.9192453319,
				"y": 1.0512434728,
				"z": -0.3742829697,
				"element": "H" 
			},
			{
				"x": 1.6547319364,
				"y": 1.2934300941,
				"z": 1.3614018736,
				"element": "H" 
			},
			{
				"x": -0.3074097947,
				"y": -0.2693036362,
				"z": 1.2953410663,
				"element": "H" 
			},
			{
				"x": 1.153506713,
				"y": -1.0835811351,
				"z": 0.6717139513,
				"element": "H" 
			},
			{
				"x": -3.1345463057,
				"y": -1.3445453696,
				"z": -4.6343053699,
				"element": "H" 
			}
		],
		 "valence_orbital": [ 
			{
				"type": "occ",
				"energy": -0.34807,
				"method": "rhf"
			},
			{
				"type": "occ",
				"energy": -0.31847,
				"method": "rhf"
			},
			{
				"type": "occ",
				"energy": -0.31524,
				"method": "rhf"
			},
			{
				"type": "occ",
				"energy": -0.30787,
				"method": "rhf"
			},
			{
				"type": "occ",
				"energy": -0.28912,
				"method": "rhf"
			},
			{
				"type": "unocc",
				"energy": -0.06534,
				"method": "rhf"
			},
			{
				"type": "unocc",
				"energy": -0.01793,
				"method": "rhf"
			},
			{
				"type": "unocc",
				"energy": 0.07541,
				"method": "rhf"
			},
			{
				"type": "unocc",
				"energy": 0.08889,
				"method": "rhf"
			},
			{
				"type": "unocc",
				"energy": 0.10464,
				"method": "rhf"
			}
		],
		"cosmo_sigma_profile": { 
			"-0.025": 0.0,
			"-0.024": 0.0,
			"-0.023": 0.0,
			"-0.022": 0.0,
			"-0.021": 0.0,
			"-0.02": 0.0,
			"-0.019": 0.0,
			"-0.018": 0.0,
			"-0.017": 0.0,
			"-0.016": 0.0,
			"-0.015": 0.0,
			"-0.014": 0.661383054451,
			"-0.013": 2.72825042057,
			"-0.012": 1.77935681485,
			"-0.011": 1.56764244373,
			"-0.01": 1.41765892969,
			"-0.009": 1.02611568267,
			"-0.008": 1.19882445147,
			"-0.007": 3.07574844626,
			"-0.006": 9.38706186012,
			"-0.005": 14.7053101693,
			"-0.004": 18.2204197992,
			"-0.003": 14.8610397436,
			"-0.002": 12.9687648949,
			"-0.001": 12.1940071256,
			"0.0": 10.6465067206,
			"0.001": 6.14190430323,
			"0.002": 5.25289144567,
			"0.003": 5.83515732126,
			"0.004": 6.85568961254,
			"0.005": 6.71987060927,
			"0.006": 4.77927097151,
			"0.007": 3.73747256277,
			"0.008": 4.05069401613,
			"0.009": 5.1037853699,
			"0.01": 7.01930194326,
			"0.011": 6.77806591412,
			"0.012": 2.41958695254,
			"0.013": 1.25805731678,
			"0.014": 0.381626500833,
			"0.015": 0.0,
			"0.016": 0.0,
			"0.017": 0.0,
			"0.018": 0.0,
			"0.019": 0.0,
			"0.02": 0.0,
			"0.021": 0.0,
			"0.022": 0.0,
			"0.023": 0.0,
			"0.024": 0.0,
			"0.025": 0.0
		}
	}
}
