{
	 "smiles": "NC1=CC=C(OCCN2CCOCC2)C=C1", 
	 "Tm": 328.15, 
	 "num_atms": 34, 
	 "gaussian": { 
		 "optdone": 1, 
		 "sigma_profile": "yes", 
		 "theory": "DFT", 
		 "functional": "B3LYP", 
		 "basiset": "6-31G**", 
		 "properties": { 
			 "R2extent": 6263.862, 
			 "electric_dipole_moment_norm": 1.80843015624, 
			 "electric_quadrupole_moment_norm": 18.8716566438, 
			 "total_energy": -728.042517521, 
			 "HOMO_LUMO_gap": 0.18723, 
			 "cosmo_polarized_energy": -15.12, 
			 "cosmo_cavitation_energy": 35.74, 
			 "cosmo_dispersion_energy": -26.12, 
			 "cosmo_repulsion_energy": 2.07, 
			 "cosmo_total_nonelectrostatic_energy": 11.69, 
			 "SMD_solvation_energy": 3.69 
		},
		"coords": [
			{
				"x": -4.4726620112,
				"y": 0.8759888595,
				"z": -2.7044250147,
				"element": "N" 
			},
			{
				"x": -3.3536706675,
				"y": 0.7423826126,
				"z": -1.8639482541,
				"element": "C" 
			},
			{
				"x": -2.3306387901,
				"y": 1.7079542281,
				"z": -1.8694643653,
				"element": "C" 
			},
			{
				"x": -1.2531729918,
				"y": 1.6127316713,
				"z": -0.9989815788,
				"element": "C" 
			},
			{
				"x": -1.1605956314,
				"y": 0.5509471857,
				"z": -0.0887056641,
				"element": "C" 
			},
			{
				"x": -0.0575707375,
				"y": 0.5545426377,
				"z": 0.7265406723,
				"element": "O" 
			},
			{
				"x": 0.1052652021,
				"y": -0.5166002572,
				"z": 1.6409284268,
				"element": "C" 
			},
			{
				"x": 1.3973317274,
				"y": -0.2918395269,
				"z": 2.4180051413,
				"element": "C" 
			},
			{
				"x": 2.6048361736,
				"y": -0.4291439397,
				"z": 1.6104401516,
				"element": "N" 
			},
			{
				"x": 3.7506600162,
				"y": 0.2669201791,
				"z": 2.1971407468,
				"element": "C" 
			},
			{
				"x": 4.9536176658,
				"y": 0.1622970589,
				"z": 1.2623615765,
				"element": "C" 
			},
			{
				"x": 5.2861252398,
				"y": -1.1944224957,
				"z": 0.9992457553,
				"element": "O" 
			},
			{
				"x": 4.1819511503,
				"y": -1.8773445857,
				"z": 0.4227456633,
				"element": "C" 
			},
			{
				"x": 2.956571826,
				"y": -1.8220053918,
				"z": 1.3331866877,
				"element": "C" 
			},
			{
				"x": -2.1711565479,
				"y": -0.4148243824,
				"z": -0.0713606678,
				"element": "C" 
			},
			{
				"x": -3.2521283942,
				"y": -0.3150535213,
				"z": -0.952716202,
				"element": "C" 
			},
			{
				"x": -4.2863457487,
				"y": 1.3871659202,
				"z": -3.5575756917,
				"element": "H" 
			},
			{
				"x": -4.9389244461,
				"y": 0.0017660057,
				"z": -2.90969591,
				"element": "H" 
			},
			{
				"x": -2.3859820669,
				"y": 2.5432281179,
				"z": -2.5636711855,
				"element": "H" 
			},
			{
				"x": -0.4625714821,
				"y": 2.3562215949,
				"z": -1.0085719976,
				"element": "H" 
			},
			{
				"x": 0.1193920681,
				"y": -1.4777192749,
				"z": 1.1070176082,
				"element": "H" 
			},
			{
				"x": -0.7351202328,
				"y": -0.5487638781,
				"z": 2.3513202123,
				"element": "H" 
			},
			{
				"x": 1.3661806125,
				"y": 0.7283541293,
				"z": 2.8151950197,
				"element": "H" 
			},
			{
				"x": 1.3993462637,
				"y": -0.9764117249,
				"z": 3.2898428245,
				"element": "H" 
			},
			{
				"x": 3.4905253559,
				"y": 1.3221289914,
				"z": 2.3409045112,
				"element": "H" 
			},
			{
				"x": 4.0281874838,
				"y": -0.1503059932,
				"z": 3.1857410648,
				"element": "H" 
			},
			{
				"x": 5.8374938206,
				"y": 0.6184147274,
				"z": 1.7181020444,
				"element": "H" 
			},
			{
				"x": 4.7285615787,
				"y": 0.6886153528,
				"z": 0.3206187466,
				"element": "H" 
			},
			{
				"x": 3.9282021106,
				"y": -1.4358816988,
				"z": -0.5546359043,
				"element": "H" 
			},
			{
				"x": 4.5000657237,
				"y": -2.9127812822,
				"z": 0.2688345601,
				"element": "H" 
			},
			{
				"x": 2.1196938292,
				"y": -2.3231224787,
				"z": 0.8345649973,
				"element": "H" 
			},
			{
				"x": 3.1727359912,
				"y": -2.3802326278,
				"z": 2.2665607291,
				"element": "H" 
			},
			{
				"x": -2.1348310296,
				"y": -1.2502871462,
				"z": 0.6180188356,
				"element": "H" 
			},
			{
				"x": -4.0309730616,
				"y": -1.073519067,
				"z": -0.9227635394,
				"element": "H" 
			}
		],
		 "valence_orbital": [ 
			{
				"type": "occ",
				"energy": -0.27059,
				"method": "rhf"
			},
			{
				"type": "occ",
				"energy": -0.25027,
				"method": "rhf"
			},
			{
				"type": "occ",
				"energy": -0.24208,
				"method": "rhf"
			},
			{
				"type": "occ",
				"energy": -0.21538,
				"method": "rhf"
			},
			{
				"type": "occ",
				"energy": -0.18124,
				"method": "rhf"
			},
			{
				"type": "unocc",
				"energy": 0.00599,
				"method": "rhf"
			},
			{
				"type": "unocc",
				"energy": 0.03477,
				"method": "rhf"
			},
			{
				"type": "unocc",
				"energy": 0.08516,
				"method": "rhf"
			},
			{
				"type": "unocc",
				"energy": 0.08778,
				"method": "rhf"
			},
			{
				"type": "unocc",
				"energy": 0.10304,
				"method": "rhf"
			}
		],
		"cosmo_sigma_profile": { 
			"-0.025": 0.0,
			"-0.024": 0.0,
			"-0.023": 0.0,
			"-0.022": 0.0,
			"-0.021": 0.0,
			"-0.02": 0.0,
			"-0.019": 0.0,
			"-0.018": 0.0,
			"-0.017": 0.0,
			"-0.016": 0.0,
			"-0.015": 0.0,
			"-0.014": 0.0,
			"-0.013": 0.0,
			"-0.012": 1.16467037114,
			"-0.011": 2.67028015107,
			"-0.01": 2.87687435944,
			"-0.009": 2.99479335141,
			"-0.008": 3.47336390439,
			"-0.007": 2.76776851614,
			"-0.006": 6.91233847938,
			"-0.005": 20.6383053245,
			"-0.004": 30.3205637476,
			"-0.003": 34.6019096101,
			"-0.002": 34.9376427404,
			"-0.001": 22.8915624659,
			"0.0": 12.3330776641,
			"0.001": 9.65806217341,
			"0.002": 8.64745325747,
			"0.003": 9.27505615695,
			"0.004": 10.5914492697,
			"0.005": 11.7756516499,
			"0.006": 14.0026655628,
			"0.007": 11.0027876588,
			"0.008": 3.67945917483,
			"0.009": 4.24348570556,
			"0.01": 2.80127758329,
			"0.011": 3.15281871913,
			"0.012": 3.03851999275,
			"0.013": 3.32255849499,
			"0.014": 2.60137663547,
			"0.015": 1.23508651726,
			"0.016": 1.09792759106,
			"0.017": 0.33545397309,
			"0.018": 0.0,
			"0.019": 0.0,
			"0.02": 0.0,
			"0.021": 0.0,
			"0.022": 0.0,
			"0.023": 0.0,
			"0.024": 0.0,
			"0.025": 0.0
		}
	}
}
