{
	 "smiles": "CC[Si](OC(C)=O)(OC(C)=O)OC(C)=O", 
	 "Tm": 281.15, 
	 "num_atms": 29, 
	 "gaussian": { 
		 "optdone": 1, 
		 "sigma_profile": "yes", 
		 "theory": "DFT", 
		 "functional": "B3LYP", 
		 "basiset": "6-31G**", 
		 "properties": { 
			 "R2extent": 3839.7906, 
			 "electric_dipole_moment_norm": 1.43661359105, 
			 "electric_quadrupole_moment_norm": 10.0790119164, 
			 "total_energy": -1054.32893227, 
			 "HOMO_LUMO_gap": 0.2665, 
			 "cosmo_polarized_energy": -14.4, 
			 "cosmo_cavitation_energy": 36.49, 
			 "cosmo_dispersion_energy": -21.91, 
			 "cosmo_repulsion_energy": 1.9, 
			 "cosmo_total_nonelectrostatic_energy": 16.47, 
			 "SMD_solvation_energy": 9.92 
		},
		"coords": [
			{
				"x": 1.479807508,
				"y": -2.4515072102,
				"z": 2.1083618986,
				"element": "C" 
			},
			{
				"x": 1.053280797,
				"y": -1.0079362322,
				"z": 1.7821837389,
				"element": "C" 
			},
			{
				"x": 0.1827946696,
				"y": -0.8062476123,
				"z": 0.1549726033,
				"element": "Si" 
			},
			{
				"x": -1.1748926512,
				"y": -1.7989520324,
				"z": -0.016442421,
				"element": "O" 
			},
			{
				"x": -2.2735770371,
				"y": -1.6529191058,
				"z": 0.7695370218,
				"element": "C" 
			},
			{
				"x": -3.3738202156,
				"y": -2.6048477452,
				"z": 0.3790838434,
				"element": "C" 
			},
			{
				"x": -2.3315726186,
				"y": -0.8392705449,
				"z": 1.665941072,
				"element": "O" 
			},
			{
				"x": -0.1959155464,
				"y": 0.8189137198,
				"z": -0.0191273002,
				"element": "O" 
			},
			{
				"x": -0.8423719363,
				"y": 1.3759993895,
				"z": -1.0843013733,
				"element": "C" 
			},
			{
				"x": -1.0156009387,
				"y": 2.8616248314,
				"z": -0.90583101,
				"element": "C" 
			},
			{
				"x": -1.2152134465,
				"y": 0.7295075482,
				"z": -2.0349882959,
				"element": "O" 
			},
			{
				"x": 1.0589737235,
				"y": -1.400993383,
				"z": -1.1628536313,
				"element": "O" 
			},
			{
				"x": 2.2406918043,
				"y": -0.8502230845,
				"z": -1.5454598991,
				"element": "C" 
			},
			{
				"x": 2.7914449775,
				"y": -1.5071461472,
				"z": -2.7841174681,
				"element": "C" 
			},
			{
				"x": 2.7596556197,
				"y": 0.0649598571,
				"z": -0.9437636041,
				"element": "O" 
			},
			{
				"x": 1.9848945968,
				"y": -2.4979372506,
				"z": 3.0782218984,
				"element": "H" 
			},
			{
				"x": 2.1714308595,
				"y": -2.8475931588,
				"z": 1.3578967895,
				"element": "H" 
			},
			{
				"x": 0.6191679795,
				"y": -3.1266060422,
				"z": 2.1529153158,
				"element": "H" 
			},
			{
				"x": 1.9250477311,
				"y": -0.3442435907,
				"z": 1.7614008474,
				"element": "H" 
			},
			{
				"x": 0.3780364359,
				"y": -0.6222338696,
				"z": 2.5543183208,
				"element": "H" 
			},
			{
				"x": -4.2199611898,
				"y": -2.4885320399,
				"z": 1.0553038634,
				"element": "H" 
			},
			{
				"x": -3.6832594492,
				"y": -2.398795773,
				"z": -0.6501049823,
				"element": "H" 
			},
			{
				"x": -3.0049169641,
				"y": -3.6342660574,
				"z": 0.4055685906,
				"element": "H" 
			},
			{
				"x": -1.5840717531,
				"y": 3.0584627953,
				"z": 0.0079907353,
				"element": "H" 
			},
			{
				"x": -1.5332700075,
				"y": 3.2788679775,
				"z": -1.7688282872,
				"element": "H" 
			},
			{
				"x": -0.0361823279,
				"y": 3.3345042706,
				"z": -0.7870709621,
				"element": "H" 
			},
			{
				"x": 2.0878517418,
				"y": -1.369666107,
				"z": -3.6108549644,
				"element": "H" 
			},
			{
				"x": 2.8936163386,
				"y": -2.5841545277,
				"z": -2.6225527991,
				"element": "H" 
			},
			{
				"x": 3.7564312994,
				"y": -1.0690688746,
				"z": -3.0363995411,
				"element": "H" 
			}
		],
		 "valence_orbital": [ 
			{
				"type": "occ",
				"energy": -0.32327,
				"method": "rhf"
			},
			{
				"type": "occ",
				"energy": -0.31019,
				"method": "rhf"
			},
			{
				"type": "occ",
				"energy": -0.28425,
				"method": "rhf"
			},
			{
				"type": "occ",
				"energy": -0.27633,
				"method": "rhf"
			},
			{
				"type": "occ",
				"energy": -0.27536,
				"method": "rhf"
			},
			{
				"type": "unocc",
				"energy": -0.00886,
				"method": "rhf"
			},
			{
				"type": "unocc",
				"energy": -0.00141,
				"method": "rhf"
			},
			{
				"type": "unocc",
				"energy": 0.00467,
				"method": "rhf"
			},
			{
				"type": "unocc",
				"energy": 0.06629,
				"method": "rhf"
			},
			{
				"type": "unocc",
				"energy": 0.08574,
				"method": "rhf"
			}
		],
		"cosmo_sigma_profile": { 
			"-0.025": 0.0,
			"-0.024": 0.0,
			"-0.023": 0.0,
			"-0.022": 0.0,
			"-0.021": 0.0,
			"-0.02": 0.0,
			"-0.019": 0.0,
			"-0.018": 0.0,
			"-0.017": 0.0,
			"-0.016": 0.0,
			"-0.015": 0.0,
			"-0.014": 0.0,
			"-0.013": 0.0,
			"-0.012": 0.0,
			"-0.011": 0.0,
			"-0.01": 0.0,
			"-0.009": 0.0,
			"-0.008": 0.276405504289,
			"-0.007": 9.11010463394,
			"-0.006": 18.5168728837,
			"-0.005": 19.5477254423,
			"-0.004": 29.8313770271,
			"-0.003": 35.7856434143,
			"-0.002": 36.4861354081,
			"-0.001": 24.1619347143,
			"0.0": 16.0247219283,
			"0.001": 11.1341962935,
			"0.002": 6.92292881736,
			"0.003": 5.85582351457,
			"0.004": 7.34318105685,
			"0.005": 6.25344990607,
			"0.006": 6.71725521005,
			"0.007": 7.49897272523,
			"0.008": 6.31469661992,
			"0.009": 9.43601373255,
			"0.01": 8.29516257309,
			"0.011": 11.7603227984,
			"0.012": 4.3533461651,
			"0.013": 0.06479047203,
			"0.014": 0.0,
			"0.015": 0.0,
			"0.016": 0.0,
			"0.017": 0.0,
			"0.018": 0.0,
			"0.019": 0.0,
			"0.02": 0.0,
			"0.021": 0.0,
			"0.022": 0.0,
			"0.023": 0.0,
			"0.024": 0.0,
			"0.025": 0.0
		}
	}
}
