{
	 "smiles": "COC1=CC=C(C(OC)=C1)S(N)(=O)=O", 
	 "Tm": 441.15, 
	 "num_atms": 25, 
	 "gaussian": { 
		 "optdone": 1, 
		 "sigma_profile": "yes", 
		 "theory": "DFT", 
		 "functional": "B3LYP", 
		 "basiset": "6-31G**", 
		 "properties": { 
			 "R2extent": 3421.6439, 
			 "electric_dipole_moment_norm": 7.13844308796, 
			 "electric_quadrupole_moment_norm": 8.54049593642, 
			 "total_energy": -1065.21971925, 
			 "HOMO_LUMO_gap": 0.21314, 
			 "cosmo_polarized_energy": -18.61, 
			 "cosmo_cavitation_energy": 29.66, 
			 "cosmo_dispersion_energy": -22.18, 
			 "cosmo_repulsion_energy": 1.7, 
			 "cosmo_total_nonelectrostatic_energy": 9.18, 
			 "SMD_solvation_energy": 6.26 
		},
		"coords": [
			{
				"x": 2.6781507868,
				"y": 0.8270636021,
				"z": -3.2974876427,
				"element": "C" 
			},
			{
				"x": 1.2614428541,
				"y": 0.7178663495,
				"z": -3.2570885834,
				"element": "O" 
			},
			{
				"x": 0.652696516,
				"y": 0.5798064459,
				"z": -2.0514112787,
				"element": "C" 
			},
			{
				"x": -0.7485391673,
				"y": 0.4748437432,
				"z": -2.0847865186,
				"element": "C" 
			},
			{
				"x": -1.4607565268,
				"y": 0.3392782865,
				"z": -0.9029538105,
				"element": "C" 
			},
			{
				"x": -0.7903618489,
				"y": 0.298521784,
				"z": 0.3252928888,
				"element": "C" 
			},
			{
				"x": 0.6044477583,
				"y": 0.4066675622,
				"z": 0.3593355297,
				"element": "C" 
			},
			{
				"x": 1.2564498055,
				"y": 0.4489676393,
				"z": 1.5724509386,
				"element": "O" 
			},
			{
				"x": 1.9360168027,
				"y": -0.7637252456,
				"z": 1.9500196618,
				"element": "C" 
			},
			{
				"x": 1.3303721464,
				"y": 0.5529338279,
				"z": -0.8252802351,
				"element": "C" 
			},
			{
				"x": -1.7246960931,
				"y": 0.0554535186,
				"z": 1.8366037129,
				"element": "S" 
			},
			{
				"x": -1.3269634216,
				"y": 1.3368733859,
				"z": 2.8474418647,
				"element": "N" 
			},
			{
				"x": -1.2245931888,
				"y": -1.1564022908,
				"z": 2.4877543565,
				"element": "O" 
			},
			{
				"x": -3.1396189706,
				"y": 0.2187147114,
				"z": 1.5002707997,
				"element": "O" 
			},
			{
				"x": 2.9412967377,
				"y": 0.9162614345,
				"z": -4.3520218212,
				"element": "H" 
			},
			{
				"x": 3.1624343621,
				"y": -0.0632581424,
				"z": -2.8775597315,
				"element": "H" 
			},
			{
				"x": 3.0289358246,
				"y": 1.7172738512,
				"z": -2.7607256841,
				"element": "H" 
			},
			{
				"x": -1.2492500161,
				"y": 0.5053711383,
				"z": -3.0460532017,
				"element": "H" 
			},
			{
				"x": -2.5423523563,
				"y": 0.2599904886,
				"z": -0.9090423034,
				"element": "H" 
			},
			{
				"x": 2.6642494838,
				"y": -1.0550108306,
				"z": 1.1847024727,
				"element": "H" 
			},
			{
				"x": 1.2113282567,
				"y": -1.5656727038,
				"z": 2.1135030695,
				"element": "H" 
			},
			{
				"x": 2.4585599855,
				"y": -0.5388569634,
				"z": 2.8810292784,
				"element": "H" 
			},
			{
				"x": 2.4056232584,
				"y": 0.6631138774,
				"z": -0.7605936777,
				"element": "H" 
			},
			{
				"x": -0.3167577215,
				"y": 1.3852299493,
				"z": 2.9669715274,
				"element": "H" 
			},
			{
				"x": -1.7166152676,
				"y": 2.2081945809,
				"z": 2.498628388,
				"element": "H" 
			}
		],
		 "valence_orbital": [ 
			{
				"type": "occ",
				"energy": -0.30051,
				"method": "rhf"
			},
			{
				"type": "occ",
				"energy": -0.29401,
				"method": "rhf"
			},
			{
				"type": "occ",
				"energy": -0.28867,
				"method": "rhf"
			},
			{
				"type": "occ",
				"energy": -0.26482,
				"method": "rhf"
			},
			{
				"type": "occ",
				"energy": -0.23878,
				"method": "rhf"
			},
			{
				"type": "unocc",
				"energy": -0.02564,
				"method": "rhf"
			},
			{
				"type": "unocc",
				"energy": -0.02056,
				"method": "rhf"
			},
			{
				"type": "unocc",
				"energy": 0.06452,
				"method": "rhf"
			},
			{
				"type": "unocc",
				"energy": 0.06961,
				"method": "rhf"
			},
			{
				"type": "unocc",
				"energy": 0.08254,
				"method": "rhf"
			}
		],
		"cosmo_sigma_profile": { 
			"-0.025": 0.0,
			"-0.024": 0.0,
			"-0.023": 0.0,
			"-0.022": 0.0,
			"-0.021": 0.0,
			"-0.02": 0.0,
			"-0.019": 0.0,
			"-0.018": 0.0,
			"-0.017": 0.0,
			"-0.016": 0.018242728904,
			"-0.015": 1.2027436139,
			"-0.014": 1.33495170857,
			"-0.013": 1.02606245297,
			"-0.012": 1.94717677891,
			"-0.011": 2.75322674114,
			"-0.01": 1.44519831667,
			"-0.009": 1.08308462929,
			"-0.008": 3.0505405551,
			"-0.007": 7.53550492188,
			"-0.006": 17.1205103051,
			"-0.005": 18.8589769805,
			"-0.004": 20.4531053346,
			"-0.003": 20.092446623,
			"-0.002": 13.4430547532,
			"-0.001": 11.1444756067,
			"0.0": 10.7320802443,
			"0.001": 12.9992241628,
			"0.002": 18.2399946368,
			"0.003": 11.0852582945,
			"0.004": 6.19461305264,
			"0.005": 6.54616023059,
			"0.006": 4.93903344472,
			"0.007": 6.10628535015,
			"0.008": 5.86151704236,
			"0.009": 7.29211298353,
			"0.01": 6.95526230258,
			"0.011": 9.14558204467,
			"0.012": 6.42056157882,
			"0.013": 0.519552683817,
			"0.014": 0.0740166804126,
			"0.015": 0.0,
			"0.016": 0.0,
			"0.017": 0.0,
			"0.018": 0.0,
			"0.019": 0.0,
			"0.02": 0.0,
			"0.021": 0.0,
			"0.022": 0.0,
			"0.023": 0.0,
			"0.024": 0.0,
			"0.025": 0.0
		}
	}
}
