{
	 "smiles": "O=C1CCSCC1", 
	 "Tm": 336.65, 
	 "num_atms": 15, 
	 "gaussian": { 
		 "optdone": 1, 
		 "sigma_profile": "yes", 
		 "theory": "DFT", 
		 "functional": "B3LYP", 
		 "basiset": "6-31G**", 
		 "properties": { 
			 "R2extent": 934.39, 
			 "electric_dipole_moment_norm": 0.950041783292, 
			 "electric_quadrupole_moment_norm": 13.3559505102, 
			 "total_energy": -668.761249866, 
			 "HOMO_LUMO_gap": 0.20402, 
			 "cosmo_polarized_energy": -9.08, 
			 "cosmo_cavitation_energy": 18.79, 
			 "cosmo_dispersion_energy": -14.83, 
			 "cosmo_repulsion_energy": 1.2, 
			 "cosmo_total_nonelectrostatic_energy": 5.16, 
			 "SMD_solvation_energy": 2.99 
		},
		"coords": [
			{
				"x": -0.0628969768,
				"y": 1.9603557859,
				"z": -1.6857659699,
				"element": "O" 
			},
			{
				"x": -0.0236587116,
				"y": 0.9446042746,
				"z": -1.0205697692,
				"element": "C" 
			},
			{
				"x": -1.2506079379,
				"y": 0.0540782343,
				"z": -0.8449717127,
				"element": "C" 
			},
			{
				"x": -1.310303325,
				"y": -0.6440235605,
				"z": 0.516641153,
				"element": "C" 
			},
			{
				"x": 0.0826526346,
				"y": -1.8231159229,
				"z": 0.7949134845,
				"element": "S" 
			},
			{
				"x": 1.3997773895,
				"y": -1.025107791,
				"z": -0.2230812743,
				"element": "C" 
			},
			{
				"x": 1.2545568807,
				"y": 0.4963636345,
				"z": -0.3173307655,
				"element": "C" 
			},
			{
				"x": -1.2329460127,
				"y": -0.6995267183,
				"z": -1.6448440775,
				"element": "H" 
			},
			{
				"x": -2.1373948937,
				"y": 0.6742466799,
				"z": -1.0101618324,
				"element": "H" 
			},
			{
				"x": -1.3252025824,
				"y": 0.0939828574,
				"z": 1.3245658753,
				"element": "H" 
			},
			{
				"x": -2.2225226993,
				"y": -1.2399239209,
				"z": 0.5994319252,
				"element": "H" 
			},
			{
				"x": 1.4038759986,
				"y": -1.4716192812,
				"z": -1.2221921181,
				"element": "H" 
			},
			{
				"x": 2.3449187934,
				"y": -1.2883794666,
				"z": 0.2580564643,
				"element": "H" 
			},
			{
				"x": 1.24875017,
				"y": 0.9291545063,
				"z": 0.6929691717,
				"element": "H" 
			},
			{
				"x": 2.1005012725,
				"y": 0.9417106886,
				"z": -0.8505605546,
				"element": "H" 
			}
		],
		 "valence_orbital": [ 
			{
				"type": "occ",
				"energy": -0.36517,
				"method": "rhf"
			},
			{
				"type": "occ",
				"energy": -0.33817,
				"method": "rhf"
			},
			{
				"type": "occ",
				"energy": -0.31034,
				"method": "rhf"
			},
			{
				"type": "occ",
				"energy": -0.24896,
				"method": "rhf"
			},
			{
				"type": "occ",
				"energy": -0.22691,
				"method": "rhf"
			},
			{
				"type": "unocc",
				"energy": -0.02289,
				"method": "rhf"
			},
			{
				"type": "unocc",
				"energy": 0.03262,
				"method": "rhf"
			},
			{
				"type": "unocc",
				"energy": 0.04977,
				"method": "rhf"
			},
			{
				"type": "unocc",
				"energy": 0.08841,
				"method": "rhf"
			},
			{
				"type": "unocc",
				"energy": 0.11008,
				"method": "rhf"
			}
		],
		"cosmo_sigma_profile": { 
			"-0.025": 0.0,
			"-0.024": 0.0,
			"-0.023": 0.0,
			"-0.022": 0.0,
			"-0.021": 0.0,
			"-0.02": 0.0,
			"-0.019": 0.0,
			"-0.018": 0.0,
			"-0.017": 0.0,
			"-0.016": 0.0,
			"-0.015": 0.0,
			"-0.014": 0.0,
			"-0.013": 0.0,
			"-0.012": 0.0,
			"-0.011": 0.0,
			"-0.01": 0.0,
			"-0.009": 0.0,
			"-0.008": 0.534353629585,
			"-0.007": 4.79363348357,
			"-0.006": 13.2124356504,
			"-0.005": 18.5702617737,
			"-0.004": 18.5302525069,
			"-0.003": 16.7010401992,
			"-0.002": 14.3559552102,
			"-0.001": 5.04924948441,
			"0.0": 4.38667013568,
			"0.001": 4.61436596069,
			"0.002": 3.98911683698,
			"0.003": 3.73211013507,
			"0.004": 3.17933992549,
			"0.005": 4.3265504053,
			"0.006": 5.0097479358,
			"0.007": 4.04036062019,
			"0.008": 4.58393008296,
			"0.009": 3.68536180586,
			"0.01": 3.76195816663,
			"0.011": 5.04806621601,
			"0.012": 4.7061188754,
			"0.013": 2.30266271974,
			"0.014": 0.0367165931946,
			"0.015": 0.0,
			"0.016": 0.0,
			"0.017": 0.0,
			"0.018": 0.0,
			"0.019": 0.0,
			"0.02": 0.0,
			"0.021": 0.0,
			"0.022": 0.0,
			"0.023": 0.0,
			"0.024": 0.0,
			"0.025": 0.0
		}
	}
}
