{
	 "smiles": "CN1CCCC1C(O)=O", 
	 "Tm": 385.15, 
	 "num_atms": 20, 
	 "gaussian": { 
		 "optdone": 1, 
		 "sigma_profile": "yes", 
		 "theory": "DFT", 
		 "functional": "B3LYP", 
		 "basiset": "6-31G**", 
		 "properties": { 
			 "R2extent": 1719.265, 
			 "electric_dipole_moment_norm": 5.42616555774, 
			 "electric_quadrupole_moment_norm": 18.5432409551, 
			 "total_energy": -440.472227401, 
			 "HOMO_LUMO_gap": 0.26032, 
			 "cosmo_polarized_energy": -11.62, 
			 "cosmo_cavitation_energy": 21.72, 
			 "cosmo_dispersion_energy": -16.13, 
			 "cosmo_repulsion_energy": 1.32, 
			 "cosmo_total_nonelectrostatic_energy": 6.91, 
			 "SMD_solvation_energy": 4.33 
		},
		"coords": [
			{
				"x": -0.3195273089,
				"y": 0.6385857311,
				"z": -1.3140121385,
				"element": "C" 
			},
			{
				"x": 0.2787962436,
				"y": -0.5250437234,
				"z": -0.6496026318,
				"element": "N" 
			},
			{
				"x": -0.2566643189,
				"y": -0.7616554635,
				"z": 0.7121597544,
				"element": "C" 
			},
			{
				"x": 0.6011948102,
				"y": 0.0999926106,
				"z": 1.6561848904,
				"element": "C" 
			},
			{
				"x": 2.0061905733,
				"y": 0.0452951028,
				"z": 1.0122310023,
				"element": "C" 
			},
			{
				"x": 1.7451042254,
				"y": -0.4158278789,
				"z": -0.4529595074,
				"element": "C" 
			},
			{
				"x": 2.4040803392,
				"y": -1.7785807386,
				"z": -0.761738968,
				"element": "C" 
			},
			{
				"x": 1.5950966773,
				"y": -2.6187783959,
				"z": -1.422288675,
				"element": "O" 
			},
			{
				"x": 3.5428677114,
				"y": -2.0448629409,
				"z": -0.4551897723,
				"element": "O" 
			},
			{
				"x": -0.1910182402,
				"y": 1.5821744816,
				"z": -0.7603756206,
				"element": "H" 
			},
			{
				"x": 0.1288356003,
				"y": 0.7606465294,
				"z": -2.3040034294,
				"element": "H" 
			},
			{
				"x": -1.3906597383,
				"y": 0.4646684823,
				"z": -1.4504518553,
				"element": "H" 
			},
			{
				"x": -0.1282837419,
				"y": -1.8250857206,
				"z": 0.9496201314,
				"element": "H" 
			},
			{
				"x": -1.3264896825,
				"y": -0.5399734738,
				"z": 0.7455038967,
				"element": "H" 
			},
			{
				"x": 0.5908439959,
				"y": -0.2737848555,
				"z": 2.6838433729,
				"element": "H" 
			},
			{
				"x": 0.2238973572,
				"y": 1.1279456741,
				"z": 1.6802912621,
				"element": "H" 
			},
			{
				"x": 2.6649183832,
				"y": -0.6712085847,
				"z": 1.5084739071,
				"element": "H" 
			},
			{
				"x": 2.5072523504,
				"y": 1.0155845136,
				"z": 1.0443382158,
				"element": "H" 
			},
			{
				"x": 2.1610605902,
				"y": 0.289457197,
				"z": -1.1801265558,
				"element": "H" 
			},
			{
				"x": 0.736204173,
				"y": -2.1260485466,
				"z": -1.4709972788,
				"element": "H" 
			}
		],
		 "valence_orbital": [ 
			{
				"type": "occ",
				"energy": -0.34962,
				"method": "rhf"
			},
			{
				"type": "occ",
				"energy": -0.33726,
				"method": "rhf"
			},
			{
				"type": "occ",
				"energy": -0.29702,
				"method": "rhf"
			},
			{
				"type": "occ",
				"energy": -0.26876,
				"method": "rhf"
			},
			{
				"type": "occ",
				"energy": -0.24099,
				"method": "rhf"
			},
			{
				"type": "unocc",
				"energy": 0.01933,
				"method": "rhf"
			},
			{
				"type": "unocc",
				"energy": 0.06143,
				"method": "rhf"
			},
			{
				"type": "unocc",
				"energy": 0.09366,
				"method": "rhf"
			},
			{
				"type": "unocc",
				"energy": 0.10907,
				"method": "rhf"
			},
			{
				"type": "unocc",
				"energy": 0.12359,
				"method": "rhf"
			}
		],
		"cosmo_sigma_profile": { 
			"-0.025": 0.0,
			"-0.024": 0.0,
			"-0.023": 0.0,
			"-0.022": 0.0,
			"-0.021": 0.0,
			"-0.02": 0.0,
			"-0.019": 0.0,
			"-0.018": 0.0,
			"-0.017": 0.0,
			"-0.016": 0.0,
			"-0.015": 0.0,
			"-0.014": 0.0,
			"-0.013": 0.0,
			"-0.012": 0.0,
			"-0.011": 0.0,
			"-0.01": 0.0030140420561,
			"-0.009": 0.395458138494,
			"-0.008": 0.995929277557,
			"-0.007": 4.02676910752,
			"-0.006": 4.95004000282,
			"-0.005": 11.4848135773,
			"-0.004": 21.4471886628,
			"-0.003": 25.3288618246,
			"-0.002": 23.2513227525,
			"-0.001": 19.2508525938,
			"0.0": 11.786860742,
			"0.001": 5.62669007634,
			"0.002": 2.4339699645,
			"0.003": 3.28202613216,
			"0.004": 2.39409277418,
			"0.005": 2.00083650008,
			"0.006": 2.05487066457,
			"0.007": 2.80271880525,
			"0.008": 2.48080559001,
			"0.009": 2.699305727,
			"0.01": 4.14219731644,
			"0.011": 5.62849605658,
			"0.012": 4.8571190765,
			"0.013": 4.72591146954,
			"0.014": 1.02444707643,
			"0.015": 0.0,
			"0.016": 0.0,
			"0.017": 0.0,
			"0.018": 0.0,
			"0.019": 0.0,
			"0.02": 0.0,
			"0.021": 0.0,
			"0.022": 0.0,
			"0.023": 0.0,
			"0.024": 0.0,
			"0.025": 0.0
		}
	}
}
