{
	 "smiles": "ClC1=C(Cl)C(=O)C(=O)C(Cl)=C1Cl", 
	 "Tm": 400.15, 
	 "num_atms": 12, 
	 "gaussian": { 
		 "optdone": 1, 
		 "sigma_profile": "yes", 
		 "theory": "DFT", 
		 "functional": "B3LYP", 
		 "basiset": "6-31G**", 
		 "properties": { 
			 "R2extent": 4152.5669, 
			 "electric_dipole_moment_norm": 3.38135258883, 
			 "electric_quadrupole_moment_norm": 10.456021962, 
			 "total_energy": -2219.77768753, 
			 "HOMO_LUMO_gap": 0.10999, 
			 "cosmo_polarized_energy": -9.25, 
			 "cosmo_cavitation_energy": 24.89, 
			 "cosmo_dispersion_energy": -18.82, 
			 "cosmo_repulsion_energy": 1.49, 
			 "cosmo_total_nonelectrostatic_energy": 7.56, 
			 "SMD_solvation_energy": 4.76 
		},
		"coords": [
			{
				"x": 2.5079923008,
				"y": -1.5978224015,
				"z": -0.7643035558,
				"element": "Cl" 
			},
			{
				"x": 0.8466252156,
				"y": -1.5522030323,
				"z": -0.2920586162,
				"element": "C" 
			},
			{
				"x": -0.1292058437,
				"y": -1.8723919715,
				"z": -1.1848250067,
				"element": "C" 
			},
			{
				"x": 0.1972776951,
				"y": -2.3368126518,
				"z": -2.812821717,
				"element": "Cl" 
			},
			{
				"x": -1.5578331037,
				"y": -1.8369171798,
				"z": -0.7920774792,
				"element": "C" 
			},
			{
				"x": -2.4637001583,
				"y": -2.1125667314,
				"z": -1.5468988805,
				"element": "O" 
			},
			{
				"x": -1.8876717114,
				"y": -1.4213754377,
				"z": 0.6691587977,
				"element": "C" 
			},
			{
				"x": -3.0443383044,
				"y": -1.3808451704,
				"z": 1.0252653009,
				"element": "O" 
			},
			{
				"x": -0.7482923631,
				"y": -1.0936649378,
				"z": 1.5584725046,
				"element": "C" 
			},
			{
				"x": -1.1531645246,
				"y": -0.6381960688,
				"z": 3.1713254996,
				"element": "Cl" 
			},
			{
				"x": 0.5320931011,
				"y": -1.1570332804,
				"z": 1.1019666719,
				"element": "C" 
			},
			{
				"x": 1.8504176967,
				"y": -0.7722711366,
				"z": 2.1503964806,
				"element": "Cl" 
			}
		],
		 "valence_orbital": [ 
			{
				"type": "occ",
				"energy": -0.34002,
				"method": "rhf"
			},
			{
				"type": "occ",
				"energy": -0.32099,
				"method": "rhf"
			},
			{
				"type": "occ",
				"energy": -0.32012,
				"method": "rhf"
			},
			{
				"type": "occ",
				"energy": -0.28572,
				"method": "rhf"
			},
			{
				"type": "occ",
				"energy": -0.26973,
				"method": "rhf"
			},
			{
				"type": "unocc",
				"energy": -0.15974,
				"method": "rhf"
			},
			{
				"type": "unocc",
				"energy": -0.05452,
				"method": "rhf"
			},
			{
				"type": "unocc",
				"energy": -0.04001,
				"method": "rhf"
			},
			{
				"type": "unocc",
				"energy": -0.03829,
				"method": "rhf"
			},
			{
				"type": "unocc",
				"energy": 0.00129,
				"method": "rhf"
			}
		],
		"cosmo_sigma_profile": { 
			"-0.025": 0.0,
			"-0.024": 0.0,
			"-0.023": 0.0,
			"-0.022": 0.0,
			"-0.021": 0.0,
			"-0.02": 0.0,
			"-0.019": 0.0,
			"-0.018": 0.0,
			"-0.017": 0.0,
			"-0.016": 0.0,
			"-0.015": 0.0,
			"-0.014": 0.0,
			"-0.013": 0.257569594523,
			"-0.012": 1.49813142108,
			"-0.011": 1.52680314813,
			"-0.01": 1.72189174462,
			"-0.009": 2.25322565636,
			"-0.008": 2.92569546422,
			"-0.007": 3.85765390068,
			"-0.006": 7.89981768726,
			"-0.005": 11.8866464416,
			"-0.004": 14.9444230465,
			"-0.003": 13.2971967577,
			"-0.002": 14.7869581105,
			"-0.001": 14.6799569822,
			"0.0": 17.6903369034,
			"0.001": 27.8671628974,
			"0.002": 26.8951318292,
			"0.003": 10.7433414641,
			"0.004": 3.26222957441,
			"0.005": 4.4061781079,
			"0.006": 3.94495234259,
			"0.007": 5.29887503855,
			"0.008": 7.7417009842,
			"0.009": 7.1934498302,
			"0.01": 2.75619376121,
			"0.011": 1.44289629,
			"0.012": 0.0936402593707,
			"0.013": 0.0,
			"0.014": 0.0,
			"0.015": 0.0,
			"0.016": 0.0,
			"0.017": 0.0,
			"0.018": 0.0,
			"0.019": 0.0,
			"0.02": 0.0,
			"0.021": 0.0,
			"0.022": 0.0,
			"0.023": 0.0,
			"0.024": 0.0,
			"0.025": 0.0
		}
	}
}
