{
	 "smiles": "CC(C)S(=O)(=O)C1=CN=C(N=C1N)C1=CN=CC=C1", 
	 "Tm": 499.15, 
	 "num_atms": 33, 
	 "gaussian": { 
		 "optdone": 1, 
		 "sigma_profile": "yes", 
		 "theory": "DFT", 
		 "functional": "B3LYP", 
		 "basiset": "6-31G**", 
		 "properties": { 
			 "R2extent": 7843.8094, 
			 "electric_dipole_moment_norm": 3.35123173177, 
			 "electric_quadrupole_moment_norm": 22.4328994147, 
			 "total_energy": -1233.31927383, 
			 "HOMO_LUMO_gap": 0.17746, 
			 "cosmo_polarized_energy": -17.68, 
			 "cosmo_cavitation_energy": 37.69, 
			 "cosmo_dispersion_energy": -27.56, 
			 "cosmo_repulsion_energy": 2.05, 
			 "cosmo_total_nonelectrostatic_energy": 12.18, 
			 "SMD_solvation_energy": 2.21 
		},
		"coords": [
			{
				"x": -2.3503023087,
				"y": -0.3930803387,
				"z": -3.9201166097,
				"element": "C" 
			},
			{
				"x": -1.5447136798,
				"y": -0.5182995665,
				"z": -2.6233296251,
				"element": "C" 
			},
			{
				"x": -0.0458713817,
				"y": -0.2967446874,
				"z": -2.8199447706,
				"element": "C" 
			},
			{
				"x": -2.2416674823,
				"y": 0.6812314226,
				"z": -1.4112326418,
				"element": "S" 
			},
			{
				"x": -3.6706057384,
				"y": 0.3630689234,
				"z": -1.2583995854,
				"element": "O" 
			},
			{
				"x": -1.821752151,
				"y": 2.0423966277,
				"z": -1.8257455344,
				"element": "O" 
			},
			{
				"x": -1.4372266652,
				"y": 0.3154282869,
				"z": 0.143740395,
				"element": "C" 
			},
			{
				"x": -1.9904786951,
				"y": -0.6585170684,
				"z": 0.9712249128,
				"element": "C" 
			},
			{
				"x": -1.4644187564,
				"y": -1.0126883538,
				"z": 2.1432718089,
				"element": "N" 
			},
			{
				"x": -0.3451454077,
				"y": -0.3507616847,
				"z": 2.506706933,
				"element": "C" 
			},
			{
				"x": 0.2438198464,
				"y": 0.6310480926,
				"z": 1.8183483069,
				"element": "N" 
			},
			{
				"x": -0.2858531208,
				"y": 0.9951956263,
				"z": 0.6354719223,
				"element": "C" 
			},
			{
				"x": 0.3321338659,
				"y": 1.9939159581,
				"z": -0.0303027694,
				"element": "N" 
			},
			{
				"x": 0.2759686195,
				"y": -0.7456652586,
				"z": 3.7929232418,
				"element": "C" 
			},
			{
				"x": 1.4528809034,
				"y": -0.1316407243,
				"z": 4.2526648938,
				"element": "C" 
			},
			{
				"x": 2.0593570208,
				"y": -0.4480128509,
				"z": 5.4004327127,
				"element": "N" 
			},
			{
				"x": 1.4986156404,
				"y": -1.4092963429,
				"z": 6.1471924366,
				"element": "C" 
			},
			{
				"x": 0.3304333513,
				"y": -2.0849736145,
				"z": 5.7882544187,
				"element": "C" 
			},
			{
				"x": -0.2919132815,
				"y": -1.7481743774,
				"z": 4.590978427,
				"element": "C" 
			},
			{
				"x": -3.4152972445,
				"y": -0.5555132706,
				"z": -3.7434926458,
				"element": "H" 
			},
			{
				"x": -1.9945350421,
				"y": -1.1420579571,
				"z": -4.634306542,
				"element": "H" 
			},
			{
				"x": -2.2152241207,
				"y": 0.5970404455,
				"z": -4.3650518197,
				"element": "H" 
			},
			{
				"x": -1.735170196,
				"y": -1.4899526923,
				"z": -2.1532626217,
				"element": "H" 
			},
			{
				"x": 0.1453791023,
				"y": 0.6923674865,
				"z": -3.2443630175,
				"element": "H" 
			},
			{
				"x": 0.5143710527,
				"y": -0.3884954017,
				"z": -1.8858021382,
				"element": "H" 
			},
			{
				"x": 0.3382173806,
				"y": -1.0490153957,
				"z": -3.5159433729,
				"element": "H" 
			},
			{
				"x": -2.9064379718,
				"y": -1.1606619181,
				"z": 0.6666189621,
				"element": "H" 
			},
			{
				"x": -0.1588206605,
				"y": 2.4414768218,
				"z": -0.7955900995,
				"element": "H" 
			},
			{
				"x": 1.0586538145,
				"y": 2.4831522791,
				"z": 0.4700346725,
				"element": "H" 
			},
			{
				"x": 1.9131139166,
				"y": 0.6489763482,
				"z": 3.6539914756,
				"element": "H" 
			},
			{
				"x": 2.0091589342,
				"y": -1.6501088622,
				"z": 7.0782495731,
				"element": "H" 
			},
			{
				"x": -0.0782479176,
				"y": -2.85516049,
				"z": 6.4348143278,
				"element": "H" 
			},
			{
				"x": -1.201121627,
				"y": -2.2371774625,
				"z": 4.2597643731,
				"element": "H" 
			}
		],
		 "valence_orbital": [ 
			{
				"type": "occ",
				"energy": -0.28571,
				"method": "rhf"
			},
			{
				"type": "occ",
				"energy": -0.26675,
				"method": "rhf"
			},
			{
				"type": "occ",
				"energy": -0.26313,
				"method": "rhf"
			},
			{
				"type": "occ",
				"energy": -0.25355,
				"method": "rhf"
			},
			{
				"type": "occ",
				"energy": -0.25047,
				"method": "rhf"
			},
			{
				"type": "unocc",
				"energy": -0.07301,
				"method": "rhf"
			},
			{
				"type": "unocc",
				"energy": -0.03726,
				"method": "rhf"
			},
			{
				"type": "unocc",
				"energy": -0.01743,
				"method": "rhf"
			},
			{
				"type": "unocc",
				"energy": 0.00518,
				"method": "rhf"
			},
			{
				"type": "unocc",
				"energy": 0.05337,
				"method": "rhf"
			}
		],
		"cosmo_sigma_profile": { 
			"-0.025": 0.0,
			"-0.024": 0.0,
			"-0.023": 0.0,
			"-0.022": 0.0,
			"-0.021": 0.0,
			"-0.02": 0.0,
			"-0.019": 0.0,
			"-0.018": 0.0,
			"-0.017": 0.0,
			"-0.016": 0.0,
			"-0.015": 0.202337614383,
			"-0.014": 1.0928300078,
			"-0.013": 1.53159463818,
			"-0.012": 0.684263978114,
			"-0.011": 1.14360506364,
			"-0.01": 1.8561450498,
			"-0.009": 2.40630921713,
			"-0.008": 4.91447235664,
			"-0.007": 8.86806623423,
			"-0.006": 13.0651778241,
			"-0.005": 19.9320602729,
			"-0.004": 21.1889549619,
			"-0.003": 23.283482291,
			"-0.002": 25.7561188289,
			"-0.001": 30.3633433408,
			"0.0": 25.110882261,
			"0.001": 25.7511266611,
			"0.002": 17.9365317455,
			"0.003": 10.4133985586,
			"0.004": 9.54487164399,
			"0.005": 7.02194115901,
			"0.006": 6.79975458478,
			"0.007": 6.66738068076,
			"0.008": 6.1443267343,
			"0.009": 5.0421118526,
			"0.01": 6.9936638063,
			"0.011": 8.64713954686,
			"0.012": 4.73365168469,
			"0.013": 0.621681944508,
			"0.014": 0.976992678989,
			"0.015": 0.960181491309,
			"0.016": 0.698452215709,
			"0.017": 0.0973737423473,
			"0.018": 0.0,
			"0.019": 0.0,
			"0.02": 0.0,
			"0.021": 0.0,
			"0.022": 0.0,
			"0.023": 0.0,
			"0.024": 0.0,
			"0.025": 0.0
		}
	}
}
