{
	 "smiles": "CC1C2CC(OC(C)=O)C3C(C2O)(C(O)CC2C4(C)CCCC32C(O)OC4)C1=O", 
	 "Tm": 493.15, 
	 "num_atms": 61, 
	 "gaussian": { 
		 "optdone": 1, 
		 "sigma_profile": "yes", 
		 "theory": "DFT", 
		 "functional": "B3LYP", 
		 "basiset": "6-31G**", 
		 "properties": { 
			 "R2extent": 10210.0041, 
			 "electric_dipole_moment_norm": 4.3246430951, 
			 "electric_quadrupole_moment_norm": 20.3276612427, 
			 "total_energy": -1384.17750111, 
			 "HOMO_LUMO_gap": 0.21496, 
			 "cosmo_polarized_energy": -22.04, 
			 "cosmo_cavitation_energy": 50.93, 
			 "cosmo_dispersion_energy": -34.97, 
			 "cosmo_repulsion_energy": 2.53, 
			 "cosmo_total_nonelectrostatic_energy": 18.49, 
			 "SMD_solvation_energy": 9.32 
		},
		"coords": [
			{
				"x": 1.8163169224,
				"y": -1.5869722614,
				"z": -5.1289223262,
				"element": "C" 
			},
			{
				"x": 0.5642203859,
				"y": -1.1145809042,
				"z": -4.3871655232,
				"element": "C" 
			},
			{
				"x": -0.0992652813,
				"y": -2.0406989107,
				"z": -3.3343015249,
				"element": "C" 
			},
			{
				"x": 0.8851995666,
				"y": -2.6160385593,
				"z": -2.2957968214,
				"element": "C" 
			},
			{
				"x": 1.7647690884,
				"y": -1.5067404898,
				"z": -1.7044874705,
				"element": "C" 
			},
			{
				"x": 2.610921544,
				"y": -2.0201077262,
				"z": -0.6540643173,
				"element": "O" 
			},
			{
				"x": 3.8170452744,
				"y": -2.5233831546,
				"z": -1.010063551,
				"element": "C" 
			},
			{
				"x": 4.5698643012,
				"y": -2.9925501515,
				"z": 0.2113623939,
				"element": "C" 
			},
			{
				"x": 4.2132649885,
				"y": -2.5944652493,
				"z": -2.1545929535,
				"element": "O" 
			},
			{
				"x": 0.9969172529,
				"y": -0.262094206,
				"z": -1.1910165514,
				"element": "C" 
			},
			{
				"x": -0.0837538786,
				"y": 0.1214712281,
				"z": -2.2778540682,
				"element": "C" 
			},
			{
				"x": -1.0435029984,
				"y": -1.0255172879,
				"z": -2.6602169503,
				"element": "C" 
			},
			{
				"x": -1.8073080212,
				"y": -1.5042913139,
				"z": -1.5591966591,
				"element": "O" 
			},
			{
				"x": -0.7720584698,
				"y": 1.4880668415,
				"z": -1.945330919,
				"element": "C" 
			},
			{
				"x": -2.1668791457,
				"y": 1.4502170771,
				"z": -2.2521259433,
				"element": "O" 
			},
			{
				"x": -0.5325431005,
				"y": 1.9426363815,
				"z": -0.493932509,
				"element": "C" 
			},
			{
				"x": -0.6623985461,
				"y": 0.7482393726,
				"z": 0.4631684718,
				"element": "C" 
			},
			{
				"x": -0.961766888,
				"y": 1.0313291796,
				"z": 1.9626160132,
				"element": "C" 
			},
			{
				"x": -2.0971143242,
				"y": 2.0539761989,
				"z": 2.1423347467,
				"element": "C" 
			},
			{
				"x": -1.4214506023,
				"y": -0.3153374994,
				"z": 2.5794654989,
				"element": "C" 
			},
			{
				"x": -0.4075906359,
				"y": -1.4521363201,
				"z": 2.3940231831,
				"element": "C" 
			},
			{
				"x": 0.1279690178,
				"y": -1.5759701839,
				"z": 0.9531152311,
				"element": "C" 
			},
			{
				"x": 0.5603353148,
				"y": -0.2167654888,
				"z": 0.3360841169,
				"element": "C" 
			},
			{
				"x": 1.7830363091,
				"y": 0.4226467589,
				"z": 1.1204269183,
				"element": "C" 
			},
			{
				"x": 2.3606132232,
				"y": -0.5076784075,
				"z": 2.0196045204,
				"element": "O" 
			},
			{
				"x": 1.4542798555,
				"y": 1.6222015385,
				"z": 1.7888078242,
				"element": "O" 
			},
			{
				"x": 0.3265702865,
				"y": 1.5515528948,
				"z": 2.6654453314,
				"element": "C" 
			},
			{
				"x": 0.7245374543,
				"y": 0.2018645098,
				"z": -3.6059988351,
				"element": "C" 
			},
			{
				"x": 1.390681333,
				"y": 1.1533716308,
				"z": -3.9516566417,
				"element": "O" 
			},
			{
				"x": 2.2097468061,
				"y": -0.7673265312,
				"z": -5.7363773176,
				"element": "H" 
			},
			{
				"x": 2.6104640888,
				"y": -1.9119368059,
				"z": -4.4510202122,
				"element": "H" 
			},
			{
				"x": 1.5779956938,
				"y": -2.4234707315,
				"z": -5.7932946024,
				"element": "H" 
			},
			{
				"x": -0.20442502,
				"y": -0.8872567083,
				"z": -5.143203209,
				"element": "H" 
			},
			{
				"x": -0.6540126937,
				"y": -2.8578653255,
				"z": -3.8118871123,
				"element": "H" 
			},
			{
				"x": 1.5356684813,
				"y": -3.3658238581,
				"z": -2.7571360049,
				"element": "H" 
			},
			{
				"x": 0.3205646241,
				"y": -3.1110980048,
				"z": -1.5004885913,
				"element": "H" 
			},
			{
				"x": 2.442047464,
				"y": -1.1666863599,
				"z": -2.4911410303,
				"element": "H" 
			},
			{
				"x": 4.2776673917,
				"y": -4.0242776481,
				"z": 0.4360174752,
				"element": "H" 
			},
			{
				"x": 5.6410816323,
				"y": -2.9747032979,
				"z": 0.0077627552,
				"element": "H" 
			},
			{
				"x": 4.315966169,
				"y": -2.3748771489,
				"z": 1.0746574959,
				"element": "H" 
			},
			{
				"x": 1.7089662402,
				"y": 0.5643917832,
				"z": -1.2933643568,
				"element": "H" 
			},
			{
				"x": -1.7334590186,
				"y": -0.6259786584,
				"z": -3.4161961839,
				"element": "H" 
			},
			{
				"x": -2.3985048298,
				"y": -2.1963142087,
				"z": -1.8853004743,
				"element": "H" 
			},
			{
				"x": -0.3590821488,
				"y": 2.2419352807,
				"z": -2.6222654487,
				"element": "H" 
			},
			{
				"x": -2.5688822197,
				"y": 0.7728248829,
				"z": -1.6885813691,
				"element": "H" 
			},
			{
				"x": 0.4461719499,
				"y": 2.4209245917,
				"z": -0.3946134349,
				"element": "H" 
			},
			{
				"x": -1.2811731752,
				"y": 2.7121817306,
				"z": -0.2882343759,
				"element": "H" 
			},
			{
				"x": -1.5292093799,
				"y": 0.1717142552,
				"z": 0.1158815368,
				"element": "H" 
			},
			{
				"x": -2.3666959665,
				"y": 2.1398225517,
				"z": 3.2016512484,
				"element": "H" 
			},
			{
				"x": -1.8151060145,
				"y": 3.0517736129,
				"z": 1.793693893,
				"element": "H" 
			},
			{
				"x": -2.9978500032,
				"y": 1.7479453705,
				"z": 1.5976113561,
				"element": "H" 
			},
			{
				"x": -1.6328063849,
				"y": -0.1761024745,
				"z": 3.6485659886,
				"element": "H" 
			},
			{
				"x": -2.3771153649,
				"y": -0.5893617647,
				"z": 2.1111006943,
				"element": "H" 
			},
			{
				"x": -0.8741068352,
				"y": -2.4028100618,
				"z": 2.6817981838,
				"element": "H" 
			},
			{
				"x": 0.4367448563,
				"y": -1.3075110873,
				"z": 3.0719795244,
				"element": "H" 
			},
			{
				"x": -0.6586554168,
				"y": -1.9827645468,
				"z": 0.3138002454,
				"element": "H" 
			},
			{
				"x": 0.9620172068,
				"y": -2.2766015093,
				"z": 0.9483933718,
				"element": "H" 
			},
			{
				"x": 2.5501312292,
				"y": 0.749814227,
				"z": 0.4095035687,
				"element": "H" 
			},
			{
				"x": 3.0411282902,
				"y": -0.0148226863,
				"z": 2.4993550869,
				"element": "H" 
			},
			{
				"x": 0.5733734083,
				"y": 0.934578579,
				"z": 3.5395091356,
				"element": "H" 
			},
			{
				"x": 0.192538713,
				"y": 2.5785370551,
				"z": 3.0157914788,
				"element": "H" 
			}
		],
		 "valence_orbital": [ 
			{
				"type": "occ",
				"energy": -0.27432,
				"method": "rhf"
			},
			{
				"type": "occ",
				"energy": -0.26781,
				"method": "rhf"
			},
			{
				"type": "occ",
				"energy": -0.26412,
				"method": "rhf"
			},
			{
				"type": "occ",
				"energy": -0.25189,
				"method": "rhf"
			},
			{
				"type": "occ",
				"energy": -0.23876,
				"method": "rhf"
			},
			{
				"type": "unocc",
				"energy": -0.0238,
				"method": "rhf"
			},
			{
				"type": "unocc",
				"energy": 0.01111,
				"method": "rhf"
			},
			{
				"type": "unocc",
				"energy": 0.04589,
				"method": "rhf"
			},
			{
				"type": "unocc",
				"energy": 0.06948,
				"method": "rhf"
			},
			{
				"type": "unocc",
				"energy": 0.07954,
				"method": "rhf"
			}
		],
		"cosmo_sigma_profile": { 
			"-0.025": 0.0,
			"-0.024": 0.0,
			"-0.023": 0.0,
			"-0.022": 0.0,
			"-0.021": 0.0,
			"-0.02": 0.0,
			"-0.019": 0.0,
			"-0.018": 0.0,
			"-0.017": 0.0787940739734,
			"-0.016": 0.900758688673,
			"-0.015": 2.47076321945,
			"-0.014": 1.2788091823,
			"-0.013": 1.42659685165,
			"-0.012": 1.91062839957,
			"-0.011": 2.09280036683,
			"-0.01": 1.98547270381,
			"-0.009": 1.8488662679,
			"-0.008": 3.05884733811,
			"-0.007": 6.21370945143,
			"-0.006": 11.8933318786,
			"-0.005": 15.8311710335,
			"-0.004": 21.2464899952,
			"-0.003": 39.5967899588,
			"-0.002": 53.5468134069,
			"-0.001": 42.7943824961,
			"0.0": 38.3623318158,
			"0.001": 34.5695999849,
			"0.002": 22.606458868,
			"0.003": 12.9446274457,
			"0.004": 9.37006067464,
			"0.005": 8.6140191651,
			"0.006": 8.29451003803,
			"0.007": 7.29142063985,
			"0.008": 5.90870831269,
			"0.009": 5.67459261685,
			"0.01": 7.84399152843,
			"0.011": 8.87125806279,
			"0.012": 7.47319991363,
			"0.013": 3.98807038366,
			"0.014": 1.86627699252,
			"0.015": 0.4089143387,
			"0.016": 0.0,
			"0.017": 0.0,
			"0.018": 0.0,
			"0.019": 0.0,
			"0.02": 0.0,
			"0.021": 0.0,
			"0.022": 0.0,
			"0.023": 0.0,
			"0.024": 0.0,
			"0.025": 0.0
		}
	}
}
