{
	 "smiles": "CCCCCC=CCCCC", 
	 "Tm": 212.05, 
	 "num_atms": 33, 
	 "gaussian": { 
		 "optdone": 1, 
		 "sigma_profile": "yes", 
		 "theory": "DFT", 
		 "functional": "B3LYP", 
		 "basiset": "6-31G**", 
		 "properties": { 
			 "R2extent": 4646.5834, 
			 "electric_dipole_moment_norm": 0.0871106193297, 
			 "electric_quadrupole_moment_norm": 1.86336520307, 
			 "total_energy": -432.44040809, 
			 "HOMO_LUMO_gap": 0.26834, 
			 "cosmo_polarized_energy": -1.69, 
			 "cosmo_cavitation_energy": 33.79, 
			 "cosmo_dispersion_energy": -23.86, 
			 "cosmo_repulsion_energy": 2.0, 
			 "cosmo_total_nonelectrostatic_energy": 11.93, 
			 "SMD_solvation_energy": 5.1 
		},
		"coords": [
			{
				"x": 0.751019471,
				"y": -0.1813253433,
				"z": -5.1963086536,
				"element": "C" 
			},
			{
				"x": 0.9219805853,
				"y": -1.5681752002,
				"z": -4.5652254716,
				"element": "C" 
			},
			{
				"x": 2.0581135973,
				"y": -1.6589339342,
				"z": -3.530787454,
				"element": "C" 
			},
			{
				"x": 1.9027472843,
				"y": -0.7796631448,
				"z": -2.2775251652,
				"element": "C" 
			},
			{
				"x": 0.6981605876,
				"y": -1.1459751043,
				"z": -1.3875979617,
				"element": "C" 
			},
			{
				"x": 0.5935382226,
				"y": -0.2803316985,
				"z": -0.1602425327,
				"element": "C" 
			},
			{
				"x": 0.666435747,
				"y": -0.7259667086,
				"z": 1.097281167,
				"element": "C" 
			},
			{
				"x": 0.5733827921,
				"y": 0.0900171405,
				"z": 2.3626325276,
				"element": "C" 
			},
			{
				"x": 0.402406356,
				"y": 1.6025847845,
				"z": 2.180309615,
				"element": "C" 
			},
			{
				"x": 0.3633703784,
				"y": 2.3944850971,
				"z": 3.49819642,
				"element": "C" 
			},
			{
				"x": -0.8615332834,
				"y": 2.1118065135,
				"z": 4.3766101422,
				"element": "C" 
			},
			{
				"x": 0.4644404049,
				"y": 0.5731219502,
				"z": -4.4561460255,
				"element": "H" 
			},
			{
				"x": 1.6821968006,
				"y": 0.1558331307,
				"z": -5.6667998362,
				"element": "H" 
			},
			{
				"x": -0.025546891,
				"y": -0.1925950986,
				"z": -5.9682854995,
				"element": "H" 
			},
			{
				"x": -0.0257986123,
				"y": -1.8810704824,
				"z": -4.1087611732,
				"element": "H" 
			},
			{
				"x": 1.1232757753,
				"y": -2.2983281679,
				"z": -5.3596553955,
				"element": "H" 
			},
			{
				"x": 3.0030341907,
				"y": -1.3954760406,
				"z": -4.0258627979,
				"element": "H" 
			},
			{
				"x": 2.1643923495,
				"y": -2.7059289789,
				"z": -3.2148673059,
				"element": "H" 
			},
			{
				"x": 1.830616614,
				"y": 0.2772336657,
				"z": -2.5667333777,
				"element": "H" 
			},
			{
				"x": 2.8157592246,
				"y": -0.8616460238,
				"z": -1.6745637541,
				"element": "H" 
			},
			{
				"x": -0.2261853286,
				"y": -1.050412146,
				"z": -1.9752590401,
				"element": "H" 
			},
			{
				"x": 0.7695468625,
				"y": -2.2011562933,
				"z": -1.0922702542,
				"element": "H" 
			},
			{
				"x": 0.4595095413,
				"y": 0.7855453478,
				"z": -0.3463497739,
				"element": "H" 
			},
			{
				"x": 0.8021802967,
				"y": -1.7982255497,
				"z": 1.2541359324,
				"element": "H" 
			},
			{
				"x": 1.475345743,
				"y": -0.0984535195,
				"z": 2.9663244074,
				"element": "H" 
			},
			{
				"x": -0.255269796,
				"y": -0.3089188133,
				"z": 2.965864064,
				"element": "H" 
			},
			{
				"x": -0.5173322661,
				"y": 1.8006431851,
				"z": 1.6128714904,
				"element": "H" 
			},
			{
				"x": 1.2291071631,
				"y": 1.9804684575,
				"z": 1.5652522732,
				"element": "H" 
			},
			{
				"x": 1.2790184729,
				"y": 2.1902853395,
				"z": 4.0702911425,
				"element": "H" 
			},
			{
				"x": 0.3889784289,
				"y": 3.4656856968,
				"z": 3.2609695817,
				"element": "H" 
			},
			{
				"x": -0.8932910943,
				"y": 1.0710140671,
				"z": 4.7149045199,
				"element": "H" 
			},
			{
				"x": -0.8594795448,
				"y": 2.7451334207,
				"z": 5.2699490071,
				"element": "H" 
			},
			{
				"x": -1.7915200731,
				"y": 2.3105244512,
				"z": 3.8310491823,
				"element": "H" 
			}
		],
		 "valence_orbital": [ 
			{
				"type": "occ",
				"energy": -0.31519,
				"method": "rhf"
			},
			{
				"type": "occ",
				"energy": -0.31269,
				"method": "rhf"
			},
			{
				"type": "occ",
				"energy": -0.31141,
				"method": "rhf"
			},
			{
				"type": "occ",
				"energy": -0.30607,
				"method": "rhf"
			},
			{
				"type": "occ",
				"energy": -0.23259,
				"method": "rhf"
			},
			{
				"type": "unocc",
				"energy": 0.03575,
				"method": "rhf"
			},
			{
				"type": "unocc",
				"energy": 0.0862,
				"method": "rhf"
			},
			{
				"type": "unocc",
				"energy": 0.09385,
				"method": "rhf"
			},
			{
				"type": "unocc",
				"energy": 0.11006,
				"method": "rhf"
			},
			{
				"type": "unocc",
				"energy": 0.12314,
				"method": "rhf"
			}
		],
		"cosmo_sigma_profile": { 
			"-0.025": 0.0,
			"-0.024": 0.0,
			"-0.023": 0.0,
			"-0.022": 0.0,
			"-0.021": 0.0,
			"-0.02": 0.0,
			"-0.019": 0.0,
			"-0.018": 0.0,
			"-0.017": 0.0,
			"-0.016": 0.0,
			"-0.015": 0.0,
			"-0.014": 0.0,
			"-0.013": 0.0,
			"-0.012": 0.0,
			"-0.011": 0.0,
			"-0.01": 0.0,
			"-0.009": 0.0,
			"-0.008": 0.0,
			"-0.007": 0.0,
			"-0.006": 0.0,
			"-0.005": 0.0,
			"-0.004": 0.497931648514,
			"-0.003": 10.7779313511,
			"-0.002": 44.8043622159,
			"-0.001": 55.4771165459,
			"0.0": 57.1901123576,
			"0.001": 50.3025378651,
			"0.002": 22.9027645164,
			"0.003": 5.5665921466,
			"0.004": 3.51295744416,
			"0.005": 3.33877517706,
			"0.006": 2.19466345302,
			"0.007": 2.32701566235,
			"0.008": 0.76114749315,
			"0.009": 0.0,
			"0.01": 0.0,
			"0.011": 0.0,
			"0.012": 0.0,
			"0.013": 0.0,
			"0.014": 0.0,
			"0.015": 0.0,
			"0.016": 0.0,
			"0.017": 0.0,
			"0.018": 0.0,
			"0.019": 0.0,
			"0.02": 0.0,
			"0.021": 0.0,
			"0.022": 0.0,
			"0.023": 0.0,
			"0.024": 0.0,
			"0.025": 0.0
		}
	}
}
