{
	 "smiles": "CC(CS(=O)(=O)C1=CC=C(F)C=C1)C(O)=O", 
	 "Tm": 402.15, 
	 "num_atms": 27, 
	 "gaussian": { 
		 "optdone": 1, 
		 "sigma_profile": "yes", 
		 "theory": "DFT", 
		 "functional": "B3LYP", 
		 "basiset": "6-31G**", 
		 "properties": { 
			 "R2extent": 4913.0908, 
			 "electric_dipole_moment_norm": 3.38854967501, 
			 "electric_quadrupole_moment_norm": 11.4026155749, 
			 "total_energy": -1186.5649474, 
			 "HOMO_LUMO_gap": 0.22825, 
			 "cosmo_polarized_energy": -17.72, 
			 "cosmo_cavitation_energy": 32.23, 
			 "cosmo_dispersion_energy": -23.23, 
			 "cosmo_repulsion_energy": 1.73, 
			 "cosmo_total_nonelectrostatic_energy": 10.73, 
			 "SMD_solvation_energy": 6.46 
		},
		"coords": [
			{
				"x": -1.877498155,
				"y": 2.249847747,
				"z": -0.9656754092,
				"element": "C" 
			},
			{
				"x": -1.2120339151,
				"y": 2.0674187814,
				"z": 0.4065209895,
				"element": "C" 
			},
			{
				"x": 0.2763308691,
				"y": 1.6993841776,
				"z": 0.3608773603,
				"element": "C" 
			},
			{
				"x": 0.6048952561,
				"y": 0.1293424822,
				"z": -0.5465710935,
				"element": "S" 
			},
			{
				"x": -0.6272751193,
				"y": -0.6804212145,
				"z": -0.5035706303,
				"element": "O" 
			},
			{
				"x": 1.2281215881,
				"y": 0.4721554627,
				"z": -1.8371130448,
				"element": "O" 
			},
			{
				"x": 1.8453895331,
				"y": -0.6989507172,
				"z": 0.4579491376,
				"element": "C" 
			},
			{
				"x": 1.48018456,
				"y": -1.2334480228,
				"z": 1.6984217008,
				"element": "C" 
			},
			{
				"x": 2.4397654675,
				"y": -1.8965749375,
				"z": 2.4586354263,
				"element": "C" 
			},
			{
				"x": 3.732120032,
				"y": -2.0164511517,
				"z": 1.9512353245,
				"element": "C" 
			},
			{
				"x": 4.6565679132,
				"y": -2.6606828495,
				"z": 2.6859253215,
				"element": "F" 
			},
			{
				"x": 4.102568659,
				"y": -1.4957209749,
				"z": 0.7154685793,
				"element": "C" 
			},
			{
				"x": 3.1423365334,
				"y": -0.8249531337,
				"z": -0.0410911845,
				"element": "C" 
			},
			{
				"x": -1.9439669808,
				"y": 1.1212610352,
				"z": 1.3565821819,
				"element": "C" 
			},
			{
				"x": -3.2637390094,
				"y": 1.0445738352,
				"z": 1.1040475039,
				"element": "O" 
			},
			{
				"x": -1.4241965938,
				"y": 0.5528994754,
				"z": 2.296149033,
				"element": "O" 
			},
			{
				"x": -2.887305794,
				"y": 2.6477695576,
				"z": -0.8495566572,
				"element": "H" 
			},
			{
				"x": -1.2968036084,
				"y": 2.9514883607,
				"z": -1.5718999394,
				"element": "H" 
			},
			{
				"x": -1.9428958659,
				"y": 1.300562187,
				"z": -1.4999070228,
				"element": "H" 
			},
			{
				"x": -1.2446918329,
				"y": 3.0375334836,
				"z": 0.9275672055,
				"element": "H" 
			},
			{
				"x": 0.8638924556,
				"y": 2.4585101466,
				"z": -0.1594519418,
				"element": "H" 
			},
			{
				"x": 0.6579541729,
				"y": 1.5627221788,
				"z": 1.3735790422,
				"element": "H" 
			},
			{
				"x": 0.4640483821,
				"y": -1.1222842471,
				"z": 2.0638929355,
				"element": "H" 
			},
			{
				"x": 2.2029061246,
				"y": -2.3239418304,
				"z": 3.4266561352,
				"element": "H" 
			},
			{
				"x": 5.1206184463,
				"y": -1.6207889473,
				"z": 0.363752767,
				"element": "H" 
			},
			{
				"x": 3.3832641612,
				"y": -0.4094281809,
				"z": -1.0134351792,
				"element": "H" 
			},
			{
				"x": -3.6336572792,
				"y": 0.4437772964,
				"z": 1.7729114585,
				"element": "H" 
			}
		],
		 "valence_orbital": [ 
			{
				"type": "occ",
				"energy": -0.29676,
				"method": "rhf"
			},
			{
				"type": "occ",
				"energy": -0.28782,
				"method": "rhf"
			},
			{
				"type": "occ",
				"energy": -0.28248,
				"method": "rhf"
			},
			{
				"type": "occ",
				"energy": -0.27831,
				"method": "rhf"
			},
			{
				"type": "occ",
				"energy": -0.265,
				"method": "rhf"
			},
			{
				"type": "unocc",
				"energy": -0.03675,
				"method": "rhf"
			},
			{
				"type": "unocc",
				"energy": -0.02821,
				"method": "rhf"
			},
			{
				"type": "unocc",
				"energy": 0.00021,
				"method": "rhf"
			},
			{
				"type": "unocc",
				"energy": 0.0556,
				"method": "rhf"
			},
			{
				"type": "unocc",
				"energy": 0.0606,
				"method": "rhf"
			}
		],
		"cosmo_sigma_profile": { 
			"-0.025": 0.0,
			"-0.024": 0.0,
			"-0.023": 0.0,
			"-0.022": 0.0,
			"-0.021": 0.0,
			"-0.02": 0.0,
			"-0.019": 0.189305498315,
			"-0.018": 0.89050685931,
			"-0.017": 1.01069311404,
			"-0.016": 0.788709179996,
			"-0.015": 1.15524650943,
			"-0.014": 0.383436936908,
			"-0.013": 0.22766150996,
			"-0.012": 0.624917849225,
			"-0.011": 1.02307247539,
			"-0.01": 0.792754541847,
			"-0.009": 1.59718635949,
			"-0.008": 10.2322096733,
			"-0.007": 14.1649291186,
			"-0.006": 15.4832725599,
			"-0.005": 13.2052354236,
			"-0.004": 11.7464895019,
			"-0.003": 13.1338566246,
			"-0.002": 13.7045152161,
			"-0.001": 20.6155859022,
			"0.0": 22.4658243697,
			"0.001": 21.0781810237,
			"0.002": 14.103606343,
			"0.003": 11.6859595404,
			"0.004": 13.6726281996,
			"0.005": 6.70145907951,
			"0.006": 6.50962810914,
			"0.007": 4.85129667412,
			"0.008": 6.15924472216,
			"0.009": 5.56925866058,
			"0.01": 6.61906182649,
			"0.011": 9.45062797909,
			"0.012": 6.02764627081,
			"0.013": 0.268909582659,
			"0.014": 0.0,
			"0.015": 0.0,
			"0.016": 0.0,
			"0.017": 0.0,
			"0.018": 0.0,
			"0.019": 0.0,
			"0.02": 0.0,
			"0.021": 0.0,
			"0.022": 0.0,
			"0.023": 0.0,
			"0.024": 0.0,
			"0.025": 0.0
		}
	}
}
