{
	 "smiles": "CC1=C(F)C=CC(=C1)C1=NOC(CCC(O)=O)=N1", 
	 "Tm": 398.15, 
	 "num_atms": 29, 
	 "gaussian": { 
		 "optdone": 1, 
		 "sigma_profile": "yes", 
		 "theory": "DFT", 
		 "functional": "B3LYP", 
		 "basiset": "6-31G**", 
		 "properties": { 
			 "R2extent": 6296.4489, 
			 "electric_dipole_moment_norm": 3.37552253881, 
			 "electric_quadrupole_moment_norm": 12.548670677, 
			 "total_energy": -898.913438487, 
			 "HOMO_LUMO_gap": 0.19223, 
			 "cosmo_polarized_energy": -14.6, 
			 "cosmo_cavitation_energy": 35.18, 
			 "cosmo_dispersion_energy": -24.82, 
			 "cosmo_repulsion_energy": 1.93, 
			 "cosmo_total_nonelectrostatic_energy": 12.29, 
			 "SMD_solvation_energy": 6.3 
		},
		"coords": [
			{
				"x": 2.3134269076,
				"y": 3.6122740014,
				"z": -0.5324748431,
				"element": "C" 
			},
			{
				"x": 2.4407648176,
				"y": 2.1179436229,
				"z": -0.6810104639,
				"element": "C" 
			},
			{
				"x": 3.6987467625,
				"y": 1.5104823973,
				"z": -0.6597837173,
				"element": "C" 
			},
			{
				"x": 4.7850495652,
				"y": 2.3004150673,
				"z": -0.5036982681,
				"element": "F" 
			},
			{
				"x": 3.8850170793,
				"y": 0.1392977896,
				"z": -0.7907118543,
				"element": "C" 
			},
			{
				"x": 2.7707190143,
				"y": -0.6778730555,
				"z": -0.9516034273,
				"element": "C" 
			},
			{
				"x": 1.4872774013,
				"y": -0.1118205788,
				"z": -0.9793609883,
				"element": "C" 
			},
			{
				"x": 1.3381032845,
				"y": 1.2763847674,
				"z": -0.8437885892,
				"element": "C" 
			},
			{
				"x": 0.2985213948,
				"y": -0.956075231,
				"z": -1.1488788948,
				"element": "C" 
			},
			{
				"x": 0.3627662259,
				"y": -2.2624455931,
				"z": -1.2830479404,
				"element": "N" 
			},
			{
				"x": -0.984404975,
				"y": -2.6427098692,
				"z": -1.4109026488,
				"element": "O" 
			},
			{
				"x": -1.7104238128,
				"y": -1.5159200823,
				"z": -1.3409451249,
				"element": "C" 
			},
			{
				"x": -3.1942338222,
				"y": -1.6244802585,
				"z": -1.4834016103,
				"element": "C" 
			},
			{
				"x": -3.9154057735,
				"y": -0.3663167279,
				"z": -1.0001551973,
				"element": "C" 
			},
			{
				"x": -3.858433271,
				"y": -0.2228933494,
				"z": 0.5072406052,
				"element": "C" 
			},
			{
				"x": -4.3238273034,
				"y": 0.9813809398,
				"z": 0.9075888571,
				"element": "O" 
			},
			{
				"x": -3.47233682,
				"y": -1.0713083057,
				"z": 1.2804471033,
				"element": "O" 
			},
			{
				"x": -0.9884396493,
				"y": -0.4472347759,
				"z": -1.1831211245,
				"element": "N" 
			},
			{
				"x": 1.2655844923,
				"y": 3.9187508347,
				"z": -0.5726327792,
				"element": "H" 
			},
			{
				"x": 2.7347001984,
				"y": 3.9542351527,
				"z": 0.4190147828,
				"element": "H" 
			},
			{
				"x": 2.8555000038,
				"y": 4.1380739663,
				"z": -1.3258156078,
				"element": "H" 
			},
			{
				"x": 4.8908160724,
				"y": -0.2655431088,
				"z": -0.7646306403,
				"element": "H" 
			},
			{
				"x": 2.8872086404,
				"y": -1.7510740382,
				"z": -1.0553301371,
				"element": "H" 
			},
			{
				"x": 0.3388673848,
				"y": 1.6988643665,
				"z": -0.8663471947,
				"element": "H" 
			},
			{
				"x": -3.5326896335,
				"y": -2.4996913208,
				"z": -0.9218966806,
				"element": "H" 
			},
			{
				"x": -3.4292479977,
				"y": -1.806250798,
				"z": -2.5391603371,
				"element": "H" 
			},
			{
				"x": -4.971729421,
				"y": -0.3992633145,
				"z": -1.2914154442,
				"element": "H" 
			},
			{
				"x": -3.4907395781,
				"y": 0.5338866379,
				"z": -1.452578534,
				"element": "H" 
			},
			{
				"x": -4.2677571874,
				"y": 0.9863108638,
				"z": 1.878100699,
				"element": "H" 
			}
		],
		 "valence_orbital": [ 
			{
				"type": "occ",
				"energy": -0.29572,
				"method": "rhf"
			},
			{
				"type": "occ",
				"energy": -0.29217,
				"method": "rhf"
			},
			{
				"type": "occ",
				"energy": -0.28473,
				"method": "rhf"
			},
			{
				"type": "occ",
				"energy": -0.25725,
				"method": "rhf"
			},
			{
				"type": "occ",
				"energy": -0.23419,
				"method": "rhf"
			},
			{
				"type": "unocc",
				"energy": -0.04196,
				"method": "rhf"
			},
			{
				"type": "unocc",
				"energy": -0.01132,
				"method": "rhf"
			},
			{
				"type": "unocc",
				"energy": 0.0001,
				"method": "rhf"
			},
			{
				"type": "unocc",
				"energy": 0.00315,
				"method": "rhf"
			},
			{
				"type": "unocc",
				"energy": 0.06992,
				"method": "rhf"
			}
		],
		"cosmo_sigma_profile": { 
			"-0.025": 0.0,
			"-0.024": 0.0,
			"-0.023": 0.0,
			"-0.022": 0.0,
			"-0.021": 0.0,
			"-0.02": 0.0,
			"-0.019": 0.0423892491798,
			"-0.018": 0.935139218099,
			"-0.017": 0.643991329749,
			"-0.016": 0.98015890158,
			"-0.015": 1.05726966267,
			"-0.014": 0.361923940541,
			"-0.013": 0.740009370462,
			"-0.012": 0.624176934442,
			"-0.011": 0.975846310984,
			"-0.01": 0.906945616862,
			"-0.009": 0.368802558651,
			"-0.008": 4.22611548101,
			"-0.007": 11.1449320434,
			"-0.006": 14.2189816173,
			"-0.005": 19.485974276,
			"-0.004": 17.6075060979,
			"-0.003": 15.9048343524,
			"-0.002": 16.7371218209,
			"-0.001": 21.0161284487,
			"0.0": 21.6277836055,
			"0.001": 24.7773213743,
			"0.002": 20.72185254,
			"0.003": 21.0110234417,
			"0.004": 17.0252912782,
			"0.005": 7.9854208152,
			"0.006": 8.00405384466,
			"0.007": 8.88685796994,
			"0.008": 4.09079682632,
			"0.009": 5.98419337833,
			"0.01": 3.9808195508,
			"0.011": 4.85127080528,
			"0.012": 3.41470938372,
			"0.013": 0.211650731143,
			"0.014": 0.0,
			"0.015": 0.0,
			"0.016": 0.0,
			"0.017": 0.0,
			"0.018": 0.0,
			"0.019": 0.0,
			"0.02": 0.0,
			"0.021": 0.0,
			"0.022": 0.0,
			"0.023": 0.0,
			"0.024": 0.0,
			"0.025": 0.0
		}
	}
}
