{
	 "smiles": "FC(F)(F)C1=CN=C(C=C1)N1N=CC(Cl)=C(Cl)C1=O", 
	 "Tm": 386.15, 
	 "num_atms": 23, 
	 "gaussian": { 
		 "optdone": 1, 
		 "sigma_profile": "yes", 
		 "theory": "DFT", 
		 "functional": "B3LYP", 
		 "basiset": "6-31G**", 
		 "properties": { 
			 "R2extent": 9396.1029, 
			 "electric_dipole_moment_norm": 2.11608620099, 
			 "electric_quadrupole_moment_norm": 10.90057903, 
			 "total_energy": -1842.81842142, 
			 "HOMO_LUMO_gap": 0.16147, 
			 "cosmo_polarized_energy": -11.5, 
			 "cosmo_cavitation_energy": 34.15, 
			 "cosmo_dispersion_energy": -24.78, 
			 "cosmo_repulsion_energy": 1.83, 
			 "cosmo_total_nonelectrostatic_energy": 11.2, 
			 "SMD_solvation_energy": 5.36 
		},
		"coords": [
			{
				"x": 0.1923507698,
				"y": -2.0030100309,
				"z": -3.6961760542,
				"element": "F" 
			},
			{
				"x": 1.0539145856,
				"y": -2.1758300146,
				"z": -2.6696674737,
				"element": "C" 
			},
			{
				"x": 2.2904366676,
				"y": -1.907000086,
				"z": -3.1431643889,
				"element": "F" 
			},
			{
				"x": 1.0162938271,
				"y": -3.4816242652,
				"z": -2.3320270415,
				"element": "F" 
			},
			{
				"x": 0.7081900533,
				"y": -1.2896689957,
				"z": -1.5049529179,
				"element": "C" 
			},
			{
				"x": -0.0886391724,
				"y": -1.758285358,
				"z": -0.4588501719,
				"element": "C" 
			},
			{
				"x": -0.4623173987,
				"y": -0.9950533125,
				"z": 0.570353319,
				"element": "N" 
			},
			{
				"x": -0.0399758975,
				"y": 0.264415769,
				"z": 0.5912658052,
				"element": "C" 
			},
			{
				"x": 0.7628763448,
				"y": 0.842092829,
				"z": -0.3981494777,
				"element": "C" 
			},
			{
				"x": 1.1386518902,
				"y": 0.0382548288,
				"z": -1.4674369742,
				"element": "C" 
			},
			{
				"x": -0.4443143214,
				"y": 1.0234714898,
				"z": 1.7503132131,
				"element": "N" 
			},
			{
				"x": -0.413393012,
				"y": 0.3249054076,
				"z": 2.9028268298,
				"element": "N" 
			},
			{
				"x": -0.8280669751,
				"y": 0.9066982942,
				"z": 3.9869948262,
				"element": "C" 
			},
			{
				"x": -1.3271360996,
				"y": 2.2481795393,
				"z": 4.0195513349,
				"element": "C" 
			},
			{
				"x": -1.8548897044,
				"y": 2.8818824275,
				"z": 5.5447825537,
				"element": "Cl" 
			},
			{
				"x": -1.3613384059,
				"y": 2.9642454323,
				"z": 2.8591152528,
				"element": "C" 
			},
			{
				"x": -1.9398045593,
				"y": 4.5809030544,
				"z": 2.753515843,
				"element": "Cl" 
			},
			{
				"x": -0.8938346051,
				"y": 2.3625059339,
				"z": 1.6006400704,
				"element": "C" 
			},
			{
				"x": -0.887210811,
				"y": 2.9342694866,
				"z": 0.5231103541,
				"element": "O" 
			},
			{
				"x": -0.4395681883,
				"y": -2.7864095027,
				"z": -0.4504266277,
				"element": "H" 
			},
			{
				"x": 1.0690157309,
				"y": 1.8763930908,
				"z": -0.3346565763,
				"element": "H" 
			},
			{
				"x": 1.7704150255,
				"y": 0.4332351283,
				"z": -2.2557936953,
				"element": "H" 
			},
			{
				"x": -0.7761557442,
				"y": 0.3219288541,
				"z": 4.899031997,
				"element": "H" 
			}
		],
		 "valence_orbital": [ 
			{
				"type": "occ",
				"energy": -0.31095,
				"method": "rhf"
			},
			{
				"type": "occ",
				"energy": -0.29015,
				"method": "rhf"
			},
			{
				"type": "occ",
				"energy": -0.28704,
				"method": "rhf"
			},
			{
				"type": "occ",
				"energy": -0.27935,
				"method": "rhf"
			},
			{
				"type": "occ",
				"energy": -0.25647,
				"method": "rhf"
			},
			{
				"type": "unocc",
				"energy": -0.095,
				"method": "rhf"
			},
			{
				"type": "unocc",
				"energy": -0.05082,
				"method": "rhf"
			},
			{
				"type": "unocc",
				"energy": -0.04315,
				"method": "rhf"
			},
			{
				"type": "unocc",
				"energy": -0.02639,
				"method": "rhf"
			},
			{
				"type": "unocc",
				"energy": -0.017,
				"method": "rhf"
			}
		],
		"cosmo_sigma_profile": { 
			"-0.025": 0.0,
			"-0.024": 0.0,
			"-0.023": 0.0,
			"-0.022": 0.0,
			"-0.021": 0.0,
			"-0.02": 0.0,
			"-0.019": 0.0,
			"-0.018": 0.0,
			"-0.017": 0.0,
			"-0.016": 0.0,
			"-0.015": 0.0,
			"-0.014": 0.0,
			"-0.013": 0.0,
			"-0.012": 0.0,
			"-0.011": 0.0756209900713,
			"-0.01": 1.70093196539,
			"-0.009": 3.59666729457,
			"-0.008": 6.85109792803,
			"-0.007": 10.0848237728,
			"-0.006": 10.4966225739,
			"-0.005": 11.8558627615,
			"-0.004": 18.1431012118,
			"-0.003": 20.7587193845,
			"-0.002": 24.094364532,
			"-0.001": 23.0065885745,
			"0.0": 20.8775163073,
			"0.001": 23.5306434116,
			"0.002": 41.6245177958,
			"0.003": 28.2728800404,
			"0.004": 3.95976219363,
			"0.005": 3.11148156634,
			"0.006": 4.86249907127,
			"0.007": 2.9698028091,
			"0.008": 2.1051682541,
			"0.009": 3.92439999276,
			"0.01": 3.78366418292,
			"0.011": 4.51783182874,
			"0.012": 3.54503503314,
			"0.013": 1.63062744825,
			"0.014": 1.44959429803,
			"0.015": 0.571711354668,
			"0.016": 0.0,
			"0.017": 0.0,
			"0.018": 0.0,
			"0.019": 0.0,
			"0.02": 0.0,
			"0.021": 0.0,
			"0.022": 0.0,
			"0.023": 0.0,
			"0.024": 0.0,
			"0.025": 0.0
		}
	}
}
