{
	 "smiles": "NC1CCC(CC1CO)C1=CC=CC=C1", 
	 "Tm": 392.15, 
	 "num_atms": 34, 
	 "gaussian": { 
		 "optdone": 1, 
		 "sigma_profile": "yes", 
		 "theory": "DFT", 
		 "functional": "B3LYP", 
		 "basiset": "6-31G**", 
		 "properties": { 
			 "R2extent": 3599.4663, 
			 "electric_dipole_moment_norm": 2.1638106687, 
			 "electric_quadrupole_moment_norm": 8.84687352458, 
			 "total_energy": -636.800201327, 
			 "HOMO_LUMO_gap": 0.21475, 
			 "cosmo_polarized_energy": -11.1, 
			 "cosmo_cavitation_energy": 32.37, 
			 "cosmo_dispersion_energy": -23.29, 
			 "cosmo_repulsion_energy": 1.8, 
			 "cosmo_total_nonelectrostatic_energy": 10.88, 
			 "SMD_solvation_energy": 3.35 
		},
		"coords": [
			{
				"x": 2.6528828425,
				"y": -0.764033311,
				"z": 2.5328201194,
				"element": "N" 
			},
			{
				"x": 1.9285720556,
				"y": 0.2531982349,
				"z": 1.7614740144,
				"element": "C" 
			},
			{
				"x": 1.4535510699,
				"y": 1.3632108263,
				"z": 2.7093572456,
				"element": "C" 
			},
			{
				"x": 0.5403000413,
				"y": 2.4216611866,
				"z": 2.034271347,
				"element": "C" 
			},
			{
				"x": 0.652772387,
				"y": 2.4761263924,
				"z": 0.4895256675,
				"element": "C" 
			},
			{
				"x": 2.1244046256,
				"y": 2.2103351767,
				"z": 0.0800498126,
				"element": "C" 
			},
			{
				"x": 2.728999533,
				"y": 0.8614997343,
				"z": 0.5785178534,
				"element": "C" 
			},
			{
				"x": 2.9510791414,
				"y": -0.1612200975,
				"z": -0.5511798789,
				"element": "C" 
			},
			{
				"x": 1.7746108344,
				"y": -0.7941813571,
				"z": -1.0271372441,
				"element": "O" 
			},
			{
				"x": -0.3523981785,
				"y": 1.625948673,
				"z": -0.2936149327,
				"element": "C" 
			},
			{
				"x": -1.2222329726,
				"y": 0.6947539999,
				"z": 0.290312571,
				"element": "C" 
			},
			{
				"x": -2.1303881,
				"y": -0.0331113512,
				"z": -0.4832678489,
				"element": "C" 
			},
			{
				"x": -2.1939600561,
				"y": 0.1535854959,
				"z": -1.8630815216,
				"element": "C" 
			},
			{
				"x": -1.3425252082,
				"y": 1.083218615,
				"z": -2.4641233793,
				"element": "C" 
			},
			{
				"x": -0.4391192314,
				"y": 1.8091122232,
				"z": -1.686732219,
				"element": "C" 
			},
			{
				"x": 3.5574447548,
				"y": -0.3994220396,
				"z": 2.828668032,
				"element": "H" 
			},
			{
				"x": 2.842778735,
				"y": -1.5762350633,
				"z": 1.9515716361,
				"element": "H" 
			},
			{
				"x": 1.0555449726,
				"y": -0.2556222023,
				"z": 1.342045922,
				"element": "H" 
			},
			{
				"x": 2.3446175501,
				"y": 1.8576708785,
				"z": 3.1226945444,
				"element": "H" 
			},
			{
				"x": 0.946144014,
				"y": 0.8990243006,
				"z": 3.5603933772,
				"element": "H" 
			},
			{
				"x": 0.8078273402,
				"y": 3.4114330129,
				"z": 2.4200579432,
				"element": "H" 
			},
			{
				"x": -0.5038582398,
				"y": 2.2709665132,
				"z": 2.3245298409,
				"element": "H" 
			},
			{
				"x": 0.4394069414,
				"y": 3.5109655478,
				"z": 0.1890026098,
				"element": "H" 
			},
			{
				"x": 2.717482204,
				"y": 3.0339684384,
				"z": 0.4956750381,
				"element": "H" 
			},
			{
				"x": 2.2327515444,
				"y": 2.2933708158,
				"z": -1.00834727,
				"element": "H" 
			},
			{
				"x": 3.7350341315,
				"y": 1.0901989583,
				"z": 0.9647526673,
				"element": "H" 
			},
			{
				"x": 3.5065347908,
				"y": 0.3251766001,
				"z": -1.3711608875,
				"element": "H" 
			},
			{
				"x": 3.585886407,
				"y": -0.9750933374,
				"z": -0.1821232245,
				"element": "H" 
			},
			{
				"x": 1.1629173412,
				"y": -0.1163539603,
				"z": -1.3490751209,
				"element": "H" 
			},
			{
				"x": -1.1954766559,
				"y": 0.5213913173,
				"z": 1.3606266059,
				"element": "H" 
			},
			{
				"x": -2.7865690411,
				"y": -0.7518157892,
				"z": -0.0005380737,
				"element": "H" 
			},
			{
				"x": -2.8982552309,
				"y": -0.414554786,
				"z": -2.4633885561,
				"element": "H" 
			},
			{
				"x": -1.3855102068,
				"y": 1.2500292548,
				"z": -3.5368773304,
				"element": "H" 
			},
			{
				"x": 0.2012498638,
				"y": 2.545197099,
				"z": -2.1676993601,
				"element": "H" 
			}
		],
		 "valence_orbital": [ 
			{
				"type": "occ",
				"energy": -0.29278,
				"method": "rhf"
			},
			{
				"type": "occ",
				"energy": -0.25823,
				"method": "rhf"
			},
			{
				"type": "occ",
				"energy": -0.252,
				"method": "rhf"
			},
			{
				"type": "occ",
				"energy": -0.24185,
				"method": "rhf"
			},
			{
				"type": "occ",
				"energy": -0.22346,
				"method": "rhf"
			},
			{
				"type": "unocc",
				"energy": -0.00871,
				"method": "rhf"
			},
			{
				"type": "unocc",
				"energy": -0.00389,
				"method": "rhf"
			},
			{
				"type": "unocc",
				"energy": 0.06706,
				"method": "rhf"
			},
			{
				"type": "unocc",
				"energy": 0.08514,
				"method": "rhf"
			},
			{
				"type": "unocc",
				"energy": 0.09691,
				"method": "rhf"
			}
		],
		"cosmo_sigma_profile": { 
			"-0.025": 0.0,
			"-0.024": 0.0,
			"-0.023": 0.0,
			"-0.022": 0.0,
			"-0.021": 0.0,
			"-0.02": 0.0,
			"-0.019": 0.0,
			"-0.018": 0.0,
			"-0.017": 0.0,
			"-0.016": 0.0,
			"-0.015": 0.0,
			"-0.014": 0.0,
			"-0.013": 0.0,
			"-0.012": 0.0,
			"-0.011": 0.0,
			"-0.01": 0.0,
			"-0.009": 1.03652328536,
			"-0.008": 2.775123396,
			"-0.007": 2.66435443958,
			"-0.006": 6.7086688203,
			"-0.005": 15.9471397182,
			"-0.004": 20.0844274713,
			"-0.003": 30.3761364576,
			"-0.002": 37.6723582833,
			"-0.001": 29.9851203206,
			"0.0": 20.0881793677,
			"0.001": 16.9412858746,
			"0.002": 10.5026172797,
			"0.003": 9.59060159799,
			"0.004": 9.35047729223,
			"0.005": 8.55010751161,
			"0.006": 6.85394604523,
			"0.007": 3.46103770272,
			"0.008": 2.16505664324,
			"0.009": 1.400120143,
			"0.01": 1.62673390845,
			"0.011": 2.26288236433,
			"0.012": 1.99600906608,
			"0.013": 2.35952037588,
			"0.014": 2.23594888968,
			"0.015": 1.97255120169,
			"0.016": 0.404676329728,
			"0.017": 0.614190368862,
			"0.018": 0.721833413339,
			"0.019": 0.556578533096,
			"0.02": 0.283617159669,
			"0.021": 0.0,
			"0.022": 0.0,
			"0.023": 0.0,
			"0.024": 0.0,
			"0.025": 0.0
		}
	}
}
