{
	 "smiles": "OC(=O)C1=CC=C(CNC(=O)OCC2=CC=CC=C2)C=C1", 
	 "Tm": 464.15, 
	 "num_atms": 36, 
	 "gaussian": { 
		 "optdone": 1, 
		 "sigma_profile": "yes", 
		 "theory": "DFT", 
		 "functional": "B3LYP", 
		 "basiset": "6-31G**", 
		 "properties": { 
			 "R2extent": 11563.3761, 
			 "electric_dipole_moment_norm": 5.4810715248, 
			 "electric_quadrupole_moment_norm": 31.3420423813, 
			 "total_energy": -974.42555661, 
			 "HOMO_LUMO_gap": 0.19647, 
			 "cosmo_polarized_energy": -22.03, 
			 "cosmo_cavitation_energy": 41.4, 
			 "cosmo_dispersion_energy": -29.58, 
			 "cosmo_repulsion_energy": 2.27, 
			 "cosmo_total_nonelectrostatic_energy": 14.08, 
			 "SMD_solvation_energy": 8.17 
		},
		"coords": [
			{
				"x": 4.9743188461,
				"y": -2.2005828675,
				"z": 5.2534240066,
				"element": "O" 
			},
			{
				"x": 4.0537573317,
				"y": -2.6649682531,
				"z": 4.3645543788,
				"element": "C" 
			},
			{
				"x": 3.9751453397,
				"y": -3.8501544094,
				"z": 4.1420944067,
				"element": "O" 
			},
			{
				"x": 3.1777026331,
				"y": -1.6426393946,
				"z": 3.7056330118,
				"element": "C" 
			},
			{
				"x": 3.5262037603,
				"y": -0.2903516148,
				"z": 3.6014074872,
				"element": "C" 
			},
			{
				"x": 2.6733661813,
				"y": 0.607965681,
				"z": 2.9588084562,
				"element": "C" 
			},
			{
				"x": 1.460034825,
				"y": 0.1763572611,
				"z": 2.4149425627,
				"element": "C" 
			},
			{
				"x": 0.5278762919,
				"y": 1.15092021,
				"z": 1.7150904626,
				"element": "C" 
			},
			{
				"x": 0.3660597944,
				"y": 0.8961306131,
				"z": 0.2905259208,
				"element": "N" 
			},
			{
				"x": -0.6625760886,
				"y": 0.1390989441,
				"z": -0.1891445021,
				"element": "C" 
			},
			{
				"x": -1.5815439712,
				"y": -0.3013133765,
				"z": 0.4867117311,
				"element": "O" 
			},
			{
				"x": -0.5154781595,
				"y": -0.0449366924,
				"z": -1.5249685255,
				"element": "O" 
			},
			{
				"x": -1.5680836926,
				"y": -0.795804151,
				"z": -2.1879766545,
				"element": "C" 
			},
			{
				"x": -2.637938528,
				"y": 0.1082615103,
				"z": -2.7490704423,
				"element": "C" 
			},
			{
				"x": -2.5955424125,
				"y": 0.5097146572,
				"z": -4.0896087326,
				"element": "C" 
			},
			{
				"x": -3.578818893,
				"y": 1.3516073228,
				"z": -4.6115253103,
				"element": "C" 
			},
			{
				"x": -4.6157612589,
				"y": 1.8023124749,
				"z": -3.792992546,
				"element": "C" 
			},
			{
				"x": -4.665584428,
				"y": 1.4076756404,
				"z": -2.4536549677,
				"element": "C" 
			},
			{
				"x": -3.6838122634,
				"y": 0.5645256897,
				"z": -1.9335829802,
				"element": "C" 
			},
			{
				"x": 1.1169262569,
				"y": -1.1822727201,
				"z": 2.5142029292,
				"element": "C" 
			},
			{
				"x": 1.9699584233,
				"y": -2.0817298209,
				"z": 3.1415686773,
				"element": "C" 
			},
			{
				"x": 4.804348136,
				"y": -1.2693794397,
				"z": 5.4514376954,
				"element": "H" 
			},
			{
				"x": 4.4801891802,
				"y": 0.0707402705,
				"z": 3.9788939029,
				"element": "H" 
			},
			{
				"x": 2.9594895865,
				"y": 1.6535748534,
				"z": 2.8761421597,
				"element": "H" 
			},
			{
				"x": -0.4727077072,
				"y": 1.0902390459,
				"z": 2.1510278004,
				"element": "H" 
			},
			{
				"x": 0.8898519887,
				"y": 2.1756966162,
				"z": 1.8482424243,
				"element": "H" 
			},
			{
				"x": 1.1325608266,
				"y": 1.0806116957,
				"z": -0.3398815405,
				"element": "H" 
			},
			{
				"x": -1.9838662151,
				"y": -1.5077436003,
				"z": -1.4726121943,
				"element": "H" 
			},
			{
				"x": -1.0537740911,
				"y": -1.3347275734,
				"z": -2.9866133098,
				"element": "H" 
			},
			{
				"x": -1.7892496723,
				"y": 0.1578335352,
				"z": -4.728897037,
				"element": "H" 
			},
			{
				"x": -3.5365152757,
				"y": 1.6528227936,
				"z": -5.6543945399,
				"element": "H" 
			},
			{
				"x": -5.3836956774,
				"y": 2.455752545,
				"z": -4.1973739476,
				"element": "H" 
			},
			{
				"x": -5.4730765135,
				"y": 1.7539408521,
				"z": -1.8146758457,
				"element": "H" 
			},
			{
				"x": -3.7123115519,
				"y": 0.2591482847,
				"z": -0.8920385561,
				"element": "H" 
			},
			{
				"x": 0.1736426432,
				"y": -1.5219238812,
				"z": 2.0962864546,
				"element": "H" 
			},
			{
				"x": 1.7195043552,
				"y": -3.1346027021,
				"z": 3.2151171635,
				"element": "H" 
			}
		],
		 "valence_orbital": [ 
			{
				"type": "occ",
				"energy": -0.27324,
				"method": "rhf"
			},
			{
				"type": "occ",
				"energy": -0.26679,
				"method": "rhf"
			},
			{
				"type": "occ",
				"energy": -0.25833,
				"method": "rhf"
			},
			{
				"type": "occ",
				"energy": -0.25227,
				"method": "rhf"
			},
			{
				"type": "occ",
				"energy": -0.24956,
				"method": "rhf"
			},
			{
				"type": "unocc",
				"energy": -0.05309,
				"method": "rhf"
			},
			{
				"type": "unocc",
				"energy": -0.0228,
				"method": "rhf"
			},
			{
				"type": "unocc",
				"energy": -0.01183,
				"method": "rhf"
			},
			{
				"type": "unocc",
				"energy": -0.00322,
				"method": "rhf"
			},
			{
				"type": "unocc",
				"energy": 0.03852,
				"method": "rhf"
			}
		],
		"cosmo_sigma_profile": { 
			"-0.025": 0.0,
			"-0.024": 0.0,
			"-0.023": 0.0,
			"-0.022": 0.0,
			"-0.021": 0.0,
			"-0.02": 0.0,
			"-0.019": 0.125123080397,
			"-0.018": 0.903017846383,
			"-0.017": 0.616207813743,
			"-0.016": 1.57243483065,
			"-0.015": 1.18742287317,
			"-0.014": 1.88411548151,
			"-0.013": 1.54914667688,
			"-0.012": 2.07230523499,
			"-0.011": 2.33450843305,
			"-0.01": 2.64950421745,
			"-0.009": 1.96422339815,
			"-0.008": 2.36958568754,
			"-0.007": 7.4924158851,
			"-0.006": 18.7584005822,
			"-0.005": 23.0804690641,
			"-0.004": 23.5840141248,
			"-0.003": 26.1432207334,
			"-0.002": 21.0058412537,
			"-0.001": 19.6007217538,
			"0.0": 20.464576547,
			"0.001": 19.6929117424,
			"0.002": 21.6878806483,
			"0.003": 26.1976959223,
			"0.004": 18.7380792815,
			"0.005": 15.9768630365,
			"0.006": 11.0699649727,
			"0.007": 4.59861794978,
			"0.008": 5.11280392885,
			"0.009": 4.27112138698,
			"0.01": 6.18684393679,
			"0.011": 6.86339353012,
			"0.012": 6.85601011193,
			"0.013": 3.70106044019,
			"0.014": 0.0465016418382,
			"0.015": 0.0,
			"0.016": 0.0,
			"0.017": 0.0,
			"0.018": 0.0,
			"0.019": 0.0,
			"0.02": 0.0,
			"0.021": 0.0,
			"0.022": 0.0,
			"0.023": 0.0,
			"0.024": 0.0,
			"0.025": 0.0
		}
	}
}
