{
	 "smiles": "OCC(CO)(CO)NCCCNC(CO)(CO)CO", 
	 "Tm": 442.15, 
	 "num_atms": 45, 
	 "gaussian": { 
		 "optdone": 1, 
		 "sigma_profile": "yes", 
		 "theory": "DFT", 
		 "functional": "B3LYP", 
		 "basiset": "6-31G**", 
		 "properties": { 
			 "R2extent": 8342.7126, 
			 "electric_dipole_moment_norm": 3.8770473198, 
			 "electric_quadrupole_moment_norm": 22.6930945873, 
			 "total_energy": -995.609479312, 
			 "HOMO_LUMO_gap": 0.28827, 
			 "cosmo_polarized_energy": -26.26, 
			 "cosmo_cavitation_energy": 43.34, 
			 "cosmo_dispersion_energy": -29.91, 
			 "cosmo_repulsion_energy": 2.37, 
			 "cosmo_total_nonelectrostatic_energy": 15.79, 
			 "SMD_solvation_energy": 6.45 
		},
		"coords": [
			{
				"x": -3.7514730699,
				"y": 0.016509581,
				"z": 3.379952675,
				"element": "O" 
			},
			{
				"x": -2.9338117924,
				"y": 1.1777412226,
				"z": 3.2324474872,
				"element": "C" 
			},
			{
				"x": -1.4722935158,
				"y": 0.7060562558,
				"z": 3.1036345344,
				"element": "C" 
			},
			{
				"x": -0.9926692774,
				"y": 0.0889269129,
				"z": 4.4414065654,
				"element": "C" 
			},
			{
				"x": 0.3039233327,
				"y": -0.4643857968,
				"z": 4.3149811039,
				"element": "O" 
			},
			{
				"x": -0.5672332246,
				"y": 1.895027848,
				"z": 2.7502141674,
				"element": "C" 
			},
			{
				"x": -0.8009372349,
				"y": 2.9207248201,
				"z": 3.7123970276,
				"element": "O" 
			},
			{
				"x": -1.3265004512,
				"y": -0.3778955627,
				"z": 2.1030438604,
				"element": "N" 
			},
			{
				"x": -1.5187428162,
				"y": -0.0629103468,
				"z": 0.6748365447,
				"element": "C" 
			},
			{
				"x": -0.1991752037,
				"y": 0.0719829845,
				"z": -0.1024201194,
				"element": "C" 
			},
			{
				"x": 0.5678313686,
				"y": -1.2538943621,
				"z": -0.1768722957,
				"element": "C" 
			},
			{
				"x": 1.9763042137,
				"y": -1.1252283034,
				"z": -0.5781454709,
				"element": "N" 
			},
			{
				"x": 2.3565435468,
				"y": -0.8107962565,
				"z": -1.9721451841,
				"element": "C" 
			},
			{
				"x": 3.8046215136,
				"y": -1.3025383205,
				"z": -2.1438186348,
				"element": "C" 
			},
			{
				"x": 3.8617816801,
				"y": -2.6835973574,
				"z": -1.7749231076,
				"element": "O" 
			},
			{
				"x": 1.4548420466,
				"y": -1.4732948821,
				"z": -3.0261418574,
				"element": "C" 
			},
			{
				"x": 1.9026229518,
				"y": -1.0542742871,
				"z": -4.3133461283,
				"element": "O" 
			},
			{
				"x": 2.3637061969,
				"y": 0.7346121619,
				"z": -2.1375809227,
				"element": "C" 
			},
			{
				"x": 2.9566643604,
				"y": 1.347531047,
				"z": -1.0101763717,
				"element": "O" 
			},
			{
				"x": -4.6467906604,
				"y": 0.3012362904,
				"z": 3.5960490481,
				"element": "H" 
			},
			{
				"x": -3.0226104185,
				"y": 1.8507959477,
				"z": 4.0936790896,
				"element": "H" 
			},
			{
				"x": -3.2227900189,
				"y": 1.7489919321,
				"z": 2.3359090094,
				"element": "H" 
			},
			{
				"x": -1.7274497841,
				"y": -0.6652841611,
				"z": 4.763079455,
				"element": "H" 
			},
			{
				"x": -0.9476291325,
				"y": 0.8718622403,
				"z": 5.2031056499,
				"element": "H" 
			},
			{
				"x": 0.2845461868,
				"y": -0.9107076135,
				"z": 3.4510902603,
				"element": "H" 
			},
			{
				"x": -0.7908552034,
				"y": 2.2635804029,
				"z": 1.7385298127,
				"element": "H" 
			},
			{
				"x": 0.4729412012,
				"y": 1.5472240615,
				"z": 2.7730628527,
				"element": "H" 
			},
			{
				"x": -0.0928443696,
				"y": 3.5702805503,
				"z": 3.6330192158,
				"element": "H" 
			},
			{
				"x": -2.0155027385,
				"y": -1.0765598475,
				"z": 2.3688306346,
				"element": "H" 
			},
			{
				"x": -2.1204901006,
				"y": 0.8452991184,
				"z": 0.5280890257,
				"element": "H" 
			},
			{
				"x": -2.1020833361,
				"y": -0.8797983063,
				"z": 0.2318279535,
				"element": "H" 
			},
			{
				"x": -0.4349307409,
				"y": 0.4392462582,
				"z": -1.1087326932,
				"element": "H" 
			},
			{
				"x": 0.4418360942,
				"y": 0.8279108234,
				"z": 0.3628640008,
				"element": "H" 
			},
			{
				"x": -0.0010381997,
				"y": -1.9635494686,
				"z": -0.8023148278,
				"element": "H" 
			},
			{
				"x": 0.5815286402,
				"y": -1.6798621034,
				"z": 0.8319203944,
				"element": "H" 
			},
			{
				"x": 2.4697979623,
				"y": -1.9758502446,
				"z": -0.3223685776,
				"element": "H" 
			},
			{
				"x": 4.0966238962,
				"y": -1.1605124378,
				"z": -3.1908571636,
				"element": "H" 
			},
			{
				"x": 4.4528255107,
				"y": -0.6924140395,
				"z": -1.5020347428,
				"element": "H" 
			},
			{
				"x": 4.7885736616,
				"y": -2.9477540765,
				"z": -1.7404319716,
				"element": "H" 
			},
			{
				"x": 1.5165504411,
				"y": -2.5652605361,
				"z": -2.9129192305,
				"element": "H" 
			},
			{
				"x": 0.4097334292,
				"y": -1.1700785308,
				"z": -2.865393429,
				"element": "H" 
			},
			{
				"x": 1.3676093685,
				"y": -1.5028175391,
				"z": -4.9787699399,
				"element": "H" 
			},
			{
				"x": 2.9334368837,
				"y": 1.0127840016,
				"z": -3.0296792193,
				"element": "H" 
			},
			{
				"x": 1.332619652,
				"y": 1.0894983122,
				"z": -2.2935646651,
				"element": "H" 
			},
			{
				"x": 2.7561871506,
				"y": 0.7216416072,
				"z": -0.2861338155,
				"element": "H" 
			}
		],
		 "valence_orbital": [ 
			{
				"type": "occ",
				"energy": -0.26519,
				"method": "rhf"
			},
			{
				"type": "occ",
				"energy": -0.24496,
				"method": "rhf"
			},
			{
				"type": "occ",
				"energy": -0.2443,
				"method": "rhf"
			},
			{
				"type": "occ",
				"energy": -0.23158,
				"method": "rhf"
			},
			{
				"type": "occ",
				"energy": -0.22757,
				"method": "rhf"
			},
			{
				"type": "unocc",
				"energy": 0.0607,
				"method": "rhf"
			},
			{
				"type": "unocc",
				"energy": 0.06817,
				"method": "rhf"
			},
			{
				"type": "unocc",
				"energy": 0.07052,
				"method": "rhf"
			},
			{
				"type": "unocc",
				"energy": 0.07594,
				"method": "rhf"
			},
			{
				"type": "unocc",
				"energy": 0.08345,
				"method": "rhf"
			}
		],
		"cosmo_sigma_profile": { 
			"-0.025": 0.0,
			"-0.024": 0.0,
			"-0.023": 0.0,
			"-0.022": 0.0,
			"-0.021": 0.0,
			"-0.02": 0.0,
			"-0.019": 0.0,
			"-0.018": 0.0,
			"-0.017": 0.0396175975493,
			"-0.016": 2.70317024076,
			"-0.015": 4.36934572571,
			"-0.014": 3.62883976699,
			"-0.013": 4.01049175259,
			"-0.012": 3.67353847725,
			"-0.011": 2.76314419068,
			"-0.01": 3.27164430065,
			"-0.009": 2.46437363955,
			"-0.008": 4.33601678793,
			"-0.007": 6.72702659541,
			"-0.006": 7.07419061528,
			"-0.005": 9.94626059278,
			"-0.004": 22.4798147593,
			"-0.003": 39.225779694,
			"-0.002": 37.841971409,
			"-0.001": 28.2073403036,
			"0.0": 19.6225839719,
			"0.001": 17.0454072281,
			"0.002": 12.6077517771,
			"0.003": 12.6020976154,
			"0.004": 9.7537645495,
			"0.005": 9.7343464028,
			"0.006": 9.57989981551,
			"0.007": 8.95269748657,
			"0.008": 7.52030009848,
			"0.009": 7.44392515378,
			"0.01": 8.47761175235,
			"0.011": 7.75550478711,
			"0.012": 5.75891576376,
			"0.013": 3.42751200475,
			"0.014": 3.03038406656,
			"0.015": 4.88997398607,
			"0.016": 0.710608582158,
			"0.017": 0.0,
			"0.018": 0.0,
			"0.019": 0.0,
			"0.02": 0.0,
			"0.021": 0.0,
			"0.022": 0.0,
			"0.023": 0.0,
			"0.024": 0.0,
			"0.025": 0.0
		}
	}
}
