{
	 "smiles": "CCN(CC)C1=C(N)C=C(C=C1)S(N)(=O)=O", 
	 "Tm": 376.15, 
	 "num_atms": 33, 
	 "gaussian": { 
		 "optdone": 1, 
		 "sigma_profile": "yes", 
		 "theory": "DFT", 
		 "functional": "B3LYP", 
		 "basiset": "6-31G**", 
		 "properties": { 
			 "R2extent": 5216.5593, 
			 "electric_dipole_moment_norm": 7.79000805776, 
			 "electric_quadrupole_moment_norm": 24.3813603655, 
			 "total_energy": -1104.13564665, 
			 "HOMO_LUMO_gap": 0.18001, 
			 "cosmo_polarized_energy": -21.91, 
			 "cosmo_cavitation_energy": 36.09, 
			 "cosmo_dispersion_energy": -25.8, 
			 "cosmo_repulsion_energy": 2.01, 
			 "cosmo_total_nonelectrostatic_energy": 12.29, 
			 "SMD_solvation_energy": 5.53 
		},
		"coords": [
			{
				"x": 1.0795195493,
				"y": -3.0362074044,
				"z": -2.1182871429,
				"element": "C" 
			},
			{
				"x": 0.356846843,
				"y": -3.2652263176,
				"z": -0.7908907557,
				"element": "C" 
			},
			{
				"x": -0.5326891949,
				"y": -2.1537041495,
				"z": -0.4348980706,
				"element": "N" 
			},
			{
				"x": -1.5859986368,
				"y": -2.5138669897,
				"z": 0.5421891843,
				"element": "C" 
			},
			{
				"x": -1.0895917557,
				"y": -2.8819951545,
				"z": 1.946204303,
				"element": "C" 
			},
			{
				"x": 0.06958831,
				"y": -0.8813813413,
				"z": -0.1994518223,
				"element": "C" 
			},
			{
				"x": -0.6765805795,
				"y": 0.2712121208,
				"z": -0.5738037689,
				"element": "C" 
			},
			{
				"x": -1.9461714562,
				"y": 0.1076886046,
				"z": -1.1164936637,
				"element": "N" 
			},
			{
				"x": -0.1316934352,
				"y": 1.5424761531,
				"z": -0.3557849877,
				"element": "C" 
			},
			{
				"x": 1.1389973363,
				"y": 1.6692594891,
				"z": 0.2051657356,
				"element": "C" 
			},
			{
				"x": 1.8937978995,
				"y": 0.5525061458,
				"z": 0.5617810177,
				"element": "C" 
			},
			{
				"x": 1.3432593099,
				"y": -0.7131762405,
				"z": 0.3558515697,
				"element": "C" 
			},
			{
				"x": 1.8339128113,
				"y": 3.3107911294,
				"z": 0.4183278398,
				"element": "S" 
			},
			{
				"x": 2.7358072315,
				"y": 3.6406771877,
				"z": -0.9697261781,
				"element": "N" 
			},
			{
				"x": 2.8089140137,
				"y": 3.2445419642,
				"z": 1.5060132283,
				"element": "O" 
			},
			{
				"x": 0.728478155,
				"y": 4.2687579681,
				"z": 0.3989150607,
				"element": "O" 
			},
			{
				"x": 0.3576383742,
				"y": -2.8710833024,
				"z": -2.9239352614,
				"element": "H" 
			},
			{
				"x": 1.6888712925,
				"y": -3.909449835,
				"z": -2.3720342106,
				"element": "H" 
			},
			{
				"x": 1.7414594703,
				"y": -2.1670096677,
				"z": -2.0722002532,
				"element": "H" 
			},
			{
				"x": 1.0907741431,
				"y": -3.4988049086,
				"z": -0.0016174163,
				"element": "H" 
			},
			{
				"x": -0.2806211991,
				"y": -4.1525483988,
				"z": -0.8776128286,
				"element": "H" 
			},
			{
				"x": -2.1490168601,
				"y": -3.3529065164,
				"z": 0.114578557,
				"element": "H" 
			},
			{
				"x": -2.277299157,
				"y": -1.6686399728,
				"z": 0.607714228,
				"element": "H" 
			},
			{
				"x": -0.5273782244,
				"y": -2.0572409193,
				"z": 2.3946659459,
				"element": "H" 
			},
			{
				"x": -1.942126243,
				"y": -3.1001997427,
				"z": 2.5981287255,
				"element": "H" 
			},
			{
				"x": -0.4469921244,
				"y": -3.7683397186,
				"z": 1.9349047894,
				"element": "H" 
			},
			{
				"x": -2.0538464737,
				"y": -0.7845877351,
				"z": -1.5865489553,
				"element": "H" 
			},
			{
				"x": -2.2909776886,
				"y": 0.8917866429,
				"z": -1.6528734255,
				"element": "H" 
			},
			{
				"x": -0.6971900678,
				"y": 2.4331026106,
				"z": -0.6121849408,
				"element": "H" 
			},
			{
				"x": 2.8668029318,
				"y": 0.6718790889,
				"z": 1.0247407716,
				"element": "H" 
			},
			{
				"x": 1.914692588,
				"y": -1.5891951241,
				"z": 0.6447821759,
				"element": "H" 
			},
			{
				"x": 2.156436609,
				"y": 3.6784663241,
				"z": -1.8029301265,
				"element": "H" 
			},
			{
				"x": 3.522876228,
				"y": 3.00731801,
				"z": -1.0735893242,
				"element": "H" 
			}
		],
		 "valence_orbital": [ 
			{
				"type": "occ",
				"energy": -0.29473,
				"method": "rhf"
			},
			{
				"type": "occ",
				"energy": -0.29346,
				"method": "rhf"
			},
			{
				"type": "occ",
				"energy": -0.27007,
				"method": "rhf"
			},
			{
				"type": "occ",
				"energy": -0.23331,
				"method": "rhf"
			},
			{
				"type": "occ",
				"energy": -0.20744,
				"method": "rhf"
			},
			{
				"type": "unocc",
				"energy": -0.02743,
				"method": "rhf"
			},
			{
				"type": "unocc",
				"energy": -0.00386,
				"method": "rhf"
			},
			{
				"type": "unocc",
				"energy": 0.0581,
				"method": "rhf"
			},
			{
				"type": "unocc",
				"energy": 0.07415,
				"method": "rhf"
			},
			{
				"type": "unocc",
				"energy": 0.07807,
				"method": "rhf"
			}
		],
		"cosmo_sigma_profile": { 
			"-0.025": 0.0,
			"-0.024": 0.0,
			"-0.023": 0.0,
			"-0.022": 0.0,
			"-0.021": 0.0,
			"-0.02": 0.0,
			"-0.019": 0.0,
			"-0.018": 0.0,
			"-0.017": 0.0,
			"-0.016": 0.0,
			"-0.015": 1.27854217798,
			"-0.014": 2.76742560771,
			"-0.013": 2.83508663598,
			"-0.012": 4.40493858202,
			"-0.011": 3.79822176589,
			"-0.01": 4.92950325939,
			"-0.009": 3.88546748122,
			"-0.008": 5.32033713549,
			"-0.007": 4.75996972219,
			"-0.006": 6.46606627088,
			"-0.005": 7.55985185232,
			"-0.004": 13.7792650253,
			"-0.003": 21.7509601987,
			"-0.002": 28.0999571564,
			"-0.001": 30.153189467,
			"0.0": 25.5882671535,
			"0.001": 22.9954269252,
			"0.002": 13.177233883,
			"0.003": 11.9083059971,
			"0.004": 12.4072782015,
			"0.005": 6.84219340735,
			"0.006": 5.37399118929,
			"0.007": 5.16296370744,
			"0.008": 4.59977885624,
			"0.009": 5.2070244824,
			"0.01": 6.7170734036,
			"0.011": 11.4999820115,
			"0.012": 8.70531795445,
			"0.013": 0.790644968109,
			"0.014": 0.062100306742,
			"0.015": 0.0,
			"0.016": 0.0,
			"0.017": 0.0,
			"0.018": 0.0,
			"0.019": 0.0,
			"0.02": 0.0,
			"0.021": 0.0,
			"0.022": 0.0,
			"0.023": 0.0,
			"0.024": 0.0,
			"0.025": 0.0
		}
	}
}
