{
	 "smiles": "COC1=CC=C(Cl)C(Cl)=C1Cl", 
	 "Tm": 342.65, 
	 "num_atms": 16, 
	 "gaussian": { 
		 "optdone": 1, 
		 "sigma_profile": "yes", 
		 "theory": "DFT", 
		 "functional": "B3LYP", 
		 "basiset": "6-31G**", 
		 "properties": { 
			 "R2extent": 4683.3639, 
			 "electric_dipole_moment_norm": 3.15244402647, 
			 "electric_quadrupole_moment_norm": 7.5112204967, 
			 "total_energy": -1725.53042181, 
			 "HOMO_LUMO_gap": 0.21533, 
			 "cosmo_polarized_energy": -5.79, 
			 "cosmo_cavitation_energy": 25.38, 
			 "cosmo_dispersion_energy": -19.01, 
			 "cosmo_repulsion_energy": 1.53, 
			 "cosmo_total_nonelectrostatic_energy": 7.89, 
			 "SMD_solvation_energy": 4.45 
		},
		"coords": [
			{
				"x": -0.6763129423,
				"y": -1.2740485277,
				"z": -1.9300088936,
				"element": "C" 
			},
			{
				"x": -0.7951495699,
				"y": -0.1885355643,
				"z": -1.0023615676,
				"element": "O" 
			},
			{
				"x": 0.3887240187,
				"y": 0.3551093005,
				"z": -0.5875484677,
				"element": "C" 
			},
			{
				"x": 0.9899767582,
				"y": -0.1090215474,
				"z": 0.5829792206,
				"element": "C" 
			},
			{
				"x": 2.164025601,
				"y": 0.4678637427,
				"z": 1.0529378806,
				"element": "C" 
			},
			{
				"x": 2.7554778735,
				"y": 1.5192444097,
				"z": 0.353394166,
				"element": "C" 
			},
			{
				"x": 4.2305678404,
				"y": 2.2125212556,
				"z": 0.9807808465,
				"element": "Cl" 
			},
			{
				"x": 2.1684721402,
				"y": 2.0077615076,
				"z": -0.8255457901,
				"element": "C" 
			},
			{
				"x": 2.8959389707,
				"y": 3.3246276565,
				"z": -1.6947761512,
				"element": "Cl" 
			},
			{
				"x": 0.981093475,
				"y": 1.417103722,
				"z": -1.293512802,
				"element": "C" 
			},
			{
				"x": 0.202658286,
				"y": 1.9957359226,
				"z": -2.7392929829,
				"element": "Cl" 
			},
			{
				"x": -1.6941429926,
				"y": -1.6048686064,
				"z": -2.1419696425,
				"element": "H" 
			},
			{
				"x": -0.1053197385,
				"y": -2.1029678626,
				"z": -1.4935178544,
				"element": "H" 
			},
			{
				"x": -0.197064507,
				"y": -0.9520082974,
				"z": -2.8610351581,
				"element": "H" 
			},
			{
				"x": 0.5116759845,
				"y": -0.918765022,
				"z": 1.1234787142,
				"element": "H" 
			},
			{
				"x": 2.6300788021,
				"y": 0.1114479106,
				"z": 1.9641984821,
				"element": "H" 
			}
		],
		 "valence_orbital": [ 
			{
				"type": "occ",
				"energy": -0.32526,
				"method": "rhf"
			},
			{
				"type": "occ",
				"energy": -0.30758,
				"method": "rhf"
			},
			{
				"type": "occ",
				"energy": -0.29126,
				"method": "rhf"
			},
			{
				"type": "occ",
				"energy": -0.2603,
				"method": "rhf"
			},
			{
				"type": "occ",
				"energy": -0.25045,
				"method": "rhf"
			},
			{
				"type": "unocc",
				"energy": -0.03512,
				"method": "rhf"
			},
			{
				"type": "unocc",
				"energy": -0.0295,
				"method": "rhf"
			},
			{
				"type": "unocc",
				"energy": -0.0197,
				"method": "rhf"
			},
			{
				"type": "unocc",
				"energy": 0.04512,
				"method": "rhf"
			},
			{
				"type": "unocc",
				"energy": 0.06219,
				"method": "rhf"
			}
		],
		"cosmo_sigma_profile": { 
			"-0.025": 0.0,
			"-0.024": 0.0,
			"-0.023": 0.0,
			"-0.022": 0.0,
			"-0.021": 0.0,
			"-0.02": 0.0,
			"-0.019": 0.0,
			"-0.018": 0.0,
			"-0.017": 0.0,
			"-0.016": 0.0,
			"-0.015": 0.0,
			"-0.014": 0.0,
			"-0.013": 0.0,
			"-0.012": 0.0,
			"-0.011": 0.0,
			"-0.01": 0.0,
			"-0.009": 0.375231638184,
			"-0.008": 3.83965643479,
			"-0.007": 3.76597884867,
			"-0.006": 5.98684025414,
			"-0.005": 9.9560371699,
			"-0.004": 14.0962832196,
			"-0.003": 17.2099307809,
			"-0.002": 13.3236016703,
			"-0.001": 20.7232644494,
			"0.0": 25.606761486,
			"0.001": 21.7815770581,
			"0.002": 16.3126108173,
			"0.003": 21.9714244516,
			"0.004": 20.4450845715,
			"0.005": 5.99500103942,
			"0.006": 1.67070971991,
			"0.007": 1.86990159276,
			"0.008": 1.27668963979,
			"0.009": 1.37775418611,
			"0.01": 1.72639216743,
			"0.011": 0.73030628029,
			"0.012": 0.0,
			"0.013": 0.0,
			"0.014": 0.0,
			"0.015": 0.0,
			"0.016": 0.0,
			"0.017": 0.0,
			"0.018": 0.0,
			"0.019": 0.0,
			"0.02": 0.0,
			"0.021": 0.0,
			"0.022": 0.0,
			"0.023": 0.0,
			"0.024": 0.0,
			"0.025": 0.0
		}
	}
}
