{
	 "smiles": "CC=CC(C)C", 
	 "Tm": 153.15, 
	 "num_atms": 18, 
	 "gaussian": { 
		 "optdone": 1, 
		 "sigma_profile": "yes", 
		 "theory": "DFT", 
		 "functional": "B3LYP", 
		 "basiset": "6-31G**", 
		 "properties": { 
			 "R2extent": 872.7091, 
			 "electric_dipole_moment_norm": 0.0379506258183, 
			 "electric_quadrupole_moment_norm": 1.57824015916, 
			 "total_energy": -235.866026925, 
			 "HOMO_LUMO_gap": 0.26912, 
			 "cosmo_polarized_energy": -1.39, 
			 "cosmo_cavitation_energy": 20.04, 
			 "cosmo_dispersion_energy": -14.53, 
			 "cosmo_repulsion_energy": 1.27, 
			 "cosmo_total_nonelectrostatic_energy": 6.78, 
			 "SMD_solvation_energy": 3.91 
		},
		"coords": [
			{
				"x": 2.4538778233,
				"y": -0.5665124671,
				"z": -2.0126350715,
				"element": "C" 
			},
			{
				"x": 1.3156593711,
				"y": 0.0472771915,
				"z": -1.2468312987,
				"element": "C" 
			},
			{
				"x": 0.2870815571,
				"y": -0.634506477,
				"z": -0.7354074921,
				"element": "C" 
			},
			{
				"x": -0.8819653853,
				"y": -0.0861110654,
				"z": 0.0525189492,
				"element": "C" 
			},
			{
				"x": -0.9719889336,
				"y": -0.7868888413,
				"z": 1.4237435069,
				"element": "C" 
			},
			{
				"x": -0.8716438933,
				"y": 1.4382401911,
				"z": 0.2149886092,
				"element": "C" 
			},
			{
				"x": 3.4168446939,
				"y": -0.3662002244,
				"z": -1.5251162712,
				"element": "H" 
			},
			{
				"x": 2.5252275325,
				"y": -0.1487897144,
				"z": -3.0253216824,
				"element": "H" 
			},
			{
				"x": 2.3403766025,
				"y": -1.6513973258,
				"z": -2.10229855,
				"element": "H" 
			},
			{
				"x": 1.360264369,
				"y": 1.128146046,
				"z": -1.1178821242,
				"element": "H" 
			},
			{
				"x": 0.267998365,
				"y": -1.7176793706,
				"z": -0.8781362385,
				"element": "H" 
			},
			{
				"x": -1.7950682213,
				"y": -0.3555745998,
				"z": -0.5029215731,
				"element": "H" 
			},
			{
				"x": -0.0991362611,
				"y": -0.5438026756,
				"z": 2.0399469107,
				"element": "H" 
			},
			{
				"x": -1.8700375958,
				"y": -0.4729460529,
				"z": 1.9669814685,
				"element": "H" 
			},
			{
				"x": -1.0092451429,
				"y": -1.8761287269,
				"z": 1.3140344739,
				"element": "H" 
			},
			{
				"x": -1.7618954674,
				"y": 1.7718033333,
				"z": 0.7580017967,
				"element": "H" 
			},
			{
				"x": 0.0061579724,
				"y": 1.7697217091,
				"z": 0.7814533831,
				"element": "H" 
			},
			{
				"x": -0.8592073861,
				"y": 1.9471490703,
				"z": -0.7541187965,
				"element": "H" 
			}
		],
		 "valence_orbital": [ 
			{
				"type": "occ",
				"energy": -0.35225,
				"method": "rhf"
			},
			{
				"type": "occ",
				"energy": -0.33769,
				"method": "rhf"
			},
			{
				"type": "occ",
				"energy": -0.32458,
				"method": "rhf"
			},
			{
				"type": "occ",
				"energy": -0.31826,
				"method": "rhf"
			},
			{
				"type": "occ",
				"energy": -0.23506,
				"method": "rhf"
			},
			{
				"type": "unocc",
				"energy": 0.03406,
				"method": "rhf"
			},
			{
				"type": "unocc",
				"energy": 0.10046,
				"method": "rhf"
			},
			{
				"type": "unocc",
				"energy": 0.1223,
				"method": "rhf"
			},
			{
				"type": "unocc",
				"energy": 0.12361,
				"method": "rhf"
			},
			{
				"type": "unocc",
				"energy": 0.14999,
				"method": "rhf"
			}
		],
		"cosmo_sigma_profile": { 
			"-0.025": 0.0,
			"-0.024": 0.0,
			"-0.023": 0.0,
			"-0.022": 0.0,
			"-0.021": 0.0,
			"-0.02": 0.0,
			"-0.019": 0.0,
			"-0.018": 0.0,
			"-0.017": 0.0,
			"-0.016": 0.0,
			"-0.015": 0.0,
			"-0.014": 0.0,
			"-0.013": 0.0,
			"-0.012": 0.0,
			"-0.011": 0.0,
			"-0.01": 0.0,
			"-0.009": 0.0,
			"-0.008": 0.0,
			"-0.007": 0.0,
			"-0.006": 0.0,
			"-0.005": 0.0,
			"-0.004": 1.62382009979,
			"-0.003": 14.762890321,
			"-0.002": 26.721642733,
			"-0.001": 28.6943271533,
			"0.0": 27.1794590839,
			"0.001": 25.4080707723,
			"0.002": 13.9068499072,
			"0.003": 4.83531095377,
			"0.004": 3.7015403338,
			"0.005": 2.90072700471,
			"0.006": 2.58386896236,
			"0.007": 2.09539092081,
			"0.008": 0.709552302224,
			"0.009": 0.0,
			"0.01": 0.0,
			"0.011": 0.0,
			"0.012": 0.0,
			"0.013": 0.0,
			"0.014": 0.0,
			"0.015": 0.0,
			"0.016": 0.0,
			"0.017": 0.0,
			"0.018": 0.0,
			"0.019": 0.0,
			"0.02": 0.0,
			"0.021": 0.0,
			"0.022": 0.0,
			"0.023": 0.0,
			"0.024": 0.0,
			"0.025": 0.0
		}
	}
}
