{
	 "smiles": "CNC1=C(N)C=CC(=C1)C(=O)OC", 
	 "Tm": 353.15, 
	 "num_atms": 25, 
	 "gaussian": { 
		 "optdone": 1, 
		 "sigma_profile": "yes", 
		 "theory": "DFT", 
		 "functional": "B3LYP", 
		 "basiset": "6-31G**", 
		 "properties": { 
			 "R2extent": 3199.4079, 
			 "electric_dipole_moment_norm": 3.06331458554, 
			 "electric_quadrupole_moment_norm": 15.269149384, 
			 "total_energy": -610.157705399, 
			 "HOMO_LUMO_gap": 0.16903, 
			 "cosmo_polarized_energy": -13.68, 
			 "cosmo_cavitation_energy": 28.63, 
			 "cosmo_dispersion_energy": -21.11, 
			 "cosmo_repulsion_energy": 1.68, 
			 "cosmo_total_nonelectrostatic_energy": 9.21, 
			 "SMD_solvation_energy": 5.93 
		},
		"coords": [
			{
				"x": -3.4758260933,
				"y": 0.3752699659,
				"z": -2.0497453759,
				"element": "C" 
			},
			{
				"x": -2.9688881865,
				"y": -0.6395048214,
				"z": -1.1392009991,
				"element": "N" 
			},
			{
				"x": -1.643367847,
				"y": -0.5488564881,
				"z": -0.6782698276,
				"element": "C" 
			},
			{
				"x": -1.2238796299,
				"y": -1.5248510293,
				"z": 0.2677663406,
				"element": "C" 
			},
			{
				"x": -2.1650743844,
				"y": -2.4697671912,
				"z": 0.6916035754,
				"element": "N" 
			},
			{
				"x": 0.0793212598,
				"y": -1.4827293232,
				"z": 0.7708778027,
				"element": "C" 
			},
			{
				"x": 0.9842462651,
				"y": -0.5158869477,
				"z": 0.3374573767,
				"element": "C" 
			},
			{
				"x": 0.5889601624,
				"y": 0.421668768,
				"z": -0.621774552,
				"element": "C" 
			},
			{
				"x": -0.7272024046,
				"y": 0.4024421682,
				"z": -1.1162873166,
				"element": "C" 
			},
			{
				"x": 1.4993981125,
				"y": 1.4676950344,
				"z": -1.1432720365,
				"element": "C" 
			},
			{
				"x": 1.1983876039,
				"y": 2.3009172568,
				"z": -1.9797812214,
				"element": "O" 
			},
			{
				"x": 2.7366266859,
				"y": 1.4100984883,
				"z": -0.5855779934,
				"element": "O" 
			},
			{
				"x": 3.6598485315,
				"y": 2.4003707957,
				"z": -1.0542016082,
				"element": "C" 
			},
			{
				"x": -3.4012304456,
				"y": 1.4022028284,
				"z": -1.658411109,
				"element": "H" 
			},
			{
				"x": -4.5257716665,
				"y": 0.1611902372,
				"z": -2.2642613522,
				"element": "H" 
			},
			{
				"x": -2.9255467225,
				"y": 0.3352983547,
				"z": -2.9948217171,
				"element": "H" 
			},
			{
				"x": -3.6070231374,
				"y": -0.8259715975,
				"z": -0.3716673437,
				"element": "H" 
			},
			{
				"x": -1.7694181254,
				"y": -3.2356122098,
				"z": 1.2217340466,
				"element": "H" 
			},
			{
				"x": -2.7485299906,
				"y": -2.809013557,
				"z": -0.0668576789,
				"element": "H" 
			},
			{
				"x": 0.3881775734,
				"y": -2.2290364295,
				"z": 1.4991211756,
				"element": "H" 
			},
			{
				"x": 1.9949840131,
				"y": -0.4986715231,
				"z": 0.7269182016,
				"element": "H" 
			},
			{
				"x": -1.0052932285,
				"y": 1.1573573639,
				"z": -1.8415890292,
				"element": "H" 
			},
			{
				"x": 3.2890167284,
				"y": 3.4073310163,
				"z": -0.8447468839,
				"element": "H" 
			},
			{
				"x": 4.5895586168,
				"y": 2.216562888,
				"z": -0.5147435588,
				"element": "H" 
			},
			{
				"x": 3.8179263095,
				"y": 2.305295952,
				"z": -2.1318689158,
				"element": "H" 
			}
		],
		 "valence_orbital": [ 
			{
				"type": "occ",
				"energy": -0.28974,
				"method": "rhf"
			},
			{
				"type": "occ",
				"energy": -0.28671,
				"method": "rhf"
			},
			{
				"type": "occ",
				"energy": -0.25805,
				"method": "rhf"
			},
			{
				"type": "occ",
				"energy": -0.22555,
				"method": "rhf"
			},
			{
				"type": "occ",
				"energy": -0.19219,
				"method": "rhf"
			},
			{
				"type": "unocc",
				"energy": -0.02316,
				"method": "rhf"
			},
			{
				"type": "unocc",
				"energy": 0.01496,
				"method": "rhf"
			},
			{
				"type": "unocc",
				"energy": 0.06905,
				"method": "rhf"
			},
			{
				"type": "unocc",
				"energy": 0.08537,
				"method": "rhf"
			},
			{
				"type": "unocc",
				"energy": 0.10111,
				"method": "rhf"
			}
		],
		"cosmo_sigma_profile": { 
			"-0.025": 0.0,
			"-0.024": 0.0,
			"-0.023": 0.0,
			"-0.022": 0.0,
			"-0.021": 0.0,
			"-0.02": 0.0,
			"-0.019": 0.0,
			"-0.018": 0.0,
			"-0.017": 0.0,
			"-0.016": 0.0,
			"-0.015": 0.0,
			"-0.014": 0.0,
			"-0.013": 0.426632435654,
			"-0.012": 1.76302186762,
			"-0.011": 3.20591757414,
			"-0.01": 3.32410996514,
			"-0.009": 4.77116083947,
			"-0.008": 4.42661409355,
			"-0.007": 3.486510096,
			"-0.006": 6.67151724211,
			"-0.005": 14.0356806591,
			"-0.004": 19.3219100467,
			"-0.003": 21.328036369,
			"-0.002": 18.7688581666,
			"-0.001": 17.5495144421,
			"0.0": 10.0584698912,
			"0.001": 10.2096731805,
			"0.002": 11.0981472218,
			"0.003": 13.0097098591,
			"0.004": 14.2367729184,
			"0.005": 14.8367300908,
			"0.006": 9.07612345642,
			"0.007": 4.77553247059,
			"0.008": 3.14326906125,
			"0.009": 2.96172601215,
			"0.01": 2.10415172578,
			"0.011": 3.13739808813,
			"0.012": 4.49243054146,
			"0.013": 3.86106672535,
			"0.014": 0.0702343808569,
			"0.015": 0.0,
			"0.016": 0.0,
			"0.017": 0.0,
			"0.018": 0.0,
			"0.019": 0.0,
			"0.02": 0.0,
			"0.021": 0.0,
			"0.022": 0.0,
			"0.023": 0.0,
			"0.024": 0.0,
			"0.025": 0.0
		}
	}
}
