{
	 "smiles": "ClC1=C(Cl)C=C(C=C1)N1C=C(C=O)N=N1", 
	 "Tm": 449.15, 
	 "num_atms": 20, 
	 "gaussian": { 
		 "optdone": 1, 
		 "sigma_profile": "yes", 
		 "theory": "DFT", 
		 "functional": "B3LYP", 
		 "basiset": "6-31G**", 
		 "properties": { 
			 "R2extent": 6694.8916, 
			 "electric_dipole_moment_norm": 4.30761678426, 
			 "electric_quadrupole_moment_norm": 28.9100661027, 
			 "total_energy": -1505.76678553, 
			 "HOMO_LUMO_gap": 0.18261, 
			 "cosmo_polarized_energy": -18.38, 
			 "cosmo_cavitation_energy": 29.85, 
			 "cosmo_dispersion_energy": -22.04, 
			 "cosmo_repulsion_energy": 1.7, 
			 "cosmo_total_nonelectrostatic_energy": 9.51, 
			 "SMD_solvation_energy": 4.62 
		},
		"coords": [
			{
				"x": 3.5996179713,
				"y": 4.0202617415,
				"z": -0.1146524455,
				"element": "Cl" 
			},
			{
				"x": 2.1282532037,
				"y": 3.0955599072,
				"z": -0.2244639141,
				"element": "C" 
			},
			{
				"x": 1.5058544385,
				"y": 2.5662123485,
				"z": 0.9136021504,
				"element": "C" 
			},
			{
				"x": 2.167452545,
				"y": 2.8015448406,
				"z": 2.5091534179,
				"element": "Cl" 
			},
			{
				"x": 0.3269625046,
				"y": 1.8295638025,
				"z": 0.7895254337,
				"element": "C" 
			},
			{
				"x": -0.2327601522,
				"y": 1.6200807959,
				"z": -0.4712825241,
				"element": "C" 
			},
			{
				"x": 0.381355724,
				"y": 2.1446595986,
				"z": -1.613914303,
				"element": "C" 
			},
			{
				"x": 1.5544363093,
				"y": 2.8764377413,
				"z": -1.4801050204,
				"element": "C" 
			},
			{
				"x": -1.4336830013,
				"y": 0.8709932586,
				"z": -0.6076441207,
				"element": "N" 
			},
			{
				"x": -2.2060024951,
				"y": 0.270780105,
				"z": 0.3299923764,
				"element": "C" 
			},
			{
				"x": -3.2411320704,
				"y": -0.3061538993,
				"z": -0.3813013963,
				"element": "C" 
			},
			{
				"x": -4.3677238611,
				"y": -1.0855179238,
				"z": 0.1546639712,
				"element": "C" 
			},
			{
				"x": -5.25454315,
				"y": -1.5732051636,
				"z": -0.5131417995,
				"element": "O" 
			},
			{
				"x": -3.0513587236,
				"y": -0.0315019867,
				"z": -1.7142701482,
				"element": "N" 
			},
			{
				"x": -1.9794082946,
				"y": 0.6681775642,
				"z": -1.8566277877,
				"element": "N" 
			},
			{
				"x": -0.1289145854,
				"y": 1.4341637862,
				"z": 1.6882698022,
				"element": "H" 
			},
			{
				"x": -0.0617097095,
				"y": 1.9758974564,
				"z": -2.5865033305,
				"element": "H" 
			},
			{
				"x": 2.0395712452,
				"y": 3.2879505177,
				"z": -2.3578945451,
				"element": "H" 
			},
			{
				"x": -1.9894087074,
				"y": 0.2867894765,
				"z": 1.3856114359,
				"element": "H" 
			},
			{
				"x": -4.3447591911,
				"y": -1.1984939671,
				"z": 1.2616827475,
				"element": "H" 
			}
		],
		 "valence_orbital": [ 
			{
				"type": "occ",
				"energy": -0.29554,
				"method": "rhf"
			},
			{
				"type": "occ",
				"energy": -0.29396,
				"method": "rhf"
			},
			{
				"type": "occ",
				"energy": -0.28622,
				"method": "rhf"
			},
			{
				"type": "occ",
				"energy": -0.26521,
				"method": "rhf"
			},
			{
				"type": "occ",
				"energy": -0.26048,
				"method": "rhf"
			},
			{
				"type": "unocc",
				"energy": -0.07787,
				"method": "rhf"
			},
			{
				"type": "unocc",
				"energy": -0.05793,
				"method": "rhf"
			},
			{
				"type": "unocc",
				"energy": -0.04707,
				"method": "rhf"
			},
			{
				"type": "unocc",
				"energy": -0.0173,
				"method": "rhf"
			},
			{
				"type": "unocc",
				"energy": -0.00527,
				"method": "rhf"
			}
		],
		"cosmo_sigma_profile": { 
			"-0.025": 0.0,
			"-0.024": 0.0,
			"-0.023": 0.0,
			"-0.022": 0.0,
			"-0.021": 0.0,
			"-0.02": 0.0,
			"-0.019": 0.0,
			"-0.018": 0.0,
			"-0.017": 0.0,
			"-0.016": 0.0,
			"-0.015": 0.0661166592536,
			"-0.014": 1.65800186704,
			"-0.013": 2.04737509013,
			"-0.012": 2.12172786577,
			"-0.011": 2.88396769151,
			"-0.01": 3.20310748969,
			"-0.009": 3.62152439958,
			"-0.008": 7.07333379863,
			"-0.007": 8.48006418575,
			"-0.006": 7.84664336711,
			"-0.005": 9.53120061924,
			"-0.004": 11.8651870517,
			"-0.003": 15.6131855439,
			"-0.002": 15.7815918636,
			"-0.001": 24.460698661,
			"0.0": 25.0425377999,
			"0.001": 16.5016689125,
			"0.002": 14.6011749239,
			"0.003": 19.0840895365,
			"0.004": 13.4220531012,
			"0.005": 4.90208206875,
			"0.006": 3.2579830811,
			"0.007": 4.32641050922,
			"0.008": 4.84741861806,
			"0.009": 6.05450995714,
			"0.01": 4.66367765667,
			"0.011": 6.07151711198,
			"0.012": 4.55592506804,
			"0.013": 2.00243260791,
			"0.014": 0.850351252275,
			"0.015": 0.0574588310674,
			"0.016": 0.0,
			"0.017": 0.0,
			"0.018": 0.0,
			"0.019": 0.0,
			"0.02": 0.0,
			"0.021": 0.0,
			"0.022": 0.0,
			"0.023": 0.0,
			"0.024": 0.0,
			"0.025": 0.0
		}
	}
}
