{
	 "smiles": "CCOC1=CC=C(NC(=O)CC(C)O)C=C1", 
	 "Tm": 433.15, 
	 "num_atms": 33, 
	 "gaussian": { 
		 "optdone": 1, 
		 "sigma_profile": "yes", 
		 "theory": "DFT", 
		 "functional": "B3LYP", 
		 "basiset": "6-31G**", 
		 "properties": { 
			 "R2extent": 7220.6297, 
			 "electric_dipole_moment_norm": 5.83099313668, 
			 "electric_quadrupole_moment_norm": 9.87278428965, 
			 "total_energy": -747.966872261, 
			 "HOMO_LUMO_gap": 0.1945, 
			 "cosmo_polarized_energy": -16.53, 
			 "cosmo_cavitation_energy": 35.93, 
			 "cosmo_dispersion_energy": -26.59, 
			 "cosmo_repulsion_energy": 2.1, 
			 "cosmo_total_nonelectrostatic_energy": 11.44, 
			 "SMD_solvation_energy": 6.59 
		},
		"coords": [
			{
				"x": 1.0939976706,
				"y": -1.8605901746,
				"z": 6.4097477638,
				"element": "C" 
			},
			{
				"x": 1.3205449624,
				"y": -1.9183319873,
				"z": 4.9090731304,
				"element": "C" 
			},
			{
				"x": 0.2968839926,
				"y": -1.1431953617,
				"z": 4.2889884248,
				"element": "O" 
			},
			{
				"x": 0.2861919852,
				"y": -1.0407903193,
				"z": 2.9279061692,
				"element": "C" 
			},
			{
				"x": 1.2140698414,
				"y": -1.6455367216,
				"z": 2.0724826374,
				"element": "C" 
			},
			{
				"x": 1.0993676406,
				"y": -1.4674497969,
				"z": 0.6932861332,
				"element": "C" 
			},
			{
				"x": 0.0724695453,
				"y": -0.6938160968,
				"z": 0.1432776633,
				"element": "C" 
			},
			{
				"x": 0.0331176728,
				"y": -0.5663868438,
				"z": -1.2676998126,
				"element": "N" 
			},
			{
				"x": -0.8667856852,
				"y": 0.0964451578,
				"z": -2.0554442766,
				"element": "C" 
			},
			{
				"x": -1.8135478224,
				"y": 0.7486358537,
				"z": -1.6068976561,
				"element": "O" 
			},
			{
				"x": -0.6276549671,
				"y": -0.0363915596,
				"z": -3.5563092944,
				"element": "C" 
			},
			{
				"x": -1.0296101368,
				"y": 1.244298884,
				"z": -4.3204258799,
				"element": "C" 
			},
			{
				"x": -0.7255894016,
				"y": 1.1282355536,
				"z": -5.8095465959,
				"element": "C" 
			},
			{
				"x": -2.4152729822,
				"y": 1.4927132289,
				"z": -4.1861430739,
				"element": "O" 
			},
			{
				"x": -0.8578654206,
				"y": -0.0864191787,
				"z": 1.004417517,
				"element": "C" 
			},
			{
				"x": -0.7434529496,
				"y": -0.2647362379,
				"z": 2.3769805252,
				"element": "C" 
			},
			{
				"x": 1.8600564424,
				"y": -2.4445031119,
				"z": 6.9291193206,
				"element": "H" 
			},
			{
				"x": 0.1124025802,
				"y": -2.2682310167,
				"z": 6.6667874954,
				"element": "H" 
			},
			{
				"x": 1.1422110989,
				"y": -0.828156217,
				"z": 6.7668539384,
				"element": "H" 
			},
			{
				"x": 2.3087144265,
				"y": -1.5131723323,
				"z": 4.6468836921,
				"element": "H" 
			},
			{
				"x": 1.2771496843,
				"y": -2.9557217502,
				"z": 4.5467105897,
				"element": "H" 
			},
			{
				"x": 2.0235355794,
				"y": -2.2524669491,
				"z": 2.4592645258,
				"element": "H" 
			},
			{
				"x": 1.827129915,
				"y": -1.9437893931,
				"z": 0.0394520075,
				"element": "H" 
			},
			{
				"x": 0.7662927732,
				"y": -1.0583682477,
				"z": -1.7577803384,
				"element": "H" 
			},
			{
				"x": -1.2527043062,
				"y": -0.8601271749,
				"z": -3.9263799891,
				"element": "H" 
			},
			{
				"x": 0.4173369338,
				"y": -0.2955404854,
				"z": -3.7664291081,
				"element": "H" 
			},
			{
				"x": -0.4426982294,
				"y": 2.0826954251,
				"z": -3.9037364969,
				"element": "H" 
			},
			{
				"x": -1.055885001,
				"y": 2.0353082053,
				"z": -6.3228384517,
				"element": "H" 
			},
			{
				"x": -1.2643279179,
				"y": 0.2791661068,
				"z": -6.2430698124,
				"element": "H" 
			},
			{
				"x": 0.3463901632,
				"y": 0.9959318168,
				"z": -5.9893817515,
				"element": "H" 
			},
			{
				"x": -2.5919179577,
				"y": 1.4578818378,
				"z": -3.2288770229,
				"element": "H" 
			},
			{
				"x": -1.6544433427,
				"y": 0.514246624,
				"z": 0.5895746834,
				"element": "H" 
			},
			{
				"x": -1.455806787,
				"y": 0.1989622625,
				"z": 3.0515533429,
				"element": "H" 
			}
		],
		 "valence_orbital": [ 
			{
				"type": "occ",
				"energy": -0.28742,
				"method": "rhf"
			},
			{
				"type": "occ",
				"energy": -0.25937,
				"method": "rhf"
			},
			{
				"type": "occ",
				"energy": -0.25548,
				"method": "rhf"
			},
			{
				"type": "occ",
				"energy": -0.24875,
				"method": "rhf"
			},
			{
				"type": "occ",
				"energy": -0.20608,
				"method": "rhf"
			},
			{
				"type": "unocc",
				"energy": -0.01158,
				"method": "rhf"
			},
			{
				"type": "unocc",
				"energy": -0.00591,
				"method": "rhf"
			},
			{
				"type": "unocc",
				"energy": 0.04433,
				"method": "rhf"
			},
			{
				"type": "unocc",
				"energy": 0.05988,
				"method": "rhf"
			},
			{
				"type": "unocc",
				"energy": 0.09204,
				"method": "rhf"
			}
		],
		"cosmo_sigma_profile": { 
			"-0.025": 0.0,
			"-0.024": 0.0,
			"-0.023": 0.0,
			"-0.022": 0.0,
			"-0.021": 0.0,
			"-0.02": 0.0,
			"-0.019": 0.0,
			"-0.018": 0.0,
			"-0.017": 0.0,
			"-0.016": 0.0805300049247,
			"-0.015": 1.32491719736,
			"-0.014": 1.32423235343,
			"-0.013": 1.64747258997,
			"-0.012": 1.11658261432,
			"-0.011": 1.56294714646,
			"-0.01": 2.20363609881,
			"-0.009": 1.45395054436,
			"-0.008": 1.17026899717,
			"-0.007": 3.17847132594,
			"-0.006": 7.66618931409,
			"-0.005": 16.6211079362,
			"-0.004": 27.5352286103,
			"-0.003": 30.4556326014,
			"-0.002": 24.9239367091,
			"-0.001": 22.5742910333,
			"0.0": 22.7084182137,
			"0.001": 19.3042108122,
			"0.002": 14.1419669607,
			"0.003": 14.5746615392,
			"0.004": 16.7754846036,
			"0.005": 16.0235324824,
			"0.006": 5.99559304016,
			"0.007": 4.11288918663,
			"0.008": 5.02231117081,
			"0.009": 3.89004889034,
			"0.01": 5.2984965489,
			"0.011": 2.95841154063,
			"0.012": 1.25660673517,
			"0.013": 1.58066265481,
			"0.014": 1.76270093504,
			"0.015": 2.01395134499,
			"0.016": 0.169699898554,
			"0.017": 0.0,
			"0.018": 0.0,
			"0.019": 0.0,
			"0.02": 0.0,
			"0.021": 0.0,
			"0.022": 0.0,
			"0.023": 0.0,
			"0.024": 0.0,
			"0.025": 0.0
		}
	}
}
