{
	 "smiles": "CC1=CC2=C(C=C1)C=C(C(O)=O)C(C)=N2", 
	 "Tm": 471.15, 
	 "num_atms": 26, 
	 "gaussian": { 
		 "optdone": 1, 
		 "sigma_profile": "yes", 
		 "theory": "DFT", 
		 "functional": "B3LYP", 
		 "basiset": "6-31G**", 
		 "properties": { 
			 "R2extent": 4713.2646, 
			 "electric_dipole_moment_norm": 5.2833545783, 
			 "electric_quadrupole_moment_norm": 18.2357681023, 
			 "total_energy": -669.135849745, 
			 "HOMO_LUMO_gap": 0.17178, 
			 "cosmo_polarized_energy": -15.85, 
			 "cosmo_cavitation_energy": 30.0, 
			 "cosmo_dispersion_energy": -22.04, 
			 "cosmo_repulsion_energy": 1.7, 
			 "cosmo_total_nonelectrostatic_energy": 9.66, 
			 "SMD_solvation_energy": 4.65 
		},
		"coords": [
			{
				"x": -2.0927841917,
				"y": -1.4823530554,
				"z": -2.2310926081,
				"element": "C" 
			},
			{
				"x": -1.596454388,
				"y": -0.4906629549,
				"z": -1.2081269137,
				"element": "C" 
			},
			{
				"x": -0.3154019885,
				"y": -0.5603016487,
				"z": -0.6964432343,
				"element": "C" 
			},
			{
				"x": 0.1470372012,
				"y": 0.375277942,
				"z": 0.2642282475,
				"element": "C" 
			},
			{
				"x": -0.734923672,
				"y": 1.4051917709,
				"z": 0.7090128226,
				"element": "C" 
			},
			{
				"x": -2.0485470612,
				"y": 1.4693042228,
				"z": 0.1743356578,
				"element": "C" 
			},
			{
				"x": -2.4634914358,
				"y": 0.5462485032,
				"z": -0.7556134466,
				"element": "C" 
			},
			{
				"x": -0.229117507,
				"y": 2.3064058618,
				"z": 1.6711784027,
				"element": "C" 
			},
			{
				"x": 1.06692787,
				"y": 2.183295173,
				"z": 2.1357152882,
				"element": "C" 
			},
			{
				"x": 1.6123453994,
				"y": 3.1798123667,
				"z": 3.1127903591,
				"element": "C" 
			},
			{
				"x": 0.7175206277,
				"y": 3.6770083614,
				"z": 4.0138648979,
				"element": "O" 
			},
			{
				"x": 2.7559376328,
				"y": 3.5689415059,
				"z": 3.1299957604,
				"element": "O" 
			},
			{
				"x": 1.8892299309,
				"y": 1.1221909607,
				"z": 1.6108327832,
				"element": "C" 
			},
			{
				"x": 3.3162540943,
				"y": 0.9271397796,
				"z": 2.0549355496,
				"element": "C" 
			},
			{
				"x": 1.4258855805,
				"y": 0.2585812744,
				"z": 0.7260065169,
				"element": "N" 
			},
			{
				"x": -2.39553022,
				"y": -0.9773240868,
				"z": -3.1558603621,
				"element": "H" 
			},
			{
				"x": -1.3235330952,
				"y": -2.2161687707,
				"z": -2.4834555521,
				"element": "H" 
			},
			{
				"x": -2.9706601456,
				"y": -2.0251726712,
				"z": -1.8614419816,
				"element": "H" 
			},
			{
				"x": 0.3783412903,
				"y": -1.3321430548,
				"z": -1.0152557998,
				"element": "H" 
			},
			{
				"x": -2.7200496042,
				"y": 2.255795005,
				"z": 0.5098435715,
				"element": "H" 
			},
			{
				"x": -3.4713310882,
				"y": 0.6021528633,
				"z": -1.1590795478,
				"element": "H" 
			},
			{
				"x": -0.8662980986,
				"y": 3.1204445813,
				"z": 2.011926881,
				"element": "H" 
			},
			{
				"x": -0.0953196947,
				"y": 3.1530238967,
				"z": 3.9915981125,
				"element": "H" 
			},
			{
				"x": 3.6966353575,
				"y": 0.0073654712,
				"z": 1.609373661,
				"element": "H" 
			},
			{
				"x": 3.9365516862,
				"y": 1.7739814024,
				"z": 1.7499037596,
				"element": "H" 
			},
			{
				"x": 3.3960755199,
				"y": 0.8681653001,
				"z": 3.1451271745,
				"element": "H" 
			}
		],
		 "valence_orbital": [ 
			{
				"type": "occ",
				"energy": -0.31241,
				"method": "rhf"
			},
			{
				"type": "occ",
				"energy": -0.27771,
				"method": "rhf"
			},
			{
				"type": "occ",
				"energy": -0.25849,
				"method": "rhf"
			},
			{
				"type": "occ",
				"energy": -0.2521,
				"method": "rhf"
			},
			{
				"type": "occ",
				"energy": -0.24149,
				"method": "rhf"
			},
			{
				"type": "unocc",
				"energy": -0.06971,
				"method": "rhf"
			},
			{
				"type": "unocc",
				"energy": -0.03952,
				"method": "rhf"
			},
			{
				"type": "unocc",
				"energy": 0.00813,
				"method": "rhf"
			},
			{
				"type": "unocc",
				"energy": 0.02221,
				"method": "rhf"
			},
			{
				"type": "unocc",
				"energy": 0.06617,
				"method": "rhf"
			}
		],
		"cosmo_sigma_profile": { 
			"-0.025": 0.0,
			"-0.024": 0.0,
			"-0.023": 0.0,
			"-0.022": 0.0,
			"-0.021": 0.0,
			"-0.02": 0.0,
			"-0.019": 0.131659827024,
			"-0.018": 1.1391352482,
			"-0.017": 0.763133494682,
			"-0.016": 1.08224331681,
			"-0.015": 1.16293610413,
			"-0.014": 0.660310078948,
			"-0.013": 0.758569144499,
			"-0.012": 1.29802993806,
			"-0.011": 1.65073838178,
			"-0.01": 0.877350730251,
			"-0.009": 2.18227175075,
			"-0.008": 3.44083499307,
			"-0.007": 4.42591667069,
			"-0.006": 6.520649794,
			"-0.005": 13.7174261078,
			"-0.004": 18.4005737494,
			"-0.003": 17.784255345,
			"-0.002": 18.1285366009,
			"-0.001": 20.2969603412,
			"0.0": 26.795688683,
			"0.001": 16.6443274147,
			"0.002": 14.4150542261,
			"0.003": 16.5762852362,
			"0.004": 9.91472503319,
			"0.005": 4.16713940118,
			"0.006": 4.33717562049,
			"0.007": 3.65541801297,
			"0.008": 4.51180818984,
			"0.009": 4.90654410699,
			"0.01": 5.5195970684,
			"0.011": 5.88926406046,
			"0.012": 4.40746922694,
			"0.013": 1.77128487204,
			"0.014": 0.595779361316,
			"0.015": 0.502625539014,
			"0.016": 0.0,
			"0.017": 0.0,
			"0.018": 0.0,
			"0.019": 0.0,
			"0.02": 0.0,
			"0.021": 0.0,
			"0.022": 0.0,
			"0.023": 0.0,
			"0.024": 0.0,
			"0.025": 0.0
		}
	}
}
