{
	 "smiles": "CC(=O)C(=NNC1=CC=C(Br)C=C1)C(C)=O", 
	 "Tm": 405.15, 
	 "num_atms": 27, 
	 "gaussian": { 
		 "optdone": 1, 
		 "sigma_profile": "yes", 
		 "theory": "DFT", 
		 "functional": "B3LYP", 
		 "basiset": "6-31G**", 
		 "properties": { 
			 "R2extent": 8012.2102, 
			 "electric_dipole_moment_norm": 3.55718598052, 
			 "electric_quadrupole_moment_norm": 13.9984271616, 
			 "total_energy": -3257.09993616, 
			 "HOMO_LUMO_gap": 0.14683, 
			 "cosmo_polarized_energy": -15.32, 
			 "cosmo_cavitation_energy": 34.02, 
			 "cosmo_dispersion_energy": -24.26, 
			 "cosmo_repulsion_energy": 1.92, 
			 "cosmo_total_nonelectrostatic_energy": 11.68, 
			 "SMD_solvation_energy": 5.57 
		},
		"coords": [
			{
				"x": -1.689948209,
				"y": 1.1487556248,
				"z": 1.6018583267,
				"element": "C" 
			},
			{
				"x": -1.0924794728,
				"y": 0.4366393057,
				"z": 0.4107199017,
				"element": "C" 
			},
			{
				"x": -1.2386063526,
				"y": -0.7696407247,
				"z": 0.2616653602,
				"element": "O" 
			},
			{
				"x": -0.3251999786,
				"y": 1.2009747497,
				"z": -0.6387060138,
				"element": "C" 
			},
			{
				"x": 0.5240929113,
				"y": 0.6870243929,
				"z": -1.4940704942,
				"element": "N" 
			},
			{
				"x": 1.0558609319,
				"y": -0.5235385137,
				"z": -1.4793347242,
				"element": "N" 
			},
			{
				"x": 1.324161833,
				"y": -1.4569496954,
				"z": -0.4400068985,
				"element": "C" 
			},
			{
				"x": 1.4572809416,
				"y": -2.8009751986,
				"z": -0.8056665413,
				"element": "C" 
			},
			{
				"x": 1.8404020753,
				"y": -3.7534340073,
				"z": 0.134960195,
				"element": "C" 
			},
			{
				"x": 2.0915875738,
				"y": -3.3540811664,
				"z": 1.446640247,
				"element": "C" 
			},
			{
				"x": 2.6121844212,
				"y": -4.6528755292,
				"z": 2.7445011138,
				"element": "Br" 
			},
			{
				"x": 1.9704370757,
				"y": -2.0164655872,
				"z": 1.8220773629,
				"element": "C" 
			},
			{
				"x": 1.5902549438,
				"y": -1.0674551896,
				"z": 0.877287149,
				"element": "C" 
			},
			{
				"x": -0.6628878095,
				"y": 2.6302597919,
				"z": -0.9437313667,
				"element": "C" 
			},
			{
				"x": 0.0003404883,
				"y": 3.2838475886,
				"z": -2.1451253029,
				"element": "C" 
			},
			{
				"x": -1.4424381064,
				"y": 3.2650068003,
				"z": -0.2450255671,
				"element": "O" 
			},
			{
				"x": -0.9626226129,
				"y": 1.8171562602,
				"z": 2.0734007175,
				"element": "H" 
			},
			{
				"x": -2.5182677832,
				"y": 1.7867110269,
				"z": 1.2848899251,
				"element": "H" 
			},
			{
				"x": -2.0375534327,
				"y": 0.3941331252,
				"z": 2.3099014463,
				"element": "H" 
			},
			{
				"x": 1.6161829084,
				"y": -0.669679619,
				"z": -2.3091549745,
				"element": "H" 
			},
			{
				"x": 1.2466265194,
				"y": -3.103585325,
				"z": -1.8273763131,
				"element": "H" 
			},
			{
				"x": 1.9353525083,
				"y": -4.7954315067,
				"z": -0.1475376325,
				"element": "H" 
			},
			{
				"x": 2.1777839618,
				"y": -1.7162427774,
				"z": 2.8426629475,
				"element": "H" 
			},
			{
				"x": 1.5203062077,
				"y": -0.0245783733,
				"z": 1.165038769,
				"element": "H" 
			},
			{
				"x": 1.0847363746,
				"y": 3.3387814857,
				"z": -2.010244809,
				"element": "H" 
			},
			{
				"x": -0.1741326997,
				"y": 2.7052074605,
				"z": -3.0561227948,
				"element": "H" 
			},
			{
				"x": -0.4095552186,
				"y": 4.2890356012,
				"z": -2.2508000293,
				"element": "H" 
			}
		],
		 "valence_orbital": [ 
			{
				"type": "occ",
				"energy": -0.27637,
				"method": "rhf"
			},
			{
				"type": "occ",
				"energy": -0.27212,
				"method": "rhf"
			},
			{
				"type": "occ",
				"energy": -0.25894,
				"method": "rhf"
			},
			{
				"type": "occ",
				"energy": -0.23489,
				"method": "rhf"
			},
			{
				"type": "occ",
				"energy": -0.22817,
				"method": "rhf"
			},
			{
				"type": "unocc",
				"energy": -0.08134,
				"method": "rhf"
			},
			{
				"type": "unocc",
				"energy": -0.02641,
				"method": "rhf"
			},
			{
				"type": "unocc",
				"energy": -0.01766,
				"method": "rhf"
			},
			{
				"type": "unocc",
				"energy": -0.01312,
				"method": "rhf"
			},
			{
				"type": "unocc",
				"energy": 0.00104,
				"method": "rhf"
			}
		],
		"cosmo_sigma_profile": { 
			"-0.025": 0.0,
			"-0.024": 0.0,
			"-0.023": 0.0,
			"-0.022": 0.0,
			"-0.021": 0.0,
			"-0.02": 0.0,
			"-0.019": 0.0,
			"-0.018": 0.0,
			"-0.017": 0.0568343232952,
			"-0.016": 1.07141970308,
			"-0.015": 1.33824874821,
			"-0.014": 1.10400731484,
			"-0.013": 0.907806050923,
			"-0.012": 1.32912429131,
			"-0.011": 1.57308672489,
			"-0.01": 0.88223062799,
			"-0.009": 1.29664471624,
			"-0.008": 4.49398714251,
			"-0.007": 9.96619638195,
			"-0.006": 9.28618545375,
			"-0.005": 14.3967631158,
			"-0.004": 16.8695481167,
			"-0.003": 21.9104696241,
			"-0.002": 22.1697794907,
			"-0.001": 23.5177458565,
			"0.0": 22.9677955334,
			"0.001": 19.1369456051,
			"0.002": 20.9191554378,
			"0.003": 18.322140237,
			"0.004": 17.0890760235,
			"0.005": 9.8745642578,
			"0.006": 4.80894074747,
			"0.007": 4.20627333503,
			"0.008": 3.01249208983,
			"0.009": 4.05755094455,
			"0.01": 4.6231041601,
			"0.011": 5.30174042978,
			"0.012": 4.4746285607,
			"0.013": 2.95747647837,
			"0.014": 0.352962428767,
			"0.015": 0.0,
			"0.016": 0.0,
			"0.017": 0.0,
			"0.018": 0.0,
			"0.019": 0.0,
			"0.02": 0.0,
			"0.021": 0.0,
			"0.022": 0.0,
			"0.023": 0.0,
			"0.024": 0.0,
			"0.025": 0.0
		}
	}
}
