{
	 "smiles": "COC1=CC=C(Br)C(=C1)C(N)=O", 
	 "Tm": 433.15, 
	 "num_atms": 20, 
	 "gaussian": { 
		 "optdone": 1, 
		 "sigma_profile": "yes", 
		 "theory": "DFT", 
		 "functional": "B3LYP", 
		 "basiset": "6-31G**", 
		 "properties": { 
			 "R2extent": 4022.295, 
			 "electric_dipole_moment_norm": 5.33085297959, 
			 "electric_quadrupole_moment_norm": 15.8610142693, 
			 "total_energy": -3086.27370848, 
			 "HOMO_LUMO_gap": 0.1903, 
			 "cosmo_polarized_energy": -16.43, 
			 "cosmo_cavitation_energy": 26.73, 
			 "cosmo_dispersion_energy": -19.98, 
			 "cosmo_repulsion_energy": 1.61, 
			 "cosmo_total_nonelectrostatic_energy": 8.36, 
			 "SMD_solvation_energy": 5.12 
		},
		"coords": [
			{
				"x": -1.1734531772,
				"y": -3.8198771344,
				"z": 1.3765186602,
				"element": "C" 
			},
			{
				"x": -0.3559923962,
				"y": -2.7801029289,
				"z": 0.8592448872,
				"element": "O" 
			},
			{
				"x": -0.9322154464,
				"y": -1.5707603433,
				"z": 0.6117958287,
				"element": "C" 
			},
			{
				"x": -2.2757199232,
				"y": -1.260382097,
				"z": 0.8437244855,
				"element": "C" 
			},
			{
				"x": -2.7460440831,
				"y": 0.0207070991,
				"z": 0.5467818322,
				"element": "C" 
			},
			{
				"x": -1.9015383934,
				"y": 0.9880657815,
				"z": 0.0115802544,
				"element": "C" 
			},
			{
				"x": -2.6340422719,
				"y": 2.7207803455,
				"z": -0.3172115255,
				"element": "Br" 
			},
			{
				"x": -0.5486337274,
				"y": 0.6904763121,
				"z": -0.2256640711,
				"element": "C" 
			},
			{
				"x": -0.0820367207,
				"y": -0.589025216,
				"z": 0.0858613929,
				"element": "C" 
			},
			{
				"x": 0.4094285866,
				"y": 1.6721473083,
				"z": -0.8602395321,
				"element": "C" 
			},
			{
				"x": 1.63215818,
				"y": 1.7454842596,
				"z": -0.2397784321,
				"element": "N" 
			},
			{
				"x": 0.1451411944,
				"y": 2.302628696,
				"z": -1.8701865077,
				"element": "O" 
			},
			{
				"x": -1.5932244696,
				"y": -3.5553850607,
				"z": 2.355535469,
				"element": "H" 
			},
			{
				"x": -0.5215305604,
				"y": -4.687202328,
				"z": 1.4884359427,
				"element": "H" 
			},
			{
				"x": -1.9919122853,
				"y": -4.0695479594,
				"z": 0.6894812274,
				"element": "H" 
			},
			{
				"x": -2.9622888158,
				"y": -1.9927217497,
				"z": 1.2508968028,
				"element": "H" 
			},
			{
				"x": -3.7841130927,
				"y": 0.2684665509,
				"z": 0.7374254544,
				"element": "H" 
			},
			{
				"x": 0.9528276791,
				"y": -0.8529849136,
				"z": -0.1044239375,
				"element": "H" 
			},
			{
				"x": 2.2710770302,
				"y": 2.4455577266,
				"z": -0.5883951682,
				"element": "H" 
			},
			{
				"x": 1.7479126932,
				"y": 1.4283756514,
				"z": 0.7099169367,
				"element": "H" 
			}
		],
		 "valence_orbital": [ 
			{
				"type": "occ",
				"energy": -0.28525,
				"method": "rhf"
			},
			{
				"type": "occ",
				"energy": -0.27135,
				"method": "rhf"
			},
			{
				"type": "occ",
				"energy": -0.26398,
				"method": "rhf"
			},
			{
				"type": "occ",
				"energy": -0.24697,
				"method": "rhf"
			},
			{
				"type": "occ",
				"energy": -0.22277,
				"method": "rhf"
			},
			{
				"type": "unocc",
				"energy": -0.03247,
				"method": "rhf"
			},
			{
				"type": "unocc",
				"energy": -0.01043,
				"method": "rhf"
			},
			{
				"type": "unocc",
				"energy": 0.01394,
				"method": "rhf"
			},
			{
				"type": "unocc",
				"energy": 0.04448,
				"method": "rhf"
			},
			{
				"type": "unocc",
				"energy": 0.08536,
				"method": "rhf"
			}
		],
		"cosmo_sigma_profile": { 
			"-0.025": 0.0,
			"-0.024": 0.0,
			"-0.023": 0.0,
			"-0.022": 0.0,
			"-0.021": 0.0,
			"-0.02": 0.0,
			"-0.019": 0.0,
			"-0.018": 0.0,
			"-0.017": 0.0,
			"-0.016": 0.0,
			"-0.015": 0.216034943337,
			"-0.014": 1.93993251819,
			"-0.013": 2.2606330895,
			"-0.012": 2.23341322242,
			"-0.011": 1.8391712285,
			"-0.01": 2.09499477735,
			"-0.009": 3.17365598501,
			"-0.008": 2.53056107104,
			"-0.007": 7.18842103618,
			"-0.006": 13.6970165324,
			"-0.005": 14.1221264221,
			"-0.004": 13.771694013,
			"-0.003": 15.1686750161,
			"-0.002": 10.7149244666,
			"-0.001": 9.99303948183,
			"0.0": 11.3396695221,
			"0.001": 12.9597904328,
			"0.002": 20.7716942754,
			"0.003": 17.3040040275,
			"0.004": 11.835563728,
			"0.005": 10.4675971727,
			"0.006": 4.26513359602,
			"0.007": 3.50981694446,
			"0.008": 2.81869663098,
			"0.009": 3.28052067476,
			"0.01": 2.82322423329,
			"0.011": 2.01818593584,
			"0.012": 2.68040478305,
			"0.013": 5.71689137258,
			"0.014": 3.09971998629,
			"0.015": 0.0879587376281,
			"0.016": 0.0,
			"0.017": 0.0,
			"0.018": 0.0,
			"0.019": 0.0,
			"0.02": 0.0,
			"0.021": 0.0,
			"0.022": 0.0,
			"0.023": 0.0,
			"0.024": 0.0,
			"0.025": 0.0
		}
	}
}
