{
	 "smiles": "NC(=O)CC1=NC(=CS1)C1=CC=CC=C1", 
	 "Tm": 467.15, 
	 "num_atms": 25, 
	 "gaussian": { 
		 "optdone": 1, 
		 "sigma_profile": "yes", 
		 "theory": "DFT", 
		 "functional": "B3LYP", 
		 "basiset": "6-31G**", 
		 "properties": { 
			 "R2extent": 5147.088, 
			 "electric_dipole_moment_norm": 3.94883435586, 
			 "electric_quadrupole_moment_norm": 20.7057691663, 
			 "total_energy": -1008.13312615, 
			 "HOMO_LUMO_gap": 0.1795, 
			 "cosmo_polarized_energy": -13.28, 
			 "cosmo_cavitation_energy": 31.14, 
			 "cosmo_dispersion_energy": -23.12, 
			 "cosmo_repulsion_energy": 1.77, 
			 "cosmo_total_nonelectrostatic_energy": 9.8, 
			 "SMD_solvation_energy": 5.13 
		},
		"coords": [
			{
				"x": -0.6149799168,
				"y": -3.1559009526,
				"z": 0.7939447951,
				"element": "N" 
			},
			{
				"x": -1.8008047207,
				"y": -3.6962473862,
				"z": 0.4133014406,
				"element": "C" 
			},
			{
				"x": -1.9943849875,
				"y": -4.8918481828,
				"z": 0.2553278209,
				"element": "O" 
			},
			{
				"x": -2.9657621046,
				"y": -2.6894131874,
				"z": 0.2679031043,
				"element": "C" 
			},
			{
				"x": -2.633118791,
				"y": -1.3694484531,
				"z": -0.3669122474,
				"element": "C" 
			},
			{
				"x": -1.7040151427,
				"y": -0.5586250525,
				"z": 0.0553762232,
				"element": "N" 
			},
			{
				"x": -1.6025928033,
				"y": 0.5844390836,
				"z": -0.7211579374,
				"element": "C" 
			},
			{
				"x": -2.4998674091,
				"y": 0.6354147546,
				"z": -1.7597248671,
				"element": "C" 
			},
			{
				"x": -3.4867546622,
				"y": -0.7839863643,
				"z": -1.7833178389,
				"element": "S" 
			},
			{
				"x": -0.6001323368,
				"y": 1.6114465008,
				"z": -0.3765948696,
				"element": "C" 
			},
			{
				"x": -0.018724123,
				"y": 1.6247633008,
				"z": 0.9018986631,
				"element": "C" 
			},
			{
				"x": 0.9188150978,
				"y": 2.5973683079,
				"z": 1.2449238005,
				"element": "C" 
			},
			{
				"x": 1.2939376985,
				"y": 3.572710541,
				"z": 0.3192049402,
				"element": "C" 
			},
			{
				"x": 0.7260410581,
				"y": 3.5648811865,
				"z": -0.9570804193,
				"element": "C" 
			},
			{
				"x": -0.2088796674,
				"y": 2.5921729854,
				"z": -1.3033783399,
				"element": "C" 
			},
			{
				"x": 0.1794388438,
				"y": -3.7732663125,
				"z": 0.864698784,
				"element": "H" 
			},
			{
				"x": -0.48915918,
				"y": -2.1507540915,
				"z": 0.7942411468,
				"element": "H" 
			},
			{
				"x": -3.7476853665,
				"y": -3.2077786365,
				"z": -0.2883444769,
				"element": "H" 
			},
			{
				"x": -3.3522774934,
				"y": -2.5037549203,
				"z": 1.2788218902,
				"element": "H" 
			},
			{
				"x": -2.6494484026,
				"y": 1.4250198117,
				"z": -2.4808628597,
				"element": "H" 
			},
			{
				"x": -0.316909946,
				"y": 0.8703262521,
				"z": 1.6215472059,
				"element": "H" 
			},
			{
				"x": 1.3552856635,
				"y": 2.5947133529,
				"z": 2.2397100574,
				"element": "H" 
			},
			{
				"x": 2.0251945516,
				"y": 4.3296696557,
				"z": 0.5871266905,
				"element": "H" 
			},
			{
				"x": 1.0188677948,
				"y": 4.3128007201,
				"z": -1.6883497429,
				"element": "H" 
			},
			{
				"x": -0.6222836545,
				"y": 2.5834970866,
				"z": -2.3076029635,
				"element": "H" 
			}
		],
		 "valence_orbital": [ 
			{
				"type": "occ",
				"energy": -0.28716,
				"method": "rhf"
			},
			{
				"type": "occ",
				"energy": -0.26188,
				"method": "rhf"
			},
			{
				"type": "occ",
				"energy": -0.25694,
				"method": "rhf"
			},
			{
				"type": "occ",
				"energy": -0.24734,
				"method": "rhf"
			},
			{
				"type": "occ",
				"energy": -0.2247,
				"method": "rhf"
			},
			{
				"type": "unocc",
				"energy": -0.0452,
				"method": "rhf"
			},
			{
				"type": "unocc",
				"energy": -0.02069,
				"method": "rhf"
			},
			{
				"type": "unocc",
				"energy": -0.006,
				"method": "rhf"
			},
			{
				"type": "unocc",
				"energy": 0.0059,
				"method": "rhf"
			},
			{
				"type": "unocc",
				"energy": 0.03224,
				"method": "rhf"
			}
		],
		"cosmo_sigma_profile": { 
			"-0.025": 0.0,
			"-0.024": 0.0,
			"-0.023": 0.0,
			"-0.022": 0.0,
			"-0.021": 0.0,
			"-0.02": 0.0,
			"-0.019": 0.0,
			"-0.018": 0.0,
			"-0.017": 0.0,
			"-0.016": 0.0,
			"-0.015": 0.0,
			"-0.014": 0.512878021188,
			"-0.013": 1.11041994649,
			"-0.012": 1.37589320484,
			"-0.011": 0.97623645918,
			"-0.01": 1.26386389447,
			"-0.009": 3.86702653906,
			"-0.008": 6.27967486113,
			"-0.007": 8.6978435335,
			"-0.006": 11.6099450758,
			"-0.005": 15.7760839482,
			"-0.004": 18.8158478593,
			"-0.003": 16.5514169821,
			"-0.002": 14.1243270609,
			"-0.001": 15.4460712692,
			"0.0": 16.681030813,
			"0.001": 20.5426777554,
			"0.002": 25.5532056381,
			"0.003": 19.7598787957,
			"0.004": 13.0832658751,
			"0.005": 13.6805656436,
			"0.006": 5.98523495739,
			"0.007": 1.98395794081,
			"0.008": 1.8708988573,
			"0.009": 0.826214321343,
			"0.01": 0.99291311997,
			"0.011": 1.78680723078,
			"0.012": 1.78046346255,
			"0.013": 4.31619359732,
			"0.014": 5.47403365058,
			"0.015": 0.92407285879,
			"0.016": 0.0,
			"0.017": 0.0,
			"0.018": 0.0,
			"0.019": 0.0,
			"0.02": 0.0,
			"0.021": 0.0,
			"0.022": 0.0,
			"0.023": 0.0,
			"0.024": 0.0,
			"0.025": 0.0
		}
	}
}
