{
	 "smiles": "COC1=C(OC)C=C(C(CC(O)=O)=C1)[N+]([O-])=O", 
	 "Tm": 385.15, 
	 "num_atms": 28, 
	 "gaussian": { 
		 "optdone": 1, 
		 "sigma_profile": "yes", 
		 "theory": "DFT", 
		 "functional": "B3LYP", 
		 "basiset": "6-31G**", 
		 "properties": { 
			 "R2extent": 4502.9975, 
			 "electric_dipole_moment_norm": 6.73760442442, 
			 "electric_quadrupole_moment_norm": 11.3833004594, 
			 "total_energy": -893.671334382, 
			 "HOMO_LUMO_gap": 0.14415, 
			 "cosmo_polarized_energy": -17.38, 
			 "cosmo_cavitation_energy": 32.68, 
			 "cosmo_dispersion_energy": -23.22, 
			 "cosmo_repulsion_energy": 1.81, 
			 "cosmo_total_nonelectrostatic_energy": 11.27, 
			 "SMD_solvation_energy": 10.19 
		},
		"coords": [
			{
				"x": 2.2585533031,
				"y": 2.0623153177,
				"z": 1.8895098226,
				"element": "C" 
			},
			{
				"x": 2.2056054575,
				"y": 1.6671707652,
				"z": 0.5186923189,
				"element": "O" 
			},
			{
				"x": 1.1700617856,
				"y": 0.9088044295,
				"z": 0.0987561249,
				"element": "C" 
			},
			{
				"x": 1.1328331394,
				"y": 0.6154436266,
				"z": -1.2908253187,
				"element": "C" 
			},
			{
				"x": 2.0627835785,
				"y": 1.108181581,
				"z": -2.1601483973,
				"element": "O" 
			},
			{
				"x": 3.3988962585,
				"y": 0.6061920444,
				"z": -2.0223467407,
				"element": "C" 
			},
			{
				"x": 0.0742164923,
				"y": -0.1212866004,
				"z": -1.7870723571,
				"element": "C" 
			},
			{
				"x": -0.9571676807,
				"y": -0.5605187295,
				"z": -0.942017122,
				"element": "C" 
			},
			{
				"x": -0.922969011,
				"y": -0.3267697113,
				"z": 0.4440025862,
				"element": "C" 
			},
			{
				"x": -1.9368319438,
				"y": -0.8097766775,
				"z": 1.4633841945,
				"element": "C" 
			},
			{
				"x": -2.9442569058,
				"y": 0.3038048237,
				"z": 1.8096986577,
				"element": "C" 
			},
			{
				"x": -3.8589482488,
				"y": 0.56571523,
				"z": 0.865153916,
				"element": "O" 
			},
			{
				"x": -2.8953684164,
				"y": 0.9192847168,
				"z": 2.8479163871,
				"element": "O" 
			},
			{
				"x": 0.1624672916,
				"y": 0.4151714267,
				"z": 0.931141645,
				"element": "C" 
			},
			{
				"x": -2.0382416861,
				"y": -1.2897837718,
				"z": -1.5893490807,
				"element": "N" 
			},
			{
				"x": -1.8096827671,
				"y": -1.8412018315,
				"z": -2.6603276773,
				"element": "O" 
			},
			{
				"x": -3.1609338594,
				"y": -1.3210144308,
				"z": -1.0442182126,
				"element": "O" 
			},
			{
				"x": 2.3670075378,
				"y": 1.1948184518,
				"z": 2.5506362752,
				"element": "H" 
			},
			{
				"x": 1.3652585171,
				"y": 2.6299920763,
				"z": 2.1718568748,
				"element": "H" 
			},
			{
				"x": 3.1389714478,
				"y": 2.6986750492,
				"z": 1.9783616624,
				"element": "H" 
			},
			{
				"x": 3.8314605735,
				"y": 0.8758920857,
				"z": -1.0553250583,
				"element": "H" 
			},
			{
				"x": 3.4180114139,
				"y": -0.4835192755,
				"z": -2.1466292216,
				"element": "H" 
			},
			{
				"x": 3.9752583789,
				"y": 1.0705794097,
				"z": -2.8239218108,
				"element": "H" 
			},
			{
				"x": 0.0309364188,
				"y": -0.337695675,
				"z": -2.8465278196,
				"element": "H" 
			},
			{
				"x": -1.418912823,
				"y": -1.054064638,
				"z": 2.3916476616,
				"element": "H" 
			},
			{
				"x": -2.4674304352,
				"y": -1.6954947912,
				"z": 1.1108187609,
				"element": "H" 
			},
			{
				"x": -3.7269239179,
				"y": -0.0399758943,
				"z": 0.1060658324,
				"element": "H" 
			},
			{
				"x": 0.1922461006,
				"y": 0.6181609927,
				"z": 1.9947660965,
				"element": "H" 
			}
		],
		 "valence_orbital": [ 
			{
				"type": "occ",
				"energy": -0.306,
				"method": "rhf"
			},
			{
				"type": "occ",
				"energy": -0.30249,
				"method": "rhf"
			},
			{
				"type": "occ",
				"energy": -0.27955,
				"method": "rhf"
			},
			{
				"type": "occ",
				"energy": -0.26476,
				"method": "rhf"
			},
			{
				"type": "occ",
				"energy": -0.24769,
				"method": "rhf"
			},
			{
				"type": "unocc",
				"energy": -0.10354,
				"method": "rhf"
			},
			{
				"type": "unocc",
				"energy": -0.03571,
				"method": "rhf"
			},
			{
				"type": "unocc",
				"energy": -0.01229,
				"method": "rhf"
			},
			{
				"type": "unocc",
				"energy": 0.02023,
				"method": "rhf"
			},
			{
				"type": "unocc",
				"energy": 0.06495,
				"method": "rhf"
			}
		],
		"cosmo_sigma_profile": { 
			"-0.025": 0.0,
			"-0.024": 0.0,
			"-0.023": 0.0,
			"-0.022": 0.0,
			"-0.021": 0.0,
			"-0.02": 0.0,
			"-0.019": 0.0,
			"-0.018": 0.0,
			"-0.017": 0.0,
			"-0.016": 0.0,
			"-0.015": 0.0,
			"-0.014": 0.0,
			"-0.013": 0.0,
			"-0.012": 0.0,
			"-0.011": 0.0,
			"-0.01": 0.0967506898566,
			"-0.009": 1.26939460123,
			"-0.008": 5.98415140837,
			"-0.007": 14.5669792901,
			"-0.006": 20.8467720118,
			"-0.005": 21.3697890238,
			"-0.004": 24.0636288621,
			"-0.003": 23.3424821614,
			"-0.002": 17.9095817615,
			"-0.001": 17.672600052,
			"0.0": 16.7990464487,
			"0.001": 12.3337925118,
			"0.002": 7.95613825028,
			"0.003": 6.02916705628,
			"0.004": 6.6239218519,
			"0.005": 6.07879726238,
			"0.006": 8.21211892902,
			"0.007": 10.8337370869,
			"0.008": 8.45644828152,
			"0.009": 8.39305294296,
			"0.01": 7.30486044274,
			"0.011": 6.43244626055,
			"0.012": 5.59123488552,
			"0.013": 2.13754287835,
			"0.014": 0.0494089671188,
			"0.015": 0.0,
			"0.016": 0.0,
			"0.017": 0.0,
			"0.018": 0.0,
			"0.019": 0.0,
			"0.02": 0.0,
			"0.021": 0.0,
			"0.022": 0.0,
			"0.023": 0.0,
			"0.024": 0.0,
			"0.025": 0.0
		}
	}
}
