{
	 "smiles": "OCC1=CC(F)=C(C=C1)C(F)(F)F", 
	 "Tm": 303.15, 
	 "num_atms": 19, 
	 "gaussian": { 
		 "optdone": 1, 
		 "sigma_profile": "yes", 
		 "theory": "DFT", 
		 "functional": "B3LYP", 
		 "basiset": "6-31G**", 
		 "properties": { 
			 "R2extent": 4024.8195, 
			 "electric_dipole_moment_norm": 2.74084609017, 
			 "electric_quadrupole_moment_norm": 11.3286562239, 
			 "total_energy": -783.0413512, 
			 "HOMO_LUMO_gap": 0.22359, 
			 "cosmo_polarized_energy": -8.29, 
			 "cosmo_cavitation_energy": 25.11, 
			 "cosmo_dispersion_energy": -17.9, 
			 "cosmo_repulsion_energy": 1.35, 
			 "cosmo_total_nonelectrostatic_energy": 8.56, 
			 "SMD_solvation_energy": 5.94 
		},
		"coords": [
			{
				"x": -1.5212348092,
				"y": -1.3727134805,
				"z": -1.8721895929,
				"element": "O" 
			},
			{
				"x": -1.8140984931,
				"y": -0.5151036628,
				"z": -0.7832346767,
				"element": "C" 
			},
			{
				"x": -0.6804086644,
				"y": 0.4292135584,
				"z": -0.4234101481,
				"element": "C" 
			},
			{
				"x": -0.5949897756,
				"y": 0.9647574072,
				"z": 0.86701617,
				"element": "C" 
			},
			{
				"x": 0.4258058195,
				"y": 1.8522885182,
				"z": 1.1715025843,
				"element": "C" 
			},
			{
				"x": 0.4974255211,
				"y": 2.358102713,
				"z": 2.4164558766,
				"element": "F" 
			},
			{
				"x": 1.3865218682,
				"y": 2.2278646674,
				"z": 0.2293486173,
				"element": "C" 
			},
			{
				"x": 1.2960896535,
				"y": 1.6843482594,
				"z": -1.0538737375,
				"element": "C" 
			},
			{
				"x": 0.2731467938,
				"y": 0.7951279245,
				"z": -1.3796913635,
				"element": "C" 
			},
			{
				"x": 2.4817675041,
				"y": 3.1865195168,
				"z": 0.6095682967,
				"element": "C" 
			},
			{
				"x": 3.239276455,
				"y": 2.7064495269,
				"z": 1.6190636081,
				"element": "F" 
			},
			{
				"x": 3.3084851921,
				"y": 3.4293498514,
				"z": -0.4319366144,
				"element": "F" 
			},
			{
				"x": 1.9882608575,
				"y": 4.3754780882,
				"z": 1.015800489,
				"element": "F" 
			},
			{
				"x": -0.7821563817,
				"y": -1.93884108,
				"z": -1.6120708043,
				"element": "H" 
			},
			{
				"x": -2.1200930207,
				"y": -1.0797250455,
				"z": 0.1112674329,
				"element": "H" 
			},
			{
				"x": -2.686974092,
				"y": 0.0682484301,
				"z": -1.1001527424,
				"element": "H" 
			},
			{
				"x": -1.30709998,
				"y": 0.7000468128,
				"z": 1.6427642477,
				"element": "H" 
			},
			{
				"x": 2.0342707741,
				"y": 1.9667171736,
				"z": -1.7957836853,
				"element": "H" 
			},
			{
				"x": 0.2049047778,
				"y": 0.3757708208,
				"z": -2.3773439576,
				"element": "H" 
			}
		],
		 "valence_orbital": [ 
			{
				"type": "occ",
				"energy": -0.36657,
				"method": "rhf"
			},
			{
				"type": "occ",
				"energy": -0.34423,
				"method": "rhf"
			},
			{
				"type": "occ",
				"energy": -0.29465,
				"method": "rhf"
			},
			{
				"type": "occ",
				"energy": -0.27279,
				"method": "rhf"
			},
			{
				"type": "occ",
				"energy": -0.26035,
				"method": "rhf"
			},
			{
				"type": "unocc",
				"energy": -0.03676,
				"method": "rhf"
			},
			{
				"type": "unocc",
				"energy": -0.01829,
				"method": "rhf"
			},
			{
				"type": "unocc",
				"energy": 0.06899,
				"method": "rhf"
			},
			{
				"type": "unocc",
				"energy": 0.08649,
				"method": "rhf"
			},
			{
				"type": "unocc",
				"energy": 0.10823,
				"method": "rhf"
			}
		],
		"cosmo_sigma_profile": { 
			"-0.025": 0.0,
			"-0.024": 0.0,
			"-0.023": 0.0,
			"-0.022": 0.0,
			"-0.021": 0.0,
			"-0.02": 0.0,
			"-0.019": 0.0,
			"-0.018": 0.0,
			"-0.017": 0.0,
			"-0.016": 0.444054672676,
			"-0.015": 1.3266013869,
			"-0.014": 0.864885260869,
			"-0.013": 0.405644862931,
			"-0.012": 1.28417093321,
			"-0.011": 0.902534609638,
			"-0.01": 1.3835382389,
			"-0.009": 0.485766940704,
			"-0.008": 2.25648906197,
			"-0.007": 4.86424724526,
			"-0.006": 8.56885684264,
			"-0.005": 11.9113300999,
			"-0.004": 9.50935332598,
			"-0.003": 9.10352140569,
			"-0.002": 11.3440919197,
			"-0.001": 12.1163810375,
			"0.0": 16.5655914876,
			"0.001": 16.9545949771,
			"0.002": 29.511941042,
			"0.003": 39.2228670991,
			"0.004": 9.60567117104,
			"0.005": 1.26007248106,
			"0.006": 0.712811780719,
			"0.007": 1.53972374511,
			"0.008": 0.987842380377,
			"0.009": 0.830044147828,
			"0.01": 1.27885467504,
			"0.011": 1.02025791672,
			"0.012": 1.41989847213,
			"0.013": 1.88648691722,
			"0.014": 1.06816914631,
			"0.015": 0.0,
			"0.016": 0.0,
			"0.017": 0.0,
			"0.018": 0.0,
			"0.019": 0.0,
			"0.02": 0.0,
			"0.021": 0.0,
			"0.022": 0.0,
			"0.023": 0.0,
			"0.024": 0.0,
			"0.025": 0.0
		}
	}
}
