{
	 "smiles": "CCCCCCC1=CC=C2CCCC2=C1", 
	 "Tm": 239.15, 
	 "num_atms": 37, 
	 "gaussian": { 
		 "optdone": 1, 
		 "sigma_profile": "yes", 
		 "theory": "DFT", 
		 "functional": "B3LYP", 
		 "basiset": "6-31G**", 
		 "properties": { 
			 "R2extent": 4941.9633, 
			 "electric_dipole_moment_norm": 0.48662159837, 
			 "electric_quadrupole_moment_norm": 4.41471156929, 
			 "total_energy": -584.888558272, 
			 "HOMO_LUMO_gap": 0.2212, 
			 "cosmo_polarized_energy": -2.99, 
			 "cosmo_cavitation_energy": 36.95, 
			 "cosmo_dispersion_energy": -25.57, 
			 "cosmo_repulsion_energy": 2.08, 
			 "cosmo_total_nonelectrostatic_energy": 13.46, 
			 "SMD_solvation_energy": 4.86 
		},
		"coords": [
			{
				"x": -2.4807931595,
				"y": 2.0351069788,
				"z": 2.6106809808,
				"element": "C" 
			},
			{
				"x": -1.018811394,
				"y": 2.4498242419,
				"z": 2.4028725422,
				"element": "C" 
			},
			{
				"x": -0.2874571422,
				"y": 1.6723295919,
				"z": 1.29536801,
				"element": "C" 
			},
			{
				"x": -0.8290868978,
				"y": 1.9410142356,
				"z": -0.1178867014,
				"element": "C" 
			},
			{
				"x": -0.0226541699,
				"y": 1.3206243453,
				"z": -1.2740642732,
				"element": "C" 
			},
			{
				"x": -0.209756278,
				"y": -0.1964460598,
				"z": -1.508974919,
				"element": "C" 
			},
			{
				"x": 0.4192150809,
				"y": -1.1256000834,
				"z": -0.4879208669,
				"element": "C" 
			},
			{
				"x": -0.3719605098,
				"y": -1.969333771,
				"z": 0.3053726587,
				"element": "C" 
			},
			{
				"x": 0.1972390533,
				"y": -2.8361435855,
				"z": 1.244438701,
				"element": "C" 
			},
			{
				"x": 1.5808513573,
				"y": -2.8619437778,
				"z": 1.3961247593,
				"element": "C" 
			},
			{
				"x": 2.4358898514,
				"y": -3.7105343068,
				"z": 2.3146106691,
				"element": "C" 
			},
			{
				"x": 3.8030288806,
				"y": -2.9799339018,
				"z": 2.292899971,
				"element": "C" 
			},
			{
				"x": 3.8504183454,
				"y": -2.2540382225,
				"z": 0.924097288,
				"element": "C" 
			},
			{
				"x": 2.3862215052,
				"y": -2.0298666955,
				"z": 0.6040291103,
				"element": "C" 
			},
			{
				"x": 1.8148908944,
				"y": -1.173599763,
				"z": -0.3324206089,
				"element": "C" 
			},
			{
				"x": -2.9322280038,
				"y": 2.5828948029,
				"z": 3.4447302746,
				"element": "H" 
			},
			{
				"x": -2.5573605494,
				"y": 0.9648741478,
				"z": 2.8359730081,
				"element": "H" 
			},
			{
				"x": -3.0915935071,
				"y": 2.2302145619,
				"z": 1.7231053063,
				"element": "H" 
			},
			{
				"x": -0.9729650108,
				"y": 3.5257680553,
				"z": 2.1824992242,
				"element": "H" 
			},
			{
				"x": -0.4742491922,
				"y": 2.3109388019,
				"z": 3.345735992,
				"element": "H" 
			},
			{
				"x": 0.7767630992,
				"y": 1.9443512974,
				"z": 1.3176734638,
				"element": "H" 
			},
			{
				"x": -0.3291424551,
				"y": 0.6005470263,
				"z": 1.5190244886,
				"element": "H" 
			},
			{
				"x": -0.8563600421,
				"y": 3.0295317515,
				"z": -0.2703490551,
				"element": "H" 
			},
			{
				"x": -1.8716748645,
				"y": 1.6034445764,
				"z": -0.1939379485,
				"element": "H" 
			},
			{
				"x": -0.3159113643,
				"y": 1.8271325753,
				"z": -2.2027282632,
				"element": "H" 
			},
			{
				"x": 1.0445099663,
				"y": 1.5413029118,
				"z": -1.1359626614,
				"element": "H" 
			},
			{
				"x": -1.2832519564,
				"y": -0.4120167136,
				"z": -1.5800459915,
				"element": "H" 
			},
			{
				"x": 0.2110736604,
				"y": -0.4322436956,
				"z": -2.4960208444,
				"element": "H" 
			},
			{
				"x": -1.4528738404,
				"y": -1.9423887215,
				"z": 0.1893124687,
				"element": "H" 
			},
			{
				"x": -0.4408696196,
				"y": -3.4764959578,
				"z": 1.8488519626,
				"element": "H" 
			},
			{
				"x": 2.5312603296,
				"y": -4.7300276109,
				"z": 1.9135007402,
				"element": "H" 
			},
			{
				"x": 2.0232962475,
				"y": -3.8079644498,
				"z": 3.3246841739,
				"element": "H" 
			},
			{
				"x": 4.6501838974,
				"y": -3.6541353813,
				"z": 2.4483191856,
				"element": "H" 
			},
			{
				"x": 3.8251546668,
				"y": -2.2345803183,
				"z": 3.0959876308,
				"element": "H" 
			},
			{
				"x": 4.4343334403,
				"y": -1.3277735744,
				"z": 0.9544535533,
				"element": "H" 
			},
			{
				"x": 4.3128845513,
				"y": -2.8935238414,
				"z": 0.1583232595,
				"element": "H" 
			},
			{
				"x": 2.4470851297,
				"y": -0.5348094703,
				"z": -0.946457289,
				"element": "H" 
			}
		],
		 "valence_orbital": [ 
			{
				"type": "occ",
				"energy": -0.30803,
				"method": "rhf"
			},
			{
				"type": "occ",
				"energy": -0.30228,
				"method": "rhf"
			},
			{
				"type": "occ",
				"energy": -0.29945,
				"method": "rhf"
			},
			{
				"type": "occ",
				"energy": -0.23588,
				"method": "rhf"
			},
			{
				"type": "occ",
				"energy": -0.21963,
				"method": "rhf"
			},
			{
				"type": "unocc",
				"energy": 0.00157,
				"method": "rhf"
			},
			{
				"type": "unocc",
				"energy": 0.01269,
				"method": "rhf"
			},
			{
				"type": "unocc",
				"energy": 0.09307,
				"method": "rhf"
			},
			{
				"type": "unocc",
				"energy": 0.1022,
				"method": "rhf"
			},
			{
				"type": "unocc",
				"energy": 0.10629,
				"method": "rhf"
			}
		],
		"cosmo_sigma_profile": { 
			"-0.025": 0.0,
			"-0.024": 0.0,
			"-0.023": 0.0,
			"-0.022": 0.0,
			"-0.021": 0.0,
			"-0.02": 0.0,
			"-0.019": 0.0,
			"-0.018": 0.0,
			"-0.017": 0.0,
			"-0.016": 0.0,
			"-0.015": 0.0,
			"-0.014": 0.0,
			"-0.013": 0.0,
			"-0.012": 0.0,
			"-0.011": 0.0,
			"-0.01": 0.0,
			"-0.009": 0.0,
			"-0.008": 0.0,
			"-0.007": 0.0,
			"-0.006": 0.00135626353345,
			"-0.005": 1.87241173425,
			"-0.004": 8.05306328737,
			"-0.003": 24.1888281441,
			"-0.002": 42.6311414992,
			"-0.001": 53.2077151456,
			"0.0": 52.9610472425,
			"0.001": 47.3880707179,
			"0.002": 22.3099381409,
			"0.003": 8.51516240485,
			"0.004": 6.90558135843,
			"0.005": 7.59888867815,
			"0.006": 6.94353666447,
			"0.007": 3.95156910411,
			"0.008": 0.123001833707,
			"0.009": 0.0,
			"0.01": 0.0,
			"0.011": 0.0,
			"0.012": 0.0,
			"0.013": 0.0,
			"0.014": 0.0,
			"0.015": 0.0,
			"0.016": 0.0,
			"0.017": 0.0,
			"0.018": 0.0,
			"0.019": 0.0,
			"0.02": 0.0,
			"0.021": 0.0,
			"0.022": 0.0,
			"0.023": 0.0,
			"0.024": 0.0,
			"0.025": 0.0
		}
	}
}
