{
	 "smiles": "NC1=CC(=CC=C1)N1CCCNC1=O", 
	 "Tm": 503.15, 
	 "num_atms": 27, 
	 "gaussian": { 
		 "optdone": 1, 
		 "sigma_profile": "yes", 
		 "theory": "DFT", 
		 "functional": "B3LYP", 
		 "basiset": "6-31G**", 
		 "properties": { 
			 "R2extent": 3185.3022, 
			 "electric_dipole_moment_norm": 4.24555819416, 
			 "electric_quadrupole_moment_norm": 17.4416779138, 
			 "total_energy": -628.40266449, 
			 "HOMO_LUMO_gap": 0.19984, 
			 "cosmo_polarized_energy": -18.73, 
			 "cosmo_cavitation_energy": 29.16, 
			 "cosmo_dispersion_energy": -21.93, 
			 "cosmo_repulsion_energy": 1.74, 
			 "cosmo_total_nonelectrostatic_energy": 8.97, 
			 "SMD_solvation_energy": 4.18 
		},
		"coords": [
			{
				"x": -1.5356219012,
				"y": 3.5572424851,
				"z": 0.013737215,
				"element": "N" 
			},
			{
				"x": -1.3182651022,
				"y": 2.2533477517,
				"z": -0.4523437969,
				"element": "C" 
			},
			{
				"x": -0.3508774342,
				"y": 1.4388209806,
				"z": 0.1579029678,
				"element": "C" 
			},
			{
				"x": -0.1577152752,
				"y": 0.1137091029,
				"z": -0.2527739726,
				"element": "C" 
			},
			{
				"x": -0.9357562036,
				"y": -0.4078474959,
				"z": -1.298211032,
				"element": "C" 
			},
			{
				"x": -1.8862637275,
				"y": 0.4084382802,
				"z": -1.904933769,
				"element": "C" 
			},
			{
				"x": -2.0914501754,
				"y": 1.7248787916,
				"z": -1.4953423499,
				"element": "C" 
			},
			{
				"x": 0.7907826306,
				"y": -0.6967762028,
				"z": 0.4400461213,
				"element": "N" 
			},
			{
				"x": 1.0172460388,
				"y": -0.4330482526,
				"z": 1.8673466727,
				"element": "C" 
			},
			{
				"x": 1.4872908401,
				"y": -1.6930651511,
				"z": 2.5885787437,
				"element": "C" 
			},
			{
				"x": 2.7542088968,
				"y": -2.211790654,
				"z": 1.9199722003,
				"element": "C" 
			},
			{
				"x": 2.5100859936,
				"y": -2.3109505692,
				"z": 0.4919887143,
				"element": "N" 
			},
			{
				"x": 1.626528675,
				"y": -1.5687495598,
				"z": -0.266310109,
				"element": "C" 
			},
			{
				"x": 1.5870081298,
				"y": -1.7118203404,
				"z": -1.48315614,
				"element": "O" 
			},
			{
				"x": -1.9486036387,
				"y": 4.178123288,
				"z": -0.6695792794,
				"element": "H" 
			},
			{
				"x": -0.7316272384,
				"y": 3.9853634803,
				"z": 0.4534920851,
				"element": "H" 
			},
			{
				"x": 0.2586070881,
				"y": 1.8605894032,
				"z": 0.951226043,
				"element": "H" 
			},
			{
				"x": -0.7795716244,
				"y": -1.4231553371,
				"z": -1.6325519468,
				"element": "H" 
			},
			{
				"x": -2.4878685748,
				"y": 0.0054842158,
				"z": -2.7151099063,
				"element": "H" 
			},
			{
				"x": -2.8461984663,
				"y": 2.3417874733,
				"z": -1.9762720183,
				"element": "H" 
			},
			{
				"x": 0.074532908,
				"y": -0.0810199883,
				"z": 2.2934343145,
				"element": "H" 
			},
			{
				"x": 1.7587720672,
				"y": 0.3688701242,
				"z": 2.0103832595,
				"element": "H" 
			},
			{
				"x": 0.7028606916,
				"y": -2.4561602761,
				"z": 2.542536314,
				"element": "H" 
			},
			{
				"x": 1.678754159,
				"y": -1.4654052856,
				"z": 3.6420042666,
				"element": "H" 
			},
			{
				"x": 3.5969038158,
				"y": -1.536802194,
				"z": 2.1409602036,
				"element": "H" 
			},
			{
				"x": 3.0227905919,
				"y": -3.2012979266,
				"z": 2.3070473806,
				"element": "H" 
			},
			{
				"x": 3.1310468352,
				"y": -2.8574661435,
				"z": -0.0854721818,
				"element": "H" 
			}
		],
		 "valence_orbital": [ 
			{
				"type": "occ",
				"energy": -0.26367,
				"method": "rhf"
			},
			{
				"type": "occ",
				"energy": -0.24571,
				"method": "rhf"
			},
			{
				"type": "occ",
				"energy": -0.23955,
				"method": "rhf"
			},
			{
				"type": "occ",
				"energy": -0.21404,
				"method": "rhf"
			},
			{
				"type": "occ",
				"energy": -0.18928,
				"method": "rhf"
			},
			{
				"type": "unocc",
				"energy": 0.01056,
				"method": "rhf"
			},
			{
				"type": "unocc",
				"energy": 0.02713,
				"method": "rhf"
			},
			{
				"type": "unocc",
				"energy": 0.06231,
				"method": "rhf"
			},
			{
				"type": "unocc",
				"energy": 0.08132,
				"method": "rhf"
			},
			{
				"type": "unocc",
				"energy": 0.0861,
				"method": "rhf"
			}
		],
		"cosmo_sigma_profile": { 
			"-0.025": 0.0,
			"-0.024": 0.0,
			"-0.023": 0.0,
			"-0.022": 0.0,
			"-0.021": 0.0,
			"-0.02": 0.0,
			"-0.019": 0.0,
			"-0.018": 0.0,
			"-0.017": 0.0,
			"-0.016": 0.0,
			"-0.015": 0.0,
			"-0.014": 0.0381155757464,
			"-0.013": 0.79012001569,
			"-0.012": 3.40533828301,
			"-0.011": 3.72931898745,
			"-0.01": 3.61170738912,
			"-0.009": 3.67342177284,
			"-0.008": 4.11466334525,
			"-0.007": 4.41518528978,
			"-0.006": 6.21908269372,
			"-0.005": 16.5688748467,
			"-0.004": 27.4633087199,
			"-0.003": 24.8683030279,
			"-0.002": 18.6325031049,
			"-0.001": 11.9183197853,
			"0.0": 9.01042184697,
			"0.001": 9.00877088151,
			"0.002": 9.23200054013,
			"0.003": 8.35287042013,
			"0.004": 9.38238491351,
			"0.005": 9.08332347644,
			"0.006": 10.5302310798,
			"0.007": 8.60333172415,
			"0.008": 3.98223001925,
			"0.009": 3.00942813104,
			"0.01": 2.65456034695,
			"0.011": 1.70018571971,
			"0.012": 2.34917399638,
			"0.013": 2.92656319619,
			"0.014": 4.13914750297,
			"0.015": 5.48340664789,
			"0.016": 0.459644326678,
			"0.017": 0.0,
			"0.018": 0.0,
			"0.019": 0.0,
			"0.02": 0.0,
			"0.021": 0.0,
			"0.022": 0.0,
			"0.023": 0.0,
			"0.024": 0.0,
			"0.025": 0.0
		}
	}
}
