{
	 "smiles": "ClC1=C(Cl)N=C2N=CC=CC2=N1", 
	 "Tm": 417.15, 
	 "num_atms": 15, 
	 "gaussian": { 
		 "optdone": 1, 
		 "sigma_profile": "yes", 
		 "theory": "DFT", 
		 "functional": "B3LYP", 
		 "basiset": "6-31G**", 
		 "properties": { 
			 "R2extent": 4150.581, 
			 "electric_dipole_moment_norm": 3.70261255062, 
			 "electric_quadrupole_moment_norm": 5.32655463785, 
			 "total_energy": -1353.17786392, 
			 "HOMO_LUMO_gap": 0.16867, 
			 "cosmo_polarized_energy": -9.58, 
			 "cosmo_cavitation_energy": 23.8, 
			 "cosmo_dispersion_energy": -18.4, 
			 "cosmo_repulsion_energy": 1.45, 
			 "cosmo_total_nonelectrostatic_energy": 6.86, 
			 "SMD_solvation_energy": -1.04 
		},
		"coords": [
			{
				"x": -4.6174283991,
				"y": 1.4671452058,
				"z": -0.7760799304,
				"element": "Cl" 
			},
			{
				"x": -3.1088941185,
				"y": 0.7269627312,
				"z": -0.3076909656,
				"element": "C" 
			},
			{
				"x": -3.0526097094,
				"y": -0.667257262,
				"z": 0.0620077655,
				"element": "C" 
			},
			{
				"x": -4.501724005,
				"y": -1.6426045609,
				"z": 0.0465568421,
				"element": "Cl" 
			},
			{
				"x": -1.9426687201,
				"y": -1.2379456246,
				"z": 0.4134873385,
				"element": "N" 
			},
			{
				"x": -0.8058167446,
				"y": -0.4838159352,
				"z": 0.4284628133,
				"element": "C" 
			},
			{
				"x": 0.3422691154,
				"y": -1.098403359,
				"z": 0.7983018973,
				"element": "N" 
			},
			{
				"x": 1.4384500944,
				"y": -0.3619052291,
				"z": 0.8102990888,
				"element": "C" 
			},
			{
				"x": 1.4896581333,
				"y": 1.0134959292,
				"z": 0.4651698233,
				"element": "C" 
			},
			{
				"x": 0.3292719778,
				"y": 1.649419429,
				"z": 0.0875515413,
				"element": "C" 
			},
			{
				"x": -0.8649939209,
				"y": 0.8924029055,
				"z": 0.0627912697,
				"element": "C" 
			},
			{
				"x": -2.044319218,
				"y": 1.4702683665,
				"z": -0.3032907495,
				"element": "N" 
			},
			{
				"x": 2.3537700282,
				"y": -0.870148357,
				"z": 1.1098766736,
				"element": "H" 
			},
			{
				"x": 2.4366639854,
				"y": 1.5418267158,
				"z": 0.5033581801,
				"element": "H" 
			},
			{
				"x": 0.2930715011,
				"y": 2.6979590447,
				"z": -0.1894015879,
				"element": "H" 
			}
		],
		 "valence_orbital": [ 
			{
				"type": "occ",
				"energy": -0.31396,
				"method": "rhf"
			},
			{
				"type": "occ",
				"energy": -0.30582,
				"method": "rhf"
			},
			{
				"type": "occ",
				"energy": -0.28993,
				"method": "rhf"
			},
			{
				"type": "occ",
				"energy": -0.2736,
				"method": "rhf"
			},
			{
				"type": "occ",
				"energy": -0.26929,
				"method": "rhf"
			},
			{
				"type": "unocc",
				"energy": -0.10062,
				"method": "rhf"
			},
			{
				"type": "unocc",
				"energy": -0.05483,
				"method": "rhf"
			},
			{
				"type": "unocc",
				"energy": -0.02741,
				"method": "rhf"
			},
			{
				"type": "unocc",
				"energy": 0.00526,
				"method": "rhf"
			},
			{
				"type": "unocc",
				"energy": 0.03702,
				"method": "rhf"
			}
		],
		"cosmo_sigma_profile": { 
			"-0.025": 0.0,
			"-0.024": 0.0,
			"-0.023": 0.0,
			"-0.022": 0.0,
			"-0.021": 0.0,
			"-0.02": 0.0,
			"-0.019": 0.0,
			"-0.018": 0.0,
			"-0.017": 0.0,
			"-0.016": 0.0,
			"-0.015": 0.0,
			"-0.014": 0.0,
			"-0.013": 0.0,
			"-0.012": 0.0,
			"-0.011": 0.0,
			"-0.01": 0.0,
			"-0.009": 1.32333417199,
			"-0.008": 7.8112742226,
			"-0.007": 9.0042644754,
			"-0.006": 9.53019451451,
			"-0.005": 9.1282074336,
			"-0.004": 12.4004810649,
			"-0.003": 14.1033176305,
			"-0.002": 15.7381823494,
			"-0.001": 17.9174566761,
			"0.0": 17.1422824429,
			"0.001": 11.8826265285,
			"0.002": 16.1167888442,
			"0.003": 20.7512657803,
			"0.004": 7.72252198678,
			"0.005": 4.66360994273,
			"0.006": 3.81539629472,
			"0.007": 2.55875949428,
			"0.008": 2.76665567523,
			"0.009": 2.64321475946,
			"0.01": 2.82729512172,
			"0.011": 2.35889899844,
			"0.012": 1.46653460689,
			"0.013": 2.35218992858,
			"0.014": 1.25695012608,
			"0.015": 0.848874722926,
			"0.016": 0.0289256382693,
			"0.017": 0.0,
			"0.018": 0.0,
			"0.019": 0.0,
			"0.02": 0.0,
			"0.021": 0.0,
			"0.022": 0.0,
			"0.023": 0.0,
			"0.024": 0.0,
			"0.025": 0.0
		}
	}
}
