{
	 "smiles": "COCC1=CSC(N)=N1", 
	 "Tm": 383.15, 
	 "num_atms": 17, 
	 "gaussian": { 
		 "optdone": 1, 
		 "sigma_profile": "yes", 
		 "theory": "DFT", 
		 "functional": "B3LYP", 
		 "basiset": "6-31G**", 
		 "properties": { 
			 "R2extent": 3156.5418, 
			 "electric_dipole_moment_norm": 1.87220232614, 
			 "electric_quadrupole_moment_norm": 11.949792171, 
			 "total_energy": -778.242165754, 
			 "HOMO_LUMO_gap": 0.20503, 
			 "cosmo_polarized_energy": -10.7, 
			 "cosmo_cavitation_energy": 22.39, 
			 "cosmo_dispersion_energy": -17.22, 
			 "cosmo_repulsion_energy": 1.4, 
			 "cosmo_total_nonelectrostatic_energy": 6.56, 
			 "SMD_solvation_energy": 2.66 
		},
		"coords": [
			{
				"x": 2.6629399522,
				"y": 0.9001738888,
				"z": -3.3974122858,
				"element": "C" 
			},
			{
				"x": 3.33359835,
				"y": -0.2848064026,
				"z": -3.0039625572,
				"element": "O" 
			},
			{
				"x": 3.1022477045,
				"y": -0.6393416361,
				"z": -1.6543583879,
				"element": "C" 
			},
			{
				"x": 1.7775026003,
				"y": -1.3308493967,
				"z": -1.4318624877,
				"element": "C" 
			},
			{
				"x": 1.030385687,
				"y": -1.9306032664,
				"z": -2.398094141,
				"element": "C" 
			},
			{
				"x": -0.4019090703,
				"y": -2.6416775038,
				"z": -1.6869248614,
				"element": "S" 
			},
			{
				"x": 0.1665285951,
				"y": -2.0719142449,
				"z": -0.1110492597,
				"element": "C" 
			},
			{
				"x": -0.5904406286,
				"y": -2.2527238207,
				"z": 1.0261057297,
				"element": "N" 
			},
			{
				"x": 1.2902663944,
				"y": -1.4147633335,
				"z": -0.1389994673,
				"element": "N" 
			},
			{
				"x": 2.9120478799,
				"y": 1.0740559909,
				"z": -4.4471202693,
				"element": "H" 
			},
			{
				"x": 2.9979178671,
				"y": 1.7655032648,
				"z": -2.8049956883,
				"element": "H" 
			},
			{
				"x": 1.5724379962,
				"y": 0.8115506359,
				"z": -3.2989101493,
				"element": "H" 
			},
			{
				"x": 3.1609147841,
				"y": 0.2365138826,
				"z": -0.9892326366,
				"element": "H" 
			},
			{
				"x": 3.9202709044,
				"y": -1.312877922,
				"z": -1.3700759819,
				"element": "H" 
			},
			{
				"x": 1.2388437152,
				"y": -2.0104014028,
				"z": -3.4538905044,
				"element": "H" 
			},
			{
				"x": -1.1392754576,
				"y": -3.0992120553,
				"z": 1.0768786706,
				"element": "H" 
			},
			{
				"x": -0.075277274,
				"y": -2.0499266782,
				"z": 1.8731042775,
				"element": "H" 
			}
		],
		 "valence_orbital": [ 
			{
				"type": "occ",
				"energy": -0.30767,
				"method": "rhf"
			},
			{
				"type": "occ",
				"energy": -0.2725,
				"method": "rhf"
			},
			{
				"type": "occ",
				"energy": -0.26924,
				"method": "rhf"
			},
			{
				"type": "occ",
				"energy": -0.25555,
				"method": "rhf"
			},
			{
				"type": "occ",
				"energy": -0.20674,
				"method": "rhf"
			},
			{
				"type": "unocc",
				"energy": -0.00171,
				"method": "rhf"
			},
			{
				"type": "unocc",
				"energy": 0.01505,
				"method": "rhf"
			},
			{
				"type": "unocc",
				"energy": 0.06155,
				"method": "rhf"
			},
			{
				"type": "unocc",
				"energy": 0.07278,
				"method": "rhf"
			},
			{
				"type": "unocc",
				"energy": 0.09968,
				"method": "rhf"
			}
		],
		"cosmo_sigma_profile": { 
			"-0.025": 0.0,
			"-0.024": 0.0,
			"-0.023": 0.0,
			"-0.022": 0.0,
			"-0.021": 0.0,
			"-0.02": 0.0,
			"-0.019": 0.0,
			"-0.018": 0.0,
			"-0.017": 0.0,
			"-0.016": 0.0,
			"-0.015": 0.240496774555,
			"-0.014": 1.80639911243,
			"-0.013": 2.52268314995,
			"-0.012": 2.6670787963,
			"-0.011": 2.37517325388,
			"-0.01": 2.8569519901,
			"-0.009": 1.75373453731,
			"-0.008": 1.97061039531,
			"-0.007": 3.34159345137,
			"-0.006": 4.13212087804,
			"-0.005": 7.77699195354,
			"-0.004": 13.1798032471,
			"-0.003": 14.5692255468,
			"-0.002": 16.4807965158,
			"-0.001": 12.6403723459,
			"0.0": 10.4303955238,
			"0.001": 8.50444635011,
			"0.002": 12.5900082516,
			"0.003": 13.1760536517,
			"0.004": 11.695810574,
			"0.005": 8.89570535972,
			"0.006": 4.36260667292,
			"0.007": 3.71373609057,
			"0.008": 2.87050864177,
			"0.009": 1.9189446629,
			"0.01": 3.18676212488,
			"0.011": 3.07206857083,
			"0.012": 2.7445888414,
			"0.013": 2.12460459946,
			"0.014": 0.789720566918,
			"0.015": 0.62495052006,
			"0.016": 0.144409743933,
			"0.017": 0.0,
			"0.018": 0.0,
			"0.019": 0.0,
			"0.02": 0.0,
			"0.021": 0.0,
			"0.022": 0.0,
			"0.023": 0.0,
			"0.024": 0.0,
			"0.025": 0.0
		}
	}
}
