{
	 "smiles": "OCCNC(=O)C1=NC=C(Br)C=C1", 
	 "Tm": 372.15, 
	 "num_atms": 22, 
	 "gaussian": { 
		 "optdone": 1, 
		 "sigma_profile": "yes", 
		 "theory": "DFT", 
		 "functional": "B3LYP", 
		 "basiset": "6-31G**", 
		 "properties": { 
			 "R2extent": 6618.6268, 
			 "electric_dipole_moment_norm": 4.04250901916, 
			 "electric_quadrupole_moment_norm": 14.4701916895, 
			 "total_energy": -3141.64249966, 
			 "HOMO_LUMO_gap": 0.17392, 
			 "cosmo_polarized_energy": -12.11, 
			 "cosmo_cavitation_energy": 28.39, 
			 "cosmo_dispersion_energy": -21.79, 
			 "cosmo_repulsion_energy": 1.74, 
			 "cosmo_total_nonelectrostatic_energy": 8.33, 
			 "SMD_solvation_energy": 2.54 
		},
		"coords": [
			{
				"x": -2.1791381821,
				"y": 1.3002466038,
				"z": 3.0566917076,
				"element": "O" 
			},
			{
				"x": -1.2572116183,
				"y": 0.3710615227,
				"z": 3.5674129667,
				"element": "C" 
			},
			{
				"x": 0.1380174333,
				"y": 0.4598445945,
				"z": 2.922899529,
				"element": "C" 
			},
			{
				"x": 0.291602008,
				"y": -0.2635890797,
				"z": 1.6583048669,
				"element": "N" 
			},
			{
				"x": -0.4535840254,
				"y": -0.0706832483,
				"z": 0.551963348,
				"element": "C" 
			},
			{
				"x": -1.4476157501,
				"y": 0.6629973962,
				"z": 0.4738545386,
				"element": "O" 
			},
			{
				"x": 0.0094374884,
				"y": -0.8492627905,
				"z": -0.6558965861,
				"element": "C" 
			},
			{
				"x": 1.1016445069,
				"y": -1.618328247,
				"z": -0.5237559718,
				"element": "N" 
			},
			{
				"x": 1.5237890849,
				"y": -2.3127079152,
				"z": -1.5805270825,
				"element": "C" 
			},
			{
				"x": 0.8662485394,
				"y": -2.2600920834,
				"z": -2.8134441424,
				"element": "C" 
			},
			{
				"x": 1.5308823683,
				"y": -3.2775626835,
				"z": -4.2756668311,
				"element": "Br" 
			},
			{
				"x": -0.2675555543,
				"y": -1.4632386475,
				"z": -2.9571691068,
				"element": "C" 
			},
			{
				"x": -0.7060931773,
				"y": -0.7415084193,
				"z": -1.8499885564,
				"element": "C" 
			},
			{
				"x": -2.1566412835,
				"y": 1.203373059,
				"z": 2.0854255168,
				"element": "H" 
			},
			{
				"x": -1.143565245,
				"y": 0.5960624527,
				"z": 4.6348690264,
				"element": "H" 
			},
			{
				"x": -1.6128887488,
				"y": -0.6715372758,
				"z": 3.4917393011,
				"element": "H" 
			},
			{
				"x": 0.8832086149,
				"y": 0.0362937379,
				"z": 3.6028533958,
				"element": "H" 
			},
			{
				"x": 0.3772612523,
				"y": 1.5216058323,
				"z": 2.7805520994,
				"element": "H" 
			},
			{
				"x": 1.0803819073,
				"y": -0.8864890893,
				"z": 1.531760985,
				"element": "H" 
			},
			{
				"x": 2.4088693179,
				"y": -2.929674992,
				"z": -1.4527069625,
				"element": "H" 
			},
			{
				"x": -0.7894122679,
				"y": -1.4112599645,
				"z": -3.9062075484,
				"element": "H" 
			},
			{
				"x": -1.5802366689,
				"y": -0.1021507629,
				"z": -1.8861644934,
				"element": "H" 
			}
		],
		 "valence_orbital": [ 
			{
				"type": "occ",
				"energy": -0.29843,
				"method": "rhf"
			},
			{
				"type": "occ",
				"energy": -0.27116,
				"method": "rhf"
			},
			{
				"type": "occ",
				"energy": -0.26746,
				"method": "rhf"
			},
			{
				"type": "occ",
				"energy": -0.26277,
				"method": "rhf"
			},
			{
				"type": "occ",
				"energy": -0.24392,
				"method": "rhf"
			},
			{
				"type": "unocc",
				"energy": -0.07,
				"method": "rhf"
			},
			{
				"type": "unocc",
				"energy": -0.04847,
				"method": "rhf"
			},
			{
				"type": "unocc",
				"energy": -0.01187,
				"method": "rhf"
			},
			{
				"type": "unocc",
				"energy": 0.03816,
				"method": "rhf"
			},
			{
				"type": "unocc",
				"energy": 0.08333,
				"method": "rhf"
			}
		],
		"cosmo_sigma_profile": { 
			"-0.025": 0.0,
			"-0.024": 0.0,
			"-0.023": 0.0,
			"-0.022": 0.0,
			"-0.021": 0.0,
			"-0.02": 0.0,
			"-0.019": 0.0,
			"-0.018": 0.0,
			"-0.017": 0.0,
			"-0.016": 0.0,
			"-0.015": 0.0,
			"-0.014": 0.0,
			"-0.013": 0.264146856579,
			"-0.012": 0.897862621017,
			"-0.011": 0.843289482901,
			"-0.01": 0.913905923194,
			"-0.009": 2.13957164316,
			"-0.008": 4.81050738235,
			"-0.007": 7.66200822217,
			"-0.006": 8.69929377356,
			"-0.005": 11.5179818611,
			"-0.004": 14.1518840902,
			"-0.003": 16.6401847764,
			"-0.002": 20.7162854856,
			"-0.001": 30.127711061,
			"0.0": 25.5077377644,
			"0.001": 14.5977278139,
			"0.002": 11.8729831879,
			"0.003": 15.4731461119,
			"0.004": 10.3542813872,
			"0.005": 4.37123406516,
			"0.006": 4.03969353288,
			"0.007": 3.64598110325,
			"0.008": 3.10962049977,
			"0.009": 2.86467177084,
			"0.01": 2.73394412053,
			"0.011": 2.71985099709,
			"0.012": 2.31910363646,
			"0.013": 1.79053745502,
			"0.014": 1.58833503986,
			"0.015": 2.56655097443,
			"0.016": 0.694645434162,
			"0.017": 0.0,
			"0.018": 0.0,
			"0.019": 0.0,
			"0.02": 0.0,
			"0.021": 0.0,
			"0.022": 0.0,
			"0.023": 0.0,
			"0.024": 0.0,
			"0.025": 0.0
		}
	}
}
