{
	 "smiles": "BrCCOC1=CC=CC2=C1OCCO2", 
	 "Tm": 358.65, 
	 "num_atms": 25, 
	 "gaussian": { 
		 "optdone": 1, 
		 "sigma_profile": "yes", 
		 "theory": "DFT", 
		 "functional": "B3LYP", 
		 "basiset": "6-31G**", 
		 "properties": { 
			 "R2extent": 6684.1708, 
			 "electric_dipole_moment_norm": 4.18264571892, 
			 "electric_quadrupole_moment_norm": 11.2975497817, 
			 "total_energy": -3184.7354637, 
			 "HOMO_LUMO_gap": 0.21734, 
			 "cosmo_polarized_energy": -11.35, 
			 "cosmo_cavitation_energy": 30.47, 
			 "cosmo_dispersion_energy": -22.81, 
			 "cosmo_repulsion_energy": 1.83, 
			 "cosmo_total_nonelectrostatic_energy": 9.49, 
			 "SMD_solvation_energy": 4.4 
		},
		"coords": [
			{
				"x": -5.3124028172,
				"y": 0.5654939,
				"z": -1.4904566175,
				"element": "Br" 
			},
			{
				"x": -3.9718194115,
				"y": 1.3485686256,
				"z": -0.264839348,
				"element": "C" 
			},
			{
				"x": -2.6779932644,
				"y": 0.5675249536,
				"z": -0.2433995116,
				"element": "C" 
			},
			{
				"x": -2.0387534151,
				"y": 0.7228641099,
				"z": -1.5084298088,
				"element": "O" 
			},
			{
				"x": -0.9639938704,
				"y": -0.0985469157,
				"z": -1.7589370537,
				"element": "C" 
			},
			{
				"x": -1.0444478371,
				"y": -1.0072323584,
				"z": -2.8131303625,
				"element": "C" 
			},
			{
				"x": 0.0583986124,
				"y": -1.7997470888,
				"z": -3.138667591,
				"element": "C" 
			},
			{
				"x": 1.2337910639,
				"y": -1.7108474148,
				"z": -2.3971374619,
				"element": "C" 
			},
			{
				"x": 1.3151858762,
				"y": -0.8101382125,
				"z": -1.3330851373,
				"element": "C" 
			},
			{
				"x": 0.2239281826,
				"y": 0.0149230632,
				"z": -1.016330155,
				"element": "C" 
			},
			{
				"x": 0.2810836061,
				"y": 0.9447407172,
				"z": -0.0013410409,
				"element": "O" 
			},
			{
				"x": 1.611463275,
				"y": 1.2426197983,
				"z": 0.4233160642,
				"element": "C" 
			},
			{
				"x": 2.3967646123,
				"y": -0.0452386832,
				"z": 0.6103120679,
				"element": "C" 
			},
			{
				"x": 2.4942071529,
				"y": -0.7445033658,
				"z": -0.6283940108,
				"element": "O" 
			},
			{
				"x": -4.4377344916,
				"y": 1.3566432954,
				"z": 0.720169056,
				"element": "H" 
			},
			{
				"x": -3.8108740246,
				"y": 2.3680778576,
				"z": -0.6134781843,
				"element": "H" 
			},
			{
				"x": -2.0438978113,
				"y": 0.9722663784,
				"z": 0.5575398053,
				"element": "H" 
			},
			{
				"x": -2.8664641422,
				"y": -0.4933808073,
				"z": -0.0359226532,
				"element": "H" 
			},
			{
				"x": -1.9747236374,
				"y": -1.0631318966,
				"z": -3.3676020768,
				"element": "H" 
			},
			{
				"x": -0.0047075714,
				"y": -2.5003762658,
				"z": -3.9652051086,
				"element": "H" 
			},
			{
				"x": 2.0996619156,
				"y": -2.3256790516,
				"z": -2.6187125077,
				"element": "H" 
			},
			{
				"x": 2.1068378359,
				"y": 1.8786589358,
				"z": -0.3226671878,
				"element": "H" 
			},
			{
				"x": 1.5211879578,
				"y": 1.795574205,
				"z": 1.361682086,
				"element": "H" 
			},
			{
				"x": 3.420816601,
				"y": 0.1565970792,
				"z": 0.9350430331,
				"element": "H" 
			},
			{
				"x": 1.9019856025,
				"y": -0.6770308584,
				"z": 1.3611737048,
				"element": "H" 
			}
		],
		 "valence_orbital": [ 
			{
				"type": "occ",
				"energy": -0.28135,
				"method": "rhf"
			},
			{
				"type": "occ",
				"energy": -0.26852,
				"method": "rhf"
			},
			{
				"type": "occ",
				"energy": -0.26445,
				"method": "rhf"
			},
			{
				"type": "occ",
				"energy": -0.22317,
				"method": "rhf"
			},
			{
				"type": "occ",
				"energy": -0.21406,
				"method": "rhf"
			},
			{
				"type": "unocc",
				"energy": 0.00328,
				"method": "rhf"
			},
			{
				"type": "unocc",
				"energy": 0.00844,
				"method": "rhf"
			},
			{
				"type": "unocc",
				"energy": 0.01348,
				"method": "rhf"
			},
			{
				"type": "unocc",
				"energy": 0.06903,
				"method": "rhf"
			},
			{
				"type": "unocc",
				"energy": 0.09747,
				"method": "rhf"
			}
		],
		"cosmo_sigma_profile": { 
			"-0.025": 0.0,
			"-0.024": 0.0,
			"-0.023": 0.0,
			"-0.022": 0.0,
			"-0.021": 0.0,
			"-0.02": 0.0,
			"-0.019": 0.0,
			"-0.018": 0.0,
			"-0.017": 0.0,
			"-0.016": 0.0,
			"-0.015": 0.0,
			"-0.014": 0.0,
			"-0.013": 0.0,
			"-0.012": 0.0,
			"-0.011": 0.0,
			"-0.01": 0.0,
			"-0.009": 0.0451774674675,
			"-0.008": 2.90016624647,
			"-0.007": 11.7127949635,
			"-0.006": 21.2516243252,
			"-0.005": 25.4472497992,
			"-0.004": 18.432825021,
			"-0.003": 14.8328907878,
			"-0.002": 13.2502156193,
			"-0.001": 10.9695724465,
			"0.0": 11.2739864632,
			"0.001": 12.8316292332,
			"0.002": 13.2348455253,
			"0.003": 16.4448562863,
			"0.004": 18.1530354135,
			"0.005": 17.2508567587,
			"0.006": 17.5598782177,
			"0.007": 6.26101725871,
			"0.008": 3.88876200637,
			"0.009": 4.64877025163,
			"0.01": 3.53850634625,
			"0.011": 1.03293022271,
			"0.012": 0.0,
			"0.013": 0.0,
			"0.014": 0.0,
			"0.015": 0.0,
			"0.016": 0.0,
			"0.017": 0.0,
			"0.018": 0.0,
			"0.019": 0.0,
			"0.02": 0.0,
			"0.021": 0.0,
			"0.022": 0.0,
			"0.023": 0.0,
			"0.024": 0.0,
			"0.025": 0.0
		}
	}
}
