{
	 "smiles": "CC1=C(C(O)=O)C(C)=C2C=CC=CC2=N1", 
	 "Tm": 460.15, 
	 "num_atms": 26, 
	 "gaussian": { 
		 "optdone": 1, 
		 "sigma_profile": "yes", 
		 "theory": "DFT", 
		 "functional": "B3LYP", 
		 "basiset": "6-31G**", 
		 "properties": { 
			 "R2extent": 3177.143, 
			 "electric_dipole_moment_norm": 4.49021674533, 
			 "electric_quadrupole_moment_norm": 13.4556290102, 
			 "total_energy": -669.131048363, 
			 "HOMO_LUMO_gap": 0.17544, 
			 "cosmo_polarized_energy": -15.4, 
			 "cosmo_cavitation_energy": 29.38, 
			 "cosmo_dispersion_energy": -21.44, 
			 "cosmo_repulsion_energy": 1.65, 
			 "cosmo_total_nonelectrostatic_energy": 9.59, 
			 "SMD_solvation_energy": 4.39 
		},
		"coords": [
			{
				"x": -0.7210997862,
				"y": -1.2804516401,
				"z": 2.6288674148,
				"element": "C" 
			},
			{
				"x": -0.2656449654,
				"y": -0.5657003235,
				"z": 1.3807821049,
				"element": "C" 
			},
			{
				"x": -0.5981416017,
				"y": -1.0730476695,
				"z": 0.0744702207,
				"element": "C" 
			},
			{
				"x": -1.3856308329,
				"y": -2.3543963745,
				"z": -0.0081080556,
				"element": "C" 
			},
			{
				"x": -2.5852764552,
				"y": -2.2724821602,
				"z": -0.6512224567,
				"element": "O" 
			},
			{
				"x": -1.0273182615,
				"y": -3.4055596682,
				"z": 0.4623911125,
				"element": "O" 
			},
			{
				"x": -0.1494753991,
				"y": -0.4190635341,
				"z": -1.06376498,
				"element": "C" 
			},
			{
				"x": -0.404204371,
				"y": -0.9369114101,
				"z": -2.4614709617,
				"element": "C" 
			},
			{
				"x": 0.6241024858,
				"y": 0.7736100278,
				"z": -0.8862631558,
				"element": "C" 
			},
			{
				"x": 1.1437907242,
				"y": 1.5383975664,
				"z": -1.9645867699,
				"element": "C" 
			},
			{
				"x": 1.8742073111,
				"y": 2.6838408398,
				"z": -1.7286416725,
				"element": "C" 
			},
			{
				"x": 2.121671069,
				"y": 3.1160013665,
				"z": -0.4049167633,
				"element": "C" 
			},
			{
				"x": 1.6342491353,
				"y": 2.3939938862,
				"z": 0.6619334472,
				"element": "C" 
			},
			{
				"x": 0.8790638551,
				"y": 1.2122747877,
				"z": 0.4485893527,
				"element": "C" 
			},
			{
				"x": 0.4316712431,
				"y": 0.5372159082,
				"z": 1.5483079018,
				"element": "N" 
			},
			{
				"x": -0.4099805056,
				"y": -0.7016430189,
				"z": 3.4988241054,
				"element": "H" 
			},
			{
				"x": -1.8105615069,
				"y": -1.4007081517,
				"z": 2.6497125271,
				"element": "H" 
			},
			{
				"x": -0.2930545672,
				"y": -2.2854527409,
				"z": 2.6796461869,
				"element": "H" 
			},
			{
				"x": -2.755922468,
				"y": -1.3504936205,
				"z": -0.8929525163,
				"element": "H" 
			},
			{
				"x": -0.9826750071,
				"y": -1.8604025216,
				"z": -2.469010466,
				"element": "H" 
			},
			{
				"x": 0.5450431824,
				"y": -1.1342631496,
				"z": -2.9708183638,
				"element": "H" 
			},
			{
				"x": -0.9405150234,
				"y": -0.1963604251,
				"z": -3.0661133859,
				"element": "H" 
			},
			{
				"x": 0.9639365516,
				"y": 1.22088244,
				"z": -2.9860330532,
				"element": "H" 
			},
			{
				"x": 2.2631866063,
				"y": 3.2584037718,
				"z": -2.5640831877,
				"element": "H" 
			},
			{
				"x": 2.6996594555,
				"y": 4.0193787796,
				"z": -0.2333724968,
				"element": "H" 
			},
			{
				"x": 1.8088191318,
				"y": 2.6965370344,
				"z": 1.6891339114,
				"element": "H" 
			}
		],
		 "valence_orbital": [ 
			{
				"type": "occ",
				"energy": -0.30495,
				"method": "rhf"
			},
			{
				"type": "occ",
				"energy": -0.2823,
				"method": "rhf"
			},
			{
				"type": "occ",
				"energy": -0.25752,
				"method": "rhf"
			},
			{
				"type": "occ",
				"energy": -0.25303,
				"method": "rhf"
			},
			{
				"type": "occ",
				"energy": -0.23883,
				"method": "rhf"
			},
			{
				"type": "unocc",
				"energy": -0.06339,
				"method": "rhf"
			},
			{
				"type": "unocc",
				"energy": -0.0338,
				"method": "rhf"
			},
			{
				"type": "unocc",
				"energy": 0.00669,
				"method": "rhf"
			},
			{
				"type": "unocc",
				"energy": 0.01653,
				"method": "rhf"
			},
			{
				"type": "unocc",
				"energy": 0.05848,
				"method": "rhf"
			}
		],
		"cosmo_sigma_profile": { 
			"-0.025": 0.0,
			"-0.024": 0.0,
			"-0.023": 0.0,
			"-0.022": 0.0,
			"-0.021": 0.0,
			"-0.02": 0.0,
			"-0.019": 0.244371696835,
			"-0.018": 0.782520111838,
			"-0.017": 0.89973617108,
			"-0.016": 0.630470340314,
			"-0.015": 0.89172170069,
			"-0.014": 0.913468663952,
			"-0.013": 0.886166728079,
			"-0.012": 1.29521569991,
			"-0.011": 1.0952855198,
			"-0.01": 0.61205268093,
			"-0.009": 0.939991660204,
			"-0.008": 1.68577022504,
			"-0.007": 2.97816936353,
			"-0.006": 13.3467669542,
			"-0.005": 17.9391568867,
			"-0.004": 19.4679640572,
			"-0.003": 17.4484540918,
			"-0.002": 18.1935137751,
			"-0.001": 17.8612741701,
			"0.0": 17.7894123951,
			"0.001": 13.7591279798,
			"0.002": 13.6152920742,
			"0.003": 15.5292296284,
			"0.004": 14.6138363878,
			"0.005": 5.05331126348,
			"0.006": 4.10794360363,
			"0.007": 3.98673394877,
			"0.008": 4.69865087905,
			"0.009": 4.65096858653,
			"0.01": 5.66480851184,
			"0.011": 6.35312087415,
			"0.012": 3.98634082438,
			"0.013": 1.04868950663,
			"0.014": 0.820132746441,
			"0.015": 0.43155367608,
			"0.016": 0.00229479439753,
			"0.017": 0.0,
			"0.018": 0.0,
			"0.019": 0.0,
			"0.02": 0.0,
			"0.021": 0.0,
			"0.022": 0.0,
			"0.023": 0.0,
			"0.024": 0.0,
			"0.025": 0.0
		}
	}
}
