{
	 "smiles": "ClC1=CC=C(C=C1)C(=O)C(=O)C1=CC=C(Cl)C=C1", 
	 "Tm": 472.15, 
	 "num_atms": 26, 
	 "gaussian": { 
		 "optdone": 1, 
		 "sigma_profile": "yes", 
		 "theory": "DFT", 
		 "functional": "B3LYP", 
		 "basiset": "6-31G**", 
		 "properties": { 
			 "R2extent": 9229.9445, 
			 "electric_dipole_moment_norm": 1.42152840985, 
			 "electric_quadrupole_moment_norm": 7.79274768615, 
			 "total_energy": -1609.13627593, 
			 "HOMO_LUMO_gap": 0.14967, 
			 "cosmo_polarized_energy": -8.93, 
			 "cosmo_cavitation_energy": 35.53, 
			 "cosmo_dispersion_energy": -25.96, 
			 "cosmo_repulsion_energy": 1.99, 
			 "cosmo_total_nonelectrostatic_energy": 11.56, 
			 "SMD_solvation_energy": 6.32 
		},
		"coords": [
			{
				"x": -3.8287780543,
				"y": 1.3645101608,
				"z": 4.9032951262,
				"element": "Cl" 
			},
			{
				"x": -2.8369635497,
				"y": 1.4112263965,
				"z": 3.459994253,
				"element": "C" 
			},
			{
				"x": -3.0681811155,
				"y": 2.4042237033,
				"z": 2.5033403597,
				"element": "C" 
			},
			{
				"x": -2.279164945,
				"y": 2.4319452138,
				"z": 1.361055834,
				"element": "C" 
			},
			{
				"x": -1.2600270842,
				"y": 1.48359629,
				"z": 1.1640463261,
				"element": "C" 
			},
			{
				"x": -1.0459910411,
				"y": 0.4960454194,
				"z": 2.1402313465,
				"element": "C" 
			},
			{
				"x": -1.833342378,
				"y": 0.4570527874,
				"z": 3.2883277601,
				"element": "C" 
			},
			{
				"x": -0.4899824816,
				"y": 1.5666601045,
				"z": -0.1061263562,
				"element": "C" 
			},
			{
				"x": -0.7157021883,
				"y": 2.4243235256,
				"z": -0.9505155735,
				"element": "O" 
			},
			{
				"x": 0.6816480314,
				"y": 0.5952100687,
				"z": -0.3538211548,
				"element": "C" 
			},
			{
				"x": 1.4825051473,
				"y": 0.4146764331,
				"z": 0.5547914688,
				"element": "O" 
			},
			{
				"x": 0.8466048258,
				"y": -0.0341883382,
				"z": -1.691692831,
				"element": "C" 
			},
			{
				"x": -0.0677145421,
				"y": 0.1283575505,
				"z": -2.7460189193,
				"element": "C" 
			},
			{
				"x": 0.1321806073,
				"y": -0.5247501327,
				"z": -3.9597208751,
				"element": "C" 
			},
			{
				"x": 1.2522371358,
				"y": -1.3417279359,
				"z": -4.1184717465,
				"element": "C" 
			},
			{
				"x": 1.5060597119,
				"y": -2.164311873,
				"z": -5.6442228872,
				"element": "Cl" 
			},
			{
				"x": 2.1765750119,
				"y": -1.5181562926,
				"z": -3.0844772552,
				"element": "C" 
			},
			{
				"x": 1.9658561211,
				"y": -0.8645710041,
				"z": -1.8776029841,
				"element": "C" 
			},
			{
				"x": -3.8536005781,
				"y": 3.1354526621,
				"z": 2.6580698797,
				"element": "H" 
			},
			{
				"x": -2.4358592117,
				"y": 3.1875322567,
				"z": 0.5986158784,
				"element": "H" 
			},
			{
				"x": -0.2544795838,
				"y": -0.2319423864,
				"z": 2.0150109717,
				"element": "H" 
			},
			{
				"x": -1.6702340605,
				"y": -0.3013106381,
				"z": 4.0456251591,
				"element": "H" 
			},
			{
				"x": -0.9261251234,
				"y": 0.7775359522,
				"z": -2.6283098497,
				"element": "H" 
			},
			{
				"x": -0.5690215457,
				"y": -0.4003479692,
				"z": -4.7770669923,
				"element": "H" 
			},
			{
				"x": 3.0398049805,
				"y": -2.1577027576,
				"z": -3.2305435074,
				"element": "H" 
			},
			{
				"x": 2.6626959101,
				"y": -0.9837391969,
				"z": -1.0548134311,
				"element": "H" 
			}
		],
		 "valence_orbital": [ 
			{
				"type": "occ",
				"energy": -0.2801,
				"method": "rhf"
			},
			{
				"type": "occ",
				"energy": -0.27917,
				"method": "rhf"
			},
			{
				"type": "occ",
				"energy": -0.26549,
				"method": "rhf"
			},
			{
				"type": "occ",
				"energy": -0.26286,
				"method": "rhf"
			},
			{
				"type": "occ",
				"energy": -0.24846,
				"method": "rhf"
			},
			{
				"type": "unocc",
				"energy": -0.09879,
				"method": "rhf"
			},
			{
				"type": "unocc",
				"energy": -0.06605,
				"method": "rhf"
			},
			{
				"type": "unocc",
				"energy": -0.0274,
				"method": "rhf"
			},
			{
				"type": "unocc",
				"energy": -0.02719,
				"method": "rhf"
			},
			{
				"type": "unocc",
				"energy": 0.00267,
				"method": "rhf"
			}
		],
		"cosmo_sigma_profile": { 
			"-0.025": 0.0,
			"-0.024": 0.0,
			"-0.023": 0.0,
			"-0.022": 0.0,
			"-0.021": 0.0,
			"-0.02": 0.0,
			"-0.019": 0.0,
			"-0.018": 0.0,
			"-0.017": 0.0,
			"-0.016": 0.0,
			"-0.015": 0.0,
			"-0.014": 0.0,
			"-0.013": 0.0,
			"-0.012": 0.0,
			"-0.011": 0.0,
			"-0.01": 0.0,
			"-0.009": 0.0670475511238,
			"-0.008": 5.96088771086,
			"-0.007": 13.0212238781,
			"-0.006": 17.1915126932,
			"-0.005": 14.0140734497,
			"-0.004": 10.6326615378,
			"-0.003": 15.6571787666,
			"-0.002": 17.6472151345,
			"-0.001": 23.7236753439,
			"0.0": 33.2369158917,
			"0.001": 40.4542652897,
			"0.002": 32.9435019314,
			"0.003": 20.026697733,
			"0.004": 21.3189396469,
			"0.005": 4.10261053643,
			"0.006": 3.50368702906,
			"0.007": 2.99498519833,
			"0.008": 3.37485845321,
			"0.009": 4.02338167626,
			"0.01": 6.44494002203,
			"0.011": 1.59465234712,
			"0.012": 0.0,
			"0.013": 0.0,
			"0.014": 0.0,
			"0.015": 0.0,
			"0.016": 0.0,
			"0.017": 0.0,
			"0.018": 0.0,
			"0.019": 0.0,
			"0.02": 0.0,
			"0.021": 0.0,
			"0.022": 0.0,
			"0.023": 0.0,
			"0.024": 0.0,
			"0.025": 0.0
		}
	}
}
