{
	 "smiles": "CN1C2=NN=C(CCl)N2C2=C(C=CC=C2)C1=O", 
	 "Tm": 501.15, 
	 "num_atms": 26, 
	 "gaussian": { 
		 "optdone": 1, 
		 "sigma_profile": "yes", 
		 "theory": "DFT", 
		 "functional": "B3LYP", 
		 "basiset": "6-31G**", 
		 "properties": { 
			 "R2extent": 4363.1109, 
			 "electric_dipole_moment_norm": 4.00997844383, 
			 "electric_quadrupole_moment_norm": 12.8755757215, 
			 "total_energy": -1179.02313755, 
			 "HOMO_LUMO_gap": 0.17747, 
			 "cosmo_polarized_energy": -16.44, 
			 "cosmo_cavitation_energy": 31.32, 
			 "cosmo_dispersion_energy": -23.27, 
			 "cosmo_repulsion_energy": 1.75, 
			 "cosmo_total_nonelectrostatic_energy": 9.8, 
			 "SMD_solvation_energy": 3.59 
		},
		"coords": [
			{
				"x": 3.088659016,
				"y": 2.2245329096,
				"z": -0.7169924809,
				"element": "C" 
			},
			{
				"x": 1.8703541392,
				"y": 1.445709499,
				"z": -0.4746220542,
				"element": "N" 
			},
			{
				"x": 1.7402282008,
				"y": 0.2434338278,
				"z": -1.1262273666,
				"element": "C" 
			},
			{
				"x": 2.6002481047,
				"y": -0.2711277498,
				"z": -1.9757490233,
				"element": "N" 
			},
			{
				"x": 2.0574961028,
				"y": -1.461667178,
				"z": -2.3973085722,
				"element": "N" 
			},
			{
				"x": 0.9005337653,
				"y": -1.640491014,
				"z": -1.8075688765,
				"element": "C" 
			},
			{
				"x": 0.0480160942,
				"y": -2.8115619657,
				"z": -2.1029876156,
				"element": "C" 
			},
			{
				"x": 0.0141563477,
				"y": -4.0647436981,
				"z": -0.7595220571,
				"element": "Cl" 
			},
			{
				"x": 0.635346071,
				"y": -0.5628983461,
				"z": -0.9557591598,
				"element": "N" 
			},
			{
				"x": -0.4219367904,
				"y": -0.1962895188,
				"z": -0.0970345157,
				"element": "C" 
			},
			{
				"x": -0.3093736877,
				"y": 1.0571408901,
				"z": 0.5384266418,
				"element": "C" 
			},
			{
				"x": -1.3339317918,
				"y": 1.4931990593,
				"z": 1.3883924142,
				"element": "C" 
			},
			{
				"x": -2.4522382237,
				"y": 0.7013554032,
				"z": 1.6113791017,
				"element": "C" 
			},
			{
				"x": -2.5445350479,
				"y": -0.5486831482,
				"z": 0.9901923233,
				"element": "C" 
			},
			{
				"x": -1.5396950917,
				"y": -1.0047697996,
				"z": 0.1415830734,
				"element": "C" 
			},
			{
				"x": 0.8711523204,
				"y": 1.9423330207,
				"z": 0.364297793,
				"element": "C" 
			},
			{
				"x": 0.9788989127,
				"y": 3.0279309142,
				"z": 0.9181598762,
				"element": "O" 
			},
			{
				"x": 3.9640028455,
				"y": 1.6445431714,
				"z": -0.416582,
				"element": "H" 
			},
			{
				"x": 3.1740877469,
				"y": 2.45921757,
				"z": -1.780393232,
				"element": "H" 
			},
			{
				"x": 3.0080060872,
				"y": 3.1348542799,
				"z": -0.1271158037,
				"element": "H" 
			},
			{
				"x": 0.4761008828,
				"y": -3.3097250996,
				"z": -2.9705284124,
				"element": "H" 
			},
			{
				"x": -0.9929762126,
				"y": -2.5533729212,
				"z": -2.2977415814,
				"element": "H" 
			},
			{
				"x": -1.2129717588,
				"y": 2.4619170845,
				"z": 1.8604334153,
				"element": "H" 
			},
			{
				"x": -3.2430271833,
				"y": 1.0443455812,
				"z": 2.2704997851,
				"element": "H" 
			},
			{
				"x": -3.4056243505,
				"y": -1.1844199725,
				"z": 1.1721915173,
				"element": "H" 
			},
			{
				"x": -1.6163764989,
				"y": -1.9914627993,
				"z": -0.2920231898,
				"element": "H" 
			}
		],
		 "valence_orbital": [ 
			{
				"type": "occ",
				"energy": -0.28239,
				"method": "rhf"
			},
			{
				"type": "occ",
				"energy": -0.28203,
				"method": "rhf"
			},
			{
				"type": "occ",
				"energy": -0.27106,
				"method": "rhf"
			},
			{
				"type": "occ",
				"energy": -0.26329,
				"method": "rhf"
			},
			{
				"type": "occ",
				"energy": -0.24126,
				"method": "rhf"
			},
			{
				"type": "unocc",
				"energy": -0.06379,
				"method": "rhf"
			},
			{
				"type": "unocc",
				"energy": -0.05152,
				"method": "rhf"
			},
			{
				"type": "unocc",
				"energy": -0.01593,
				"method": "rhf"
			},
			{
				"type": "unocc",
				"energy": 0.01579,
				"method": "rhf"
			},
			{
				"type": "unocc",
				"energy": 0.04734,
				"method": "rhf"
			}
		],
		"cosmo_sigma_profile": { 
			"-0.025": 0.0,
			"-0.024": 0.0,
			"-0.023": 0.0,
			"-0.022": 0.0,
			"-0.021": 0.0,
			"-0.02": 0.0,
			"-0.019": 0.0,
			"-0.018": 0.0,
			"-0.017": 0.0,
			"-0.016": 0.0,
			"-0.015": 0.0,
			"-0.014": 0.0,
			"-0.013": 0.0,
			"-0.012": 0.0,
			"-0.011": 0.261752521828,
			"-0.01": 2.88001512531,
			"-0.009": 4.52723072141,
			"-0.008": 5.73022941232,
			"-0.007": 10.9954530656,
			"-0.006": 17.9876340043,
			"-0.005": 19.3345681519,
			"-0.004": 19.7472340694,
			"-0.003": 19.6832471728,
			"-0.002": 14.6317691327,
			"-0.001": 13.4802361115,
			"0.0": 16.4114211017,
			"0.001": 18.3515987537,
			"0.002": 19.4727838703,
			"0.003": 11.8451632969,
			"0.004": 9.30159085275,
			"0.005": 10.140348875,
			"0.006": 6.50019295764,
			"0.007": 2.3729218065,
			"0.008": 3.5330569898,
			"0.009": 3.64590209998,
			"0.01": 3.88051348695,
			"0.011": 5.30134971206,
			"0.012": 7.79067276815,
			"0.013": 2.47483242725,
			"0.014": 2.62528977008,
			"0.015": 1.29192584525,
			"0.016": 0.265161975887,
			"0.017": 0.0,
			"0.018": 0.0,
			"0.019": 0.0,
			"0.02": 0.0,
			"0.021": 0.0,
			"0.022": 0.0,
			"0.023": 0.0,
			"0.024": 0.0,
			"0.025": 0.0
		}
	}
}
