{
	 "smiles": "FC(F)(F)C1=CC(C#N)=C(Cl)C=C1", 
	 "Tm": 311.65, 
	 "num_atms": 16, 
	 "gaussian": { 
		 "optdone": 1, 
		 "sigma_profile": "yes", 
		 "theory": "DFT", 
		 "functional": "B3LYP", 
		 "basiset": "6-31G**", 
		 "properties": { 
			 "R2extent": 3334.6467, 
			 "electric_dipole_moment_norm": 3.77721891608, 
			 "electric_quadrupole_moment_norm": 12.6698646725, 
			 "total_energy": -1121.10811652, 
			 "HOMO_LUMO_gap": 0.20339, 
			 "cosmo_polarized_energy": -8.75, 
			 "cosmo_cavitation_energy": 25.35, 
			 "cosmo_dispersion_energy": -17.56, 
			 "cosmo_repulsion_energy": 1.33, 
			 "cosmo_total_nonelectrostatic_energy": 9.12, 
			 "SMD_solvation_energy": 6.59 
		},
		"coords": [
			{
				"x": 2.4087036738,
				"y": 2.5042070911,
				"z": -1.8986088174,
				"element": "F" 
			},
			{
				"x": 1.0994721424,
				"y": 2.5160680739,
				"z": -1.5767505263,
				"element": "C" 
			},
			{
				"x": 0.407732728,
				"y": 2.748649517,
				"z": -2.7135559914,
				"element": "F" 
			},
			{
				"x": 0.8828004752,
				"y": 3.569373575,
				"z": -0.7603490931,
				"element": "F" 
			},
			{
				"x": 0.6698144605,
				"y": 1.2242868181,
				"z": -0.9294432785,
				"element": "C" 
			},
			{
				"x": 1.3919931733,
				"y": 0.0562601024,
				"z": -1.1495443263,
				"element": "C" 
			},
			{
				"x": 0.9652132614,
				"y": -1.1578080761,
				"z": -0.5863659416,
				"element": "C" 
			},
			{
				"x": 1.7291001929,
				"y": -2.3458870253,
				"z": -0.8240731794,
				"element": "C" 
			},
			{
				"x": 2.372977935,
				"y": -3.2899097312,
				"z": -1.0380008366,
				"element": "N" 
			},
			{
				"x": -0.202227634,
				"y": -1.173568064,
				"z": 0.2010698841,
				"element": "C" 
			},
			{
				"x": -0.760271048,
				"y": -2.6599871831,
				"z": 0.9154497347,
				"element": "Cl" 
			},
			{
				"x": -0.922081863,
				"y": 0.0007926429,
				"z": 0.4204863301,
				"element": "C" 
			},
			{
				"x": -0.4866765214,
				"y": 1.1960870457,
				"z": -0.1435112165,
				"element": "C" 
			},
			{
				"x": 2.2933528834,
				"y": 0.0726777923,
				"z": -1.7505484654,
				"element": "H" 
			},
			{
				"x": -1.8155773492,
				"y": -0.028364438,
				"z": 1.0332268442,
				"element": "H" 
			},
			{
				"x": -1.0421265104,
				"y": 2.1105218593,
				"z": 0.0346188794,
				"element": "H" 
			}
		],
		 "valence_orbital": [ 
			{
				"type": "occ",
				"energy": -0.36508,
				"method": "rhf"
			},
			{
				"type": "occ",
				"energy": -0.35062,
				"method": "rhf"
			},
			{
				"type": "occ",
				"energy": -0.33788,
				"method": "rhf"
			},
			{
				"type": "occ",
				"energy": -0.29619,
				"method": "rhf"
			},
			{
				"type": "occ",
				"energy": -0.28285,
				"method": "rhf"
			},
			{
				"type": "unocc",
				"energy": -0.07946,
				"method": "rhf"
			},
			{
				"type": "unocc",
				"energy": -0.05818,
				"method": "rhf"
			},
			{
				"type": "unocc",
				"energy": 0.00213,
				"method": "rhf"
			},
			{
				"type": "unocc",
				"energy": 0.01917,
				"method": "rhf"
			},
			{
				"type": "unocc",
				"energy": 0.04453,
				"method": "rhf"
			}
		],
		"cosmo_sigma_profile": { 
			"-0.025": 0.0,
			"-0.024": 0.0,
			"-0.023": 0.0,
			"-0.022": 0.0,
			"-0.021": 0.0,
			"-0.02": 0.0,
			"-0.019": 0.0,
			"-0.018": 0.0,
			"-0.017": 0.0,
			"-0.016": 0.0,
			"-0.015": 0.0,
			"-0.014": 0.0,
			"-0.013": 0.0,
			"-0.012": 0.0,
			"-0.011": 0.0,
			"-0.01": 0.889179868276,
			"-0.009": 5.25706354023,
			"-0.008": 6.33483935981,
			"-0.007": 5.18106370148,
			"-0.006": 5.7139771919,
			"-0.005": 6.15040305857,
			"-0.004": 9.85106665547,
			"-0.003": 13.976934577,
			"-0.002": 20.861444425,
			"-0.001": 22.0168438004,
			"0.0": 15.2514857848,
			"0.001": 14.5391394834,
			"0.002": 33.9887490715,
			"0.003": 22.8086679513,
			"0.004": 2.92634003126,
			"0.005": 2.96368666784,
			"0.006": 2.53997204312,
			"0.007": 3.29518975424,
			"0.008": 3.38316801686,
			"0.009": 2.93612712664,
			"0.01": 3.03396899421,
			"0.011": 2.35354320324,
			"0.012": 1.81232798463,
			"0.013": 0.201385654822,
			"0.014": 0.0,
			"0.015": 0.0,
			"0.016": 0.0,
			"0.017": 0.0,
			"0.018": 0.0,
			"0.019": 0.0,
			"0.02": 0.0,
			"0.021": 0.0,
			"0.022": 0.0,
			"0.023": 0.0,
			"0.024": 0.0,
			"0.025": 0.0
		}
	}
}
