{
	 "smiles": "CN(C)S(=O)(=O)C1=CC2=C(NCC2)C=C1", 
	 "Tm": 385.15, 
	 "num_atms": 29, 
	 "gaussian": { 
		 "optdone": 1, 
		 "sigma_profile": "yes", 
		 "theory": "DFT", 
		 "functional": "B3LYP", 
		 "basiset": "6-31G**", 
		 "properties": { 
			 "R2extent": 3920.7757, 
			 "electric_dipole_moment_norm": 6.91349000361, 
			 "electric_quadrupole_moment_norm": 17.8231169106, 
			 "total_energy": -1047.56980781, 
			 "HOMO_LUMO_gap": 0.19321, 
			 "cosmo_polarized_energy": -17.42, 
			 "cosmo_cavitation_energy": 32.22, 
			 "cosmo_dispersion_energy": -23.81, 
			 "cosmo_repulsion_energy": 1.82, 
			 "cosmo_total_nonelectrostatic_energy": 10.22, 
			 "SMD_solvation_energy": 2.26 
		},
		"coords": [
			{
				"x": -0.9324155287,
				"y": -3.408716991,
				"z": 0.9067697962,
				"element": "C" 
			},
			{
				"x": 0.2523938727,
				"y": -2.701819154,
				"z": 1.3955020139,
				"element": "N" 
			},
			{
				"x": 1.4898328822,
				"y": -3.0157553763,
				"z": 0.679890734,
				"element": "C" 
			},
			{
				"x": 0.024113988,
				"y": -1.0670455448,
				"z": 1.7946262109,
				"element": "S" 
			},
			{
				"x": 1.3054896875,
				"y": -0.6088409371,
				"z": 2.3396578441,
				"element": "O" 
			},
			{
				"x": -1.2148856871,
				"y": -1.0185234385,
				"z": 2.5761017164,
				"element": "O" 
			},
			{
				"x": -0.2600137406,
				"y": -0.1817243406,
				"z": 0.2679019245,
				"element": "C" 
			},
			{
				"x": 0.8365232518,
				"y": 0.3465866913,
				"z": -0.4387700325,
				"element": "C" 
			},
			{
				"x": 0.5984996308,
				"y": 1.0087320049,
				"z": -1.6285282409,
				"element": "C" 
			},
			{
				"x": -0.7160716515,
				"y": 1.1411922622,
				"z": -2.1227679205,
				"element": "C" 
			},
			{
				"x": -0.7112086159,
				"y": 1.8131710325,
				"z": -3.3378571456,
				"element": "N" 
			},
			{
				"x": 0.5844230705,
				"y": 2.5018911162,
				"z": -3.4920878485,
				"element": "C" 
			},
			{
				"x": 1.5454764299,
				"y": 1.6570169385,
				"z": -2.6181048592,
				"element": "C" 
			},
			{
				"x": -1.8072074752,
				"y": 0.6208128525,
				"z": -1.4202685327,
				"element": "C" 
			},
			{
				"x": -1.5654180903,
				"y": -0.0431984914,
				"z": -0.2165398946,
				"element": "C" 
			},
			{
				"x": -1.1727743908,
				"y": -3.167687487,
				"z": -0.1408971232,
				"element": "H" 
			},
			{
				"x": -0.7395932761,
				"y": -4.4832958801,
				"z": 0.9790472988,
				"element": "H" 
			},
			{
				"x": -1.7842649355,
				"y": -3.16628431,
				"z": 1.5416417615,
				"element": "H" 
			},
			{
				"x": 2.3225170216,
				"y": -2.4979237654,
				"z": 1.1553116209,
				"element": "H" 
			},
			{
				"x": 1.447776542,
				"y": -2.745223467,
				"z": -0.3872079882,
				"element": "H" 
			},
			{
				"x": 1.661564907,
				"y": -4.0936317428,
				"z": 0.7563681416,
				"element": "H" 
			},
			{
				"x": 1.8355438418,
				"y": 0.2608077451,
				"z": -0.0240627495,
				"element": "H" 
			},
			{
				"x": -1.5439060809,
				"y": 2.3250041461,
				"z": -3.5972102473,
				"element": "H" 
			},
			{
				"x": 0.8849072258,
				"y": 2.5377062769,
				"z": -4.5427366714,
				"element": "H" 
			},
			{
				"x": 0.532099634,
				"y": 3.5341768523,
				"z": -3.1142698018,
				"element": "H" 
			},
			{
				"x": 2.3237236251,
				"y": 2.2663027817,
				"z": -2.1507007398,
				"element": "H" 
			},
			{
				"x": 2.0463457862,
				"y": 0.892270603,
				"z": -3.2260362944,
				"element": "H" 
			},
			{
				"x": -2.8216211661,
				"y": 0.7413376761,
				"z": -1.7886142831,
				"element": "H" 
			},
			{
				"x": -2.3919507583,
				"y": -0.4267380536,
				"z": 0.3715413104,
				"element": "H" 
			}
		],
		 "valence_orbital": [ 
			{
				"type": "occ",
				"energy": -0.28761,
				"method": "rhf"
			},
			{
				"type": "occ",
				"energy": -0.28705,
				"method": "rhf"
			},
			{
				"type": "occ",
				"energy": -0.26028,
				"method": "rhf"
			},
			{
				"type": "occ",
				"energy": -0.25038,
				"method": "rhf"
			},
			{
				"type": "occ",
				"energy": -0.21017,
				"method": "rhf"
			},
			{
				"type": "unocc",
				"energy": -0.01696,
				"method": "rhf"
			},
			{
				"type": "unocc",
				"energy": -0.01558,
				"method": "rhf"
			},
			{
				"type": "unocc",
				"energy": 0.07137,
				"method": "rhf"
			},
			{
				"type": "unocc",
				"energy": 0.07669,
				"method": "rhf"
			},
			{
				"type": "unocc",
				"energy": 0.09044,
				"method": "rhf"
			}
		],
		"cosmo_sigma_profile": { 
			"-0.025": 0.0,
			"-0.024": 0.0,
			"-0.023": 0.0,
			"-0.022": 0.0,
			"-0.021": 0.0,
			"-0.02": 0.0,
			"-0.019": 0.0,
			"-0.018": 0.0,
			"-0.017": 0.0,
			"-0.016": 0.0,
			"-0.015": 0.0,
			"-0.014": 0.143683779726,
			"-0.013": 1.33903139366,
			"-0.012": 1.51476374985,
			"-0.011": 1.01519989409,
			"-0.01": 1.17968387752,
			"-0.009": 1.90819793805,
			"-0.008": 1.64986487001,
			"-0.007": 2.881377753,
			"-0.006": 9.62679768285,
			"-0.005": 14.9377973922,
			"-0.004": 30.5433129333,
			"-0.003": 32.936304212,
			"-0.002": 35.4984363442,
			"-0.001": 18.2952092683,
			"0.0": 7.83732596845,
			"0.001": 8.62989070103,
			"0.002": 9.95038202136,
			"0.003": 11.7167290795,
			"0.004": 13.2559034666,
			"0.005": 6.11207702378,
			"0.006": 4.46493781296,
			"0.007": 5.66217913573,
			"0.008": 5.65335062374,
			"0.009": 4.13416670735,
			"0.01": 6.52298205226,
			"0.011": 8.73319605597,
			"0.012": 7.27909184049,
			"0.013": 0.763046613053,
			"0.014": 0.0,
			"0.015": 0.0,
			"0.016": 0.0,
			"0.017": 0.0,
			"0.018": 0.0,
			"0.019": 0.0,
			"0.02": 0.0,
			"0.021": 0.0,
			"0.022": 0.0,
			"0.023": 0.0,
			"0.024": 0.0,
			"0.025": 0.0
		}
	}
}
