{
	 "smiles": "NC1=CC=C(C=C1)C1=CC=C(Cl)C=C1", 
	 "Tm": 407.15, 
	 "num_atms": 24, 
	 "gaussian": { 
		 "optdone": 1, 
		 "sigma_profile": "yes", 
		 "theory": "DFT", 
		 "functional": "B3LYP", 
		 "basiset": "6-31G**", 
		 "properties": { 
			 "R2extent": 5994.871, 
			 "electric_dipole_moment_norm": 4.28423013037, 
			 "electric_quadrupole_moment_norm": 10.0182691539, 
			 "total_energy": -978.261159432, 
			 "HOMO_LUMO_gap": 0.17337, 
			 "cosmo_polarized_energy": -10.16, 
			 "cosmo_cavitation_energy": 29.82, 
			 "cosmo_dispersion_energy": -22.17, 
			 "cosmo_repulsion_energy": 1.73, 
			 "cosmo_total_nonelectrostatic_energy": 9.38, 
			 "SMD_solvation_energy": 4.49 
		},
		"coords": [
			{
				"x": 1.8201193635,
				"y": 1.7707952035,
				"z": -2.5115417341,
				"element": "N" 
			},
			{
				"x": 1.0297770135,
				"y": 1.1948516892,
				"z": -1.5183948813,
				"element": "C" 
			},
			{
				"x": -0.1182702275,
				"y": 0.4534424625,
				"z": -1.8483602881,
				"element": "C" 
			},
			{
				"x": -0.8718917657,
				"y": -0.1659031251,
				"z": -0.8582450686,
				"element": "C" 
			},
			{
				"x": -0.5212216696,
				"y": -0.0778063829,
				"z": 0.5000925457,
				"element": "C" 
			},
			{
				"x": 0.6285842697,
				"y": 0.6652798692,
				"z": 0.8187214267,
				"element": "C" 
			},
			{
				"x": 1.3895509781,
				"y": 1.2895669753,
				"z": -0.1626710776,
				"element": "C" 
			},
			{
				"x": -1.3298788036,
				"y": -0.738509246,
				"z": 1.5515372233,
				"element": "C" 
			},
			{
				"x": -2.730536834,
				"y": -0.8148147812,
				"z": 1.4534705965,
				"element": "C" 
			},
			{
				"x": -3.4979701708,
				"y": -1.4369695581,
				"z": 2.4359521104,
				"element": "C" 
			},
			{
				"x": -2.8632287625,
				"y": -1.991255868,
				"z": 3.5463919741,
				"element": "C" 
			},
			{
				"x": -3.8233195335,
				"y": -2.7755162822,
				"z": 4.7954322179,
				"element": "Cl" 
			},
			{
				"x": -1.4768304019,
				"y": -1.9316100669,
				"z": 3.6788391288,
				"element": "C" 
			},
			{
				"x": -0.7240398983,
				"y": -1.3117787383,
				"z": 2.6836338921,
				"element": "C" 
			},
			{
				"x": 2.4036453462,
				"y": 2.5391162651,
				"z": -2.2111505736,
				"element": "H" 
			},
			{
				"x": 1.3476083287,
				"y": 1.9693329091,
				"z": -3.3823994226,
				"element": "H" 
			},
			{
				"x": -0.4085737119,
				"y": 0.3520494212,
				"z": -2.8913418391,
				"element": "H" 
			},
			{
				"x": -1.7385330329,
				"y": -0.7523899862,
				"z": -1.1496575184,
				"element": "H" 
			},
			{
				"x": 0.9175551882,
				"y": 0.7828377589,
				"z": 1.8592115263,
				"element": "H" 
			},
			{
				"x": 2.2689501822,
				"y": 1.8636723958,
				"z": 0.1192962801,
				"element": "H" 
			},
			{
				"x": -3.2330151251,
				"y": -0.3576329551,
				"z": 0.6064953582,
				"element": "H" 
			},
			{
				"x": -4.5781492282,
				"y": -1.4807701547,
				"z": 2.348763285,
				"element": "H" 
			},
			{
				"x": -0.9933237424,
				"y": -2.3756451425,
				"z": 4.5421768773,
				"element": "H" 
			},
			{
				"x": 0.3575922381,
				"y": -1.2963426625,
				"z": 2.7767479611,
				"element": "H" 
			}
		],
		 "valence_orbital": [ 
			{
				"type": "occ",
				"energy": -0.30575,
				"method": "rhf"
			},
			{
				"type": "occ",
				"energy": -0.25729,
				"method": "rhf"
			},
			{
				"type": "occ",
				"energy": -0.25109,
				"method": "rhf"
			},
			{
				"type": "occ",
				"energy": -0.24616,
				"method": "rhf"
			},
			{
				"type": "occ",
				"energy": -0.19669,
				"method": "rhf"
			},
			{
				"type": "unocc",
				"energy": -0.02332,
				"method": "rhf"
			},
			{
				"type": "unocc",
				"energy": -0.00912,
				"method": "rhf"
			},
			{
				"type": "unocc",
				"energy": -0.00149,
				"method": "rhf"
			},
			{
				"type": "unocc",
				"energy": 0.03514,
				"method": "rhf"
			},
			{
				"type": "unocc",
				"energy": 0.0367,
				"method": "rhf"
			}
		],
		"cosmo_sigma_profile": { 
			"-0.025": 0.0,
			"-0.024": 0.0,
			"-0.023": 0.0,
			"-0.022": 0.0,
			"-0.021": 0.0,
			"-0.02": 0.0,
			"-0.019": 0.0,
			"-0.018": 0.0,
			"-0.017": 0.0,
			"-0.016": 0.0,
			"-0.015": 0.0,
			"-0.014": 0.0,
			"-0.013": 0.377571966057,
			"-0.012": 2.77501479236,
			"-0.011": 2.4961248851,
			"-0.01": 3.23881327386,
			"-0.009": 3.08292316391,
			"-0.008": 3.01707469211,
			"-0.007": 5.46529820724,
			"-0.006": 12.1257679974,
			"-0.005": 16.991584668,
			"-0.004": 14.7176001857,
			"-0.003": 14.3686855203,
			"-0.002": 13.011689002,
			"-0.001": 11.316178866,
			"0.0": 13.4013310071,
			"0.001": 14.7484965637,
			"0.002": 19.1496464669,
			"0.003": 22.6398475538,
			"0.004": 27.6414650798,
			"0.005": 19.9858656447,
			"0.006": 12.067321356,
			"0.007": 3.24992897257,
			"0.008": 0.43351079019,
			"0.009": 1.04821580606,
			"0.01": 1.13361777459,
			"0.011": 0.361593775848,
			"0.012": 0.646319826172,
			"0.013": 0.662378903715,
			"0.014": 0.627761401003,
			"0.015": 0.00761712782415,
			"0.016": 0.0,
			"0.017": 0.0,
			"0.018": 0.0,
			"0.019": 0.0,
			"0.02": 0.0,
			"0.021": 0.0,
			"0.022": 0.0,
			"0.023": 0.0,
			"0.024": 0.0,
			"0.025": 0.0
		}
	}
}
