{
	 "smiles": "COC(=O)C1=CC(Br)=CN=C1", 
	 "Tm": 372.15, 
	 "num_atms": 17, 
	 "gaussian": { 
		 "optdone": 1, 
		 "sigma_profile": "yes", 
		 "theory": "DFT", 
		 "functional": "B3LYP", 
		 "basiset": "6-31G**", 
		 "properties": { 
			 "R2extent": 4929.9914, 
			 "electric_dipole_moment_norm": 2.73703077988, 
			 "electric_quadrupole_moment_norm": 6.19640273142, 
			 "total_energy": -3046.96386195, 
			 "HOMO_LUMO_gap": 0.19473, 
			 "cosmo_polarized_energy": -8.02, 
			 "cosmo_cavitation_energy": 24.54, 
			 "cosmo_dispersion_energy": -18.46, 
			 "cosmo_repulsion_energy": 1.48, 
			 "cosmo_total_nonelectrostatic_energy": 7.56, 
			 "SMD_solvation_energy": 3.37 
		},
		"coords": [
			{
				"x": -2.55559498,
				"y": 2.6141950182,
				"z": 0.7687621074,
				"element": "C" 
			},
			{
				"x": -1.1993681425,
				"y": 2.1547558761,
				"z": 0.902978481,
				"element": "O" 
			},
			{
				"x": -1.0220565823,
				"y": 0.8268372478,
				"z": 0.7383503662,
				"element": "C" 
			},
			{
				"x": -1.9242005253,
				"y": 0.0517673879,
				"z": 0.4938329097,
				"element": "O" 
			},
			{
				"x": 0.4065206467,
				"y": 0.4268301264,
				"z": 0.8917472986,
				"element": "C" 
			},
			{
				"x": 1.4247286966,
				"y": 1.3440869547,
				"z": 1.1738372727,
				"element": "C" 
			},
			{
				"x": 2.7198629081,
				"y": 0.8554859448,
				"z": 1.2948646864,
				"element": "C" 
			},
			{
				"x": 4.1679055291,
				"y": 2.0337616915,
				"z": 1.6781761999,
				"element": "Br" 
			},
			{
				"x": 2.9627795547,
				"y": -0.5114532383,
				"z": 1.1343205019,
				"element": "C" 
			},
			{
				"x": 1.9907626178,
				"y": -1.3889745409,
				"z": 0.8647531443,
				"element": "N" 
			},
			{
				"x": 0.7432174297,
				"y": -0.9255369037,
				"z": 0.7471746787,
				"element": "C" 
			},
			{
				"x": -3.1967917833,
				"y": 2.1358055282,
				"z": 1.5129283227,
				"element": "H" 
			},
			{
				"x": -2.9397233251,
				"y": 2.3859559171,
				"z": -0.2282953315,
				"element": "H" 
			},
			{
				"x": -2.5173689154,
				"y": 3.6912051082,
				"z": 0.9291352898,
				"element": "H" 
			},
			{
				"x": 1.2048825451,
				"y": 2.3976366455,
				"z": 1.2927452128,
				"element": "H" 
			},
			{
				"x": 3.9724713055,
				"y": -0.9033194849,
				"z": 1.2270866446,
				"element": "H" 
			},
			{
				"x": -0.0386269794,
				"y": -1.6472392786,
				"z": 0.5281022148,
				"element": "H" 
			}
		],
		 "valence_orbital": [ 
			{
				"type": "occ",
				"energy": -0.3049,
				"method": "rhf"
			},
			{
				"type": "occ",
				"energy": -0.30086,
				"method": "rhf"
			},
			{
				"type": "occ",
				"energy": -0.29303,
				"method": "rhf"
			},
			{
				"type": "occ",
				"energy": -0.27005,
				"method": "rhf"
			},
			{
				"type": "occ",
				"energy": -0.26321,
				"method": "rhf"
			},
			{
				"type": "unocc",
				"energy": -0.06848,
				"method": "rhf"
			},
			{
				"type": "unocc",
				"energy": -0.04145,
				"method": "rhf"
			},
			{
				"type": "unocc",
				"energy": -0.00549,
				"method": "rhf"
			},
			{
				"type": "unocc",
				"energy": 0.03417,
				"method": "rhf"
			},
			{
				"type": "unocc",
				"energy": 0.09954,
				"method": "rhf"
			}
		],
		"cosmo_sigma_profile": { 
			"-0.025": 0.0,
			"-0.024": 0.0,
			"-0.023": 0.0,
			"-0.022": 0.0,
			"-0.021": 0.0,
			"-0.02": 0.0,
			"-0.019": 0.0,
			"-0.018": 0.0,
			"-0.017": 0.0,
			"-0.016": 0.0,
			"-0.015": 0.0,
			"-0.014": 0.0,
			"-0.013": 0.0,
			"-0.012": 0.0,
			"-0.011": 0.0,
			"-0.01": 0.0,
			"-0.009": 0.178548578845,
			"-0.008": 2.22660744778,
			"-0.007": 5.74017833315,
			"-0.006": 9.23898100186,
			"-0.005": 13.5515774099,
			"-0.004": 16.3145459951,
			"-0.003": 17.2541641753,
			"-0.002": 21.209383162,
			"-0.001": 24.6999693986,
			"0.0": 14.4689944345,
			"0.001": 11.4285354179,
			"0.002": 11.4043555291,
			"0.003": 13.8283084576,
			"0.004": 12.3353198809,
			"0.005": 3.73210045971,
			"0.006": 2.78598113217,
			"0.007": 2.17695133491,
			"0.008": 2.63788596535,
			"0.009": 2.63159811798,
			"0.01": 2.87969537579,
			"0.011": 5.34868460437,
			"0.012": 2.25327711069,
			"0.013": 0.836617428378,
			"0.014": 0.919124421783,
			"0.015": 0.471214974287,
			"0.016": 0.0,
			"0.017": 0.0,
			"0.018": 0.0,
			"0.019": 0.0,
			"0.02": 0.0,
			"0.021": 0.0,
			"0.022": 0.0,
			"0.023": 0.0,
			"0.024": 0.0,
			"0.025": 0.0
		}
	}
}
