{
	 "smiles": "OC(=O)C1=C(O)C=CC(NS(=O)(=O)C2=CC=CS2)=C1", 
	 "Tm": 483.15, 
	 "num_atms": 28, 
	 "gaussian": { 
		 "optdone": 1, 
		 "sigma_profile": "yes", 
		 "theory": "DFT", 
		 "functional": "B3LYP", 
		 "basiset": "6-31G**", 
		 "properties": { 
			 "R2extent": 6125.9363, 
			 "electric_dipole_moment_norm": 3.46809717424, 
			 "electric_quadrupole_moment_norm": 39.7473783749, 
			 "total_energy": -1651.76033977, 
			 "HOMO_LUMO_gap": 0.17144, 
			 "cosmo_polarized_energy": -23.87, 
			 "cosmo_cavitation_energy": 36.26, 
			 "cosmo_dispersion_energy": -25.95, 
			 "cosmo_repulsion_energy": 1.89, 
			 "cosmo_total_nonelectrostatic_energy": 12.2, 
			 "SMD_solvation_energy": 6.66 
		},
		"coords": [
			{
				"x": 2.9598071992,
				"y": -1.5775707464,
				"z": -0.0278081112,
				"element": "O" 
			},
			{
				"x": 3.0472114886,
				"y": -0.3435449074,
				"z": 0.5069335034,
				"element": "C" 
			},
			{
				"x": 4.1075985428,
				"y": -0.0075417769,
				"z": 1.0240424566,
				"element": "O" 
			},
			{
				"x": 1.8641357453,
				"y": 0.5419959475,
				"z": 0.4618547834,
				"element": "C" 
			},
			{
				"x": 1.8999948425,
				"y": 1.749248071,
				"z": 1.2116317949,
				"element": "C" 
			},
			{
				"x": 2.9700964731,
				"y": 2.1314881498,
				"z": 1.9134834236,
				"element": "O" 
			},
			{
				"x": 0.7648328532,
				"y": 2.5816496076,
				"z": 1.2274517393,
				"element": "C" 
			},
			{
				"x": -0.3671951359,
				"y": 2.2420082577,
				"z": 0.5084914753,
				"element": "C" 
			},
			{
				"x": -0.3940851096,
				"y": 1.0778127135,
				"z": -0.2827320834,
				"element": "C" 
			},
			{
				"x": -1.5288122433,
				"y": 0.7197895807,
				"z": -1.0789771173,
				"element": "N" 
			},
			{
				"x": -2.7815066583,
				"y": -0.2035790668,
				"z": -0.3626278888,
				"element": "S" 
			},
			{
				"x": -2.8759063026,
				"y": 0.0689407858,
				"z": 1.0732731884,
				"element": "O" 
			},
			{
				"x": -3.915158385,
				"y": -0.0123833017,
				"z": -1.2679133846,
				"element": "O" 
			},
			{
				"x": -2.1873717916,
				"y": -1.8635258421,
				"z": -0.5211083765,
				"element": "C" 
			},
			{
				"x": -2.2186503734,
				"y": -2.6306653004,
				"z": -1.6587259817,
				"element": "C" 
			},
			{
				"x": -1.673462104,
				"y": -3.9274200517,
				"z": -1.4445459258,
				"element": "C" 
			},
			{
				"x": -1.2470797796,
				"y": -4.1122060025,
				"z": -0.153541698,
				"element": "C" 
			},
			{
				"x": -1.507928996,
				"y": -2.71716134,
				"z": 0.8345937686,
				"element": "S" 
			},
			{
				"x": 0.7200413914,
				"y": 0.2493824772,
				"z": -0.3008610257,
				"element": "C" 
			},
			{
				"x": 2.0455712069,
				"y": -1.7831719193,
				"z": -0.2675104619,
				"element": "H" 
			},
			{
				"x": 3.6768137054,
				"y": 1.4560925888,
				"z": 1.7495819206,
				"element": "H" 
			},
			{
				"x": 0.8052640048,
				"y": 3.4868271259,
				"z": 1.8232073691,
				"element": "H" 
			},
			{
				"x": -1.2450872006,
				"y": 2.8800644884,
				"z": 0.5466056283,
				"element": "H" 
			},
			{
				"x": -1.9859108787,
				"y": 1.4934529735,
				"z": -1.5570145454,
				"element": "H" 
			},
			{
				"x": -2.6251747507,
				"y": -2.2753570637,
				"z": -2.5978723767,
				"element": "H" 
			},
			{
				"x": -1.6097396189,
				"y": -4.6910161881,
				"z": -2.2108403783,
				"element": "H" 
			},
			{
				"x": -0.8081158463,
				"y": -5.0001870387,
				"z": 0.2816924844,
				"element": "H" 
			},
			{
				"x": 0.6849177214,
				"y": -0.6151222216,
				"z": -0.9580641804,
				"element": "H" 
			}
		],
		 "valence_orbital": [ 
			{
				"type": "occ",
				"energy": -0.29624,
				"method": "rhf"
			},
			{
				"type": "occ",
				"energy": -0.28757,
				"method": "rhf"
			},
			{
				"type": "occ",
				"energy": -0.28226,
				"method": "rhf"
			},
			{
				"type": "occ",
				"energy": -0.26742,
				"method": "rhf"
			},
			{
				"type": "occ",
				"energy": -0.23986,
				"method": "rhf"
			},
			{
				"type": "unocc",
				"energy": -0.06842,
				"method": "rhf"
			},
			{
				"type": "unocc",
				"energy": -0.0609,
				"method": "rhf"
			},
			{
				"type": "unocc",
				"energy": -0.02589,
				"method": "rhf"
			},
			{
				"type": "unocc",
				"energy": 0.00242,
				"method": "rhf"
			},
			{
				"type": "unocc",
				"energy": 0.02213,
				"method": "rhf"
			}
		],
		"cosmo_sigma_profile": { 
			"-0.025": 0.0,
			"-0.024": 0.0,
			"-0.023": 0.0,
			"-0.022": 0.0,
			"-0.021": 0.0,
			"-0.02": 0.0,
			"-0.019": 0.0,
			"-0.018": 0.182355651304,
			"-0.017": 0.554606874382,
			"-0.016": 0.85808103477,
			"-0.015": 1.77503380425,
			"-0.014": 1.85060743765,
			"-0.013": 2.30212190233,
			"-0.012": 2.25699564286,
			"-0.011": 3.43366451521,
			"-0.01": 4.12680025736,
			"-0.009": 6.32988484107,
			"-0.008": 8.56806995327,
			"-0.007": 13.3730123736,
			"-0.006": 13.3258475991,
			"-0.005": 13.1224220239,
			"-0.004": 14.1830120018,
			"-0.003": 15.3469023874,
			"-0.002": 15.2264070069,
			"-0.001": 15.6618435988,
			"0.0": 19.5313917693,
			"0.001": 27.6162926065,
			"0.002": 24.1007997698,
			"0.003": 13.5965830055,
			"0.004": 8.35691581544,
			"0.005": 7.66958967238,
			"0.006": 6.73550297773,
			"0.007": 8.16424881809,
			"0.008": 8.32458588263,
			"0.009": 11.1589237066,
			"0.01": 14.8911784137,
			"0.011": 9.07040770481,
			"0.012": 1.75973150545,
			"0.013": 0.112700805092,
			"0.014": 0.0,
			"0.015": 0.0,
			"0.016": 0.0,
			"0.017": 0.0,
			"0.018": 0.0,
			"0.019": 0.0,
			"0.02": 0.0,
			"0.021": 0.0,
			"0.022": 0.0,
			"0.023": 0.0,
			"0.024": 0.0,
			"0.0": 0.0
		}
	}
}
