{
	 "smiles": "CC1=C(NC(=O)CC#N)C=C(Cl)C=C1", 
	 "Tm": 464.15, 
	 "num_atms": 23, 
	 "gaussian": { 
		 "optdone": 1, 
		 "sigma_profile": "yes", 
		 "theory": "DFT", 
		 "functional": "B3LYP", 
		 "basiset": "6-31G**", 
		 "properties": { 
			 "R2extent": 3858.0141, 
			 "electric_dipole_moment_norm": 2.00409058927, 
			 "electric_quadrupole_moment_norm": 17.5939989181, 
			 "total_energy": -1031.41333263, 
			 "HOMO_LUMO_gap": 0.19948, 
			 "cosmo_polarized_energy": -14.23, 
			 "cosmo_cavitation_energy": 30.06, 
			 "cosmo_dispersion_energy": -21.08, 
			 "cosmo_repulsion_energy": 1.65, 
			 "cosmo_total_nonelectrostatic_energy": 10.63, 
			 "SMD_solvation_energy": 6.62 
		},
		"coords": [
			{
				"x": -2.3025926725,
				"y": 0.6414047536,
				"z": 1.7032793808,
				"element": "C" 
			},
			{
				"x": -1.6428243206,
				"y": -0.0062515606,
				"z": 0.5079558407,
				"element": "C" 
			},
			{
				"x": -0.2545114674,
				"y": 0.1168352344,
				"z": 0.2701688373,
				"element": "C" 
			},
			{
				"x": 0.4986090694,
				"y": 0.8738070119,
				"z": 1.1992760543,
				"element": "N" 
			},
			{
				"x": 1.8385516463,
				"y": 1.1387270798,
				"z": 1.19446859,
				"element": "C" 
			},
			{
				"x": 2.6492725688,
				"y": 0.7601533955,
				"z": 0.3662265096,
				"element": "O" 
			},
			{
				"x": 2.3502241119,
				"y": 2.0097470971,
				"z": 2.3717948695,
				"element": "C" 
			},
			{
				"x": 1.3470600576,
				"y": 2.4409271998,
				"z": 3.3407443885,
				"element": "C" 
			},
			{
				"x": 0.4978855658,
				"y": 2.747725451,
				"z": 4.0716391659,
				"element": "N" 
			},
			{
				"x": 0.3421523037,
				"y": -0.4898777197,
				"z": -0.8431858584,
				"element": "C" 
			},
			{
				"x": -0.4577238518,
				"y": -1.2207344237,
				"z": -1.7176906778,
				"element": "C" 
			},
			{
				"x": 0.2929637706,
				"y": -1.9811902357,
				"z": -3.1140132094,
				"element": "Cl" 
			},
			{
				"x": -1.826812119,
				"y": -1.3637001141,
				"z": -1.5162149457,
				"element": "C" 
			},
			{
				"x": -2.3973262564,
				"y": -0.7506092017,
				"z": -0.4012277887,
				"element": "C" 
			},
			{
				"x": -2.1892231958,
				"y": 1.7333280699,
				"z": 1.7012205722,
				"element": "H" 
			},
			{
				"x": -3.3742504499,
				"y": 0.4310401405,
				"z": 1.7099089364,
				"element": "H" 
			},
			{
				"x": -1.8965416391,
				"y": 0.2726282012,
				"z": 2.6542095469,
				"element": "H" 
			},
			{
				"x": -0.0297176402,
				"y": 1.2684634482,
				"z": 1.9655014185,
				"element": "H" 
			},
			{
				"x": 3.1312984486,
				"y": 1.4332933708,
				"z": 2.8783432795,
				"element": "H" 
			},
			{
				"x": 2.840204878,
				"y": 2.8843162861,
				"z": 1.9313054094,
				"element": "H" 
			},
			{
				"x": 1.4038149502,
				"y": -0.386813058,
				"z": -1.0113918186,
				"element": "H" 
			},
			{
				"x": -2.4303551928,
				"y": -1.9372648159,
				"z": -2.2099479085,
				"element": "H" 
			},
			{
				"x": -3.4654585654,
				"y": -0.8536556103,
				"z": -0.2310705924,
				"element": "H" 
			}
		],
		 "valence_orbital": [ 
			{
				"type": "occ",
				"energy": -0.31207,
				"method": "rhf"
			},
			{
				"type": "occ",
				"energy": -0.31117,
				"method": "rhf"
			},
			{
				"type": "occ",
				"energy": -0.28062,
				"method": "rhf"
			},
			{
				"type": "occ",
				"energy": -0.25299,
				"method": "rhf"
			},
			{
				"type": "occ",
				"energy": -0.23504,
				"method": "rhf"
			},
			{
				"type": "unocc",
				"energy": -0.03556,
				"method": "rhf"
			},
			{
				"type": "unocc",
				"energy": -0.01518,
				"method": "rhf"
			},
			{
				"type": "unocc",
				"energy": 0.00184,
				"method": "rhf"
			},
			{
				"type": "unocc",
				"energy": 0.01383,
				"method": "rhf"
			},
			{
				"type": "unocc",
				"energy": 0.02477,
				"method": "rhf"
			}
		],
		"cosmo_sigma_profile": { 
			"-0.025": 0.0,
			"-0.024": 0.0,
			"-0.023": 0.0,
			"-0.022": 0.0,
			"-0.021": 0.0,
			"-0.02": 0.0,
			"-0.019": 0.0,
			"-0.018": 0.0,
			"-0.017": 0.0,
			"-0.016": 0.0,
			"-0.015": 0.0,
			"-0.014": 0.0,
			"-0.013": 0.0,
			"-0.012": 0.0,
			"-0.011": 1.33429314179,
			"-0.01": 6.98960073166,
			"-0.009": 6.80945118163,
			"-0.008": 6.83863037001,
			"-0.007": 10.2929263405,
			"-0.006": 12.6528596236,
			"-0.005": 13.2738907488,
			"-0.004": 10.5541236396,
			"-0.003": 12.2566672427,
			"-0.002": 14.3246933414,
			"-0.001": 16.8705275498,
			"0.0": 15.7948742006,
			"0.001": 15.5647939224,
			"0.002": 18.4963434672,
			"0.003": 20.577906417,
			"0.004": 18.3449953325,
			"0.005": 12.2007515321,
			"0.006": 3.47379697469,
			"0.007": 3.95109724153,
			"0.008": 4.0695128106,
			"0.009": 4.07568626985,
			"0.01": 4.59556396586,
			"0.011": 5.07489424437,
			"0.012": 4.53570034873,
			"0.013": 0.938092787026,
			"0.014": 0.0,
			"0.015": 0.0,
			"0.016": 0.0,
			"0.017": 0.0,
			"0.018": 0.0,
			"0.019": 0.0,
			"0.02": 0.0,
			"0.021": 0.0,
			"0.022": 0.0,
			"0.023": 0.0,
			"0.024": 0.0,
			"0.025": 0.0
		}
	}
}
