{
	 "smiles": "COC(OC)N(C)C", 
	 "Tm": 188.15, 
	 "num_atms": 21, 
	 "gaussian": { 
		 "optdone": 1, 
		 "sigma_profile": "yes", 
		 "theory": "DFT", 
		 "functional": "B3LYP", 
		 "basiset": "6-31G**", 
		 "properties": { 
			 "R2extent": 1866.2018, 
			 "electric_dipole_moment_norm": 1.25073604729, 
			 "electric_quadrupole_moment_norm": 2.84362122302, 
			 "total_energy": -403.535239247, 
			 "HOMO_LUMO_gap": 0.30899, 
			 "cosmo_polarized_energy": -5.97, 
			 "cosmo_cavitation_energy": 23.03, 
			 "cosmo_dispersion_energy": -16.35, 
			 "cosmo_repulsion_energy": 1.38, 
			 "cosmo_total_nonelectrostatic_energy": 8.07, 
			 "SMD_solvation_energy": 4.36 
		},
		"coords": [
			{
				"x": 0.1775223805,
				"y": 0.6852424087,
				"z": -1.9114138884,
				"element": "C" 
			},
			{
				"x": 0.4732154244,
				"y": 0.0683442473,
				"z": -0.6672704641,
				"element": "O" 
			},
			{
				"x": 1.544997341,
				"y": -0.836062328,
				"z": -0.7077335775,
				"element": "C" 
			},
			{
				"x": 2.7045419765,
				"y": -0.1013354778,
				"z": -1.0300999243,
				"element": "O" 
			},
			{
				"x": 3.8140222275,
				"y": -0.9130209118,
				"z": -1.3825909483,
				"element": "C" 
			},
			{
				"x": 1.6857398813,
				"y": -1.5147249251,
				"z": 0.5491255142,
				"element": "N" 
			},
			{
				"x": 0.6484712449,
				"y": -2.509912936,
				"z": 0.7911069494,
				"element": "C" 
			},
			{
				"x": 1.8855237909,
				"y": -0.6204495135,
				"z": 1.6897545394,
				"element": "C" 
			},
			{
				"x": -0.0109975579,
				"y": -0.0656354778,
				"z": -2.6947873913,
				"element": "H" 
			},
			{
				"x": 0.9909987629,
				"y": 1.3398778676,
				"z": -2.2411640249,
				"element": "H" 
			},
			{
				"x": -0.7301779665,
				"y": 1.2747924734,
				"z": -1.7639819511,
				"element": "H" 
			},
			{
				"x": 1.3637789592,
				"y": -1.6004417069,
				"z": -1.4901504529,
				"element": "H" 
			},
			{
				"x": 4.6359841501,
				"y": -0.2356562582,
				"z": -1.6242821273,
				"element": "H" 
			},
			{
				"x": 3.5934361964,
				"y": -1.5331287712,
				"z": -2.265345788,
				"element": "H" 
			},
			{
				"x": 4.1087911682,
				"y": -1.5726688018,
				"z": -0.5585643588,
				"element": "H" 
			},
			{
				"x": 0.9263253582,
				"y": -3.1180306669,
				"z": 1.6583555899,
				"element": "H" 
			},
			{
				"x": -0.3430301378,
				"y": -2.0679330835,
				"z": 0.9824825967,
				"element": "H" 
			},
			{
				"x": 0.5647553128,
				"y": -3.177155256,
				"z": -0.0733564246,
				"element": "H" 
			},
			{
				"x": 2.6355400409,
				"y": 0.1280398537,
				"z": 1.428927085,
				"element": "H" 
			},
			{
				"x": 2.2530024092,
				"y": -1.2040173523,
				"z": 2.5405112484,
				"element": "H" 
			},
			{
				"x": 0.9645590373,
				"y": -0.100023384,
				"z": 1.9942777984,
				"element": "H" 
			}
		],
		 "valence_orbital": [ 
			{
				"type": "occ",
				"energy": -0.32419,
				"method": "rhf"
			},
			{
				"type": "occ",
				"energy": -0.31847,
				"method": "rhf"
			},
			{
				"type": "occ",
				"energy": -0.2689,
				"method": "rhf"
			},
			{
				"type": "occ",
				"energy": -0.26109,
				"method": "rhf"
			},
			{
				"type": "occ",
				"energy": -0.21888,
				"method": "rhf"
			},
			{
				"type": "unocc",
				"energy": 0.09011,
				"method": "rhf"
			},
			{
				"type": "unocc",
				"energy": 0.11629,
				"method": "rhf"
			},
			{
				"type": "unocc",
				"energy": 0.12473,
				"method": "rhf"
			},
			{
				"type": "unocc",
				"energy": 0.13874,
				"method": "rhf"
			},
			{
				"type": "unocc",
				"energy": 0.145,
				"method": "rhf"
			}
		],
		"cosmo_sigma_profile": { 
			"-0.025": 0.0,
			"-0.024": 0.0,
			"-0.023": 0.0,
			"-0.022": 0.0,
			"-0.021": 0.0,
			"-0.02": 0.0,
			"-0.019": 0.0,
			"-0.018": 0.0,
			"-0.017": 0.0,
			"-0.016": 0.0,
			"-0.015": 0.0,
			"-0.014": 0.0,
			"-0.013": 0.0,
			"-0.012": 0.0,
			"-0.011": 0.0,
			"-0.01": 0.0,
			"-0.009": 0.0,
			"-0.008": 0.0,
			"-0.007": 0.0,
			"-0.006": 0.273609358914,
			"-0.005": 7.73607786878,
			"-0.004": 20.5853204114,
			"-0.003": 22.6515795297,
			"-0.002": 29.6813954248,
			"-0.001": 23.359060053,
			"0.0": 20.7596695129,
			"0.001": 8.31315990366,
			"0.002": 7.57907061729,
			"0.003": 5.55296318952,
			"0.004": 3.8271673812,
			"0.005": 3.95569661135,
			"0.006": 5.21529991785,
			"0.007": 4.2102849554,
			"0.008": 3.71365609007,
			"0.009": 3.58387829456,
			"0.01": 3.48571117581,
			"0.011": 2.60332487256,
			"0.012": 1.12075239689,
			"0.013": 0.162811732357,
			"0.014": 0.0,
			"0.015": 0.0,
			"0.016": 0.0,
			"0.017": 0.0,
			"0.018": 0.0,
			"0.019": 0.0,
			"0.02": 0.0,
			"0.021": 0.0,
			"0.022": 0.0,
			"0.023": 0.0,
			"0.024": 0.0,
			"0.025": 0.0
		}
	}
}
