{
	 "smiles": "NC(CS(=O)(=O)CC1=CC=C(F)C=C1)=NO", 
	 "Tm": 457.15, 
	 "num_atms": 27, 
	 "gaussian": { 
		 "optdone": 1, 
		 "sigma_profile": "yes", 
		 "theory": "DFT", 
		 "functional": "B3LYP", 
		 "basiset": "6-31G**", 
		 "properties": { 
			 "R2extent": 5408.0701, 
			 "electric_dipole_moment_norm": 3.25095300643, 
			 "electric_quadrupole_moment_norm": 9.85320864592, 
			 "total_energy": -1182.67901775, 
			 "HOMO_LUMO_gap": 0.20534, 
			 "cosmo_polarized_energy": -17.93, 
			 "cosmo_cavitation_energy": 32.64, 
			 "cosmo_dispersion_energy": -23.42, 
			 "cosmo_repulsion_energy": 1.77, 
			 "cosmo_total_nonelectrostatic_energy": 10.99, 
			 "SMD_solvation_energy": 5.27 
		},
		"coords": [
			{
				"x": -0.4304047733,
				"y": -1.645644105,
				"z": 2.7097096458,
				"element": "N" 
			},
			{
				"x": -0.4414974364,
				"y": -1.0107498626,
				"z": 1.4952390628,
				"element": "C" 
			},
			{
				"x": -0.0356784735,
				"y": 0.4332406512,
				"z": 1.4519110294,
				"element": "C" 
			},
			{
				"x": 1.7482750146,
				"y": 0.7007948582,
				"z": 1.779027845,
				"element": "S" 
			},
			{
				"x": 1.9879704246,
				"y": 2.1507269224,
				"z": 1.7775947109,
				"element": "O" 
			},
			{
				"x": 2.1054686871,
				"y": -0.1095450846,
				"z": 2.9642341975,
				"element": "O" 
			},
			{
				"x": 2.5983942578,
				"y": -0.0588362521,
				"z": 0.3348526049,
				"element": "C" 
			},
			{
				"x": 2.3894294268,
				"y": 0.6689166901,
				"z": -0.9617779182,
				"element": "C" 
			},
			{
				"x": 1.3948952302,
				"y": 0.2535194695,
				"z": -1.8602203357,
				"element": "C" 
			},
			{
				"x": 1.1984618189,
				"y": 0.9250401636,
				"z": -3.0665295005,
				"element": "C" 
			},
			{
				"x": 2.005636382,
				"y": 2.0177651981,
				"z": -3.3614421265,
				"element": "C" 
			},
			{
				"x": 1.8245522605,
				"y": 2.6683854519,
				"z": -4.5276982326,
				"element": "F" 
			},
			{
				"x": 2.9944099735,
				"y": 2.4611911695,
				"z": -2.4890595729,
				"element": "C" 
			},
			{
				"x": 3.179210526,
				"y": 1.7816406926,
				"z": -1.2875182682,
				"element": "C" 
			},
			{
				"x": -0.8257647064,
				"y": -1.5271254757,
				"z": 0.3719616633,
				"element": "N" 
			},
			{
				"x": -1.1692045846,
				"y": -2.8909093865,
				"z": 0.5782046288,
				"element": "O" 
			},
			{
				"x": -0.5463144423,
				"y": -2.6484431368,
				"z": 2.6535519567,
				"element": "H" 
			},
			{
				"x": 0.2847293989,
				"y": -1.3250208011,
				"z": 3.352767522,
				"element": "H" 
			},
			{
				"x": -0.5246260455,
				"y": 1.0158902395,
				"z": 2.2389417629,
				"element": "H" 
			},
			{
				"x": -0.2584570139,
				"y": 0.8716748501,
				"z": 0.4789640109,
				"element": "H" 
			},
			{
				"x": 2.2465126139,
				"y": -1.0926065339,
				"z": 0.3036604242,
				"element": "H" 
			},
			{
				"x": 3.6432881274,
				"y": -0.0578999483,
				"z": 0.6590711099,
				"element": "H" 
			},
			{
				"x": 0.7590293084,
				"y": -0.590164117,
				"z": -1.6055274085,
				"element": "H" 
			},
			{
				"x": 0.4360849139,
				"y": 0.6147417757,
				"z": -3.7726692669,
				"element": "H" 
			},
			{
				"x": 3.5990316076,
				"y": 3.3209826863,
				"z": -2.7557190352,
				"element": "H" 
			},
			{
				"x": 3.9400030922,
				"y": 2.1227191297,
				"z": -0.5923008676,
				"element": "H" 
			},
			{
				"x": -1.4887355885,
				"y": -3.1558852446,
				"z": -0.2927296421,
				"element": "H" 
			}
		],
		 "valence_orbital": [ 
			{
				"type": "occ",
				"energy": -0.29848,
				"method": "rhf"
			},
			{
				"type": "occ",
				"energy": -0.29212,
				"method": "rhf"
			},
			{
				"type": "occ",
				"energy": -0.26983,
				"method": "rhf"
			},
			{
				"type": "occ",
				"energy": -0.24958,
				"method": "rhf"
			},
			{
				"type": "occ",
				"energy": -0.22883,
				"method": "rhf"
			},
			{
				"type": "unocc",
				"energy": -0.02349,
				"method": "rhf"
			},
			{
				"type": "unocc",
				"energy": -0.02202,
				"method": "rhf"
			},
			{
				"type": "unocc",
				"energy": 0.00067,
				"method": "rhf"
			},
			{
				"type": "unocc",
				"energy": 0.05446,
				"method": "rhf"
			},
			{
				"type": "unocc",
				"energy": 0.06402,
				"method": "rhf"
			}
		],
		"cosmo_sigma_profile": { 
			"-0.025": 0.0,
			"-0.024": 0.0,
			"-0.023": 0.0,
			"-0.022": 0.0,
			"-0.021": 0.0,
			"-0.02": 0.0,
			"-0.019": 0.0,
			"-0.018": 0.000729529267478,
			"-0.017": 0.733842931344,
			"-0.016": 1.02552762879,
			"-0.015": 0.791170167062,
			"-0.014": 1.04341585469,
			"-0.013": 0.702544684148,
			"-0.012": 0.677622392424,
			"-0.011": 1.89081814983,
			"-0.01": 4.16143495371,
			"-0.009": 7.57410545651,
			"-0.008": 9.53696618575,
			"-0.007": 14.4103335382,
			"-0.006": 13.4628923704,
			"-0.005": 14.9617959915,
			"-0.004": 11.5597783394,
			"-0.003": 13.2232270512,
			"-0.002": 11.0879027954,
			"-0.001": 12.328027681,
			"0.0": 14.7152432177,
			"0.001": 16.8756410215,
			"0.002": 15.5356127131,
			"0.003": 17.8589945363,
			"0.004": 17.1399636508,
			"0.005": 9.53889029708,
			"0.006": 6.14135225401,
			"0.007": 6.72117094427,
			"0.008": 7.0750383401,
			"0.009": 6.96060591487,
			"0.01": 7.2008794105,
			"0.011": 9.142786302,
			"0.012": 5.17149610428,
			"0.013": 0.153210494831,
			"0.014": 0.0,
			"0.015": 0.0,
			"0.016": 0.0,
			"0.017": 0.0,
			"0.018": 0.0,
			"0.019": 0.0,
			"0.02": 0.0,
			"0.021": 0.0,
			"0.022": 0.0,
			"0.023": 0.0,
			"0.024": 0.0,
			"0.025": 0.0
		}
	}
}
