{
	 "smiles": "CN(C)C1=NC=C(C=C1)C#N", 
	 "Tm": 338.15, 
	 "num_atms": 20, 
	 "gaussian": { 
		 "optdone": 1, 
		 "sigma_profile": "yes", 
		 "theory": "DFT", 
		 "functional": "B3LYP", 
		 "basiset": "6-31G**", 
		 "properties": { 
			 "R2extent": 2195.1634, 
			 "electric_dipole_moment_norm": 6.87102925478, 
			 "electric_quadrupole_moment_norm": 13.8256899774, 
			 "total_energy": -474.512096155, 
			 "HOMO_LUMO_gap": 0.1798, 
			 "cosmo_polarized_energy": -11.67, 
			 "cosmo_cavitation_energy": 24.58, 
			 "cosmo_dispersion_energy": -17.67, 
			 "cosmo_repulsion_energy": 1.41, 
			 "cosmo_total_nonelectrostatic_energy": 8.33, 
			 "SMD_solvation_energy": 4.81 
		},
		"coords": [
			{
				"x": 2.6718662917,
				"y": 0.2203106106,
				"z": -1.14553069,
				"element": "C" 
			},
			{
				"x": 1.2779971541,
				"y": -0.111417977,
				"z": -1.3890015786,
				"element": "N" 
			},
			{
				"x": 0.9330696648,
				"y": -0.6310169801,
				"z": -2.7069937355,
				"element": "C" 
			},
			{
				"x": 0.3159881081,
				"y": 0.2011642976,
				"z": -0.4666995113,
				"element": "C" 
			},
			{
				"x": -0.9648745216,
				"y": -0.0994622282,
				"z": -0.7793963698,
				"element": "N" 
			},
			{
				"x": -1.9218496858,
				"y": 0.1704506557,
				"z": 0.0980664667,
				"element": "C" 
			},
			{
				"x": -1.695959107,
				"y": 0.7618262236,
				"z": 1.3520499432,
				"element": "C" 
			},
			{
				"x": -0.3628611683,
				"y": 1.0846712575,
				"z": 1.6748309751,
				"element": "C" 
			},
			{
				"x": 0.6470737479,
				"y": 0.8119815642,
				"z": 0.7749614481,
				"element": "C" 
			},
			{
				"x": -2.7748596746,
				"y": 1.0252202644,
				"z": 2.2470024946,
				"element": "C" 
			},
			{
				"x": -3.6577341707,
				"y": 1.2387191103,
				"z": 2.9760420275,
				"element": "N" 
			},
			{
				"x": 3.0332044145,
				"y": -0.2232913177,
				"z": -0.210499174,
				"element": "H" 
			},
			{
				"x": 2.8422683605,
				"y": 1.3052338272,
				"z": -1.1023456519,
				"element": "H" 
			},
			{
				"x": 3.2744811682,
				"y": -0.1839436422,
				"z": -1.9601622423,
				"element": "H" 
			},
			{
				"x": 1.5285481308,
				"y": -1.5246097708,
				"z": -2.9254939796,
				"element": "H" 
			},
			{
				"x": 1.1270184948,
				"y": 0.11547292,
				"z": -3.4889729097,
				"element": "H" 
			},
			{
				"x": -0.1232404505,
				"y": -0.8888103937,
				"z": -2.7189322119,
				"element": "H" 
			},
			{
				"x": -2.9357976324,
				"y": -0.091290549,
				"z": -0.1986215821,
				"element": "H" 
			},
			{
				"x": -0.1349866295,
				"y": 1.5504031787,
				"z": 2.6283184737,
				"element": "H" 
			},
			{
				"x": 1.6689475048,
				"y": 1.0691889488,
				"z": 1.0205778077,
				"element": "H" 
			}
		],
		 "valence_orbital": [ 
			{
				"type": "occ",
				"energy": -0.32494,
				"method": "rhf"
			},
			{
				"type": "occ",
				"energy": -0.29654,
				"method": "rhf"
			},
			{
				"type": "occ",
				"energy": -0.29606,
				"method": "rhf"
			},
			{
				"type": "occ",
				"energy": -0.26887,
				"method": "rhf"
			},
			{
				"type": "occ",
				"energy": -0.21562,
				"method": "rhf"
			},
			{
				"type": "unocc",
				"energy": -0.03582,
				"method": "rhf"
			},
			{
				"type": "unocc",
				"energy": -0.02892,
				"method": "rhf"
			},
			{
				"type": "unocc",
				"energy": 0.04304,
				"method": "rhf"
			},
			{
				"type": "unocc",
				"energy": 0.07685,
				"method": "rhf"
			},
			{
				"type": "unocc",
				"energy": 0.08454,
				"method": "rhf"
			}
		],
		"cosmo_sigma_profile": { 
			"-0.025": 0.0,
			"-0.024": 0.0,
			"-0.023": 0.0,
			"-0.022": 0.0,
			"-0.021": 0.0,
			"-0.02": 0.0,
			"-0.019": 0.0,
			"-0.018": 0.0,
			"-0.017": 0.0,
			"-0.016": 0.0,
			"-0.015": 0.0,
			"-0.014": 0.0,
			"-0.013": 0.0,
			"-0.012": 0.0,
			"-0.011": 0.0,
			"-0.01": 0.0,
			"-0.009": 0.092333526705,
			"-0.008": 2.68230343855,
			"-0.007": 6.84013351314,
			"-0.006": 10.9729620921,
			"-0.005": 16.7723923151,
			"-0.004": 17.4706114256,
			"-0.003": 18.5366063861,
			"-0.002": 19.9555757188,
			"-0.001": 14.131644238,
			"0.0": 13.9049318657,
			"0.001": 17.0774621782,
			"0.002": 9.90635541149,
			"0.003": 7.69365303637,
			"0.004": 5.47437965112,
			"0.005": 3.67426022321,
			"0.006": 3.72339289573,
			"0.007": 4.44974208812,
			"0.008": 4.21701492223,
			"0.009": 4.86443319326,
			"0.01": 5.09046331058,
			"0.011": 3.51494842683,
			"0.012": 2.77365891531,
			"0.013": 2.41464203709,
			"0.014": 0.839973637646,
			"0.015": 0.0,
			"0.016": 0.0,
			"0.017": 0.0,
			"0.018": 0.0,
			"0.019": 0.0,
			"0.02": 0.0,
			"0.021": 0.0,
			"0.022": 0.0,
			"0.023": 0.0,
			"0.024": 0.0,
			"0.025": 0.0
		}
	}
}
