{
	 "smiles": "OC(=O)C1=CC(=C(Cl)C(=C1)[N+]([O-])=O)[N+]([O-])=O", 
	 "Tm": 434.15, 
	 "num_atms": 19, 
	 "gaussian": { 
		 "optdone": 1, 
		 "sigma_profile": "yes", 
		 "theory": "DFT", 
		 "functional": "B3LYP", 
		 "basiset": "6-31G**", 
		 "properties": { 
			 "R2extent": 4932.8201, 
			 "electric_dipole_moment_norm": 3.69102438491, 
			 "electric_quadrupole_moment_norm": 19.4748964156, 
			 "total_energy": -1289.37217716, 
			 "HOMO_LUMO_gap": 0.18483, 
			 "cosmo_polarized_energy": -16.04, 
			 "cosmo_cavitation_energy": 28.42, 
			 "cosmo_dispersion_energy": -20.46, 
			 "cosmo_repulsion_energy": 1.59, 
			 "cosmo_total_nonelectrostatic_energy": 9.55, 
			 "SMD_solvation_energy": 10.61 
		},
		"coords": [
			{
				"x": 2.1627932973,
				"y": 0.8436804504,
				"z": 2.6459563788,
				"element": "O" 
			},
			{
				"x": 1.050750886,
				"y": 1.3123713992,
				"z": 2.0413823284,
				"element": "C" 
			},
			{
				"x": 0.7609278951,
				"y": 2.4879579996,
				"z": 1.9896009752,
				"element": "O" 
			},
			{
				"x": 0.2221174853,
				"y": 0.2222643972,
				"z": 1.4477241969,
				"element": "C" 
			},
			{
				"x": 0.5875702996,
				"y": -1.1217707926,
				"z": 1.5186658435,
				"element": "C" 
			},
			{
				"x": -0.2325521529,
				"y": -2.0948059889,
				"z": 0.9563841091,
				"element": "C" 
			},
			{
				"x": -1.4282360544,
				"y": -1.7698344243,
				"z": 0.2907455766,
				"element": "C" 
			},
			{
				"x": -2.3648041397,
				"y": -2.9657967752,
				"z": -0.5276675758,
				"element": "Cl" 
			},
			{
				"x": -1.7624632724,
				"y": -0.4041647461,
				"z": 0.2287045278,
				"element": "C" 
			},
			{
				"x": -0.9529459067,
				"y": 0.5776064636,
				"z": 0.785186695,
				"element": "C" 
			},
			{
				"x": -2.9980351144,
				"y": 0.0746739831,
				"z": -0.4299094954,
				"element": "N" 
			},
			{
				"x": -4.0261029843,
				"y": -0.5642210835,
				"z": -0.2462874629,
				"element": "O" 
			},
			{
				"x": -2.8976334575,
				"y": 1.1111011507,
				"z": -1.0812189418,
				"element": "O" 
			},
			{
				"x": 0.2324608201,
				"y": -3.491342696,
				"z": 1.107978851,
				"element": "N" 
			},
			{
				"x": -0.6046714415,
				"y": -4.3492680141,
				"z": 1.3560574409,
				"element": "O" 
			},
			{
				"x": 1.4443050031,
				"y": -3.672131633,
				"z": 1.0132958944,
				"element": "O" 
			},
			{
				"x": 2.6369355029,
				"y": 1.6161762435,
				"z": 2.9963337929,
				"element": "H" 
			},
			{
				"x": 1.5075949132,
				"y": -1.4265695092,
				"z": 2.0006616023,
				"element": "H" 
			},
			{
				"x": -1.2328115788,
				"y": 1.6208735755,
				"z": 0.6997052629,
				"element": "H" 
			}
		],
		 "valence_orbital": [ 
			{
				"type": "occ",
				"energy": -0.3218,
				"method": "rhf"
			},
			{
				"type": "occ",
				"energy": -0.31919,
				"method": "rhf"
			},
			{
				"type": "occ",
				"energy": -0.3131,
				"method": "rhf"
			},
			{
				"type": "occ",
				"energy": -0.3013,
				"method": "rhf"
			},
			{
				"type": "occ",
				"energy": -0.30116,
				"method": "rhf"
			},
			{
				"type": "unocc",
				"energy": -0.11633,
				"method": "rhf"
			},
			{
				"type": "unocc",
				"energy": -0.1137,
				"method": "rhf"
			},
			{
				"type": "unocc",
				"energy": -0.08366,
				"method": "rhf"
			},
			{
				"type": "unocc",
				"energy": -0.04237,
				"method": "rhf"
			},
			{
				"type": "unocc",
				"energy": -0.01633,
				"method": "rhf"
			}
		],
		"cosmo_sigma_profile": { 
			"-0.025": 0.0,
			"-0.024": 0.0,
			"-0.023": 0.0,
			"-0.022": 0.0,
			"-0.021": 0.0,
			"-0.02": 0.144222912166,
			"-0.019": 0.803316277393,
			"-0.018": 1.01033037494,
			"-0.017": 1.13488027822,
			"-0.016": 0.730685128296,
			"-0.015": 0.579980819492,
			"-0.014": 0.705355322289,
			"-0.013": 0.600672675917,
			"-0.012": 1.2419127863,
			"-0.011": 0.72410979528,
			"-0.01": 2.65498299857,
			"-0.009": 5.07259868982,
			"-0.008": 5.64410460817,
			"-0.007": 5.3362190531,
			"-0.006": 10.1854274904,
			"-0.005": 17.1662543147,
			"-0.004": 20.6422185963,
			"-0.003": 15.1959140789,
			"-0.002": 10.887868672,
			"-0.001": 10.0041117399,
			"0.0": 11.1365824206,
			"0.001": 11.6919832718,
			"0.002": 9.7790911211,
			"0.003": 9.7612005572,
			"0.004": 9.39378266741,
			"0.005": 11.2594338168,
			"0.006": 22.0147198197,
			"0.007": 16.4899381159,
			"0.008": 8.66959098132,
			"0.009": 4.13413836705,
			"0.01": 3.83525945259,
			"0.011": 2.68655871487,
			"0.012": 0.0618458033917,
			"0.013": 0.0,
			"0.014": 0.0,
			"0.015": 0.0,
			"0.016": 0.0,
			"0.017": 0.0,
			"0.018": 0.0,
			"0.019": 0.0,
			"0.02": 0.0,
			"0.021": 0.0,
			"0.022": 0.0,
			"0.023": 0.0,
			"0.024": 0.0,
			"0.025": 0.0
		}
	}
}
