{
	 "smiles": "COC1=CC=C(C=C1OC)C(=O)C1=CC=CC(C)=C1", 
	 "Tm": 366.15, 
	 "num_atms": 35, 
	 "gaussian": { 
		 "optdone": 1, 
		 "sigma_profile": "yes", 
		 "theory": "DFT", 
		 "functional": "B3LYP", 
		 "basiset": "6-31G**", 
		 "properties": { 
			 "R2extent": 7690.3507, 
			 "electric_dipole_moment_norm": 3.26566555085, 
			 "electric_quadrupole_moment_norm": 18.2971343784, 
			 "total_energy": -844.994245109, 
			 "HOMO_LUMO_gap": 0.17351, 
			 "cosmo_polarized_energy": -10.94, 
			 "cosmo_cavitation_energy": 38.76, 
			 "cosmo_dispersion_energy": -27.36, 
			 "cosmo_repulsion_energy": 2.12, 
			 "cosmo_total_nonelectrostatic_energy": 13.53, 
			 "SMD_solvation_energy": 8.49 
		},
		"coords": [
			{
				"x": 1.2478463913,
				"y": 1.1232939708,
				"z": 3.6575073859,
				"element": "C" 
			},
			{
				"x": -0.1754144008,
				"y": 0.9720280457,
				"z": 3.5612411233,
				"element": "O" 
			},
			{
				"x": -0.6783514903,
				"y": 0.9067383516,
				"z": 2.2857593991,
				"element": "C" 
			},
			{
				"x": -1.5543913527,
				"y": 1.9103877222,
				"z": 1.8591478822,
				"element": "C" 
			},
			{
				"x": -2.1120278397,
				"y": 1.8676210008,
				"z": 0.5868847835,
				"element": "C" 
			},
			{
				"x": -1.7779098265,
				"y": 0.8341569998,
				"z": -0.3026911652,
				"element": "C" 
			},
			{
				"x": -0.9197347518,
				"y": -0.1862057735,
				"z": 0.1356169556,
				"element": "C" 
			},
			{
				"x": -0.3825248475,
				"y": -0.1661353912,
				"z": 1.4215756816,
				"element": "C" 
			},
			{
				"x": 0.4564470694,
				"y": -1.1896787934,
				"z": 1.8059766252,
				"element": "O" 
			},
			{
				"x": -0.0852455585,
				"y": -2.0622231683,
				"z": 2.8061921855,
				"element": "C" 
			},
			{
				"x": -2.4406700137,
				"y": 0.8266877567,
				"z": -1.6471081053,
				"element": "C" 
			},
			{
				"x": -3.519628249,
				"y": 1.3927504287,
				"z": -1.7947821186,
				"element": "O" 
			},
			{
				"x": -1.7988249986,
				"y": 0.1344387129,
				"z": -2.8142663435,
				"element": "C" 
			},
			{
				"x": -0.4101230218,
				"y": 0.0135856784,
				"z": -2.9652300922,
				"element": "C" 
			},
			{
				"x": 0.1127278492,
				"y": -0.5783804642,
				"z": -4.1160258572,
				"element": "C" 
			},
			{
				"x": -0.7395636808,
				"y": -1.0602271187,
				"z": -5.1077238549,
				"element": "C" 
			},
			{
				"x": -2.1335813943,
				"y": -0.945430656,
				"z": -4.9807835227,
				"element": "C" 
			},
			{
				"x": -3.0527465766,
				"y": -1.4810059243,
				"z": -6.0537889043,
				"element": "C" 
			},
			{
				"x": -2.6424586648,
				"y": -0.3326681319,
				"z": -3.8350046817,
				"element": "C" 
			},
			{
				"x": 1.5655066741,
				"y": 2.066938957,
				"z": 3.1972197144,
				"element": "H" 
			},
			{
				"x": 1.4777490181,
				"y": 1.1477202776,
				"z": 4.7243135965,
				"element": "H" 
			},
			{
				"x": 1.772436539,
				"y": 0.290052241,
				"z": 3.1816951893,
				"element": "H" 
			},
			{
				"x": -1.7812415599,
				"y": 2.7167296855,
				"z": 2.5494445144,
				"element": "H" 
			},
			{
				"x": -2.8039054547,
				"y": 2.6336083783,
				"z": 0.2543782056,
				"element": "H" 
			},
			{
				"x": -0.6756757142,
				"y": -1.0297246189,
				"z": -0.5002997288,
				"element": "H" 
			},
			{
				"x": -0.3203999179,
				"y": -1.5177261407,
				"z": 3.726166801,
				"element": "H" 
			},
			{
				"x": -0.989830159,
				"y": -2.5605079567,
				"z": 2.4362912758,
				"element": "H" 
			},
			{
				"x": 0.6831645909,
				"y": -2.8115111084,
				"z": 3.0066347041,
				"element": "H" 
			},
			{
				"x": 0.2585293261,
				"y": 0.4048222662,
				"z": -2.2063149921,
				"element": "H" 
			},
			{
				"x": 1.1888184366,
				"y": -0.6582139575,
				"z": -4.2410524054,
				"element": "H" 
			},
			{
				"x": -0.3209521788,
				"y": -1.524614689,
				"z": -5.9976538791,
				"element": "H" 
			},
			{
				"x": -2.6906097969,
				"y": -1.2247137153,
				"z": -7.0549075466,
				"element": "H" 
			},
			{
				"x": -4.0646585076,
				"y": -1.081232043,
				"z": -5.9469359868,
				"element": "H" 
			},
			{
				"x": -3.122963099,
				"y": -2.5747300763,
				"z": -6.0061281038,
				"element": "H" 
			},
			{
				"x": -3.712892839,
				"y": -0.198730746,
				"z": -3.711748735,
				"element": "H" 
			}
		],
		 "valence_orbital": [ 
			{
				"type": "occ",
				"energy": -0.25624,
				"method": "rhf"
			},
			{
				"type": "occ",
				"energy": -0.2508,
				"method": "rhf"
			},
			{
				"type": "occ",
				"energy": -0.24584,
				"method": "rhf"
			},
			{
				"type": "occ",
				"energy": -0.24205,
				"method": "rhf"
			},
			{
				"type": "occ",
				"energy": -0.23228,
				"method": "rhf"
			},
			{
				"type": "unocc",
				"energy": -0.05877,
				"method": "rhf"
			},
			{
				"type": "unocc",
				"energy": -0.01162,
				"method": "rhf"
			},
			{
				"type": "unocc",
				"energy": -0.00457,
				"method": "rhf"
			},
			{
				"type": "unocc",
				"energy": 0.00021,
				"method": "rhf"
			},
			{
				"type": "unocc",
				"energy": 0.05855,
				"method": "rhf"
			}
		],
		"cosmo_sigma_profile": { 
			"-0.025": 0.0,
			"-0.024": 0.0,
			"-0.023": 0.0,
			"-0.022": 0.0,
			"-0.021": 0.0,
			"-0.02": 0.0,
			"-0.019": 0.0,
			"-0.018": 0.0,
			"-0.017": 0.0,
			"-0.016": 0.0,
			"-0.015": 0.0,
			"-0.014": 0.0,
			"-0.013": 0.0,
			"-0.012": 0.0,
			"-0.011": 0.0,
			"-0.01": 0.0,
			"-0.009": 0.0,
			"-0.008": 0.0,
			"-0.007": 0.86503652835,
			"-0.006": 10.0186626704,
			"-0.005": 20.6277192202,
			"-0.004": 32.7406180217,
			"-0.003": 38.5168117096,
			"-0.002": 33.0742455868,
			"-0.001": 29.3245624575,
			"0.0": 27.0466708381,
			"0.001": 19.0468658536,
			"0.002": 20.3417308381,
			"0.003": 19.9790987242,
			"0.004": 18.2794942242,
			"0.005": 9.09067987255,
			"0.006": 4.00170390417,
			"0.007": 3.92753774928,
			"0.008": 3.14026645562,
			"0.009": 3.791806877,
			"0.01": 4.12570698173,
			"0.011": 4.68009674131,
			"0.012": 4.56092845948,
			"0.013": 1.36467865328,
			"0.014": 0.0,
			"0.015": 0.0,
			"0.016": 0.0,
			"0.017": 0.0,
			"0.018": 0.0,
			"0.019": 0.0,
			"0.02": 0.0,
			"0.021": 0.0,
			"0.022": 0.0,
			"0.023": 0.0,
			"0.024": 0.0,
			"0.025": 0.0
		}
	}
}
