{
	 "smiles": "CCOC(C)(C)C", 
	 "Tm": 179.15, 
	 "num_atms": 21, 
	 "gaussian": { 
		 "optdone": 1, 
		 "sigma_profile": "yes", 
		 "theory": "DFT", 
		 "functional": "B3LYP", 
		 "basiset": "6-31G**", 
		 "properties": { 
			 "R2extent": 1193.2071, 
			 "electric_dipole_moment_norm": 1.06813802479, 
			 "electric_quadrupole_moment_norm": 2.01631323211, 
			 "total_energy": -312.307585746, 
			 "HOMO_LUMO_gap": 0.32535, 
			 "cosmo_polarized_energy": -3.54, 
			 "cosmo_cavitation_energy": 22.1, 
			 "cosmo_dispersion_energy": -15.9, 
			 "cosmo_repulsion_energy": 1.36, 
			 "cosmo_total_nonelectrostatic_energy": 7.56, 
			 "SMD_solvation_energy": 4.22 
		},
		"coords": [
			{
				"x": -1.1185077316,
				"y": 2.9771368488,
				"z": -1.431234045,
				"element": "C" 
			},
			{
				"x": -1.4516669842,
				"y": 1.7751674586,
				"z": -0.5590521153,
				"element": "C" 
			},
			{
				"x": -0.2317110983,
				"y": 1.2938654608,
				"z": -0.0177798742,
				"element": "O" 
			},
			{
				"x": -0.2678051844,
				"y": 0.148512968,
				"z": 0.8549178508,
				"element": "C" 
			},
			{
				"x": -1.0924859291,
				"y": 0.4417635451,
				"z": 2.1199393553,
				"element": "C" 
			},
			{
				"x": 1.2058295289,
				"y": -0.0603041516,
				"z": 1.2236284964,
				"element": "C" 
			},
			{
				"x": -0.8096090619,
				"y": -1.0901823826,
				"z": 0.1212621289,
				"element": "C" 
			},
			{
				"x": -0.4354569765,
				"y": 2.688254495,
				"z": -2.235361496,
				"element": "H" 
			},
			{
				"x": -0.6342995527,
				"y": 3.7578452418,
				"z": -0.8373756629,
				"element": "H" 
			},
			{
				"x": -2.0279587324,
				"y": 3.3919315049,
				"z": -1.8779597429,
				"element": "H" 
			},
			{
				"x": -2.1520161609,
				"y": 2.072439301,
				"z": 0.2363533727,
				"element": "H" 
			},
			{
				"x": -1.9536175222,
				"y": 1.0029966819,
				"z": -1.1618233922,
				"element": "H" 
			},
			{
				"x": -2.1579603732,
				"y": 0.5566292534,
				"z": 1.8984807768,
				"element": "H" 
			},
			{
				"x": -0.9946017434,
				"y": -0.3789530244,
				"z": 2.8378951194,
				"element": "H" 
			},
			{
				"x": -0.7385286842,
				"y": 1.3604731558,
				"z": 2.597959326,
				"element": "H" 
			},
			{
				"x": 1.6005884661,
				"y": 0.8317168421,
				"z": 1.7186697745,
				"element": "H" 
			},
			{
				"x": 1.7984906338,
				"y": -0.2384675084,
				"z": 0.321627421,
				"element": "H" 
			},
			{
				"x": 1.324528124,
				"y": -0.9157287993,
				"z": 1.8957398526,
				"element": "H" 
			},
			{
				"x": -1.8718116587,
				"y": -0.991486689,
				"z": -0.1225950929,
				"element": "H" 
			},
			{
				"x": -0.6993548045,
				"y": -1.9822561658,
				"z": 0.7462889499,
				"element": "H" 
			},
			{
				"x": -0.2557445544,
				"y": -1.251654036,
				"z": -0.808781003,
				"element": "H" 
			}
		],
		 "valence_orbital": [ 
			{
				"type": "occ",
				"energy": -0.35234,
				"method": "rhf"
			},
			{
				"type": "occ",
				"energy": -0.33358,
				"method": "rhf"
			},
			{
				"type": "occ",
				"energy": -0.33287,
				"method": "rhf"
			},
			{
				"type": "occ",
				"energy": -0.29005,
				"method": "rhf"
			},
			{
				"type": "occ",
				"energy": -0.24318,
				"method": "rhf"
			},
			{
				"type": "unocc",
				"energy": 0.08217,
				"method": "rhf"
			},
			{
				"type": "unocc",
				"energy": 0.11408,
				"method": "rhf"
			},
			{
				"type": "unocc",
				"energy": 0.1186,
				"method": "rhf"
			},
			{
				"type": "unocc",
				"energy": 0.13459,
				"method": "rhf"
			},
			{
				"type": "unocc",
				"energy": 0.13893,
				"method": "rhf"
			}
		],
		"cosmo_sigma_profile": { 
			"-0.025": 0.0,
			"-0.024": 0.0,
			"-0.023": 0.0,
			"-0.022": 0.0,
			"-0.021": 0.0,
			"-0.02": 0.0,
			"-0.019": 0.0,
			"-0.018": 0.0,
			"-0.017": 0.0,
			"-0.016": 0.0,
			"-0.015": 0.0,
			"-0.014": 0.0,
			"-0.013": 0.0,
			"-0.012": 0.0,
			"-0.011": 0.0,
			"-0.01": 0.0,
			"-0.009": 0.0,
			"-0.008": 0.0,
			"-0.007": 0.0,
			"-0.006": 0.0,
			"-0.005": 0.0,
			"-0.004": 2.82138078875,
			"-0.003": 27.207886948,
			"-0.002": 29.530196159,
			"-0.001": 28.3836744824,
			"0.0": 25.6196189722,
			"0.001": 28.736046935,
			"0.002": 10.1359389065,
			"0.003": 2.59403528021,
			"0.004": 1.69683889137,
			"0.005": 1.75279554175,
			"0.006": 1.39240694459,
			"0.007": 1.77453570789,
			"0.008": 1.32921138895,
			"0.009": 1.11630672602,
			"0.01": 1.45976775322,
			"0.011": 1.84743711228,
			"0.012": 0.940847337157,
			"0.013": 1.16280507371,
			"0.014": 0.43545379614,
			"0.015": 0.0,
			"0.016": 0.0,
			"0.017": 0.0,
			"0.018": 0.0,
			"0.019": 0.0,
			"0.02": 0.0,
			"0.021": 0.0,
			"0.022": 0.0,
			"0.023": 0.0,
			"0.024": 0.0,
			"0.025": 0.0
		}
	}
}
