{
	 "smiles": "ClC(=O)C1=CC=CC2=C1OCCCO2", 
	 "Tm": 310.15, 
	 "num_atms": 23, 
	 "gaussian": { 
		 "optdone": 1, 
		 "sigma_profile": "yes", 
		 "theory": "DFT", 
		 "functional": "B3LYP", 
		 "basiset": "6-31G**", 
		 "properties": { 
			 "R2extent": 3976.7219, 
			 "electric_dipole_moment_norm": 4.58091245168, 
			 "electric_quadrupole_moment_norm": 17.0717945799, 
			 "total_energy": -1072.32878978, 
			 "HOMO_LUMO_gap": 0.17068, 
			 "cosmo_polarized_energy": -8.74, 
			 "cosmo_cavitation_energy": 28.11, 
			 "cosmo_dispersion_energy": -20.78, 
			 "cosmo_repulsion_energy": 1.63, 
			 "cosmo_total_nonelectrostatic_energy": 8.96, 
			 "SMD_solvation_energy": 5.45 
		},
		"coords": [
			{
				"x": -3.6526990221,
				"y": 2.0499312545,
				"z": -0.7701403772,
				"element": "Cl" 
			},
			{
				"x": -3.6637405862,
				"y": 0.8693255417,
				"z": 0.6233506315,
				"element": "C" 
			},
			{
				"x": -4.4739834635,
				"y": 1.0140169364,
				"z": 1.488623703,
				"element": "O" 
			},
			{
				"x": -2.7335894644,
				"y": -0.2833657147,
				"z": 0.5022563269,
				"element": "C" 
			},
			{
				"x": -3.2668255185,
				"y": -1.5287056478,
				"z": 0.8768571681,
				"element": "C" 
			},
			{
				"x": -2.5077701309,
				"y": -2.6837974537,
				"z": 0.7374160458,
				"element": "C" 
			},
			{
				"x": -1.1922371856,
				"y": -2.5963027372,
				"z": 0.2826391275,
				"element": "C" 
			},
			{
				"x": -0.6256349272,
				"y": -1.3629040023,
				"z": -0.0411395604,
				"element": "C" 
			},
			{
				"x": -1.4019460984,
				"y": -0.1857115998,
				"z": 0.0534824561,
				"element": "C" 
			},
			{
				"x": -0.895340608,
				"y": 1.0541169524,
				"z": -0.2022469195,
				"element": "O" 
			},
			{
				"x": -0.0190300973,
				"y": 1.1785989811,
				"z": -1.3375934359,
				"element": "C" 
			},
			{
				"x": 1.4338006492,
				"y": 0.9148628582,
				"z": -0.9416795691,
				"element": "C" 
			},
			{
				"x": 1.5190146465,
				"y": -0.2936909627,
				"z": -0.0079895113,
				"element": "C" 
			},
			{
				"x": 0.6824162778,
				"y": -1.3725951638,
				"z": -0.4588601159,
				"element": "O" 
			},
			{
				"x": -4.2862774693,
				"y": -1.5681506586,
				"z": 1.2432701543,
				"element": "H" 
			},
			{
				"x": -2.9277308517,
				"y": -3.6490772014,
				"z": 1.0003853893,
				"element": "H" 
			},
			{
				"x": -0.5640776666,
				"y": -3.4766112055,
				"z": 0.1922771647,
				"element": "H" 
			},
			{
				"x": -0.3424739524,
				"y": 0.4855240494,
				"z": -2.1207841271,
				"element": "H" 
			},
			{
				"x": -0.1596816918,
				"y": 2.1980025736,
				"z": -1.7045722628,
				"element": "H" 
			},
			{
				"x": 1.8630194698,
				"y": 1.7842043158,
				"z": -0.4302394304,
				"element": "H" 
			},
			{
				"x": 2.0206764208,
				"y": 0.7469374071,
				"z": -1.852136531,
				"element": "H" 
			},
			{
				"x": 2.5331807716,
				"y": -0.7008659489,
				"z": 0.0205618737,
				"element": "H" 
			},
			{
				"x": 1.2342304984,
				"y": -0.0152425737,
				"z": 1.0125617998,
				"element": "H" 
			}
		],
		 "valence_orbital": [ 
			{
				"type": "occ",
				"energy": -0.30963,
				"method": "rhf"
			},
			{
				"type": "occ",
				"energy": -0.29269,
				"method": "rhf"
			},
			{
				"type": "occ",
				"energy": -0.28799,
				"method": "rhf"
			},
			{
				"type": "occ",
				"energy": -0.25681,
				"method": "rhf"
			},
			{
				"type": "occ",
				"energy": -0.23091,
				"method": "rhf"
			},
			{
				"type": "unocc",
				"energy": -0.06023,
				"method": "rhf"
			},
			{
				"type": "unocc",
				"energy": -0.0081,
				"method": "rhf"
			},
			{
				"type": "unocc",
				"energy": 0.0044,
				"method": "rhf"
			},
			{
				"type": "unocc",
				"energy": 0.03787,
				"method": "rhf"
			},
			{
				"type": "unocc",
				"energy": 0.06614,
				"method": "rhf"
			}
		],
		"cosmo_sigma_profile": { 
			"-0.025": 0.0,
			"-0.024": 0.0,
			"-0.023": 0.0,
			"-0.022": 0.0,
			"-0.021": 0.0,
			"-0.02": 0.0,
			"-0.019": 0.0,
			"-0.018": 0.0,
			"-0.017": 0.0,
			"-0.016": 0.0,
			"-0.015": 0.0,
			"-0.014": 0.0,
			"-0.013": 0.0,
			"-0.012": 0.0,
			"-0.011": 0.0,
			"-0.01": 0.0,
			"-0.009": 0.0,
			"-0.008": 0.100154267317,
			"-0.007": 4.20384425735,
			"-0.006": 11.6421914732,
			"-0.005": 21.9913010102,
			"-0.004": 26.1998073558,
			"-0.003": 17.435821322,
			"-0.002": 13.6541573247,
			"-0.001": 14.3893568955,
			"0.0": 14.1177066213,
			"0.001": 16.4523985213,
			"0.002": 19.8710505857,
			"0.003": 16.5961749825,
			"0.004": 13.4839258561,
			"0.005": 10.5120474585,
			"0.006": 6.15667427601,
			"0.007": 5.09442927098,
			"0.008": 5.91029269606,
			"0.009": 6.07941714384,
			"0.01": 1.58290994815,
			"0.011": 0.496925991543,
			"0.012": 0.0,
			"0.013": 0.0,
			"0.014": 0.0,
			"0.015": 0.0,
			"0.016": 0.0,
			"0.017": 0.0,
			"0.018": 0.0,
			"0.019": 0.0,
			"0.02": 0.0,
			"0.021": 0.0,
			"0.022": 0.0,
			"0.023": 0.0,
			"0.024": 0.0,
			"0.025": 0.0
		}
	}
}
