{
	 "smiles": "NC1=C(C#N)C(=O)C2CC3=C(CN12)C=CC=C3", 
	 "Tm": 581.15, 
	 "num_atms": 28, 
	 "gaussian": { 
		 "optdone": 1, 
		 "sigma_profile": "yes", 
		 "theory": "DFT", 
		 "functional": "B3LYP", 
		 "basiset": "6-31G**", 
		 "properties": { 
			 "R2extent": 4582.1221, 
			 "electric_dipole_moment_norm": 9.58057214419, 
			 "electric_quadrupole_moment_norm": 34.1446074356, 
			 "total_energy": -741.485113056, 
			 "HOMO_LUMO_gap": 0.19001, 
			 "cosmo_polarized_energy": -26.85, 
			 "cosmo_cavitation_energy": 32.26, 
			 "cosmo_dispersion_energy": -22.97, 
			 "cosmo_repulsion_energy": 1.76, 
			 "cosmo_total_nonelectrostatic_energy": 11.05, 
			 "SMD_solvation_energy": 5.93 
		},
		"coords": [
			{
				"x": -2.5851625879,
				"y": -0.0053591459,
				"z": 1.9962057667,
				"element": "N" 
			},
			{
				"x": -1.5367064294,
				"y": -0.7538869759,
				"z": 1.5772728218,
				"element": "C" 
			},
			{
				"x": -1.1342348954,
				"y": -1.981770266,
				"z": 2.1256219728,
				"element": "C" 
			},
			{
				"x": -1.8567404555,
				"y": -2.6386277218,
				"z": 3.1418200659,
				"element": "C" 
			},
			{
				"x": -2.5042489247,
				"y": -3.127300727,
				"z": 3.9815148579,
				"element": "N" 
			},
			{
				"x": 0.0864734325,
				"y": -2.3957839897,
				"z": 1.4625094261,
				"element": "C" 
			},
			{
				"x": 0.792835508,
				"y": -3.3786808463,
				"z": 1.6189998011,
				"element": "O" 
			},
			{
				"x": 0.3898324664,
				"y": -1.2904991282,
				"z": 0.4201159297,
				"element": "C" 
			},
			{
				"x": 1.7218678927,
				"y": -0.577357691,
				"z": 0.6551577557,
				"element": "C" 
			},
			{
				"x": 1.8268495942,
				"y": 0.636908661,
				"z": -0.2409776301,
				"element": "C" 
			},
			{
				"x": 0.6714644705,
				"y": 1.3713435697,
				"z": -0.553880329,
				"element": "C" 
			},
			{
				"x": -0.6836030527,
				"y": 1.0102483751,
				"z": 0.0317201778,
				"element": "C" 
			},
			{
				"x": -0.7215997787,
				"y": -0.3427371387,
				"z": 0.5757903857,
				"element": "N" 
			},
			{
				"x": 0.7614669003,
				"y": 2.4820545665,
				"z": -1.401120413,
				"element": "C" 
			},
			{
				"x": 1.988836479,
				"y": 2.8797730978,
				"z": -1.9257157511,
				"element": "C" 
			},
			{
				"x": 3.1410998374,
				"y": 2.1537761949,
				"z": -1.6152626938,
				"element": "C" 
			},
			{
				"x": 3.0533302525,
				"y": 1.0382275353,
				"z": -0.7854918496,
				"element": "C" 
			},
			{
				"x": -3.0000318054,
				"y": 0.6717555208,
				"z": 1.375569955,
				"element": "H" 
			},
			{
				"x": -3.2037206929,
				"y": -0.4337084714,
				"z": 2.6709654383,
				"element": "H" 
			},
			{
				"x": 0.3731434275,
				"y": -1.7305032426,
				"z": -0.5845963832,
				"element": "H" 
			},
			{
				"x": 1.782502016,
				"y": -0.2838944642,
				"z": 1.7123515151,
				"element": "H" 
			},
			{
				"x": 2.5397034724,
				"y": -1.2806069534,
				"z": 0.4749545485,
				"element": "H" 
			},
			{
				"x": -0.929973651,
				"y": 1.7172236126,
				"z": 0.8378493574,
				"element": "H" 
			},
			{
				"x": -1.4514120476,
				"y": 1.1333274349,
				"z": -0.7467911949,
				"element": "H" 
			},
			{
				"x": -0.1386998344,
				"y": 3.0391168583,
				"z": -1.6518063753,
				"element": "H" 
			},
			{
				"x": 2.0446568559,
				"y": 3.7444055831,
				"z": -2.5801823079,
				"element": "H" 
			},
			{
				"x": 4.1013725213,
				"y": 2.4494956024,
				"z": -2.0272046346,
				"element": "H" 
			},
			{
				"x": 3.9457990289,
				"y": 0.4625601498,
				"z": -0.5537902131,
				"element": "H" 
			}
		],
		 "valence_orbital": [ 
			{
				"type": "occ",
				"energy": -0.28862,
				"method": "rhf"
			},
			{
				"type": "occ",
				"energy": -0.26413,
				"method": "rhf"
			},
			{
				"type": "occ",
				"energy": -0.26013,
				"method": "rhf"
			},
			{
				"type": "occ",
				"energy": -0.23644,
				"method": "rhf"
			},
			{
				"type": "occ",
				"energy": -0.21479,
				"method": "rhf"
			},
			{
				"type": "unocc",
				"energy": -0.02478,
				"method": "rhf"
			},
			{
				"type": "unocc",
				"energy": -0.02265,
				"method": "rhf"
			},
			{
				"type": "unocc",
				"energy": -0.01578,
				"method": "rhf"
			},
			{
				"type": "unocc",
				"energy": 0.01704,
				"method": "rhf"
			},
			{
				"type": "unocc",
				"energy": 0.03357,
				"method": "rhf"
			}
		],
		"cosmo_sigma_profile": { 
			"-0.025": 0.0,
			"-0.024": 0.0,
			"-0.023": 0.0,
			"-0.022": 0.0,
			"-0.021": 0.0,
			"-0.02": 0.0,
			"-0.019": 0.0,
			"-0.018": 0.0,
			"-0.017": 0.0,
			"-0.016": 0.616640522811,
			"-0.015": 2.13569205407,
			"-0.014": 2.9102908898,
			"-0.013": 2.58645920085,
			"-0.012": 2.16760988374,
			"-0.011": 2.51041805655,
			"-0.01": 2.37650175595,
			"-0.009": 2.2753542359,
			"-0.008": 2.95641315823,
			"-0.007": 8.03512436126,
			"-0.006": 16.728393888,
			"-0.005": 24.6400637137,
			"-0.004": 20.0319048363,
			"-0.003": 16.3715878822,
			"-0.002": 15.8095314552,
			"-0.001": 12.8356197788,
			"0.0": 10.9697780822,
			"0.001": 13.4443413102,
			"0.002": 12.6967542698,
			"0.003": 10.4824460815,
			"0.004": 12.0472257905,
			"0.005": 13.7450880823,
			"0.006": 8.12818065814,
			"0.007": 3.90389380433,
			"0.008": 4.38918326808,
			"0.009": 3.94304567321,
			"0.01": 4.75286742825,
			"0.011": 5.24089377109,
			"0.012": 5.68523221602,
			"0.013": 8.22591415957,
			"0.014": 4.84627659914,
			"0.015": 0.298657697164,
			"0.016": 0.0,
			"0.017": 0.0,
			"0.018": 0.0,
			"0.019": 0.0,
			"0.02": 0.0,
			"0.021": 0.0,
			"0.022": 0.0,
			"0.023": 0.0,
			"0.024": 0.0,
			"0.025": 0.0
		}
	}
}
