{
	 "smiles": "COC1=C(OCC(O)=O)C=CC(=C1)C(C)=O", 
	 "Tm": 439.15, 
	 "num_atms": 28, 
	 "gaussian": { 
		 "optdone": 1, 
		 "sigma_profile": "yes", 
		 "theory": "DFT", 
		 "functional": "B3LYP", 
		 "basiset": "6-31G**", 
		 "properties": { 
			 "R2extent": 4473.0677, 
			 "electric_dipole_moment_norm": 2.88041623902, 
			 "electric_quadrupole_moment_norm": 15.341386452, 
			 "total_energy": -802.506978762, 
			 "HOMO_LUMO_gap": 0.17129, 
			 "cosmo_polarized_energy": -16.79, 
			 "cosmo_cavitation_energy": 32.65, 
			 "cosmo_dispersion_energy": -22.83, 
			 "cosmo_repulsion_energy": 1.8, 
			 "cosmo_total_nonelectrostatic_energy": 11.61, 
			 "SMD_solvation_energy": 8.46 
		},
		"coords": [
			{
				"x": 2.3373251366,
				"y": -0.5162564661,
				"z": -1.6299599248,
				"element": "C" 
			},
			{
				"x": 1.6418394713,
				"y": -1.2745600142,
				"z": -0.6485684732,
				"element": "O" 
			},
			{
				"x": 0.9763369093,
				"y": -0.5956760021,
				"z": 0.3395835301,
				"element": "C" 
			},
			{
				"x": 0.2235316568,
				"y": -1.3658808316,
				"z": 1.2615549167,
				"element": "C" 
			},
			{
				"x": 0.123744128,
				"y": -2.7301093595,
				"z": 1.2908733227,
				"element": "O" 
			},
			{
				"x": 0.3770323573,
				"y": -3.5588970456,
				"z": 0.1739579648,
				"element": "C" 
			},
			{
				"x": -0.5446718733,
				"y": -3.2761120886,
				"z": -1.001230852,
				"element": "C" 
			},
			{
				"x": -0.2330977737,
				"y": -4.0888947398,
				"z": -2.0384349818,
				"element": "O" 
			},
			{
				"x": -1.4379220567,
				"y": -2.4651854869,
				"z": -1.0291282883,
				"element": "O" 
			},
			{
				"x": -0.4473490731,
				"y": -0.7157531613,
				"z": 2.299636618,
				"element": "C" 
			},
			{
				"x": -0.3993051967,
				"y": 0.667186964,
				"z": 2.4401457024,
				"element": "C" 
			},
			{
				"x": 0.3288620037,
				"y": 1.4360998162,
				"z": 1.5256467348,
				"element": "C" 
			},
			{
				"x": 1.0081429184,
				"y": 0.786267379,
				"z": 0.4815488509,
				"element": "C" 
			},
			{
				"x": 0.4298527676,
				"y": 2.9231429319,
				"z": 1.5967726652,
				"element": "C" 
			},
			{
				"x": -0.3003672817,
				"y": 3.6541597806,
				"z": 2.7124705583,
				"element": "C" 
			},
			{
				"x": 1.0869695053,
				"y": 3.5488964017,
				"z": 0.7746203409,
				"element": "O" 
			},
			{
				"x": 1.6615280976,
				"y": 0.1599130899,
				"z": -2.1669151098,
				"element": "H" 
			},
			{
				"x": 2.7550655782,
				"y": -1.2435654508,
				"z": -2.3276327136,
				"element": "H" 
			},
			{
				"x": 3.1511921625,
				"y": 0.0675703718,
				"z": -1.1835662933,
				"element": "H" 
			},
			{
				"x": 0.1805141631,
				"y": -4.5777629191,
				"z": 0.5230138034,
				"element": "H" 
			},
			{
				"x": 1.4127942783,
				"y": -3.5068530545,
				"z": -0.1664670615,
				"element": "H" 
			},
			{
				"x": -0.8617853855,
				"y": -3.8783814721,
				"z": -2.7492135737,
				"element": "H" 
			},
			{
				"x": -1.013686107,
				"y": -1.3330542676,
				"z": 2.9886943914,
				"element": "H" 
			},
			{
				"x": -0.9368927328,
				"y": 1.1340996997,
				"z": 3.2581388439,
				"element": "H" 
			},
			{
				"x": 1.5667913978,
				"y": 1.410834644,
				"z": -0.2042449091,
				"element": "H" 
			},
			{
				"x": 0.0493446133,
				"y": 3.3216701424,
				"z": 3.6960141544,
				"element": "H" 
			},
			{
				"x": -0.117245728,
				"y": 4.7237554195,
				"z": 2.6062815923,
				"element": "H" 
			},
			{
				"x": -1.3782439366,
				"y": 3.463545719,
				"z": 2.6678081911,
				"element": "H" 
			}
		],
		 "valence_orbital": [ 
			{
				"type": "occ",
				"energy": -0.31283,
				"method": "rhf"
			},
			{
				"type": "occ",
				"energy": -0.28725,
				"method": "rhf"
			},
			{
				"type": "occ",
				"energy": -0.24175,
				"method": "rhf"
			},
			{
				"type": "occ",
				"energy": -0.24044,
				"method": "rhf"
			},
			{
				"type": "occ",
				"energy": -0.21531,
				"method": "rhf"
			},
			{
				"type": "unocc",
				"energy": -0.04402,
				"method": "rhf"
			},
			{
				"type": "unocc",
				"energy": 0.00289,
				"method": "rhf"
			},
			{
				"type": "unocc",
				"energy": 0.00521,
				"method": "rhf"
			},
			{
				"type": "unocc",
				"energy": 0.05272,
				"method": "rhf"
			},
			{
				"type": "unocc",
				"energy": 0.06793,
				"method": "rhf"
			}
		],
		"cosmo_sigma_profile": { 
			"-0.025": 0.0,
			"-0.024": 0.0,
			"-0.023": 0.0,
			"-0.022": 0.0,
			"-0.021": 0.0,
			"-0.02": 0.0,
			"-0.019": 0.178480104921,
			"-0.018": 0.982626974941,
			"-0.017": 0.862445538544,
			"-0.016": 1.07252774236,
			"-0.015": 0.8062649551,
			"-0.014": 0.500737865254,
			"-0.013": 0.568097393661,
			"-0.012": 0.892583227763,
			"-0.011": 0.789730863993,
			"-0.01": 0.868416191368,
			"-0.009": 1.61637474034,
			"-0.008": 3.11436664598,
			"-0.007": 4.83118272177,
			"-0.006": 20.6001679003,
			"-0.005": 23.6124333952,
			"-0.004": 21.2071893272,
			"-0.003": 18.9469247193,
			"-0.002": 15.0795199635,
			"-0.001": 16.4873275518,
			"0.0": 13.9658776721,
			"0.001": 13.3303797092,
			"0.002": 15.1200001746,
			"0.003": 15.7758311655,
			"0.004": 14.1047362373,
			"0.005": 7.27593472472,
			"0.006": 6.52389335721,
			"0.007": 7.46167329036,
			"0.008": 5.80926820998,
			"0.009": 5.83286904896,
			"0.01": 5.23079762877,
			"0.011": 7.09737982209,
			"0.012": 5.59595936995,
			"0.013": 2.35633487881,
			"0.014": 0.450791351171,
			"0.015": 0.0,
			"0.016": 0.0,
			"0.017": 0.0,
			"0.018": 0.0,
			"0.019": 0.0,
			"0.02": 0.0,
			"0.021": 0.0,
			"0.022": 0.0,
			"0.023": 0.0,
			"0.024": 0.0,
			"0.025": 0.0
		}
	}
}
