{
	 "smiles": "CCC(O)(COC(N)=O)C1=CC=CC=C1", 
	 "Tm": 328.15, 
	 "num_atms": 30, 
	 "gaussian": { 
		 "optdone": 1, 
		 "sigma_profile": "yes", 
		 "theory": "DFT", 
		 "functional": "B3LYP", 
		 "basiset": "6-31G**", 
		 "properties": { 
			 "R2extent": 3344.6269, 
			 "electric_dipole_moment_norm": 2.307903709, 
			 "electric_quadrupole_moment_norm": 10.5251021715, 
			 "total_energy": -708.660292341, 
			 "HOMO_LUMO_gap": 0.23924, 
			 "cosmo_polarized_energy": -14.0, 
			 "cosmo_cavitation_energy": 32.2, 
			 "cosmo_dispersion_energy": -22.45, 
			 "cosmo_repulsion_energy": 1.8, 
			 "cosmo_total_nonelectrostatic_energy": 11.55, 
			 "SMD_solvation_energy": 6.61 
		},
		"coords": [
			{
				"x": 0.0948674302,
				"y": 2.7187908413,
				"z": 1.5769120398,
				"element": "C" 
			},
			{
				"x": 0.6301960675,
				"y": 2.8107226678,
				"z": 0.145163116,
				"element": "C" 
			},
			{
				"x": 0.7202712106,
				"y": 1.4809803308,
				"z": -0.6400551408,
				"element": "C" 
			},
			{
				"x": 1.2621639459,
				"y": 1.8643191113,
				"z": -1.9115137781,
				"element": "O" 
			},
			{
				"x": 1.7313337179,
				"y": 0.5426713651,
				"z": 0.0332242777,
				"element": "C" 
			},
			{
				"x": 1.9438748249,
				"y": -0.6037188138,
				"z": -0.8161804235,
				"element": "O" 
			},
			{
				"x": 1.8157865835,
				"y": -1.8331884681,
				"z": -0.2392598919,
				"element": "C" 
			},
			{
				"x": 2.0908160126,
				"y": -2.8045415032,
				"z": -1.1568056212,
				"element": "N" 
			},
			{
				"x": 1.5303642396,
				"y": -2.0340817647,
				"z": 0.9259015761,
				"element": "O" 
			},
			{
				"x": -0.6675613487,
				"y": 0.8492901686,
				"z": -0.8286661241,
				"element": "C" 
			},
			{
				"x": -1.1929363032,
				"y": -0.1224811008,
				"z": 0.0356590697,
				"element": "C" 
			},
			{
				"x": -2.4811029471,
				"y": -0.6277566712,
				"z": -0.1597727003,
				"element": "C" 
			},
			{
				"x": -3.2672525354,
				"y": -0.1705816793,
				"z": -1.2171780939,
				"element": "C" 
			},
			{
				"x": -2.7531208503,
				"y": 0.7953040189,
				"z": -2.0845436854,
				"element": "C" 
			},
			{
				"x": -1.4665031526,
				"y": 1.2973775968,
				"z": -1.8918407645,
				"element": "C" 
			},
			{
				"x": 0.743840997,
				"y": 2.1210526691,
				"z": 2.2256726213,
				"element": "H" 
			},
			{
				"x": 0.0304946707,
				"y": 3.7186134545,
				"z": 2.0172111468,
				"element": "H" 
			},
			{
				"x": -0.9052287831,
				"y": 2.2766983939,
				"z": 1.6049290604,
				"element": "H" 
			},
			{
				"x": 1.632744607,
				"y": 3.2556255593,
				"z": 0.141920497,
				"element": "H" 
			},
			{
				"x": -0.004502585,
				"y": 3.4782849995,
				"z": -0.447488549,
				"element": "H" 
			},
			{
				"x": 1.4058964569,
				"y": 1.0440523302,
				"z": -2.4050501333,
				"element": "H" 
			},
			{
				"x": 1.426026333,
				"y": 0.2010502529,
				"z": 1.0214393619,
				"element": "H" 
			},
			{
				"x": 2.6892131207,
				"y": 1.0656646107,
				"z": 0.111108435,
				"element": "H" 
			},
			{
				"x": 2.1315962052,
				"y": -2.5662597629,
				"z": -2.1345933326,
				"element": "H" 
			},
			{
				"x": 1.8553525702,
				"y": -3.7483101238,
				"z": -0.8973749237,
				"element": "H" 
			},
			{
				"x": -0.5986045242,
				"y": -0.5153369845,
				"z": 0.8537349349,
				"element": "H" 
			},
			{
				"x": -2.8652752973,
				"y": -1.3851514796,
				"z": 0.5179182368,
				"element": "H" 
			},
			{
				"x": -4.268388945,
				"y": -0.565140737,
				"z": -1.3664713005,
				"element": "H" 
			},
			{
				"x": -3.3534558704,
				"y": 1.1578621653,
				"z": -2.9146663256,
				"element": "H" 
			},
			{
				"x": -1.0608058509,
				"y": 2.0394885528,
				"z": -2.5713335851,
				"element": "H" 
			}
		],
		 "valence_orbital": [ 
			{
				"type": "occ",
				"energy": -0.28235,
				"method": "rhf"
			},
			{
				"type": "occ",
				"energy": -0.27865,
				"method": "rhf"
			},
			{
				"type": "occ",
				"energy": -0.27102,
				"method": "rhf"
			},
			{
				"type": "occ",
				"energy": -0.24548,
				"method": "rhf"
			},
			{
				"type": "occ",
				"energy": -0.23992,
				"method": "rhf"
			},
			{
				"type": "unocc",
				"energy": -0.00068,
				"method": "rhf"
			},
			{
				"type": "unocc",
				"energy": 0.00181,
				"method": "rhf"
			},
			{
				"type": "unocc",
				"energy": 0.04722,
				"method": "rhf"
			},
			{
				"type": "unocc",
				"energy": 0.07294,
				"method": "rhf"
			},
			{
				"type": "unocc",
				"energy": 0.09455,
				"method": "rhf"
			}
		],
		"cosmo_sigma_profile": { 
			"-0.025": 0.0,
			"-0.024": 0.0,
			"-0.023": 0.0,
			"-0.022": 0.0,
			"-0.021": 0.0,
			"-0.02": 0.0,
			"-0.019": 0.0,
			"-0.018": 0.0,
			"-0.017": 0.0,
			"-0.016": 0.0,
			"-0.015": 0.573665939472,
			"-0.014": 2.76648143873,
			"-0.013": 1.69642670902,
			"-0.012": 2.92258845888,
			"-0.011": 3.52919724854,
			"-0.01": 2.26597448174,
			"-0.009": 2.15693234972,
			"-0.008": 1.97348308511,
			"-0.007": 2.24456724867,
			"-0.006": 5.92239386361,
			"-0.005": 13.2070202094,
			"-0.004": 17.65480897,
			"-0.003": 23.8633912705,
			"-0.002": 19.4581036636,
			"-0.001": 21.9087157085,
			"0.0": 23.3884334934,
			"0.001": 20.6201462625,
			"0.002": 13.6185663147,
			"0.003": 14.130152516,
			"0.004": 12.42004641,
			"0.005": 10.8573224342,
			"0.006": 10.3531176354,
			"0.007": 4.34721983776,
			"0.008": 3.1759872245,
			"0.009": 1.95071558116,
			"0.01": 2.23267926812,
			"0.011": 2.2723270467,
			"0.012": 4.06750940217,
			"0.013": 5.80873051652,
			"0.014": 1.41345771152,
			"0.015": 0.0,
			"0.016": 0.0,
			"0.017": 0.0,
			"0.018": 0.0,
			"0.019": 0.0,
			"0.02": 0.0,
			"0.021": 0.0,
			"0.022": 0.0,
			"0.023": 0.0,
			"0.024": 0.0,
			"0.025": 0.0
		}
	}
}
