{
	 "smiles": "OC(=O)CCC1=C(NC2=C1C=C(F)C=C2)C1=CC=C(F)C=C1", 
	 "Tm": 406.15, 
	 "num_atms": 35, 
	 "gaussian": { 
		 "optdone": 1, 
		 "sigma_profile": "yes", 
		 "theory": "DFT", 
		 "functional": "B3LYP", 
		 "basiset": "6-31G**", 
		 "properties": { 
			 "R2extent": 8681.5985, 
			 "electric_dipole_moment_norm": 1.3927039707, 
			 "electric_quadrupole_moment_norm": 24.3745402648, 
			 "total_energy": -1060.54565114, 
			 "HOMO_LUMO_gap": 0.16853, 
			 "cosmo_polarized_energy": -16.89, 
			 "cosmo_cavitation_energy": 40.71, 
			 "cosmo_dispersion_energy": -27.62, 
			 "cosmo_repulsion_energy": 2.07, 
			 "cosmo_total_nonelectrostatic_energy": 15.16, 
			 "SMD_solvation_energy": 8.21 
		},
		"coords": [
			{
				"x": -1.1262593137,
				"y": 1.9267632343,
				"z": 2.1390616315,
				"element": "O" 
			},
			{
				"x": -0.8395152695,
				"y": 1.7561016907,
				"z": 0.8250276024,
				"element": "C" 
			},
			{
				"x": -0.1647488514,
				"y": 2.5446321351,
				"z": 0.2000443521,
				"element": "O" 
			},
			{
				"x": -1.4980975062,
				"y": 0.510900699,
				"z": 0.2692238541,
				"element": "C" 
			},
			{
				"x": -0.8413446412,
				"y": 0.019197713,
				"z": -1.0346812104,
				"element": "C" 
			},
			{
				"x": 0.5089811329,
				"y": -0.6098554385,
				"z": -0.82427304,
				"element": "C" 
			},
			{
				"x": 1.7485298607,
				"y": -0.1122156727,
				"z": -1.1924541278,
				"element": "C" 
			},
			{
				"x": 2.7404257941,
				"y": -0.943888691,
				"z": -0.6833376907,
				"element": "N" 
			},
			{
				"x": 2.1622189911,
				"y": -2.014878909,
				"z": -0.0333805313,
				"element": "C" 
			},
			{
				"x": 0.7542042617,
				"y": -1.8266402748,
				"z": -0.0912404861,
				"element": "C" 
			},
			{
				"x": -0.0866430322,
				"y": -2.780689814,
				"z": 0.5134398169,
				"element": "C" 
			},
			{
				"x": 0.5105066388,
				"y": -3.865453729,
				"z": 1.129005431,
				"element": "C" 
			},
			{
				"x": -0.2772645069,
				"y": -4.8011914855,
				"z": 1.7124564539,
				"element": "F" 
			},
			{
				"x": 1.899946805,
				"y": -4.0549652593,
				"z": 1.1808878161,
				"element": "C" 
			},
			{
				"x": 2.7450802128,
				"y": -3.1197159147,
				"z": 0.5932888551,
				"element": "C" 
			},
			{
				"x": 2.1355392439,
				"y": 1.0773555932,
				"z": -1.9659989079,
				"element": "C" 
			},
			{
				"x": 3.1965561222,
				"y": 1.8925486009,
				"z": -1.5327884028,
				"element": "C" 
			},
			{
				"x": 3.5975018242,
				"y": 3.0054661745,
				"z": -2.2682057394,
				"element": "C" 
			},
			{
				"x": 2.9228866447,
				"y": 3.30584145,
				"z": -3.4460404486,
				"element": "C" 
			},
			{
				"x": 3.3032619272,
				"y": 4.3836682539,
				"z": -4.1625603796,
				"element": "F" 
			},
			{
				"x": 1.8715556431,
				"y": 2.5229857699,
				"z": -3.9096331804,
				"element": "C" 
			},
			{
				"x": 1.488482531,
				"y": 1.4069823404,
				"z": -3.1694469509,
				"element": "C" 
			},
			{
				"x": -0.7002308983,
				"y": 2.7605525506,
				"z": 2.4004971235,
				"element": "H" 
			},
			{
				"x": -2.5508017474,
				"y": 0.7684313888,
				"z": 0.0889515292,
				"element": "H" 
			},
			{
				"x": -1.4998611568,
				"y": -0.2601740438,
				"z": 1.0444183112,
				"element": "H" 
			},
			{
				"x": -1.519323687,
				"y": -0.704718916,
				"z": -1.5049373226,
				"element": "H" 
			},
			{
				"x": -0.7600731301,
				"y": 0.8705923681,
				"z": -1.7137471072,
				"element": "H" 
			},
			{
				"x": 3.7075034213,
				"y": -0.887078183,
				"z": -0.9608223822,
				"element": "H" 
			},
			{
				"x": -1.1681314178,
				"y": -2.6994285524,
				"z": 0.4992529083,
				"element": "H" 
			},
			{
				"x": 2.2907346269,
				"y": -4.9336142084,
				"z": 1.6816956654,
				"element": "H" 
			},
			{
				"x": 3.8227706144,
				"y": -3.250454292,
				"z": 0.6247429128,
				"element": "H" 
			},
			{
				"x": 3.6942174638,
				"y": 1.6671989046,
				"z": -0.5942393305,
				"element": "H" 
			},
			{
				"x": 4.4081579362,
				"y": 3.6450590379,
				"z": -1.9363586742,
				"element": "H" 
			},
			{
				"x": 1.3796974215,
				"y": 2.7833885955,
				"z": -4.8405310078,
				"element": "H" 
			},
			{
				"x": 0.693536041,
				"y": 0.7686968837,
				"z": -3.5403173431,
				"element": "H" 
			}
		],
		 "valence_orbital": [ 
			{
				"type": "occ",
				"energy": -0.27223,
				"method": "rhf"
			},
			{
				"type": "occ",
				"energy": -0.26426,
				"method": "rhf"
			},
			{
				"type": "occ",
				"energy": -0.25554,
				"method": "rhf"
			},
			{
				"type": "occ",
				"energy": -0.21337,
				"method": "rhf"
			},
			{
				"type": "occ",
				"energy": -0.20074,
				"method": "rhf"
			},
			{
				"type": "unocc",
				"energy": -0.03221,
				"method": "rhf"
			},
			{
				"type": "unocc",
				"energy": -0.0161,
				"method": "rhf"
			},
			{
				"type": "unocc",
				"energy": 0.00699,
				"method": "rhf"
			},
			{
				"type": "unocc",
				"energy": 0.01248,
				"method": "rhf"
			},
			{
				"type": "unocc",
				"energy": 0.02887,
				"method": "rhf"
			}
		],
		"cosmo_sigma_profile": { 
			"-0.025": 0.0,
			"-0.024": 0.0,
			"-0.023": 0.0,
			"-0.022": 0.0,
			"-0.021": 0.0,
			"-0.02": 0.0,
			"-0.019": 0.0,
			"-0.018": 0.448329626264,
			"-0.017": 1.03361301131,
			"-0.016": 0.837822954412,
			"-0.015": 1.50609164782,
			"-0.014": 2.22408468205,
			"-0.013": 1.85708720232,
			"-0.012": 0.964003374133,
			"-0.011": 1.78703769058,
			"-0.01": 2.41387065905,
			"-0.009": 2.56940137518,
			"-0.008": 2.33933442411,
			"-0.007": 10.7191999326,
			"-0.006": 17.3504645831,
			"-0.005": 19.1157367871,
			"-0.004": 20.6951355115,
			"-0.003": 20.8356851831,
			"-0.002": 18.003272223,
			"-0.001": 17.416739611,
			"0.0": 17.1127772559,
			"0.001": 21.8565823333,
			"0.002": 24.0830985031,
			"0.003": 26.933787635,
			"0.004": 33.342503597,
			"0.005": 30.9478834338,
			"0.006": 7.21075308819,
			"0.007": 3.25774708674,
			"0.008": 4.24121262094,
			"0.009": 4.57992852184,
			"0.01": 3.87482286283,
			"0.011": 3.17925988247,
			"0.012": 2.42539876845,
			"0.013": 0.165917669966,
			"0.014": 0.0,
			"0.015": 0.0,
			"0.016": 0.0,
			"0.017": 0.0,
			"0.018": 0.0,
			"0.019": 0.0,
			"0.02": 0.0,
			"0.021": 0.0,
			"0.022": 0.0,
			"0.023": 0.0,
			"0.024": 0.0,
			"0.025": 0.0
		}
	}
}
