{
	 "smiles": "COC1=CC(NC(N)=S)=C(OC)C=C1", 
	 "Tm": 433.15, 
	 "num_atms": 26, 
	 "gaussian": { 
		 "optdone": 1, 
		 "sigma_profile": "yes", 
		 "theory": "DFT", 
		 "functional": "B3LYP", 
		 "basiset": "6-31G**", 
		 "properties": { 
			 "R2extent": 4382.6481, 
			 "electric_dipole_moment_norm": 5.39094019351, 
			 "electric_quadrupole_moment_norm": 26.6072585946, 
			 "total_energy": -1008.31960535, 
			 "HOMO_LUMO_gap": 0.16849, 
			 "cosmo_polarized_energy": -18.82, 
			 "cosmo_cavitation_energy": 31.36, 
			 "cosmo_dispersion_energy": -23.23, 
			 "cosmo_repulsion_energy": 1.81, 
			 "cosmo_total_nonelectrostatic_energy": 9.94, 
			 "SMD_solvation_energy": 5.99 
		},
		"coords": [
			{
				"x": -2.7533203007,
				"y": -1.9841701199,
				"z": -1.0835038625,
				"element": "C" 
			},
			{
				"x": -2.9360254478,
				"y": -1.628708171,
				"z": 0.2768430417,
				"element": "O" 
			},
			{
				"x": -2.1967506936,
				"y": -0.5971861946,
				"z": 0.7838801467,
				"element": "C" 
			},
			{
				"x": -1.2478582955,
				"y": 0.1244504749,
				"z": 0.0484576503,
				"element": "C" 
			},
			{
				"x": -0.5291635591,
				"y": 1.1639024429,
				"z": 0.6571283609,
				"element": "C" 
			},
			{
				"x": 0.4176494785,
				"y": 1.9535379775,
				"z": -0.0249466299,
				"element": "N" 
			},
			{
				"x": 1.3109605284,
				"y": 1.6300220711,
				"z": -1.0079690342,
				"element": "C" 
			},
			{
				"x": 1.3623737642,
				"y": 0.3220668904,
				"z": -1.3969800742,
				"element": "N" 
			},
			{
				"x": 2.2826647436,
				"y": 2.8078503169,
				"z": -1.7103920613,
				"element": "S" 
			},
			{
				"x": -0.7990031703,
				"y": 1.511145234,
				"z": 1.9983995588,
				"element": "C" 
			},
			{
				"x": -0.0773217568,
				"y": 2.5705166144,
				"z": 2.4831471978,
				"element": "O" 
			},
			{
				"x": -0.350866339,
				"y": 3.0225306817,
				"z": 3.8004617763,
				"element": "C" 
			},
			{
				"x": -1.7556084851,
				"y": 0.7909926139,
				"z": 2.7152640346,
				"element": "C" 
			},
			{
				"x": -2.4431280526,
				"y": -0.2645535722,
				"z": 2.1186735026,
				"element": "C" 
			},
			{
				"x": -1.723630242,
				"y": -2.308914634,
				"z": -1.2850310108,
				"element": "H" 
			},
			{
				"x": -3.0043280952,
				"y": -1.1554337341,
				"z": -1.7582188005,
				"element": "H" 
			},
			{
				"x": -3.4326113287,
				"y": -2.8169215359,
				"z": -1.2715572233,
				"element": "H" 
			},
			{
				"x": -1.0857565778,
				"y": -0.0774407526,
				"z": -1.001330721,
				"element": "H" 
			},
			{
				"x": 0.5504599068,
				"y": 2.8855179841,
				"z": 0.3451800672,
				"element": "H" 
			},
			{
				"x": 2.1392645772,
				"y": 0.1001921896,
				"z": -2.0011276934,
				"element": "H" 
			},
			{
				"x": 1.0645122474,
				"y": -0.3973323464,
				"z": -0.7506391806,
				"element": "H" 
			},
			{
				"x": -0.1291798479,
				"y": 2.2473847951,
				"z": 4.5449385433,
				"element": "H" 
			},
			{
				"x": 0.304939237,
				"y": 3.8779269776,
				"z": 3.9674962544,
				"element": "H" 
			},
			{
				"x": -1.3961980605,
				"y": 3.3384932898,
				"z": 3.9090409162,
				"element": "H" 
			},
			{
				"x": -1.9676482504,
				"y": 1.0414357376,
				"z": 3.7478914228,
				"element": "H" 
			},
			{
				"x": -3.1820259799,
				"y": -0.832605231,
				"z": 2.672793818,
				"element": "H" 
			}
		],
		 "valence_orbital": [ 
			{
				"type": "occ",
				"energy": -0.29252,
				"method": "rhf"
			},
			{
				"type": "occ",
				"energy": -0.25045,
				"method": "rhf"
			},
			{
				"type": "occ",
				"energy": -0.21942,
				"method": "rhf"
			},
			{
				"type": "occ",
				"energy": -0.20169,
				"method": "rhf"
			},
			{
				"type": "occ",
				"energy": -0.19745,
				"method": "rhf"
			},
			{
				"type": "unocc",
				"energy": -0.02896,
				"method": "rhf"
			},
			{
				"type": "unocc",
				"energy": 0.00363,
				"method": "rhf"
			},
			{
				"type": "unocc",
				"energy": 0.02563,
				"method": "rhf"
			},
			{
				"type": "unocc",
				"energy": 0.07637,
				"method": "rhf"
			},
			{
				"type": "unocc",
				"energy": 0.07947,
				"method": "rhf"
			}
		],
		"cosmo_sigma_profile": { 
			"-0.025": 0.0,
			"-0.024": 0.0,
			"-0.023": 0.0,
			"-0.022": 0.0,
			"-0.021": 0.0,
			"-0.02": 0.0,
			"-0.019": 0.0,
			"-0.018": 0.0,
			"-0.017": 0.0,
			"-0.016": 0.0,
			"-0.015": 0.171428138642,
			"-0.014": 0.934322926921,
			"-0.013": 2.01492361085,
			"-0.012": 2.66441883505,
			"-0.011": 2.36473484582,
			"-0.01": 2.36579684038,
			"-0.009": 2.45151273862,
			"-0.008": 2.75442030064,
			"-0.007": 5.29670403216,
			"-0.006": 17.1457015551,
			"-0.005": 23.8167764066,
			"-0.004": 21.5282888104,
			"-0.003": 22.3582330085,
			"-0.002": 13.7591484693,
			"-0.001": 10.3212327609,
			"0.0": 9.84452895077,
			"0.001": 12.0463792115,
			"0.002": 13.7559397362,
			"0.003": 14.6009109314,
			"0.004": 16.5185344675,
			"0.005": 10.128161474,
			"0.006": 6.48014985457,
			"0.007": 5.41832515387,
			"0.008": 5.78582943093,
			"0.009": 5.56165398681,
			"0.01": 6.3811584443,
			"0.011": 8.45604355737,
			"0.012": 5.83099052506,
			"0.013": 0.895936596602,
			"0.014": 0.0,
			"0.015": 0.0,
			"0.016": 0.0,
			"0.017": 0.0,
			"0.018": 0.0,
			"0.019": 0.0,
			"0.02": 0.0,
			"0.021": 0.0,
			"0.022": 0.0,
			"0.023": 0.0,
			"0.024": 0.0,
			"0.025": 0.0
		}
	}
}
