{
	 "smiles": "CNC1=C(C=CC=C1)C(=O)NCCC1=CC=C(OC)C=C1", 
	 "Tm": 370.15, 
	 "num_atms": 41, 
	 "gaussian": { 
		 "optdone": 1, 
		 "sigma_profile": "yes", 
		 "theory": "DFT", 
		 "functional": "B3LYP", 
		 "basiset": "6-31G**", 
		 "properties": { 
			 "R2extent": 7577.814, 
			 "electric_dipole_moment_norm": 5.47288099816, 
			 "electric_quadrupole_moment_norm": 5.58364592001, 
			 "total_energy": -919.827230051, 
			 "HOMO_LUMO_gap": 0.18144, 
			 "cosmo_polarized_energy": -16.87, 
			 "cosmo_cavitation_energy": 43.87, 
			 "cosmo_dispersion_energy": -29.38, 
			 "cosmo_repulsion_energy": 2.23, 
			 "cosmo_total_nonelectrostatic_energy": 16.72, 
			 "SMD_solvation_energy": 7.84 
		},
		"coords": [
			{
				"x": 2.4677851152,
				"y": 0.4066215219,
				"z": 0.5894760245,
				"element": "C" 
			},
			{
				"x": 1.2931329854,
				"y": -0.4139646347,
				"z": 0.8326836522,
				"element": "N" 
			},
			{
				"x": 0.9845053486,
				"y": -0.8652594795,
				"z": 2.1196669076,
				"element": "C" 
			},
			{
				"x": -0.274478672,
				"y": -1.4614986408,
				"z": 2.4131089389,
				"element": "C" 
			},
			{
				"x": -0.5515687258,
				"y": -1.866301685,
				"z": 3.7249088848,
				"element": "C" 
			},
			{
				"x": 0.3876219135,
				"y": -1.7514032448,
				"z": 4.7446208051,
				"element": "C" 
			},
			{
				"x": 1.6342087086,
				"y": -1.1998097049,
				"z": 4.4478408093,
				"element": "C" 
			},
			{
				"x": 1.9259268179,
				"y": -0.7534384311,
				"z": 3.1615115623,
				"element": "C" 
			},
			{
				"x": -1.3819158573,
				"y": -1.6984651415,
				"z": 1.4231501549,
				"element": "C" 
			},
			{
				"x": -2.5600172059,
				"y": -1.7586660176,
				"z": 1.7693118217,
				"element": "O" 
			},
			{
				"x": -1.015781839,
				"y": -1.8673681405,
				"z": 0.1092840118,
				"element": "N" 
			},
			{
				"x": -2.0047815576,
				"y": -2.1874524133,
				"z": -0.9083436831,
				"element": "C" 
			},
			{
				"x": -1.475511681,
				"y": -1.8905443344,
				"z": -2.3204242615,
				"element": "C" 
			},
			{
				"x": -1.0609004694,
				"y": -0.4508982196,
				"z": -2.5494318206,
				"element": "C" 
			},
			{
				"x": 0.2626876406,
				"y": -0.1136439939,
				"z": -2.8404420268,
				"element": "C" 
			},
			{
				"x": 0.6594010593,
				"y": 1.2121793618,
				"z": -3.0593059403,
				"element": "C" 
			},
			{
				"x": -0.2904468565,
				"y": 2.2357808777,
				"z": -2.9841636016,
				"element": "C" 
			},
			{
				"x": -0.0270586722,
				"y": 3.560847771,
				"z": -3.1788409507,
				"element": "O" 
			},
			{
				"x": 1.303027917,
				"y": 3.9413640337,
				"z": -3.4896863678,
				"element": "C" 
			},
			{
				"x": -1.6260571539,
				"y": 1.9155803439,
				"z": -2.6923537855,
				"element": "C" 
			},
			{
				"x": -1.9981984467,
				"y": 0.5953382729,
				"z": -2.4818674117,
				"element": "C" 
			},
			{
				"x": 2.5221701771,
				"y": 1.2956813105,
				"z": 1.2365389488,
				"element": "H" 
			},
			{
				"x": 3.3851566456,
				"y": -0.1741055568,
				"z": 0.7345995303,
				"element": "H" 
			},
			{
				"x": 2.4397078144,
				"y": 0.7370194193,
				"z": -0.4509741304,
				"element": "H" 
			},
			{
				"x": 0.4849082664,
				"y": -0.1223451102,
				"z": 0.2978319304,
				"element": "H" 
			},
			{
				"x": -1.5364493415,
				"y": -2.2801981052,
				"z": 3.9139199813,
				"element": "H" 
			},
			{
				"x": 0.1527720596,
				"y": -2.0858116388,
				"z": 5.7500274556,
				"element": "H" 
			},
			{
				"x": 2.3874554599,
				"y": -1.0995304532,
				"z": 5.2248260107,
				"element": "H" 
			},
			{
				"x": 2.8925743239,
				"y": -0.3045797629,
				"z": 2.9657139159,
				"element": "H" 
			},
			{
				"x": -0.0395556454,
				"y": -2.0372501959,
				"z": -0.0958827012,
				"element": "H" 
			},
			{
				"x": -2.8971475512,
				"y": -1.5964719594,
				"z": -0.6869065168,
				"element": "H" 
			},
			{
				"x": -2.3090119533,
				"y": -3.2424783651,
				"z": -0.8467349592,
				"element": "H" 
			},
			{
				"x": -0.624863585,
				"y": -2.5504372728,
				"z": -2.5349119114,
				"element": "H" 
			},
			{
				"x": -2.2626499984,
				"y": -2.1749693148,
				"z": -3.0305745694,
				"element": "H" 
			},
			{
				"x": 1.0107708013,
				"y": -0.9000031317,
				"z": -2.9123465537,
				"element": "H" 
			},
			{
				"x": 1.695184983,
				"y": 1.4252429105,
				"z": -3.2969765708,
				"element": "H" 
			},
			{
				"x": 1.2880283339,
				"y": 5.0261599441,
				"z": -3.6052643758,
				"element": "H" 
			},
			{
				"x": 2.0002605513,
				"y": 3.6751567101,
				"z": -2.6842379096,
				"element": "H" 
			},
			{
				"x": 1.6479018895,
				"y": 3.4838300207,
				"z": -4.4261458091,
				"element": "H" 
			},
			{
				"x": -2.3514138173,
				"y": 2.7210772803,
				"z": -2.6413760379,
				"element": "H" 
			},
			{
				"x": -3.0390797826,
				"y": 0.3712151699,
				"z": -2.2619294514,
				"element": "H" 
			}
		],
		 "valence_orbital": [ 
			{
				"type": "occ",
				"energy": -0.25096,
				"method": "rhf"
			},
			{
				"type": "occ",
				"energy": -0.24371,
				"method": "rhf"
			},
			{
				"type": "occ",
				"energy": -0.23382,
				"method": "rhf"
			},
			{
				"type": "occ",
				"energy": -0.22109,
				"method": "rhf"
			},
			{
				"type": "occ",
				"energy": -0.20112,
				"method": "rhf"
			},
			{
				"type": "unocc",
				"energy": -0.01968,
				"method": "rhf"
			},
			{
				"type": "unocc",
				"energy": -0.00933,
				"method": "rhf"
			},
			{
				"type": "unocc",
				"energy": 0.00452,
				"method": "rhf"
			},
			{
				"type": "unocc",
				"energy": 0.01746,
				"method": "rhf"
			},
			{
				"type": "unocc",
				"energy": 0.0673,
				"method": "rhf"
			}
		],
		"cosmo_sigma_profile": { 
			"-0.025": 0.0,
			"-0.024": 0.0,
			"-0.023": 0.0,
			"-0.022": 0.0,
			"-0.021": 0.0,
			"-0.02": 0.0,
			"-0.019": 0.0,
			"-0.018": 0.0,
			"-0.017": 0.0,
			"-0.016": 0.0,
			"-0.015": 0.0,
			"-0.014": 0.0,
			"-0.013": 0.0,
			"-0.012": 0.0,
			"-0.011": 0.395743465369,
			"-0.01": 0.566568271439,
			"-0.009": 1.10698241734,
			"-0.008": 1.53124523214,
			"-0.007": 2.50691950381,
			"-0.006": 10.8134453612,
			"-0.005": 30.6718334117,
			"-0.004": 39.8690631389,
			"-0.003": 42.6183554966,
			"-0.002": 35.3933304412,
			"-0.001": 30.1256715542,
			"0.0": 19.4267568664,
			"0.001": 16.8764249455,
			"0.002": 16.2497693252,
			"0.003": 17.8319375984,
			"0.004": 19.5102709025,
			"0.005": 20.4647244068,
			"0.006": 14.7510376454,
			"0.007": 3.78843170868,
			"0.008": 3.11913188169,
			"0.009": 3.8085285309,
			"0.01": 3.00901987271,
			"0.011": 1.59087774532,
			"0.012": 2.18469989348,
			"0.013": 2.26671888765,
			"0.014": 5.43506718104,
			"0.015": 1.23074601643,
			"0.016": 0.0,
			"0.017": 0.0,
			"0.018": 0.0,
			"0.019": 0.0,
			"0.02": 0.0,
			"0.021": 0.0,
			"0.022": 0.0,
			"0.023": 0.0,
			"0.024": 0.0,
			"0.025": 0.0
		}
	}
}
