{
	 "smiles": "O=C1CC(=O)C2=CC=CC=C12", 
	 "Tm": 403.15, 
	 "num_atms": 17, 
	 "gaussian": { 
		 "optdone": 1, 
		 "sigma_profile": "yes", 
		 "theory": "DFT", 
		 "functional": "B3LYP", 
		 "basiset": "6-31G**", 
		 "properties": { 
			 "R2extent": 1553.515, 
			 "electric_dipole_moment_norm": 3.02746859439, 
			 "electric_quadrupole_moment_norm": 10.2499281071, 
			 "total_energy": -497.020457546, 
			 "HOMO_LUMO_gap": 0.16611, 
			 "cosmo_polarized_energy": -10.75, 
			 "cosmo_cavitation_energy": 21.84, 
			 "cosmo_dispersion_energy": -16.12, 
			 "cosmo_repulsion_energy": 1.29, 
			 "cosmo_total_nonelectrostatic_energy": 7.01, 
			 "SMD_solvation_energy": 4.81 
		},
		"coords": [
			{
				"x": 0.6687231638,
				"y": 1.4467046388,
				"z": 2.4721853363,
				"element": "O" 
			},
			{
				"x": 0.2494461937,
				"y": 0.6764214998,
				"z": 1.6314598574,
				"element": "C" 
			},
			{
				"x": -0.6147188491,
				"y": -0.5664779655,
				"z": 1.8791164787,
				"element": "C" 
			},
			{
				"x": -0.8560461298,
				"y": -1.1672449054,
				"z": 0.4885279249,
				"element": "C" 
			},
			{
				"x": -1.4977964247,
				"y": -2.1664646248,
				"z": 0.232274926,
				"element": "O" 
			},
			{
				"x": -0.1551488379,
				"y": -0.2943603746,
				"z": -0.4962663109,
				"element": "C" 
			},
			{
				"x": -0.0844809415,
				"y": -0.4293326528,
				"z": -1.8831777466,
				"element": "C" 
			},
			{
				"x": 0.6401747916,
				"y": 0.5262538191,
				"z": -2.5955202399,
				"element": "C" 
			},
			{
				"x": 1.2787667326,
				"y": 1.5914746776,
				"z": -1.9352222807,
				"element": "C" 
			},
			{
				"x": 1.2063448131,
				"y": 1.7237828674,
				"z": -0.5485166018,
				"element": "C" 
			},
			{
				"x": 0.480836269,
				"y": 0.7664243359,
				"z": 0.1613058057,
				"element": "C" 
			},
			{
				"x": -0.1057419652,
				"y": -1.279486129,
				"z": 2.5369549801,
				"element": "H" 
			},
			{
				"x": -1.5593467828,
				"y": -0.3026697733,
				"z": 2.3672554724,
				"element": "H" 
			},
			{
				"x": -0.5825223218,
				"y": -1.256680237,
				"z": -2.3788604484,
				"element": "H" 
			},
			{
				"x": 0.7152532355,
				"y": 0.4508482394,
				"z": -3.6764639036,
				"element": "H" 
			},
			{
				"x": 1.8354981711,
				"y": 2.3194917046,
				"z": -2.5181495543,
				"element": "H" 
			},
			{
				"x": 1.6938588824,
				"y": 2.5403148798,
				"z": -0.0252036953,
				"element": "H" 
			}
		],
		 "valence_orbital": [ 
			{
				"type": "occ",
				"energy": -0.35475,
				"method": "rhf"
			},
			{
				"type": "occ",
				"energy": -0.27953,
				"method": "rhf"
			},
			{
				"type": "occ",
				"energy": -0.27894,
				"method": "rhf"
			},
			{
				"type": "occ",
				"energy": -0.27444,
				"method": "rhf"
			},
			{
				"type": "occ",
				"energy": -0.24694,
				"method": "rhf"
			},
			{
				"type": "unocc",
				"energy": -0.08083,
				"method": "rhf"
			},
			{
				"type": "unocc",
				"energy": -0.06267,
				"method": "rhf"
			},
			{
				"type": "unocc",
				"energy": 0.02556,
				"method": "rhf"
			},
			{
				"type": "unocc",
				"energy": 0.02949,
				"method": "rhf"
			},
			{
				"type": "unocc",
				"energy": 0.08532,
				"method": "rhf"
			}
		],
		"cosmo_sigma_profile": { 
			"-0.025": 0.0,
			"-0.024": 0.0,
			"-0.023": 0.0,
			"-0.022": 0.0,
			"-0.021": 0.0,
			"-0.02": 0.0,
			"-0.019": 0.0,
			"-0.018": 0.0,
			"-0.017": 0.0,
			"-0.016": 0.0,
			"-0.015": 0.0,
			"-0.014": 0.0,
			"-0.013": 0.0,
			"-0.012": 0.0,
			"-0.011": 0.0,
			"-0.01": 0.0,
			"-0.009": 0.323041095739,
			"-0.008": 7.41671219173,
			"-0.007": 14.4189742505,
			"-0.006": 14.9060532687,
			"-0.005": 11.6884014469,
			"-0.004": 10.0781416259,
			"-0.003": 10.2296876385,
			"-0.002": 8.83272067578,
			"-0.001": 11.4408053152,
			"0.0": 13.7621539712,
			"0.001": 14.5198330758,
			"0.002": 14.5338509819,
			"0.003": 3.36006569112,
			"0.004": 3.44680452663,
			"0.005": 2.99826467404,
			"0.006": 2.8191217547,
			"0.007": 3.29217710231,
			"0.008": 3.02442449801,
			"0.009": 4.01696662082,
			"0.01": 5.28406812897,
			"0.011": 9.42460234969,
			"0.012": 5.40911480491,
			"0.013": 0.58062559497,
			"0.014": 0.0,
			"0.015": 0.0,
			"0.016": 0.0,
			"0.017": 0.0,
			"0.018": 0.0,
			"0.019": 0.0,
			"0.02": 0.0,
			"0.021": 0.0,
			"0.022": 0.0,
			"0.023": 0.0,
			"0.024": 0.0,
			"0.025": 0.0
		}
	}
}
