{
	 "smiles": "CC(=O)C1=CC(=CC=C1)N1CCCS1(=O)=O", 
	 "Tm": 358.15, 
	 "num_atms": 29, 
	 "gaussian": { 
		 "optdone": 1, 
		 "sigma_profile": "yes", 
		 "theory": "DFT", 
		 "functional": "B3LYP", 
		 "basiset": "6-31G**", 
		 "properties": { 
			 "R2extent": 5748.5357, 
			 "electric_dipole_moment_norm": 7.09110115356, 
			 "electric_quadrupole_moment_norm": 15.9501053, 
			 "total_energy": -1105.54827384, 
			 "HOMO_LUMO_gap": 0.17492, 
			 "cosmo_polarized_energy": -20.04, 
			 "cosmo_cavitation_energy": 33.15, 
			 "cosmo_dispersion_energy": -24.05, 
			 "cosmo_repulsion_energy": 1.81, 
			 "cosmo_total_nonelectrostatic_energy": 10.91, 
			 "SMD_solvation_energy": 4.63 
		},
		"coords": [
			{
				"x": -3.566365161,
				"y": 0.4829722819,
				"z": 2.2831174383,
				"element": "C" 
			},
			{
				"x": -2.1473741469,
				"y": 0.2584887737,
				"z": 2.773347275,
				"element": "C" 
			},
			{
				"x": -1.7957986947,
				"y": 0.6552965461,
				"z": 3.8738860738,
				"element": "O" 
			},
			{
				"x": -1.1740970263,
				"y": -0.4593634556,
				"z": 1.8801548652,
				"element": "C" 
			},
			{
				"x": -1.5459182879,
				"y": -0.9562869287,
				"z": 0.6281293558,
				"element": "C" 
			},
			{
				"x": -0.605078766,
				"y": -1.6084196266,
				"z": -0.185209683,
				"element": "C" 
			},
			{
				"x": 0.7052211809,
				"y": -1.7777023713,
				"z": 0.2814486796,
				"element": "C" 
			},
			{
				"x": 1.0641936132,
				"y": -1.3020036422,
				"z": 1.5459737993,
				"element": "C" 
			},
			{
				"x": 0.1391223383,
				"y": -0.6399089568,
				"z": 2.3425586412,
				"element": "C" 
			},
			{
				"x": -1.012501101,
				"y": -2.1210381757,
				"z": -1.4454009475,
				"element": "N" 
			},
			{
				"x": -0.142225553,
				"y": -2.9914442868,
				"z": -2.2373852262,
				"element": "C" 
			},
			{
				"x": -0.9893436407,
				"y": -3.4075092342,
				"z": -3.4478892933,
				"element": "C" 
			},
			{
				"x": -1.6527664369,
				"y": -2.1275816992,
				"z": -3.9604209954,
				"element": "C" 
			},
			{
				"x": -1.9621468866,
				"y": -1.1056406084,
				"z": -2.4769273563,
				"element": "S" 
			},
			{
				"x": -3.3644056418,
				"y": -1.1872678476,
				"z": -2.054412607,
				"element": "O" 
			},
			{
				"x": -1.340705223,
				"y": 0.2140380468,
				"z": -2.6355812107,
				"element": "O" 
			},
			{
				"x": -3.5752161257,
				"y": 1.0494801112,
				"z": 1.3457415718,
				"element": "H" 
			},
			{
				"x": -4.0699840603,
				"y": -0.4705092074,
				"z": 2.0886832675,
				"element": "H" 
			},
			{
				"x": -4.116158974,
				"y": 1.0324530419,
				"z": 3.047623804,
				"element": "H" 
			},
			{
				"x": -2.5638451923,
				"y": -0.8544479488,
				"z": 0.2716863382,
				"element": "H" 
			},
			{
				"x": 1.4486764288,
				"y": -2.2745810981,
				"z": -0.3317518117,
				"element": "H" 
			},
			{
				"x": 2.0818639985,
				"y": -1.4463204391,
				"z": 1.8969105451,
				"element": "H" 
			},
			{
				"x": 0.3993434623,
				"y": -0.2558362817,
				"z": 3.3223942212,
				"element": "H" 
			},
			{
				"x": 0.7794840681,
				"y": -2.4824803622,
				"z": -2.561681913,
				"element": "H" 
			},
			{
				"x": 0.1400155713,
				"y": -3.8543667382,
				"z": -1.6278314115,
				"element": "H" 
			},
			{
				"x": -1.7493688987,
				"y": -4.1267009528,
				"z": -3.1311984679,
				"element": "H" 
			},
			{
				"x": -0.3756541266,
				"y": -3.8710983376,
				"z": -4.2246605703,
				"element": "H" 
			},
			{
				"x": -0.98982434,
				"y": -1.5317413312,
				"z": -4.5917032003,
				"element": "H" 
			},
			{
				"x": -2.6125423782,
				"y": -2.2745792717,
				"z": -4.4574011818,
				"element": "H" 
			}
		],
		 "valence_orbital": [ 
			{
				"type": "occ",
				"energy": -0.30907,
				"method": "rhf"
			},
			{
				"type": "occ",
				"energy": -0.29106,
				"method": "rhf"
			},
			{
				"type": "occ",
				"energy": -0.26224,
				"method": "rhf"
			},
			{
				"type": "occ",
				"energy": -0.2442,
				"method": "rhf"
			},
			{
				"type": "occ",
				"energy": -0.22818,
				"method": "rhf"
			},
			{
				"type": "unocc",
				"energy": -0.05326,
				"method": "rhf"
			},
			{
				"type": "unocc",
				"energy": -0.01386,
				"method": "rhf"
			},
			{
				"type": "unocc",
				"energy": 0.03537,
				"method": "rhf"
			},
			{
				"type": "unocc",
				"energy": 0.04388,
				"method": "rhf"
			},
			{
				"type": "unocc",
				"energy": 0.05162,
				"method": "rhf"
			}
		],
		"cosmo_sigma_profile": { 
			"-0.025": 0.0,
			"-0.024": 0.0,
			"-0.023": 0.0,
			"-0.022": 0.0,
			"-0.021": 0.0,
			"-0.02": 0.0,
			"-0.019": 0.0,
			"-0.018": 0.0,
			"-0.017": 0.0,
			"-0.016": 0.0,
			"-0.015": 0.0,
			"-0.014": 0.0,
			"-0.013": 0.0,
			"-0.012": 0.0,
			"-0.011": 0.0,
			"-0.01": 0.0,
			"-0.009": 1.49024404633,
			"-0.008": 6.51679433666,
			"-0.007": 14.2477135281,
			"-0.006": 29.0558992739,
			"-0.005": 27.9593549873,
			"-0.004": 22.7257831739,
			"-0.003": 16.1850040218,
			"-0.002": 12.8726669241,
			"-0.001": 14.1589705617,
			"0.0": 10.2424551695,
			"0.001": 9.84114279319,
			"0.002": 11.8549832994,
			"0.003": 17.0230522707,
			"0.004": 11.3957726511,
			"0.005": 5.13336501934,
			"0.006": 5.98311676368,
			"0.007": 4.66906921551,
			"0.008": 4.08440955427,
			"0.009": 5.87055899072,
			"0.01": 11.3295303828,
			"0.011": 13.4654148463,
			"0.012": 5.61588330924,
			"0.013": 1.21808689797,
			"0.014": 0.117737916504,
			"0.015": 0.0,
			"0.016": 0.0,
			"0.017": 0.0,
			"0.018": 0.0,
			"0.019": 0.0,
			"0.02": 0.0,
			"0.021": 0.0,
			"0.022": 0.0,
			"0.023": 0.0,
			"0.024": 0.0,
			"0.025": 0.0
		}
	}
}
