{
	 "smiles": "CC(=O)N(C1=CC=CC=C1)C1=CC=CC=C1", 
	 "Tm": 376.15, 
	 "num_atms": 29, 
	 "gaussian": { 
		 "optdone": 1, 
		 "sigma_profile": "yes", 
		 "theory": "DFT", 
		 "functional": "B3LYP", 
		 "basiset": "6-31G**", 
		 "properties": { 
			 "R2extent": 4149.3495, 
			 "electric_dipole_moment_norm": 3.81200422613, 
			 "electric_quadrupole_moment_norm": 14.955385424, 
			 "total_energy": -671.310027752, 
			 "HOMO_LUMO_gap": 0.19332, 
			 "cosmo_polarized_energy": -10.9, 
			 "cosmo_cavitation_energy": 32.52, 
			 "cosmo_dispersion_energy": -22.67, 
			 "cosmo_repulsion_energy": 1.77, 
			 "cosmo_total_nonelectrostatic_energy": 11.63, 
			 "SMD_solvation_energy": 6.36 
		},
		"coords": [
			{
				"x": 2.9859324253,
				"y": -0.6304859071,
				"z": 1.4510246168,
				"element": "C" 
			},
			{
				"x": 2.8487262162,
				"y": 0.3117430952,
				"z": 0.2632882733,
				"element": "C" 
			},
			{
				"x": 3.8325661242,
				"y": 0.8020076834,
				"z": -0.2683015627,
				"element": "O" 
			},
			{
				"x": 1.5490893921,
				"y": 0.6012575017,
				"z": -0.167085709,
				"element": "N" 
			},
			{
				"x": 1.3068103188,
				"y": 1.5652501788,
				"z": -1.2048587268,
				"element": "C" 
			},
			{
				"x": 2.0325054439,
				"y": 2.7633521521,
				"z": -1.2709112983,
				"element": "C" 
			},
			{
				"x": 1.7511433496,
				"y": 3.6899693052,
				"z": -2.2733127549,
				"element": "C" 
			},
			{
				"x": 0.7462555242,
				"y": 3.4464563034,
				"z": -3.2117478674,
				"element": "C" 
			},
			{
				"x": 0.0213394088,
				"y": 2.2568708247,
				"z": -3.1414493667,
				"element": "C" 
			},
			{
				"x": 0.3001636075,
				"y": 1.3187203581,
				"z": -2.1479719302,
				"element": "C" 
			},
			{
				"x": 0.4057237344,
				"y": -0.0712269659,
				"z": 0.3879696801,
				"element": "C" 
			},
			{
				"x": -0.5054625797,
				"y": 0.6470019877,
				"z": 1.1721369556,
				"element": "C" 
			},
			{
				"x": -1.6217113471,
				"y": 0.0063966648,
				"z": 1.7080518725,
				"element": "C" 
			},
			{
				"x": -1.8351549342,
				"y": -1.353674068,
				"z": 1.468117266,
				"element": "C" 
			},
			{
				"x": -0.93167174,
				"y": -2.0688198005,
				"z": 0.680634323,
				"element": "C" 
			},
			{
				"x": 0.1820835877,
				"y": -1.4288786942,
				"z": 0.1334243529,
				"element": "C" 
			},
			{
				"x": 2.2675541924,
				"y": -0.4115150282,
				"z": 2.2448310069,
				"element": "H" 
			},
			{
				"x": 4.0037271363,
				"y": -0.5223060126,
				"z": 1.8261653165,
				"element": "H" 
			},
			{
				"x": 2.8354193292,
				"y": -1.6716326564,
				"z": 1.1508227959,
				"element": "H" 
			},
			{
				"x": 2.8201905426,
				"y": 2.9558911606,
				"z": -0.5553239602,
				"element": "H" 
			},
			{
				"x": 2.3222431023,
				"y": 4.613120156,
				"z": -2.3150442581,
				"element": "H" 
			},
			{
				"x": 0.5317523134,
				"y": 4.1751703994,
				"z": -3.9877889812,
				"element": "H" 
			},
			{
				"x": -0.7628522745,
				"y": 2.0500539498,
				"z": -3.8641803821,
				"element": "H" 
			},
			{
				"x": -0.2656579428,
				"y": 0.3945461201,
				"z": -2.1013115414,
				"element": "H" 
			},
			{
				"x": -0.3299141424,
				"y": 1.7028472345,
				"z": 1.3533087555,
				"element": "H" 
			},
			{
				"x": -2.3229270998,
				"y": 0.5685620367,
				"z": 2.3178177511,
				"element": "H" 
			},
			{
				"x": -2.7036126966,
				"y": -1.8512824342,
				"z": 1.8892673656,
				"element": "H" 
			},
			{
				"x": -1.0969599233,
				"y": -3.1236382166,
				"z": 0.481658698,
				"element": "H" 
			},
			{
				"x": 0.8780989316,
				"y": -1.9734573284,
				"z": -0.4974306907,
				"element": "H" 
			}
		],
		 "valence_orbital": [ 
			{
				"type": "occ",
				"energy": -0.27021,
				"method": "rhf"
			},
			{
				"type": "occ",
				"energy": -0.26477,
				"method": "rhf"
			},
			{
				"type": "occ",
				"energy": -0.25004,
				"method": "rhf"
			},
			{
				"type": "occ",
				"energy": -0.24053,
				"method": "rhf"
			},
			{
				"type": "occ",
				"energy": -0.21481,
				"method": "rhf"
			},
			{
				"type": "unocc",
				"energy": -0.02149,
				"method": "rhf"
			},
			{
				"type": "unocc",
				"energy": -0.01836,
				"method": "rhf"
			},
			{
				"type": "unocc",
				"energy": -0.0058,
				"method": "rhf"
			},
			{
				"type": "unocc",
				"energy": 0.0054,
				"method": "rhf"
			},
			{
				"type": "unocc",
				"energy": 0.04181,
				"method": "rhf"
			}
		],
		"cosmo_sigma_profile": { 
			"-0.025": 0.0,
			"-0.024": 0.0,
			"-0.023": 0.0,
			"-0.022": 0.0,
			"-0.021": 0.0,
			"-0.02": 0.0,
			"-0.019": 0.0,
			"-0.018": 0.0,
			"-0.017": 0.0,
			"-0.016": 0.0,
			"-0.015": 0.0,
			"-0.014": 0.0,
			"-0.013": 0.0,
			"-0.012": 0.0,
			"-0.011": 0.0,
			"-0.01": 0.0,
			"-0.009": 0.0,
			"-0.008": 0.001246093457,
			"-0.007": 2.58698616596,
			"-0.006": 15.5253889385,
			"-0.005": 23.5265379539,
			"-0.004": 26.2463699249,
			"-0.003": 25.3846659061,
			"-0.002": 23.3961103664,
			"-0.001": 23.0478026878,
			"0.0": 16.3175163931,
			"0.001": 15.4486002255,
			"0.002": 14.3032103709,
			"0.003": 16.8635510461,
			"0.004": 17.5874672046,
			"0.005": 14.4703176366,
			"0.006": 6.43583490816,
			"0.007": 2.00483148255,
			"0.008": 2.43355467783,
			"0.009": 1.51498368651,
			"0.01": 1.25024685089,
			"0.011": 1.93564353183,
			"0.012": 2.71957143456,
			"0.013": 4.57421399564,
			"0.014": 2.06399940187,
			"0.015": 0.145995857329,
			"0.016": 0.0,
			"0.017": 0.0,
			"0.018": 0.0,
			"0.019": 0.0,
			"0.02": 0.0,
			"0.021": 0.0,
			"0.022": 0.0,
			"0.023": 0.0,
			"0.024": 0.0,
			"0.025": 0.0
		}
	}
}
