{
	 "smiles": "NC1=CC=C(C=C1)C(=O)NCCN1CCOCC1", 
	 "Tm": 431.15, 
	 "num_atms": 37, 
	 "gaussian": { 
		 "optdone": 1, 
		 "sigma_profile": "yes", 
		 "theory": "DFT", 
		 "functional": "B3LYP", 
		 "basiset": "6-31G**", 
		 "properties": { 
			 "R2extent": 6903.3422, 
			 "electric_dipole_moment_norm": 5.3515094366, 
			 "electric_quadrupole_moment_norm": 22.8423393975, 
			 "total_energy": -821.517149082, 
			 "HOMO_LUMO_gap": 0.17024, 
			 "cosmo_polarized_energy": -19.15, 
			 "cosmo_cavitation_energy": 38.03, 
			 "cosmo_dispersion_energy": -27.12, 
			 "cosmo_repulsion_energy": 2.1, 
			 "cosmo_total_nonelectrostatic_energy": 13.01, 
			 "SMD_solvation_energy": 3.83 
		},
		"coords": [
			{
				"x": -4.1087024676,
				"y": -0.1127517948,
				"z": -4.1423745149,
				"element": "N" 
			},
			{
				"x": -3.1872965847,
				"y": 0.3911346196,
				"z": -3.2343729125,
				"element": "C" 
			},
			{
				"x": -3.5064090269,
				"y": 0.4908713023,
				"z": -1.8657657394,
				"element": "C" 
			},
			{
				"x": -2.5666051857,
				"y": 0.950947245,
				"z": -0.9555138562,
				"element": "C" 
			},
			{
				"x": -1.2700546482,
				"y": 1.3011570224,
				"z": -1.3638619353,
				"element": "C" 
			},
			{
				"x": -0.95913565,
				"y": 1.2164853732,
				"z": -2.7300722442,
				"element": "C" 
			},
			{
				"x": -1.8986587292,
				"y": 0.7734226102,
				"z": -3.6529213539,
				"element": "C" 
			},
			{
				"x": -0.3308153058,
				"y": 1.8412878219,
				"z": -0.3391527999,
				"element": "C" 
			},
			{
				"x": -0.7394981476,
				"y": 2.4642858435,
				"z": 0.6409561159,
				"element": "O" 
			},
			{
				"x": 1.0330621501,
				"y": 1.6700691612,
				"z": -0.5413718024,
				"element": "N" 
			},
			{
				"x": 1.6583576237,
				"y": 0.4085668572,
				"z": -0.9490071829,
				"element": "C" 
			},
			{
				"x": 1.6509181401,
				"y": -0.6900877591,
				"z": 0.1435758658,
				"element": "C" 
			},
			{
				"x": 2.3182792786,
				"y": -0.4030970923,
				"z": 1.3964537596,
				"element": "N" 
			},
			{
				"x": 3.7495075476,
				"y": -0.1554941825,
				"z": 1.3465438882,
				"element": "C" 
			},
			{
				"x": 4.2886941709,
				"y": -0.033717074,
				"z": 2.7690475684,
				"element": "C" 
			},
			{
				"x": 3.7048669014,
				"y": 1.0489946442,
				"z": 3.4929756562,
				"element": "O" 
			},
			{
				"x": 2.4272171427,
				"y": 1.463741473,
				"z": 3.018883549,
				"element": "C" 
			},
			{
				"x": 1.5946786126,
				"y": 0.3113159696,
				"z": 2.4583277313,
				"element": "C" 
			},
			{
				"x": -3.9608447096,
				"y": 0.133615123,
				"z": -5.1105614901,
				"element": "H" 
			},
			{
				"x": -5.0790378555,
				"y": -0.0585905145,
				"z": -3.8674888852,
				"element": "H" 
			},
			{
				"x": -4.5003931735,
				"y": 0.209134961,
				"z": -1.5270649902,
				"element": "H" 
			},
			{
				"x": -2.8232081449,
				"y": 1.0554469891,
				"z": 0.0936781761,
				"element": "H" 
			},
			{
				"x": 0.0170796527,
				"y": 1.5380565936,
				"z": -3.079815012,
				"element": "H" 
			},
			{
				"x": -1.6431163198,
				"y": 0.7271766569,
				"z": -4.7086711088,
				"element": "H" 
			},
			{
				"x": 1.5365817184,
				"y": 2.1425985959,
				"z": 0.2022372234,
				"element": "H" 
			},
			{
				"x": 1.1456468723,
				"y": 0.0172829369,
				"z": -1.8301403481,
				"element": "H" 
			},
			{
				"x": 2.6860669734,
				"y": 0.6338191032,
				"z": -1.2547301977,
				"element": "H" 
			},
			{
				"x": 0.6096766032,
				"y": -0.9537820273,
				"z": 0.3642302074,
				"element": "H" 
			},
			{
				"x": 2.1119545312,
				"y": -1.5860217855,
				"z": -0.3019768565,
				"element": "H" 
			},
			{
				"x": 4.0339218452,
				"y": 0.7536668356,
				"z": 0.7810122336,
				"element": "H" 
			},
			{
				"x": 4.2463317606,
				"y": -0.9991224327,
				"z": 0.8462514234,
				"element": "H" 
			},
			{
				"x": 5.3708819294,
				"y": 0.1381099367,
				"z": 2.7511091358,
				"element": "H" 
			},
			{
				"x": 4.1025343357,
				"y": -0.9797353643,
				"z": 3.3000483734,
				"element": "H" 
			},
			{
				"x": 1.9110796819,
				"y": 1.9237825864,
				"z": 3.8675862639,
				"element": "H" 
			},
			{
				"x": 2.5475427742,
				"y": 2.2464745653,
				"z": 2.2506712197,
				"element": "H" 
			},
			{
				"x": 0.6502835597,
				"y": 0.7237762745,
				"z": 2.0877056629,
				"element": "H" 
			},
			{
				"x": 1.3480121433,
				"y": -0.3763210746,
				"z": 3.2830691761,
				"element": "H" 
			}
		],
		 "valence_orbital": [ 
			{
				"type": "occ",
				"energy": -0.25562,
				"method": "rhf"
			},
			{
				"type": "occ",
				"energy": -0.24072,
				"method": "rhf"
			},
			{
				"type": "occ",
				"energy": -0.23738,
				"method": "rhf"
			},
			{
				"type": "occ",
				"energy": -0.21097,
				"method": "rhf"
			},
			{
				"type": "occ",
				"energy": -0.19375,
				"method": "rhf"
			},
			{
				"type": "unocc",
				"energy": -0.02351,
				"method": "rhf"
			},
			{
				"type": "unocc",
				"energy": -0.00456,
				"method": "rhf"
			},
			{
				"type": "unocc",
				"energy": 0.05698,
				"method": "rhf"
			},
			{
				"type": "unocc",
				"energy": 0.06517,
				"method": "rhf"
			},
			{
				"type": "unocc",
				"energy": 0.07484,
				"method": "rhf"
			}
		],
		"cosmo_sigma_profile": { 
			"-0.025": 0.0,
			"-0.024": 0.0,
			"-0.023": 0.0,
			"-0.022": 0.0,
			"-0.021": 0.0,
			"-0.02": 0.0,
			"-0.019": 0.0,
			"-0.018": 0.0,
			"-0.017": 0.0,
			"-0.016": 0.0,
			"-0.015": 0.0,
			"-0.014": 0.00411289719027,
			"-0.013": 1.88324124114,
			"-0.012": 2.51470560465,
			"-0.011": 2.6493964158,
			"-0.01": 4.41602992427,
			"-0.009": 4.47319307628,
			"-0.008": 4.65907224172,
			"-0.007": 5.86541980096,
			"-0.006": 6.72984406839,
			"-0.005": 12.6326659764,
			"-0.004": 29.6686487022,
			"-0.003": 34.7855343882,
			"-0.002": 32.660984729,
			"-0.001": 25.2663804647,
			"0.0": 16.0808356189,
			"0.001": 13.5041160273,
			"0.002": 12.1618874989,
			"0.003": 11.9893902281,
			"0.004": 13.1936568875,
			"0.005": 16.7241245211,
			"0.006": 8.22994594392,
			"0.007": 4.26387271327,
			"0.008": 5.59721893822,
			"0.009": 4.18804465856,
			"0.01": 4.43381433336,
			"0.011": 2.6429032346,
			"0.012": 4.5482264126,
			"0.013": 5.47465842157,
			"0.014": 5.65916119774,
			"0.015": 0.723547193418,
			"0.016": 0.0,
			"0.017": 0.0,
			"0.018": 0.0,
			"0.019": 0.0,
			"0.02": 0.0,
			"0.021": 0.0,
			"0.022": 0.0,
			"0.023": 0.0,
			"0.024": 0.0,
			"0.025": 0.0
		}
	}
}
