{
	 "smiles": "CC(C)(CC(=O)C1=CC=C(Cl)C=C1)C(O)=O", 
	 "Tm": 421.15, 
	 "num_atms": 29, 
	 "gaussian": { 
		 "optdone": 1, 
		 "sigma_profile": "yes", 
		 "theory": "DFT", 
		 "functional": "B3LYP", 
		 "basiset": "6-31G**", 
		 "properties": { 
			 "R2extent": 6762.4461, 
			 "electric_dipole_moment_norm": 3.20735851598, 
			 "electric_quadrupole_moment_norm": 12.5111480021, 
			 "total_energy": -1151.00436137, 
			 "HOMO_LUMO_gap": 0.1906, 
			 "cosmo_polarized_energy": -14.9, 
			 "cosmo_cavitation_energy": 34.4, 
			 "cosmo_dispersion_energy": -24.28, 
			 "cosmo_repulsion_energy": 1.89, 
			 "cosmo_total_nonelectrostatic_energy": 12.01, 
			 "SMD_solvation_energy": 6.96 
		},
		"coords": [
			{
				"x": -1.1406558646,
				"y": 1.2953055199,
				"z": 1.6206662743,
				"element": "C" 
			},
			{
				"x": -1.8272602395,
				"y": 0.4856291141,
				"z": 0.508377539,
				"element": "C" 
			},
			{
				"x": -3.1428094084,
				"y": 1.1899675738,
				"z": 0.0893789431,
				"element": "C" 
			},
			{
				"x": -0.9265025964,
				"y": 0.353943594,
				"z": -0.73874605,
				"element": "C" 
			},
			{
				"x": 0.3279804061,
				"y": -0.4894842229,
				"z": -0.5448142179,
				"element": "C" 
			},
			{
				"x": 0.5193450763,
				"y": -1.1099643377,
				"z": 0.4915928482,
				"element": "O" 
			},
			{
				"x": 1.32567654,
				"y": -0.5632028467,
				"z": -1.6618275381,
				"element": "C" 
			},
			{
				"x": 2.4822487504,
				"y": -1.3333777466,
				"z": -1.4600666457,
				"element": "C" 
			},
			{
				"x": 3.4483059717,
				"y": -1.4480911334,
				"z": -2.4527284266,
				"element": "C" 
			},
			{
				"x": 3.253323262,
				"y": -0.7845965293,
				"z": -3.6667760245,
				"element": "C" 
			},
			{
				"x": 4.464895107,
				"y": -0.9222219439,
				"z": -4.9270132343,
				"element": "Cl" 
			},
			{
				"x": 2.1128254923,
				"y": -0.0147903043,
				"z": -3.8964265485,
				"element": "C" 
			},
			{
				"x": 1.1544697101,
				"y": 0.0923561196,
				"z": -2.8903478382,
				"element": "C" 
			},
			{
				"x": -2.2296950943,
				"y": -0.8851720168,
				"z": 1.0589408549,
				"element": "C" 
			},
			{
				"x": -2.4659531566,
				"y": -1.7872955189,
				"z": 0.0698254964,
				"element": "O" 
			},
			{
				"x": -2.4212555587,
				"y": -1.1458325796,
				"z": 2.2248047349,
				"element": "O" 
			},
			{
				"x": -0.2119826048,
				"y": 0.8179939869,
				"z": 1.9373387067,
				"element": "H" 
			},
			{
				"x": -1.7937678534,
				"y": 1.369239519,
				"z": 2.4926528368,
				"element": "H" 
			},
			{
				"x": -0.9180326561,
				"y": 2.3068515451,
				"z": 1.2638922266,
				"element": "H" 
			},
			{
				"x": -2.9258302345,
				"y": 2.1878570926,
				"z": -0.3063441398,
				"element": "H" 
			},
			{
				"x": -3.6733685429,
				"y": 0.6221371732,
				"z": -0.6809760065,
				"element": "H" 
			},
			{
				"x": -3.8063657787,
				"y": 1.3049201699,
				"z": 0.9515634454,
				"element": "H" 
			},
			{
				"x": -1.4942384914,
				"y": -0.0884023566,
				"z": -1.566765253,
				"element": "H" 
			},
			{
				"x": -0.6362374359,
				"y": 1.358938029,
				"z": -1.0710984753,
				"element": "H" 
			},
			{
				"x": 2.602827776,
				"y": -1.8378003484,
				"z": -0.5073503052,
				"element": "H" 
			},
			{
				"x": 4.3420710732,
				"y": -2.0416780301,
				"z": -2.2959137567,
				"element": "H" 
			},
			{
				"x": 1.9803441586,
				"y": 0.4902569638,
				"z": -4.8465708938,
				"element": "H" 
			},
			{
				"x": 0.26958211,
				"y": 0.6907810543,
				"z": -3.0787333966,
				"element": "H" 
			},
			{
				"x": -2.7435399178,
				"y": -2.60306754,
				"z": 0.5187648443,
				"element": "H" 
			}
		],
		 "valence_orbital": [ 
			{
				"type": "occ",
				"energy": -0.31092,
				"method": "rhf"
			},
			{
				"type": "occ",
				"energy": -0.27772,
				"method": "rhf"
			},
			{
				"type": "occ",
				"energy": -0.26576,
				"method": "rhf"
			},
			{
				"type": "occ",
				"energy": -0.26071,
				"method": "rhf"
			},
			{
				"type": "occ",
				"energy": -0.25948,
				"method": "rhf"
			},
			{
				"type": "unocc",
				"energy": -0.06888,
				"method": "rhf"
			},
			{
				"type": "unocc",
				"energy": -0.02653,
				"method": "rhf"
			},
			{
				"type": "unocc",
				"energy": 0.01776,
				"method": "rhf"
			},
			{
				"type": "unocc",
				"energy": 0.02149,
				"method": "rhf"
			},
			{
				"type": "unocc",
				"energy": 0.02395,
				"method": "rhf"
			}
		],
		"cosmo_sigma_profile": { 
			"-0.025": 0.0,
			"-0.024": 0.0,
			"-0.023": 0.0,
			"-0.022": 0.0,
			"-0.021": 0.0,
			"-0.02": 0.0,
			"-0.019": 0.0,
			"-0.018": 0.487192904142,
			"-0.017": 0.778042260357,
			"-0.016": 0.715541912491,
			"-0.015": 1.19668141998,
			"-0.014": 0.659448368323,
			"-0.013": 0.64180052865,
			"-0.012": 0.594604883837,
			"-0.011": 0.534285538395,
			"-0.01": 0.706096761428,
			"-0.009": 0.536712133688,
			"-0.008": 3.55720441442,
			"-0.007": 10.0535110814,
			"-0.006": 12.8714312115,
			"-0.005": 14.0159518022,
			"-0.004": 16.8181886297,
			"-0.003": 18.4680515569,
			"-0.002": 21.0206559759,
			"-0.001": 23.4679329792,
			"0.0": 26.4898514369,
			"0.001": 26.2131992039,
			"0.002": 25.1599137659,
			"0.003": 13.8921301807,
			"0.004": 14.4630892539,
			"0.005": 6.25756841614,
			"0.006": 4.42826353742,
			"0.007": 4.81459257723,
			"0.008": 4.15815026003,
			"0.009": 3.70730932102,
			"0.01": 4.57791077616,
			"0.011": 6.03423416118,
			"0.012": 5.72373023106,
			"0.013": 0.989281765182,
			"0.014": 0.0,
			"0.015": 0.0,
			"0.016": 0.0,
			"0.017": 0.0,
			"0.018": 0.0,
			"0.019": 0.0,
			"0.02": 0.0,
			"0.021": 0.0,
			"0.022": 0.0,
			"0.023": 0.0,
			"0.024": 0.0,
			"0.025": 0.0
		}
	}
}
