{
	 "smiles": "ClC(=O)C=CC1=CC=CC=C1", 
	 "Tm": 309.15, 
	 "num_atms": 18, 
	 "gaussian": { 
		 "optdone": 1, 
		 "sigma_profile": "yes", 
		 "theory": "DFT", 
		 "functional": "B3LYP", 
		 "basiset": "6-31G**", 
		 "properties": { 
			 "R2extent": 3578.0584, 
			 "electric_dipole_moment_norm": 5.51192575422, 
			 "electric_quadrupole_moment_norm": 13.1661323717, 
			 "total_energy": -882.586989908, 
			 "HOMO_LUMO_gap": 0.1615, 
			 "cosmo_polarized_energy": -8.33, 
			 "cosmo_cavitation_energy": 24.88, 
			 "cosmo_dispersion_energy": -18.26, 
			 "cosmo_repulsion_energy": 1.47, 
			 "cosmo_total_nonelectrostatic_energy": 8.09, 
			 "SMD_solvation_energy": 5.06 
		},
		"coords": [
			{
				"x": -0.0413235468,
				"y": -3.0285006124,
				"z": 2.2420452941,
				"element": "Cl" 
			},
			{
				"x": -1.2558710829,
				"y": -1.7610408053,
				"z": 2.8149150187,
				"element": "C" 
			},
			{
				"x": -1.6665160498,
				"y": -1.8256010741,
				"z": 3.9354268466,
				"element": "O" 
			},
			{
				"x": -1.6283514038,
				"y": -0.7520890869,
				"z": 1.8247509887,
				"element": "C" 
			},
			{
				"x": -1.1672981459,
				"y": -0.6756940914,
				"z": 0.559429987,
				"element": "C" 
			},
			{
				"x": -1.5224990411,
				"y": 0.3203683505,
				"z": -0.4480924308,
				"element": "C" 
			},
			{
				"x": -2.4318001134,
				"y": 1.3713155445,
				"z": -0.21295234,
				"element": "C" 
			},
			{
				"x": -2.7277702505,
				"y": 2.2881338433,
				"z": -1.2149856513,
				"element": "C" 
			},
			{
				"x": -2.124638476,
				"y": 2.1783298244,
				"z": -2.4729998106,
				"element": "C" 
			},
			{
				"x": -1.2219951886,
				"y": 1.1436490173,
				"z": -2.7226389607,
				"element": "C" 
			},
			{
				"x": -0.9248732778,
				"y": 0.2244893512,
				"z": -1.7191017039,
				"element": "C" 
			},
			{
				"x": -2.3433034122,
				"y": -0.0398019133,
				"z": 2.225713056,
				"element": "H" 
			},
			{
				"x": -0.4530056493,
				"y": -1.4298687346,
				"z": 0.2391309014,
				"element": "H" 
			},
			{
				"x": -2.9085140073,
				"y": 1.4711486477,
				"z": 0.7569114032,
				"element": "H" 
			},
			{
				"x": -3.4304731069,
				"y": 3.092318094,
				"z": -1.018386235,
				"element": "H" 
			},
			{
				"x": -2.3592135128,
				"y": 2.8971473566,
				"z": -3.2524997134,
				"element": "H" 
			},
			{
				"x": -0.7505933614,
				"y": 1.0528101096,
				"z": -3.6965183573,
				"element": "H" 
			},
			{
				"x": -0.2219603735,
				"y": -0.581213821,
				"z": -1.9134482926,
				"element": "H" 
			}
		],
		 "valence_orbital": [ 
			{
				"type": "occ",
				"energy": -0.31379,
				"method": "rhf"
			},
			{
				"type": "occ",
				"energy": -0.31141,
				"method": "rhf"
			},
			{
				"type": "occ",
				"energy": -0.28642,
				"method": "rhf"
			},
			{
				"type": "occ",
				"energy": -0.27382,
				"method": "rhf"
			},
			{
				"type": "occ",
				"energy": -0.25283,
				"method": "rhf"
			},
			{
				"type": "unocc",
				"energy": -0.09133,
				"method": "rhf"
			},
			{
				"type": "unocc",
				"energy": -0.02261,
				"method": "rhf"
			},
			{
				"type": "unocc",
				"energy": -0.00354,
				"method": "rhf"
			},
			{
				"type": "unocc",
				"energy": 0.02113,
				"method": "rhf"
			},
			{
				"type": "unocc",
				"energy": 0.06605,
				"method": "rhf"
			}
		],
		"cosmo_sigma_profile": { 
			"-0.025": 0.0,
			"-0.024": 0.0,
			"-0.023": 0.0,
			"-0.022": 0.0,
			"-0.021": 0.0,
			"-0.02": 0.0,
			"-0.019": 0.0,
			"-0.018": 0.0,
			"-0.017": 0.0,
			"-0.016": 0.0,
			"-0.015": 0.0,
			"-0.014": 0.0,
			"-0.013": 0.0,
			"-0.012": 0.0,
			"-0.011": 0.00512812732045,
			"-0.01": 0.645563466554,
			"-0.009": 1.87014772978,
			"-0.008": 3.99110864563,
			"-0.007": 7.56174060437,
			"-0.006": 11.7042613887,
			"-0.005": 13.3482519371,
			"-0.004": 11.8841135817,
			"-0.003": 11.1436747747,
			"-0.002": 13.1892085414,
			"-0.001": 15.5768161959,
			"0.0": 15.0352343245,
			"0.001": 17.7860438118,
			"0.002": 15.9110328833,
			"0.003": 18.111972906,
			"0.004": 16.8741710607,
			"0.005": 9.12881140809,
			"0.006": 5.40923444156,
			"0.007": 2.38249229663,
			"0.008": 3.34334434442,
			"0.009": 5.55296312512,
			"0.01": 2.10912636938,
			"0.011": 0.0813532133,
			"0.012": 0.0,
			"0.013": 0.0,
			"0.014": 0.0,
			"0.015": 0.0,
			"0.016": 0.0,
			"0.017": 0.0,
			"0.018": 0.0,
			"0.019": 0.0,
			"0.02": 0.0,
			"0.021": 0.0,
			"0.022": 0.0,
			"0.023": 0.0,
			"0.024": 0.0,
			"0.025": 0.0
		}
	}
}
