{
	 "smiles": "CCCC#CC(O)=O", 
	 "Tm": 299.15, 
	 "num_atms": 16, 
	 "gaussian": { 
		 "optdone": 1, 
		 "sigma_profile": "yes", 
		 "theory": "DFT", 
		 "functional": "B3LYP", 
		 "basiset": "6-31G**", 
		 "properties": { 
			 "R2extent": 1677.1342, 
			 "electric_dipole_moment_norm": 5.55675339564, 
			 "electric_quadrupole_moment_norm": 14.7530901187, 
			 "total_energy": -383.852677358, 
			 "HOMO_LUMO_gap": 0.23242, 
			 "cosmo_polarized_energy": -12.55, 
			 "cosmo_cavitation_energy": 21.2, 
			 "cosmo_dispersion_energy": -14.97, 
			 "cosmo_repulsion_energy": 1.32, 
			 "cosmo_total_nonelectrostatic_energy": 7.55, 
			 "SMD_solvation_energy": 5.43 
		},
		"coords": [
			{
				"x": 1.9317980933,
				"y": 0.2506780117,
				"z": 1.8249478598,
				"element": "C" 
			},
			{
				"x": 1.9784259467,
				"y": -1.0583733678,
				"z": 1.0337417647,
				"element": "C" 
			},
			{
				"x": 1.243939992,
				"y": -0.9835011503,
				"z": -0.3240489201,
				"element": "C" 
			},
			{
				"x": -0.1923636783,
				"y": -0.740062678,
				"z": -0.2116313149,
				"element": "C" 
			},
			{
				"x": -1.3851664334,
				"y": -0.5445372056,
				"z": -0.1120918187,
				"element": "C" 
			},
			{
				"x": -2.8151633686,
				"y": -0.3004276171,
				"z": -0.0571600388,
				"element": "C" 
			},
			{
				"x": -3.359167323,
				"y": -0.4155490416,
				"z": 1.1835841383,
				"element": "O" 
			},
			{
				"x": -3.4965831444,
				"y": -0.0167979191,
				"z": -1.0114592067,
				"element": "O" 
			},
			{
				"x": 2.4588275315,
				"y": 0.1512627789,
				"z": 2.7787109842,
				"element": "H" 
			},
			{
				"x": 0.8999213541,
				"y": 0.5469097746,
				"z": 2.0397418827,
				"element": "H" 
			},
			{
				"x": 2.4022315172,
				"y": 1.0679008376,
				"z": 1.2668446496,
				"element": "H" 
			},
			{
				"x": 1.5450379383,
				"y": -1.872482164,
				"z": 1.6263166944,
				"element": "H" 
			},
			{
				"x": 3.0195536718,
				"y": -1.3368570653,
				"z": 0.8332855734,
				"element": "H" 
			},
			{
				"x": 1.6866854977,
				"y": -0.1902380379,
				"z": -0.9418092825,
				"element": "H" 
			},
			{
				"x": 1.3925681363,
				"y": -1.9189996104,
				"z": -0.8790298036,
				"element": "H" 
			},
			{
				"x": -2.6640457313,
				"y": -0.6499255457,
				"z": 1.8161568381,
				"element": "H" 
			}
		],
		 "valence_orbital": [ 
			{
				"type": "occ",
				"energy": -0.35681,
				"method": "rhf"
			},
			{
				"type": "occ",
				"energy": -0.32115,
				"method": "rhf"
			},
			{
				"type": "occ",
				"energy": -0.30064,
				"method": "rhf"
			},
			{
				"type": "occ",
				"energy": -0.28689,
				"method": "rhf"
			},
			{
				"type": "occ",
				"energy": -0.27118,
				"method": "rhf"
			},
			{
				"type": "unocc",
				"energy": -0.03876,
				"method": "rhf"
			},
			{
				"type": "unocc",
				"energy": 0.01873,
				"method": "rhf"
			},
			{
				"type": "unocc",
				"energy": 0.06719,
				"method": "rhf"
			},
			{
				"type": "unocc",
				"energy": 0.09397,
				"method": "rhf"
			},
			{
				"type": "unocc",
				"energy": 0.10638,
				"method": "rhf"
			}
		],
		"cosmo_sigma_profile": { 
			"-0.025": 0.0,
			"-0.024": 0.0,
			"-0.023": 0.0,
			"-0.022": 0.0,
			"-0.021": 0.0,
			"-0.02": 0.0,
			"-0.019": 0.240226926506,
			"-0.018": 1.05591480082,
			"-0.017": 0.677879903612,
			"-0.016": 0.961260795837,
			"-0.015": 0.992359295503,
			"-0.014": 0.645658085884,
			"-0.013": 0.975220311636,
			"-0.012": 0.542749135209,
			"-0.011": 1.12530774783,
			"-0.01": 0.497469979996,
			"-0.009": 0.953870801615,
			"-0.008": 1.04919665573,
			"-0.007": 2.01031677883,
			"-0.006": 5.7649764628,
			"-0.005": 6.62557814568,
			"-0.004": 10.8966437275,
			"-0.003": 20.0507456684,
			"-0.002": 15.9925535741,
			"-0.001": 16.7682059961,
			"0.0": 16.6161961138,
			"0.001": 12.5511525272,
			"0.002": 6.13808784203,
			"0.003": 6.81882466568,
			"0.004": 5.06445927901,
			"0.005": 3.35111214251,
			"0.006": 2.45304065677,
			"0.007": 3.45385876968,
			"0.008": 2.96461503351,
			"0.009": 4.20441778946,
			"0.01": 5.82047407682,
			"0.011": 6.37524541328,
			"0.012": 3.82599331637,
			"0.013": 0.338171979299,
			"0.014": 0.0,
			"0.015": 0.0,
			"0.016": 0.0,
			"0.017": 0.0,
			"0.018": 0.0,
			"0.019": 0.0,
			"0.02": 0.0,
			"0.021": 0.0,
			"0.022": 0.0,
			"0.023": 0.0,
			"0.024": 0.0,
			"0.025": 0.0
		}
	}
}
