{
	 "smiles": "NC(CO)C(O)C1=CC=CC=C1", 
	 "Tm": 385.15, 
	 "num_atms": 25, 
	 "gaussian": { 
		 "optdone": 1, 
		 "sigma_profile": "yes", 
		 "theory": "DFT", 
		 "functional": "B3LYP", 
		 "basiset": "6-31G**", 
		 "properties": { 
			 "R2extent": 2519.8741, 
			 "electric_dipole_moment_norm": 3.25384505777, 
			 "electric_quadrupole_moment_norm": 11.3818568147, 
			 "total_energy": -555.977132299, 
			 "HOMO_LUMO_gap": 0.23272, 
			 "cosmo_polarized_energy": -13.06, 
			 "cosmo_cavitation_energy": 27.2, 
			 "cosmo_dispersion_energy": -19.77, 
			 "cosmo_repulsion_energy": 1.6, 
			 "cosmo_total_nonelectrostatic_energy": 9.02, 
			 "SMD_solvation_energy": 3.98 
		},
		"coords": [
			{
				"x": 2.2421464475,
				"y": -2.2652526235,
				"z": -1.3045309247,
				"element": "N" 
			},
			{
				"x": 1.1831734622,
				"y": -1.2529106719,
				"z": -1.2073110348,
				"element": "C" 
			},
			{
				"x": -0.024224676,
				"y": -1.7643107815,
				"z": -2.0034865504,
				"element": "C" 
			},
			{
				"x": 0.3318696879,
				"y": -2.0908826234,
				"z": -3.3478612524,
				"element": "O" 
			},
			{
				"x": 0.8672783585,
				"y": -1.0704337358,
				"z": 0.3068469596,
				"element": "C" 
			},
			{
				"x": 0.6425111045,
				"y": -2.3418694795,
				"z": 0.8799705066,
				"element": "O" 
			},
			{
				"x": -0.3095196153,
				"y": -0.1504524125,
				"z": 0.5691605188,
				"element": "C" 
			},
			{
				"x": -0.174187328,
				"y": 1.2303061815,
				"z": 0.3689647604,
				"element": "C" 
			},
			{
				"x": -1.2525058771,
				"y": 2.089890824,
				"z": 0.5785337762,
				"element": "C" 
			},
			{
				"x": -2.4815720314,
				"y": 1.5792385993,
				"z": 1.0026655736,
				"element": "C" 
			},
			{
				"x": -2.619848684,
				"y": 0.2069385934,
				"z": 1.2167083297,
				"element": "C" 
			},
			{
				"x": -1.5417097171,
				"y": -0.653985335,
				"z": 1.0009650705,
				"element": "C" 
			},
			{
				"x": 2.245401402,
				"y": -2.6434439266,
				"z": -2.2490983951,
				"element": "H" 
			},
			{
				"x": 3.1572463084,
				"y": -1.8616992383,
				"z": -1.1237956734,
				"element": "H" 
			},
			{
				"x": 1.4805437471,
				"y": -0.2722313126,
				"z": -1.6196726743,
				"element": "H" 
			},
			{
				"x": -0.8380198984,
				"y": -1.0310566883,
				"z": -1.9681922442,
				"element": "H" 
			},
			{
				"x": -0.3835908628,
				"y": -2.6927386716,
				"z": -1.5527413448,
				"element": "H" 
			},
			{
				"x": 0.4870587636,
				"y": -1.262564156,
				"z": -3.8206234023,
				"element": "H" 
			},
			{
				"x": 1.7646817726,
				"y": -0.6043952242,
				"z": 0.7561904891,
				"element": "H" 
			},
			{
				"x": 1.270907023,
				"y": -2.9187143493,
				"z": 0.4043660328,
				"element": "H" 
			},
			{
				"x": 0.785327374,
				"y": 1.638120733,
				"z": 0.0573176168,
				"element": "H" 
			},
			{
				"x": -1.1309679652,
				"y": 3.1579653119,
				"z": 0.4201462615,
				"element": "H" 
			},
			{
				"x": -3.3210089928,
				"y": 2.2474505533,
				"z": 1.1728175168,
				"element": "H" 
			},
			{
				"x": -3.569734055,
				"y": -0.1966893968,
				"z": 1.5567134335,
				"element": "H" 
			},
			{
				"x": -1.6361557481,
				"y": -1.7196801694,
				"z": 1.1757466506,
				"element": "H" 
			}
		],
		 "valence_orbital": [ 
			{
				"type": "occ",
				"energy": -0.28598,
				"method": "rhf"
			},
			{
				"type": "occ",
				"energy": -0.26336,
				"method": "rhf"
			},
			{
				"type": "occ",
				"energy": -0.25602,
				"method": "rhf"
			},
			{
				"type": "occ",
				"energy": -0.24487,
				"method": "rhf"
			},
			{
				"type": "occ",
				"energy": -0.23219,
				"method": "rhf"
			},
			{
				"type": "unocc",
				"energy": 0.00053,
				"method": "rhf"
			},
			{
				"type": "unocc",
				"energy": 0.00432,
				"method": "rhf"
			},
			{
				"type": "unocc",
				"energy": 0.06275,
				"method": "rhf"
			},
			{
				"type": "unocc",
				"energy": 0.08678,
				"method": "rhf"
			},
			{
				"type": "unocc",
				"energy": 0.09903,
				"method": "rhf"
			}
		],
		"cosmo_sigma_profile": { 
			"-0.025": 0.0,
			"-0.024": 0.0,
			"-0.023": 0.0,
			"-0.022": 0.0,
			"-0.021": 0.0,
			"-0.02": 0.0,
			"-0.019": 0.0,
			"-0.018": 0.0,
			"-0.017": 0.0,
			"-0.016": 0.320064903165,
			"-0.015": 0.910245347888,
			"-0.014": 1.42501059361,
			"-0.013": 0.806109390185,
			"-0.012": 1.06978174656,
			"-0.011": 1.12255241913,
			"-0.01": 2.29863613786,
			"-0.009": 2.90602393996,
			"-0.008": 3.09526184648,
			"-0.007": 3.69082822952,
			"-0.006": 7.76729849172,
			"-0.005": 14.7557361263,
			"-0.004": 19.1785283248,
			"-0.003": 20.0687380179,
			"-0.002": 14.2973098555,
			"-0.001": 13.9632655277,
			"0.0": 13.1966186074,
			"0.001": 12.6706185147,
			"0.002": 10.9372777651,
			"0.003": 10.9743815012,
			"0.004": 10.8326538357,
			"0.005": 12.2142951553,
			"0.006": 10.7439311279,
			"0.007": 4.35350229105,
			"0.008": 2.65776425803,
			"0.009": 3.36273653305,
			"0.01": 2.76499189501,
			"0.011": 2.50147380676,
			"0.012": 2.66240175386,
			"0.013": 1.75989442402,
			"0.014": 2.83542180423,
			"0.015": 0.461218289371,
			"0.016": 0.0,
			"0.017": 0.0,
			"0.018": 0.0,
			"0.019": 0.0,
			"0.02": 0.0,
			"0.021": 0.0,
			"0.022": 0.0,
			"0.023": 0.0,
			"0.024": 0.0,
			"0.025": 0.0
		}
	}
}
