{
	 "smiles": "CCC1=CC(C)=C(C)C=C1C", 
	 "Tm": 259.35, 
	 "num_atms": 27, 
	 "gaussian": { 
		 "optdone": 1, 
		 "sigma_profile": "yes", 
		 "theory": "DFT", 
		 "functional": "B3LYP", 
		 "basiset": "6-31G**", 
		 "properties": { 
			 "R2extent": 2352.0419, 
			 "electric_dipole_moment_norm": 0.0794625698049, 
			 "electric_quadrupole_moment_norm": 4.41221672632, 
			 "total_energy": -428.845343454, 
			 "HOMO_LUMO_gap": 0.2252, 
			 "cosmo_polarized_energy": -3.25, 
			 "cosmo_cavitation_energy": 28.38, 
			 "cosmo_dispersion_energy": -20.28, 
			 "cosmo_repulsion_energy": 1.63, 
			 "cosmo_total_nonelectrostatic_energy": 9.73, 
			 "SMD_solvation_energy": 4.86 
		},
		"coords": [
			{
				"x": -2.0416022257,
				"y": 3.1012611693,
				"z": 2.1495280207,
				"element": "C" 
			},
			{
				"x": -2.2317745031,
				"y": 1.5832790115,
				"z": 1.9697977382,
				"element": "C" 
			},
			{
				"x": -1.1380123106,
				"y": 0.9396495332,
				"z": 1.140095326,
				"element": "C" 
			},
			{
				"x": 0.0012196982,
				"y": 0.4365638865,
				"z": 1.779787659,
				"element": "C" 
			},
			{
				"x": 1.0713697873,
				"y": -0.1397068239,
				"z": 1.0901070078,
				"element": "C" 
			},
			{
				"x": 2.2718518809,
				"y": -0.6644176116,
				"z": 1.8415462263,
				"element": "C" 
			},
			{
				"x": 0.9984555495,
				"y": -0.221380837,
				"z": -0.3143951328,
				"element": "C" 
			},
			{
				"x": 2.1191399,
				"y": -0.8352159287,
				"z": -1.1196011003,
				"element": "C" 
			},
			{
				"x": -0.1406145293,
				"y": 0.2759531394,
				"z": -0.9539064665,
				"element": "C" 
			},
			{
				"x": -1.2119172853,
				"y": 0.855615385,
				"z": -0.2636725241,
				"element": "C" 
			},
			{
				"x": -2.4139667772,
				"y": 1.3575186408,
				"z": -1.0329775843,
				"element": "C" 
			},
			{
				"x": -1.0908951499,
				"y": 3.3167929511,
				"z": 2.647736999,
				"element": "H" 
			},
			{
				"x": -2.0315859478,
				"y": 3.6202614591,
				"z": 1.185602951,
				"element": "H" 
			},
			{
				"x": -2.8476927849,
				"y": 3.5298050219,
				"z": 2.7549170747,
				"element": "H" 
			},
			{
				"x": -3.2127279862,
				"y": 1.3942199574,
				"z": 1.519336857,
				"element": "H" 
			},
			{
				"x": -2.2541654996,
				"y": 1.1111644437,
				"z": 2.9592374675,
				"element": "H" 
			},
			{
				"x": 0.0541912444,
				"y": 0.4951287729,
				"z": 2.8659115892,
				"element": "H" 
			},
			{
				"x": 3.1961416456,
				"y": -0.1586847375,
				"z": 1.5354590325,
				"element": "H" 
			},
			{
				"x": 2.1563464013,
				"y": -0.5209024182,
				"z": 2.919298711,
				"element": "H" 
			},
			{
				"x": 2.4276255763,
				"y": -1.7356708987,
				"z": 1.6629594179,
				"element": "H" 
			},
			{
				"x": 2.2979347197,
				"y": -1.8802678241,
				"z": -0.8373075171,
				"element": "H" 
			},
			{
				"x": 3.0670601795,
				"y": -0.3038817294,
				"z": -0.9683563666,
				"element": "H" 
			},
			{
				"x": 1.8939004555,
				"y": -0.8143116974,
				"z": -2.1893135047,
				"element": "H" 
			},
			{
				"x": -0.1981089845,
				"y": 0.2077144193,
				"z": -2.0387482651,
				"element": "H" 
			},
			{
				"x": -2.2699432204,
				"y": 1.2257091333,
				"z": -2.1088746612,
				"element": "H" 
			},
			{
				"x": -3.3288026357,
				"y": 0.8195414643,
				"z": -0.7555177432,
				"element": "H" 
			},
			{
				"x": -2.6057271982,
				"y": 2.4214621181,
				"z": -0.8535512118,
				"element": "H" 
			}
		],
		 "valence_orbital": [ 
			{
				"type": "occ",
				"energy": -0.32026,
				"method": "rhf"
			},
			{
				"type": "occ",
				"energy": -0.31788,
				"method": "rhf"
			},
			{
				"type": "occ",
				"energy": -0.31204,
				"method": "rhf"
			},
			{
				"type": "occ",
				"energy": -0.2296,
				"method": "rhf"
			},
			{
				"type": "occ",
				"energy": -0.21576,
				"method": "rhf"
			},
			{
				"type": "unocc",
				"energy": 0.00944,
				"method": "rhf"
			},
			{
				"type": "unocc",
				"energy": 0.01559,
				"method": "rhf"
			},
			{
				"type": "unocc",
				"energy": 0.09413,
				"method": "rhf"
			},
			{
				"type": "unocc",
				"energy": 0.09896,
				"method": "rhf"
			},
			{
				"type": "unocc",
				"energy": 0.11848,
				"method": "rhf"
			}
		],
		"cosmo_sigma_profile": { 
			"-0.025": 0.0,
			"-0.024": 0.0,
			"-0.023": 0.0,
			"-0.022": 0.0,
			"-0.021": 0.0,
			"-0.02": 0.0,
			"-0.019": 0.0,
			"-0.018": 0.0,
			"-0.017": 0.0,
			"-0.016": 0.0,
			"-0.015": 0.0,
			"-0.014": 0.0,
			"-0.013": 0.0,
			"-0.012": 0.0,
			"-0.011": 0.0,
			"-0.01": 0.0,
			"-0.009": 0.0,
			"-0.008": 0.0,
			"-0.007": 0.0,
			"-0.006": 0.0,
			"-0.005": 0.22611051849,
			"-0.004": 13.909398544,
			"-0.003": 32.3503414209,
			"-0.002": 27.9678963894,
			"-0.001": 30.6669132981,
			"0.0": 36.2312348526,
			"0.001": 31.2501954822,
			"0.002": 13.4917774346,
			"0.003": 7.67474715074,
			"0.004": 6.88369804346,
			"0.005": 5.82037749418,
			"0.006": 6.49466395467,
			"0.007": 6.16711190267,
			"0.008": 2.206890073,
			"0.009": 0.0,
			"0.01": 0.0,
			"0.011": 0.0,
			"0.012": 0.0,
			"0.013": 0.0,
			"0.014": 0.0,
			"0.015": 0.0,
			"0.016": 0.0,
			"0.017": 0.0,
			"0.018": 0.0,
			"0.019": 0.0,
			"0.02": 0.0,
			"0.021": 0.0,
			"0.022": 0.0,
			"0.023": 0.0,
			"0.024": 0.0,
			"0.025": 0.0
		}
	}
}
