{
	 "smiles": "COC1=CC(OC)=C(NC(=O)CC(C)=O)C=C1", 
	 "Tm": 370.15, 
	 "num_atms": 32, 
	 "gaussian": { 
		 "optdone": 1, 
		 "sigma_profile": "yes", 
		 "theory": "DFT", 
		 "functional": "B3LYP", 
		 "basiset": "6-31G**", 
		 "properties": { 
			 "R2extent": 5665.9884, 
			 "electric_dipole_moment_norm": 3.55518354238, 
			 "electric_quadrupole_moment_norm": 5.37417236698, 
			 "total_energy": -821.955828353, 
			 "HOMO_LUMO_gap": 0.17782, 
			 "cosmo_polarized_energy": -14.75, 
			 "cosmo_cavitation_energy": 35.66, 
			 "cosmo_dispersion_energy": -25.48, 
			 "cosmo_repulsion_energy": 1.99, 
			 "cosmo_total_nonelectrostatic_energy": 12.17, 
			 "SMD_solvation_energy": 8.96 
		},
		"coords": [
			{
				"x": 3.0827934574,
				"y": -2.3346716141,
				"z": -3.3761552233,
				"element": "C" 
			},
			{
				"x": 1.8418916277,
				"y": -1.6605816454,
				"z": -3.51670592,
				"element": "O" 
			},
			{
				"x": 1.3527442442,
				"y": -0.985648422,
				"z": -2.4355362636,
				"element": "C" 
			},
			{
				"x": 0.1147482851,
				"y": -0.3537355294,
				"z": -2.6424474841,
				"element": "C" 
			},
			{
				"x": -0.4733244494,
				"y": 0.374024012,
				"z": -1.6154671802,
				"element": "C" 
			},
			{
				"x": -1.6767555428,
				"y": 1.0137294334,
				"z": -1.7120550487,
				"element": "O" 
			},
			{
				"x": -2.3962742599,
				"y": 0.9160652974,
				"z": -2.9330495355,
				"element": "C" 
			},
			{
				"x": 0.1640939344,
				"y": 0.4811387556,
				"z": -0.3535439549,
				"element": "C" 
			},
			{
				"x": -0.5144895056,
				"y": 1.2075801377,
				"z": 0.6546711924,
				"element": "N" 
			},
			{
				"x": -0.0815217163,
				"y": 2.1227076032,
				"z": 1.5811660623,
				"element": "C" 
			},
			{
				"x": -0.8760688368,
				"y": 2.6542913719,
				"z": 2.3503568142,
				"element": "O" 
			},
			{
				"x": 1.4094354805,
				"y": 2.462457189,
				"z": 1.6429204889,
				"element": "C" 
			},
			{
				"x": 2.0354248167,
				"y": 1.8084520549,
				"z": 2.882396347,
				"element": "C" 
			},
			{
				"x": 1.8016590641,
				"y": 2.518433964,
				"z": 4.1942604038,
				"element": "C" 
			},
			{
				"x": 2.653961749,
				"y": 0.7629458461,
				"z": 2.7956807566,
				"element": "O" 
			},
			{
				"x": 1.369440801,
				"y": -0.1882175209,
				"z": -0.1559645141,
				"element": "C" 
			},
			{
				"x": 1.9820052719,
				"y": -0.9023474345,
				"z": -1.1933943347,
				"element": "C" 
			},
			{
				"x": 3.285769929,
				"y": -2.7971990124,
				"z": -4.3433025688,
				"element": "H" 
			},
			{
				"x": 3.034589185,
				"y": -3.114708036,
				"z": -2.6056373214,
				"element": "H" 
			},
			{
				"x": 3.8955022853,
				"y": -1.6391621671,
				"z": -3.1304853403,
				"element": "H" 
			},
			{
				"x": -0.348645854,
				"y": -0.4494297322,
				"z": -3.615929281,
				"element": "H" 
			},
			{
				"x": -3.3176460064,
				"y": 1.4808640208,
				"z": -2.7849482171,
				"element": "H" 
			},
			{
				"x": -1.8322334175,
				"y": 1.3540998048,
				"z": -3.7655998784,
				"element": "H" 
			},
			{
				"x": -2.6414021517,
				"y": -0.1260032627,
				"z": -3.1725943965,
				"element": "H" 
			},
			{
				"x": -1.5264160424,
				"y": 1.1819646982,
				"z": 0.5997152521,
				"element": "H" 
			},
			{
				"x": 1.4546127267,
				"y": 3.5509282448,
				"z": 1.7385675947,
				"element": "H" 
			},
			{
				"x": 1.9514459027,
				"y": 2.1430639939,
				"z": 0.7536032602,
				"element": "H" 
			},
			{
				"x": 2.1407685713,
				"y": 1.8995073092,
				"z": 5.0259278262,
				"element": "H" 
			},
			{
				"x": 2.3465429175,
				"y": 3.4705676847,
				"z": 4.1994535192,
				"element": "H" 
			},
			{
				"x": 0.7372591328,
				"y": 2.7604479862,
				"z": 4.2866446386,
				"element": "H" 
			},
			{
				"x": 1.8491169028,
				"y": -0.1561009472,
				"z": 0.8171159986,
				"element": "H" 
			},
			{
				"x": 2.9259714977,
				"y": -1.3970640837,
				"z": -1.0033636925,
				"element": "H" 
			}
		],
		 "valence_orbital": [ 
			{
				"type": "occ",
				"energy": -0.27453,
				"method": "rhf"
			},
			{
				"type": "occ",
				"energy": -0.25782,
				"method": "rhf"
			},
			{
				"type": "occ",
				"energy": -0.24649,
				"method": "rhf"
			},
			{
				"type": "occ",
				"energy": -0.23701,
				"method": "rhf"
			},
			{
				"type": "occ",
				"energy": -0.20258,
				"method": "rhf"
			},
			{
				"type": "unocc",
				"energy": -0.02476,
				"method": "rhf"
			},
			{
				"type": "unocc",
				"energy": -0.00247,
				"method": "rhf"
			},
			{
				"type": "unocc",
				"energy": 0.00936,
				"method": "rhf"
			},
			{
				"type": "unocc",
				"energy": 0.04112,
				"method": "rhf"
			},
			{
				"type": "unocc",
				"energy": 0.08804,
				"method": "rhf"
			}
		],
		"cosmo_sigma_profile": { 
			"-0.025": 0.0,
			"-0.024": 0.0,
			"-0.023": 0.0,
			"-0.022": 0.0,
			"-0.021": 0.0,
			"-0.02": 0.0,
			"-0.019": 0.0,
			"-0.018": 0.0,
			"-0.017": 0.0,
			"-0.016": 0.0,
			"-0.015": 0.0,
			"-0.014": 0.0,
			"-0.013": 0.0081161910345,
			"-0.012": 0.420619663429,
			"-0.011": 0.553363670537,
			"-0.01": 0.529017100994,
			"-0.009": 1.16725695565,
			"-0.008": 1.35844378614,
			"-0.007": 6.35997026738,
			"-0.006": 17.4856923905,
			"-0.005": 27.4653198823,
			"-0.004": 30.0778377711,
			"-0.003": 30.1543179241,
			"-0.002": 23.2596140644,
			"-0.001": 17.2961573393,
			"0.0": 15.0259266425,
			"0.001": 12.7483756762,
			"0.002": 14.235694747,
			"0.003": 16.4123273154,
			"0.004": 17.5504003719,
			"0.005": 10.1512253546,
			"0.006": 5.60286493356,
			"0.007": 4.95763768248,
			"0.008": 3.96798521747,
			"0.009": 5.44533822547,
			"0.01": 5.3124170797,
			"0.011": 4.40606884675,
			"0.012": 4.28784211348,
			"0.013": 4.86431406576,
			"0.014": 1.46629891291,
			"0.015": 0.0,
			"0.016": 0.0,
			"0.017": 0.0,
			"0.018": 0.0,
			"0.019": 0.0,
			"0.02": 0.0,
			"0.021": 0.0,
			"0.022": 0.0,
			"0.023": 0.0,
			"0.024": 0.0,
			"0.025": 0.0
		}
	}
}
