{
	 "smiles": "NC1=CC=C(CC(O)=O)C=C1", 
	 "Tm": 473.15, 
	 "num_atms": 20, 
	 "gaussian": { 
		 "optdone": 1, 
		 "sigma_profile": "yes", 
		 "theory": "DFT", 
		 "functional": "B3LYP", 
		 "basiset": "6-31G**", 
		 "properties": { 
			 "R2extent": 2619.331, 
			 "electric_dipole_moment_norm": 2.57344328478, 
			 "electric_quadrupole_moment_norm": 10.5946925373, 
			 "total_energy": -515.494827488, 
			 "HOMO_LUMO_gap": 0.20147, 
			 "cosmo_polarized_energy": -14.03, 
			 "cosmo_cavitation_energy": 24.54, 
			 "cosmo_dispersion_energy": -17.78, 
			 "cosmo_repulsion_energy": 1.45, 
			 "cosmo_total_nonelectrostatic_energy": 8.22, 
			 "SMD_solvation_energy": 5.24 
		},
		"coords": [
			{
				"x": -0.5544177092,
				"y": 3.1392481819,
				"z": -0.107650403,
				"element": "N" 
			},
			{
				"x": -0.5415209662,
				"y": 1.749856595,
				"z": -0.248275446,
				"element": "C" 
			},
			{
				"x": -1.6445158621,
				"y": 0.9756410168,
				"z": 0.1545330163,
				"element": "C" 
			},
			{
				"x": -1.6063544163,
				"y": -0.4117657366,
				"z": 0.0701621024,
				"element": "C" 
			},
			{
				"x": -0.472770163,
				"y": -1.0782701027,
				"z": -0.4153493224,
				"element": "C" 
			},
			{
				"x": -0.4427567792,
				"y": -2.5964019495,
				"z": -0.5037418078,
				"element": "C" 
			},
			{
				"x": -1.4688240289,
				"y": -3.1020160453,
				"z": -1.5003336323,
				"element": "C" 
			},
			{
				"x": -0.9379699079,
				"y": -3.2822119379,
				"z": -2.733730656,
				"element": "O" 
			},
			{
				"x": -2.6406176579,
				"y": -3.2985119163,
				"z": -1.2600861761,
				"element": "O" 
			},
			{
				"x": 0.6197857641,
				"y": -0.3055967604,
				"z": -0.821510552,
				"element": "C" 
			},
			{
				"x": 0.593510338,
				"y": 1.084788075,
				"z": -0.7398210304,
				"element": "C" 
			},
			{
				"x": -1.4732469784,
				"y": 3.5603682414,
				"z": -0.0979624646,
				"element": "H" 
			},
			{
				"x": 0.0802549986,
				"y": 3.6378841144,
				"z": -0.7160978373,
				"element": "H" 
			},
			{
				"x": -2.5331264662,
				"y": 1.4699026681,
				"z": 0.5400228935,
				"element": "H" 
			},
			{
				"x": -2.4744773989,
				"y": -0.9903979617,
				"z": 0.3736386856,
				"element": "H" 
			},
			{
				"x": 0.5522289341,
				"y": -2.9376865195,
				"z": -0.7989254062,
				"element": "H" 
			},
			{
				"x": -0.6934453869,
				"y": -3.0435933411,
				"z": 0.4632453985,
				"element": "H" 
			},
			{
				"x": -1.6751481655,
				"y": -3.558090993,
				"z": -3.3046254993,
				"element": "H" 
			},
			{
				"x": 1.5095626306,
				"y": -0.7956098186,
				"z": -1.2091303118,
				"element": "H" 
			},
			{
				"x": 1.4594492211,
				"y": 1.6620641901,
				"z": -1.0549615512,
				"element": "H" 
			}
		],
		 "valence_orbital": [ 
			{
				"type": "occ",
				"energy": -0.31311,
				"method": "rhf"
			},
			{
				"type": "occ",
				"energy": -0.30378,
				"method": "rhf"
			},
			{
				"type": "occ",
				"energy": -0.2693,
				"method": "rhf"
			},
			{
				"type": "occ",
				"energy": -0.24592,
				"method": "rhf"
			},
			{
				"type": "occ",
				"energy": -0.1998,
				"method": "rhf"
			},
			{
				"type": "unocc",
				"energy": 0.00167,
				"method": "rhf"
			},
			{
				"type": "unocc",
				"energy": 0.00296,
				"method": "rhf"
			},
			{
				"type": "unocc",
				"energy": 0.02984,
				"method": "rhf"
			},
			{
				"type": "unocc",
				"energy": 0.08085,
				"method": "rhf"
			},
			{
				"type": "unocc",
				"energy": 0.08361,
				"method": "rhf"
			}
		],
		"cosmo_sigma_profile": { 
			"-0.025": 0.0,
			"-0.024": 0.0,
			"-0.023": 0.0,
			"-0.022": 0.0,
			"-0.021": 0.0,
			"-0.02": 0.0,
			"-0.019": 0.0,
			"-0.018": 0.406818816089,
			"-0.017": 1.11536358958,
			"-0.016": 0.81958246661,
			"-0.015": 1.08065990682,
			"-0.014": 0.475208201689,
			"-0.013": 0.969945512896,
			"-0.012": 2.84217837666,
			"-0.011": 3.35662773967,
			"-0.01": 4.23664680766,
			"-0.009": 3.56113546705,
			"-0.008": 3.42993350541,
			"-0.007": 3.42381836542,
			"-0.006": 9.24437402796,
			"-0.005": 12.1234903631,
			"-0.004": 12.6292436152,
			"-0.003": 15.3961274003,
			"-0.002": 11.0393896386,
			"-0.001": 8.92076231848,
			"0.0": 8.34883842401,
			"0.001": 8.51148555033,
			"0.002": 8.47701772436,
			"0.003": 10.3698552522,
			"0.004": 9.75509155254,
			"0.005": 11.4224133259,
			"0.006": 12.4270681893,
			"0.007": 7.36636321798,
			"0.008": 3.54807616988,
			"0.009": 4.285634929,
			"0.01": 3.14244665378,
			"0.011": 3.90871763,
			"0.012": 5.06460495157,
			"0.013": 1.44201111609,
			"0.014": 0.558509160329,
			"0.015": 0.268097755497,
			"0.016": 0.0,
			"0.017": 0.0,
			"0.018": 0.0,
			"0.019": 0.0,
			"0.02": 0.0,
			"0.021": 0.0,
			"0.022": 0.0,
			"0.023": 0.0,
			"0.024": 0.0,
			"0.025": 0.0
		}
	}
}
