{
	 "smiles": "NC(=O)C1=CC=C(OCCC(O)=O)C=C1", 
	 "Tm": 488.15, 
	 "num_atms": 26, 
	 "gaussian": { 
		 "optdone": 1, 
		 "sigma_profile": "yes", 
		 "theory": "DFT", 
		 "functional": "B3LYP", 
		 "basiset": "6-31G**", 
		 "properties": { 
			 "R2extent": 5899.921, 
			 "electric_dipole_moment_norm": 4.61712195529, 
			 "electric_quadrupole_moment_norm": 19.5099352874, 
			 "total_energy": -743.36859022, 
			 "HOMO_LUMO_gap": 0.20017, 
			 "cosmo_polarized_energy": -21.81, 
			 "cosmo_cavitation_energy": 31.4, 
			 "cosmo_dispersion_energy": -22.68, 
			 "cosmo_repulsion_energy": 1.82, 
			 "cosmo_total_nonelectrostatic_energy": 10.53, 
			 "SMD_solvation_energy": 7.47 
		},
		"coords": [
			{
				"x": -1.9180901137,
				"y": -1.2866470621,
				"z": -5.5321751614,
				"element": "N" 
			},
			{
				"x": -2.3292761577,
				"y": -0.566614123,
				"z": -4.4299980938,
				"element": "C" 
			},
			{
				"x": -3.3977053549,
				"y": 0.0341222972,
				"z": -4.4214679414,
				"element": "O" 
			},
			{
				"x": -1.3895529025,
				"y": -0.5376507139,
				"z": -3.2650945818,
				"element": "C" 
			},
			{
				"x": -0.0375500277,
				"y": -0.8872800648,
				"z": -3.3469792199,
				"element": "C" 
			},
			{
				"x": 0.7931644621,
				"y": -0.8350314282,
				"z": -2.2263290569,
				"element": "C" 
			},
			{
				"x": 0.2644436483,
				"y": -0.4262892253,
				"z": -0.9952585155,
				"element": "C" 
			},
			{
				"x": 0.978952128,
				"y": -0.3380055202,
				"z": 0.1608709569,
				"element": "O" 
			},
			{
				"x": 2.3585686942,
				"y": -0.6987713536,
				"z": 0.1483224304,
				"element": "C" 
			},
			{
				"x": 2.8585289835,
				"y": -0.5817559283,
				"z": 1.5784713785,
				"element": "C" 
			},
			{
				"x": 2.3197960482,
				"y": -1.6934414051,
				"z": 2.459625195,
				"element": "C" 
			},
			{
				"x": 2.2298157818,
				"y": -1.3076774754,
				"z": 3.7518588166,
				"element": "O" 
			},
			{
				"x": 2.0346822503,
				"y": -2.8079464577,
				"z": 2.0823053942,
				"element": "O" 
			},
			{
				"x": -1.0887879996,
				"y": -0.0598045901,
				"z": -0.9043428282,
				"element": "C" 
			},
			{
				"x": -1.8980276521,
				"y": -0.1096309223,
				"z": -2.0270999951,
				"element": "C" 
			},
			{
				"x": -1.2709004648,
				"y": -2.0514003681,
				"z": -5.4177119274,
				"element": "H" 
			},
			{
				"x": -2.6230652507,
				"y": -1.399709949,
				"z": -6.2468526953,
				"element": "H" 
			},
			{
				"x": 0.3980499811,
				"y": -1.173469688,
				"z": -4.2999924518,
				"element": "H" 
			},
			{
				"x": 1.8380266571,
				"y": -1.1031380411,
				"z": -2.3251366481,
				"element": "H" 
			},
			{
				"x": 2.9201642196,
				"y": -0.023897512,
				"z": -0.5111439142,
				"element": "H" 
			},
			{
				"x": 2.4803940264,
				"y": -1.7294607423,
				"z": -0.2045693634,
				"element": "H" 
			},
			{
				"x": 3.9530836293,
				"y": -0.660273355,
				"z": 1.5887487914,
				"element": "H" 
			},
			{
				"x": 2.599828083,
				"y": 0.3913039253,
				"z": 2.0030123557,
				"element": "H" 
			},
			{
				"x": 1.9114422335,
				"y": -2.0822352383,
				"z": 4.2462505356,
				"element": "H" 
			},
			{
				"x": -1.4740554028,
				"y": 0.2604773666,
				"z": 0.0580626482,
				"element": "H" 
			},
			{
				"x": -2.9419294998,
				"y": 0.1805275749,
				"z": -1.9754761082,
				"element": "H" 
			}
		],
		 "valence_orbital": [ 
			{
				"type": "occ",
				"energy": -0.28517,
				"method": "rhf"
			},
			{
				"type": "occ",
				"energy": -0.26777,
				"method": "rhf"
			},
			{
				"type": "occ",
				"energy": -0.25769,
				"method": "rhf"
			},
			{
				"type": "occ",
				"energy": -0.24414,
				"method": "rhf"
			},
			{
				"type": "occ",
				"energy": -0.22679,
				"method": "rhf"
			},
			{
				"type": "unocc",
				"energy": -0.02662,
				"method": "rhf"
			},
			{
				"type": "unocc",
				"energy": -0.0068,
				"method": "rhf"
			},
			{
				"type": "unocc",
				"energy": 0.00128,
				"method": "rhf"
			},
			{
				"type": "unocc",
				"energy": 0.06621,
				"method": "rhf"
			},
			{
				"type": "unocc",
				"energy": 0.07222,
				"method": "rhf"
			}
		],
		"cosmo_sigma_profile": { 
			"-0.025": 0.0,
			"-0.024": 0.0,
			"-0.023": 0.0,
			"-0.022": 0.0,
			"-0.021": 0.0,
			"-0.02": 0.0,
			"-0.019": 0.0670551676873,
			"-0.018": 0.705682405257,
			"-0.017": 1.15698145807,
			"-0.016": 0.812745205609,
			"-0.015": 0.49842337052,
			"-0.014": 1.72758406141,
			"-0.013": 3.2292684201,
			"-0.012": 3.17298997763,
			"-0.011": 3.1423121482,
			"-0.01": 2.80274314611,
			"-0.009": 3.72195852026,
			"-0.008": 5.72665449008,
			"-0.007": 9.49581952872,
			"-0.006": 17.25744004,
			"-0.005": 17.4159175364,
			"-0.004": 15.0059424323,
			"-0.003": 10.8872301477,
			"-0.002": 10.8503783995,
			"-0.001": 9.5858862967,
			"0.0": 12.6783284617,
			"0.001": 12.163176642,
			"0.002": 14.5860259082,
			"0.003": 16.6064746636,
			"0.004": 18.2988436987,
			"0.005": 8.57559390784,
			"0.006": 7.43881311757,
			"0.007": 5.82821127969,
			"0.008": 5.99029389683,
			"0.009": 5.3551274242,
			"0.01": 3.976369733,
			"0.011": 5.16400421522,
			"0.012": 5.82527695375,
			"0.013": 3.89428751642,
			"0.014": 4.60029838366,
			"0.015": 0.562748597273,
			"0.016": 0.0,
			"0.017": 0.0,
			"0.018": 0.0,
			"0.019": 0.0,
			"0.02": 0.0,
			"0.021": 0.0,
			"0.022": 0.0,
			"0.023": 0.0,
			"0.024": 0.0,
			"0.025": 0.0
		}
	}
}
