{
	 "smiles": "ClC1=CC=C(C=C1)C#N", 
	 "Tm": 366.65, 
	 "num_atms": 13, 
	 "gaussian": { 
		 "optdone": 1, 
		 "sigma_profile": "yes", 
		 "theory": "DFT", 
		 "functional": "B3LYP", 
		 "basiset": "6-31G**", 
		 "properties": { 
			 "R2extent": 1910.4869, 
			 "electric_dipole_moment_norm": 2.82567553339, 
			 "electric_quadrupole_moment_norm": 18.4719944819, 
			 "total_energy": -784.081951696, 
			 "HOMO_LUMO_gap": 0.20236, 
			 "cosmo_polarized_energy": -8.31, 
			 "cosmo_cavitation_energy": 20.49, 
			 "cosmo_dispersion_energy": -14.77, 
			 "cosmo_repulsion_energy": 1.21, 
			 "cosmo_total_nonelectrostatic_energy": 6.93, 
			 "SMD_solvation_energy": 4.73 
		},
		"coords": [
			{
				"x": -0.3585215602,
				"y": -3.6598341245,
				"z": -0.7254344439,
				"element": "Cl" 
			},
			{
				"x": -0.1411490324,
				"y": -1.9227490606,
				"z": -0.7672400718,
				"element": "C" 
			},
			{
				"x": 1.1442636278,
				"y": -1.3971294654,
				"z": -0.9135811251,
				"element": "C" 
			},
			{
				"x": 1.3152984591,
				"y": -0.0169122286,
				"z": -0.9465603274,
				"element": "C" 
			},
			{
				"x": 0.2040404608,
				"y": 0.8355769278,
				"z": -0.8335289966,
				"element": "C" 
			},
			{
				"x": -1.0822618132,
				"y": 0.2893773779,
				"z": -0.6869257763,
				"element": "C" 
			},
			{
				"x": -1.2566235409,
				"y": -1.0904161845,
				"z": -0.6535829492,
				"element": "C" 
			},
			{
				"x": 0.382001047,
				"y": 2.2575773529,
				"z": -0.8676110199,
				"element": "C" 
			},
			{
				"x": 0.526497747,
				"y": 3.4114963684,
				"z": -0.8952506484,
				"element": "N" 
			},
			{
				"x": 1.9963825535,
				"y": -2.0615305265,
				"z": -1.0001581868,
				"element": "H" 
			},
			{
				"x": 2.3077895767,
				"y": 0.4056996718,
				"z": -1.0596941534,
				"element": "H" 
			},
			{
				"x": -1.9394097993,
				"y": 0.9482672597,
				"z": -0.5997589259,
				"element": "H" 
			},
			{
				"x": -2.2456077258,
				"y": -1.5196233684,
				"z": -0.5407733754,
				"element": "H" 
			}
		],
		 "valence_orbital": [ 
			{
				"type": "occ",
				"energy": -0.33823,
				"method": "rhf"
			},
			{
				"type": "occ",
				"energy": -0.33502,
				"method": "rhf"
			},
			{
				"type": "occ",
				"energy": -0.33168,
				"method": "rhf"
			},
			{
				"type": "occ",
				"energy": -0.29099,
				"method": "rhf"
			},
			{
				"type": "occ",
				"energy": -0.26589,
				"method": "rhf"
			},
			{
				"type": "unocc",
				"energy": -0.06353,
				"method": "rhf"
			},
			{
				"type": "unocc",
				"energy": -0.03924,
				"method": "rhf"
			},
			{
				"type": "unocc",
				"energy": 0.01053,
				"method": "rhf"
			},
			{
				"type": "unocc",
				"energy": 0.02887,
				"method": "rhf"
			},
			{
				"type": "unocc",
				"energy": 0.06403,
				"method": "rhf"
			}
		],
		"cosmo_sigma_profile": { 
			"-0.025": 0.0,
			"-0.024": 0.0,
			"-0.023": 0.0,
			"-0.022": 0.0,
			"-0.021": 0.0,
			"-0.02": 0.0,
			"-0.019": 0.0,
			"-0.018": 0.0,
			"-0.017": 0.0,
			"-0.016": 0.0,
			"-0.015": 0.0,
			"-0.014": 0.0,
			"-0.013": 0.0,
			"-0.012": 0.0,
			"-0.011": 0.0,
			"-0.01": 0.0,
			"-0.009": 2.23626208623,
			"-0.008": 9.03199793736,
			"-0.007": 9.77825818315,
			"-0.006": 6.94059157241,
			"-0.005": 6.75952330598,
			"-0.004": 6.78729243779,
			"-0.003": 7.90758967925,
			"-0.002": 12.0556627053,
			"-0.001": 14.0203308577,
			"0.0": 18.5082192333,
			"0.001": 21.3017914645,
			"0.002": 8.79279992468,
			"0.003": 10.2942018458,
			"0.004": 9.85387015431,
			"0.005": 3.02057079767,
			"0.006": 2.20663136417,
			"0.007": 3.19509783456,
			"0.008": 3.47847345254,
			"0.009": 3.23244860349,
			"0.01": 3.12455160473,
			"0.011": 2.63549260212,
			"0.012": 2.48985547437,
			"0.013": 1.17581390563,
			"0.014": 0.0,
			"0.015": 0.0,
			"0.016": 0.0,
			"0.017": 0.0,
			"0.018": 0.0,
			"0.019": 0.0,
			"0.02": 0.0,
			"0.021": 0.0,
			"0.022": 0.0,
			"0.023": 0.0,
			"0.024": 0.0,
			"0.025": 0.0
		}
	}
}
