{
	 "smiles": "OCC1=CN=C(S1)C1=CC=C(C=C1)C(F)(F)F", 
	 "Tm": 370.15, 
	 "num_atms": 25, 
	 "gaussian": { 
		 "optdone": 1, 
		 "sigma_profile": "yes", 
		 "theory": "DFT", 
		 "functional": "B3LYP", 
		 "basiset": "6-31G**", 
		 "properties": { 
			 "R2extent": 7188.3971, 
			 "electric_dipole_moment_norm": 2.38478028128, 
			 "electric_quadrupole_moment_norm": 13.7300512293, 
			 "total_energy": -1251.66695005, 
			 "HOMO_LUMO_gap": 0.16325, 
			 "cosmo_polarized_energy": -11.07, 
			 "cosmo_cavitation_energy": 33.0, 
			 "cosmo_dispersion_energy": -24.1, 
			 "cosmo_repulsion_energy": 1.75, 
			 "cosmo_total_nonelectrostatic_energy": 10.66, 
			 "SMD_solvation_energy": 5.18 
		},
		"coords": [
			{
				"x": -1.3753205379,
				"y": -3.7650020825,
				"z": -4.1650931804,
				"element": "O" 
			},
			{
				"x": -2.0627799584,
				"y": -3.9161210628,
				"z": -2.9282970412,
				"element": "C" 
			},
			{
				"x": -1.4596393755,
				"y": -3.129540149,
				"z": -1.7975698103,
				"element": "C" 
			},
			{
				"x": -0.5370591955,
				"y": -3.536095182,
				"z": -0.8701227495,
				"element": "C" 
			},
			{
				"x": -0.1028627775,
				"y": -2.5977354056,
				"z": 0.0246210892,
				"element": "N" 
			},
			{
				"x": -0.6657069511,
				"y": -1.4348712201,
				"z": -0.1825270416,
				"element": "C" 
			},
			{
				"x": -1.8096636,
				"y": -1.4401727828,
				"z": -1.5302690988,
				"element": "S" 
			},
			{
				"x": -0.3920189908,
				"y": -0.2378174582,
				"z": 0.6231475625,
				"element": "C" 
			},
			{
				"x": 0.522803845,
				"y": -0.3310148265,
				"z": 1.6876607339,
				"element": "C" 
			},
			{
				"x": 0.8078828479,
				"y": 0.7805800303,
				"z": 2.4707511788,
				"element": "C" 
			},
			{
				"x": 0.185919024,
				"y": 2.0050391428,
				"z": 2.2048460273,
				"element": "C" 
			},
			{
				"x": -0.7230476625,
				"y": 2.1097894863,
				"z": 1.1491711231,
				"element": "C" 
			},
			{
				"x": -1.0082087854,
				"y": 0.996988611,
				"z": 0.3645952087,
				"element": "C" 
			},
			{
				"x": 0.4527438792,
				"y": 3.1912650734,
				"z": 3.0909529562,
				"element": "C" 
			},
			{
				"x": 1.7126525839,
				"y": 3.179854224,
				"z": 3.5790760542,
				"element": "F" 
			},
			{
				"x": -0.3805273256,
				"y": 3.2131527428,
				"z": 4.1575666155,
				"element": "F" 
			},
			{
				"x": 0.2798429497,
				"y": 4.359742878,
				"z": 2.4342610038,
				"element": "F" 
			},
			{
				"x": -1.4195391514,
				"y": -2.8346519419,
				"z": -4.42223159,
				"element": "H" 
			},
			{
				"x": -3.131126509,
				"y": -3.6741714882,
				"z": -3.0312086696,
				"element": "H" 
			},
			{
				"x": -1.994789242,
				"y": -4.9798191411,
				"z": -2.681753533,
				"element": "H" 
			},
			{
				"x": -0.1432539611,
				"y": -4.5451980213,
				"z": -0.8129624577,
				"element": "H" 
			},
			{
				"x": 1.0000502991,
				"y": -1.2847986348,
				"z": 1.8807656649,
				"element": "H" 
			},
			{
				"x": 1.520104254,
				"y": 0.7036044801,
				"z": 3.2852476535,
				"element": "H" 
			},
			{
				"x": -1.1980925542,
				"y": 3.0614178319,
				"z": 0.9379875732,
				"element": "H" 
			},
			{
				"x": -1.713363105,
				"y": 1.0961748963,
				"z": -0.4555152726,
				"element": "H" 
			}
		],
		 "valence_orbital": [ 
			{
				"type": "occ",
				"energy": -0.29355,
				"method": "rhf"
			},
			{
				"type": "occ",
				"energy": -0.29228,
				"method": "rhf"
			},
			{
				"type": "occ",
				"energy": -0.27912,
				"method": "rhf"
			},
			{
				"type": "occ",
				"energy": -0.27336,
				"method": "rhf"
			},
			{
				"type": "occ",
				"energy": -0.236,
				"method": "rhf"
			},
			{
				"type": "unocc",
				"energy": -0.07275,
				"method": "rhf"
			},
			{
				"type": "unocc",
				"energy": -0.02313,
				"method": "rhf"
			},
			{
				"type": "unocc",
				"energy": -0.0032,
				"method": "rhf"
			},
			{
				"type": "unocc",
				"energy": 0.00202,
				"method": "rhf"
			},
			{
				"type": "unocc",
				"energy": 0.04109,
				"method": "rhf"
			}
		],
		"cosmo_sigma_profile": { 
			"-0.025": 0.0,
			"-0.024": 0.0,
			"-0.023": 0.0,
			"-0.022": 0.0,
			"-0.021": 0.0,
			"-0.02": 0.0,
			"-0.019": 0.0,
			"-0.018": 0.0,
			"-0.017": 0.0,
			"-0.016": 0.158196442619,
			"-0.015": 0.639532902526,
			"-0.014": 1.15461137404,
			"-0.013": 1.07777118002,
			"-0.012": 1.42967806609,
			"-0.011": 0.885511881205,
			"-0.01": 0.88258641199,
			"-0.009": 1.32691517826,
			"-0.008": 2.88254297056,
			"-0.007": 10.7753288579,
			"-0.006": 15.5907471713,
			"-0.005": 14.2905200577,
			"-0.004": 12.1328473478,
			"-0.003": 13.7344714898,
			"-0.002": 13.3730164595,
			"-0.001": 14.3629646822,
			"0.0": 22.1265392639,
			"0.001": 27.5450050455,
			"0.002": 42.7821083073,
			"0.003": 39.127537243,
			"0.004": 5.34323721085,
			"0.005": 3.46677000117,
			"0.006": 3.04168920237,
			"0.007": 2.70426570102,
			"0.008": 2.63408540105,
			"0.009": 2.39476876788,
			"0.01": 2.32524884407,
			"0.011": 2.83622718879,
			"0.012": 1.90511470889,
			"0.013": 2.19991200305,
			"0.014": 1.71903783255,
			"0.015": 0.0,
			"0.016": 0.0,
			"0.017": 0.0,
			"0.018": 0.0,
			"0.019": 0.0,
			"0.02": 0.0,
			"0.021": 0.0,
			"0.022": 0.0,
			"0.023": 0.0,
			"0.024": 0.0,
			"0.025": 0.0
		}
	}
}
