{
	 "smiles": "BrC1=CC=C(C=C1)C#N", 
	 "Tm": 385.15, 
	 "num_atms": 13, 
	 "gaussian": { 
		 "optdone": 1, 
		 "sigma_profile": "yes", 
		 "theory": "DFT", 
		 "functional": "B3LYP", 
		 "basiset": "6-31G**", 
		 "properties": { 
			 "R2extent": 3584.3487, 
			 "electric_dipole_moment_norm": 2.97844111072, 
			 "electric_quadrupole_moment_norm": 13.6463210834, 
			 "total_energy": -2895.29266958, 
			 "HOMO_LUMO_gap": 0.19786, 
			 "cosmo_polarized_energy": -8.27, 
			 "cosmo_cavitation_energy": 21.03, 
			 "cosmo_dispersion_energy": -15.43, 
			 "cosmo_repulsion_energy": 1.26, 
			 "cosmo_total_nonelectrostatic_energy": 6.86, 
			 "SMD_solvation_energy": 3.95 
		},
		"coords": [
			{
				"x": 2.096709516,
				"y": 0.9682129274,
				"z": 3.7664423905,
				"element": "Br" 
			},
			{
				"x": 0.9234637703,
				"y": 0.913780933,
				"z": 2.2662515622,
				"element": "C" 
			},
			{
				"x": 0.0815739251,
				"y": 1.9985994836,
				"z": 2.0165226362,
				"element": "C" 
			},
			{
				"x": -0.7749638236,
				"y": 1.9580636053,
				"z": 0.9205003123,
				"element": "C" 
			},
			{
				"x": -0.788750611,
				"y": 0.8346823734,
				"z": 0.0767156047,
				"element": "C" 
			},
			{
				"x": 0.0655112519,
				"y": -0.2485940309,
				"z": 0.3429908178,
				"element": "C" 
			},
			{
				"x": 0.9227810016,
				"y": -0.2099857147,
				"z": 1.4385248889,
				"element": "C" 
			},
			{
				"x": -1.6714768196,
				"y": 0.7939606198,
				"z": -1.0521599201,
				"element": "C" 
			},
			{
				"x": -2.3877511792,
				"y": 0.7610332502,
				"z": -1.9681270331,
				"element": "N" 
			},
			{
				"x": 0.0964843898,
				"y": 2.8624371652,
				"z": 2.6706467363,
				"element": "H" 
			},
			{
				"x": -1.4346795822,
				"y": 2.7940729482,
				"z": 0.7144213827,
				"element": "H" 
			},
			{
				"x": 0.0544031487,
				"y": -1.115574872,
				"z": -0.3087984156,
				"element": "H" 
			},
			{
				"x": 1.5837950121,
				"y": -1.0425886885,
				"z": 1.6486690371,
				"element": "H" 
			}
		],
		 "valence_orbital": [ 
			{
				"type": "occ",
				"energy": -0.33797,
				"method": "rhf"
			},
			{
				"type": "occ",
				"energy": -0.32064,
				"method": "rhf"
			},
			{
				"type": "occ",
				"energy": -0.3053,
				"method": "rhf"
			},
			{
				"type": "occ",
				"energy": -0.29042,
				"method": "rhf"
			},
			{
				"type": "occ",
				"energy": -0.26183,
				"method": "rhf"
			},
			{
				"type": "unocc",
				"energy": -0.06397,
				"method": "rhf"
			},
			{
				"type": "unocc",
				"energy": -0.03896,
				"method": "rhf"
			},
			{
				"type": "unocc",
				"energy": -0.01147,
				"method": "rhf"
			},
			{
				"type": "unocc",
				"energy": 0.02899,
				"method": "rhf"
			},
			{
				"type": "unocc",
				"energy": 0.06389,
				"method": "rhf"
			}
		],
		"cosmo_sigma_profile": { 
			"-0.025": 0.0,
			"-0.024": 0.0,
			"-0.023": 0.0,
			"-0.022": 0.0,
			"-0.021": 0.0,
			"-0.02": 0.0,
			"-0.019": 0.0,
			"-0.018": 0.0,
			"-0.017": 0.0,
			"-0.016": 0.0,
			"-0.015": 0.0,
			"-0.014": 0.0,
			"-0.013": 0.0,
			"-0.012": 0.0,
			"-0.011": 0.0,
			"-0.01": 0.0,
			"-0.009": 1.90901297776,
			"-0.008": 8.56314187024,
			"-0.007": 9.70674919401,
			"-0.006": 7.13797130085,
			"-0.005": 7.41391268948,
			"-0.004": 8.80660099356,
			"-0.003": 8.42008778655,
			"-0.002": 12.3080607781,
			"-0.001": 12.7148306819,
			"0.0": 19.397803689,
			"0.001": 21.963215495,
			"0.002": 10.0237167131,
			"0.003": 10.8809453189,
			"0.004": 10.7063779418,
			"0.005": 2.81284201073,
			"0.006": 2.40584145495,
			"0.007": 2.77967659912,
			"0.008": 3.54910064548,
			"0.009": 3.30067869276,
			"0.01": 3.20255627005,
			"0.011": 2.62557140442,
			"0.012": 2.39264120572,
			"0.013": 1.17965391561,
			"0.014": 0.0,
			"0.015": 0.0,
			"0.016": 0.0,
			"0.017": 0.0,
			"0.018": 0.0,
			"0.019": 0.0,
			"0.02": 0.0,
			"0.021": 0.0,
			"0.022": 0.0,
			"0.023": 0.0,
			"0.024": 0.0,
			"0.025": 0.0
		}
	}
}
