{
	 "smiles": "FC(F)(F)C1=CC=CC=C1C=O", 
	 "Tm": 233.15, 
	 "num_atms": 17, 
	 "gaussian": { 
		 "optdone": 1, 
		 "sigma_profile": "yes", 
		 "theory": "DFT", 
		 "functional": "B3LYP", 
		 "basiset": "6-31G**", 
		 "properties": { 
			 "R2extent": 1862.4883, 
			 "electric_dipole_moment_norm": 5.12230947327, 
			 "electric_quadrupole_moment_norm": 3.42203261381, 
			 "total_energy": -682.598384609, 
			 "HOMO_LUMO_gap": 0.18283, 
			 "cosmo_polarized_energy": -9.32, 
			 "cosmo_cavitation_energy": 22.63, 
			 "cosmo_dispersion_energy": -16.31, 
			 "cosmo_repulsion_energy": 1.22, 
			 "cosmo_total_nonelectrostatic_energy": 7.54, 
			 "SMD_solvation_energy": 5.95 
		},
		"coords": [
			{
				"x": 0.9861099691,
				"y": 1.9487624663,
				"z": -0.1517905358,
				"element": "F" 
			},
			{
				"x": 1.1212311491,
				"y": 1.0055351371,
				"z": 0.7966024773,
				"element": "C" 
			},
			{
				"x": 2.2578450497,
				"y": 0.325313198,
				"z": 0.5668178293,
				"element": "F" 
			},
			{
				"x": 1.2940528563,
				"y": 1.6614926257,
				"z": 1.9727300208,
				"element": "F" 
			},
			{
				"x": -0.0880885087,
				"y": 0.0884594545,
				"z": 0.8649998792,
				"element": "C" 
			},
			{
				"x": -0.8115143951,
				"y": 0.047272808,
				"z": 2.0561103458,
				"element": "C" 
			},
			{
				"x": -1.935213154,
				"y": -0.7737390757,
				"z": 2.190240884,
				"element": "C" 
			},
			{
				"x": -2.3500249219,
				"y": -1.5682207628,
				"z": 1.1254919471,
				"element": "C" 
			},
			{
				"x": -1.6319636922,
				"y": -1.5324005318,
				"z": -0.0683793243,
				"element": "C" 
			},
			{
				"x": -0.5033368971,
				"y": -0.7168615374,
				"z": -0.2231805101,
				"element": "C" 
			},
			{
				"x": 0.1597091374,
				"y": -0.7863757759,
				"z": -1.5568816057,
				"element": "C" 
			},
			{
				"x": 1.1426781384,
				"y": -0.1755905477,
				"z": -1.9146531417,
				"element": "O" 
			},
			{
				"x": -0.4929979261,
				"y": 0.6635678538,
				"z": 2.8874893846,
				"element": "H" 
			},
			{
				"x": -2.4799827735,
				"y": -0.7862011207,
				"z": 3.1293421167,
				"element": "H" 
			},
			{
				"x": -3.2213953099,
				"y": -2.2085714826,
				"z": 1.2209307922,
				"element": "H" 
			},
			{
				"x": -1.9460806488,
				"y": -2.1484492692,
				"z": -0.9073147958,
				"element": "H" 
			},
			{
				"x": -0.3526280725,
				"y": -1.4917934394,
				"z": -2.2494557638,
				"element": "H" 
			}
		],
		 "valence_orbital": [ 
			{
				"type": "occ",
				"energy": -0.37736,
				"method": "rhf"
			},
			{
				"type": "occ",
				"energy": -0.36422,
				"method": "rhf"
			},
			{
				"type": "occ",
				"energy": -0.28433,
				"method": "rhf"
			},
			{
				"type": "occ",
				"energy": -0.28136,
				"method": "rhf"
			},
			{
				"type": "occ",
				"energy": -0.26226,
				"method": "rhf"
			},
			{
				"type": "unocc",
				"energy": -0.07943,
				"method": "rhf"
			},
			{
				"type": "unocc",
				"energy": -0.03498,
				"method": "rhf"
			},
			{
				"type": "unocc",
				"energy": 0.02538,
				"method": "rhf"
			},
			{
				"type": "unocc",
				"energy": 0.07885,
				"method": "rhf"
			},
			{
				"type": "unocc",
				"energy": 0.1067,
				"method": "rhf"
			}
		],
		"cosmo_sigma_profile": { 
			"-0.025": 0.0,
			"-0.024": 0.0,
			"-0.023": 0.0,
			"-0.022": 0.0,
			"-0.021": 0.0,
			"-0.02": 0.0,
			"-0.019": 0.0,
			"-0.018": 0.0,
			"-0.017": 0.0,
			"-0.016": 0.0,
			"-0.015": 0.0,
			"-0.014": 0.0,
			"-0.013": 0.0,
			"-0.012": 0.0,
			"-0.011": 0.0,
			"-0.01": 0.0,
			"-0.009": 0.822915250166,
			"-0.008": 4.5909396213,
			"-0.007": 11.4201866625,
			"-0.006": 11.8307738904,
			"-0.005": 8.76062979506,
			"-0.004": 8.97137102483,
			"-0.003": 9.29778774028,
			"-0.002": 10.7347152582,
			"-0.001": 11.0643002729,
			"0.0": 14.6875597506,
			"0.001": 17.3241108093,
			"0.002": 23.1956863593,
			"0.003": 23.8709643625,
			"0.004": 4.66794217576,
			"0.005": 3.17290742209,
			"0.006": 1.82689708045,
			"0.007": 2.49510060158,
			"0.008": 2.40019951202,
			"0.009": 2.68809005152,
			"0.01": 3.00049687977,
			"0.011": 3.94783856943,
			"0.012": 1.47857221443,
			"0.013": 0.154812727599,
			"0.014": 0.0,
			"0.015": 0.0,
			"0.016": 0.0,
			"0.017": 0.0,
			"0.018": 0.0,
			"0.019": 0.0,
			"0.02": 0.0,
			"0.021": 0.0,
			"0.022": 0.0,
			"0.023": 0.0,
			"0.024": 0.0,
			"0.025": 0.0
		}
	}
}
