{
	 "smiles": "NC1=CC=C(OC2=NC=CN=C2)C=C1", 
	 "Tm": 412.15, 
	 "num_atms": 23, 
	 "gaussian": { 
		 "optdone": 1, 
		 "sigma_profile": "yes", 
		 "theory": "DFT", 
		 "functional": "B3LYP", 
		 "basiset": "6-31G**", 
		 "properties": { 
			 "R2extent": 3711.6859, 
			 "electric_dipole_moment_norm": 3.40682661872, 
			 "electric_quadrupole_moment_norm": 17.4689325739, 
			 "total_energy": -625.943263869, 
			 "HOMO_LUMO_gap": 0.16472, 
			 "cosmo_polarized_energy": -14.04, 
			 "cosmo_cavitation_energy": 28.03, 
			 "cosmo_dispersion_energy": -20.52, 
			 "cosmo_repulsion_energy": 1.61, 
			 "cosmo_total_nonelectrostatic_energy": 9.13, 
			 "SMD_solvation_energy": 2.15 
		},
		"coords": [
			{
				"x": 0.8689776303,
				"y": -0.0345479096,
				"z": 4.1949993376,
				"element": "N" 
			},
			{
				"x": 0.5975327152,
				"y": 0.0648248648,
				"z": 2.8298359884,
				"element": "C" 
			},
			{
				"x": 1.0313528582,
				"y": 1.179494046,
				"z": 2.0898572221,
				"element": "C" 
			},
			{
				"x": 0.8124707361,
				"y": 1.2524209156,
				"z": 0.7166935062,
				"element": "C" 
			},
			{
				"x": 0.1526713771,
				"y": 0.2129611868,
				"z": 0.0635588234,
				"element": "C" 
			},
			{
				"x": 0.0002739406,
				"y": 0.2510165332,
				"z": -1.3241412303,
				"element": "O" 
			},
			{
				"x": -1.1191746859,
				"y": 0.8097519026,
				"z": -1.8617258619,
				"element": "C" 
			},
			{
				"x": -1.1477247434,
				"y": 0.7899015835,
				"z": -3.1902040511,
				"element": "N" 
			},
			{
				"x": -2.2272075246,
				"y": 1.3270691564,
				"z": -3.7678714725,
				"element": "C" 
			},
			{
				"x": -3.2701541533,
				"y": 1.8796480001,
				"z": -3.0271439301,
				"element": "C" 
			},
			{
				"x": -3.2374690856,
				"y": 1.8974696204,
				"z": -1.6877486278,
				"element": "N" 
			},
			{
				"x": -2.1668632943,
				"y": 1.3651185606,
				"z": -1.099787128,
				"element": "C" 
			},
			{
				"x": -0.278704969,
				"y": -0.9040396031,
				"z": 0.7766826608,
				"element": "C" 
			},
			{
				"x": -0.0593730272,
				"y": -0.9764589594,
				"z": 2.1498057069,
				"element": "C" 
			},
			{
				"x": 0.2572661003,
				"y": -0.6492609779,
				"z": 4.7137042931,
				"element": "H" 
			},
			{
				"x": 1.0134176511,
				"y": 0.8444609802,
				"z": 4.6720720531,
				"element": "H" 
			},
			{
				"x": 1.5519190313,
				"y": 1.9888746636,
				"z": 2.5951535656,
				"element": "H" 
			},
			{
				"x": 1.1560659511,
				"y": 2.1093259322,
				"z": 0.1460309965,
				"element": "H" 
			},
			{
				"x": -2.2568267152,
				"y": 1.3139761006,
				"z": -4.8558045416,
				"element": "H" 
			},
			{
				"x": -4.1412399187,
				"y": 2.3126802115,
				"z": -3.5121818413,
				"element": "H" 
			},
			{
				"x": -2.131614527,
				"y": 1.3749217284,
				"z": -0.0151953987,
				"element": "H" 
			},
			{
				"x": -0.7778961236,
				"y": -1.7125934539,
				"z": 0.2522487359,
				"element": "H" 
			},
			{
				"x": -0.3911992236,
				"y": -1.8519150826,
				"z": 2.7019611935,
				"element": "H" 
			}
		],
		 "valence_orbital": [ 
			{
				"type": "occ",
				"energy": -0.30137,
				"method": "rhf"
			},
			{
				"type": "occ",
				"energy": -0.26051,
				"method": "rhf"
			},
			{
				"type": "occ",
				"energy": -0.24832,
				"method": "rhf"
			},
			{
				"type": "occ",
				"energy": -0.24268,
				"method": "rhf"
			},
			{
				"type": "occ",
				"energy": -0.20801,
				"method": "rhf"
			},
			{
				"type": "unocc",
				"energy": -0.04329,
				"method": "rhf"
			},
			{
				"type": "unocc",
				"energy": -0.00922,
				"method": "rhf"
			},
			{
				"type": "unocc",
				"energy": -0.00596,
				"method": "rhf"
			},
			{
				"type": "unocc",
				"energy": 0.00905,
				"method": "rhf"
			},
			{
				"type": "unocc",
				"energy": 0.07224,
				"method": "rhf"
			}
		],
		"cosmo_sigma_profile": { 
			"-0.025": 0.0,
			"-0.024": 0.0,
			"-0.023": 0.0,
			"-0.022": 0.0,
			"-0.021": 0.0,
			"-0.02": 0.0,
			"-0.019": 0.0,
			"-0.018": 0.0,
			"-0.017": 0.0,
			"-0.016": 0.0,
			"-0.015": 0.0,
			"-0.014": 0.0,
			"-0.013": 0.527972861129,
			"-0.012": 2.5131456506,
			"-0.011": 3.34660058477,
			"-0.01": 2.9725354083,
			"-0.009": 3.2386503773,
			"-0.008": 4.55362126144,
			"-0.007": 10.0185632062,
			"-0.006": 13.3652123285,
			"-0.005": 14.1638688516,
			"-0.004": 13.1521812293,
			"-0.003": 12.1891213824,
			"-0.002": 16.0754353289,
			"-0.001": 16.8138768195,
			"0.0": 14.8190012157,
			"0.001": 12.5196286703,
			"0.002": 11.7790949228,
			"0.003": 12.6388043469,
			"0.004": 12.4340610936,
			"0.005": 11.7011251867,
			"0.006": 7.60811792189,
			"0.007": 4.10490788631,
			"0.008": 3.61880116862,
			"0.009": 3.50277777356,
			"0.01": 3.95451360878,
			"0.011": 3.19389529295,
			"0.012": 3.54161366823,
			"0.013": 3.01122138981,
			"0.014": 2.25449049536,
			"0.015": 1.20267554233,
			"0.016": 0.0952153433682,
			"0.017": 0.0,
			"0.018": 0.0,
			"0.019": 0.0,
			"0.02": 0.0,
			"0.021": 0.0,
			"0.022": 0.0,
			"0.023": 0.0,
			"0.024": 0.0,
			"0.025": 0.0
		}
	}
}
