{
	 "smiles": "NC1=CC(=C(Br)C=C1)C(F)(F)F", 
	 "Tm": 321.15, 
	 "num_atms": 17, 
	 "gaussian": { 
		 "optdone": 1, 
		 "sigma_profile": "yes", 
		 "theory": "DFT", 
		 "functional": "B3LYP", 
		 "basiset": "6-31G**", 
		 "properties": { 
			 "R2extent": 4038.4593, 
			 "electric_dipole_moment_norm": 4.89955478079, 
			 "electric_quadrupole_moment_norm": 11.9293169494, 
			 "total_energy": -3195.44018489, 
			 "HOMO_LUMO_gap": 0.18618, 
			 "cosmo_polarized_energy": -9.71, 
			 "cosmo_cavitation_energy": 24.59, 
			 "cosmo_dispersion_energy": -18.25, 
			 "cosmo_repulsion_energy": 1.4, 
			 "cosmo_total_nonelectrostatic_energy": 7.74, 
			 "SMD_solvation_energy": 4.27 
		},
		"coords": [
			{
				"x": 2.516949624,
				"y": -1.1243464938,
				"z": 1.547079433,
				"element": "N" 
			},
			{
				"x": 1.8529510296,
				"y": -0.917042129,
				"z": 0.3435688634,
				"element": "C" 
			},
			{
				"x": 1.3769340492,
				"y": 0.3580736643,
				"z": -0.0009704312,
				"element": "C" 
			},
			{
				"x": 0.6597364249,
				"y": 0.5770131605,
				"z": -1.1775366758,
				"element": "C" 
			},
			{
				"x": 0.406820532,
				"y": -0.5001872558,
				"z": -2.038879991,
				"element": "C" 
			},
			{
				"x": -0.5611306367,
				"y": -0.3077783534,
				"z": -3.6740710888,
				"element": "Br" 
			},
			{
				"x": 0.8745349092,
				"y": -1.7708930904,
				"z": -1.7067254387,
				"element": "C" 
			},
			{
				"x": 1.588741239,
				"y": -1.9819545419,
				"z": -0.5328106711,
				"element": "C" 
			},
			{
				"x": 0.1841474485,
				"y": 1.9808663,
				"z": -1.4798446663,
				"element": "C" 
			},
			{
				"x": -1.1585329879,
				"y": 2.0465574425,
				"z": -1.5816065814,
				"element": "F" 
			},
			{
				"x": 0.7015503082,
				"y": 2.449254315,
				"z": -2.6339747843,
				"element": "F" 
			},
			{
				"x": 0.5473607897,
				"y": 2.848937347,
				"z": -0.506528641,
				"element": "F" 
			},
			{
				"x": 2.9483853282,
				"y": -0.3100313129,
				"z": 1.9604739987,
				"element": "H" 
			},
			{
				"x": 3.1091216365,
				"y": -1.9413586977,
				"z": 1.5901684396,
				"element": "H" 
			},
			{
				"x": 1.5636580454,
				"y": 1.1967603072,
				"z": 0.6599330067,
				"element": "H" 
			},
			{
				"x": 0.6779050754,
				"y": -2.6003745778,
				"z": -2.3763711324,
				"element": "H" 
			},
			{
				"x": 1.9404671847,
				"y": -2.9815960838,
				"z": -0.2919036392,
				"element": "H" 
			}
		],
		 "valence_orbital": [ 
			{
				"type": "occ",
				"energy": -0.34766,
				"method": "rhf"
			},
			{
				"type": "occ",
				"energy": -0.28806,
				"method": "rhf"
			},
			{
				"type": "occ",
				"energy": -0.28367,
				"method": "rhf"
			},
			{
				"type": "occ",
				"energy": -0.27353,
				"method": "rhf"
			},
			{
				"type": "occ",
				"energy": -0.21596,
				"method": "rhf"
			},
			{
				"type": "unocc",
				"energy": -0.02978,
				"method": "rhf"
			},
			{
				"type": "unocc",
				"energy": -0.00924,
				"method": "rhf"
			},
			{
				"type": "unocc",
				"energy": 0.00645,
				"method": "rhf"
			},
			{
				"type": "unocc",
				"energy": 0.06805,
				"method": "rhf"
			},
			{
				"type": "unocc",
				"energy": 0.10552,
				"method": "rhf"
			}
		],
		"cosmo_sigma_profile": { 
			"-0.025": 0.0,
			"-0.024": 0.0,
			"-0.023": 0.0,
			"-0.022": 0.0,
			"-0.021": 0.0,
			"-0.02": 0.0,
			"-0.019": 0.0,
			"-0.018": 0.0,
			"-0.017": 0.0,
			"-0.016": 0.0,
			"-0.015": 0.0,
			"-0.014": 0.0283623231872,
			"-0.013": 2.71390428861,
			"-0.012": 2.68787043679,
			"-0.011": 3.68373892653,
			"-0.01": 3.35400994963,
			"-0.009": 3.47008316462,
			"-0.008": 3.58048149713,
			"-0.007": 5.13101743996,
			"-0.006": 5.95689629639,
			"-0.005": 5.75964497088,
			"-0.004": 6.54185922804,
			"-0.003": 6.2086976563,
			"-0.002": 8.80640554013,
			"-0.001": 9.99511430314,
			"0.0": 11.5468058632,
			"0.001": 15.0711234882,
			"0.002": 30.3863241153,
			"0.003": 40.7008187603,
			"0.004": 19.7858626765,
			"0.005": 9.34794141689,
			"0.006": 0.663678124053,
			"0.007": 0.58182463029,
			"0.008": 0.791700056005,
			"0.009": 0.862311969124,
			"0.01": 0.369664336981,
			"0.011": 0.92326894372,
			"0.012": 0.455125857425,
			"0.013": 0.509606560644,
			"0.014": 0.0222188910753,
			"0.015": 0.0,
			"0.016": 0.0,
			"0.017": 0.0,
			"0.018": 0.0,
			"0.019": 0.0,
			"0.02": 0.0,
			"0.021": 0.0,
			"0.022": 0.0,
			"0.023": 0.0,
			"0.024": 0.0,
			"0.025": 0.0
		}
	}
}
