{
	 "smiles": "CC1=C(C=CC=C1)C1(C)NC(=O)NC1=O", 
	 "Tm": 443.15, 
	 "num_atms": 27, 
	 "gaussian": { 
		 "optdone": 1, 
		 "sigma_profile": "yes", 
		 "theory": "DFT", 
		 "functional": "B3LYP", 
		 "basiset": "6-31G**", 
		 "properties": { 
			 "R2extent": 4105.2176, 
			 "electric_dipole_moment_norm": 2.51017897768, 
			 "electric_quadrupole_moment_norm": 9.86680536648, 
			 "total_energy": -686.397377455, 
			 "HOMO_LUMO_gap": 0.21886, 
			 "cosmo_polarized_energy": -15.59, 
			 "cosmo_cavitation_energy": 29.58, 
			 "cosmo_dispersion_energy": -21.35, 
			 "cosmo_repulsion_energy": 1.65, 
			 "cosmo_total_nonelectrostatic_energy": 9.89, 
			 "SMD_solvation_energy": 6.94 
		},
		"coords": [
			{
				"x": 0.6934194048,
				"y": 2.7530166354,
				"z": 1.3175237034,
				"element": "C" 
			},
			{
				"x": 0.5440264952,
				"y": 1.495705271,
				"z": 0.4820158754,
				"element": "C" 
			},
			{
				"x": -0.1135236441,
				"y": 0.3081977999,
				"z": 0.8945607777,
				"element": "C" 
			},
			{
				"x": -0.1401179129,
				"y": -0.7850282205,
				"z": 0.01449803,
				"element": "C" 
			},
			{
				"x": 0.4328616139,
				"y": -0.7317255576,
				"z": -1.2545298747,
				"element": "C" 
			},
			{
				"x": 1.0620354442,
				"y": 0.4367845722,
				"z": -1.6705474225,
				"element": "C" 
			},
			{
				"x": 1.1130761216,
				"y": 1.5227638458,
				"z": -0.8007186337,
				"element": "C" 
			},
			{
				"x": -0.8037026778,
				"y": 0.1360320624,
				"z": 2.2735745386,
				"element": "C" 
			},
			{
				"x": -1.7796560016,
				"y": 1.2769194691,
				"z": 2.6341201457,
				"element": "C" 
			},
			{
				"x": -1.5103591994,
				"y": -1.1444528502,
				"z": 2.3742703424,
				"element": "N" 
			},
			{
				"x": -1.0906709563,
				"y": -1.950033199,
				"z": 3.4003958621,
				"element": "C" 
			},
			{
				"x": -1.5483770429,
				"y": -3.0111962237,
				"z": 3.7689934271,
				"element": "O" 
			},
			{
				"x": 0.0142876493,
				"y": -1.2801886976,
				"z": 3.9641724466,
				"element": "N" 
			},
			{
				"x": 0.246961254,
				"y": -0.0410959971,
				"z": 3.4131847607,
				"element": "C" 
			},
			{
				"x": 1.0913975455,
				"y": 0.7544305372,
				"z": 3.7697104635,
				"element": "O" 
			},
			{
				"x": 0.9078702972,
				"y": 2.5278461505,
				"z": 2.3623695225,
				"element": "H" 
			},
			{
				"x": 1.5185249372,
				"y": 3.3557072824,
				"z": 0.9281358082,
				"element": "H" 
			},
			{
				"x": -0.2053250105,
				"y": 3.3799452779,
				"z": 1.269104812,
				"element": "H" 
			},
			{
				"x": -0.6167268562,
				"y": -1.7036656037,
				"z": 0.3342382788,
				"element": "H" 
			},
			{
				"x": 0.3878702888,
				"y": -1.6014090908,
				"z": -1.9034279943,
				"element": "H" 
			},
			{
				"x": 1.5180164906,
				"y": 0.5037658484,
				"z": -2.6541297366,
				"element": "H" 
			},
			{
				"x": 1.6187406468,
				"y": 2.431659965,
				"z": -1.1165572624,
				"element": "H" 
			},
			{
				"x": -1.2619620444,
				"y": 2.2205913916,
				"z": 2.7904989058,
				"element": "H" 
			},
			{
				"x": -2.3153641834,
				"y": 1.0231354631,
				"z": 3.5534643988,
				"element": "H" 
			},
			{
				"x": -2.5097013257,
				"y": 1.409008045,
				"z": 1.8293907222,
				"element": "H" 
			},
			{
				"x": -2.4013044491,
				"y": -1.3211232106,
				"z": 1.9357097207,
				"element": "H" 
			},
			{
				"x": 0.5373031151,
				"y": -1.6584909661,
				"z": 4.7409783821,
				"element": "H" 
			}
		],
		 "valence_orbital": [ 
			{
				"type": "occ",
				"energy": -0.29102,
				"method": "rhf"
			},
			{
				"type": "occ",
				"energy": -0.27299,
				"method": "rhf"
			},
			{
				"type": "occ",
				"energy": -0.26742,
				"method": "rhf"
			},
			{
				"type": "occ",
				"energy": -0.25003,
				"method": "rhf"
			},
			{
				"type": "occ",
				"energy": -0.24158,
				"method": "rhf"
			},
			{
				"type": "unocc",
				"energy": -0.02272,
				"method": "rhf"
			},
			{
				"type": "unocc",
				"energy": -0.00353,
				"method": "rhf"
			},
			{
				"type": "unocc",
				"energy": 0.00022,
				"method": "rhf"
			},
			{
				"type": "unocc",
				"energy": 0.05833,
				"method": "rhf"
			},
			{
				"type": "unocc",
				"energy": 0.07511,
				"method": "rhf"
			}
		],
		"cosmo_sigma_profile": { 
			"-0.025": 0.0,
			"-0.024": 0.0,
			"-0.023": 0.0,
			"-0.022": 0.0,
			"-0.021": 0.0,
			"-0.02": 0.0,
			"-0.019": 0.0,
			"-0.018": 0.0,
			"-0.017": 0.484202096628,
			"-0.016": 1.34835252637,
			"-0.015": 2.28516178546,
			"-0.014": 1.47852721358,
			"-0.013": 2.13899804532,
			"-0.012": 1.75767030477,
			"-0.011": 1.82228280328,
			"-0.01": 2.13454315611,
			"-0.009": 2.09989965617,
			"-0.008": 2.1705370901,
			"-0.007": 2.02945168739,
			"-0.006": 6.36432558664,
			"-0.005": 15.2620603605,
			"-0.004": 20.5037272087,
			"-0.003": 22.4617184652,
			"-0.002": 21.0615679246,
			"-0.001": 20.3561076621,
			"0.0": 15.3281946298,
			"0.001": 11.7699741663,
			"0.002": 10.3847291832,
			"0.003": 9.4500664808,
			"0.004": 10.4480330236,
			"0.005": 10.9088462933,
			"0.006": 8.76408785917,
			"0.007": 3.23838486229,
			"0.008": 2.48428488895,
			"0.009": 3.64250168816,
			"0.01": 3.91542320629,
			"0.011": 4.51317387007,
			"0.012": 7.40797331957,
			"0.013": 5.86310021324,
			"0.014": 0.721969431379,
			"0.015": 0.0,
			"0.016": 0.0,
			"0.017": 0.0,
			"0.018": 0.0,
			"0.019": 0.0,
			"0.02": 0.0,
			"0.021": 0.0,
			"0.022": 0.0,
			"0.023": 0.0,
			"0.024": 0.0,
			"0.025": 0.0
		}
	}
}
