{
	 "smiles": "OC1=C(C=O)C=C2C=CC=CC2=N1", 
	 "Tm": 582.15, 
	 "num_atms": 20, 
	 "gaussian": { 
		 "optdone": 1, 
		 "sigma_profile": "yes", 
		 "theory": "DFT", 
		 "functional": "B3LYP", 
		 "basiset": "6-31G**", 
		 "properties": { 
			 "R2extent": 2985.9833, 
			 "electric_dipole_moment_norm": 3.23247187304, 
			 "electric_quadrupole_moment_norm": 14.868310969, 
			 "total_energy": -590.488866478, 
			 "HOMO_LUMO_gap": 0.15627, 
			 "cosmo_polarized_energy": -10.2, 
			 "cosmo_cavitation_energy": 24.93, 
			 "cosmo_dispersion_energy": -18.6, 
			 "cosmo_repulsion_energy": 1.44, 
			 "cosmo_total_nonelectrostatic_energy": 7.78, 
			 "SMD_solvation_energy": 4.19 
		},
		"coords": [
			{
				"x": 1.138193905,
				"y": 0.0522633627,
				"z": 3.5765629099,
				"element": "O" 
			},
			{
				"x": 0.8475030504,
				"y": -0.3726421332,
				"z": 2.3272686347,
				"element": "C" 
			},
			{
				"x": 0.748857376,
				"y": -1.7857550233,
				"z": 2.1160711208,
				"element": "C" 
			},
			{
				"x": 0.9525823126,
				"y": -2.7683218141,
				"z": 3.2053757602,
				"element": "C" 
			},
			{
				"x": 0.8717595258,
				"y": -3.9732015696,
				"z": 3.0396636429,
				"element": "O" 
			},
			{
				"x": 0.4514835789,
				"y": -2.2088436637,
				"z": 0.8365004061,
				"element": "C" 
			},
			{
				"x": 0.2567538477,
				"y": -1.2731222407,
				"z": -0.204659264,
				"element": "C" 
			},
			{
				"x": -0.0510187504,
				"y": -1.6456991043,
				"z": -1.5397453317,
				"element": "C" 
			},
			{
				"x": -0.228676839,
				"y": -0.6831119039,
				"z": -2.5081068606,
				"element": "C" 
			},
			{
				"x": -0.1046958923,
				"y": 0.6883749515,
				"z": -2.1753823431,
				"element": "C" 
			},
			{
				"x": 0.1934175537,
				"y": 1.0828035402,
				"z": -0.8878510292,
				"element": "C" 
			},
			{
				"x": 0.3816898327,
				"y": 0.1152043549,
				"z": 0.129653725,
				"element": "C" 
			},
			{
				"x": 0.6761052491,
				"y": 0.5333517626,
				"z": 1.3966913208,
				"element": "N" 
			},
			{
				"x": 1.163415152,
				"y": 1.0219472892,
				"z": 3.5285744841,
				"element": "H" 
			},
			{
				"x": 1.1869119183,
				"y": -2.3399777715,
				"z": 4.1975484355,
				"element": "H" 
			},
			{
				"x": 0.3716741059,
				"y": -3.2771112075,
				"z": 0.6529102095,
				"element": "H" 
			},
			{
				"x": -0.1431393277,
				"y": -2.7013464363,
				"z": -1.7809693743,
				"element": "H" 
			},
			{
				"x": -0.4639266495,
				"y": -0.9699088666,
				"z": -3.5283270802,
				"element": "H" 
			},
			{
				"x": -0.2472197852,
				"y": 1.4381538392,
				"z": -2.9483975472,
				"element": "H" 
			},
			{
				"x": 0.291129836,
				"y": 2.1295426343,
				"z": -0.6197818194,
				"element": "H" 
			}
		],
		 "valence_orbital": [ 
			{
				"type": "occ",
				"energy": -0.31446,
				"method": "rhf"
			},
			{
				"type": "occ",
				"energy": -0.28528,
				"method": "rhf"
			},
			{
				"type": "occ",
				"energy": -0.25433,
				"method": "rhf"
			},
			{
				"type": "occ",
				"energy": -0.25212,
				"method": "rhf"
			},
			{
				"type": "occ",
				"energy": -0.23804,
				"method": "rhf"
			},
			{
				"type": "unocc",
				"energy": -0.08177,
				"method": "rhf"
			},
			{
				"type": "unocc",
				"energy": -0.03316,
				"method": "rhf"
			},
			{
				"type": "unocc",
				"energy": 0.00583,
				"method": "rhf"
			},
			{
				"type": "unocc",
				"energy": 0.01782,
				"method": "rhf"
			},
			{
				"type": "unocc",
				"energy": 0.07547,
				"method": "rhf"
			}
		],
		"cosmo_sigma_profile": { 
			"-0.025": 0.0,
			"-0.024": 0.0,
			"-0.023": 0.0,
			"-0.022": 0.0,
			"-0.021": 0.0,
			"-0.02": 0.0,
			"-0.019": 0.0,
			"-0.018": 0.293503826875,
			"-0.017": 0.651884510361,
			"-0.016": 0.670918419269,
			"-0.015": 1.10996214546,
			"-0.014": 0.577745377185,
			"-0.013": 0.346855461449,
			"-0.012": 0.675281085532,
			"-0.011": 0.491691024063,
			"-0.01": 1.04065866291,
			"-0.009": 0.699359687393,
			"-0.008": 1.95460588522,
			"-0.007": 6.15745288085,
			"-0.006": 11.3450469583,
			"-0.005": 12.6948194726,
			"-0.004": 13.8748983776,
			"-0.003": 11.2215270333,
			"-0.002": 14.2250556664,
			"-0.001": 15.7027149933,
			"0.0": 18.1448829885,
			"0.001": 15.4696895594,
			"0.002": 14.5871713645,
			"0.003": 14.7835101855,
			"0.004": 11.756595654,
			"0.005": 3.98076801446,
			"0.006": 4.37997791289,
			"0.007": 4.31241562754,
			"0.008": 4.67483904121,
			"0.009": 2.77065346313,
			"0.01": 3.33161421489,
			"0.011": 5.24526874862,
			"0.012": 3.01669458348,
			"0.013": 0.60944615477,
			"0.014": 0.0,
			"0.015": 0.0,
			"0.016": 0.0,
			"0.017": 0.0,
			"0.018": 0.0,
			"0.019": 0.0,
			"0.02": 0.0,
			"0.021": 0.0,
			"0.022": 0.0,
			"0.023": 0.0,
			"0.024": 0.0,
			"0.025": 0.0
		}
	}
}
