{
	 "smiles": "OC(=O)C1CCCN1C(=O)CC1=CC=CC=C1", 
	 "Tm": 421.15, 
	 "num_atms": 32, 
	 "gaussian": { 
		 "optdone": 1, 
		 "sigma_profile": "yes", 
		 "theory": "DFT", 
		 "functional": "B3LYP", 
		 "basiset": "6-31G**", 
		 "properties": { 
			 "R2extent": 4147.4565, 
			 "electric_dipole_moment_norm": 4.57296388024, 
			 "electric_quadrupole_moment_norm": 11.2800579506, 
			 "total_energy": -784.877633722, 
			 "HOMO_LUMO_gap": 0.22769, 
			 "cosmo_polarized_energy": -17.13, 
			 "cosmo_cavitation_energy": 34.73, 
			 "cosmo_dispersion_energy": -23.75, 
			 "cosmo_repulsion_energy": 1.87, 
			 "cosmo_total_nonelectrostatic_energy": 12.85, 
			 "SMD_solvation_energy": 6.55 
		},
		"coords": [
			{
				"x": 0.2737471369,
				"y": -2.7116864961,
				"z": -1.9108526255,
				"element": "O" 
			},
			{
				"x": -0.2015633248,
				"y": -2.6035031262,
				"z": -0.6451094791,
				"element": "C" 
			},
			{
				"x": -1.2083853772,
				"y": -3.1554901448,
				"z": -0.26822052,
				"element": "O" 
			},
			{
				"x": 0.7311267038,
				"y": -1.7351301316,
				"z": 0.1926610572,
				"element": "C" 
			},
			{
				"x": 1.9796807468,
				"y": -2.56545492,
				"z": 0.6196858083,
				"element": "C" 
			},
			{
				"x": 2.2815143606,
				"y": -2.0728274211,
				"z": 2.0433146196,
				"element": "C" 
			},
			{
				"x": 0.8878378245,
				"y": -1.8068339764,
				"z": 2.6191124085,
				"element": "C" 
			},
			{
				"x": 0.1435051695,
				"y": -1.3023209212,
				"z": 1.4569017431,
				"element": "N" 
			},
			{
				"x": -0.8493866999,
				"y": -0.3716189214,
				"z": 1.626775645,
				"element": "C" 
			},
			{
				"x": -1.1974390977,
				"y": -0.0070176679,
				"z": 2.7464930829,
				"element": "O" 
			},
			{
				"x": -1.4766559219,
				"y": 0.2457555949,
				"z": 0.3732315365,
				"element": "C" 
			},
			{
				"x": -0.6490143344,
				"y": 1.3989004717,
				"z": -0.172384618,
				"element": "C" 
			},
			{
				"x": -0.313619176,
				"y": 2.4797967851,
				"z": 0.6571711902,
				"element": "C" 
			},
			{
				"x": 0.4329972842,
				"y": 3.5477512145,
				"z": 0.1618044421,
				"element": "C" 
			},
			{
				"x": 0.8582908677,
				"y": 3.5538548318,
				"z": -1.1696913418,
				"element": "C" 
			},
			{
				"x": 0.5322766849,
				"y": 2.4828405219,
				"z": -2.0014808894,
				"element": "C" 
			},
			{
				"x": -0.215864795,
				"y": 1.4123290229,
				"z": -1.5042856634,
				"element": "C" 
			},
			{
				"x": -0.3314448794,
				"y": -3.3108241699,
				"z": -2.380025875,
				"element": "H" 
			},
			{
				"x": 1.0348389203,
				"y": -0.8780998672,
				"z": -0.4184872883,
				"element": "H" 
			},
			{
				"x": 1.7249715251,
				"y": -3.6307355291,
				"z": 0.6420311655,
				"element": "H" 
			},
			{
				"x": 2.8050357202,
				"y": -2.4347717296,
				"z": -0.0829232962,
				"element": "H" 
			},
			{
				"x": 2.8556358275,
				"y": -1.1403879394,
				"z": 2.0103003336,
				"element": "H" 
			},
			{
				"x": 2.8507511635,
				"y": -2.801721449,
				"z": 2.6264849929,
				"element": "H" 
			},
			{
				"x": 0.8581905435,
				"y": -1.0610104647,
				"z": 3.4142776755,
				"element": "H" 
			},
			{
				"x": 0.4262197285,
				"y": -2.7272885589,
				"z": 3.0008728214,
				"element": "H" 
			},
			{
				"x": -1.649402591,
				"y": -0.5018431152,
				"z": -0.4043144038,
				"element": "H" 
			},
			{
				"x": -2.4564071049,
				"y": 0.6080672124,
				"z": 0.69687362,
				"element": "H" 
			},
			{
				"x": -0.641032436,
				"y": 2.4704214563,
				"z": 1.6930396148,
				"element": "H" 
			},
			{
				"x": 0.6826219444,
				"y": 4.3786809006,
				"z": 0.815825184,
				"element": "H" 
			},
			{
				"x": 1.4381594777,
				"y": 4.3879066344,
				"z": -1.5544146687,
				"element": "H" 
			},
			{
				"x": 0.8574122774,
				"y": 2.4775916851,
				"z": -3.0381626237,
				"element": "H" 
			},
			{
				"x": -0.4694981691,
				"y": 0.5812702181,
				"z": -2.1586036482,
				"element": "H" 
			}
		],
		 "valence_orbital": [ 
			{
				"type": "occ",
				"energy": -0.28718,
				"method": "rhf"
			},
			{
				"type": "occ",
				"energy": -0.25295,
				"method": "rhf"
			},
			{
				"type": "occ",
				"energy": -0.25022,
				"method": "rhf"
			},
			{
				"type": "occ",
				"energy": -0.24024,
				"method": "rhf"
			},
			{
				"type": "occ",
				"energy": -0.23371,
				"method": "rhf"
			},
			{
				"type": "unocc",
				"energy": -0.00602,
				"method": "rhf"
			},
			{
				"type": "unocc",
				"energy": -0.00429,
				"method": "rhf"
			},
			{
				"type": "unocc",
				"energy": -0.00265,
				"method": "rhf"
			},
			{
				"type": "unocc",
				"energy": 0.03003,
				"method": "rhf"
			},
			{
				"type": "unocc",
				"energy": 0.06183,
				"method": "rhf"
			}
		],
		"cosmo_sigma_profile": { 
			"-0.025": 0.0,
			"-0.024": 0.0,
			"-0.023": 0.0,
			"-0.022": 0.0,
			"-0.021": 0.0,
			"-0.02": 0.0,
			"-0.019": 0.0775942248938,
			"-0.018": 0.945170204853,
			"-0.017": 0.946272361306,
			"-0.016": 1.11486213803,
			"-0.015": 0.800172557881,
			"-0.014": 0.72659864904,
			"-0.013": 0.0305162098614,
			"-0.012": 0.673993608444,
			"-0.011": 1.21685367131,
			"-0.01": 1.0313618692,
			"-0.009": 0.371135078896,
			"-0.008": 1.19574203023,
			"-0.007": 1.86890918113,
			"-0.006": 8.05573119152,
			"-0.005": 23.6154033496,
			"-0.004": 32.7833288647,
			"-0.003": 30.0791750585,
			"-0.002": 27.9959684666,
			"-0.001": 21.9846831469,
			"0.0": 13.8278895483,
			"0.001": 11.1777804813,
			"0.002": 12.4993154021,
			"0.003": 13.1817041619,
			"0.004": 12.0241879354,
			"0.005": 12.6111433447,
			"0.006": 9.64337661387,
			"0.007": 3.36914213893,
			"0.008": 4.58748777986,
			"0.009": 3.55049010948,
			"0.01": 3.92605093445,
			"0.011": 6.20730060478,
			"0.012": 3.97511876231,
			"0.013": 3.24052785729,
			"0.014": 3.87285930765,
			"0.015": 0.766072430947,
			"0.016": 0.0,
			"0.017": 0.0,
			"0.018": 0.0,
			"0.019": 0.0,
			"0.02": 0.0,
			"0.021": 0.0,
			"0.022": 0.0,
			"0.023": 0.0,
			"0.024": 0.0,
			"0.025": 0.0
		}
	}
}
