{
	 "smiles": "NC(=O)CN1CC2=CC=CC=C2OC1=O", 
	 "Tm": 476.15, 
	 "num_atms": 25, 
	 "gaussian": { 
		 "optdone": 1, 
		 "sigma_profile": "yes", 
		 "theory": "DFT", 
		 "functional": "B3LYP", 
		 "basiset": "6-31G**", 
		 "properties": { 
			 "R2extent": 3814.1521, 
			 "electric_dipole_moment_norm": 2.90120010513, 
			 "electric_quadrupole_moment_norm": 12.6004886572, 
			 "total_energy": -722.29910128, 
			 "HOMO_LUMO_gap": 0.21699, 
			 "cosmo_polarized_energy": -15.49, 
			 "cosmo_cavitation_energy": 28.81, 
			 "cosmo_dispersion_energy": -21.37, 
			 "cosmo_repulsion_energy": 1.66, 
			 "cosmo_total_nonelectrostatic_energy": 9.1, 
			 "SMD_solvation_energy": 5.71 
		},
		"coords": [
			{
				"x": 2.5330748005,
				"y": -2.0773936989,
				"z": 2.1501078144,
				"element": "N" 
			},
			{
				"x": 1.9601594941,
				"y": -0.844302173,
				"z": 2.2135458732,
				"element": "C" 
			},
			{
				"x": 1.5216068904,
				"y": -0.3362771058,
				"z": 3.2371025394,
				"element": "O" 
			},
			{
				"x": 1.8806590404,
				"y": -0.1218361045,
				"z": 0.8553380852,
				"element": "C" 
			},
			{
				"x": 0.7383835737,
				"y": -0.5815653105,
				"z": 0.0596430839,
				"element": "N" 
			},
			{
				"x": -0.5851230625,
				"y": -0.0723850962,
				"z": 0.4391602759,
				"element": "C" 
			},
			{
				"x": -1.5884456451,
				"y": -0.3789030707,
				"z": -0.6374205507,
				"element": "C" 
			},
			{
				"x": -2.7878700873,
				"y": 0.3221646537,
				"z": -0.7889507793,
				"element": "C" 
			},
			{
				"x": -3.6937755016,
				"y": -0.0287794721,
				"z": -1.7894833348,
				"element": "C" 
			},
			{
				"x": -3.3995102549,
				"y": -1.0858229735,
				"z": -2.6558602304,
				"element": "C" 
			},
			{
				"x": -2.2037328017,
				"y": -1.7892053798,
				"z": -2.5251377552,
				"element": "C" 
			},
			{
				"x": -1.3161209065,
				"y": -1.4258889748,
				"z": -1.5141964168,
				"element": "C" 
			},
			{
				"x": -0.151450737,
				"y": -2.1684693113,
				"z": -1.4050707578,
				"element": "O" 
			},
			{
				"x": 0.9154072774,
				"y": -1.7217869483,
				"z": -0.673539079,
				"element": "C" 
			},
			{
				"x": 1.9618748331,
				"y": -2.3459691746,
				"z": -0.7359832302,
				"element": "O" 
			},
			{
				"x": 2.689651405,
				"y": -2.5075546363,
				"z": 1.2453183736,
				"element": "H" 
			},
			{
				"x": 2.4934119402,
				"y": -2.6538594584,
				"z": 2.9781634747,
				"element": "H" 
			},
			{
				"x": 2.7876937372,
				"y": -0.2790003032,
				"z": 0.2693181073,
				"element": "H" 
			},
			{
				"x": 1.7505175875,
				"y": 0.9429085456,
				"z": 1.0573784057,
				"element": "H" 
			},
			{
				"x": -0.8926442702,
				"y": -0.4944374604,
				"z": 1.4083918414,
				"element": "H" 
			},
			{
				"x": -0.4975360743,
				"y": 1.009734042,
				"z": 0.5852269536,
				"element": "H" 
			},
			{
				"x": -3.010611646,
				"y": 1.1457669135,
				"z": -0.115383021,
				"element": "H" 
			},
			{
				"x": -4.6231969307,
				"y": 0.5216324336,
				"z": -1.8954855918,
				"element": "H" 
			},
			{
				"x": -4.0996390134,
				"y": -1.3606029854,
				"z": -3.4387782559,
				"element": "H" 
			},
			{
				"x": -1.9445836481,
				"y": -2.6094669508,
				"z": -3.1857058253,
				"element": "H" 
			}
		],
		 "valence_orbital": [ 
			{
				"type": "occ",
				"energy": -0.2799,
				"method": "rhf"
			},
			{
				"type": "occ",
				"energy": -0.26805,
				"method": "rhf"
			},
			{
				"type": "occ",
				"energy": -0.26385,
				"method": "rhf"
			},
			{
				"type": "occ",
				"energy": -0.24772,
				"method": "rhf"
			},
			{
				"type": "occ",
				"energy": -0.23902,
				"method": "rhf"
			},
			{
				"type": "unocc",
				"energy": -0.02203,
				"method": "rhf"
			},
			{
				"type": "unocc",
				"energy": -0.01665,
				"method": "rhf"
			},
			{
				"type": "unocc",
				"energy": 0.01689,
				"method": "rhf"
			},
			{
				"type": "unocc",
				"energy": 0.0348,
				"method": "rhf"
			},
			{
				"type": "unocc",
				"energy": 0.07955,
				"method": "rhf"
			}
		],
		"cosmo_sigma_profile": { 
			"-0.025": 0.0,
			"-0.024": 0.0,
			"-0.023": 0.0,
			"-0.022": 0.0,
			"-0.021": 0.0,
			"-0.02": 0.0,
			"-0.019": 0.0,
			"-0.018": 0.0,
			"-0.017": 0.0,
			"-0.016": 0.0,
			"-0.015": 0.0,
			"-0.014": 0.753262826175,
			"-0.013": 0.962572313016,
			"-0.012": 1.01739023458,
			"-0.011": 1.67522842067,
			"-0.01": 1.50458925036,
			"-0.009": 1.61157870247,
			"-0.008": 3.56418143232,
			"-0.007": 12.9880607841,
			"-0.006": 17.8227111533,
			"-0.005": 18.9045913107,
			"-0.004": 19.2138839661,
			"-0.003": 13.1235031594,
			"-0.002": 14.2292305284,
			"-0.001": 12.1375199386,
			"0.0": 13.1644280739,
			"0.001": 13.1168821079,
			"0.002": 13.5025540582,
			"0.003": 12.1392524031,
			"0.004": 13.2902174297,
			"0.005": 7.32246104165,
			"0.006": 3.75644873207,
			"0.007": 3.52002061294,
			"0.008": 3.49719521089,
			"0.009": 3.02645986143,
			"0.01": 3.46439773566,
			"0.011": 4.05502449695,
			"0.012": 4.4021299554,
			"0.013": 6.61905537753,
			"0.014": 4.5136203915,
			"0.015": 0.590112678968,
			"0.016": 0.0,
			"0.017": 0.0,
			"0.018": 0.0,
			"0.019": 0.0,
			"0.02": 0.0,
			"0.021": 0.0,
			"0.022": 0.0,
			"0.023": 0.0,
			"0.024": 0.0,
			"0.025": 0.0
		}
	}
}
