{
	 "smiles": "CCOC(=O)C1=C(N)SC2=C1CCCCC2", 
	 "Tm": 362.65, 
	 "num_atms": 33, 
	 "gaussian": { 
		 "optdone": 1, 
		 "sigma_profile": "yes", 
		 "theory": "DFT", 
		 "functional": "B3LYP", 
		 "basiset": "6-31G**", 
		 "properties": { 
			 "R2extent": 5032.3877, 
			 "electric_dipole_moment_norm": 2.4424856192, 
			 "electric_quadrupole_moment_norm": 13.2414174876, 
			 "total_energy": -1070.93260191, 
			 "HOMO_LUMO_gap": 0.17314, 
			 "cosmo_polarized_energy": -10.16, 
			 "cosmo_cavitation_energy": 34.99, 
			 "cosmo_dispersion_energy": -26.23, 
			 "cosmo_repulsion_energy": 2.02, 
			 "cosmo_total_nonelectrostatic_energy": 10.78, 
			 "SMD_solvation_energy": 5.41 
		},
		"coords": [
			{
				"x": 0.0253415745,
				"y": 3.5105050257,
				"z": -2.3761108051,
				"element": "C" 
			},
			{
				"x": -0.8171595703,
				"y": 2.2630566505,
				"z": -2.5982844049,
				"element": "C" 
			},
			{
				"x": -0.1299023596,
				"y": 1.0712151562,
				"z": -2.1526730825,
				"element": "O" 
			},
			{
				"x": -0.2376702649,
				"y": 0.7695593096,
				"z": -0.8124082134,
				"element": "C" 
			},
			{
				"x": -0.9065482963,
				"y": 1.465664743,
				"z": -0.0665370462,
				"element": "O" 
			},
			{
				"x": 0.5142202794,
				"y": -0.4303281997,
				"z": -0.4395945327,
				"element": "C" 
			},
			{
				"x": 1.3642453716,
				"y": -1.1195821925,
				"z": -1.3044914694,
				"element": "C" 
			},
			{
				"x": 1.710615735,
				"y": -0.8403479174,
				"z": -2.5992267308,
				"element": "N" 
			},
			{
				"x": 2.1186610393,
				"y": -2.4676218365,
				"z": -0.4985192149,
				"element": "S" 
			},
			{
				"x": 1.2742472338,
				"y": -2.1238919,
				"z": 1.0163053507,
				"element": "C" 
			},
			{
				"x": 0.4669995854,
				"y": -1.0300598152,
				"z": 0.8955028671,
				"element": "C" 
			},
			{
				"x": -0.4285495587,
				"y": -0.5091581043,
				"z": 2.0060073572,
				"element": "C" 
			},
			{
				"x": -0.8755331872,
				"y": -1.5697171372,
				"z": 3.0267242169,
				"element": "C" 
			},
			{
				"x": 0.1663313441,
				"y": -1.9590642046,
				"z": 4.0883368655,
				"element": "C" 
			},
			{
				"x": 1.5752285096,
				"y": -2.2453146476,
				"z": 3.5390284344,
				"element": "C" 
			},
			{
				"x": 1.5844545389,
				"y": -3.0081367598,
				"z": 2.2015457676,
				"element": "C" 
			},
			{
				"x": 0.9985672194,
				"y": 3.4186422022,
				"z": -2.8678838017,
				"element": "H" 
			},
			{
				"x": -0.4878984134,
				"y": 4.3850489542,
				"z": -2.7902351989,
				"element": "H" 
			},
			{
				"x": 0.1829520129,
				"y": 3.6779935425,
				"z": -1.3082685057,
				"element": "H" 
			},
			{
				"x": -1.7714974404,
				"y": 2.3348704552,
				"z": -2.0726595222,
				"element": "H" 
			},
			{
				"x": -1.0021085618,
				"y": 2.0893718263,
				"z": -3.6618354608,
				"element": "H" 
			},
			{
				"x": 1.1063625682,
				"y": -0.1770043285,
				"z": -3.064255843,
				"element": "H" 
			},
			{
				"x": 2.0724596003,
				"y": -1.5964885548,
				"z": -3.1598307115,
				"element": "H" 
			},
			{
				"x": -1.3106858811,
				"y": -0.0662060319,
				"z": 1.5422340386,
				"element": "H" 
			},
			{
				"x": 0.0622077544,
				"y": 0.3305967138,
				"z": 2.5191388862,
				"element": "H" 
			},
			{
				"x": -1.1974977905,
				"y": -2.4640676396,
				"z": 2.4786120423,
				"element": "H" 
			},
			{
				"x": -1.7688983325,
				"y": -1.1993581063,
				"z": 3.5441936718,
				"element": "H" 
			},
			{
				"x": 0.2400426883,
				"y": -1.1613512931,
				"z": 4.8388797663,
				"element": "H" 
			},
			{
				"x": -0.2025188228,
				"y": -2.8445633779,
				"z": 4.6227808986,
				"element": "H" 
			},
			{
				"x": 2.1219123125,
				"y": -1.3058571467,
				"z": 3.3970870769,
				"element": "H" 
			},
			{
				"x": 2.1386946425,
				"y": -2.8190297249,
				"z": 4.2849932108,
				"element": "H" 
			},
			{
				"x": 0.8907959648,
				"y": -3.8607114226,
				"z": 2.2512977237,
				"element": "H" 
			},
			{
				"x": 2.5787285047,
				"y": -3.4469642381,
				"z": 2.0540463693,
				"element": "H" 
			}
		],
		 "valence_orbital": [ 
			{
				"type": "occ",
				"energy": -0.29346,
				"method": "rhf"
			},
			{
				"type": "occ",
				"energy": -0.28922,
				"method": "rhf"
			},
			{
				"type": "occ",
				"energy": -0.2602,
				"method": "rhf"
			},
			{
				"type": "occ",
				"energy": -0.23952,
				"method": "rhf"
			},
			{
				"type": "occ",
				"energy": -0.18853,
				"method": "rhf"
			},
			{
				"type": "unocc",
				"energy": -0.01539,
				"method": "rhf"
			},
			{
				"type": "unocc",
				"energy": 0.01256,
				"method": "rhf"
			},
			{
				"type": "unocc",
				"energy": 0.02692,
				"method": "rhf"
			},
			{
				"type": "unocc",
				"energy": 0.08836,
				"method": "rhf"
			},
			{
				"type": "unocc",
				"energy": 0.09089,
				"method": "rhf"
			}
		],
		"cosmo_sigma_profile": { 
			"-0.025": 0.0,
			"-0.024": 0.0,
			"-0.023": 0.0,
			"-0.022": 0.0,
			"-0.021": 0.0,
			"-0.02": 0.0,
			"-0.019": 0.0,
			"-0.018": 0.0,
			"-0.017": 0.0,
			"-0.016": 0.0,
			"-0.015": 0.10741709335,
			"-0.014": 1.24961481392,
			"-0.013": 1.55305259895,
			"-0.012": 0.784425036202,
			"-0.011": 1.70554054034,
			"-0.01": 2.79957455182,
			"-0.009": 1.77473999953,
			"-0.008": 1.12190751995,
			"-0.007": 1.8710694847,
			"-0.006": 2.94275533696,
			"-0.005": 5.38552573809,
			"-0.004": 12.9607414788,
			"-0.003": 23.0143269859,
			"-0.002": 34.8484946412,
			"-0.001": 39.9083788319,
			"0.0": 39.1492398737,
			"0.001": 26.9184233845,
			"0.002": 16.6199607507,
			"0.003": 13.9503783749,
			"0.004": 15.2068611976,
			"0.005": 10.7426022564,
			"0.006": 4.28530305169,
			"0.007": 3.12812015045,
			"0.008": 2.59535695235,
			"0.009": 2.01367260957,
			"0.01": 2.08001653009,
			"0.011": 2.45143989969,
			"0.012": 2.41573913544,
			"0.013": 2.09946046822,
			"0.014": 0.0037017831093,
			"0.015": 0.0,
			"0.016": 0.0,
			"0.017": 0.0,
			"0.018": 0.0,
			"0.019": 0.0,
			"0.02": 0.0,
			"0.021": 0.0,
			"0.022": 0.0,
			"0.023": 0.0,
			"0.024": 0.0,
			"0.025": 0.0
		}
	}
}
