{
	 "smiles": "CC1=CC(C)=C(C)C(C)=C1C(=O)CCl", 
	 "Tm": 335.15, 
	 "num_atms": 29, 
	 "gaussian": { 
		 "optdone": 1, 
		 "sigma_profile": "yes", 
		 "theory": "DFT", 
		 "functional": "B3LYP", 
		 "basiset": "6-31G**", 
		 "properties": { 
			 "R2extent": 4440.9304, 
			 "electric_dipole_moment_norm": 4.71760505553, 
			 "electric_quadrupole_moment_norm": 16.6407563942, 
			 "total_energy": -1001.74775109, 
			 "HOMO_LUMO_gap": 0.19817, 
			 "cosmo_polarized_energy": -11.1, 
			 "cosmo_cavitation_energy": 32.74, 
			 "cosmo_dispersion_energy": -23.01, 
			 "cosmo_repulsion_energy": 1.81, 
			 "cosmo_total_nonelectrostatic_energy": 11.54, 
			 "SMD_solvation_energy": 5.68 
		},
		"coords": [
			{
				"x": -2.9371227408,
				"y": -1.4672025152,
				"z": -1.8117408632,
				"element": "C" 
			},
			{
				"x": -1.9679852293,
				"y": -0.8185485356,
				"z": -0.8486407941,
				"element": "C" 
			},
			{
				"x": -2.4341208823,
				"y": 0.0017701317,
				"z": 0.1770301833,
				"element": "C" 
			},
			{
				"x": -1.5795021965,
				"y": 0.6118885913,
				"z": 1.1024052149,
				"element": "C" 
			},
			{
				"x": -2.1776927416,
				"y": 1.4847158186,
				"z": 2.1842410464,
				"element": "C" 
			},
			{
				"x": -0.1932055766,
				"y": 0.3865316759,
				"z": 1.0080735819,
				"element": "C" 
			},
			{
				"x": 0.7707167238,
				"y": 1.0013054233,
				"z": 1.9996144763,
				"element": "C" 
			},
			{
				"x": 0.3077141761,
				"y": -0.4403649968,
				"z": -0.0207483199,
				"element": "C" 
			},
			{
				"x": 1.7943300657,
				"y": -0.7291181187,
				"z": -0.0834806084,
				"element": "C" 
			},
			{
				"x": -0.5775650333,
				"y": -1.0196858916,
				"z": -0.947505025,
				"element": "C" 
			},
			{
				"x": -0.0583611996,
				"y": -1.8826912428,
				"z": -2.074232403,
				"element": "C" 
			},
			{
				"x": -0.2085651451,
				"y": -3.0839305818,
				"z": -2.1156677831,
				"element": "O" 
			},
			{
				"x": 0.5924064605,
				"y": -1.0841504335,
				"z": -3.2080816355,
				"element": "C" 
			},
			{
				"x": 1.3614066582,
				"y": -2.1019789412,
				"z": -4.4691788157,
				"element": "Cl" 
			},
			{
				"x": -2.8610757547,
				"y": -2.5578462501,
				"z": -1.775108818,
				"element": "H" 
			},
			{
				"x": -2.7474710397,
				"y": -1.1704197663,
				"z": -2.8506839153,
				"element": "H" 
			},
			{
				"x": -3.9656575477,
				"y": -1.1853289964,
				"z": -1.5731952074,
				"element": "H" 
			},
			{
				"x": -3.5049397358,
				"y": 0.1711488598,
				"z": 0.2631233668,
				"element": "H" 
			},
			{
				"x": -1.8154519078,
				"y": 2.5177250795,
				"z": 2.1247630665,
				"element": "H" 
			},
			{
				"x": -3.2668821598,
				"y": 1.5137269975,
				"z": 2.0981898899,
				"element": "H" 
			},
			{
				"x": -1.9356411054,
				"y": 1.1169634835,
				"z": 3.1877907815,
				"element": "H" 
			},
			{
				"x": 1.6057552752,
				"y": 1.4995598132,
				"z": 1.4950686058,
				"element": "H" 
			},
			{
				"x": 1.2107780604,
				"y": 0.2402038283,
				"z": 2.6571669163,
				"element": "H" 
			},
			{
				"x": 0.2877415712,
				"y": 1.7406163596,
				"z": 2.638872541,
				"element": "H" 
			},
			{
				"x": 2.1697444336,
				"y": -1.0531097702,
				"z": 0.8927697244,
				"element": "H" 
			},
			{
				"x": 2.0364834737,
				"y": -1.5245856053,
				"z": -0.7911714129,
				"element": "H" 
			},
			{
				"x": 2.3751112243,
				"y": 0.1598873645,
				"z": -0.361306751,
				"element": "H" 
			},
			{
				"x": -0.1849176067,
				"y": -0.4807107327,
				"z": -3.6880208061,
				"element": "H" 
			},
			{
				"x": 1.3442694802,
				"y": -0.3977710486,
				"z": -2.8144462365,
				"element": "H" 
			}
		],
		 "valence_orbital": [ 
			{
				"type": "occ",
				"energy": -0.30035,
				"method": "rhf"
			},
			{
				"type": "occ",
				"energy": -0.29634,
				"method": "rhf"
			},
			{
				"type": "occ",
				"energy": -0.25855,
				"method": "rhf"
			},
			{
				"type": "occ",
				"energy": -0.24387,
				"method": "rhf"
			},
			{
				"type": "occ",
				"energy": -0.2358,
				"method": "rhf"
			},
			{
				"type": "unocc",
				"energy": -0.03763,
				"method": "rhf"
			},
			{
				"type": "unocc",
				"energy": -0.00765,
				"method": "rhf"
			},
			{
				"type": "unocc",
				"energy": -0.00206,
				"method": "rhf"
			},
			{
				"type": "unocc",
				"energy": 0.03774,
				"method": "rhf"
			},
			{
				"type": "unocc",
				"energy": 0.07411,
				"method": "rhf"
			}
		],
		"cosmo_sigma_profile": { 
			"-0.025": 0.0,
			"-0.024": 0.0,
			"-0.023": 0.0,
			"-0.022": 0.0,
			"-0.021": 0.0,
			"-0.02": 0.0,
			"-0.019": 0.0,
			"-0.018": 0.0,
			"-0.017": 0.0,
			"-0.016": 0.0,
			"-0.015": 0.0,
			"-0.014": 0.0,
			"-0.013": 0.0,
			"-0.012": 0.0,
			"-0.011": 0.0,
			"-0.01": 0.0,
			"-0.009": 1.90740118071,
			"-0.008": 5.11611780087,
			"-0.007": 4.85603814664,
			"-0.006": 6.95011164206,
			"-0.005": 12.507037877,
			"-0.004": 26.2215214252,
			"-0.003": 24.3919811457,
			"-0.002": 24.877411357,
			"-0.001": 27.2749794263,
			"0.0": 29.6689345075,
			"0.001": 17.2028017205,
			"0.002": 10.9467744889,
			"0.003": 10.2517735886,
			"0.004": 11.5766540081,
			"0.005": 14.8616523286,
			"0.006": 11.5159068635,
			"0.007": 3.72080678843,
			"0.008": 2.72651074594,
			"0.009": 2.45294865131,
			"0.01": 3.33418171144,
			"0.011": 4.63697566397,
			"0.012": 2.43773808415,
			"0.013": 0.315483709445,
			"0.014": 0.0,
			"0.015": 0.0,
			"0.016": 0.0,
			"0.017": 0.0,
			"0.018": 0.0,
			"0.019": 0.0,
			"0.02": 0.0,
			"0.021": 0.0,
			"0.022": 0.0,
			"0.023": 0.0,
			"0.024": 0.0,
			"0.025": 0.0
		}
	}
}
