{
	 "smiles": "ClC1=C(Cl)C(=O)OC1=O", 
	 "Tm": 381.15, 
	 "num_atms": 9, 
	 "gaussian": { 
		 "optdone": 1, 
		 "sigma_profile": "yes", 
		 "theory": "DFT", 
		 "functional": "B3LYP", 
		 "basiset": "6-31G**", 
		 "properties": { 
			 "R2extent": 1989.0755, 
			 "electric_dipole_moment_norm": 2.66797948643, 
			 "electric_quadrupole_moment_norm": 6.99420398902, 
			 "total_energy": -1298.45700297, 
			 "HOMO_LUMO_gap": 0.17461, 
			 "cosmo_polarized_energy": -7.28, 
			 "cosmo_cavitation_energy": 18.95, 
			 "cosmo_dispersion_energy": -14.22, 
			 "cosmo_repulsion_energy": 1.19, 
			 "cosmo_total_nonelectrostatic_energy": 5.91, 
			 "SMD_solvation_energy": 5.12 
		},
		"coords": [
			{
				"x": 0.305709871,
				"y": -1.5250154939,
				"z": -2.7757661501,
				"element": "Cl" 
			},
			{
				"x": 0.7908430091,
				"y": -0.5491483295,
				"z": -1.4700490369,
				"element": "C" 
			},
			{
				"x": 0.9144816853,
				"y": -0.8513344639,
				"z": -0.1659790724,
				"element": "C" 
			},
			{
				"x": 0.6301726543,
				"y": -2.3180721043,
				"z": 0.6466866555,
				"element": "Cl" 
			},
			{
				"x": 1.3772102686,
				"y": 0.3772448764,
				"z": 0.5527789798,
				"element": "C" 
			},
			{
				"x": 1.608881469,
				"y": 0.5369340425,
				"z": 1.7132515411,
				"element": "O" 
			},
			{
				"x": 1.5101413828,
				"y": 1.3849183108,
				"z": -0.3971680756,
				"element": "O" 
			},
			{
				"x": 1.1680039609,
				"y": 0.8879508003,
				"z": -1.6507297792,
				"element": "C" 
			},
			{
				"x": 1.195455699,
				"y": 1.5471223615,
				"z": -2.6460250622,
				"element": "O" 
			}
		],
		 "valence_orbital": [ 
			{
				"type": "occ",
				"energy": -0.36513,
				"method": "rhf"
			},
			{
				"type": "occ",
				"energy": -0.35913,
				"method": "rhf"
			},
			{
				"type": "occ",
				"energy": -0.33564,
				"method": "rhf"
			},
			{
				"type": "occ",
				"energy": -0.31852,
				"method": "rhf"
			},
			{
				"type": "occ",
				"energy": -0.30478,
				"method": "rhf"
			},
			{
				"type": "unocc",
				"energy": -0.13017,
				"method": "rhf"
			},
			{
				"type": "unocc",
				"energy": -0.01815,
				"method": "rhf"
			},
			{
				"type": "unocc",
				"energy": 0.00703,
				"method": "rhf"
			},
			{
				"type": "unocc",
				"energy": 0.02197,
				"method": "rhf"
			},
			{
				"type": "unocc",
				"energy": 0.03142,
				"method": "rhf"
			}
		],
		"cosmo_sigma_profile": { 
			"-0.025": 0.0,
			"-0.024": 0.0,
			"-0.023": 0.0,
			"-0.022": 0.0,
			"-0.021": 0.0,
			"-0.02": 0.0,
			"-0.019": 0.0,
			"-0.018": 0.0,
			"-0.017": 0.0,
			"-0.016": 0.0,
			"-0.015": 0.0,
			"-0.014": 0.0,
			"-0.013": 0.00124891694063,
			"-0.012": 0.754778424685,
			"-0.011": 1.73956622311,
			"-0.01": 2.42469477123,
			"-0.009": 2.4888959725,
			"-0.008": 3.37659822367,
			"-0.007": 4.21445737837,
			"-0.006": 6.48810216394,
			"-0.005": 9.44103772584,
			"-0.004": 8.38382325698,
			"-0.003": 9.11145973545,
			"-0.002": 9.81868911221,
			"-0.001": 11.1984318894,
			"0.0": 16.7921085985,
			"0.001": 21.3019719154,
			"0.002": 6.2275726892,
			"0.003": 5.4326156904,
			"0.004": 6.80616217205,
			"0.005": 6.10557088429,
			"0.006": 6.04569171885,
			"0.007": 6.22879622625,
			"0.008": 10.3931725512,
			"0.009": 4.17710754058,
			"0.01": 0.00880415492547,
			"0.011": 0.0,
			"0.012": 0.0,
			"0.013": 0.0,
			"0.014": 0.0,
			"0.015": 0.0,
			"0.016": 0.0,
			"0.017": 0.0,
			"0.018": 0.0,
			"0.019": 0.0,
			"0.02": 0.0,
			"0.021": 0.0,
			"0.022": 0.0,
			"0.023": 0.0,
			"0.024": 0.0,
			"0.025": 0.0
		}
	}
}
