{
	 "smiles": "NC1=C(F)C(F)=C(F)C(F)=C1", 
	 "Tm": 301.15, 
	 "num_atms": 14, 
	 "gaussian": { 
		 "optdone": 1, 
		 "sigma_profile": "yes", 
		 "theory": "DFT", 
		 "functional": "B3LYP", 
		 "basiset": "6-31G**", 
		 "properties": { 
			 "R2extent": 2084.6602, 
			 "electric_dipole_moment_norm": 3.71889792412, 
			 "electric_quadrupole_moment_norm": 5.38384286175, 
			 "total_energy": -684.510152444, 
			 "HOMO_LUMO_gap": 0.20753, 
			 "cosmo_polarized_energy": -7.31, 
			 "cosmo_cavitation_energy": 20.71, 
			 "cosmo_dispersion_energy": -14.91, 
			 "cosmo_repulsion_energy": 1.12, 
			 "cosmo_total_nonelectrostatic_energy": 6.91, 
			 "SMD_solvation_energy": 5.53 
		},
		"coords": [
			{
				"x": -0.3926424325,
				"y": 1.6914450645,
				"z": 0.5227003861,
				"element": "N" 
			},
			{
				"x": -0.0783273144,
				"y": 0.3405948905,
				"z": 0.6018677161,
				"element": "C" 
			},
			{
				"x": -0.3932061784,
				"y": -0.5032163285,
				"z": -0.4721434841,
				"element": "C" 
			},
			{
				"x": -1.0643559253,
				"y": 0.0087042032,
				"z": -1.5289376928,
				"element": "F" 
			},
			{
				"x": -0.0480108744,
				"y": -1.8488277145,
				"z": -0.4693749138,
				"element": "C" 
			},
			{
				"x": -0.3721616906,
				"y": -2.6231381577,
				"z": -1.5113164123,
				"element": "F" 
			},
			{
				"x": 0.6279638902,
				"y": -2.3962841418,
				"z": 0.6199186924,
				"element": "C" 
			},
			{
				"x": 0.9620048027,
				"y": -3.695506863,
				"z": 0.6267334988,
				"element": "F" 
			},
			{
				"x": 0.9399342269,
				"y": -1.5647909953,
				"z": 1.6922725404,
				"element": "C" 
			},
			{
				"x": 1.5887886788,
				"y": -2.092849493,
				"z": 2.7435703739,
				"element": "F" 
			},
			{
				"x": 0.6008455026,
				"y": -0.2182110332,
				"z": 1.6962844017,
				"element": "C" 
			},
			{
				"x": -0.5350877611,
				"y": 2.1585790956,
				"z": 1.4065272092,
				"element": "H" 
			},
			{
				"x": -1.0990547713,
				"y": 1.9178392459,
				"z": -0.1633594432,
				"element": "H" 
			},
			{
				"x": 0.8773098468,
				"y": 0.3890622271,
				"z": 2.5509571275,
				"element": "H" 
			}
		],
		 "valence_orbital": [ 
			{
				"type": "occ",
				"energy": -0.37933,
				"method": "rhf"
			},
			{
				"type": "occ",
				"energy": -0.37181,
				"method": "rhf"
			},
			{
				"type": "occ",
				"energy": -0.31013,
				"method": "rhf"
			},
			{
				"type": "occ",
				"energy": -0.25323,
				"method": "rhf"
			},
			{
				"type": "occ",
				"energy": -0.21899,
				"method": "rhf"
			},
			{
				"type": "unocc",
				"energy": -0.01146,
				"method": "rhf"
			},
			{
				"type": "unocc",
				"energy": 0.0033,
				"method": "rhf"
			},
			{
				"type": "unocc",
				"energy": 0.03241,
				"method": "rhf"
			},
			{
				"type": "unocc",
				"energy": 0.06964,
				"method": "rhf"
			},
			{
				"type": "unocc",
				"energy": 0.11826,
				"method": "rhf"
			}
		],
		"cosmo_sigma_profile": { 
			"-0.025": 0.0,
			"-0.024": 0.0,
			"-0.023": 0.0,
			"-0.022": 0.0,
			"-0.021": 0.0,
			"-0.02": 0.0,
			"-0.019": 0.0,
			"-0.018": 0.0,
			"-0.017": 0.0,
			"-0.016": 0.0,
			"-0.015": 0.0,
			"-0.014": 0.526582357522,
			"-0.013": 2.03005220959,
			"-0.012": 2.43472066132,
			"-0.011": 2.73895954231,
			"-0.01": 2.55237605847,
			"-0.009": 3.46876681171,
			"-0.008": 3.5191910621,
			"-0.007": 2.97281058534,
			"-0.006": 2.86577183355,
			"-0.005": 3.10256749831,
			"-0.004": 2.2957382197,
			"-0.003": 2.98266759289,
			"-0.002": 8.63437492153,
			"-0.001": 19.2437635123,
			"0.0": 16.5182093249,
			"0.001": 13.9569273679,
			"0.002": 14.9416793182,
			"0.003": 36.3783822135,
			"0.004": 20.0419379632,
			"0.005": 0.512933337972,
			"0.006": 0.67765840984,
			"0.007": 0.967797696581,
			"0.008": 0.676383369621,
			"0.009": 0.626463450268,
			"0.01": 0.577670844596,
			"0.011": 0.755604737592,
			"0.012": 0.563033084672,
			"0.013": 0.391308715509,
			"0.014": 0.0,
			"0.015": 0.0,
			"0.016": 0.0,
			"0.017": 0.0,
			"0.018": 0.0,
			"0.019": 0.0,
			"0.02": 0.0,
			"0.021": 0.0,
			"0.022": 0.0,
			"0.023": 0.0,
			"0.024": 0.0,
			"0.025": 0.0
		}
	}
}
