{
	 "smiles": "CCOC(=O)N1CCC2=C(C1)SC(N)=C2C(=O)OCC", 
	 "Tm": 419.15, 
	 "num_atms": 38, 
	 "gaussian": { 
		 "optdone": 1, 
		 "sigma_profile": "yes", 
		 "theory": "DFT", 
		 "functional": "B3LYP", 
		 "basiset": "6-31G**", 
		 "properties": { 
			 "R2extent": 9024.9224, 
			 "electric_dipole_moment_norm": 2.07824382833, 
			 "electric_quadrupole_moment_norm": 12.4178838737, 
			 "total_energy": -1314.86188723, 
			 "HOMO_LUMO_gap": 0.17523, 
			 "cosmo_polarized_energy": -14.02, 
			 "cosmo_cavitation_energy": 41.73, 
			 "cosmo_dispersion_energy": -30.44, 
			 "cosmo_repulsion_energy": 2.34, 
			 "cosmo_total_nonelectrostatic_energy": 13.64, 
			 "SMD_solvation_energy": 7.73 
		},
		"coords": [
			{
				"x": -4.9283810922,
				"y": 0.1176025186,
				"z": 3.4970880478,
				"element": "C" 
			},
			{
				"x": -4.4118596579,
				"y": -0.2130760094,
				"z": 2.1048955549,
				"element": "C" 
			},
			{
				"x": -2.9846084231,
				"y": -0.0162914727,
				"z": 2.0071136667,
				"element": "O" 
			},
			{
				"x": -2.2179217284,
				"y": -1.0564025884,
				"z": 2.4362306205,
				"element": "C" 
			},
			{
				"x": -2.6745432418,
				"y": -2.1140726665,
				"z": 2.8450472148,
				"element": "O" 
			},
			{
				"x": -0.8836628776,
				"y": -0.7638666353,
				"z": 2.361065541,
				"element": "N" 
			},
			{
				"x": -0.3227704549,
				"y": 0.4613176458,
				"z": 1.7928815965,
				"element": "C" 
			},
			{
				"x": 0.3722825939,
				"y": 0.1882384363,
				"z": 0.4507786041,
				"element": "C" 
			},
			{
				"x": 1.2648210269,
				"y": -1.0269632281,
				"z": 0.5552761674,
				"element": "C" 
			},
			{
				"x": 1.1077581499,
				"y": -1.8969106782,
				"z": 1.5890984481,
				"element": "C" 
			},
			{
				"x": 0.0797823703,
				"y": -1.8099505837,
				"z": 2.6855773825,
				"element": "C" 
			},
			{
				"x": 2.2759308426,
				"y": -3.2165582608,
				"z": 1.5309056088,
				"element": "S" 
			},
			{
				"x": 2.9733172701,
				"y": -2.5838427801,
				"z": 0.0558987611,
				"element": "C" 
			},
			{
				"x": 4.0423728383,
				"y": -3.1846039905,
				"z": -0.5278031571,
				"element": "N" 
			},
			{
				"x": 2.3309205487,
				"y": -1.4133632729,
				"z": -0.3554845984,
				"element": "C" 
			},
			{
				"x": 2.7399757377,
				"y": -0.7819988051,
				"z": -1.6026284233,
				"element": "C" 
			},
			{
				"x": 3.6530588994,
				"y": -1.1901123695,
				"z": -2.3231253493,
				"element": "O" 
			},
			{
				"x": 2.005706895,
				"y": 0.3104118998,
				"z": -1.9290173187,
				"element": "O" 
			},
			{
				"x": 2.3525187056,
				"y": 0.9803507117,
				"z": -3.162824033,
				"element": "C" 
			},
			{
				"x": 3.4941200139,
				"y": 1.9663026283,
				"z": -2.962126046,
				"element": "C" 
			},
			{
				"x": -6.0201444079,
				"y": 0.032053227,
				"z": 3.5200935557,
				"element": "H" 
			},
			{
				"x": -4.6578269738,
				"y": 1.1388888236,
				"z": 3.7820834069,
				"element": "H" 
			},
			{
				"x": -4.5139810743,
				"y": -0.5783557436,
				"z": 4.2303693611,
				"element": "H" 
			},
			{
				"x": -4.6460515402,
				"y": -1.2452547142,
				"z": 1.8350546483,
				"element": "H" 
			},
			{
				"x": -4.8287320077,
				"y": 0.4621774269,
				"z": 1.3530486516,
				"element": "H" 
			},
			{
				"x": 0.4090387518,
				"y": 0.8611225373,
				"z": 2.5081473381,
				"element": "H" 
			},
			{
				"x": -1.1192888709,
				"y": 1.1938577966,
				"z": 1.6818104024,
				"element": "H" 
			},
			{
				"x": -0.3765771941,
				"y": 0.0401722308,
				"z": -0.3377646048,
				"element": "H" 
			},
			{
				"x": 0.9549046053,
				"y": 1.0650778996,
				"z": 0.1553269348,
				"element": "H" 
			},
			{
				"x": 0.5583684183,
				"y": -1.5936233369,
				"z": 3.6548725859,
				"element": "H" 
			},
			{
				"x": -0.4761396812,
				"y": -2.7434556712,
				"z": 2.8014611354,
				"element": "H" 
			},
			{
				"x": 4.2246384998,
				"y": -4.158762725,
				"z": -0.3451880432,
				"element": "H" 
			},
			{
				"x": 4.28038104,
				"y": -2.7995673492,
				"z": -1.4387099621,
				"element": "H" 
			},
			{
				"x": 1.4323995962,
				"y": 1.4900245104,
				"z": -3.4596212825,
				"element": "H" 
			},
			{
				"x": 2.6093471082,
				"y": 0.2296715168,
				"z": -3.9134848045,
				"element": "H" 
			},
			{
				"x": 4.4095065587,
				"y": 1.4397214016,
				"z": -2.6824920068,
				"element": "H" 
			},
			{
				"x": 3.6814626454,
				"y": 2.5127384347,
				"z": -3.8927034494,
				"element": "H" 
			},
			{
				"x": 3.2497761099,
				"y": 2.6929032357,
				"z": -2.1813521554,
				"element": "H" 
			}
		],
		 "valence_orbital": [ 
			{
				"type": "occ",
				"energy": -0.27255,
				"method": "rhf"
			},
			{
				"type": "occ",
				"energy": -0.26415,
				"method": "rhf"
			},
			{
				"type": "occ",
				"energy": -0.25017,
				"method": "rhf"
			},
			{
				"type": "occ",
				"energy": -0.23639,
				"method": "rhf"
			},
			{
				"type": "occ",
				"energy": -0.19494,
				"method": "rhf"
			},
			{
				"type": "unocc",
				"energy": -0.01971,
				"method": "rhf"
			},
			{
				"type": "unocc",
				"energy": 0.00928,
				"method": "rhf"
			},
			{
				"type": "unocc",
				"energy": 0.01687,
				"method": "rhf"
			},
			{
				"type": "unocc",
				"energy": 0.05864,
				"method": "rhf"
			},
			{
				"type": "unocc",
				"energy": 0.0846,
				"method": "rhf"
			}
		],
		"cosmo_sigma_profile": { 
			"-0.025": 0.0,
			"-0.024": 0.0,
			"-0.023": 0.0,
			"-0.022": 0.0,
			"-0.021": 0.0,
			"-0.02": 0.0,
			"-0.019": 0.0,
			"-0.018": 0.0,
			"-0.017": 0.0,
			"-0.016": 0.0,
			"-0.015": 0.846392647075,
			"-0.014": 1.11106603988,
			"-0.013": 1.57059940691,
			"-0.012": 1.3255998484,
			"-0.011": 1.08283023318,
			"-0.01": 1.73547993879,
			"-0.009": 2.22007423984,
			"-0.008": 1.6903794786,
			"-0.007": 1.28365787102,
			"-0.006": 4.17565645823,
			"-0.005": 16.1953595112,
			"-0.004": 29.7276063736,
			"-0.003": 37.8761000971,
			"-0.002": 33.461655336,
			"-0.001": 29.1515816126,
			"0.0": 34.4264501528,
			"0.001": 27.992652621,
			"0.002": 21.4192923205,
			"0.003": 21.8763079174,
			"0.004": 18.0418337241,
			"0.005": 10.4946593057,
			"0.006": 5.99427150465,
			"0.007": 4.35744731289,
			"0.008": 3.93541158563,
			"0.009": 3.31720232367,
			"0.01": 3.1715253191,
			"0.011": 3.22216040205,
			"0.012": 3.37528723614,
			"0.013": 4.53094489382,
			"0.014": 1.13892050099,
			"0.015": 0.0,
			"0.016": 0.0,
			"0.017": 0.0,
			"0.018": 0.0,
			"0.019": 0.0,
			"0.02": 0.0,
			"0.021": 0.0,
			"0.022": 0.0,
			"0.023": 0.0,
			"0.024": 0.0,
			"0.025": 0.0
		}
	}
}
