{
	 "smiles": "OC1=CC2=C(C=C1)C(=O)CC1(CCCCC1)O2", 
	 "Tm": 443.15, 
	 "num_atms": 33, 
	 "gaussian": { 
		 "optdone": 1, 
		 "sigma_profile": "yes", 
		 "theory": "DFT", 
		 "functional": "B3LYP", 
		 "basiset": "6-31G**", 
		 "properties": { 
			 "R2extent": 4526.4881, 
			 "electric_dipole_moment_norm": 1.93954061829, 
			 "electric_quadrupole_moment_norm": 23.4918260008, 
			 "total_energy": -768.816972904, 
			 "HOMO_LUMO_gap": 0.17988, 
			 "cosmo_polarized_energy": -13.6, 
			 "cosmo_cavitation_energy": 33.85, 
			 "cosmo_dispersion_energy": -24.64, 
			 "cosmo_repulsion_energy": 1.9, 
			 "cosmo_total_nonelectrostatic_energy": 11.11, 
			 "SMD_solvation_energy": 5.72 
		},
		"coords": [
			{
				"x": 4.6745645081,
				"y": 0.9291268507,
				"z": -2.2179268182,
				"element": "O" 
			},
			{
				"x": 3.539383451,
				"y": 0.229270002,
				"z": -1.9496729306,
				"element": "C" 
			},
			{
				"x": 2.4453717844,
				"y": 0.9521707946,
				"z": -1.4740623171,
				"element": "C" 
			},
			{
				"x": 1.2550854955,
				"y": 0.2823483307,
				"z": -1.1834281798,
				"element": "C" 
			},
			{
				"x": 1.1521550245,
				"y": -1.1139157802,
				"z": -1.3736735377,
				"element": "C" 
			},
			{
				"x": 2.2756993507,
				"y": -1.8164226937,
				"z": -1.8388605961,
				"element": "C" 
			},
			{
				"x": 3.4624925141,
				"y": -1.1660023531,
				"z": -2.1280211976,
				"element": "C" 
			},
			{
				"x": -0.1262781036,
				"y": -1.80181688,
				"z": -1.1382379236,
				"element": "C" 
			},
			{
				"x": -0.2718456287,
				"y": -3.0129015624,
				"z": -1.244351226,
				"element": "O" 
			},
			{
				"x": -1.2929569492,
				"y": -0.8801495415,
				"z": -0.8025351297,
				"element": "C" 
			},
			{
				"x": -0.8665799917,
				"y": 0.3690990566,
				"z": -0.0208443578,
				"element": "C" 
			},
			{
				"x": -0.3753765086,
				"y": 0.0272235323,
				"z": 1.4128664954,
				"element": "C" 
			},
			{
				"x": -1.5045307989,
				"y": 0.1658023256,
				"z": 2.4442088761,
				"element": "C" 
			},
			{
				"x": -1.9936846741,
				"y": 1.629750833,
				"z": 2.5484792638,
				"element": "C" 
			},
			{
				"x": -1.8577520213,
				"y": 2.3773630764,
				"z": 1.2003312611,
				"element": "C" 
			},
			{
				"x": -2.0031251578,
				"y": 1.4111231836,
				"z": 0.0198187929,
				"element": "C" 
			},
			{
				"x": 0.2194906577,
				"y": 1.0378755178,
				"z": -0.7372933658,
				"element": "O" 
			},
			{
				"x": 5.3583791303,
				"y": 0.3197669195,
				"z": -2.5257933716,
				"element": "H" 
			},
			{
				"x": 2.5201237213,
				"y": 2.0226631359,
				"z": -1.3242497539,
				"element": "H" 
			},
			{
				"x": 2.1741474376,
				"y": -2.8883811017,
				"z": -1.9758829394,
				"element": "H" 
			},
			{
				"x": 4.3250975905,
				"y": -1.7172312253,
				"z": -2.4947730309,
				"element": "H" 
			},
			{
				"x": -2.0422975994,
				"y": -1.4509741994,
				"z": -0.2468317084,
				"element": "H" 
			},
			{
				"x": -1.7551217413,
				"y": -0.5736511167,
				"z": -1.7518036093,
				"element": "H" 
			},
			{
				"x": 0.4323885319,
				"y": 0.7235743609,
				"z": 1.664764422,
				"element": "H" 
			},
			{
				"x": 0.055468727,
				"y": -0.9789011856,
				"z": 1.4428921954,
				"element": "H" 
			},
			{
				"x": -2.3368512811,
				"y": -0.4900702617,
				"z": 2.1579457288,
				"element": "H" 
			},
			{
				"x": -1.1637130916,
				"y": -0.1935862277,
				"z": 3.4208389638,
				"element": "H" 
			},
			{
				"x": -1.4207047439,
				"y": 2.1601259842,
				"z": 3.3178875843,
				"element": "H" 
			},
			{
				"x": -3.0381761939,
				"y": 1.640416401,
				"z": 2.8811927004,
				"element": "H" 
			},
			{
				"x": -0.8769264964,
				"y": 2.8620611239,
				"z": 1.1328726367,
				"element": "H" 
			},
			{
				"x": -2.6013540871,
				"y": 3.1782332986,
				"z": 1.1301181898,
				"element": "H" 
			},
			{
				"x": -2.0039224574,
				"y": 1.9426119825,
				"z": -0.937019822,
				"element": "H" 
			},
			{
				"x": -2.9622503986,
				"y": 0.8830974194,
				"z": 0.0916447048,
				"element": "H" 
			}
		],
		 "valence_orbital": [ 
			{
				"type": "occ",
				"energy": -0.30764,
				"method": "rhf"
			},
			{
				"type": "occ",
				"energy": -0.29968,
				"method": "rhf"
			},
			{
				"type": "occ",
				"energy": -0.23745,
				"method": "rhf"
			},
			{
				"type": "occ",
				"energy": -0.23711,
				"method": "rhf"
			},
			{
				"type": "occ",
				"energy": -0.22402,
				"method": "rhf"
			},
			{
				"type": "unocc",
				"energy": -0.04414,
				"method": "rhf"
			},
			{
				"type": "unocc",
				"energy": 0.00128,
				"method": "rhf"
			},
			{
				"type": "unocc",
				"energy": 0.05243,
				"method": "rhf"
			},
			{
				"type": "unocc",
				"energy": 0.06345,
				"method": "rhf"
			},
			{
				"type": "unocc",
				"energy": 0.07509,
				"method": "rhf"
			}
		],
		"cosmo_sigma_profile": { 
			"-0.025": 0.0,
			"-0.024": 0.0,
			"-0.023": 0.0,
			"-0.022": 0.0,
			"-0.021": 0.0,
			"-0.02": 0.0,
			"-0.019": 0.061350306476,
			"-0.018": 1.07955480762,
			"-0.017": 1.26692163098,
			"-0.016": 0.779914101989,
			"-0.015": 1.10884192403,
			"-0.014": 1.12111049367,
			"-0.013": 1.31107151351,
			"-0.012": 0.837863555199,
			"-0.011": 0.740985925635,
			"-0.01": 1.29979329295,
			"-0.009": 0.908613951828,
			"-0.008": 0.787663782628,
			"-0.007": 2.74751756616,
			"-0.006": 6.94377975405,
			"-0.005": 9.94637207018,
			"-0.004": 14.8109091207,
			"-0.003": 24.0400168593,
			"-0.002": 31.1650169735,
			"-0.001": 33.3255292058,
			"0.0": 26.4323010633,
			"0.001": 21.4166563528,
			"0.002": 15.0499821106,
			"0.003": 18.7737910013,
			"0.004": 11.446603002,
			"0.005": 5.49567078086,
			"0.006": 4.81372258789,
			"0.007": 3.6938766418,
			"0.008": 3.68125369695,
			"0.009": 4.1853912385,
			"0.01": 3.68061632561,
			"0.011": 3.29425698269,
			"0.012": 3.88028191151,
			"0.013": 3.80578262492,
			"0.014": 1.02793207433,
			"0.015": 0.00656597674182,
			"0.016": 0.0,
			"0.017": 0.0,
			"0.018": 0.0,
			"0.019": 0.0,
			"0.02": 0.0,
			"0.021": 0.0,
			"0.022": 0.0,
			"0.023": 0.0,
			"0.024": 0.0,
			"0.025": 0.0
		}
	}
}
