{
	 "smiles": "OC(=O)C1=C(C=C2OCCOC2=C1)[N+]([O-])=O", 
	 "Tm": 495.15, 
	 "num_atms": 23, 
	 "gaussian": { 
		 "optdone": 1, 
		 "sigma_profile": "yes", 
		 "theory": "DFT", 
		 "functional": "B3LYP", 
		 "basiset": "6-31G**", 
		 "properties": { 
			 "R2extent": 4424.9642, 
			 "electric_dipole_moment_norm": 8.11454492193, 
			 "electric_quadrupole_moment_norm": 11.853888373, 
			 "total_energy": -853.154028032, 
			 "HOMO_LUMO_gap": 0.14211, 
			 "cosmo_polarized_energy": -16.66, 
			 "cosmo_cavitation_energy": 27.75, 
			 "cosmo_dispersion_energy": -21.3, 
			 "cosmo_repulsion_energy": 1.62, 
			 "cosmo_total_nonelectrostatic_energy": 8.07, 
			 "SMD_solvation_energy": 8.37 
		},
		"coords": [
			{
				"x": 0.3471626859,
				"y": -3.9313439331,
				"z": -2.3462908927,
				"element": "O" 
			},
			{
				"x": 0.2764507034,
				"y": -3.2363766915,
				"z": -1.2194456696,
				"element": "C" 
			},
			{
				"x": 0.316868864,
				"y": -3.7866027639,
				"z": -0.1389826017,
				"element": "O" 
			},
			{
				"x": 0.1890918815,
				"y": -1.7025540862,
				"z": -1.2714340495,
				"element": "C" 
			},
			{
				"x": -0.236098459,
				"y": -0.8028688306,
				"z": -2.2868446027,
				"element": "C" 
			},
			{
				"x": -0.3011951986,
				"y": 0.5761950671,
				"z": -2.0593862502,
				"element": "C" 
			},
			{
				"x": 0.0634067207,
				"y": 1.1147858483,
				"z": -0.8352570458,
				"element": "C" 
			},
			{
				"x": 0.0200094445,
				"y": 2.4670590834,
				"z": -0.6711179926,
				"element": "O" 
			},
			{
				"x": 0.7348347655,
				"y": 2.9332476994,
				"z": 0.4804056722,
				"element": "C" 
			},
			{
				"x": 0.4133541757,
				"y": 2.0637402654,
				"z": 1.6834398043,
				"element": "C" 
			},
			{
				"x": 0.7994347179,
				"y": 0.705579551,
				"z": 1.4316770002,
				"element": "O" 
			},
			{
				"x": 0.4628303892,
				"y": 0.2461986509,
				"z": 0.1976528458,
				"element": "C" 
			},
			{
				"x": 0.510131581,
				"y": -1.1241688064,
				"z": -0.0384566148,
				"element": "C" 
			},
			{
				"x": -0.6394852378,
				"y": -1.174038055,
				"z": -3.6503986028,
				"element": "N" 
			},
			{
				"x": -1.3793270334,
				"y": -0.4120885333,
				"z": -4.2586820557,
				"element": "O" 
			},
			{
				"x": -0.1912236379,
				"y": -2.2138475035,
				"z": -4.1688432623,
				"element": "O" 
			},
			{
				"x": 0.2795283334,
				"y": -3.3328273349,
				"z": -3.1277633108,
				"element": "H" 
			},
			{
				"x": -0.6298396908,
				"y": 1.2367467813,
				"z": -2.8504514484,
				"element": "H" 
			},
			{
				"x": 0.4179340013,
				"y": 3.9657844851,
				"z": 0.6408692531,
				"element": "H" 
			},
			{
				"x": 1.8128080882,
				"y": 2.9151851894,
				"z": 0.27513798,
				"element": "H" 
			},
			{
				"x": 0.9722129376,
				"y": 2.3818148589,
				"z": 2.5659576654,
				"element": "H" 
			},
			{
				"x": -0.6606980807,
				"y": 2.1013677905,
				"z": 1.9042439687,
				"element": "H" 
			},
			{
				"x": 0.7825080484,
				"y": -1.7873887322,
				"z": 0.7734702099,
				"element": "H" 
			}
		],
		 "valence_orbital": [ 
			{
				"type": "occ",
				"energy": -0.31532,
				"method": "rhf"
			},
			{
				"type": "occ",
				"energy": -0.30483,
				"method": "rhf"
			},
			{
				"type": "occ",
				"energy": -0.27934,
				"method": "rhf"
			},
			{
				"type": "occ",
				"energy": -0.26749,
				"method": "rhf"
			},
			{
				"type": "occ",
				"energy": -0.25447,
				"method": "rhf"
			},
			{
				"type": "unocc",
				"energy": -0.11236,
				"method": "rhf"
			},
			{
				"type": "unocc",
				"energy": -0.05148,
				"method": "rhf"
			},
			{
				"type": "unocc",
				"energy": -0.02034,
				"method": "rhf"
			},
			{
				"type": "unocc",
				"energy": 0.04381,
				"method": "rhf"
			},
			{
				"type": "unocc",
				"energy": 0.05552,
				"method": "rhf"
			}
		],
		"cosmo_sigma_profile": { 
			"-0.025": 0.0,
			"-0.024": 0.0,
			"-0.023": 0.0,
			"-0.022": 0.0,
			"-0.021": 0.0,
			"-0.02": 0.0,
			"-0.019": 0.0,
			"-0.018": 0.0,
			"-0.017": 0.0,
			"-0.016": 0.0,
			"-0.015": 0.0,
			"-0.014": 0.0,
			"-0.013": 0.139589440349,
			"-0.012": 0.365384559594,
			"-0.011": 0.561290739798,
			"-0.01": 0.799145029468,
			"-0.009": 1.63146073203,
			"-0.008": 10.0217600534,
			"-0.007": 18.3046592661,
			"-0.006": 16.9360921246,
			"-0.005": 14.444536276,
			"-0.004": 11.2232220283,
			"-0.003": 12.796370877,
			"-0.002": 14.4226049693,
			"-0.001": 17.3762023047,
			"0.0": 14.1434699419,
			"0.001": 8.99573749723,
			"0.002": 7.87474979451,
			"0.003": 7.63915288777,
			"0.004": 7.0405664647,
			"0.005": 8.55010616009,
			"0.006": 10.0255195042,
			"0.007": 9.25484925612,
			"0.008": 9.18765457843,
			"0.009": 5.79502780473,
			"0.01": 3.85320312419,
			"0.011": 5.59103436619,
			"0.012": 4.07092635911,
			"0.013": 1.72949929164,
			"0.014": 0.135923484665,
			"0.015": 0.0,
			"0.016": 0.0,
			"0.017": 0.0,
			"0.018": 0.0,
			"0.019": 0.0,
			"0.02": 0.0,
			"0.021": 0.0,
			"0.022": 0.0,
			"0.023": 0.0,
			"0.024": 0.0,
			"0.025": 0.0
		}
	}
}
