{
	 "smiles": "CC(C)C(C)C", 
	 "Tm": 145.15, 
	 "num_atms": 20, 
	 "gaussian": { 
		 "optdone": 1, 
		 "sigma_profile": "yes", 
		 "theory": "DFT", 
		 "functional": "B3LYP", 
		 "basiset": "6-31G**", 
		 "properties": { 
			 "R2extent": 843.4669, 
			 "electric_dipole_moment_norm": 0.0714988811101, 
			 "electric_quadrupole_moment_norm": 0.383658741592, 
			 "total_energy": -237.097708391, 
			 "HOMO_LUMO_gap": 0.37975, 
			 "cosmo_polarized_energy": -0.61, 
			 "cosmo_cavitation_energy": 20.45, 
			 "cosmo_dispersion_energy": -14.85, 
			 "cosmo_repulsion_energy": 1.26, 
			 "cosmo_total_nonelectrostatic_energy": 6.86, 
			 "SMD_solvation_energy": 3.8 
		},
		"coords": [
			{
				"x": -0.7565825859,
				"y": -1.0828954606,
				"z": -1.9940957891,
				"element": "C" 
			},
			{
				"x": -1.2786855654,
				"y": -0.7599837845,
				"z": -0.5848632807,
				"element": "C" 
			},
			{
				"x": -0.9209524147,
				"y": -1.8923588364,
				"z": 0.3919392118,
				"element": "C" 
			},
			{
				"x": -0.8326918043,
				"y": 0.6508295034,
				"z": -0.1064643459,
				"element": "C" 
			},
			{
				"x": -1.6128065518,
				"y": 1.1120115475,
				"z": 1.1351330889,
				"element": "C" 
			},
			{
				"x": 0.6807900905,
				"y": 0.7792631056,
				"z": 0.1329334432,
				"element": "C" 
			},
			{
				"x": 0.3335490443,
				"y": -1.1936233616,
				"z": -2.0074108337,
				"element": "H" 
			},
			{
				"x": -1.0206288849,
				"y": -0.295369553,
				"z": -2.7089529608,
				"element": "H" 
			},
			{
				"x": -1.1820698277,
				"y": -2.0231083303,
				"z": -2.3617520308,
				"element": "H" 
			},
			{
				"x": -2.3764722636,
				"y": -0.7215717828,
				"z": -0.6506044819,
				"element": "H" 
			},
			{
				"x": -1.3429610458,
				"y": -2.8425807748,
				"z": 0.0469498866,
				"element": "H" 
			},
			{
				"x": -1.308946565,
				"y": -1.7082268334,
				"z": 1.3986207743,
				"element": "H" 
			},
			{
				"x": 0.1634428697,
				"y": -2.0283405952,
				"z": 0.4704307872,
				"element": "H" 
			},
			{
				"x": -1.0927153997,
				"y": 1.3409595623,
				"z": -0.9231881652,
				"element": "H" 
			},
			{
				"x": -1.373756442,
				"y": 2.1523018567,
				"z": 1.3818256123,
				"element": "H" 
			},
			{
				"x": -1.3696125569,
				"y": 0.5062579874,
				"z": 2.0153321513,
				"element": "H" 
			},
			{
				"x": -2.6949399644,
				"y": 1.0476145348,
				"z": 0.9745794374,
				"element": "H" 
			},
			{
				"x": 1.2646953397,
				"y": 0.4904797251,
				"z": -0.746577479,
				"element": "H" 
			},
			{
				"x": 1.0095486448,
				"y": 0.1567568556,
				"z": 0.972552625,
				"element": "H" 
			},
			{
				"x": 0.9431958831,
				"y": 1.8149846342,
				"z": 0.3747123491,
				"element": "H" 
			}
		],
		 "valence_orbital": [ 
			{
				"type": "occ",
				"energy": -0.34164,
				"method": "rhf"
			},
			{
				"type": "occ",
				"energy": -0.34046,
				"method": "rhf"
			},
			{
				"type": "occ",
				"energy": -0.30886,
				"method": "rhf"
			},
			{
				"type": "occ",
				"energy": -0.30834,
				"method": "rhf"
			},
			{
				"type": "occ",
				"energy": -0.30084,
				"method": "rhf"
			},
			{
				"type": "unocc",
				"energy": 0.07891,
				"method": "rhf"
			},
			{
				"type": "unocc",
				"energy": 0.12317,
				"method": "rhf"
			},
			{
				"type": "unocc",
				"energy": 0.12359,
				"method": "rhf"
			},
			{
				"type": "unocc",
				"energy": 0.13717,
				"method": "rhf"
			},
			{
				"type": "unocc",
				"energy": 0.14553,
				"method": "rhf"
			}
		],
		"cosmo_sigma_profile": { 
			"-0.025": 0.0,
			"-0.024": 0.0,
			"-0.023": 0.0,
			"-0.022": 0.0,
			"-0.021": 0.0,
			"-0.02": 0.0,
			"-0.019": 0.0,
			"-0.018": 0.0,
			"-0.017": 0.0,
			"-0.016": 0.0,
			"-0.015": 0.0,
			"-0.014": 0.0,
			"-0.013": 0.0,
			"-0.012": 0.0,
			"-0.011": 0.0,
			"-0.01": 0.0,
			"-0.009": 0.0,
			"-0.008": 0.0,
			"-0.007": 0.0,
			"-0.006": 0.0,
			"-0.005": 0.0,
			"-0.004": 0.0,
			"-0.003": 3.93911057834,
			"-0.002": 23.3871527602,
			"-0.001": 31.7877131555,
			"0.0": 36.7898672615,
			"0.001": 32.7543057343,
			"0.002": 25.5739235367,
			"0.003": 2.22628182545,
			"0.004": 0.0,
			"0.005": 0.0,
			"0.006": 0.0,
			"0.007": 0.0,
			"0.008": 0.0,
			"0.009": 0.0,
			"0.01": 0.0,
			"0.011": 0.0,
			"0.012": 0.0,
			"0.013": 0.0,
			"0.014": 0.0,
			"0.015": 0.0,
			"0.016": 0.0,
			"0.017": 0.0,
			"0.018": 0.0,
			"0.019": 0.0,
			"0.02": 0.0,
			"0.021": 0.0,
			"0.022": 0.0,
			"0.023": 0.0,
			"0.024": 0.0,
			"0.025": 0.0
		}
	}
}
