{
	 "smiles": "NCCN(CCN)N(O)N=O", 
	 "Tm": 375.15, 
	 "num_atms": 24, 
	 "gaussian": { 
		 "optdone": 1, 
		 "sigma_profile": "yes", 
		 "theory": "DFT", 
		 "functional": "B3LYP", 
		 "basiset": "6-31G**", 
		 "properties": { 
			 "R2extent": 2206.1804, 
			 "electric_dipole_moment_norm": 1.82028998239, 
			 "electric_quadrupole_moment_norm": 12.466013181, 
			 "total_energy": -584.287253683, 
			 "HOMO_LUMO_gap": 0.17868, 
			 "cosmo_polarized_energy": -14.63, 
			 "cosmo_cavitation_energy": 26.76, 
			 "cosmo_dispersion_energy": -19.07, 
			 "cosmo_repulsion_energy": 1.59, 
			 "cosmo_total_nonelectrostatic_energy": 9.27, 
			 "SMD_solvation_energy": 2.77 
		},
		"coords": [
			{
				"x": 0.2047011455,
				"y": -3.4191498994,
				"z": -0.4946534812,
				"element": "N" 
			},
			{
				"x": -0.568799393,
				"y": -2.3859877076,
				"z": -1.1802924946,
				"element": "C" 
			},
			{
				"x": -1.199634347,
				"y": -1.4347781946,
				"z": -0.1671972862,
				"element": "C" 
			},
			{
				"x": -0.1690145131,
				"y": -0.7474688926,
				"z": 0.6435061871,
				"element": "N" 
			},
			{
				"x": -0.6045962408,
				"y": -0.1377385066,
				"z": 1.9132423507,
				"element": "C" 
			},
			{
				"x": -1.6455872406,
				"y": 0.9991058218,
				"z": 1.8354243323,
				"element": "C" 
			},
			{
				"x": -2.0400996882,
				"y": 1.5317215435,
				"z": 3.1389186932,
				"element": "N" 
			},
			{
				"x": 0.6632565223,
				"y": 0.0465919289,
				"z": -0.0862190206,
				"element": "N" 
			},
			{
				"x": 0.1245395749,
				"y": 1.1216471829,
				"z": -0.812583917,
				"element": "O" 
			},
			{
				"x": 1.8463083235,
				"y": -0.4059013432,
				"z": -0.4706143149,
				"element": "N" 
			},
			{
				"x": 2.367094905,
				"y": 0.3091486029,
				"z": -1.3452869109,
				"element": "O" 
			},
			{
				"x": 0.9813738245,
				"y": -2.9757376425,
				"z": -0.0089834146,
				"element": "H" 
			},
			{
				"x": 0.6133613837,
				"y": -4.0531409635,
				"z": -1.1762198545,
				"element": "H" 
			},
			{
				"x": -1.3870811997,
				"y": -2.8623525046,
				"z": -1.7334464092,
				"element": "H" 
			},
			{
				"x": 0.0014230017,
				"y": -1.7957313612,
				"z": -1.9196070921,
				"element": "H" 
			},
			{
				"x": -1.7945856738,
				"y": -2.0146321514,
				"z": 0.5439130507,
				"element": "H" 
			},
			{
				"x": -1.8557824478,
				"y": -0.7177465358,
				"z": -0.6772722082,
				"element": "H" 
			},
			{
				"x": -1.0037400976,
				"y": -0.9600121345,
				"z": 2.519601025,
				"element": "H" 
			},
			{
				"x": 0.2998890795,
				"y": 0.2218538898,
				"z": 2.4162464581,
				"element": "H" 
			},
			{
				"x": -1.2489075233,
				"y": 1.818249355,
				"z": 1.2282834927,
				"element": "H" 
			},
			{
				"x": -2.5486548273,
				"y": 0.6427281262,
				"z": 1.3262704252,
				"element": "H" 
			},
			{
				"x": -2.415958936,
				"y": 0.7921666828,
				"z": 3.7282641687,
				"element": "H" 
			},
			{
				"x": -1.2306971778,
				"y": 1.9082983448,
				"z": 3.6270428704,
				"element": "H" 
			},
			{
				"x": 0.9060915454,
				"y": 1.2903663589,
				"z": -1.4074366503,
				"element": "H" 
			}
		],
		 "valence_orbital": [ 
			{
				"type": "occ",
				"energy": -0.28439,
				"method": "rhf"
			},
			{
				"type": "occ",
				"energy": -0.26268,
				"method": "rhf"
			},
			{
				"type": "occ",
				"energy": -0.25854,
				"method": "rhf"
			},
			{
				"type": "occ",
				"energy": -0.23842,
				"method": "rhf"
			},
			{
				"type": "occ",
				"energy": -0.23154,
				"method": "rhf"
			},
			{
				"type": "unocc",
				"energy": -0.05286,
				"method": "rhf"
			},
			{
				"type": "unocc",
				"energy": 0.06495,
				"method": "rhf"
			},
			{
				"type": "unocc",
				"energy": 0.07125,
				"method": "rhf"
			},
			{
				"type": "unocc",
				"energy": 0.08615,
				"method": "rhf"
			},
			{
				"type": "unocc",
				"energy": 0.10435,
				"method": "rhf"
			}
		],
		"cosmo_sigma_profile": { 
			"-0.025": 0.0,
			"-0.024": 0.0,
			"-0.023": 0.0,
			"-0.022": 0.0,
			"-0.021": 0.0,
			"-0.02": 0.0,
			"-0.019": 0.0,
			"-0.018": 0.0,
			"-0.017": 0.0,
			"-0.016": 0.0,
			"-0.015": 0.0,
			"-0.014": 0.0,
			"-0.013": 0.348144544459,
			"-0.012": 0.643127728061,
			"-0.011": 0.683384137869,
			"-0.01": 2.56406495542,
			"-0.009": 5.12626251414,
			"-0.008": 4.70732536474,
			"-0.007": 7.56197610931,
			"-0.006": 12.213453344,
			"-0.005": 15.1178541114,
			"-0.004": 20.4644493105,
			"-0.003": 21.4492658568,
			"-0.002": 17.3281750929,
			"-0.001": 11.6538001754,
			"0.0": 9.95097052969,
			"0.001": 7.53737017118,
			"0.002": 7.06348175868,
			"0.003": 6.25311268793,
			"0.004": 6.42788948606,
			"0.005": 7.82407569859,
			"0.006": 7.24789822911,
			"0.007": 7.28359089099,
			"0.008": 5.43615609427,
			"0.009": 4.27409360421,
			"0.01": 4.23596144287,
			"0.011": 2.45536370649,
			"0.012": 2.03968036152,
			"0.013": 1.58996811187,
			"0.014": 1.60051168908,
			"0.015": 1.07805227461,
			"0.016": 1.00665913356,
			"0.017": 1.27739943014,
			"0.018": 1.3425741307,
			"0.019": 0.991592260322,
			"0.02": 0.421838752254,
			"0.021": 0.0,
			"0.022": 0.0,
			"0.023": 0.0,
			"0.024": 0.0,
			"0.025": 0.0
		}
	}
}
