{
	 "smiles": "CS(=O)(=O)C1=CC=C(C(=O)C2C(=O)CCCC2=O)C(=C1)[N+]([O-])=O", 
	 "Tm": 438.15, 
	 "num_atms": 36, 
	 "gaussian": { 
		 "optdone": 1, 
		 "sigma_profile": "yes", 
		 "theory": "DFT", 
		 "functional": "B3LYP", 
		 "basiset": "6-31G**", 
		 "properties": { 
			 "R2extent": 9627.8985, 
			 "electric_dipole_moment_norm": 5.75416452493, 
			 "electric_quadrupole_moment_norm": 30.6255927791, 
			 "total_energy": -1520.63977505, 
			 "HOMO_LUMO_gap": 0.1418, 
			 "cosmo_polarized_energy": -27.74, 
			 "cosmo_cavitation_energy": 42.23, 
			 "cosmo_dispersion_energy": -29.37, 
			 "cosmo_repulsion_energy": 2.2, 
			 "cosmo_total_nonelectrostatic_energy": 15.05, 
			 "SMD_solvation_energy": 9.77 
		},
		"coords": [
			{
				"x": 5.1110878708,
				"y": -1.0563235064,
				"z": -2.3555444222,
				"element": "C" 
			},
			{
				"x": 3.9103801974,
				"y": -2.3571966605,
				"z": -2.7204995134,
				"element": "S" 
			},
			{
				"x": 4.2996454005,
				"y": -3.5542030228,
				"z": -1.9637136107,
				"element": "O" 
			},
			{
				"x": 3.7127551667,
				"y": -2.392340571,
				"z": -4.1762233359,
				"element": "O" 
			},
			{
				"x": 2.378473351,
				"y": -1.7300366984,
				"z": -1.9907370545,
				"element": "C" 
			},
			{
				"x": 1.4926367854,
				"y": -0.9919436753,
				"z": -2.7782555843,
				"element": "C" 
			},
			{
				"x": 0.3077502143,
				"y": -0.5185965804,
				"z": -2.2178750367,
				"element": "C" 
			},
			{
				"x": -0.0006832227,
				"y": -0.7675767538,
				"z": -0.8745275306,
				"element": "C" 
			},
			{
				"x": -1.3141822073,
				"y": -0.2214423222,
				"z": -0.3448027796,
				"element": "C" 
			},
			{
				"x": -2.3637506733,
				"y": -0.7104909167,
				"z": -0.7088797719,
				"element": "O" 
			},
			{
				"x": -1.2343894574,
				"y": 1.0830865058,
				"z": 0.4666526736,
				"element": "C" 
			},
			{
				"x": -2.2793331728,
				"y": 1.1568333287,
				"z": 1.5917158475,
				"element": "C" 
			},
			{
				"x": -1.9265359131,
				"y": 1.1261429377,
				"z": 2.7506276077,
				"element": "O" 
			},
			{
				"x": -3.7316667204,
				"y": 1.3398407451,
				"z": 1.1776781206,
				"element": "C" 
			},
			{
				"x": -3.9052184547,
				"y": 1.9992705805,
				"z": -0.2069787953,
				"element": "C" 
			},
			{
				"x": -2.7455750855,
				"y": 2.9561870573,
				"z": -0.5357705051,
				"element": "C" 
			},
			{
				"x": -1.4035801711,
				"y": 2.2476424386,
				"z": -0.5509660384,
				"element": "C" 
			},
			{
				"x": -0.495065878,
				"y": 2.5395395888,
				"z": -1.3002107379,
				"element": "O" 
			},
			{
				"x": 0.9029455467,
				"y": -1.5322896311,
				"z": -0.1260754542,
				"element": "C" 
			},
			{
				"x": 2.0887440933,
				"y": -2.0262503544,
				"z": -0.663614467,
				"element": "C" 
			},
			{
				"x": 0.5871052407,
				"y": -1.870304913,
				"z": 1.270499196,
				"element": "N" 
			},
			{
				"x": 1.4039451398,
				"y": -2.5283632051,
				"z": 1.9040685058,
				"element": "O" 
			},
			{
				"x": -0.4895879469,
				"y": -1.4636691864,
				"z": 1.7143483614,
				"element": "O" 
			},
			{
				"x": 4.7887979517,
				"y": -0.1258388407,
				"z": -2.824920634,
				"element": "H" 
			},
			{
				"x": 6.0573971567,
				"y": -1.390965366,
				"z": -2.7858886471,
				"element": "H" 
			},
			{
				"x": 5.2048012066,
				"y": -0.9453401411,
				"z": -1.2744289258,
				"element": "H" 
			},
			{
				"x": 1.7248629213,
				"y": -0.8123924885,
				"z": -3.8226564112,
				"element": "H" 
			},
			{
				"x": -0.3829238383,
				"y": 0.0589843708,
				"z": -2.8211730359,
				"element": "H" 
			},
			{
				"x": -0.2431750413,
				"y": 1.1716990246,
				"z": 0.9154896957,
				"element": "H" 
			},
			{
				"x": -4.1975906394,
				"y": 0.3472583903,
				"z": 1.1836448511,
				"element": "H" 
			},
			{
				"x": -4.2084262233,
				"y": 1.9209770859,
				"z": 1.9732078817,
				"element": "H" 
			},
			{
				"x": -3.9622111265,
				"y": 1.2266907163,
				"z": -0.9779431051,
				"element": "H" 
			},
			{
				"x": -4.849404225,
				"y": 2.5506399361,
				"z": -0.2364134514,
				"element": "H" 
			},
			{
				"x": -2.6789622971,
				"y": 3.7419450976,
				"z": 0.2332588451,
				"element": "H" 
			},
			{
				"x": -2.8724587051,
				"y": 3.4612526727,
				"z": -1.4969487995,
				"element": "H" 
			},
			{
				"x": 2.7433927563,
				"y": -2.644625643,
				"z": -0.0612439386,
				"element": "H" 
			}
		],
		 "valence_orbital": [ 
			{
				"type": "occ",
				"energy": -0.31086,
				"method": "rhf"
			},
			{
				"type": "occ",
				"energy": -0.30345,
				"method": "rhf"
			},
			{
				"type": "occ",
				"energy": -0.28893,
				"method": "rhf"
			},
			{
				"type": "occ",
				"energy": -0.27432,
				"method": "rhf"
			},
			{
				"type": "occ",
				"energy": -0.25841,
				"method": "rhf"
			},
			{
				"type": "unocc",
				"energy": -0.11661,
				"method": "rhf"
			},
			{
				"type": "unocc",
				"energy": -0.07554,
				"method": "rhf"
			},
			{
				"type": "unocc",
				"energy": -0.06404,
				"method": "rhf"
			},
			{
				"type": "unocc",
				"energy": -0.04298,
				"method": "rhf"
			},
			{
				"type": "unocc",
				"energy": -0.0309,
				"method": "rhf"
			}
		],
		"cosmo_sigma_profile": { 
			"-0.025": 0.0,
			"-0.024": 0.0,
			"-0.023": 0.0,
			"-0.022": 0.0,
			"-0.021": 0.0,
			"-0.02": 0.0,
			"-0.019": 0.0,
			"-0.018": 0.0,
			"-0.017": 0.0,
			"-0.016": 0.0,
			"-0.015": 0.0,
			"-0.014": 0.0,
			"-0.013": 0.0,
			"-0.012": 0.0595398834339,
			"-0.011": 0.400115813217,
			"-0.01": 3.80592289293,
			"-0.009": 14.3612337058,
			"-0.008": 15.6171661733,
			"-0.007": 17.5050645844,
			"-0.006": 18.9583163863,
			"-0.005": 24.8388535451,
			"-0.004": 29.3526400753,
			"-0.003": 29.271858246,
			"-0.002": 21.5389852782,
			"-0.001": 15.0211000973,
			"0.0": 11.7947940136,
			"0.001": 8.77800637258,
			"0.002": 8.02057160247,
			"0.003": 9.60354224469,
			"0.004": 10.0914335659,
			"0.005": 9.78482242652,
			"0.006": 11.9187162295,
			"0.007": 12.8210927619,
			"0.008": 11.3508875189,
			"0.009": 12.4694699528,
			"0.01": 15.7550153803,
			"0.011": 17.3730150035,
			"0.012": 5.36377361776,
			"0.013": 0.0616235174233,
			"0.014": 0.0,
			"0.015": 0.0,
			"0.016": 0.0,
			"0.017": 0.0,
			"0.018": 0.0,
			"0.019": 0.0,
			"0.02": 0.0,
			"0.021": 0.0,
			"0.022": 0.0,
			"0.023": 0.0,
			"0.024": 0.0,
			"0.025": 0.0
		}
	}
}
