{
	 "smiles": "COC(=O)C1=CC(OCC(F)(F)F)=CC=C1OCC(F)(F)F", 
	 "Tm": 313.65, 
	 "num_atms": 32, 
	 "gaussian": { 
		 "optdone": 1, 
		 "sigma_profile": "yes", 
		 "theory": "DFT", 
		 "functional": "B3LYP", 
		 "basiset": "6-31G**", 
		 "properties": { 
			 "R2extent": 10815.6213, 
			 "electric_dipole_moment_norm": 2.96970329158, 
			 "electric_quadrupole_moment_norm": 18.0998322564, 
			 "total_energy": -1363.22799552, 
			 "HOMO_LUMO_gap": 0.1842, 
			 "cosmo_polarized_energy": -14.01, 
			 "cosmo_cavitation_energy": 40.28, 
			 "cosmo_dispersion_energy": -27.24, 
			 "cosmo_repulsion_energy": 1.95, 
			 "cosmo_total_nonelectrostatic_energy": 14.99, 
			 "SMD_solvation_energy": 10.96 
		},
		"coords": [
			{
				"x": -1.2947508962,
				"y": -3.882911803,
				"z": 2.253970179,
				"element": "C" 
			},
			{
				"x": -0.9133476035,
				"y": -2.7974553675,
				"z": 1.3909610848,
				"element": "O" 
			},
			{
				"x": -1.1805537549,
				"y": -1.5621385666,
				"z": 1.8543039696,
				"element": "C" 
			},
			{
				"x": -1.6677075461,
				"y": -1.3535661501,
				"z": 2.9478096604,
				"element": "O" 
			},
			{
				"x": -0.7937754341,
				"y": -0.4696733973,
				"z": 0.9027530238,
				"element": "C" 
			},
			{
				"x": -0.7569580947,
				"y": 0.8150342412,
				"z": 1.451857906,
				"element": "C" 
			},
			{
				"x": -0.4291572316,
				"y": 1.9275277189,
				"z": 0.6749675869,
				"element": "C" 
			},
			{
				"x": -0.4156421907,
				"y": 3.1273385278,
				"z": 1.3350443125,
				"element": "O" 
			},
			{
				"x": -0.1121563215,
				"y": 4.2893239968,
				"z": 0.5991235079,
				"element": "C" 
			},
			{
				"x": -0.1630679702,
				"y": 5.4647382545,
				"z": 1.5600267011,
				"element": "C" 
			},
			{
				"x": 0.7328212849,
				"y": 5.3368953798,
				"z": 2.5526422168,
				"element": "F" 
			},
			{
				"x": -1.3795263711,
				"y": 5.6084628464,
				"z": 2.1100596388,
				"element": "F" 
			},
			{
				"x": 0.12558369,
				"y": 6.5946770257,
				"z": 0.8770755382,
				"element": "F" 
			},
			{
				"x": -0.1503954407,
				"y": 1.7653713467,
				"z": -0.6857915263,
				"element": "C" 
			},
			{
				"x": -0.2004194385,
				"y": 0.4869480629,
				"z": -1.2432852056,
				"element": "C" 
			},
			{
				"x": -0.5116994383,
				"y": -0.6313572129,
				"z": -0.4724368574,
				"element": "C" 
			},
			{
				"x": -0.6152981798,
				"y": -1.8487832546,
				"z": -1.114962953,
				"element": "O" 
			},
			{
				"x": 0.5765227726,
				"y": -2.612651174,
				"z": -1.1548524781,
				"element": "C" 
			},
			{
				"x": 0.2406032809,
				"y": -3.9726759541,
				"z": -1.7372498741,
				"element": "C" 
			},
			{
				"x": 1.3750950143,
				"y": -4.7045107725,
				"z": -1.8204743621,
				"element": "F" 
			},
			{
				"x": -0.6333887952,
				"y": -4.6546637065,
				"z": -0.9733680388,
				"element": "F" 
			},
			{
				"x": -0.2820007948,
				"y": -3.8759817931,
				"z": -2.9722081545,
				"element": "F" 
			},
			{
				"x": -0.7295283761,
				"y": -3.8473652635,
				"z": 3.1887364818,
				"element": "H" 
			},
			{
				"x": -1.0636710106,
				"y": -4.786442155,
				"z": 1.6918142826,
				"element": "H" 
			},
			{
				"x": -2.3613557132,
				"y": -3.8309187587,
				"z": 2.4832580878,
				"element": "H" 
			},
			{
				"x": -0.9956970449,
				"y": 0.9443577291,
				"z": 2.501055949,
				"element": "H" 
			},
			{
				"x": -0.8402191234,
				"y": 4.4719476128,
				"z": -0.2016074949,
				"element": "H" 
			},
			{
				"x": 0.8944998546,
				"y": 4.250480097,
				"z": 0.1634071014,
				"element": "H" 
			},
			{
				"x": 0.0941742246,
				"y": 2.6096927875,
				"z": -1.3196969183,
				"element": "H" 
			},
			{
				"x": -0.0149456819,
				"y": 0.3453854757,
				"z": -2.3031758453,
				"element": "H" 
			},
			{
				"x": 1.3341653052,
				"y": -2.1460647944,
				"z": -1.7981641335,
				"element": "H" 
			},
			{
				"x": 0.9926970248,
				"y": -2.7662209789,
				"z": -0.1547933865,
				"element": "H" 
			}
		],
		 "valence_orbital": [ 
			{
				"type": "occ",
				"energy": -0.31092,
				"method": "rhf"
			},
			{
				"type": "occ",
				"energy": -0.29273,
				"method": "rhf"
			},
			{
				"type": "occ",
				"energy": -0.28346,
				"method": "rhf"
			},
			{
				"type": "occ",
				"energy": -0.27441,
				"method": "rhf"
			},
			{
				"type": "occ",
				"energy": -0.2404,
				"method": "rhf"
			},
			{
				"type": "unocc",
				"energy": -0.0562,
				"method": "rhf"
			},
			{
				"type": "unocc",
				"energy": -0.01525,
				"method": "rhf"
			},
			{
				"type": "unocc",
				"energy": 0.04672,
				"method": "rhf"
			},
			{
				"type": "unocc",
				"energy": 0.07346,
				"method": "rhf"
			},
			{
				"type": "unocc",
				"energy": 0.0753,
				"method": "rhf"
			}
		],
		"cosmo_sigma_profile": { 
			"-0.025": 0.0,
			"-0.024": 0.0,
			"-0.023": 0.0,
			"-0.022": 0.0,
			"-0.021": 0.0,
			"-0.02": 0.0,
			"-0.019": 0.0,
			"-0.018": 0.0,
			"-0.017": 0.0,
			"-0.016": 0.0,
			"-0.015": 0.0,
			"-0.014": 0.0,
			"-0.013": 0.0,
			"-0.012": 0.0,
			"-0.011": 0.0,
			"-0.01": 0.251269149343,
			"-0.009": 6.54241043827,
			"-0.008": 9.79293429573,
			"-0.007": 12.4344218946,
			"-0.006": 16.3977279237,
			"-0.005": 16.6794236737,
			"-0.004": 18.0002254278,
			"-0.003": 18.7243422745,
			"-0.002": 16.5468254561,
			"-0.001": 16.3813507484,
			"0.0": 16.545474579,
			"0.001": 23.5859883071,
			"0.002": 56.0644981407,
			"0.003": 52.5037172769,
			"0.004": 8.74125572116,
			"0.005": 6.15603605339,
			"0.006": 5.3510150659,
			"0.007": 5.10013191824,
			"0.008": 2.91183479792,
			"0.009": 3.6767450729,
			"0.01": 2.5246492871,
			"0.011": 3.55079602927,
			"0.012": 3.07521694767,
			"0.013": 0.0210547895319,
			"0.014": 0.0,
			"0.015": 0.0,
			"0.016": 0.0,
			"0.017": 0.0,
			"0.018": 0.0,
			"0.019": 0.0,
			"0.02": 0.0,
			"0.021": 0.0,
			"0.022": 0.0,
			"0.023": 0.0,
			"0.024": 0.0,
			"0.025": 0.0
		}
	}
}
