{
	 "smiles": "FC(F)(F)C1=CC(=CC=C1)N1N=CC(Cl)=C(Cl)C1=O", 
	 "Tm": 366.15, 
	 "num_atms": 24, 
	 "gaussian": { 
		 "optdone": 1, 
		 "sigma_profile": "yes", 
		 "theory": "DFT", 
		 "functional": "B3LYP", 
		 "basiset": "6-31G**", 
		 "properties": { 
			 "R2extent": 7952.0458, 
			 "electric_dipole_moment_norm": 4.49281703389, 
			 "electric_quadrupole_moment_norm": 8.00254146693, 
			 "total_energy": -1826.78455152, 
			 "HOMO_LUMO_gap": 0.15636, 
			 "cosmo_polarized_energy": -10.23, 
			 "cosmo_cavitation_energy": 34.59, 
			 "cosmo_dispersion_energy": -24.83, 
			 "cosmo_repulsion_energy": 1.84, 
			 "cosmo_total_nonelectrostatic_energy": 11.6, 
			 "SMD_solvation_energy": 6.75 
		},
		"coords": [
			{
				"x": 3.6191237195,
				"y": -0.1289389831,
				"z": -2.2282494976,
				"element": "F" 
			},
			{
				"x": 2.783946687,
				"y": 0.9261427864,
				"z": -2.1011767821,
				"element": "C" 
			},
			{
				"x": 3.5409853737,
				"y": 2.0409099041,
				"z": -2.2147542667,
				"element": "F" 
			},
			{
				"x": 1.9421194568,
				"y": 0.8959738456,
				"z": -3.1558840087,
				"element": "F" 
			},
			{
				"x": 2.0449752249,
				"y": 0.8921831031,
				"z": -0.788271195,
				"element": "C" 
			},
			{
				"x": 0.7887881424,
				"y": 0.288944892,
				"z": -0.723803279,
				"element": "C" 
			},
			{
				"x": 0.1326494793,
				"y": 0.2214216362,
				"z": 0.5077480183,
				"element": "C" 
			},
			{
				"x": 0.7252036477,
				"y": 0.7508683165,
				"z": 1.6582442226,
				"element": "C" 
			},
			{
				"x": 1.9788999963,
				"y": 1.3525639854,
				"z": 1.575253406,
				"element": "C" 
			},
			{
				"x": 2.6464649571,
				"y": 1.4251881837,
				"z": 0.354264055,
				"element": "C" 
			},
			{
				"x": -1.1825668121,
				"y": -0.3581340722,
				"z": 0.6178675827,
				"element": "N" 
			},
			{
				"x": -1.9916744094,
				"y": 0.2727463105,
				"z": 1.4923241916,
				"element": "N" 
			},
			{
				"x": -3.1847259755,
				"y": -0.2012556445,
				"z": 1.698298276,
				"element": "C" 
			},
			{
				"x": -3.6890042918,
				"y": -1.3664555394,
				"z": 1.0422265636,
				"element": "C" 
			},
			{
				"x": -5.3070010893,
				"y": -1.8718575605,
				"z": 1.40980054,
				"element": "Cl" 
			},
			{
				"x": -2.8784634821,
				"y": -2.0233812308,
				"z": 0.1629527942,
				"element": "C" 
			},
			{
				"x": -3.3504476307,
				"y": -3.4438689936,
				"z": -0.683847328,
				"element": "Cl" 
			},
			{
				"x": -1.5145645801,
				"y": -1.5381286605,
				"z": -0.103897691,
				"element": "C" 
			},
			{
				"x": -0.7307169349,
				"y": -2.0799292734,
				"z": -0.8637877627,
				"element": "O" 
			},
			{
				"x": 0.3365343409,
				"y": -0.1210647982,
				"z": -1.6146393278,
				"element": "H" 
			},
			{
				"x": 0.1958705827,
				"y": 0.6981523128,
				"z": 2.6018193621,
				"element": "H" 
			},
			{
				"x": 2.4352676154,
				"y": 1.7649345862,
				"z": 2.4694199567,
				"element": "H" 
			},
			{
				"x": 3.6206521167,
				"y": 1.8961544086,
				"z": 0.2835345576,
				"element": "H" 
			},
			{
				"x": -3.8046161347,
				"y": 0.3413304853,
				"z": 2.4036576124,
				"element": "H" 
			}
		],
		 "valence_orbital": [ 
			{
				"type": "occ",
				"energy": -0.31605,
				"method": "rhf"
			},
			{
				"type": "occ",
				"energy": -0.2846,
				"method": "rhf"
			},
			{
				"type": "occ",
				"energy": -0.27823,
				"method": "rhf"
			},
			{
				"type": "occ",
				"energy": -0.27414,
				"method": "rhf"
			},
			{
				"type": "occ",
				"energy": -0.24979,
				"method": "rhf"
			},
			{
				"type": "unocc",
				"energy": -0.09343,
				"method": "rhf"
			},
			{
				"type": "unocc",
				"energy": -0.03572,
				"method": "rhf"
			},
			{
				"type": "unocc",
				"energy": -0.03255,
				"method": "rhf"
			},
			{
				"type": "unocc",
				"energy": -0.02015,
				"method": "rhf"
			},
			{
				"type": "unocc",
				"energy": -0.01616,
				"method": "rhf"
			}
		],
		"cosmo_sigma_profile": { 
			"-0.025": 0.0,
			"-0.024": 0.0,
			"-0.023": 0.0,
			"-0.022": 0.0,
			"-0.021": 0.0,
			"-0.02": 0.0,
			"-0.019": 0.0,
			"-0.018": 0.0,
			"-0.017": 0.0,
			"-0.016": 0.0,
			"-0.015": 0.0,
			"-0.014": 0.0,
			"-0.013": 0.0,
			"-0.012": 0.0,
			"-0.011": 0.00554062912849,
			"-0.01": 1.35769136008,
			"-0.009": 1.74661294009,
			"-0.008": 3.6422136835,
			"-0.007": 8.52811080968,
			"-0.006": 12.7102248014,
			"-0.005": 13.8019319209,
			"-0.004": 19.813152686,
			"-0.003": 20.5454754403,
			"-0.002": 16.9339014523,
			"-0.001": 20.042547709,
			"0.0": 20.2529256801,
			"0.001": 31.931168241,
			"0.002": 45.8308676405,
			"0.003": 39.5703944872,
			"0.004": 4.88335026886,
			"0.005": 3.62054898439,
			"0.006": 2.20091667815,
			"0.007": 2.6763737988,
			"0.008": 3.03038324762,
			"0.009": 2.2762614518,
			"0.01": 2.36848791913,
			"0.011": 3.28870052988,
			"0.012": 3.09116651224,
			"0.013": 0.313199573955,
			"0.014": 0.0,
			"0.015": 0.0,
			"0.016": 0.0,
			"0.017": 0.0,
			"0.018": 0.0,
			"0.019": 0.0,
			"0.02": 0.0,
			"0.021": 0.0,
			"0.022": 0.0,
			"0.023": 0.0,
			"0.024": 0.0,
			"0.025": 0.0
		}
	}
}
