{
	 "smiles": "NC1=CC(CN2CCN(CC2)C2=NC=CC=C2)=CC=C1", 
	 "Tm": 442.15, 
	 "num_atms": 40, 
	 "gaussian": { 
		 "optdone": 1, 
		 "sigma_profile": "yes", 
		 "theory": "DFT", 
		 "functional": "B3LYP", 
		 "basiset": "6-31G**", 
		 "properties": { 
			 "R2extent": 9144.8409, 
			 "electric_dipole_moment_norm": 2.19275499087, 
			 "electric_quadrupole_moment_norm": 13.3009676197, 
			 "total_energy": -840.750719905, 
			 "HOMO_LUMO_gap": 0.18472, 
			 "cosmo_polarized_energy": -13.36, 
			 "cosmo_cavitation_energy": 41.27, 
			 "cosmo_dispersion_energy": -29.73, 
			 "cosmo_repulsion_energy": 2.28, 
			 "cosmo_total_nonelectrostatic_energy": 13.82, 
			 "SMD_solvation_energy": 3.26 
		},
		"coords": [
			{
				"x": 2.4731352464,
				"y": -3.6773174768,
				"z": 3.3257032992,
				"element": "N" 
			},
			{
				"x": 1.5892798943,
				"y": -3.5677450717,
				"z": 2.2489129946,
				"element": "C" 
			},
			{
				"x": 0.7930042479,
				"y": -2.4229186229,
				"z": 2.0927440165,
				"element": "C" 
			},
			{
				"x": -0.1356945928,
				"y": -2.3257873149,
				"z": 1.0526923943,
				"element": "C" 
			},
			{
				"x": -1.0217882316,
				"y": -1.0983503103,
				"z": 0.9384955418,
				"element": "C" 
			},
			{
				"x": -0.3132129946,
				"y": 0.1605710241,
				"z": 1.1617557307,
				"element": "N" 
			},
			{
				"x": 0.6921036152,
				"y": 0.4836338027,
				"z": 0.1375833674,
				"element": "C" 
			},
			{
				"x": 0.204282084,
				"y": 1.4644785396,
				"z": -0.9357942398,
				"element": "C" 
			},
			{
				"x": -0.2435690929,
				"y": 2.6994918987,
				"z": -0.2998819695,
				"element": "N" 
			},
			{
				"x": -0.5940298941,
				"y": 2.6203298286,
				"z": 1.1201856996,
				"element": "C" 
			},
			{
				"x": -1.2424313122,
				"y": 1.2707167604,
				"z": 1.4173684635,
				"element": "C" 
			},
			{
				"x": -0.4947961408,
				"y": 3.837521576,
				"z": -1.0344321445,
				"element": "C" 
			},
			{
				"x": -0.8871347479,
				"y": 4.9306737809,
				"z": -0.3493992999,
				"element": "N" 
			},
			{
				"x": -1.1255863197,
				"y": 6.0561908829,
				"z": -1.0282726132,
				"element": "C" 
			},
			{
				"x": -0.989383359,
				"y": 6.1863745907,
				"z": -2.4074370423,
				"element": "C" 
			},
			{
				"x": -0.5916008516,
				"y": 5.0492533239,
				"z": -3.1177492074,
				"element": "C" 
			},
			{
				"x": -0.3450641516,
				"y": 3.8618070254,
				"z": -2.4451020733,
				"element": "C" 
			},
			{
				"x": -0.2690091307,
				"y": -3.3836927082,
				"z": 0.1461715298,
				"element": "C" 
			},
			{
				"x": 0.5179560899,
				"y": -4.5279715564,
				"z": 0.2976083318,
				"element": "C" 
			},
			{
				"x": 1.4396665859,
				"y": -4.6270907247,
				"z": 1.3350864639,
				"element": "C" 
			},
			{
				"x": 2.7777834846,
				"y": -2.7973780851,
				"z": 3.7188241386,
				"element": "H" 
			},
			{
				"x": 3.2457468023,
				"y": -4.3133524097,
				"z": 3.18385321,
				"element": "H" 
			},
			{
				"x": 0.8990695433,
				"y": -1.5874160109,
				"z": 2.7798598198,
				"element": "H" 
			},
			{
				"x": -1.8055978315,
				"y": -1.1578358183,
				"z": 1.7060530636,
				"element": "H" 
			},
			{
				"x": -1.5515557959,
				"y": -1.1208591715,
				"z": -0.0340610521,
				"element": "H" 
			},
			{
				"x": 1.0209413339,
				"y": -0.4427745062,
				"z": -0.3399530103,
				"element": "H" 
			},
			{
				"x": 1.5773966234,
				"y": 0.917842979,
				"z": 0.6201046407,
				"element": "H" 
			},
			{
				"x": 1.0360573368,
				"y": 1.675880827,
				"z": -1.6199806755,
				"element": "H" 
			},
			{
				"x": -0.5991025643,
				"y": 1.008394359,
				"z": -1.5383067009,
				"element": "H" 
			},
			{
				"x": 0.2918205289,
				"y": 2.7630970883,
				"z": 1.7560696227,
				"element": "H" 
			},
			{
				"x": -1.2828473864,
				"y": 3.4347482359,
				"z": 1.3432594026,
				"element": "H" 
			},
			{
				"x": -1.5679270608,
				"y": 1.2385430176,
				"z": 2.4656184206,
				"element": "H" 
			},
			{
				"x": -2.1532253828,
				"y": 1.1908411342,
				"z": 0.7952724547,
				"element": "H" 
			},
			{
				"x": -1.4427757352,
				"y": 6.9070238495,
				"z": -0.4257539649,
				"element": "H" 
			},
			{
				"x": -1.1902709006,
				"y": 7.1302155083,
				"z": -2.9021362364,
				"element": "H" 
			},
			{
				"x": -0.4812358985,
				"y": 5.0848188845,
				"z": -4.1984783593,
				"element": "H" 
			},
			{
				"x": -0.0593012514,
				"y": 2.9742176821,
				"z": -2.9954492695,
				"element": "H" 
			},
			{
				"x": -0.9826844032,
				"y": -3.3129806618,
				"z": -0.6701378028,
				"element": "H" 
			},
			{
				"x": 0.4179869432,
				"y": -5.3500320064,
				"z": -0.4061223719,
				"element": "H" 
			},
			{
				"x": 2.0476946701,
				"y": -5.5218641435,
				"z": 1.4453254272,
				"element": "H" 
			}
		],
		 "valence_orbital": [ 
			{
				"type": "occ",
				"energy": -0.24432,
				"method": "rhf"
			},
			{
				"type": "occ",
				"energy": -0.2382,
				"method": "rhf"
			},
			{
				"type": "occ",
				"energy": -0.20679,
				"method": "rhf"
			},
			{
				"type": "occ",
				"energy": -0.19899,
				"method": "rhf"
			},
			{
				"type": "occ",
				"energy": -0.1918,
				"method": "rhf"
			},
			{
				"type": "unocc",
				"energy": -0.00708,
				"method": "rhf"
			},
			{
				"type": "unocc",
				"energy": 0.00305,
				"method": "rhf"
			},
			{
				"type": "unocc",
				"energy": 0.01987,
				"method": "rhf"
			},
			{
				"type": "unocc",
				"energy": 0.02134,
				"method": "rhf"
			},
			{
				"type": "unocc",
				"energy": 0.0782,
				"method": "rhf"
			}
		],
		"cosmo_sigma_profile": { 
			"-0.025": 0.0,
			"-0.024": 0.0,
			"-0.023": 0.0,
			"-0.022": 0.0,
			"-0.021": 0.0,
			"-0.02": 0.0,
			"-0.019": 0.0,
			"-0.018": 0.0,
			"-0.017": 0.0,
			"-0.016": 0.0,
			"-0.015": 0.0,
			"-0.014": 0.0,
			"-0.013": 0.0248191953488,
			"-0.012": 1.96331808244,
			"-0.011": 2.41677744294,
			"-0.01": 2.84554329875,
			"-0.009": 2.8262417899,
			"-0.008": 3.23397966803,
			"-0.007": 2.79879216215,
			"-0.006": 7.74236835615,
			"-0.005": 16.0769768995,
			"-0.004": 27.518320276,
			"-0.003": 43.8409910831,
			"-0.002": 38.5432610619,
			"-0.001": 25.540131047,
			"0.0": 18.6330884759,
			"0.001": 15.2248816436,
			"0.002": 16.1406962323,
			"0.003": 16.8753088881,
			"0.004": 20.4735606695,
			"0.005": 20.119604677,
			"0.006": 13.3250280404,
			"0.007": 11.0522206012,
			"0.008": 4.75913973913,
			"0.009": 3.69439218433,
			"0.01": 2.19464128263,
			"0.011": 1.780589722,
			"0.012": 1.91877285209,
			"0.013": 2.01031816715,
			"0.014": 0.975485773203,
			"0.015": 0.393238311022,
			"0.016": 0.00400123128701,
			"0.017": 0.0,
			"0.018": 0.0,
			"0.019": 0.0,
			"0.02": 0.0,
			"0.021": 0.0,
			"0.022": 0.0,
			"0.023": 0.0,
			"0.024": 0.0,
			"0.025": 0.0
		}
	}
}
