{
	 "smiles": "COCCOC1=C(C=C(Cl)C=C1)C(O)=O", 
	 "Tm": 342.15, 
	 "num_atms": 26, 
	 "gaussian": { 
		 "optdone": 1, 
		 "sigma_profile": "yes", 
		 "theory": "DFT", 
		 "functional": "B3LYP", 
		 "basiset": "6-31G**", 
		 "properties": { 
			 "R2extent": 5643.7805, 
			 "electric_dipole_moment_norm": 1.05566465319, 
			 "electric_quadrupole_moment_norm": 12.8804683622, 
			 "total_energy": -1148.76256289, 
			 "HOMO_LUMO_gap": 0.18538, 
			 "cosmo_polarized_energy": -11.5, 
			 "cosmo_cavitation_energy": 32.43, 
			 "cosmo_dispersion_energy": -23.21, 
			 "cosmo_repulsion_energy": 1.84, 
			 "cosmo_total_nonelectrostatic_energy": 11.06, 
			 "SMD_solvation_energy": 7.01 
		},
		"coords": [
			{
				"x": -0.8577858355,
				"y": -2.2621948576,
				"z": 3.3673741102,
				"element": "C" 
			},
			{
				"x": -1.7296745713,
				"y": -1.1668841516,
				"z": 3.5805642441,
				"element": "O" 
			},
			{
				"x": -2.2741570597,
				"y": -0.6208358819,
				"z": 2.3927743456,
				"element": "C" 
			},
			{
				"x": -1.3294973127,
				"y": 0.3983591894,
				"z": 1.7606520948,
				"element": "C" 
			},
			{
				"x": -2.0221285975,
				"y": 0.9440118143,
				"z": 0.6231725185,
				"element": "O" 
			},
			{
				"x": -1.2821745579,
				"y": 1.7030336032,
				"z": -0.2360917765,
				"element": "C" 
			},
			{
				"x": -0.544114563,
				"y": 1.1426327594,
				"z": -1.3040000687,
				"element": "C" 
			},
			{
				"x": 0.1194302732,
				"y": 1.9978165027,
				"z": -2.2002999081,
				"element": "C" 
			},
			{
				"x": 0.0626048569,
				"y": 3.3747661676,
				"z": -2.0280759925,
				"element": "C" 
			},
			{
				"x": 0.9116852543,
				"y": 4.4242474329,
				"z": -3.1522100085,
				"element": "Cl" 
			},
			{
				"x": -0.6677526153,
				"y": 3.9357156025,
				"z": -0.979253477,
				"element": "C" 
			},
			{
				"x": -1.3360355362,
				"y": 3.0943397924,
				"z": -0.0955804844,
				"element": "C" 
			},
			{
				"x": -0.4709123298,
				"y": -0.3298875777,
				"z": -1.5142969674,
				"element": "C" 
			},
			{
				"x": -0.0188268466,
				"y": -0.6481591112,
				"z": -2.7546060547,
				"element": "O" 
			},
			{
				"x": -0.7581649091,
				"y": -1.1912230685,
				"z": -0.7063557511,
				"element": "O" 
			},
			{
				"x": -1.3639439593,
				"y": -3.083733245,
				"z": 2.838384188,
				"element": "H" 
			},
			{
				"x": -0.545646745,
				"y": -2.6155120274,
				"z": 4.3533804967,
				"element": "H" 
			},
			{
				"x": 0.0395356895,
				"y": -1.9884271813,
				"z": 2.793994547,
				"element": "H" 
			},
			{
				"x": -3.2091840837,
				"y": -0.121869374,
				"z": 2.6684494918,
				"element": "H" 
			},
			{
				"x": -2.505114705,
				"y": -1.3997281546,
				"z": 1.6528832097,
				"element": "H" 
			},
			{
				"x": -0.400794916,
				"y": -0.079339534,
				"z": 1.4373999912,
				"element": "H" 
			},
			{
				"x": -1.0967492122,
				"y": 1.1984343411,
				"z": 2.4759048588,
				"element": "H" 
			},
			{
				"x": 0.6757808612,
				"y": 1.5750416882,
				"z": -3.0267761411,
				"element": "H" 
			},
			{
				"x": -0.7130374053,
				"y": 5.0127575031,
				"z": -0.8606740933,
				"element": "H" 
			},
			{
				"x": -1.9263581604,
				"y": 3.5021417153,
				"z": 0.7182062241,
				"element": "H" 
			},
			{
				"x": 0.0140169863,
				"y": -1.6186039471,
				"z": -2.7794195973,
				"element": "H" 
			}
		],
		 "valence_orbital": [ 
			{
				"type": "occ",
				"energy": -0.29038,
				"method": "rhf"
			},
			{
				"type": "occ",
				"energy": -0.2803,
				"method": "rhf"
			},
			{
				"type": "occ",
				"energy": -0.27432,
				"method": "rhf"
			},
			{
				"type": "occ",
				"energy": -0.25433,
				"method": "rhf"
			},
			{
				"type": "occ",
				"energy": -0.24685,
				"method": "rhf"
			},
			{
				"type": "unocc",
				"energy": -0.06147,
				"method": "rhf"
			},
			{
				"type": "unocc",
				"energy": -0.0214,
				"method": "rhf"
			},
			{
				"type": "unocc",
				"energy": 0.02205,
				"method": "rhf"
			},
			{
				"type": "unocc",
				"energy": 0.04006,
				"method": "rhf"
			},
			{
				"type": "unocc",
				"energy": 0.07232,
				"method": "rhf"
			}
		],
		"cosmo_sigma_profile": { 
			"-0.025": 0.0,
			"-0.024": 0.0,
			"-0.023": 0.0,
			"-0.022": 0.0,
			"-0.021": 0.0,
			"-0.02": 0.0,
			"-0.019": 0.128497142482,
			"-0.018": 0.740959417934,
			"-0.017": 0.813032962425,
			"-0.016": 1.04072784129,
			"-0.015": 0.720179164634,
			"-0.014": 0.82809844915,
			"-0.013": 0.582583438799,
			"-0.012": 0.276065017068,
			"-0.011": 0.865960630548,
			"-0.01": 1.24115079813,
			"-0.009": 0.564357957138,
			"-0.008": 2.5319792502,
			"-0.007": 4.87262934493,
			"-0.006": 6.80890327005,
			"-0.005": 9.85110178396,
			"-0.004": 20.6460598936,
			"-0.003": 25.5312149942,
			"-0.002": 27.2216628904,
			"-0.001": 20.6484303865,
			"0.0": 20.003877504,
			"0.001": 26.8272015131,
			"0.002": 19.027960707,
			"0.003": 11.5424439102,
			"0.004": 15.3935561615,
			"0.005": 9.62585055148,
			"0.006": 4.96300781934,
			"0.007": 5.08736725643,
			"0.008": 5.36985764706,
			"0.009": 4.11659807307,
			"0.01": 4.7551838318,
			"0.011": 2.89955317401,
			"0.012": 2.31105015106,
			"0.013": 1.43542637718,
			"0.014": 0.257171560523,
			"0.015": 0.0,
			"0.016": 0.0,
			"0.017": 0.0,
			"0.018": 0.0,
			"0.019": 0.0,
			"0.02": 0.0,
			"0.021": 0.0,
			"0.022": 0.0,
			"0.023": 0.0,
			"0.024": 0.0,
			"0.025": 0.0
		}
	}
}
