{
	 "smiles": "CC1=C(NC(=O)NN)C=CC=C1", 
	 "Tm": 415.15, 
	 "num_atms": 23, 
	 "gaussian": { 
		 "optdone": 1, 
		 "sigma_profile": "yes", 
		 "theory": "DFT", 
		 "functional": "B3LYP", 
		 "basiset": "6-31G**", 
		 "properties": { 
			 "R2extent": 2467.8818, 
			 "electric_dipole_moment_norm": 4.07495861206, 
			 "electric_quadrupole_moment_norm": 7.11198565803, 
			 "total_energy": -550.954315674, 
			 "HOMO_LUMO_gap": 0.21334, 
			 "cosmo_polarized_energy": -17.31, 
			 "cosmo_cavitation_energy": 26.47, 
			 "cosmo_dispersion_energy": -19.35, 
			 "cosmo_repulsion_energy": 1.54, 
			 "cosmo_total_nonelectrostatic_energy": 8.66, 
			 "SMD_solvation_energy": 5.65 
		},
		"coords": [
			{
				"x": -2.341614565,
				"y": -0.802111046,
				"z": -1.7182808507,
				"element": "C" 
			},
			{
				"x": -1.1202271209,
				"y": -1.4473417351,
				"z": -1.1051875407,
				"element": "C" 
			},
			{
				"x": -0.3264756651,
				"y": -0.7630365339,
				"z": -0.155201984,
				"element": "C" 
			},
			{
				"x": -0.7191157015,
				"y": 0.547152119,
				"z": 0.1947312565,
				"element": "N" 
			},
			{
				"x": -0.1298009941,
				"y": 1.4068883708,
				"z": 1.1009468841,
				"element": "C" 
			},
			{
				"x": 0.8723780016,
				"y": 1.1761938933,
				"z": 1.7647337378,
				"element": "O" 
			},
			{
				"x": -0.8027181868,
				"y": 2.620249194,
				"z": 1.2459517089,
				"element": "N" 
			},
			{
				"x": -1.7280986808,
				"y": 3.1635613979,
				"z": 0.3463883374,
				"element": "N" 
			},
			{
				"x": 0.8037256309,
				"y": -1.3829630524,
				"z": 0.3977024327,
				"element": "C" 
			},
			{
				"x": 1.1438148204,
				"y": -2.6773748172,
				"z": 0.0076268232,
				"element": "C" 
			},
			{
				"x": 0.3728781095,
				"y": -3.3669257685,
				"z": -0.9265440736,
				"element": "C" 
			},
			{
				"x": -0.7495664733,
				"y": -2.74397978,
				"z": -1.4714281291,
				"element": "C" 
			},
			{
				"x": -2.8177139008,
				"y": -1.4780178774,
				"z": -2.432366764,
				"element": "H" 
			},
			{
				"x": -2.0955024263,
				"y": 0.1196025106,
				"z": -2.2638257446,
				"element": "H" 
			},
			{
				"x": -3.100708453,
				"y": -0.5466769122,
				"z": -0.9654395011,
				"element": "H" 
			},
			{
				"x": -1.5734787096,
				"y": 0.8762748842,
				"z": -0.225616972,
				"element": "H" 
			},
			{
				"x": -0.262381806,
				"y": 3.3024426861,
				"z": 1.7606860121,
				"element": "H" 
			},
			{
				"x": -2.6497678634,
				"y": 2.7572754276,
				"z": 0.4761693438,
				"element": "H" 
			},
			{
				"x": -1.4290896536,
				"y": 3.0768788683,
				"z": -0.6226919199,
				"element": "H" 
			},
			{
				"x": 1.3942415137,
				"y": -0.8423757299,
				"z": 1.1236492479,
				"element": "H" 
			},
			{
				"x": 2.0216406514,
				"y": -3.1451359438,
				"z": 0.4443265668,
				"element": "H" 
			},
			{
				"x": 0.6387103639,
				"y": -4.3752349447,
				"z": -1.2289954849,
				"element": "H" 
			},
			{
				"x": -1.359028891,
				"y": -3.2713452108,
				"z": -2.2012333866,
				"element": "H" 
			}
		],
		 "valence_orbital": [ 
			{
				"type": "occ",
				"energy": -0.29819,
				"method": "rhf"
			},
			{
				"type": "occ",
				"energy": -0.26228,
				"method": "rhf"
			},
			{
				"type": "occ",
				"energy": -0.25332,
				"method": "rhf"
			},
			{
				"type": "occ",
				"energy": -0.24057,
				"method": "rhf"
			},
			{
				"type": "occ",
				"energy": -0.21302,
				"method": "rhf"
			},
			{
				"type": "unocc",
				"energy": 0.00032,
				"method": "rhf"
			},
			{
				"type": "unocc",
				"energy": 0.00582,
				"method": "rhf"
			},
			{
				"type": "unocc",
				"energy": 0.04084,
				"method": "rhf"
			},
			{
				"type": "unocc",
				"energy": 0.06758,
				"method": "rhf"
			},
			{
				"type": "unocc",
				"energy": 0.09822,
				"method": "rhf"
			}
		],
		"cosmo_sigma_profile": { 
			"-0.025": 0.0,
			"-0.024": 0.0,
			"-0.023": 0.0,
			"-0.022": 0.0,
			"-0.021": 0.0,
			"-0.02": 0.0,
			"-0.019": 0.0,
			"-0.018": 0.0,
			"-0.017": 0.0,
			"-0.016": 0.0,
			"-0.015": 0.00192835754301,
			"-0.014": 0.573851450569,
			"-0.013": 3.11559633094,
			"-0.012": 5.45751852295,
			"-0.011": 5.83098229349,
			"-0.01": 4.04881894683,
			"-0.009": 3.22922487817,
			"-0.008": 2.70313115148,
			"-0.007": 3.30546283057,
			"-0.006": 5.76699386214,
			"-0.005": 13.1213297739,
			"-0.004": 12.7285927375,
			"-0.003": 13.545006619,
			"-0.002": 14.3650659545,
			"-0.001": 13.6786991673,
			"0.0": 11.9404462801,
			"0.001": 9.7448603765,
			"0.002": 12.656541257,
			"0.003": 10.9249374034,
			"0.004": 13.8107983162,
			"0.005": 11.2228740248,
			"0.006": 11.706933119,
			"0.007": 5.91012671614,
			"0.008": 2.5045667812,
			"0.009": 2.0367977688,
			"0.01": 1.62675224812,
			"0.011": 2.58303483676,
			"0.012": 2.50418357917,
			"0.013": 4.21381440245,
			"0.014": 3.66915880669,
			"0.015": 0.623468672049,
			"0.016": 0.174483440467,
			"0.017": 0.0,
			"0.018": 0.0,
			"0.019": 0.0,
			"0.02": 0.0,
			"0.021": 0.0,
			"0.022": 0.0,
			"0.023": 0.0,
			"0.024": 0.0,
			"0.025": 0.0
		}
	}
}
