{
	 "smiles": "CCOC=C1C(=O)N(C(=O)C2=C1C=CC=C2)C1=NC=C(Cl)C=C1", 
	 "Tm": 474.15, 
	 "num_atms": 36, 
	 "gaussian": { 
		 "optdone": 1, 
		 "sigma_profile": "yes", 
		 "theory": "DFT", 
		 "functional": "B3LYP", 
		 "basiset": "6-31G**", 
		 "properties": { 
			 "R2extent": 10962.6547, 
			 "electric_dipole_moment_norm": 7.211901024, 
			 "electric_quadrupole_moment_norm": 6.53272899178, 
			 "total_energy": -1451.01315414, 
			 "HOMO_LUMO_gap": 0.15954, 
			 "cosmo_polarized_energy": -23.08, 
			 "cosmo_cavitation_energy": 43.38, 
			 "cosmo_dispersion_energy": -30.5, 
			 "cosmo_repulsion_energy": 2.33, 
			 "cosmo_total_nonelectrostatic_energy": 15.22, 
			 "SMD_solvation_energy": 7.32 
		},
		"coords": [
			{
				"x": 0.5201966283,
				"y": -1.3815377749,
				"z": 4.3608236448,
				"element": "C" 
			},
			{
				"x": 1.5009300203,
				"y": -0.5878851826,
				"z": 3.511243942,
				"element": "C" 
			},
			{
				"x": 0.9073988909,
				"y": -0.1973690228,
				"z": 2.2576743416,
				"element": "O" 
			},
			{
				"x": 1.0121362079,
				"y": -1.0532082387,
				"z": 1.2462698019,
				"element": "C" 
			},
			{
				"x": 0.3661740619,
				"y": -0.9411779086,
				"z": 0.0503769936,
				"element": "C" 
			},
			{
				"x": -0.631301337,
				"y": 0.1367686038,
				"z": -0.1435983714,
				"element": "C" 
			},
			{
				"x": -0.8043460811,
				"y": 1.0685170646,
				"z": 0.6247528192,
				"element": "O" 
			},
			{
				"x": -1.452118176,
				"y": 0.0214825275,
				"z": -1.2900290043,
				"element": "N" 
			},
			{
				"x": -1.3897386688,
				"y": -0.9895791725,
				"z": -2.2613759002,
				"element": "C" 
			},
			{
				"x": -2.2026178139,
				"y": -1.0240581397,
				"z": -3.1734029346,
				"element": "O" 
			},
			{
				"x": -0.2824464435,
				"y": -1.9631160292,
				"z": -2.1195720253,
				"element": "C" 
			},
			{
				"x": 0.6001289799,
				"y": -1.92478159,
				"z": -1.0206831147,
				"element": "C" 
			},
			{
				"x": 1.6702983383,
				"y": -2.8423787054,
				"z": -1.0162470306,
				"element": "C" 
			},
			{
				"x": 1.8191607489,
				"y": -3.7790857521,
				"z": -2.0320215689,
				"element": "C" 
			},
			{
				"x": 0.9151650577,
				"y": -3.8252445664,
				"z": -3.1003141818,
				"element": "C" 
			},
			{
				"x": -0.126340779,
				"y": -2.9096297751,
				"z": -3.1419947401,
				"element": "C" 
			},
			{
				"x": -2.4170964644,
				"y": 1.0734240268,
				"z": -1.5035043846,
				"element": "C" 
			},
			{
				"x": -2.0183270271,
				"y": 2.0919136358,
				"z": -2.2577537593,
				"element": "N" 
			},
			{
				"x": -2.8846124141,
				"y": 3.0826174407,
				"z": -2.4813919376,
				"element": "C" 
			},
			{
				"x": -4.176164508,
				"y": 3.0778577436,
				"z": -1.9517290467,
				"element": "C" 
			},
			{
				"x": -5.2608136028,
				"y": 4.412335755,
				"z": -2.2851031763,
				"element": "Cl" 
			},
			{
				"x": -4.5914594688,
				"y": 2.0085111843,
				"z": -1.1608854541,
				"element": "C" 
			},
			{
				"x": -3.6850363717,
				"y": 0.9780892079,
				"z": -0.9318324868,
				"element": "C" 
			},
			{
				"x": 0.9668058263,
				"y": -1.6091662028,
				"z": 5.3341574184,
				"element": "H" 
			},
			{
				"x": 0.253212874,
				"y": -2.326925861,
				"z": 3.8778635615,
				"element": "H" 
			},
			{
				"x": -0.3951634777,
				"y": -0.8066983236,
				"z": 4.5239805126,
				"element": "H" 
			},
			{
				"x": 1.7754469908,
				"y": 0.3521421303,
				"z": 3.9950817768,
				"element": "H" 
			},
			{
				"x": 2.4204393157,
				"y": -1.1566806878,
				"z": 3.3185708038,
				"element": "H" 
			},
			{
				"x": 1.6732715223,
				"y": -1.9013685602,
				"z": 1.424239066,
				"element": "H" 
			},
			{
				"x": 2.4137365034,
				"y": -2.8143101777,
				"z": -0.2266324429,
				"element": "H" 
			},
			{
				"x": 2.6557468717,
				"y": -4.4714131768,
				"z": -1.9979548807,
				"element": "H" 
			},
			{
				"x": 1.0380060518,
				"y": -4.5559892566,
				"z": -3.8934588039,
				"element": "H" 
			},
			{
				"x": -0.8393164405,
				"y": -2.8910843059,
				"z": -3.9589790392,
				"element": "H" 
			},
			{
				"x": -2.546277075,
				"y": 3.9093428268,
				"z": -3.1005149183,
				"element": "H" 
			},
			{
				"x": -5.5909226147,
				"y": 1.9856213221,
				"z": -0.740924479,
				"element": "H" 
			},
			{
				"x": -3.950756126,
				"y": 0.1196649413,
				"z": -0.3256310007,
				"element": "H" 
			}
		],
		 "valence_orbital": [ 
			{
				"type": "occ",
				"energy": -0.2648,
				"method": "rhf"
			},
			{
				"type": "occ",
				"energy": -0.26138,
				"method": "rhf"
			},
			{
				"type": "occ",
				"energy": -0.25712,
				"method": "rhf"
			},
			{
				"type": "occ",
				"energy": -0.24652,
				"method": "rhf"
			},
			{
				"type": "occ",
				"energy": -0.22289,
				"method": "rhf"
			},
			{
				"type": "unocc",
				"energy": -0.06335,
				"method": "rhf"
			},
			{
				"type": "unocc",
				"energy": -0.03541,
				"method": "rhf"
			},
			{
				"type": "unocc",
				"energy": -0.03217,
				"method": "rhf"
			},
			{
				"type": "unocc",
				"energy": -0.02088,
				"method": "rhf"
			},
			{
				"type": "unocc",
				"energy": -0.00457,
				"method": "rhf"
			}
		],
		"cosmo_sigma_profile": { 
			"-0.025": 0.0,
			"-0.024": 0.0,
			"-0.023": 0.0,
			"-0.022": 0.0,
			"-0.021": 0.0,
			"-0.02": 0.0,
			"-0.019": 0.0,
			"-0.018": 0.0,
			"-0.017": 0.0,
			"-0.016": 0.0,
			"-0.015": 0.0,
			"-0.014": 0.0,
			"-0.013": 0.0,
			"-0.012": 0.0,
			"-0.011": 1.0838430382,
			"-0.01": 3.03359901985,
			"-0.009": 5.51983337366,
			"-0.008": 9.31396277109,
			"-0.007": 12.0329022106,
			"-0.006": 18.068106236,
			"-0.005": 25.6039957562,
			"-0.004": 26.3295219767,
			"-0.003": 22.9146994579,
			"-0.002": 23.7291529283,
			"-0.001": 29.7164521207,
			"0.0": 29.7052938531,
			"0.001": 23.4120963409,
			"0.002": 20.942495822,
			"0.003": 24.2282333888,
			"0.004": 20.3822245257,
			"0.005": 5.13946425436,
			"0.006": 5.45894304533,
			"0.007": 4.56915139031,
			"0.008": 6.39178838017,
			"0.009": 5.06906442879,
			"0.01": 5.46501657148,
			"0.011": 5.86333096877,
			"0.012": 9.35764982139,
			"0.013": 4.13986159249,
			"0.014": 2.08676441159,
			"0.015": 1.18145531791,
			"0.016": 0.0383318846193,
			"0.017": 0.0,
			"0.018": 0.0,
			"0.019": 0.0,
			"0.02": 0.0,
			"0.021": 0.0,
			"0.022": 0.0,
			"0.023": 0.0,
			"0.024": 0.0,
			"0.025": 0.0
		}
	}
}
