{
	 "smiles": "OC1=C(Cl)C=C(Cl)C=C1SC1=C(O)C(Cl)=CC(Cl)=C1", 
	 "Tm": 461.15, 
	 "num_atms": 25, 
	 "gaussian": { 
		 "optdone": 1, 
		 "sigma_profile": "yes", 
		 "theory": "DFT", 
		 "functional": "B3LYP", 
		 "basiset": "6-31G**", 
		 "properties": { 
			 "R2extent": 10770.9387, 
			 "electric_dipole_moment_norm": 2.78210963479, 
			 "electric_quadrupole_moment_norm": 7.38735974622, 
			 "total_energy": -2850.28504704, 
			 "HOMO_LUMO_gap": 0.17943, 
			 "cosmo_polarized_energy": -11.13, 
			 "cosmo_cavitation_energy": 39.04, 
			 "cosmo_dispersion_energy": -28.47, 
			 "cosmo_repulsion_energy": 2.18, 
			 "cosmo_total_nonelectrostatic_energy": 12.76, 
			 "SMD_solvation_energy": 5.68 
		},
		"coords": [
			{
				"x": 0.7235132448,
				"y": 1.5404302812,
				"z": -0.1428577594,
				"element": "O" 
			},
			{
				"x": 0.9880157949,
				"y": 0.2997231457,
				"z": -0.6029389069,
				"element": "C" 
			},
			{
				"x": 0.3530429151,
				"y": -0.2425129942,
				"z": -1.7325820497,
				"element": "C" 
			},
			{
				"x": -0.8440367168,
				"y": 0.7426758588,
				"z": -2.5654216672,
				"element": "Cl" 
			},
			{
				"x": 0.6493909255,
				"y": -1.5142019269,
				"z": -2.211764805,
				"element": "C" 
			},
			{
				"x": 1.6076113251,
				"y": -2.2709029686,
				"z": -1.5424101271,
				"element": "C" 
			},
			{
				"x": 2.0040634261,
				"y": -3.8742655994,
				"z": -2.1289825206,
				"element": "Cl" 
			},
			{
				"x": 2.2476456115,
				"y": -1.7712490219,
				"z": -0.409549436,
				"element": "C" 
			},
			{
				"x": 1.9412627165,
				"y": -0.4937296327,
				"z": 0.0671538661,
				"element": "C" 
			},
			{
				"x": 2.8573132896,
				"y": 0.1656122495,
				"z": 1.4695491495,
				"element": "S" 
			},
			{
				"x": 1.6204287241,
				"y": 0.2401425425,
				"z": 2.7744176608,
				"element": "C" 
			},
			{
				"x": 1.4569377599,
				"y": -0.8894825541,
				"z": 3.6047660399,
				"element": "C" 
			},
			{
				"x": 2.1596949754,
				"y": -2.0256940295,
				"z": 3.4375782386,
				"element": "O" 
			},
			{
				"x": 0.5208328218,
				"y": -0.8148744719,
				"z": 4.6513809378,
				"element": "C" 
			},
			{
				"x": 0.2898198594,
				"y": -2.1989679195,
				"z": 5.6921748711,
				"element": "Cl" 
			},
			{
				"x": -0.2179475027,
				"y": 0.3425375104,
				"z": 4.8750304867,
				"element": "C" 
			},
			{
				"x": -0.0218256242,
				"y": 1.4504901015,
				"z": 4.0499708005,
				"element": "C" 
			},
			{
				"x": -0.9502575484,
				"y": 2.9132748852,
				"z": 4.3412335464,
				"element": "Cl" 
			},
			{
				"x": 0.8933698352,
				"y": 1.412223926,
				"z": 3.0039189697,
				"element": "C" 
			},
			{
				"x": 0.0485750417,
				"y": 1.9508303775,
				"z": -0.706381627,
				"element": "H" 
			},
			{
				"x": 0.1430325242,
				"y": -1.9006933288,
				"z": -3.0876096091,
				"element": "H" 
			},
			{
				"x": 2.9892471519,
				"y": -2.3741191065,
				"z": 0.1009108526,
				"element": "H" 
			},
			{
				"x": 2.8129569066,
				"y": -1.8569591288,
				"z": 2.7340322214,
				"element": "H" 
			},
			{
				"x": -0.9322926591,
				"y": 0.377141644,
				"z": 5.6885626823,
				"element": "H" 
			},
			{
				"x": 1.0380052019,
				"y": 2.2680701605,
				"z": 2.3581181849,
				"element": "H" 
			}
		],
		 "valence_orbital": [ 
			{
				"type": "occ",
				"energy": -0.28906,
				"method": "rhf"
			},
			{
				"type": "occ",
				"energy": -0.26822,
				"method": "rhf"
			},
			{
				"type": "occ",
				"energy": -0.26679,
				"method": "rhf"
			},
			{
				"type": "occ",
				"energy": -0.2482,
				"method": "rhf"
			},
			{
				"type": "occ",
				"energy": -0.23449,
				"method": "rhf"
			},
			{
				"type": "unocc",
				"energy": -0.05506,
				"method": "rhf"
			},
			{
				"type": "unocc",
				"energy": -0.04571,
				"method": "rhf"
			},
			{
				"type": "unocc",
				"energy": -0.03162,
				"method": "rhf"
			},
			{
				"type": "unocc",
				"energy": -0.01815,
				"method": "rhf"
			},
			{
				"type": "unocc",
				"energy": -0.01376,
				"method": "rhf"
			}
		],
		"cosmo_sigma_profile": { 
			"-0.025": 0.0,
			"-0.024": 0.0,
			"-0.023": 0.0,
			"-0.022": 0.0,
			"-0.021": 0.0,
			"-0.02": 0.0,
			"-0.019": 0.0,
			"-0.018": 0.0,
			"-0.017": 0.0670463707351,
			"-0.016": 0.328738558854,
			"-0.015": 1.01613097307,
			"-0.014": 0.57676109489,
			"-0.013": 1.09473190462,
			"-0.012": 1.93740579339,
			"-0.011": 2.50853048532,
			"-0.01": 2.76285180973,
			"-0.009": 4.37534144348,
			"-0.008": 5.93964849384,
			"-0.007": 7.81005378588,
			"-0.006": 7.42787971179,
			"-0.005": 8.16817422225,
			"-0.004": 9.24123466926,
			"-0.003": 14.4465753148,
			"-0.002": 20.7896044213,
			"-0.001": 29.8846301809,
			"0.0": 44.4722076394,
			"0.001": 44.4756117592,
			"0.002": 27.7864845584,
			"0.003": 32.5324086699,
			"0.004": 32.5610505403,
			"0.005": 10.2142031849,
			"0.006": 4.24866719266,
			"0.007": 2.97383773972,
			"0.008": 3.00398198328,
			"0.009": 3.0360164286,
			"0.01": 1.78514196662,
			"0.011": 0.136348144075,
			"0.012": 0.0,
			"0.013": 0.0,
			"0.014": 0.0,
			"0.015": 0.0,
			"0.016": 0.0,
			"0.017": 0.0,
			"0.018": 0.0,
			"0.019": 0.0,
			"0.02": 0.0,
			"0.021": 0.0,
			"0.022": 0.0,
			"0.023": 0.0,
			"0.024": 0.0,
			"0.025": 0.0
		}
	}
}
