{
	 "smiles": "CN(C(C)=O)C1=C(C)C=CC=C1", 
	 "Tm": 328.65, 
	 "num_atms": 25, 
	 "gaussian": { 
		 "optdone": 1, 
		 "sigma_profile": "yes", 
		 "theory": "DFT", 
		 "functional": "B3LYP", 
		 "basiset": "6-31G**", 
		 "properties": { 
			 "R2extent": 2424.1887, 
			 "electric_dipole_moment_norm": 3.69015433959, 
			 "electric_quadrupole_moment_norm": 10.2964050921, 
			 "total_energy": -518.894336987, 
			 "HOMO_LUMO_gap": 0.22025, 
			 "cosmo_polarized_energy": -9.59, 
			 "cosmo_cavitation_energy": 27.7, 
			 "cosmo_dispersion_energy": -19.22, 
			 "cosmo_repulsion_energy": 1.53, 
			 "cosmo_total_nonelectrostatic_energy": 10.01, 
			 "SMD_solvation_energy": 6.37 
		},
		"coords": [
			{
				"x": 1.4631413843,
				"y": -0.0349963994,
				"z": 2.4657443411,
				"element": "C" 
			},
			{
				"x": 1.4968821059,
				"y": 0.1185928093,
				"z": 1.0118508364,
				"element": "N" 
			},
			{
				"x": 2.1910514097,
				"y": 1.1845665628,
				"z": 0.4652243944,
				"element": "C" 
			},
			{
				"x": 2.2381565998,
				"y": 1.257324681,
				"z": -1.0538331255,
				"element": "C" 
			},
			{
				"x": 2.7387743982,
				"y": 2.0281028086,
				"z": 1.1650060037,
				"element": "O" 
			},
			{
				"x": 0.9171423488,
				"y": -0.9342515437,
				"z": 0.2268146238,
				"element": "C" 
			},
			{
				"x": -0.4508339147,
				"y": -0.8971842552,
				"z": -0.1105784788,
				"element": "C" 
			},
			{
				"x": -1.3289148175,
				"y": 0.259393488,
				"z": 0.302496059,
				"element": "C" 
			},
			{
				"x": -0.9737197177,
				"y": -1.9651212447,
				"z": -0.8511473177,
				"element": "C" 
			},
			{
				"x": -0.1766044928,
				"y": -3.0406971762,
				"z": -1.2449384876,
				"element": "C" 
			},
			{
				"x": 1.1746944529,
				"y": -3.0682311033,
				"z": -0.900924472,
				"element": "C" 
			},
			{
				"x": 1.7148780803,
				"y": -2.0153119245,
				"z": -0.1630197038,
				"element": "C" 
			},
			{
				"x": 1.8835934644,
				"y": 0.8691396691,
				"z": 2.9049355908,
				"element": "H" 
			},
			{
				"x": 0.434518222,
				"y": -0.1739401605,
				"z": 2.8144893357,
				"element": "H" 
			},
			{
				"x": 2.0541994233,
				"y": -0.9026734354,
				"z": 2.7826951845,
				"element": "H" 
			},
			{
				"x": 2.8636467132,
				"y": 0.457503611,
				"z": -1.4627273109,
				"element": "H" 
			},
			{
				"x": 1.2478283271,
				"y": 1.1538714156,
				"z": -1.5059108531,
				"element": "H" 
			},
			{
				"x": 2.6699020868,
				"y": 2.220663498,
				"z": -1.3243036416,
				"element": "H" 
			},
			{
				"x": -2.3324979952,
				"y": 0.1538734171,
				"z": -0.1174753935,
				"element": "H" 
			},
			{
				"x": -1.428366718,
				"y": 0.3237222272,
				"z": 1.3918888176,
				"element": "H" 
			},
			{
				"x": -0.9194609421,
				"y": 1.2184597868,
				"z": -0.0307853436,
				"element": "H" 
			},
			{
				"x": -2.0258631711,
				"y": -1.948988922,
				"z": -1.1238353891,
				"element": "H" 
			},
			{
				"x": -0.6115282015,
				"y": -3.8536874356,
				"z": -1.8191036639,
				"element": "H" 
			},
			{
				"x": 1.803356346,
				"y": -3.9010749207,
				"z": -1.2015468967,
				"element": "H" 
			},
			{
				"x": 2.763724608,
				"y": -2.0183554534,
				"z": 0.1202848907,
				"element": "H" 
			}
		],
		 "valence_orbital": [ 
			{
				"type": "occ",
				"energy": -0.34394,
				"method": "rhf"
			},
			{
				"type": "occ",
				"energy": -0.26347,
				"method": "rhf"
			},
			{
				"type": "occ",
				"energy": -0.25324,
				"method": "rhf"
			},
			{
				"type": "occ",
				"energy": -0.23894,
				"method": "rhf"
			},
			{
				"type": "occ",
				"energy": -0.23549,
				"method": "rhf"
			},
			{
				"type": "unocc",
				"energy": -0.01524,
				"method": "rhf"
			},
			{
				"type": "unocc",
				"energy": -0.00949,
				"method": "rhf"
			},
			{
				"type": "unocc",
				"energy": 0.03393,
				"method": "rhf"
			},
			{
				"type": "unocc",
				"energy": 0.08346,
				"method": "rhf"
			},
			{
				"type": "unocc",
				"energy": 0.09155,
				"method": "rhf"
			}
		],
		"cosmo_sigma_profile": { 
			"-0.025": 0.0,
			"-0.024": 0.0,
			"-0.023": 0.0,
			"-0.022": 0.0,
			"-0.021": 0.0,
			"-0.02": 0.0,
			"-0.019": 0.0,
			"-0.018": 0.0,
			"-0.017": 0.0,
			"-0.016": 0.0,
			"-0.015": 0.0,
			"-0.014": 0.0,
			"-0.013": 0.0,
			"-0.012": 0.0,
			"-0.011": 0.0,
			"-0.01": 0.0,
			"-0.009": 0.0,
			"-0.008": 0.0,
			"-0.007": 0.066783294463,
			"-0.006": 5.4850546135,
			"-0.005": 18.776166881,
			"-0.004": 26.225800054,
			"-0.003": 25.2853220996,
			"-0.002": 24.8629382552,
			"-0.001": 26.4616609697,
			"0.0": 20.2497964378,
			"0.001": 13.0929724445,
			"0.002": 8.6318979395,
			"0.003": 8.82485032031,
			"0.004": 8.90920254634,
			"0.005": 9.24545214028,
			"0.006": 4.03539571535,
			"0.007": 1.27427229196,
			"0.008": 1.06413560773,
			"0.009": 1.36536084628,
			"0.01": 2.00623307819,
			"0.011": 1.95688813945,
			"0.012": 1.2222082709,
			"0.013": 3.75657619131,
			"0.014": 4.45880590888,
			"0.015": 1.44313016361,
			"0.016": 0.0146732141191,
			"0.017": 0.0,
			"0.018": 0.0,
			"0.019": 0.0,
			"0.02": 0.0,
			"0.021": 0.0,
			"0.022": 0.0,
			"0.023": 0.0,
			"0.024": 0.0,
			"0.025": 0.0
		}
	}
}
