{
	 "smiles": "O=C(NC1=NC=CN=C1)C1CCCNC1", 
	 "Tm": 415.15, 
	 "num_atms": 29, 
	 "gaussian": { 
		 "optdone": 1, 
		 "sigma_profile": "yes", 
		 "theory": "DFT", 
		 "functional": "B3LYP", 
		 "basiset": "6-31G**", 
		 "properties": { 
			 "R2extent": 4626.6655, 
			 "electric_dipole_moment_norm": 2.68314774286, 
			 "electric_quadrupole_moment_norm": 9.44780857554, 
			 "total_energy": -683.716105324, 
			 "HOMO_LUMO_gap": 0.1709, 
			 "cosmo_polarized_energy": -20.41, 
			 "cosmo_cavitation_energy": 31.65, 
			 "cosmo_dispersion_energy": -23.1, 
			 "cosmo_repulsion_energy": 1.82, 
			 "cosmo_total_nonelectrostatic_energy": 10.37, 
			 "SMD_solvation_energy": 0.67 
		},
		"coords": [
			{
				"x": 1.0803764212,
				"y": 1.2386183296,
				"z": -2.0732356113,
				"element": "O" 
			},
			{
				"x": 0.8106503011,
				"y": 0.5945276822,
				"z": -1.0800442976,
				"element": "C" 
			},
			{
				"x": 0.1677374455,
				"y": -0.6487417608,
				"z": -1.1113313908,
				"element": "N" 
			},
			{
				"x": -0.2911452098,
				"y": -1.3697254612,
				"z": -2.2189791446,
				"element": "C" 
			},
			{
				"x": -0.5439807926,
				"y": -0.7426124981,
				"z": -3.3675661696,
				"element": "N" 
			},
			{
				"x": -0.9917291557,
				"y": -1.5072143244,
				"z": -4.3699643723,
				"element": "C" 
			},
			{
				"x": -1.2076637079,
				"y": -2.8761269971,
				"z": -4.2326213299,
				"element": "C" 
			},
			{
				"x": -0.9683726508,
				"y": -3.5053187083,
				"z": -3.0714653632,
				"element": "N" 
			},
			{
				"x": -0.5073331585,
				"y": -2.7579537757,
				"z": -2.076064102,
				"element": "C" 
			},
			{
				"x": 1.1748307824,
				"y": 1.0634764526,
				"z": 0.3306105784,
				"element": "C" 
			},
			{
				"x": -0.0563086659,
				"y": 1.3089579811,
				"z": 1.2488667288,
				"element": "C" 
			},
			{
				"x": 0.3132106132,
				"y": 1.1782847091,
				"z": 2.745216175,
				"element": "C" 
			},
			{
				"x": 1.7619581378,
				"y": 1.5988206455,
				"z": 2.9970215642,
				"element": "C" 
			},
			{
				"x": 2.6796268939,
				"y": 0.6740228941,
				"z": 2.307700703,
				"element": "N" 
			},
			{
				"x": 2.169662272,
				"y": 0.1178310693,
				"z": 1.049671635,
				"element": "C" 
			},
			{
				"x": 0.12459471,
				"y": -1.1483592572,
				"z": -0.2343293045,
				"element": "H" 
			},
			{
				"x": -1.1937288774,
				"y": -1.0014146682,
				"z": -5.3121083985,
				"element": "H" 
			},
			{
				"x": -1.5785486117,
				"y": -3.477240315,
				"z": -5.0588000453,
				"element": "H" 
			},
			{
				"x": -0.298062196,
				"y": -3.260281051,
				"z": -1.1311761049,
				"element": "H" 
			},
			{
				"x": 1.6914329431,
				"y": 2.0122040006,
				"z": 0.1592101758,
				"element": "H" 
			},
			{
				"x": -0.8620295027,
				"y": 0.6057936294,
				"z": 1.0076960445,
				"element": "H" 
			},
			{
				"x": -0.4546233984,
				"y": 2.3077438216,
				"z": 1.0408678274,
				"element": "H" 
			},
			{
				"x": -0.3638411909,
				"y": 1.78394362,
				"z": 3.3558950957,
				"element": "H" 
			},
			{
				"x": 0.1918565621,
				"y": 0.1409856152,
				"z": 3.0801904145,
				"element": "H" 
			},
			{
				"x": 1.885412669,
				"y": 2.6453814671,
				"z": 2.6661328044,
				"element": "H" 
			},
			{
				"x": 1.9837082318,
				"y": 1.5809091031,
				"z": 4.0710474768,
				"element": "H" 
			},
			{
				"x": 3.5668428325,
				"y": 1.1359481377,
				"z": 2.1404396108,
				"element": "H" 
			},
			{
				"x": 3.0199702029,
				"y": -0.112448237,
				"z": 0.400175337,
				"element": "H" 
			},
			{
				"x": 1.6758960995,
				"y": -0.8450121043,
				"z": 1.2577434632,
				"element": "H" 
			}
		],
		 "valence_orbital": [ 
			{
				"type": "occ",
				"energy": -0.3079,
				"method": "rhf"
			},
			{
				"type": "occ",
				"energy": -0.26751,
				"method": "rhf"
			},
			{
				"type": "occ",
				"energy": -0.24181,
				"method": "rhf"
			},
			{
				"type": "occ",
				"energy": -0.23964,
				"method": "rhf"
			},
			{
				"type": "occ",
				"energy": -0.21873,
				"method": "rhf"
			},
			{
				"type": "unocc",
				"energy": -0.04783,
				"method": "rhf"
			},
			{
				"type": "unocc",
				"energy": -0.02658,
				"method": "rhf"
			},
			{
				"type": "unocc",
				"energy": 0.02861,
				"method": "rhf"
			},
			{
				"type": "unocc",
				"energy": 0.04995,
				"method": "rhf"
			},
			{
				"type": "unocc",
				"energy": 0.07057,
				"method": "rhf"
			}
		],
		"cosmo_sigma_profile": { 
			"-0.025": 0.0,
			"-0.024": 0.0,
			"-0.023": 0.0,
			"-0.022": 0.0,
			"-0.021": 0.0,
			"-0.02": 0.0,
			"-0.019": 0.0,
			"-0.018": 0.0,
			"-0.017": 0.0,
			"-0.016": 0.105518445713,
			"-0.015": 1.05982447624,
			"-0.014": 1.31610897276,
			"-0.013": 1.66400836282,
			"-0.012": 1.58613716002,
			"-0.011": 1.5601030298,
			"-0.01": 2.52734683898,
			"-0.009": 3.23997758551,
			"-0.008": 4.98073767179,
			"-0.007": 8.98260609648,
			"-0.006": 9.24988205227,
			"-0.005": 10.4987691683,
			"-0.004": 16.6173110667,
			"-0.003": 23.2638317129,
			"-0.002": 31.8477924282,
			"-0.001": 27.2737467624,
			"0.0": 23.9418335863,
			"0.001": 12.2208533576,
			"0.002": 7.13618939557,
			"0.003": 6.72611994795,
			"0.004": 4.48726184636,
			"0.005": 3.82184521793,
			"0.006": 4.36656883503,
			"0.007": 4.58641593936,
			"0.008": 3.66576398385,
			"0.009": 3.23515074616,
			"0.01": 3.25839422624,
			"0.011": 3.18860509912,
			"0.012": 5.09752417853,
			"0.013": 6.79962530455,
			"0.014": 3.64845498248,
			"0.015": 2.71118939282,
			"0.016": 1.42117906814,
			"0.017": 1.58681889114,
			"0.018": 1.30090650433,
			"0.019": 0.191501969566,
			"0.02": 0.0,
			"0.021": 0.0,
			"0.022": 0.0,
			"0.023": 0.0,
			"0.024": 0.0,
			"0.025": 0.0
		}
	}
}
