{
	 "smiles": "NC(=O)NC(C(O)=O)C1=CC=CC=C1", 
	 "Tm": 475.15, 
	 "num_atms": 24, 
	 "gaussian": { 
		 "optdone": 1, 
		 "sigma_profile": "yes", 
		 "theory": "DFT", 
		 "functional": "B3LYP", 
		 "basiset": "6-31G**", 
		 "properties": { 
			 "R2extent": 3587.0763, 
			 "electric_dipole_moment_norm": 2.95307262525, 
			 "electric_quadrupole_moment_norm": 24.9555524311, 
			 "total_energy": -684.194941505, 
			 "HOMO_LUMO_gap": 0.229, 
			 "cosmo_polarized_energy": -20.23, 
			 "cosmo_cavitation_energy": 28.77, 
			 "cosmo_dispersion_energy": -20.27, 
			 "cosmo_repulsion_energy": 1.64, 
			 "cosmo_total_nonelectrostatic_energy": 10.14, 
			 "SMD_solvation_energy": 6.58 
		},
		"coords": [
			{
				"x": 3.7985945313,
				"y": 0.4888814101,
				"z": -3.4795789278,
				"element": "N" 
			},
			{
				"x": 2.5893881128,
				"y": 0.6592803581,
				"z": -2.8276738229,
				"element": "C" 
			},
			{
				"x": 1.9701009454,
				"y": 1.71450779,
				"z": -2.8273644952,
				"element": "O" 
			},
			{
				"x": 2.132305391,
				"y": -0.4874116561,
				"z": -2.1893527743,
				"element": "N" 
			},
			{
				"x": 0.7766259139,
				"y": -0.4693230141,
				"z": -1.6785887666,
				"element": "C" 
			},
			{
				"x": 0.2271669672,
				"y": -1.9075978846,
				"z": -1.7808047128,
				"element": "C" 
			},
			{
				"x": -0.9437014777,
				"y": -2.1310201852,
				"z": -1.1604428774,
				"element": "O" 
			},
			{
				"x": 0.7847759001,
				"y": -2.7811316214,
				"z": -2.4041432666,
				"element": "O" 
			},
			{
				"x": 0.651051029,
				"y": 0.0752662491,
				"z": -0.2597283344,
				"element": "C" 
			},
			{
				"x": -0.3992649782,
				"y": 0.9419928576,
				"z": 0.0675001213,
				"element": "C" 
			},
			{
				"x": -0.5639194422,
				"y": 1.3945636559,
				"z": 1.3801131889,
				"element": "C" 
			},
			{
				"x": 0.3263864103,
				"y": 0.9891858835,
				"z": 2.3734759472,
				"element": "C" 
			},
			{
				"x": 1.3836259336,
				"y": 0.1327153589,
				"z": 2.0504596398,
				"element": "C" 
			},
			{
				"x": 1.5440519018,
				"y": -0.3236599487,
				"z": 0.7438181456,
				"element": "C" 
			},
			{
				"x": 4.4396729501,
				"y": -0.2056875753,
				"z": -3.123434986,
				"element": "H" 
			},
			{
				"x": 4.2237856351,
				"y": 1.3576799502,
				"z": -3.7685467976,
				"element": "H" 
			},
			{
				"x": 2.3797920238,
				"y": -1.3837704085,
				"z": -2.5987787352,
				"element": "H" 
			},
			{
				"x": 0.1468196838,
				"y": 0.1562876981,
				"z": -2.329230477,
				"element": "H" 
			},
			{
				"x": -1.1777568117,
				"y": -1.3585731725,
				"z": -0.6184253393,
				"element": "H" 
			},
			{
				"x": -1.070857032,
				"y": 1.2914873093,
				"z": -0.7135942352,
				"element": "H" 
			},
			{
				"x": -1.3765851171,
				"y": 2.0745509714,
				"z": 1.6181691465,
				"element": "H" 
			},
			{
				"x": 0.2047215162,
				"y": 1.3438848557,
				"z": 3.3926774883,
				"element": "H" 
			},
			{
				"x": 2.0830928694,
				"y": -0.1802966737,
				"z": 2.8203195057,
				"element": "H" 
			},
			{
				"x": 2.3699271442,
				"y": -0.9807122079,
				"z": 0.488055365,
				"element": "H" 
			}
		],
		 "valence_orbital": [ 
			{
				"type": "occ",
				"energy": -0.27501,
				"method": "rhf"
			},
			{
				"type": "occ",
				"energy": -0.26913,
				"method": "rhf"
			},
			{
				"type": "occ",
				"energy": -0.26475,
				"method": "rhf"
			},
			{
				"type": "occ",
				"energy": -0.25757,
				"method": "rhf"
			},
			{
				"type": "occ",
				"energy": -0.25191,
				"method": "rhf"
			},
			{
				"type": "unocc",
				"energy": -0.02291,
				"method": "rhf"
			},
			{
				"type": "unocc",
				"energy": -0.02065,
				"method": "rhf"
			},
			{
				"type": "unocc",
				"energy": 0.00499,
				"method": "rhf"
			},
			{
				"type": "unocc",
				"energy": 0.04839,
				"method": "rhf"
			},
			{
				"type": "unocc",
				"energy": 0.07681,
				"method": "rhf"
			}
		],
		"cosmo_sigma_profile": { 
			"-0.025": 0.0,
			"-0.024": 0.0,
			"-0.023": 0.0,
			"-0.022": 0.0,
			"-0.021": 0.0,
			"-0.02": 0.0,
			"-0.019": 0.0,
			"-0.018": 0.0,
			"-0.017": 0.0,
			"-0.016": 0.0,
			"-0.015": 0.159134984852,
			"-0.014": 2.05875772189,
			"-0.013": 5.08783061541,
			"-0.012": 3.92205988699,
			"-0.011": 4.12388873038,
			"-0.01": 3.75328231035,
			"-0.009": 4.88854455307,
			"-0.008": 5.57587768949,
			"-0.007": 6.18147363997,
			"-0.006": 12.1686570554,
			"-0.005": 14.4585162078,
			"-0.004": 16.0683673222,
			"-0.003": 13.5449001617,
			"-0.002": 12.1165821669,
			"-0.001": 10.5194744757,
			"0.0": 8.25539334372,
			"0.001": 11.0744664401,
			"0.002": 9.94827172104,
			"0.003": 12.6558895055,
			"0.004": 13.1881864424,
			"0.005": 11.0376075538,
			"0.006": 5.77641055656,
			"0.007": 4.60285159727,
			"0.008": 5.99945174387,
			"0.009": 7.30549388678,
			"0.01": 5.99246577266,
			"0.011": 5.75226513244,
			"0.012": 3.68396081076,
			"0.013": 3.13542886913,
			"0.014": 4.60296724322,
			"0.015": 0.743622712557,
			"0.016": 0.0,
			"0.017": 0.0,
			"0.018": 0.0,
			"0.019": 0.0,
			"0.02": 0.0,
			"0.021": 0.0,
			"0.022": 0.0,
			"0.023": 0.0,
			"0.024": 0.0,
			"0.025": 0.0
		}
	}
}
