{
	 "smiles": "NC1=NC2=C(N1)C=CC(Br)=C2", 
	 "Tm": 422.15, 
	 "num_atms": 17, 
	 "gaussian": { 
		 "optdone": 1, 
		 "sigma_profile": "yes", 
		 "theory": "DFT", 
		 "functional": "B3LYP", 
		 "basiset": "6-31G**", 
		 "properties": { 
			 "R2extent": 5483.351, 
			 "electric_dipole_moment_norm": 5.94564010768, 
			 "electric_quadrupole_moment_norm": 12.3035371235, 
			 "total_energy": -3006.03577752, 
			 "HOMO_LUMO_gap": 0.19818, 
			 "cosmo_polarized_energy": -17.41, 
			 "cosmo_cavitation_energy": 23.74, 
			 "cosmo_dispersion_energy": -18.53, 
			 "cosmo_repulsion_energy": 1.49, 
			 "cosmo_total_nonelectrostatic_energy": 6.7, 
			 "SMD_solvation_energy": 0.6 
		},
		"coords": [
			{
				"x": 1.80947029,
				"y": 1.9257316013,
				"z": 1.176525003,
				"element": "N" 
			},
			{
				"x": 0.5597326113,
				"y": 1.5083394391,
				"z": 0.7629457655,
				"element": "C" 
			},
			{
				"x": -0.4958361087,
				"y": 1.4040156478,
				"z": 1.5337806619,
				"element": "N" 
			},
			{
				"x": -1.4769546023,
				"y": 0.8631604819,
				"z": 0.7117473803,
				"element": "C" 
			},
			{
				"x": -0.9768172855,
				"y": 0.6576162609,
				"z": -0.5977973111,
				"element": "C" 
			},
			{
				"x": 0.3425156413,
				"y": 1.0995291194,
				"z": -0.5389788935,
				"element": "N" 
			},
			{
				"x": -1.7550243334,
				"y": 0.1334526757,
				"z": -1.6234541227,
				"element": "C" 
			},
			{
				"x": -3.0777821113,
				"y": -0.1970406073,
				"z": -1.3184040809,
				"element": "C" 
			},
			{
				"x": -3.5754215303,
				"y": 0.0092358915,
				"z": -0.0237697262,
				"element": "C" 
			},
			{
				"x": -5.4012825,
				"y": -0.4578691292,
				"z": 0.3344023357,
				"element": "Br" 
			},
			{
				"x": -2.80346441,
				"y": 0.536597556,
				"z": 1.0078262188,
				"element": "C" 
			},
			{
				"x": 2.2943938448,
				"y": 2.5443193273,
				"z": 0.5383574564,
				"element": "H" 
			},
			{
				"x": 1.7765774823,
				"y": 2.298650962,
				"z": 2.1169273819,
				"element": "H" 
			},
			{
				"x": 1.0563043298,
				"y": 0.9456091618,
				"z": -1.2337918202,
				"element": "H" 
			},
			{
				"x": -1.3646490684,
				"y": -0.0210064922,
				"z": -2.6247697042,
				"element": "H" 
			},
			{
				"x": -3.7242973604,
				"y": -0.6129804583,
				"z": -2.0817580868,
				"element": "H" 
			},
			{
				"x": -3.2068648891,
				"y": 0.6878385623,
				"z": 2.0015115421,
				"element": "H" 
			}
		],
		 "valence_orbital": [ 
			{
				"type": "occ",
				"energy": -0.2799,
				"method": "rhf"
			},
			{
				"type": "occ",
				"energy": -0.27678,
				"method": "rhf"
			},
			{
				"type": "occ",
				"energy": -0.27418,
				"method": "rhf"
			},
			{
				"type": "occ",
				"energy": -0.22373,
				"method": "rhf"
			},
			{
				"type": "occ",
				"energy": -0.20876,
				"method": "rhf"
			},
			{
				"type": "unocc",
				"energy": -0.01058,
				"method": "rhf"
			},
			{
				"type": "unocc",
				"energy": 0.01466,
				"method": "rhf"
			},
			{
				"type": "unocc",
				"energy": 0.01855,
				"method": "rhf"
			},
			{
				"type": "unocc",
				"energy": 0.05446,
				"method": "rhf"
			},
			{
				"type": "unocc",
				"energy": 0.06024,
				"method": "rhf"
			}
		],
		"cosmo_sigma_profile": { 
			"-0.025": 0.0,
			"-0.024": 0.0,
			"-0.023": 0.0,
			"-0.022": 0.0,
			"-0.021": 0.0,
			"-0.02": 0.0,
			"-0.019": 0.0,
			"-0.018": 0.0,
			"-0.017": 0.345352464933,
			"-0.016": 1.95519064044,
			"-0.015": 2.14982266411,
			"-0.014": 3.54258995231,
			"-0.013": 3.98489099928,
			"-0.012": 3.72823254101,
			"-0.011": 3.15853383138,
			"-0.01": 3.15288730196,
			"-0.009": 2.8318832513,
			"-0.008": 2.73821193897,
			"-0.007": 4.80243841687,
			"-0.006": 7.7414872528,
			"-0.005": 5.45669412921,
			"-0.004": 5.85272049755,
			"-0.003": 8.41156577514,
			"-0.002": 7.69369660077,
			"-0.001": 8.29133852679,
			"0.0": 8.87811897093,
			"0.001": 10.8550579116,
			"0.002": 12.8832109276,
			"0.003": 19.2831082829,
			"0.004": 23.9528975896,
			"0.005": 20.623508861,
			"0.006": 4.62045752358,
			"0.007": 1.66199866161,
			"0.008": 2.38493841377,
			"0.009": 2.45743545335,
			"0.01": 1.34962434891,
			"0.011": 1.68869738182,
			"0.012": 1.51626694569,
			"0.013": 1.22346718425,
			"0.014": 0.970273874726,
			"0.015": 1.38472670493,
			"0.016": 0.686714380207,
			"0.017": 0.823751775436,
			"0.018": 0.265585845229,
			"0.019": 0.0,
			"0.02": 0.0,
			"0.021": 0.0,
			"0.022": 0.0,
			"0.023": 0.0,
			"0.024": 0.0,
			"0.025": 0.0
		}
	}
}
