{
	 "smiles": "OC1=C(Cl)C=C(Cl)C2=C1N=CC=C2", 
	 "Tm": 453.15, 
	 "num_atms": 18, 
	 "gaussian": { 
		 "optdone": 1, 
		 "sigma_profile": "yes", 
		 "theory": "DFT", 
		 "functional": "B3LYP", 
		 "basiset": "6-31G**", 
		 "properties": { 
			 "R2extent": 4458.6708, 
			 "electric_dipole_moment_norm": 3.57533301386, 
			 "electric_quadrupole_moment_norm": 10.6643535538, 
			 "total_energy": -1396.33774686, 
			 "HOMO_LUMO_gap": 0.15, 
			 "cosmo_polarized_energy": -7.05, 
			 "cosmo_cavitation_energy": 25.79, 
			 "cosmo_dispersion_energy": -19.86, 
			 "cosmo_repulsion_energy": 1.55, 
			 "cosmo_total_nonelectrostatic_energy": 7.48, 
			 "SMD_solvation_energy": 3.24 
		},
		"coords": [
			{
				"x": -1.4021158107,
				"y": -2.7927066113,
				"z": -0.9700053893,
				"element": "O" 
			},
			{
				"x": -1.7086519485,
				"y": -1.584456658,
				"z": -0.4745352763,
				"element": "C" 
			},
			{
				"x": -2.4104479211,
				"y": -0.6359938562,
				"z": -1.1963231769,
				"element": "C" 
			},
			{
				"x": -2.9358662306,
				"y": -0.9890322623,
				"z": -2.8223839452,
				"element": "Cl" 
			},
			{
				"x": -2.7123485486,
				"y": 0.6260519545,
				"z": -0.6346804021,
				"element": "C" 
			},
			{
				"x": -2.3147795816,
				"y": 0.9411122887,
				"z": 0.6446237775,
				"element": "C" 
			},
			{
				"x": -2.7145073802,
				"y": 2.5239062643,
				"z": 1.2982530459,
				"element": "Cl" 
			},
			{
				"x": -1.5903842434,
				"y": 0.0091459995,
				"z": 1.4376565939,
				"element": "C" 
			},
			{
				"x": -1.2939210259,
				"y": -1.2594217225,
				"z": 0.8562946598,
				"element": "C" 
			},
			{
				"x": -0.6097283171,
				"y": -2.2382095986,
				"z": 1.5048345987,
				"element": "N" 
			},
			{
				"x": -0.1991346991,
				"y": -2.0011040859,
				"z": 2.7360487463,
				"element": "C" 
			},
			{
				"x": -0.4383723091,
				"y": -0.7790460268,
				"z": 3.4077315277,
				"element": "C" 
			},
			{
				"x": -1.1306465178,
				"y": 0.2209071987,
				"z": 2.7612806031,
				"element": "C" 
			},
			{
				"x": -0.9126194561,
				"y": -3.2435956579,
				"z": -0.2513763224,
				"element": "H" 
			},
			{
				"x": -3.2637481096,
				"y": 1.3449422798,
				"z": -1.2286280197,
				"element": "H" 
			},
			{
				"x": 0.3461935343,
				"y": -2.8012706089,
				"z": 3.2325045528,
				"element": "H" 
			},
			{
				"x": -0.0758449989,
				"y": -0.6419335637,
				"z": 4.421011313,
				"element": "H" 
			},
			{
				"x": -1.3300764359,
				"y": 1.1689046664,
				"z": 3.2488931131,
				"element": "H" 
			}
		],
		 "valence_orbital": [ 
			{
				"type": "occ",
				"energy": -0.31509,
				"method": "rhf"
			},
			{
				"type": "occ",
				"energy": -0.30584,
				"method": "rhf"
			},
			{
				"type": "occ",
				"energy": -0.29206,
				"method": "rhf"
			},
			{
				"type": "occ",
				"energy": -0.26597,
				"method": "rhf"
			},
			{
				"type": "occ",
				"energy": -0.22186,
				"method": "rhf"
			},
			{
				"type": "unocc",
				"energy": -0.07186,
				"method": "rhf"
			},
			{
				"type": "unocc",
				"energy": -0.03924,
				"method": "rhf"
			},
			{
				"type": "unocc",
				"energy": 0.00661,
				"method": "rhf"
			},
			{
				"type": "unocc",
				"energy": 0.00909,
				"method": "rhf"
			},
			{
				"type": "unocc",
				"energy": 0.04989,
				"method": "rhf"
			}
		],
		"cosmo_sigma_profile": { 
			"-0.025": 0.0,
			"-0.024": 0.0,
			"-0.023": 0.0,
			"-0.022": 0.0,
			"-0.021": 0.0,
			"-0.02": 0.0,
			"-0.019": 0.0,
			"-0.018": 0.0,
			"-0.017": 0.0,
			"-0.016": 0.0,
			"-0.015": 0.0,
			"-0.014": 0.0180157757662,
			"-0.013": 0.34326517171,
			"-0.012": 0.57508998575,
			"-0.011": 0.424912785515,
			"-0.01": 0.760827081509,
			"-0.009": 0.931290129383,
			"-0.008": 3.95826863732,
			"-0.007": 9.64364163212,
			"-0.006": 8.59267245683,
			"-0.005": 7.24502268271,
			"-0.004": 7.26188916523,
			"-0.003": 8.63148980337,
			"-0.002": 12.0419459781,
			"-0.001": 23.6381295416,
			"0.0": 29.6577274302,
			"0.001": 29.2111132527,
			"0.002": 16.3412083634,
			"0.003": 14.8140071728,
			"0.004": 17.6754443521,
			"0.005": 7.74967874456,
			"0.006": 3.98000753665,
			"0.007": 2.82994793465,
			"0.008": 1.9611794737,
			"0.009": 1.6838075291,
			"0.01": 2.49768348205,
			"0.011": 0.4685946932,
			"0.012": 0.0,
			"0.013": 0.0,
			"0.014": 0.0,
			"0.015": 0.0,
			"0.016": 0.0,
			"0.017": 0.0,
			"0.018": 0.0,
			"0.019": 0.0,
			"0.02": 0.0,
			"0.021": 0.0,
			"0.022": 0.0,
			"0.023": 0.0,
			"0.024": 0.0,
			"0.025": 0.0
		}
	}
}
