{
	 "smiles": "O=CNC1=CC=CC=C1", 
	 "Tm": 319.65, 
	 "num_atms": 16, 
	 "gaussian": { 
		 "optdone": 1, 
		 "sigma_profile": "yes", 
		 "theory": "DFT", 
		 "functional": "B3LYP", 
		 "basiset": "6-31G**", 
		 "properties": { 
			 "R2extent": 2011.0516, 
			 "electric_dipole_moment_norm": 3.26912607741, 
			 "electric_quadrupole_moment_norm": 10.6572183782, 
			 "total_energy": -400.944604005, 
			 "HOMO_LUMO_gap": 0.20419, 
			 "cosmo_polarized_energy": -10.94, 
			 "cosmo_cavitation_energy": 20.32, 
			 "cosmo_dispersion_energy": -15.15, 
			 "cosmo_repulsion_energy": 1.23, 
			 "cosmo_total_nonelectrostatic_energy": 6.4, 
			 "SMD_solvation_energy": 5.08 
		},
		"coords": [
			{
				"x": -1.5827419931,
				"y": 0.2617943867,
				"z": 2.8899896506,
				"element": "O" 
			},
			{
				"x": -0.7744484734,
				"y": -0.0540016256,
				"z": 2.0358420843,
				"element": "C" 
			},
			{
				"x": 0.4387129203,
				"y": 0.5685909101,
				"z": 1.8856420672,
				"element": "N" 
			},
			{
				"x": 1.4670044335,
				"y": 0.3199711761,
				"z": 0.9564294481,
				"element": "C" 
			},
			{
				"x": 1.3893996151,
				"y": -0.680471055,
				"z": -0.0255103777,
				"element": "C" 
			},
			{
				"x": 2.4501324844,
				"y": -0.8663938802,
				"z": -0.9112827537,
				"element": "C" 
			},
			{
				"x": 3.5955792679,
				"y": -0.072561908,
				"z": -0.8410959404,
				"element": "C" 
			},
			{
				"x": 3.6714748149,
				"y": 0.9216749833,
				"z": 0.1355896197,
				"element": "C" 
			},
			{
				"x": 2.61955839,
				"y": 1.1180124818,
				"z": 1.0263462384,
				"element": "C" 
			},
			{
				"x": -0.952776014,
				"y": -0.8666125611,
				"z": 1.3127126248,
				"element": "H" 
			},
			{
				"x": 0.5928416525,
				"y": 1.313990902,
				"z": 2.5545074478,
				"element": "H" 
			},
			{
				"x": 0.5150140658,
				"y": -1.3151508873,
				"z": -0.1087082673,
				"element": "H" 
			},
			{
				"x": 2.3738319348,
				"y": -1.6448861374,
				"z": -1.6649562024,
				"element": "H" 
			},
			{
				"x": 4.4150167468,
				"y": -0.2263044181,
				"z": -1.5358009502,
				"element": "H" 
			},
			{
				"x": 4.5535804051,
				"y": 1.5511537916,
				"z": 0.208385947,
				"element": "H" 
			},
			{
				"x": 2.6861197493,
				"y": 1.8945938411,
				"z": 1.7844093637,
				"element": "H" 
			}
		],
		 "valence_orbital": [ 
			{
				"type": "occ",
				"energy": -0.35648,
				"method": "rhf"
			},
			{
				"type": "occ",
				"energy": -0.31378,
				"method": "rhf"
			},
			{
				"type": "occ",
				"energy": -0.26284,
				"method": "rhf"
			},
			{
				"type": "occ",
				"energy": -0.26283,
				"method": "rhf"
			},
			{
				"type": "occ",
				"energy": -0.22603,
				"method": "rhf"
			},
			{
				"type": "unocc",
				"energy": -0.02184,
				"method": "rhf"
			},
			{
				"type": "unocc",
				"energy": -0.01174,
				"method": "rhf"
			},
			{
				"type": "unocc",
				"energy": 0.03716,
				"method": "rhf"
			},
			{
				"type": "unocc",
				"energy": 0.07834,
				"method": "rhf"
			},
			{
				"type": "unocc",
				"energy": 0.07941,
				"method": "rhf"
			}
		],
		"cosmo_sigma_profile": { 
			"-0.025": 0.0,
			"-0.024": 0.0,
			"-0.023": 0.0,
			"-0.022": 0.0,
			"-0.021": 0.0,
			"-0.02": 0.0,
			"-0.019": 0.0,
			"-0.018": 0.0,
			"-0.017": 0.0,
			"-0.016": 0.0,
			"-0.015": 0.42647917567,
			"-0.014": 1.4664826318,
			"-0.013": 1.32336145201,
			"-0.012": 1.02106235671,
			"-0.011": 1.20456179202,
			"-0.01": 1.4693891367,
			"-0.009": 3.43056358048,
			"-0.008": 3.60877808932,
			"-0.007": 4.98901721635,
			"-0.006": 8.5231250272,
			"-0.005": 11.8934503477,
			"-0.004": 12.0552092806,
			"-0.003": 10.7530520605,
			"-0.002": 9.54599824025,
			"-0.001": 8.74205971869,
			"0.0": 8.33862689209,
			"0.001": 10.7350775967,
			"0.002": 9.47122448025,
			"0.003": 9.12229380923,
			"0.004": 9.73953779516,
			"0.005": 10.9153426103,
			"0.006": 5.55345254217,
			"0.007": 1.05761032257,
			"0.008": 1.26531746942,
			"0.009": 1.56699985259,
			"0.01": 1.42479262375,
			"0.011": 1.70341799721,
			"0.012": 4.18640055828,
			"0.013": 5.41980868535,
			"0.014": 1.73947836835,
			"0.015": 0.0830359295022,
			"0.016": 0.0,
			"0.017": 0.0,
			"0.018": 0.0,
			"0.019": 0.0,
			"0.02": 0.0,
			"0.021": 0.0,
			"0.022": 0.0,
			"0.023": 0.0,
			"0.024": 0.0,
			"0.025": 0.0
		}
	}
}
