{
	 "smiles": "CCOC(=O)C1CCN(CC1)C1=NC(Cl)=NC(Cl)=N1", 
	 "Tm": 423.15, 
	 "num_atms": 33, 
	 "gaussian": { 
		 "optdone": 1, 
		 "sigma_profile": "yes", 
		 "theory": "DFT", 
		 "functional": "B3LYP", 
		 "basiset": "6-31G**", 
		 "properties": { 
			 "R2extent": 10214.3624, 
			 "electric_dipole_moment_norm": 6.7394505733, 
			 "electric_quadrupole_moment_norm": 12.0646198117, 
			 "total_energy": -1717.4794072, 
			 "HOMO_LUMO_gap": 0.19818, 
			 "cosmo_polarized_energy": -12.94, 
			 "cosmo_cavitation_energy": 39.97, 
			 "cosmo_dispersion_energy": -28.94, 
			 "cosmo_repulsion_energy": 2.29, 
			 "cosmo_total_nonelectrostatic_energy": 13.32, 
			 "SMD_solvation_energy": 2.56 
		},
		"coords": [
			{
				"x": 0.6561280254,
				"y": 1.987939833,
				"z": 5.1883445715,
				"element": "C" 
			},
			{
				"x": -0.0795839655,
				"y": 3.0685578509,
				"z": 4.4113981032,
				"element": "C" 
			},
			{
				"x": 0.4492952817,
				"y": 3.2054185761,
				"z": 3.0670890214,
				"element": "O" 
			},
			{
				"x": -0.0473493184,
				"y": 2.3692126132,
				"z": 2.1315458646,
				"element": "C" 
			},
			{
				"x": -0.908674129,
				"y": 1.54086997,
				"z": 2.3487335632,
				"element": "O" 
			},
			{
				"x": 0.6573401674,
				"y": 2.573778129,
				"z": 0.7957037356,
				"element": "C" 
			},
			{
				"x": 1.9619172623,
				"y": 1.7238712693,
				"z": 0.7750011825,
				"element": "C" 
			},
			{
				"x": 1.7084329341,
				"y": 0.3079808475,
				"z": 0.2591170044,
				"element": "C" 
			},
			{
				"x": 1.2230823646,
				"y": 0.3680303331,
				"z": -1.1312530774,
				"element": "N" 
			},
			{
				"x": 0.5022506997,
				"y": 1.5791412447,
				"z": -1.559072817,
				"element": "C" 
			},
			{
				"x": -0.2653881604,
				"y": 2.1790614076,
				"z": -0.3801113415,
				"element": "C" 
			},
			{
				"x": 1.4303265256,
				"y": -0.6559848176,
				"z": -1.9792597493,
				"element": "C" 
			},
			{
				"x": 2.064181271,
				"y": -1.7613035548,
				"z": -1.5044885694,
				"element": "N" 
			},
			{
				"x": 2.2315766844,
				"y": -2.7089306707,
				"z": -2.4006332712,
				"element": "C" 
			},
			{
				"x": 3.056060678,
				"y": -4.1519174125,
				"z": -1.8550195465,
				"element": "Cl" 
			},
			{
				"x": 1.8492246716,
				"y": -2.7136056584,
				"z": -3.6778948323,
				"element": "N" 
			},
			{
				"x": 1.2359289298,
				"y": -1.5786697835,
				"z": -4.0150868393,
				"element": "C" 
			},
			{
				"x": 0.6881444813,
				"y": -1.4815068622,
				"z": -5.6735093935,
				"element": "Cl" 
			},
			{
				"x": 0.997334264,
				"y": -0.5277672573,
				"z": -3.2618446742,
				"element": "N" 
			},
			{
				"x": 0.4858701463,
				"y": 1.00639099,
				"z": 4.7389881361,
				"element": "H" 
			},
			{
				"x": 0.2897679759,
				"y": 1.9586769824,
				"z": 6.2197776023,
				"element": "H" 
			},
			{
				"x": 1.7315392077,
				"y": 2.1877473194,
				"z": 5.2132557627,
				"element": "H" 
			},
			{
				"x": -1.1481186706,
				"y": 2.8509927738,
				"z": 4.3465870385,
				"element": "H" 
			},
			{
				"x": 0.0652260471,
				"y": 4.054438054,
				"z": 4.8589315322,
				"element": "H" 
			},
			{
				"x": 0.9406740064,
				"y": 3.628597858,
				"z": 0.7366713124,
				"element": "H" 
			},
			{
				"x": 2.6999727109,
				"y": 2.2139556774,
				"z": 0.1309039451,
				"element": "H" 
			},
			{
				"x": 2.4048235489,
				"y": 1.6752960213,
				"z": 1.7743255873,
				"element": "H" 
			},
			{
				"x": 2.6206658233,
				"y": -0.288955058,
				"z": 0.2787882335,
				"element": "H" 
			},
			{
				"x": 0.9705467707,
				"y": -0.2033482297,
				"z": 0.8910291575,
				"element": "H" 
			},
			{
				"x": -0.1772546839,
				"y": 1.3027671232,
				"z": -2.364928721,
				"element": "H" 
			},
			{
				"x": 1.2132531468,
				"y": 2.305375583,
				"z": -1.9775615402,
				"element": "H" 
			},
			{
				"x": -0.8285173482,
				"y": 3.0492017401,
				"z": -0.7318083479,
				"element": "H" 
			},
			{
				"x": -0.9963773489,
				"y": 1.4488871078,
				"z": -0.0202186333,
				"element": "H" 
			}
		],
		 "valence_orbital": [ 
			{
				"type": "occ",
				"energy": -0.29912,
				"method": "rhf"
			},
			{
				"type": "occ",
				"energy": -0.28554,
				"method": "rhf"
			},
			{
				"type": "occ",
				"energy": -0.2839,
				"method": "rhf"
			},
			{
				"type": "occ",
				"energy": -0.28245,
				"method": "rhf"
			},
			{
				"type": "occ",
				"energy": -0.24891,
				"method": "rhf"
			},
			{
				"type": "unocc",
				"energy": -0.05073,
				"method": "rhf"
			},
			{
				"type": "unocc",
				"energy": -0.03099,
				"method": "rhf"
			},
			{
				"type": "unocc",
				"energy": -0.00372,
				"method": "rhf"
			},
			{
				"type": "unocc",
				"energy": 0.0193,
				"method": "rhf"
			},
			{
				"type": "unocc",
				"energy": 0.04943,
				"method": "rhf"
			}
		],
		"cosmo_sigma_profile": { 
			"-0.025": 0.0,
			"-0.024": 0.0,
			"-0.023": 0.0,
			"-0.022": 0.0,
			"-0.021": 0.0,
			"-0.02": 0.0,
			"-0.019": 0.0,
			"-0.018": 0.0,
			"-0.017": 0.0,
			"-0.016": 0.0,
			"-0.015": 0.0,
			"-0.014": 0.0,
			"-0.013": 0.0,
			"-0.012": 0.0,
			"-0.011": 0.0,
			"-0.01": 0.0,
			"-0.009": 0.0,
			"-0.008": 0.0472272542188,
			"-0.007": 1.25225211952,
			"-0.006": 6.32663833915,
			"-0.005": 28.3659436932,
			"-0.004": 40.0112308969,
			"-0.003": 39.405669449,
			"-0.002": 33.3795056568,
			"-0.001": 25.4063073201,
			"0.0": 22.3704527092,
			"0.001": 17.6083257797,
			"0.002": 18.5772538462,
			"0.003": 23.1206409291,
			"0.004": 17.6131814556,
			"0.005": 10.3376184369,
			"0.006": 8.18006053193,
			"0.007": 6.21216279765,
			"0.008": 5.79337556006,
			"0.009": 6.24743620417,
			"0.01": 3.17118686953,
			"0.011": 2.43211982295,
			"0.012": 4.73333788576,
			"0.013": 0.430095277442,
			"0.014": 0.0,
			"0.015": 0.0,
			"0.016": 0.0,
			"0.017": 0.0,
			"0.018": 0.0,
			"0.019": 0.0,
			"0.02": 0.0,
			"0.021": 0.0,
			"0.022": 0.0,
			"0.023": 0.0,
			"0.024": 0.0,
			"0.025": 0.0
		}
	}
}
