{
	 "smiles": "COC1=CC2=C(C=C1)N=C(Cl)C=C2", 
	 "Tm": 377.15, 
	 "num_atms": 21, 
	 "gaussian": { 
		 "optdone": 1, 
		 "sigma_profile": "yes", 
		 "theory": "DFT", 
		 "functional": "B3LYP", 
		 "basiset": "6-31G**", 
		 "properties": { 
			 "R2extent": 3705.6446, 
			 "electric_dipole_moment_norm": 4.94068545042, 
			 "electric_quadrupole_moment_norm": 10.4284081925, 
			 "total_energy": -976.05183563, 
			 "HOMO_LUMO_gap": 0.16705, 
			 "cosmo_polarized_energy": -9.34, 
			 "cosmo_cavitation_energy": 27.01, 
			 "cosmo_dispersion_energy": -20.38, 
			 "cosmo_repulsion_energy": 1.6, 
			 "cosmo_total_nonelectrostatic_energy": 8.22, 
			 "SMD_solvation_energy": 3.48 
		},
		"coords": [
			{
				"x": -3.7885519745,
				"y": -0.1369005279,
				"z": -0.3255160546,
				"element": "C" 
			},
			{
				"x": -2.8221172096,
				"y": 0.902464469,
				"z": -0.3651252405,
				"element": "O" 
			},
			{
				"x": -1.511170505,
				"y": 0.5655394754,
				"z": -0.2248859203,
				"element": "C" 
			},
			{
				"x": -1.0323705819,
				"y": -0.7187779448,
				"z": -0.0444806347,
				"element": "C" 
			},
			{
				"x": 0.3640015782,
				"y": -0.9379813201,
				"z": 0.0893099837,
				"element": "C" 
			},
			{
				"x": 1.2681636931,
				"y": 0.1667204756,
				"z": 0.0372191387,
				"element": "C" 
			},
			{
				"x": 0.7411489032,
				"y": 1.473466938,
				"z": -0.1494769042,
				"element": "C" 
			},
			{
				"x": -0.6102924595,
				"y": 1.6670365326,
				"z": -0.2768658692,
				"element": "C" 
			},
			{
				"x": 2.6190744717,
				"y": 0.0149435837,
				"z": 0.1599643541,
				"element": "N" 
			},
			{
				"x": 3.0806154853,
				"y": -1.1887330408,
				"z": 0.3300767831,
				"element": "C" 
			},
			{
				"x": 4.8326960042,
				"y": -1.3703993929,
				"z": 0.487610272,
				"element": "Cl" 
			},
			{
				"x": 2.2933748854,
				"y": -2.3659453238,
				"z": 0.3994038267,
				"element": "C" 
			},
			{
				"x": 0.9318404513,
				"y": -2.2258243772,
				"z": 0.2771345388,
				"element": "C" 
			},
			{
				"x": -4.7576199074,
				"y": 0.3465303761,
				"z": -0.4554947092,
				"element": "H" 
			},
			{
				"x": -3.6328669364,
				"y": -0.8613600797,
				"z": -1.1350796879,
				"element": "H" 
			},
			{
				"x": -3.7722403922,
				"y": -0.6643030901,
				"z": 0.636803375,
				"element": "H" 
			},
			{
				"x": -1.6997911186,
				"y": -1.5718825932,
				"z": -0.0018655212,
				"element": "H" 
			},
			{
				"x": 1.43977779,
				"y": 2.3024318543,
				"z": -0.1870122407,
				"element": "H" 
			},
			{
				"x": -1.0312203548,
				"y": 2.6568710342,
				"z": -0.4199953747,
				"element": "H" 
			},
			{
				"x": 2.7632021911,
				"y": -3.3312342469,
				"z": 0.5436493914,
				"element": "H" 
			},
			{
				"x": 0.2835459862,
				"y": -3.0970628014,
				"z": 0.3233264937,
				"element": "H" 
			}
		],
		 "valence_orbital": [ 
			{
				"type": "occ",
				"energy": -0.3082,
				"method": "rhf"
			},
			{
				"type": "occ",
				"energy": -0.29441,
				"method": "rhf"
			},
			{
				"type": "occ",
				"energy": -0.27054,
				"method": "rhf"
			},
			{
				"type": "occ",
				"energy": -0.24892,
				"method": "rhf"
			},
			{
				"type": "occ",
				"energy": -0.22388,
				"method": "rhf"
			},
			{
				"type": "unocc",
				"energy": -0.05683,
				"method": "rhf"
			},
			{
				"type": "unocc",
				"energy": -0.01901,
				"method": "rhf"
			},
			{
				"type": "unocc",
				"energy": 0.01482,
				"method": "rhf"
			},
			{
				"type": "unocc",
				"energy": 0.03762,
				"method": "rhf"
			},
			{
				"type": "unocc",
				"energy": 0.0864,
				"method": "rhf"
			}
		],
		"cosmo_sigma_profile": { 
			"-0.025": 0.0,
			"-0.024": 0.0,
			"-0.023": 0.0,
			"-0.022": 0.0,
			"-0.021": 0.0,
			"-0.02": 0.0,
			"-0.019": 0.0,
			"-0.018": 0.0,
			"-0.017": 0.0,
			"-0.016": 0.0,
			"-0.015": 0.0,
			"-0.014": 0.0,
			"-0.013": 0.0,
			"-0.012": 0.0,
			"-0.011": 0.0,
			"-0.01": 0.0,
			"-0.009": 0.0,
			"-0.008": 3.16866289299,
			"-0.007": 8.98873293798,
			"-0.006": 14.5690926091,
			"-0.005": 17.0322214571,
			"-0.004": 13.9184059599,
			"-0.003": 14.3199145311,
			"-0.002": 10.2913156465,
			"-0.001": 11.4388852805,
			"0.0": 18.3460961922,
			"0.001": 20.943774888,
			"0.002": 25.6537675762,
			"0.003": 18.8433297366,
			"0.004": 13.2142668842,
			"0.005": 9.84727389511,
			"0.006": 4.6158814393,
			"0.007": 3.14225233562,
			"0.008": 2.72327869987,
			"0.009": 3.24950539393,
			"0.01": 1.49901978431,
			"0.011": 0.798471130202,
			"0.012": 1.3396538397,
			"0.013": 0.587864867841,
			"0.014": 0.630874908623,
			"0.015": 0.0612896212627,
			"0.016": 0.0,
			"0.017": 0.0,
			"0.018": 0.0,
			"0.019": 0.0,
			"0.02": 0.0,
			"0.021": 0.0,
			"0.022": 0.0,
			"0.023": 0.0,
			"0.024": 0.0,
			"0.025": 0.0
		}
	}
}
