{
	 "smiles": "BrC1=CC(Br)=C(OC2=C(Br)C=C(Br)C(Br)=C2Br)C(Br)=C1Br", 
	 "Tm": 479.15, 
	 "num_atms": 23, 
	 "gaussian": { 
		 "optdone": 1, 
		 "sigma_profile": "yes", 
		 "theory": "DFT", 
		 "functional": "B3LYP", 
		 "basiset": "6-31G**", 
		 "properties": { 
			 "R2extent": 25363.1855, 
			 "electric_dipole_moment_norm": 1.08315008655, 
			 "electric_quadrupole_moment_norm": 3.46834439899, 
			 "total_energy": -21104.8786675, 
			 "HOMO_LUMO_gap": 0.18188, 
			 "cosmo_polarized_energy": -6.26, 
			 "cosmo_cavitation_energy": 45.73, 
			 "cosmo_dispersion_energy": -33.56, 
			 "cosmo_repulsion_energy": 2.57, 
			 "cosmo_total_nonelectrostatic_energy": 14.75, 
			 "SMD_solvation_energy": -0.24 
		},
		"coords": [
			{
				"x": -4.8133328525,
				"y": -2.0220211887,
				"z": -3.8201101735,
				"element": "Br" 
			},
			{
				"x": -3.7024842137,
				"y": -1.1190914287,
				"z": -2.5729264989,
				"element": "C" 
			},
			{
				"x": -2.380051004,
				"y": -1.5368339894,
				"z": -2.4761107537,
				"element": "C" 
			},
			{
				"x": -1.506750413,
				"y": -0.9267898817,
				"z": -1.5808819264,
				"element": "C" 
			},
			{
				"x": 0.2559425847,
				"y": -1.6276067446,
				"z": -1.4665216924,
				"element": "Br" 
			},
			{
				"x": -1.9423949849,
				"y": 0.1399240183,
				"z": -0.7864592803,
				"element": "C" 
			},
			{
				"x": -1.1862932843,
				"y": 0.7595287209,
				"z": 0.1745573564,
				"element": "O" 
			},
			{
				"x": 0.1083517791,
				"y": 1.1890490166,
				"z": 0.0339982823,
				"element": "C" 
			},
			{
				"x": 1.0043667268,
				"y": 0.8216691221,
				"z": 1.0476319081,
				"element": "C" 
			},
			{
				"x": 0.4421969171,
				"y": -0.3314644187,
				"z": 2.4425498068,
				"element": "Br" 
			},
			{
				"x": 2.3114243352,
				"y": 1.285446738,
				"z": 1.0413596349,
				"element": "C" 
			},
			{
				"x": 2.7514215512,
				"y": 2.1226533058,
				"z": 0.0186947745,
				"element": "C" 
			},
			{
				"x": 4.5638889827,
				"y": 2.6855786362,
				"z": 0.0763141389,
				"element": "Br" 
			},
			{
				"x": 1.8728798749,
				"y": 2.5264301519,
				"z": -0.9952950041,
				"element": "C" 
			},
			{
				"x": 2.4673723674,
				"y": 3.6855133182,
				"z": -2.3673638781,
				"element": "Br" 
			},
			{
				"x": 0.5415647037,
				"y": 2.0694030067,
				"z": -0.9713228007,
				"element": "C" 
			},
			{
				"x": -0.700900042,
				"y": 2.6654254035,
				"z": -2.2721458332,
				"element": "Br" 
			},
			{
				"x": -3.2879181369,
				"y": 0.5474211164,
				"z": -0.8743487028,
				"element": "C" 
			},
			{
				"x": -3.8497576415,
				"y": 1.9694167441,
				"z": 0.2415775934,
				"element": "Br" 
			},
			{
				"x": -4.1764853794,
				"y": -0.0772071694,
				"z": -1.7618752051,
				"element": "C" 
			},
			{
				"x": -5.9797105449,
				"y": 0.4796998455,
				"z": -1.8736840893,
				"element": "Br" 
			},
			{
				"x": -2.0285162745,
				"y": -2.3542131491,
				"z": -3.0916080645,
				"element": "H" 
			},
			{
				"x": 2.9941849487,
				"y": 0.987268826,
				"z": 1.8257704078,
				"element": "H" 
			}
		],
		 "valence_orbital": [ 
			{
				"type": "occ",
				"energy": -0.27756,
				"method": "rhf"
			},
			{
				"type": "occ",
				"energy": -0.26128,
				"method": "rhf"
			},
			{
				"type": "occ",
				"energy": -0.25927,
				"method": "rhf"
			},
			{
				"type": "occ",
				"energy": -0.25424,
				"method": "rhf"
			},
			{
				"type": "occ",
				"energy": -0.24754,
				"method": "rhf"
			},
			{
				"type": "unocc",
				"energy": -0.06566,
				"method": "rhf"
			},
			{
				"type": "unocc",
				"energy": -0.05986,
				"method": "rhf"
			},
			{
				"type": "unocc",
				"energy": -0.053,
				"method": "rhf"
			},
			{
				"type": "unocc",
				"energy": -0.05013,
				"method": "rhf"
			},
			{
				"type": "unocc",
				"energy": -0.04547,
				"method": "rhf"
			}
		],
		"cosmo_sigma_profile": { 
			"-0.025": 0.0,
			"-0.024": 0.0,
			"-0.023": 0.0,
			"-0.022": 0.0,
			"-0.021": 0.0,
			"-0.02": 0.0,
			"-0.019": 0.0,
			"-0.018": 0.0,
			"-0.017": 0.0,
			"-0.016": 0.0,
			"-0.015": 0.0,
			"-0.014": 0.0,
			"-0.013": 0.0,
			"-0.012": 0.0,
			"-0.011": 0.0,
			"-0.01": 0.18403623867,
			"-0.009": 2.31950371954,
			"-0.008": 2.92470397289,
			"-0.007": 3.44599824914,
			"-0.006": 11.7308496639,
			"-0.005": 13.7575305002,
			"-0.004": 16.7079923295,
			"-0.003": 19.3911175064,
			"-0.002": 37.2514359576,
			"-0.001": 57.432558452,
			"0.0": 44.550223348,
			"0.001": 36.3080425356,
			"0.002": 46.5432524701,
			"0.003": 67.3185767592,
			"0.004": 29.1982864653,
			"0.005": 3.63235359886,
			"0.006": 1.64399228319,
			"0.007": 0.0264896049682,
			"0.008": 0.0,
			"0.009": 0.0,
			"0.01": 0.0,
			"0.011": 0.0,
			"0.012": 0.0,
			"0.013": 0.0,
			"0.014": 0.0,
			"0.015": 0.0,
			"0.016": 0.0,
			"0.017": 0.0,
			"0.018": 0.0,
			"0.019": 0.0,
			"0.02": 0.0,
			"0.021": 0.0,
			"0.022": 0.0,
			"0.023": 0.0,
			"0.024": 0.0,
			"0.025": 0.0
		}
	}
}
