{
	 "smiles": "CC1(C)CC(=O)C2=C(C1)NC1=C(C=CC3=C1C=CC=C3)C2C1=CC=C(O)C=C1", 
	 "Tm": 585.15, 
	 "num_atms": 51, 
	 "gaussian": { 
		 "optdone": 1, 
		 "sigma_profile": "yes", 
		 "theory": "DFT", 
		 "functional": "B3LYP", 
		 "basiset": "6-31G**", 
		 "properties": { 
			 "R2extent": 11459.2935, 
			 "electric_dipole_moment_norm": 5.9920568497, 
			 "electric_quadrupole_moment_norm": 11.2517709459, 
			 "total_energy": -1171.75776842, 
			 "HOMO_LUMO_gap": 0.14531, 
			 "cosmo_polarized_energy": -22.61, 
			 "cosmo_cavitation_energy": 51.2, 
			 "cosmo_dispersion_energy": -35.01, 
			 "cosmo_repulsion_energy": 2.6, 
			 "cosmo_total_nonelectrostatic_energy": 18.79, 
			 "SMD_solvation_energy": 8.11 
		},
		"coords": [
			{
				"x": -0.0638290749,
				"y": 4.8263120673,
				"z": 1.3845288249,
				"element": "C" 
			},
			{
				"x": -0.4406984307,
				"y": 3.4577293026,
				"z": 0.7925438959,
				"element": "C" 
			},
			{
				"x": -1.3931411518,
				"y": 3.6713979299,
				"z": -0.4017426215,
				"element": "C" 
			},
			{
				"x": -1.1148132984,
				"y": 2.585277137,
				"z": 1.8716962497,
				"element": "C" 
			},
			{
				"x": -1.3472816404,
				"y": 1.1308831272,
				"z": 1.4623281545,
				"element": "C" 
			},
			{
				"x": -2.2557554654,
				"y": 0.4814072334,
				"z": 1.980324546,
				"element": "O" 
			},
			{
				"x": -0.423280977,
				"y": 0.5415298635,
				"z": 0.4968989793,
				"element": "C" 
			},
			{
				"x": 0.6211555705,
				"y": 1.2713789605,
				"z": 0.0136625341,
				"element": "C" 
			},
			{
				"x": 0.8432183765,
				"y": 2.7278343878,
				"z": 0.3371240356,
				"element": "C" 
			},
			{
				"x": 1.5792300277,
				"y": 0.6809236793,
				"z": -0.7780040757,
				"element": "N" 
			},
			{
				"x": 1.7082011536,
				"y": -0.7137175578,
				"z": -0.8726896191,
				"element": "C" 
			},
			{
				"x": 0.6647527932,
				"y": -1.5110809201,
				"z": -0.4211297326,
				"element": "C" 
			},
			{
				"x": 0.8170971385,
				"y": -2.9188619987,
				"z": -0.4498896841,
				"element": "C" 
			},
			{
				"x": 1.9584442532,
				"y": -3.5117533879,
				"z": -0.930796966,
				"element": "C" 
			},
			{
				"x": 3.0259991372,
				"y": -2.7171060466,
				"z": -1.427658125,
				"element": "C" 
			},
			{
				"x": 2.9113197204,
				"y": -1.2879572149,
				"z": -1.405279176,
				"element": "C" 
			},
			{
				"x": 3.9937500216,
				"y": -0.5190181737,
				"z": -1.9125499449,
				"element": "C" 
			},
			{
				"x": 5.1288973517,
				"y": -1.1217893901,
				"z": -2.4108641949,
				"element": "C" 
			},
			{
				"x": 5.2421056595,
				"y": -2.530592025,
				"z": -2.4262190102,
				"element": "C" 
			},
			{
				"x": 4.2107562529,
				"y": -3.3048036647,
				"z": -1.9452535052,
				"element": "C" 
			},
			{
				"x": -0.644261296,
				"y": -0.8959437254,
				"z": 0.0505371142,
				"element": "C" 
			},
			{
				"x": -1.7530113693,
				"y": -0.9938559261,
				"z": -1.0102848264,
				"element": "C" 
			},
			{
				"x": -1.4847245833,
				"y": -0.8676115954,
				"z": -2.3779403073,
				"element": "C" 
			},
			{
				"x": -2.5072678297,
				"y": -0.9360049391,
				"z": -3.3251970127,
				"element": "C" 
			},
			{
				"x": -3.8281535568,
				"y": -1.1346046679,
				"z": -2.9133744637,
				"element": "C" 
			},
			{
				"x": -4.8737434063,
				"y": -1.2156782647,
				"z": -3.7931893992,
				"element": "O" 
			},
			{
				"x": -4.1153046833,
				"y": -1.2603876455,
				"z": -1.5501601117,
				"element": "C" 
			},
			{
				"x": -3.0861343419,
				"y": -1.1894966049,
				"z": -0.6160024468,
				"element": "C" 
			},
			{
				"x": 0.608507457,
				"y": 4.7204817158,
				"z": 2.243494078,
				"element": "H" 
			},
			{
				"x": 0.4375428408,
				"y": 5.4548944384,
				"z": 0.6391753408,
				"element": "H" 
			},
			{
				"x": -0.9572532807,
				"y": 5.3616995146,
				"z": 1.72312431,
				"element": "H" 
			},
			{
				"x": -1.679119831,
				"y": 2.7270689485,
				"z": -0.8725864779,
				"element": "H" 
			},
			{
				"x": -2.3095853689,
				"y": 4.1734334557,
				"z": -0.0739887737,
				"element": "H" 
			},
			{
				"x": -0.9229939132,
				"y": 4.302324999,
				"z": -1.1649005086,
				"element": "H" 
			},
			{
				"x": -0.4833385086,
				"y": 2.5682641465,
				"z": 2.7726079752,
				"element": "H" 
			},
			{
				"x": -2.0804800402,
				"y": 3.0003509666,
				"z": 2.1771911433,
				"element": "H" 
			},
			{
				"x": 1.6023561759,
				"y": 2.7978452967,
				"z": 1.1311124212,
				"element": "H" 
			},
			{
				"x": 1.2707331545,
				"y": 3.2325227483,
				"z": -0.5410061595,
				"element": "H" 
			},
			{
				"x": 2.3712943706,
				"y": 1.2464969396,
				"z": -1.037182196,
				"element": "H" 
			},
			{
				"x": -0.0054524596,
				"y": -3.5305195436,
				"z": -0.0892975906,
				"element": "H" 
			},
			{
				"x": 2.0565231488,
				"y": -4.5934473636,
				"z": -0.9463359846,
				"element": "H" 
			},
			{
				"x": 3.943282505,
				"y": 0.5663269952,
				"z": -1.9320943626,
				"element": "H" 
			},
			{
				"x": 5.9398121103,
				"y": -0.5104046317,
				"z": -2.7956203908,
				"element": "H" 
			},
			{
				"x": 6.1406104065,
				"y": -2.9966194178,
				"z": -2.8195881028,
				"element": "H" 
			},
			{
				"x": 4.2861770213,
				"y": -4.3890703716,
				"z": -1.9551689069,
				"element": "H" 
			},
			{
				"x": -1.000340624,
				"y": -1.4543698114,
				"z": 0.9239908923,
				"element": "H" 
			},
			{
				"x": -0.4630505308,
				"y": -0.7278526481,
				"z": -2.7184719327,
				"element": "H" 
			},
			{
				"x": -2.27545483,
				"y": -0.8415799898,
				"z": -4.3847644855,
				"element": "H" 
			},
			{
				"x": -4.5341612027,
				"y": -1.1161318853,
				"z": -4.6918491155,
				"element": "H" 
			},
			{
				"x": -5.1447367015,
				"y": -1.4132198075,
				"z": -1.2423524746,
				"element": "H" 
			},
			{
				"x": -3.3144982508,
				"y": -1.2611046343,
				"z": 0.4424921905,
				"element": "H" 
			}
		],
		 "valence_orbital": [ 
			{
				"type": "occ",
				"energy": -0.2385,
				"method": "rhf"
			},
			{
				"type": "occ",
				"energy": -0.23271,
				"method": "rhf"
			},
			{
				"type": "occ",
				"energy": -0.22568,
				"method": "rhf"
			},
			{
				"type": "occ",
				"energy": -0.204,
				"method": "rhf"
			},
			{
				"type": "occ",
				"energy": -0.19289,
				"method": "rhf"
			},
			{
				"type": "unocc",
				"energy": -0.04758,
				"method": "rhf"
			},
			{
				"type": "unocc",
				"energy": -0.0212,
				"method": "rhf"
			},
			{
				"type": "unocc",
				"energy": -0.01388,
				"method": "rhf"
			},
			{
				"type": "unocc",
				"energy": 0.00959,
				"method": "rhf"
			},
			{
				"type": "unocc",
				"energy": 0.02334,
				"method": "rhf"
			}
		],
		"cosmo_sigma_profile": { 
			"-0.025": 0.0,
			"-0.024": 0.0,
			"-0.023": 0.0,
			"-0.022": 0.0,
			"-0.021": 0.0,
			"-0.02": 0.0,
			"-0.019": 0.0,
			"-0.018": 0.220318365558,
			"-0.017": 1.01176107785,
			"-0.016": 1.1392831153,
			"-0.015": 1.96472214199,
			"-0.014": 2.36428821039,
			"-0.013": 1.37173015421,
			"-0.012": 2.63866895959,
			"-0.011": 2.13800670341,
			"-0.01": 2.66246879924,
			"-0.009": 2.38378871111,
			"-0.008": 3.05462661425,
			"-0.007": 3.57446079348,
			"-0.006": 12.2498847343,
			"-0.005": 23.4213133429,
			"-0.004": 29.0378773614,
			"-0.003": 38.9599856708,
			"-0.002": 31.5871423328,
			"-0.001": 31.5035673912,
			"0.0": 31.8677744379,
			"0.001": 32.4883578996,
			"0.002": 26.1179120416,
			"0.003": 24.0881713458,
			"0.004": 31.4427643394,
			"0.005": 26.2634100126,
			"0.006": 14.2037446443,
			"0.007": 4.09914975755,
			"0.008": 3.62393071896,
			"0.009": 3.24911614072,
			"0.01": 2.28701201251,
			"0.011": 4.05887389527,
			"0.012": 3.00643418539,
			"0.013": 2.57667000312,
			"0.014": 2.58339752052,
			"0.015": 1.66669206563,
			"0.016": 0.118252984344,
			"0.017": 0.0,
			"0.018": 0.0,
			"0.019": 0.0,
			"0.02": 0.0,
			"0.021": 0.0,
			"0.022": 0.0,
			"0.023": 0.0,
			"0.024": 0.0,
			"0.025": 0.0
		}
	}
}
