{
	 "smiles": "NC(=O)NC(=O)CCl", 
	 "Tm": 455.15, 
	 "num_atms": 13, 
	 "gaussian": { 
		 "optdone": 1, 
		 "sigma_profile": "yes", 
		 "theory": "DFT", 
		 "functional": "B3LYP", 
		 "basiset": "6-31G**", 
		 "properties": { 
			 "R2extent": 2331.1117, 
			 "electric_dipole_moment_norm": 3.93928292459, 
			 "electric_quadrupole_moment_norm": 20.7032397791, 
			 "total_energy": -837.507083123, 
			 "HOMO_LUMO_gap": 0.23257, 
			 "cosmo_polarized_energy": -17.35, 
			 "cosmo_cavitation_energy": 19.57, 
			 "cosmo_dispersion_energy": -14.52, 
			 "cosmo_repulsion_energy": 1.25, 
			 "cosmo_total_nonelectrostatic_energy": 6.31, 
			 "SMD_solvation_energy": 4.89 
		},
		"coords": [
			{
				"x": 3.5390219256,
				"y": -2.2154845743,
				"z": 2.1716009988,
				"element": "N" 
			},
			{
				"x": 2.6975058131,
				"y": -1.6353221159,
				"z": 1.249262842,
				"element": "C" 
			},
			{
				"x": 3.0576712745,
				"y": -1.2825476492,
				"z": 0.1406203554,
				"element": "O" 
			},
			{
				"x": 1.399119899,
				"y": -1.4417282123,
				"z": 1.7591245684,
				"element": "N" 
			},
			{
				"x": 0.2569019494,
				"y": -0.9846270171,
				"z": 1.1030538824,
				"element": "C" 
			},
			{
				"x": -0.7165374436,
				"y": -0.654425019,
				"z": 1.7535524687,
				"element": "O" 
			},
			{
				"x": 0.2534956935,
				"y": -0.9556655985,
				"z": -0.4169872307,
				"element": "C" 
			},
			{
				"x": 0.1192224437,
				"y": -2.6421218249,
				"z": -1.0728146168,
				"element": "Cl" 
			},
			{
				"x": 3.1623268014,
				"y": -2.8441802543,
				"z": 2.8661477242,
				"element": "H" 
			},
			{
				"x": 4.4424386285,
				"y": -2.4667866533,
				"z": 1.7970519814,
				"element": "H" 
			},
			{
				"x": 1.2700747091,
				"y": -1.4752241528,
				"z": 2.7635066867,
				"element": "H" 
			},
			{
				"x": 1.1718256049,
				"y": -0.5348096814,
				"z": -0.8196863533,
				"element": "H" 
			},
			{
				"x": -0.634967299,
				"y": -0.4126772471,
				"z": -0.7317333072,
				"element": "H" 
			}
		],
		 "valence_orbital": [ 
			{
				"type": "occ",
				"energy": -0.30429,
				"method": "rhf"
			},
			{
				"type": "occ",
				"energy": -0.30146,
				"method": "rhf"
			},
			{
				"type": "occ",
				"energy": -0.2952,
				"method": "rhf"
			},
			{
				"type": "occ",
				"energy": -0.2838,
				"method": "rhf"
			},
			{
				"type": "occ",
				"energy": -0.2745,
				"method": "rhf"
			},
			{
				"type": "unocc",
				"energy": -0.04193,
				"method": "rhf"
			},
			{
				"type": "unocc",
				"energy": 0.02197,
				"method": "rhf"
			},
			{
				"type": "unocc",
				"energy": 0.04858,
				"method": "rhf"
			},
			{
				"type": "unocc",
				"energy": 0.06686,
				"method": "rhf"
			},
			{
				"type": "unocc",
				"energy": 0.09842,
				"method": "rhf"
			}
		],
		"cosmo_sigma_profile": { 
			"-0.025": 0.0,
			"-0.024": 0.0,
			"-0.023": 0.0,
			"-0.022": 0.0,
			"-0.021": 0.0,
			"-0.02": 0.0,
			"-0.019": 0.0,
			"-0.018": 8.5784079955e-05,
			"-0.017": 1.01197451272,
			"-0.016": 1.88357121734,
			"-0.015": 2.96227471734,
			"-0.014": 3.32190981052,
			"-0.013": 2.74133192651,
			"-0.012": 2.84864390489,
			"-0.011": 3.12349008331,
			"-0.01": 2.51154991595,
			"-0.009": 3.22500973936,
			"-0.008": 3.71516367157,
			"-0.007": 4.89029451739,
			"-0.006": 6.83655636036,
			"-0.005": 6.13346148539,
			"-0.004": 5.23681027878,
			"-0.003": 5.09817353994,
			"-0.002": 6.9908673801,
			"-0.001": 6.26358711833,
			"0.0": 7.59950602762,
			"0.001": 8.34850775039,
			"0.002": 7.61579663044,
			"0.003": 8.00225609164,
			"0.004": 9.19046745183,
			"0.005": 10.6018474817,
			"0.006": 6.40851250215,
			"0.007": 3.89314659085,
			"0.008": 3.95301040428,
			"0.009": 4.1397636583,
			"0.01": 3.30449527094,
			"0.011": 7.10380117776,
			"0.012": 5.7231426286,
			"0.013": 2.40625336542,
			"0.014": 0.113190371253,
			"0.015": 0.0,
			"0.016": 0.0,
			"0.017": 0.0,
			"0.018": 0.0,
			"0.019": 0.0,
			"0.02": 0.0,
			"0.021": 0.0,
			"0.022": 0.0,
			"0.023": 0.0,
			"0.024": 0.0,
			"0.025": 0.0
		}
	}
}
