{
	 "smiles": "ClC1=CC(Cl)=C(NN=C(C#N)C2=NC3=C(S2)C=CC=C3)C=C1Cl", 
	 "Tm": 487.15, 
	 "num_atms": 30, 
	 "gaussian": { 
		 "optdone": 1, 
		 "sigma_profile": "yes", 
		 "theory": "DFT", 
		 "functional": "B3LYP", 
		 "basiset": "6-31G**", 
		 "properties": { 
			 "R2extent": 14506.1246, 
			 "electric_dipole_moment_norm": 6.01391979411, 
			 "electric_quadrupole_moment_norm": 18.7923218214, 
			 "total_energy": -2573.54159903, 
			 "HOMO_LUMO_gap": 0.12699, 
			 "cosmo_polarized_energy": -10.67, 
			 "cosmo_cavitation_energy": 44.14, 
			 "cosmo_dispersion_energy": -31.63, 
			 "cosmo_repulsion_energy": 2.32, 
			 "cosmo_total_nonelectrostatic_energy": 14.84, 
			 "SMD_solvation_energy": 5.86 
		},
		"coords": [
			{
				"x": 0.3000952346,
				"y": -4.0675764471,
				"z": 6.02034039,
				"element": "Cl" 
			},
			{
				"x": -0.1343288764,
				"y": -3.0606120216,
				"z": 4.6666518014,
				"element": "C" 
			},
			{
				"x": 0.700904281,
				"y": -3.0405659709,
				"z": 3.5499236039,
				"element": "C" 
			},
			{
				"x": 0.3857332956,
				"y": -2.2490528167,
				"z": 2.4518871804,
				"element": "C" 
			},
			{
				"x": 1.4645548375,
				"y": -2.2542912155,
				"z": 1.0687310833,
				"element": "Cl" 
			},
			{
				"x": -0.7751573832,
				"y": -1.456202072,
				"z": 2.4434118469,
				"element": "C" 
			},
			{
				"x": -1.0792170102,
				"y": -0.6661141603,
				"z": 1.3335412263,
				"element": "N" 
			},
			{
				"x": -2.1704108044,
				"y": 0.0723197736,
				"z": 1.337598839,
				"element": "N" 
			},
			{
				"x": -2.4658605446,
				"y": 0.8198130095,
				"z": 0.2976914828,
				"element": "C" 
			},
			{
				"x": -3.6762067487,
				"y": 1.5824588714,
				"z": 0.4095108251,
				"element": "C" 
			},
			{
				"x": -4.6494475234,
				"y": 2.2183168594,
				"z": 0.4566294673,
				"element": "N" 
			},
			{
				"x": -1.6868868116,
				"y": 0.9363323751,
				"z": -0.9287458841,
				"element": "C" 
			},
			{
				"x": -0.5694583244,
				"y": 0.2835597163,
				"z": -1.12943415,
				"element": "N" 
			},
			{
				"x": -0.0289939499,
				"y": 0.5686656392,
				"z": -2.3682327646,
				"element": "C" 
			},
			{
				"x": -0.7779271304,
				"y": 1.4862481605,
				"z": -3.1460804568,
				"element": "C" 
			},
			{
				"x": -2.2034008416,
				"y": 1.9883128848,
				"z": -2.2620008211,
				"element": "S" 
			},
			{
				"x": -0.3550754451,
				"y": 1.8705811556,
				"z": -4.4214326743,
				"element": "C" 
			},
			{
				"x": 0.8283183172,
				"y": 1.324713464,
				"z": -4.9099198339,
				"element": "C" 
			},
			{
				"x": 1.5796572894,
				"y": 0.4126049157,
				"z": -4.1456412278,
				"element": "C" 
			},
			{
				"x": 1.162296496,
				"y": 0.0290148664,
				"z": -2.8788190148,
				"element": "C" 
			},
			{
				"x": -1.6088928852,
				"y": -1.4820505922,
				"z": 3.5692607582,
				"element": "C" 
			},
			{
				"x": -1.2963455863,
				"y": -2.2728977323,
				"z": 4.6694657239,
				"element": "C" 
			},
			{
				"x": -2.3765615451,
				"y": -2.2584882268,
				"z": 6.0370448701,
				"element": "Cl" 
			},
			{
				"x": 1.5995614359,
				"y": -3.6448494643,
				"z": 3.5384446959,
				"element": "H" 
			},
			{
				"x": -0.468217153,
				"y": -0.6445817217,
				"z": 0.5043244056,
				"element": "H" 
			},
			{
				"x": -0.9301387806,
				"y": 2.5733343319,
				"z": -5.0152372243,
				"element": "H" 
			},
			{
				"x": 1.176207919,
				"y": 1.6088522996,
				"z": -5.8982663803,
				"element": "H" 
			},
			{
				"x": 2.4985564448,
				"y": 0.0043014406,
				"z": -4.5545664034,
				"element": "H" 
			},
			{
				"x": 1.7309795222,
				"y": -0.6729475758,
				"z": -2.2782851824,
				"element": "H" 
			},
			{
				"x": -2.5043377291,
				"y": -0.8743997463,
				"z": 3.5701038177,
				"element": "H" 
			}
		],
		 "valence_orbital": [ 
			{
				"type": "occ",
				"energy": -0.299,
				"method": "rhf"
			},
			{
				"type": "occ",
				"energy": -0.27229,
				"method": "rhf"
			},
			{
				"type": "occ",
				"energy": -0.26343,
				"method": "rhf"
			},
			{
				"type": "occ",
				"energy": -0.2563,
				"method": "rhf"
			},
			{
				"type": "occ",
				"energy": -0.22806,
				"method": "rhf"
			},
			{
				"type": "unocc",
				"energy": -0.10107,
				"method": "rhf"
			},
			{
				"type": "unocc",
				"energy": -0.04269,
				"method": "rhf"
			},
			{
				"type": "unocc",
				"energy": -0.03613,
				"method": "rhf"
			},
			{
				"type": "unocc",
				"energy": -0.02593,
				"method": "rhf"
			},
			{
				"type": "unocc",
				"energy": -0.01795,
				"method": "rhf"
			}
		],
		"cosmo_sigma_profile": { 
			"-0.025": 0.0,
			"-0.024": 0.0,
			"-0.023": 0.0,
			"-0.022": 0.0,
			"-0.021": 0.0,
			"-0.02": 0.0,
			"-0.019": 0.0,
			"-0.018": 0.0,
			"-0.017": 0.0,
			"-0.016": 0.0,
			"-0.015": 0.0,
			"-0.014": 0.0,
			"-0.013": 0.0,
			"-0.012": 0.0,
			"-0.011": 0.0,
			"-0.01": 0.187216566383,
			"-0.009": 1.21861447936,
			"-0.008": 3.54206196782,
			"-0.007": 8.11113819773,
			"-0.006": 12.6687859333,
			"-0.005": 15.9229437458,
			"-0.004": 20.5863298817,
			"-0.003": 24.9507417259,
			"-0.002": 32.4904270083,
			"-0.001": 40.2685543216,
			"0.0": 47.2865318818,
			"0.001": 36.8836128423,
			"0.002": 37.4290419458,
			"0.003": 40.3510277424,
			"0.004": 22.6706398787,
			"0.005": 4.67672130555,
			"0.006": 2.37567252434,
			"0.007": 2.91254092162,
			"0.008": 2.94478863638,
			"0.009": 3.19496089765,
			"0.01": 2.65964626936,
			"0.011": 2.6129815301,
			"0.012": 1.79707689314,
			"0.013": 0.226509545931,
			"0.014": 0.0,
			"0.015": 0.0,
			"0.016": 0.0,
			"0.017": 0.0,
			"0.018": 0.0,
			"0.019": 0.0,
			"0.02": 0.0,
			"0.021": 0.0,
			"0.022": 0.0,
			"0.023": 0.0,
			"0.024": 0.0,
			"0.025": 0.0
		}
	}
}
