{
	 "smiles": "NC1=C(C=C(I)C=C1I)C(O)=O", 
	 "Tm": 515.15, 
	 "num_atms": 17, 
	 "gaussian": { 
		 "optdone": 1, 
		 "sigma_profile": "no", 
		 "theory": "DFT", 
		 "functional": "B3LYP", 
		 "basiset": "6-31G**", 
		 "properties": { 
			 "R2extent": 2903.1813, 
			 "electric_dipole_moment_norm": 1.53854170564, 
			 "electric_quadrupole_moment_norm": 8.91915738733, 
			 "total_energy": -497.755662269, 
			 "HOMO_LUMO_gap": 0.15336, 
			 "cosmo_polarized_energy": -213633.93, 
			 "cosmo_cavitation_energy": 27.62, 
			 "cosmo_dispersion_energy": -23.57, 
			 "cosmo_repulsion_energy": 1.81, 
			 "cosmo_total_nonelectrostatic_energy": 5.86, 
			 "SMD_solvation_energy": 3.92 
		},
		"coords": [
			{
				"x": 0.3611329036,
				"y": -3.2216795756,
				"z": 1.2861014509,
				"element": "N" 
			},
			{
				"x": -0.1624569466,
				"y": -1.9772213286,
				"z": 1.2322127414,
				"element": "C" 
			},
			{
				"x": -0.6125123438,
				"y": -1.4095236187,
				"z": -0.0037919689,
				"element": "C" 
			},
			{
				"x": -1.1547244962,
				"y": -0.1137744517,
				"z": -0.044263592,
				"element": "C" 
			},
			{
				"x": -1.266063349,
				"y": 0.6429320587,
				"z": 1.1096280387,
				"element": "C" 
			},
			{
				"x": -2.0842633831,
				"y": 2.5945565974,
				"z": 1.0375342876,
				"element": "I" 
			},
			{
				"x": -0.8353009812,
				"y": 0.1173762727,
				"z": 2.3356623831,
				"element": "C" 
			},
			{
				"x": -0.2987930511,
				"y": -1.1593329277,
				"z": 2.3885851561,
				"element": "C" 
			},
			{
				"x": 0.3325484155,
				"y": -1.8896288609,
				"z": 4.2816095383,
				"element": "I" 
			},
			{
				"x": -0.5077908285,
				"y": -2.189354638,
				"z": -1.249982662,
				"element": "C" 
			},
			{
				"x": -0.9692028186,
				"y": -1.5348549146,
				"z": -2.3409842035,
				"element": "O" 
			},
			{
				"x": -0.0557255951,
				"y": -3.3254382114,
				"z": -1.3516537447,
				"element": "O" 
			},
			{
				"x": 0.4268633027,
				"y": -3.7462810407,
				"z": 0.4220770024,
				"element": "H" 
			},
			{
				"x": 0.6716788085,
				"y": -3.6051845186,
				"z": 2.1636566388,
				"element": "H" 
			},
			{
				"x": -1.4826813364,
				"y": 0.277354578,
				"z": -0.9981811099,
				"element": "H" 
			},
			{
				"x": -0.9197193141,
				"y": 0.7043124696,
				"z": 3.2419667672,
				"element": "H" 
			},
			{
				"x": -0.8461889865,
				"y": -2.1455578896,
				"z": -3.0858767234,
				"element": "H" 
			}
		],
		 "valence_orbital": [ 
			{
				"type": "occ",
				"energy": -0.28468,
				"method": "rhf"
			},
			{
				"type": "occ",
				"energy": -0.27705,
				"method": "rhf"
			},
			{
				"type": "occ",
				"energy": -0.27166,
				"method": "rhf"
			},
			{
				"type": "occ",
				"energy": -0.25948,
				"method": "rhf"
			},
			{
				"type": "occ",
				"energy": -0.21659,
				"method": "rhf"
			},
			{
				"type": "unocc",
				"energy": -0.06323,
				"method": "rhf"
			},
			{
				"type": "unocc",
				"energy": -0.05992,
				"method": "rhf"
			},
			{
				"type": "unocc",
				"energy": -0.02998,
				"method": "rhf"
			},
			{
				"type": "unocc",
				"energy": -0.01338,
				"method": "rhf"
			},
			{
				"type": "unocc",
				"energy": 0.03043,
				"method": "rhf"
			}
		],
		"cosmo_sigma_profile": { 
			"0.0": 0.0,
			"0.0": 0.0,
			"0.0": 0.0,
			"0.0": 0.0,
			"0.0": 0.0,
			"0.0": 0.0,
			"0.0": 0.0,
			"0.0": 0.0,
			"0.0": 0.0,
			"0.0": 0.0,
			"0.0": 0.0,
			"0.0": 0.0,
			"0.0": 0.0,
			"0.0": 0.0,
			"0.0": 0.0,
			"0.0": 0.0,
			"0.0": 0.0,
			"0.0": 0.0,
			"0.0": 0.0,
			"0.0": 0.0,
			"0.0": 0.0,
			"0.0": 0.0,
			"0.0": 0.0,
			"0.0": 0.0,
			"0.0": 0.0,
			"0.0": 0.0,
			"0.0": 0.0,
			"0.0": 0.0,
			"0.0": 0.0,
			"0.0": 0.0,
			"0.0": 0.0,
			"0.0": 0.0,
			"0.0": 0.0,
			"0.0": 0.0,
			"0.0": 0.0,
			"0.0": 0.0,
			"0.0": 0.0,
			"0.0": 0.0,
			"0.0": 0.0,
			"0.0": 0.0,
			"0.0": 0.0,
			"0.0": 0.0,
			"0.0": 0.0,
			"0.0": 0.0,
			"0.0": 0.0,
			"0.0": 0.0,
			"0.0": 0.0,
			"0.0": 0.0,
			"0.0": 0.0,
			"0.0": 0.0,
			"0.0": 0.0
		}
	}
}
