{
	 "smiles": "OC1=CC(=CC(O)=C1O)C(=O)C1=C(O)C(O)=C(O)C=C1", 
	 "Tm": 543.15, 
	 "num_atms": 30, 
	 "gaussian": { 
		 "optdone": 1, 
		 "sigma_profile": "yes", 
		 "theory": "DFT", 
		 "functional": "B3LYP", 
		 "basiset": "6-31G**", 
		 "properties": { 
			 "R2extent": 8337.5803, 
			 "electric_dipole_moment_norm": 6.96478058879, 
			 "electric_quadrupole_moment_norm": 30.1565768669, 
			 "total_energy": -1027.95278393, 
			 "HOMO_LUMO_gap": 0.16238, 
			 "cosmo_polarized_energy": -27.53, 
			 "cosmo_cavitation_energy": 35.25, 
			 "cosmo_dispersion_energy": -26.03, 
			 "cosmo_repulsion_energy": 2.0, 
			 "cosmo_total_nonelectrostatic_energy": 11.22, 
			 "SMD_solvation_energy": 8.1 
		},
		"coords": [
			{
				"x": -0.7747518625,
				"y": 2.2627653988,
				"z": 2.2574291463,
				"element": "O" 
			},
			{
				"x": -0.8915687455,
				"y": 1.1245194217,
				"z": 1.518171236,
				"element": "C" 
			},
			{
				"x": 0.1932512244,
				"y": 0.2672514529,
				"z": 1.3664388568,
				"element": "C" 
			},
			{
				"x": 0.0721785973,
				"y": -0.8924677506,
				"z": 0.5871711452,
				"element": "C" 
			},
			{
				"x": -1.1540906234,
				"y": -1.2094988188,
				"z": -0.019211909,
				"element": "C" 
			},
			{
				"x": -2.2382101047,
				"y": -0.3568469602,
				"z": 0.1478586608,
				"element": "C" 
			},
			{
				"x": -3.492403737,
				"y": -0.5612661866,
				"z": -0.3853772557,
				"element": "O" 
			},
			{
				"x": -2.1131410804,
				"y": 0.809572861,
				"z": 0.9075354586,
				"element": "C" 
			},
			{
				"x": -3.1570495923,
				"y": 1.6764041302,
				"z": 1.0855442662,
				"element": "O" 
			},
			{
				"x": 1.2518308129,
				"y": -1.8047007068,
				"z": 0.5161297092,
				"element": "C" 
			},
			{
				"x": 2.1437181103,
				"y": -1.7271720951,
				"z": 1.3557747759,
				"element": "O" 
			},
			{
				"x": 1.3407800964,
				"y": -2.8851385863,
				"z": -0.5278821891,
				"element": "C" 
			},
			{
				"x": 1.0637999865,
				"y": -2.7065790951,
				"z": -1.8962951625,
				"element": "C" 
			},
			{
				"x": 0.6534504879,
				"y": -1.5063720367,
				"z": -2.3892139959,
				"element": "O" 
			},
			{
				"x": 1.2490711965,
				"y": -3.7686937918,
				"z": -2.7904306897,
				"element": "C" 
			},
			{
				"x": 0.9705206598,
				"y": -3.525371052,
				"z": -4.1144479636,
				"element": "O" 
			},
			{
				"x": 1.7168487097,
				"y": -5.003214606,
				"z": -2.3441416799,
				"element": "C" 
			},
			{
				"x": 1.8561600429,
				"y": -5.9587948001,
				"z": -3.320681349,
				"element": "O" 
			},
			{
				"x": 2.0172008972,
				"y": -5.1900101959,
				"z": -0.9926670156,
				"element": "C" 
			},
			{
				"x": 1.8414565271,
				"y": -4.1298917995,
				"z": -0.1104069045,
				"element": "C" 
			},
			{
				"x": -1.6321452064,
				"y": 2.7134971548,
				"z": 2.2424156908,
				"element": "H" 
			},
			{
				"x": 1.135172604,
				"y": 0.4920288179,
				"z": 1.8518556155,
				"element": "H" 
			},
			{
				"x": -1.2614155306,
				"y": -2.1154186195,
				"z": -0.6066595558,
				"element": "H" 
			},
			{
				"x": -3.4815162157,
				"y": -1.3476813944,
				"z": -0.9442621047,
				"element": "H" 
			},
			{
				"x": -3.9186535421,
				"y": 1.3272373404,
				"z": 0.5994146106,
				"element": "H" 
			},
			{
				"x": 0.5998106805,
				"y": -1.5938975233,
				"z": -3.3537476586,
				"element": "H" 
			},
			{
				"x": 1.2299045529,
				"y": -4.3075449406,
				"z": -4.6225225714,
				"element": "H" 
			},
			{
				"x": 2.261426329,
				"y": -6.7506270818,
				"z": -2.9459402572,
				"element": "H" 
			},
			{
				"x": 2.3888530148,
				"y": -6.1497490724,
				"z": -0.643065488,
				"element": "H" 
			},
			{
				"x": 2.0946117103,
				"y": -4.2446394641,
				"z": 0.9375145785,
				"element": "H" 
			}
		],
		 "valence_orbital": [ 
			{
				"type": "occ",
				"energy": -0.24272,
				"method": "rhf"
			},
			{
				"type": "occ",
				"energy": -0.22629,
				"method": "rhf"
			},
			{
				"type": "occ",
				"energy": -0.21695,
				"method": "rhf"
			},
			{
				"type": "occ",
				"energy": -0.21597,
				"method": "rhf"
			},
			{
				"type": "occ",
				"energy": -0.20858,
				"method": "rhf"
			},
			{
				"type": "unocc",
				"energy": -0.0462,
				"method": "rhf"
			},
			{
				"type": "unocc",
				"energy": 0.00723,
				"method": "rhf"
			},
			{
				"type": "unocc",
				"energy": 0.00924,
				"method": "rhf"
			},
			{
				"type": "unocc",
				"energy": 0.02137,
				"method": "rhf"
			},
			{
				"type": "unocc",
				"energy": 0.03873,
				"method": "rhf"
			}
		],
		"cosmo_sigma_profile": { 
			"-0.025": 0.0,
			"-0.024": 0.0,
			"-0.023": 0.0,
			"-0.022": 0.0,
			"-0.021": 0.0,
			"-0.02": 0.0,
			"-0.019": 0.600500538818,
			"-0.018": 2.51404571089,
			"-0.017": 1.403100216,
			"-0.016": 3.06614618133,
			"-0.015": 3.77280669306,
			"-0.014": 4.15744794272,
			"-0.013": 4.79627305667,
			"-0.012": 3.32802196874,
			"-0.011": 4.65512774645,
			"-0.01": 4.90043253649,
			"-0.009": 4.58725803545,
			"-0.008": 4.21653380251,
			"-0.007": 5.64025021153,
			"-0.006": 7.46878199356,
			"-0.005": 9.94237433083,
			"-0.004": 9.66181191875,
			"-0.003": 9.87988611231,
			"-0.002": 10.1091596132,
			"-0.001": 12.0109563228,
			"0.0": 14.7166112389,
			"0.001": 21.344862501,
			"0.002": 26.0247581078,
			"0.003": 22.372357361,
			"0.004": 22.3587755974,
			"0.005": 15.8251551581,
			"0.006": 12.7498040528,
			"0.007": 8.82890002477,
			"0.008": 6.62449519855,
			"0.009": 5.47969005478,
			"0.01": 4.87253865529,
			"0.011": 5.66881240217,
			"0.012": 4.20254134106,
			"0.013": 2.90839388099,
			"0.014": 0.147101050283,
			"0.015": 0.0,
			"0.016": 0.0,
			"0.017": 0.0,
			"0.018": 0.0,
			"0.019": 0.0,
			"0.02": 0.0,
			"0.021": 0.0,
			"0.022": 0.0,
			"0.023": 0.0,
			"0.024": 0.0,
			"0.025": 0.0
		}
	}
}
