{
	 "smiles": "SC1=NN=NN1CC1CCCO1", 
	 "Tm": 302.15, 
	 "num_atms": 22, 
	 "gaussian": { 
		 "optdone": 1, 
		 "sigma_profile": "yes", 
		 "theory": "DFT", 
		 "functional": "B3LYP", 
		 "basiset": "6-31G**", 
		 "properties": { 
			 "R2extent": 2949.2685, 
			 "electric_dipole_moment_norm": 6.45182277267, 
			 "electric_quadrupole_moment_norm": 15.9855051878, 
			 "total_energy": -927.007415949, 
			 "HOMO_LUMO_gap": 0.24409, 
			 "cosmo_polarized_energy": -17.53, 
			 "cosmo_cavitation_energy": 27.03, 
			 "cosmo_dispersion_energy": -20.07, 
			 "cosmo_repulsion_energy": 1.57, 
			 "cosmo_total_nonelectrostatic_energy": 8.53, 
			 "SMD_solvation_energy": 1.85 
		},
		"coords": [
			{
				"x": -1.9214444806,
				"y": -0.1748156668,
				"z": -2.7508647414,
				"element": "S" 
			},
			{
				"x": -0.1966261213,
				"y": -0.4986929396,
				"z": -2.6167814095,
				"element": "C" 
			},
			{
				"x": 0.6381267618,
				"y": -0.7446372548,
				"z": -3.6110802869,
				"element": "N" 
			},
			{
				"x": 1.848352434,
				"y": -0.9543723882,
				"z": -3.0224331601,
				"element": "N" 
			},
			{
				"x": 1.7767147524,
				"y": -0.8418592751,
				"z": -1.7409017319,
				"element": "N" 
			},
			{
				"x": 0.4781298134,
				"y": -0.5556563222,
				"z": -1.4467911417,
				"element": "N" 
			},
			{
				"x": 0.0413008716,
				"y": -0.3449587495,
				"z": -0.0738185951,
				"element": "C" 
			},
			{
				"x": -0.1505470323,
				"y": 1.1387374417,
				"z": 0.2807957418,
				"element": "C" 
			},
			{
				"x": -0.4343857315,
				"y": 1.3384225111,
				"z": 1.7884661193,
				"element": "C" 
			},
			{
				"x": 0.9369468784,
				"y": 1.7673225743,
				"z": 2.3391720174,
				"element": "C" 
			},
			{
				"x": 1.5125890083,
				"y": 2.5391460728,
				"z": 1.1512483566,
				"element": "C" 
			},
			{
				"x": 1.0550198941,
				"y": 1.8418583908,
				"z": -0.011353615,
				"element": "O" 
			},
			{
				"x": -1.9403502763,
				"y": -0.4182280497,
				"z": -4.0750633597,
				"element": "H" 
			},
			{
				"x": 0.8161464057,
				"y": -0.7874274733,
				"z": 0.5555363712,
				"element": "H" 
			},
			{
				"x": -0.8945625385,
				"y": -0.8938022639,
				"z": 0.0808408047,
				"element": "H" 
			},
			{
				"x": -0.9622943578,
				"y": 1.5504031809,
				"z": -0.3351868668,
				"element": "H" 
			},
			{
				"x": -0.8308995444,
				"y": 0.4382367702,
				"z": 2.2681437037,
				"element": "H" 
			},
			{
				"x": -1.1700317655,
				"y": 2.1365419435,
				"z": 1.9276632651,
				"element": "H" 
			},
			{
				"x": 1.5586546047,
				"y": 0.8932344565,
				"z": 2.5607990245,
				"element": "H" 
			},
			{
				"x": 0.8632765587,
				"y": 2.3698846405,
				"z": 3.248421533,
				"element": "H" 
			},
			{
				"x": 2.605488333,
				"y": 2.5599693603,
				"z": 1.1209051647,
				"element": "H" 
			},
			{
				"x": 1.1456955319,
				"y": 3.5773930404,
				"z": 1.1405828063,
				"element": "H" 
			}
		],
		 "valence_orbital": [ 
			{
				"type": "occ",
				"energy": -0.30658,
				"method": "rhf"
			},
			{
				"type": "occ",
				"energy": -0.29031,
				"method": "rhf"
			},
			{
				"type": "occ",
				"energy": -0.27977,
				"method": "rhf"
			},
			{
				"type": "occ",
				"energy": -0.26421,
				"method": "rhf"
			},
			{
				"type": "occ",
				"energy": -0.25343,
				"method": "rhf"
			},
			{
				"type": "unocc",
				"energy": -0.00934,
				"method": "rhf"
			},
			{
				"type": "unocc",
				"energy": -0.00606,
				"method": "rhf"
			},
			{
				"type": "unocc",
				"energy": 0.0267,
				"method": "rhf"
			},
			{
				"type": "unocc",
				"energy": 0.0467,
				"method": "rhf"
			},
			{
				"type": "unocc",
				"energy": 0.07087,
				"method": "rhf"
			}
		],
		"cosmo_sigma_profile": { 
			"-0.025": 0.0,
			"-0.024": 0.0,
			"-0.023": 0.0,
			"-0.022": 0.0,
			"-0.021": 0.0,
			"-0.02": 0.0,
			"-0.019": 0.0,
			"-0.018": 0.0,
			"-0.017": 0.0,
			"-0.016": 0.0,
			"-0.015": 0.0,
			"-0.014": 0.0944319872102,
			"-0.013": 1.34352668349,
			"-0.012": 1.75177161273,
			"-0.011": 0.856439285383,
			"-0.01": 1.49530384477,
			"-0.009": 1.53538074231,
			"-0.008": 3.89893783368,
			"-0.007": 8.14065773195,
			"-0.006": 9.47542774113,
			"-0.005": 13.5651432117,
			"-0.004": 22.8172731916,
			"-0.003": 24.3401566542,
			"-0.002": 22.2028242137,
			"-0.001": 16.7748999838,
			"0.0": 12.0927739232,
			"0.001": 7.68987264196,
			"0.002": 6.86642032327,
			"0.003": 4.90946157444,
			"0.004": 5.4764920844,
			"0.005": 6.1908407683,
			"0.006": 4.34778654458,
			"0.007": 5.6865267582,
			"0.008": 5.40775231759,
			"0.009": 6.54262729737,
			"0.01": 7.43030166118,
			"0.011": 5.53157563511,
			"0.012": 4.60836923608,
			"0.013": 3.07493836113,
			"0.014": 1.56415115669,
			"0.015": 0.238824162795,
			"0.016": 0.0,
			"0.017": 0.0,
			"0.018": 0.0,
			"0.019": 0.0,
			"0.02": 0.0,
			"0.021": 0.0,
			"0.022": 0.0,
			"0.023": 0.0,
			"0.024": 0.0,
			"0.025": 0.0
		}
	}
}
