{
	 "smiles": "CC(C)(C)N1C=C(C(O)=O)C(=N1)C1=C(Cl)C=CC=C1", 
	 "Tm": 438.15, 
	 "num_atms": 34, 
	 "gaussian": { 
		 "optdone": 1, 
		 "sigma_profile": "yes", 
		 "theory": "DFT", 
		 "functional": "B3LYP", 
		 "basiset": "6-31G**", 
		 "properties": { 
			 "R2extent": 6597.0222, 
			 "electric_dipole_moment_norm": 6.09105558504, 
			 "electric_quadrupole_moment_norm": 25.153742574, 
			 "total_energy": -1262.67862124, 
			 "HOMO_LUMO_gap": 0.21089, 
			 "cosmo_polarized_energy": -21.19, 
			 "cosmo_cavitation_energy": 39.09, 
			 "cosmo_dispersion_energy": -26.5, 
			 "cosmo_repulsion_energy": 2.06, 
			 "cosmo_total_nonelectrostatic_energy": 14.64, 
			 "SMD_solvation_energy": 6.97 
		},
		"coords": [
			{
				"x": 3.3049612373,
				"y": -1.0063963638,
				"z": 0.2990513693,
				"element": "C" 
			},
			{
				"x": 2.4020435365,
				"y": -0.1695083284,
				"z": 1.2222963116,
				"element": "C" 
			},
			{
				"x": 2.731080807,
				"y": -0.4547473414,
				"z": 2.6927689172,
				"element": "C" 
			},
			{
				"x": 2.5573098436,
				"y": 1.3312535416,
				"z": 0.9208339042,
				"element": "C" 
			},
			{
				"x": 0.9884200233,
				"y": -0.5495391152,
				"z": 0.9487469958,
				"element": "N" 
			},
			{
				"x": 0.0569418356,
				"y": -1.0799203504,
				"z": 1.7750899357,
				"element": "C" 
			},
			{
				"x": -1.1069653573,
				"y": -1.2453051789,
				"z": 1.0335369383,
				"element": "C" 
			},
			{
				"x": -2.4326889536,
				"y": -1.667297168,
				"z": 1.5332796937,
				"element": "C" 
			},
			{
				"x": -2.4117800475,
				"y": -2.4915804664,
				"z": 2.6246212441,
				"element": "O" 
			},
			{
				"x": -3.4858281788,
				"y": -1.3071281081,
				"z": 1.0666987461,
				"element": "O" 
			},
			{
				"x": -0.766746088,
				"y": -0.7747155327,
				"z": -0.2672918837,
				"element": "C" 
			},
			{
				"x": 0.5013062133,
				"y": -0.3631182951,
				"z": -0.3006398254,
				"element": "N" 
			},
			{
				"x": -1.599214567,
				"y": -0.6637290207,
				"z": -1.4851318949,
				"element": "C" 
			},
			{
				"x": -2.2770423632,
				"y": -1.74440094,
				"z": -2.0718605696,
				"element": "C" 
			},
			{
				"x": -2.1368279119,
				"y": -3.3687227164,
				"z": -1.4084178225,
				"element": "Cl" 
			},
			{
				"x": -3.0451348372,
				"y": -1.5832992152,
				"z": -3.2242009173,
				"element": "C" 
			},
			{
				"x": -3.1389637669,
				"y": -0.3279376079,
				"z": -3.8228328157,
				"element": "C" 
			},
			{
				"x": -2.4571153728,
				"y": 0.7582076069,
				"z": -3.2738187334,
				"element": "C" 
			},
			{
				"x": -1.6979190351,
				"y": 0.5849781512,
				"z": -2.1197758244,
				"element": "C" 
			},
			{
				"x": 3.1983993954,
				"y": -2.0740833859,
				"z": 0.5147449576,
				"element": "H" 
			},
			{
				"x": 4.3522015447,
				"y": -0.7266515823,
				"z": 0.4486461238,
				"element": "H" 
			},
			{
				"x": 3.0400420874,
				"y": -0.8379104566,
				"z": -0.7464787509,
				"element": "H" 
			},
			{
				"x": 3.7703176668,
				"y": -0.1737722059,
				"z": 2.881665034,
				"element": "H" 
			},
			{
				"x": 2.6267337886,
				"y": -1.5171443232,
				"z": 2.9347332393,
				"element": "H" 
			},
			{
				"x": 2.1015609738,
				"y": 0.1286647672,
				"z": 3.3719894741,
				"element": "H" 
			},
			{
				"x": 2.2832234443,
				"y": 1.5412546355,
				"z": -0.114773532,
				"element": "H" 
			},
			{
				"x": 3.5955382017,
				"y": 1.6376218167,
				"z": 1.0802971977,
				"element": "H" 
			},
			{
				"x": 1.9163496379,
				"y": 1.9280622464,
				"z": 1.5772358071,
				"element": "H" 
			},
			{
				"x": 0.251324362,
				"y": -1.2563366871,
				"z": 2.8217145571,
				"element": "H" 
			},
			{
				"x": -1.5213435505,
				"y": -2.8518476049,
				"z": 2.7381329226,
				"element": "H" 
			},
			{
				"x": -3.5555027589,
				"y": -2.4412555554,
				"z": -3.6471970769,
				"element": "H" 
			},
			{
				"x": -3.7405521325,
				"y": -0.2056872043,
				"z": -4.7185394266,
				"element": "H" 
			},
			{
				"x": -2.5198636663,
				"y": 1.7374457801,
				"z": -3.7383192616,
				"element": "H" 
			},
			{
				"x": -1.1679660114,
				"y": 1.4234462083,
				"z": -1.6803050342,
				"element": "H" 
			}
		],
		 "valence_orbital": [ 
			{
				"type": "occ",
				"energy": -0.2808,
				"method": "rhf"
			},
			{
				"type": "occ",
				"energy": -0.26824,
				"method": "rhf"
			},
			{
				"type": "occ",
				"energy": -0.25576,
				"method": "rhf"
			},
			{
				"type": "occ",
				"energy": -0.24591,
				"method": "rhf"
			},
			{
				"type": "occ",
				"energy": -0.23529,
				"method": "rhf"
			},
			{
				"type": "unocc",
				"energy": -0.0244,
				"method": "rhf"
			},
			{
				"type": "unocc",
				"energy": -0.01596,
				"method": "rhf"
			},
			{
				"type": "unocc",
				"energy": -0.00582,
				"method": "rhf"
			},
			{
				"type": "unocc",
				"energy": 0.01959,
				"method": "rhf"
			},
			{
				"type": "unocc",
				"energy": 0.03811,
				"method": "rhf"
			}
		],
		"cosmo_sigma_profile": { 
			"-0.025": 0.0,
			"-0.024": 0.0,
			"-0.023": 0.0,
			"-0.022": 0.0,
			"-0.021": 0.0,
			"-0.02": 0.0,
			"-0.019": 0.0319501468531,
			"-0.018": 0.679686025422,
			"-0.017": 1.33915548582,
			"-0.016": 0.841874197378,
			"-0.015": 1.2843363775,
			"-0.014": 1.31603608132,
			"-0.013": 0.872909051245,
			"-0.012": 0.946342783207,
			"-0.011": 1.8696791142,
			"-0.01": 1.4940061703,
			"-0.009": 1.75704790721,
			"-0.008": 2.4487489755,
			"-0.007": 5.9030078813,
			"-0.006": 11.3422744752,
			"-0.005": 19.4926842474,
			"-0.004": 25.3346069371,
			"-0.003": 22.3166890226,
			"-0.002": 24.1300912644,
			"-0.001": 26.1356996404,
			"0.0": 30.6832075027,
			"0.001": 21.6367500251,
			"0.002": 19.1625795517,
			"0.003": 17.9802376604,
			"0.004": 22.6030569085,
			"0.005": 10.3209626532,
			"0.006": 4.61253799779,
			"0.007": 5.43510295546,
			"0.008": 4.39129956918,
			"0.009": 5.23098853646,
			"0.01": 5.34962074959,
			"0.011": 6.06707729536,
			"0.012": 6.2054283583,
			"0.013": 2.15111561242,
			"0.014": 0.272322063481,
			"0.015": 0.0,
			"0.016": 0.0,
			"0.017": 0.0,
			"0.018": 0.0,
			"0.019": 0.0,
			"0.02": 0.0,
			"0.021": 0.0,
			"0.022": 0.0,
			"0.023": 0.0,
			"0.024": 0.0,
			"0.025": 0.0
		}
	}
}
