{
	 "smiles": "CC(=O)N(CCC1=CC=CC=C1)CC(O)=O", 
	 "Tm": 423.15, 
	 "num_atms": 31, 
	 "gaussian": { 
		 "optdone": 1, 
		 "sigma_profile": "yes", 
		 "theory": "DFT", 
		 "functional": "B3LYP", 
		 "basiset": "6-31G**", 
		 "properties": { 
			 "R2extent": 4367.8805, 
			 "electric_dipole_moment_norm": 6.42920231833, 
			 "electric_quadrupole_moment_norm": 22.1225850553, 
			 "total_energy": -746.774951818, 
			 "HOMO_LUMO_gap": 0.2277, 
			 "cosmo_polarized_energy": -16.86, 
			 "cosmo_cavitation_energy": 33.8, 
			 "cosmo_dispersion_energy": -23.05, 
			 "cosmo_repulsion_energy": 1.8, 
			 "cosmo_total_nonelectrostatic_energy": 12.55, 
			 "SMD_solvation_energy": 7.39 
		},
		"coords": [
			{
				"x": 0.770002425,
				"y": -0.1151382681,
				"z": -1.8949981556,
				"element": "C" 
			},
			{
				"x": 1.5930392721,
				"y": -0.5572909139,
				"z": -0.7025858791,
				"element": "C" 
			},
			{
				"x": 2.8107165255,
				"y": -0.314467704,
				"z": -0.658718967,
				"element": "O" 
			},
			{
				"x": 0.987450479,
				"y": -1.2339359042,
				"z": 0.3164748549,
				"element": "N" 
			},
			{
				"x": -0.3830074721,
				"y": -1.7553249049,
				"z": 0.2893196889,
				"element": "C" 
			},
			{
				"x": -1.3683843513,
				"y": -1.0108183493,
				"z": 1.2199000924,
				"element": "C" 
			},
			{
				"x": -1.6385534693,
				"y": 0.4227652278,
				"z": 0.8195024613,
				"element": "C" 
			},
			{
				"x": -0.8621794024,
				"y": 1.4733490296,
				"z": 1.3275099936,
				"element": "C" 
			},
			{
				"x": -1.0888838746,
				"y": 2.7909799058,
				"z": 0.9254380128,
				"element": "C" 
			},
			{
				"x": -2.1005192937,
				"y": 3.0798055945,
				"z": 0.0082500979,
				"element": "C" 
			},
			{
				"x": -2.8864367648,
				"y": 2.0436071313,
				"z": -0.5008411456,
				"element": "C" 
			},
			{
				"x": -2.6562936941,
				"y": 0.7278146887,
				"z": -0.0966668655,
				"element": "C" 
			},
			{
				"x": 1.8049388113,
				"y": -1.5716989571,
				"z": 1.491252484,
				"element": "C" 
			},
			{
				"x": 2.7133944506,
				"y": -2.7965008286,
				"z": 1.2720568778,
				"element": "C" 
			},
			{
				"x": 3.6819594298,
				"y": -2.6265983696,
				"z": 0.3644021782,
				"element": "O" 
			},
			{
				"x": 2.5593596309,
				"y": -3.8301416793,
				"z": 1.8814335467,
				"element": "O" 
			},
			{
				"x": -0.1636928432,
				"y": 0.3719150091,
				"z": -1.6072899283,
				"element": "H" 
			},
			{
				"x": 1.3848992684,
				"y": 0.5747888631,
				"z": -2.4723225646,
				"element": "H" 
			},
			{
				"x": 0.5294510936,
				"y": -0.9738228453,
				"z": -2.5323795867,
				"element": "H" 
			},
			{
				"x": -0.3419144283,
				"y": -2.8111379468,
				"z": 0.5819788025,
				"element": "H" 
			},
			{
				"x": -0.7510740621,
				"y": -1.7251941196,
				"z": -0.7370384532,
				"element": "H" 
			},
			{
				"x": -2.3035471544,
				"y": -1.5832363213,
				"z": 1.2155386027,
				"element": "H" 
			},
			{
				"x": -0.9904448362,
				"y": -1.0485742412,
				"z": 2.2478640524,
				"element": "H" 
			},
			{
				"x": -0.0780156322,
				"y": 1.2592364931,
				"z": 2.0491820092,
				"element": "H" 
			},
			{
				"x": -0.4772513179,
				"y": 3.5913075067,
				"z": 1.3319423698,
				"element": "H" 
			},
			{
				"x": -2.279945888,
				"y": 4.104769331,
				"z": -0.3026721818,
				"element": "H" 
			},
			{
				"x": -3.6829500723,
				"y": 2.2600563206,
				"z": -1.2071202723,
				"element": "H" 
			},
			{
				"x": -3.2786568717,
				"y": -0.0726612078,
				"z": -0.4909248321,
				"element": "H" 
			},
			{
				"x": 1.1441430313,
				"y": -1.8026973534,
				"z": 2.3256854777,
				"element": "H" 
			},
			{
				"x": 2.4200534576,
				"y": -0.7032015597,
				"z": 1.7469522529,
				"element": "H" 
			},
			{
				"x": 3.5979435534,
				"y": -1.7222536272,
				"z": -0.030225024,
				"element": "H" 
			}
		],
		 "valence_orbital": [ 
			{
				"type": "occ",
				"energy": -0.28615,
				"method": "rhf"
			},
			{
				"type": "occ",
				"energy": -0.27399,
				"method": "rhf"
			},
			{
				"type": "occ",
				"energy": -0.26394,
				"method": "rhf"
			},
			{
				"type": "occ",
				"energy": -0.25798,
				"method": "rhf"
			},
			{
				"type": "occ",
				"energy": -0.24577,
				"method": "rhf"
			},
			{
				"type": "unocc",
				"energy": -0.01807,
				"method": "rhf"
			},
			{
				"type": "unocc",
				"energy": -0.01586,
				"method": "rhf"
			},
			{
				"type": "unocc",
				"energy": -0.00227,
				"method": "rhf"
			},
			{
				"type": "unocc",
				"energy": 0.01483,
				"method": "rhf"
			},
			{
				"type": "unocc",
				"energy": 0.07015,
				"method": "rhf"
			}
		],
		"cosmo_sigma_profile": { 
			"-0.025": 0.0,
			"-0.024": 0.0,
			"-0.023": 0.0,
			"-0.022": 0.0,
			"-0.021": 0.0,
			"-0.02": 0.0,
			"-0.019": 0.0,
			"-0.018": 0.0,
			"-0.017": 0.0,
			"-0.016": 0.0,
			"-0.015": 0.0,
			"-0.014": 0.0,
			"-0.013": 0.0,
			"-0.012": 0.0,
			"-0.011": 0.0,
			"-0.01": 0.0,
			"-0.009": 0.00973419010842,
			"-0.008": 3.03367437429,
			"-0.007": 8.58876787821,
			"-0.006": 14.8215756843,
			"-0.005": 32.3368177056,
			"-0.004": 31.548529711,
			"-0.003": 24.7671362644,
			"-0.002": 19.4393275082,
			"-0.001": 17.9577911422,
			"0.0": 15.599919153,
			"0.001": 13.2378458227,
			"0.002": 10.2639907253,
			"0.003": 11.371429109,
			"0.004": 10.8454261471,
			"0.005": 9.51881408346,
			"0.006": 6.41646465872,
			"0.007": 4.10346630731,
			"0.008": 3.50325144245,
			"0.009": 4.80320531099,
			"0.01": 4.73243061138,
			"0.011": 6.77669926672,
			"0.012": 8.32871766626,
			"0.013": 4.47227435486,
			"0.014": 0.851231470472,
			"0.015": 0.0,
			"0.016": 0.0,
			"0.017": 0.0,
			"0.018": 0.0,
			"0.019": 0.0,
			"0.02": 0.0,
			"0.021": 0.0,
			"0.022": 0.0,
			"0.023": 0.0,
			"0.024": 0.0,
			"0.025": 0.0
		}
	}
}
