{
	 "smiles": "NC(=N)NN=CC1=CC=CC=C1", 
	 "Tm": 453.15, 
	 "num_atms": 22, 
	 "gaussian": { 
		 "optdone": 1, 
		 "sigma_profile": "yes", 
		 "theory": "DFT", 
		 "functional": "B3LYP", 
		 "basiset": "6-31G**", 
		 "properties": { 
			 "R2extent": 3387.9233, 
			 "electric_dipole_moment_norm": 2.19272970062, 
			 "electric_quadrupole_moment_norm": 18.552748305, 
			 "total_energy": -529.854991731, 
			 "HOMO_LUMO_gap": 0.15812, 
			 "cosmo_polarized_energy": -14.84, 
			 "cosmo_cavitation_energy": 26.96, 
			 "cosmo_dispersion_energy": -19.79, 
			 "cosmo_repulsion_energy": 1.6, 
			 "cosmo_total_nonelectrostatic_energy": 8.76, 
			 "SMD_solvation_energy": 3.7 
		},
		"coords": [
			{
				"x": -3.0660113009,
				"y": 1.7369729049,
				"z": 2.6228734649,
				"element": "N" 
			},
			{
				"x": -1.8243967175,
				"y": 1.8854612716,
				"z": 3.2099804211,
				"element": "C" 
			},
			{
				"x": -1.5190160563,
				"y": 2.3470048667,
				"z": 4.3681566355,
				"element": "N" 
			},
			{
				"x": -0.7597511096,
				"y": 1.5290918043,
				"z": 2.381246826,
				"element": "N" 
			},
			{
				"x": -0.9445640931,
				"y": 0.8849828935,
				"z": 1.2165399985,
				"element": "N" 
			},
			{
				"x": 0.0909783407,
				"y": 0.5282459337,
				"z": 0.5376717289,
				"element": "C" 
			},
			{
				"x": -0.010306856,
				"y": -0.1695561323,
				"z": -0.7436162791,
				"element": "C" 
			},
			{
				"x": -1.2478650406,
				"y": -0.4829738447,
				"z": -1.3365839205,
				"element": "C" 
			},
			{
				"x": -1.2962272423,
				"y": -1.1483991363,
				"z": -2.5565646835,
				"element": "C" 
			},
			{
				"x": -0.1152654931,
				"y": -1.5154207657,
				"z": -3.2118089479,
				"element": "C" 
			},
			{
				"x": 1.1172923102,
				"y": -1.2091530225,
				"z": -2.6337660382,
				"element": "C" 
			},
			{
				"x": 1.1690239193,
				"y": -0.5419543454,
				"z": -1.4106956728,
				"element": "C" 
			},
			{
				"x": -3.8362086023,
				"y": 1.6216649083,
				"z": 3.263154511,
				"element": "H" 
			},
			{
				"x": -3.0840030119,
				"y": 1.1411310409,
				"z": 1.8054952059,
				"element": "H" 
			},
			{
				"x": -2.352674614,
				"y": 2.6293892883,
				"z": 4.8812901361,
				"element": "H" 
			},
			{
				"x": 0.1653289266,
				"y": 1.6794902329,
				"z": 2.7748459765,
				"element": "H" 
			},
			{
				"x": 1.1028243978,
				"y": 0.7398818172,
				"z": 0.9061393981,
				"element": "H" 
			},
			{
				"x": -2.1623766438,
				"y": -0.196007526,
				"z": -0.8286399817,
				"element": "H" 
			},
			{
				"x": -2.2586612759,
				"y": -1.3830857442,
				"z": -3.0027014498,
				"element": "H" 
			},
			{
				"x": -0.1583553592,
				"y": -2.0347638936,
				"z": -4.1646570536,
				"element": "H" 
			},
			{
				"x": 2.0396073356,
				"y": -1.4891340704,
				"z": -3.1346130601,
				"element": "H" 
			},
			{
				"x": 2.1316281864,
				"y": -0.3049684813,
				"z": -0.9638472153,
				"element": "H" 
			}
		],
		 "valence_orbital": [ 
			{
				"type": "occ",
				"energy": -0.27934,
				"method": "rhf"
			},
			{
				"type": "occ",
				"energy": -0.26303,
				"method": "rhf"
			},
			{
				"type": "occ",
				"energy": -0.25402,
				"method": "rhf"
			},
			{
				"type": "occ",
				"energy": -0.24192,
				"method": "rhf"
			},
			{
				"type": "occ",
				"energy": -0.20206,
				"method": "rhf"
			},
			{
				"type": "unocc",
				"energy": -0.04394,
				"method": "rhf"
			},
			{
				"type": "unocc",
				"energy": -0.00295,
				"method": "rhf"
			},
			{
				"type": "unocc",
				"energy": 0.0448,
				"method": "rhf"
			},
			{
				"type": "unocc",
				"energy": 0.07059,
				"method": "rhf"
			},
			{
				"type": "unocc",
				"energy": 0.08748,
				"method": "rhf"
			}
		],
		"cosmo_sigma_profile": { 
			"-0.025": 0.0,
			"-0.024": 0.0,
			"-0.023": 0.0,
			"-0.022": 0.0,
			"-0.021": 0.0,
			"-0.02": 0.0,
			"-0.019": 0.0,
			"-0.018": 0.0,
			"-0.017": 0.0,
			"-0.016": 0.0,
			"-0.015": 0.0051286869605,
			"-0.014": 1.14701266454,
			"-0.013": 3.15384202462,
			"-0.012": 2.23666085186,
			"-0.011": 4.0652996358,
			"-0.01": 3.96607309177,
			"-0.009": 4.66028216607,
			"-0.008": 3.88007176784,
			"-0.007": 5.9988460717,
			"-0.006": 9.92690623306,
			"-0.005": 13.5068321341,
			"-0.004": 12.4022067325,
			"-0.003": 13.5030034623,
			"-0.002": 11.246301989,
			"-0.001": 11.8416212067,
			"0.0": 8.3666286717,
			"0.001": 12.5110636046,
			"0.002": 13.398169194,
			"0.003": 15.7287203158,
			"0.004": 18.5721462863,
			"0.005": 15.8920674017,
			"0.006": 7.91311439819,
			"0.007": 2.31285378615,
			"0.008": 2.2764026911,
			"0.009": 1.86350211506,
			"0.01": 2.01137682644,
			"0.011": 2.13861190767,
			"0.012": 1.75460978842,
			"0.013": 1.38775230913,
			"0.014": 1.02218252719,
			"0.015": 1.37757599066,
			"0.016": 0.989166389207,
			"0.017": 1.43762074057,
			"0.018": 1.06803264398,
			"0.019": 0.79352125429,
			"0.02": 0.0,
			"0.021": 0.0,
			"0.022": 0.0,
			"0.023": 0.0,
			"0.024": 0.0,
			"0.025": 0.0
		}
	}
}
