{
	 "smiles": "OC(=O)CC1=NNC(=O)C1", 
	 "Tm": 469.15, 
	 "num_atms": 16, 
	 "gaussian": { 
		 "optdone": 1, 
		 "sigma_profile": "yes", 
		 "theory": "DFT", 
		 "functional": "B3LYP", 
		 "basiset": "6-31G**", 
		 "properties": { 
			 "R2extent": 1872.5247, 
			 "electric_dipole_moment_norm": 3.75191319329, 
			 "electric_quadrupole_moment_norm": 12.6430476646, 
			 "total_energy": -529.314578582, 
			 "HOMO_LUMO_gap": 0.21165, 
			 "cosmo_polarized_energy": -17.2, 
			 "cosmo_cavitation_energy": 21.18, 
			 "cosmo_dispersion_energy": -15.76, 
			 "cosmo_repulsion_energy": 1.32, 
			 "cosmo_total_nonelectrostatic_energy": 6.75, 
			 "SMD_solvation_energy": 4.79 
		},
		"coords": [
			{
				"x": 1.9134375745,
				"y": -3.0039904369,
				"z": 0.3383662201,
				"element": "O" 
			},
			{
				"x": 1.7274659987,
				"y": -1.7162924693,
				"z": -0.0263197542,
				"element": "C" 
			},
			{
				"x": 2.6299717868,
				"y": -0.9108181423,
				"z": -0.083782212,
				"element": "O" 
			},
			{
				"x": 0.2669217911,
				"y": -1.4566929791,
				"z": -0.3593979495,
				"element": "C" 
			},
			{
				"x": -0.0437824836,
				"y": -0.0146630783,
				"z": -0.6023278883,
				"element": "C" 
			},
			{
				"x": -0.9307966382,
				"y": 0.5923381909,
				"z": 0.1119627975,
				"element": "N" 
			},
			{
				"x": -1.0142359693,
				"y": 1.894843823,
				"z": -0.3512309707,
				"element": "N" 
			},
			{
				"x": -0.1708729081,
				"y": 2.1945803461,
				"z": -1.4063126564,
				"element": "C" 
			},
			{
				"x": -0.0763535957,
				"y": 3.2615008599,
				"z": -1.9791651738,
				"element": "O" 
			},
			{
				"x": 0.5755677286,
				"y": 0.8767358842,
				"z": -1.6432512743,
				"element": "C" 
			},
			{
				"x": 2.8626488617,
				"y": -3.1026496344,
				"z": 0.5245456789,
				"element": "H" 
			},
			{
				"x": 0.0282226577,
				"y": -2.0673988038,
				"z": -1.2420324059,
				"element": "H" 
			},
			{
				"x": -0.3578659244,
				"y": -1.8324199015,
				"z": 0.4563884769,
				"element": "H" 
			},
			{
				"x": -1.6634213167,
				"y": 2.5315556798,
				"z": 0.0845003566,
				"element": "H" 
			},
			{
				"x": 0.4295133655,
				"y": 0.5244230333,
				"z": -2.6706232604,
				"element": "H" 
			},
			{
				"x": 1.6523790716,
				"y": 0.9970476284,
				"z": -1.4864199844,
				"element": "H" 
			}
		],
		 "valence_orbital": [ 
			{
				"type": "occ",
				"energy": -0.33626,
				"method": "rhf"
			},
			{
				"type": "occ",
				"energy": -0.31846,
				"method": "rhf"
			},
			{
				"type": "occ",
				"energy": -0.29518,
				"method": "rhf"
			},
			{
				"type": "occ",
				"energy": -0.25321,
				"method": "rhf"
			},
			{
				"type": "occ",
				"energy": -0.24037,
				"method": "rhf"
			},
			{
				"type": "unocc",
				"energy": -0.02872,
				"method": "rhf"
			},
			{
				"type": "unocc",
				"energy": -0.00727,
				"method": "rhf"
			},
			{
				"type": "unocc",
				"energy": 0.04137,
				"method": "rhf"
			},
			{
				"type": "unocc",
				"energy": 0.06593,
				"method": "rhf"
			},
			{
				"type": "unocc",
				"energy": 0.09105,
				"method": "rhf"
			}
		],
		"cosmo_sigma_profile": { 
			"-0.025": 0.0,
			"-0.024": 0.0,
			"-0.023": 0.0,
			"-0.022": 0.0,
			"-0.021": 0.0,
			"-0.02": 0.0,
			"-0.019": 0.20439591379,
			"-0.018": 0.925989446139,
			"-0.017": 0.935920388782,
			"-0.016": 1.57187768807,
			"-0.015": 2.55072989586,
			"-0.014": 1.70288960667,
			"-0.013": 1.44729094851,
			"-0.012": 1.14749282789,
			"-0.011": 1.30992400449,
			"-0.01": 2.06068829293,
			"-0.009": 2.92982122999,
			"-0.008": 8.4116246648,
			"-0.007": 9.46685458396,
			"-0.006": 9.31521480615,
			"-0.005": 9.13438200163,
			"-0.004": 9.27209982013,
			"-0.003": 8.48650839524,
			"-0.002": 6.59283469408,
			"-0.001": 8.10744596002,
			"0.0": 7.52940002544,
			"0.001": 7.02461704731,
			"0.002": 5.80183487359,
			"0.003": 6.0951668658,
			"0.004": 6.38102756143,
			"0.005": 3.97595255793,
			"0.006": 4.01281851212,
			"0.007": 6.09149318488,
			"0.008": 5.02118853608,
			"0.009": 4.81785559388,
			"0.01": 5.32460717301,
			"0.011": 6.39953324984,
			"0.012": 5.4284329095,
			"0.013": 6.8387641024,
			"0.014": 1.72361994665,
			"0.015": 0.0,
			"0.016": 0.0,
			"0.017": 0.0,
			"0.018": 0.0,
			"0.019": 0.0,
			"0.02": 0.0,
			"0.021": 0.0,
			"0.022": 0.0,
			"0.023": 0.0,
			"0.024": 0.0,
			"0.025": 0.0
		}
	}
}
