{
	 "smiles": "BrC(Br)=CC1=CC=CC=C1", 
	 "Tm": 348.15, 
	 "num_atms": 16, 
	 "gaussian": { 
		 "optdone": 1, 
		 "sigma_profile": "yes", 
		 "theory": "DFT", 
		 "functional": "B3LYP", 
		 "basiset": "6-31G**", 
		 "properties": { 
			 "R2extent": 5557.5717, 
			 "electric_dipole_moment_norm": 1.98695031392, 
			 "electric_quadrupole_moment_norm": 8.4224004488, 
			 "total_energy": -5451.24851551, 
			 "HOMO_LUMO_gap": 0.176, 
			 "cosmo_polarized_energy": -4.25, 
			 "cosmo_cavitation_energy": 24.7, 
			 "cosmo_dispersion_energy": -19.11, 
			 "cosmo_repulsion_energy": 1.54, 
			 "cosmo_total_nonelectrostatic_energy": 7.13, 
			 "SMD_solvation_energy": 2.25 
		},
		"coords": [
			{
				"x": 1.7417644566,
				"y": 2.0318042824,
				"z": -1.2465174149,
				"element": "Br" 
			},
			{
				"x": 2.5236398188,
				"y": 0.3199337798,
				"z": -1.4869445856,
				"element": "C" 
			},
			{
				"x": 4.3757386738,
				"y": 0.404130436,
				"z": -1.9518361853,
				"element": "Br" 
			},
			{
				"x": 1.9216039858,
				"y": -0.8743615377,
				"z": -1.3697288693,
				"element": "C" 
			},
			{
				"x": 0.5571230943,
				"y": -1.301492021,
				"z": -1.0384582697,
				"element": "C" 
			},
			{
				"x": 0.3180254412,
				"y": -2.6915509707,
				"z": -1.0752450879,
				"element": "C" 
			},
			{
				"x": -0.9345428737,
				"y": -3.2209062779,
				"z": -0.7807142904,
				"element": "C" 
			},
			{
				"x": -1.9871935797,
				"y": -2.3709091237,
				"z": -0.4370088372,
				"element": "C" 
			},
			{
				"x": -1.7685152643,
				"y": -0.992509211,
				"z": -0.3923514466,
				"element": "C" 
			},
			{
				"x": -0.516119305,
				"y": -0.4589058604,
				"z": -0.6880886635,
				"element": "C" 
			},
			{
				"x": 2.5940350557,
				"y": -1.7062938908,
				"z": -1.5674209944,
				"element": "H" 
			},
			{
				"x": 1.1326571413,
				"y": -3.3602185596,
				"z": -1.3409853026,
				"element": "H" 
			},
			{
				"x": -1.0879009906,
				"y": -4.2954253666,
				"z": -0.818751385,
				"element": "H" 
			},
			{
				"x": -2.9670669317,
				"y": -2.7778803338,
				"z": -0.2053068048,
				"element": "H" 
			},
			{
				"x": -2.5805377815,
				"y": -0.3228295953,
				"z": -0.1238878527,
				"element": "H" 
			},
			{
				"x": -0.3746109409,
				"y": 0.6118142504,
				"z": -0.6437540102,
				"element": "H" 
			}
		],
		 "valence_orbital": [ 
			{
				"type": "occ",
				"energy": -0.29967,
				"method": "rhf"
			},
			{
				"type": "occ",
				"energy": -0.29102,
				"method": "rhf"
			},
			{
				"type": "occ",
				"energy": -0.28239,
				"method": "rhf"
			},
			{
				"type": "occ",
				"energy": -0.25905,
				"method": "rhf"
			},
			{
				"type": "occ",
				"energy": -0.22709,
				"method": "rhf"
			},
			{
				"type": "unocc",
				"energy": -0.05109,
				"method": "rhf"
			},
			{
				"type": "unocc",
				"energy": -0.03068,
				"method": "rhf"
			},
			{
				"type": "unocc",
				"energy": -0.00828,
				"method": "rhf"
			},
			{
				"type": "unocc",
				"energy": 0.01741,
				"method": "rhf"
			},
			{
				"type": "unocc",
				"energy": 0.0426,
				"method": "rhf"
			}
		],
		"cosmo_sigma_profile": { 
			"-0.025": 0.0,
			"-0.024": 0.0,
			"-0.023": 0.0,
			"-0.022": 0.0,
			"-0.021": 0.0,
			"-0.02": 0.0,
			"-0.019": 0.0,
			"-0.018": 0.0,
			"-0.017": 0.0,
			"-0.016": 0.0,
			"-0.015": 0.0,
			"-0.014": 0.0,
			"-0.013": 0.0,
			"-0.012": 0.0,
			"-0.011": 0.0,
			"-0.01": 0.0,
			"-0.009": 0.477371269526,
			"-0.008": 2.06832714407,
			"-0.007": 2.85064415892,
			"-0.006": 9.49012935902,
			"-0.005": 11.7516464628,
			"-0.004": 15.825021502,
			"-0.003": 12.0143968283,
			"-0.002": 13.5939356199,
			"-0.001": 11.8782338864,
			"0.0": 16.8217273928,
			"0.001": 23.8717734638,
			"0.002": 25.2973746107,
			"0.003": 28.882530498,
			"0.004": 21.4893649043,
			"0.005": 8.99230657634,
			"0.006": 0.0986470672053,
			"0.007": 0.0,
			"0.008": 0.0,
			"0.009": 0.0,
			"0.01": 0.0,
			"0.011": 0.0,
			"0.012": 0.0,
			"0.013": 0.0,
			"0.014": 0.0,
			"0.015": 0.0,
			"0.016": 0.0,
			"0.017": 0.0,
			"0.018": 0.0,
			"0.019": 0.0,
			"0.02": 0.0,
			"0.021": 0.0,
			"0.022": 0.0,
			"0.023": 0.0,
			"0.024": 0.0,
			"0.025": 0.0
		}
	}
}
