{
	 "smiles": "CC(CN(C)C(=O)OC(C)(C)C)C(N)=NO", 
	 "Tm": 398.15, 
	 "num_atms": 37, 
	 "gaussian": { 
		 "optdone": 1, 
		 "sigma_profile": "yes", 
		 "theory": "DFT", 
		 "functional": "B3LYP", 
		 "basiset": "6-31G**", 
		 "properties": { 
			 "R2extent": 4339.0263, 
			 "electric_dipole_moment_norm": 2.46307984036, 
			 "electric_quadrupole_moment_norm": 18.7773595809, 
			 "total_energy": -783.629162264, 
			 "HOMO_LUMO_gap": 0.23819, 
			 "cosmo_polarized_energy": -17.22, 
			 "cosmo_cavitation_energy": 37.91, 
			 "cosmo_dispersion_energy": -25.06, 
			 "cosmo_repulsion_energy": 1.96, 
			 "cosmo_total_nonelectrostatic_energy": 14.81, 
			 "SMD_solvation_energy": 7.42 
		},
		"coords": [
			{
				"x": 1.6645701198,
				"y": -0.5084102986,
				"z": 1.9501742021,
				"element": "C" 
			},
			{
				"x": 0.6174731067,
				"y": 0.4230938329,
				"z": 1.3253322052,
				"element": "C" 
			},
			{
				"x": -0.8254857918,
				"y": -0.1534740639,
				"z": 1.3764753223,
				"element": "C" 
			},
			{
				"x": -0.963012557,
				"y": -1.498817584,
				"z": 0.8184185766,
				"element": "N" 
			},
			{
				"x": -1.1008835298,
				"y": -2.6266741027,
				"z": 1.7297480817,
				"element": "C" 
			},
			{
				"x": -1.0703222356,
				"y": -1.7347755663,
				"z": -0.53225854,
				"element": "C" 
			},
			{
				"x": -1.2195714987,
				"y": -2.8445219414,
				"z": -1.0261285358,
				"element": "O" 
			},
			{
				"x": -0.982233106,
				"y": -0.5718356028,
				"z": -1.2208964503,
				"element": "O" 
			},
			{
				"x": -1.0586163037,
				"y": -0.547285324,
				"z": -2.6886407964,
				"element": "C" 
			},
			{
				"x": 0.1203017211,
				"y": -1.3245370481,
				"z": -3.2839223323,
				"element": "C" 
			},
			{
				"x": -2.4107089101,
				"y": -1.0949943313,
				"z": -3.1587297624,
				"element": "C" 
			},
			{
				"x": -0.9411559612,
				"y": 0.947285061,
				"z": -3.0007716974,
				"element": "C" 
			},
			{
				"x": 0.602237004,
				"y": 1.8152021044,
				"z": 1.9340057861,
				"element": "C" 
			},
			{
				"x": 1.0820615098,
				"y": 1.9709345178,
				"z": 3.2338025641,
				"element": "N" 
			},
			{
				"x": 0.2090773708,
				"y": 2.8861228252,
				"z": 1.3350313114,
				"element": "N" 
			},
			{
				"x": -0.1453805425,
				"y": 2.6227546183,
				"z": -0.0190508074,
				"element": "O" 
			},
			{
				"x": 2.6593043641,
				"y": -0.0562735368,
				"z": 1.9224023696,
				"element": "H" 
			},
			{
				"x": 1.4420971531,
				"y": -0.7548071961,
				"z": 2.995354113,
				"element": "H" 
			},
			{
				"x": 1.701371466,
				"y": -1.4489020625,
				"z": 1.3939516855,
				"element": "H" 
			},
			{
				"x": 0.8539299773,
				"y": 0.5578489748,
				"z": 0.2665226198,
				"element": "H" 
			},
			{
				"x": -1.1634486191,
				"y": -0.2072281749,
				"z": 2.4182854774,
				"element": "H" 
			},
			{
				"x": -1.4840957537,
				"y": 0.5355198259,
				"z": 0.8452861924,
				"element": "H" 
			},
			{
				"x": -0.219240094,
				"y": -2.727256659,
				"z": 2.3723468387,
				"element": "H" 
			},
			{
				"x": -1.2142058119,
				"y": -3.532906925,
				"z": 1.13693812,
				"element": "H" 
			},
			{
				"x": -1.9838280075,
				"y": -2.504202865,
				"z": 2.3705133089,
				"element": "H" 
			},
			{
				"x": 1.0673949243,
				"y": -0.924111442,
				"z": -2.908201849,
				"element": "H" 
			},
			{
				"x": 0.0559052522,
				"y": -2.382811414,
				"z": -3.0294381919,
				"element": "H" 
			},
			{
				"x": 0.1171306338,
				"y": -1.2211992528,
				"z": -4.3739620595,
				"element": "H" 
			},
			{
				"x": -3.2282439168,
				"y": -0.5505275659,
				"z": -2.6753128222,
				"element": "H" 
			},
			{
				"x": -2.5052718619,
				"y": -0.9571638215,
				"z": -4.240924113,
				"element": "H" 
			},
			{
				"x": -2.5056950316,
				"y": -2.1556235276,
				"z": -2.9263448151,
				"element": "H" 
			},
			{
				"x": -0.9555207424,
				"y": 1.1059277897,
				"z": -4.0834403385,
				"element": "H" 
			},
			{
				"x": -0.0120105965,
				"y": 1.3549705266,
				"z": -2.5939755326,
				"element": "H" 
			},
			{
				"x": -1.7747958409,
				"y": 1.4981684734,
				"z": -2.5558041445,
				"element": "H" 
			},
			{
				"x": 0.8311452514,
				"y": 1.2308363466,
				"z": 3.8761747043,
				"element": "H" 
			},
			{
				"x": 0.8863009364,
				"y": 2.8913891575,
				"z": 3.6099113042,
				"element": "H" 
			},
			{
				"x": -0.368774078,
				"y": 3.5079862521,
				"z": -0.3314719948,
				"element": "H" 
			}
		],
		 "valence_orbital": [ 
			{
				"type": "occ",
				"energy": -0.28046,
				"method": "rhf"
			},
			{
				"type": "occ",
				"energy": -0.26323,
				"method": "rhf"
			},
			{
				"type": "occ",
				"energy": -0.25418,
				"method": "rhf"
			},
			{
				"type": "occ",
				"energy": -0.23272,
				"method": "rhf"
			},
			{
				"type": "occ",
				"energy": -0.20857,
				"method": "rhf"
			},
			{
				"type": "unocc",
				"energy": 0.02962,
				"method": "rhf"
			},
			{
				"type": "unocc",
				"energy": 0.05945,
				"method": "rhf"
			},
			{
				"type": "unocc",
				"energy": 0.06086,
				"method": "rhf"
			},
			{
				"type": "unocc",
				"energy": 0.075,
				"method": "rhf"
			},
			{
				"type": "unocc",
				"energy": 0.09657,
				"method": "rhf"
			}
		],
		"cosmo_sigma_profile": { 
			"-0.025": 0.0,
			"-0.024": 0.0,
			"-0.023": 0.0,
			"-0.022": 0.0,
			"-0.021": 0.0,
			"-0.02": 0.0,
			"-0.019": 0.0,
			"-0.018": 0.0,
			"-0.017": 0.0767842680265,
			"-0.016": 0.838437296985,
			"-0.015": 0.904740530567,
			"-0.014": 0.52624500775,
			"-0.013": 1.04012587157,
			"-0.012": 3.02367090568,
			"-0.011": 3.33631618258,
			"-0.01": 3.5817128445,
			"-0.009": 3.47614042814,
			"-0.008": 3.56283542858,
			"-0.007": 3.4804115451,
			"-0.006": 3.69930983784,
			"-0.005": 6.39102244384,
			"-0.004": 20.1260679946,
			"-0.003": 29.4952264558,
			"-0.002": 31.7557596441,
			"-0.001": 35.1433895083,
			"0.0": 35.8841088792,
			"0.001": 29.7460781166,
			"0.002": 9.83909283773,
			"0.003": 6.96363878865,
			"0.004": 7.12318826044,
			"0.005": 8.18897716549,
			"0.006": 6.3385829307,
			"0.007": 7.20445574427,
			"0.008": 6.80438629892,
			"0.009": 4.16976392349,
			"0.01": 5.20615487163,
			"0.011": 4.12118330229,
			"0.012": 4.72627724654,
			"0.013": 4.29435980651,
			"0.014": 2.47507891447,
			"0.015": 0.15764672821,
			"0.016": 0.0,
			"0.017": 0.0,
			"0.018": 0.0,
			"0.019": 0.0,
			"0.02": 0.0,
			"0.021": 0.0,
			"0.022": 0.0,
			"0.023": 0.0,
			"0.024": 0.0,
			"0.025": 0.0
		}
	}
}
