{
	 "smiles": "OC(=O)C1=CN=CC=C1", 
	 "Tm": 510.15, 
	 "num_atms": 14, 
	 "gaussian": { 
		 "optdone": 1, 
		 "sigma_profile": "yes", 
		 "theory": "DFT", 
		 "functional": "B3LYP", 
		 "basiset": "6-31G**", 
		 "properties": { 
			 "R2extent": 1473.5523, 
			 "electric_dipole_moment_norm": 5.07230430771, 
			 "electric_quadrupole_moment_norm": 8.12189611359, 
			 "total_energy": -436.846798385, 
			 "HOMO_LUMO_gap": 0.20267, 
			 "cosmo_polarized_energy": -16.11, 
			 "cosmo_cavitation_energy": 18.82, 
			 "cosmo_dispersion_energy": -14.12, 
			 "cosmo_repulsion_energy": 1.15, 
			 "cosmo_total_nonelectrostatic_energy": 5.85, 
			 "SMD_solvation_energy": 3.16 
		},
		"coords": [
			{
				"x": -2.4817736366,
				"y": 1.7053056279,
				"z": 0.1778763764,
				"element": "O" 
			},
			{
				"x": -1.4641014267,
				"y": 1.4931119921,
				"z": 1.0557156382,
				"element": "C" 
			},
			{
				"x": -1.1551079856,
				"y": 2.3531175703,
				"z": 1.8448093748,
				"element": "O" 
			},
			{
				"x": -0.773914064,
				"y": 0.1656613321,
				"z": 0.9791186879,
				"element": "C" 
			},
			{
				"x": -0.0515449459,
				"y": -0.2685261352,
				"z": 2.1020682303,
				"element": "C" 
			},
			{
				"x": 0.6094543693,
				"y": -1.42664318,
				"z": 2.1581067483,
				"element": "N" 
			},
			{
				"x": 0.5887413555,
				"y": -2.2009509582,
				"z": 1.0642983228,
				"element": "C" 
			},
			{
				"x": -0.0780362109,
				"y": -1.8596979722,
				"z": -0.1136467715,
				"element": "C" 
			},
			{
				"x": -0.7732323261,
				"y": -0.6537988668,
				"z": -0.155322606,
				"element": "C" 
			},
			{
				"x": -2.7252061179,
				"y": 0.8810884895,
				"z": -0.2654296864,
				"element": "H" 
			},
			{
				"x": -0.0251854452,
				"y": 0.3636973675,
				"z": 2.9858021531,
				"element": "H" 
			},
			{
				"x": 1.1391012756,
				"y": -3.1375849156,
				"z": 1.1307215247,
				"element": "H" 
			},
			{
				"x": -0.0449575864,
				"y": -2.5185037272,
				"z": -0.9751623918,
				"element": "H" 
			},
			{
				"x": -1.2735372549,
				"y": -0.3502766241,
				"z": -1.0722556009,
				"element": "H" 
			}
		],
		 "valence_orbital": [ 
			{
				"type": "occ",
				"energy": -0.32712,
				"method": "rhf"
			},
			{
				"type": "occ",
				"energy": -0.31123,
				"method": "rhf"
			},
			{
				"type": "occ",
				"energy": -0.29165,
				"method": "rhf"
			},
			{
				"type": "occ",
				"energy": -0.27929,
				"method": "rhf"
			},
			{
				"type": "occ",
				"energy": -0.26853,
				"method": "rhf"
			},
			{
				"type": "unocc",
				"energy": -0.06586,
				"method": "rhf"
			},
			{
				"type": "unocc",
				"energy": -0.04334,
				"method": "rhf"
			},
			{
				"type": "unocc",
				"energy": 0.03289,
				"method": "rhf"
			},
			{
				"type": "unocc",
				"energy": 0.05074,
				"method": "rhf"
			},
			{
				"type": "unocc",
				"energy": 0.09627,
				"method": "rhf"
			}
		],
		"cosmo_sigma_profile": { 
			"-0.025": 0.0,
			"-0.024": 0.0,
			"-0.023": 0.0,
			"-0.022": 0.0,
			"-0.021": 0.0,
			"-0.02": 0.0204042453309,
			"-0.019": 0.848964549551,
			"-0.018": 1.14419709654,
			"-0.017": 1.10569641862,
			"-0.016": 0.816846744201,
			"-0.015": 0.718309519788,
			"-0.014": 1.49101134512,
			"-0.013": 0.986175098143,
			"-0.012": 1.12842879839,
			"-0.011": 1.35227747469,
			"-0.01": 1.67624633682,
			"-0.009": 1.32868379428,
			"-0.008": 4.24886660896,
			"-0.007": 8.7594736016,
			"-0.006": 8.56992837934,
			"-0.005": 6.91872975816,
			"-0.004": 6.96409565839,
			"-0.003": 8.05046934084,
			"-0.002": 7.32439357175,
			"-0.001": 8.98338823923,
			"0.0": 14.1142704098,
			"0.001": 12.8701965769,
			"0.002": 4.13751615095,
			"0.003": 4.08031894947,
			"0.004": 4.42016966528,
			"0.005": 3.26882993926,
			"0.006": 2.69011624071,
			"0.007": 4.03639603762,
			"0.008": 4.38313006795,
			"0.009": 4.52417745225,
			"0.01": 5.84957650919,
			"0.011": 6.36270464261,
			"0.012": 4.43474879765,
			"0.013": 2.03182458037,
			"0.014": 0.512434329874,
			"0.015": 0.949693755783,
			"0.016": 0.422656498578,
			"0.017": 0.0,
			"0.018": 0.0,
			"0.019": 0.0,
			"0.02": 0.0,
			"0.021": 0.0,
			"0.022": 0.0,
			"0.023": 0.0,
			"0.024": 0.0,
			"0.025": 0.0
		}
	}
}
