{
	 "smiles": "ClC1=C(C=CC(Br)=C1)N=C=S", 
	 "Tm": 319.15, 
	 "num_atms": 14, 
	 "gaussian": { 
		 "optdone": 1, 
		 "sigma_profile": "yes", 
		 "theory": "DFT", 
		 "functional": "B3LYP", 
		 "basiset": "6-31G**", 
		 "properties": { 
			 "R2extent": 4992.1579, 
			 "electric_dipole_moment_norm": 2.70564683024, 
			 "electric_quadrupole_moment_norm": 8.76754880511, 
			 "total_energy": -3753.07759045, 
			 "HOMO_LUMO_gap": 0.17236, 
			 "cosmo_polarized_energy": -5.47, 
			 "cosmo_cavitation_energy": 26.27, 
			 "cosmo_dispersion_energy": -19.92, 
			 "cosmo_repulsion_energy": 1.58, 
			 "cosmo_total_nonelectrostatic_energy": 7.93, 
			 "SMD_solvation_energy": 3.67 
		},
		"coords": [
			{
				"x": 0.8369573303,
				"y": -2.3814282069,
				"z": -0.9414136772,
				"element": "Cl" 
			},
			{
				"x": -0.1375573318,
				"y": -1.2455385693,
				"z": -0.0483663354,
				"element": "C" 
			},
			{
				"x": -0.0532626757,
				"y": 0.1338889166,
				"z": -0.3357820539,
				"element": "C" 
			},
			{
				"x": -0.8515312837,
				"y": 1.0265451272,
				"z": 0.4013946117,
				"element": "C" 
			},
			{
				"x": -1.7081819261,
				"y": 0.5658089883,
				"z": 1.3935123346,
				"element": "C" 
			},
			{
				"x": -1.7730383869,
				"y": -0.8027563773,
				"z": 1.6579782351,
				"element": "C" 
			},
			{
				"x": -2.9434809704,
				"y": -1.4461532091,
				"z": 3.015260305,
				"element": "Br" 
			},
			{
				"x": -0.9945074762,
				"y": -1.7126815955,
				"z": 0.9450557645,
				"element": "C" 
			},
			{
				"x": 0.7820248088,
				"y": 0.6019484367,
				"z": -1.3051422741,
				"element": "N" 
			},
			{
				"x": 1.5046874912,
				"y": 1.00630741,
				"z": -2.1578564104,
				"element": "C" 
			},
			{
				"x": 2.4695933212,
				"y": 1.5571832348,
				"z": -3.2939573457,
				"element": "S" 
			},
			{
				"x": -0.784840568,
				"y": 2.0858266731,
				"z": 0.1789934593,
				"element": "H" 
			},
			{
				"x": -2.319201443,
				"y": 1.2617545643,
				"z": 1.9557036608,
				"element": "H" 
			},
			{
				"x": -1.0485608898,
				"y": -2.7736053928,
				"z": 1.1542197257,
				"element": "H" 
			}
		],
		 "valence_orbital": [ 
			{
				"type": "occ",
				"energy": -0.30596,
				"method": "rhf"
			},
			{
				"type": "occ",
				"energy": -0.28848,
				"method": "rhf"
			},
			{
				"type": "occ",
				"energy": -0.27923,
				"method": "rhf"
			},
			{
				"type": "occ",
				"energy": -0.2622,
				"method": "rhf"
			},
			{
				"type": "occ",
				"energy": -0.23835,
				"method": "rhf"
			},
			{
				"type": "unocc",
				"energy": -0.06599,
				"method": "rhf"
			},
			{
				"type": "unocc",
				"energy": -0.04269,
				"method": "rhf"
			},
			{
				"type": "unocc",
				"energy": -0.02121,
				"method": "rhf"
			},
			{
				"type": "unocc",
				"energy": -0.00712,
				"method": "rhf"
			},
			{
				"type": "unocc",
				"energy": 0.02671,
				"method": "rhf"
			}
		],
		"cosmo_sigma_profile": { 
			"-0.025": 0.0,
			"-0.024": 0.0,
			"-0.023": 0.0,
			"-0.022": 0.0,
			"-0.021": 0.0,
			"-0.02": 0.0,
			"-0.019": 0.0,
			"-0.018": 0.0,
			"-0.017": 0.0,
			"-0.016": 0.0,
			"-0.015": 0.0,
			"-0.014": 0.0,
			"-0.013": 0.0,
			"-0.012": 0.0,
			"-0.011": 0.0,
			"-0.01": 0.00291271288632,
			"-0.009": 2.29730155231,
			"-0.008": 5.25834960178,
			"-0.007": 6.66464371091,
			"-0.006": 4.96982704582,
			"-0.005": 6.85941698347,
			"-0.004": 7.79084785974,
			"-0.003": 10.9696438005,
			"-0.002": 20.0268076981,
			"-0.001": 24.6100469673,
			"0.0": 28.6219211154,
			"0.001": 25.991231081,
			"0.002": 19.675963501,
			"0.003": 22.3675580109,
			"0.004": 18.1428688086,
			"0.005": 12.8598947684,
			"0.006": 5.00103487577,
			"0.007": 0.0,
			"0.008": 0.0,
			"0.009": 0.0,
			"0.01": 0.0,
			"0.011": 0.0,
			"0.012": 0.0,
			"0.013": 0.0,
			"0.014": 0.0,
			"0.015": 0.0,
			"0.016": 0.0,
			"0.017": 0.0,
			"0.018": 0.0,
			"0.019": 0.0,
			"0.02": 0.0,
			"0.021": 0.0,
			"0.022": 0.0,
			"0.023": 0.0,
			"0.024": 0.0,
			"0.025": 0.0
		}
	}
}
