{
	 "smiles": "N1N=NN=C1C1=CC=NC=C1", 
	 "Tm": 539.15, 
	 "num_atms": 16, 
	 "gaussian": { 
		 "optdone": 1, 
		 "sigma_profile": "yes", 
		 "theory": "DFT", 
		 "functional": "B3LYP", 
		 "basiset": "6-31G**", 
		 "properties": { 
			 "R2extent": 2085.5282, 
			 "electric_dipole_moment_norm": 4.02531159663, 
			 "electric_quadrupole_moment_norm": 19.7314490555, 
			 "total_energy": -505.34600441, 
			 "HOMO_LUMO_gap": 0.19683, 
			 "cosmo_polarized_energy": -19.35, 
			 "cosmo_cavitation_energy": 21.32, 
			 "cosmo_dispersion_energy": -16.06, 
			 "cosmo_repulsion_energy": 1.26, 
			 "cosmo_total_nonelectrostatic_energy": 6.51, 
			 "SMD_solvation_energy": 0.56 
		},
		"coords": [
			{
				"x": -0.645034357,
				"y": 1.7106189877,
				"z": 1.8046039757,
				"element": "N" 
			},
			{
				"x": -1.673906477,
				"y": 2.1159114015,
				"z": 2.5815508176,
				"element": "N" 
			},
			{
				"x": -2.3759578636,
				"y": 1.0554167992,
				"z": 2.8206496265,
				"element": "N" 
			},
			{
				"x": -1.8376079455,
				"y": -0.0357278145,
				"z": 2.2227164202,
				"element": "N" 
			},
			{
				"x": -0.7516281731,
				"y": 0.3786503155,
				"z": 1.5859483156,
				"element": "C" 
			},
			{
				"x": 0.1548813653,
				"y": -0.4574789462,
				"z": 0.7969947583,
				"element": "C" 
			},
			{
				"x": 1.2876358178,
				"y": 0.0535497163,
				"z": 0.1506385249,
				"element": "C" 
			},
			{
				"x": 2.0931810141,
				"y": -0.8201189641,
				"z": -0.5790401268,
				"element": "C" 
			},
			{
				"x": 1.8502240202,
				"y": -2.1297538919,
				"z": -0.7023292522,
				"element": "N" 
			},
			{
				"x": 0.7640282556,
				"y": -2.6089547843,
				"z": -0.0801489694,
				"element": "C" 
			},
			{
				"x": -0.1086466467,
				"y": -1.8283418443,
				"z": 0.6741243619,
				"element": "C" 
			},
			{
				"x": 0.0412065427,
				"y": 2.3811194226,
				"z": 1.4910969207,
				"element": "H" 
			},
			{
				"x": 1.5536503749,
				"y": 1.1053438408,
				"z": 0.202255045,
				"element": "H" 
			},
			{
				"x": 2.9780356514,
				"y": -0.4443025749,
				"z": -1.0890542792,
				"element": "H" 
			},
			{
				"x": 0.580810284,
				"y": -3.6757486313,
				"z": -0.1904021519,
				"element": "H" 
			},
			{
				"x": -0.9761718633,
				"y": -2.2592830321,
				"z": 1.1604960131,
				"element": "H" 
			}
		],
		 "valence_orbital": [ 
			{
				"type": "occ",
				"energy": -0.30993,
				"method": "rhf"
			},
			{
				"type": "occ",
				"energy": -0.29559,
				"method": "rhf"
			},
			{
				"type": "occ",
				"energy": -0.28612,
				"method": "rhf"
			},
			{
				"type": "occ",
				"energy": -0.28031,
				"method": "rhf"
			},
			{
				"type": "occ",
				"energy": -0.27391,
				"method": "rhf"
			},
			{
				"type": "unocc",
				"energy": -0.07708,
				"method": "rhf"
			},
			{
				"type": "unocc",
				"energy": -0.03403,
				"method": "rhf"
			},
			{
				"type": "unocc",
				"energy": -0.01166,
				"method": "rhf"
			},
			{
				"type": "unocc",
				"energy": 0.03532,
				"method": "rhf"
			},
			{
				"type": "unocc",
				"energy": 0.03848,
				"method": "rhf"
			}
		],
		"cosmo_sigma_profile": { 
			"-0.025": 0.0,
			"-0.024": 0.0,
			"-0.023": 0.0,
			"-0.022": 0.0,
			"-0.021": 0.0,
			"-0.02": 0.322540379569,
			"-0.019": 1.65674467669,
			"-0.018": 1.56011207412,
			"-0.017": 1.21034072678,
			"-0.016": 1.687457521,
			"-0.015": 1.59009128779,
			"-0.014": 1.15551373948,
			"-0.013": 1.31941611245,
			"-0.012": 1.12187412863,
			"-0.011": 0.726918130795,
			"-0.01": 1.63759579196,
			"-0.009": 2.12359753725,
			"-0.008": 2.46352021653,
			"-0.007": 8.0499576147,
			"-0.006": 8.89431139019,
			"-0.005": 7.65196986933,
			"-0.004": 10.8321024932,
			"-0.003": 8.10193257565,
			"-0.002": 8.08467498744,
			"-0.001": 10.516386811,
			"0.0": 14.4254741883,
			"0.001": 15.5408284685,
			"0.002": 6.154671956,
			"0.003": 4.92911538439,
			"0.004": 4.77987899556,
			"0.005": 3.80509446377,
			"0.006": 5.00272376612,
			"0.007": 5.08738369052,
			"0.008": 5.58235933106,
			"0.009": 6.37485599097,
			"0.01": 5.71826392873,
			"0.011": 5.06614915453,
			"0.012": 3.89941991136,
			"0.013": 2.94089570448,
			"0.014": 1.26206106884,
			"0.015": 0.907022683308,
			"0.016": 0.503175348056,
			"0.017": 0.0204471698633,
			"0.018": 0.0,
			"0.019": 0.0,
			"0.02": 0.0,
			"0.021": 0.0,
			"0.022": 0.0,
			"0.023": 0.0,
			"0.024": 0.0,
			"0.025": 0.0
		}
	}
}
