{
	 "smiles": "O=N(=O)C1=CC=C(C=C1)N(N=CC1=CC=CC=C1)P(=O)(N1CC1)N1CC1", 
	 "Tm": 422.15, 
	 "num_atms": 44, 
	 "gaussian": { 
		 "optdone": 1, 
		 "sigma_profile": "yes", 
		 "theory": "DFT", 
		 "functional": "B3LYP", 
		 "basiset": "6-31G**", 
		 "properties": { 
			 "R2extent": 12317.5946, 
			 "electric_dipole_moment_norm": 7.53764121261, 
			 "electric_quadrupole_moment_norm": 45.1016989586, 
			 "total_energy": -1499.26264224, 
			 "HOMO_LUMO_gap": 0.1419, 
			 "cosmo_polarized_energy": -18.25, 
			 "cosmo_cavitation_energy": 50.72, 
			 "cosmo_dispersion_energy": -33.57, 
			 "cosmo_repulsion_energy": 2.53, 
			 "cosmo_total_nonelectrostatic_energy": 19.68, 
			 "SMD_solvation_energy": 9.03 
		},
		"coords": [
			{
				"x": 5.2786200785,
				"y": 0.6488358854,
				"z": -2.8942869214,
				"element": "O" 
			},
			{
				"x": 5.2422827319,
				"y": 0.2138857675,
				"z": -1.7406928391,
				"element": "N" 
			},
			{
				"x": 6.2042857023,
				"y": -0.2921485758,
				"z": -1.1576778515,
				"element": "O" 
			},
			{
				"x": 3.9766914133,
				"y": 0.3043908301,
				"z": -1.0171187511,
				"element": "C" 
			},
			{
				"x": 3.8935835145,
				"y": -0.1866745642,
				"z": 0.2855405535,
				"element": "C" 
			},
			{
				"x": 2.6925008323,
				"y": -0.1068114376,
				"z": 0.9764524839,
				"element": "C" 
			},
			{
				"x": 1.5632863092,
				"y": 0.4786852476,
				"z": 0.3710610977,
				"element": "C" 
			},
			{
				"x": 1.6714891208,
				"y": 0.9694049926,
				"z": -0.9458058243,
				"element": "C" 
			},
			{
				"x": 2.869601446,
				"y": 0.8788024888,
				"z": -1.6397332994,
				"element": "C" 
			},
			{
				"x": 0.3148188618,
				"y": 0.6107172002,
				"z": 1.0375738703,
				"element": "N" 
			},
			{
				"x": -0.7740641586,
				"y": 0.6218471642,
				"z": 0.1393622342,
				"element": "N" 
			},
			{
				"x": -1.8389676899,
				"y": 1.2792732153,
				"z": 0.4370160393,
				"element": "C" 
			},
			{
				"x": -2.9768271332,
				"y": 1.2895828217,
				"z": -0.490056704,
				"element": "C" 
			},
			{
				"x": -2.9745752946,
				"y": 0.5589394233,
				"z": -1.692480637,
				"element": "C" 
			},
			{
				"x": -4.068221054,
				"y": 0.6182352198,
				"z": -2.5492069404,
				"element": "C" 
			},
			{
				"x": -5.1823877631,
				"y": 1.3993118212,
				"z": -2.2201675431,
				"element": "C" 
			},
			{
				"x": -5.1965890729,
				"y": 2.1220804412,
				"z": -1.0264774927,
				"element": "C" 
			},
			{
				"x": -4.1005229408,
				"y": 2.0665729825,
				"z": -0.1662651608,
				"element": "C" 
			},
			{
				"x": 0.0719052239,
				"y": 0.3693721121,
				"z": 2.7290487779,
				"element": "P" 
			},
			{
				"x": -1.3126738468,
				"y": 0.7158283472,
				"z": 3.1685376017,
				"element": "O" 
			},
			{
				"x": 0.5565689998,
				"y": -1.2309474431,
				"z": 3.0140084297,
				"element": "N" 
			},
			{
				"x": -0.405054539,
				"y": -2.3105302182,
				"z": 2.7237117157,
				"element": "C" 
			},
			{
				"x": -0.0609294883,
				"y": -1.9781399893,
				"z": 4.128560664,
				"element": "C" 
			},
			{
				"x": 1.3435370011,
				"y": 1.2443001811,
				"z": 3.4152629105,
				"element": "N" 
			},
			{
				"x": 1.1116556143,
				"y": 2.6421754218,
				"z": 3.8119482971,
				"element": "C" 
			},
			{
				"x": 1.2863105248,
				"y": 1.5910791958,
				"z": 4.8472085832,
				"element": "C" 
			},
			{
				"x": 4.7669510706,
				"y": -0.6394453332,
				"z": 0.7378775619,
				"element": "H" 
			},
			{
				"x": 2.6285362923,
				"y": -0.512847097,
				"z": 1.9755221386,
				"element": "H" 
			},
			{
				"x": 0.8074978865,
				"y": 1.4193768568,
				"z": -1.4155698983,
				"element": "H" 
			},
			{
				"x": 2.9626963144,
				"y": 1.2557060343,
				"z": -2.6505494655,
				"element": "H" 
			},
			{
				"x": -1.954028824,
				"y": 1.8329033891,
				"z": 1.3671522226,
				"element": "H" 
			},
			{
				"x": -2.109487027,
				"y": -0.0494985395,
				"z": -1.9335639864,
				"element": "H" 
			},
			{
				"x": -4.0581855377,
				"y": 0.05209745,
				"z": -3.4762231038,
				"element": "H" 
			},
			{
				"x": -6.0355725219,
				"y": 1.4395382991,
				"z": -2.8912034434,
				"element": "H" 
			},
			{
				"x": -6.0597214801,
				"y": 2.7270637666,
				"z": -0.7647541692,
				"element": "H" 
			},
			{
				"x": -4.110580655,
				"y": 2.6271377906,
				"z": 0.7650350701,
				"element": "H" 
			},
			{
				"x": -1.3978023863,
				"y": -2.0316357963,
				"z": 2.3776894576,
				"element": "H" 
			},
			{
				"x": 0.0336402891,
				"y": -3.1795707768,
				"z": 2.2415373907,
				"element": "H" 
			},
			{
				"x": -0.8238059902,
				"y": -1.4722548484,
				"z": 4.7155203117,
				"element": "H" 
			},
			{
				"x": 0.631844852,
				"y": -2.6032797598,
				"z": 4.6851203717,
				"element": "H" 
			},
			{
				"x": 1.9294184529,
				"y": 3.3157363886,
				"z": 3.5716983263,
				"element": "H" 
			},
			{
				"x": 0.1102911023,
				"y": 3.0480203646,
				"z": 3.6852043362,
				"element": "H" 
			},
			{
				"x": 2.2320876889,
				"y": 1.4876115821,
				"z": 5.3718313178,
				"element": "H" 
			},
			{
				"x": 0.4010960798,
				"y": 1.3034716982,
				"z": 5.4103522676,
				"element": "H" 
			}
		],
		 "valence_orbital": [ 
			{
				"type": "occ",
				"energy": -0.26557,
				"method": "rhf"
			},
			{
				"type": "occ",
				"energy": -0.26114,
				"method": "rhf"
			},
			{
				"type": "occ",
				"energy": -0.25961,
				"method": "rhf"
			},
			{
				"type": "occ",
				"energy": -0.25698,
				"method": "rhf"
			},
			{
				"type": "occ",
				"energy": -0.21541,
				"method": "rhf"
			},
			{
				"type": "unocc",
				"energy": -0.07351,
				"method": "rhf"
			},
			{
				"type": "unocc",
				"energy": -0.05172,
				"method": "rhf"
			},
			{
				"type": "unocc",
				"energy": -0.01069,
				"method": "rhf"
			},
			{
				"type": "unocc",
				"energy": -0.00854,
				"method": "rhf"
			},
			{
				"type": "unocc",
				"energy": 0.01839,
				"method": "rhf"
			}
		],
		"cosmo_sigma_profile": { 
			"-0.025": 0.0,
			"-0.024": 0.0,
			"-0.023": 0.0,
			"-0.022": 0.0,
			"-0.021": 0.0,
			"-0.02": 0.0,
			"-0.019": 0.0,
			"-0.018": 0.0,
			"-0.017": 0.0,
			"-0.016": 0.0,
			"-0.015": 0.0,
			"-0.014": 0.0,
			"-0.013": 0.0,
			"-0.012": 0.0,
			"-0.011": 0.0,
			"-0.01": 0.0,
			"-0.009": 0.0,
			"-0.008": 0.554565739867,
			"-0.007": 13.103863968,
			"-0.006": 27.3769368748,
			"-0.005": 35.365870626,
			"-0.004": 34.9303069052,
			"-0.003": 32.9733964478,
			"-0.002": 29.794653971,
			"-0.001": 27.3316272651,
			"0.0": 31.7172184111,
			"0.001": 27.2420813681,
			"0.002": 31.1991497869,
			"0.003": 25.1048965278,
			"0.004": 19.4615194771,
			"0.005": 14.9258241535,
			"0.006": 10.1835825384,
			"0.007": 7.59189726581,
			"0.008": 13.6878192658,
			"0.009": 7.88192105842,
			"0.01": 5.92193522757,
			"0.011": 2.39827687292,
			"0.012": 1.36529347374,
			"0.013": 1.04132306142,
			"0.014": 2.93452634813,
			"0.015": 0.132461636387,
			"0.016": 0.0,
			"0.017": 0.0,
			"0.018": 0.0,
			"0.019": 0.0,
			"0.02": 0.0,
			"0.021": 0.0,
			"0.022": 0.0,
			"0.023": 0.0,
			"0.024": 0.0,
			"0.025": 0.0
		}
	}
}
