{
	 "smiles": "NC1=CC(=CC=C1N1CCCC1)C(F)(F)F", 
	 "Tm": 307.15, 
	 "num_atms": 29, 
	 "gaussian": { 
		 "optdone": 1, 
		 "sigma_profile": "yes", 
		 "theory": "DFT", 
		 "functional": "B3LYP", 
		 "basiset": "6-31G**", 
		 "properties": { 
			 "R2extent": 5724.0284, 
			 "electric_dipole_moment_norm": 4.49971644107, 
			 "electric_quadrupole_moment_norm": 15.071079032, 
			 "total_energy": -836.038887837, 
			 "HOMO_LUMO_gap": 0.18977, 
			 "cosmo_polarized_energy": -7.74, 
			 "cosmo_cavitation_energy": 32.09, 
			 "cosmo_dispersion_energy": -23.17, 
			 "cosmo_repulsion_energy": 1.75, 
			 "cosmo_total_nonelectrostatic_energy": 10.68, 
			 "SMD_solvation_energy": 5.4 
		},
		"coords": [
			{
				"x": 2.1311685701,
				"y": 1.3494875025,
				"z": 0.8113770206,
				"element": "N" 
			},
			{
				"x": 0.7947636874,
				"y": 1.6479309069,
				"z": 0.5354593457,
				"element": "C" 
			},
			{
				"x": 0.2127749821,
				"y": 2.8496093073,
				"z": 0.9444669004,
				"element": "C" 
			},
			{
				"x": -1.1207347957,
				"y": 3.1372296458,
				"z": 0.6401544121,
				"element": "C" 
			},
			{
				"x": -1.8873925362,
				"y": 2.2285004986,
				"z": -0.0864551824,
				"element": "C" 
			},
			{
				"x": -1.318423169,
				"y": 1.0165273461,
				"z": -0.4812262378,
				"element": "C" 
			},
			{
				"x": 0.0058287785,
				"y": 0.6953259518,
				"z": -0.1668500207,
				"element": "C" 
			},
			{
				"x": 0.6324490998,
				"y": -0.5132290548,
				"z": -0.5594161296,
				"element": "N" 
			},
			{
				"x": 0.9483080499,
				"y": -1.4906937533,
				"z": 0.5057626505,
				"element": "C" 
			},
			{
				"x": 1.5192880906,
				"y": -2.6957283835,
				"z": -0.2691236468,
				"element": "C" 
			},
			{
				"x": 0.9831572536,
				"y": -2.5242215685,
				"z": -1.7200837179,
				"element": "C" 
			},
			{
				"x": 0.0445848472,
				"y": -1.3084055196,
				"z": -1.6384260934,
				"element": "C" 
			},
			{
				"x": -1.728779642,
				"y": 4.4156900588,
				"z": 1.1397018087,
				"element": "C" 
			},
			{
				"x": -2.1919853969,
				"y": 4.294584496,
				"z": 2.4082293736,
				"element": "F" 
			},
			{
				"x": -2.7750361677,
				"y": 4.8136498415,
				"z": 0.3810160535,
				"element": "F" 
			},
			{
				"x": -0.8327592395,
				"y": 5.4320548237,
				"z": 1.1557799995,
				"element": "F" 
			},
			{
				"x": 2.7060621461,
				"y": 2.1602819517,
				"z": 0.9999703249,
				"element": "H" 
			},
			{
				"x": 2.5378745591,
				"y": 0.7480955875,
				"z": 0.1022217865,
				"element": "H" 
			},
			{
				"x": 0.8140177579,
				"y": 3.5819058332,
				"z": 1.4750022091,
				"element": "H" 
			},
			{
				"x": -2.9150968707,
				"y": 2.4603804373,
				"z": -0.3407302127,
				"element": "H" 
			},
			{
				"x": -1.9199109241,
				"y": 0.3099702678,
				"z": -1.0423630502,
				"element": "H" 
			},
			{
				"x": 0.0299583949,
				"y": -1.7763487479,
				"z": 1.0460426341,
				"element": "H" 
			},
			{
				"x": 1.6410545956,
				"y": -1.0615986676,
				"z": 1.2325959824,
				"element": "H" 
			},
			{
				"x": 1.1986897397,
				"y": -3.6380638619,
				"z": 0.183287259,
				"element": "H" 
			},
			{
				"x": 2.6129016409,
				"y": -2.6872239681,
				"z": -0.2577297756,
				"element": "H" 
			},
			{
				"x": 1.8065114071,
				"y": -2.3181461163,
				"z": -2.4097014412,
				"element": "H" 
			},
			{
				"x": 0.4614167733,
				"y": -3.4124433109,
				"z": -2.0864393548,
				"element": "H" 
			},
			{
				"x": -0.9794845621,
				"y": -1.644570595,
				"z": -1.394524708,
				"element": "H" 
			},
			{
				"x": -0.0052070701,
				"y": -0.725550909,
				"z": -2.5630981897,
				"element": "H" 
			}
		],
		 "valence_orbital": [ 
			{
				"type": "occ",
				"energy": -0.3286,
				"method": "rhf"
			},
			{
				"type": "occ",
				"energy": -0.31182,
				"method": "rhf"
			},
			{
				"type": "occ",
				"energy": -0.27109,
				"method": "rhf"
			},
			{
				"type": "occ",
				"energy": -0.22805,
				"method": "rhf"
			},
			{
				"type": "occ",
				"energy": -0.19971,
				"method": "rhf"
			},
			{
				"type": "unocc",
				"energy": -0.00994,
				"method": "rhf"
			},
			{
				"type": "unocc",
				"energy": 0.00775,
				"method": "rhf"
			},
			{
				"type": "unocc",
				"energy": 0.07215,
				"method": "rhf"
			},
			{
				"type": "unocc",
				"energy": 0.09044,
				"method": "rhf"
			},
			{
				"type": "unocc",
				"energy": 0.10074,
				"method": "rhf"
			}
		],
		"cosmo_sigma_profile": { 
			"-0.025": 0.0,
			"-0.024": 0.0,
			"-0.023": 0.0,
			"-0.022": 0.0,
			"-0.021": 0.0,
			"-0.02": 0.0,
			"-0.019": 0.0,
			"-0.018": 0.0,
			"-0.017": 0.0,
			"-0.016": 0.0,
			"-0.015": 0.0,
			"-0.014": 0.0,
			"-0.013": 0.232131426649,
			"-0.012": 1.58862721485,
			"-0.011": 1.28740521123,
			"-0.01": 2.30014256335,
			"-0.009": 2.9528283981,
			"-0.008": 2.82961240183,
			"-0.007": 2.56342494487,
			"-0.006": 3.71677454566,
			"-0.005": 6.84650364255,
			"-0.004": 10.5182291823,
			"-0.003": 21.3579126543,
			"-0.002": 32.0323383311,
			"-0.001": 27.4019890595,
			"0.0": 22.1078958999,
			"0.001": 18.050030931,
			"0.002": 17.3320784685,
			"0.003": 38.4666411412,
			"0.004": 21.9264690514,
			"0.005": 10.2441967702,
			"0.006": 4.43664665121,
			"0.007": 0.796727594121,
			"0.008": 1.21952859982,
			"0.009": 0.668847973488,
			"0.01": 0.526469545711,
			"0.011": 0.572361213759,
			"0.012": 0.723662677695,
			"0.013": 0.31442186753,
			"0.014": 0.00902122301572,
			"0.015": 0.0,
			"0.016": 0.0,
			"0.017": 0.0,
			"0.018": 0.0,
			"0.019": 0.0,
			"0.02": 0.0,
			"0.021": 0.0,
			"0.022": 0.0,
			"0.023": 0.0,
			"0.024": 0.0,
			"0.025": 0.0
		}
	}
}
