{
	 "smiles": "CC1=CC=C(C=C1)S(=O)(=O)C1=CC=C(C)C=C1", 
	 "Tm": 431.15, 
	 "num_atms": 31, 
	 "gaussian": { 
		 "optdone": 1, 
		 "sigma_profile": "yes", 
		 "theory": "DFT", 
		 "functional": "B3LYP", 
		 "basiset": "6-31G**", 
		 "properties": { 
			 "R2extent": 5642.3879, 
			 "electric_dipole_moment_norm": 6.09635163766, 
			 "electric_quadrupole_moment_norm": 21.9643878943, 
			 "total_energy": -1090.51114182, 
			 "HOMO_LUMO_gap": 0.20389, 
			 "cosmo_polarized_energy": -14.33, 
			 "cosmo_cavitation_energy": 36.22, 
			 "cosmo_dispersion_energy": -25.98, 
			 "cosmo_repulsion_energy": 1.97, 
			 "cosmo_total_nonelectrostatic_energy": 12.21, 
			 "SMD_solvation_energy": 5.58 
		},
		"coords": [
			{
				"x": -1.4831513345,
				"y": -5.4025275805,
				"z": -0.8074667994,
				"element": "C" 
			},
			{
				"x": -1.5604480166,
				"y": -3.9026070669,
				"z": -0.9609563489,
				"element": "C" 
			},
			{
				"x": -1.0886045636,
				"y": -3.2752811791,
				"z": -2.1233806388,
				"element": "C" 
			},
			{
				"x": -1.1301018414,
				"y": -1.8895093932,
				"z": -2.2620945246,
				"element": "C" 
			},
			{
				"x": -1.6514892823,
				"y": -1.1175692339,
				"z": -1.2226870174,
				"element": "C" 
			},
			{
				"x": -2.1419995715,
				"y": -1.7156810836,
				"z": -0.0609770127,
				"element": "C" 
			},
			{
				"x": -2.0926699788,
				"y": -3.1028705387,
				"z": 0.0609605889,
				"element": "C" 
			},
			{
				"x": -1.7183034935,
				"y": 0.6724640037,
				"z": -1.395132615,
				"element": "S" 
			},
			{
				"x": -2.789522878,
				"y": 1.1575939421,
				"z": -0.5085233199,
				"element": "O" 
			},
			{
				"x": -1.7081661832,
				"y": 0.9731877231,
				"z": -2.8368107379,
				"element": "O" 
			},
			{
				"x": -0.1576493065,
				"y": 1.2574424592,
				"z": -0.7164936888,
				"element": "C" 
			},
			{
				"x": 0.9475432406,
				"y": 1.3997660265,
				"z": -1.5568443499,
				"element": "C" 
			},
			{
				"x": 2.1501257905,
				"y": 1.8600430644,
				"z": -1.0243972553,
				"element": "C" 
			},
			{
				"x": 2.2656746608,
				"y": 2.1808289755,
				"z": 0.3360847219,
				"element": "C" 
			},
			{
				"x": 3.5807268467,
				"y": 2.6500499507,
				"z": 0.9103434448,
				"element": "C" 
			},
			{
				"x": 1.1345330219,
				"y": 2.0422191933,
				"z": 1.153829722,
				"element": "C" 
			},
			{
				"x": -0.0757820441,
				"y": 1.5832802301,
				"z": 0.6382125343,
				"element": "C" 
			},
			{
				"x": -0.5271989836,
				"y": -5.7016190892,
				"z": -0.3595531209,
				"element": "H" 
			},
			{
				"x": -2.2786419045,
				"y": -5.7804252254,
				"z": -0.1588252972,
				"element": "H" 
			},
			{
				"x": -1.5614164864,
				"y": -5.9085910474,
				"z": -1.7740585262,
				"element": "H" 
			},
			{
				"x": -0.692408941,
				"y": -3.8809123001,
				"z": -2.9343161815,
				"element": "H" 
			},
			{
				"x": -0.789493684,
				"y": -1.4081694948,
				"z": -3.1724635396,
				"element": "H" 
			},
			{
				"x": -2.5784367945,
				"y": -1.1011279936,
				"z": 0.7189916337,
				"element": "H" 
			},
			{
				"x": -2.4823319983,
				"y": -3.5735445834,
				"z": 0.9598300791,
				"element": "H" 
			},
			{
				"x": 0.8529467645,
				"y": 1.1777565876,
				"z": -2.6143201335,
				"element": "H" 
			},
			{
				"x": 3.0106803864,
				"y": 1.9815795372,
				"z": -1.6770922179,
				"element": "H" 
			},
			{
				"x": 3.4296267317,
				"y": 3.3262308795,
				"z": 1.7567916359,
				"element": "H" 
			},
			{
				"x": 4.1822789277,
				"y": 3.1712734199,
				"z": 0.1601340721,
				"element": "H" 
			},
			{
				"x": 4.1747150487,
				"y": 1.8017501481,
				"z": 1.2729635264,
				"element": "H" 
			},
			{
				"x": 1.2001568518,
				"y": 2.3064000655,
				"z": 2.2061013742,
				"element": "H" 
			},
			{
				"x": -0.9563909849,
				"y": 1.5021696031,
				"z": 1.2662499922,
				"element": "H" 
			}
		],
		 "valence_orbital": [ 
			{
				"type": "occ",
				"energy": -0.28091,
				"method": "rhf"
			},
			{
				"type": "occ",
				"energy": -0.27115,
				"method": "rhf"
			},
			{
				"type": "occ",
				"energy": -0.26705,
				"method": "rhf"
			},
			{
				"type": "occ",
				"energy": -0.26349,
				"method": "rhf"
			},
			{
				"type": "occ",
				"energy": -0.24889,
				"method": "rhf"
			},
			{
				"type": "unocc",
				"energy": -0.045,
				"method": "rhf"
			},
			{
				"type": "unocc",
				"energy": -0.02129,
				"method": "rhf"
			},
			{
				"type": "unocc",
				"energy": -0.01339,
				"method": "rhf"
			},
			{
				"type": "unocc",
				"energy": -0.01134,
				"method": "rhf"
			},
			{
				"type": "unocc",
				"energy": 0.06056,
				"method": "rhf"
			}
		],
		"cosmo_sigma_profile": { 
			"-0.025": 0.0,
			"-0.024": 0.0,
			"-0.023": 0.0,
			"-0.022": 0.0,
			"-0.021": 0.0,
			"-0.02": 0.0,
			"-0.019": 0.0,
			"-0.018": 0.0,
			"-0.017": 0.0,
			"-0.016": 0.0,
			"-0.015": 0.0,
			"-0.014": 0.0,
			"-0.013": 0.0,
			"-0.012": 0.0,
			"-0.011": 0.0,
			"-0.01": 0.0,
			"-0.009": 0.0,
			"-0.008": 0.000492118132348,
			"-0.007": 4.05923335799,
			"-0.006": 15.7656161173,
			"-0.005": 27.5928285446,
			"-0.004": 28.4855566329,
			"-0.003": 22.5018585592,
			"-0.002": 24.6383875086,
			"-0.001": 27.81969719,
			"0.0": 24.1606572512,
			"0.001": 18.3001840742,
			"0.002": 20.6647007925,
			"0.003": 27.4782774299,
			"0.004": 12.7056005666,
			"0.005": 2.77063021563,
			"0.006": 2.43047047961,
			"0.007": 2.77955141409,
			"0.008": 3.25730144501,
			"0.009": 3.74267562127,
			"0.01": 4.44843350059,
			"0.011": 7.66412680901,
			"0.012": 7.03522611919,
			"0.013": 0.546843443544,
			"0.014": 0.0,
			"0.015": 0.0,
			"0.016": 0.0,
			"0.017": 0.0,
			"0.018": 0.0,
			"0.019": 0.0,
			"0.02": 0.0,
			"0.021": 0.0,
			"0.022": 0.0,
			"0.023": 0.0,
			"0.024": 0.0,
			"0.025": 0.0
		}
	}
}
