{
	 "smiles": "CC1=C(Cl)C=C(C=C1)N=C=O", 
	 "Tm": 296.15, 
	 "num_atms": 17, 
	 "gaussian": { 
		 "optdone": 1, 
		 "sigma_profile": "yes", 
		 "theory": "DFT", 
		 "functional": "B3LYP", 
		 "basiset": "6-31G**", 
		 "properties": { 
			 "R2extent": 2764.6149, 
			 "electric_dipole_moment_norm": 2.35906814866, 
			 "electric_quadrupole_moment_norm": 7.83817072919, 
			 "total_energy": -898.642413858, 
			 "HOMO_LUMO_gap": 0.20727, 
			 "cosmo_polarized_energy": -5.11, 
			 "cosmo_cavitation_energy": 24.34, 
			 "cosmo_dispersion_energy": -17.63, 
			 "cosmo_repulsion_energy": 1.42, 
			 "cosmo_total_nonelectrostatic_energy": 8.13, 
			 "SMD_solvation_energy": 6.31 
		},
		"coords": [
			{
				"x": -0.4076220824,
				"y": -2.3697563347,
				"z": 1.238357805,
				"element": "C" 
			},
			{
				"x": -0.3707815403,
				"y": -1.0346851896,
				"z": 0.5419248937,
				"element": "C" 
			},
			{
				"x": -1.4444275931,
				"y": -0.5557352795,
				"z": -0.2246138808,
				"element": "C" 
			},
			{
				"x": -2.8990101821,
				"y": -1.5342375043,
				"z": -0.3923227791,
				"element": "Cl" 
			},
			{
				"x": -1.4157381634,
				"y": 0.6767053655,
				"z": -0.8702645821,
				"element": "C" 
			},
			{
				"x": -0.2773252347,
				"y": 1.4818940173,
				"z": -0.7599490277,
				"element": "C" 
			},
			{
				"x": 0.8147155737,
				"y": 1.0377631022,
				"z": -0.0029922703,
				"element": "C" 
			},
			{
				"x": 0.7525794893,
				"y": -0.1998095557,
				"z": 0.6295511417,
				"element": "C" 
			},
			{
				"x": -0.2796232567,
				"y": 2.712930418,
				"z": -1.4195349678,
				"element": "N" 
			},
			{
				"x": 0.4367196421,
				"y": 3.6726065977,
				"z": -1.5927505355,
				"element": "C" 
			},
			{
				"x": 1.03001618,
				"y": 4.6599565579,
				"z": -1.8400533741,
				"element": "O" 
			},
			{
				"x": -1.2350064436,
				"y": -2.4240136097,
				"z": 1.9540025747,
				"element": "H" 
			},
			{
				"x": -0.5531306602,
				"y": -3.1880889793,
				"z": 0.5250025605,
				"element": "H" 
			},
			{
				"x": 0.5248727864,
				"y": -2.5488757355,
				"z": 1.7790393459,
				"element": "H" 
			},
			{
				"x": -2.2623236748,
				"y": 1.0163028255,
				"z": -1.4542269946,
				"element": "H" 
			},
			{
				"x": 1.7008285771,
				"y": 1.6582743409,
				"z": 0.0865614324,
				"element": "H" 
			},
			{
				"x": 1.6042565827,
				"y": -0.5358310367,
				"z": 1.2144686581,
				"element": "H" 
			}
		],
		 "valence_orbital": [ 
			{
				"type": "occ",
				"energy": -0.31885,
				"method": "rhf"
			},
			{
				"type": "occ",
				"energy": -0.31708,
				"method": "rhf"
			},
			{
				"type": "occ",
				"energy": -0.31356,
				"method": "rhf"
			},
			{
				"type": "occ",
				"energy": -0.26052,
				"method": "rhf"
			},
			{
				"type": "occ",
				"energy": -0.23884,
				"method": "rhf"
			},
			{
				"type": "unocc",
				"energy": -0.03157,
				"method": "rhf"
			},
			{
				"type": "unocc",
				"energy": -0.02207,
				"method": "rhf"
			},
			{
				"type": "unocc",
				"energy": 0.00535,
				"method": "rhf"
			},
			{
				"type": "unocc",
				"energy": 0.027,
				"method": "rhf"
			},
			{
				"type": "unocc",
				"energy": 0.0695,
				"method": "rhf"
			}
		],
		"cosmo_sigma_profile": { 
			"-0.025": 0.0,
			"-0.024": 0.0,
			"-0.023": 0.0,
			"-0.022": 0.0,
			"-0.021": 0.0,
			"-0.02": 0.0,
			"-0.019": 0.0,
			"-0.018": 0.0,
			"-0.017": 0.0,
			"-0.016": 0.0,
			"-0.015": 0.0,
			"-0.014": 0.0,
			"-0.013": 0.0,
			"-0.012": 0.0,
			"-0.011": 0.0,
			"-0.01": 0.0,
			"-0.009": 0.0795453518499,
			"-0.008": 2.96070176359,
			"-0.007": 5.58939653698,
			"-0.006": 7.78037335378,
			"-0.005": 9.78950883324,
			"-0.004": 11.2885443071,
			"-0.003": 15.211617368,
			"-0.002": 15.9815433505,
			"-0.001": 17.2204060441,
			"0.0": 19.7628565874,
			"0.001": 17.5379260527,
			"0.002": 22.4833087062,
			"0.003": 19.558967921,
			"0.004": 13.7518915388,
			"0.005": 7.19238603282,
			"0.006": 2.77412814298,
			"0.007": 7.15634288142,
			"0.008": 2.23147713541,
			"0.009": 0.0,
			"0.01": 0.0,
			"0.011": 0.0,
			"0.012": 0.0,
			"0.013": 0.0,
			"0.014": 0.0,
			"0.015": 0.0,
			"0.016": 0.0,
			"0.017": 0.0,
			"0.018": 0.0,
			"0.019": 0.0,
			"0.02": 0.0,
			"0.021": 0.0,
			"0.022": 0.0,
			"0.023": 0.0,
			"0.024": 0.0,
			"0.025": 0.0
		}
	}
}
