{
	 "smiles": "NC1=CC(=NO1)C1=CC=C(F)C=C1", 
	 "Tm": 374.15, 
	 "num_atms": 20, 
	 "gaussian": { 
		 "optdone": 1, 
		 "sigma_profile": "yes", 
		 "theory": "DFT", 
		 "functional": "B3LYP", 
		 "basiset": "6-31G**", 
		 "properties": { 
			 "R2extent": 3618.8511, 
			 "electric_dipole_moment_norm": 4.24195219799, 
			 "electric_quadrupole_moment_norm": 9.88867149823, 
			 "total_energy": -631.69059283, 
			 "HOMO_LUMO_gap": 0.18922, 
			 "cosmo_polarized_energy": -13.92, 
			 "cosmo_cavitation_energy": 25.51, 
			 "cosmo_dispersion_energy": -18.98, 
			 "cosmo_repulsion_energy": 1.47, 
			 "cosmo_total_nonelectrostatic_energy": 8.0, 
			 "SMD_solvation_energy": 5.01 
		},
		"coords": [
			{
				"x": -0.4669678017,
				"y": 2.9407344864,
				"z": -2.0638153092,
				"element": "N" 
			},
			{
				"x": -0.4300347234,
				"y": 2.0424098103,
				"z": -1.0257036758,
				"element": "C" 
			},
			{
				"x": 0.5035680082,
				"y": 1.1388278313,
				"z": -0.5928809328,
				"element": "C" 
			},
			{
				"x": -0.085386969,
				"y": 0.5920095289,
				"z": 0.5861458472,
				"element": "C" 
			},
			{
				"x": -1.2692843203,
				"y": 1.1200417068,
				"z": 0.8409339698,
				"element": "N" 
			},
			{
				"x": -1.4898750077,
				"y": 2.0515249116,
				"z": -0.1993678247,
				"element": "O" 
			},
			{
				"x": 0.4633584432,
				"y": -0.4399044122,
				"z": 1.4847719812,
				"element": "C" 
			},
			{
				"x": 1.764376596,
				"y": -0.9330805734,
				"z": 1.3083466518,
				"element": "C" 
			},
			{
				"x": 2.2841440901,
				"y": -1.9087253023,
				"z": 2.1576909847,
				"element": "C" 
			},
			{
				"x": 1.4870799937,
				"y": -2.3869274408,
				"z": 3.1903801383,
				"element": "C" 
			},
			{
				"x": 1.9819535761,
				"y": -3.3314008334,
				"z": 4.0165007026,
				"element": "F" 
			},
			{
				"x": 0.1922995574,
				"y": -1.9194600571,
				"z": 3.3966470198,
				"element": "C" 
			},
			{
				"x": -0.3141971582,
				"y": -0.9471339893,
				"z": 2.5407916176,
				"element": "C" 
			},
			{
				"x": 0.1032358574,
				"y": 2.7014526849,
				"z": -2.8618406896,
				"element": "H" 
			},
			{
				"x": -1.3946930643,
				"y": 3.2576061632,
				"z": -2.3120776771,
				"element": "H" 
			},
			{
				"x": 1.4524024485,
				"y": 0.9050374694,
				"z": -1.0476746632,
				"element": "H" 
			},
			{
				"x": 2.3862313925,
				"y": -0.5516199118,
				"z": 0.5050110517,
				"element": "H" 
			},
			{
				"x": 3.2890457059,
				"y": -2.2964238729,
				"z": 2.0311310731,
				"element": "H" 
			},
			{
				"x": -0.3975036408,
				"y": -2.3193657753,
				"z": 4.2143470947,
				"element": "H" 
			},
			{
				"x": -1.3207529836,
				"y": -0.5688024245,
				"z": 2.6805626398,
				"element": "H" 
			}
		],
		 "valence_orbital": [ 
			{
				"type": "occ",
				"energy": -0.30371,
				"method": "rhf"
			},
			{
				"type": "occ",
				"energy": -0.29594,
				"method": "rhf"
			},
			{
				"type": "occ",
				"energy": -0.26184,
				"method": "rhf"
			},
			{
				"type": "occ",
				"energy": -0.23374,
				"method": "rhf"
			},
			{
				"type": "occ",
				"energy": -0.2184,
				"method": "rhf"
			},
			{
				"type": "unocc",
				"energy": -0.02918,
				"method": "rhf"
			},
			{
				"type": "unocc",
				"energy": -0.0111,
				"method": "rhf"
			},
			{
				"type": "unocc",
				"energy": 0.03211,
				"method": "rhf"
			},
			{
				"type": "unocc",
				"energy": 0.05969,
				"method": "rhf"
			},
			{
				"type": "unocc",
				"energy": 0.08584,
				"method": "rhf"
			}
		],
		"cosmo_sigma_profile": { 
			"-0.025": 0.0,
			"-0.024": 0.0,
			"-0.023": 0.0,
			"-0.022": 0.0,
			"-0.021": 0.0,
			"-0.02": 0.0,
			"-0.019": 0.0,
			"-0.018": 0.0,
			"-0.017": 0.0,
			"-0.016": 0.0,
			"-0.015": 0.71645813764,
			"-0.014": 2.96892107335,
			"-0.013": 2.43590286371,
			"-0.012": 2.65321400367,
			"-0.011": 2.84633291715,
			"-0.01": 2.27817536781,
			"-0.009": 2.79174566109,
			"-0.008": 5.17434977127,
			"-0.007": 9.43545972683,
			"-0.006": 7.81880440524,
			"-0.005": 9.88793863001,
			"-0.004": 8.20040521959,
			"-0.003": 7.06851786112,
			"-0.002": 7.10031936128,
			"-0.001": 8.63045857165,
			"0.0": 11.8062589254,
			"0.001": 15.5467745999,
			"0.002": 20.6479566901,
			"0.003": 25.7937279524,
			"0.004": 19.8798849562,
			"0.005": 6.5104638909,
			"0.006": 3.72525125806,
			"0.007": 3.11633966902,
			"0.008": 4.85761874795,
			"0.009": 3.99460035864,
			"0.01": 2.60127400684,
			"0.011": 2.28690640113,
			"0.012": 1.99264420949,
			"0.013": 1.0508116502,
			"0.014": 1.17776651866,
			"0.015": 0.084860291765,
			"0.016": 0.0,
			"0.017": 0.0,
			"0.018": 0.0,
			"0.019": 0.0,
			"0.02": 0.0,
			"0.021": 0.0,
			"0.022": 0.0,
			"0.023": 0.0,
			"0.024": 0.0,
			"0.025": 0.0
		}
	}
}
