{
	 "smiles": "CC(C)CN1C(=O)NC(=O)C2=C1N=C(CC1CC3CCC1C3)N=C2S", 
	 "Tm": 585.15, 
	 "num_atms": 49, 
	 "gaussian": { 
		 "optdone": 1, 
		 "sigma_profile": "yes", 
		 "theory": "DFT", 
		 "functional": "B3LYP", 
		 "basiset": "6-31G**", 
		 "properties": { 
			 "R2extent": 11403.2648, 
			 "electric_dipole_moment_norm": 3.41281801449, 
			 "electric_quadrupole_moment_norm": 9.64187101915, 
			 "total_energy": -1468.10519992, 
			 "HOMO_LUMO_gap": 0.18815, 
			 "cosmo_polarized_energy": -14.22, 
			 "cosmo_cavitation_energy": 50.2, 
			 "cosmo_dispersion_energy": -34.73, 
			 "cosmo_repulsion_energy": 2.62, 
			 "cosmo_total_nonelectrostatic_energy": 18.1, 
			 "SMD_solvation_energy": 6.37 
		},
		"coords": [
			{
				"x": -2.8351150192,
				"y": 0.2395891531,
				"z": -3.3591384275,
				"element": "C" 
			},
			{
				"x": -2.6762180719,
				"y": -0.7289135585,
				"z": -2.1775761804,
				"element": "C" 
			},
			{
				"x": -1.6486557498,
				"y": -1.8241393883,
				"z": -2.4912101257,
				"element": "C" 
			},
			{
				"x": -2.3157862018,
				"y": 0.0846203787,
				"z": -0.9201821494,
				"element": "C" 
			},
			{
				"x": -2.240686582,
				"y": -0.7219863057,
				"z": 0.3189101733,
				"element": "N" 
			},
			{
				"x": -3.4621884508,
				"y": -1.0694684743,
				"z": 0.9049594083,
				"element": "C" 
			},
			{
				"x": -4.5374991442,
				"y": -0.7395162825,
				"z": 0.4368177688,
				"element": "O" 
			},
			{
				"x": -3.3719456921,
				"y": -1.8226999366,
				"z": 2.0686936729,
				"element": "N" 
			},
			{
				"x": -2.2240297524,
				"y": -2.2561389463,
				"z": 2.7282245162,
				"element": "C" 
			},
			{
				"x": -2.2954410429,
				"y": -2.9194429344,
				"z": 3.7536088036,
				"element": "O" 
			},
			{
				"x": -0.9879975517,
				"y": -1.8354180723,
				"z": 2.0755892372,
				"element": "C" 
			},
			{
				"x": -1.0254545218,
				"y": -1.074782405,
				"z": 0.8870221439,
				"element": "C" 
			},
			{
				"x": 0.0902649159,
				"y": -0.6659377774,
				"z": 0.2685098477,
				"element": "N" 
			},
			{
				"x": 1.2543854972,
				"y": -1.0174050171,
				"z": 0.8276945733,
				"element": "C" 
			},
			{
				"x": 2.5202380563,
				"y": -0.5482785043,
				"z": 0.1589509683,
				"element": "C" 
			},
			{
				"x": 3.2419790674,
				"y": 0.5630057418,
				"z": 0.9550620842,
				"element": "C" 
			},
			{
				"x": 4.6287180201,
				"y": 0.9374197211,
				"z": 0.3276462552,
				"element": "C" 
			},
			{
				"x": 4.5327998648,
				"y": 2.4657727069,
				"z": 0.1195279153,
				"element": "C" 
			},
			{
				"x": 4.5338762735,
				"y": 3.1568105442,
				"z": 1.5042247636,
				"element": "C" 
			},
			{
				"x": 3.1213036226,
				"y": 2.8031857558,
				"z": 2.0771266409,
				"element": "C" 
			},
			{
				"x": 2.4991841529,
				"y": 1.9292899095,
				"z": 0.9621746201,
				"element": "C" 
			},
			{
				"x": 3.0560544632,
				"y": 2.6168675937,
				"z": -0.3045944346,
				"element": "C" 
			},
			{
				"x": 1.405449211,
				"y": -1.7406645675,
				"z": 1.9490474106,
				"element": "N" 
			},
			{
				"x": 0.2946591172,
				"y": -2.1472012759,
				"z": 2.5728863962,
				"element": "C" 
			},
			{
				"x": 0.5022995502,
				"y": -3.0963356204,
				"z": 4.0490658584,
				"element": "S" 
			},
			{
				"x": -1.8917672425,
				"y": 0.7547635415,
				"z": -3.5781835343,
				"element": "H" 
			},
			{
				"x": -3.1353041506,
				"y": -0.2987861998,
				"z": -4.2635411771,
				"element": "H" 
			},
			{
				"x": -3.5957930138,
				"y": 1.0010850302,
				"z": -3.1562604838,
				"element": "H" 
			},
			{
				"x": -3.6485248119,
				"y": -1.200084194,
				"z": -1.9908498225,
				"element": "H" 
			},
			{
				"x": -1.5538176864,
				"y": -2.5417794042,
				"z": -1.6701689231,
				"element": "H" 
			},
			{
				"x": -1.9475032402,
				"y": -2.3843434698,
				"z": -3.3834214598,
				"element": "H" 
			},
			{
				"x": -0.6569820387,
				"y": -1.3967731731,
				"z": -2.6758222523,
				"element": "H" 
			},
			{
				"x": -1.3450372039,
				"y": 0.5650571003,
				"z": -1.0375741117,
				"element": "H" 
			},
			{
				"x": -3.0792656892,
				"y": 0.8460019675,
				"z": -0.7480238458,
				"element": "H" 
			},
			{
				"x": -4.2602501803,
				"y": -2.0768254844,
				"z": 2.4840356039,
				"element": "H" 
			},
			{
				"x": 2.2768191874,
				"y": -0.2042181598,
				"z": -0.8500478771,
				"element": "H" 
			},
			{
				"x": 3.1970451093,
				"y": -1.4065173459,
				"z": 0.0751138332,
				"element": "H" 
			},
			{
				"x": 3.3639276361,
				"y": 0.1956950259,
				"z": 1.9799456859,
				"element": "H" 
			},
			{
				"x": 4.769070281,
				"y": 0.428469721,
				"z": -0.6337001047,
				"element": "H" 
			},
			{
				"x": 5.4683507529,
				"y": 0.6523576767,
				"z": 0.9702270847,
				"element": "H" 
			},
			{
				"x": 5.2794234575,
				"y": 2.8620542431,
				"z": -0.5744355107,
				"element": "H" 
			},
			{
				"x": 5.3501121881,
				"y": 2.79847367,
				"z": 2.1402300538,
				"element": "H" 
			},
			{
				"x": 4.6577331203,
				"y": 4.2397905813,
				"z": 1.3990791487,
				"element": "H" 
			},
			{
				"x": 3.1716552697,
				"y": 2.275511752,
				"z": 3.0351315699,
				"element": "H" 
			},
			{
				"x": 2.5240163674,
				"y": 3.7072469508,
				"z": 2.2362818545,
				"element": "H" 
			},
			{
				"x": 1.4111930575,
				"y": 1.8407018819,
				"z": 1.0236857672,
				"element": "H" 
			},
			{
				"x": 2.8161319441,
				"y": 2.0919850727,
				"z": -1.2355230712,
				"element": "H" 
			},
			{
				"x": 2.7346527284,
				"y": 3.6597221777,
				"z": -0.4016775471,
				"element": "H" 
			},
			{
				"x": 1.8481201262,
				"y": -3.0248213998,
				"z": 3.9512573786,
				"element": "H" 
			}
		],
		 "valence_orbital": [ 
			{
				"type": "occ",
				"energy": -0.29049,
				"method": "rhf"
			},
			{
				"type": "occ",
				"energy": -0.27865,
				"method": "rhf"
			},
			{
				"type": "occ",
				"energy": -0.26474,
				"method": "rhf"
			},
			{
				"type": "occ",
				"energy": -0.25992,
				"method": "rhf"
			},
			{
				"type": "occ",
				"energy": -0.25456,
				"method": "rhf"
			},
			{
				"type": "unocc",
				"energy": -0.06641,
				"method": "rhf"
			},
			{
				"type": "unocc",
				"energy": -0.0461,
				"method": "rhf"
			},
			{
				"type": "unocc",
				"energy": 0.00507,
				"method": "rhf"
			},
			{
				"type": "unocc",
				"energy": 0.02398,
				"method": "rhf"
			},
			{
				"type": "unocc",
				"energy": 0.0507,
				"method": "rhf"
			}
		],
		"cosmo_sigma_profile": { 
			"-0.025": 0.0,
			"-0.024": 0.0,
			"-0.023": 0.0,
			"-0.022": 0.0,
			"-0.021": 0.0,
			"-0.02": 0.0,
			"-0.019": 0.0,
			"-0.018": 0.0,
			"-0.017": 0.0750532280779,
			"-0.016": 0.94731317817,
			"-0.015": 0.975338079608,
			"-0.014": 0.793868804296,
			"-0.013": 0.772009883376,
			"-0.012": 0.537840075231,
			"-0.011": 0.755169275762,
			"-0.01": 2.35824566327,
			"-0.009": 2.07396483673,
			"-0.008": 3.43656760196,
			"-0.007": 4.08422654672,
			"-0.006": 3.71617915643,
			"-0.005": 7.6876443975,
			"-0.004": 20.9040852693,
			"-0.003": 38.0046024658,
			"-0.002": 58.9504031592,
			"-0.001": 56.1812851785,
			"0.0": 49.3516211048,
			"0.001": 46.4806508138,
			"0.002": 25.5275640906,
			"0.003": 9.75437199189,
			"0.004": 9.22388661487,
			"0.005": 8.67509223492,
			"0.006": 8.18034673764,
			"0.007": 6.79178208453,
			"0.008": 4.36159883858,
			"0.009": 4.33702195757,
			"0.01": 4.67027574553,
			"0.011": 6.80792765206,
			"0.012": 7.92354986837,
			"0.013": 0.699078769876,
			"0.014": 0.0,
			"0.015": 0.0,
			"0.016": 0.0,
			"0.017": 0.0,
			"0.018": 0.0,
			"0.019": 0.0,
			"0.02": 0.0,
			"0.021": 0.0,
			"0.022": 0.0,
			"0.023": 0.0,
			"0.024": 0.0,
			"0.025": 0.0
		}
	}
}
