{
	 "smiles": "CC1=NC2=CC=CC=C2C(C(O)=O)=C1N", 
	 "Tm": 477.15, 
	 "num_atms": 25, 
	 "gaussian": { 
		 "optdone": 1, 
		 "sigma_profile": "yes", 
		 "theory": "DFT", 
		 "functional": "B3LYP", 
		 "basiset": "6-31G**", 
		 "properties": { 
			 "R2extent": 3605.5211, 
			 "electric_dipole_moment_norm": 4.3752338029, 
			 "electric_quadrupole_moment_norm": 19.626021498, 
			 "total_energy": -685.174325842, 
			 "HOMO_LUMO_gap": 0.15763, 
			 "cosmo_polarized_energy": -17.68, 
			 "cosmo_cavitation_energy": 28.24, 
			 "cosmo_dispersion_energy": -21.38, 
			 "cosmo_repulsion_energy": 1.64, 
			 "cosmo_total_nonelectrostatic_energy": 8.5, 
			 "SMD_solvation_energy": 4.47 
		},
		"coords": [
			{
				"x": 1.4198139479,
				"y": -1.8905404595,
				"z": -0.4304859391,
				"element": "C" 
			},
			{
				"x": 0.7550215834,
				"y": -0.544361242,
				"z": -0.2586667374,
				"element": "C" 
			},
			{
				"x": 0.5047352545,
				"y": 0.139772837,
				"z": -1.3525398728,
				"element": "N" 
			},
			{
				"x": -0.0855539735,
				"y": 1.3650919854,
				"z": -1.2584348024,
				"element": "C" 
			},
			{
				"x": -0.3233927357,
				"y": 2.0632734708,
				"z": -2.4710593155,
				"element": "C" 
			},
			{
				"x": -0.924623275,
				"y": 3.2998418924,
				"z": -2.4578327209,
				"element": "C" 
			},
			{
				"x": -1.3081881044,
				"y": 3.8798169862,
				"z": -1.2260377569,
				"element": "C" 
			},
			{
				"x": -1.0872635119,
				"y": 3.2302825018,
				"z": -0.0304572972,
				"element": "C" 
			},
			{
				"x": -0.4658001459,
				"y": 1.9503885354,
				"z": -0.0073053391,
				"element": "C" 
			},
			{
				"x": -0.2171837158,
				"y": 1.1789448905,
				"z": 1.178535352,
				"element": "C" 
			},
			{
				"x": -0.6638024503,
				"y": 1.6907678088,
				"z": 2.5317453117,
				"element": "C" 
			},
			{
				"x": -0.9981026415,
				"y": 0.7579640845,
				"z": 3.4480748521,
				"element": "O" 
			},
			{
				"x": -0.7551089902,
				"y": 2.8663681684,
				"z": 2.8098189537,
				"element": "O" 
			},
			{
				"x": 0.4141268184,
				"y": -0.0544844966,
				"z": 1.0449708832,
				"element": "C" 
			},
			{
				"x": 0.6773558866,
				"y": -0.862895615,
				"z": 2.185826961,
				"element": "N" 
			},
			{
				"x": 2.3780788657,
				"y": -1.9466668812,
				"z": 0.1014593401,
				"element": "H" 
			},
			{
				"x": 1.6067479815,
				"y": -2.0507554187,
				"z": -1.4925050784,
				"element": "H" 
			},
			{
				"x": 0.7887642386,
				"y": -2.7131598173,
				"z": -0.0687976335,
				"element": "H" 
			},
			{
				"x": -0.0159014617,
				"y": 1.579067948,
				"z": -3.3920122753,
				"element": "H" 
			},
			{
				"x": -1.1067130208,
				"y": 3.831647762,
				"z": -3.3870809359,
				"element": "H" 
			},
			{
				"x": -1.7826825743,
				"y": 4.8569278985,
				"z": -1.2193661474,
				"element": "H" 
			},
			{
				"x": -1.3686810498,
				"y": 3.6922092611,
				"z": 0.9052348853,
				"element": "H" 
			},
			{
				"x": -0.7768156516,
				"y": -0.1373588085,
				"z": 3.112307245,
				"element": "H" 
			},
			{
				"x": 1.0662467014,
				"y": -1.7663272343,
				"z": 1.9486012616,
				"element": "H" 
			},
			{
				"x": 1.2726220243,
				"y": -0.4130160575,
				"z": 2.8757068061,
				"element": "H" 
			}
		],
		 "valence_orbital": [ 
			{
				"type": "occ",
				"energy": -0.29404,
				"method": "rhf"
			},
			{
				"type": "occ",
				"energy": -0.27589,
				"method": "rhf"
			},
			{
				"type": "occ",
				"energy": -0.2572,
				"method": "rhf"
			},
			{
				"type": "occ",
				"energy": -0.24259,
				"method": "rhf"
			},
			{
				"type": "occ",
				"energy": -0.22879,
				"method": "rhf"
			},
			{
				"type": "unocc",
				"energy": -0.07116,
				"method": "rhf"
			},
			{
				"type": "unocc",
				"energy": -0.01911,
				"method": "rhf"
			},
			{
				"type": "unocc",
				"energy": -0.00124,
				"method": "rhf"
			},
			{
				"type": "unocc",
				"energy": 0.046,
				"method": "rhf"
			},
			{
				"type": "unocc",
				"energy": 0.0537,
				"method": "rhf"
			}
		],
		"cosmo_sigma_profile": { 
			"-0.025": 0.0,
			"-0.024": 0.0,
			"-0.023": 0.0,
			"-0.022": 0.0,
			"-0.021": 0.0,
			"-0.02": 0.0,
			"-0.019": 0.0,
			"-0.018": 0.0,
			"-0.017": 0.0,
			"-0.016": 0.0,
			"-0.015": 0.208674196981,
			"-0.014": 1.35325775222,
			"-0.013": 2.60278678266,
			"-0.012": 3.51607493209,
			"-0.011": 3.28643819483,
			"-0.01": 2.79442927649,
			"-0.009": 3.74910568629,
			"-0.008": 4.21389226811,
			"-0.007": 4.54640443074,
			"-0.006": 10.6169269106,
			"-0.005": 12.7086663506,
			"-0.004": 13.4964075486,
			"-0.003": 14.8770838191,
			"-0.002": 14.2201808035,
			"-0.001": 17.6276470031,
			"0.0": 15.6134221245,
			"0.001": 12.1156100059,
			"0.002": 12.0652834939,
			"0.003": 16.4269302204,
			"0.004": 15.9573895459,
			"0.005": 8.72525438779,
			"0.006": 4.19471139221,
			"0.007": 3.51882008327,
			"0.008": 3.85692952392,
			"0.009": 4.09220500104,
			"0.01": 5.29339845588,
			"0.011": 6.69947956366,
			"0.012": 4.19129771411,
			"0.013": 2.51504637078,
			"0.014": 0.7005207104,
			"0.015": 0.0583695114696,
			"0.016": 0.0,
			"0.017": 0.0,
			"0.018": 0.0,
			"0.019": 0.0,
			"0.02": 0.0,
			"0.021": 0.0,
			"0.022": 0.0,
			"0.023": 0.0,
			"0.024": 0.0,
			"0.025": 0.0
		}
	}
}
