{
	 "smiles": "NC1=CC2=C(CCCC2=O)C=C1", 
	 "Tm": 400.15, 
	 "num_atms": 23, 
	 "gaussian": { 
		 "optdone": 1, 
		 "sigma_profile": "yes", 
		 "theory": "DFT", 
		 "functional": "B3LYP", 
		 "basiset": "6-31G**", 
		 "properties": { 
			 "R2extent": 2116.013, 
			 "electric_dipole_moment_norm": 3.24110352195, 
			 "electric_quadrupole_moment_norm": 15.3851916264, 
			 "total_energy": -517.688539883, 
			 "HOMO_LUMO_gap": 0.15722, 
			 "cosmo_polarized_energy": -12.07, 
			 "cosmo_cavitation_energy": 25.51, 
			 "cosmo_dispersion_energy": -19.21, 
			 "cosmo_repulsion_energy": 1.53, 
			 "cosmo_total_nonelectrostatic_energy": 7.83, 
			 "SMD_solvation_energy": 4.19 
		},
		"coords": [
			{
				"x": 0.3712317762,
				"y": 3.4786675454,
				"z": 0.6675800809,
				"element": "N" 
			},
			{
				"x": 0.5301400287,
				"y": 2.0956802125,
				"z": 0.5614936717,
				"element": "C" 
			},
			{
				"x": -0.5677029169,
				"y": 1.2528317829,
				"z": 0.3653502508,
				"element": "C" 
			},
			{
				"x": -0.3992515656,
				"y": -0.1277781757,
				"z": 0.2024387897,
				"element": "C" 
			},
			{
				"x": 0.8848602463,
				"y": -0.7092276374,
				"z": 0.2276472414,
				"element": "C" 
			},
			{
				"x": 1.0713224577,
				"y": -2.2027367674,
				"z": 0.0627608355,
				"element": "C" 
			},
			{
				"x": -0.0649425122,
				"y": -2.8309899725,
				"z": -0.7531788635,
				"element": "C" 
			},
			{
				"x": -1.4218832377,
				"y": -2.4665597013,
				"z": -0.1398099807,
				"element": "C" 
			},
			{
				"x": -1.6232822112,
				"y": -0.9630561759,
				"z": 0.0047546573,
				"element": "C" 
			},
			{
				"x": -2.7428409692,
				"y": -0.4715074669,
				"z": -0.0194586581,
				"element": "O" 
			},
			{
				"x": 1.9777535497,
				"y": 0.1441203946,
				"z": 0.4217219613,
				"element": "C" 
			},
			{
				"x": 1.813500582,
				"y": 1.5150636556,
				"z": 0.586555752,
				"element": "C" 
			},
			{
				"x": -0.54996874,
				"y": 3.7817209111,
				"z": 0.952219109,
				"element": "H" 
			},
			{
				"x": 1.1007303789,
				"y": 3.9598605973,
				"z": 1.1752257728,
				"element": "H" 
			},
			{
				"x": -1.579552403,
				"y": 1.6466828234,
				"z": 0.3333705497,
				"element": "H" 
			},
			{
				"x": 2.0417678858,
				"y": -2.4059822359,
				"z": -0.404403986,
				"element": "H" 
			},
			{
				"x": 1.1042063748,
				"y": -2.6832347069,
				"z": 1.0532463265,
				"element": "H" 
			},
			{
				"x": -0.018498377,
				"y": -2.4632361346,
				"z": -1.7861401373,
				"element": "H" 
			},
			{
				"x": 0.0514287766,
				"y": -3.9194426735,
				"z": -0.7969107767,
				"element": "H" 
			},
			{
				"x": -1.4937596807,
				"y": -2.8968395207,
				"z": 0.8711315808,
				"element": "H" 
			},
			{
				"x": -2.2663187743,
				"y": -2.8632921312,
				"z": -0.710443873,
				"element": "H" 
			},
			{
				"x": 2.9819658187,
				"y": -0.2729823663,
				"z": 0.4398469414,
				"element": "H" 
			},
			{
				"x": 2.6850935125,
				"y": 2.1508377434,
				"z": 0.7245027543,
				"element": "H" 
			}
		],
		 "valence_orbital": [ 
			{
				"type": "occ",
				"energy": -0.32738,
				"method": "rhf"
			},
			{
				"type": "occ",
				"energy": -0.30044,
				"method": "rhf"
			},
			{
				"type": "occ",
				"energy": -0.24988,
				"method": "rhf"
			},
			{
				"type": "occ",
				"energy": -0.23492,
				"method": "rhf"
			},
			{
				"type": "occ",
				"energy": -0.20376,
				"method": "rhf"
			},
			{
				"type": "unocc",
				"energy": -0.04654,
				"method": "rhf"
			},
			{
				"type": "unocc",
				"energy": 0.00922,
				"method": "rhf"
			},
			{
				"type": "unocc",
				"energy": 0.05069,
				"method": "rhf"
			},
			{
				"type": "unocc",
				"energy": 0.08077,
				"method": "rhf"
			},
			{
				"type": "unocc",
				"energy": 0.09778,
				"method": "rhf"
			}
		],
		"cosmo_sigma_profile": { 
			"-0.025": 0.0,
			"-0.024": 0.0,
			"-0.023": 0.0,
			"-0.022": 0.0,
			"-0.021": 0.0,
			"-0.02": 0.0,
			"-0.019": 0.0,
			"-0.018": 0.0,
			"-0.017": 0.0,
			"-0.016": 0.0,
			"-0.015": 0.0,
			"-0.014": 0.0,
			"-0.013": 0.325406716401,
			"-0.012": 2.87627223772,
			"-0.011": 2.13876338003,
			"-0.01": 3.75314913893,
			"-0.009": 2.89063609525,
			"-0.008": 2.79425650254,
			"-0.007": 2.81100782565,
			"-0.006": 5.25281887157,
			"-0.005": 10.5178027651,
			"-0.004": 16.696022582,
			"-0.003": 20.490660187,
			"-0.002": 20.156776763,
			"-0.001": 20.0127908511,
			"0.0": 13.5975457621,
			"0.001": 7.6075594214,
			"0.002": 7.61542002715,
			"0.003": 9.18841751958,
			"0.004": 10.4958751128,
			"0.005": 12.7070501612,
			"0.006": 5.46699584469,
			"0.007": 3.00466685944,
			"0.008": 2.45796793031,
			"0.009": 2.44787266667,
			"0.01": 2.31617650825,
			"0.011": 3.11812944892,
			"0.012": 4.69514720032,
			"0.013": 3.94757228724,
			"0.014": 1.45370673889,
			"0.015": 0.118853659681,
			"0.016": 0.0,
			"0.017": 0.0,
			"0.018": 0.0,
			"0.019": 0.0,
			"0.02": 0.0,
			"0.021": 0.0,
			"0.022": 0.0,
			"0.023": 0.0,
			"0.024": 0.0,
			"0.025": 0.0
		}
	}
}
