{
	 "smiles": "COC1=C(C=CC(Br)=C1)C(N)=O", 
	 "Tm": 408.15, 
	 "num_atms": 20, 
	 "gaussian": { 
		 "optdone": 1, 
		 "sigma_profile": "yes", 
		 "theory": "DFT", 
		 "functional": "B3LYP", 
		 "basiset": "6-31G**", 
		 "properties": { 
			 "R2extent": 4626.8165, 
			 "electric_dipole_moment_norm": 4.8538183835, 
			 "electric_quadrupole_moment_norm": 11.180771091, 
			 "total_energy": -3086.28485353, 
			 "HOMO_LUMO_gap": 0.19759, 
			 "cosmo_polarized_energy": -12.99, 
			 "cosmo_cavitation_energy": 26.33, 
			 "cosmo_dispersion_energy": -20.0, 
			 "cosmo_repulsion_energy": 1.6, 
			 "cosmo_total_nonelectrostatic_energy": 7.93, 
			 "SMD_solvation_energy": 4.84 
		},
		"coords": [
			{
				"x": -0.6034864999,
				"y": 0.0528051308,
				"z": 3.2398861357,
				"element": "C" 
			},
			{
				"x": 0.0102913785,
				"y": 0.399295509,
				"z": 2.0025547083,
				"element": "O" 
			},
			{
				"x": 0.1663493433,
				"y": -0.560865091,
				"z": 1.0383050497,
				"element": "C" 
			},
			{
				"x": 0.7800749318,
				"y": -0.186929164,
				"z": -0.1808626505,
				"element": "C" 
			},
			{
				"x": 0.9366726761,
				"y": -1.1724783776,
				"z": -1.1618499316,
				"element": "C" 
			},
			{
				"x": 0.5159575329,
				"y": -2.4864123345,
				"z": -0.9814430655,
				"element": "C" 
			},
			{
				"x": -0.0831356332,
				"y": -2.8195920398,
				"z": 0.228295659,
				"element": "C" 
			},
			{
				"x": -0.6791087401,
				"y": -4.6099877713,
				"z": 0.5279039076,
				"element": "Br" 
			},
			{
				"x": -0.2639886612,
				"y": -1.8784151327,
				"z": 1.2390092942,
				"element": "C" 
			},
			{
				"x": 1.3005526764,
				"y": 1.1823370669,
				"z": -0.5627048813,
				"element": "C" 
			},
			{
				"x": 1.1788413314,
				"y": 2.1864590041,
				"z": 0.3462497733,
				"element": "N" 
			},
			{
				"x": 1.8140325987,
				"y": 1.3660722004,
				"z": -1.6637019423,
				"element": "O" 
			},
			{
				"x": -0.613920481,
				"y": 0.9680793984,
				"z": 3.8326892955,
				"element": "H" 
			},
			{
				"x": -1.632212916,
				"y": -0.2950931237,
				"z": 3.0917669806,
				"element": "H" 
			},
			{
				"x": -0.0287238487,
				"y": -0.7156912728,
				"z": 3.7693243369,
				"element": "H" 
			},
			{
				"x": 1.4095873009,
				"y": -0.8614122387,
				"z": -2.0870724663,
				"element": "H" 
			},
			{
				"x": 0.6497028579,
				"y": -3.2295710965,
				"z": -1.7580030463,
				"element": "H" 
			},
			{
				"x": -0.7343986545,
				"y": -2.1799593976,
				"z": 2.1641363137,
				"element": "H" 
			},
			{
				"x": 0.7576353143,
				"y": 2.0353479502,
				"z": 1.2485601544,
				"element": "H" 
			},
			{
				"x": 1.5307774923,
				"y": 3.0908107803,
				"z": 0.0740563748,
				"element": "H" 
			}
		],
		 "valence_orbital": [ 
			{
				"type": "occ",
				"energy": -0.29253,
				"method": "rhf"
			},
			{
				"type": "occ",
				"energy": -0.25911,
				"method": "rhf"
			},
			{
				"type": "occ",
				"energy": -0.25489,
				"method": "rhf"
			},
			{
				"type": "occ",
				"energy": -0.24805,
				"method": "rhf"
			},
			{
				"type": "occ",
				"energy": -0.23841,
				"method": "rhf"
			},
			{
				"type": "unocc",
				"energy": -0.04082,
				"method": "rhf"
			},
			{
				"type": "unocc",
				"energy": -0.00778,
				"method": "rhf"
			},
			{
				"type": "unocc",
				"energy": 0.00157,
				"method": "rhf"
			},
			{
				"type": "unocc",
				"energy": 0.06361,
				"method": "rhf"
			},
			{
				"type": "unocc",
				"energy": 0.08042,
				"method": "rhf"
			}
		],
		"cosmo_sigma_profile": { 
			"-0.025": 0.0,
			"-0.024": 0.0,
			"-0.023": 0.0,
			"-0.022": 0.0,
			"-0.021": 0.0,
			"-0.02": 0.0,
			"-0.019": 0.0,
			"-0.018": 0.0,
			"-0.017": 0.0,
			"-0.016": 0.0,
			"-0.015": 0.0,
			"-0.014": 0.47753336105,
			"-0.013": 1.0574524272,
			"-0.012": 0.868622772985,
			"-0.011": 1.23123815159,
			"-0.01": 2.04801738075,
			"-0.009": 1.49671307538,
			"-0.008": 3.27256220536,
			"-0.007": 8.84111459007,
			"-0.006": 12.7280842894,
			"-0.005": 14.4200918525,
			"-0.004": 15.1986154848,
			"-0.003": 11.6970814081,
			"-0.002": 8.33842001334,
			"-0.001": 10.8189919736,
			"0.0": 16.0411051476,
			"0.001": 19.5114313092,
			"0.002": 26.1166958983,
			"0.003": 18.5169129449,
			"0.004": 16.4962035517,
			"0.005": 5.3813900145,
			"0.006": 1.4333465542,
			"0.007": 1.25160042026,
			"0.008": 1.06934106094,
			"0.009": 2.06594177273,
			"0.01": 1.2553229063,
			"0.011": 1.07623096603,
			"0.012": 1.78704261162,
			"0.013": 3.27499854389,
			"0.014": 4.87112960956,
			"0.015": 1.03741424019,
			"0.016": 0.0,
			"0.017": 0.0,
			"0.018": 0.0,
			"0.019": 0.0,
			"0.02": 0.0,
			"0.021": 0.0,
			"0.022": 0.0,
			"0.023": 0.0,
			"0.024": 0.0,
			"0.025": 0.0
		}
	}
}
