{
	 "smiles": "NC(=O)NCC(F)(F)F", 
	 "Tm": 384.15, 
	 "num_atms": 14, 
	 "gaussian": { 
		 "optdone": 1, 
		 "sigma_profile": "yes", 
		 "theory": "DFT", 
		 "functional": "B3LYP", 
		 "basiset": "6-31G**", 
		 "properties": { 
			 "R2extent": 1481.1516, 
			 "electric_dipole_moment_norm": 3.43890879204, 
			 "electric_quadrupole_moment_norm": 10.5879054066, 
			 "total_energy": -601.612895671, 
			 "HOMO_LUMO_gap": 0.308, 
			 "cosmo_polarized_energy": -14.7, 
			 "cosmo_cavitation_energy": 20.02, 
			 "cosmo_dispersion_energy": -14.15, 
			 "cosmo_repulsion_energy": 1.15, 
			 "cosmo_total_nonelectrostatic_energy": 7.02, 
			 "SMD_solvation_energy": 5.33 
		},
		"coords": [
			{
				"x": 1.3152678711,
				"y": 2.1967985014,
				"z": 0.3406295077,
				"element": "N" 
			},
			{
				"x": 1.1993356681,
				"y": 0.8564152349,
				"z": 0.6788520161,
				"element": "C" 
			},
			{
				"x": 1.6001700089,
				"y": 0.3985649648,
				"z": 1.7391285102,
				"element": "O" 
			},
			{
				"x": 0.6222909315,
				"y": 0.0798533291,
				"z": -0.3122911727,
				"element": "N" 
			},
			{
				"x": 0.5033949385,
				"y": -1.3458047166,
				"z": -0.1452317318,
				"element": "C" 
			},
			{
				"x": -0.9318581699,
				"y": -1.8113957924,
				"z": -0.3164319658,
				"element": "C" 
			},
			{
				"x": -1.0039558349,
				"y": -3.1552204532,
				"z": -0.2212252734,
				"element": "F" 
			},
			{
				"x": -1.4105320021,
				"y": -1.4613336933,
				"z": -1.5364424017,
				"element": "F" 
			},
			{
				"x": -1.7557609356,
				"y": -1.2826292909,
				"z": 0.6047815205,
				"element": "F" 
			},
			{
				"x": 0.6066425625,
				"y": 2.598492375,
				"z": -0.2579343767,
				"element": "H" 
			},
			{
				"x": 1.5665616533,
				"y": 2.7733761099,
				"z": 1.1309936073,
				"element": "H" 
			},
			{
				"x": 0.5292683981,
				"y": 0.45732595,
				"z": -1.2431157209,
				"element": "H" 
			},
			{
				"x": 0.8399856599,
				"y": -1.5875122879,
				"z": 0.8647713843,
				"element": "H" 
			},
			{
				"x": 1.1176892506,
				"y": -1.9047302308,
				"z": -0.8613839031,
				"element": "H" 
			}
		],
		 "valence_orbital": [ 
			{
				"type": "occ",
				"energy": -0.39761,
				"method": "rhf"
			},
			{
				"type": "occ",
				"energy": -0.38086,
				"method": "rhf"
			},
			{
				"type": "occ",
				"energy": -0.28374,
				"method": "rhf"
			},
			{
				"type": "occ",
				"energy": -0.26842,
				"method": "rhf"
			},
			{
				"type": "occ",
				"energy": -0.26355,
				"method": "rhf"
			},
			{
				"type": "unocc",
				"energy": 0.04445,
				"method": "rhf"
			},
			{
				"type": "unocc",
				"energy": 0.05941,
				"method": "rhf"
			},
			{
				"type": "unocc",
				"energy": 0.10056,
				"method": "rhf"
			},
			{
				"type": "unocc",
				"energy": 0.11928,
				"method": "rhf"
			},
			{
				"type": "unocc",
				"energy": 0.1302,
				"method": "rhf"
			}
		],
		"cosmo_sigma_profile": { 
			"-0.025": 0.0,
			"-0.024": 0.0,
			"-0.023": 0.0,
			"-0.022": 0.0,
			"-0.021": 0.0,
			"-0.02": 0.0,
			"-0.019": 0.0,
			"-0.018": 0.0,
			"-0.017": 0.0,
			"-0.016": 0.00315851000901,
			"-0.015": 1.70596767079,
			"-0.014": 3.13617455794,
			"-0.013": 3.51134354687,
			"-0.012": 3.09244801263,
			"-0.011": 2.94803646564,
			"-0.01": 3.27766109373,
			"-0.009": 3.02149025582,
			"-0.008": 3.77814437335,
			"-0.007": 6.16485248913,
			"-0.006": 6.26224792266,
			"-0.005": 5.34169218572,
			"-0.004": 4.86350492821,
			"-0.003": 4.60922074365,
			"-0.002": 4.64097333975,
			"-0.001": 5.04115264422,
			"0.0": 6.91296981027,
			"0.001": 7.03864454666,
			"0.002": 17.5810734242,
			"0.003": 33.8676459166,
			"0.004": 5.98094691049,
			"0.005": 2.51911931861,
			"0.006": 1.8001591218,
			"0.007": 2.37355055499,
			"0.008": 1.99473258803,
			"0.009": 1.69893904439,
			"0.01": 2.07657152739,
			"0.011": 1.5503651162,
			"0.012": 2.10157922717,
			"0.013": 3.46937495464,
			"0.014": 4.91105737051,
			"0.015": 0.766567652949,
			"0.016": 0.0,
			"0.017": 0.0,
			"0.018": 0.0,
			"0.019": 0.0,
			"0.02": 0.0,
			"0.021": 0.0,
			"0.022": 0.0,
			"0.023": 0.0,
			"0.024": 0.0,
			"0.025": 0.0
		}
	}
}
