{
	 "smiles": "CC1=C(C)C(C(O)=O)=C(C)O1", 
	 "Tm": 405.15, 
	 "num_atms": 21, 
	 "gaussian": { 
		 "optdone": 1, 
		 "sigma_profile": "yes", 
		 "theory": "DFT", 
		 "functional": "B3LYP", 
		 "basiset": "6-31G**", 
		 "properties": { 
			 "R2extent": 1937.4383, 
			 "electric_dipole_moment_norm": 4.35824721878, 
			 "electric_quadrupole_moment_norm": 8.31998300599, 
			 "total_energy": -536.557392311, 
			 "HOMO_LUMO_gap": 0.19727, 
			 "cosmo_polarized_energy": -14.09, 
			 "cosmo_cavitation_energy": 24.62, 
			 "cosmo_dispersion_energy": -18.03, 
			 "cosmo_repulsion_energy": 1.47, 
			 "cosmo_total_nonelectrostatic_energy": 8.05, 
			 "SMD_solvation_energy": 6.02 
		},
		"coords": [
			{
				"x": 2.9982256921,
				"y": -2.4579321176,
				"z": 0.497314879,
				"element": "C" 
			},
			{
				"x": 1.8599373835,
				"y": -1.5016739057,
				"z": 0.4307183867,
				"element": "C" 
			},
			{
				"x": 0.9564492878,
				"y": -1.1635469529,
				"z": -0.5309500182,
				"element": "C" 
			},
			{
				"x": 0.8460343144,
				"y": -1.7033297575,
				"z": -1.9245955587,
				"element": "C" 
			},
			{
				"x": 0.0942342372,
				"y": -0.1657119495,
				"z": 0.0746420194,
				"element": "C" 
			},
			{
				"x": -1.0072074537,
				"y": 0.5288905495,
				"z": -0.6248062635,
				"element": "C" 
			},
			{
				"x": -2.0140516871,
				"y": 1.023574113,
				"z": 0.1590552622,
				"element": "O" 
			},
			{
				"x": -1.0592791669,
				"y": 0.6798445419,
				"z": -1.8239103243,
				"element": "O" 
			},
			{
				"x": 0.5599307443,
				"y": 0.040724479,
				"z": 1.3519912604,
				"element": "C" 
			},
			{
				"x": 0.1960777118,
				"y": 0.9617797471,
				"z": 2.4682474351,
				"element": "C" 
			},
			{
				"x": 1.6277901964,
				"y": -0.7661211549,
				"z": 1.5763679255,
				"element": "O" 
			},
			{
				"x": 2.8414713431,
				"y": -3.2158229175,
				"z": 1.2737892126,
				"element": "H" 
			},
			{
				"x": 3.1150269038,
				"y": -2.9717698437,
				"z": -0.4589663045,
				"element": "H" 
			},
			{
				"x": 3.9388952948,
				"y": -1.9434756522,
				"z": 0.7250270623,
				"element": "H" 
			},
			{
				"x": 1.6353738611,
				"y": -2.4311697728,
				"z": -2.1305475976,
				"element": "H" 
			},
			{
				"x": -0.1188116902,
				"y": -2.1969044764,
				"z": -2.0845843999,
				"element": "H" 
			},
			{
				"x": 0.9075396526,
				"y": -0.896950777,
				"z": -2.6596236261,
				"element": "H" 
			},
			{
				"x": -1.9469737071,
				"y": 0.6465275419,
				"z": 1.0467630349,
				"element": "H" 
			},
			{
				"x": -0.463832342,
				"y": 1.7575146865,
				"z": 2.1164524967,
				"element": "H" 
			},
			{
				"x": -0.2989406971,
				"y": 0.4326755471,
				"z": 3.2927137293,
				"element": "H" 
			},
			{
				"x": 1.0971101212,
				"y": 1.4270780717,
				"z": 2.879901389,
				"element": "H" 
			}
		],
		 "valence_orbital": [ 
			{
				"type": "occ",
				"energy": -0.35155,
				"method": "rhf"
			},
			{
				"type": "occ",
				"energy": -0.31267,
				"method": "rhf"
			},
			{
				"type": "occ",
				"energy": -0.27681,
				"method": "rhf"
			},
			{
				"type": "occ",
				"energy": -0.26509,
				"method": "rhf"
			},
			{
				"type": "occ",
				"energy": -0.22254,
				"method": "rhf"
			},
			{
				"type": "unocc",
				"energy": -0.02527,
				"method": "rhf"
			},
			{
				"type": "unocc",
				"energy": 0.02564,
				"method": "rhf"
			},
			{
				"type": "unocc",
				"energy": 0.0625,
				"method": "rhf"
			},
			{
				"type": "unocc",
				"energy": 0.09492,
				"method": "rhf"
			},
			{
				"type": "unocc",
				"energy": 0.1003,
				"method": "rhf"
			}
		],
		"cosmo_sigma_profile": { 
			"-0.025": 0.0534044982886,
			"-0.024": 0.147547084077,
			"-0.023": 0.333860713171,
			"-0.022": 0.282245507607,
			"-0.021": 0.439051352583,
			"-0.02": 0.0986175912862,
			"-0.019": 0.197241023988,
			"-0.018": 0.0119046685173,
			"-0.017": 0.246179292483,
			"-0.016": 0.411556187529,
			"-0.015": 0.790008965461,
			"-0.014": 0.866052165884,
			"-0.013": 0.583614823803,
			"-0.012": 0.788906755851,
			"-0.011": 0.995428739849,
			"-0.01": 0.408888081195,
			"-0.009": 0.596519468166,
			"-0.008": 1.18264196565,
			"-0.007": 1.41219611027,
			"-0.006": 4.77493251376,
			"-0.005": 11.3058399301,
			"-0.004": 15.7579589082,
			"-0.003": 17.7600924636,
			"-0.002": 20.3317422961,
			"-0.001": 20.8066782784,
			"0.0": 17.2648877066,
			"0.001": 11.1068220175,
			"0.002": 14.2941089793,
			"0.003": 6.2147608097,
			"0.004": 7.84645543638,
			"0.005": 3.99222255514,
			"0.006": 3.71044808707,
			"0.007": 4.56291113963,
			"0.008": 4.71313212118,
			"0.009": 1.92385015091,
			"0.01": 15.8337715545,
			"0.011": -6.35822172572,
			"0.012": 5.2499235015,
			"0.013": 4.26771808798,
			"0.014": -1.05297326854,
			"0.015": 14.6504315844,
			"0.016": -6.53926973087,
			"0.017": -7.68358646056,
			"0.018": 8.74004548456,
			"0.019": -8.57205723156,
			"0.02": 0.0,
			"0.021": 0.0,
			"0.022": 0.0,
			"0.023": 0.0,
			"0.024": 0.0,
			"0.025": 0.0
		}
	}
}
