{
	 "smiles": "CC(OC(=O)C1=CC=C(C=C1)[N+]([O-])=O)C1=CC(=CC=C1)C(C)OC(=O)C1=CC=C(C=C1)[N+]([O-])=O", 
	 "Tm": 415.15, 
	 "num_atms": 54, 
	 "gaussian": { 
		 "optdone": 1, 
		 "sigma_profile": "yes", 
		 "theory": "DFT", 
		 "functional": "B3LYP", 
		 "basiset": "6-31G**", 
		 "properties": { 
			 "R2extent": 24734.119, 
			 "electric_dipole_moment_norm": 5.67171862049, 
			 "electric_quadrupole_moment_norm": 40.2152852147, 
			 "total_energy": -1637.74600013, 
			 "HOMO_LUMO_gap": 0.16082, 
			 "cosmo_polarized_energy": -20.95, 
			 "cosmo_cavitation_energy": 62.61, 
			 "cosmo_dispersion_energy": -41.21, 
			 "cosmo_repulsion_energy": 3.07, 
			 "cosmo_total_nonelectrostatic_energy": 24.47, 
			 "SMD_solvation_energy": 16.72 
		},
		"coords": [
			{
				"x": -3.2529952746,
				"y": 1.7709006901,
				"z": -0.5636761354,
				"element": "C" 
			},
			{
				"x": -2.5749573824,
				"y": 2.1879371141,
				"z": 0.741255644,
				"element": "C" 
			},
			{
				"x": -2.2460534345,
				"y": 0.9902333534,
				"z": 1.512396612,
				"element": "O" 
			},
			{
				"x": -3.2189246942,
				"y": 0.4862180479,
				"z": 2.2985718809,
				"element": "C" 
			},
			{
				"x": -4.3381001315,
				"y": 0.9531442782,
				"z": 2.3851255112,
				"element": "O" 
			},
			{
				"x": -2.7642771938,
				"y": -0.7188293124,
				"z": 3.0611583478,
				"element": "C" 
			},
			{
				"x": -1.4513596673,
				"y": -1.2045334373,
				"z": 2.9820575434,
				"element": "C" 
			},
			{
				"x": -1.0774835903,
				"y": -2.3274276934,
				"z": 3.7142186411,
				"element": "C" 
			},
			{
				"x": -2.031920467,
				"y": -2.9486281278,
				"z": 4.5173865726,
				"element": "C" 
			},
			{
				"x": -3.3429794844,
				"y": -2.485027026,
				"z": 4.6140596986,
				"element": "C" 
			},
			{
				"x": -3.7044273991,
				"y": -1.3615668875,
				"z": 3.8786932495,
				"element": "C" 
			},
			{
				"x": -1.6391058028,
				"y": -4.1398045433,
				"z": 5.2945770113,
				"element": "N" 
			},
			{
				"x": -0.4765501803,
				"y": -4.5276420832,
				"z": 5.1916648646,
				"element": "O" 
			},
			{
				"x": -2.4988703272,
				"y": -4.6694164994,
				"z": 5.9960406349,
				"element": "O" 
			},
			{
				"x": -1.2871555299,
				"y": 2.9555398046,
				"z": 0.5356985483,
				"element": "C" 
			},
			{
				"x": -0.1405950137,
				"y": 2.3211675514,
				"z": 0.0450011159,
				"element": "C" 
			},
			{
				"x": 1.0374311713,
				"y": 3.0400199549,
				"z": -0.1858221591,
				"element": "C" 
			},
			{
				"x": 1.0580167949,
				"y": 4.4150385757,
				"z": 0.0741703376,
				"element": "C" 
			},
			{
				"x": -0.0769545037,
				"y": 5.0560002366,
				"z": 0.5702834082,
				"element": "C" 
			},
			{
				"x": -1.2437906407,
				"y": 4.328509347,
				"z": 0.8035283492,
				"element": "C" 
			},
			{
				"x": 2.2912205775,
				"y": 2.3462796903,
				"z": -0.6722532695,
				"element": "C" 
			},
			{
				"x": 2.9394066175,
				"y": 1.4464863249,
				"z": 0.3797624904,
				"element": "C" 
			},
			{
				"x": 1.9153750966,
				"y": 1.5345085009,
				"z": -1.8285662869,
				"element": "O" 
			},
			{
				"x": 2.8708608673,
				"y": 1.31491631,
				"z": -2.7545603143,
				"element": "C" 
			},
			{
				"x": 4.010144287,
				"y": 1.7313683121,
				"z": -2.6728980313,
				"element": "O" 
			},
			{
				"x": 2.369201486,
				"y": 0.4984000928,
				"z": -3.9043563671,
				"element": "C" 
			},
			{
				"x": 1.036051346,
				"y": 0.0741191609,
				"z": -3.9971331123,
				"element": "C" 
			},
			{
				"x": 0.6184737983,
				"y": -0.6809555267,
				"z": -5.089026585,
				"element": "C" 
			},
			{
				"x": 1.5500604633,
				"y": -1.0005394263,
				"z": -6.0748951583,
				"element": "C" 
			},
			{
				"x": 2.8805097194,
				"y": -0.5901707367,
				"z": -6.0066081445,
				"element": "C" 
			},
			{
				"x": 3.2856884215,
				"y": 0.1647123621,
				"z": -4.9113647058,
				"element": "C" 
			},
			{
				"x": 1.110898808,
				"y": -1.8015348684,
				"z": -7.2336911985,
				"element": "N" 
			},
			{
				"x": -0.0680371349,
				"y": -2.1498685859,
				"z": -7.26989819,
				"element": "O" 
			},
			{
				"x": 1.9513372663,
				"y": -2.0701818367,
				"z": -8.0899773315,
				"element": "O" 
			},
			{
				"x": -4.1853926524,
				"y": 1.2414174496,
				"z": -0.3535139156,
				"element": "H" 
			},
			{
				"x": -3.4835872134,
				"y": 2.6578489903,
				"z": -1.1611232126,
				"element": "H" 
			},
			{
				"x": -2.5954007713,
				"y": 1.1238884095,
				"z": -1.1517487325,
				"element": "H" 
			},
			{
				"x": -3.2730008173,
				"y": 2.77816674,
				"z": 1.3399760694,
				"element": "H" 
			},
			{
				"x": -0.7300066074,
				"y": -0.6986088225,
				"z": 2.3520146725,
				"element": "H" 
			},
			{
				"x": -0.0719832152,
				"y": -2.7268490353,
				"z": 3.676511709,
				"element": "H" 
			},
			{
				"x": -4.0467200503,
				"y": -3.0030282095,
				"z": 5.2531407073,
				"element": "H" 
			},
			{
				"x": -4.712139588,
				"y": -0.9642458528,
				"z": 3.9242485908,
				"element": "H" 
			},
			{
				"x": -0.1653906747,
				"y": 1.2550809734,
				"z": -0.1597346123,
				"element": "H" 
			},
			{
				"x": 1.9652650144,
				"y": 4.9842929857,
				"z": -0.1109678256,
				"element": "H" 
			},
			{
				"x": -0.0521526746,
				"y": 6.1221249658,
				"z": 0.7750494525,
				"element": "H" 
			},
			{
				"x": -2.12616273,
				"y": 4.8288530545,
				"z": 1.1940397147,
				"element": "H" 
			},
			{
				"x": 3.0197614058,
				"y": 3.0843534588,
				"z": -1.0165886506,
				"element": "H" 
			},
			{
				"x": 3.2046133182,
				"y": 2.0383976378,
				"z": 1.260729618,
				"element": "H" 
			},
			{
				"x": 3.848852451,
				"y": 0.9913611621,
				"z": -0.0198111273,
				"element": "H" 
			},
			{
				"x": 2.2488516755,
				"y": 0.6577985161,
				"z": 0.692794314,
				"element": "H" 
			},
			{
				"x": 0.3333962038,
				"y": 0.3409088157,
				"z": -3.21716526,
				"element": "H" 
			},
			{
				"x": -0.4035584183,
				"y": -1.0229293546,
				"z": -5.1914606868,
				"element": "H" 
			},
			{
				"x": 3.5651111547,
				"y": -0.8640828542,
				"z": -6.7992558788,
				"element": "H" 
			},
			{
				"x": 4.3099053209,
				"y": 0.5074778528,
				"z": -4.8169584175,
				"element": "H" 
			}
		],
		 "valence_orbital": [ 
			{
				"type": "occ",
				"energy": -0.29307,
				"method": "rhf"
			},
			{
				"type": "occ",
				"energy": -0.28869,
				"method": "rhf"
			},
			{
				"type": "occ",
				"energy": -0.28869,
				"method": "rhf"
			},
			{
				"type": "occ",
				"energy": -0.26802,
				"method": "rhf"
			},
			{
				"type": "occ",
				"energy": -0.26708,
				"method": "rhf"
			},
			{
				"type": "unocc",
				"energy": -0.10626,
				"method": "rhf"
			},
			{
				"type": "unocc",
				"energy": -0.10625,
				"method": "rhf"
			},
			{
				"type": "unocc",
				"energy": -0.04255,
				"method": "rhf"
			},
			{
				"type": "unocc",
				"energy": -0.04202,
				"method": "rhf"
			},
			{
				"type": "unocc",
				"energy": -0.03741,
				"method": "rhf"
			}
		],
		"cosmo_sigma_profile": { 
			"-0.025": 0.0,
			"-0.024": 0.0,
			"-0.023": 0.0,
			"-0.022": 0.0,
			"-0.021": 0.0,
			"-0.02": 0.0,
			"-0.019": 0.0,
			"-0.018": 0.0,
			"-0.017": 0.0,
			"-0.016": 0.0,
			"-0.015": 0.0,
			"-0.014": 0.0,
			"-0.013": 0.0,
			"-0.012": 0.0,
			"-0.011": 0.0,
			"-0.01": 0.0,
			"-0.009": 0.367419285108,
			"-0.008": 4.95581056894,
			"-0.007": 18.1108338525,
			"-0.006": 24.9854188242,
			"-0.005": 29.4684102818,
			"-0.004": 39.7652371277,
			"-0.003": 41.2319460177,
			"-0.002": 45.0203389188,
			"-0.001": 56.7779597408,
			"0.0": 58.9351014669,
			"0.001": 34.1017939372,
			"0.002": 18.0724021883,
			"0.003": 16.4632296991,
			"0.004": 20.5949325064,
			"0.005": 17.6954845999,
			"0.006": 11.4299468433,
			"0.007": 21.2941093991,
			"0.008": 14.7952770565,
			"0.009": 11.2943506736,
			"0.01": 6.7484249959,
			"0.011": 7.41623620385,
			"0.012": 1.71135061741,
			"0.013": 0.0,
			"0.014": 0.0,
			"0.015": 0.0,
			"0.016": 0.0,
			"0.017": 0.0,
			"0.018": 0.0,
			"0.019": 0.0,
			"0.02": 0.0,
			"0.021": 0.0,
			"0.022": 0.0,
			"0.023": 0.0,
			"0.024": 0.0,
			"0.025": 0.0
		}
	}
}
