{
	 "smiles": "CCN1CCNCC1", 
	 "Tm": 213.15, 
	 "num_atms": 22, 
	 "gaussian": { 
		 "optdone": 1, 
		 "sigma_profile": "yes", 
		 "theory": "DFT", 
		 "functional": "B3LYP", 
		 "basiset": "6-31G**", 
		 "properties": { 
			 "R2extent": 1245.6543, 
			 "electric_dipole_moment_norm": 1.29995186834, 
			 "electric_quadrupole_moment_norm": 3.95584121395, 
			 "total_energy": -346.55815878, 
			 "HOMO_LUMO_gap": 0.28534, 
			 "cosmo_polarized_energy": -4.9, 
			 "cosmo_cavitation_energy": 22.17, 
			 "cosmo_dispersion_energy": -16.82, 
			 "cosmo_repulsion_energy": 1.4, 
			 "cosmo_total_nonelectrostatic_energy": 6.75, 
			 "SMD_solvation_energy": -1.18 
		},
		"coords": [
			{
				"x": -0.1241063599,
				"y": -3.3278048604,
				"z": 0.8321645909,
				"element": "C" 
			},
			{
				"x": -0.8949419926,
				"y": -2.0144917936,
				"z": 0.6837949545,
				"element": "C" 
			},
			{
				"x": -0.0344792657,
				"y": -0.8650264098,
				"z": 0.4136814509,
				"element": "N" 
			},
			{
				"x": -0.7821489715,
				"y": 0.3248854638,
				"z": 0.0120866282,
				"element": "C" 
			},
			{
				"x": 0.1987621513,
				"y": 1.3552723764,
				"z": -0.6118126999,
				"element": "C" 
			},
			{
				"x": 1.575711322,
				"y": 1.2149932738,
				"z": -0.1186117688,
				"element": "N" 
			},
			{
				"x": 1.5634168585,
				"y": 0.8205325065,
				"z": 1.2885751764,
				"element": "C" 
			},
			{
				"x": 0.8602915742,
				"y": -0.5449829339,
				"z": 1.5326402291,
				"element": "C" 
			},
			{
				"x": -0.8239105355,
				"y": -4.1660740233,
				"z": 0.9097046124,
				"element": "H" 
			},
			{
				"x": 0.5030101436,
				"y": -3.3424568572,
				"z": 1.7284696297,
				"element": "H" 
			},
			{
				"x": 0.5190972049,
				"y": -3.4936503475,
				"z": -0.0377363107,
				"element": "H" 
			},
			{
				"x": -1.5196370388,
				"y": -1.851472996,
				"z": 1.5859745256,
				"element": "H" 
			},
			{
				"x": -1.5882953726,
				"y": -2.1068062268,
				"z": -0.1609525839,
				"element": "H" 
			},
			{
				"x": -1.3271576925,
				"y": 0.7748043001,
				"z": 0.8664041162,
				"element": "H" 
			},
			{
				"x": -1.5422512627,
				"y": 0.0355528413,
				"z": -0.7216696999,
				"element": "H" 
			},
			{
				"x": 0.221351721,
				"y": 1.2457525571,
				"z": -1.7005718328,
				"element": "H" 
			},
			{
				"x": -0.1566356135,
				"y": 2.3721976364,
				"z": -0.3980627786,
				"element": "H" 
			},
			{
				"x": 2.018539026,
				"y": 0.4666355237,
				"z": -0.6466363661,
				"element": "H" 
			},
			{
				"x": 2.5906284302,
				"y": 0.7864778905,
				"z": 1.6662078553,
				"element": "H" 
			},
			{
				"x": 1.0515195278,
				"y": 1.6132313176,
				"z": 1.8477637427,
				"element": "H" 
			},
			{
				"x": 0.3110800678,
				"y": -0.5143158983,
				"z": 2.4964524959,
				"element": "H" 
			},
			{
				"x": 1.6079560778,
				"y": -1.3410533405,
				"z": 1.618834033,
				"element": "H" 
			}
		],
		 "valence_orbital": [ 
			{
				"type": "occ",
				"energy": -0.34615,
				"method": "rhf"
			},
			{
				"type": "occ",
				"energy": -0.33268,
				"method": "rhf"
			},
			{
				"type": "occ",
				"energy": -0.31895,
				"method": "rhf"
			},
			{
				"type": "occ",
				"energy": -0.21508,
				"method": "rhf"
			},
			{
				"type": "occ",
				"energy": -0.2077,
				"method": "rhf"
			},
			{
				"type": "unocc",
				"energy": 0.07764,
				"method": "rhf"
			},
			{
				"type": "unocc",
				"energy": 0.10569,
				"method": "rhf"
			},
			{
				"type": "unocc",
				"energy": 0.11119,
				"method": "rhf"
			},
			{
				"type": "unocc",
				"energy": 0.1199,
				"method": "rhf"
			},
			{
				"type": "unocc",
				"energy": 0.13253,
				"method": "rhf"
			}
		],
		"cosmo_sigma_profile": { 
			"-0.025": 0.0,
			"-0.024": 0.0,
			"-0.023": 0.0,
			"-0.022": 0.0,
			"-0.021": 0.0,
			"-0.02": 0.0,
			"-0.019": 0.0,
			"-0.018": 0.0,
			"-0.017": 0.0,
			"-0.016": 0.0,
			"-0.015": 0.0,
			"-0.014": 0.0,
			"-0.013": 0.0,
			"-0.012": 0.0,
			"-0.011": 0.0,
			"-0.01": 0.0,
			"-0.009": 0.560250054001,
			"-0.008": 0.955245890083,
			"-0.007": 1.29797581314,
			"-0.006": 0.980698886753,
			"-0.005": 1.26399467389,
			"-0.004": 6.04858853215,
			"-0.003": 22.4531921863,
			"-0.002": 28.0591154766,
			"-0.001": 34.6661392442,
			"0.0": 30.5926436843,
			"0.001": 15.281308845,
			"0.002": 5.63834081073,
			"0.003": 3.17655745042,
			"0.004": 2.6048430698,
			"0.005": 1.77850563612,
			"0.006": 1.50829991726,
			"0.007": 1.78475600876,
			"0.008": 2.06094325527,
			"0.009": 0.695584436835,
			"0.01": 1.35102071657,
			"0.011": 1.57384708258,
			"0.012": 0.902862853604,
			"0.013": 0.900766813733,
			"0.014": 0.743616275129,
			"0.015": 1.13786231754,
			"0.016": 0.4683845927,
			"0.017": 0.789857883657,
			"0.018": 0.348599105195,
			"0.019": 0.464329013733,
			"0.02": 0.0,
			"0.021": 0.0,
			"0.022": 0.0,
			"0.023": 0.0,
			"0.024": 0.0,
			"0.025": 0.0
		}
	}
}
