{
	 "smiles": "CC(Cl)C1=NN=NN1C1=CC=CC=C1", 
	 "Tm": 369.15, 
	 "num_atms": 23, 
	 "gaussian": { 
		 "optdone": 1, 
		 "sigma_profile": "yes", 
		 "theory": "DFT", 
		 "functional": "B3LYP", 
		 "basiset": "6-31G**", 
		 "properties": { 
			 "R2extent": 3370.6275, 
			 "electric_dipole_moment_norm": 5.66252728205, 
			 "electric_quadrupole_moment_norm": 16.79455779, 
			 "total_energy": -1027.5298503, 
			 "HOMO_LUMO_gap": 0.21646, 
			 "cosmo_polarized_energy": -14.6, 
			 "cosmo_cavitation_energy": 29.4, 
			 "cosmo_dispersion_energy": -20.56, 
			 "cosmo_repulsion_energy": 1.63, 
			 "cosmo_total_nonelectrostatic_energy": 10.47, 
			 "SMD_solvation_energy": 2.95 
		},
		"coords": [
			{
				"x": -1.4568321191,
				"y": -0.9143004506,
				"z": 2.9068507314,
				"element": "C" 
			},
			{
				"x": -1.2315237284,
				"y": -0.1830704318,
				"z": 1.5911450815,
				"element": "C" 
			},
			{
				"x": -2.3756489142,
				"y": 1.2592376689,
				"z": 1.4700079868,
				"element": "Cl" 
			},
			{
				"x": -1.4416983743,
				"y": -1.0586492131,
				"z": 0.3988606831,
				"element": "C" 
			},
			{
				"x": -2.1536754377,
				"y": -2.1702799515,
				"z": 0.3804282107,
				"element": "N" 
			},
			{
				"x": -2.1359937927,
				"y": -2.6129893872,
				"z": -0.9017704526,
				"element": "N" 
			},
			{
				"x": -1.4490350535,
				"y": -1.8244969659,
				"z": -1.6601466035,
				"element": "N" 
			},
			{
				"x": -0.9853425944,
				"y": -0.825912627,
				"z": -0.8604595505,
				"element": "N" 
			},
			{
				"x": -0.190818457,
				"y": 0.2355755801,
				"z": -1.3946588958,
				"element": "C" 
			},
			{
				"x": 1.0925531412,
				"y": 0.4640670684,
				"z": -0.8932103865,
				"element": "C" 
			},
			{
				"x": 1.8548478379,
				"y": 1.5054898063,
				"z": -1.4228834594,
				"element": "C" 
			},
			{
				"x": 1.3434984641,
				"y": 2.2940012146,
				"z": -2.4551062313,
				"element": "C" 
			},
			{
				"x": 0.0660463061,
				"y": 2.0423034541,
				"z": -2.9613561267,
				"element": "C" 
			},
			{
				"x": -0.7107335072,
				"y": 1.0139229746,
				"z": -2.4305854573,
				"element": "C" 
			},
			{
				"x": -0.7291357629,
				"y": -1.7270027204,
				"z": 2.9993824815,
				"element": "H" 
			},
			{
				"x": -1.3285995121,
				"y": -0.225470545,
				"z": 3.7439486321,
				"element": "H" 
			},
			{
				"x": -2.4569253638,
				"y": -1.3482429016,
				"z": 2.9403142715,
				"element": "H" 
			},
			{
				"x": -0.2423165587,
				"y": 0.2738250963,
				"z": 1.5563052736,
				"element": "H" 
			},
			{
				"x": 1.4962578304,
				"y": -0.1806692241,
				"z": -0.1189445222,
				"element": "H" 
			},
			{
				"x": 2.8529125737,
				"y": 1.689189149,
				"z": -1.03756874,
				"element": "H" 
			},
			{
				"x": 1.9417846244,
				"y": 3.1000213471,
				"z": -2.8686671866,
				"element": "H" 
			},
			{
				"x": -0.3307222102,
				"y": 2.6511020405,
				"z": -3.7677014537,
				"element": "H" 
			},
			{
				"x": -1.7066993912,
				"y": 0.8069490183,
				"z": -2.805684286,
				"element": "H" 
			}
		],
		 "valence_orbital": [ 
			{
				"type": "occ",
				"energy": -0.30031,
				"method": "rhf"
			},
			{
				"type": "occ",
				"energy": -0.29619,
				"method": "rhf"
			},
			{
				"type": "occ",
				"energy": -0.29196,
				"method": "rhf"
			},
			{
				"type": "occ",
				"energy": -0.27943,
				"method": "rhf"
			},
			{
				"type": "occ",
				"energy": -0.26846,
				"method": "rhf"
			},
			{
				"type": "unocc",
				"energy": -0.052,
				"method": "rhf"
			},
			{
				"type": "unocc",
				"energy": -0.03111,
				"method": "rhf"
			},
			{
				"type": "unocc",
				"energy": -0.02559,
				"method": "rhf"
			},
			{
				"type": "unocc",
				"energy": -0.00082,
				"method": "rhf"
			},
			{
				"type": "unocc",
				"energy": 0.04918,
				"method": "rhf"
			}
		],
		"cosmo_sigma_profile": { 
			"-0.025": 0.0,
			"-0.024": 0.0,
			"-0.023": 0.0,
			"-0.022": 0.0,
			"-0.021": 0.0,
			"-0.02": 0.0,
			"-0.019": 0.0,
			"-0.018": 0.0,
			"-0.017": 0.0,
			"-0.016": 0.0,
			"-0.015": 0.0,
			"-0.014": 0.0,
			"-0.013": 0.0,
			"-0.012": 0.114687209915,
			"-0.011": 0.882057812198,
			"-0.01": 1.64731491802,
			"-0.009": 3.31967825044,
			"-0.008": 4.66187237332,
			"-0.007": 10.625797077,
			"-0.006": 17.1850151106,
			"-0.005": 19.3614912953,
			"-0.004": 15.3066504764,
			"-0.003": 13.4869843613,
			"-0.002": 13.9914437311,
			"-0.001": 16.091729763,
			"0.0": 13.3239794242,
			"0.001": 12.5042273117,
			"0.002": 17.174150324,
			"0.003": 21.2794568014,
			"0.004": 11.107797494,
			"0.005": 11.4684615192,
			"0.006": 7.10748757363,
			"0.007": 4.01455844672,
			"0.008": 5.49516332844,
			"0.009": 4.23349831635,
			"0.01": 4.97044622523,
			"0.011": 3.47373248882,
			"0.012": 2.63532711458,
			"0.013": 1.92215401845,
			"0.014": 0.383948713706,
			"0.015": 0.0,
			"0.016": 0.0,
			"0.017": 0.0,
			"0.018": 0.0,
			"0.019": 0.0,
			"0.02": 0.0,
			"0.021": 0.0,
			"0.022": 0.0,
			"0.023": 0.0,
			"0.024": 0.0,
			"0.025": 0.0
		}
	}
}
