{
	 "smiles": "CC(NC(=O)OC(C)(C)C)C1=CC=C(CN)C=C1", 
	 "Tm": 352.15, 
	 "num_atms": 40, 
	 "gaussian": { 
		 "optdone": 1, 
		 "sigma_profile": "yes", 
		 "theory": "DFT", 
		 "functional": "B3LYP", 
		 "basiset": "6-31G**", 
		 "properties": { 
			 "R2extent": 6269.1398, 
			 "electric_dipole_moment_norm": 3.41878556508, 
			 "electric_quadrupole_moment_norm": 12.4420950852, 
			 "total_energy": -806.74306796, 
			 "HOMO_LUMO_gap": 0.22766, 
			 "cosmo_polarized_energy": -14.25, 
			 "cosmo_cavitation_energy": 41.95, 
			 "cosmo_dispersion_energy": -27.49, 
			 "cosmo_repulsion_energy": 2.2, 
			 "cosmo_total_nonelectrostatic_energy": 16.66, 
			 "SMD_solvation_energy": 7.12 
		},
		"coords": [
			{
				"x": 2.9616996493,
				"y": -1.3055134147,
				"z": 1.2531343635,
				"element": "C" 
			},
			{
				"x": 1.6095575212,
				"y": -0.9362158165,
				"z": 0.6221324081,
				"element": "C" 
			},
			{
				"x": 1.1387652746,
				"y": 0.3025791091,
				"z": 1.2375113811,
				"element": "N" 
			},
			{
				"x": -0.1367830267,
				"y": 0.8009574279,
				"z": 1.1931836281,
				"element": "C" 
			},
			{
				"x": -0.4364621586,
				"y": 1.9046397291,
				"z": 1.6223004958,
				"element": "O" 
			},
			{
				"x": -0.9787345867,
				"y": -0.1030481926,
				"z": 0.640566937,
				"element": "O" 
			},
			{
				"x": -2.4031635094,
				"y": 0.2071701162,
				"z": 0.4541342539,
				"element": "C" 
			},
			{
				"x": -2.5579867834,
				"y": 1.4129384596,
				"z": -0.4791718775,
				"element": "C" 
			},
			{
				"x": -2.9346071129,
				"y": -1.0654321485,
				"z": -0.2109857175,
				"element": "C" 
			},
			{
				"x": -3.0744698548,
				"y": 0.4343507607,
				"z": 1.8128682583,
				"element": "C" 
			},
			{
				"x": 1.7134434564,
				"y": -0.8709293861,
				"z": -0.9007107362,
				"element": "C" 
			},
			{
				"x": 1.4287838961,
				"y": -2.0059016152,
				"z": -1.6672970692,
				"element": "C" 
			},
			{
				"x": 1.5665548682,
				"y": -1.985274266,
				"z": -3.0553117057,
				"element": "C" 
			},
			{
				"x": 1.9992022665,
				"y": -0.8306054533,
				"z": -3.7169120666,
				"element": "C" 
			},
			{
				"x": 2.1834556612,
				"y": -0.8254321136,
				"z": -5.2231771369,
				"element": "C" 
			},
			{
				"x": 1.8645362016,
				"y": 0.4807068703,
				"z": -5.8075407892,
				"element": "N" 
			},
			{
				"x": 2.277111141,
				"y": 0.3087856535,
				"z": -2.95087889,
				"element": "C" 
			},
			{
				"x": 2.1352405732,
				"y": 0.2873240216,
				"z": -1.5639712913,
				"element": "C" 
			},
			{
				"x": 3.3273852625,
				"y": -2.2493299301,
				"z": 0.841271419,
				"element": "H" 
			},
			{
				"x": 3.7133488896,
				"y": -0.5379413299,
				"z": 1.0352121364,
				"element": "H" 
			},
			{
				"x": 2.8687020644,
				"y": -1.4075532054,
				"z": 2.3390013786,
				"element": "H" 
			},
			{
				"x": 0.8852036254,
				"y": -1.7174567575,
				"z": 0.8730727079,
				"element": "H" 
			},
			{
				"x": 1.8141588992,
				"y": 0.9616248745,
				"z": 1.5949943038,
				"element": "H" 
			},
			{
				"x": -3.6174779471,
				"y": 1.5665335904,
				"z": -0.7091343893,
				"element": "H" 
			},
			{
				"x": -2.0266288481,
				"y": 1.2337699504,
				"z": -1.4191650282,
				"element": "H" 
			},
			{
				"x": -2.1621272181,
				"y": 2.3168457989,
				"z": -0.0157548149,
				"element": "H" 
			},
			{
				"x": -2.7924619996,
				"y": -1.93102938,
				"z": 0.4429608032,
				"element": "H" 
			},
			{
				"x": -2.4098666415,
				"y": -1.2544955875,
				"z": -1.1518607543,
				"element": "H" 
			},
			{
				"x": -4.0034269967,
				"y": -0.9624698716,
				"z": -0.4212591702,
				"element": "H" 
			},
			{
				"x": -2.9088707426,
				"y": -0.427868418,
				"z": 2.4668452691,
				"element": "H" 
			},
			{
				"x": -2.6780818956,
				"y": 1.3269474034,
				"z": 2.2971296095,
				"element": "H" 
			},
			{
				"x": -4.1542403333,
				"y": 0.5533642755,
				"z": 1.674751814,
				"element": "H" 
			},
			{
				"x": 1.081761472,
				"y": -2.9122663351,
				"z": -1.1754773459,
				"element": "H" 
			},
			{
				"x": 1.3251302654,
				"y": -2.8757499775,
				"z": -3.6318680482,
				"element": "H" 
			},
			{
				"x": 1.6087058864,
				"y": -1.6667101525,
				"z": -5.6488704252,
				"element": "H" 
			},
			{
				"x": 3.2376055602,
				"y": -1.0326610257,
				"z": -5.455934868,
				"element": "H" 
			},
			{
				"x": 2.0684504754,
				"y": 0.4757436376,
				"z": -6.803279543,
				"element": "H" 
			},
			{
				"x": 0.8694504643,
				"y": 0.6687486771,
				"z": -5.7104992968,
				"element": "H" 
			},
			{
				"x": 2.5922424298,
				"y": 1.2143213357,
				"z": -3.459425596,
				"element": "H" 
			},
			{
				"x": 2.3403938511,
				"y": 1.1883326859,
				"z": -0.9919846073,
				"element": "H" 
			}
		],
		 "valence_orbital": [ 
			{
				"type": "occ",
				"energy": -0.25491,
				"method": "rhf"
			},
			{
				"type": "occ",
				"energy": -0.24829,
				"method": "rhf"
			},
			{
				"type": "occ",
				"energy": -0.24498,
				"method": "rhf"
			},
			{
				"type": "occ",
				"energy": -0.24112,
				"method": "rhf"
			},
			{
				"type": "occ",
				"energy": -0.22654,
				"method": "rhf"
			},
			{
				"type": "unocc",
				"energy": 0.00112,
				"method": "rhf"
			},
			{
				"type": "unocc",
				"energy": 0.00239,
				"method": "rhf"
			},
			{
				"type": "unocc",
				"energy": 0.06109,
				"method": "rhf"
			},
			{
				"type": "unocc",
				"energy": 0.0837,
				"method": "rhf"
			},
			{
				"type": "unocc",
				"energy": 0.08611,
				"method": "rhf"
			}
		],
		"cosmo_sigma_profile": { 
			"-0.025": 0.0,
			"-0.024": 0.0,
			"-0.023": 0.0,
			"-0.022": 0.0,
			"-0.021": 0.0,
			"-0.02": 0.0,
			"-0.019": 0.0,
			"-0.018": 0.0,
			"-0.017": 0.0,
			"-0.016": 0.0,
			"-0.015": 0.0,
			"-0.014": 0.0755012494431,
			"-0.013": 0.68014531783,
			"-0.012": 0.814836948061,
			"-0.011": 1.09472088626,
			"-0.01": 1.86961601732,
			"-0.009": 3.97607980262,
			"-0.008": 3.92788737069,
			"-0.007": 3.78796286783,
			"-0.006": 5.77276834122,
			"-0.005": 12.1818889555,
			"-0.004": 26.3264688718,
			"-0.003": 36.8543474724,
			"-0.002": 35.7293033888,
			"-0.001": 33.8467107437,
			"0.0": 38.6007410434,
			"0.001": 30.4260983999,
			"0.002": 14.8017461151,
			"0.003": 13.1246017388,
			"0.004": 12.1451344709,
			"0.005": 11.7773275134,
			"0.006": 12.3206113768,
			"0.007": 6.45686911634,
			"0.008": 2.70571236898,
			"0.009": 1.76513160826,
			"0.01": 1.92538627824,
			"0.011": 2.88499635811,
			"0.012": 2.15506474743,
			"0.013": 3.62810525072,
			"0.014": 3.3758721691,
			"0.015": 0.849043616761,
			"0.016": 0.317794983994,
			"0.017": 0.566837462846,
			"0.018": 0.00678482547118,
			"0.019": 0.0,
			"0.02": 0.0,
			"0.021": 0.0,
			"0.022": 0.0,
			"0.023": 0.0,
			"0.024": 0.0,
			"0.025": 0.0
		}
	}
}
