{
	 "smiles": "CC1CC2C3CC=C4CC(O)CCC4(C)C3CCC2(C)C1(O)C(C)=O", 
	 "Tm": 500.15, 
	 "num_atms": 59, 
	 "gaussian": { 
		 "optdone": 1, 
		 "sigma_profile": "yes", 
		 "theory": "DFT", 
		 "functional": "B3LYP", 
		 "basiset": "6-31G**", 
		 "properties": { 
			 "R2extent": 10542.3576, 
			 "electric_dipole_moment_norm": 2.56290314682, 
			 "electric_quadrupole_moment_norm": 26.9422136407, 
			 "total_energy": -1084.49271273, 
			 "HOMO_LUMO_gap": 0.19762, 
			 "cosmo_polarized_energy": -13.97, 
			 "cosmo_cavitation_energy": 49.37, 
			 "cosmo_dispersion_energy": -34.56, 
			 "cosmo_repulsion_energy": 2.52, 
			 "cosmo_total_nonelectrostatic_energy": 17.33, 
			 "SMD_solvation_energy": 7.55 
		},
		"coords": [
			{
				"x": -2.3255704398,
				"y": 4.0000165396,
				"z": -0.6979069425,
				"element": "C" 
			},
			{
				"x": -1.4949187669,
				"y": 2.8859745531,
				"z": -0.0563859194,
				"element": "C" 
			},
			{
				"x": -1.9695408945,
				"y": 1.4378919688,
				"z": -0.3131046732,
				"element": "C" 
			},
			{
				"x": -1.629312342,
				"y": 0.6089931081,
				"z": 0.9681779706,
				"element": "C" 
			},
			{
				"x": -1.0005590249,
				"y": -0.7884991639,
				"z": 0.7530879663,
				"element": "C" 
			},
			{
				"x": -1.9388380544,
				"y": -1.706427296,
				"z": -0.0567931147,
				"element": "C" 
			},
			{
				"x": -1.2492986001,
				"y": -2.9461637571,
				"z": -0.5527393775,
				"element": "C" 
			},
			{
				"x": 0.0056937057,
				"y": -2.9392864651,
				"z": -1.020080344,
				"element": "C" 
			},
			{
				"x": 0.5696972515,
				"y": -4.1695629278,
				"z": -1.7072077049,
				"element": "C" 
			},
			{
				"x": 2.0716339214,
				"y": -4.3884196926,
				"z": -1.5012423813,
				"element": "C" 
			},
			{
				"x": 2.5403733158,
				"y": -5.5272781299,
				"z": -2.2167037596,
				"element": "O" 
			},
			{
				"x": 2.8210516837,
				"y": -3.1083317002,
				"z": -1.8681747915,
				"element": "C" 
			},
			{
				"x": 2.3528516706,
				"y": -1.9437111415,
				"z": -0.9872189204,
				"element": "C" 
			},
			{
				"x": 0.8218859876,
				"y": -1.6386525603,
				"z": -1.0313523742,
				"element": "C" 
			},
			{
				"x": 0.4962024296,
				"y": -0.8989332368,
				"z": -2.3545509009,
				"element": "C" 
			},
			{
				"x": 0.488745619,
				"y": -0.7829102971,
				"z": 0.2511253775,
				"element": "C" 
			},
			{
				"x": 1.0567145377,
				"y": 0.6493124019,
				"z": 0.2202940955,
				"element": "C" 
			},
			{
				"x": 0.7484742132,
				"y": 1.4008705098,
				"z": 1.5235193522,
				"element": "C" 
			},
			{
				"x": -0.7712754298,
				"y": 1.5445745882,
				"z": 1.8723887696,
				"element": "C" 
			},
			{
				"x": -0.9357784172,
				"y": 1.2672357864,
				"z": 3.3760246815,
				"element": "C" 
			},
			{
				"x": -1.2765419177,
				"y": 2.9990100985,
				"z": 1.4801238491,
				"element": "C" 
			},
			{
				"x": -0.3155592697,
				"y": 3.9929911206,
				"z": 1.7539083917,
				"element": "O" 
			},
			{
				"x": -2.5592507878,
				"y": 3.4204915145,
				"z": 2.2495219173,
				"element": "C" 
			},
			{
				"x": -3.8877306771,
				"y": 2.7050448587,
				"z": 2.1176762972,
				"element": "C" 
			},
			{
				"x": -2.4760882606,
				"y": 4.3880850496,
				"z": 2.9945859065,
				"element": "O" 
			},
			{
				"x": -2.2809988686,
				"y": 3.9369405148,
				"z": -1.7902994047,
				"element": "H" 
			},
			{
				"x": -3.3830979282,
				"y": 3.9579668425,
				"z": -0.414422718,
				"element": "H" 
			},
			{
				"x": -1.9326376498,
				"y": 4.9785178139,
				"z": -0.4036886676,
				"element": "H" 
			},
			{
				"x": -0.4780780481,
				"y": 2.9916679195,
				"z": -0.4505107048,
				"element": "H" 
			},
			{
				"x": -1.4876267508,
				"y": 1.0329754308,
				"z": -1.207620363,
				"element": "H" 
			},
			{
				"x": -3.0458277958,
				"y": 1.4049594865,
				"z": -0.5187558496,
				"element": "H" 
			},
			{
				"x": -2.5748531781,
				"y": 0.4156249642,
				"z": 1.4899808003,
				"element": "H" 
			},
			{
				"x": -0.9613917813,
				"y": -1.2378474809,
				"z": 1.7534955808,
				"element": "H" 
			},
			{
				"x": -2.3473014112,
				"y": -1.1606742298,
				"z": -0.9207066077,
				"element": "H" 
			},
			{
				"x": -2.8080110031,
				"y": -1.9670989583,
				"z": 0.5594954457,
				"element": "H" 
			},
			{
				"x": -1.8313320454,
				"y": -3.8657594534,
				"z": -0.6011201401,
				"element": "H" 
			},
			{
				"x": 0.0128539486,
				"y": -5.0620725762,
				"z": -1.4033505157,
				"element": "H" 
			},
			{
				"x": 0.4152706231,
				"y": -4.0663733992,
				"z": -2.7960296124,
				"element": "H" 
			},
			{
				"x": 2.2656058755,
				"y": -4.6247501191,
				"z": -0.4470230259,
				"element": "H" 
			},
			{
				"x": 2.3795858181,
				"y": -5.365043889,
				"z": -3.1566315087,
				"element": "H" 
			},
			{
				"x": 2.6529340252,
				"y": -2.8889816565,
				"z": -2.9334217779,
				"element": "H" 
			},
			{
				"x": 3.8988079251,
				"y": -3.2632809305,
				"z": -1.7455142061,
				"element": "H" 
			},
			{
				"x": 2.9097353246,
				"y": -1.0376395631,
				"z": -1.2494631298,
				"element": "H" 
			},
			{
				"x": 2.6302322636,
				"y": -2.1833943971,
				"z": 0.0479498411,
				"element": "H" 
			},
			{
				"x": -0.5628365597,
				"y": -0.6339165185,
				"z": -2.4188070797,
				"element": "H" 
			},
			{
				"x": 0.7203651044,
				"y": -1.5323964992,
				"z": -3.2187435213,
				"element": "H" 
			},
			{
				"x": 1.0859680828,
				"y": 0.0168462762,
				"z": -2.462417739,
				"element": "H" 
			},
			{
				"x": 1.0442721612,
				"y": -1.2943086172,
				"z": 1.0471071634,
				"element": "H" 
			},
			{
				"x": 0.6749582618,
				"y": 1.2061337013,
				"z": -0.6399052261,
				"element": "H" 
			},
			{
				"x": 2.1445346094,
				"y": 0.6143490757,
				"z": 0.0929085844,
				"element": "H" 
			},
			{
				"x": 1.232832826,
				"y": 0.8517365767,
				"z": 2.3413474345,
				"element": "H" 
			},
			{
				"x": 1.2062157193,
				"y": 2.3924582531,
				"z": 1.5139466482,
				"element": "H" 
			},
			{
				"x": -0.3580579077,
				"y": 1.9938257488,
				"z": 3.9578706763,
				"element": "H" 
			},
			{
				"x": -0.5632202444,
				"y": 0.269779097,
				"z": 3.6315943586,
				"element": "H" 
			},
			{
				"x": -1.9755502426,
				"y": 1.3208062539,
				"z": 3.713948881,
				"element": "H" 
			},
			{
				"x": -0.7224523488,
				"y": 4.5593472327,
				"z": 2.4373935576,
				"element": "H" 
			},
			{
				"x": -4.6740378526,
				"y": 3.3802506266,
				"z": 2.4600540004,
				"element": "H" 
			},
			{
				"x": -4.0950268662,
				"y": 2.3724346012,
				"z": 1.1001748344,
				"element": "H" 
			},
			{
				"x": -3.8975955395,
				"y": 1.8188021433,
				"z": 2.7606906206,
				"element": "H" 
			}
		],
		 "valence_orbital": [ 
			{
				"type": "occ",
				"energy": -0.27903,
				"method": "rhf"
			},
			{
				"type": "occ",
				"energy": -0.26312,
				"method": "rhf"
			},
			{
				"type": "occ",
				"energy": -0.2603,
				"method": "rhf"
			},
			{
				"type": "occ",
				"energy": -0.25163,
				"method": "rhf"
			},
			{
				"type": "occ",
				"energy": -0.22823,
				"method": "rhf"
			},
			{
				"type": "unocc",
				"energy": -0.03061,
				"method": "rhf"
			},
			{
				"type": "unocc",
				"energy": 0.0188,
				"method": "rhf"
			},
			{
				"type": "unocc",
				"energy": 0.05699,
				"method": "rhf"
			},
			{
				"type": "unocc",
				"energy": 0.07027,
				"method": "rhf"
			},
			{
				"type": "unocc",
				"energy": 0.07991,
				"method": "rhf"
			}
		],
		"cosmo_sigma_profile": { 
			"-0.025": 0.0,
			"-0.024": 0.0,
			"-0.023": 0.0,
			"-0.022": 0.0,
			"-0.021": 0.0,
			"-0.02": 0.0,
			"-0.019": 0.0,
			"-0.018": 0.0,
			"-0.017": 0.0,
			"-0.016": 0.0,
			"-0.015": 0.116293182998,
			"-0.014": 0.849412851671,
			"-0.013": 1.03488458473,
			"-0.012": 0.77781842412,
			"-0.011": 0.762392657062,
			"-0.01": 1.30860839923,
			"-0.009": 1.66524777629,
			"-0.008": 1.35963948163,
			"-0.007": 3.05542572591,
			"-0.006": 7.34964197394,
			"-0.005": 9.76888067159,
			"-0.004": 14.4758236366,
			"-0.003": 37.7594623131,
			"-0.002": 60.8841716385,
			"-0.001": 61.6158576651,
			"0.0": 51.7734205229,
			"0.001": 43.4437154295,
			"0.002": 17.4397045071,
			"0.003": 9.51260035763,
			"0.004": 6.98249413169,
			"0.005": 6.83409484833,
			"0.006": 5.96237867699,
			"0.007": 4.69821757386,
			"0.008": 5.1262461316,
			"0.009": 4.60649932923,
			"0.01": 4.80057915939,
			"0.011": 4.01273093422,
			"0.012": 3.54777160856,
			"0.013": 2.41689559924,
			"0.014": 3.02431864008,
			"0.015": 1.62038277408,
			"0.016": 0.00827854210038,
			"0.017": 0.0,
			"0.018": 0.0,
			"0.019": 0.0,
			"0.02": 0.0,
			"0.021": 0.0,
			"0.022": 0.0,
			"0.023": 0.0,
			"0.024": 0.0,
			"0.025": 0.0
		}
	}
}
