{
	 "smiles": "CC1=CC(C)=C(CC(=O)C2=C(NC(=O)CC3=CC=CC=C3)C3=C(O2)C=CC=C3)C(C)=C1", 
	 "Tm": 429.15, 
	 "num_atms": 56, 
	 "gaussian": { 
		 "optdone": 1, 
		 "sigma_profile": "yes", 
		 "theory": "DFT", 
		 "functional": "B3LYP", 
		 "basiset": "6-31G**", 
		 "properties": { 
			 "R2extent": 13030.7768, 
			 "electric_dipole_moment_norm": 5.21633459145, 
			 "electric_quadrupole_moment_norm": 13.1870618217, 
			 "total_energy": -1324.39526989, 
			 "HOMO_LUMO_gap": 0.14779, 
			 "cosmo_polarized_energy": -16.47, 
			 "cosmo_cavitation_energy": 58.85, 
			 "cosmo_dispersion_energy": -36.23, 
			 "cosmo_repulsion_energy": 2.7, 
			 "cosmo_total_nonelectrostatic_energy": 25.32, 
			 "SMD_solvation_energy": 10.41 
		},
		"coords": [
			{
				"x": 0.6767804213,
				"y": -0.3308177054,
				"z": -6.3662691041,
				"element": "C" 
			},
			{
				"x": 0.013882493,
				"y": -0.9076684689,
				"z": -5.1372521699,
				"element": "C" 
			},
			{
				"x": -1.1188352348,
				"y": -0.3050737628,
				"z": -4.5837338135,
				"element": "C" 
			},
			{
				"x": -1.7563409414,
				"y": -0.8202286304,
				"z": -3.4510008771,
				"element": "C" 
			},
			{
				"x": -2.9773019067,
				"y": -0.1035758438,
				"z": -2.9169785977,
				"element": "C" 
			},
			{
				"x": -1.2434040391,
				"y": -1.9872211779,
				"z": -2.8393175881,
				"element": "C" 
			},
			{
				"x": -1.9453658947,
				"y": -2.577555414,
				"z": -1.6225041157,
				"element": "C" 
			},
			{
				"x": -1.9885913241,
				"y": -1.6864218442,
				"z": -0.3835545805,
				"element": "C" 
			},
			{
				"x": -3.0579932189,
				"y": -1.3524927516,
				"z": 0.1316098193,
				"element": "O" 
			},
			{
				"x": -0.7456547057,
				"y": -1.2228228059,
				"z": 0.2219833783,
				"element": "C" 
			},
			{
				"x": -0.5763921884,
				"y": -0.2959023888,
				"z": 1.2333793901,
				"element": "C" 
			},
			{
				"x": -1.624999708,
				"y": 0.3508522955,
				"z": 1.8751055052,
				"element": "N" 
			},
			{
				"x": -1.7842887959,
				"y": 1.692360078,
				"z": 2.2191438047,
				"element": "C" 
			},
			{
				"x": -2.7983452149,
				"y": 2.0432897006,
				"z": 2.7990827891,
				"element": "O" 
			},
			{
				"x": -0.7444053131,
				"y": 2.7098533766,
				"z": 1.7537055354,
				"element": "C" 
			},
			{
				"x": -1.2028736743,
				"y": 3.3594792311,
				"z": 0.4539334215,
				"element": "C" 
			},
			{
				"x": -0.482752976,
				"y": 3.167210474,
				"z": -0.7308678525,
				"element": "C" 
			},
			{
				"x": -0.9026268561,
				"y": 3.7623699587,
				"z": -1.9229430378,
				"element": "C" 
			},
			{
				"x": -2.0501117506,
				"y": 4.5555379977,
				"z": -1.9421148423,
				"element": "C" 
			},
			{
				"x": -2.7770740681,
				"y": 4.7475000483,
				"z": -0.7642874252,
				"element": "C" 
			},
			{
				"x": -2.358640753,
				"y": 4.1526099511,
				"z": 0.425180936,
				"element": "C" 
			},
			{
				"x": 0.8395651538,
				"y": -0.2728318113,
				"z": 1.5256407014,
				"element": "C" 
			},
			{
				"x": 1.4165347147,
				"y": -1.1833861967,
				"z": 0.617898025,
				"element": "C" 
			},
			{
				"x": 0.4673355448,
				"y": -1.7638876033,
				"z": -0.1651857478,
				"element": "O" 
			},
			{
				"x": 2.7788878292,
				"y": -1.4668088759,
				"z": 0.5777950642,
				"element": "C" 
			},
			{
				"x": 3.5787392009,
				"y": -0.813750968,
				"z": 1.5104172877,
				"element": "C" 
			},
			{
				"x": 3.0273023043,
				"y": 0.0753271208,
				"z": 2.4557797916,
				"element": "C" 
			},
			{
				"x": 1.6664070555,
				"y": 0.3521752265,
				"z": 2.4774449707,
				"element": "C" 
			},
			{
				"x": -0.1095546708,
				"y": -2.6188468609,
				"z": -3.3925895853,
				"element": "C" 
			},
			{
				"x": 0.4684784793,
				"y": -3.8923205612,
				"z": -2.8123681504,
				"element": "C" 
			},
			{
				"x": 0.4976211301,
				"y": -2.0654306827,
				"z": -4.5265464102,
				"element": "C" 
			},
			{
				"x": 1.5845643838,
				"y": -0.8822146352,
				"z": -6.6268368848,
				"element": "H" 
			},
			{
				"x": 0.9537383644,
				"y": 0.7189796884,
				"z": -6.2164316547,
				"element": "H" 
			},
			{
				"x": 0.0069292096,
				"y": -0.3639527315,
				"z": -7.233784605,
				"element": "H" 
			},
			{
				"x": -1.5249733633,
				"y": 0.5919100488,
				"z": -5.0471879419,
				"element": "H" 
			},
			{
				"x": -3.3743162061,
				"y": 0.5845853261,
				"z": -3.6678137635,
				"element": "H" 
			},
			{
				"x": -2.7467585923,
				"y": 0.4886476624,
				"z": -2.0242431762,
				"element": "H" 
			},
			{
				"x": -3.7776376111,
				"y": -0.7938940087,
				"z": -2.6338723926,
				"element": "H" 
			},
			{
				"x": -2.9916865057,
				"y": -2.811714485,
				"z": -1.8440819941,
				"element": "H" 
			},
			{
				"x": -1.4617281608,
				"y": -3.5143453395,
				"z": -1.3312053712,
				"element": "H" 
			},
			{
				"x": -2.5101973785,
				"y": -0.1486426797,
				"z": 1.8139952809,
				"element": "H" 
			},
			{
				"x": 0.2418622676,
				"y": 2.2712571319,
				"z": 1.609732146,
				"element": "H" 
			},
			{
				"x": -0.6747898712,
				"y": 3.4603048273,
				"z": 2.5467971887,
				"element": "H" 
			},
			{
				"x": 0.4134831017,
				"y": 2.5521251436,
				"z": -0.721846914,
				"element": "H" 
			},
			{
				"x": -0.3316003307,
				"y": 3.6042679485,
				"z": -2.8334830787,
				"element": "H" 
			},
			{
				"x": -2.3769375576,
				"y": 5.021210074,
				"z": -2.8675297578,
				"element": "H" 
			},
			{
				"x": -3.67351484,
				"y": 5.3611645895,
				"z": -0.7721406551,
				"element": "H" 
			},
			{
				"x": -2.9326643734,
				"y": 4.2836923216,
				"z": 1.337366289,
				"element": "H" 
			},
			{
				"x": 3.1838309265,
				"y": -2.16868422,
				"z": -0.1426563769,
				"element": "H" 
			},
			{
				"x": 4.6478613261,
				"y": -1.0022195669,
				"z": 1.5182064599,
				"element": "H" 
			},
			{
				"x": 3.6798373568,
				"y": 0.5457326778,
				"z": 3.1845762946,
				"element": "H" 
			},
			{
				"x": 1.2516715534,
				"y": 1.0194361333,
				"z": 3.2253477404,
				"element": "H" 
			},
			{
				"x": -0.2512851568,
				"y": -4.7194915943,
				"z": -2.8400839922,
				"element": "H" 
			},
			{
				"x": 1.345743069,
				"y": -4.2092063977,
				"z": -3.3826355536,
				"element": "H" 
			},
			{
				"x": 0.7763526187,
				"y": -3.7609838978,
				"z": -1.7702220725,
				"element": "H" 
			},
			{
				"x": 1.3709346776,
				"y": -2.5601851222,
				"z": -4.9460517367,
				"element": "H" 
			}
		],
		 "valence_orbital": [ 
			{
				"type": "occ",
				"energy": -0.24716,
				"method": "rhf"
			},
			{
				"type": "occ",
				"energy": -0.23899,
				"method": "rhf"
			},
			{
				"type": "occ",
				"energy": -0.2323,
				"method": "rhf"
			},
			{
				"type": "occ",
				"energy": -0.2276,
				"method": "rhf"
			},
			{
				"type": "occ",
				"energy": -0.22298,
				"method": "rhf"
			},
			{
				"type": "unocc",
				"energy": -0.07519,
				"method": "rhf"
			},
			{
				"type": "unocc",
				"energy": -0.01303,
				"method": "rhf"
			},
			{
				"type": "unocc",
				"energy": -0.01095,
				"method": "rhf"
			},
			{
				"type": "unocc",
				"energy": -0.00197,
				"method": "rhf"
			},
			{
				"type": "unocc",
				"energy": 0.0002,
				"method": "rhf"
			}
		],
		"cosmo_sigma_profile": { 
			"-0.025": 0.0,
			"-0.024": 0.0,
			"-0.023": 0.0,
			"-0.022": 0.0,
			"-0.021": 0.0,
			"-0.02": 0.0,
			"-0.019": 0.0,
			"-0.018": 0.0,
			"-0.017": 0.0,
			"-0.016": 0.0,
			"-0.015": 0.0,
			"-0.014": 0.0,
			"-0.013": 0.0,
			"-0.012": 0.0,
			"-0.011": 0.0,
			"-0.01": 0.0,
			"-0.009": 0.456654401296,
			"-0.008": 1.67388571751,
			"-0.007": 6.63207425737,
			"-0.006": 16.5229605556,
			"-0.005": 31.143327982,
			"-0.004": 45.1585139011,
			"-0.003": 42.4005453771,
			"-0.002": 44.9653781009,
			"-0.001": 44.4680244698,
			"0.0": 45.7691311809,
			"0.001": 42.5370732531,
			"0.002": 30.6922540668,
			"0.003": 28.4951621501,
			"0.004": 25.0752799825,
			"0.005": 19.2507112079,
			"0.006": 14.2359841988,
			"0.007": 7.28603826841,
			"0.008": 2.07884173433,
			"0.009": 3.25133452039,
			"0.01": 2.99752700314,
			"0.011": 3.56350515062,
			"0.012": 5.37443299149,
			"0.013": 4.23239170343,
			"0.014": 0.144188938127,
			"0.015": 0.0,
			"0.016": 0.0,
			"0.017": 0.0,
			"0.018": 0.0,
			"0.019": 0.0,
			"0.02": 0.0,
			"0.021": 0.0,
			"0.022": 0.0,
			"0.023": 0.0,
			"0.024": 0.0,
			"0.025": 0.0
		}
	}
}
