{
	 "smiles": "COC1=CC=C2C(OC)=CC=CC2=C1", 
	 "Tm": 331.65, 
	 "num_atms": 26, 
	 "gaussian": { 
		 "optdone": 1, 
		 "sigma_profile": "yes", 
		 "theory": "DFT", 
		 "functional": "B3LYP", 
		 "basiset": "6-31G**", 
		 "properties": { 
			 "R2extent": 4055.6478, 
			 "electric_dipole_moment_norm": 1.68554177047, 
			 "electric_quadrupole_moment_norm": 13.407189682, 
			 "total_energy": -614.943373894, 
			 "HOMO_LUMO_gap": 0.16514, 
			 "cosmo_polarized_energy": -8.29, 
			 "cosmo_cavitation_energy": 29.1, 
			 "cosmo_dispersion_energy": -21.77, 
			 "cosmo_repulsion_energy": 1.68, 
			 "cosmo_total_nonelectrostatic_energy": 9.02, 
			 "SMD_solvation_energy": 6.24 
		},
		"coords": [
			{
				"x": 4.8814702662,
				"y": 2.8596989447,
				"z": -1.3292854969,
				"element": "C" 
			},
			{
				"x": 4.702493673,
				"y": 1.597159956,
				"z": -0.7094638433,
				"element": "O" 
			},
			{
				"x": 3.4348696591,
				"y": 1.1979653292,
				"z": -0.3885790567,
				"element": "C" 
			},
			{
				"x": 2.2763891309,
				"y": 1.9756872347,
				"z": -0.639485891,
				"element": "C" 
			},
			{
				"x": 1.033955173,
				"y": 1.4934372681,
				"z": -0.281554993,
				"element": "C" 
			},
			{
				"x": 0.8855335748,
				"y": 0.2296449743,
				"z": 0.3357355921,
				"element": "C" 
			},
			{
				"x": -0.3947245956,
				"y": -0.2912683815,
				"z": 0.7159607748,
				"element": "C" 
			},
			{
				"x": -1.4527050327,
				"y": 0.5254786811,
				"z": 0.4361005444,
				"element": "O" 
			},
			{
				"x": -2.753456612,
				"y": 0.0803346938,
				"z": 0.7821778891,
				"element": "C" 
			},
			{
				"x": -0.4994905049,
				"y": -1.529923052,
				"z": 1.3167840761,
				"element": "C" 
			},
			{
				"x": 0.6707813098,
				"y": -2.294319735,
				"z": 1.560128559,
				"element": "C" 
			},
			{
				"x": 1.9148452382,
				"y": -1.8315838967,
				"z": 1.2113366851,
				"element": "C" 
			},
			{
				"x": 2.0557240371,
				"y": -0.5567025,
				"z": 0.5895212572,
				"element": "C" 
			},
			{
				"x": 3.3176722832,
				"y": -0.0424958665,
				"z": 0.2143773625,
				"element": "C" 
			},
			{
				"x": 4.3675488779,
				"y": 2.9165766254,
				"z": -2.2977307129,
				"element": "H" 
			},
			{
				"x": 5.9557116941,
				"y": 2.9653952641,
				"z": -1.4902148889,
				"element": "H" 
			},
			{
				"x": 4.5329500786,
				"y": 3.681996076,
				"z": -0.6908559382,
				"element": "H" 
			},
			{
				"x": 2.3548047114,
				"y": 2.9481265545,
				"z": -1.1108103843,
				"element": "H" 
			},
			{
				"x": 0.1479922873,
				"y": 2.0878285577,
				"z": -0.4732395239,
				"element": "H" 
			},
			{
				"x": -3.4368073157,
				"y": 0.8735837399,
				"z": 0.4747603393,
				"element": "H" 
			},
			{
				"x": -3.0152175349,
				"y": -0.8471856631,
				"z": 0.2569560866,
				"element": "H" 
			},
			{
				"x": -2.8496618162,
				"y": -0.0819984052,
				"z": 1.8634084565,
				"element": "H" 
			},
			{
				"x": -1.4625020587,
				"y": -1.9313356173,
				"z": 1.6073271956,
				"element": "H" 
			},
			{
				"x": 0.5665906522,
				"y": -3.2664960742,
				"z": 2.0339830292,
				"element": "H" 
			},
			{
				"x": 2.8033885739,
				"y": -2.4260604811,
				"z": 1.4028533749,
				"element": "H" 
			},
			{
				"x": 4.2177442498,
				"y": -0.6212442269,
				"z": 0.3972095067,
				"element": "H" 
			}
		],
		 "valence_orbital": [ 
			{
				"type": "occ",
				"energy": -0.31308,
				"method": "rhf"
			},
			{
				"type": "occ",
				"energy": -0.29533,
				"method": "rhf"
			},
			{
				"type": "occ",
				"energy": -0.25168,
				"method": "rhf"
			},
			{
				"type": "occ",
				"energy": -0.21963,
				"method": "rhf"
			},
			{
				"type": "occ",
				"energy": -0.19019,
				"method": "rhf"
			},
			{
				"type": "unocc",
				"energy": -0.02505,
				"method": "rhf"
			},
			{
				"type": "unocc",
				"energy": 0.00608,
				"method": "rhf"
			},
			{
				"type": "unocc",
				"energy": 0.04864,
				"method": "rhf"
			},
			{
				"type": "unocc",
				"energy": 0.09679,
				"method": "rhf"
			},
			{
				"type": "unocc",
				"energy": 0.10276,
				"method": "rhf"
			}
		],
		"cosmo_sigma_profile": { 
			"-0.025": 0.0,
			"-0.024": 0.0,
			"-0.023": 0.0,
			"-0.022": 0.0,
			"-0.021": 0.0,
			"-0.02": 0.0,
			"-0.019": 0.0,
			"-0.018": 0.0,
			"-0.017": 0.0,
			"-0.016": 0.0,
			"-0.015": 0.0,
			"-0.014": 0.0,
			"-0.013": 0.0,
			"-0.012": 0.0,
			"-0.011": 0.0,
			"-0.01": 0.0,
			"-0.009": 0.0,
			"-0.008": 0.0,
			"-0.007": 0.412997295957,
			"-0.006": 11.5742034342,
			"-0.005": 28.8239169353,
			"-0.004": 24.6281888287,
			"-0.003": 26.5934665577,
			"-0.002": 14.9237028745,
			"-0.001": 10.6045556227,
			"0.0": 11.484165402,
			"0.001": 9.59604732052,
			"0.002": 9.74184301838,
			"0.003": 15.9747123124,
			"0.004": 23.9462184886,
			"0.005": 23.349333092,
			"0.006": 9.67035559814,
			"0.007": 4.09739898639,
			"0.008": 2.91411349603,
			"0.009": 1.58802117773,
			"0.01": 1.13029912811,
			"0.011": 0.77532311157,
			"0.012": 0.0,
			"0.013": 0.0,
			"0.014": 0.0,
			"0.015": 0.0,
			"0.016": 0.0,
			"0.017": 0.0,
			"0.018": 0.0,
			"0.019": 0.0,
			"0.02": 0.0,
			"0.021": 0.0,
			"0.022": 0.0,
			"0.023": 0.0,
			"0.024": 0.0,
			"0.025": 0.0
		}
	}
}
