{
	 "smiles": "CC#CC#CC", 
	 "Tm": 340.55, 
	 "num_atms": 12, 
	 "gaussian": { 
		 "optdone": 1, 
		 "sigma_profile": "yes", 
		 "theory": "DFT", 
		 "functional": "B3LYP", 
		 "basiset": "6-31G**", 
		 "properties": { 
			 "R2extent": 1198.3237, 
			 "electric_dipole_moment_norm": 0.00022360679775, 
			 "electric_quadrupole_moment_norm": 9.77487235518, 
			 "total_energy": -232.140731774, 
			 "HOMO_LUMO_gap": 0.2281, 
			 "cosmo_polarized_energy": -5.26, 
			 "cosmo_cavitation_energy": 17.78, 
			 "cosmo_dispersion_energy": -12.58, 
			 "cosmo_repulsion_energy": 1.13, 
			 "cosmo_total_nonelectrostatic_energy": 6.33, 
			 "SMD_solvation_energy": 4.38 
		},
		"coords": [
			{
				"x": -3.0630579975,
				"y": 0.9617306672,
				"z": -2.0043645122,
				"element": "C" 
			},
			{
				"x": -2.1334299583,
				"y": 0.4223545077,
				"z": -1.0218294995,
				"element": "C" 
			},
			{
				"x": -1.3573101104,
				"y": -0.0280542124,
				"z": -0.2014895733,
				"element": "C" 
			},
			{
				"x": -0.4840969161,
				"y": -0.5349165295,
				"z": 0.7215123903,
				"element": "C" 
			},
			{
				"x": 0.2918644035,
				"y": -0.9855284729,
				"z": 1.5418926092,
				"element": "C" 
			},
			{
				"x": 1.2213793352,
				"y": -1.5250831294,
				"z": 2.5244370557,
				"element": "C" 
			},
			{
				"x": -2.8183239786,
				"y": 2.0008381643,
				"z": -2.2536525728,
				"element": "H" 
			},
			{
				"x": -3.0382343349,
				"y": 0.3818393315,
				"z": -2.9343609209,
				"element": "H" 
			},
			{
				"x": -4.0926605071,
				"y": 0.9434952753,
				"z": -1.6283668938,
				"element": "H" 
			},
			{
				"x": 1.2166666928,
				"y": -0.9289305328,
				"z": 3.4444184332,
				"element": "H" 
			},
			{
				"x": 2.2472634041,
				"y": -1.5324097791,
				"z": 2.1380593969,
				"element": "H" 
			},
			{
				"x": 0.9601399672,
				"y": -2.55503529,
				"z": 2.7941440873,
				"element": "H" 
			}
		],
		 "valence_orbital": [ 
			{
				"type": "occ",
				"energy": -0.43003,
				"method": "rhf"
			},
			{
				"type": "occ",
				"energy": -0.31923,
				"method": "rhf"
			},
			{
				"type": "occ",
				"energy": -0.31923,
				"method": "rhf"
			},
			{
				"type": "occ",
				"energy": -0.22554,
				"method": "rhf"
			},
			{
				"type": "occ",
				"energy": -0.22554,
				"method": "rhf"
			},
			{
				"type": "unocc",
				"energy": 0.00256,
				"method": "rhf"
			},
			{
				"type": "unocc",
				"energy": 0.00256,
				"method": "rhf"
			},
			{
				"type": "unocc",
				"energy": 0.10952,
				"method": "rhf"
			},
			{
				"type": "unocc",
				"energy": 0.11046,
				"method": "rhf"
			},
			{
				"type": "unocc",
				"energy": 0.13391,
				"method": "rhf"
			}
		],
		"cosmo_sigma_profile": { 
			"-0.025": 0.0,
			"-0.024": 0.0,
			"-0.023": 0.0,
			"-0.022": 0.0,
			"-0.021": 0.0,
			"-0.02": 0.0,
			"-0.019": 0.0,
			"-0.018": 0.0,
			"-0.017": 0.0,
			"-0.016": 0.0,
			"-0.015": 0.0,
			"-0.014": 0.0,
			"-0.013": 0.0,
			"-0.012": 0.0,
			"-0.011": 0.0,
			"-0.01": 0.0,
			"-0.009": 0.0,
			"-0.008": 0.0,
			"-0.007": 1.89120199641,
			"-0.006": 11.6650371217,
			"-0.005": 10.9505492339,
			"-0.004": 13.5247159598,
			"-0.003": 14.3289921768,
			"-0.002": 16.1264435904,
			"-0.001": 7.76176347686,
			"0.0": 5.74685662335,
			"0.001": 4.8513700555,
			"0.002": 4.4005926474,
			"0.003": 3.69683287111,
			"0.004": 9.11133417827,
			"0.005": 23.6120600216,
			"0.006": 15.839740083,
			"0.007": 0.000493089897014,
			"0.008": 0.0,
			"0.009": 0.0,
			"0.01": 0.0,
			"0.011": 0.0,
			"0.012": 0.0,
			"0.013": 0.0,
			"0.014": 0.0,
			"0.015": 0.0,
			"0.016": 0.0,
			"0.017": 0.0,
			"0.018": 0.0,
			"0.019": 0.0,
			"0.02": 0.0,
			"0.021": 0.0,
			"0.022": 0.0,
			"0.023": 0.0,
			"0.024": 0.0,
			"0.025": 0.0
		}
	}
}
