{
	 "smiles": "FC1=CC=C(COC2=CC=C(CCl)C=C2)C=C1", 
	 "Tm": 331.15, 
	 "num_atms": 29, 
	 "gaussian": { 
		 "optdone": 1, 
		 "sigma_profile": "yes", 
		 "theory": "DFT", 
		 "functional": "B3LYP", 
		 "basiset": "6-31G**", 
		 "properties": { 
			 "R2extent": 6942.9289, 
			 "electric_dipole_moment_norm": 3.62305725182, 
			 "electric_quadrupole_moment_norm": 11.1944595037, 
			 "total_energy": -1175.97014059, 
			 "HOMO_LUMO_gap": 0.20467, 
			 "cosmo_polarized_energy": -10.27, 
			 "cosmo_cavitation_energy": 35.65, 
			 "cosmo_dispersion_energy": -25.1, 
			 "cosmo_repulsion_energy": 1.95, 
			 "cosmo_total_nonelectrostatic_energy": 12.51, 
			 "SMD_solvation_energy": 6.24 
		},
		"coords": [
			{
				"x": -3.2235819155,
				"y": 1.4677863802,
				"z": 3.8916168204,
				"element": "F" 
			},
			{
				"x": -2.2167570094,
				"y": 0.7773707038,
				"z": 3.3176859917,
				"element": "C" 
			},
			{
				"x": -2.4997084061,
				"y": -0.4284099523,
				"z": 2.6870509642,
				"element": "C" 
			},
			{
				"x": -1.4519868514,
				"y": -1.1305290892,
				"z": 2.0902080792,
				"element": "C" 
			},
			{
				"x": -0.141115824,
				"y": -0.6410490422,
				"z": 2.1300490635,
				"element": "C" 
			},
			{
				"x": 0.9940793926,
				"y": -1.4522694236,
				"z": 1.5356085893,
				"element": "C" 
			},
			{
				"x": 2.0817857924,
				"y": -0.6664746818,
				"z": 1.05111334,
				"element": "O" 
			},
			{
				"x": 1.9736950987,
				"y": -0.0426902245,
				"z": -0.1614386938,
				"element": "C" 
			},
			{
				"x": 3.1412315745,
				"y": 0.5891292714,
				"z": -0.6162409439,
				"element": "C" 
			},
			{
				"x": 3.147205514,
				"y": 1.240736474,
				"z": -1.8412668417,
				"element": "C" 
			},
			{
				"x": 1.997197619,
				"y": 1.279407838,
				"z": -2.6459744011,
				"element": "C" 
			},
			{
				"x": 2.0089436512,
				"y": 1.977525975,
				"z": -3.967783733,
				"element": "C" 
			},
			{
				"x": 1.6038181204,
				"y": 3.7744487342,
				"z": -3.8346173901,
				"element": "Cl" 
			},
			{
				"x": 0.8404507819,
				"y": 0.6503818084,
				"z": -2.1763375452,
				"element": "C" 
			},
			{
				"x": 0.8147267615,
				"y": -0.007959667,
				"z": -0.9459134106,
				"element": "C" 
			},
			{
				"x": 0.1091893165,
				"y": 0.5758330906,
				"z": 2.7761520623,
				"element": "C" 
			},
			{
				"x": -0.9269199647,
				"y": 1.2950935763,
				"z": 3.3696219603,
				"element": "C" 
			},
			{
				"x": -3.5201929944,
				"y": -0.7948028724,
				"z": 2.6617099754,
				"element": "H" 
			},
			{
				"x": -1.6629743708,
				"y": -2.0716224099,
				"z": 1.5875768673,
				"element": "H" 
			},
			{
				"x": 1.4506046066,
				"y": -2.0826424243,
				"z": 2.3065309656,
				"element": "H" 
			},
			{
				"x": 0.6211272937,
				"y": -2.1189212186,
				"z": 0.746862376,
				"element": "H" 
			},
			{
				"x": 4.0293518301,
				"y": 0.5469245749,
				"z": 0.0055883492,
				"element": "H" 
			},
			{
				"x": 4.0573550543,
				"y": 1.7274222045,
				"z": -2.182182958,
				"element": "H" 
			},
			{
				"x": 2.9906270213,
				"y": 1.9488015527,
				"z": -4.4408422134,
				"element": "H" 
			},
			{
				"x": 1.2648277335,
				"y": 1.5726931024,
				"z": -4.6535908494,
				"element": "H" 
			},
			{
				"x": -0.0655152884,
				"y": 0.678544535,
				"z": -2.7764460204,
				"element": "H" 
			},
			{
				"x": -0.1057499528,
				"y": -0.4642266442,
				"z": -0.603913957,
				"element": "H" 
			},
			{
				"x": 1.1218479826,
				"y": 0.9650518092,
				"z": 2.8029197348,
				"element": "H" 
			},
			{
				"x": -0.7501625672,
				"y": 2.2426460194,
				"z": 3.8669538185,
				"element": "H" 
			}
		],
		 "valence_orbital": [ 
			{
				"type": "occ",
				"energy": -0.2872,
				"method": "rhf"
			},
			{
				"type": "occ",
				"energy": -0.267,
				"method": "rhf"
			},
			{
				"type": "occ",
				"energy": -0.25925,
				"method": "rhf"
			},
			{
				"type": "occ",
				"energy": -0.24589,
				"method": "rhf"
			},
			{
				"type": "occ",
				"energy": -0.22627,
				"method": "rhf"
			},
			{
				"type": "unocc",
				"energy": -0.0216,
				"method": "rhf"
			},
			{
				"type": "unocc",
				"energy": -0.01789,
				"method": "rhf"
			},
			{
				"type": "unocc",
				"energy": -0.01246,
				"method": "rhf"
			},
			{
				"type": "unocc",
				"energy": -0.00493,
				"method": "rhf"
			},
			{
				"type": "unocc",
				"energy": 0.04951,
				"method": "rhf"
			}
		],
		"cosmo_sigma_profile": { 
			"-0.025": 0.0,
			"-0.024": 0.0,
			"-0.023": 0.0,
			"-0.022": 0.0,
			"-0.021": 0.0,
			"-0.02": 0.0,
			"-0.019": 0.0,
			"-0.018": 0.0,
			"-0.017": 0.0,
			"-0.016": 0.0,
			"-0.015": 0.0,
			"-0.014": 0.0,
			"-0.013": 0.0,
			"-0.012": 0.0,
			"-0.011": 0.0,
			"-0.01": 0.0,
			"-0.009": 0.0,
			"-0.008": 1.0115030871,
			"-0.007": 14.5033354459,
			"-0.006": 23.1175587716,
			"-0.005": 22.7970520025,
			"-0.004": 21.9050466145,
			"-0.003": 15.6964029479,
			"-0.002": 14.7465589431,
			"-0.001": 12.6712063805,
			"0.0": 14.4512190642,
			"0.001": 23.3146632981,
			"0.002": 20.9392954957,
			"0.003": 25.5211530455,
			"0.004": 32.909647467,
			"0.005": 19.7802947164,
			"0.006": 8.44840750502,
			"0.007": 11.6492302373,
			"0.008": 1.98101860077,
			"0.009": 1.24487453282,
			"0.01": 0.508089173109,
			"0.011": 0.0,
			"0.012": 0.0,
			"0.013": 0.0,
			"0.014": 0.0,
			"0.015": 0.0,
			"0.016": 0.0,
			"0.017": 0.0,
			"0.018": 0.0,
			"0.019": 0.0,
			"0.02": 0.0,
			"0.021": 0.0,
			"0.022": 0.0,
			"0.023": 0.0,
			"0.024": 0.0,
			"0.025": 0.0
		}
	}
}
