{
	 "smiles": "O=C1CC(N2CCCC2)C(=O)N1", 
	 "Tm": 397.15, 
	 "num_atms": 24, 
	 "gaussian": { 
		 "optdone": 1, 
		 "sigma_profile": "yes", 
		 "theory": "DFT", 
		 "functional": "B3LYP", 
		 "basiset": "6-31G**", 
		 "properties": { 
			 "R2extent": 2857.3133, 
			 "electric_dipole_moment_norm": 2.30921937459, 
			 "electric_quadrupole_moment_norm": 9.32095816748, 
			 "total_energy": -572.052689881, 
			 "HOMO_LUMO_gap": 0.20215, 
			 "cosmo_polarized_energy": -12.86, 
			 "cosmo_cavitation_energy": 25.95, 
			 "cosmo_dispersion_energy": -19.49, 
			 "cosmo_repulsion_energy": 1.57, 
			 "cosmo_total_nonelectrostatic_energy": 8.03, 
			 "SMD_solvation_energy": 2.85 
		},
		"coords": [
			{
				"x": 1.7275622193,
				"y": 2.9744008421,
				"z": 2.5395383416,
				"element": "O" 
			},
			{
				"x": 1.3812735465,
				"y": 1.8457004677,
				"z": 2.272729935,
				"element": "C" 
			},
			{
				"x": 0.6991144258,
				"y": 1.3391441454,
				"z": 1.0080525694,
				"element": "C" 
			},
			{
				"x": 0.2486116824,
				"y": -0.1022032689,
				"z": 1.3236882133,
				"element": "C" 
			},
			{
				"x": 0.4746570999,
				"y": -1.0316227072,
				"z": 0.2312667107,
				"element": "N" 
			},
			{
				"x": -0.2520349488,
				"y": -0.6648275912,
				"z": -0.9943237943,
				"element": "C" 
			},
			{
				"x": -0.1073739129,
				"y": -1.9055317901,
				"z": -1.8942298167,
				"element": "C" 
			},
			{
				"x": 0.1165235245,
				"y": -3.0776489281,
				"z": -0.8980051391,
				"element": "C" 
			},
			{
				"x": 0.0515559939,
				"y": -2.4201823985,
				"z": 0.490862244,
				"element": "C" 
			},
			{
				"x": 1.0397654702,
				"y": -0.4567138771,
				"z": 2.6025957177,
				"element": "C" 
			},
			{
				"x": 1.1602446618,
				"y": -1.5349328616,
				"z": 3.1431012447,
				"element": "O" 
			},
			{
				"x": 1.5716801351,
				"y": 0.7322062375,
				"z": 3.0890613932,
				"element": "N" 
			},
			{
				"x": -0.1035687936,
				"y": 2.0166964634,
				"z": 0.7115041592,
				"element": "H" 
			},
			{
				"x": 1.4509995562,
				"y": 1.3305665674,
				"z": 0.2112346567,
				"element": "H" 
			},
			{
				"x": -0.8194138723,
				"y": -0.0922246654,
				"z": 1.6342326071,
				"element": "H" 
			},
			{
				"x": -1.3217736757,
				"y": -0.4700996508,
				"z": -0.778174523,
				"element": "H" 
			},
			{
				"x": 0.1622785322,
				"y": 0.2413516363,
				"z": -1.4460790016,
				"element": "H" 
			},
			{
				"x": -0.9933569051,
				"y": -2.0449552623,
				"z": -2.519551723,
				"element": "H" 
			},
			{
				"x": 0.7507790311,
				"y": -1.7969048647,
				"z": -2.5629755904,
				"element": "H" 
			},
			{
				"x": -0.6327048673,
				"y": -3.8673193913,
				"z": -1.0001760337,
				"element": "H" 
			},
			{
				"x": 1.0970389231,
				"y": -3.5343070553,
				"z": -1.0580586386,
				"element": "H" 
			},
			{
				"x": -0.9848928355,
				"y": -2.4467937297,
				"z": 0.8812153678,
				"element": "H" 
			},
			{
				"x": 0.6938961964,
				"y": -2.8894974627,
				"z": 1.2345932102,
				"element": "H" 
			},
			{
				"x": 2.0712388128,
				"y": 0.7795991451,
				"z": 3.9685978896,
				"element": "H" 
			}
		],
		 "valence_orbital": [ 
			{
				"type": "occ",
				"energy": -0.32454,
				"method": "rhf"
			},
			{
				"type": "occ",
				"energy": -0.295,
				"method": "rhf"
			},
			{
				"type": "occ",
				"energy": -0.28735,
				"method": "rhf"
			},
			{
				"type": "occ",
				"energy": -0.26285,
				"method": "rhf"
			},
			{
				"type": "occ",
				"energy": -0.22687,
				"method": "rhf"
			},
			{
				"type": "unocc",
				"energy": -0.02472,
				"method": "rhf"
			},
			{
				"type": "unocc",
				"energy": 0.02161,
				"method": "rhf"
			},
			{
				"type": "unocc",
				"energy": 0.07677,
				"method": "rhf"
			},
			{
				"type": "unocc",
				"energy": 0.0887,
				"method": "rhf"
			},
			{
				"type": "unocc",
				"energy": 0.09582,
				"method": "rhf"
			}
		],
		"cosmo_sigma_profile": { 
			"-0.025": 0.0,
			"-0.024": 0.0,
			"-0.023": 0.0,
			"-0.022": 0.0,
			"-0.021": 0.0,
			"-0.02": 0.0,
			"-0.019": 0.0,
			"-0.018": 0.0,
			"-0.017": 0.193249109116,
			"-0.016": 1.05697770764,
			"-0.015": 1.41803638746,
			"-0.014": 0.850650105403,
			"-0.013": 1.08983094158,
			"-0.012": 0.665547274058,
			"-0.011": 0.678982818434,
			"-0.01": 0.888472456807,
			"-0.009": 0.718943308082,
			"-0.008": 2.58581180177,
			"-0.007": 6.04450344219,
			"-0.006": 9.55326628272,
			"-0.005": 8.83472405024,
			"-0.004": 12.113279038,
			"-0.003": 19.2122419687,
			"-0.002": 27.7150397297,
			"-0.001": 26.3766771679,
			"0.0": 17.0007426201,
			"0.001": 10.2302041375,
			"0.002": 4.9036263314,
			"0.003": 3.88795752165,
			"0.004": 3.03596588007,
			"0.005": 5.27188833416,
			"0.006": 4.70660127265,
			"0.007": 2.33146372806,
			"0.008": 3.03151244097,
			"0.009": 3.87922077229,
			"0.01": 5.75461787142,
			"0.011": 8.08822719674,
			"0.012": 8.03408340335,
			"0.013": 1.96245203015,
			"0.014": 0.467917032118,
			"0.015": 0.0980098784629,
			"0.016": 0.0,
			"0.017": 0.0,
			"0.018": 0.0,
			"0.019": 0.0,
			"0.02": 0.0,
			"0.021": 0.0,
			"0.022": 0.0,
			"0.023": 0.0,
			"0.024": 0.0,
			"0.025": 0.0
		}
	}
}
