{
	 "smiles": "FC(F)(F)C1=CC(=O)OC2=C1C=C1CCCN3CCCC2=C13", 
	 "Tm": 441.15, 
	 "num_atms": 36, 
	 "gaussian": { 
		 "optdone": 1, 
		 "sigma_profile": "yes", 
		 "theory": "DFT", 
		 "functional": "B3LYP", 
		 "basiset": "6-31G**", 
		 "properties": { 
			 "R2extent": 7351.8395, 
			 "electric_dipole_moment_norm": 6.99394471239, 
			 "electric_quadrupole_moment_norm": 14.5878017497, 
			 "total_energy": -1122.89401856, 
			 "HOMO_LUMO_gap": 0.13209, 
			 "cosmo_polarized_energy": -11.31, 
			 "cosmo_cavitation_energy": 38.19, 
			 "cosmo_dispersion_energy": -27.83, 
			 "cosmo_repulsion_energy": 2.04, 
			 "cosmo_total_nonelectrostatic_energy": 12.39, 
			 "SMD_solvation_energy": 6.6 
		},
		"coords": [
			{
				"x": -4.8533648025,
				"y": 0.4724462669,
				"z": 2.175532881,
				"element": "F" 
			},
			{
				"x": -3.8505173793,
				"y": -0.1230330013,
				"z": 1.5042844557,
				"element": "C" 
			},
			{
				"x": -3.824115923,
				"y": -1.4203531773,
				"z": 1.8867538861,
				"element": "F" 
			},
			{
				"x": -4.1776368326,
				"y": -0.1053920204,
				"z": 0.1918606969,
				"element": "F" 
			},
			{
				"x": -2.5160642426,
				"y": 0.546636504,
				"z": 1.7454148914,
				"element": "C" 
			},
			{
				"x": -2.4550247035,
				"y": 1.6247653069,
				"z": 2.5683859674,
				"element": "C" 
			},
			{
				"x": -1.20060777,
				"y": 2.3084182172,
				"z": 2.8363788986,
				"element": "C" 
			},
			{
				"x": -1.0494014784,
				"y": 3.2723291251,
				"z": 3.5508975418,
				"element": "O" 
			},
			{
				"x": -0.0751116216,
				"y": 1.7861893612,
				"z": 2.2000749097,
				"element": "O" 
			},
			{
				"x": -0.119031167,
				"y": 0.7027139095,
				"z": 1.3635438565,
				"element": "C" 
			},
			{
				"x": -1.3332098545,
				"y": 0.0346615657,
				"z": 1.1019060538,
				"element": "C" 
			},
			{
				"x": -1.2779996072,
				"y": -1.0740065022,
				"z": 0.2335325653,
				"element": "C" 
			},
			{
				"x": -0.0964953081,
				"y": -1.5070230219,
				"z": -0.3360962286,
				"element": "C" 
			},
			{
				"x": -0.0901005886,
				"y": -2.731902686,
				"z": -1.2290026618,
				"element": "C" 
			},
			{
				"x": 1.103555654,
				"y": -2.7166147719,
				"z": -2.1845820386,
				"element": "C" 
			},
			{
				"x": 2.3827685847,
				"y": -2.4612725919,
				"z": -1.3932481333,
				"element": "C" 
			},
			{
				"x": 2.3050574435,
				"y": -1.2028664405,
				"z": -0.6576851704,
				"element": "N" 
			},
			{
				"x": 3.5737597458,
				"y": -0.6494851648,
				"z": -0.1931114582,
				"element": "C" 
			},
			{
				"x": 3.4454260036,
				"y": 0.8456353178,
				"z": 0.0818921469,
				"element": "C" 
			},
			{
				"x": 2.3558275387,
				"y": 1.0962493216,
				"z": 1.125552993,
				"element": "C" 
			},
			{
				"x": 1.0981684686,
				"y": 0.3174502131,
				"z": 0.8019669105,
				"element": "C" 
			},
			{
				"x": 1.1189993698,
				"y": -0.8052001588,
				"z": -0.0617978916,
				"element": "C" 
			},
			{
				"x": -3.3303451714,
				"y": 2.0253684011,
				"z": 3.060760875,
				"element": "H" 
			},
			{
				"x": -2.1883491261,
				"y": -1.6168196323,
				"z": 0.0064982438,
				"element": "H" 
			},
			{
				"x": -0.0410137233,
				"y": -3.6396527108,
				"z": -0.6103073628,
				"element": "H" 
			},
			{
				"x": -1.0321845945,
				"y": -2.7909356306,
				"z": -1.784544337,
				"element": "H" 
			},
			{
				"x": 1.1873892967,
				"y": -3.6671851562,
				"z": -2.7212083218,
				"element": "H" 
			},
			{
				"x": 0.9800136324,
				"y": -1.9247195511,
				"z": -2.9324688776,
				"element": "H" 
			},
			{
				"x": 2.5750440937,
				"y": -3.3065975764,
				"z": -0.7094827451,
				"element": "H" 
			},
			{
				"x": 3.2434988949,
				"y": -2.3971497816,
				"z": -2.067995753,
				"element": "H" 
			},
			{
				"x": 3.9205188413,
				"y": -1.1723127582,
				"z": 0.7150607329,
				"element": "H" 
			},
			{
				"x": 4.320958683,
				"y": -0.8337136756,
				"z": -0.9724176979,
				"element": "H" 
			},
			{
				"x": 4.406661036,
				"y": 1.2417418878,
				"z": 0.424753548,
				"element": "H" 
			},
			{
				"x": 3.1951676704,
				"y": 1.3572337051,
				"z": -0.8547295932,
				"element": "H" 
			},
			{
				"x": 2.1222032869,
				"y": 2.1623457336,
				"z": 1.19364223,
				"element": "H" 
			},
			{
				"x": 2.7204556499,
				"y": 0.8092511733,
				"z": 2.1217839865,
				"element": "H" 
			}
		],
		 "valence_orbital": [ 
			{
				"type": "occ",
				"energy": -0.32265,
				"method": "rhf"
			},
			{
				"type": "occ",
				"energy": -0.2729,
				"method": "rhf"
			},
			{
				"type": "occ",
				"energy": -0.26988,
				"method": "rhf"
			},
			{
				"type": "occ",
				"energy": -0.23405,
				"method": "rhf"
			},
			{
				"type": "occ",
				"energy": -0.19855,
				"method": "rhf"
			},
			{
				"type": "unocc",
				"energy": -0.06646,
				"method": "rhf"
			},
			{
				"type": "unocc",
				"energy": -0.00772,
				"method": "rhf"
			},
			{
				"type": "unocc",
				"energy": 0.00655,
				"method": "rhf"
			},
			{
				"type": "unocc",
				"energy": 0.06883,
				"method": "rhf"
			},
			{
				"type": "unocc",
				"energy": 0.08136,
				"method": "rhf"
			}
		],
		"cosmo_sigma_profile": { 
			"-0.025": 0.0,
			"-0.024": 0.0,
			"-0.023": 0.0,
			"-0.022": 0.0,
			"-0.021": 0.0,
			"-0.02": 0.0,
			"-0.019": 0.0,
			"-0.018": 0.0,
			"-0.017": 0.0,
			"-0.016": 0.0,
			"-0.015": 0.0,
			"-0.014": 0.0,
			"-0.013": 0.0,
			"-0.012": 0.0,
			"-0.011": 0.0,
			"-0.01": 0.0,
			"-0.009": 0.0,
			"-0.008": 0.434140576677,
			"-0.007": 0.905321108624,
			"-0.006": 4.11848607446,
			"-0.005": 9.02214262357,
			"-0.004": 27.2057842944,
			"-0.003": 44.7529206079,
			"-0.002": 42.6224070719,
			"-0.001": 34.8634662839,
			"0.0": 25.3906529683,
			"0.001": 21.3153637679,
			"0.002": 37.9272254104,
			"0.003": 21.575139155,
			"0.004": 6.32381077202,
			"0.005": 2.62594747731,
			"0.006": 1.99060613864,
			"0.007": 1.83985902654,
			"0.008": 2.43612763964,
			"0.009": 1.6682094728,
			"0.01": 2.63595654288,
			"0.011": 3.34900622602,
			"0.012": 6.2935180777,
			"0.013": 3.03902679885,
			"0.014": 0.268290869624,
			"0.015": 0.0,
			"0.016": 0.0,
			"0.017": 0.0,
			"0.018": 0.0,
			"0.019": 0.0,
			"0.02": 0.0,
			"0.021": 0.0,
			"0.022": 0.0,
			"0.023": 0.0,
			"0.024": 0.0,
			"0.025": 0.0
		}
	}
}
