{
	 "smiles": "CCOC(=O)C1=C(NC(=O)NC1C1=CC=CC=C1)C1=CC=CC=C1", 
	 "Tm": 445.15, 
	 "num_atms": 42, 
	 "gaussian": { 
		 "optdone": 1, 
		 "sigma_profile": "yes", 
		 "theory": "DFT", 
		 "functional": "B3LYP", 
		 "basiset": "6-31G**", 
		 "properties": { 
			 "R2extent": 8194.0433, 
			 "electric_dipole_moment_norm": 3.97645049384, 
			 "electric_quadrupole_moment_norm": 21.7170790432, 
			 "total_energy": -1070.08043965, 
			 "HOMO_LUMO_gap": 0.17973, 
			 "cosmo_polarized_energy": -17.79, 
			 "cosmo_cavitation_energy": 45.8, 
			 "cosmo_dispersion_energy": -30.24, 
			 "cosmo_repulsion_energy": 2.35, 
			 "cosmo_total_nonelectrostatic_energy": 17.91, 
			 "SMD_solvation_energy": 8.45 
		},
		"coords": [
			{
				"x": -3.5821403049,
				"y": -2.4249074391,
				"z": -0.872512703,
				"element": "C" 
			},
			{
				"x": -3.416460837,
				"y": -1.1387874576,
				"z": -0.0847785521,
				"element": "C" 
			},
			{
				"x": -2.0323193997,
				"y": -1.0580476655,
				"z": 0.3210944281,
				"element": "O" 
			},
			{
				"x": -1.6823285945,
				"y": 0.0524991432,
				"z": 1.003270875,
				"element": "C" 
			},
			{
				"x": -2.4683248991,
				"y": 0.9612738791,
				"z": 1.2288273598,
				"element": "O" 
			},
			{
				"x": -0.2685932972,
				"y": 0.0951055604,
				"z": 1.4242055997,
				"element": "C" 
			},
			{
				"x": 0.574464464,
				"y": -0.9674228432,
				"z": 1.5134949952,
				"element": "C" 
			},
			{
				"x": 1.8885492281,
				"y": -0.7614803923,
				"z": 1.9234915138,
				"element": "N" 
			},
			{
				"x": 2.3397075948,
				"y": 0.3932647223,
				"z": 2.5797586373,
				"element": "C" 
			},
			{
				"x": 3.4446126608,
				"y": 0.4346076735,
				"z": 3.1001480044,
				"element": "O" 
			},
			{
				"x": 1.4222048697,
				"y": 1.403170892,
				"z": 2.610398781,
				"element": "N" 
			},
			{
				"x": 0.2328018987,
				"y": 1.497306303,
				"z": 1.7604282525,
				"element": "C" 
			},
			{
				"x": 0.4684631049,
				"y": 2.3465214345,
				"z": 0.5040846155,
				"element": "C" 
			},
			{
				"x": -0.5261749417,
				"y": 3.2300630565,
				"z": 0.0661297196,
				"element": "C" 
			},
			{
				"x": -0.3363051623,
				"y": 4.0005250307,
				"z": -1.0824324761,
				"element": "C" 
			},
			{
				"x": 0.8526416284,
				"y": 3.9003269642,
				"z": -1.8060746945,
				"element": "C" 
			},
			{
				"x": 1.8502802897,
				"y": 3.0232186987,
				"z": -1.3749275514,
				"element": "C" 
			},
			{
				"x": 1.6596726428,
				"y": 2.2520507305,
				"z": -0.2281531572,
				"element": "C" 
			},
			{
				"x": 0.2708574422,
				"y": -2.4038091226,
				"z": 1.2498682894,
				"element": "C" 
			},
			{
				"x": 0.9617553742,
				"y": -3.0851520919,
				"z": 0.2382733529,
				"element": "C" 
			},
			{
				"x": 0.7380004526,
				"y": -4.4464437586,
				"z": 0.0262986224,
				"element": "C" 
			},
			{
				"x": -0.1645901764,
				"y": -5.141379614,
				"z": 0.8322023167,
				"element": "C" 
			},
			{
				"x": -0.8443818714,
				"y": -4.4699887612,
				"z": 1.8520404058,
				"element": "C" 
			},
			{
				"x": -0.6282757558,
				"y": -3.1091414415,
				"z": 2.0613708928,
				"element": "C" 
			},
			{
				"x": -2.9470497029,
				"y": -2.4208676796,
				"z": -1.7629385067,
				"element": "H" 
			},
			{
				"x": -4.6235162436,
				"y": -2.5326562902,
				"z": -1.1919956173,
				"element": "H" 
			},
			{
				"x": -3.3131869266,
				"y": -3.2931546154,
				"z": -0.2645299007,
				"element": "H" 
			},
			{
				"x": -3.6627135903,
				"y": -0.2546363341,
				"z": -0.6806738341,
				"element": "H" 
			},
			{
				"x": -4.050954123,
				"y": -1.1183055148,
				"z": 0.8076057252,
				"element": "H" 
			},
			{
				"x": 2.4784846856,
				"y": -1.5674541866,
				"z": 2.074411149,
				"element": "H" 
			},
			{
				"x": 1.7864580027,
				"y": 2.261572955,
				"z": 2.9998797987,
				"element": "H" 
			},
			{
				"x": -0.5537514626,
				"y": 1.9861628964,
				"z": 2.3430511065,
				"element": "H" 
			},
			{
				"x": -1.4567216601,
				"y": 3.2968729192,
				"z": 0.6210866505,
				"element": "H" 
			},
			{
				"x": -1.1167791719,
				"y": 4.6827969756,
				"z": -1.4077125128,
				"element": "H" 
			},
			{
				"x": 1.0035666777,
				"y": 4.5033672649,
				"z": -2.6969576866,
				"element": "H" 
			},
			{
				"x": 2.7810321554,
				"y": 2.9418357897,
				"z": -1.9294755917,
				"element": "H" 
			},
			{
				"x": 2.4491129767,
				"y": 1.5825623963,
				"z": 0.1001914282,
				"element": "H" 
			},
			{
				"x": 1.6597842404,
				"y": -2.5434812015,
				"z": -0.3937411729,
				"element": "H" 
			},
			{
				"x": 1.2693457765,
				"y": -4.9618152567,
				"z": -0.7684211805,
				"element": "H" 
			},
			{
				"x": -0.3346363678,
				"y": -6.2018497743,
				"z": 0.6707281916,
				"element": "H" 
			},
			{
				"x": -1.5394323913,
				"y": -5.0086252299,
				"z": 2.4896554469,
				"element": "H" 
			},
			{
				"x": -1.1524592855,
				"y": -2.5871986151,
				"z": 2.8557289789,
				"element": "H" 
			}
		],
		 "valence_orbital": [ 
			{
				"type": "occ",
				"energy": -0.26021,
				"method": "rhf"
			},
			{
				"type": "occ",
				"energy": -0.25683,
				"method": "rhf"
			},
			{
				"type": "occ",
				"energy": -0.2466,
				"method": "rhf"
			},
			{
				"type": "occ",
				"energy": -0.23888,
				"method": "rhf"
			},
			{
				"type": "occ",
				"energy": -0.22495,
				"method": "rhf"
			},
			{
				"type": "unocc",
				"energy": -0.04522,
				"method": "rhf"
			},
			{
				"type": "unocc",
				"energy": -0.01487,
				"method": "rhf"
			},
			{
				"type": "unocc",
				"energy": -0.01251,
				"method": "rhf"
			},
			{
				"type": "unocc",
				"energy": 0.00093,
				"method": "rhf"
			},
			{
				"type": "unocc",
				"energy": 0.00251,
				"method": "rhf"
			}
		],
		"cosmo_sigma_profile": { 
			"-0.025": 0.0,
			"-0.024": 0.0,
			"-0.023": 0.0,
			"-0.022": 0.0,
			"-0.021": 0.0,
			"-0.02": 0.0,
			"-0.019": 0.0,
			"-0.018": 0.0,
			"-0.017": 0.0,
			"-0.016": 0.0,
			"-0.015": 0.267452662334,
			"-0.014": 1.62402810454,
			"-0.013": 2.34292979561,
			"-0.012": 1.17150274192,
			"-0.011": 1.58008941333,
			"-0.01": 2.02321881423,
			"-0.009": 2.26793946109,
			"-0.008": 2.13560198928,
			"-0.007": 2.66103477422,
			"-0.006": 15.0172688363,
			"-0.005": 27.0213314499,
			"-0.004": 37.2453392778,
			"-0.003": 33.3751453898,
			"-0.002": 31.3684261987,
			"-0.001": 27.2859133216,
			"0.0": 25.9540444954,
			"0.001": 25.1532064406,
			"0.002": 21.8524142806,
			"0.003": 20.9108504752,
			"0.004": 20.7711940961,
			"0.005": 18.0658649059,
			"0.006": 11.5558089823,
			"0.007": 4.11802584246,
			"0.008": 4.20178409579,
			"0.009": 2.38001695349,
			"0.01": 2.66043636201,
			"0.011": 3.26300065376,
			"0.012": 4.56519963556,
			"0.013": 7.64126206086,
			"0.014": 3.68595990716,
			"0.015": 0.0681350493188,
			"0.016": 0.0,
			"0.017": 0.0,
			"0.018": 0.0,
			"0.019": 0.0,
			"0.02": 0.0,
			"0.021": 0.0,
			"0.022": 0.0,
			"0.023": 0.0,
			"0.024": 0.0,
			"0.025": 0.0
		}
	}
}
