{
	 "smiles": "CC1=CN=C(NCCC(O)=O)C=C1", 
	 "Tm": 475.15, 
	 "num_atms": 25, 
	 "gaussian": { 
		 "optdone": 1, 
		 "sigma_profile": "yes", 
		 "theory": "DFT", 
		 "functional": "B3LYP", 
		 "basiset": "6-31G**", 
		 "properties": { 
			 "R2extent": 3649.0429, 
			 "electric_dipole_moment_norm": 1.80132566184, 
			 "electric_quadrupole_moment_norm": 16.5818987682, 
			 "total_energy": -610.165771644, 
			 "HOMO_LUMO_gap": 0.18664, 
			 "cosmo_polarized_energy": -14.15, 
			 "cosmo_cavitation_energy": 28.97, 
			 "cosmo_dispersion_energy": -20.84, 
			 "cosmo_repulsion_energy": 1.68, 
			 "cosmo_total_nonelectrostatic_energy": 9.82, 
			 "SMD_solvation_energy": 3.92 
		},
		"coords": [
			{
				"x": 1.6755668252,
				"y": -3.7524816246,
				"z": -0.0105589575,
				"element": "C" 
			},
			{
				"x": 1.4611822603,
				"y": -2.3389733013,
				"z": -0.4907541476,
				"element": "C" 
			},
			{
				"x": 2.2514684228,
				"y": -1.2781520275,
				"z": -0.0408840082,
				"element": "C" 
			},
			{
				"x": 2.1159719747,
				"y": -0.0038525719,
				"z": -0.418687285,
				"element": "N" 
			},
			{
				"x": 1.1537669615,
				"y": 0.2965253115,
				"z": -1.3076369043,
				"element": "C" 
			},
			{
				"x": 1.1071287492,
				"y": 1.6241111347,
				"z": -1.6917791057,
				"element": "N" 
			},
			{
				"x": -0.0381333703,
				"y": 2.2578399695,
				"z": -2.3129327115,
				"element": "C" 
			},
			{
				"x": -1.250557802,
				"y": 2.4609769319,
				"z": -1.3861145151,
				"element": "C" 
			},
			{
				"x": -1.0134306996,
				"y": 3.3432434332,
				"z": -0.175274816,
				"element": "C" 
			},
			{
				"x": 0.0789808373,
				"y": 4.1415477484,
				"z": -0.3092871678,
				"element": "O" 
			},
			{
				"x": -1.717765943,
				"y": 3.3736436212,
				"z": 0.8073743781,
				"element": "O" 
			},
			{
				"x": 0.2887435285,
				"y": -0.6900701502,
				"z": -1.8283876568,
				"element": "C" 
			},
			{
				"x": 0.4571926026,
				"y": -2.0024069382,
				"z": -1.4104187602,
				"element": "C" 
			},
			{
				"x": 1.9223372059,
				"y": -4.4293769651,
				"z": -0.8373287852,
				"element": "H" 
			},
			{
				"x": 2.4963738754,
				"y": -3.8019962596,
				"z": 0.7111213474,
				"element": "H" 
			},
			{
				"x": 0.7810084123,
				"y": -4.1554826051,
				"z": 0.4791126681,
				"element": "H" 
			},
			{
				"x": 3.04746629,
				"y": -1.469842039,
				"z": 0.6795499896,
				"element": "H" 
			},
			{
				"x": 1.6784278543,
				"y": 2.2164197617,
				"z": -1.1038380715,
				"element": "H" 
			},
			{
				"x": 0.2921933387,
				"y": 3.2252755495,
				"z": -2.6994093922,
				"element": "H" 
			},
			{
				"x": -0.3521289468,
				"y": 1.6689544583,
				"z": -3.181376944,
				"element": "H" 
			},
			{
				"x": -2.0760530902,
				"y": 2.9160513799,
				"z": -1.950130021,
				"element": "H" 
			},
			{
				"x": -1.6262656971,
				"y": 1.5059423652,
				"z": -1.0076416682,
				"element": "H" 
			},
			{
				"x": 0.1270431432,
				"y": 4.666630657,
				"z": 0.5076050376,
				"element": "H" 
			},
			{
				"x": -0.4869679212,
				"y": -0.4386274405,
				"z": -2.5431712689,
				"element": "H" 
			},
			{
				"x": -0.2003488116,
				"y": -2.775500399,
				"z": -1.8024512342,
				"element": "H" 
			}
		],
		 "valence_orbital": [ 
			{
				"type": "occ",
				"energy": -0.29369,
				"method": "rhf"
			},
			{
				"type": "occ",
				"energy": -0.27751,
				"method": "rhf"
			},
			{
				"type": "occ",
				"energy": -0.27083,
				"method": "rhf"
			},
			{
				"type": "occ",
				"energy": -0.249,
				"method": "rhf"
			},
			{
				"type": "occ",
				"energy": -0.19891,
				"method": "rhf"
			},
			{
				"type": "unocc",
				"energy": -0.01227,
				"method": "rhf"
			},
			{
				"type": "unocc",
				"energy": 0.00401,
				"method": "rhf"
			},
			{
				"type": "unocc",
				"energy": 0.01684,
				"method": "rhf"
			},
			{
				"type": "unocc",
				"energy": 0.06584,
				"method": "rhf"
			},
			{
				"type": "unocc",
				"energy": 0.09462,
				"method": "rhf"
			}
		],
		"cosmo_sigma_profile": { 
			"-0.025": 0.0,
			"-0.024": 0.0,
			"-0.023": 0.0,
			"-0.022": 0.0,
			"-0.021": 0.0,
			"-0.02": 0.0,
			"-0.019": 0.053374986031,
			"-0.018": 0.641122378154,
			"-0.017": 1.16647082622,
			"-0.016": 0.798183497998,
			"-0.015": 0.768026734369,
			"-0.014": 0.184232663392,
			"-0.013": 0.330223485484,
			"-0.012": 1.16352668196,
			"-0.011": 1.04251927586,
			"-0.01": 0.876197664866,
			"-0.009": 1.16002021005,
			"-0.008": 1.29704039622,
			"-0.007": 5.8891237733,
			"-0.006": 10.2835701227,
			"-0.005": 16.316853578,
			"-0.004": 20.881977512,
			"-0.003": 22.5362404225,
			"-0.002": 21.7643003284,
			"-0.001": 15.3380839034,
			"0.0": 14.3773161197,
			"0.001": 12.884048399,
			"0.002": 9.28272358343,
			"0.003": 10.3585814313,
			"0.004": 14.4522302109,
			"0.005": 9.87584428084,
			"0.006": 4.49370374468,
			"0.007": 4.19292006118,
			"0.008": 4.43671737835,
			"0.009": 3.39749544944,
			"0.01": 3.17047634568,
			"0.011": 5.15676737414,
			"0.012": 5.68942005989,
			"0.013": 2.23733410869,
			"0.014": 0.592021648634,
			"0.015": 0.818230879786,
			"0.016": 0.617525965544,
			"0.017": 0.0568476367993,
			"0.018": 0.0,
			"0.019": 0.0,
			"0.02": 0.0,
			"0.021": 0.0,
			"0.022": 0.0,
			"0.023": 0.0,
			"0.024": 0.0,
			"0.025": 0.0
		}
	}
}
