{
	 "smiles": "FC(F)(F)C(=O)C1=NC2=C(S1)C=CC=C2", 
	 "Tm": 357.15, 
	 "num_atms": 19, 
	 "gaussian": { 
		 "optdone": 1, 
		 "sigma_profile": "yes", 
		 "theory": "DFT", 
		 "functional": "B3LYP", 
		 "basiset": "6-31G**", 
		 "properties": { 
			 "R2extent": 5396.4451, 
			 "electric_dipole_moment_norm": 4.67182687393, 
			 "electric_quadrupole_moment_norm": 7.89147249821, 
			 "total_energy": -1173.04295003, 
			 "HOMO_LUMO_gap": 0.14822, 
			 "cosmo_polarized_energy": -7.27, 
			 "cosmo_cavitation_energy": 27.63, 
			 "cosmo_dispersion_energy": -20.25, 
			 "cosmo_repulsion_energy": 1.48, 
			 "cosmo_total_nonelectrostatic_energy": 8.86, 
			 "SMD_solvation_energy": 4.86 
		},
		"coords": [
			{
				"x": -3.4298662092,
				"y": 4.8923320972,
				"z": -0.2519578763,
				"element": "F" 
			},
			{
				"x": -2.4217756226,
				"y": 4.0150061089,
				"z": -0.2533341325,
				"element": "C" 
			},
			{
				"x": -1.7406311233,
				"y": 4.1458494798,
				"z": 0.8978930063,
				"element": "F" 
			},
			{
				"x": -1.6010862924,
				"y": 4.3095600862,
				"z": -1.2761329687,
				"element": "F" 
			},
			{
				"x": -2.976880572,
				"y": 2.5718102047,
				"z": -0.3976741911,
				"element": "C" 
			},
			{
				"x": -4.1716741263,
				"y": 2.3826648495,
				"z": -0.4885597197,
				"element": "O" 
			},
			{
				"x": -1.9933573238,
				"y": 1.4721961986,
				"z": -0.4178422296,
				"element": "C" 
			},
			{
				"x": -0.7051695137,
				"y": 1.622204226,
				"z": -0.3240360214,
				"element": "N" 
			},
			{
				"x": -0.0683770397,
				"y": 0.4039139904,
				"z": -0.3754406006,
				"element": "C" 
			},
			{
				"x": -0.9282967544,
				"y": -0.7203554245,
				"z": -0.5155664801,
				"element": "C" 
			},
			{
				"x": -2.5896622123,
				"y": -0.1889045739,
				"z": -0.5817177852,
				"element": "S" 
			},
			{
				"x": -0.412130018,
				"y": -2.0193457389,
				"z": -0.5808213374,
				"element": "C" 
			},
			{
				"x": 0.9669857544,
				"y": -2.1776225526,
				"z": -0.5045144308,
				"element": "C" 
			},
			{
				"x": 1.8286048211,
				"y": -1.0698375966,
				"z": -0.3655255998,
				"element": "C" 
			},
			{
				"x": 1.3243800416,
				"y": 0.2187114082,
				"z": -0.3002957406,
				"element": "C" 
			},
			{
				"x": -1.0654656162,
				"y": -2.8788772257,
				"z": -0.68769992,
				"element": "H" 
			},
			{
				"x": 1.3889737083,
				"y": -3.176942343,
				"z": -0.5531410728,
				"element": "H" 
			},
			{
				"x": 2.9001543243,
				"y": -1.2333575349,
				"z": -0.3093115916,
				"element": "H" 
			},
			{
				"x": 1.9688737742,
				"y": 1.0845943405,
				"z": -0.193521308,
				"element": "H" 
			}
		],
		 "valence_orbital": [ 
			{
				"type": "occ",
				"energy": -0.3249,
				"method": "rhf"
			},
			{
				"type": "occ",
				"energy": -0.31084,
				"method": "rhf"
			},
			{
				"type": "occ",
				"energy": -0.28849,
				"method": "rhf"
			},
			{
				"type": "occ",
				"energy": -0.26433,
				"method": "rhf"
			},
			{
				"type": "occ",
				"energy": -0.25579,
				"method": "rhf"
			},
			{
				"type": "unocc",
				"energy": -0.10757,
				"method": "rhf"
			},
			{
				"type": "unocc",
				"energy": -0.02656,
				"method": "rhf"
			},
			{
				"type": "unocc",
				"energy": -0.01596,
				"method": "rhf"
			},
			{
				"type": "unocc",
				"energy": -0.00184,
				"method": "rhf"
			},
			{
				"type": "unocc",
				"energy": 0.03071,
				"method": "rhf"
			}
		],
		"cosmo_sigma_profile": { 
			"-0.025": 0.0,
			"-0.024": 0.0,
			"-0.023": 0.0,
			"-0.022": 0.0,
			"-0.021": 0.0,
			"-0.02": 0.0,
			"-0.019": 0.0,
			"-0.018": 0.0,
			"-0.017": 0.0,
			"-0.016": 0.0,
			"-0.015": 0.0,
			"-0.014": 0.0,
			"-0.013": 0.0,
			"-0.012": 0.0,
			"-0.011": 0.0,
			"-0.01": 0.0,
			"-0.009": 0.165352151593,
			"-0.008": 3.2155715964,
			"-0.007": 10.5720045182,
			"-0.006": 12.0444871963,
			"-0.005": 11.5497938349,
			"-0.004": 10.3210064101,
			"-0.003": 12.5236507924,
			"-0.002": 13.2933025281,
			"-0.001": 13.1273533177,
			"0.0": 23.0681426464,
			"0.001": 31.1259296846,
			"0.002": 39.040179013,
			"0.003": 17.4622398891,
			"0.004": 5.43994976694,
			"0.005": 4.16641636625,
			"0.006": 3.94683711377,
			"0.007": 4.61079647481,
			"0.008": 4.85935541348,
			"0.009": 4.36077056582,
			"0.01": 1.13500090142,
			"0.011": 0.0507324087604,
			"0.012": 0.0,
			"0.013": 0.0,
			"0.014": 0.0,
			"0.015": 0.0,
			"0.016": 0.0,
			"0.017": 0.0,
			"0.018": 0.0,
			"0.019": 0.0,
			"0.02": 0.0,
			"0.021": 0.0,
			"0.022": 0.0,
			"0.023": 0.0,
			"0.024": 0.0,
			"0.025": 0.0
		}
	}
}
