{
	 "smiles": "CC1=CC(Cl)=C(NC(=O)CCl)C=C1", 
	 "Tm": 372.15, 
	 "num_atms": 22, 
	 "gaussian": { 
		 "optdone": 1, 
		 "sigma_profile": "yes", 
		 "theory": "DFT", 
		 "functional": "B3LYP", 
		 "basiset": "6-31G**", 
		 "properties": { 
			 "R2extent": 5009.7919, 
			 "electric_dipole_moment_norm": 4.80918481554, 
			 "electric_quadrupole_moment_norm": 11.4012001066, 
			 "total_energy": -1398.75898457, 
			 "HOMO_LUMO_gap": 0.19678, 
			 "cosmo_polarized_energy": -10.9, 
			 "cosmo_cavitation_energy": 29.43, 
			 "cosmo_dispersion_energy": -21.4, 
			 "cosmo_repulsion_energy": 1.71, 
			 "cosmo_total_nonelectrostatic_energy": 9.75, 
			 "SMD_solvation_energy": 5.26 
		},
		"coords": [
			{
				"x": -1.9083310197,
				"y": 0.7375418139,
				"z": 2.3217413491,
				"element": "C" 
			},
			{
				"x": -0.9919096997,
				"y": -0.0628515144,
				"z": 1.4275208593,
				"element": "C" 
			},
			{
				"x": -1.0629420686,
				"y": -1.4603502959,
				"z": 1.3967147021,
				"element": "C" 
			},
			{
				"x": -0.1903027531,
				"y": -2.2005019888,
				"z": 0.6046495356,
				"element": "C" 
			},
			{
				"x": -0.3249105357,
				"y": -3.9549029298,
				"z": 0.6101545485,
				"element": "Cl" 
			},
			{
				"x": 0.7798257026,
				"y": -1.5782675492,
				"z": -0.202581572,
				"element": "C" 
			},
			{
				"x": 1.6221159378,
				"y": -2.3571250675,
				"z": -1.0213144275,
				"element": "N" 
			},
			{
				"x": 2.9760817586,
				"y": -2.2784189211,
				"z": -1.2826262459,
				"element": "C" 
			},
			{
				"x": 3.5124213809,
				"y": -3.0839628205,
				"z": -2.0244662963,
				"element": "O" 
			},
			{
				"x": 3.7947720187,
				"y": -1.199462621,
				"z": -0.5789514522,
				"element": "C" 
			},
			{
				"x": 4.087597522,
				"y": 0.2185437237,
				"z": -1.6728846461,
				"element": "Cl" 
			},
			{
				"x": 0.817600413,
				"y": -0.1761115847,
				"z": -0.1989817946,
				"element": "C" 
			},
			{
				"x": -0.0381408689,
				"y": 0.5614948491,
				"z": 0.6147389367,
				"element": "C" 
			},
			{
				"x": -2.8673237493,
				"y": 0.2324881978,
				"z": 2.468924397,
				"element": "H" 
			},
			{
				"x": -1.4621373278,
				"y": 0.8866324317,
				"z": 3.3128152855,
				"element": "H" 
			},
			{
				"x": -2.1071839709,
				"y": 1.7278642679,
				"z": 1.9019978499,
				"element": "H" 
			},
			{
				"x": -1.7974756056,
				"y": -1.9854165874,
				"z": 1.9987237346,
				"element": "H" 
			},
			{
				"x": 1.2218343522,
				"y": -3.2073996177,
				"z": -1.4022397398,
				"element": "H" 
			},
			{
				"x": 4.7719482427,
				"y": -1.628064681,
				"z": -0.3635315658,
				"element": "H" 
			},
			{
				"x": 3.3311446445,
				"y": -0.8162054859,
				"z": 0.3289174762,
				"element": "H" 
			},
			{
				"x": 1.5083994421,
				"y": 0.3350166795,
				"z": -0.8601213282,
				"element": "H" 
			},
			{
				"x": 0.0229161841,
				"y": 1.6460597015,
				"z": 0.5949003939,
				"element": "H" 
			}
		],
		 "valence_orbital": [ 
			{
				"type": "occ",
				"energy": -0.31196,
				"method": "rhf"
			},
			{
				"type": "occ",
				"energy": -0.3032,
				"method": "rhf"
			},
			{
				"type": "occ",
				"energy": -0.26794,
				"method": "rhf"
			},
			{
				"type": "occ",
				"energy": -0.26399,
				"method": "rhf"
			},
			{
				"type": "occ",
				"energy": -0.23721,
				"method": "rhf"
			},
			{
				"type": "unocc",
				"energy": -0.04043,
				"method": "rhf"
			},
			{
				"type": "unocc",
				"energy": -0.02722,
				"method": "rhf"
			},
			{
				"type": "unocc",
				"energy": -0.0117,
				"method": "rhf"
			},
			{
				"type": "unocc",
				"energy": 0.01637,
				"method": "rhf"
			},
			{
				"type": "unocc",
				"energy": 0.05382,
				"method": "rhf"
			}
		],
		"cosmo_sigma_profile": { 
			"-0.025": 0.0,
			"-0.024": 0.0,
			"-0.023": 0.0,
			"-0.022": 0.0,
			"-0.021": 0.0,
			"-0.02": 0.0,
			"-0.019": 0.0,
			"-0.018": 0.0,
			"-0.017": 0.0,
			"-0.016": 0.0,
			"-0.015": 0.0,
			"-0.014": 0.000724092776327,
			"-0.013": 0.576847077685,
			"-0.012": 0.707244207867,
			"-0.011": 0.620842252478,
			"-0.01": 1.10265462463,
			"-0.009": 2.21691893348,
			"-0.008": 4.10617624865,
			"-0.007": 8.73536359447,
			"-0.006": 10.0125788401,
			"-0.005": 13.0728682551,
			"-0.004": 16.5726072627,
			"-0.003": 16.004079565,
			"-0.002": 16.558882333,
			"-0.001": 21.2297875055,
			"0.0": 21.0468333859,
			"0.001": 19.5391388369,
			"0.002": 18.5968431161,
			"0.003": 21.3576391798,
			"0.004": 16.7797953591,
			"0.005": 10.3402855422,
			"0.006": 4.0782078238,
			"0.007": 1.29752439188,
			"0.008": 0.584968957241,
			"0.009": 1.61871035403,
			"0.01": 1.22734644127,
			"0.011": 2.74729288983,
			"0.012": 4.9599986686,
			"0.013": 3.24010688811,
			"0.014": 0.174245340752,
			"0.015": 0.0,
			"0.016": 0.0,
			"0.017": 0.0,
			"0.018": 0.0,
			"0.019": 0.0,
			"0.02": 0.0,
			"0.021": 0.0,
			"0.022": 0.0,
			"0.023": 0.0,
			"0.024": 0.0,
			"0.025": 0.0
		}
	}
}
