{
	 "smiles": "CC(=O)NC1C(O)C(O)C(CO)OC1OC1=CNC2=C1C(Cl)=C(Br)C=C2", 
	 "Tm": 520.15, 
	 "num_atms": 44, 
	 "gaussian": { 
		 "optdone": 1, 
		 "sigma_profile": "yes", 
		 "theory": "DFT", 
		 "functional": "B3LYP", 
		 "basiset": "6-31G**", 
		 "properties": { 
			 "R2extent": 14521.5652, 
			 "electric_dipole_moment_norm": 3.70759434809, 
			 "electric_quadrupole_moment_norm": 24.3800909635, 
			 "total_energy": -4212.96383325, 
			 "HOMO_LUMO_gap": 0.17457, 
			 "cosmo_polarized_energy": -25.4, 
			 "cosmo_cavitation_energy": 48.82, 
			 "cosmo_dispersion_energy": -34.41, 
			 "cosmo_repulsion_energy": 2.62, 
			 "cosmo_total_nonelectrostatic_energy": 17.02, 
			 "SMD_solvation_energy": 6.73 
		},
		"coords": [
			{
				"x": 3.0121375007,
				"y": 1.8824448681,
				"z": -2.9887199807,
				"element": "C" 
			},
			{
				"x": 2.4232237218,
				"y": 1.6893033414,
				"z": -1.6018430884,
				"element": "C" 
			},
			{
				"x": 3.0935679902,
				"y": 1.2439854856,
				"z": -0.6660721878,
				"element": "O" 
			},
			{
				"x": 1.1154053157,
				"y": 2.0170138682,
				"z": -1.4612641512,
				"element": "N" 
			},
			{
				"x": 0.44581457,
				"y": 1.9574645075,
				"z": -0.1778506558,
				"element": "C" 
			},
			{
				"x": -0.9681604194,
				"y": 2.6024628702,
				"z": -0.2739420822,
				"element": "C" 
			},
			{
				"x": -1.0723047125,
				"y": 3.3766747442,
				"z": -1.4601782293,
				"element": "O" 
			},
			{
				"x": -2.0618624119,
				"y": 1.5356079726,
				"z": -0.2523340895,
				"element": "C" 
			},
			{
				"x": -3.298684765,
				"y": 2.248011052,
				"z": -0.3766857531,
				"element": "O" 
			},
			{
				"x": -1.984389829,
				"y": 0.696493209,
				"z": 1.0365384451,
				"element": "C" 
			},
			{
				"x": -2.6365892579,
				"y": 1.3448617341,
				"z": 2.2581958148,
				"element": "C" 
			},
			{
				"x": -2.4911517837,
				"y": 0.5204767103,
				"z": 3.3982618832,
				"element": "O" 
			},
			{
				"x": -0.6066317899,
				"y": 0.4651205817,
				"z": 1.4218628499,
				"element": "O" 
			},
			{
				"x": 0.3594370093,
				"y": 0.5170674336,
				"z": 0.402450437,
				"element": "C" 
			},
			{
				"x": 0.070984391,
				"y": -0.4051280733,
				"z": -0.6448349209,
				"element": "O" 
			},
			{
				"x": 0.7387159085,
				"y": -1.6036777768,
				"z": -0.6398653796,
				"element": "C" 
			},
			{
				"x": 2.0949903346,
				"y": -1.7832674423,
				"z": -0.4997357183,
				"element": "C" 
			},
			{
				"x": 2.372201534,
				"y": -3.1354513296,
				"z": -0.5720359229,
				"element": "N" 
			},
			{
				"x": 1.2116859415,
				"y": -3.8380694515,
				"z": -0.7843243885,
				"element": "C" 
			},
			{
				"x": 0.1394197127,
				"y": -2.8979968221,
				"z": -0.8389886301,
				"element": "C" 
			},
			{
				"x": -1.1607219542,
				"y": -3.3878043723,
				"z": -1.0819236272,
				"element": "C" 
			},
			{
				"x": -2.502986936,
				"y": -2.2731886661,
				"z": -1.2129830199,
				"element": "Cl" 
			},
			{
				"x": -1.3555658708,
				"y": -4.7583770269,
				"z": -1.2337509286,
				"element": "C" 
			},
			{
				"x": -3.0851260478,
				"y": -5.4936335649,
				"z": -1.5596451871,
				"element": "Br" 
			},
			{
				"x": -0.2758716898,
				"y": -5.662026505,
				"z": -1.1566724284,
				"element": "C" 
			},
			{
				"x": 1.014956448,
				"y": -5.2136233683,
				"z": -0.9353909642,
				"element": "C" 
			},
			{
				"x": 3.2627401178,
				"y": 0.902341554,
				"z": -3.4055311071,
				"element": "H" 
			},
			{
				"x": 3.942978093,
				"y": 2.4476501173,
				"z": -2.8979994852,
				"element": "H" 
			},
			{
				"x": 2.3418550674,
				"y": 2.3981010634,
				"z": -3.6811213742,
				"element": "H" 
			},
			{
				"x": 0.5927386477,
				"y": 2.4501343979,
				"z": -2.2102385601,
				"element": "H" 
			},
			{
				"x": 1.0394221625,
				"y": 2.5204456299,
				"z": 0.551711226,
				"element": "H" 
			},
			{
				"x": -1.1098500476,
				"y": 3.2519892784,
				"z": 0.6006476768,
				"element": "H" 
			},
			{
				"x": -2.0238151719,
				"y": 3.5199963872,
				"z": -1.5826505976,
				"element": "H" 
			},
			{
				"x": -1.9160367652,
				"y": 0.8825019315,
				"z": -1.1200998312,
				"element": "H" 
			},
			{
				"x": -3.9758681149,
				"y": 1.6364842238,
				"z": -0.6918230639,
				"element": "H" 
			},
			{
				"x": -2.4507469798,
				"y": -0.2818552781,
				"z": 0.872044766,
				"element": "H" 
			},
			{
				"x": -3.7072971711,
				"y": 1.4732536397,
				"z": 2.0827294629,
				"element": "H" 
			},
			{
				"x": -2.2055608221,
				"y": 2.3452857644,
				"z": 2.4241559242,
				"element": "H" 
			},
			{
				"x": -1.5522420995,
				"y": 0.2901980705,
				"z": 3.4453712281,
				"element": "H" 
			},
			{
				"x": 1.3045214572,
				"y": 0.2575618312,
				"z": 0.8771648073,
				"element": "H" 
			},
			{
				"x": 2.8685879341,
				"y": -1.0385338086,
				"z": -0.3783703328,
				"element": "H" 
			},
			{
				"x": 3.289339914,
				"y": -3.5410299975,
				"z": -0.4851722778,
				"element": "H" 
			},
			{
				"x": -0.4746928987,
				"y": -6.7196005709,
				"z": -1.2808300479,
				"element": "H" 
			},
			{
				"x": 1.8446337664,
				"y": -5.9120682136,
				"z": -0.8856565101,
				"element": "H" 
			}
		],
		 "valence_orbital": [ 
			{
				"type": "occ",
				"energy": -0.26003,
				"method": "rhf"
			},
			{
				"type": "occ",
				"energy": -0.25295,
				"method": "rhf"
			},
			{
				"type": "occ",
				"energy": -0.24871,
				"method": "rhf"
			},
			{
				"type": "occ",
				"energy": -0.22742,
				"method": "rhf"
			},
			{
				"type": "occ",
				"energy": -0.20281,
				"method": "rhf"
			},
			{
				"type": "unocc",
				"energy": -0.02824,
				"method": "rhf"
			},
			{
				"type": "unocc",
				"energy": -0.00506,
				"method": "rhf"
			},
			{
				"type": "unocc",
				"energy": 0.00587,
				"method": "rhf"
			},
			{
				"type": "unocc",
				"energy": 0.02058,
				"method": "rhf"
			},
			{
				"type": "unocc",
				"energy": 0.03831,
				"method": "rhf"
			}
		],
		"cosmo_sigma_profile": { 
			"-0.025": 0.0,
			"-0.024": 0.0,
			"-0.023": 0.0,
			"-0.022": 0.0,
			"-0.021": 0.0,
			"-0.02": 0.0,
			"-0.019": 0.0,
			"-0.018": 0.0,
			"-0.017": 0.567740343948,
			"-0.016": 2.88293971962,
			"-0.015": 2.60589830635,
			"-0.014": 2.1422888585,
			"-0.013": 2.11786490814,
			"-0.012": 4.53232463241,
			"-0.011": 3.35659627863,
			"-0.01": 4.15192812649,
			"-0.009": 5.4006675993,
			"-0.008": 6.28564579564,
			"-0.007": 7.64403633718,
			"-0.006": 14.0919744013,
			"-0.005": 22.1652385551,
			"-0.004": 23.754873765,
			"-0.003": 24.6410903826,
			"-0.002": 25.6360281345,
			"-0.001": 24.6693077491,
			"0.0": 20.3859763091,
			"0.001": 23.6690855099,
			"0.002": 34.7436050117,
			"0.003": 39.1137411897,
			"0.004": 30.0065401105,
			"0.005": 19.3638147343,
			"0.006": 9.23449559238,
			"0.007": 5.8823400344,
			"0.008": 5.29842878813,
			"0.009": 4.64479197489,
			"0.01": 3.74056236723,
			"0.011": 3.50595866589,
			"0.012": 3.77218119342,
			"0.013": 4.2890361978,
			"0.014": 4.78483410531,
			"0.015": 1.3471593538,
			"0.016": 0.0509346367161,
			"0.017": 0.0,
			"0.018": 0.0,
			"0.019": 0.0,
			"0.02": 0.0,
			"0.021": 0.0,
			"0.022": 0.0,
			"0.023": 0.0,
			"0.024": 0.0,
			"0.025": 0.0
		}
	}
}
