{
	 "smiles": "OC1CCCCCCCCC1=O", 
	 "Tm": 315.15, 
	 "num_atms": 30, 
	 "gaussian": { 
		 "optdone": 1, 
		 "sigma_profile": "yes", 
		 "theory": "DFT", 
		 "functional": "B3LYP", 
		 "basiset": "6-31G**", 
		 "properties": { 
			 "R2extent": 2451.4928, 
			 "electric_dipole_moment_norm": 2.06198307704, 
			 "electric_quadrupole_moment_norm": 10.5040569915, 
			 "total_energy": -542.354127331, 
			 "HOMO_LUMO_gap": 0.21358, 
			 "cosmo_polarized_energy": -10.0, 
			 "cosmo_cavitation_energy": 27.86, 
			 "cosmo_dispersion_energy": -20.84, 
			 "cosmo_repulsion_energy": 1.65, 
			 "cosmo_total_nonelectrostatic_energy": 8.67, 
			 "SMD_solvation_energy": 4.1 
		},
		"coords": [
			{
				"x": -0.7516085311,
				"y": -1.7964645625,
				"z": -2.0013354606,
				"element": "O" 
			},
			{
				"x": -0.4485224872,
				"y": -0.4466427945,
				"z": -1.6495823259,
				"element": "C" 
			},
			{
				"x": 1.060380759,
				"y": -0.3724625659,
				"z": -1.2988876005,
				"element": "C" 
			},
			{
				"x": 1.4271351071,
				"y": -0.5512015874,
				"z": 0.1827082934,
				"element": "C" 
			},
			{
				"x": 0.9028994155,
				"y": -1.8378150284,
				"z": 0.8525986286,
				"element": "C" 
			},
			{
				"x": 0.7111144096,
				"y": -1.6888660993,
				"z": 2.371898445,
				"element": "C" 
			},
			{
				"x": -0.4589846561,
				"y": -0.7747240417,
				"z": 2.7892590848,
				"element": "C" 
			},
			{
				"x": -1.8785715446,
				"y": -1.3439984741,
				"z": 2.5082715815,
				"element": "C" 
			},
			{
				"x": -2.7710981267,
				"y": -0.5461175664,
				"z": 1.533313925,
				"element": "C" 
			},
			{
				"x": -2.4645728866,
				"y": -0.7499809847,
				"z": 0.0381689699,
				"element": "C" 
			},
			{
				"x": -1.3391936222,
				"y": 0.1162242736,
				"z": -0.5197417481,
				"element": "C" 
			},
			{
				"x": -1.1532793583,
				"y": 1.2580364238,
				"z": -0.1368385763,
				"element": "O" 
			},
			{
				"x": -1.6049435658,
				"y": -1.8133850218,
				"z": -2.4529526532,
				"element": "H" 
			},
			{
				"x": -0.6209823663,
				"y": 0.2127693055,
				"z": -2.5148974754,
				"element": "H" 
			},
			{
				"x": 1.540815803,
				"y": -1.1372836697,
				"z": -1.919156271,
				"element": "H" 
			},
			{
				"x": 1.4411085036,
				"y": 0.5979629955,
				"z": -1.6326670821,
				"element": "H" 
			},
			{
				"x": 2.5201368117,
				"y": -0.5147193527,
				"z": 0.2728175155,
				"element": "H" 
			},
			{
				"x": 1.0582855972,
				"y": 0.3248507583,
				"z": 0.7245059678,
				"element": "H" 
			},
			{
				"x": -0.0428000397,
				"y": -2.1478193087,
				"z": 0.3954435935,
				"element": "H" 
			},
			{
				"x": 1.5975118375,
				"y": -2.662351533,
				"z": 0.6482628031,
				"element": "H" 
			},
			{
				"x": 1.6397591742,
				"y": -1.2999619184,
				"z": 2.8121644933,
				"element": "H" 
			},
			{
				"x": 0.5585487651,
				"y": -2.6808822156,
				"z": 2.8181737676,
				"element": "H" 
			},
			{
				"x": -0.3553899254,
				"y": 0.2057536101,
				"z": 2.3119250275,
				"element": "H" 
			},
			{
				"x": -0.3649128958,
				"y": -0.5831927167,
				"z": 3.8647254186,
				"element": "H" 
			},
			{
				"x": -2.4194748489,
				"y": -1.4095576373,
				"z": 3.4596611871,
				"element": "H" 
			},
			{
				"x": -1.8015035717,
				"y": -2.3794895515,
				"z": 2.1481428176,
				"element": "H" 
			},
			{
				"x": -3.8111299109,
				"y": -0.8510122188,
				"z": 1.6993654669,
				"element": "H" 
			},
			{
				"x": -2.7191331428,
				"y": 0.5248180433,
				"z": 1.7602149563,
				"element": "H" 
			},
			{
				"x": -3.3528012451,
				"y": -0.4661118177,
				"z": -0.5491403892,
				"element": "H" 
			},
			{
				"x": -2.2762934584,
				"y": -1.8028747433,
				"z": -0.1862223607,
				"element": "H" 
			}
		],
		 "valence_orbital": [ 
			{
				"type": "occ",
				"energy": -0.31093,
				"method": "rhf"
			},
			{
				"type": "occ",
				"energy": -0.30419,
				"method": "rhf"
			},
			{
				"type": "occ",
				"energy": -0.30063,
				"method": "rhf"
			},
			{
				"type": "occ",
				"energy": -0.29067,
				"method": "rhf"
			},
			{
				"type": "occ",
				"energy": -0.2349,
				"method": "rhf"
			},
			{
				"type": "unocc",
				"energy": -0.02132,
				"method": "rhf"
			},
			{
				"type": "unocc",
				"energy": 0.06107,
				"method": "rhf"
			},
			{
				"type": "unocc",
				"energy": 0.08921,
				"method": "rhf"
			},
			{
				"type": "unocc",
				"energy": 0.10588,
				"method": "rhf"
			},
			{
				"type": "unocc",
				"energy": 0.11516,
				"method": "rhf"
			}
		],
		"cosmo_sigma_profile": { 
			"-0.025": 0.0,
			"-0.024": 0.0,
			"-0.023": 0.0,
			"-0.022": 0.0,
			"-0.021": 0.0,
			"-0.02": 0.0,
			"-0.019": 0.0,
			"-0.018": 0.0,
			"-0.017": 0.00344390502958,
			"-0.016": 0.665572525054,
			"-0.015": 1.38234119334,
			"-0.014": 1.02436303654,
			"-0.013": 1.29804059679,
			"-0.012": 0.903243063276,
			"-0.011": 1.19997146675,
			"-0.01": 1.0523273339,
			"-0.009": 1.07149548393,
			"-0.008": 1.51211747006,
			"-0.007": 2.20992267832,
			"-0.006": 5.56216769197,
			"-0.005": 4.26525433675,
			"-0.004": 5.78853152174,
			"-0.003": 12.7649613496,
			"-0.002": 25.6048070891,
			"-0.001": 37.3226830938,
			"0.0": 38.6610989544,
			"0.001": 26.4426377308,
			"0.002": 7.5680523511,
			"0.003": 4.68087879721,
			"0.004": 3.19318526258,
			"0.005": 2.95811936717,
			"0.006": 2.97275483275,
			"0.007": 3.18572334051,
			"0.008": 3.56732857091,
			"0.009": 3.14404205738,
			"0.01": 2.30818492549,
			"0.011": 3.14576164501,
			"0.012": 5.02845971943,
			"0.013": 3.07319737263,
			"0.014": 0.161933223635,
			"0.015": 0.0,
			"0.016": 0.0,
			"0.017": 0.0,
			"0.018": 0.0,
			"0.019": 0.0,
			"0.02": 0.0,
			"0.021": 0.0,
			"0.022": 0.0,
			"0.023": 0.0,
			"0.024": 0.0,
			"0.025": 0.0
		}
	}
}
