{
	 "smiles": "BrC1=NC(Br)=NN1", 
	 "Tm": 474.15, 
	 "num_atms": 8, 
	 "gaussian": { 
		 "optdone": 1, 
		 "sigma_profile": "yes", 
		 "theory": "DFT", 
		 "functional": "B3LYP", 
		 "basiset": "6-31G**", 
		 "properties": { 
			 "R2extent": 3468.7592, 
			 "electric_dipole_moment_norm": 3.24897867798, 
			 "electric_quadrupole_moment_norm": 5.61581828588, 
			 "total_energy": -5383.84133558, 
			 "HOMO_LUMO_gap": 0.23975, 
			 "cosmo_polarized_energy": -10.62, 
			 "cosmo_cavitation_energy": 17.86, 
			 "cosmo_dispersion_energy": -14.62, 
			 "cosmo_repulsion_energy": 1.25, 
			 "cosmo_total_nonelectrostatic_energy": 4.49, 
			 "SMD_solvation_energy": -2.21 
		},
		"coords": [
			{
				"x": -0.4484923056,
				"y": -1.8548520124,
				"z": -0.673443604,
				"element": "Br" 
			},
			{
				"x": 0.4458159384,
				"y": -0.2708647468,
				"z": -1.1082859358,
				"element": "C" 
			},
			{
				"x": -0.0878681459,
				"y": 0.8200806315,
				"z": -1.6152020995,
				"element": "N" 
			},
			{
				"x": 0.9994413843,
				"y": 1.6304511777,
				"z": -1.7244801088,
				"element": "C" 
			},
			{
				"x": 0.8799240827,
				"y": 3.3746498895,
				"z": -2.4028595719,
				"element": "Br" 
			},
			{
				"x": 2.155495543,
				"y": 1.1252200202,
				"z": -1.3259284361,
				"element": "N" 
			},
			{
				"x": 1.7746741595,
				"y": -0.117613458,
				"z": -0.9266268471,
				"element": "N" 
			},
			{
				"x": 2.4488093436,
				"y": -0.7730715018,
				"z": -0.5584733969,
				"element": "H" 
			}
		],
		 "valence_orbital": [ 
			{
				"type": "occ",
				"energy": -0.32935,
				"method": "rhf"
			},
			{
				"type": "occ",
				"energy": -0.30781,
				"method": "rhf"
			},
			{
				"type": "occ",
				"energy": -0.30107,
				"method": "rhf"
			},
			{
				"type": "occ",
				"energy": -0.29893,
				"method": "rhf"
			},
			{
				"type": "occ",
				"energy": -0.26359,
				"method": "rhf"
			},
			{
				"type": "unocc",
				"energy": -0.02384,
				"method": "rhf"
			},
			{
				"type": "unocc",
				"energy": -0.02284,
				"method": "rhf"
			},
			{
				"type": "unocc",
				"energy": 0.01247,
				"method": "rhf"
			},
			{
				"type": "unocc",
				"energy": 0.0238,
				"method": "rhf"
			},
			{
				"type": "unocc",
				"energy": 0.06495,
				"method": "rhf"
			}
		],
		"cosmo_sigma_profile": { 
			"-0.025": 0.0,
			"-0.024": 0.0,
			"-0.023": 0.0,
			"-0.022": 0.0,
			"-0.021": 0.0,
			"-0.02": 0.0,
			"-0.019": 1.10702063649,
			"-0.018": 1.76683619144,
			"-0.017": 0.835422936283,
			"-0.016": 1.08848474661,
			"-0.015": 1.18643300355,
			"-0.014": 1.47615662867,
			"-0.013": 0.755747534573,
			"-0.012": 0.797417583186,
			"-0.011": 0.849879369775,
			"-0.01": 0.935926843866,
			"-0.009": 1.29581303301,
			"-0.008": 1.42301329317,
			"-0.007": 2.33265466009,
			"-0.006": 3.64857846463,
			"-0.005": 4.74763313961,
			"-0.004": 7.88894331639,
			"-0.003": 7.41897733541,
			"-0.002": 8.77450673063,
			"-0.001": 9.84259073306,
			"0.0": 11.1013352773,
			"0.001": 15.8163365828,
			"0.002": 19.5244749609,
			"0.003": 16.8282771576,
			"0.004": 7.86314670275,
			"0.005": 3.78738424214,
			"0.006": 3.24471639221,
			"0.007": 2.50869449174,
			"0.008": 2.16094748221,
			"0.009": 2.14542775653,
			"0.01": 2.22497034425,
			"0.011": 2.25167767224,
			"0.012": 2.10778225692,
			"0.013": 1.27888073566,
			"0.014": 0.343921199354,
			"0.015": 0.0,
			"0.016": 0.0,
			"0.017": 0.0,
			"0.018": 0.0,
			"0.019": 0.0,
			"0.02": 0.0,
			"0.021": 0.0,
			"0.022": 0.0,
			"0.023": 0.0,
			"0.024": 0.0,
			"0.025": 0.0
		}
	}
}
