{
	 "smiles": "CCOC1=NN=C(NS(=O)(=O)C2=CC=C(N)C=C2)C=C1", 
	 "Tm": 456.15, 
	 "num_atms": 34, 
	 "gaussian": { 
		 "optdone": 1, 
		 "sigma_profile": "yes", 
		 "theory": "DFT", 
		 "functional": "B3LYP", 
		 "basiset": "6-31G**", 
		 "properties": { 
			 "R2extent": 8753.0936, 
			 "electric_dipole_moment_norm": 6.72217205522, 
			 "electric_quadrupole_moment_norm": 33.7579051388, 
			 "total_energy": -1308.48113776, 
			 "HOMO_LUMO_gap": 0.17306, 
			 "cosmo_polarized_energy": -22.97, 
			 "cosmo_cavitation_energy": 40.1, 
			 "cosmo_dispersion_energy": -28.61, 
			 "cosmo_repulsion_energy": 2.2, 
			 "cosmo_total_nonelectrostatic_energy": 13.7, 
			 "SMD_solvation_energy": 4.98 
		},
		"coords": [
			{
				"x": -3.3623750719,
				"y": 0.196639649,
				"z": 1.4050649433,
				"element": "C" 
			},
			{
				"x": -3.594629793,
				"y": -1.159914189,
				"z": 0.7557304681,
				"element": "C" 
			},
			{
				"x": -2.9054024578,
				"y": -1.2803184133,
				"z": -0.5096653683,
				"element": "O" 
			},
			{
				"x": -1.6006228423,
				"y": -1.6169301111,
				"z": -0.5000953661,
				"element": "C" 
			},
			{
				"x": -0.9721454799,
				"y": -1.8076770081,
				"z": 0.6525324878,
				"element": "N" 
			},
			{
				"x": 0.3258294565,
				"y": -2.1348298584,
				"z": 0.6525924459,
				"element": "N" 
			},
			{
				"x": 0.9701653921,
				"y": -2.2971047471,
				"z": -0.4980937808,
				"element": "C" 
			},
			{
				"x": 2.3059854848,
				"y": -2.7345484029,
				"z": -0.3661955941,
				"element": "N" 
			},
			{
				"x": 3.6176970517,
				"y": -1.9756944208,
				"z": -1.1581791122,
				"element": "S" 
			},
			{
				"x": 4.7839297548,
				"y": -2.7090570985,
				"z": -0.6690333534,
				"element": "O" 
			},
			{
				"x": 3.2567173185,
				"y": -1.92227661,
				"z": -2.5768070851,
				"element": "O" 
			},
			{
				"x": 3.7099964038,
				"y": -0.3045232932,
				"z": -0.5527847231,
				"element": "C" 
			},
			{
				"x": 4.4422649498,
				"y": -0.0295309541,
				"z": 0.6080707082,
				"element": "C" 
			},
			{
				"x": 4.4991520912,
				"y": 1.2672055393,
				"z": 1.0968511348,
				"element": "C" 
			},
			{
				"x": 3.8235659204,
				"y": 2.3145432734,
				"z": 0.4367029267,
				"element": "C" 
			},
			{
				"x": 3.8411403234,
				"y": 3.5969790253,
				"z": 0.9511822841,
				"element": "N" 
			},
			{
				"x": 3.0969245209,
				"y": 2.0203260269,
				"z": -0.7348646337,
				"element": "C" 
			},
			{
				"x": 3.0399632291,
				"y": 0.7232725093,
				"z": -1.2253871817,
				"element": "C" 
			},
			{
				"x": 0.3527567321,
				"y": -2.1302729727,
				"z": -1.7591583653,
				"element": "C" 
			},
			{
				"x": -0.9698684606,
				"y": -1.7645130788,
				"z": -1.7560468284,
				"element": "C" 
			},
			{
				"x": -3.6373893012,
				"y": 1.0058188012,
				"z": 0.7217737185,
				"element": "H" 
			},
			{
				"x": -2.3153175253,
				"y": 0.3121167801,
				"z": 1.6933788346,
				"element": "H" 
			},
			{
				"x": -3.9789728534,
				"y": 0.2838999752,
				"z": 2.3061657123,
				"element": "H" 
			},
			{
				"x": -4.6467844575,
				"y": -1.2965075913,
				"z": 0.4926872439,
				"element": "H" 
			},
			{
				"x": -3.2792041023,
				"y": -1.97115923,
				"z": 1.4165907402,
				"element": "H" 
			},
			{
				"x": 2.5347469524,
				"y": -2.9160333217,
				"z": 0.6092546029,
				"element": "H" 
			},
			{
				"x": 4.9819030842,
				"y": -0.8275972642,
				"z": 1.1068187014,
				"element": "H" 
			},
			{
				"x": 5.072228401,
				"y": 1.4817680227,
				"z": 1.9948260277,
				"element": "H" 
			},
			{
				"x": 3.606197031,
				"y": 4.3491848402,
				"z": 0.3209284128,
				"element": "H" 
			},
			{
				"x": 4.5824670187,
				"y": 3.823632099,
				"z": 1.5971886936,
				"element": "H" 
			},
			{
				"x": 2.5810260753,
				"y": 2.8197356766,
				"z": -1.2599252965,
				"element": "H" 
			},
			{
				"x": 2.4998239063,
				"y": 0.5057930413,
				"z": -2.1399783859,
				"element": "H" 
			},
			{
				"x": 0.9153221779,
				"y": -2.2942842281,
				"z": -2.669791377,
				"element": "H" 
			},
			{
				"x": -1.5385909307,
				"y": -1.614542466,
				"z": -2.6670336352,
				"element": "H" 
			}
		],
		 "valence_orbital": [ 
			{
				"type": "occ",
				"energy": -0.29293,
				"method": "rhf"
			},
			{
				"type": "occ",
				"energy": -0.27098,
				"method": "rhf"
			},
			{
				"type": "occ",
				"energy": -0.23862,
				"method": "rhf"
			},
			{
				"type": "occ",
				"energy": -0.23666,
				"method": "rhf"
			},
			{
				"type": "occ",
				"energy": -0.2225,
				"method": "rhf"
			},
			{
				"type": "unocc",
				"energy": -0.04944,
				"method": "rhf"
			},
			{
				"type": "unocc",
				"energy": -0.02969,
				"method": "rhf"
			},
			{
				"type": "unocc",
				"energy": -0.0198,
				"method": "rhf"
			},
			{
				"type": "unocc",
				"energy": -0.00475,
				"method": "rhf"
			},
			{
				"type": "unocc",
				"energy": 0.05805,
				"method": "rhf"
			}
		],
		"cosmo_sigma_profile": { 
			"-0.025": 0.0,
			"-0.024": 0.0,
			"-0.023": 0.0,
			"-0.022": 0.0,
			"-0.021": 0.0,
			"-0.02": 0.0,
			"-0.019": 0.0,
			"-0.018": 0.0,
			"-0.017": 0.0,
			"-0.016": 0.0,
			"-0.015": 0.421744399667,
			"-0.014": 1.15999650783,
			"-0.013": 4.10386166078,
			"-0.012": 3.7007546605,
			"-0.011": 4.01480348712,
			"-0.01": 4.1018175564,
			"-0.009": 4.62525726093,
			"-0.008": 6.87120301754,
			"-0.007": 9.77532615412,
			"-0.006": 13.0172112215,
			"-0.005": 14.6520424005,
			"-0.004": 19.6810798189,
			"-0.003": 22.0670934826,
			"-0.002": 22.4305697732,
			"-0.001": 26.7288761114,
			"0.0": 26.7979291917,
			"0.001": 18.8329611297,
			"0.002": 16.6169800591,
			"0.003": 17.8269116262,
			"0.004": 18.0845351912,
			"0.005": 7.76435251477,
			"0.006": 6.97578100231,
			"0.007": 8.03226798212,
			"0.008": 7.963862494,
			"0.009": 6.57881639404,
			"0.01": 9.30932016188,
			"0.011": 10.1433223277,
			"0.012": 3.22029241045,
			"0.013": 2.70053811746,
			"0.014": 1.27540133259,
			"0.015": 0.0880330026562,
			"0.016": 0.0,
			"0.017": 0.0,
			"0.018": 0.0,
			"0.019": 0.0,
			"0.02": 0.0,
			"0.021": 0.0,
			"0.022": 0.0,
			"0.023": 0.0,
			"0.024": 0.0,
			"0.025": 0.0
		}
	}
}
