{
	 "smiles": "OC(=O)C1=C(COC2=CC(=CC=C2)C#N)C=CO1", 
	 "Tm": 451.15, 
	 "num_atms": 27, 
	 "gaussian": { 
		 "optdone": 1, 
		 "sigma_profile": "yes", 
		 "theory": "DFT", 
		 "functional": "B3LYP", 
		 "basiset": "6-31G**", 
		 "properties": { 
			 "R2extent": 5487.5072, 
			 "electric_dipole_moment_norm": 7.84621658763, 
			 "electric_quadrupole_moment_norm": 31.9295384949, 
			 "total_energy": -856.411470066, 
			 "HOMO_LUMO_gap": 0.1747, 
			 "cosmo_polarized_energy": -19.08, 
			 "cosmo_cavitation_energy": 33.62, 
			 "cosmo_dispersion_energy": -22.89, 
			 "cosmo_repulsion_energy": 1.77, 
			 "cosmo_total_nonelectrostatic_energy": 12.5, 
			 "SMD_solvation_energy": 9.46 
		},
		"coords": [
			{
				"x": -2.4212517748,
				"y": 3.9867924098,
				"z": 1.9314373415,
				"element": "O" 
			},
			{
				"x": -1.4625838288,
				"y": 3.486757923,
				"z": 1.1243369505,
				"element": "C" 
			},
			{
				"x": -1.3024894246,
				"y": 3.9052342132,
				"z": -0.0042186735,
				"element": "O" 
			},
			{
				"x": -0.6402890151,
				"y": 2.4082379333,
				"z": 1.6928972473,
				"element": "C" 
			},
			{
				"x": 0.4236443591,
				"y": 1.6976482587,
				"z": 1.1963926356,
				"element": "C" 
			},
			{
				"x": 1.1217313432,
				"y": 1.8799100655,
				"z": -0.1232882754,
				"element": "C" 
			},
			{
				"x": 1.3093486139,
				"y": 0.6372297866,
				"z": -0.8078293265,
				"element": "O" 
			},
			{
				"x": 0.257447725,
				"y": 0.0728840432,
				"z": -1.4747733042,
				"element": "C" 
			},
			{
				"x": -1.0028411918,
				"y": 0.6576825178,
				"z": -1.6228701177,
				"element": "C" 
			},
			{
				"x": -1.9915183053,
				"y": -0.0340618057,
				"z": -2.347745744,
				"element": "C" 
			},
			{
				"x": -1.7310143194,
				"y": -1.2870443189,
				"z": -2.9193893494,
				"element": "C" 
			},
			{
				"x": -0.464325928,
				"y": -1.8498922976,
				"z": -2.7617086781,
				"element": "C" 
			},
			{
				"x": 0.5225897476,
				"y": -1.1818824617,
				"z": -2.0456864183,
				"element": "C" 
			},
			{
				"x": -3.2938141983,
				"y": 0.5516497426,
				"z": -2.4959538708,
				"element": "C" 
			},
			{
				"x": -4.355481471,
				"y": 1.0111510849,
				"z": -2.6177264445,
				"element": "N" 
			},
			{
				"x": 0.7729643954,
				"y": 0.7537153417,
				"z": 2.2161623718,
				"element": "C" 
			},
			{
				"x": -0.0907100201,
				"y": 0.9580850109,
				"z": 3.2488510488,
				"element": "C" 
			},
			{
				"x": -0.957509682,
				"y": 1.9644359255,
				"z": 2.9548714739,
				"element": "O" 
			},
			{
				"x": -2.4120082349,
				"y": 3.5229434817,
				"z": 2.7837511206,
				"element": "H" 
			},
			{
				"x": 0.5964669528,
				"y": 2.6131597808,
				"z": -0.7389835708,
				"element": "H" 
			},
			{
				"x": 2.1390341952,
				"y": 2.2449100728,
				"z": 0.0477397504,
				"element": "H" 
			},
			{
				"x": -1.239233743,
				"y": 1.6287407179,
				"z": -1.2051431904,
				"element": "H" 
			},
			{
				"x": -2.5085056629,
				"y": -1.8017208253,
				"z": -3.4722820619,
				"element": "H" 
			},
			{
				"x": -0.2454823244,
				"y": -2.8186436793,
				"z": -3.2001331733,
				"element": "H" 
			},
			{
				"x": 1.5118747728,
				"y": -1.6079357511,
				"z": -1.9151979418,
				"element": "H" 
			},
			{
				"x": 1.5621916666,
				"y": 0.0176490788,
				"z": 2.169194531,
				"element": "H" 
			},
			{
				"x": -0.2167346474,
				"y": 0.4950637512,
				"z": 4.2153956691,
				"element": "H" 
			}
		],
		 "valence_orbital": [ 
			{
				"type": "occ",
				"energy": -0.30854,
				"method": "rhf"
			},
			{
				"type": "occ",
				"energy": -0.29112,
				"method": "rhf"
			},
			{
				"type": "occ",
				"energy": -0.2674,
				"method": "rhf"
			},
			{
				"type": "occ",
				"energy": -0.26256,
				"method": "rhf"
			},
			{
				"type": "occ",
				"energy": -0.23887,
				"method": "rhf"
			},
			{
				"type": "unocc",
				"energy": -0.06417,
				"method": "rhf"
			},
			{
				"type": "unocc",
				"energy": -0.04552,
				"method": "rhf"
			},
			{
				"type": "unocc",
				"energy": -0.00892,
				"method": "rhf"
			},
			{
				"type": "unocc",
				"energy": 0.01309,
				"method": "rhf"
			},
			{
				"type": "unocc",
				"energy": 0.04475,
				"method": "rhf"
			}
		],
		"cosmo_sigma_profile": { 
			"-0.025": 0.0,
			"-0.024": 0.0,
			"-0.023": 0.0,
			"-0.022": 0.0,
			"-0.021": 0.0,
			"-0.02": 0.0,
			"-0.019": 0.0,
			"-0.018": 0.0544767325152,
			"-0.017": 0.536768398928,
			"-0.016": 0.447305872138,
			"-0.015": 0.979529145196,
			"-0.014": 0.264765424197,
			"-0.013": 0.622409446146,
			"-0.012": 1.35453562215,
			"-0.011": 1.40094218402,
			"-0.01": 2.92272152337,
			"-0.009": 2.94322182719,
			"-0.008": 7.01378209982,
			"-0.007": 11.8786563661,
			"-0.006": 14.4845761775,
			"-0.005": 16.9164566442,
			"-0.004": 16.8494124811,
			"-0.003": 16.5998066892,
			"-0.002": 14.4910496115,
			"-0.001": 19.2096861226,
			"0.0": 22.6091854692,
			"0.001": 24.0154236599,
			"0.002": 22.8930103898,
			"0.003": 13.2430551835,
			"0.004": 6.6787286689,
			"0.005": 5.12067412426,
			"0.006": 6.48015029111,
			"0.007": 5.86008335851,
			"0.008": 7.47719842037,
			"0.009": 7.88116101838,
			"0.01": 7.64632116239,
			"0.011": 5.8550013822,
			"0.012": 5.0326484149,
			"0.013": 2.28582833145,
			"0.014": 0.0380260243013,
			"0.015": 0.0,
			"0.016": 0.0,
			"0.017": 0.0,
			"0.018": 0.0,
			"0.019": 0.0,
			"0.02": 0.0,
			"0.021": 0.0,
			"0.022": 0.0,
			"0.023": 0.0,
			"0.024": 0.0,
			"0.025": 0.0
		}
	}
}
