{
	 "smiles": "COC1=CC=C(NS(=O)(=O)C2=CC(N)=C(O)C=C2)C=C1", 
	 "Tm": 487.15, 
	 "num_atms": 34, 
	 "gaussian": { 
		 "optdone": 1, 
		 "sigma_profile": "yes", 
		 "theory": "DFT", 
		 "functional": "B3LYP", 
		 "basiset": "6-31G**", 
		 "properties": { 
			 "R2extent": 8759.9579, 
			 "electric_dipole_moment_norm": 4.26450692109, 
			 "electric_quadrupole_moment_norm": 42.9323229168, 
			 "total_energy": -1312.32535693, 
			 "HOMO_LUMO_gap": 0.1854, 
			 "cosmo_polarized_energy": -22.68, 
			 "cosmo_cavitation_energy": 39.74, 
			 "cosmo_dispersion_energy": -28.29, 
			 "cosmo_repulsion_energy": 2.16, 
			 "cosmo_total_nonelectrostatic_energy": 13.61, 
			 "SMD_solvation_energy": 7.24 
		},
		"coords": [
			{
				"x": 1.0742408304,
				"y": -2.0993212291,
				"z": 4.4750968612,
				"element": "C" 
			},
			{
				"x": -0.0414943504,
				"y": -2.3571670377,
				"z": 3.6373472252,
				"element": "O" 
			},
			{
				"x": -0.6974193929,
				"y": -1.2927276508,
				"z": 3.0904236147,
				"element": "C" 
			},
			{
				"x": -0.3510458573,
				"y": 0.0492365472,
				"z": 3.2923405736,
				"element": "C" 
			},
			{
				"x": -1.10419728,
				"y": 1.0635390592,
				"z": 2.6982189573,
				"element": "C" 
			},
			{
				"x": -2.186542202,
				"y": 0.7518890533,
				"z": 1.8702861896,
				"element": "C" 
			},
			{
				"x": -2.9692935548,
				"y": 1.7924288363,
				"z": 1.2875605321,
				"element": "N" 
			},
			{
				"x": -2.3213187885,
				"y": 2.869467416,
				"z": 0.1374710509,
				"element": "S" 
			},
			{
				"x": -1.1262633141,
				"y": 3.4559719895,
				"z": 0.7441455746,
				"element": "O" 
			},
			{
				"x": -3.4736922373,
				"y": 3.6753118567,
				"z": -0.2747267495,
				"element": "O" 
			},
			{
				"x": -1.7976585136,
				"y": 1.9022311355,
				"z": -1.2707299243,
				"element": "C" 
			},
			{
				"x": -2.655214996,
				"y": 1.7855286122,
				"z": -2.3697313937,
				"element": "C" 
			},
			{
				"x": -2.2677050603,
				"y": 1.0172524476,
				"z": -3.462161851,
				"element": "C" 
			},
			{
				"x": -3.0428105262,
				"y": 0.8180329948,
				"z": -4.6604538355,
				"element": "N" 
			},
			{
				"x": -1.0212027174,
				"y": 0.3533091193,
				"z": -3.4436443472,
				"element": "C" 
			},
			{
				"x": -0.6662675334,
				"y": -0.4049250916,
				"z": -4.4986592641,
				"element": "O" 
			},
			{
				"x": -0.1639350253,
				"y": 0.4855694231,
				"z": -2.344229203,
				"element": "C" 
			},
			{
				"x": -0.5510315713,
				"y": 1.2641563932,
				"z": -1.2593892736,
				"element": "C" 
			},
			{
				"x": -2.5196097606,
				"y": -0.5950355596,
				"z": 1.6599399611,
				"element": "C" 
			},
			{
				"x": -1.7947466044,
				"y": -1.6068334062,
				"z": 2.2752502631,
				"element": "C" 
			},
			{
				"x": 1.8723348969,
				"y": -1.5717851191,
				"z": 3.936809212,
				"element": "H" 
			},
			{
				"x": 1.442604085,
				"y": -3.0751053128,
				"z": 4.7953156467,
				"element": "H" 
			},
			{
				"x": 0.7909367673,
				"y": -1.5132999907,
				"z": 5.3589293282,
				"element": "H" 
			},
			{
				"x": 0.4864023019,
				"y": 0.3199964555,
				"z": 3.9241193624,
				"element": "H" 
			},
			{
				"x": -0.852555603,
				"y": 2.1034849902,
				"z": 2.8686992823,
				"element": "H" 
			},
			{
				"x": -3.8992344689,
				"y": 1.51269715,
				"z": 0.9911017815,
				"element": "H" 
			},
			{
				"x": -3.6027844371,
				"y": 2.3154858,
				"z": -2.3708027072,
				"element": "H" 
			},
			{
				"x": -3.0646431297,
				"y": 1.6581038396,
				"z": -5.2342737642,
				"element": "H" 
			},
			{
				"x": -4.0050032644,
				"y": 0.5692127714,
				"z": -4.4500680604,
				"element": "H" 
			},
			{
				"x": -1.4431664063,
				"y": -0.367363805,
				"z": -5.0962600902,
				"element": "H" 
			},
			{
				"x": 0.7934266408,
				"y": -0.0237140028,
				"z": -2.3586777188,
				"element": "H" 
			},
			{
				"x": 0.1107274436,
				"y": 1.3904470096,
				"z": -0.4102132179,
				"element": "H" 
			},
			{
				"x": -3.3555574221,
				"y": -0.849738495,
				"z": 1.0132732744,
				"element": "H" 
			},
			{
				"x": -2.0511789486,
				"y": -2.6506361998,
				"z": 2.1279927096,
				"element": "H" 
			}
		],
		 "valence_orbital": [ 
			{
				"type": "occ",
				"energy": -0.28796,
				"method": "rhf"
			},
			{
				"type": "occ",
				"energy": -0.26627,
				"method": "rhf"
			},
			{
				"type": "occ",
				"energy": -0.25766,
				"method": "rhf"
			},
			{
				"type": "occ",
				"energy": -0.23534,
				"method": "rhf"
			},
			{
				"type": "occ",
				"energy": -0.21119,
				"method": "rhf"
			},
			{
				"type": "unocc",
				"energy": -0.02579,
				"method": "rhf"
			},
			{
				"type": "unocc",
				"energy": -0.02158,
				"method": "rhf"
			},
			{
				"type": "unocc",
				"energy": -0.00885,
				"method": "rhf"
			},
			{
				"type": "unocc",
				"energy": 0.0054,
				"method": "rhf"
			},
			{
				"type": "unocc",
				"energy": 0.05845,
				"method": "rhf"
			}
		],
		"cosmo_sigma_profile": { 
			"-0.025": 0.0,
			"-0.024": 0.0,
			"-0.023": 0.0,
			"-0.022": 0.0,
			"-0.021": 0.0,
			"-0.02": 0.0,
			"-0.019": 0.0,
			"-0.018": 0.0,
			"-0.017": 0.0,
			"-0.016": 0.0717004829206,
			"-0.015": 0.938791055368,
			"-0.014": 1.00795933269,
			"-0.013": 1.61831800718,
			"-0.012": 3.54862954381,
			"-0.011": 5.8486231152,
			"-0.01": 4.04606838008,
			"-0.009": 4.20619766829,
			"-0.008": 5.47728739134,
			"-0.007": 9.52073876832,
			"-0.006": 18.2357875264,
			"-0.005": 22.6619473322,
			"-0.004": 21.9615034876,
			"-0.003": 19.6369680793,
			"-0.002": 14.4605303042,
			"-0.001": 14.816257797,
			"0.0": 15.6264319333,
			"0.001": 17.6445541493,
			"0.002": 22.7965926172,
			"0.003": 26.3009945796,
			"0.004": 20.7104605867,
			"0.005": 12.0712178696,
			"0.006": 8.10981441838,
			"0.007": 7.61502523946,
			"0.008": 6.2006519394,
			"0.009": 7.55894908185,
			"0.01": 9.98525101775,
			"0.011": 10.1558114137,
			"0.012": 3.49431348182,
			"0.013": 0.0,
			"0.014": 0.0,
			"0.015": 0.0,
			"0.016": 0.0,
			"0.017": 0.0,
			"0.018": 0.0,
			"0.019": 0.0,
			"0.02": 0.0,
			"0.021": 0.0,
			"0.022": 0.0,
			"0.023": 0.0,
			"0.024": 0.0,
			"0.025": 0.0
		}
	}
}
