{
	 "smiles": "OCC1=CC=CC=C1C(F)(F)F", 
	 "Tm": 277.15, 
	 "num_atms": 19, 
	 "gaussian": { 
		 "optdone": 1, 
		 "sigma_profile": "yes", 
		 "theory": "DFT", 
		 "functional": "B3LYP", 
		 "basiset": "6-31G**", 
		 "properties": { 
			 "R2extent": 2354.6938, 
			 "electric_dipole_moment_norm": 2.45499452342, 
			 "electric_quadrupole_moment_norm": 9.07841618511, 
			 "total_energy": -683.811815628, 
			 "HOMO_LUMO_gap": 0.22548, 
			 "cosmo_polarized_energy": -6.69, 
			 "cosmo_cavitation_energy": 23.43, 
			 "cosmo_dispersion_energy": -17.15, 
			 "cosmo_repulsion_energy": 1.3, 
			 "cosmo_total_nonelectrostatic_energy": 7.58, 
			 "SMD_solvation_energy": 4.92 
		},
		"coords": [
			{
				"x": -1.3201864228,
				"y": -1.7014167561,
				"z": -0.5576851428,
				"element": "O" 
			},
			{
				"x": -0.9347604249,
				"y": -0.3369549191,
				"z": -0.4423954431,
				"element": "C" 
			},
			{
				"x": -0.5239690409,
				"y": 0.035621256,
				"z": 0.9750806941,
				"element": "C" 
			},
			{
				"x": -1.4958458441,
				"y": 0.5152063308,
				"z": 1.8593601229,
				"element": "C" 
			},
			{
				"x": -1.1888060936,
				"y": 0.8277892694,
				"z": 3.1837658751,
				"element": "C" 
			},
			{
				"x": 0.1127788626,
				"y": 0.658980273,
				"z": 3.6531587966,
				"element": "C" 
			},
			{
				"x": 1.0984826051,
				"y": 0.1770083391,
				"z": 2.793278797,
				"element": "C" 
			},
			{
				"x": 0.7867103863,
				"y": -0.1353338369,
				"z": 1.4670787693,
				"element": "C" 
			},
			{
				"x": 1.8847460129,
				"y": -0.6410512272,
				"z": 0.5673354423,
				"element": "C" 
			},
			{
				"x": 3.0403294887,
				"y": -0.8509475938,
				"z": 1.2257888972,
				"element": "F" 
			},
			{
				"x": 2.1559013088,
				"y": 0.2142796618,
				"z": -0.4461352791,
				"element": "F" 
			},
			{
				"x": 1.5535333051,
				"y": -1.8309170162,
				"z": -0.0196217684,
				"element": "F" 
			},
			{
				"x": -0.5204650344,
				"y": -2.2279380728,
				"z": -0.4262289961,
				"element": "H" 
			},
			{
				"x": -1.8187424674,
				"y": 0.2457842616,
				"z": -0.7164962613,
				"element": "H" 
			},
			{
				"x": -0.1413416333,
				"y": -0.0811846968,
				"z": -1.1546843163,
				"element": "H" 
			},
			{
				"x": -2.5120767133,
				"y": 0.6432319634,
				"z": 1.496624057,
				"element": "H" 
			},
			{
				"x": -1.9644433059,
				"y": 1.2021765188,
				"z": 3.8454660373,
				"element": "H" 
			},
			{
				"x": 0.3635115889,
				"y": 0.9005398843,
				"z": 4.6814043446,
				"element": "H" 
			},
			{
				"x": 2.1133434222,
				"y": 0.0410263607,
				"z": 3.1482053738,
				"element": "H" 
			}
		],
		 "valence_orbital": [ 
			{
				"type": "occ",
				"energy": -0.359,
				"method": "rhf"
			},
			{
				"type": "occ",
				"energy": -0.33119,
				"method": "rhf"
			},
			{
				"type": "occ",
				"energy": -0.27424,
				"method": "rhf"
			},
			{
				"type": "occ",
				"energy": -0.27214,
				"method": "rhf"
			},
			{
				"type": "occ",
				"energy": -0.25976,
				"method": "rhf"
			},
			{
				"type": "unocc",
				"energy": -0.03428,
				"method": "rhf"
			},
			{
				"type": "unocc",
				"energy": -0.02047,
				"method": "rhf"
			},
			{
				"type": "unocc",
				"energy": 0.08792,
				"method": "rhf"
			},
			{
				"type": "unocc",
				"energy": 0.103,
				"method": "rhf"
			},
			{
				"type": "unocc",
				"energy": 0.11379,
				"method": "rhf"
			}
		],
		"cosmo_sigma_profile": { 
			"-0.025": 0.0,
			"-0.024": 0.0,
			"-0.023": 0.0,
			"-0.022": 0.0,
			"-0.021": 0.0,
			"-0.02": 0.0,
			"-0.019": 0.0,
			"-0.018": 0.0,
			"-0.017": 0.0,
			"-0.016": 0.0,
			"-0.015": 0.0,
			"-0.014": 0.0,
			"-0.013": 0.0,
			"-0.012": 0.174940113852,
			"-0.011": 0.584064166167,
			"-0.01": 0.616033601144,
			"-0.009": 1.43578518467,
			"-0.008": 0.340277474859,
			"-0.007": 4.33680313366,
			"-0.006": 12.0422302388,
			"-0.005": 12.0518998312,
			"-0.004": 12.4628595345,
			"-0.003": 13.7316692899,
			"-0.002": 14.4544156837,
			"-0.001": 12.7051515335,
			"0.0": 12.7963008367,
			"0.001": 15.3685839443,
			"0.002": 27.3995915255,
			"0.003": 23.5455431741,
			"0.004": 7.96125759872,
			"0.005": 1.47384532172,
			"0.006": 1.35475405281,
			"0.007": 1.42980887729,
			"0.008": 1.51005725312,
			"0.009": 1.06711850411,
			"0.01": 1.02956829801,
			"0.011": 1.71318595342,
			"0.012": 1.0932618935,
			"0.013": 2.0379857578,
			"0.014": 2.25469464437,
			"0.015": 0.161630114651,
			"0.016": 0.0,
			"0.017": 0.0,
			"0.018": 0.0,
			"0.019": 0.0,
			"0.02": 0.0,
			"0.021": 0.0,
			"0.022": 0.0,
			"0.023": 0.0,
			"0.024": 0.0,
			"0.025": 0.0
		}
	}
}
