{
	 "smiles": "CC1=CC2=C(O1)C1=C(CCC2(C)C2=CC=CC=C2)OC2=C1C=C(C)C=C2", 
	 "Tm": 392.15, 
	 "num_atms": 48, 
	 "gaussian": { 
		 "optdone": 1, 
		 "sigma_profile": "yes", 
		 "theory": "DFT", 
		 "functional": "B3LYP", 
		 "basiset": "6-31G**", 
		 "properties": { 
			 "R2extent": 9995.3093, 
			 "electric_dipole_moment_norm": 1.46813425476, 
			 "electric_quadrupole_moment_norm": 9.53479526524, 
			 "total_energy": -1078.26864633, 
			 "HOMO_LUMO_gap": 0.16481, 
			 "cosmo_polarized_energy": -8.52, 
			 "cosmo_cavitation_energy": 48.47, 
			 "cosmo_dispersion_energy": -33.69, 
			 "cosmo_repulsion_energy": 2.54, 
			 "cosmo_total_nonelectrostatic_energy": 17.31, 
			 "SMD_solvation_energy": 8.28 
		},
		"coords": [
			{
				"x": -2.7473326627,
				"y": -1.9781945046,
				"z": 2.137722069,
				"element": "C" 
			},
			{
				"x": -1.5532311192,
				"y": -1.6302467993,
				"z": 1.3213836552,
				"element": "C" 
			},
			{
				"x": -0.2125889776,
				"y": -1.8003951087,
				"z": 1.4887337086,
				"element": "C" 
			},
			{
				"x": 0.4468811714,
				"y": -1.2513758175,
				"z": 0.3321854319,
				"element": "C" 
			},
			{
				"x": -0.566501447,
				"y": -0.7728230789,
				"z": -0.4683814351,
				"element": "C" 
			},
			{
				"x": -1.7833555591,
				"y": -1.0043537479,
				"z": 0.1269732042,
				"element": "O" 
			},
			{
				"x": -0.5965347072,
				"y": -0.0837278645,
				"z": -1.737940475,
				"element": "C" 
			},
			{
				"x": 0.5005918141,
				"y": 0.2336266695,
				"z": -2.4933347876,
				"element": "C" 
			},
			{
				"x": 1.9532029401,
				"y": -0.021351024,
				"z": -2.2942960199,
				"element": "C" 
			},
			{
				"x": 2.2669311891,
				"y": -1.2701359303,
				"z": -1.452285449,
				"element": "C" 
			},
			{
				"x": 1.9480198205,
				"y": -1.2217685217,
				"z": 0.0764233781,
				"element": "C" 
			},
			{
				"x": 2.5630841328,
				"y": -2.5065853956,
				"z": 0.6954087537,
				"element": "C" 
			},
			{
				"x": 2.62264641,
				"y": 0.0168436168,
				"z": 0.7119557535,
				"element": "C" 
			},
			{
				"x": 4.0218503842,
				"y": 0.1526055335,
				"z": 0.6723696003,
				"element": "C" 
			},
			{
				"x": 4.6595742286,
				"y": 1.2604483256,
				"z": 1.2289783662,
				"element": "C" 
			},
			{
				"x": 3.911945244,
				"y": 2.2672382083,
				"z": 1.8432297533,
				"element": "C" 
			},
			{
				"x": 2.5239968628,
				"y": 2.1505383094,
				"z": 1.8876962459,
				"element": "C" 
			},
			{
				"x": 1.888355364,
				"y": 1.0395140717,
				"z": 1.3267346684,
				"element": "C" 
			},
			{
				"x": 0.1489493064,
				"y": 0.9124472357,
				"z": -3.6365553409,
				"element": "O" 
			},
			{
				"x": -1.2166709379,
				"y": 1.0350332703,
				"z": -3.6143469146,
				"element": "C" 
			},
			{
				"x": -1.7461240239,
				"y": 0.4352683622,
				"z": -2.4612114857,
				"element": "C" 
			},
			{
				"x": -3.1355337053,
				"y": 0.4581096444,
				"z": -2.263776059,
				"element": "C" 
			},
			{
				"x": -3.9524594335,
				"y": 1.0733492059,
				"z": -3.2143946669,
				"element": "C" 
			},
			{
				"x": -5.4531997829,
				"y": 1.115464783,
				"z": -3.029760388,
				"element": "C" 
			},
			{
				"x": -3.3727857135,
				"y": 1.6632438805,
				"z": -4.3603989624,
				"element": "C" 
			},
			{
				"x": -1.9976310017,
				"y": 1.6548782072,
				"z": -4.5811712048,
				"element": "C" 
			},
			{
				"x": -2.4342502507,
				"y": -2.4661365401,
				"z": 3.0636671157,
				"element": "H" 
			},
			{
				"x": -3.41738803,
				"y": -2.660441697,
				"z": 1.6010706725,
				"element": "H" 
			},
			{
				"x": -3.3296608467,
				"y": -1.0870038221,
				"z": 2.4004940356,
				"element": "H" 
			},
			{
				"x": 0.2551611448,
				"y": -2.2657846316,
				"z": 2.3439394168,
				"element": "H" 
			},
			{
				"x": 2.4326314864,
				"y": 0.8591669532,
				"z": -1.8446512563,
				"element": "H" 
			},
			{
				"x": 2.4092018195,
				"y": -0.1400722844,
				"z": -3.2844119028,
				"element": "H" 
			},
			{
				"x": 1.7530929775,
				"y": -2.1377480497,
				"z": -1.8824397084,
				"element": "H" 
			},
			{
				"x": 3.3396640294,
				"y": -1.4634870974,
				"z": -1.5565593185,
				"element": "H" 
			},
			{
				"x": 3.6325173033,
				"y": -2.5758236428,
				"z": 0.4800596288,
				"element": "H" 
			},
			{
				"x": 2.0767129637,
				"y": -3.3977225452,
				"z": 0.286245846,
				"element": "H" 
			},
			{
				"x": 2.4469004546,
				"y": -2.5197232988,
				"z": 1.7819579844,
				"element": "H" 
			},
			{
				"x": 4.6295276014,
				"y": -0.6144877231,
				"z": 0.2011122275,
				"element": "H" 
			},
			{
				"x": 5.7426782607,
				"y": 1.3354963257,
				"z": 1.1834038533,
				"element": "H" 
			},
			{
				"x": 4.4066767738,
				"y": 3.130563634,
				"z": 2.2789044463,
				"element": "H" 
			},
			{
				"x": 1.9263308188,
				"y": 2.9260777681,
				"z": 2.3589408561,
				"element": "H" 
			},
			{
				"x": 0.8077100714,
				"y": 0.9663823026,
				"z": 1.3704769878,
				"element": "H" 
			},
			{
				"x": -3.567302425,
				"y": 0.0014454843,
				"z": -1.3803757526,
				"element": "H" 
			},
			{
				"x": -5.8236089561,
				"y": 2.1465675787,
				"z": -2.9860324743,
				"element": "H" 
			},
			{
				"x": -5.7541031962,
				"y": 0.6150947669,
				"z": -2.1052406815,
				"element": "H" 
			},
			{
				"x": -5.9738630415,
				"y": 0.6231218436,
				"z": -3.8596285442,
				"element": "H" 
			},
			{
				"x": -4.0212503461,
				"y": 2.1382907911,
				"z": -5.0922061039,
				"element": "H" 
			},
			{
				"x": -1.5526584095,
				"y": 2.1077723531,
				"z": -5.4606687276,
				"element": "H" 
			}
		],
		 "valence_orbital": [ 
			{
				"type": "occ",
				"energy": -0.24572,
				"method": "rhf"
			},
			{
				"type": "occ",
				"energy": -0.23939,
				"method": "rhf"
			},
			{
				"type": "occ",
				"energy": -0.23369,
				"method": "rhf"
			},
			{
				"type": "occ",
				"energy": -0.21874,
				"method": "rhf"
			},
			{
				"type": "occ",
				"energy": -0.18205,
				"method": "rhf"
			},
			{
				"type": "unocc",
				"energy": -0.01724,
				"method": "rhf"
			},
			{
				"type": "unocc",
				"energy": -0.00181,
				"method": "rhf"
			},
			{
				"type": "unocc",
				"energy": 0.00417,
				"method": "rhf"
			},
			{
				"type": "unocc",
				"energy": 0.01045,
				"method": "rhf"
			},
			{
				"type": "unocc",
				"energy": 0.02285,
				"method": "rhf"
			}
		],
		"cosmo_sigma_profile": { 
			"-0.025": 0.0,
			"-0.024": 0.0,
			"-0.023": 0.0,
			"-0.022": 0.0,
			"-0.021": 0.0,
			"-0.02": 0.0,
			"-0.019": 0.0,
			"-0.018": 0.0,
			"-0.017": 0.0,
			"-0.016": 0.0,
			"-0.015": 0.0,
			"-0.014": 0.0,
			"-0.013": 0.0,
			"-0.012": 0.0,
			"-0.011": 0.0,
			"-0.01": 0.0,
			"-0.009": 0.0,
			"-0.008": 0.0,
			"-0.007": 1.05255949262,
			"-0.006": 7.92277196774,
			"-0.005": 21.7422754018,
			"-0.004": 33.2344569835,
			"-0.003": 43.0279352111,
			"-0.002": 37.2287981341,
			"-0.001": 40.3737865626,
			"0.0": 36.0962183852,
			"0.001": 32.5704817238,
			"0.002": 27.8592573171,
			"0.003": 32.8361723722,
			"0.004": 27.6739668699,
			"0.005": 22.5896166174,
			"0.006": 15.5131473521,
			"0.007": 2.70901129269,
			"0.008": 1.63677975203,
			"0.009": 0.502829024168,
			"0.01": 0.0,
			"0.011": 0.0,
			"0.012": 0.0,
			"0.013": 0.0,
			"0.014": 0.0,
			"0.015": 0.0,
			"0.016": 0.0,
			"0.017": 0.0,
			"0.018": 0.0,
			"0.019": 0.0,
			"0.02": 0.0,
			"0.021": 0.0,
			"0.022": 0.0,
			"0.023": 0.0,
			"0.024": 0.0,
			"0.025": 0.0
		}
	}
}
