{
	 "smiles": "CCCN1C(=O)NC(=O)C(NCCN2CCOCC2)=C1N", 
	 "Tm": 427.15, 
	 "num_atms": 44, 
	 "gaussian": { 
		 "optdone": 1, 
		 "sigma_profile": "yes", 
		 "theory": "DFT", 
		 "functional": "B3LYP", 
		 "basiset": "6-31G**", 
		 "properties": { 
			 "R2extent": 6158.9961, 
			 "electric_dipole_moment_norm": 5.55033444758, 
			 "electric_quadrupole_moment_norm": 7.7438460438, 
			 "total_energy": -1008.69872357, 
			 "HOMO_LUMO_gap": 0.19141, 
			 "cosmo_polarized_energy": -22.04, 
			 "cosmo_cavitation_energy": 44.08, 
			 "cosmo_dispersion_energy": -28.77, 
			 "cosmo_repulsion_energy": 2.2, 
			 "cosmo_total_nonelectrostatic_energy": 17.51, 
			 "SMD_solvation_energy": 6.76 
		},
		"coords": [
			{
				"x": -1.7500004537,
				"y": -4.540153996,
				"z": -0.5729768802,
				"element": "C" 
			},
			{
				"x": -0.9079032092,
				"y": -3.2691767834,
				"z": -0.4255928868,
				"element": "C" 
			},
			{
				"x": -0.5448415717,
				"y": -2.9944665621,
				"z": 1.0386538622,
				"element": "C" 
			},
			{
				"x": 0.2706750836,
				"y": -1.7832161922,
				"z": 1.2250076622,
				"element": "N" 
			},
			{
				"x": 1.6605791934,
				"y": -1.9802728599,
				"z": 1.3090102011,
				"element": "C" 
			},
			{
				"x": 2.1682500373,
				"y": -3.0918928102,
				"z": 1.2713732706,
				"element": "O" 
			},
			{
				"x": 2.395713267,
				"y": -0.8247158452,
				"z": 1.4367868496,
				"element": "N" 
			},
			{
				"x": 1.9247522429,
				"y": 0.5054337774,
				"z": 1.4941532952,
				"element": "C" 
			},
			{
				"x": 2.7269812962,
				"y": 1.4292292757,
				"z": 1.6294161036,
				"element": "O" 
			},
			{
				"x": 0.4971453637,
				"y": 0.6207090925,
				"z": 1.3820016092,
				"element": "C" 
			},
			{
				"x": -0.1645658682,
				"y": 1.889964453,
				"z": 1.4366451967,
				"element": "N" 
			},
			{
				"x": 0.2126983492,
				"y": 2.8841757958,
				"z": 0.4055499255,
				"element": "C" 
			},
			{
				"x": -0.3575770723,
				"y": 2.5858541918,
				"z": -0.9817008757,
				"element": "C" 
			},
			{
				"x": 0.2446254365,
				"y": 1.4413490638,
				"z": -1.6651942575,
				"element": "N" 
			},
			{
				"x": -0.5561096718,
				"y": 1.0257438308,
				"z": -2.8175494412,
				"element": "C" 
			},
			{
				"x": 0.0678711033,
				"y": -0.2023098991,
				"z": -3.4764676272,
				"element": "C" 
			},
			{
				"x": 1.4056595313,
				"y": 0.0489488906,
				"z": -3.8789825364,
				"element": "O" 
			},
			{
				"x": 2.1956537891,
				"y": 0.4441483489,
				"z": -2.7650410212,
				"element": "C" 
			},
			{
				"x": 1.6279017356,
				"y": 1.6875676613,
				"z": -2.0846572578,
				"element": "C" 
			},
			{
				"x": -0.2808258156,
				"y": -0.5097675101,
				"z": 1.239865632,
				"element": "C" 
			},
			{
				"x": -1.6345824358,
				"y": -0.3871613421,
				"z": 1.0594981961,
				"element": "N" 
			},
			{
				"x": -1.9887966021,
				"y": -4.731425382,
				"z": -1.6231860826,
				"element": "H" 
			},
			{
				"x": -1.2181475542,
				"y": -5.417012108,
				"z": -0.1879272318,
				"element": "H" 
			},
			{
				"x": -2.6980509527,
				"y": -4.4602777666,
				"z": -0.0279235818,
				"element": "H" 
			},
			{
				"x": -1.4441745861,
				"y": -2.4074245776,
				"z": -0.8379426186,
				"element": "H" 
			},
			{
				"x": 0.0245718089,
				"y": -3.3690976812,
				"z": -0.9923457808,
				"element": "H" 
			},
			{
				"x": -1.4434215346,
				"y": -2.9199311457,
				"z": 1.6622340483,
				"element": "H" 
			},
			{
				"x": 0.0527390282,
				"y": -3.8155560896,
				"z": 1.435506981,
				"element": "H" 
			},
			{
				"x": 3.3974667838,
				"y": -0.9518265817,
				"z": 1.5086289794,
				"element": "H" 
			},
			{
				"x": 0.0288852275,
				"y": 2.3142259626,
				"z": 2.3416368872,
				"element": "H" 
			},
			{
				"x": 1.2994125552,
				"y": 3.0224112962,
				"z": 0.3664336433,
				"element": "H" 
			},
			{
				"x": -0.2177687684,
				"y": 3.8388191898,
				"z": 0.7301171092,
				"element": "H" 
			},
			{
				"x": -1.430136403,
				"y": 2.3839481782,
				"z": -0.8754102554,
				"element": "H" 
			},
			{
				"x": -0.2655953575,
				"y": 3.50823828,
				"z": -1.5919560034,
				"element": "H" 
			},
			{
				"x": -1.5696535081,
				"y": 0.7819657834,
				"z": -2.4769016286,
				"element": "H" 
			},
			{
				"x": -0.6398229447,
				"y": 1.8330042987,
				"z": -3.572711912,
				"element": "H" 
			},
			{
				"x": 0.0359250808,
				"y": -1.048959763,
				"z": -2.7705826571,
				"element": "H" 
			},
			{
				"x": -0.4856536174,
				"y": -0.4781595856,
				"z": -4.3792810655,
				"element": "H" 
			},
			{
				"x": 2.255591125,
				"y": -0.3767877442,
				"z": -2.0317456806,
				"element": "H" 
			},
			{
				"x": 3.2004586613,
				"y": 0.6426199112,
				"z": -3.1489822938,
				"element": "H" 
			},
			{
				"x": 2.2427243363,
				"y": 1.9233649827,
				"z": -1.2109927049,
				"element": "H" 
			},
			{
				"x": 1.6892492766,
				"y": 2.5439037479,
				"z": -2.7857675881,
				"element": "H" 
			},
			{
				"x": -1.9230581516,
				"y": 0.570982167,
				"z": 1.2367545374,
				"element": "H" 
			},
			{
				"x": -2.2385442342,
				"y": -1.1068159536,
				"z": 1.4258458793,
				"element": "H" 
			}
		],
		 "valence_orbital": [ 
			{
				"type": "occ",
				"energy": -0.2592,
				"method": "rhf"
			},
			{
				"type": "occ",
				"energy": -0.24835,
				"method": "rhf"
			},
			{
				"type": "occ",
				"energy": -0.23624,
				"method": "rhf"
			},
			{
				"type": "occ",
				"energy": -0.22329,
				"method": "rhf"
			},
			{
				"type": "occ",
				"energy": -0.20004,
				"method": "rhf"
			},
			{
				"type": "unocc",
				"energy": -0.00863,
				"method": "rhf"
			},
			{
				"type": "unocc",
				"energy": 0.02201,
				"method": "rhf"
			},
			{
				"type": "unocc",
				"energy": 0.05064,
				"method": "rhf"
			},
			{
				"type": "unocc",
				"energy": 0.08276,
				"method": "rhf"
			},
			{
				"type": "unocc",
				"energy": 0.08459,
				"method": "rhf"
			}
		],
		"cosmo_sigma_profile": { 
			"-0.025": 0.0,
			"-0.024": 0.0,
			"-0.023": 0.0,
			"-0.022": 0.0,
			"-0.021": 0.0,
			"-0.02": 0.0,
			"-0.019": 0.0,
			"-0.018": 0.0,
			"-0.017": 0.0,
			"-0.016": 0.0221861128771,
			"-0.015": 1.0493353514,
			"-0.014": 2.353299706,
			"-0.013": 1.73330211374,
			"-0.012": 2.26536685612,
			"-0.011": 2.88531721708,
			"-0.01": 4.03444978352,
			"-0.009": 4.39208489814,
			"-0.008": 3.02036405627,
			"-0.007": 4.45107777663,
			"-0.006": 4.51172145829,
			"-0.005": 9.06579928818,
			"-0.004": 21.4489041651,
			"-0.003": 33.2301658284,
			"-0.002": 53.390641102,
			"-0.001": 54.7976811546,
			"0.0": 34.7850197816,
			"0.001": 18.249659943,
			"0.002": 10.3507943552,
			"0.003": 9.38061422031,
			"0.004": 6.74236717174,
			"0.005": 5.49706396418,
			"0.006": 7.47814245104,
			"0.007": 6.51527057394,
			"0.008": 5.40091755779,
			"0.009": 5.35291628882,
			"0.01": 3.53191488002,
			"0.011": 3.77745361171,
			"0.012": 6.25363546483,
			"0.013": 8.96591538652,
			"0.014": 6.25535005387,
			"0.015": 1.4293823431,
			"0.016": 0.0,
			"0.017": 0.0,
			"0.018": 0.0,
			"0.019": 0.0,
			"0.02": 0.0,
			"0.021": 0.0,
			"0.022": 0.0,
			"0.023": 0.0,
			"0.024": 0.0,
			"0.025": 0.0
		}
	}
}
