{
	 "smiles": "CCN1C=C(C(O)=O)C(=O)C2=CN=C(N=C12)N1CCCC1", 
	 "Tm": 588.15, 
	 "num_atms": 37, 
	 "gaussian": { 
		 "optdone": 1, 
		 "sigma_profile": "yes", 
		 "theory": "DFT", 
		 "functional": "B3LYP", 
		 "basiset": "6-31G**", 
		 "properties": { 
			 "R2extent": 8474.4041, 
			 "electric_dipole_moment_norm": 8.98835802803, 
			 "electric_quadrupole_moment_norm": 40.3674078602, 
			 "total_energy": -987.858762531, 
			 "HOMO_LUMO_gap": 0.16198, 
			 "cosmo_polarized_energy": -24.88, 
			 "cosmo_cavitation_energy": 40.13, 
			 "cosmo_dispersion_energy": -28.7, 
			 "cosmo_repulsion_energy": 2.19, 
			 "cosmo_total_nonelectrostatic_energy": 13.63, 
			 "SMD_solvation_energy": 5.84 
		},
		"coords": [
			{
				"x": 1.0785233801,
				"y": 3.2053757516,
				"z": 0.2026119508,
				"element": "C" 
			},
			{
				"x": 0.0947037699,
				"y": 2.5785431812,
				"z": 1.1906357457,
				"element": "C" 
			},
			{
				"x": -1.125392993,
				"y": 2.0698902862,
				"z": 0.5361833317,
				"element": "N" 
			},
			{
				"x": -2.2332712746,
				"y": 2.8603121513,
				"z": 0.4448805305,
				"element": "C" 
			},
			{
				"x": -3.4061869248,
				"y": 2.512067407,
				"z": -0.1717311727,
				"element": "C" 
			},
			{
				"x": -4.5241107181,
				"y": 3.4810553853,
				"z": -0.1785259841,
				"element": "C" 
			},
			{
				"x": -4.2046199143,
				"y": 4.6469621198,
				"z": 0.4746431034,
				"element": "O" 
			},
			{
				"x": -5.6142650955,
				"y": 3.3282571869,
				"z": -0.6817633622,
				"element": "O" 
			},
			{
				"x": -3.5356188087,
				"y": 1.1841752878,
				"z": -0.8115560868,
				"element": "C" 
			},
			{
				"x": -4.5342212196,
				"y": 0.7670467814,
				"z": -1.390893962,
				"element": "O" 
			},
			{
				"x": -2.3108316267,
				"y": 0.3667426787,
				"z": -0.6897776051,
				"element": "C" 
			},
			{
				"x": -2.2318441866,
				"y": -0.9266428421,
				"z": -1.2331479209,
				"element": "C" 
			},
			{
				"x": -1.1613539637,
				"y": -1.699982652,
				"z": -1.1529493812,
				"element": "N" 
			},
			{
				"x": -0.092392844,
				"y": -1.1639550011,
				"z": -0.498374443,
				"element": "C" 
			},
			{
				"x": -0.0348466668,
				"y": 0.0634755097,
				"z": 0.0600489836,
				"element": "N" 
			},
			{
				"x": -1.1419422713,
				"y": 0.8021051864,
				"z": -0.0391716057,
				"element": "C" 
			},
			{
				"x": 1.0099809941,
				"y": -1.9399314245,
				"z": -0.4061628121,
				"element": "N" 
			},
			{
				"x": 1.1066422798,
				"y": -3.2816345561,
				"z": -0.9971319888,
				"element": "C" 
			},
			{
				"x": 2.608229027,
				"y": -3.591331618,
				"z": -0.9075206706,
				"element": "C" 
			},
			{
				"x": 3.0569553483,
				"y": -2.8243969149,
				"z": 0.3484676175,
				"element": "C" 
			},
			{
				"x": 2.2330187769,
				"y": -1.5285413227,
				"z": 0.289103519,
				"element": "C" 
			},
			{
				"x": 0.6227389362,
				"y": 4.0436288601,
				"z": -0.3335133168,
				"element": "H" 
			},
			{
				"x": 1.9560123211,
				"y": 3.5801950933,
				"z": 0.7392925115,
				"element": "H" 
			},
			{
				"x": 1.41231033,
				"y": 2.4631963771,
				"z": -0.5263102199,
				"element": "H" 
			},
			{
				"x": 0.5579128257,
				"y": 1.7385922139,
				"z": 1.7091088792,
				"element": "H" 
			},
			{
				"x": -0.22707834,
				"y": 3.3080876678,
				"z": 1.9387829901,
				"element": "H" 
			},
			{
				"x": -2.137669503,
				"y": 3.8318238798,
				"z": 0.9144208487,
				"element": "H" 
			},
			{
				"x": -5.0026181786,
				"y": 5.1948619938,
				"z": 0.4035445675,
				"element": "H" 
			},
			{
				"x": -3.1041158697,
				"y": -1.3198972922,
				"z": -1.7510628188,
				"element": "H" 
			},
			{
				"x": 0.5068735849,
				"y": -3.9979105648,
				"z": -0.420058194,
				"element": "H" 
			},
			{
				"x": 0.7171024311,
				"y": -3.2809323497,
				"z": -2.0174290037,
				"element": "H" 
			},
			{
				"x": 3.1238916866,
				"y": -3.2001255827,
				"z": -1.7919691415,
				"element": "H" 
			},
			{
				"x": 2.8079416647,
				"y": -4.6645433384,
				"z": -0.8523209358,
				"element": "H" 
			},
			{
				"x": 4.1324874327,
				"y": -2.6312748369,
				"z": 0.3771334519,
				"element": "H" 
			},
			{
				"x": 2.7950774482,
				"y": -3.3914713689,
				"z": 1.2489393899,
				"element": "H" 
			},
			{
				"x": 1.997203452,
				"y": -1.1175504374,
				"z": 1.2747962295,
				"element": "H" 
			},
			{
				"x": 2.7495747098,
				"y": -0.7410728968,
				"z": -0.2770230247,
				"element": "H" 
			}
		],
		 "valence_orbital": [ 
			{
				"type": "occ",
				"energy": -0.26655,
				"method": "rhf"
			},
			{
				"type": "occ",
				"energy": -0.25655,
				"method": "rhf"
			},
			{
				"type": "occ",
				"energy": -0.23341,
				"method": "rhf"
			},
			{
				"type": "occ",
				"energy": -0.22226,
				"method": "rhf"
			},
			{
				"type": "occ",
				"energy": -0.21909,
				"method": "rhf"
			},
			{
				"type": "unocc",
				"energy": -0.05711,
				"method": "rhf"
			},
			{
				"type": "unocc",
				"energy": -0.0316,
				"method": "rhf"
			},
			{
				"type": "unocc",
				"energy": -0.00342,
				"method": "rhf"
			},
			{
				"type": "unocc",
				"energy": 0.03811,
				"method": "rhf"
			},
			{
				"type": "unocc",
				"energy": 0.0714,
				"method": "rhf"
			}
		],
		"cosmo_sigma_profile": { 
			"-0.025": 0.0,
			"-0.024": 0.0,
			"-0.023": 0.0,
			"-0.022": 0.0,
			"-0.021": 0.0,
			"-0.02": 0.0,
			"-0.019": 0.0,
			"-0.018": 0.136920490005,
			"-0.017": 1.02478728811,
			"-0.016": 0.685557093433,
			"-0.015": 1.21863974413,
			"-0.014": 0.470090435319,
			"-0.013": 0.554544555959,
			"-0.012": 0.438420103505,
			"-0.011": 0.911195521408,
			"-0.01": 2.79199161107,
			"-0.009": 2.8275347421,
			"-0.008": 2.03941482154,
			"-0.007": 3.63075522547,
			"-0.006": 5.50273828842,
			"-0.005": 10.3549077591,
			"-0.004": 30.8570985037,
			"-0.003": 44.3585213847,
			"-0.002": 42.3887768204,
			"-0.001": 39.0044303232,
			"0.0": 33.2200244702,
			"0.001": 15.6720959481,
			"0.002": 8.28622373262,
			"0.003": 7.58791381626,
			"0.004": 8.55084509451,
			"0.005": 6.48191751575,
			"0.006": 6.39291110598,
			"0.007": 5.35597536245,
			"0.008": 3.28292711916,
			"0.009": 2.95437910486,
			"0.01": 4.44695111589,
			"0.011": 4.0758552377,
			"0.012": 6.66772453376,
			"0.013": 5.82301806879,
			"0.014": 3.81238250948,
			"0.015": 1.64819870336,
			"0.016": 1.7654806701,
			"0.017": 1.00408442233,
			"0.018": 1.07605804678,
			"0.019": 0.288173271556,
			"0.02": 7.25287885606e-05,
			"0.021": 0.0,
			"0.022": 0.0,
			"0.023": 0.0,
			"0.024": 0.0,
			"0.025": 0.0
		}
	}
}
