{
	 "smiles": "FC1=CC=C(C=C1)C(N=[N+]=[N-])C(=O)NC1CC1", 
	 "Tm": 327.15, 
	 "num_atms": 28, 
	 "gaussian": { 
		 "optdone": 1, 
		 "sigma_profile": "yes", 
		 "theory": "DFT", 
		 "functional": "B3LYP", 
		 "basiset": "6-31G**", 
		 "properties": { 
			 "R2extent": 5118.3851, 
			 "electric_dipole_moment_norm": 5.19607320483, 
			 "electric_quadrupole_moment_norm": 8.91058579556, 
			 "total_energy": -819.769282167, 
			 "HOMO_LUMO_gap": 0.21049, 
			 "cosmo_polarized_energy": -15.79, 
			 "cosmo_cavitation_energy": 34.44, 
			 "cosmo_dispersion_energy": -23.14, 
			 "cosmo_repulsion_energy": 1.82, 
			 "cosmo_total_nonelectrostatic_energy": 13.11, 
			 "SMD_solvation_energy": 2.76 
		},
		"coords": [
			{
				"x": 3.5246166787,
				"y": -4.2883015818,
				"z": 1.3583944624,
				"element": "F" 
			},
			{
				"x": 2.935518748,
				"y": -3.135969171,
				"z": 0.9814280574,
				"element": "C" 
			},
			{
				"x": 2.0167578669,
				"y": -2.5359060399,
				"z": 1.8352448339,
				"element": "C" 
			},
			{
				"x": 1.4059924844,
				"y": -1.3467536516,
				"z": 1.4394053058,
				"element": "C" 
			},
			{
				"x": 1.7137403659,
				"y": -0.7629921531,
				"z": 0.200546325,
				"element": "C" 
			},
			{
				"x": 2.6464195224,
				"y": -1.394028115,
				"z": -0.6336385045,
				"element": "C" 
			},
			{
				"x": 3.262703713,
				"y": -2.5847711911,
				"z": -0.2524908203,
				"element": "C" 
			},
			{
				"x": 1.0925662325,
				"y": 0.5584215773,
				"z": -0.2328861912,
				"element": "C" 
			},
			{
				"x": 1.7823452958,
				"y": 1.7508628682,
				"z": 0.313626329,
				"element": "N" 
			},
			{
				"x": 1.8568807734,
				"y": 1.834591461,
				"z": 1.548502564,
				"element": "N" 
			},
			{
				"x": 2.0383491353,
				"y": 2.0450111571,
				"z": 2.65440413,
				"element": "N" 
			},
			{
				"x": -0.4121209776,
				"y": 0.6168214452,
				"z": 0.109623356,
				"element": "C" 
			},
			{
				"x": -0.7984643142,
				"y": 0.9152362344,
				"z": 1.2308940414,
				"element": "O" 
			},
			{
				"x": -1.2468890272,
				"y": 0.2959213154,
				"z": -0.9218059684,
				"element": "N" 
			},
			{
				"x": -2.6666268774,
				"y": 0.1549624325,
				"z": -0.7431616505,
				"element": "C" 
			},
			{
				"x": -3.5031481457,
				"y": 1.3953969903,
				"z": -0.5816982446,
				"element": "C" 
			},
			{
				"x": -3.5627948443,
				"y": 0.6083511444,
				"z": -1.8670788497,
				"element": "C" 
			},
			{
				"x": 1.7886707443,
				"y": -3.0000629997,
				"z": 2.7885551209,
				"element": "H" 
			},
			{
				"x": 0.6791379302,
				"y": -0.8719726456,
				"z": 2.0900444865,
				"element": "H" 
			},
			{
				"x": 2.9016729477,
				"y": -0.9467310943,
				"z": -1.5908350755,
				"element": "H" 
			},
			{
				"x": 3.9845279479,
				"y": -3.0838239403,
				"z": -0.8897577091,
				"element": "H" 
			},
			{
				"x": 1.2263732307,
				"y": 0.667536333,
				"z": -1.3125196445,
				"element": "H" 
			},
			{
				"x": -0.8412348175,
				"y": -0.0514784637,
				"z": -1.7795318374,
				"element": "H" 
			},
			{
				"x": -2.9694753834,
				"y": -0.7232829603,
				"z": -0.1758040819,
				"element": "H" 
			},
			{
				"x": -4.3428979955,
				"y": 1.346767178,
				"z": 0.1034186486,
				"element": "H" 
			},
			{
				"x": -2.9804365638,
				"y": 2.3453326464,
				"z": -0.5923353634,
				"element": "H" 
			},
			{
				"x": -3.0886366971,
				"y": 1.0414720633,
				"z": -2.7432535687,
				"element": "H" 
			},
			{
				"x": -4.4451479732,
				"y": 0.0138891609,
				"z": -2.0813901513,
				"element": "H" 
			}
		],
		 "valence_orbital": [ 
			{
				"type": "occ",
				"energy": -0.28044,
				"method": "rhf"
			},
			{
				"type": "occ",
				"energy": -0.26942,
				"method": "rhf"
			},
			{
				"type": "occ",
				"energy": -0.26346,
				"method": "rhf"
			},
			{
				"type": "occ",
				"energy": -0.24735,
				"method": "rhf"
			},
			{
				"type": "occ",
				"energy": -0.24245,
				"method": "rhf"
			},
			{
				"type": "unocc",
				"energy": -0.03196,
				"method": "rhf"
			},
			{
				"type": "unocc",
				"energy": -0.02238,
				"method": "rhf"
			},
			{
				"type": "unocc",
				"energy": -0.00535,
				"method": "rhf"
			},
			{
				"type": "unocc",
				"energy": 0.00905,
				"method": "rhf"
			},
			{
				"type": "unocc",
				"energy": 0.03266,
				"method": "rhf"
			}
		],
		"cosmo_sigma_profile": { 
			"-0.025": 0.0,
			"-0.024": 0.0,
			"-0.023": 0.0,
			"-0.022": 0.0,
			"-0.021": 0.0,
			"-0.02": 0.0,
			"-0.019": 0.0,
			"-0.018": 0.0,
			"-0.017": 0.0,
			"-0.016": 0.0,
			"-0.015": 0.940076318808,
			"-0.014": 1.65256092321,
			"-0.013": 1.15728701338,
			"-0.012": 1.54850570498,
			"-0.011": 1.59886278495,
			"-0.01": 1.51251582325,
			"-0.009": 2.23766816948,
			"-0.008": 4.6073688698,
			"-0.007": 7.920117986,
			"-0.006": 9.76799424505,
			"-0.005": 19.1252469157,
			"-0.004": 16.2659415936,
			"-0.003": 17.8697906642,
			"-0.002": 18.6672989381,
			"-0.001": 19.4008749019,
			"0.0": 23.8911592108,
			"0.001": 23.0247774038,
			"0.002": 20.5060689167,
			"0.003": 22.0591653844,
			"0.004": 18.8853817525,
			"0.005": 8.83697347968,
			"0.006": 7.61265449893,
			"0.007": 7.30260600714,
			"0.008": 4.10617846924,
			"0.009": 2.97259331078,
			"0.01": 3.39269786443,
			"0.011": 2.10119163069,
			"0.012": 2.49675432788,
			"0.013": 2.90448048632,
			"0.014": 0.888734690323,
			"0.015": 0.0,
			"0.016": 0.0,
			"0.017": 0.0,
			"0.018": 0.0,
			"0.019": 0.0,
			"0.02": 0.0,
			"0.021": 0.0,
			"0.022": 0.0,
			"0.023": 0.0,
			"0.024": 0.0,
			"0.025": 0.0
		}
	}
}
