{
	 "smiles": "CCN(CC)C1=C(NC(=O)CCl)C=C(C=C1)S(=O)(=O)N1CCOCC1", 
	 "Tm": 373.15, 
	 "num_atms": 49, 
	 "gaussian": { 
		 "optdone": 1, 
		 "sigma_profile": "yes", 
		 "theory": "DFT", 
		 "functional": "B3LYP", 
		 "basiset": "6-31G**", 
		 "properties": { 
			 "R2extent": 13462.2472, 
			 "electric_dipole_moment_norm": 6.4298415968, 
			 "electric_quadrupole_moment_norm": 23.5126490679, 
			 "total_energy": -1947.61911029, 
			 "HOMO_LUMO_gap": 0.17989, 
			 "cosmo_polarized_energy": -22.66, 
			 "cosmo_cavitation_energy": 52.28, 
			 "cosmo_dispersion_energy": -34.44, 
			 "cosmo_repulsion_energy": 2.61, 
			 "cosmo_total_nonelectrostatic_energy": 20.45, 
			 "SMD_solvation_energy": 7.56 
		},
		"coords": [
			{
				"x": 0.5958754086,
				"y": 3.60264802,
				"z": 1.7227566805,
				"element": "C" 
			},
			{
				"x": -0.2765427563,
				"y": 3.3742425824,
				"z": 0.4889991059,
				"element": "C" 
			},
			{
				"x": -0.8822368903,
				"y": 2.0345497073,
				"z": 0.4647567036,
				"element": "N" 
			},
			{
				"x": -2.0809070976,
				"y": 1.9313973487,
				"z": -0.3987086509,
				"element": "C" 
			},
			{
				"x": -1.8293512863,
				"y": 2.1082059151,
				"z": -1.9014110296,
				"element": "C" 
			},
			{
				"x": 0.000235289,
				"y": 0.9197039219,
				"z": 0.3886489063,
				"element": "C" 
			},
			{
				"x": -0.3638232091,
				"y": -0.2678449475,
				"z": 1.0901971031,
				"element": "C" 
			},
			{
				"x": -1.5480645669,
				"y": -0.2132709347,
				"z": 1.846136338,
				"element": "N" 
			},
			{
				"x": -2.5325603846,
				"y": -1.1330554993,
				"z": 2.1412342439,
				"element": "C" 
			},
			{
				"x": -3.5082000248,
				"y": -0.8072019617,
				"z": 2.798432356,
				"element": "O" 
			},
			{
				"x": -2.4111756196,
				"y": -2.5474753398,
				"z": 1.5821859176,
				"element": "C" 
			},
			{
				"x": -1.6769898933,
				"y": -3.6732490359,
				"z": 2.7999074745,
				"element": "Cl" 
			},
			{
				"x": 0.4906660334,
				"y": -1.370279901,
				"z": 1.0833717338,
				"element": "C" 
			},
			{
				"x": 1.6755444672,
				"y": -1.3186640263,
				"z": 0.344682577,
				"element": "C" 
			},
			{
				"x": 2.0590286371,
				"y": -0.1677050428,
				"z": -0.3351493677,
				"element": "C" 
			},
			{
				"x": 1.2180364886,
				"y": 0.9460408623,
				"z": -0.2984431203,
				"element": "C" 
			},
			{
				"x": 2.778007676,
				"y": -2.7352476382,
				"z": 0.3692716238,
				"element": "S" 
			},
			{
				"x": 3.9339192973,
				"y": -2.3850486906,
				"z": -0.4708241659,
				"element": "O" 
			},
			{
				"x": 2.9682103531,
				"y": -3.1678716834,
				"z": 1.7575343393,
				"element": "O" 
			},
			{
				"x": 1.8215724445,
				"y": -3.9214951289,
				"z": -0.3696232408,
				"element": "N" 
			},
			{
				"x": 1.8634992952,
				"y": -5.2881580692,
				"z": 0.1914412995,
				"element": "C" 
			},
			{
				"x": 2.9328031509,
				"y": -6.1411046723,
				"z": -0.4921336185,
				"element": "C" 
			},
			{
				"x": 2.7615530234,
				"y": -6.1383477433,
				"z": -1.9056257578,
				"element": "O" 
			},
			{
				"x": 2.8662378186,
				"y": -4.8223135363,
				"z": -2.4372119993,
				"element": "C" 
			},
			{
				"x": 1.7868887992,
				"y": -3.9118792839,
				"z": -1.8461456986,
				"element": "C" 
			},
			{
				"x": 1.4530863937,
				"y": 2.9242460689,
				"z": 1.7462999239,
				"element": "H" 
			},
			{
				"x": 0.0156013931,
				"y": 3.4493524891,
				"z": 2.6374306288,
				"element": "H" 
			},
			{
				"x": 0.9801222104,
				"y": 4.6274002078,
				"z": 1.7247211444,
				"element": "H" 
			},
			{
				"x": -1.1112758208,
				"y": 4.083706718,
				"z": 0.5021779726,
				"element": "H" 
			},
			{
				"x": 0.2966688129,
				"y": 3.5997076064,
				"z": -0.4250359819,
				"element": "H" 
			},
			{
				"x": -2.7969557311,
				"y": 2.6836163337,
				"z": -0.0478594376,
				"element": "H" 
			},
			{
				"x": -2.5404570037,
				"y": 0.9553708246,
				"z": -0.2180428221,
				"element": "H" 
			},
			{
				"x": -1.1188898802,
				"y": 1.3639565088,
				"z": -2.2747492915,
				"element": "H" 
			},
			{
				"x": -1.4365186532,
				"y": 3.1024991263,
				"z": -2.1355721771,
				"element": "H" 
			},
			{
				"x": -2.7670499778,
				"y": 1.9850802113,
				"z": -2.4533161279,
				"element": "H" 
			},
			{
				"x": -1.8068045951,
				"y": 0.7336381412,
				"z": 2.1136260272,
				"element": "H" 
			},
			{
				"x": -3.4219050598,
				"y": -2.9071172649,
				"z": 1.3981164447,
				"element": "H" 
			},
			{
				"x": -1.8062000354,
				"y": -2.6118907918,
				"z": 0.6780041687,
				"element": "H" 
			},
			{
				"x": 0.2699374163,
				"y": -2.2440106965,
				"z": 1.684572736,
				"element": "H" 
			},
			{
				"x": 2.9975871333,
				"y": -0.148759514,
				"z": -0.8768381653,
				"element": "H" 
			},
			{
				"x": 1.5117733897,
				"y": 1.847093824,
				"z": -0.8256982634,
				"element": "H" 
			},
			{
				"x": 0.8746345566,
				"y": -5.7289251333,
				"z": 0.0160906111,
				"element": "H" 
			},
			{
				"x": 2.0299623682,
				"y": -5.2237922603,
				"z": 1.2673969427,
				"element": "H" 
			},
			{
				"x": 2.8531344075,
				"y": -7.1841965476,
				"z": -0.1706950777,
				"element": "H" 
			},
			{
				"x": 3.9357920782,
				"y": -5.7698040618,
				"z": -0.2269391866,
				"element": "H" 
			},
			{
				"x": 3.858911704,
				"y": -4.3975092338,
				"z": -2.2282546197,
				"element": "H" 
			},
			{
				"x": 2.7397246101,
				"y": -4.9130639879,
				"z": -3.5206317551,
				"element": "H" 
			},
			{
				"x": 0.795434623,
				"y": -4.2744465199,
				"z": -2.1439956419,
				"element": "H" 
			},
			{
				"x": 1.8955592069,
				"y": -2.8868272712,
				"z": -2.2097878056,
				"element": "H" 
			}
		],
		 "valence_orbital": [ 
			{
				"type": "occ",
				"energy": -0.28022,
				"method": "rhf"
			},
			{
				"type": "occ",
				"energy": -0.26953,
				"method": "rhf"
			},
			{
				"type": "occ",
				"energy": -0.25253,
				"method": "rhf"
			},
			{
				"type": "occ",
				"energy": -0.23599,
				"method": "rhf"
			},
			{
				"type": "occ",
				"energy": -0.22667,
				"method": "rhf"
			},
			{
				"type": "unocc",
				"energy": -0.04678,
				"method": "rhf"
			},
			{
				"type": "unocc",
				"energy": -0.04245,
				"method": "rhf"
			},
			{
				"type": "unocc",
				"energy": -0.01364,
				"method": "rhf"
			},
			{
				"type": "unocc",
				"energy": 0.04957,
				"method": "rhf"
			},
			{
				"type": "unocc",
				"energy": 0.0559,
				"method": "rhf"
			}
		],
		"cosmo_sigma_profile": { 
			"-0.025": 0.0,
			"-0.024": 0.0,
			"-0.023": 0.0,
			"-0.022": 0.0,
			"-0.021": 0.0,
			"-0.02": 0.0,
			"-0.019": 0.0,
			"-0.018": 0.0,
			"-0.017": 0.0,
			"-0.016": 0.0,
			"-0.015": 0.0,
			"-0.014": 0.0,
			"-0.013": 0.0,
			"-0.012": 0.0,
			"-0.011": 0.0819135792058,
			"-0.01": 0.478450032583,
			"-0.009": 1.81484258706,
			"-0.008": 4.42959005724,
			"-0.007": 7.94218048742,
			"-0.006": 18.2706251839,
			"-0.005": 31.2120762218,
			"-0.004": 37.1346553719,
			"-0.003": 44.7310191496,
			"-0.002": 43.0485327017,
			"-0.001": 39.6870198557,
			"0.0": 34.1153706857,
			"0.001": 32.0902776152,
			"0.002": 22.7080183334,
			"0.003": 13.8094330601,
			"0.004": 12.5056328402,
			"0.005": 12.3817220332,
			"0.006": 4.98800037972,
			"0.007": 5.65267126963,
			"0.008": 5.95218366531,
			"0.009": 6.4104792694,
			"0.01": 8.42436175344,
			"0.011": 10.3701124101,
			"0.012": 8.96955981435,
			"0.013": 5.63991162841,
			"0.014": 0.263146829658,
			"0.015": 0.0,
			"0.016": 0.0,
			"0.017": 0.0,
			"0.018": 0.0,
			"0.019": 0.0,
			"0.02": 0.0,
			"0.021": 0.0,
			"0.022": 0.0,
			"0.023": 0.0,
			"0.024": 0.0,
			"0.025": 0.0
		}
	}
}
