{
	 "smiles": "CN1C=C(C=N1)C(N)C(O)=O", 
	 "Tm": 519.15, 
	 "num_atms": 20, 
	 "gaussian": { 
		 "optdone": 1, 
		 "sigma_profile": "yes", 
		 "theory": "DFT", 
		 "functional": "B3LYP", 
		 "basiset": "6-31G**", 
		 "properties": { 
			 "R2extent": 2537.9379, 
			 "electric_dipole_moment_norm": 4.05457617267, 
			 "electric_quadrupole_moment_norm": 14.0223612701, 
			 "total_energy": -548.744679436, 
			 "HOMO_LUMO_gap": 0.23604, 
			 "cosmo_polarized_energy": -16.88, 
			 "cosmo_cavitation_energy": 24.62, 
			 "cosmo_dispersion_energy": -17.64, 
			 "cosmo_repulsion_energy": 1.46, 
			 "cosmo_total_nonelectrostatic_energy": 8.44, 
			 "SMD_solvation_energy": 3.93 
		},
		"coords": [
			{
				"x": 2.2003415474,
				"y": -2.9126202288,
				"z": -0.515586359,
				"element": "C" 
			},
			{
				"x": 1.765941322,
				"y": -1.6852063396,
				"z": 0.1249675592,
				"element": "N" 
			},
			{
				"x": 1.4938468473,
				"y": -0.4883658997,
				"z": -0.4566477698,
				"element": "C" 
			},
			{
				"x": 1.1244054805,
				"y": 0.3823748075,
				"z": 0.5601913068,
				"element": "C" 
			},
			{
				"x": 1.2153031307,
				"y": -0.410768549,
				"z": 1.7290608468,
				"element": "C" 
			},
			{
				"x": 1.6006538663,
				"y": -1.6585861387,
				"z": 1.4647389275,
				"element": "N" 
			},
			{
				"x": 0.6672827162,
				"y": 1.8221667257,
				"z": 0.4627056137,
				"element": "C" 
			},
			{
				"x": -0.7084371411,
				"y": 2.0377825654,
				"z": -0.0214045303,
				"element": "N" 
			},
			{
				"x": 1.6222796958,
				"y": 2.6302578506,
				"z": -0.4097000016,
				"element": "C" 
			},
			{
				"x": 1.43626107,
				"y": 2.3644550733,
				"z": -1.7316395566,
				"element": "O" 
			},
			{
				"x": 2.4655973254,
				"y": 3.4002510677,
				"z": -0.0162069973,
				"element": "O" 
			},
			{
				"x": 1.4690176904,
				"y": -3.7069099285,
				"z": -0.3441875923,
				"element": "H" 
			},
			{
				"x": 3.1652092903,
				"y": -3.2261989062,
				"z": -0.1091527224,
				"element": "H" 
			},
			{
				"x": 2.2990645268,
				"y": -2.7369580842,
				"z": -1.5879643838,
				"element": "H" 
			},
			{
				"x": 1.587978443,
				"y": -0.3359421268,
				"z": -1.5216298075,
				"element": "H" 
			},
			{
				"x": 1.0170595983,
				"y": -0.1143903437,
				"z": 2.7515430346,
				"element": "H" 
			},
			{
				"x": 0.7431163962,
				"y": 2.2716074335,
				"z": 1.4564874822,
				"element": "H" 
			},
			{
				"x": -0.7969870731,
				"y": 1.6301611312,
				"z": -0.9496669811,
				"element": "H" 
			},
			{
				"x": -1.3453894954,
				"y": 1.5190336616,
				"z": 0.5794895402,
				"element": "H" 
			},
			{
				"x": 2.076554763,
				"y": 2.9187562288,
				"z": -2.2086976091,
				"element": "H" 
			}
		],
		 "valence_orbital": [ 
			{
				"type": "occ",
				"energy": -0.29143,
				"method": "rhf"
			},
			{
				"type": "occ",
				"energy": -0.28627,
				"method": "rhf"
			},
			{
				"type": "occ",
				"energy": -0.25404,
				"method": "rhf"
			},
			{
				"type": "occ",
				"energy": -0.25273,
				"method": "rhf"
			},
			{
				"type": "occ",
				"energy": -0.23146,
				"method": "rhf"
			},
			{
				"type": "unocc",
				"energy": 0.00458,
				"method": "rhf"
			},
			{
				"type": "unocc",
				"energy": 0.01308,
				"method": "rhf"
			},
			{
				"type": "unocc",
				"energy": 0.06129,
				"method": "rhf"
			},
			{
				"type": "unocc",
				"energy": 0.07581,
				"method": "rhf"
			},
			{
				"type": "unocc",
				"energy": 0.09204,
				"method": "rhf"
			}
		],
		"cosmo_sigma_profile": { 
			"-0.025": 0.0,
			"-0.024": 0.0,
			"-0.023": 0.0,
			"-0.022": 0.0,
			"-0.021": 0.0,
			"-0.02": 0.0,
			"-0.019": 0.00386719255277,
			"-0.018": 0.786933762955,
			"-0.017": 0.834358523366,
			"-0.016": 1.22528514183,
			"-0.015": 0.827727999566,
			"-0.014": 0.574860497302,
			"-0.013": 0.0888419594328,
			"-0.012": 0.386127436247,
			"-0.011": 2.31068039738,
			"-0.01": 1.8834424419,
			"-0.009": 4.21516233518,
			"-0.008": 5.19590644846,
			"-0.007": 8.69828835185,
			"-0.006": 15.2887818437,
			"-0.005": 12.38629833,
			"-0.004": 13.7073188554,
			"-0.003": 15.8139774468,
			"-0.002": 10.2136376566,
			"-0.001": 8.25454532015,
			"0.0": 8.57623867797,
			"0.001": 8.70206324783,
			"0.002": 9.70863650876,
			"0.003": 7.26240545357,
			"0.004": 8.70904386226,
			"0.005": 6.82370592371,
			"0.006": 6.08982978072,
			"0.007": 4.12792005466,
			"0.008": 3.94184023426,
			"0.009": 4.12261844436,
			"0.01": 4.33598455963,
			"0.011": 6.64046390225,
			"0.012": 4.91559246914,
			"0.013": 1.92616114236,
			"0.014": 1.52815924341,
			"0.015": 1.92171095577,
			"0.016": 1.09591418332,
			"0.017": 0.69193973336,
			"0.018": 0.474141704207,
			"0.019": 0.00887749069567,
			"0.02": 0.0,
			"0.021": 0.0,
			"0.022": 0.0,
			"0.023": 0.0,
			"0.024": 0.0,
			"0.025": 0.0
		}
	}
}
