{
	 "smiles": "CC(C)(C)[Si](C)(C)O[C@@]12CC[C@@H]3C[C@H]4C(=O)C[C@@H](CC1)[C@@]234", 
	 "Tm": 331.15, 
	 "num_atms": 51, 
	 "gaussian": { 
		 "optdone": 1, 
		 "sigma_profile": "yes", 
		 "theory": "DFT", 
		 "functional": "B3LYP", 
		 "basiset": "6-31G**", 
		 "properties": { 
			 "R2extent": 7438.3136, 
			 "electric_dipole_moment_norm": 3.89823075253, 
			 "electric_quadrupole_moment_norm": 23.3326749097, 
			 "total_energy": -1143.99073489, 
			 "HOMO_LUMO_gap": 0.21715, 
			 "cosmo_polarized_energy": -8.98, 
			 "cosmo_cavitation_energy": 48.46, 
			 "cosmo_dispersion_energy": -29.47, 
			 "cosmo_repulsion_energy": 2.29, 
			 "cosmo_total_nonelectrostatic_energy": 21.28, 
			 "SMD_solvation_energy": 8.27 
		},
		"coords": [
			{
				"x": 1.1436400031,
				"y": 0.7623785589,
				"z": 3.3279114745,
				"element": "C" 
			},
			{
				"x": -0.3125554543,
				"y": 0.8608436334,
				"z": 2.8234324646,
				"element": "C" 
			},
			{
				"x": -1.2699494864,
				"y": 0.8531966192,
				"z": 4.0353452655,
				"element": "C" 
			},
			{
				"x": -0.4848524323,
				"y": 2.1877373122,
				"z": 2.0535132278,
				"element": "C" 
			},
			{
				"x": -0.6989325691,
				"y": -0.6167143418,
				"z": 1.6687700995,
				"element": "Si" 
			},
			{
				"x": -2.4789266626,
				"y": -0.5455181507,
				"z": 1.0280370872,
				"element": "C" 
			},
			{
				"x": -0.4586060705,
				"y": -2.2609870805,
				"z": 2.5731518978,
				"element": "C" 
			},
			{
				"x": 0.4153126389,
				"y": -0.4540208217,
				"z": 0.4225011137,
				"element": "O" 
			},
			{
				"x": 0.5064041642,
				"y": -1.0178557899,
				"z": -0.8795384236,
				"element": "C" 
			},
			{
				"x": 0.2912968312,
				"y": -2.5443602389,
				"z": -0.9281355912,
				"element": "C" 
			},
			{
				"x": 0.9814015477,
				"y": -2.9869491843,
				"z": -2.2326045475,
				"element": "C" 
			},
			{
				"x": 2.1949528535,
				"y": -2.0505160948,
				"z": -2.3685433234,
				"element": "C" 
			},
			{
				"x": 3.4413067933,
				"y": -2.3498085612,
				"z": -1.4831906673,
				"element": "C" 
			},
			{
				"x": 3.2963899016,
				"y": -0.9456790794,
				"z": -0.8270480896,
				"element": "C" 
			},
			{
				"x": 4.1377843009,
				"y": 0.1185727652,
				"z": -1.5724134908,
				"element": "C" 
			},
			{
				"x": 5.3078316927,
				"y": 0.3455311178,
				"z": -1.3627047949,
				"element": "O" 
			},
			{
				"x": 3.2607086409,
				"y": 0.846443988,
				"z": -2.6273499495,
				"element": "C" 
			},
			{
				"x": 1.8469587772,
				"y": 0.606829605,
				"z": -2.0980528963,
				"element": "C" 
			},
			{
				"x": 0.5423050857,
				"y": 0.5442374093,
				"z": -2.8931178224,
				"element": "C" 
			},
			{
				"x": -0.3985121001,
				"y": -0.2206872493,
				"z": -1.9063088631,
				"element": "C" 
			},
			{
				"x": 1.9080270919,
				"y": -0.7824902918,
				"z": -1.474221168,
				"element": "C" 
			},
			{
				"x": 1.3822094778,
				"y": 1.6165160643,
				"z": 3.9766718997,
				"element": "H" 
			},
			{
				"x": 1.3134237539,
				"y": -0.1477885088,
				"z": 3.9143441073,
				"element": "H" 
			},
			{
				"x": 1.8573651158,
				"y": 0.7651390768,
				"z": 2.4979802006,
				"element": "H" 
			},
			{
				"x": -1.05003181,
				"y": 1.7002344608,
				"z": 4.699373533,
				"element": "H" 
			},
			{
				"x": -1.1715015867,
				"y": -0.0595105769,
				"z": 4.6340811997,
				"element": "H" 
			},
			{
				"x": -2.3196765255,
				"y": 0.9441051616,
				"z": 3.7329892029,
				"element": "H" 
			},
			{
				"x": -0.2458119924,
				"y": 3.0408619586,
				"z": 2.703275177,
				"element": "H" 
			},
			{
				"x": -1.5134072005,
				"y": 2.3275292653,
				"z": 1.700987796,
				"element": "H" 
			},
			{
				"x": 0.1782655838,
				"y": 2.2359262455,
				"z": 1.1839203433,
				"element": "H" 
			},
			{
				"x": -2.7135355046,
				"y": 0.4107619775,
				"z": 0.5500716154,
				"element": "H" 
			},
			{
				"x": -2.671287913,
				"y": -1.3373157283,
				"z": 0.2957849289,
				"element": "H" 
			},
			{
				"x": -3.1883085402,
				"y": -0.6880019703,
				"z": 1.8511784333,
				"element": "H" 
			},
			{
				"x": -0.7332960305,
				"y": -3.1098468715,
				"z": 1.9385459054,
				"element": "H" 
			},
			{
				"x": 0.5815634317,
				"y": -2.4014043834,
				"z": 2.8843968551,
				"element": "H" 
			},
			{
				"x": -1.0847969437,
				"y": -2.3102937937,
				"z": 3.4712199761,
				"element": "H" 
			},
			{
				"x": 0.7915916763,
				"y": -2.9915249722,
				"z": -0.0617343569,
				"element": "H" 
			},
			{
				"x": -0.764872986,
				"y": -2.8327782844,
				"z": -0.8851706437,
				"element": "H" 
			},
			{
				"x": 0.3049065836,
				"y": -2.8483382561,
				"z": -3.0844140498,
				"element": "H" 
			},
			{
				"x": 1.2650184771,
				"y": -4.0452505925,
				"z": -2.220430429,
				"element": "H" 
			},
			{
				"x": 2.4542595536,
				"y": -1.8577072874,
				"z": -3.4140447227,
				"element": "H" 
			},
			{
				"x": 4.3840613184,
				"y": -2.5514069108,
				"z": -2.0006533598,
				"element": "H" 
			},
			{
				"x": 3.2638903306,
				"y": -3.1569134584,
				"z": -0.7652915335,
				"element": "H" 
			},
			{
				"x": 3.4404830829,
				"y": -0.8642609307,
				"z": 0.2537563142,
				"element": "H" 
			},
			{
				"x": 3.5697450466,
				"y": 1.8904917177,
				"z": -2.7200865381,
				"element": "H" 
			},
			{
				"x": 3.4271281012,
				"y": 0.3661403336,
				"z": -3.6017616817,
				"element": "H" 
			},
			{
				"x": 1.6903820124,
				"y": 1.3016159964,
				"z": -1.2573382014,
				"element": "H" 
			},
			{
				"x": 0.6842023978,
				"y": -0.0267631489,
				"z": -3.8188312952,
				"element": "H" 
			},
			{
				"x": 0.1389718671,
				"y": 1.5222487177,
				"z": -3.1727748182,
				"element": "H" 
			},
			{
				"x": -1.0915860028,
				"y": -0.8822387582,
				"z": -2.4360844208,
				"element": "H" 
			},
			{
				"x": -1.0023403223,
				"y": 0.4889893321,
				"z": -1.3363944404,
				"element": "H" 
			}
		],
		 "valence_orbital": [ 
			{
				"type": "occ",
				"energy": -0.2881,
				"method": "rhf"
			},
			{
				"type": "occ",
				"energy": -0.27447,
				"method": "rhf"
			},
			{
				"type": "occ",
				"energy": -0.26121,
				"method": "rhf"
			},
			{
				"type": "occ",
				"energy": -0.25511,
				"method": "rhf"
			},
			{
				"type": "occ",
				"energy": -0.23219,
				"method": "rhf"
			},
			{
				"type": "unocc",
				"energy": -0.01504,
				"method": "rhf"
			},
			{
				"type": "unocc",
				"energy": 0.05606,
				"method": "rhf"
			},
			{
				"type": "unocc",
				"energy": 0.07101,
				"method": "rhf"
			},
			{
				"type": "unocc",
				"energy": 0.07201,
				"method": "rhf"
			},
			{
				"type": "unocc",
				"energy": 0.08058,
				"method": "rhf"
			}
		],
		"cosmo_sigma_profile": { 
			"-0.025": 0.0,
			"-0.024": 0.0,
			"-0.023": 0.0,
			"-0.022": 0.0,
			"-0.021": 0.0,
			"-0.02": 0.0,
			"-0.019": 0.0,
			"-0.018": 0.0,
			"-0.017": 0.0,
			"-0.016": 0.0,
			"-0.015": 0.0,
			"-0.014": 0.0,
			"-0.013": 0.0,
			"-0.012": 0.0,
			"-0.011": 0.0,
			"-0.01": 0.0,
			"-0.009": 0.0,
			"-0.008": 0.0,
			"-0.007": 0.0,
			"-0.006": 1.24122611262,
			"-0.005": 5.49417475767,
			"-0.004": 13.4233510749,
			"-0.003": 45.6702711996,
			"-0.002": 63.97786414,
			"-0.001": 62.6183811521,
			"0.0": 52.526445325,
			"0.001": 51.8037844881,
			"0.002": 28.8029969153,
			"0.003": 8.41073794491,
			"0.004": 4.91843139816,
			"0.005": 3.92314449296,
			"0.006": 3.88072594631,
			"0.007": 4.39043286482,
			"0.008": 2.55486690199,
			"0.009": 1.28184478006,
			"0.01": 2.53430725763,
			"0.011": 3.83334396133,
			"0.012": 4.40286857645,
			"0.013": 2.60764551389,
			"0.014": 0.148449279171,
			"0.015": 0.0,
			"0.016": 0.0,
			"0.017": 0.0,
			"0.018": 0.0,
			"0.019": 0.0,
			"0.02": 0.0,
			"0.021": 0.0,
			"0.022": 0.0,
			"0.023": 0.0,
			"0.024": 0.0,
			"0.025": 0.0
		}
	}
}
