{
	 "smiles": "CSCC[C@@H](NC(=O)[C@H](CC1=CNC2=CC=CC=C12)NC(=O)CCNC(=O)OC(C)(C)C)C(=O)NC(CC(O)=O)C(=O)N[C@H](CC1=CC=CC=C1)C(N)=O", 
	 "Tm": 502.15, 
	 "num_atms": 103, 
	 "gaussian": { 
		 "optdone": 1, 
		 "sigma_profile": "yes", 
		 "theory": "DFT", 
		 "functional": "B3LYP", 
		 "basiset": "6-31G**", 
		 "properties": { 
			 "R2extent": 35652.9287, 
			 "electric_dipole_moment_norm": 12.3640901505, 
			 "electric_quadrupole_moment_norm": 36.9709366011, 
			 "total_energy": -2898.11137212, 
			 "HOMO_LUMO_gap": 0.18715, 
			 "cosmo_polarized_energy": -49.96, 
			 "cosmo_cavitation_energy": 102.74, 
			 "cosmo_dispersion_energy": -54.62, 
			 "cosmo_repulsion_energy": 3.97, 
			 "cosmo_total_nonelectrostatic_energy": 52.09, 
			 "SMD_solvation_energy": 17.7 
		},
		"coords": [
			{
				"x": -3.1576569727,
				"y": 2.3577238586,
				"z": -5.4360179983,
				"element": "C" 
			},
			{
				"x": -1.9670673095,
				"y": 1.096518997,
				"z": -4.8626347266,
				"element": "S" 
			},
			{
				"x": -0.6804235078,
				"y": 2.2013818244,
				"z": -4.1435396146,
				"element": "C" 
			},
			{
				"x": 0.400739658,
				"y": 1.4067239149,
				"z": -3.3998982851,
				"element": "C" 
			},
			{
				"x": -0.1432391523,
				"y": 0.551064157,
				"z": -2.2384872953,
				"element": "C" 
			},
			{
				"x": 0.9037455892,
				"y": -0.1666162592,
				"z": -1.5215836562,
				"element": "N" 
			},
			{
				"x": 1.1283314808,
				"y": -1.4896533542,
				"z": -1.7229089449,
				"element": "C" 
			},
			{
				"x": 0.5725341836,
				"y": -2.1293878207,
				"z": -2.6157545546,
				"element": "O" 
			},
			{
				"x": 2.1217017996,
				"y": -2.1637002369,
				"z": -0.7505435686,
				"element": "C" 
			},
			{
				"x": 3.6045178051,
				"y": -1.8317143927,
				"z": -1.1109837304,
				"element": "C" 
			},
			{
				"x": 4.0037417897,
				"y": -0.3848209191,
				"z": -1.0705095739,
				"element": "C" 
			},
			{
				"x": 4.4737968391,
				"y": 0.3389087529,
				"z": -2.1385287225,
				"element": "C" 
			},
			{
				"x": 4.7681783828,
				"y": 1.631371071,
				"z": -1.7485895801,
				"element": "N" 
			},
			{
				"x": 4.4995959727,
				"y": 1.7709492956,
				"z": -0.4027115721,
				"element": "C" 
			},
			{
				"x": 4.649046361,
				"y": 2.8794067715,
				"z": 0.4372275016,
				"element": "C" 
			},
			{
				"x": 4.2957695424,
				"y": 2.7246150654,
				"z": 1.7725152428,
				"element": "C" 
			},
			{
				"x": 3.8006971343,
				"y": 1.4964128566,
				"z": 2.2573080245,
				"element": "C" 
			},
			{
				"x": 3.6506602501,
				"y": 0.3972320084,
				"z": 1.4196093691,
				"element": "C" 
			},
			{
				"x": 4.0082524145,
				"y": 0.5170822731,
				"z": 0.0624138825,
				"element": "C" 
			},
			{
				"x": 1.870381389,
				"y": -3.590796523,
				"z": -0.854212115,
				"element": "N" 
			},
			{
				"x": 1.988752645,
				"y": -4.590422702,
				"z": 0.0723464839,
				"element": "C" 
			},
			{
				"x": 1.6353603596,
				"y": -5.7365139975,
				"z": -0.1947992044,
				"element": "O" 
			},
			{
				"x": 2.54932014,
				"y": -4.2559691178,
				"z": 1.4483391505,
				"element": "C" 
			},
			{
				"x": 1.449625565,
				"y": -3.9788275642,
				"z": 2.5035546075,
				"element": "C" 
			},
			{
				"x": 0.5634102347,
				"y": -5.093613426,
				"z": 2.7891561025,
				"element": "N" 
			},
			{
				"x": -0.6072812489,
				"y": -5.4291690519,
				"z": 2.1641242379,
				"element": "C" 
			},
			{
				"x": -1.1847053019,
				"y": -6.4821683373,
				"z": 2.3730455589,
				"element": "O" 
			},
			{
				"x": -1.0549827796,
				"y": -4.4301298313,
				"z": 1.3480757419,
				"element": "O" 
			},
			{
				"x": -2.16050513,
				"y": -4.712238307,
				"z": 0.3977237558,
				"element": "C" 
			},
			{
				"x": -2.1991820853,
				"y": -3.4550314908,
				"z": -0.4755271114,
				"element": "C" 
			},
			{
				"x": -3.4688719039,
				"y": -4.8812516926,
				"z": 1.1767529045,
				"element": "C" 
			},
			{
				"x": -1.8295597715,
				"y": -5.940819749,
				"z": -0.4576543602,
				"element": "C" 
			},
			{
				"x": -0.8411225289,
				"y": 1.41635088,
				"z": -1.1835547587,
				"element": "C" 
			},
			{
				"x": -0.1616956452,
				"y": 2.1404216906,
				"z": -0.4404801485,
				"element": "O" 
			},
			{
				"x": -2.1826453544,
				"y": 1.2901917866,
				"z": -1.0936411382,
				"element": "N" 
			},
			{
				"x": -3.0367700107,
				"y": 1.9083188926,
				"z": -0.0655121593,
				"element": "C" 
			},
			{
				"x": -2.9389822458,
				"y": 3.4405581606,
				"z": -0.0219435053,
				"element": "C" 
			},
			{
				"x": -3.4905455061,
				"y": 4.0868156984,
				"z": -1.2730651391,
				"element": "C" 
			},
			{
				"x": -3.4186732132,
				"y": 5.4327743166,
				"z": -1.205495764,
				"element": "O" 
			},
			{
				"x": -3.9493779208,
				"y": 3.5009206402,
				"z": -2.2327199582,
				"element": "O" 
			},
			{
				"x": -2.7905915604,
				"y": 1.246278737,
				"z": 1.3144320332,
				"element": "C" 
			},
			{
				"x": -3.6641765849,
				"y": 0.5533506341,
				"z": 1.8381992079,
				"element": "O" 
			},
			{
				"x": -1.57649318,
				"y": 1.4829016213,
				"z": 1.8666874013,
				"element": "N" 
			},
			{
				"x": -1.1385016525,
				"y": 0.8102755779,
				"z": 3.0893104067,
				"element": "C" 
			},
			{
				"x": -0.0041206663,
				"y": 1.5946099605,
				"z": 3.7691849646,
				"element": "C" 
			},
			{
				"x": -0.3564834041,
				"y": 3.0345591072,
				"z": 4.0742851711,
				"element": "C" 
			},
			{
				"x": -1.2150189442,
				"y": 3.3573549349,
				"z": 5.1347722129,
				"element": "C" 
			},
			{
				"x": -1.5536049613,
				"y": 4.6834524316,
				"z": 5.4039040169,
				"element": "C" 
			},
			{
				"x": -1.0351287954,
				"y": 5.7132726985,
				"z": 4.6151634203,
				"element": "C" 
			},
			{
				"x": -0.1749575474,
				"y": 5.4059577647,
				"z": 3.5601923008,
				"element": "C" 
			},
			{
				"x": 0.1611282238,
				"y": 4.0767598837,
				"z": 3.293579916,
				"element": "C" 
			},
			{
				"x": -0.6714697353,
				"y": -0.6177843933,
				"z": 2.7143762368,
				"element": "C" 
			},
			{
				"x": -1.6629303704,
				"y": -1.5397286358,
				"z": 2.6891995628,
				"element": "N" 
			},
			{
				"x": 0.5058563036,
				"y": -0.860027423,
				"z": 2.4449366696,
				"element": "O" 
			},
			{
				"x": -2.6999372616,
				"y": 3.0147849433,
				"z": -6.1806750712,
				"element": "H" 
			},
			{
				"x": -3.9830534788,
				"y": 1.8184250605,
				"z": -5.905853077,
				"element": "H" 
			},
			{
				"x": -3.5416562399,
				"y": 2.9389557416,
				"z": -4.5948473764,
				"element": "H" 
			},
			{
				"x": -0.221475465,
				"y": 2.781221785,
				"z": -4.9506224399,
				"element": "H" 
			},
			{
				"x": -1.1777780451,
				"y": 2.9047154877,
				"z": -3.4667033902,
				"element": "H" 
			},
			{
				"x": 0.9236284959,
				"y": 0.7355611771,
				"z": -4.088752885,
				"element": "H" 
			},
			{
				"x": 1.1386514191,
				"y": 2.1105481267,
				"z": -2.9981961418,
				"element": "H" 
			},
			{
				"x": -0.8208248294,
				"y": -0.2063021883,
				"z": -2.6379132924,
				"element": "H" 
			},
			{
				"x": 1.3727457042,
				"y": 0.3290735428,
				"z": -0.7727711195,
				"element": "H" 
			},
			{
				"x": 1.894622865,
				"y": -1.8052759859,
				"z": 0.2588262905,
				"element": "H" 
			},
			{
				"x": 3.7950690542,
				"y": -2.2381594207,
				"z": -2.110442598,
				"element": "H" 
			},
			{
				"x": 4.2270885919,
				"y": -2.4153168402,
				"z": -0.4208611252,
				"element": "H" 
			},
			{
				"x": 4.6268114605,
				"y": 0.0241094016,
				"z": -3.1616180303,
				"element": "H" 
			},
			{
				"x": 5.1633864168,
				"y": 2.3423398506,
				"z": -2.341722044,
				"element": "H" 
			},
			{
				"x": 5.0291782275,
				"y": 3.8251546259,
				"z": 0.0610468732,
				"element": "H" 
			},
			{
				"x": 4.4037535518,
				"y": 3.5631980108,
				"z": 2.4541333129,
				"element": "H" 
			},
			{
				"x": 3.5351695372,
				"y": 1.4070147236,
				"z": 3.3062673482,
				"element": "H" 
			},
			{
				"x": 3.2508096209,
				"y": -0.5303093229,
				"z": 1.816330729,
				"element": "H" 
			},
			{
				"x": 1.4135694056,
				"y": -3.8631360835,
				"z": -1.7197832982,
				"element": "H" 
			},
			{
				"x": 3.1420961367,
				"y": -5.1226856381,
				"z": 1.75541767,
				"element": "H" 
			},
			{
				"x": 3.216392465,
				"y": -3.3875533534,
				"z": 1.4256363007,
				"element": "H" 
			},
			{
				"x": 1.9456100357,
				"y": -3.7040172289,
				"z": 3.4411646081,
				"element": "H" 
			},
			{
				"x": 0.859461896,
				"y": -3.1119939558,
				"z": 2.2118901106,
				"element": "H" 
			},
			{
				"x": 0.934426858,
				"y": -5.8712947372,
				"z": 3.3158695637,
				"element": "H" 
			},
			{
				"x": -2.3749041856,
				"y": -2.5575257914,
				"z": 0.1259979587,
				"element": "H" 
			},
			{
				"x": -3.0159437345,
				"y": -3.540556997,
				"z": -1.1988038291,
				"element": "H" 
			},
			{
				"x": -1.265684196,
				"y": -3.3294294733,
				"z": -1.0295729348,
				"element": "H" 
			},
			{
				"x": -3.4117502924,
				"y": -5.7450615549,
				"z": 1.8391258247,
				"element": "H" 
			},
			{
				"x": -3.687294372,
				"y": -3.9884860083,
				"z": 1.7730334551,
				"element": "H" 
			},
			{
				"x": -4.2974236668,
				"y": -5.0250253049,
				"z": 0.4752497416,
				"element": "H" 
			},
			{
				"x": -0.8169025751,
				"y": -5.8620836611,
				"z": -0.862292909,
				"element": "H" 
			},
			{
				"x": -2.5393315481,
				"y": -5.9963700934,
				"z": -1.2898314004,
				"element": "H" 
			},
			{
				"x": -1.8963226563,
				"y": -6.8587496993,
				"z": 0.1254140571,
				"element": "H" 
			},
			{
				"x": -2.6477169557,
				"y": 0.7585943217,
				"z": -1.8181784305,
				"element": "H" 
			},
			{
				"x": -4.0580394144,
				"y": 1.6302274316,
				"z": -0.3257273454,
				"element": "H" 
			},
			{
				"x": -1.9062368652,
				"y": 3.7711198586,
				"z": 0.1155853014,
				"element": "H" 
			},
			{
				"x": -3.5026414273,
				"y": 3.823161687,
				"z": 0.8365966799,
				"element": "H" 
			},
			{
				"x": -3.7987529226,
				"y": 5.773654762,
				"z": -2.0329330785,
				"element": "H" 
			},
			{
				"x": -0.8677882234,
				"y": 1.916206768,
				"z": 1.2745940108,
				"element": "H" 
			},
			{
				"x": -2.0107380798,
				"y": 0.7464677695,
				"z": 3.7462354529,
				"element": "H" 
			},
			{
				"x": 0.8800689126,
				"y": 1.538997007,
				"z": 3.1272141972,
				"element": "H" 
			},
			{
				"x": 0.2531443338,
				"y": 1.0608167828,
				"z": 4.6913228508,
				"element": "H" 
			},
			{
				"x": -1.6183811886,
				"y": 2.5627186665,
				"z": 5.7586199829,
				"element": "H" 
			},
			{
				"x": -2.2180404276,
				"y": 4.9136972895,
				"z": 6.2321353961,
				"element": "H" 
			},
			{
				"x": -1.2953589303,
				"y": 6.7466264539,
				"z": 4.8259921609,
				"element": "H" 
			},
			{
				"x": 0.2395635075,
				"y": 6.2006515081,
				"z": 2.9459229029,
				"element": "H" 
			},
			{
				"x": 0.8411912705,
				"y": 3.8439129441,
				"z": 2.4774128587,
				"element": "H" 
			},
			{
				"x": -2.6235200158,
				"y": -1.2160193329,
				"z": 2.6988074837,
				"element": "H" 
			},
			{
				"x": -1.461321842,
				"y": -2.4646340942,
				"z": 2.319639795,
				"element": "H" 
			}
		],
		 "valence_orbital": [ 
			{
				"type": "occ",
				"energy": -0.23616,
				"method": "rhf"
			},
			{
				"type": "occ",
				"energy": -0.22914,
				"method": "rhf"
			},
			{
				"type": "occ",
				"energy": -0.22842,
				"method": "rhf"
			},
			{
				"type": "occ",
				"energy": -0.2263,
				"method": "rhf"
			},
			{
				"type": "occ",
				"energy": -0.20727,
				"method": "rhf"
			},
			{
				"type": "unocc",
				"energy": -0.02012,
				"method": "rhf"
			},
			{
				"type": "unocc",
				"energy": -0.01706,
				"method": "rhf"
			},
			{
				"type": "unocc",
				"energy": -0.01558,
				"method": "rhf"
			},
			{
				"type": "unocc",
				"energy": -0.00643,
				"method": "rhf"
			},
			{
				"type": "unocc",
				"energy": -0.00367,
				"method": "rhf"
			}
		],
		"cosmo_sigma_profile": { 
			"-0.025": 0.0,
			"-0.024": 0.0,
			"-0.023": 0.0,
			"-0.022": 0.0,
			"-0.021": 0.0,
			"-0.02": 0.0,
			"-0.019": 0.0803387743757,
			"-0.018": 0.906201853877,
			"-0.017": 0.901911914317,
			"-0.016": 1.1436306195,
			"-0.015": 2.88849558159,
			"-0.014": 2.81156103894,
			"-0.013": 3.67907072999,
			"-0.012": 3.19786594224,
			"-0.011": 4.95551198091,
			"-0.01": 4.09464059865,
			"-0.009": 4.51202330485,
			"-0.008": 10.7251847696,
			"-0.007": 15.7939626657,
			"-0.006": 28.9234719644,
			"-0.005": 53.5155950405,
			"-0.004": 63.0256041541,
			"-0.003": 69.6572725278,
			"-0.002": 65.9287352498,
			"-0.001": 72.6635099814,
			"0.0": 66.2909282364,
			"0.001": 56.6559950308,
			"0.002": 45.1986676815,
			"0.003": 38.9080896375,
			"0.004": 38.3199811324,
			"0.005": 35.605492208,
			"0.006": 30.294497587,
			"0.007": 19.0875976614,
			"0.008": 13.5937686906,
			"0.009": 11.4652929828,
			"0.01": 10.5714609734,
			"0.011": 8.48151611427,
			"0.012": 8.85660665629,
			"0.013": 9.57836941251,
			"0.014": 6.60409561255,
			"0.015": 1.39995121887,
			"0.016": 0.0302500840927,
			"0.017": 0.0,
			"0.018": 0.0,
			"0.019": 0.0,
			"0.02": 0.0,
			"0.021": 0.0,
			"0.022": 0.0,
			"0.023": 0.0,
			"0.024": 0.0,
			"0.025": 0.0
		}
	}
}
