{
	 "smiles": "NCC1=CC2=C(S1)C=CC=C2", 
	 "Tm": 331.65, 
	 "num_atms": 20, 
	 "gaussian": { 
		 "optdone": 1, 
		 "sigma_profile": "yes", 
		 "theory": "DFT", 
		 "functional": "B3LYP", 
		 "basiset": "6-31G**", 
		 "properties": { 
			 "R2extent": 2298.933, 
			 "electric_dipole_moment_norm": 1.1644677196, 
			 "electric_quadrupole_moment_norm": 4.72665917324, 
			 "total_energy": -801.319391925, 
			 "HOMO_LUMO_gap": 0.19007, 
			 "cosmo_polarized_energy": -8.05, 
			 "cosmo_cavitation_energy": 25.01, 
			 "cosmo_dispersion_energy": -19.02, 
			 "cosmo_repulsion_energy": 1.48, 
			 "cosmo_total_nonelectrostatic_energy": 7.47, 
			 "SMD_solvation_energy": 2.2 
		},
		"coords": [
			{
				"x": 1.8604871815,
				"y": -2.2117055265,
				"z": 2.2635115757,
				"element": "N" 
			},
			{
				"x": 0.4296109261,
				"y": -2.172687633,
				"z": 1.9351059557,
				"element": "C" 
			},
			{
				"x": 0.0334578549,
				"y": -1.3010698538,
				"z": 0.7684683297,
				"element": "C" 
			},
			{
				"x": -0.651319134,
				"y": -0.1252875701,
				"z": 0.7958520743,
				"element": "C" 
			},
			{
				"x": -0.823599178,
				"y": 0.4847797626,
				"z": -0.4979008299,
				"element": "C" 
			},
			{
				"x": -0.2273808212,
				"y": -0.284878606,
				"z": -1.5279906516,
				"element": "C" 
			},
			{
				"x": 0.517147364,
				"y": -1.7378591686,
				"z": -0.8763006284,
				"element": "S" 
			},
			{
				"x": -0.2711215769,
				"y": 0.1187252251,
				"z": -2.8656325888,
				"element": "C" 
			},
			{
				"x": -0.9206006855,
				"y": 1.3097968852,
				"z": -3.175798172,
				"element": "C" 
			},
			{
				"x": -1.5181101094,
				"y": 2.0877210025,
				"z": -2.168042741,
				"element": "C" 
			},
			{
				"x": -1.4736908673,
				"y": 1.6847887654,
				"z": -0.839767686,
				"element": "C" 
			},
			{
				"x": 2.3815141838,
				"y": -2.6248395858,
				"z": 1.4932994047,
				"element": "H" 
			},
			{
				"x": 2.2097523827,
				"y": -1.2605135804,
				"z": 2.3599366465,
				"element": "H" 
			},
			{
				"x": -0.1150260553,
				"y": -1.8144249355,
				"z": 2.8161172666,
				"element": "H" 
			},
			{
				"x": 0.1001541777,
				"y": -3.2046014036,
				"z": 1.7650518238,
				"element": "H" 
			},
			{
				"x": -1.0326530493,
				"y": 0.3084380628,
				"z": 1.7149971412,
				"element": "H" 
			},
			{
				"x": 0.1892455264,
				"y": -0.4812527919,
				"z": -3.6446787408,
				"element": "H" 
			},
			{
				"x": -0.9658766897,
				"y": 1.6407343701,
				"z": -4.209132874,
				"element": "H" 
			},
			{
				"x": -2.0196798171,
				"y": 3.013612378,
				"z": -2.4336993755,
				"element": "H" 
			},
			{
				"x": -1.9366116136,
				"y": 2.2884242036,
				"z": -0.0638959302,
				"element": "H" 
			}
		],
		 "valence_orbital": [ 
			{
				"type": "occ",
				"energy": -0.32361,
				"method": "rhf"
			},
			{
				"type": "occ",
				"energy": -0.28214,
				"method": "rhf"
			},
			{
				"type": "occ",
				"energy": -0.25077,
				"method": "rhf"
			},
			{
				"type": "occ",
				"energy": -0.22801,
				"method": "rhf"
			},
			{
				"type": "occ",
				"energy": -0.21617,
				"method": "rhf"
			},
			{
				"type": "unocc",
				"energy": -0.0261,
				"method": "rhf"
			},
			{
				"type": "unocc",
				"energy": -0.00111,
				"method": "rhf"
			},
			{
				"type": "unocc",
				"energy": 0.01748,
				"method": "rhf"
			},
			{
				"type": "unocc",
				"energy": 0.04895,
				"method": "rhf"
			},
			{
				"type": "unocc",
				"energy": 0.08068,
				"method": "rhf"
			}
		],
		"cosmo_sigma_profile": { 
			"-0.025": 0.0,
			"-0.024": 0.0,
			"-0.023": 0.0,
			"-0.022": 0.0,
			"-0.021": 0.0,
			"-0.02": 0.0,
			"-0.019": 0.0,
			"-0.018": 0.0,
			"-0.017": 0.0,
			"-0.016": 0.0,
			"-0.015": 0.0,
			"-0.014": 0.0,
			"-0.013": 0.0,
			"-0.012": 0.0,
			"-0.011": 0.0,
			"-0.01": 1.10903169175,
			"-0.009": 2.24268884102,
			"-0.008": 3.64387260929,
			"-0.007": 4.61419705224,
			"-0.006": 11.5804046663,
			"-0.005": 18.6918537031,
			"-0.004": 18.4976175819,
			"-0.003": 14.8493157994,
			"-0.002": 11.7543920526,
			"-0.001": 11.5562995903,
			"0.0": 10.6870364447,
			"0.001": 9.92445800617,
			"0.002": 11.5779606641,
			"0.003": 17.2466098787,
			"0.004": 20.2891740443,
			"0.005": 16.265753801,
			"0.006": 7.70626339239,
			"0.007": 0.646053364631,
			"0.008": 1.25111233819,
			"0.009": 0.590526359162,
			"0.01": 0.448962305173,
			"0.011": 0.725438105641,
			"0.012": 0.751126517143,
			"0.013": 0.844767302748,
			"0.014": 0.233174642601,
			"0.015": 0.693398424055,
			"0.016": 0.983255572015,
			"0.017": 0.621342432421,
			"0.018": 0.58725218434,
			"0.019": 0.438081206068,
			"0.02": 0.0809936116457,
			"0.021": 0.0,
			"0.022": 0.0,
			"0.023": 0.0,
			"0.024": 0.0,
			"0.025": 0.0
		}
	}
}
