{
	 "smiles": "CN1CCN(CC1)C1=NC=C(C=C1)C#N", 
	 "Tm": 341.15, 
	 "num_atms": 29, 
	 "gaussian": { 
		 "optdone": 1, 
		 "sigma_profile": "yes", 
		 "theory": "DFT", 
		 "functional": "B3LYP", 
		 "basiset": "6-31G**", 
		 "properties": { 
			 "R2extent": 4583.6159, 
			 "electric_dipole_moment_norm": 7.43627745381, 
			 "electric_quadrupole_moment_norm": 32.8471251552, 
			 "total_energy": -646.583725068, 
			 "HOMO_LUMO_gap": 0.17682, 
			 "cosmo_polarized_energy": -12.8, 
			 "cosmo_cavitation_energy": 31.91, 
			 "cosmo_dispersion_energy": -23.06, 
			 "cosmo_repulsion_energy": 1.79, 
			 "cosmo_total_nonelectrostatic_energy": 10.64, 
			 "SMD_solvation_energy": 2.9 
		},
		"coords": [
			{
				"x": 0.8308396809,
				"y": -0.0480181462,
				"z": -4.2166293879,
				"element": "C" 
			},
			{
				"x": 0.407659406,
				"y": 0.0001709187,
				"z": -2.8287251209,
				"element": "N" 
			},
			{
				"x": -0.7038210662,
				"y": 0.9005445147,
				"z": -2.5688001137,
				"element": "C" 
			},
			{
				"x": -0.777231676,
				"y": 1.1732600322,
				"z": -1.0620651967,
				"element": "C" 
			},
			{
				"x": -0.6913449359,
				"y": -0.0824213376,
				"z": -0.3168588145,
				"element": "N" 
			},
			{
				"x": -0.8133897991,
				"y": -1.309595834,
				"z": -1.0983688105,
				"element": "C" 
			},
			{
				"x": 0.1941426033,
				"y": -1.3379449224,
				"z": -2.2596028986,
				"element": "C" 
			},
			{
				"x": -0.5824253498,
				"y": -0.0941091528,
				"z": 1.0453856911,
				"element": "C" 
			},
			{
				"x": -0.5125539565,
				"y": -1.3017656377,
				"z": 1.6514806611,
				"element": "N" 
			},
			{
				"x": -0.392377208,
				"y": -1.3525396269,
				"z": 2.9710894922,
				"element": "C" 
			},
			{
				"x": -0.336133684,
				"y": -0.2202359569,
				"z": 3.8007270549,
				"element": "C" 
			},
			{
				"x": -0.4193014828,
				"y": 1.0378554626,
				"z": 3.1708787564,
				"element": "C" 
			},
			{
				"x": -0.5448767274,
				"y": 1.1122133633,
				"z": 1.7989403823,
				"element": "C" 
			},
			{
				"x": -0.2081520837,
				"y": -0.3498994998,
				"z": 5.2152292231,
				"element": "C" 
			},
			{
				"x": -0.1032582049,
				"y": -0.4587810968,
				"z": 6.3701490975,
				"element": "N" 
			},
			{
				"x": 0.0669334502,
				"y": -0.4705977741,
				"z": -4.8979114408,
				"element": "H" 
			},
			{
				"x": 1.0820982043,
				"y": 0.9583471929,
				"z": -4.5671173734,
				"element": "H" 
			},
			{
				"x": 1.730390606,
				"y": -0.6667980933,
				"z": -4.3026238766,
				"element": "H" 
			},
			{
				"x": -1.6748384514,
				"y": 0.527536241,
				"z": -2.9491690037,
				"element": "H" 
			},
			{
				"x": -0.5172995266,
				"y": 1.8514156807,
				"z": -3.0782794835,
				"element": "H" 
			},
			{
				"x": -1.7046630839,
				"y": 1.7154321439,
				"z": -0.8209046906,
				"element": "H" 
			},
			{
				"x": 0.0699477367,
				"y": 1.8128423336,
				"z": -0.7867648253,
				"element": "H" 
			},
			{
				"x": -1.8371619734,
				"y": -1.3879489134,
				"z": -1.4896685907,
				"element": "H" 
			},
			{
				"x": -0.6553858946,
				"y": -2.1528013167,
				"z": -0.4288486553,
				"element": "H" 
			},
			{
				"x": -0.1954717949,
				"y": -2.0446642717,
				"z": -3.015409277,
				"element": "H" 
			},
			{
				"x": 1.1603529321,
				"y": -1.731175981,
				"z": -1.9186218849,
				"element": "H" 
			},
			{
				"x": -0.3375969324,
				"y": -2.3459591372,
				"z": 3.4124708637,
				"element": "H" 
			},
			{
				"x": -0.3881022134,
				"y": 1.9440489006,
				"z": 3.7674182347,
				"element": "H" 
			},
			{
				"x": -0.6184785748,
				"y": 2.0778899144,
				"z": 1.3164999877,
				"element": "H" 
			}
		],
		 "valence_orbital": [ 
			{
				"type": "occ",
				"energy": -0.29447,
				"method": "rhf"
			},
			{
				"type": "occ",
				"energy": -0.29273,
				"method": "rhf"
			},
			{
				"type": "occ",
				"energy": -0.26765,
				"method": "rhf"
			},
			{
				"type": "occ",
				"energy": -0.22331,
				"method": "rhf"
			},
			{
				"type": "occ",
				"energy": -0.21118,
				"method": "rhf"
			},
			{
				"type": "unocc",
				"energy": -0.03436,
				"method": "rhf"
			},
			{
				"type": "unocc",
				"energy": -0.02735,
				"method": "rhf"
			},
			{
				"type": "unocc",
				"energy": 0.04434,
				"method": "rhf"
			},
			{
				"type": "unocc",
				"energy": 0.06826,
				"method": "rhf"
			},
			{
				"type": "unocc",
				"energy": 0.08561,
				"method": "rhf"
			}
		],
		"cosmo_sigma_profile": { 
			"-0.025": 0.0,
			"-0.024": 0.0,
			"-0.023": 0.0,
			"-0.022": 0.0,
			"-0.021": 0.0,
			"-0.02": 0.0,
			"-0.019": 0.0,
			"-0.018": 0.0,
			"-0.017": 0.0,
			"-0.016": 0.0,
			"-0.015": 0.0,
			"-0.014": 0.0,
			"-0.013": 0.0,
			"-0.012": 0.0,
			"-0.011": 0.0,
			"-0.01": 0.0,
			"-0.009": 0.12103790679,
			"-0.008": 2.86311578292,
			"-0.007": 6.90617262611,
			"-0.006": 7.43067022429,
			"-0.005": 14.0079786895,
			"-0.004": 25.790357696,
			"-0.003": 30.3926546458,
			"-0.002": 28.926259845,
			"-0.001": 27.5012158693,
			"0.0": 23.0763626054,
			"0.001": 17.9164247904,
			"0.002": 11.7156305777,
			"0.003": 7.3087594897,
			"0.004": 6.4497022632,
			"0.005": 4.41572895736,
			"0.006": 4.7302345166,
			"0.007": 5.34836941864,
			"0.008": 5.50981055545,
			"0.009": 4.95039190065,
			"0.01": 5.76850968296,
			"0.011": 4.018321517,
			"0.012": 2.91863242137,
			"0.013": 2.96917591324,
			"0.014": 1.35056615641,
			"0.015": 0.329484773197,
			"0.016": 0.0,
			"0.017": 0.0,
			"0.018": 0.0,
			"0.019": 0.0,
			"0.02": 0.0,
			"0.021": 0.0,
			"0.022": 0.0,
			"0.023": 0.0,
			"0.024": 0.0,
			"0.025": 0.0
		}
	}
}
