{
	 "smiles": "CC(=O)C1=NN2C(S1)=NC(=O)C1=CC=CC=C21", 
	 "Tm": 472.15, 
	 "num_atms": 24, 
	 "gaussian": { 
		 "optdone": 1, 
		 "sigma_profile": "yes", 
		 "theory": "DFT", 
		 "functional": "B3LYP", 
		 "basiset": "6-31G**", 
		 "properties": { 
			 "R2extent": 4698.4529, 
			 "electric_dipole_moment_norm": 6.7774329661, 
			 "electric_quadrupole_moment_norm": 10.4372231973, 
			 "total_energy": -1136.26181778, 
			 "HOMO_LUMO_gap": 0.13982, 
			 "cosmo_polarized_energy": -17.43, 
			 "cosmo_cavitation_energy": 31.15, 
			 "cosmo_dispersion_energy": -23.34, 
			 "cosmo_repulsion_energy": 1.73, 
			 "cosmo_total_nonelectrostatic_energy": 9.54, 
			 "SMD_solvation_energy": 4.08 
		},
		"coords": [
			{
				"x": 2.1360678731,
				"y": -1.699535093,
				"z": -3.2825644139,
				"element": "C" 
			},
			{
				"x": 2.4968205301,
				"y": -1.5045757068,
				"z": -1.8294924295,
				"element": "C" 
			},
			{
				"x": 3.5929198141,
				"y": -1.7575794109,
				"z": -1.3607876869,
				"element": "O" 
			},
			{
				"x": 1.4425900898,
				"y": -0.9702221387,
				"z": -0.9217374868,
				"element": "C" 
			},
			{
				"x": 0.2434006476,
				"y": -0.6670879173,
				"z": -1.3129340099,
				"element": "N" 
			},
			{
				"x": -0.4914277713,
				"y": -0.2075865091,
				"z": -0.2727752893,
				"element": "N" 
			},
			{
				"x": 0.1256877581,
				"y": -0.1391663868,
				"z": 0.9775852795,
				"element": "C" 
			},
			{
				"x": 1.7913355396,
				"y": -0.7172473645,
				"z": 0.7866796228,
				"element": "S" 
			},
			{
				"x": -0.3985668426,
				"y": 0.2650169753,
				"z": 2.0768409351,
				"element": "N" 
			},
			{
				"x": -1.7391182932,
				"y": 0.6956538713,
				"z": 2.0700292831,
				"element": "C" 
			},
			{
				"x": -2.2803805202,
				"y": 1.0879910639,
				"z": 3.0901485501,
				"element": "O" 
			},
			{
				"x": -2.4618285965,
				"y": 0.6497118207,
				"z": 0.7637779013,
				"element": "C" 
			},
			{
				"x": -3.7985287476,
				"y": 1.0638444941,
				"z": 0.6831765949,
				"element": "C" 
			},
			{
				"x": -4.4776571877,
				"y": 1.024394857,
				"z": -0.5273235416,
				"element": "C" 
			},
			{
				"x": -3.8250313233,
				"y": 0.5670201213,
				"z": -1.6822998208,
				"element": "C" 
			},
			{
				"x": -2.500276752,
				"y": 0.1496244813,
				"z": -1.6348199236,
				"element": "C" 
			},
			{
				"x": -1.829875918,
				"y": 0.1956416797,
				"z": -0.4069175676,
				"element": "C" 
			},
			{
				"x": 3.0046331773,
				"y": -2.0916636815,
				"z": -3.8119167772,
				"element": "H" 
			},
			{
				"x": 1.8205010288,
				"y": -0.7507927425,
				"z": -3.7280669055,
				"element": "H" 
			},
			{
				"x": 1.2936706185,
				"y": -2.3921042445,
				"z": -3.3768972387,
				"element": "H" 
			},
			{
				"x": -4.2695087205,
				"y": 1.4109855805,
				"z": 1.5965557333,
				"element": "H" 
			},
			{
				"x": -5.5126660778,
				"y": 1.3466415259,
				"z": -0.5824277749,
				"element": "H" 
			},
			{
				"x": -4.3566903448,
				"y": 0.5364250945,
				"z": -2.6285981889,
				"element": "H" 
			},
			{
				"x": -1.9836699815,
				"y": -0.20579037,
				"z": -2.5179348451,
				"element": "H" 
			}
		],
		 "valence_orbital": [ 
			{
				"type": "occ",
				"energy": -0.2874,
				"method": "rhf"
			},
			{
				"type": "occ",
				"energy": -0.28054,
				"method": "rhf"
			},
			{
				"type": "occ",
				"energy": -0.27566,
				"method": "rhf"
			},
			{
				"type": "occ",
				"energy": -0.25395,
				"method": "rhf"
			},
			{
				"type": "occ",
				"energy": -0.24123,
				"method": "rhf"
			},
			{
				"type": "unocc",
				"energy": -0.10141,
				"method": "rhf"
			},
			{
				"type": "unocc",
				"energy": -0.05821,
				"method": "rhf"
			},
			{
				"type": "unocc",
				"energy": -0.03978,
				"method": "rhf"
			},
			{
				"type": "unocc",
				"energy": -0.01525,
				"method": "rhf"
			},
			{
				"type": "unocc",
				"energy": -0.00347,
				"method": "rhf"
			}
		],
		"cosmo_sigma_profile": { 
			"-0.025": 0.0,
			"-0.024": 0.0,
			"-0.023": 0.0,
			"-0.022": 0.0,
			"-0.021": 0.0,
			"-0.02": 0.0,
			"-0.019": 0.0,
			"-0.018": 0.0,
			"-0.017": 0.0,
			"-0.016": 0.0,
			"-0.015": 0.0,
			"-0.014": 0.0,
			"-0.013": 0.0,
			"-0.012": 0.0,
			"-0.011": 0.0,
			"-0.01": 0.0,
			"-0.009": 0.129731529748,
			"-0.008": 2.89278379623,
			"-0.007": 15.363259294,
			"-0.006": 19.57401955,
			"-0.005": 19.6739472914,
			"-0.004": 16.7144980258,
			"-0.003": 20.4951058234,
			"-0.002": 22.3518964399,
			"-0.001": 20.6195151939,
			"0.0": 19.9192675987,
			"0.001": 19.9696487959,
			"0.002": 16.1711828774,
			"0.003": 11.1170659329,
			"0.004": 4.55275027455,
			"0.005": 3.56990035333,
			"0.006": 4.05097843838,
			"0.007": 3.17709163689,
			"0.008": 3.59174729807,
			"0.009": 5.08231681159,
			"0.01": 5.67384941857,
			"0.011": 4.77936405524,
			"0.012": 5.11170816723,
			"0.013": 4.63675392664,
			"0.014": 3.69167410834,
			"0.015": 1.16351722201,
			"0.016": 0.0,
			"0.017": 0.0,
			"0.018": 0.0,
			"0.019": 0.0,
			"0.02": 0.0,
			"0.021": 0.0,
			"0.022": 0.0,
			"0.023": 0.0,
			"0.024": 0.0,
			"0.025": 0.0
		}
	}
}
