{
	 "smiles": "CC1=C2C=CC=C(C3=CC=CC=C3)C2=CC2=C1C=CC=C2C1=CC=CC=C1", 
	 "Tm": 450.15, 
	 "num_atms": 47, 
	 "gaussian": { 
		 "optdone": 1, 
		 "sigma_profile": "yes", 
		 "theory": "DFT", 
		 "functional": "B3LYP", 
		 "basiset": "6-31G**", 
		 "properties": { 
			 "R2extent": 10438.0599, 
			 "electric_dipole_moment_norm": 0.0503715197309, 
			 "electric_quadrupole_moment_norm": 11.2635616112, 
			 "total_energy": -1040.95670947, 
			 "HOMO_LUMO_gap": 0.12388, 
			 "cosmo_polarized_energy": -9.1, 
			 "cosmo_cavitation_energy": 48.96, 
			 "cosmo_dispersion_energy": -33.17, 
			 "cosmo_repulsion_energy": 2.44, 
			 "cosmo_total_nonelectrostatic_energy": 18.23, 
			 "SMD_solvation_energy": 7.17 
		},
		"coords": [
			{
				"x": -1.5306765748,
				"y": -1.9867567393,
				"z": 2.7733568891,
				"element": "C" 
			},
			{
				"x": -1.0017109896,
				"y": -1.2852756604,
				"z": 1.5392677136,
				"element": "C" 
			},
			{
				"x": -0.3311091293,
				"y": -0.0441511091,
				"z": 1.6634352364,
				"element": "C" 
			},
			{
				"x": -0.0576838181,
				"y": 0.5490970172,
				"z": 2.9383221648,
				"element": "C" 
			},
			{
				"x": 0.6274110255,
				"y": 1.7298953461,
				"z": 3.0406945378,
				"element": "C" 
			},
			{
				"x": 1.0615139286,
				"y": 2.4165227323,
				"z": 1.8777831121,
				"element": "C" 
			},
			{
				"x": 0.8212368335,
				"y": 1.9138636494,
				"z": 0.6181371289,
				"element": "C" 
			},
			{
				"x": 1.2743751036,
				"y": 2.7031467645,
				"z": -0.5629999343,
				"element": "C" 
			},
			{
				"x": 0.3690036728,
				"y": 3.1410427062,
				"z": -1.5445235447,
				"element": "C" 
			},
			{
				"x": 0.7980286344,
				"y": 3.9310177001,
				"z": -2.6105558155,
				"element": "C" 
			},
			{
				"x": 2.1408421536,
				"y": 4.2987844704,
				"z": -2.718442431,
				"element": "C" 
			},
			{
				"x": 3.050845508,
				"y": 3.8724072296,
				"z": -1.750063886,
				"element": "C" 
			},
			{
				"x": 2.6209149313,
				"y": 3.0835836542,
				"z": -0.6825324121,
				"element": "C" 
			},
			{
				"x": 0.1388346035,
				"y": 0.6442878869,
				"z": 0.4792416505,
				"element": "C" 
			},
			{
				"x": -0.0447471074,
				"y": 0.0429094059,
				"z": -0.7713903841,
				"element": "C" 
			},
			{
				"x": -0.6798093802,
				"y": -1.1959542961,
				"z": -0.9175407752,
				"element": "C" 
			},
			{
				"x": -1.1504215315,
				"y": -1.8859374433,
				"z": 0.2654628325,
				"element": "C" 
			},
			{
				"x": -1.7207884561,
				"y": -3.1895973085,
				"z": 0.1005941115,
				"element": "C" 
			},
			{
				"x": -1.8196988565,
				"y": -3.771220708,
				"z": -1.1347517123,
				"element": "C" 
			},
			{
				"x": -1.3841293933,
				"y": -3.0812475456,
				"z": -2.2951397596,
				"element": "C" 
			},
			{
				"x": -0.8392371112,
				"y": -1.8188041861,
				"z": -2.2150002495,
				"element": "C" 
			},
			{
				"x": -0.4332956619,
				"y": -1.1358324623,
				"z": -3.4768132021,
				"element": "C" 
			},
			{
				"x": -0.9835221441,
				"y": 0.1018240643,
				"z": -3.8513136835,
				"element": "C" 
			},
			{
				"x": -0.640341427,
				"y": 0.6985499671,
				"z": -5.0640354295,
				"element": "C" 
			},
			{
				"x": 0.2606557363,
				"y": 0.0713643898,
				"z": -5.9270931485,
				"element": "C" 
			},
			{
				"x": 0.8136686248,
				"y": -1.1588739931,
				"z": -5.5688459561,
				"element": "C" 
			},
			{
				"x": 0.4686485346,
				"y": -1.756563037,
				"z": -4.3562176083,
				"element": "C" 
			},
			{
				"x": -2.4148115882,
				"y": -2.5855759986,
				"z": 2.5488261181,
				"element": "H" 
			},
			{
				"x": -0.7843341124,
				"y": -2.6577714654,
				"z": 3.2183967878,
				"element": "H" 
			},
			{
				"x": -1.8302377065,
				"y": -1.2750795754,
				"z": 3.5443639288,
				"element": "H" 
			},
			{
				"x": -0.3747153406,
				"y": 0.0454920604,
				"z": 3.8432453728,
				"element": "H" 
			},
			{
				"x": 0.8327372476,
				"y": 2.1563285025,
				"z": 4.0184872227,
				"element": "H" 
			},
			{
				"x": 1.5695175147,
				"y": 3.3709871071,
				"z": 1.9793923742,
				"element": "H" 
			},
			{
				"x": -0.6796351649,
				"y": 2.8729201891,
				"z": -1.4573834196,
				"element": "H" 
			},
			{
				"x": 0.0805665149,
				"y": 4.2658504043,
				"z": -3.3545252494,
				"element": "H" 
			},
			{
				"x": 2.474457038,
				"y": 4.9124572595,
				"z": -3.5503006993,
				"element": "H" 
			},
			{
				"x": 4.098474226,
				"y": 4.1499593663,
				"z": -1.8266652267,
				"element": "H" 
			},
			{
				"x": 3.3331882221,
				"y": 2.7449650128,
				"z": 0.064357057,
				"element": "H" 
			},
			{
				"x": 0.3455626671,
				"y": 0.5367420598,
				"z": -1.6508199899,
				"element": "H" 
			},
			{
				"x": -2.058950974,
				"y": -3.7407879315,
				"z": 0.9694220906,
				"element": "H" 
			},
			{
				"x": -2.2462308433,
				"y": -4.7652432188,
				"z": -1.2351151956,
				"element": "H" 
			},
			{
				"x": -1.5067005422,
				"y": -3.5445693437,
				"z": -3.2696687237,
				"element": "H" 
			},
			{
				"x": -1.6978103459,
				"y": 0.5867005401,
				"z": -3.1926580081,
				"element": "H" 
			},
			{
				"x": -1.0830546561,
				"y": 1.6519970939,
				"z": -5.3384406569,
				"element": "H" 
			},
			{
				"x": 0.5289840522,
				"y": 0.5379233346,
				"z": -6.8706004415,
				"element": "H" 
			},
			{
				"x": 1.5183945136,
				"y": -1.6534987213,
				"z": -6.2315216703,
				"element": "H" 
			},
			{
				"x": 0.9081915685,
				"y": -2.7093791709,
				"z": -4.075527116,
				"element": "H" 
			}
		],
		 "valence_orbital": [ 
			{
				"type": "occ",
				"energy": -0.24578,
				"method": "rhf"
			},
			{
				"type": "occ",
				"energy": -0.24386,
				"method": "rhf"
			},
			{
				"type": "occ",
				"energy": -0.23575,
				"method": "rhf"
			},
			{
				"type": "occ",
				"energy": -0.22966,
				"method": "rhf"
			},
			{
				"type": "occ",
				"energy": -0.18441,
				"method": "rhf"
			},
			{
				"type": "unocc",
				"energy": -0.06053,
				"method": "rhf"
			},
			{
				"type": "unocc",
				"energy": -0.01409,
				"method": "rhf"
			},
			{
				"type": "unocc",
				"energy": -0.01032,
				"method": "rhf"
			},
			{
				"type": "unocc",
				"energy": -0.00512,
				"method": "rhf"
			},
			{
				"type": "unocc",
				"energy": 0.00073,
				"method": "rhf"
			}
		],
		"cosmo_sigma_profile": { 
			"-0.025": 0.0,
			"-0.024": 0.0,
			"-0.023": 0.0,
			"-0.022": 0.0,
			"-0.021": 0.0,
			"-0.02": 0.0,
			"-0.019": 0.0,
			"-0.018": 0.0,
			"-0.017": 0.0,
			"-0.016": 0.0,
			"-0.015": 0.0,
			"-0.014": 0.0,
			"-0.013": 0.0,
			"-0.012": 0.0,
			"-0.011": 0.0,
			"-0.01": 0.0,
			"-0.009": 0.0,
			"-0.008": 0.0,
			"-0.007": 0.510188608679,
			"-0.006": 12.9216252069,
			"-0.005": 32.3624823264,
			"-0.004": 36.206515405,
			"-0.003": 39.2134055805,
			"-0.002": 32.5115181655,
			"-0.001": 31.4788657322,
			"0.0": 26.6422049859,
			"0.001": 25.6439065926,
			"0.002": 30.9034880839,
			"0.003": 35.6290083805,
			"0.004": 48.4940079521,
			"0.005": 29.2436776708,
			"0.006": 11.4015285194,
			"0.007": 0.0133971156151,
			"0.008": 0.0,
			"0.009": 0.0,
			"0.01": 0.0,
			"0.011": 0.0,
			"0.012": 0.0,
			"0.013": 0.0,
			"0.014": 0.0,
			"0.015": 0.0,
			"0.016": 0.0,
			"0.017": 0.0,
			"0.018": 0.0,
			"0.019": 0.0,
			"0.02": 0.0,
			"0.021": 0.0,
			"0.022": 0.0,
			"0.023": 0.0,
			"0.024": 0.0,
			"0.025": 0.0
		}
	}
}
