{
	 "smiles": "ClC1=CC(Cl)=NC(=N1)C1=CC=CC=C1", 
	 "Tm": 370.05, 
	 "num_atms": 20, 
	 "gaussian": { 
		 "optdone": 1, 
		 "sigma_profile": "yes", 
		 "theory": "DFT", 
		 "functional": "B3LYP", 
		 "basiset": "6-31G**", 
		 "properties": { 
			 "R2extent": 4347.8567, 
			 "electric_dipole_moment_norm": 0.835348316572, 
			 "electric_quadrupole_moment_norm": 11.93320778, 
			 "total_energy": -1414.57561602, 
			 "HOMO_LUMO_gap": 0.17735, 
			 "cosmo_polarized_energy": -5.95, 
			 "cosmo_cavitation_energy": 28.8, 
			 "cosmo_dispersion_energy": -21.6, 
			 "cosmo_repulsion_energy": 1.71, 
			 "cosmo_total_nonelectrostatic_energy": 8.9, 
			 "SMD_solvation_energy": 2.23 
		},
		"coords": [
			{
				"x": 2.1578824507,
				"y": -3.208324968,
				"z": 1.4503077591,
				"element": "Cl" 
			},
			{
				"x": 1.1800300489,
				"y": -2.2747998073,
				"z": 0.33438776,
				"element": "C" 
			},
			{
				"x": 0.5641374969,
				"y": -2.9336036492,
				"z": -0.7294054472,
				"element": "C" 
			},
			{
				"x": -0.1867675723,
				"y": -2.0926599576,
				"z": -1.5503529567,
				"element": "C" 
			},
			{
				"x": -1.018347174,
				"y": -2.7850903806,
				"z": -2.9294697988,
				"element": "Cl" 
			},
			{
				"x": -0.3171187286,
				"y": -0.7948675019,
				"z": -1.3595147315,
				"element": "N" 
			},
			{
				"x": 0.3243748221,
				"y": -0.2685781078,
				"z": -0.2979786975,
				"element": "C" 
			},
			{
				"x": 1.077169076,
				"y": -0.9806748461,
				"z": 0.5631567563,
				"element": "N" 
			},
			{
				"x": 0.1934855606,
				"y": 1.1853549273,
				"z": -0.0625609381,
				"element": "C" 
			},
			{
				"x": 0.8409132786,
				"y": 1.7867692822,
				"z": 1.0292060738,
				"element": "C" 
			},
			{
				"x": 0.715697959,
				"y": 3.1561634627,
				"z": 1.2480385663,
				"element": "C" 
			},
			{
				"x": -0.0542310015,
				"y": 3.9382513797,
				"z": 0.3830740729,
				"element": "C" 
			},
			{
				"x": -0.7003908163,
				"y": 3.3448170847,
				"z": -0.7045559434,
				"element": "C" 
			},
			{
				"x": -0.5792083495,
				"y": 1.9759667828,
				"z": -0.9289830386,
				"element": "C" 
			},
			{
				"x": 0.6597792277,
				"y": -3.9961481217,
				"z": -0.9014435897,
				"element": "H" 
			},
			{
				"x": 1.435171392,
				"y": 1.1690176483,
				"z": 1.6927137437,
				"element": "H" 
			},
			{
				"x": 1.2189916311,
				"y": 3.6147272751,
				"z": 2.0941131654,
				"element": "H" 
			},
			{
				"x": -0.1503472636,
				"y": 5.0063785186,
				"z": 0.5559776455,
				"element": "H" 
			},
			{
				"x": -1.2994151721,
				"y": 3.9502291543,
				"z": -1.3784066927,
				"element": "H" 
			},
			{
				"x": -1.0753068658,
				"y": 1.5034718246,
				"z": -1.7690037086,
				"element": "H" 
			}
		],
		 "valence_orbital": [ 
			{
				"type": "occ",
				"energy": -0.30611,
				"method": "rhf"
			},
			{
				"type": "occ",
				"energy": -0.29857,
				"method": "rhf"
			},
			{
				"type": "occ",
				"energy": -0.28079,
				"method": "rhf"
			},
			{
				"type": "occ",
				"energy": -0.25947,
				"method": "rhf"
			},
			{
				"type": "occ",
				"energy": -0.25004,
				"method": "rhf"
			},
			{
				"type": "unocc",
				"energy": -0.07269,
				"method": "rhf"
			},
			{
				"type": "unocc",
				"energy": -0.05751,
				"method": "rhf"
			},
			{
				"type": "unocc",
				"energy": -0.00686,
				"method": "rhf"
			},
			{
				"type": "unocc",
				"energy": 0.00084,
				"method": "rhf"
			},
			{
				"type": "unocc",
				"energy": 0.01344,
				"method": "rhf"
			}
		],
		"cosmo_sigma_profile": { 
			"-0.025": 0.0,
			"-0.024": 0.0,
			"-0.023": 0.0,
			"-0.022": 0.0,
			"-0.021": 0.0,
			"-0.02": 0.0,
			"-0.019": 0.0,
			"-0.018": 0.0,
			"-0.017": 0.0,
			"-0.016": 0.0,
			"-0.015": 0.0,
			"-0.014": 0.0,
			"-0.013": 0.0,
			"-0.012": 0.0,
			"-0.011": 0.0970164013018,
			"-0.01": 1.24350908708,
			"-0.009": 1.5312812955,
			"-0.008": 1.04111855813,
			"-0.007": 2.82761992062,
			"-0.006": 8.75316885553,
			"-0.005": 13.6980869777,
			"-0.004": 16.0710519265,
			"-0.003": 21.0011001791,
			"-0.002": 20.7350055819,
			"-0.001": 16.9468438642,
			"0.0": 17.7114007813,
			"0.001": 19.1025008225,
			"0.002": 26.2875597685,
			"0.003": 30.8741249514,
			"0.004": 21.724214001,
			"0.005": 7.98258482563,
			"0.006": 3.65392404522,
			"0.007": 3.04010451387,
			"0.008": 2.87394126162,
			"0.009": 0.666351190241,
			"0.01": 0.0,
			"0.011": 0.0,
			"0.012": 0.0,
			"0.013": 0.0,
			"0.014": 0.0,
			"0.015": 0.0,
			"0.016": 0.0,
			"0.017": 0.0,
			"0.018": 0.0,
			"0.019": 0.0,
			"0.02": 0.0,
			"0.021": 0.0,
			"0.022": 0.0,
			"0.023": 0.0,
			"0.024": 0.0,
			"0.025": 0.0
		}
	}
}
