{
	 "smiles": "CCCC(C)C1(CC)C(=O)NC(=S)NC1=O", 
	 "Tm": 403.15, 
	 "num_atms": 34, 
	 "gaussian": { 
		 "optdone": 1, 
		 "sigma_profile": "yes", 
		 "theory": "DFT", 
		 "functional": "B3LYP", 
		 "basiset": "6-31G**", 
		 "properties": { 
			 "R2extent": 4955.9267, 
			 "electric_dipole_moment_norm": 1.99149481546, 
			 "electric_quadrupole_moment_norm": 8.82462530196, 
			 "total_energy": -1088.20788695, 
			 "HOMO_LUMO_gap": 0.16093, 
			 "cosmo_polarized_energy": -13.74, 
			 "cosmo_cavitation_energy": 35.19, 
			 "cosmo_dispersion_energy": -25.22, 
			 "cosmo_repulsion_energy": 1.91, 
			 "cosmo_total_nonelectrostatic_energy": 11.88, 
			 "SMD_solvation_energy": 5.63 
		},
		"coords": [
			{
				"x": -2.4163227163,
				"y": 1.8051517451,
				"z": -2.4180985268,
				"element": "C" 
			},
			{
				"x": -1.5389472121,
				"y": 0.555954555,
				"z": -2.2775344176,
				"element": "C" 
			},
			{
				"x": -1.8089622859,
				"y": -0.3386994651,
				"z": -1.0512740374,
				"element": "C" 
			},
			{
				"x": -1.5219870042,
				"y": 0.0958756116,
				"z": 0.41231243,
				"element": "C" 
			},
			{
				"x": -2.3980092294,
				"y": 1.2620239777,
				"z": 0.9067275386,
				"element": "C" 
			},
			{
				"x": -0.0265391691,
				"y": 0.2920399077,
				"z": 0.8551059835,
				"element": "C" 
			},
			{
				"x": 0.9717439566,
				"y": -0.7336928483,
				"z": 0.1872836278,
				"element": "C" 
			},
			{
				"x": 0.7424006176,
				"y": -2.2141585067,
				"z": 0.510277732,
				"element": "C" 
			},
			{
				"x": 0.5341993917,
				"y": 1.6678299763,
				"z": 0.4826372819,
				"element": "C" 
			},
			{
				"x": 0.3245112421,
				"y": 2.2347303141,
				"z": -0.5720484275,
				"element": "O" 
			},
			{
				"x": 1.4206560464,
				"y": 2.2567867797,
				"z": 1.390942238,
				"element": "N" 
			},
			{
				"x": 1.6944116621,
				"y": 1.8737090833,
				"z": 2.6806564282,
				"element": "C" 
			},
			{
				"x": 2.7489572077,
				"y": 2.6936061931,
				"z": 3.6622283328,
				"element": "S" 
			},
			{
				"x": 1.0011738047,
				"y": 0.7615646248,
				"z": 3.0909872591,
				"element": "N" 
			},
			{
				"x": 0.0503345398,
				"y": 0.0349179983,
				"z": 2.3706498645,
				"element": "C" 
			},
			{
				"x": -0.6045670717,
				"y": -0.811666229,
				"z": 2.9480562628,
				"element": "O" 
			},
			{
				"x": -3.4800757638,
				"y": 1.5646402761,
				"z": -2.3021484425,
				"element": "H" 
			},
			{
				"x": -2.28664577,
				"y": 2.2524343151,
				"z": -3.4095049488,
				"element": "H" 
			},
			{
				"x": -2.1561516289,
				"y": 2.5689086213,
				"z": -1.6824383585,
				"element": "H" 
			},
			{
				"x": -0.488430023,
				"y": 0.8552694435,
				"z": -2.3092876059,
				"element": "H" 
			},
			{
				"x": -1.708077949,
				"y": -0.0814342835,
				"z": -3.1563780931,
				"element": "H" 
			},
			{
				"x": -1.2901421361,
				"y": -1.2888310328,
				"z": -1.2232044715,
				"element": "H" 
			},
			{
				"x": -2.8770703029,
				"y": -0.5996643482,
				"z": -1.0602400408,
				"element": "H" 
			},
			{
				"x": -1.8302584352,
				"y": -0.7738153983,
				"z": 1.0018334639,
				"element": "H" 
			},
			{
				"x": -2.3400743899,
				"y": 1.3580959596,
				"z": 1.9968654976,
				"element": "H" 
			},
			{
				"x": -3.4467118354,
				"y": 1.0768713561,
				"z": 0.6557083154,
				"element": "H" 
			},
			{
				"x": -2.1157213639,
				"y": 2.2188268805,
				"z": 0.4635339875,
				"element": "H" 
			},
			{
				"x": 0.9130959127,
				"y": -0.5661510869,
				"z": -0.8916746667,
				"element": "H" 
			},
			{
				"x": 1.9915973675,
				"y": -0.4602856107,
				"z": 0.4852868807,
				"element": "H" 
			},
			{
				"x": 0.8684769533,
				"y": -2.4285905078,
				"z": 1.5738666818,
				"element": "H" 
			},
			{
				"x": -0.2565272654,
				"y": -2.5514688457,
				"z": 0.2239496824,
				"element": "H" 
			},
			{
				"x": 1.4696861418,
				"y": -2.8157600238,
				"z": -0.0440974189,
				"element": "H" 
			},
			{
				"x": 1.8589376259,
				"y": 3.1152745518,
				"z": 1.0768923538,
				"element": "H" 
			},
			{
				"x": 1.1090390825,
				"y": 0.5002060163,
				"z": 4.0644276133,
				"element": "H" 
			}
		],
		 "valence_orbital": [ 
			{
				"type": "occ",
				"energy": -0.31027,
				"method": "rhf"
			},
			{
				"type": "occ",
				"energy": -0.29442,
				"method": "rhf"
			},
			{
				"type": "occ",
				"energy": -0.28675,
				"method": "rhf"
			},
			{
				"type": "occ",
				"energy": -0.25675,
				"method": "rhf"
			},
			{
				"type": "occ",
				"energy": -0.24084,
				"method": "rhf"
			},
			{
				"type": "unocc",
				"energy": -0.07991,
				"method": "rhf"
			},
			{
				"type": "unocc",
				"energy": -0.0158,
				"method": "rhf"
			},
			{
				"type": "unocc",
				"energy": 0.01654,
				"method": "rhf"
			},
			{
				"type": "unocc",
				"energy": 0.04737,
				"method": "rhf"
			},
			{
				"type": "unocc",
				"energy": 0.07069,
				"method": "rhf"
			}
		],
		"cosmo_sigma_profile": { 
			"-0.025": 0.0,
			"-0.024": 0.0,
			"-0.023": 0.0,
			"-0.022": 0.0,
			"-0.021": 0.0,
			"-0.02": 0.0,
			"-0.019": 0.0,
			"-0.018": 0.0,
			"-0.017": 0.0317405563402,
			"-0.016": 1.11179434462,
			"-0.015": 1.82618405445,
			"-0.014": 1.29327685097,
			"-0.013": 1.50952129057,
			"-0.012": 1.46625892567,
			"-0.011": 1.68992606528,
			"-0.01": 2.25701791619,
			"-0.009": 2.39461672056,
			"-0.008": 2.755131123,
			"-0.007": 4.06757685135,
			"-0.006": 5.91645548471,
			"-0.005": 8.13859233125,
			"-0.004": 16.3403482987,
			"-0.003": 25.3525361409,
			"-0.002": 32.0279501284,
			"-0.001": 28.5329614968,
			"0.0": 30.4441779701,
			"0.001": 25.877428195,
			"0.002": 16.5704751686,
			"0.003": 9.04527081439,
			"0.004": 6.05677002271,
			"0.005": 7.3400235072,
			"0.006": 8.62436623274,
			"0.007": 10.3743558672,
			"0.008": 7.94312800938,
			"0.009": 7.01304189435,
			"0.01": 4.43956262814,
			"0.011": 5.99943611255,
			"0.012": 0.908341868982,
			"0.013": 0.0,
			"0.014": 0.0,
			"0.015": 0.0,
			"0.016": 0.0,
			"0.017": 0.0,
			"0.018": 0.0,
			"0.019": 0.0,
			"0.02": 0.0,
			"0.021": 0.0,
			"0.022": 0.0,
			"0.023": 0.0,
			"0.024": 0.0,
			"0.025": 0.0
		}
	}
}
