{
	 "smiles": "NC1=CC=C(OCC2=CC(=CC=C2)C(F)(F)F)C=C1", 
	 "Tm": 341.15, 
	 "num_atms": 31, 
	 "gaussian": { 
		 "optdone": 1, 
		 "sigma_profile": "yes", 
		 "theory": "DFT", 
		 "functional": "B3LYP", 
		 "basiset": "6-31G**", 
		 "properties": { 
			 "R2extent": 6693.5144, 
			 "electric_dipole_moment_norm": 4.17492579814, 
			 "electric_quadrupole_moment_norm": 14.0155403046, 
			 "total_energy": -970.217478145, 
			 "HOMO_LUMO_gap": 0.15886, 
			 "cosmo_polarized_energy": -12.35, 
			 "cosmo_cavitation_energy": 36.77, 
			 "cosmo_dispersion_energy": -25.4, 
			 "cosmo_repulsion_energy": 1.93, 
			 "cosmo_total_nonelectrostatic_energy": 13.3, 
			 "SMD_solvation_energy": 7.34 
		},
		"coords": [
			{
				"x": 3.2874452681,
				"y": -1.7475906838,
				"z": 3.2106245457,
				"element": "N" 
			},
			{
				"x": 2.0218263132,
				"y": -1.5004790734,
				"z": 2.6564226849,
				"element": "C" 
			},
			{
				"x": 1.7244155926,
				"y": -0.2755546005,
				"z": 2.0457018629,
				"element": "C" 
			},
			{
				"x": 0.4879624912,
				"y": -0.0482225505,
				"z": 1.4356661181,
				"element": "C" 
			},
			{
				"x": -0.4840486867,
				"y": -1.0512148502,
				"z": 1.4345333375,
				"element": "C" 
			},
			{
				"x": -1.7415154994,
				"y": -0.9400498918,
				"z": 0.8751039751,
				"element": "O" 
			},
			{
				"x": -2.1833446197,
				"y": 0.333833366,
				"z": 0.4370419055,
				"element": "C" 
			},
			{
				"x": -1.6701502338,
				"y": 0.7355060327,
				"z": -0.9353655552,
				"element": "C" 
			},
			{
				"x": -1.305587178,
				"y": -0.2354101756,
				"z": -1.8717221207,
				"element": "C" 
			},
			{
				"x": -0.8924528538,
				"y": 0.1436142661,
				"z": -3.1502054618,
				"element": "C" 
			},
			{
				"x": -0.844682967,
				"y": 1.492946498,
				"z": -3.5111176964,
				"element": "C" 
			},
			{
				"x": -1.2089950695,
				"y": 2.4630000808,
				"z": -2.5790623953,
				"element": "C" 
			},
			{
				"x": -1.6146937598,
				"y": 2.08619304,
				"z": -1.298082812,
				"element": "C" 
			},
			{
				"x": -0.4427530732,
				"y": -0.90557484,
				"z": -4.1319830034,
				"element": "C" 
			},
			{
				"x": -0.6966138135,
				"y": -0.5386741048,
				"z": -5.4092135488,
				"element": "F" 
			},
			{
				"x": 0.889310998,
				"y": -1.1291164178,
				"z": -4.0480374473,
				"element": "F" 
			},
			{
				"x": -1.0543413459,
				"y": -2.0914368453,
				"z": -3.9215684121,
				"element": "F" 
			},
			{
				"x": -0.1979816489,
				"y": -2.2804255823,
				"z": 2.0396367631,
				"element": "C" 
			},
			{
				"x": 1.0354531674,
				"y": -2.5027982351,
				"z": 2.6388190179,
				"element": "C" 
			},
			{
				"x": 3.2928892694,
				"y": -2.4532103548,
				"z": 3.9353622961,
				"element": "H" 
			},
			{
				"x": 3.7779935872,
				"y": -0.916619537,
				"z": 3.5138356405,
				"element": "H" 
			},
			{
				"x": 2.4734453631,
				"y": 0.5125304984,
				"z": 2.0322928028,
				"element": "H" 
			},
			{
				"x": 0.3089792151,
				"y": 0.9057840792,
				"z": 0.9540028339,
				"element": "H" 
			},
			{
				"x": -1.9377949172,
				"y": 1.1078963237,
				"z": 1.1773643093,
				"element": "H" 
			},
			{
				"x": -3.2760314354,
				"y": 0.2498561151,
				"z": 0.4050491767,
				"element": "H" 
			},
			{
				"x": -1.3453952106,
				"y": -1.2832815516,
				"z": -1.5971815092,
				"element": "H" 
			},
			{
				"x": -0.5308537079,
				"y": 1.7757064445,
				"z": -4.5099892756,
				"element": "H" 
			},
			{
				"x": -1.1733525258,
				"y": 3.5140067114,
				"z": -2.8496038684,
				"element": "H" 
			},
			{
				"x": -1.8920231096,
				"y": 2.8497057864,
				"z": -0.5746023156,
				"element": "H" 
			},
			{
				"x": -0.9608676435,
				"y": -3.0523956719,
				"z": 2.0355800032,
				"element": "H" 
			},
			{
				"x": 1.2408580337,
				"y": -3.4658242757,
				"z": 3.0999981486,
				"element": "H" 
			}
		],
		 "valence_orbital": [ 
			{
				"type": "occ",
				"energy": -0.27682,
				"method": "rhf"
			},
			{
				"type": "occ",
				"energy": -0.26694,
				"method": "rhf"
			},
			{
				"type": "occ",
				"energy": -0.25932,
				"method": "rhf"
			},
			{
				"type": "occ",
				"energy": -0.24531,
				"method": "rhf"
			},
			{
				"type": "occ",
				"energy": -0.18673,
				"method": "rhf"
			},
			{
				"type": "unocc",
				"energy": -0.02787,
				"method": "rhf"
			},
			{
				"type": "unocc",
				"energy": -0.01637,
				"method": "rhf"
			},
			{
				"type": "unocc",
				"energy": 0.00272,
				"method": "rhf"
			},
			{
				"type": "unocc",
				"energy": 0.02991,
				"method": "rhf"
			},
			{
				"type": "unocc",
				"energy": 0.08203,
				"method": "rhf"
			}
		],
		"cosmo_sigma_profile": { 
			"-0.025": 0.0,
			"-0.024": 0.0,
			"-0.023": 0.0,
			"-0.022": 0.0,
			"-0.021": 0.0,
			"-0.02": 0.0,
			"-0.019": 0.0,
			"-0.018": 0.0,
			"-0.017": 0.0,
			"-0.016": 0.0,
			"-0.015": 0.0,
			"-0.014": 0.0,
			"-0.013": 0.0,
			"-0.012": 1.47243640543,
			"-0.011": 2.59656119939,
			"-0.01": 3.01652051586,
			"-0.009": 3.19644241402,
			"-0.008": 3.37606264727,
			"-0.007": 8.23899418242,
			"-0.006": 16.7949056894,
			"-0.005": 19.4931361905,
			"-0.004": 19.4904779257,
			"-0.003": 18.2918193529,
			"-0.002": 13.2028631179,
			"-0.001": 15.5945251771,
			"0.0": 15.8413681508,
			"0.001": 21.9061929417,
			"0.002": 27.2943683621,
			"0.003": 48.2362317178,
			"0.004": 17.8752271486,
			"0.005": 10.1791119064,
			"0.006": 11.5889819176,
			"0.007": 5.95651477633,
			"0.008": 1.28232002788,
			"0.009": 2.39962130607,
			"0.01": 2.07463806882,
			"0.011": 1.24054538606,
			"0.012": 0.719757158708,
			"0.013": 0.349952519103,
			"0.014": 0.724940086345,
			"0.015": 0.723876952165,
			"0.016": 0.192939394593,
			"0.017": 0.0,
			"0.018": 0.0,
			"0.019": 0.0,
			"0.02": 0.0,
			"0.021": 0.0,
			"0.022": 0.0,
			"0.023": 0.0,
			"0.024": 0.0,
			"0.025": 0.0
		}
	}
}
