{
	 "smiles": "ClC1=NC(Cl)=C(S1)S(Cl)(=O)=O", 
	 "Tm": 331.15, 
	 "num_atms": 11, 
	 "gaussian": { 
		 "optdone": 1, 
		 "sigma_profile": "yes", 
		 "theory": "DFT", 
		 "functional": "B3LYP", 
		 "basiset": "6-31G**", 
		 "properties": { 
			 "R2extent": 3672.1585, 
			 "electric_dipole_moment_norm": 3.114156165, 
			 "electric_quadrupole_moment_norm": 8.31686958116, 
			 "total_energy": -2496.35616186, 
			 "HOMO_LUMO_gap": 0.17307, 
			 "cosmo_polarized_energy": -7.22, 
			 "cosmo_cavitation_energy": 25.2, 
			 "cosmo_dispersion_energy": -19.74, 
			 "cosmo_repulsion_energy": 1.51, 
			 "cosmo_total_nonelectrostatic_energy": 6.97, 
			 "SMD_solvation_energy": 0.65 
		},
		"coords": [
			{
				"x": 3.6778080326,
				"y": 2.7484153999,
				"z": -0.159163442,
				"element": "Cl" 
			},
			{
				"x": 2.4562391042,
				"y": 1.5439930996,
				"z": -0.2744924034,
				"element": "C" 
			},
			{
				"x": 2.6915912809,
				"y": 0.2789825583,
				"z": -0.0919526842,
				"element": "N" 
			},
			{
				"x": 1.5391924913,
				"y": -0.4340697356,
				"z": -0.2372076218,
				"element": "C" 
			},
			{
				"x": 1.6031270842,
				"y": -2.1428299406,
				"z": -0.0725332567,
				"element": "Cl" 
			},
			{
				"x": 0.4096471207,
				"y": 0.301990016,
				"z": -0.5225979098,
				"element": "C" 
			},
			{
				"x": 0.8132339414,
				"y": 1.998234023,
				"z": -0.634722499,
				"element": "S" 
			},
			{
				"x": -1.2584712888,
				"y": -0.2155301181,
				"z": -0.7760701691,
				"element": "S" 
			},
			{
				"x": -1.1751380466,
				"y": -1.0025534529,
				"z": -2.7385791305,
				"element": "Cl" 
			},
			{
				"x": -1.5801948691,
				"y": -1.3268599782,
				"z": 0.1019028197,
				"element": "O" 
			},
			{
				"x": -2.0599348508,
				"y": 0.9993281287,
				"z": -0.8462837032,
				"element": "O" 
			}
		],
		 "valence_orbital": [ 
			{
				"type": "occ",
				"energy": -0.34747,
				"method": "rhf"
			},
			{
				"type": "occ",
				"energy": -0.33517,
				"method": "rhf"
			},
			{
				"type": "occ",
				"energy": -0.33261,
				"method": "rhf"
			},
			{
				"type": "occ",
				"energy": -0.32979,
				"method": "rhf"
			},
			{
				"type": "occ",
				"energy": -0.28789,
				"method": "rhf"
			},
			{
				"type": "unocc",
				"energy": -0.11482,
				"method": "rhf"
			},
			{
				"type": "unocc",
				"energy": -0.08084,
				"method": "rhf"
			},
			{
				"type": "unocc",
				"energy": -0.05472,
				"method": "rhf"
			},
			{
				"type": "unocc",
				"energy": -0.02359,
				"method": "rhf"
			},
			{
				"type": "unocc",
				"energy": -0.01696,
				"method": "rhf"
			}
		],
		"cosmo_sigma_profile": { 
			"-0.025": 0.0,
			"-0.024": 0.0,
			"-0.023": 0.0,
			"-0.022": 0.0,
			"-0.021": 0.0,
			"-0.02": 0.0,
			"-0.019": 0.0,
			"-0.018": 0.0,
			"-0.017": 0.0,
			"-0.016": 0.0,
			"-0.015": 0.0,
			"-0.014": 0.0,
			"-0.013": 0.0,
			"-0.012": 0.0,
			"-0.011": 0.0,
			"-0.01": 0.0,
			"-0.009": 0.104340595898,
			"-0.008": 1.06389537882,
			"-0.007": 4.38178908607,
			"-0.006": 10.8563968235,
			"-0.005": 13.6275464194,
			"-0.004": 14.6288578071,
			"-0.003": 17.6185696174,
			"-0.002": 17.5595717353,
			"-0.001": 18.0615191066,
			"0.0": 19.7707087895,
			"0.001": 25.3562398923,
			"0.002": 23.597854661,
			"0.003": 11.9412198044,
			"0.004": 4.78971123149,
			"0.005": 4.92081803373,
			"0.006": 6.75340491296,
			"0.007": 10.8721993626,
			"0.008": 6.012347942,
			"0.009": 0.836733479537,
			"0.01": 0.969360199654,
			"0.011": 0.12097037555,
			"0.012": 0.0,
			"0.013": 0.0,
			"0.014": 0.0,
			"0.015": 0.0,
			"0.016": 0.0,
			"0.017": 0.0,
			"0.018": 0.0,
			"0.019": 0.0,
			"0.02": 0.0,
			"0.021": 0.0,
			"0.022": 0.0,
			"0.023": 0.0,
			"0.024": 0.0,
			"0.025": 0.0
		}
	}
}
