{
	 "smiles": "OC(=O)CNC(=O)CC(F)(F)F", 
	 "Tm": 396.15, 
	 "num_atms": 18, 
	 "gaussian": { 
		 "optdone": 1, 
		 "sigma_profile": "yes", 
		 "theory": "DFT", 
		 "functional": "B3LYP", 
		 "basiset": "6-31G**", 
		 "properties": { 
			 "R2extent": 3244.9387, 
			 "electric_dipole_moment_norm": 2.41374824081, 
			 "electric_quadrupole_moment_norm": 14.9541147073, 
			 "total_energy": -774.130790297, 
			 "HOMO_LUMO_gap": 0.25044, 
			 "cosmo_polarized_energy": -14.22, 
			 "cosmo_cavitation_energy": 24.61, 
			 "cosmo_dispersion_energy": -17.18, 
			 "cosmo_repulsion_energy": 1.36, 
			 "cosmo_total_nonelectrostatic_energy": 8.79, 
			 "SMD_solvation_energy": 6.55 
		},
		"coords": [
			{
				"x": 0.750814939,
				"y": 1.8524718603,
				"z": 4.3862234165,
				"element": "O" 
			},
			{
				"x": 0.893468724,
				"y": 1.6727148374,
				"z": 3.0600391917,
				"element": "C" 
			},
			{
				"x": 0.5641039932,
				"y": 2.4923521834,
				"z": 2.2299656121,
				"element": "O" 
			},
			{
				"x": 1.5109889324,
				"y": 0.3274369034,
				"z": 2.7477941357,
				"element": "C" 
			},
			{
				"x": 1.6515773534,
				"y": 0.1931916889,
				"z": 1.3170065329,
				"element": "N" 
			},
			{
				"x": 2.1538163486,
				"y": -0.9482959636,
				"z": 0.778483263,
				"element": "C" 
			},
			{
				"x": 2.5420664572,
				"y": -1.8870849387,
				"z": 1.4614431888,
				"element": "O" 
			},
			{
				"x": 2.2740122568,
				"y": -0.9850038935,
				"z": -0.7510175126,
				"element": "C" 
			},
			{
				"x": 1.0545000288,
				"y": -0.5341389764,
				"z": -1.5247176553,
				"element": "C" 
			},
			{
				"x": -0.0539628614,
				"y": -1.2046351997,
				"z": -1.1563227285,
				"element": "F" 
			},
			{
				"x": 0.800617281,
				"y": 0.7915213123,
				"z": -1.3423625664,
				"element": "F" 
			},
			{
				"x": 1.2283020437,
				"y": -0.7193443433,
				"z": -2.8481576607,
				"element": "F" 
			},
			{
				"x": 0.3488121905,
				"y": 2.7290853717,
				"z": 4.5087031254,
				"element": "H" 
			},
			{
				"x": 2.4792643321,
				"y": 0.2470277593,
				"z": 3.2573387273,
				"element": "H" 
			},
			{
				"x": 0.8818437208,
				"y": -0.466127949,
				"z": 3.1708738752,
				"element": "H" 
			},
			{
				"x": 1.2908074006,
				"y": 0.9477419369,
				"z": 0.7462963878,
				"element": "H" 
			},
			{
				"x": 3.116871178,
				"y": -0.3633082712,
				"z": -1.0702167227,
				"element": "H" 
			},
			{
				"x": 2.4903956812,
				"y": -2.0181043183,
				"z": -1.0251726101,
				"element": "H" 
			}
		],
		 "valence_orbital": [ 
			{
				"type": "occ",
				"energy": -0.36829,
				"method": "rhf"
			},
			{
				"type": "occ",
				"energy": -0.34278,
				"method": "rhf"
			},
			{
				"type": "occ",
				"energy": -0.3052,
				"method": "rhf"
			},
			{
				"type": "occ",
				"energy": -0.26831,
				"method": "rhf"
			},
			{
				"type": "occ",
				"energy": -0.26272,
				"method": "rhf"
			},
			{
				"type": "unocc",
				"energy": -0.01228,
				"method": "rhf"
			},
			{
				"type": "unocc",
				"energy": 0.01195,
				"method": "rhf"
			},
			{
				"type": "unocc",
				"energy": 0.05979,
				"method": "rhf"
			},
			{
				"type": "unocc",
				"energy": 0.09725,
				"method": "rhf"
			},
			{
				"type": "unocc",
				"energy": 0.10463,
				"method": "rhf"
			}
		],
		"cosmo_sigma_profile": { 
			"-0.025": 0.0,
			"-0.024": 0.0,
			"-0.023": 0.0,
			"-0.022": 0.0,
			"-0.021": 0.0,
			"-0.02": 0.0,
			"-0.019": 0.62637579952,
			"-0.018": 1.21347643913,
			"-0.017": 0.643624243255,
			"-0.016": 1.23065386452,
			"-0.015": 0.54012335407,
			"-0.014": 0.337979242504,
			"-0.013": 0.347486870667,
			"-0.012": 1.30508188809,
			"-0.011": 0.864537207821,
			"-0.01": 0.780720219964,
			"-0.009": 4.04902243131,
			"-0.008": 9.46537066083,
			"-0.007": 9.40079648566,
			"-0.006": 9.0379299105,
			"-0.005": 9.0576731095,
			"-0.004": 10.0413657833,
			"-0.003": 8.09546838111,
			"-0.002": 9.38735367094,
			"-0.001": 11.1760144503,
			"0.0": 12.1649884417,
			"0.001": 11.5172832398,
			"0.002": 24.6579924855,
			"0.003": 18.616463733,
			"0.004": 3.1463742355,
			"0.005": 3.02866489774,
			"0.006": 3.83068406488,
			"0.007": 3.60717446068,
			"0.008": 4.79431261716,
			"0.009": 4.46019650926,
			"0.01": 3.99429564948,
			"0.011": 3.83515907296,
			"0.012": 3.17561384981,
			"0.013": 5.34569764793,
			"0.014": 1.52669673266,
			"0.015": 0.0,
			"0.016": 0.0,
			"0.017": 0.0,
			"0.018": 0.0,
			"0.019": 0.0,
			"0.02": 0.0,
			"0.021": 0.0,
			"0.022": 0.0,
			"0.023": 0.0,
			"0.024": 0.0,
			"0.025": 0.0
		}
	}
}
