{
	 "smiles": "ClC1=C(Cl)C=C(N1)C(=O)C(Cl)(Cl)Cl", 
	 "Tm": 403.15, 
	 "num_atms": 15, 
	 "gaussian": { 
		 "optdone": 1, 
		 "sigma_profile": "yes", 
		 "theory": "DFT", 
		 "functional": "B3LYP", 
		 "basiset": "6-31G**", 
		 "properties": { 
			 "R2extent": 6449.8221, 
			 "electric_dipole_moment_norm": 1.42258690068, 
			 "electric_quadrupole_moment_norm": 7.59781793938, 
			 "total_energy": -2660.7400663, 
			 "HOMO_LUMO_gap": 0.15706, 
			 "cosmo_polarized_energy": -7.58, 
			 "cosmo_cavitation_energy": 29.23, 
			 "cosmo_dispersion_energy": -21.63, 
			 "cosmo_repulsion_energy": 1.74, 
			 "cosmo_total_nonelectrostatic_energy": 9.34, 
			 "SMD_solvation_energy": 3.94 
		},
		"coords": [
			{
				"x": -3.9326219267,
				"y": 0.3897365524,
				"z": 1.6785526838,
				"element": "Cl" 
			},
			{
				"x": -2.3405878547,
				"y": -0.2306509622,
				"z": 1.5612595904,
				"element": "C" 
			},
			{
				"x": -1.9002846829,
				"y": -1.4848994232,
				"z": 1.1389660066,
				"element": "C" 
			},
			{
				"x": -2.911656185,
				"y": -2.7783204279,
				"z": 0.6056398477,
				"element": "Cl" 
			},
			{
				"x": -0.4966210031,
				"y": -1.4946712017,
				"z": 1.229061182,
				"element": "C" 
			},
			{
				"x": -0.1064441996,
				"y": -0.2431367407,
				"z": 1.7057334806,
				"element": "C" 
			},
			{
				"x": -1.2547557392,
				"y": 0.5043083324,
				"z": 1.8983012175,
				"element": "N" 
			},
			{
				"x": 1.1473217572,
				"y": 0.4193900436,
				"z": 2.0278057043,
				"element": "C" 
			},
			{
				"x": 1.1670625749,
				"y": 1.5654039901,
				"z": 2.4415978269,
				"element": "O" 
			},
			{
				"x": 2.4978101663,
				"y": -0.3601677114,
				"z": 1.8378991351,
				"element": "C" 
			},
			{
				"x": 3.8707659883,
				"y": 0.6710223989,
				"z": 2.2981036968,
				"element": "Cl" 
			},
			{
				"x": 2.4802128069,
				"y": -1.8338497984,
				"z": 2.8807305193,
				"element": "Cl" 
			},
			{
				"x": 2.6643550048,
				"y": -0.8400689444,
				"z": 0.1054055033,
				"element": "Cl" 
			},
			{
				"x": 0.1499553968,
				"y": -2.3194834713,
				"z": 0.9751629385,
				"element": "H" 
			},
			{
				"x": -1.2381121043,
				"y": 1.4553873638,
				"z": 2.2418806673,
				"element": "H" 
			}
		],
		 "valence_orbital": [ 
			{
				"type": "occ",
				"energy": -0.32843,
				"method": "rhf"
			},
			{
				"type": "occ",
				"energy": -0.31743,
				"method": "rhf"
			},
			{
				"type": "occ",
				"energy": -0.29548,
				"method": "rhf"
			},
			{
				"type": "occ",
				"energy": -0.28016,
				"method": "rhf"
			},
			{
				"type": "occ",
				"energy": -0.24741,
				"method": "rhf"
			},
			{
				"type": "unocc",
				"energy": -0.09035,
				"method": "rhf"
			},
			{
				"type": "unocc",
				"energy": -0.05156,
				"method": "rhf"
			},
			{
				"type": "unocc",
				"energy": -0.01267,
				"method": "rhf"
			},
			{
				"type": "unocc",
				"energy": -0.00816,
				"method": "rhf"
			},
			{
				"type": "unocc",
				"energy": -0.00061,
				"method": "rhf"
			}
		],
		"cosmo_sigma_profile": { 
			"-0.025": 0.0,
			"-0.024": 0.0,
			"-0.023": 0.0,
			"-0.022": 0.0,
			"-0.021": 0.0,
			"-0.02": 0.0,
			"-0.019": 0.0,
			"-0.018": 0.00551371872108,
			"-0.017": 0.676579877654,
			"-0.016": 0.686710140343,
			"-0.015": 0.757736840061,
			"-0.014": 1.05390702023,
			"-0.013": 1.11513027365,
			"-0.012": 0.541035955363,
			"-0.011": 1.07828442437,
			"-0.01": 0.725000121649,
			"-0.009": 1.0197482643,
			"-0.008": 2.47516491694,
			"-0.007": 2.57781190007,
			"-0.006": 2.66844813002,
			"-0.005": 6.57931751976,
			"-0.004": 12.4757191937,
			"-0.003": 15.9195091287,
			"-0.002": 19.1849511952,
			"-0.001": 24.9975408436,
			"0.0": 26.9683134351,
			"0.001": 33.3131411159,
			"0.002": 42.9591576384,
			"0.003": 25.5797842665,
			"0.004": 8.95800274422,
			"0.005": 1.91238933675,
			"0.006": 1.42641443749,
			"0.007": 2.51357622942,
			"0.008": 1.90147769099,
			"0.009": 3.30048303166,
			"0.01": 2.54464715756,
			"0.011": 0.612610783621,
			"0.012": 0.0,
			"0.013": 0.0,
			"0.014": 0.0,
			"0.015": 0.0,
			"0.016": 0.0,
			"0.017": 0.0,
			"0.018": 0.0,
			"0.019": 0.0,
			"0.02": 0.0,
			"0.021": 0.0,
			"0.022": 0.0,
			"0.023": 0.0,
			"0.024": 0.0,
			"0.025": 0.0
		}
	}
}
