{
	 "smiles": "FC(F)OC1=C(CBr)C=CC(=C1)C#N", 
	 "Tm": 354.15, 
	 "num_atms": 20, 
	 "gaussian": { 
		 "optdone": 1, 
		 "sigma_profile": "yes", 
		 "theory": "DFT", 
		 "functional": "B3LYP", 
		 "basiset": "6-31G**", 
		 "properties": { 
			 "R2extent": 4973.969, 
			 "electric_dipole_moment_norm": 2.97698750081, 
			 "electric_quadrupole_moment_norm": 17.9586270636, 
			 "total_energy": -3247.61227464, 
			 "HOMO_LUMO_gap": 0.18701, 
			 "cosmo_polarized_energy": -12.59, 
			 "cosmo_cavitation_energy": 29.32, 
			 "cosmo_dispersion_energy": -20.09, 
			 "cosmo_repulsion_energy": 1.56, 
			 "cosmo_total_nonelectrostatic_energy": 10.79, 
			 "SMD_solvation_energy": 6.45 
		},
		"coords": [
			{
				"x": -2.5918507339,
				"y": -1.6303440492,
				"z": 0.282330243,
				"element": "F" 
			},
			{
				"x": -1.401169053,
				"y": -2.2486040588,
				"z": 0.0388149287,
				"element": "C" 
			},
			{
				"x": -1.3109787558,
				"y": -3.299058838,
				"z": 0.8650463251,
				"element": "F" 
			},
			{
				"x": -0.3493133334,
				"y": -1.4109906294,
				"z": 0.3524080523,
				"element": "O" 
			},
			{
				"x": 0.0084745574,
				"y": -0.4308294821,
				"z": -0.5510922484,
				"element": "C" 
			},
			{
				"x": 1.3795882233,
				"y": -0.1155617117,
				"z": -0.6050868358,
				"element": "C" 
			},
			{
				"x": 2.3621003875,
				"y": -0.8503373448,
				"z": 0.2445479451,
				"element": "C" 
			},
			{
				"x": 2.9252109816,
				"y": -2.5669805936,
				"z": -0.6171070699,
				"element": "Br" 
			},
			{
				"x": 1.792232648,
				"y": 0.8934102303,
				"z": -1.4819738464,
				"element": "C" 
			},
			{
				"x": 0.8843721352,
				"y": 1.5710086662,
				"z": -2.2897465091,
				"element": "C" 
			},
			{
				"x": -0.477107445,
				"y": 1.2424152867,
				"z": -2.2181492013,
				"element": "C" 
			},
			{
				"x": -0.9226585776,
				"y": 0.2436154722,
				"z": -1.3358179023,
				"element": "C" 
			},
			{
				"x": -1.4284109605,
				"y": 1.9367539134,
				"z": -3.0367683798,
				"element": "C" 
			},
			{
				"x": -2.1969646988,
				"y": 2.5001093792,
				"z": -3.7035544721,
				"element": "N" 
			},
			{
				"x": -1.3825215092,
				"y": -2.5731272753,
				"z": -1.0077470269,
				"element": "H" 
			},
			{
				"x": 1.948994509,
				"y": -1.1530302831,
				"z": 1.2029291529,
				"element": "H" 
			},
			{
				"x": 3.285071179,
				"y": -0.290965543,
				"z": 0.3804121722,
				"element": "H" 
			},
			{
				"x": 2.8481602512,
				"y": 1.1410352633,
				"z": -1.5373585795,
				"element": "H" 
			},
			{
				"x": 1.2179895464,
				"y": 2.3478520543,
				"z": -2.9681979066,
				"element": "H" 
			},
			{
				"x": -1.9787193513,
				"y": 0.0219295435,
				"z": -1.2526888411,
				"element": "H" 
			}
		],
		 "valence_orbital": [ 
			{
				"type": "occ",
				"energy": -0.34272,
				"method": "rhf"
			},
			{
				"type": "occ",
				"energy": -0.29174,
				"method": "rhf"
			},
			{
				"type": "occ",
				"energy": -0.28495,
				"method": "rhf"
			},
			{
				"type": "occ",
				"energy": -0.28276,
				"method": "rhf"
			},
			{
				"type": "occ",
				"energy": -0.26754,
				"method": "rhf"
			},
			{
				"type": "unocc",
				"energy": -0.08053,
				"method": "rhf"
			},
			{
				"type": "unocc",
				"energy": -0.03781,
				"method": "rhf"
			},
			{
				"type": "unocc",
				"energy": -0.00843,
				"method": "rhf"
			},
			{
				"type": "unocc",
				"energy": 0.02454,
				"method": "rhf"
			},
			{
				"type": "unocc",
				"energy": 0.066,
				"method": "rhf"
			}
		],
		"cosmo_sigma_profile": { 
			"-0.025": 0.0,
			"-0.024": 0.0,
			"-0.023": 0.0,
			"-0.022": 0.0,
			"-0.021": 0.0,
			"-0.02": 0.0,
			"-0.019": 0.0,
			"-0.018": 0.0,
			"-0.017": 0.0,
			"-0.016": 0.0,
			"-0.015": 0.0,
			"-0.014": 0.0,
			"-0.013": 0.0,
			"-0.012": 0.0,
			"-0.011": 1.88800207041,
			"-0.01": 2.90565854339,
			"-0.009": 5.69689838827,
			"-0.008": 11.4536611862,
			"-0.007": 11.2578459013,
			"-0.006": 9.63222855272,
			"-0.005": 10.3062110938,
			"-0.004": 10.1925233366,
			"-0.003": 9.83490108638,
			"-0.002": 13.6998037558,
			"-0.001": 16.4537178908,
			"0.0": 20.5453889943,
			"0.001": 15.3592406947,
			"0.002": 16.0718897616,
			"0.003": 27.8877054189,
			"0.004": 15.6921534859,
			"0.005": 12.2417891476,
			"0.006": 10.1810503179,
			"0.007": 3.15052227747,
			"0.008": 3.4416751644,
			"0.009": 3.38763887474,
			"0.01": 3.00939937559,
			"0.011": 2.51565056629,
			"0.012": 2.2269053685,
			"0.013": 0.848660341324,
			"0.014": 0.0,
			"0.015": 0.0,
			"0.016": 0.0,
			"0.017": 0.0,
			"0.018": 0.0,
			"0.019": 0.0,
			"0.02": 0.0,
			"0.021": 0.0,
			"0.022": 0.0,
			"0.023": 0.0,
			"0.024": 0.0,
			"0.025": 0.0
		}
	}
}
