{
	 "smiles": "CC1=CC2=NNN=C2C=C1", 
	 "Tm": 354.15, 
	 "num_atms": 17, 
	 "gaussian": { 
		 "optdone": 1, 
		 "sigma_profile": "yes", 
		 "theory": "DFT", 
		 "functional": "B3LYP", 
		 "basiset": "6-31G**", 
		 "properties": { 
			 "R2extent": 1370.7915, 
			 "electric_dipole_moment_norm": 0.584261114571, 
			 "electric_quadrupole_moment_norm": 9.33637295474, 
			 "total_energy": -435.188004479, 
			 "HOMO_LUMO_gap": 0.1799, 
			 "cosmo_polarized_energy": -9.22, 
			 "cosmo_cavitation_energy": 20.95, 
			 "cosmo_dispersion_energy": -16.02, 
			 "cosmo_repulsion_energy": 1.29, 
			 "cosmo_total_nonelectrostatic_energy": 6.23, 
			 "SMD_solvation_energy": 1.39 
		},
		"coords": [
			{
				"x": -2.5355987483,
				"y": -1.9638549108,
				"z": 0.0897759626,
				"element": "C" 
			},
			{
				"x": -1.2644106375,
				"y": -1.15759693,
				"z": -0.0318917079,
				"element": "C" 
			},
			{
				"x": -1.2391581036,
				"y": 0.1872663846,
				"z": 0.274134656,
				"element": "C" 
			},
			{
				"x": -0.0108803031,
				"y": 0.877394195,
				"z": 0.135849157,
				"element": "C" 
			},
			{
				"x": 0.2948403266,
				"y": 2.1754310315,
				"z": 0.3628383566,
				"element": "N" 
			},
			{
				"x": 1.5866719776,
				"y": 2.2112541573,
				"z": 0.0571843323,
				"element": "N" 
			},
			{
				"x": 2.1839417826,
				"y": 1.0975693856,
				"z": -0.3464510489,
				"element": "N" 
			},
			{
				"x": 1.1679059624,
				"y": 0.2058446935,
				"z": -0.306474028,
				"element": "C" 
			},
			{
				"x": 1.1362739541,
				"y": -1.1744632515,
				"z": -0.6191136262,
				"element": "C" 
			},
			{
				"x": -0.068765993,
				"y": -1.8200273219,
				"z": -0.4761514708,
				"element": "C" 
			},
			{
				"x": -3.3690800018,
				"y": -1.3471950846,
				"z": 0.4358901808,
				"element": "H" 
			},
			{
				"x": -2.4138051179,
				"y": -2.7929972601,
				"z": 0.7968718972,
				"element": "H" 
			},
			{
				"x": -2.8199640067,
				"y": -2.4046139559,
				"z": -0.8731167913,
				"element": "H" 
			},
			{
				"x": -2.1290997321,
				"y": 0.709079597,
				"z": 0.6114817164,
				"element": "H" 
			},
			{
				"x": 2.1070699532,
				"y": 3.0744593272,
				"z": 0.1310745341,
				"element": "H" 
			},
			{
				"x": 2.0285305702,
				"y": -1.6913730402,
				"z": -0.9559057768,
				"element": "H" 
			},
			{
				"x": -0.1321718829,
				"y": -2.8805770165,
				"z": -0.706896343,
				"element": "H" 
			}
		],
		 "valence_orbital": [ 
			{
				"type": "occ",
				"energy": -0.31127,
				"method": "rhf"
			},
			{
				"type": "occ",
				"energy": -0.3093,
				"method": "rhf"
			},
			{
				"type": "occ",
				"energy": -0.29888,
				"method": "rhf"
			},
			{
				"type": "occ",
				"energy": -0.24977,
				"method": "rhf"
			},
			{
				"type": "occ",
				"energy": -0.22632,
				"method": "rhf"
			},
			{
				"type": "unocc",
				"energy": -0.04642,
				"method": "rhf"
			},
			{
				"type": "unocc",
				"energy": 0.02007,
				"method": "rhf"
			},
			{
				"type": "unocc",
				"energy": 0.03343,
				"method": "rhf"
			},
			{
				"type": "unocc",
				"energy": 0.07745,
				"method": "rhf"
			},
			{
				"type": "unocc",
				"energy": 0.10247,
				"method": "rhf"
			}
		],
		"cosmo_sigma_profile": { 
			"-0.025": 0.0,
			"-0.024": 0.0,
			"-0.023": 0.0,
			"-0.022": 0.0,
			"-0.021": 0.0,
			"-0.02": 0.0,
			"-0.019": 0.210081106423,
			"-0.018": 1.53807367243,
			"-0.017": 1.53060133111,
			"-0.016": 0.899090489889,
			"-0.015": 0.661259583384,
			"-0.014": 0.888801071914,
			"-0.013": 1.22498790472,
			"-0.012": 0.937661616817,
			"-0.011": 0.400302107643,
			"-0.01": 0.655018964607,
			"-0.009": 0.668023508511,
			"-0.008": 0.849352647633,
			"-0.007": 2.20674392779,
			"-0.006": 5.34419435565,
			"-0.005": 7.40289308466,
			"-0.004": 13.4033372685,
			"-0.003": 12.5473746763,
			"-0.002": 12.1740830232,
			"-0.001": 12.0164495842,
			"0.0": 15.3357274765,
			"0.001": 11.3233956281,
			"0.002": 12.1100374957,
			"0.003": 15.5397574067,
			"0.004": 12.2207535311,
			"0.005": 4.98536599378,
			"0.006": 3.05473346488,
			"0.007": 3.02999531006,
			"0.008": 2.16184970593,
			"0.009": 1.4573023684,
			"0.01": 3.07390647877,
			"0.011": 1.52184194477,
			"0.012": 2.18138003627,
			"0.013": 2.36051438513,
			"0.014": 1.54315586076,
			"0.015": 0.176986094671,
			"0.016": 0.0,
			"0.017": 0.0,
			"0.018": 0.0,
			"0.019": 0.0,
			"0.02": 0.0,
			"0.021": 0.0,
			"0.022": 0.0,
			"0.023": 0.0,
			"0.024": 0.0,
			"0.025": 0.0
		}
	}
}
