{
	 "smiles": "ONC(=O)C1=C(Cl)C=CC=C1F", 
	 "Tm": 423.15, 
	 "num_atms": 17, 
	 "gaussian": { 
		 "optdone": 1, 
		 "sigma_profile": "yes", 
		 "theory": "DFT", 
		 "functional": "B3LYP", 
		 "basiset": "6-31G**", 
		 "properties": { 
			 "R2extent": 2600.7436, 
			 "electric_dipole_moment_norm": 3.42144664287, 
			 "electric_quadrupole_moment_norm": 15.8934271314, 
			 "total_energy": -1034.92230449, 
			 "HOMO_LUMO_gap": 0.21275, 
			 "cosmo_polarized_energy": -13.05, 
			 "cosmo_cavitation_energy": 24.04, 
			 "cosmo_dispersion_energy": -17.49, 
			 "cosmo_repulsion_energy": 1.39, 
			 "cosmo_total_nonelectrostatic_energy": 7.94, 
			 "SMD_solvation_energy": 6.05 
		},
		"coords": [
			{
				"x": 2.4849683847,
				"y": -1.2084003357,
				"z": 0.316897219,
				"element": "O" 
			},
			{
				"x": 3.0998968878,
				"y": -0.2093056089,
				"z": -0.4479150867,
				"element": "N" 
			},
			{
				"x": 2.3317140505,
				"y": 0.6116694955,
				"z": -1.2412355955,
				"element": "C" 
			},
			{
				"x": 2.8258374667,
				"y": 1.226423711,
				"z": -2.1707477481,
				"element": "O" 
			},
			{
				"x": 0.8747243175,
				"y": 0.7464844483,
				"z": -0.8689763352,
				"element": "C" 
			},
			{
				"x": 0.3875254818,
				"y": 1.2147720168,
				"z": 0.3589236983,
				"element": "C" 
			},
			{
				"x": 1.499651183,
				"y": 1.5947284296,
				"z": 1.673383284,
				"element": "Cl" 
			},
			{
				"x": -0.9729714672,
				"y": 1.4139579794,
				"z": 0.5895610824,
				"element": "C" 
			},
			{
				"x": -1.8846084915,
				"y": 1.1304927259,
				"z": -0.4268332613,
				"element": "C" 
			},
			{
				"x": -1.4440695491,
				"y": 0.6549331931,
				"z": -1.6602008158,
				"element": "C" 
			},
			{
				"x": -0.0809202054,
				"y": 0.4802749103,
				"z": -1.8574605254,
				"element": "C" 
			},
			{
				"x": 0.3381904857,
				"y": 0.0077611455,
				"z": -3.0422947218,
				"element": "F" 
			},
			{
				"x": 2.5189265506,
				"y": -0.8612000056,
				"z": 1.2233409288,
				"element": "H" 
			},
			{
				"x": 3.9838146937,
				"y": -0.5048702009,
				"z": -0.8487006123,
				"element": "H" 
			},
			{
				"x": -1.3058876378,
				"y": 1.7875605066,
				"z": 1.5506420853,
				"element": "H" 
			},
			{
				"x": -2.9453859322,
				"y": 1.2802968224,
				"z": -0.252968298,
				"element": "H" 
			},
			{
				"x": -2.1291062189,
				"y": 0.4193207667,
				"z": -2.4665152975,
				"element": "H" 
			}
		],
		 "valence_orbital": [ 
			{
				"type": "occ",
				"energy": -0.32866,
				"method": "rhf"
			},
			{
				"type": "occ",
				"energy": -0.28137,
				"method": "rhf"
			},
			{
				"type": "occ",
				"energy": -0.26916,
				"method": "rhf"
			},
			{
				"type": "occ",
				"energy": -0.25994,
				"method": "rhf"
			},
			{
				"type": "occ",
				"energy": -0.25691,
				"method": "rhf"
			},
			{
				"type": "unocc",
				"energy": -0.04416,
				"method": "rhf"
			},
			{
				"type": "unocc",
				"energy": -0.02123,
				"method": "rhf"
			},
			{
				"type": "unocc",
				"energy": 0.00762,
				"method": "rhf"
			},
			{
				"type": "unocc",
				"energy": 0.01693,
				"method": "rhf"
			},
			{
				"type": "unocc",
				"energy": 0.06681,
				"method": "rhf"
			}
		],
		"cosmo_sigma_profile": { 
			"-0.025": 0.0,
			"-0.024": 0.0,
			"-0.023": 0.0,
			"-0.022": 0.0,
			"-0.021": 0.0,
			"-0.02": 0.0,
			"-0.019": 0.0,
			"-0.018": 0.0,
			"-0.017": 0.0,
			"-0.016": 0.461655165156,
			"-0.015": 2.26781497049,
			"-0.014": 1.0973809085,
			"-0.013": 1.38014205923,
			"-0.012": 1.66226411273,
			"-0.011": 2.04494472777,
			"-0.01": 1.80533772564,
			"-0.009": 2.00858837693,
			"-0.008": 6.33443076216,
			"-0.007": 7.56342434636,
			"-0.006": 9.32321742438,
			"-0.005": 6.52628345048,
			"-0.004": 6.87408648141,
			"-0.003": 8.11135072889,
			"-0.002": 9.8994137205,
			"-0.001": 14.9018087736,
			"0.0": 18.2795506289,
			"0.001": 17.3330746587,
			"0.002": 16.8501648264,
			"0.003": 17.7430679466,
			"0.004": 10.4115651744,
			"0.005": 4.25145008607,
			"0.006": 3.94740997317,
			"0.007": 2.98645065633,
			"0.008": 2.15454136459,
			"0.009": 3.93014916323,
			"0.01": 3.84108866443,
			"0.011": 3.14112424617,
			"0.012": 5.68746630436,
			"0.013": 1.85996031454,
			"0.014": 0.0,
			"0.015": 0.0,
			"0.016": 0.0,
			"0.017": 0.0,
			"0.018": 0.0,
			"0.019": 0.0,
			"0.02": 0.0,
			"0.021": 0.0,
			"0.022": 0.0,
			"0.023": 0.0,
			"0.024": 0.0,
			"0.025": 0.0
		}
	}
}
