{
	 "smiles": "CN(C)C(=O)C1=CC2=C(NCC2)C=C1", 
	 "Tm": 430.15, 
	 "num_atms": 28, 
	 "gaussian": { 
		 "optdone": 1, 
		 "sigma_profile": "yes", 
		 "theory": "DFT", 
		 "functional": "B3LYP", 
		 "basiset": "6-31G**", 
		 "properties": { 
			 "R2extent": 3638.1875, 
			 "electric_dipole_moment_norm": 4.9742783758, 
			 "electric_quadrupole_moment_norm": 9.59743205863, 
			 "total_energy": -612.346258286, 
			 "HOMO_LUMO_gap": 0.1854, 
			 "cosmo_polarized_energy": -13.99, 
			 "cosmo_cavitation_energy": 30.22, 
			 "cosmo_dispersion_energy": -22.21, 
			 "cosmo_repulsion_energy": 1.76, 
			 "cosmo_total_nonelectrostatic_energy": 9.76, 
			 "SMD_solvation_energy": 3.98 
		},
		"coords": [
			{
				"x": 3.7282971205,
				"y": -0.9995299784,
				"z": -2.6018789161,
				"element": "C" 
			},
			{
				"x": 2.4247370526,
				"y": -1.1459921472,
				"z": -1.9687587811,
				"element": "N" 
			},
			{
				"x": 1.8890176653,
				"y": -2.5000678606,
				"z": -1.9907580271,
				"element": "C" 
			},
			{
				"x": 2.0444453986,
				"y": -0.1679886878,
				"z": -1.0640568341,
				"element": "C" 
			},
			{
				"x": 2.8115096751,
				"y": 0.7428985467,
				"z": -0.7528127487,
				"element": "O" 
			},
			{
				"x": 0.6508475597,
				"y": -0.2045248571,
				"z": -0.5119932279,
				"element": "C" 
			},
			{
				"x": -0.4773777454,
				"y": -0.5562252372,
				"z": -1.2818246149,
				"element": "C" 
			},
			{
				"x": -1.7410570355,
				"y": -0.4786165501,
				"z": -0.7220594501,
				"element": "C" 
			},
			{
				"x": -1.9058347213,
				"y": -0.043817471,
				"z": 0.6066035372,
				"element": "C" 
			},
			{
				"x": -3.2576391627,
				"y": -0.008391646,
				"z": 0.9448328241,
				"element": "N" 
			},
			{
				"x": -4.0021164396,
				"y": -0.8133074729,
				"z": -0.0410001381,
				"element": "C" 
			},
			{
				"x": -3.1150891835,
				"y": -0.7343541009,
				"z": -1.3088783603,
				"element": "C" 
			},
			{
				"x": -0.8024627777,
				"y": 0.3258800346,
				"z": 1.3804833723,
				"element": "C" 
			},
			{
				"x": 0.4638780762,
				"y": 0.2530946023,
				"z": 0.8012052365,
				"element": "C" 
			},
			{
				"x": 3.6845484674,
				"y": -1.3997816693,
				"z": -3.6209284202,
				"element": "H" 
			},
			{
				"x": 3.995530766,
				"y": 0.055465942,
				"z": -2.6265569458,
				"element": "H" 
			},
			{
				"x": 4.5107280889,
				"y": -1.5413715298,
				"z": -2.0509689458,
				"element": "H" 
			},
			{
				"x": 1.0358654037,
				"y": -2.5888140879,
				"z": -1.3213473207,
				"element": "H" 
			},
			{
				"x": 2.6564780958,
				"y": -3.2162096665,
				"z": -1.6635042786,
				"element": "H" 
			},
			{
				"x": 1.5747503848,
				"y": -2.7862431101,
				"z": -3.0029971791,
				"element": "H" 
			},
			{
				"x": -0.3543948237,
				"y": -0.8684992283,
				"z": -2.3152035583,
				"element": "H" 
			},
			{
				"x": -3.4969863055,
				"y": -0.1389097662,
				"z": 1.9189239535,
				"element": "H" 
			},
			{
				"x": -4.0998798215,
				"y": -1.8597064756,
				"z": 0.2886827006,
				"element": "H" 
			},
			{
				"x": -5.0066565177,
				"y": -0.4102229029,
				"z": -0.1972065417,
				"element": "H" 
			},
			{
				"x": -3.4254032311,
				"y": 0.1073816218,
				"z": -1.942263384,
				"element": "H" 
			},
			{
				"x": -3.1796564471,
				"y": -1.6423320293,
				"z": -1.9153660989,
				"element": "H" 
			},
			{
				"x": -0.9245881178,
				"y": 0.6708427134,
				"z": 2.4032675106,
				"element": "H" 
			},
			{
				"x": 1.3392085754,
				"y": 0.5590430142,
				"z": 1.3646646366,
				"element": "H" 
			}
		],
		 "valence_orbital": [ 
			{
				"type": "occ",
				"energy": -0.29119,
				"method": "rhf"
			},
			{
				"type": "occ",
				"energy": -0.24513,
				"method": "rhf"
			},
			{
				"type": "occ",
				"energy": -0.24044,
				"method": "rhf"
			},
			{
				"type": "occ",
				"energy": -0.22367,
				"method": "rhf"
			},
			{
				"type": "occ",
				"energy": -0.19516,
				"method": "rhf"
			},
			{
				"type": "unocc",
				"energy": -0.00976,
				"method": "rhf"
			},
			{
				"type": "unocc",
				"energy": -0.00014,
				"method": "rhf"
			},
			{
				"type": "unocc",
				"energy": 0.06602,
				"method": "rhf"
			},
			{
				"type": "unocc",
				"energy": 0.08392,
				"method": "rhf"
			},
			{
				"type": "unocc",
				"energy": 0.09561,
				"method": "rhf"
			}
		],
		"cosmo_sigma_profile": { 
			"-0.025": 0.0,
			"-0.024": 0.0,
			"-0.023": 0.0,
			"-0.022": 0.0,
			"-0.021": 0.0,
			"-0.02": 0.0,
			"-0.019": 0.0,
			"-0.018": 0.0,
			"-0.017": 0.0,
			"-0.016": 0.0,
			"-0.015": 0.0,
			"-0.014": 0.00857298102823,
			"-0.013": 0.790567753101,
			"-0.012": 1.4274306395,
			"-0.011": 1.19640823275,
			"-0.01": 0.623715309651,
			"-0.009": 1.70929260468,
			"-0.008": 1.69844225976,
			"-0.007": 1.11977041788,
			"-0.006": 3.36727052564,
			"-0.005": 9.84173485828,
			"-0.004": 29.3743781382,
			"-0.003": 34.0999207012,
			"-0.002": 32.8487933843,
			"-0.001": 27.8884402316,
			"0.0": 13.0372583135,
			"0.001": 9.92643422593,
			"0.002": 8.81553002792,
			"0.003": 7.92663825141,
			"0.004": 9.4765652158,
			"0.005": 10.9007758423,
			"0.006": 7.29429081859,
			"0.007": 3.09292195679,
			"0.008": 2.12135966468,
			"0.009": 2.60949935943,
			"0.01": 2.09033304623,
			"0.011": 2.77398707129,
			"0.012": 2.07750641321,
			"0.013": 2.88804793151,
			"0.014": 4.40749255531,
			"0.015": 2.6134460844,
			"0.016": 0.10027523914,
			"0.017": 0.0,
			"0.018": 0.0,
			"0.019": 0.0,
			"0.02": 0.0,
			"0.021": 0.0,
			"0.022": 0.0,
			"0.023": 0.0,
			"0.024": 0.0,
			"0.025": 0.0
		}
	}
}
