{
	 "smiles": "COC1(CCC2(C)C3CCC4(C)C(=O)CC[C@@]4(O)C3CC[C@@]2(C)C1)OC", 
	 "Tm": 449.15, 
	 "num_atms": 62, 
	 "gaussian": { 
		 "optdone": 1, 
		 "sigma_profile": "yes", 
		 "theory": "DFT", 
		 "functional": "B3LYP", 
		 "basiset": "6-31G**", 
		 "properties": { 
			 "R2extent": 9544.7522, 
			 "electric_dipole_moment_norm": 3.38607192186, 
			 "electric_quadrupole_moment_norm": 32.5608106218, 
			 "total_energy": -1160.89741394, 
			 "HOMO_LUMO_gap": 0.21816, 
			 "cosmo_polarized_energy": -15.75, 
			 "cosmo_cavitation_energy": 50.63, 
			 "cosmo_dispersion_energy": -34.75, 
			 "cosmo_repulsion_energy": 2.51, 
			 "cosmo_total_nonelectrostatic_energy": 18.4, 
			 "SMD_solvation_energy": 8.64 
		},
		"coords": [
			{
				"x": 3.8827847249,
				"y": 3.6033259943,
				"z": -0.6320448266,
				"element": "C" 
			},
			{
				"x": 2.6467287225,
				"y": 3.6861378928,
				"z": 0.0529268996,
				"element": "O" 
			},
			{
				"x": 1.8778539378,
				"y": 2.5221803589,
				"z": 0.3736376873,
				"element": "C" 
			},
			{
				"x": 2.2188700651,
				"y": 1.2557213651,
				"z": -0.4519021389,
				"element": "C" 
			},
			{
				"x": 1.2037541645,
				"y": 0.9964680149,
				"z": -1.5724157095,
				"element": "C" 
			},
			{
				"x": -0.3260495612,
				"y": 0.9284478355,
				"z": -1.2211736941,
				"element": "C" 
			},
			{
				"x": -1.0143502208,
				"y": 1.4818622691,
				"z": -2.498814505,
				"element": "C" 
			},
			{
				"x": -0.9180390636,
				"y": -0.5175279064,
				"z": -0.9933796704,
				"element": "C" 
			},
			{
				"x": -0.7660099617,
				"y": -1.4775857252,
				"z": -2.1967983309,
				"element": "C" 
			},
			{
				"x": -1.2577036728,
				"y": -2.8838817406,
				"z": -1.8429962537,
				"element": "C" 
			},
			{
				"x": -0.4092208567,
				"y": -3.5875275827,
				"z": -0.7542961822,
				"element": "C" 
			},
			{
				"x": -1.2657390943,
				"y": -4.6884635533,
				"z": -0.0956360057,
				"element": "C" 
			},
			{
				"x": 0.8139108483,
				"y": -4.2709713149,
				"z": -1.4084218197,
				"element": "C" 
			},
			{
				"x": 0.7486350303,
				"y": -5.055878644,
				"z": -2.3309106543,
				"element": "O" 
			},
			{
				"x": 2.0890595233,
				"y": -3.7942882005,
				"z": -0.7258669825,
				"element": "C" 
			},
			{
				"x": 1.7000671098,
				"y": -2.4135051809,
				"z": -0.1859859602,
				"element": "C" 
			},
			{
				"x": 0.2166888096,
				"y": -2.5667398403,
				"z": 0.2593729005,
				"element": "C" 
			},
			{
				"x": 0.2139648372,
				"y": -3.2215932701,
				"z": 1.5404555357,
				"element": "O" 
			},
			{
				"x": -0.6079276762,
				"y": -1.2575932351,
				"z": 0.3618801862,
				"element": "C" 
			},
			{
				"x": -0.0936263404,
				"y": -0.3016061872,
				"z": 1.4510086703,
				"element": "C" 
			},
			{
				"x": -0.8093979918,
				"y": 1.0454212279,
				"z": 1.3736340873,
				"element": "C" 
			},
			{
				"x": -0.6618593007,
				"y": 1.8536113727,
				"z": 0.0403192083,
				"element": "C" 
			},
			{
				"x": -2.0091328076,
				"y": 2.6022682555,
				"z": -0.1154003001,
				"element": "C" 
			},
			{
				"x": 0.4193253712,
				"y": 2.9564369697,
				"z": 0.1515315158,
				"element": "C" 
			},
			{
				"x": 1.9922708735,
				"y": 2.263695908,
				"z": 1.7725815447,
				"element": "O" 
			},
			{
				"x": 3.3035719229,
				"y": 2.0889894995,
				"z": 2.2776424218,
				"element": "C" 
			},
			{
				"x": 4.611829263,
				"y": 2.9416823104,
				"z": -0.1457799217,
				"element": "H" 
			},
			{
				"x": 4.289431819,
				"y": 4.6183813082,
				"z": -0.6265175301,
				"element": "H" 
			},
			{
				"x": 3.7685602743,
				"y": 3.2883548155,
				"z": -1.678804372,
				"element": "H" 
			},
			{
				"x": 2.2675619064,
				"y": 0.4105600041,
				"z": 0.2334869741,
				"element": "H" 
			},
			{
				"x": 3.211525752,
				"y": 1.3216162742,
				"z": -0.9039017535,
				"element": "H" 
			},
			{
				"x": 1.330591162,
				"y": 1.8079582725,
				"z": -2.2993046582,
				"element": "H" 
			},
			{
				"x": 1.4955384185,
				"y": 0.0927513851,
				"z": -2.1168863527,
				"element": "H" 
			},
			{
				"x": -0.7979519425,
				"y": 2.546214475,
				"z": -2.6321898258,
				"element": "H" 
			},
			{
				"x": -0.6374375974,
				"y": 0.9707560388,
				"z": -3.3895317562,
				"element": "H" 
			},
			{
				"x": -2.1008924126,
				"y": 1.3585037357,
				"z": -2.4816495682,
				"element": "H" 
			},
			{
				"x": -1.9974759497,
				"y": -0.3203306844,
				"z": -0.9358810135,
				"element": "H" 
			},
			{
				"x": 0.2726260407,
				"y": -1.531334385,
				"z": -2.545680416,
				"element": "H" 
			},
			{
				"x": -1.3452761136,
				"y": -1.1040827726,
				"z": -3.0461274485,
				"element": "H" 
			},
			{
				"x": -1.2654593185,
				"y": -3.528748411,
				"z": -2.7282070514,
				"element": "H" 
			},
			{
				"x": -2.2966268342,
				"y": -2.8180283934,
				"z": -1.4937031371,
				"element": "H" 
			},
			{
				"x": -1.6417745693,
				"y": -5.3559056221,
				"z": -0.8767824983,
				"element": "H" 
			},
			{
				"x": -2.1169930667,
				"y": -4.2484308185,
				"z": 0.4324177767,
				"element": "H" 
			},
			{
				"x": -0.6952170663,
				"y": -5.2764951053,
				"z": 0.624690068,
				"element": "H" 
			},
			{
				"x": 2.9427574652,
				"y": -3.8155409963,
				"z": -1.4070010386,
				"element": "H" 
			},
			{
				"x": 2.2956019026,
				"y": -4.4819590633,
				"z": 0.1041777788,
				"element": "H" 
			},
			{
				"x": 1.7969373665,
				"y": -1.6657891193,
				"z": -0.9762323341,
				"element": "H" 
			},
			{
				"x": 2.3298709424,
				"y": -2.0869908434,
				"z": 0.6477342701,
				"element": "H" 
			},
			{
				"x": 0.6540200802,
				"y": -2.6329132937,
				"z": 2.1669925561,
				"element": "H" 
			},
			{
				"x": -1.5831952141,
				"y": -1.6115821065,
				"z": 0.7230461761,
				"element": "H" 
			},
			{
				"x": 0.9859116597,
				"y": -0.1550997936,
				"z": 1.392733467,
				"element": "H" 
			},
			{
				"x": -0.2894522531,
				"y": -0.7358948689,
				"z": 2.4396685406,
				"element": "H" 
			},
			{
				"x": -0.4849697912,
				"y": 1.6816770334,
				"z": 2.2022003664,
				"element": "H" 
			},
			{
				"x": -1.877533366,
				"y": 0.8476496359,
				"z": 1.5357252452,
				"element": "H" 
			},
			{
				"x": -1.9978058784,
				"y": 3.3422392859,
				"z": -0.9196965061,
				"element": "H" 
			},
			{
				"x": -2.8381473831,
				"y": 1.910671359,
				"z": -0.2991696394,
				"element": "H" 
			},
			{
				"x": -2.23364397,
				"y": 3.1359469295,
				"z": 0.8147292019,
				"element": "H" 
			},
			{
				"x": 0.4151474699,
				"y": 3.5420222425,
				"z": -0.7736435276,
				"element": "H" 
			},
			{
				"x": 0.167389102,
				"y": 3.6496993549,
				"z": 0.9603403148,
				"element": "H" 
			},
			{
				"x": 3.198755815,
				"y": 1.8505474458,
				"z": 3.3388886483,
				"element": "H" 
			},
			{
				"x": 3.8977984463,
				"y": 3.0047992936,
				"z": 2.1795006309,
				"element": "H" 
			},
			{
				"x": 3.8395684481,
				"y": 1.2612904948,
				"z": 1.7885107102,
				"element": "H" 
			}
		],
		 "valence_orbital": [ 
			{
				"type": "occ",
				"energy": -0.27709,
				"method": "rhf"
			},
			{
				"type": "occ",
				"energy": -0.268,
				"method": "rhf"
			},
			{
				"type": "occ",
				"energy": -0.26319,
				"method": "rhf"
			},
			{
				"type": "occ",
				"energy": -0.25132,
				"method": "rhf"
			},
			{
				"type": "occ",
				"energy": -0.23117,
				"method": "rhf"
			},
			{
				"type": "unocc",
				"energy": -0.01301,
				"method": "rhf"
			},
			{
				"type": "unocc",
				"energy": 0.05998,
				"method": "rhf"
			},
			{
				"type": "unocc",
				"energy": 0.06896,
				"method": "rhf"
			},
			{
				"type": "unocc",
				"energy": 0.07739,
				"method": "rhf"
			},
			{
				"type": "unocc",
				"energy": 0.084,
				"method": "rhf"
			}
		],
		"cosmo_sigma_profile": { 
			"-0.025": 0.0,
			"-0.024": 0.0,
			"-0.023": 0.0,
			"-0.022": 0.0,
			"-0.021": 0.0,
			"-0.02": 0.0,
			"-0.019": 0.0,
			"-0.018": 0.002205632346,
			"-0.017": 0.0167763317213,
			"-0.016": 0.00738850324398,
			"-0.015": 0.0230480202911,
			"-0.014": 0.170043630275,
			"-0.013": 0.71435877391,
			"-0.012": 0.818668265376,
			"-0.011": 0.959918469063,
			"-0.01": 1.30865929296,
			"-0.009": 1.06088578045,
			"-0.008": 1.08155796699,
			"-0.007": 1.53976585996,
			"-0.006": 3.88775628268,
			"-0.005": 10.4056565669,
			"-0.004": 25.1180808735,
			"-0.003": 47.5123103292,
			"-0.002": 69.5921986072,
			"-0.001": 59.3305983479,
			"0.0": 46.2678562245,
			"0.001": 32.0625852916,
			"0.002": 17.1876736227,
			"0.003": 8.85613832019,
			"0.004": 6.03410955787,
			"0.005": 6.76706411009,
			"0.006": 6.44187379232,
			"0.007": 4.98300244471,
			"0.008": 6.2519137209,
			"0.009": 4.63496119211,
			"0.01": 5.42835271241,
			"0.011": 6.80119879444,
			"0.012": 7.6658064849,
			"0.013": 3.74112138917,
			"0.014": 0.783846582917,
			"0.015": 0.0,
			"0.016": 0.0,
			"0.017": 0.0,
			"0.018": 0.0,
			"0.019": 0.0,
			"0.02": 0.0,
			"0.021": 0.0,
			"0.022": 0.0,
			"0.023": 0.0,
			"0.024": 0.0,
			"0.025": 0.0
		}
	}
}
