{
	 "smiles": "CC1=CC=CC=C1NC(=O)C1=CN=C(C(Cl)=N1)C(C)(C)C", 
	 "Tm": 388.15, 
	 "num_atms": 39, 
	 "gaussian": { 
		 "optdone": 1, 
		 "sigma_profile": "yes", 
		 "theory": "DFT", 
		 "functional": "B3LYP", 
		 "basiset": "6-31G**", 
		 "properties": { 
			 "R2extent": 7157.8958, 
			 "electric_dipole_moment_norm": 2.40588615691, 
			 "electric_quadrupole_moment_norm": 9.59348423306, 
			 "total_energy": -1320.23728639, 
			 "HOMO_LUMO_gap": 0.16602, 
			 "cosmo_polarized_energy": -12.24, 
			 "cosmo_cavitation_energy": 43.07, 
			 "cosmo_dispersion_energy": -28.78, 
			 "cosmo_repulsion_energy": 2.22, 
			 "cosmo_total_nonelectrostatic_energy": 16.5, 
			 "SMD_solvation_energy": 6.68 
		},
		"coords": [
			{
				"x": 2.1699479845,
				"y": 0.6260265003,
				"z": -2.1214257572,
				"element": "C" 
			},
			{
				"x": 1.6383057548,
				"y": 1.9525750333,
				"z": -1.6359671945,
				"element": "C" 
			},
			{
				"x": 2.4958711051,
				"y": 2.8851130935,
				"z": -1.037898657,
				"element": "C" 
			},
			{
				"x": 2.0388861893,
				"y": 4.1295221706,
				"z": -0.6056439255,
				"element": "C" 
			},
			{
				"x": 0.6957840706,
				"y": 4.4701824962,
				"z": -0.7669096333,
				"element": "C" 
			},
			{
				"x": -0.1786155554,
				"y": 3.553938489,
				"z": -1.3465105262,
				"element": "C" 
			},
			{
				"x": 0.2813738445,
				"y": 2.3038184684,
				"z": -1.7691319898,
				"element": "C" 
			},
			{
				"x": -0.6463418304,
				"y": 1.4295992283,
				"z": -2.427217097,
				"element": "N" 
			},
			{
				"x": -1.1253511553,
				"y": 0.1899129505,
				"z": -2.0938830228,
				"element": "C" 
			},
			{
				"x": -1.754979602,
				"y": -0.4860332096,
				"z": -2.9035336838,
				"element": "O" 
			},
			{
				"x": -0.9149250813,
				"y": -0.3452098539,
				"z": -0.7021422433,
				"element": "C" 
			},
			{
				"x": -1.0917844302,
				"y": -1.7095151884,
				"z": -0.4711888357,
				"element": "C" 
			},
			{
				"x": -0.9532146975,
				"y": -2.229524939,
				"z": 0.7487555904,
				"element": "N" 
			},
			{
				"x": -0.6580374942,
				"y": -1.4397421878,
				"z": 1.7920371797,
				"element": "C" 
			},
			{
				"x": -0.5067991016,
				"y": -0.0518519162,
				"z": 1.5208169064,
				"element": "C" 
			},
			{
				"x": -0.1464436749,
				"y": 1.1399454999,
				"z": 2.7770013167,
				"element": "Cl" 
			},
			{
				"x": -0.6248780376,
				"y": 0.4704729063,
				"z": 0.3180646559,
				"element": "N" 
			},
			{
				"x": -0.5199514143,
				"y": -2.1318855647,
				"z": 3.1600833291,
				"element": "C" 
			},
			{
				"x": -1.5846850243,
				"y": -1.5926557159,
				"z": 4.1474136973,
				"element": "C" 
			},
			{
				"x": 0.9049801393,
				"y": -1.9238167723,
				"z": 3.730158783,
				"element": "C" 
			},
			{
				"x": -0.7482537181,
				"y": -3.6491047564,
				"z": 3.0018830717,
				"element": "C" 
			},
			{
				"x": 3.2607697766,
				"y": 0.6482404927,
				"z": -2.1875093438,
				"element": "H" 
			},
			{
				"x": 1.9002985773,
				"y": -0.1931917943,
				"z": -1.4442320329,
				"element": "H" 
			},
			{
				"x": 1.7722828376,
				"y": 0.3683987399,
				"z": -3.1079861556,
				"element": "H" 
			},
			{
				"x": 3.5464970077,
				"y": 2.6303669834,
				"z": -0.9242064827,
				"element": "H" 
			},
			{
				"x": 2.7316180039,
				"y": 4.8323228236,
				"z": -0.1519908689,
				"element": "H" 
			},
			{
				"x": 0.3287706404,
				"y": 5.4378379734,
				"z": -0.4383971463,
				"element": "H" 
			},
			{
				"x": -1.231185859,
				"y": 3.7911299219,
				"z": -1.4678880696,
				"element": "H" 
			},
			{
				"x": -0.939446931,
				"y": 1.6917546507,
				"z": -3.3620067993,
				"element": "H" 
			},
			{
				"x": -1.349731284,
				"y": -2.3779337715,
				"z": -1.2863196292,
				"element": "H" 
			},
			{
				"x": -1.5022011039,
				"y": -2.1331983243,
				"z": 5.0962226664,
				"element": "H" 
			},
			{
				"x": -1.4664378206,
				"y": -0.5288410454,
				"z": 4.3565601393,
				"element": "H" 
			},
			{
				"x": -2.5943314729,
				"y": -1.7570284212,
				"z": 3.7566283438,
				"element": "H" 
			},
			{
				"x": 0.9958639441,
				"y": -2.4642483466,
				"z": 4.6782400674,
				"element": "H" 
			},
			{
				"x": 1.6594194646,
				"y": -2.3245581601,
				"z": 3.0448602076,
				"element": "H" 
			},
			{
				"x": 1.1356066475,
				"y": -0.8748208852,
				"z": 3.9195089567,
				"element": "H" 
			},
			{
				"x": -0.0229335268,
				"y": -4.0990493066,
				"z": 2.3198052253,
				"element": "H" 
			},
			{
				"x": -0.6446590315,
				"y": -4.1251799837,
				"z": 3.9824109957,
				"element": "H" 
			},
			{
				"x": -1.7443881409,
				"y": -3.8705682786,
				"z": 2.6120379623,
				"element": "H" 
			}
		],
		 "valence_orbital": [ 
			{
				"type": "occ",
				"energy": -0.27566,
				"method": "rhf"
			},
			{
				"type": "occ",
				"energy": -0.26557,
				"method": "rhf"
			},
			{
				"type": "occ",
				"energy": -0.2537,
				"method": "rhf"
			},
			{
				"type": "occ",
				"energy": -0.24851,
				"method": "rhf"
			},
			{
				"type": "occ",
				"energy": -0.23619,
				"method": "rhf"
			},
			{
				"type": "unocc",
				"energy": -0.07017,
				"method": "rhf"
			},
			{
				"type": "unocc",
				"energy": -0.04957,
				"method": "rhf"
			},
			{
				"type": "unocc",
				"energy": -0.00847,
				"method": "rhf"
			},
			{
				"type": "unocc",
				"energy": -0.00359,
				"method": "rhf"
			},
			{
				"type": "unocc",
				"energy": 0.02577,
				"method": "rhf"
			}
		],
		"cosmo_sigma_profile": { 
			"-0.025": 0.0,
			"-0.024": 0.0,
			"-0.023": 0.0,
			"-0.022": 0.0,
			"-0.021": 0.0,
			"-0.02": 0.0,
			"-0.019": 0.0,
			"-0.018": 0.0,
			"-0.017": 0.0,
			"-0.016": 0.0,
			"-0.015": 0.1919708184,
			"-0.014": 0.964413864325,
			"-0.013": 1.14204422986,
			"-0.012": 0.801427578384,
			"-0.011": 0.523511875819,
			"-0.01": 0.980120719604,
			"-0.009": 0.911588720168,
			"-0.008": 1.60106427292,
			"-0.007": 2.1254661038,
			"-0.006": 6.46857187618,
			"-0.005": 15.6464188647,
			"-0.004": 24.9695653589,
			"-0.003": 40.0634515184,
			"-0.002": 38.4073350699,
			"-0.001": 37.5305662186,
			"0.0": 43.8328366442,
			"0.001": 33.4249318465,
			"0.002": 17.2737430101,
			"0.003": 13.3670470785,
			"0.004": 15.0669391688,
			"0.005": 13.1724017296,
			"0.006": 8.01599063593,
			"0.007": 3.93847093769,
			"0.008": 4.45081208352,
			"0.009": 3.21331087554,
			"0.01": 3.46910082052,
			"0.011": 2.73646659364,
			"0.012": 3.31862789806,
			"0.013": 4.62618537292,
			"0.014": 0.533428814397,
			"0.015": 0.0,
			"0.016": 0.0,
			"0.017": 0.0,
			"0.018": 0.0,
			"0.019": 0.0,
			"0.02": 0.0,
			"0.021": 0.0,
			"0.022": 0.0,
			"0.023": 0.0,
			"0.024": 0.0,
			"0.025": 0.0
		}
	}
}
