{
	 "smiles": "CN1C2=C(N(CC(O)=O)C(Cl)=N2)C(=O)N(C)C1=O", 
	 "Tm": 471.15, 
	 "num_atms": 27, 
	 "gaussian": { 
		 "optdone": 1, 
		 "sigma_profile": "yes", 
		 "theory": "DFT", 
		 "functional": "B3LYP", 
		 "basiset": "6-31G**", 
		 "properties": { 
			 "R2extent": 5116.7698, 
			 "electric_dipole_moment_norm": 1.51456515872, 
			 "electric_quadrupole_moment_norm": 11.3291951471, 
			 "total_energy": -1328.52550323, 
			 "HOMO_LUMO_gap": 0.18296, 
			 "cosmo_polarized_energy": -17.51, 
			 "cosmo_cavitation_energy": 33.67, 
			 "cosmo_dispersion_energy": -24.12, 
			 "cosmo_repulsion_energy": 1.86, 
			 "cosmo_total_nonelectrostatic_energy": 11.41, 
			 "SMD_solvation_energy": 6.59 
		},
		"coords": [
			{
				"x": 3.4236273643,
				"y": 1.2918373319,
				"z": 1.7107526079,
				"element": "C" 
			},
			{
				"x": 2.3267848677,
				"y": 0.3249689235,
				"z": 1.6617407204,
				"element": "N" 
			},
			{
				"x": 1.5505851022,
				"y": 0.202191691,
				"z": 0.5371083846,
				"element": "C" 
			},
			{
				"x": 0.5101393336,
				"y": -0.6976273929,
				"z": 0.4633545932,
				"element": "C" 
			},
			{
				"x": -0.0195235758,
				"y": -0.5426601495,
				"z": -0.8148692998,
				"element": "N" 
			},
			{
				"x": -1.1879049941,
				"y": -1.2253736934,
				"z": -1.3473720358,
				"element": "C" 
			},
			{
				"x": -2.469551314,
				"y": -0.3991647846,
				"z": -1.3754310408,
				"element": "C" 
			},
			{
				"x": -2.3975644918,
				"y": 0.7128622153,
				"z": -0.6199464479,
				"element": "O" 
			},
			{
				"x": -3.4480258808,
				"y": -0.7410596971,
				"z": -1.9949566692,
				"element": "O" 
			},
			{
				"x": 0.7332416457,
				"y": 0.4369638247,
				"z": -1.3876592681,
				"element": "C" 
			},
			{
				"x": 0.4257112774,
				"y": 0.97587286,
				"z": -2.9911725201,
				"element": "Cl" 
			},
			{
				"x": 1.6943676031,
				"y": 0.9126075714,
				"z": -0.6175571824,
				"element": "N" 
			},
			{
				"x": 0.1578816817,
				"y": -1.5903421798,
				"z": 1.5266129892,
				"element": "C" 
			},
			{
				"x": -0.7410275843,
				"y": -2.4301325162,
				"z": 1.5048668166,
				"element": "O" 
			},
			{
				"x": 0.9941868933,
				"y": -1.3960750125,
				"z": 2.6515250281,
				"element": "N" 
			},
			{
				"x": 0.7569286347,
				"y": -2.2302706875,
				"z": 3.8357476336,
				"element": "C" 
			},
			{
				"x": 2.060828892,
				"y": -0.4829482191,
				"z": 2.7709608975,
				"element": "C" 
			},
			{
				"x": 2.7149058307,
				"y": -0.414125099,
				"z": 3.8005349528,
				"element": "O" 
			},
			{
				"x": 3.0376412252,
				"y": 2.304383202,
				"z": 1.5681739448,
				"element": "H" 
			},
			{
				"x": 3.8925259612,
				"y": 1.2010254556,
				"z": 2.6880145502,
				"element": "H" 
			},
			{
				"x": 4.147189969,
				"y": 1.0769374776,
				"z": 0.9204476697,
				"element": "H" 
			},
			{
				"x": -0.9952515765,
				"y": -1.5750039277,
				"z": -2.3633371193,
				"element": "H" 
			},
			{
				"x": -1.369185832,
				"y": -2.0912451821,
				"z": -0.7036034924,
				"element": "H" 
			},
			{
				"x": -3.2637392529,
				"y": 1.1495234322,
				"z": -0.6874302408,
				"element": "H" 
			},
			{
				"x": 1.6468331642,
				"y": -2.8220230531,
				"z": 4.0596970577,
				"element": "H" 
			},
			{
				"x": -0.0870561537,
				"y": -2.8787434204,
				"z": 3.6118530244,
				"element": "H" 
			},
			{
				"x": 0.5388512099,
				"y": -1.5974789702,
				"z": 4.6982444459,
				"element": "H" 
			}
		],
		 "valence_orbital": [ 
			{
				"type": "occ",
				"energy": -0.2965,
				"method": "rhf"
			},
			{
				"type": "occ",
				"energy": -0.28769,
				"method": "rhf"
			},
			{
				"type": "occ",
				"energy": -0.27591,
				"method": "rhf"
			},
			{
				"type": "occ",
				"energy": -0.27062,
				"method": "rhf"
			},
			{
				"type": "occ",
				"energy": -0.22888,
				"method": "rhf"
			},
			{
				"type": "unocc",
				"energy": -0.04592,
				"method": "rhf"
			},
			{
				"type": "unocc",
				"energy": -0.01172,
				"method": "rhf"
			},
			{
				"type": "unocc",
				"energy": 0.0128,
				"method": "rhf"
			},
			{
				"type": "unocc",
				"energy": 0.01365,
				"method": "rhf"
			},
			{
				"type": "unocc",
				"energy": 0.01866,
				"method": "rhf"
			}
		],
		"cosmo_sigma_profile": { 
			"-0.025": 0.0,
			"-0.024": 0.0,
			"-0.023": 0.0,
			"-0.022": 0.0,
			"-0.021": 0.0,
			"-0.02": 0.0533297567096,
			"-0.019": 0.96814497113,
			"-0.018": 0.842886792638,
			"-0.017": 1.03682067731,
			"-0.016": 0.856612415285,
			"-0.015": 0.485747762485,
			"-0.014": 0.526678774558,
			"-0.013": 0.59280969365,
			"-0.012": 1.08157055703,
			"-0.011": 0.668405753212,
			"-0.01": 1.21648570375,
			"-0.009": 2.44781635281,
			"-0.008": 4.01909269654,
			"-0.007": 4.85512127583,
			"-0.006": 12.4175471618,
			"-0.005": 17.6569850163,
			"-0.004": 22.8655824492,
			"-0.003": 33.3068125539,
			"-0.002": 26.0796468401,
			"-0.001": 17.2931042479,
			"0.0": 15.9834294976,
			"0.001": 15.4497392855,
			"0.002": 13.9062877032,
			"0.003": 10.0882104598,
			"0.004": 8.5059675707,
			"0.005": 5.67561019983,
			"0.006": 6.26036983902,
			"0.007": 6.56509507289,
			"0.008": 4.62322148129,
			"0.009": 5.53130645788,
			"0.01": 8.11964618939,
			"0.011": 9.47295147195,
			"0.012": 9.41805638493,
			"0.013": 2.46030178091,
			"0.014": 0.047826055053,
			"0.015": 0.0,
			"0.016": 0.0,
			"0.017": 0.0,
			"0.018": 0.0,
			"0.019": 0.0,
			"0.02": 0.0,
			"0.021": 0.0,
			"0.022": 0.0,
			"0.023": 0.0,
			"0.024": 0.0,
			"0.025": 0.0
		}
	}
}
