{
	 "smiles": "CC(C)(C)C1=CC=C(C=C1)C1=NN=C(O1)C1=CC=C(C=C1)C1=CC=CC=C1", 
	 "Tm": 410.15, 
	 "num_atms": 49, 
	 "gaussian": { 
		 "optdone": 1, 
		 "sigma_profile": "yes", 
		 "theory": "DFT", 
		 "functional": "B3LYP", 
		 "basiset": "6-31G**", 
		 "properties": { 
			 "R2extent": 21980.971, 
			 "electric_dipole_moment_norm": 3.71213924981, 
			 "electric_quadrupole_moment_norm": 25.6306207935, 
			 "total_energy": -1112.55141373, 
			 "HOMO_LUMO_gap": 0.15406, 
			 "cosmo_polarized_energy": -13.01, 
			 "cosmo_cavitation_energy": 52.47, 
			 "cosmo_dispersion_energy": -37.42, 
			 "cosmo_repulsion_energy": 2.74, 
			 "cosmo_total_nonelectrostatic_energy": 17.79, 
			 "SMD_solvation_energy": 7.01 
		},
		"coords": [
			{
				"x": 1.9782714322,
				"y": -5.1111683513,
				"z": 3.0921227118,
				"element": "C" 
			},
			{
				"x": 2.2186533516,
				"y": -3.8192037129,
				"z": 3.8958388237,
				"element": "C" 
			},
			{
				"x": 1.4892039067,
				"y": -3.9523651167,
				"z": 5.2544158059,
				"element": "C" 
			},
			{
				"x": 3.7402634955,
				"y": -3.6792787064,
				"z": 4.142259142,
				"element": "C" 
			},
			{
				"x": 1.7044769067,
				"y": -2.568712491,
				"z": 3.1616690371,
				"element": "C" 
			},
			{
				"x": 1.0915543327,
				"y": -2.622411543,
				"z": 1.9019527258,
				"element": "C" 
			},
			{
				"x": 0.63571096,
				"y": -1.470873986,
				"z": 1.2609391736,
				"element": "C" 
			},
			{
				"x": 0.7814942513,
				"y": -0.2182215012,
				"z": 1.8686636831,
				"element": "C" 
			},
			{
				"x": 1.3935045443,
				"y": -0.1443954375,
				"z": 3.1314924567,
				"element": "C" 
			},
			{
				"x": 1.8419969135,
				"y": -1.2994090791,
				"z": 3.7563857572,
				"element": "C" 
			},
			{
				"x": 0.3163440989,
				"y": 1.0022414082,
				"z": 1.2261895541,
				"element": "C" 
			},
			{
				"x": 0.3799198583,
				"y": 2.2272944716,
				"z": 1.6667210438,
				"element": "N" 
			},
			{
				"x": -0.1936946946,
				"y": 3.0325451739,
				"z": 0.6954670053,
				"element": "N" 
			},
			{
				"x": -0.5693287977,
				"y": 2.2451362609,
				"z": -0.2726639858,
				"element": "C" 
			},
			{
				"x": -0.2767961404,
				"y": 0.9362718669,
				"z": -0.0045348141,
				"element": "O" 
			},
			{
				"x": -1.2235077487,
				"y": 2.5956418072,
				"z": -1.524479565,
				"element": "C" 
			},
			{
				"x": -1.559997659,
				"y": 1.6193010165,
				"z": -2.4744346373,
				"element": "C" 
			},
			{
				"x": -2.1832317915,
				"y": 1.9843543587,
				"z": -3.6627641759,
				"element": "C" 
			},
			{
				"x": -2.4917025977,
				"y": 3.3271544857,
				"z": -3.9421238876,
				"element": "C" 
			},
			{
				"x": -2.1492469936,
				"y": 4.295586536,
				"z": -2.9794118798,
				"element": "C" 
			},
			{
				"x": -1.5257131863,
				"y": 3.9417777367,
				"z": -1.7905416701,
				"element": "C" 
			},
			{
				"x": -3.1562634445,
				"y": 3.7116843742,
				"z": -5.2117445217,
				"element": "C" 
			},
			{
				"x": -2.8140832782,
				"y": 4.9041472167,
				"z": -5.872914772,
				"element": "C" 
			},
			{
				"x": -3.4375482394,
				"y": 5.2651651185,
				"z": -7.0662370011,
				"element": "C" 
			},
			{
				"x": -4.4173873714,
				"y": 4.4422620478,
				"z": -7.6249969142,
				"element": "C" 
			},
			{
				"x": -4.7681776646,
				"y": 3.2549123689,
				"z": -6.9795250775,
				"element": "C" 
			},
			{
				"x": -4.1445959255,
				"y": 2.893623035,
				"z": -5.7863530189,
				"element": "C" 
			},
			{
				"x": 2.4954885119,
				"y": -5.093937652,
				"z": 2.1271407276,
				"element": "H" 
			},
			{
				"x": 2.3592663252,
				"y": -5.9698520711,
				"z": 3.6540685399,
				"element": "H" 
			},
			{
				"x": 0.9130195165,
				"y": -5.285135257,
				"z": 2.907737438,
				"element": "H" 
			},
			{
				"x": 0.4090348495,
				"y": -4.0592559511,
				"z": 5.1108101685,
				"element": "H" 
			},
			{
				"x": 1.8495664294,
				"y": -4.835705707,
				"z": 5.7933874962,
				"element": "H" 
			},
			{
				"x": 1.6562733092,
				"y": -3.0813504473,
				"z": 5.8947497896,
				"element": "H" 
			},
			{
				"x": 4.1213778677,
				"y": -4.5597629726,
				"z": 4.6715578081,
				"element": "H" 
			},
			{
				"x": 4.2841318951,
				"y": -3.5898183986,
				"z": 3.1962064202,
				"element": "H" 
			},
			{
				"x": 3.9765746372,
				"y": -2.7993891036,
				"z": 4.7477120876,
				"element": "H" 
			},
			{
				"x": 0.960576409,
				"y": -3.5734859913,
				"z": 1.3994576895,
				"element": "H" 
			},
			{
				"x": 0.1653975719,
				"y": -1.5458621953,
				"z": 0.2860408638,
				"element": "H" 
			},
			{
				"x": 1.5084990009,
				"y": 0.8244055644,
				"z": 3.6059010851,
				"element": "H" 
			},
			{
				"x": 2.3108670548,
				"y": -1.2092213531,
				"z": 4.7314800689,
				"element": "H" 
			},
			{
				"x": -1.3228383176,
				"y": 0.578101302,
				"z": -2.2833994243,
				"element": "H" 
			},
			{
				"x": -2.4113839185,
				"y": 1.2198330789,
				"z": -4.3989177671,
				"element": "H" 
			},
			{
				"x": -2.4001441714,
				"y": 5.3366450365,
				"z": -3.1573981969,
				"element": "H" 
			},
			{
				"x": -1.2732503307,
				"y": 4.6938302641,
				"z": -1.0507230758,
				"element": "H" 
			},
			{
				"x": -2.0343870452,
				"y": 5.5382971798,
				"z": -5.4615418602,
				"element": "H" 
			},
			{
				"x": -3.1511221486,
				"y": 6.1868906921,
				"z": -7.564700682,
				"element": "H" 
			},
			{
				"x": -4.9032971601,
				"y": 4.7238068477,
				"z": -8.5546095677,
				"element": "H" 
			},
			{
				"x": -5.5358468565,
				"y": 2.6120629289,
				"z": -7.4009047366,
				"element": "H" 
			},
			{
				"x": -4.4449219484,
				"y": 1.9818448469,
				"z": -5.2785458716,
				"element": "H" 
			}
		],
		 "valence_orbital": [ 
			{
				"type": "occ",
				"energy": -0.26157,
				"method": "rhf"
			},
			{
				"type": "occ",
				"energy": -0.25784,
				"method": "rhf"
			},
			{
				"type": "occ",
				"energy": -0.25524,
				"method": "rhf"
			},
			{
				"type": "occ",
				"energy": -0.2428,
				"method": "rhf"
			},
			{
				"type": "occ",
				"energy": -0.21519,
				"method": "rhf"
			},
			{
				"type": "unocc",
				"energy": -0.06113,
				"method": "rhf"
			},
			{
				"type": "unocc",
				"energy": -0.03404,
				"method": "rhf"
			},
			{
				"type": "unocc",
				"energy": -0.01182,
				"method": "rhf"
			},
			{
				"type": "unocc",
				"energy": -0.00823,
				"method": "rhf"
			},
			{
				"type": "unocc",
				"energy": -0.0056,
				"method": "rhf"
			}
		],
		"cosmo_sigma_profile": { 
			"-0.025": 0.0,
			"-0.024": 0.0,
			"-0.023": 0.0,
			"-0.022": 0.0,
			"-0.021": 0.0,
			"-0.02": 0.0,
			"-0.019": 0.0,
			"-0.018": 0.0,
			"-0.017": 0.0,
			"-0.016": 0.0,
			"-0.015": 0.0,
			"-0.014": 0.0,
			"-0.013": 0.0,
			"-0.012": 0.0,
			"-0.011": 0.0,
			"-0.01": 0.0,
			"-0.009": 0.0,
			"-0.008": 0.0,
			"-0.007": 1.48344134739,
			"-0.006": 18.7487478298,
			"-0.005": 27.3350872082,
			"-0.004": 29.7963195871,
			"-0.003": 41.6920067474,
			"-0.002": 42.2179874515,
			"-0.001": 39.4881373447,
			"0.0": 39.773415188,
			"0.001": 46.9691960993,
			"0.002": 34.0875494428,
			"0.003": 30.9502509081,
			"0.004": 27.5085410041,
			"0.005": 13.8787072759,
			"0.006": 5.3840207349,
			"0.007": 1.51686936149,
			"0.008": 2.15175110198,
			"0.009": 2.2023486683,
			"0.01": 2.15944547725,
			"0.011": 3.70069026778,
			"0.012": 2.66263833328,
			"0.013": 2.40127527367,
			"0.014": 2.09865924869,
			"0.015": 0.264818166334,
			"0.016": 0.0,
			"0.017": 0.0,
			"0.018": 0.0,
			"0.019": 0.0,
			"0.02": 0.0,
			"0.021": 0.0,
			"0.022": 0.0,
			"0.023": 0.0,
			"0.024": 0.0,
			"0.025": 0.0
		}
	}
}
