{
	 "smiles": "CN1C(S)=NN=C1CC1CCS(=O)(=O)C1", 
	 "Tm": 511.15, 
	 "num_atms": 28, 
	 "gaussian": { 
		 "optdone": 1, 
		 "sigma_profile": "yes", 
		 "theory": "DFT", 
		 "functional": "B3LYP", 
		 "basiset": "6-31G**", 
		 "properties": { 
			 "R2extent": 5665.3466, 
			 "electric_dipole_moment_norm": 7.60152354532, 
			 "electric_quadrupole_moment_norm": 17.3399010502, 
			 "total_energy": -1423.67917658, 
			 "HOMO_LUMO_gap": 0.23378, 
			 "cosmo_polarized_energy": -29.64, 
			 "cosmo_cavitation_energy": 33.91, 
			 "cosmo_dispersion_energy": -24.82, 
			 "cosmo_repulsion_energy": 1.85, 
			 "cosmo_total_nonelectrostatic_energy": 10.94, 
			 "SMD_solvation_energy": 1.87 
		},
		"coords": [
			{
				"x": -2.7768995176,
				"y": -0.1346073393,
				"z": -1.3993052592,
				"element": "C" 
			},
			{
				"x": -1.6111396002,
				"y": 0.0490085814,
				"z": -2.2509080138,
				"element": "N" 
			},
			{
				"x": -1.4836576052,
				"y": -0.3204416506,
				"z": -3.5670854068,
				"element": "C" 
			},
			{
				"x": -2.7926961825,
				"y": -1.1033926002,
				"z": -4.4594845912,
				"element": "S" 
			},
			{
				"x": -0.2984205927,
				"y": -0.0112662016,
				"z": -4.0364785639,
				"element": "N" 
			},
			{
				"x": 0.3954518737,
				"y": 0.5862700498,
				"z": -3.001373738,
				"element": "N" 
			},
			{
				"x": -0.3866767128,
				"y": 0.6160502757,
				"z": -1.947986628,
				"element": "C" 
			},
			{
				"x": 0.0135741538,
				"y": 1.1575234571,
				"z": -0.6124891913,
				"element": "C" 
			},
			{
				"x": 0.405903516,
				"y": 0.0830272132,
				"z": 0.421724519,
				"element": "C" 
			},
			{
				"x": 0.8216782529,
				"y": 0.700960762,
				"z": 1.778979883,
				"element": "C" 
			},
			{
				"x": 1.3959629251,
				"y": -0.4167069508,
				"z": 2.6613590088,
				"element": "C" 
			},
			{
				"x": 2.1070880368,
				"y": -1.6600009715,
				"z": 1.4973088987,
				"element": "S" 
			},
			{
				"x": 1.3174490047,
				"y": -2.8985821813,
				"z": 1.6076120843,
				"element": "O" 
			},
			{
				"x": 3.5732375192,
				"y": -1.6889077572,
				"z": 1.6063494955,
				"element": "O" 
			},
			{
				"x": 1.593013912,
				"y": -0.7800375904,
				"z": -0.0222217345,
				"element": "C" 
			},
			{
				"x": -2.6812763046,
				"y": 0.4959965342,
				"z": -0.5148047552,
				"element": "H" 
			},
			{
				"x": -3.6811634352,
				"y": 0.162318509,
				"z": -1.9372146891,
				"element": "H" 
			},
			{
				"x": -2.8756702316,
				"y": -1.177882148,
				"z": -1.0831996328,
				"element": "H" 
			},
			{
				"x": -2.0961854663,
				"y": -1.1016825181,
				"z": -5.6114798299,
				"element": "H" 
			},
			{
				"x": -0.7848818233,
				"y": 1.7830527734,
				"z": -0.1917634836,
				"element": "H" 
			},
			{
				"x": 0.8690449243,
				"y": 1.8159382058,
				"z": -0.7937917909,
				"element": "H" 
			},
			{
				"x": -0.4508157429,
				"y": -0.5826379468,
				"z": 0.5940816873,
				"element": "H" 
			},
			{
				"x": 1.5869448189,
				"y": 1.465734413,
				"z": 1.6003878404,
				"element": "H" 
			},
			{
				"x": -0.0231640832,
				"y": 1.1942982374,
				"z": 2.2699725685,
				"element": "H" 
			},
			{
				"x": 0.6287210866,
				"y": -0.9489349036,
				"z": 3.2273711784,
				"element": "H" 
			},
			{
				"x": 2.1940534029,
				"y": -0.0933978593,
				"z": 3.3310057333,
				"element": "H" 
			},
			{
				"x": 1.3604350205,
				"y": -1.5304696939,
				"z": -0.7783933946,
				"element": "H" 
			},
			{
				"x": 2.4382888504,
				"y": -0.1718306998,
				"z": -0.3566721943,
				"element": "H" 
			}
		],
		 "valence_orbital": [ 
			{
				"type": "occ",
				"energy": -0.29904,
				"method": "rhf"
			},
			{
				"type": "occ",
				"energy": -0.29365,
				"method": "rhf"
			},
			{
				"type": "occ",
				"energy": -0.28007,
				"method": "rhf"
			},
			{
				"type": "occ",
				"energy": -0.26265,
				"method": "rhf"
			},
			{
				"type": "occ",
				"energy": -0.23716,
				"method": "rhf"
			},
			{
				"type": "unocc",
				"energy": -0.00338,
				"method": "rhf"
			},
			{
				"type": "unocc",
				"energy": 0.0044,
				"method": "rhf"
			},
			{
				"type": "unocc",
				"energy": 0.03189,
				"method": "rhf"
			},
			{
				"type": "unocc",
				"energy": 0.04131,
				"method": "rhf"
			},
			{
				"type": "unocc",
				"energy": 0.05499,
				"method": "rhf"
			}
		],
		"cosmo_sigma_profile": { 
			"-0.025": 0.0,
			"-0.024": 0.0,
			"-0.023": 0.0,
			"-0.022": 0.0,
			"-0.021": 0.0,
			"-0.02": 0.0,
			"-0.019": 0.0,
			"-0.018": 0.0,
			"-0.017": 0.0,
			"-0.016": 0.0,
			"-0.015": 0.0,
			"-0.014": 0.0,
			"-0.013": 0.0626383458952,
			"-0.012": 1.09874686446,
			"-0.011": 2.30795549279,
			"-0.01": 1.98560817682,
			"-0.009": 3.17100346246,
			"-0.008": 7.8262622896,
			"-0.007": 18.9870661865,
			"-0.006": 30.9735799689,
			"-0.005": 31.6425682082,
			"-0.004": 24.9006628708,
			"-0.003": 18.2771481247,
			"-0.002": 12.2563918578,
			"-0.001": 7.93542116004,
			"0.0": 8.26917657778,
			"0.001": 7.68312999236,
			"0.002": 9.02735323197,
			"0.003": 6.8821530079,
			"0.004": 6.28884180232,
			"0.005": 6.22125401208,
			"0.006": 6.39227485444,
			"0.007": 3.97909231596,
			"0.008": 3.97238050646,
			"0.009": 4.3004686148,
			"0.01": 4.80559894364,
			"0.011": 9.04046704636,
			"0.012": 14.3293239504,
			"0.013": 7.77092740818,
			"0.014": 3.41005754872,
			"0.015": 2.87448799153,
			"0.016": 1.96475489972,
			"0.017": 1.18741042937,
			"0.018": 0.038541833999,
			"0.019": 0.0,
			"0.02": 0.0,
			"0.021": 0.0,
			"0.022": 0.0,
			"0.023": 0.0,
			"0.024": 0.0,
			"0.025": 0.0
		}
	}
}
