{
	 "smiles": "COC1=CC=C(CC(=O)NCC2=CC=C(C=C2)C(O)=O)C=C1", 
	 "Tm": 503.15, 
	 "num_atms": 39, 
	 "gaussian": { 
		 "optdone": 1, 
		 "sigma_profile": "yes", 
		 "theory": "DFT", 
		 "functional": "B3LYP", 
		 "basiset": "6-31G**", 
		 "properties": { 
			 "R2extent": 6848.038, 
			 "electric_dipole_moment_norm": 3.98588655885, 
			 "electric_quadrupole_moment_norm": 21.7862988731, 
			 "total_energy": -1013.72220496, 
			 "HOMO_LUMO_gap": 0.16021, 
			 "cosmo_polarized_energy": -23.45, 
			 "cosmo_cavitation_energy": 43.37, 
			 "cosmo_dispersion_energy": -27.77, 
			 "cosmo_repulsion_energy": 2.08, 
			 "cosmo_total_nonelectrostatic_energy": 17.69, 
			 "SMD_solvation_energy": 8.21 
		},
		"coords": [
			{
				"x": -1.7005414357,
				"y": -3.0311839033,
				"z": 2.7068753478,
				"element": "C" 
			},
			{
				"x": -2.5928237552,
				"y": -2.2248461452,
				"z": 1.9428471994,
				"element": "O" 
			},
			{
				"x": -2.2899051495,
				"y": -1.9896745924,
				"z": 0.6369148549,
				"element": "C" 
			},
			{
				"x": -3.0998119556,
				"y": -1.0549748272,
				"z": -0.0249907761,
				"element": "C" 
			},
			{
				"x": -2.8406469856,
				"y": -0.7189501142,
				"z": -1.3500059305,
				"element": "C" 
			},
			{
				"x": -1.7801994632,
				"y": -1.307068342,
				"z": -2.0555150807,
				"element": "C" 
			},
			{
				"x": -1.4034778644,
				"y": -0.8556441097,
				"z": -3.4563358877,
				"element": "C" 
			},
			{
				"x": -0.0278840316,
				"y": -0.1787049524,
				"z": -3.4218870516,
				"element": "C" 
			},
			{
				"x": 0.9817955375,
				"y": -0.713191736,
				"z": -3.8649353226,
				"element": "O" 
			},
			{
				"x": -0.0137482739,
				"y": 1.0524831745,
				"z": -2.8086961629,
				"element": "N" 
			},
			{
				"x": 1.2423821083,
				"y": 1.6321408747,
				"z": -2.3262010737,
				"element": "C" 
			},
			{
				"x": 1.5264586179,
				"y": 1.2121665623,
				"z": -0.8952145544,
				"element": "C" 
			},
			{
				"x": 1.9289436195,
				"y": -0.1058267769,
				"z": -0.6206728914,
				"element": "C" 
			},
			{
				"x": 2.0464163212,
				"y": -0.5503634891,
				"z": 0.689851119,
				"element": "C" 
			},
			{
				"x": 1.7988237784,
				"y": 0.3213264586,
				"z": 1.7603430143,
				"element": "C" 
			},
			{
				"x": 1.4324672498,
				"y": 1.6468363709,
				"z": 1.4924838659,
				"element": "C" 
			},
			{
				"x": 1.2926878919,
				"y": 2.0830447965,
				"z": 0.1744231348,
				"element": "C" 
			},
			{
				"x": 1.8667732856,
				"y": -0.2328293255,
				"z": 3.1485782613,
				"element": "C" 
			},
			{
				"x": 2.1429013918,
				"y": 0.6483837535,
				"z": 4.1461122764,
				"element": "O" 
			},
			{
				"x": 1.6799427215,
				"y": -1.4001432082,
				"z": 3.4105957508,
				"element": "O" 
			},
			{
				"x": -1.0048330082,
				"y": -2.2658915503,
				"z": -1.3934055953,
				"element": "C" 
			},
			{
				"x": -1.2465537252,
				"y": -2.610686738,
				"z": -0.0634058509,
				"element": "C" 
			},
			{
				"x": -0.6870321817,
				"y": -2.6122583514,
				"z": 2.7194101653,
				"element": "H" 
			},
			{
				"x": -2.1004761025,
				"y": -3.036405332,
				"z": 3.7218205412,
				"element": "H" 
			},
			{
				"x": -1.6676101282,
				"y": -4.0622384662,
				"z": 2.3321117161,
				"element": "H" 
			},
			{
				"x": -3.915439709,
				"y": -0.5957258594,
				"z": 0.5241004563,
				"element": "H" 
			},
			{
				"x": -3.4741436277,
				"y": 0.0152780601,
				"z": -1.8435653591,
				"element": "H" 
			},
			{
				"x": -1.3196102667,
				"y": -1.6973411119,
				"z": -4.1481398887,
				"element": "H" 
			},
			{
				"x": -2.157870463,
				"y": -0.1642919706,
				"z": -3.8481822554,
				"element": "H" 
			},
			{
				"x": -0.8405004999,
				"y": 1.286307075,
				"z": -2.2734873902,
				"element": "H" 
			},
			{
				"x": 2.022367322,
				"y": 1.2766356105,
				"z": -3.0027650479,
				"element": "H" 
			},
			{
				"x": 1.1856295626,
				"y": 2.7223669381,
				"z": -2.4052638996,
				"element": "H" 
			},
			{
				"x": 2.1180847083,
				"y": -0.7824594025,
				"z": -1.4481681452,
				"element": "H" 
			},
			{
				"x": 2.3226970454,
				"y": -1.5761269914,
				"z": 0.9090358572,
				"element": "H" 
			},
			{
				"x": 1.1958322919,
				"y": 2.3319174339,
				"z": 2.3033354914,
				"element": "H" 
			},
			{
				"x": 0.9765207978,
				"y": 3.1046622356,
				"z": -0.0216032345,
				"element": "H" 
			},
			{
				"x": 2.4197961455,
				"y": 1.4954314638,
				"z": 3.7693141848,
				"element": "H" 
			},
			{
				"x": -0.1799648106,
				"y": -2.73755566,
				"z": -1.9211688212,
				"element": "H" 
			},
			{
				"x": -0.6142469594,
				"y": -3.3458978523,
				"z": 0.419656983,
				"element": "H" 
			}
		],
		 "valence_orbital": [ 
			{
				"type": "occ",
				"energy": -0.27082,
				"method": "rhf"
			},
			{
				"type": "occ",
				"energy": -0.25637,
				"method": "rhf"
			},
			{
				"type": "occ",
				"energy": -0.25227,
				"method": "rhf"
			},
			{
				"type": "occ",
				"energy": -0.25201,
				"method": "rhf"
			},
			{
				"type": "occ",
				"energy": -0.21427,
				"method": "rhf"
			},
			{
				"type": "unocc",
				"energy": -0.05406,
				"method": "rhf"
			},
			{
				"type": "unocc",
				"energy": -0.02523,
				"method": "rhf"
			},
			{
				"type": "unocc",
				"energy": -0.00734,
				"method": "rhf"
			},
			{
				"type": "unocc",
				"energy": 0.00086,
				"method": "rhf"
			},
			{
				"type": "unocc",
				"energy": 0.02746,
				"method": "rhf"
			}
		],
		"cosmo_sigma_profile": { 
			"-0.025": 0.0,
			"-0.024": 0.0,
			"-0.023": 0.0,
			"-0.022": 0.0,
			"-0.021": 0.0,
			"-0.02": 0.0,
			"-0.019": 0.278553285859,
			"-0.018": 0.578122593863,
			"-0.017": 0.910688114337,
			"-0.016": 1.32202829189,
			"-0.015": 0.609198067762,
			"-0.014": 0.586284439976,
			"-0.013": 1.41707836823,
			"-0.012": 2.30223413993,
			"-0.011": 2.05973941187,
			"-0.01": 2.95812647347,
			"-0.009": 2.73222701284,
			"-0.008": 3.45797608887,
			"-0.007": 7.89742161481,
			"-0.006": 21.3257184791,
			"-0.005": 25.9939278976,
			"-0.004": 24.5798179572,
			"-0.003": 28.1342146203,
			"-0.002": 25.495752863,
			"-0.001": 19.219069478,
			"0.0": 20.4397817554,
			"0.001": 18.7116468473,
			"0.002": 20.5600231128,
			"0.003": 25.4444193356,
			"0.004": 19.2673920519,
			"0.005": 16.6686874432,
			"0.006": 9.37886998282,
			"0.007": 5.35919479193,
			"0.008": 4.9899178072,
			"0.009": 6.31972987419,
			"0.01": 7.59924223771,
			"0.011": 5.32526251407,
			"0.012": 4.67441985644,
			"0.013": 5.18541278078,
			"0.014": 2.34505679389,
			"0.015": 0.491186655977,
			"0.016": 0.0,
			"0.017": 0.0,
			"0.018": 0.0,
			"0.019": 0.0,
			"0.02": 0.0,
			"0.021": 0.0,
			"0.022": 0.0,
			"0.023": 0.0,
			"0.024": 0.0,
			"0.025": 0.0
		}
	}
}
