{
	 "smiles": "NC1=NN=C(CC2=CC3=C(C=CC=C3)C=C2)O1", 
	 "Tm": 493.15, 
	 "num_atms": 28, 
	 "gaussian": { 
		 "optdone": 1, 
		 "sigma_profile": "yes", 
		 "theory": "DFT", 
		 "functional": "B3LYP", 
		 "basiset": "6-31G**", 
		 "properties": { 
			 "R2extent": 5304.7864, 
			 "electric_dipole_moment_norm": 4.00162883836, 
			 "electric_quadrupole_moment_norm": 20.0515545305, 
			 "total_energy": -741.479778079, 
			 "HOMO_LUMO_gap": 0.17672, 
			 "cosmo_polarized_energy": -17.77, 
			 "cosmo_cavitation_energy": 33.1, 
			 "cosmo_dispersion_energy": -23.95, 
			 "cosmo_repulsion_energy": 1.85, 
			 "cosmo_total_nonelectrostatic_energy": 11.01, 
			 "SMD_solvation_energy": 3.49 
		},
		"coords": [
			{
				"x": -2.3872614916,
				"y": 4.4314055305,
				"z": -0.0278190478,
				"element": "N" 
			},
			{
				"x": -2.6714985432,
				"y": 3.0930749354,
				"z": 0.0251539071,
				"element": "C" 
			},
			{
				"x": -3.6137075774,
				"y": 2.4388682577,
				"z": -0.5848813929,
				"element": "N" 
			},
			{
				"x": -3.5165688476,
				"y": 1.1209385241,
				"z": -0.1073251502,
				"element": "N" 
			},
			{
				"x": -2.5330893592,
				"y": 1.0899010479,
				"z": 0.726963038,
				"element": "C" 
			},
			{
				"x": -1.9761691889,
				"y": -0.0693686112,
				"z": 1.4812204398,
				"element": "C" 
			},
			{
				"x": -0.6037239106,
				"y": -0.5055185354,
				"z": 0.9906834134,
				"element": "C" 
			},
			{
				"x": 0.4886310303,
				"y": -0.5061934822,
				"z": 1.83054122,
				"element": "C" 
			},
			{
				"x": 1.7703125528,
				"y": -0.9268954475,
				"z": 1.381544468,
				"element": "C" 
			},
			{
				"x": 1.9217550672,
				"y": -1.355829015,
				"z": 0.0233261005,
				"element": "C" 
			},
			{
				"x": 3.2016600818,
				"y": -1.7762445979,
				"z": -0.4265606151,
				"element": "C" 
			},
			{
				"x": 4.2842566113,
				"y": -1.7735370345,
				"z": 0.4248354378,
				"element": "C" 
			},
			{
				"x": 4.1349204338,
				"y": -1.3491093255,
				"z": 1.7679896057,
				"element": "C" 
			},
			{
				"x": 2.9066884221,
				"y": -0.9357549367,
				"z": 2.2342519622,
				"element": "C" 
			},
			{
				"x": 0.7802034941,
				"y": -1.3437616204,
				"z": -0.8245731084,
				"element": "C" 
			},
			{
				"x": -0.4446848743,
				"y": -0.9309464214,
				"z": -0.3576518909,
				"element": "C" 
			},
			{
				"x": -1.9345954052,
				"y": 2.3262995225,
				"z": 0.8709597812,
				"element": "O" 
			},
			{
				"x": -2.8329947277,
				"y": 4.8971073015,
				"z": -0.8063466935,
				"element": "H" 
			},
			{
				"x": -1.4123884067,
				"y": 4.6709108532,
				"z": 0.0912821876,
				"element": "H" 
			},
			{
				"x": -1.9278129778,
				"y": 0.1765805326,
				"z": 2.5476566507,
				"element": "H" 
			},
			{
				"x": -2.7001244392,
				"y": -0.8824222487,
				"z": 1.3637188331,
				"element": "H" 
			},
			{
				"x": 0.3807264577,
				"y": -0.1816354829,
				"z": 2.8633640078,
				"element": "H" 
			},
			{
				"x": 3.3125630755,
				"y": -2.101792324,
				"z": -1.4578409254,
				"element": "H" 
			},
			{
				"x": 5.2580197038,
				"y": -2.0977206293,
				"z": 0.0692640007,
				"element": "H" 
			},
			{
				"x": 4.9957239295,
				"y": -1.3516117382,
				"z": 2.4304587812,
				"element": "H" 
			},
			{
				"x": 2.7902879658,
				"y": -0.6101551353,
				"z": 3.2649545806,
				"element": "H" 
			},
			{
				"x": 0.8905146617,
				"y": -1.6694938218,
				"z": -1.8558528756,
				"element": "H" 
			},
			{
				"x": -1.3082437381,
				"y": -0.9216960974,
				"z": -1.0175167157,
				"element": "H" 
			}
		],
		 "valence_orbital": [ 
			{
				"type": "occ",
				"energy": -0.28615,
				"method": "rhf"
			},
			{
				"type": "occ",
				"energy": -0.26802,
				"method": "rhf"
			},
			{
				"type": "occ",
				"energy": -0.24432,
				"method": "rhf"
			},
			{
				"type": "occ",
				"energy": -0.23014,
				"method": "rhf"
			},
			{
				"type": "occ",
				"energy": -0.21802,
				"method": "rhf"
			},
			{
				"type": "unocc",
				"energy": -0.0413,
				"method": "rhf"
			},
			{
				"type": "unocc",
				"energy": -0.01366,
				"method": "rhf"
			},
			{
				"type": "unocc",
				"energy": 0.01038,
				"method": "rhf"
			},
			{
				"type": "unocc",
				"energy": 0.03089,
				"method": "rhf"
			},
			{
				"type": "unocc",
				"energy": 0.05378,
				"method": "rhf"
			}
		],
		"cosmo_sigma_profile": { 
			"-0.025": 0.0,
			"-0.024": 0.0,
			"-0.023": 0.0,
			"-0.022": 0.0,
			"-0.021": 0.0,
			"-0.02": 0.0,
			"-0.019": 0.0,
			"-0.018": 0.0,
			"-0.017": 0.0,
			"-0.016": 0.137341765508,
			"-0.015": 1.67501196301,
			"-0.014": 3.21760206994,
			"-0.013": 2.24977689155,
			"-0.012": 2.32343417487,
			"-0.011": 2.59219021639,
			"-0.01": 1.53737522725,
			"-0.009": 1.85245837724,
			"-0.008": 2.23010214061,
			"-0.007": 4.71912652263,
			"-0.006": 16.7538817192,
			"-0.005": 19.9285892672,
			"-0.004": 21.2429173593,
			"-0.003": 20.7205833991,
			"-0.002": 14.2301825554,
			"-0.001": 14.523513166,
			"0.0": 12.6416342031,
			"0.001": 12.5853777796,
			"0.002": 15.5232693676,
			"0.003": 17.4467281673,
			"0.004": 29.1887474177,
			"0.005": 16.804789789,
			"0.006": 4.49294172256,
			"0.007": 2.21894393851,
			"0.008": 2.40664831837,
			"0.009": 2.64170072468,
			"0.01": 2.70841621493,
			"0.011": 2.67742329735,
			"0.012": 3.02527050088,
			"0.013": 3.41284939098,
			"0.014": 3.05571426342,
			"0.015": 2.28789178724,
			"0.016": 1.60220104889,
			"0.017": 0.246437814747,
			"0.018": 0.0,
			"0.019": 0.0,
			"0.02": 0.0,
			"0.021": 0.0,
			"0.022": 0.0,
			"0.023": 0.0,
			"0.024": 0.0,
			"0.025": 0.0
		}
	}
}
