{
	 "smiles": "COC(=O)C1=CC=CC=C1S(=O)(=O)NC(=O)N(C)C1=NC(OC)=NC(C)=N1", 
	 "Tm": 415.15, 
	 "num_atms": 44, 
	 "gaussian": { 
		 "optdone": 1, 
		 "sigma_profile": "yes", 
		 "theory": "DFT", 
		 "functional": "B3LYP", 
		 "basiset": "6-31G**", 
		 "properties": { 
			 "R2extent": 10996.7958, 
			 "electric_dipole_moment_norm": 3.96372590122, 
			 "electric_quadrupole_moment_norm": 36.3377462947, 
			 "total_energy": -1705.07872526, 
			 "HOMO_LUMO_gap": 0.18945, 
			 "cosmo_polarized_energy": -27.44, 
			 "cosmo_cavitation_energy": 50.52, 
			 "cosmo_dispersion_energy": -33.51, 
			 "cosmo_repulsion_energy": 2.5, 
			 "cosmo_total_nonelectrostatic_energy": 19.51, 
			 "SMD_solvation_energy": 8.19 
		},
		"coords": [
			{
				"x": -3.4968328003,
				"y": -1.3927475594,
				"z": -3.99819805,
				"element": "C" 
			},
			{
				"x": -2.3520868735,
				"y": -0.5739521666,
				"z": -3.6949666545,
				"element": "O" 
			},
			{
				"x": -2.6115250843,
				"y": 0.49982663,
				"z": -2.9209607544,
				"element": "C" 
			},
			{
				"x": -3.7115346544,
				"y": 0.7792164236,
				"z": -2.499632024,
				"element": "O" 
			},
			{
				"x": -1.3824455366,
				"y": 1.3300367286,
				"z": -2.7001702102,
				"element": "C" 
			},
			{
				"x": -0.434046713,
				"y": 1.4103478205,
				"z": -3.7268646359,
				"element": "C" 
			},
			{
				"x": 0.6637104678,
				"y": 2.2640436743,
				"z": -3.6288351789,
				"element": "C" 
			},
			{
				"x": 0.8327350644,
				"y": 3.0416825904,
				"z": -2.4869149386,
				"element": "C" 
			},
			{
				"x": -0.0851611524,
				"y": 2.9549131291,
				"z": -1.4371974621,
				"element": "C" 
			},
			{
				"x": -1.186540137,
				"y": 2.1037291799,
				"z": -1.5368543417,
				"element": "C" 
			},
			{
				"x": -2.3501295202,
				"y": 1.9981918835,
				"z": -0.1393321136,
				"element": "S" 
			},
			{
				"x": -3.4274207219,
				"y": 2.9652267479,
				"z": -0.3129266992,
				"element": "O" 
			},
			{
				"x": -2.5724779803,
				"y": 0.5880644923,
				"z": 0.1527000139,
				"element": "O" 
			},
			{
				"x": -1.4722731586,
				"y": 2.6620898343,
				"z": 1.1840221412,
				"element": "N" 
			},
			{
				"x": -0.2343494416,
				"y": 2.2359207904,
				"z": 1.7246091157,
				"element": "C" 
			},
			{
				"x": 0.647056878,
				"y": 3.0492257904,
				"z": 1.9173324715,
				"element": "O" 
			},
			{
				"x": -0.1684481063,
				"y": 0.874565995,
				"z": 2.0491192076,
				"element": "N" 
			},
			{
				"x": -1.2884782283,
				"y": 0.2115244425,
				"z": 2.7493847605,
				"element": "C" 
			},
			{
				"x": 1.051819292,
				"y": 0.1996871707,
				"z": 1.994404474,
				"element": "C" 
			},
			{
				"x": 2.0174246239,
				"y": 0.7088744387,
				"z": 1.2161885615,
				"element": "N" 
			},
			{
				"x": 3.1340452209,
				"y": -0.0117710088,
				"z": 1.2031662389,
				"element": "C" 
			},
			{
				"x": 4.1758094598,
				"y": 0.4175947136,
				"z": 0.4888085586,
				"element": "O" 
			},
			{
				"x": 4.0325569542,
				"y": 1.6713878198,
				"z": -0.1929925935,
				"element": "C" 
			},
			{
				"x": 3.3448619139,
				"y": -1.1736622351,
				"z": 1.8441019171,
				"element": "N" 
			},
			{
				"x": 2.3019810141,
				"y": -1.5938010141,
				"z": 2.5587859631,
				"element": "C" 
			},
			{
				"x": 2.4348920456,
				"y": -2.8922387964,
				"z": 3.3018254023,
				"element": "C" 
			},
			{
				"x": 1.1289571555,
				"y": -0.9429112966,
				"z": 2.6800738707,
				"element": "N" 
			},
			{
				"x": -3.1162546987,
				"y": -2.2120993371,
				"z": -4.607227887,
				"element": "H" 
			},
			{
				"x": -3.9466658378,
				"y": -1.7704633022,
				"z": -3.0774226701,
				"element": "H" 
			},
			{
				"x": -4.2451545915,
				"y": -0.8167957542,
				"z": -4.5480867286,
				"element": "H" 
			},
			{
				"x": -0.5795828411,
				"y": 0.8023169865,
				"z": -4.611909826,
				"element": "H" 
			},
			{
				"x": 1.3792137524,
				"y": 2.3200905393,
				"z": -4.443274061,
				"element": "H" 
			},
			{
				"x": 1.6797437294,
				"y": 3.7146813888,
				"z": -2.3975638852,
				"element": "H" 
			},
			{
				"x": 0.0918217631,
				"y": 3.5339672939,
				"z": -0.5396612557,
				"element": "H" 
			},
			{
				"x": -1.5431992831,
				"y": 3.6755946933,
				"z": 1.1838264573,
				"element": "H" 
			},
			{
				"x": -0.9834904406,
				"y": -0.0241856962,
				"z": 3.7707405342,
				"element": "H" 
			},
			{
				"x": -2.1403666507,
				"y": 0.8850027201,
				"z": 2.7537920373,
				"element": "H" 
			},
			{
				"x": -1.5651635067,
				"y": -0.707061305,
				"z": 2.2339960649,
				"element": "H" 
			},
			{
				"x": 3.2553128937,
				"y": 1.6108201042,
				"z": -0.9597365582,
				"element": "H" 
			},
			{
				"x": 3.7723024381,
				"y": 2.4688007203,
				"z": 0.5073933877,
				"element": "H" 
			},
			{
				"x": 5.0048083612,
				"y": 1.8592745586,
				"z": -0.649451359,
				"element": "H" 
			},
			{
				"x": 2.2945467355,
				"y": -2.723940407,
				"z": 4.3744493024,
				"element": "H" 
			},
			{
				"x": 1.651030861,
				"y": -3.5866151308,
				"z": 2.9830036323,
				"element": "H" 
			},
			{
				"x": 3.4155973345,
				"y": -3.3332542909,
				"z": 3.1237557746,
				"element": "H" 
			}
		],
		 "valence_orbital": [ 
			{
				"type": "occ",
				"energy": -0.27925,
				"method": "rhf"
			},
			{
				"type": "occ",
				"energy": -0.27712,
				"method": "rhf"
			},
			{
				"type": "occ",
				"energy": -0.26983,
				"method": "rhf"
			},
			{
				"type": "occ",
				"energy": -0.26379,
				"method": "rhf"
			},
			{
				"type": "occ",
				"energy": -0.2577,
				"method": "rhf"
			},
			{
				"type": "unocc",
				"energy": -0.06825,
				"method": "rhf"
			},
			{
				"type": "unocc",
				"energy": -0.04787,
				"method": "rhf"
			},
			{
				"type": "unocc",
				"energy": -0.04119,
				"method": "rhf"
			},
			{
				"type": "unocc",
				"energy": -0.02392,
				"method": "rhf"
			},
			{
				"type": "unocc",
				"energy": 0.00254,
				"method": "rhf"
			}
		],
		"cosmo_sigma_profile": { 
			"-0.025": 0.0,
			"-0.024": 0.0,
			"-0.023": 0.0,
			"-0.022": 0.0,
			"-0.021": 0.0,
			"-0.02": 0.0,
			"-0.019": 0.0,
			"-0.018": 0.0,
			"-0.017": 0.154036219069,
			"-0.016": 1.14178403124,
			"-0.015": 0.995849331664,
			"-0.014": 1.07997021404,
			"-0.013": 1.34454791785,
			"-0.012": 0.917789628352,
			"-0.011": 0.644128502114,
			"-0.01": 0.691682311686,
			"-0.009": 1.19920521765,
			"-0.008": 4.53551931615,
			"-0.007": 13.4868941615,
			"-0.006": 21.4516921225,
			"-0.005": 31.1313947025,
			"-0.004": 41.5616822,
			"-0.003": 41.5539619562,
			"-0.002": 31.1100785629,
			"-0.001": 31.1147024706,
			"0.0": 27.4055174812,
			"0.001": 24.4497579331,
			"0.002": 14.2208000072,
			"0.003": 13.2729332688,
			"0.004": 11.3026185332,
			"0.005": 10.2734355234,
			"0.006": 8.4404087739,
			"0.007": 9.12167157564,
			"0.008": 10.4075824372,
			"0.009": 12.3883947532,
			"0.01": 15.3314263679,
			"0.011": 14.5953803741,
			"0.012": 4.59738980384,
			"0.013": 1.63792701677,
			"0.014": 1.06932548816,
			"0.015": 0.444183678463,
			"0.016": 0.0,
			"0.017": 0.0,
			"0.018": 0.0,
			"0.019": 0.0,
			"0.02": 0.0,
			"0.021": 0.0,
			"0.022": 0.0,
			"0.023": 0.0,
			"0.024": 0.0,
			"0.025": 0.0
		}
	}
}
