{
	 "smiles": "OC1=CC(=CC=C1)C(=O)NC1CC1", 
	 "Tm": 431.15, 
	 "num_atms": 24, 
	 "gaussian": { 
		 "optdone": 1, 
		 "sigma_profile": "yes", 
		 "theory": "DFT", 
		 "functional": "B3LYP", 
		 "basiset": "6-31G**", 
		 "properties": { 
			 "R2extent": 2760.7069, 
			 "electric_dipole_moment_norm": 4.50356024718, 
			 "electric_quadrupole_moment_norm": 18.5297717485, 
			 "total_energy": -592.866086266, 
			 "HOMO_LUMO_gap": 0.19702, 
			 "cosmo_polarized_energy": -16.53, 
			 "cosmo_cavitation_energy": 27.82, 
			 "cosmo_dispersion_energy": -19.9, 
			 "cosmo_repulsion_energy": 1.59, 
			 "cosmo_total_nonelectrostatic_energy": 9.51, 
			 "SMD_solvation_energy": 4.86 
		},
		"coords": [
			{
				"x": 1.2736335346,
				"y": 0.3634668408,
				"z": 4.0329889822,
				"element": "O" 
			},
			{
				"x": 0.3620205823,
				"y": 0.3019278333,
				"z": 3.0176212441,
				"element": "C" 
			},
			{
				"x": 0.8192340626,
				"y": -0.1270036942,
				"z": 1.7696821013,
				"element": "C" 
			},
			{
				"x": -0.058425621,
				"y": -0.1888089503,
				"z": 0.6836773667,
				"element": "C" 
			},
			{
				"x": -1.4102609112,
				"y": 0.144118683,
				"z": 0.8566721615,
				"element": "C" 
			},
			{
				"x": -1.8638793317,
				"y": 0.5499629048,
				"z": 2.1105348807,
				"element": "C" 
			},
			{
				"x": -0.9849993548,
				"y": 0.6417285927,
				"z": 3.190089385,
				"element": "C" 
			},
			{
				"x": 0.5062375738,
				"y": -0.7176160932,
				"z": -0.6066916518,
				"element": "C" 
			},
			{
				"x": 1.3833234388,
				"y": -1.5763545821,
				"z": -0.6036234069,
				"element": "O" 
			},
			{
				"x": 0.0179750047,
				"y": -0.2364812567,
				"z": -1.8024362575,
				"element": "N" 
			},
			{
				"x": -0.7546751872,
				"y": 0.9415549526,
				"z": -2.0815385932,
				"element": "C" 
			},
			{
				"x": -0.1713793873,
				"y": 1.9600448461,
				"z": -3.0340399416,
				"element": "C" 
			},
			{
				"x": -0.3008671181,
				"y": 2.2859900139,
				"z": -1.569593989,
				"element": "C" 
			},
			{
				"x": 0.8297503315,
				"y": 0.6492124984,
				"z": 4.8418501093,
				"element": "H" 
			},
			{
				"x": 1.8541441203,
				"y": -0.4240543621,
				"z": 1.6455597688,
				"element": "H" 
			},
			{
				"x": -2.1078227179,
				"y": 0.0606791901,
				"z": 0.0319289988,
				"element": "H" 
			},
			{
				"x": -2.912153676,
				"y": 0.7955284545,
				"z": 2.2541660361,
				"element": "H" 
			},
			{
				"x": -1.3444095942,
				"y": 0.9678578938,
				"z": 4.1640903674,
				"element": "H" 
			},
			{
				"x": 0.4417641042,
				"y": -0.7090487939,
				"z": -2.5916216978,
				"element": "H" 
			},
			{
				"x": -1.8310143732,
				"y": 0.7888006303,
				"z": -2.1547452561,
				"element": "H" 
			},
			{
				"x": 0.8258434298,
				"y": 1.7652408667,
				"z": -3.4175573619,
				"element": "H" 
			},
			{
				"x": -0.8438430751,
				"y": 2.4356373465,
				"z": -3.7410880587,
				"element": "H" 
			},
			{
				"x": -1.0656366871,
				"y": 2.9878457308,
				"z": -1.2527194783,
				"element": "H" 
			},
			{
				"x": 0.6052408523,
				"y": 2.3082704542,
				"z": -0.9740057094,
				"element": "H" 
			}
		],
		 "valence_orbital": [ 
			{
				"type": "occ",
				"energy": -0.30598,
				"method": "rhf"
			},
			{
				"type": "occ",
				"energy": -0.25941,
				"method": "rhf"
			},
			{
				"type": "occ",
				"energy": -0.24717,
				"method": "rhf"
			},
			{
				"type": "occ",
				"energy": -0.23716,
				"method": "rhf"
			},
			{
				"type": "occ",
				"energy": -0.22528,
				"method": "rhf"
			},
			{
				"type": "unocc",
				"energy": -0.02826,
				"method": "rhf"
			},
			{
				"type": "unocc",
				"energy": 0.00583,
				"method": "rhf"
			},
			{
				"type": "unocc",
				"energy": 0.06055,
				"method": "rhf"
			},
			{
				"type": "unocc",
				"energy": 0.06813,
				"method": "rhf"
			},
			{
				"type": "unocc",
				"energy": 0.08422,
				"method": "rhf"
			}
		],
		"cosmo_sigma_profile": { 
			"-0.025": 0.0,
			"-0.024": 0.0,
			"-0.023": 0.0,
			"-0.022": 0.0,
			"-0.021": 0.0,
			"-0.02": 0.0,
			"-0.019": 0.0,
			"-0.018": 0.473237291556,
			"-0.017": 1.44549703772,
			"-0.016": 0.504386997453,
			"-0.015": 1.42559988228,
			"-0.014": 1.21432631773,
			"-0.013": 1.51042192285,
			"-0.012": 1.2828626364,
			"-0.011": 1.46743345796,
			"-0.01": 2.49140838905,
			"-0.009": 2.24466296318,
			"-0.008": 2.22170049709,
			"-0.007": 2.93222113917,
			"-0.006": 9.39089057908,
			"-0.005": 16.4317647516,
			"-0.004": 19.1781515356,
			"-0.003": 14.9033024847,
			"-0.002": 14.8309941312,
			"-0.001": 14.8487441039,
			"0.0": 13.7955313202,
			"0.001": 12.4687596741,
			"0.002": 13.9939511851,
			"0.003": 15.312588991,
			"0.004": 14.9083240921,
			"0.005": 10.5881280073,
			"0.006": 3.37351379359,
			"0.007": 2.92851477357,
			"0.008": 2.34077884937,
			"0.009": 3.09839451353,
			"0.01": 3.13110827877,
			"0.011": 3.15111907761,
			"0.012": 2.71607241115,
			"0.013": 3.68373813248,
			"0.014": 5.03136069009,
			"0.015": 0.904092085426,
			"0.016": 0.0,
			"0.017": 0.0,
			"0.018": 0.0,
			"0.019": 0.0,
			"0.02": 0.0,
			"0.021": 0.0,
			"0.022": 0.0,
			"0.023": 0.0,
			"0.024": 0.0,
			"0.025": 0.0
		}
	}
}
