{
	 "smiles": "CC1=CC=C(C=C1Br)[N+]([O-])=O", 
	 "Tm": 350.15, 
	 "num_atms": 17, 
	 "gaussian": { 
		 "optdone": 1, 
		 "sigma_profile": "yes", 
		 "theory": "DFT", 
		 "functional": "B3LYP", 
		 "basiset": "6-31G**", 
		 "properties": { 
			 "R2extent": 3570.9535, 
			 "electric_dipole_moment_norm": 4.55728039734, 
			 "electric_quadrupole_moment_norm": 8.35489082873, 
			 "total_energy": -3046.87036645, 
			 "HOMO_LUMO_gap": 0.17039, 
			 "cosmo_polarized_energy": -7.57, 
			 "cosmo_cavitation_energy": 24.18, 
			 "cosmo_dispersion_energy": -18.07, 
			 "cosmo_repulsion_energy": 1.44, 
			 "cosmo_total_nonelectrostatic_energy": 7.55, 
			 "SMD_solvation_energy": 5.42 
		},
		"coords": [
			{
				"x": 2.708959584,
				"y": -0.4763055825,
				"z": 1.3392958516,
				"element": "C" 
			},
			{
				"x": 1.2885381813,
				"y": -0.5662304265,
				"z": 0.8519587435,
				"element": "C" 
			},
			{
				"x": 1.0057461667,
				"y": -0.6143288692,
				"z": -0.522424058,
				"element": "C" 
			},
			{
				"x": -0.2946438391,
				"y": -0.6977402058,
				"z": -1.0091572881,
				"element": "C" 
			},
			{
				"x": -1.3411080958,
				"y": -0.7339773756,
				"z": -0.0924473021,
				"element": "C" 
			},
			{
				"x": -1.1193318958,
				"y": -0.689161136,
				"z": 1.2813781941,
				"element": "C" 
			},
			{
				"x": 0.1925634187,
				"y": -0.6059346101,
				"z": 1.7331024088,
				"element": "C" 
			},
			{
				"x": 0.4822198047,
				"y": -0.5452386173,
				"z": 3.6219378464,
				"element": "Br" 
			},
			{
				"x": -2.7252926556,
				"y": -0.8221219836,
				"z": -0.5819137221,
				"element": "N" 
			},
			{
				"x": -2.8945337449,
				"y": -0.860451324,
				"z": -1.8000408547,
				"element": "O" 
			},
			{
				"x": -3.6257609764,
				"y": -0.8524612532,
				"z": 0.2557566002,
				"element": "O" 
			},
			{
				"x": 3.4076429815,
				"y": -0.4575035363,
				"z": 0.5000771162,
				"element": "H" 
			},
			{
				"x": 2.8620445379,
				"y": 0.4261159786,
				"z": 1.9405304602,
				"element": "H" 
			},
			{
				"x": 2.9588517639,
				"y": -1.3271954146,
				"z": 1.9818114767,
				"element": "H" 
			},
			{
				"x": 1.8338804551,
				"y": -0.5851330833,
				"z": -1.2243238044,
				"element": "H" 
			},
			{
				"x": -0.5093764716,
				"y": -0.7346607734,
				"z": -2.0694542422,
				"element": "H" 
			},
			{
				"x": -1.9569992147,
				"y": -0.7192717871,
				"z": 1.9650125737,
				"element": "H" 
			}
		],
		 "valence_orbital": [ 
			{
				"type": "occ",
				"energy": -0.31337,
				"method": "rhf"
			},
			{
				"type": "occ",
				"energy": -0.30166,
				"method": "rhf"
			},
			{
				"type": "occ",
				"energy": -0.29538,
				"method": "rhf"
			},
			{
				"type": "occ",
				"energy": -0.28374,
				"method": "rhf"
			},
			{
				"type": "occ",
				"energy": -0.26438,
				"method": "rhf"
			},
			{
				"type": "unocc",
				"energy": -0.09399,
				"method": "rhf"
			},
			{
				"type": "unocc",
				"energy": -0.03778,
				"method": "rhf"
			},
			{
				"type": "unocc",
				"energy": -0.0093,
				"method": "rhf"
			},
			{
				"type": "unocc",
				"energy": -0.00673,
				"method": "rhf"
			},
			{
				"type": "unocc",
				"energy": 0.08734,
				"method": "rhf"
			}
		],
		"cosmo_sigma_profile": { 
			"-0.025": 0.0,
			"-0.024": 0.0,
			"-0.023": 0.0,
			"-0.022": 0.0,
			"-0.021": 0.0,
			"-0.02": 0.0,
			"-0.019": 0.0,
			"-0.018": 0.0,
			"-0.017": 0.0,
			"-0.016": 0.0,
			"-0.015": 0.0,
			"-0.014": 0.0,
			"-0.013": 0.0,
			"-0.012": 0.0,
			"-0.011": 0.0,
			"-0.01": 0.0,
			"-0.009": 0.0561717017564,
			"-0.008": 1.95018431803,
			"-0.007": 7.00705178851,
			"-0.006": 8.11901707221,
			"-0.005": 10.7993365892,
			"-0.004": 13.036379088,
			"-0.003": 14.8867361253,
			"-0.002": 18.9560447273,
			"-0.001": 23.315554384,
			"0.0": 23.0212305111,
			"0.001": 15.1498701769,
			"0.002": 11.9302201473,
			"0.003": 9.8806072135,
			"0.004": 9.28085906102,
			"0.005": 3.74488055061,
			"0.006": 4.10148198056,
			"0.007": 8.38271348469,
			"0.008": 6.84468658086,
			"0.009": 4.25769078237,
			"0.01": 2.21595996091,
			"0.011": 0.0459979407566,
			"0.012": 0.0,
			"0.013": 0.0,
			"0.014": 0.0,
			"0.015": 0.0,
			"0.016": 0.0,
			"0.017": 0.0,
			"0.018": 0.0,
			"0.019": 0.0,
			"0.02": 0.0,
			"0.021": 0.0,
			"0.022": 0.0,
			"0.023": 0.0,
			"0.024": 0.0,
			"0.025": 0.0
		}
	}
}
