{
	 "smiles": "OCC1=C(Cl)N=C2SC=CN12", 
	 "Tm": 448.15, 
	 "num_atms": 16, 
	 "gaussian": { 
		 "optdone": 1, 
		 "sigma_profile": "yes", 
		 "theory": "DFT", 
		 "functional": "B3LYP", 
		 "basiset": "6-31G**", 
		 "properties": { 
			 "R2extent": 3011.3825, 
			 "electric_dipole_moment_norm": 3.76192987043, 
			 "electric_quadrupole_moment_norm": 13.0821390751, 
			 "total_energy": -1274.71697309, 
			 "HOMO_LUMO_gap": 0.19941, 
			 "cosmo_polarized_energy": -12.0, 
			 "cosmo_cavitation_energy": 23.88, 
			 "cosmo_dispersion_energy": -18.42, 
			 "cosmo_repulsion_energy": 1.43, 
			 "cosmo_total_nonelectrostatic_energy": 6.89, 
			 "SMD_solvation_energy": 2.3 
		},
		"coords": [
			{
				"x": 2.4299231758,
				"y": 0.5067482245,
				"z": -0.4692545067,
				"element": "O" 
			},
			{
				"x": 1.2167289142,
				"y": -0.2336278942,
				"z": -0.6176736928,
				"element": "C" 
			},
			{
				"x": 0.4088705282,
				"y": -0.2736893485,
				"z": 0.6346429408,
				"element": "C" 
			},
			{
				"x": -0.2337470629,
				"y": -1.2784504277,
				"z": 1.3363551765,
				"element": "C" 
			},
			{
				"x": -0.2347702287,
				"y": -2.9597754397,
				"z": 0.9052691949,
				"element": "Cl" 
			},
			{
				"x": -0.9089953894,
				"y": -0.8398950432,
				"z": 2.4405624486,
				"element": "N" 
			},
			{
				"x": -0.6800474697,
				"y": 0.4561808085,
				"z": 2.4305771947,
				"element": "C" 
			},
			{
				"x": -1.1082571202,
				"y": 1.8168302774,
				"z": 3.4456709979,
				"element": "S" 
			},
			{
				"x": -0.1807976747,
				"y": 2.8790712051,
				"z": 2.3836637744,
				"element": "C" 
			},
			{
				"x": 0.39632189,
				"y": 2.2254907527,
				"z": 1.3512109946,
				"element": "C" 
			},
			{
				"x": 0.1028016409,
				"y": 0.86573168,
				"z": 1.3738456357,
				"element": "N" 
			},
			{
				"x": 2.9598620525,
				"y": 0.0632817373,
				"z": 0.2073246242,
				"element": "H" 
			},
			{
				"x": 0.674587681,
				"y": 0.2806719387,
				"z": -1.4203317602,
				"element": "H" 
			},
			{
				"x": 1.392813758,
				"y": -1.2642015243,
				"z": -0.9521980506,
				"element": "H" 
			},
			{
				"x": -0.1155048731,
				"y": 3.9344829055,
				"z": 2.6015858156,
				"element": "H" 
			},
			{
				"x": 1.0379101781,
				"y": 2.6223501479,
				"z": 0.5784492123,
				"element": "H" 
			}
		],
		 "valence_orbital": [ 
			{
				"type": "occ",
				"energy": -0.3195,
				"method": "rhf"
			},
			{
				"type": "occ",
				"energy": -0.2992,
				"method": "rhf"
			},
			{
				"type": "occ",
				"energy": -0.28906,
				"method": "rhf"
			},
			{
				"type": "occ",
				"energy": -0.23928,
				"method": "rhf"
			},
			{
				"type": "occ",
				"energy": -0.22405,
				"method": "rhf"
			},
			{
				"type": "unocc",
				"energy": -0.02464,
				"method": "rhf"
			},
			{
				"type": "unocc",
				"energy": -9e-05,
				"method": "rhf"
			},
			{
				"type": "unocc",
				"energy": 0.02435,
				"method": "rhf"
			},
			{
				"type": "unocc",
				"energy": 0.04295,
				"method": "rhf"
			},
			{
				"type": "unocc",
				"energy": 0.04364,
				"method": "rhf"
			}
		],
		"cosmo_sigma_profile": { 
			"-0.025": 0.0,
			"-0.024": 0.0,
			"-0.023": 0.0,
			"-0.022": 0.0,
			"-0.021": 0.0,
			"-0.02": 0.0,
			"-0.019": 0.0,
			"-0.018": 0.0,
			"-0.017": 0.00553254642712,
			"-0.016": 0.767442820698,
			"-0.015": 1.16955564839,
			"-0.014": 0.765419838503,
			"-0.013": 0.81284223387,
			"-0.012": 1.05125199563,
			"-0.011": 1.0293708707,
			"-0.01": 2.35714128322,
			"-0.009": 4.70170600971,
			"-0.008": 3.91071450257,
			"-0.007": 5.28663220868,
			"-0.006": 8.27616352349,
			"-0.005": 9.20545698281,
			"-0.004": 8.96817312837,
			"-0.003": 10.3443950357,
			"-0.002": 13.3700350931,
			"-0.001": 14.9200643711,
			"0.0": 16.5323890542,
			"0.001": 17.4011887096,
			"0.002": 17.7627371534,
			"0.003": 14.9243417877,
			"0.004": 12.2942637172,
			"0.005": 7.55145710511,
			"0.006": 3.49558022609,
			"0.007": 2.89877588269,
			"0.008": 1.77598694875,
			"0.009": 2.65248607262,
			"0.01": 2.77971591135,
			"0.011": 1.66427322568,
			"0.012": 2.27743186102,
			"0.013": 2.67792734974,
			"0.014": 1.57175657781,
			"0.015": 0.696542359449,
			"0.016": 0.474186272748,
			"0.017": 0.0,
			"0.018": 0.0,
			"0.019": 0.0,
			"0.02": 0.0,
			"0.021": 0.0,
			"0.022": 0.0,
			"0.023": 0.0,
			"0.024": 0.0,
			"0.025": 0.0
		}
	}
}
