{
	 "smiles": "NC1=NC(CC2=CC=CC=C2)=NS1", 
	 "Tm": 407.15, 
	 "num_atms": 22, 
	 "gaussian": { 
		 "optdone": 1, 
		 "sigma_profile": "yes", 
		 "theory": "DFT", 
		 "functional": "B3LYP", 
		 "basiset": "6-31G**", 
		 "properties": { 
			 "R2extent": 3220.4295, 
			 "electric_dipole_moment_norm": 3.42272190807, 
			 "electric_quadrupole_moment_norm": 15.6021386717, 
			 "total_energy": -910.826070036, 
			 "HOMO_LUMO_gap": 0.21508, 
			 "cosmo_polarized_energy": -14.43, 
			 "cosmo_cavitation_energy": 28.39, 
			 "cosmo_dispersion_energy": -20.99, 
			 "cosmo_repulsion_energy": 1.64, 
			 "cosmo_total_nonelectrostatic_energy": 9.04, 
			 "SMD_solvation_energy": 1.43 
		},
		"coords": [
			{
				"x": 1.2609107602,
				"y": -0.9655303559,
				"z": -3.3583451708,
				"element": "N" 
			},
			{
				"x": 0.4635350893,
				"y": -0.1357493028,
				"z": -2.6294362106,
				"element": "C" 
			},
			{
				"x": 0.8470285541,
				"y": 0.4703346195,
				"z": -1.5337390277,
				"element": "N" 
			},
			{
				"x": -0.2129770262,
				"y": 1.1840933304,
				"z": -1.0246780507,
				"element": "C" 
			},
			{
				"x": -0.0403469678,
				"y": 1.9530999539,
				"z": 0.2614681284,
				"element": "C" 
			},
			{
				"x": 0.0323181691,
				"y": 1.0436893672,
				"z": 1.4783821904,
				"element": "C" 
			},
			{
				"x": -1.1074307108,
				"y": 0.3497945117,
				"z": 1.9076968038,
				"element": "C" 
			},
			{
				"x": -1.0526955854,
				"y": -0.4852859152,
				"z": 3.0230081275,
				"element": "C" 
			},
			{
				"x": 0.144925977,
				"y": -0.6404853623,
				"z": 3.7258443225,
				"element": "C" 
			},
			{
				"x": 1.2851894011,
				"y": 0.0436103017,
				"z": 3.3037275925,
				"element": "C" 
			},
			{
				"x": 1.2276140543,
				"y": 0.8788112185,
				"z": 2.1857663675,
				"element": "C" 
			},
			{
				"x": -1.3736989919,
				"y": 1.1863530322,
				"z": -1.6399073373,
				"element": "N" 
			},
			{
				"x": -1.2241768395,
				"y": 0.1962522588,
				"z": -3.0098624467,
				"element": "S" 
			},
			{
				"x": 2.2442875452,
				"y": -0.9285086408,
				"z": -3.1300230718,
				"element": "H" 
			},
			{
				"x": 1.0359304611,
				"y": -1.1392408462,
				"z": -4.3252636493,
				"element": "H" 
			},
			{
				"x": -0.8844954409,
				"y": 2.6423753119,
				"z": 0.3522863487,
				"element": "H" 
			},
			{
				"x": 0.8765527579,
				"y": 2.546868049,
				"z": 0.1898415462,
				"element": "H" 
			},
			{
				"x": -2.0382914344,
				"y": 0.4651045652,
				"z": 1.3581782391,
				"element": "H" 
			},
			{
				"x": -1.9454166944,
				"y": -1.0143694628,
				"z": 3.3450667239,
				"element": "H" 
			},
			{
				"x": 0.1875133959,
				"y": -1.2894332958,
				"z": 4.5960115764,
				"element": "H" 
			},
			{
				"x": 2.2212163413,
				"y": -0.0714305776,
				"z": 3.8433916158,
				"element": "H" 
			},
			{
				"x": 2.119207185,
				"y": 1.4077472393,
				"z": 1.8588853821,
				"element": "H" 
			}
		],
		 "valence_orbital": [ 
			{
				"type": "occ",
				"energy": -0.27856,
				"method": "rhf"
			},
			{
				"type": "occ",
				"energy": -0.27134,
				"method": "rhf"
			},
			{
				"type": "occ",
				"energy": -0.2425,
				"method": "rhf"
			},
			{
				"type": "occ",
				"energy": -0.23724,
				"method": "rhf"
			},
			{
				"type": "occ",
				"energy": -0.23126,
				"method": "rhf"
			},
			{
				"type": "unocc",
				"energy": -0.01618,
				"method": "rhf"
			},
			{
				"type": "unocc",
				"energy": -0.00373,
				"method": "rhf"
			},
			{
				"type": "unocc",
				"energy": 0.00542,
				"method": "rhf"
			},
			{
				"type": "unocc",
				"energy": 0.01108,
				"method": "rhf"
			},
			{
				"type": "unocc",
				"energy": 0.05475,
				"method": "rhf"
			}
		],
		"cosmo_sigma_profile": { 
			"-0.025": 0.0,
			"-0.024": 0.0,
			"-0.023": 0.0,
			"-0.022": 0.0,
			"-0.021": 0.0,
			"-0.02": 0.0,
			"-0.019": 0.0,
			"-0.018": 0.0,
			"-0.017": 0.0,
			"-0.016": 0.556686395685,
			"-0.015": 2.07308135236,
			"-0.014": 3.30903730285,
			"-0.013": 2.02609436659,
			"-0.012": 2.83754665495,
			"-0.011": 3.07296515875,
			"-0.01": 1.55798806823,
			"-0.009": 2.0279140421,
			"-0.008": 1.74896018561,
			"-0.007": 1.51463778492,
			"-0.006": 5.75583743601,
			"-0.005": 15.110337492,
			"-0.004": 15.5947714592,
			"-0.003": 16.2966966665,
			"-0.002": 14.6001694547,
			"-0.001": 16.1883183802,
			"0.0": 15.3936291802,
			"0.001": 16.1855037729,
			"0.002": 15.1865797781,
			"0.003": 16.2261810871,
			"0.004": 15.4703098622,
			"0.005": 12.521702581,
			"0.006": 12.6933208081,
			"0.007": 5.30554248652,
			"0.008": 3.20119690321,
			"0.009": 2.76596839059,
			"0.01": 2.13201773612,
			"0.011": 1.93083402999,
			"0.012": 1.69863525263,
			"0.013": 1.85841057052,
			"0.014": 1.33804082377,
			"0.015": 0.823557747921,
			"0.016": 0.044259795505,
			"0.017": 0.0,
			"0.018": 0.0,
			"0.019": 0.0,
			"0.02": 0.0,
			"0.021": 0.0,
			"0.022": 0.0,
			"0.023": 0.0,
			"0.024": 0.0,
			"0.025": 0.0
		}
	}
}
