{
	 "smiles": "COC1=CC=C(Cl)C=C1C#N", 
	 "Tm": 373.15, 
	 "num_atms": 17, 
	 "gaussian": { 
		 "optdone": 1, 
		 "sigma_profile": "yes", 
		 "theory": "DFT", 
		 "functional": "B3LYP", 
		 "basiset": "6-31G**", 
		 "properties": { 
			 "R2extent": 3108.6862, 
			 "electric_dipole_moment_norm": 5.3111558083, 
			 "electric_quadrupole_moment_norm": 8.64585602644, 
			 "total_energy": -898.603703476, 
			 "HOMO_LUMO_gap": 0.18254, 
			 "cosmo_polarized_energy": -11.43, 
			 "cosmo_cavitation_energy": 24.37, 
			 "cosmo_dispersion_energy": -17.5, 
			 "cosmo_repulsion_energy": 1.42, 
			 "cosmo_total_nonelectrostatic_energy": 8.28, 
			 "SMD_solvation_energy": 6.12 
		},
		"coords": [
			{
				"x": 0.6742450156,
				"y": -0.907546832,
				"z": 1.5928783731,
				"element": "C" 
			},
			{
				"x": 0.530124909,
				"y": -0.9154437935,
				"z": 0.1768140443,
				"element": "O" 
			},
			{
				"x": -0.0304881243,
				"y": 0.1555673384,
				"z": -0.4275979989,
				"element": "C" 
			},
			{
				"x": -0.4930771803,
				"y": 1.2994055287,
				"z": 0.2330669795,
				"element": "C" 
			},
			{
				"x": -1.0571005681,
				"y": 2.3518087066,
				"z": -0.4885660618,
				"element": "C" 
			},
			{
				"x": -1.1639637923,
				"y": 2.2709015685,
				"z": -1.8758407273,
				"element": "C" 
			},
			{
				"x": -1.874494882,
				"y": 3.5988262542,
				"z": -2.7758219826,
				"element": "Cl" 
			},
			{
				"x": -0.711301293,
				"y": 1.1441847465,
				"z": -2.554965623,
				"element": "C" 
			},
			{
				"x": -0.1434763745,
				"y": 0.0827665076,
				"z": -1.837079618,
				"element": "C" 
			},
			{
				"x": 0.3227335482,
				"y": -1.0770934715,
				"z": -2.5344423598,
				"element": "C" 
			},
			{
				"x": 0.6929647517,
				"y": -2.0068837303,
				"z": -3.1270659185,
				"element": "N" 
			},
			{
				"x": -0.2988776704,
				"y": -0.8358442058,
				"z": 2.0933831721,
				"element": "H" 
			},
			{
				"x": 1.1425937341,
				"y": -1.8584885178,
				"z": 1.8465149547,
				"element": "H" 
			},
			{
				"x": 1.3183893255,
				"y": -0.0843307494,
				"z": 1.9245502543,
				"element": "H" 
			},
			{
				"x": -0.4186509896,
				"y": 1.3806640022,
				"z": 1.3102716317,
				"element": "H" 
			},
			{
				"x": -1.4132572577,
				"y": 3.2348420704,
				"z": 0.0304759178,
				"element": "H" 
			},
			{
				"x": -0.792963152,
				"y": 1.0782645772,
				"z": -3.6333750378,
				"element": "H" 
			}
		],
		 "valence_orbital": [ 
			{
				"type": "occ",
				"energy": -0.33142,
				"method": "rhf"
			},
			{
				"type": "occ",
				"energy": -0.32359,
				"method": "rhf"
			},
			{
				"type": "occ",
				"energy": -0.32061,
				"method": "rhf"
			},
			{
				"type": "occ",
				"energy": -0.27822,
				"method": "rhf"
			},
			{
				"type": "occ",
				"energy": -0.24128,
				"method": "rhf"
			},
			{
				"type": "unocc",
				"energy": -0.05874,
				"method": "rhf"
			},
			{
				"type": "unocc",
				"energy": -0.02189,
				"method": "rhf"
			},
			{
				"type": "unocc",
				"energy": 0.01457,
				"method": "rhf"
			},
			{
				"type": "unocc",
				"energy": 0.03581,
				"method": "rhf"
			},
			{
				"type": "unocc",
				"energy": 0.07119,
				"method": "rhf"
			}
		],
		"cosmo_sigma_profile": { 
			"-0.025": 0.0,
			"-0.024": 0.0,
			"-0.023": 0.0,
			"-0.022": 0.0,
			"-0.021": 0.0,
			"-0.02": 0.0,
			"-0.019": 0.0,
			"-0.018": 0.0,
			"-0.017": 0.0,
			"-0.016": 0.0,
			"-0.015": 0.0,
			"-0.014": 0.0,
			"-0.013": 0.0,
			"-0.012": 0.0,
			"-0.011": 0.0,
			"-0.01": 0.0853392398674,
			"-0.009": 1.93682650828,
			"-0.008": 6.41411721813,
			"-0.007": 9.95973963346,
			"-0.006": 13.729128346,
			"-0.005": 12.4643219353,
			"-0.004": 12.6126064184,
			"-0.003": 9.64652816172,
			"-0.002": 10.9989948905,
			"-0.001": 15.5145356155,
			"0.0": 18.9337047037,
			"0.001": 18.5087092693,
			"0.002": 11.6623341853,
			"0.003": 9.37759158197,
			"0.004": 12.8889016534,
			"0.005": 6.40926733185,
			"0.006": 4.38952841538,
			"0.007": 4.84013537909,
			"0.008": 5.15266585126,
			"0.009": 3.69710161095,
			"0.01": 3.13949870829,
			"0.011": 2.8338281802,
			"0.012": 2.34652974531,
			"0.013": 1.40523124456,
			"0.014": 0.0385979791947,
			"0.015": 0.0,
			"0.016": 0.0,
			"0.017": 0.0,
			"0.018": 0.0,
			"0.019": 0.0,
			"0.02": 0.0,
			"0.021": 0.0,
			"0.022": 0.0,
			"0.023": 0.0,
			"0.024": 0.0,
			"0.025": 0.0
		}
	}
}
