{
	 "smiles": "CC1=CC(C)=C(C=CC(O)=O)C=C1", 
	 "Tm": 456.15, 
	 "num_atms": 25, 
	 "gaussian": { 
		 "optdone": 1, 
		 "sigma_profile": "yes", 
		 "theory": "DFT", 
		 "functional": "B3LYP", 
		 "basiset": "6-31G**", 
		 "properties": { 
			 "R2extent": 3579.69, 
			 "electric_dipole_moment_norm": 2.66989490617, 
			 "electric_quadrupole_moment_norm": 8.78976958913, 
			 "total_energy": -576.869222811, 
			 "HOMO_LUMO_gap": 0.16152, 
			 "cosmo_polarized_energy": -10.39, 
			 "cosmo_cavitation_energy": 29.27, 
			 "cosmo_dispersion_energy": -21.03, 
			 "cosmo_repulsion_energy": 1.67, 
			 "cosmo_total_nonelectrostatic_energy": 9.91, 
			 "SMD_solvation_energy": 6.41 
		},
		"coords": [
			{
				"x": 1.1215766642,
				"y": -3.9694177266,
				"z": -1.0737407229,
				"element": "C" 
			},
			{
				"x": 0.6499476928,
				"y": -2.5953262667,
				"z": -0.6653436363,
				"element": "C" 
			},
			{
				"x": -0.4774050837,
				"y": -2.4265047789,
				"z": 0.1441961602,
				"element": "C" 
			},
			{
				"x": -0.93218717,
				"y": -1.1684572119,
				"z": 0.5547997657,
				"element": "C" 
			},
			{
				"x": -2.1611332692,
				"y": -1.0815328512,
				"z": 1.4328084748,
				"element": "C" 
			},
			{
				"x": -0.2223268741,
				"y": -0.0147050078,
				"z": 0.1357994792,
				"element": "C" 
			},
			{
				"x": -0.6702029245,
				"y": 1.3144534571,
				"z": 0.5479575192,
				"element": "C" 
			},
			{
				"x": -0.0673122831,
				"y": 2.49866744,
				"z": 0.3212162648,
				"element": "C" 
			},
			{
				"x": -0.6850265045,
				"y": 3.7394467667,
				"z": 0.818544174,
				"element": "C" 
			},
			{
				"x": 0.0617048954,
				"y": 4.8309929267,
				"z": 0.4995146294,
				"element": "O" 
			},
			{
				"x": -1.7280639103,
				"y": 3.8308828725,
				"z": 1.440897548,
				"element": "O" 
			},
			{
				"x": 0.9104906714,
				"y": -0.1872532142,
				"z": -0.6845788088,
				"element": "C" 
			},
			{
				"x": 1.3398664816,
				"y": -1.4455211492,
				"z": -1.0783469871,
				"element": "C" 
			},
			{
				"x": 2.0440270316,
				"y": -4.2431815435,
				"z": -0.5468277909,
				"element": "H" 
			},
			{
				"x": 0.3732633558,
				"y": -4.7342111163,
				"z": -0.8489572975,
				"element": "H" 
			},
			{
				"x": 1.3405601428,
				"y": -4.0135534717,
				"z": -2.1460382496,
				"element": "H" 
			},
			{
				"x": -1.0256360282,
				"y": -3.3080603062,
				"z": 0.4689322565,
				"element": "H" 
			},
			{
				"x": -2.9640324725,
				"y": -0.5061959963,
				"z": 0.9583087188,
				"element": "H" 
			},
			{
				"x": -1.9452865168,
				"y": -0.6007175864,
				"z": 2.3932231119,
				"element": "H" 
			},
			{
				"x": -2.5525695711,
				"y": -2.0797190674,
				"z": 1.6440093053,
				"element": "H" 
			},
			{
				"x": -1.5992129844,
				"y": 1.3707691581,
				"z": 1.1090567353,
				"element": "H" 
			},
			{
				"x": 0.8706915127,
				"y": 2.6026275812,
				"z": -0.2131594254,
				"element": "H" 
			},
			{
				"x": -0.4183208476,
				"y": 5.5925564209,
				"z": 0.8643773754,
				"element": "H" 
			},
			{
				"x": 1.4575185746,
				"y": 0.6856025675,
				"z": -1.0268674435,
				"element": "H" 
			},
			{
				"x": 2.2156694171,
				"y": -1.5410418964,
				"z": -1.7152811564,
				"element": "H" 
			}
		],
		 "valence_orbital": [ 
			{
				"type": "occ",
				"energy": -0.31223,
				"method": "rhf"
			},
			{
				"type": "occ",
				"energy": -0.29475,
				"method": "rhf"
			},
			{
				"type": "occ",
				"energy": -0.26736,
				"method": "rhf"
			},
			{
				"type": "occ",
				"energy": -0.25043,
				"method": "rhf"
			},
			{
				"type": "occ",
				"energy": -0.22557,
				"method": "rhf"
			},
			{
				"type": "unocc",
				"energy": -0.06405,
				"method": "rhf"
			},
			{
				"type": "unocc",
				"energy": -0.00411,
				"method": "rhf"
			},
			{
				"type": "unocc",
				"energy": 0.02411,
				"method": "rhf"
			},
			{
				"type": "unocc",
				"energy": 0.08989,
				"method": "rhf"
			},
			{
				"type": "unocc",
				"energy": 0.09434,
				"method": "rhf"
			}
		],
		"cosmo_sigma_profile": { 
			"-0.025": 0.0,
			"-0.024": 0.0,
			"-0.023": 0.0,
			"-0.022": 0.0,
			"-0.021": 0.0,
			"-0.02": 0.0,
			"-0.019": 0.0,
			"-0.018": 0.258623679318,
			"-0.017": 0.956815098562,
			"-0.016": 0.884119655019,
			"-0.015": 0.698539314849,
			"-0.014": 0.757915302233,
			"-0.013": 0.766385826896,
			"-0.012": 0.698211549286,
			"-0.011": 0.527703834301,
			"-0.01": 0.925714033412,
			"-0.009": 0.760858427797,
			"-0.008": 1.84916334754,
			"-0.007": 3.11654146903,
			"-0.006": 3.69555384934,
			"-0.005": 15.3141951849,
			"-0.004": 22.5546907141,
			"-0.003": 18.1099341812,
			"-0.002": 19.6804161882,
			"-0.001": 21.6361351971,
			"0.0": 24.0566517455,
			"0.001": 16.5323541591,
			"0.002": 14.5608988026,
			"0.003": 15.4786816862,
			"0.004": 12.7401314672,
			"0.005": 11.2630329903,
			"0.006": 3.27110045479,
			"0.007": 2.62385234133,
			"0.008": 2.26905120999,
			"0.009": 3.23104676154,
			"0.01": 3.31926959077,
			"0.011": 2.01893896455,
			"0.012": 4.86275900867,
			"0.013": 2.6476243913,
			"0.014": 0.0,
			"0.015": 0.0,
			"0.016": 0.0,
			"0.017": 0.0,
			"0.018": 0.0,
			"0.019": 0.0,
			"0.02": 0.0,
			"0.021": 0.0,
			"0.022": 0.0,
			"0.023": 0.0,
			"0.024": 0.0,
			"0.025": 0.0
		}
	}
}
