{
	 "smiles": "COC1=CC=C(C=C1)S(=O)(=O)N1CCC(CC1)=NO", 
	 "Tm": 438.15, 
	 "num_atms": 35, 
	 "gaussian": { 
		 "optdone": 1, 
		 "sigma_profile": "yes", 
		 "theory": "DFT", 
		 "functional": "B3LYP", 
		 "basiset": "6-31G**", 
		 "properties": { 
			 "R2extent": 6330.1238, 
			 "electric_dipole_moment_norm": 5.94947206565, 
			 "electric_quadrupole_moment_norm": 13.4589289774, 
			 "total_energy": -1275.36283356, 
			 "HOMO_LUMO_gap": 0.20534, 
			 "cosmo_polarized_energy": -20.24, 
			 "cosmo_cavitation_energy": 38.9, 
			 "cosmo_dispersion_energy": -27.71, 
			 "cosmo_repulsion_energy": 2.12, 
			 "cosmo_total_nonelectrostatic_energy": 13.31, 
			 "SMD_solvation_energy": 5.19 
		},
		"coords": [
			{
				"x": 4.5628843417,
				"y": 2.1023196212,
				"z": -2.185417377,
				"element": "C" 
			},
			{
				"x": 3.5877258445,
				"y": 1.1688694417,
				"z": -2.6312184738,
				"element": "O" 
			},
			{
				"x": 2.4310351202,
				"y": 1.051206006,
				"z": -1.9290818045,
				"element": "C" 
			},
			{
				"x": 1.5063338117,
				"y": 0.1223304351,
				"z": -2.4353027612,
				"element": "C" 
			},
			{
				"x": 0.2924758992,
				"y": -0.0765784377,
				"z": -1.7933031036,
				"element": "C" 
			},
			{
				"x": -0.0072669851,
				"y": 0.6506292767,
				"z": -0.6328574107,
				"element": "C" 
			},
			{
				"x": 0.9004899511,
				"y": 1.5860517531,
				"z": -0.134205809,
				"element": "C" 
			},
			{
				"x": 2.1213485842,
				"y": 1.7898821927,
				"z": -0.7772015526,
				"element": "C" 
			},
			{
				"x": -1.5516192726,
				"y": 0.3618818118,
				"z": 0.2306593653,
				"element": "S" 
			},
			{
				"x": -1.8645141815,
				"y": 1.5814524408,
				"z": 0.9816325819,
				"element": "O" 
			},
			{
				"x": -2.4789261385,
				"y": -0.22443395,
				"z": -0.7401441918,
				"element": "O" 
			},
			{
				"x": -1.2725306661,
				"y": -0.8363770248,
				"z": 1.371574125,
				"element": "N" 
			},
			{
				"x": -1.0777795156,
				"y": -2.2093492951,
				"z": 0.8567749149,
				"element": "C" 
			},
			{
				"x": -0.5991578436,
				"y": -3.1303692417,
				"z": 1.988093256,
				"element": "C" 
			},
			{
				"x": 0.6671156741,
				"y": -2.5895786551,
				"z": 2.6033089934,
				"element": "C" 
			},
			{
				"x": 0.707562638,
				"y": -1.1037727102,
				"z": 2.876481416,
				"element": "C" 
			},
			{
				"x": -0.6779173004,
				"y": -0.480206935,
				"z": 2.672851476,
				"element": "C" 
			},
			{
				"x": 1.6267920732,
				"y": -3.4088420671,
				"z": 2.81726837,
				"element": "N" 
			},
			{
				"x": 2.7407977987,
				"y": -2.7473271918,
				"z": 3.3784366536,
				"element": "O" 
			},
			{
				"x": 4.1734787957,
				"y": 3.1278109559,
				"z": -2.1965023362,
				"element": "H" 
			},
			{
				"x": 5.3933930958,
				"y": 2.025482531,
				"z": -2.8880954959,
				"element": "H" 
			},
			{
				"x": 4.9194697474,
				"y": 1.8614898917,
				"z": -1.1762429012,
				"element": "H" 
			},
			{
				"x": 1.761224293,
				"y": -0.4211181568,
				"z": -3.3388756857,
				"element": "H" 
			},
			{
				"x": -0.439286235,
				"y": -0.7672931035,
				"z": -2.1971984935,
				"element": "H" 
			},
			{
				"x": 0.6404071031,
				"y": 2.1751736118,
				"z": 0.7386274428,
				"element": "H" 
			},
			{
				"x": 2.8109313388,
				"y": 2.5269705408,
				"z": -0.3842518793,
				"element": "H" 
			},
			{
				"x": -0.3267608593,
				"y": -2.2213472318,
				"z": 0.0533860942,
				"element": "H" 
			},
			{
				"x": -2.0202095421,
				"y": -2.5686953156,
				"z": 0.4368807657,
				"element": "H" 
			},
			{
				"x": -0.4260764309,
				"y": -4.1379298241,
				"z": 1.6028369154,
				"element": "H" 
			},
			{
				"x": -1.3853926358,
				"y": -3.2027050722,
				"z": 2.7516893819,
				"element": "H" 
			},
			{
				"x": 1.0669391358,
				"y": -0.9227896048,
				"z": 3.8960941013,
				"element": "H" 
			},
			{
				"x": 1.4451716393,
				"y": -0.6397264401,
				"z": 2.2087445902,
				"element": "H" 
			},
			{
				"x": -1.3572223667,
				"y": -0.8182526418,
				"z": 3.4656514792,
				"element": "H" 
			},
			{
				"x": -0.6444371281,
				"y": 0.6071599145,
				"z": 2.7437630954,
				"element": "H" 
			},
			{
				"x": 3.3672202159,
				"y": -3.4735175256,
				"z": 3.4945442581,
				"element": "H" 
			}
		],
		 "valence_orbital": [ 
			{
				"type": "occ",
				"energy": -0.27424,
				"method": "rhf"
			},
			{
				"type": "occ",
				"energy": -0.27113,
				"method": "rhf"
			},
			{
				"type": "occ",
				"energy": -0.25636,
				"method": "rhf"
			},
			{
				"type": "occ",
				"energy": -0.25106,
				"method": "rhf"
			},
			{
				"type": "occ",
				"energy": -0.23168,
				"method": "rhf"
			},
			{
				"type": "unocc",
				"energy": -0.02634,
				"method": "rhf"
			},
			{
				"type": "unocc",
				"energy": -0.02031,
				"method": "rhf"
			},
			{
				"type": "unocc",
				"energy": 0.00197,
				"method": "rhf"
			},
			{
				"type": "unocc",
				"energy": 0.06162,
				"method": "rhf"
			},
			{
				"type": "unocc",
				"energy": 0.07376,
				"method": "rhf"
			}
		],
		"cosmo_sigma_profile": { 
			"-0.025": 0.0,
			"-0.024": 0.0,
			"-0.023": 0.0,
			"-0.022": 0.0,
			"-0.021": 0.0,
			"-0.02": 0.0,
			"-0.019": 0.0,
			"-0.018": 0.0,
			"-0.017": 0.399868741902,
			"-0.016": 1.20206710174,
			"-0.015": 0.82726895875,
			"-0.014": 0.772142913154,
			"-0.013": 0.719902484522,
			"-0.012": 0.840990680449,
			"-0.011": 0.372763547567,
			"-0.01": 0.963566777213,
			"-0.009": 0.940934943311,
			"-0.008": 0.695163648385,
			"-0.007": 7.12612818474,
			"-0.006": 22.5185096225,
			"-0.005": 32.9662449349,
			"-0.004": 35.0449758475,
			"-0.003": 29.7679458135,
			"-0.002": 18.2984802503,
			"-0.001": 13.1706371669,
			"0.0": 11.6053646966,
			"0.001": 13.4375272342,
			"0.002": 20.2289429771,
			"0.003": 17.3597859675,
			"0.004": 8.64733945134,
			"0.005": 9.79071929339,
			"0.006": 9.34728816482,
			"0.007": 7.70165117431,
			"0.008": 8.36649773466,
			"0.009": 7.97209245254,
			"0.01": 9.6848550322,
			"0.011": 8.81689622612,
			"0.012": 6.07929549285,
			"0.013": 0.937702063082,
			"0.014": 0.558189819808,
			"0.015": 0.0,
			"0.016": 0.0,
			"0.017": 0.0,
			"0.018": 0.0,
			"0.019": 0.0,
			"0.02": 0.0,
			"0.021": 0.0,
			"0.022": 0.0,
			"0.023": 0.0,
			"0.024": 0.0,
			"0.025": 0.0
		}
	}
}
