{
	 "smiles": "COC1=C(C=C(C=C1)S(Cl)(=O)=O)C(O)=O", 
	 "Tm": 416.15, 
	 "num_atms": 22, 
	 "gaussian": { 
		 "optdone": 1, 
		 "sigma_profile": "yes", 
		 "theory": "DFT", 
		 "functional": "B3LYP", 
		 "basiset": "6-31G**", 
		 "properties": { 
			 "R2extent": 6188.3689, 
			 "electric_dipole_moment_norm": 9.41396311284, 
			 "electric_quadrupole_moment_norm": 19.4158267995, 
			 "total_energy": -1543.49947136, 
			 "HOMO_LUMO_gap": 0.18675, 
			 "cosmo_polarized_energy": -20.57, 
			 "cosmo_cavitation_energy": 30.37, 
			 "cosmo_dispersion_energy": -22.66, 
			 "cosmo_repulsion_energy": 1.73, 
			 "cosmo_total_nonelectrostatic_energy": 9.44, 
			 "SMD_solvation_energy": 5.91 
		},
		"coords": [
			{
				"x": -2.5091811558,
				"y": -1.3484754658,
				"z": 0.7157525072,
				"element": "C" 
			},
			{
				"x": -1.1460103881,
				"y": -0.9333358658,
				"z": 0.8483261667,
				"element": "O" 
			},
			{
				"x": -0.3754640493,
				"y": -0.7434621904,
				"z": -0.2612620937,
				"element": "C" 
			},
			{
				"x": 0.9623613809,
				"y": -0.3301273665,
				"z": -0.0495668886,
				"element": "C" 
			},
			{
				"x": 1.7778736112,
				"y": -0.1254047817,
				"z": -1.1639980868,
				"element": "C" 
			},
			{
				"x": 1.2748140545,
				"y": -0.3279485336,
				"z": -2.4448703639,
				"element": "C" 
			},
			{
				"x": -0.0415777664,
				"y": -0.736982921,
				"z": -2.6577359302,
				"element": "C" 
			},
			{
				"x": -0.8669165053,
				"y": -0.9460922634,
				"z": -1.558954174,
				"element": "C" 
			},
			{
				"x": 2.3376140573,
				"y": -0.0796494061,
				"z": -3.8549716164,
				"element": "S" 
			},
			{
				"x": 2.0255161974,
				"y": 1.9923457438,
				"z": -4.2585360168,
				"element": "Cl" 
			},
			{
				"x": 3.728754159,
				"y": -0.2103114347,
				"z": -3.445873383,
				"element": "O" 
			},
			{
				"x": 1.7838663878,
				"y": -0.7996181737,
				"z": -4.9956536991,
				"element": "O" 
			},
			{
				"x": 1.6189968043,
				"y": -0.0845124358,
				"z": 1.2943927435,
				"element": "C" 
			},
			{
				"x": 0.8790081018,
				"y": -0.2643902676,
				"z": 2.4005142525,
				"element": "O" 
			},
			{
				"x": 2.7751600679,
				"y": 0.264115368,
				"z": 1.3674512112,
				"element": "O" 
			},
			{
				"x": -2.8936896747,
				"y": -1.4213660145,
				"z": 1.7325746672,
				"element": "H" 
			},
			{
				"x": -2.5733260691,
				"y": -2.3260759643,
				"z": 0.2275361575,
				"element": "H" 
			},
			{
				"x": -3.0893086837,
				"y": -0.6085527741,
				"z": 0.1553296495,
				"element": "H" 
			},
			{
				"x": 2.8033880932,
				"y": 0.183866587,
				"z": -0.9944744147,
				"element": "H" 
			},
			{
				"x": -0.4089795085,
				"y": -0.898768298,
				"z": -3.6648503328,
				"element": "H" 
			},
			{
				"x": -1.8873068084,
				"y": -1.2695315501,
				"z": -1.7193005075,
				"element": "H" 
			},
			{
				"x": -0.0221923063,
				"y": -0.5437219917,
				"z": 2.1577701525,
				"element": "H" 
			}
		],
		 "valence_orbital": [ 
			{
				"type": "occ",
				"energy": -0.3227,
				"method": "rhf"
			},
			{
				"type": "occ",
				"energy": -0.3153,
				"method": "rhf"
			},
			{
				"type": "occ",
				"energy": -0.29917,
				"method": "rhf"
			},
			{
				"type": "occ",
				"energy": -0.28425,
				"method": "rhf"
			},
			{
				"type": "occ",
				"energy": -0.27984,
				"method": "rhf"
			},
			{
				"type": "unocc",
				"energy": -0.09309,
				"method": "rhf"
			},
			{
				"type": "unocc",
				"energy": -0.07475,
				"method": "rhf"
			},
			{
				"type": "unocc",
				"energy": -0.04658,
				"method": "rhf"
			},
			{
				"type": "unocc",
				"energy": 0.02174,
				"method": "rhf"
			},
			{
				"type": "unocc",
				"energy": 0.04763,
				"method": "rhf"
			}
		],
		"cosmo_sigma_profile": { 
			"-0.025": 0.0,
			"-0.024": 0.0,
			"-0.023": 0.0,
			"-0.022": 0.0,
			"-0.021": 0.0,
			"-0.02": 0.0,
			"-0.019": 0.0,
			"-0.018": 0.0,
			"-0.017": 0.0,
			"-0.016": 0.0,
			"-0.015": 0.0,
			"-0.014": 0.0,
			"-0.013": 0.0,
			"-0.012": 0.0660807832381,
			"-0.011": 0.369304453819,
			"-0.01": 1.36604111004,
			"-0.009": 5.64808671286,
			"-0.008": 8.91708051034,
			"-0.007": 15.9999567841,
			"-0.006": 14.9461406572,
			"-0.005": 15.3526895351,
			"-0.004": 13.4959001625,
			"-0.003": 14.6003936939,
			"-0.002": 19.5429535188,
			"-0.001": 21.2292319874,
			"0.0": 14.3538976452,
			"0.001": 9.74098939802,
			"0.002": 10.1393544986,
			"0.003": 15.890048235,
			"0.004": 11.417956912,
			"0.005": 5.07382752074,
			"0.006": 4.89565119816,
			"0.007": 8.8417124162,
			"0.008": 12.3461258121,
			"0.009": 7.51598192417,
			"0.01": 4.37266911154,
			"0.011": 5.65316225073,
			"0.012": 3.48088540258,
			"0.013": 1.40773087592,
			"0.014": 0.033025519679,
			"0.015": 0.0,
			"0.016": 0.0,
			"0.017": 0.0,
			"0.018": 0.0,
			"0.019": 0.0,
			"0.02": 0.0,
			"0.021": 0.0,
			"0.022": 0.0,
			"0.023": 0.0,
			"0.024": 0.0,
			"0.025": 0.0
		}
	}
}
