{
	 "smiles": "OC(=O)CN1C=CC=N1", 
	 "Tm": 413.15, 
	 "num_atms": 15, 
	 "gaussian": { 
		 "optdone": 1, 
		 "sigma_profile": "yes", 
		 "theory": "DFT", 
		 "functional": "B3LYP", 
		 "basiset": "6-31G**", 
		 "properties": { 
			 "R2extent": 1426.301, 
			 "electric_dipole_moment_norm": 2.50748806976, 
			 "electric_quadrupole_moment_norm": 5.11440549527, 
			 "total_energy": -454.078335981, 
			 "HOMO_LUMO_gap": 0.24217, 
			 "cosmo_polarized_energy": -14.01, 
			 "cosmo_cavitation_energy": 20.04, 
			 "cosmo_dispersion_energy": -14.53, 
			 "cosmo_repulsion_energy": 1.21, 
			 "cosmo_total_nonelectrostatic_energy": 6.72, 
			 "SMD_solvation_energy": 4.58 
		},
		"coords": [
			{
				"x": 0.5647110572,
				"y": -1.3108090043,
				"z": 0.7058447295,
				"element": "O" 
			},
			{
				"x": 0.5017333536,
				"y": -1.4487366726,
				"z": -0.631004547,
				"element": "C" 
			},
			{
				"x": 1.1451237559,
				"y": -2.2572832307,
				"z": -1.2594804244,
				"element": "O" 
			},
			{
				"x": -0.4356829267,
				"y": -0.4453905938,
				"z": -1.299829767,
				"element": "C" 
			},
			{
				"x": -1.3773218817,
				"y": 0.2187241183,
				"z": -0.4322567767,
				"element": "N" 
			},
			{
				"x": -1.223464551,
				"y": 1.3927609227,
				"z": 0.241460895,
				"element": "C" 
			},
			{
				"x": -2.360920756,
				"y": 1.5646152733,
				"z": 1.003408794,
				"element": "C" 
			},
			{
				"x": -3.1463970721,
				"y": 0.4228632727,
				"z": 0.7242394563,
				"element": "C" 
			},
			{
				"x": -2.5494924663,
				"y": -0.3940036596,
				"z": -0.1410000521,
				"element": "N" 
			},
			{
				"x": 1.1867023708,
				"y": -1.9885809899,
				"z": 1.0206565603,
				"element": "H" 
			},
			{
				"x": -0.9893674734,
				"y": -0.9852181797,
				"z": -2.0697718826,
				"element": "H" 
			},
			{
				"x": 0.1884672878,
				"y": 0.3020900194,
				"z": -1.8004829946,
				"element": "H" 
			},
			{
				"x": -0.3363805038,
				"y": 1.9985652382,
				"z": 0.1261966929,
				"element": "H" 
			},
			{
				"x": -2.5928605001,
				"y": 2.393544115,
				"z": 1.6550298107,
				"element": "H" 
			},
			{
				"x": -4.1239496944,
				"y": 0.1675593709,
				"z": 1.1112895057,
				"element": "H" 
			}
		],
		 "valence_orbital": [ 
			{
				"type": "occ",
				"energy": -0.32883,
				"method": "rhf"
			},
			{
				"type": "occ",
				"energy": -0.29567,
				"method": "rhf"
			},
			{
				"type": "occ",
				"energy": -0.28828,
				"method": "rhf"
			},
			{
				"type": "occ",
				"energy": -0.25,
				"method": "rhf"
			},
			{
				"type": "occ",
				"energy": -0.24516,
				"method": "rhf"
			},
			{
				"type": "unocc",
				"energy": -0.00299,
				"method": "rhf"
			},
			{
				"type": "unocc",
				"energy": 0.01438,
				"method": "rhf"
			},
			{
				"type": "unocc",
				"energy": 0.06599,
				"method": "rhf"
			},
			{
				"type": "unocc",
				"energy": 0.0728,
				"method": "rhf"
			},
			{
				"type": "unocc",
				"energy": 0.10023,
				"method": "rhf"
			}
		],
		"cosmo_sigma_profile": { 
			"-0.025": 0.0,
			"-0.024": 0.0,
			"-0.023": 0.0,
			"-0.022": 0.0,
			"-0.021": 0.0,
			"-0.02": 0.0,
			"-0.019": 0.299125368861,
			"-0.018": 1.2676566758,
			"-0.017": 0.795555022458,
			"-0.016": 0.542711870983,
			"-0.015": 1.5320677654,
			"-0.014": 0.36342711828,
			"-0.013": 0.361775096881,
			"-0.012": 0.950259072163,
			"-0.011": 1.1021077718,
			"-0.01": 4.00076006082,
			"-0.009": 5.35007742204,
			"-0.008": 5.87881258239,
			"-0.007": 8.19813830386,
			"-0.006": 8.39671752072,
			"-0.005": 7.82385038938,
			"-0.004": 8.12928290237,
			"-0.003": 9.07429069908,
			"-0.002": 7.56767871105,
			"-0.001": 6.90845658741,
			"0.0": 5.62096185167,
			"0.001": 6.84023075076,
			"0.002": 6.68483853037,
			"0.003": 6.97596159706,
			"0.004": 6.89192313542,
			"0.005": 8.45585483408,
			"0.006": 8.10347638119,
			"0.007": 6.88857909072,
			"0.008": 4.26455311293,
			"0.009": 3.83344483886,
			"0.01": 3.86711785029,
			"0.011": 6.35023340734,
			"0.012": 3.61815579276,
			"0.013": 0.900235195114,
			"0.014": 0.915216411075,
			"0.015": 0.997707161643,
			"0.016": 0.176329877954,
			"0.017": 0.0,
			"0.018": 0.0,
			"0.019": 0.0,
			"0.02": 0.0,
			"0.021": 0.0,
			"0.022": 0.0,
			"0.023": 0.0,
			"0.024": 0.0,
			"0.025": 0.0
		}
	}
}
