{
	 "smiles": "COC1=C(OC)C=C(C=C1)C(=O)NCC(O)=O", 
	 "Tm": 472.15, 
	 "num_atms": 30, 
	 "gaussian": { 
		 "optdone": 1, 
		 "sigma_profile": "yes", 
		 "theory": "DFT", 
		 "functional": "B3LYP", 
		 "basiset": "6-31G**", 
		 "properties": { 
			 "R2extent": 5439.7256, 
			 "electric_dipole_moment_norm": 4.23775273111, 
			 "electric_quadrupole_moment_norm": 15.05775205, 
			 "total_energy": -857.864566666, 
			 "HOMO_LUMO_gap": 0.20368, 
			 "cosmo_polarized_energy": -20.08, 
			 "cosmo_cavitation_energy": 34.69, 
			 "cosmo_dispersion_energy": -24.32, 
			 "cosmo_repulsion_energy": 1.94, 
			 "cosmo_total_nonelectrostatic_energy": 12.31, 
			 "SMD_solvation_energy": 9.0 
		},
		"coords": [
			{
				"x": -1.788140322,
				"y": -4.2878859029,
				"z": 1.8826915552,
				"element": "C" 
			},
			{
				"x": -2.4545844782,
				"y": -3.2264019293,
				"z": 1.1862221326,
				"element": "O" 
			},
			{
				"x": -1.724622062,
				"y": -2.072700229,
				"z": 1.0334612751,
				"element": "C" 
			},
			{
				"x": -1.3638945449,
				"y": -1.2699330569,
				"z": 2.1365894328,
				"element": "C" 
			},
			{
				"x": -1.6860575003,
				"y": -1.6379673307,
				"z": 3.4241195487,
				"element": "O" 
			},
			{
				"x": -3.0786418414,
				"y": -1.5215289156,
				"z": 3.7456046244,
				"element": "C" 
			},
			{
				"x": -0.6471689337,
				"y": -0.0961494021,
				"z": 1.9278579987,
				"element": "C" 
			},
			{
				"x": -0.2694218565,
				"y": 0.295061496,
				"z": 0.6359659065,
				"element": "C" 
			},
			{
				"x": -0.6661356776,
				"y": -0.4822506224,
				"z": -0.4612017486,
				"element": "C" 
			},
			{
				"x": -1.387471608,
				"y": -1.6583958036,
				"z": -0.2562090403,
				"element": "C" 
			},
			{
				"x": 0.437275693,
				"y": 1.6099536334,
				"z": 0.4890582084,
				"element": "C" 
			},
			{
				"x": 0.1456546484,
				"y": 2.5748600857,
				"z": 1.1860869143,
				"element": "O" 
			},
			{
				"x": 1.4172404923,
				"y": 1.7240764951,
				"z": -0.478791923,
				"element": "N" 
			},
			{
				"x": 2.2341824486,
				"y": 0.6791284228,
				"z": -1.0457010656,
				"element": "C" 
			},
			{
				"x": 2.033266395,
				"y": 0.4846979012,
				"z": -2.5461860246,
				"element": "C" 
			},
			{
				"x": 3.0641593942,
				"y": -0.2180568522,
				"z": -3.0699375705,
				"element": "O" 
			},
			{
				"x": 1.0894677797,
				"y": 0.8665482642,
				"z": -3.197645183,
				"element": "O" 
			},
			{
				"x": -1.5010831574,
				"y": -3.9849776285,
				"z": 2.8935530763,
				"element": "H" 
			},
			{
				"x": -0.8970665171,
				"y": -4.6110228249,
				"z": 1.32999777,
				"element": "H" 
			},
			{
				"x": -2.5007471674,
				"y": -5.1135247571,
				"z": 1.930099938,
				"element": "H" 
			},
			{
				"x": -3.410297577,
				"y": -0.4799801235,
				"z": 3.6559547645,
				"element": "H" 
			},
			{
				"x": -3.6914715412,
				"y": -2.156703409,
				"z": 3.097973486,
				"element": "H" 
			},
			{
				"x": -3.180428092,
				"y": -1.8451092867,
				"z": 4.7833634708,
				"element": "H" 
			},
			{
				"x": -0.3916977486,
				"y": 0.5256022261,
				"z": 2.7789615665,
				"element": "H" 
			},
			{
				"x": -0.4389998973,
				"y": -0.1553639414,
				"z": -1.4707709668,
				"element": "H" 
			},
			{
				"x": -1.7081928164,
				"y": -2.2734365803,
				"z": -1.0910714279,
				"element": "H" 
			},
			{
				"x": 1.7825180856,
				"y": 2.6666188956,
				"z": -0.5274636843,
				"element": "H" 
			},
			{
				"x": 3.2988037549,
				"y": 0.8692125615,
				"z": -0.8656284808,
				"element": "H" 
			},
			{
				"x": 2.0064909204,
				"y": -0.2759687752,
				"z": -0.5627273391,
				"element": "H" 
			},
			{
				"x": 2.8615637268,
				"y": -0.3451026101,
				"z": -4.0122272145,
				"element": "H" 
			}
		],
		 "valence_orbital": [ 
			{
				"type": "occ",
				"energy": -0.2689,
				"method": "rhf"
			},
			{
				"type": "occ",
				"energy": -0.26233,
				"method": "rhf"
			},
			{
				"type": "occ",
				"energy": -0.25395,
				"method": "rhf"
			},
			{
				"type": "occ",
				"energy": -0.24294,
				"method": "rhf"
			},
			{
				"type": "occ",
				"energy": -0.23347,
				"method": "rhf"
			},
			{
				"type": "unocc",
				"energy": -0.02979,
				"method": "rhf"
			},
			{
				"type": "unocc",
				"energy": -0.0059,
				"method": "rhf"
			},
			{
				"type": "unocc",
				"energy": -0.00493,
				"method": "rhf"
			},
			{
				"type": "unocc",
				"energy": 0.0512,
				"method": "rhf"
			},
			{
				"type": "unocc",
				"energy": 0.06507,
				"method": "rhf"
			}
		],
		"cosmo_sigma_profile": { 
			"-0.025": 0.0,
			"-0.024": 0.0,
			"-0.023": 0.0,
			"-0.022": 0.0,
			"-0.021": 0.0,
			"-0.02": 0.0,
			"-0.019": 0.345042292433,
			"-0.018": 0.780830738287,
			"-0.017": 1.13526151047,
			"-0.016": 0.643727255434,
			"-0.015": 1.25535446141,
			"-0.014": 1.80218042023,
			"-0.013": 1.98762451917,
			"-0.012": 1.27724268588,
			"-0.011": 1.71411122749,
			"-0.01": 1.90178458031,
			"-0.009": 2.53195324948,
			"-0.008": 5.09072070697,
			"-0.007": 6.5733604482,
			"-0.006": 11.0434877379,
			"-0.005": 16.3356137793,
			"-0.004": 22.8123545937,
			"-0.003": 25.64023837,
			"-0.002": 24.4155578882,
			"-0.001": 19.9862225366,
			"0.0": 15.6034435707,
			"0.001": 13.3503994062,
			"0.002": 15.0798147491,
			"0.003": 14.809137474,
			"0.004": 10.1441184101,
			"0.005": 7.01187322771,
			"0.006": 6.16916235024,
			"0.007": 6.04318376981,
			"0.008": 5.41921882721,
			"0.009": 6.2221352862,
			"0.01": 6.80521038895,
			"0.011": 7.54710185909,
			"0.012": 5.12762064413,
			"0.013": 4.99535166324,
			"0.014": 3.24372656715,
			"0.015": 0.112543641591,
			"0.016": 0.0,
			"0.017": 0.0,
			"0.018": 0.0,
			"0.019": 0.0,
			"0.02": 0.0,
			"0.021": 0.0,
			"0.022": 0.0,
			"0.023": 0.0,
			"0.024": 0.0,
			"0.025": 0.0
		}
	}
}
