{
	 "smiles": "CC(=O)C1=CC(NC(=O)CCl)=CC=C1", 
	 "Tm": 386.15, 
	 "num_atms": 24, 
	 "gaussian": { 
		 "optdone": 1, 
		 "sigma_profile": "yes", 
		 "theory": "DFT", 
		 "functional": "B3LYP", 
		 "basiset": "6-31G**", 
		 "properties": { 
			 "R2extent": 3731.1051, 
			 "electric_dipole_moment_norm": 6.17855274801, 
			 "electric_quadrupole_moment_norm": 7.63400341302, 
			 "total_energy": -1052.49423409, 
			 "HOMO_LUMO_gap": 0.17616, 
			 "cosmo_polarized_energy": -17.74, 
			 "cosmo_cavitation_energy": 30.28, 
			 "cosmo_dispersion_energy": -21.45, 
			 "cosmo_repulsion_energy": 1.69, 
			 "cosmo_total_nonelectrostatic_energy": 10.51, 
			 "SMD_solvation_energy": 6.29 
		},
		"coords": [
			{
				"x": -2.1871103645,
				"y": 3.4160750168,
				"z": -1.0479511223,
				"element": "C" 
			},
			{
				"x": -1.798917338,
				"y": 1.9518153282,
				"z": -0.9388200718,
				"element": "C" 
			},
			{
				"x": -2.6427805447,
				"y": 1.0747247585,
				"z": -1.0270374521,
				"element": "O" 
			},
			{
				"x": -0.3530064662,
				"y": 1.5985504166,
				"z": -0.7194549774,
				"element": "C" 
			},
			{
				"x": -0.0218450207,
				"y": 0.2363147749,
				"z": -0.6538036515,
				"element": "C" 
			},
			{
				"x": 1.3013683918,
				"y": -0.1575696412,
				"z": -0.4412100612,
				"element": "C" 
			},
			{
				"x": 1.7035266978,
				"y": -1.5131361961,
				"z": -0.3796925659,
				"element": "N" 
			},
			{
				"x": 1.158218738,
				"y": -2.6280610536,
				"z": 0.2270656823,
				"element": "C" 
			},
			{
				"x": 1.744166116,
				"y": -3.6975434775,
				"z": 0.186464841,
				"element": "O" 
			},
			{
				"x": -0.157857176,
				"y": -2.4856132695,
				"z": 0.982950182,
				"element": "C" 
			},
			{
				"x": -1.5508554341,
				"y": -3.0117467167,
				"z": -0.0483741533,
				"element": "Cl" 
			},
			{
				"x": 2.3024072776,
				"y": 0.8248451433,
				"z": -0.3359798603,
				"element": "C" 
			},
			{
				"x": 1.9777148025,
				"y": 2.1743245099,
				"z": -0.427278782,
				"element": "C" 
			},
			{
				"x": 0.6512064179,
				"y": 2.5684441176,
				"z": -0.6080859801,
				"element": "C" 
			},
			{
				"x": -1.9181667139,
				"y": 3.963958333,
				"z": -0.13805451,
				"element": "H" 
			},
			{
				"x": -1.6704255427,
				"y": 3.8985776974,
				"z": -1.8849113347,
				"element": "H" 
			},
			{
				"x": -3.264342757,
				"y": 3.4792840529,
				"z": -1.2029056168,
				"element": "H" 
			},
			{
				"x": -0.8165180231,
				"y": -0.486878033,
				"z": -0.7981085767,
				"element": "H" 
			},
			{
				"x": 2.6266267443,
				"y": -1.7211316185,
				"z": -0.7427439524,
				"element": "H" 
			},
			{
				"x": -0.1184648364,
				"y": -3.1701243667,
				"z": 1.8285638488,
				"element": "H" 
			},
			{
				"x": -0.3664094284,
				"y": -1.4701375331,
				"z": 1.3173480155,
				"element": "H" 
			},
			{
				"x": 3.333070808,
				"y": 0.5205767025,
				"z": -0.1741688379,
				"element": "H" 
			},
			{
				"x": 2.7614522937,
				"y": 2.9212398087,
				"z": -0.3453803167,
				"element": "H" 
			},
			{
				"x": 0.4096413581,
				"y": 3.6239112456,
				"z": -0.6672307464,
				"element": "H" 
			}
		],
		 "valence_orbital": [ 
			{
				"type": "occ",
				"energy": -0.30159,
				"method": "rhf"
			},
			{
				"type": "occ",
				"energy": -0.2736,
				"method": "rhf"
			},
			{
				"type": "occ",
				"energy": -0.26718,
				"method": "rhf"
			},
			{
				"type": "occ",
				"energy": -0.25692,
				"method": "rhf"
			},
			{
				"type": "occ",
				"energy": -0.24383,
				"method": "rhf"
			},
			{
				"type": "unocc",
				"energy": -0.06767,
				"method": "rhf"
			},
			{
				"type": "unocc",
				"energy": -0.03769,
				"method": "rhf"
			},
			{
				"type": "unocc",
				"energy": -0.01243,
				"method": "rhf"
			},
			{
				"type": "unocc",
				"energy": 0.02488,
				"method": "rhf"
			},
			{
				"type": "unocc",
				"energy": 0.05976,
				"method": "rhf"
			}
		],
		"cosmo_sigma_profile": { 
			"-0.025": 0.0,
			"-0.024": 0.0,
			"-0.023": 0.0,
			"-0.022": 0.0,
			"-0.021": 0.0,
			"-0.02": 0.0,
			"-0.019": 0.0,
			"-0.018": 0.0,
			"-0.017": 0.0,
			"-0.016": 0.0416866472918,
			"-0.015": 0.720901592266,
			"-0.014": 1.08990467634,
			"-0.013": 1.23676316796,
			"-0.012": 1.17340588589,
			"-0.011": 1.03916038196,
			"-0.01": 1.29993282527,
			"-0.009": 2.24184037643,
			"-0.008": 6.51983491658,
			"-0.007": 10.7417972866,
			"-0.006": 18.2967630386,
			"-0.005": 17.252858076,
			"-0.004": 14.2630700928,
			"-0.003": 12.9576026394,
			"-0.002": 15.9266088981,
			"-0.001": 16.5858097507,
			"0.0": 13.3760471413,
			"0.001": 16.8974161327,
			"0.002": 16.3790591284,
			"0.003": 15.9850951106,
			"0.004": 11.8019223306,
			"0.005": 10.5287919178,
			"0.006": 6.08304896236,
			"0.007": 2.27995961166,
			"0.008": 3.02056654276,
			"0.009": 4.06911902778,
			"0.01": 2.77235025886,
			"0.011": 5.9230948236,
			"0.012": 8.00662731807,
			"0.013": 4.86787090278,
			"0.014": 0.298426409527,
			"0.015": 0.0,
			"0.016": 0.0,
			"0.017": 0.0,
			"0.018": 0.0,
			"0.019": 0.0,
			"0.02": 0.0,
			"0.021": 0.0,
			"0.022": 0.0,
			"0.023": 0.0,
			"0.024": 0.0,
			"0.025": 0.0
		}
	}
}
