{
	 "smiles": "NC(N=O)=C1NC=CC2=C1C=CC=C2", 
	 "Tm": 399.15, 
	 "num_atms": 23, 
	 "gaussian": { 
		 "optdone": 1, 
		 "sigma_profile": "yes", 
		 "theory": "DFT", 
		 "functional": "B3LYP", 
		 "basiset": "6-31G**", 
		 "properties": { 
			 "R2extent": 2913.5834, 
			 "electric_dipole_moment_norm": 6.14109394326, 
			 "electric_quadrupole_moment_norm": 14.3763211695, 
			 "total_energy": -625.894958127, 
			 "HOMO_LUMO_gap": 0.10968, 
			 "cosmo_polarized_energy": -18.9, 
			 "cosmo_cavitation_energy": 26.71, 
			 "cosmo_dispersion_energy": -20.28, 
			 "cosmo_repulsion_energy": 1.57, 
			 "cosmo_total_nonelectrostatic_energy": 8.0, 
			 "SMD_solvation_energy": 5.16 
		},
		"coords": [
			{
				"x": -2.8870464732,
				"y": -0.7034877221,
				"z": 0.0106604811,
				"element": "N" 
			},
			{
				"x": -1.5128418077,
				"y": -0.6611495793,
				"z": 0.4080317644,
				"element": "C" 
			},
			{
				"x": -1.152992733,
				"y": -0.8945079994,
				"z": 1.7026886549,
				"element": "N" 
			},
			{
				"x": -2.1167020287,
				"y": -1.1007302942,
				"z": 2.4855056289,
				"element": "O" 
			},
			{
				"x": -0.55087316,
				"y": -0.5235160364,
				"z": -0.6109866078,
				"element": "C" 
			},
			{
				"x": -1.0828243676,
				"y": -0.514786371,
				"z": -1.8776315861,
				"element": "N" 
			},
			{
				"x": -0.3675575349,
				"y": -0.3953004585,
				"z": -3.0382300006,
				"element": "C" 
			},
			{
				"x": 0.9775872271,
				"y": -0.2439699507,
				"z": -3.0000421796,
				"element": "C" 
			},
			{
				"x": 1.6486029243,
				"y": -0.2292139455,
				"z": -1.7274961235,
				"element": "C" 
			},
			{
				"x": 0.8984115698,
				"y": -0.3738399399,
				"z": -0.5189615182,
				"element": "C" 
			},
			{
				"x": 1.585779067,
				"y": -0.354742199,
				"z": 0.7148340536,
				"element": "C" 
			},
			{
				"x": 2.961976701,
				"y": -0.201331552,
				"z": 0.754593436,
				"element": "C" 
			},
			{
				"x": 3.699469374,
				"y": -0.0607002686,
				"z": -0.4328948843,
				"element": "C" 
			},
			{
				"x": 3.0493237047,
				"y": -0.0749164616,
				"z": -1.6540482649,
				"element": "C" 
			},
			{
				"x": -3.2815008132,
				"y": 0.2386560873,
				"z": 0.0185945915,
				"element": "H" 
			},
			{
				"x": -3.3596535246,
				"y": -1.191860159,
				"z": 0.7765864735,
				"element": "H" 
			},
			{
				"x": -2.0855320339,
				"y": -0.704058484,
				"z": -1.8819791988,
				"element": "H" 
			},
			{
				"x": -0.9473486438,
				"y": -0.4252207623,
				"z": -3.9529323295,
				"element": "H" 
			},
			{
				"x": 1.5454546207,
				"y": -0.1349266819,
				"z": -3.9164123613,
				"element": "H" 
			},
			{
				"x": 1.0093153846,
				"y": -0.477734602,
				"z": 1.6232813072,
				"element": "H" 
			},
			{
				"x": 3.4708952929,
				"y": -0.1898663842,
				"z": 1.7135864604,
				"element": "H" 
			},
			{
				"x": 4.7783358616,
				"y": 0.0592401049,
				"z": -0.3934150647,
				"element": "H" 
			},
			{
				"x": 3.6110213927,
				"y": 0.0331636594,
				"z": -2.5778327322,
				"element": "H" 
			}
		],
		 "valence_orbital": [ 
			{
				"type": "occ",
				"energy": -0.2873,
				"method": "rhf"
			},
			{
				"type": "occ",
				"energy": -0.27966,
				"method": "rhf"
			},
			{
				"type": "occ",
				"energy": -0.24569,
				"method": "rhf"
			},
			{
				"type": "occ",
				"energy": -0.19051,
				"method": "rhf"
			},
			{
				"type": "occ",
				"energy": -0.1804,
				"method": "rhf"
			},
			{
				"type": "unocc",
				"energy": -0.07072,
				"method": "rhf"
			},
			{
				"type": "unocc",
				"energy": -0.04139,
				"method": "rhf"
			},
			{
				"type": "unocc",
				"energy": -0.00082,
				"method": "rhf"
			},
			{
				"type": "unocc",
				"energy": 0.04789,
				"method": "rhf"
			},
			{
				"type": "unocc",
				"energy": 0.07246,
				"method": "rhf"
			}
		],
		"cosmo_sigma_profile": { 
			"-0.025": 0.0,
			"-0.024": 0.0,
			"-0.023": 0.0,
			"-0.022": 0.0,
			"-0.021": 0.0,
			"-0.02": 0.0,
			"-0.019": 0.0,
			"-0.018": 0.0,
			"-0.017": 0.0,
			"-0.016": 0.0,
			"-0.015": 0.26459359739,
			"-0.014": 0.678232231413,
			"-0.013": 0.750865175013,
			"-0.012": 1.56814643082,
			"-0.011": 2.1966956908,
			"-0.01": 4.05231927904,
			"-0.009": 4.38610200589,
			"-0.008": 5.51274148048,
			"-0.007": 10.9199793307,
			"-0.006": 12.7737624491,
			"-0.005": 12.4419245572,
			"-0.004": 10.9142535255,
			"-0.003": 9.93936608285,
			"-0.002": 12.3664344785,
			"-0.001": 13.5142832137,
			"0.0": 12.6927293912,
			"0.001": 16.1863657881,
			"0.002": 20.421254257,
			"0.003": 17.4907238546,
			"0.004": 10.2247129066,
			"0.005": 3.63357666042,
			"0.006": 2.28234566031,
			"0.007": 2.76633845065,
			"0.008": 2.38683315247,
			"0.009": 2.41992782578,
			"0.01": 3.00144981228,
			"0.011": 2.88115827515,
			"0.012": 3.50266389483,
			"0.013": 5.28574251332,
			"0.014": 2.63403120102,
			"0.015": 1.97627962489,
			"0.016": 1.75273983433,
			"0.017": 0.444398227771,
			"0.018": 0.0,
			"0.019": 0.0,
			"0.02": 0.0,
			"0.021": 0.0,
			"0.022": 0.0,
			"0.023": 0.0,
			"0.024": 0.0,
			"0.025": 0.0
		}
	}
}
