{
	 "smiles": "OC(=O)C1(CC2=CC(Cl)=CC=C2)CCCC1", 
	 "Tm": 334.15, 
	 "num_atms": 31, 
	 "gaussian": { 
		 "optdone": 1, 
		 "sigma_profile": "yes", 
		 "theory": "DFT", 
		 "functional": "B3LYP", 
		 "basiset": "6-31G**", 
		 "properties": { 
			 "R2extent": 4788.3581, 
			 "electric_dipole_moment_norm": 0.567495885448, 
			 "electric_quadrupole_moment_norm": 17.249395819, 
			 "total_energy": -1115.0874605, 
			 "HOMO_LUMO_gap": 0.22662, 
			 "cosmo_polarized_energy": -10.22, 
			 "cosmo_cavitation_energy": 33.94, 
			 "cosmo_dispersion_energy": -23.97, 
			 "cosmo_repulsion_energy": 1.87, 
			 "cosmo_total_nonelectrostatic_energy": 11.84, 
			 "SMD_solvation_energy": 5.8 
		},
		"coords": [
			{
				"x": -1.7665645533,
				"y": 2.1863903823,
				"z": 2.1515278387,
				"element": "O" 
			},
			{
				"x": -2.2117191077,
				"y": 1.4752286885,
				"z": 1.0823353152,
				"element": "C" 
			},
			{
				"x": -3.2762834071,
				"y": 1.7211621331,
				"z": 0.5573136642,
				"element": "O" 
			},
			{
				"x": -1.2314309919,
				"y": 0.3734634246,
				"z": 0.6808328335,
				"element": "C" 
			},
			{
				"x": 0.1161728998,
				"y": 1.0916482053,
				"z": 0.3243136037,
				"element": "C" 
			},
			{
				"x": 1.2860707388,
				"y": 0.2306571197,
				"z": -0.1062761273,
				"element": "C" 
			},
			{
				"x": 2.2242727482,
				"y": -0.2089741223,
				"z": 0.8390984566,
				"element": "C" 
			},
			{
				"x": 3.3125265282,
				"y": -0.9813760698,
				"z": 0.4374057055,
				"element": "C" 
			},
			{
				"x": 4.4748726066,
				"y": -1.5182576494,
				"z": 1.6455817972,
				"element": "Cl" 
			},
			{
				"x": 3.5064256079,
				"y": -1.3290093183,
				"z": -0.8983206665,
				"element": "C" 
			},
			{
				"x": 2.5828332346,
				"y": -0.87757039,
				"z": -1.8418993011,
				"element": "C" 
			},
			{
				"x": 1.4890908737,
				"y": -0.1039518915,
				"z": -1.4530901005,
				"element": "C" 
			},
			{
				"x": -1.8127846613,
				"y": -0.4777869572,
				"z": -0.4739320278,
				"element": "C" 
			},
			{
				"x": -1.2952577993,
				"y": -1.9230810232,
				"z": -0.2750494145,
				"element": "C" 
			},
			{
				"x": -0.7887307433,
				"y": -2.0156550057,
				"z": 1.1918557177,
				"element": "C" 
			},
			{
				"x": -1.1045067561,
				"y": -0.6535765195,
				"z": 1.8478049011,
				"element": "C" 
			},
			{
				"x": -2.45435949,
				"y": 2.8478883727,
				"z": 2.3363907997,
				"element": "H" 
			},
			{
				"x": -0.1004625354,
				"y": 1.806346761,
				"z": -0.4793492326,
				"element": "H" 
			},
			{
				"x": 0.4144742013,
				"y": 1.682053442,
				"z": 1.1951434721,
				"element": "H" 
			},
			{
				"x": 2.1137653674,
				"y": 0.0574867143,
				"z": 1.8850775567,
				"element": "H" 
			},
			{
				"x": 4.3630562726,
				"y": -1.926121951,
				"z": -1.1898267779,
				"element": "H" 
			},
			{
				"x": 2.7255598592,
				"y": -1.1261638662,
				"z": -2.8894779662,
				"element": "H" 
			},
			{
				"x": 0.7906859236,
				"y": 0.253952032,
				"z": -2.2040453548,
				"element": "H" 
			},
			{
				"x": -1.5574025711,
				"y": -0.0660459338,
				"z": -1.4553320852,
				"element": "H" 
			},
			{
				"x": -2.9028985471,
				"y": -0.445012972,
				"z": -0.4034962534,
				"element": "H" 
			},
			{
				"x": -0.4828829579,
				"y": -2.1495453214,
				"z": -0.9705027368,
				"element": "H" 
			},
			{
				"x": -2.0914198406,
				"y": -2.6468507026,
				"z": -0.474798527,
				"element": "H" 
			},
			{
				"x": -1.2648227129,
				"y": -2.8332809374,
				"z": 1.7416985817,
				"element": "H" 
			},
			{
				"x": 0.2866984141,
				"y": -2.2081379669,
				"z": 1.2095264819,
				"element": "H" 
			},
			{
				"x": -0.3629742266,
				"y": -0.3467896143,
				"z": 2.5911925622,
				"element": "H" 
			},
			{
				"x": -2.0663043743,
				"y": -0.7098890629,
				"z": 2.3710972837,
				"element": "H" 
			}
		],
		 "valence_orbital": [ 
			{
				"type": "occ",
				"energy": -0.31344,
				"method": "rhf"
			},
			{
				"type": "occ",
				"energy": -0.31034,
				"method": "rhf"
			},
			{
				"type": "occ",
				"energy": -0.27263,
				"method": "rhf"
			},
			{
				"type": "occ",
				"energy": -0.25777,
				"method": "rhf"
			},
			{
				"type": "occ",
				"energy": -0.24653,
				"method": "rhf"
			},
			{
				"type": "unocc",
				"energy": -0.01991,
				"method": "rhf"
			},
			{
				"type": "unocc",
				"energy": -0.01646,
				"method": "rhf"
			},
			{
				"type": "unocc",
				"energy": 0.00869,
				"method": "rhf"
			},
			{
				"type": "unocc",
				"energy": 0.02899,
				"method": "rhf"
			},
			{
				"type": "unocc",
				"energy": 0.06861,
				"method": "rhf"
			}
		],
		"cosmo_sigma_profile": { 
			"-0.025": 0.0,
			"-0.024": 0.0,
			"-0.023": 0.0,
			"-0.022": 0.0,
			"-0.021": 0.0,
			"-0.02": 0.0,
			"-0.019": 0.0,
			"-0.018": 0.361616705894,
			"-0.017": 1.07766617721,
			"-0.016": 0.808213186377,
			"-0.015": 0.680013644871,
			"-0.014": 0.907210032101,
			"-0.013": 0.850327713241,
			"-0.012": 0.526564819671,
			"-0.011": 0.505164374688,
			"-0.01": 1.04258644024,
			"-0.009": 0.698904798556,
			"-0.008": 0.395490222075,
			"-0.007": 3.1029401963,
			"-0.006": 9.50812603114,
			"-0.005": 15.8384289179,
			"-0.004": 17.4173848575,
			"-0.003": 16.6602754749,
			"-0.002": 24.0052276793,
			"-0.001": 27.5999584538,
			"0.0": 28.7042763076,
			"0.001": 27.4065511615,
			"0.002": 21.4044441636,
			"0.003": 17.4249620579,
			"0.004": 17.7188080717,
			"0.005": 12.8380810505,
			"0.006": 3.27793112982,
			"0.007": 2.51846014726,
			"0.008": 2.74953987483,
			"0.009": 2.44130535256,
			"0.01": 1.93656305567,
			"0.011": 3.58539947824,
			"0.012": 4.47498006954,
			"0.013": 0.267009975465,
			"0.014": 0.0,
			"0.015": 0.0,
			"0.016": 0.0,
			"0.017": 0.0,
			"0.018": 0.0,
			"0.019": 0.0,
			"0.02": 0.0,
			"0.021": 0.0,
			"0.022": 0.0,
			"0.023": 0.0,
			"0.024": 0.0,
			"0.025": 0.0
		}
	}
}
