{
	 "smiles": "COCC1=NC=NC(O)=C1", 
	 "Tm": 433.15, 
	 "num_atms": 18, 
	 "gaussian": { 
		 "optdone": 1, 
		 "sigma_profile": "yes", 
		 "theory": "DFT", 
		 "functional": "B3LYP", 
		 "basiset": "6-31G**", 
		 "properties": { 
			 "R2extent": 1892.1749, 
			 "electric_dipole_moment_norm": 1.03850118921, 
			 "electric_quadrupole_moment_norm": 6.24600052914, 
			 "total_energy": -493.397191362, 
			 "HOMO_LUMO_gap": 0.22751, 
			 "cosmo_polarized_energy": -9.37, 
			 "cosmo_cavitation_energy": 22.15, 
			 "cosmo_dispersion_energy": -16.53, 
			 "cosmo_repulsion_energy": 1.36, 
			 "cosmo_total_nonelectrostatic_energy": 6.99, 
			 "SMD_solvation_energy": 2.21 
		},
		"coords": [
			{
				"x": 0.0467162322,
				"y": 1.711601595,
				"z": 2.0822486765,
				"element": "C" 
			},
			{
				"x": 1.1550414942,
				"y": 2.0153240449,
				"z": 1.2505111109,
				"element": "O" 
			},
			{
				"x": 2.0681980138,
				"y": 0.9466012755,
				"z": 1.1203512265,
				"element": "C" 
			},
			{
				"x": 1.6516555773,
				"y": -0.1049894586,
				"z": 0.1084632327,
				"element": "C" 
			},
			{
				"x": 2.2790382599,
				"y": -1.2961587546,
				"z": 0.2052967816,
				"element": "N" 
			},
			{
				"x": 1.9421558748,
				"y": -2.205250823,
				"z": -0.7058324002,
				"element": "C" 
			},
			{
				"x": 1.0480847953,
				"y": -2.0695681439,
				"z": -1.6933080119,
				"element": "N" 
			},
			{
				"x": 0.4422766182,
				"y": -0.8835202599,
				"z": -1.7661812451,
				"element": "C" 
			},
			{
				"x": -0.4618978126,
				"y": -0.7049230081,
				"z": -2.7446961283,
				"element": "O" 
			},
			{
				"x": 0.7113231101,
				"y": 0.1635785242,
				"z": -0.8765847446,
				"element": "C" 
			},
			{
				"x": -0.55582032,
				"y": 0.8818504641,
				"z": 1.6865434229,
				"element": "H" 
			},
			{
				"x": -0.5741192384,
				"y": 2.6093008976,
				"z": 2.1256280823,
				"element": "H" 
			},
			{
				"x": 0.3713938547,
				"y": 1.4521413137,
				"z": 3.1009131654,
				"element": "H" 
			},
			{
				"x": 2.2608661628,
				"y": 0.4479339355,
				"z": 2.0816864531,
				"element": "H" 
			},
			{
				"x": 3.0177060382,
				"y": 1.3857494442,
				"z": 0.789792851,
				"element": "H" 
			},
			{
				"x": 2.4422616798,
				"y": -3.1701954997,
				"z": -0.6433679437,
				"element": "H" 
			},
			{
				"x": -0.4912242327,
				"y": -1.5390455766,
				"z": -3.2416717604,
				"element": "H" 
			},
			{
				"x": 0.2196438925,
				"y": 1.12467003,
				"z": -0.9538927684,
				"element": "H" 
			}
		],
		 "valence_orbital": [ 
			{
				"type": "occ",
				"energy": -0.3054,
				"method": "rhf"
			},
			{
				"type": "occ",
				"energy": -0.29245,
				"method": "rhf"
			},
			{
				"type": "occ",
				"energy": -0.27315,
				"method": "rhf"
			},
			{
				"type": "occ",
				"energy": -0.26342,
				"method": "rhf"
			},
			{
				"type": "occ",
				"energy": -0.25782,
				"method": "rhf"
			},
			{
				"type": "unocc",
				"energy": -0.03031,
				"method": "rhf"
			},
			{
				"type": "unocc",
				"energy": -0.01758,
				"method": "rhf"
			},
			{
				"type": "unocc",
				"energy": 0.08122,
				"method": "rhf"
			},
			{
				"type": "unocc",
				"energy": 0.09378,
				"method": "rhf"
			},
			{
				"type": "unocc",
				"energy": 0.12202,
				"method": "rhf"
			}
		],
		"cosmo_sigma_profile": { 
			"-0.025": 0.0,
			"-0.024": 0.0,
			"-0.023": 0.0,
			"-0.022": 0.0,
			"-0.021": 0.0,
			"-0.02": 0.0,
			"-0.019": 0.0,
			"-0.018": 0.273514783169,
			"-0.017": 0.80267625967,
			"-0.016": 0.976668836355,
			"-0.015": 0.589686951569,
			"-0.014": 0.560721554321,
			"-0.013": 0.558999272869,
			"-0.012": 1.19809144376,
			"-0.011": 0.47604608119,
			"-0.01": 0.784614092893,
			"-0.009": 0.338054240942,
			"-0.008": 0.789992906077,
			"-0.007": 4.44888731911,
			"-0.006": 6.46966004811,
			"-0.005": 10.3813444788,
			"-0.004": 14.9032808066,
			"-0.003": 16.4069855203,
			"-0.002": 19.1169699266,
			"-0.001": 17.1037620145,
			"0.0": 15.2421329719,
			"0.001": 10.6149808755,
			"0.002": 6.84777044302,
			"0.003": 4.70455826173,
			"0.004": 5.6284428675,
			"0.005": 4.97601446965,
			"0.006": 5.07158685437,
			"0.007": 4.77219630985,
			"0.008": 3.92523864622,
			"0.009": 4.30783926935,
			"0.01": 4.08750435575,
			"0.011": 2.6573987936,
			"0.012": 2.69366552777,
			"0.013": 2.78340492562,
			"0.014": 0.370568654989,
			"0.015": 0.744161041376,
			"0.016": 0.215421005866,
			"0.017": 0.0,
			"0.018": 0.0,
			"0.019": 0.0,
			"0.02": 0.0,
			"0.021": 0.0,
			"0.022": 0.0,
			"0.023": 0.0,
			"0.024": 0.0,
			"0.025": 0.0
		}
	}
}
