{
	 "smiles": "CC1=C(C)C=C(NS(=O)(=O)C2=CC(C(O)=O)=C(Cl)C=C2)C=C1", 
	 "Tm": 481.15, 
	 "num_atms": 36, 
	 "gaussian": { 
		 "optdone": 1, 
		 "sigma_profile": "yes", 
		 "theory": "DFT", 
		 "functional": "B3LYP", 
		 "basiset": "6-31G**", 
		 "properties": { 
			 "R2extent": 9685.5094, 
			 "electric_dipole_moment_norm": 3.79722890672, 
			 "electric_quadrupole_moment_norm": 15.2812724837, 
			 "total_energy": -1794.01198332, 
			 "HOMO_LUMO_gap": 0.15029, 
			 "cosmo_polarized_energy": -20.23, 
			 "cosmo_cavitation_energy": 43.76, 
			 "cosmo_dispersion_energy": -30.41, 
			 "cosmo_repulsion_energy": 2.28, 
			 "cosmo_total_nonelectrostatic_energy": 15.63, 
			 "SMD_solvation_energy": 7.46 
		},
		"coords": [
			{
				"x": 4.5583969098,
				"y": -0.8318011579,
				"z": -2.2804400391,
				"element": "C" 
			},
			{
				"x": 3.0885635588,
				"y": -0.519337508,
				"z": -2.1355475567,
				"element": "C" 
			},
			{
				"x": 2.5211611962,
				"y": -0.2583777517,
				"z": -0.8686160499,
				"element": "C" 
			},
			{
				"x": 3.3720642512,
				"y": -0.2830527387,
				"z": 0.378739888,
				"element": "C" 
			},
			{
				"x": 1.1604503326,
				"y": 0.040213389,
				"z": -0.773153331,
				"element": "C" 
			},
			{
				"x": 0.3388997736,
				"y": 0.0545411991,
				"z": -1.9049145974,
				"element": "C" 
			},
			{
				"x": -1.0421791602,
				"y": 0.3968503999,
				"z": -1.7960004168,
				"element": "N" 
			},
			{
				"x": -2.1334399593,
				"y": -0.5116682006,
				"z": -0.85100393,
				"element": "S" 
			},
			{
				"x": -3.4111496063,
				"y": -0.3572547294,
				"z": -1.5536986204,
				"element": "O" 
			},
			{
				"x": -1.5735344052,
				"y": -1.8210727948,
				"z": -0.5189572602,
				"element": "O" 
			},
			{
				"x": -2.2404307652,
				"y": 0.4237250301,
				"z": 0.6786295917,
				"element": "C" 
			},
			{
				"x": -1.6297618917,
				"y": -0.0690147516,
				"z": 1.823562882,
				"element": "C" 
			},
			{
				"x": -1.7152434814,
				"y": 0.6300082367,
				"z": 3.0406562454,
				"element": "C" 
			},
			{
				"x": -1.0588252989,
				"y": 0.0444290976,
				"z": 4.2505023558,
				"element": "C" 
			},
			{
				"x": -0.1911911153,
				"y": -0.945711152,
				"z": 3.9157856746,
				"element": "O" 
			},
			{
				"x": -1.249138159,
				"y": 0.3695778725,
				"z": 5.4007969975,
				"element": "O" 
			},
			{
				"x": -2.4383115774,
				"y": 1.8395225698,
				"z": 3.0613630778,
				"element": "C" 
			},
			{
				"x": -2.5997170033,
				"y": 2.8246396414,
				"z": 4.4904346001,
				"element": "Cl" 
			},
			{
				"x": -3.0559638138,
				"y": 2.3216554618,
				"z": 1.9006038517,
				"element": "C" 
			},
			{
				"x": -2.9659694912,
				"y": 1.616611592,
				"z": 0.7076315717,
				"element": "C" 
			},
			{
				"x": 0.89436775,
				"y": -0.2134391666,
				"z": -3.1569644607,
				"element": "C" 
			},
			{
				"x": 2.2584085773,
				"y": -0.4816605482,
				"z": -3.2597005838,
				"element": "C" 
			},
			{
				"x": 4.8412368884,
				"y": -1.7259152743,
				"z": -1.7115301877,
				"element": "H" 
			},
			{
				"x": 5.1871982366,
				"y": -0.0123193858,
				"z": -1.9111809421,
				"element": "H" 
			},
			{
				"x": 4.8220031384,
				"y": -1.0069712412,
				"z": -3.3267374045,
				"element": "H" 
			},
			{
				"x": 2.776991248,
				"y": -0.0631719327,
				"z": 1.2687112045,
				"element": "H" 
			},
			{
				"x": 4.1857563163,
				"y": 0.4505489136,
				"z": 0.3282661851,
				"element": "H" 
			},
			{
				"x": 3.840783527,
				"y": -1.2636436919,
				"z": 0.5246626933,
				"element": "H" 
			},
			{
				"x": 0.7368725806,
				"y": 0.2735877085,
				"z": 0.1982292549,
				"element": "H" 
			},
			{
				"x": -1.5034782102,
				"y": 0.5646518385,
				"z": -2.685956304,
				"element": "H" 
			},
			{
				"x": -1.093369419,
				"y": -1.0085369716,
				"z": 1.7830757982,
				"element": "H" 
			},
			{
				"x": 0.1531843527,
				"y": -1.2880317869,
				"z": 4.7570243933,
				"element": "H" 
			},
			{
				"x": -3.6086209527,
				"y": 3.2528285511,
				"z": 1.9482292153,
				"element": "H" 
			},
			{
				"x": -3.4600258124,
				"y": 1.9805459296,
				"z": -0.18652232,
				"element": "H" 
			},
			{
				"x": 0.2672075397,
				"y": -0.2151015376,
				"z": -4.0446691144,
				"element": "H" 
			},
			{
				"x": 2.6842039452,
				"y": -0.6814551096,
				"z": -4.2396123622,
				"element": "H" 
			}
		],
		 "valence_orbital": [ 
			{
				"type": "occ",
				"energy": -0.29318,
				"method": "rhf"
			},
			{
				"type": "occ",
				"energy": -0.28223,
				"method": "rhf"
			},
			{
				"type": "occ",
				"energy": -0.27239,
				"method": "rhf"
			},
			{
				"type": "occ",
				"energy": -0.2504,
				"method": "rhf"
			},
			{
				"type": "occ",
				"energy": -0.22619,
				"method": "rhf"
			},
			{
				"type": "unocc",
				"energy": -0.0759,
				"method": "rhf"
			},
			{
				"type": "unocc",
				"energy": -0.05129,
				"method": "rhf"
			},
			{
				"type": "unocc",
				"energy": -0.00936,
				"method": "rhf"
			},
			{
				"type": "unocc",
				"energy": -0.00605,
				"method": "rhf"
			},
			{
				"type": "unocc",
				"energy": 0.01681,
				"method": "rhf"
			}
		],
		"cosmo_sigma_profile": { 
			"-0.025": 0.0,
			"-0.024": 0.0,
			"-0.023": 0.0,
			"-0.022": 0.0,
			"-0.021": 0.0,
			"-0.02": 0.0,
			"-0.019": 0.482367817512,
			"-0.018": 0.834359957729,
			"-0.017": 1.07743225948,
			"-0.016": 1.20201325828,
			"-0.015": 0.636618628156,
			"-0.014": 1.21638172939,
			"-0.013": 2.26383853394,
			"-0.012": 1.36372499847,
			"-0.011": 2.51288910381,
			"-0.01": 1.75479745688,
			"-0.009": 3.72925211387,
			"-0.008": 6.68861871123,
			"-0.007": 6.37757826381,
			"-0.006": 7.38949070937,
			"-0.005": 13.0920287281,
			"-0.004": 28.9756490198,
			"-0.003": 29.7899485821,
			"-0.002": 32.5125660177,
			"-0.001": 35.3368877895,
			"0.0": 32.2555253321,
			"0.001": 22.1228298537,
			"0.002": 15.8862200494,
			"0.003": 18.9741776601,
			"0.004": 14.641082367,
			"0.005": 15.2786364149,
			"0.006": 10.6773141157,
			"0.007": 7.05239208416,
			"0.008": 6.24057834649,
			"0.009": 6.67336600232,
			"0.01": 12.9966433327,
			"0.011": 10.2305176745,
			"0.012": 0.995150189935,
			"0.013": 0.0,
			"0.014": 0.0,
			"0.015": 0.0,
			"0.016": 0.0,
			"0.017": 0.0,
			"0.018": 0.0,
			"0.019": 0.0,
			"0.02": 0.0,
			"0.021": 0.0,
			"0.022": 0.0,
			"0.023": 0.0,
			"0.024": 0.0,
			"0.0": 0.0
		}
	}
}
