{
	 "smiles": "FC(F)(F)C(F)(F)C(F)(F)C(F)(C(F)(F)F)C(F)(F)F", 
	 "Tm": 154.15, 
	 "num_atms": 20, 
	 "gaussian": { 
		 "optdone": 1, 
		 "sigma_profile": "yes", 
		 "theory": "DFT", 
		 "functional": "B3LYP", 
		 "basiset": "6-31G**", 
		 "properties": { 
			 "R2extent": 4430.6937, 
			 "electric_dipole_moment_norm": 0.105909159188, 
			 "electric_quadrupole_moment_norm": 0.254421579273, 
			 "total_energy": -1626.36274193, 
			 "HOMO_LUMO_gap": 0.36249, 
			 "cosmo_polarized_energy": -0.97, 
			 "cosmo_cavitation_energy": 28.91, 
			 "cosmo_dispersion_energy": -19.47, 
			 "cosmo_repulsion_energy": 1.23, 
			 "cosmo_total_nonelectrostatic_energy": 10.67, 
			 "SMD_solvation_energy": 9.54 
		},
		"coords": [
			{
				"x": -2.4101284008,
				"y": 2.0868277243,
				"z": -1.6489704594,
				"element": "F" 
			},
			{
				"x": -1.1228005575,
				"y": 1.9385913718,
				"z": -1.9876029794,
				"element": "C" 
			},
			{
				"x": -1.0424406115,
				"y": 1.2243266466,
				"z": -3.1133748201,
				"element": "F" 
			},
			{
				"x": -0.590558807,
				"y": 3.1470595646,
				"z": -2.2053549555,
				"element": "F" 
			},
			{
				"x": -0.3302102071,
				"y": 1.2507549314,
				"z": -0.8396856062,
				"element": "C" 
			},
			{
				"x": 0.8961553922,
				"y": 0.9479577958,
				"z": -1.320032579,
				"element": "F" 
			},
			{
				"x": -0.2157198793,
				"y": 2.1488209994,
				"z": 0.1644312203,
				"element": "F" 
			},
			{
				"x": -1.0037494001,
				"y": -0.0396874389,
				"z": -0.2909819306,
				"element": "C" 
			},
			{
				"x": -2.1101624575,
				"y": 0.3213317663,
				"z": 0.4004474148,
				"element": "F" 
			},
			{
				"x": -1.3721271569,
				"y": -0.7657006255,
				"z": -1.3755464566,
				"element": "F" 
			},
			{
				"x": -0.1376474725,
				"y": -0.9737268295,
				"z": 0.6166352632,
				"element": "C" 
			},
			{
				"x": 0.8115708404,
				"y": -1.5572660689,
				"z": -0.1789376552,
				"element": "F" 
			},
			{
				"x": 0.6104720637,
				"y": -0.2316623855,
				"z": 1.7624387902,
				"element": "C" 
			},
			{
				"x": 1.6165811955,
				"y": 0.492563177,
				"z": 1.258024421,
				"element": "F" 
			},
			{
				"x": 1.1325233927,
				"y": -1.1109722828,
				"z": 2.6285219809,
				"element": "F" 
			},
			{
				"x": -0.2244567271,
				"y": 0.5779700681,
				"z": 2.4265741081,
				"element": "F" 
			},
			{
				"x": -1.0121285566,
				"y": -2.1280461584,
				"z": 1.2110130395,
				"element": "C" 
			},
			{
				"x": -0.2137526911,
				"y": -3.1223136121,
				"z": 1.6125263901,
				"element": "F" 
			},
			{
				"x": -1.8634505938,
				"y": -2.6237621133,
				"z": 0.3054493684,
				"element": "F" 
			},
			{
				"x": -1.7188693657,
				"y": -1.6835665304,
				"z": 2.2603254454,
				"element": "F" 
			}
		],
		 "valence_orbital": [ 
			{
				"type": "occ",
				"energy": -0.43018,
				"method": "rhf"
			},
			{
				"type": "occ",
				"energy": -0.42675,
				"method": "rhf"
			},
			{
				"type": "occ",
				"energy": -0.40405,
				"method": "rhf"
			},
			{
				"type": "occ",
				"energy": -0.38559,
				"method": "rhf"
			},
			{
				"type": "occ",
				"energy": -0.35874,
				"method": "rhf"
			},
			{
				"type": "unocc",
				"energy": 0.00375,
				"method": "rhf"
			},
			{
				"type": "unocc",
				"energy": 0.02627,
				"method": "rhf"
			},
			{
				"type": "unocc",
				"energy": 0.05595,
				"method": "rhf"
			},
			{
				"type": "unocc",
				"energy": 0.07781,
				"method": "rhf"
			},
			{
				"type": "unocc",
				"energy": 0.11862,
				"method": "rhf"
			}
		],
		"cosmo_sigma_profile": { 
			"-0.025": 0.0,
			"-0.024": 0.0,
			"-0.023": 0.0,
			"-0.022": 0.0,
			"-0.021": 0.0,
			"-0.02": 0.0,
			"-0.019": 0.0,
			"-0.018": 0.0,
			"-0.017": 0.0,
			"-0.016": 0.0,
			"-0.015": 0.0,
			"-0.014": 0.0,
			"-0.013": 0.0,
			"-0.012": 0.0,
			"-0.011": 0.0,
			"-0.01": 0.0,
			"-0.009": 0.0,
			"-0.008": 0.0,
			"-0.007": 0.0,
			"-0.006": 0.0,
			"-0.005": 0.237579587278,
			"-0.004": 3.71426723121,
			"-0.003": 9.81384359505,
			"-0.002": 16.5140364675,
			"-0.001": 27.211054733,
			"0.0": 72.2804942137,
			"0.001": 100.014008793,
			"0.002": 3.09409531241,
			"0.003": 0.0,
			"0.004": 0.0,
			"0.005": 0.0,
			"0.006": 0.0,
			"0.007": 0.0,
			"0.008": 0.0,
			"0.009": 0.0,
			"0.01": 0.0,
			"0.011": 0.0,
			"0.012": 0.0,
			"0.013": 0.0,
			"0.014": 0.0,
			"0.015": 0.0,
			"0.016": 0.0,
			"0.017": 0.0,
			"0.018": 0.0,
			"0.019": 0.0,
			"0.02": 0.0,
			"0.021": 0.0,
			"0.022": 0.0,
			"0.023": 0.0,
			"0.024": 0.0,
			"0.025": 0.0
		}
	}
}
