{
	 "smiles": "CC(CCC1=CC=CC=C1)NS(=O)(=O)C1=CC(C(O)=O)=C(Cl)C=C1", 
	 "Tm": 368.15, 
	 "num_atms": 42, 
	 "gaussian": { 
		 "optdone": 1, 
		 "sigma_profile": "yes", 
		 "theory": "DFT", 
		 "functional": "B3LYP", 
		 "basiset": "6-31G**", 
		 "properties": { 
			 "R2extent": 11235.2376, 
			 "electric_dipole_moment_norm": 4.95906254548, 
			 "electric_quadrupole_moment_norm": 29.8518228497, 
			 "total_energy": -1872.63148645, 
			 "HOMO_LUMO_gap": 0.16558, 
			 "cosmo_polarized_energy": -19.76, 
			 "cosmo_cavitation_energy": 47.46, 
			 "cosmo_dispersion_energy": -31.71, 
			 "cosmo_repulsion_energy": 2.33, 
			 "cosmo_total_nonelectrostatic_energy": 18.07, 
			 "SMD_solvation_energy": 6.84 
		},
		"coords": [
			{
				"x": 4.0007142658,
				"y": -0.2777935197,
				"z": 1.464260072,
				"element": "C" 
			},
			{
				"x": 2.6736153876,
				"y": 0.3871667024,
				"z": 1.091008219,
				"element": "C" 
			},
			{
				"x": 2.8022699965,
				"y": 1.2120405934,
				"z": -0.2006327035,
				"element": "C" 
			},
			{
				"x": 1.5817673982,
				"y": 2.0838178986,
				"z": -0.5913962184,
				"element": "C" 
			},
			{
				"x": 0.4635844003,
				"y": 1.3597321554,
				"z": -1.3227498333,
				"element": "C" 
			},
			{
				"x": -0.7837779865,
				"y": 1.1341875172,
				"z": -0.7196300666,
				"element": "C" 
			},
			{
				"x": -1.7993055647,
				"y": 0.4534907335,
				"z": -1.399955841,
				"element": "C" 
			},
			{
				"x": -1.5843900981,
				"y": -0.0003539581,
				"z": -2.7017815713,
				"element": "C" 
			},
			{
				"x": -0.3521047967,
				"y": 0.2282399009,
				"z": -3.3194668357,
				"element": "C" 
			},
			{
				"x": 0.6605314743,
				"y": 0.8992400283,
				"z": -2.6348751041,
				"element": "C" 
			},
			{
				"x": 1.6189244086,
				"y": -0.6631176935,
				"z": 0.9131980126,
				"element": "N" 
			},
			{
				"x": 0.7230190811,
				"y": -1.0347679693,
				"z": 2.2974652196,
				"element": "S" 
			},
			{
				"x": 1.6697100986,
				"y": -1.4714325971,
				"z": 3.3284807026,
				"element": "O" 
			},
			{
				"x": -0.2637539844,
				"y": 0.0108904285,
				"z": 2.6074389192,
				"element": "O" 
			},
			{
				"x": -0.18465385,
				"y": -2.4693997493,
				"z": 1.7018122657,
				"element": "C" 
			},
			{
				"x": -1.4864610137,
				"y": -2.3119093288,
				"z": 1.250858321,
				"element": "C" 
			},
			{
				"x": -2.2325608408,
				"y": -3.4075601886,
				"z": 0.7822080182,
				"element": "C" 
			},
			{
				"x": -3.6273071295,
				"y": -3.0470611884,
				"z": 0.3015211718,
				"element": "C" 
			},
			{
				"x": -4.5314771979,
				"y": -4.0189539128,
				"z": 0.1029080719,
				"element": "O" 
			},
			{
				"x": -3.9346037423,
				"y": -1.8904528899,
				"z": 0.1178534152,
				"element": "O" 
			},
			{
				"x": -1.5982403518,
				"y": -4.6619903896,
				"z": 0.8018833831,
				"element": "C" 
			},
			{
				"x": -2.3889757631,
				"y": -6.1379566092,
				"z": 0.2320257233,
				"element": "Cl" 
			},
			{
				"x": -0.2887027026,
				"y": -4.8238348439,
				"z": 1.2634703249,
				"element": "C" 
			},
			{
				"x": 0.4272114284,
				"y": -3.7238372678,
				"z": 1.7197607245,
				"element": "C" 
			},
			{
				"x": 4.7718021566,
				"y": 0.4822410972,
				"z": 1.6294795379,
				"element": "H" 
			},
			{
				"x": 3.8913203852,
				"y": -0.8656112735,
				"z": 2.3770797799,
				"element": "H" 
			},
			{
				"x": 4.3325312155,
				"y": -0.9418063488,
				"z": 0.6593385411,
				"element": "H" 
			},
			{
				"x": 2.3772579773,
				"y": 1.0757181331,
				"z": 1.895300143,
				"element": "H" 
			},
			{
				"x": 3.6643611676,
				"y": 1.8729747807,
				"z": -0.054919736,
				"element": "H" 
			},
			{
				"x": 3.0653040581,
				"y": 0.5430055614,
				"z": -1.0303507993,
				"element": "H" 
			},
			{
				"x": 1.1817583792,
				"y": 2.5693802308,
				"z": 0.30640084,
				"element": "H" 
			},
			{
				"x": 1.9480405521,
				"y": 2.8909103159,
				"z": -1.2375666325,
				"element": "H" 
			},
			{
				"x": -0.9560687468,
				"y": 1.4808537868,
				"z": 0.2961602655,
				"element": "H" 
			},
			{
				"x": -2.7500671401,
				"y": 0.2656105833,
				"z": -0.9107444246,
				"element": "H" 
			},
			{
				"x": -2.3728241143,
				"y": -0.5276146014,
				"z": -3.2307730358,
				"element": "H" 
			},
			{
				"x": -0.1797789682,
				"y": -0.1152717143,
				"z": -4.3358131659,
				"element": "H" 
			},
			{
				"x": 1.6148047652,
				"y": 1.0762159919,
				"z": -3.126243166,
				"element": "H" 
			},
			{
				"x": 0.9503720257,
				"y": -0.3982369531,
				"z": 0.1879351631,
				"element": "H" 
			},
			{
				"x": -1.9592493497,
				"y": -1.3376475789,
				"z": 1.2534313822,
				"element": "H" 
			},
			{
				"x": -4.1605529686,
				"y": -4.8998261049,
				"z": 0.2739261774,
				"element": "H" 
			},
			{
				"x": 0.1580276472,
				"y": -5.8114278703,
				"z": 1.261468007,
				"element": "H" 
			},
			{
				"x": 1.439628041,
				"y": -3.8335518883,
				"z": 2.0924267325,
				"element": "H" 
			}
		],
		 "valence_orbital": [ 
			{
				"type": "occ",
				"energy": -0.2912,
				"method": "rhf"
			},
			{
				"type": "occ",
				"energy": -0.28834,
				"method": "rhf"
			},
			{
				"type": "occ",
				"energy": -0.26716,
				"method": "rhf"
			},
			{
				"type": "occ",
				"energy": -0.25292,
				"method": "rhf"
			},
			{
				"type": "occ",
				"energy": -0.24513,
				"method": "rhf"
			},
			{
				"type": "unocc",
				"energy": -0.07955,
				"method": "rhf"
			},
			{
				"type": "unocc",
				"energy": -0.0562,
				"method": "rhf"
			},
			{
				"type": "unocc",
				"energy": -0.01332,
				"method": "rhf"
			},
			{
				"type": "unocc",
				"energy": -0.00875,
				"method": "rhf"
			},
			{
				"type": "unocc",
				"energy": -0.00585,
				"method": "rhf"
			}
		],
		"cosmo_sigma_profile": { 
			"-0.025": 0.0,
			"-0.024": 0.0,
			"-0.023": 0.0,
			"-0.022": 0.0,
			"-0.021": 0.0,
			"-0.02": 0.0,
			"-0.019": 0.0,
			"-0.018": 0.0,
			"-0.017": 0.0,
			"-0.016": 0.0,
			"-0.015": 0.0,
			"-0.014": 0.128313325928,
			"-0.013": 0.539410971572,
			"-0.012": 1.75879560867,
			"-0.011": 1.02220681443,
			"-0.01": 1.58957948869,
			"-0.009": 4.29696213999,
			"-0.008": 6.21424693646,
			"-0.007": 5.50259187579,
			"-0.006": 8.82891336566,
			"-0.005": 17.4214217355,
			"-0.004": 37.0599605885,
			"-0.003": 42.5663845315,
			"-0.002": 38.8216765854,
			"-0.001": 39.6359605781,
			"0.0": 30.3694726676,
			"0.001": 26.2468129723,
			"0.002": 18.5806132924,
			"0.003": 17.0549818819,
			"0.004": 14.2521103238,
			"0.005": 14.1100825133,
			"0.006": 9.78026785806,
			"0.007": 6.63663888506,
			"0.008": 6.37955207913,
			"0.009": 7.98430892729,
			"0.01": 10.0978680116,
			"0.011": 8.46567964037,
			"0.012": 4.19167985207,
			"0.013": 0.373273057181,
			"0.014": 0.0,
			"0.015": 0.0,
			"0.016": 0.0,
			"0.017": 0.0,
			"0.018": 0.0,
			"0.019": 0.0,
			"0.02": 0.0,
			"0.021": 0.0,
			"0.022": 0.0,
			"0.023": 0.0,
			"0.024": 0.0,
			"0.025": 0.0
		}
	}
}
