{
	 "smiles": "CS(=O)(=O)NC1=C(N)C=C(C=C1)C(F)(F)F", 
	 "Tm": 400.15, 
	 "num_atms": 25, 
	 "gaussian": { 
		 "optdone": 1, 
		 "sigma_profile": "yes", 
		 "theory": "DFT", 
		 "functional": "B3LYP", 
		 "basiset": "6-31G**", 
		 "properties": { 
			 "R2extent": 5415.1364, 
			 "electric_dipole_moment_norm": 3.69612133729, 
			 "electric_quadrupole_moment_norm": 24.5757956496, 
			 "total_energy": -1267.88003424, 
			 "HOMO_LUMO_gap": 0.20271, 
			 "cosmo_polarized_energy": -18.52, 
			 "cosmo_cavitation_energy": 31.69, 
			 "cosmo_dispersion_energy": -23.03, 
			 "cosmo_repulsion_energy": 1.69, 
			 "cosmo_total_nonelectrostatic_energy": 10.36, 
			 "SMD_solvation_energy": 6.27 
		},
		"coords": [
			{
				"x": -1.5002004737,
				"y": 3.4612687009,
				"z": -0.4860091278,
				"element": "C" 
			},
			{
				"x": -2.42476662,
				"y": 2.3253937486,
				"z": -1.5419782117,
				"element": "S" 
			},
			{
				"x": -2.4571476272,
				"y": 2.875709655,
				"z": -2.8945024106,
				"element": "O" 
			},
			{
				"x": -3.6421813614,
				"y": 1.94932535,
				"z": -0.826293123,
				"element": "O" 
			},
			{
				"x": -1.4449221378,
				"y": 0.9523773359,
				"z": -1.6753582473,
				"element": "N" 
			},
			{
				"x": -1.0111137031,
				"y": 0.1395239616,
				"z": -0.6052318177,
				"element": "C" 
			},
			{
				"x": 0.1347421637,
				"y": -0.6547872654,
				"z": -0.856317965,
				"element": "C" 
			},
			{
				"x": 0.7318481319,
				"y": -0.5632963956,
				"z": -2.140028714,
				"element": "N" 
			},
			{
				"x": 0.6551092487,
				"y": -1.4397265541,
				"z": 0.1688933505,
				"element": "C" 
			},
			{
				"x": 0.048319317,
				"y": -1.4625657426,
				"z": 1.4285511279,
				"element": "C" 
			},
			{
				"x": -1.1109265449,
				"y": -0.7222709217,
				"z": 1.6538061435,
				"element": "C" 
			},
			{
				"x": -1.6447684911,
				"y": 0.0729510753,
				"z": 0.6401443131,
				"element": "C" 
			},
			{
				"x": 0.6026010338,
				"y": -2.3582322702,
				"z": 2.4991252281,
				"element": "C" 
			},
			{
				"x": 0.2817618373,
				"y": -1.9243845358,
				"z": 3.7376854022,
				"element": "F" 
			},
			{
				"x": 1.9524935332,
				"y": -2.441766949,
				"z": 2.433192653,
				"element": "F" 
			},
			{
				"x": 0.1328663298,
				"y": -3.6244113487,
				"z": 2.3932284858,
				"element": "F" 
			},
			{
				"x": -0.5860603395,
				"y": 3.7564025434,
				"z": -1.0023672421,
				"element": "H" 
			},
			{
				"x": -2.1412666571,
				"y": 4.328573693,
				"z": -0.3187888178,
				"element": "H" 
			},
			{
				"x": -1.2762026316,
				"y": 2.9681989099,
				"z": 0.4610347364,
				"element": "H" 
			},
			{
				"x": -0.7349558404,
				"y": 1.0788526005,
				"z": -2.3945137369,
				"element": "H" 
			},
			{
				"x": 0.131589174,
				"y": -0.9349699099,
				"z": -2.8729384703,
				"element": "H" 
			},
			{
				"x": 1.625180444,
				"y": -1.0405004889,
				"z": -2.183216907,
				"element": "H" 
			},
			{
				"x": 1.5434186188,
				"y": -2.0371944422,
				"z": -0.013681543,
				"element": "H" 
			},
			{
				"x": -1.596951138,
				"y": -0.7572507662,
				"z": 2.622163703,
				"element": "H" 
			},
			{
				"x": -2.5546662667,
				"y": 0.6354800162,
				"z": 0.8108011907,
				"element": "H" 
			}
		],
		 "valence_orbital": [ 
			{
				"type": "occ",
				"energy": -0.32313,
				"method": "rhf"
			},
			{
				"type": "occ",
				"energy": -0.31581,
				"method": "rhf"
			},
			{
				"type": "occ",
				"energy": -0.31108,
				"method": "rhf"
			},
			{
				"type": "occ",
				"energy": -0.25866,
				"method": "rhf"
			},
			{
				"type": "occ",
				"energy": -0.23152,
				"method": "rhf"
			},
			{
				"type": "unocc",
				"energy": -0.02881,
				"method": "rhf"
			},
			{
				"type": "unocc",
				"energy": -0.01814,
				"method": "rhf"
			},
			{
				"type": "unocc",
				"energy": 0.04497,
				"method": "rhf"
			},
			{
				"type": "unocc",
				"energy": 0.06359,
				"method": "rhf"
			},
			{
				"type": "unocc",
				"energy": 0.0708,
				"method": "rhf"
			}
		],
		"cosmo_sigma_profile": { 
			"-0.025": 0.0,
			"-0.024": 0.0,
			"-0.023": 0.0,
			"-0.022": 0.0,
			"-0.021": 0.0,
			"-0.02": 0.0,
			"-0.019": 0.0,
			"-0.018": 0.0,
			"-0.017": 0.0,
			"-0.016": 0.0,
			"-0.015": 0.0,
			"-0.014": 0.0,
			"-0.013": 1.57689620732,
			"-0.012": 4.29670489906,
			"-0.011": 5.02006278935,
			"-0.01": 5.23704023968,
			"-0.009": 7.40803798289,
			"-0.008": 8.25310785643,
			"-0.007": 9.66017837897,
			"-0.006": 10.6488255579,
			"-0.005": 14.1996319451,
			"-0.004": 12.5552399912,
			"-0.003": 9.2441738229,
			"-0.002": 8.20250273539,
			"-0.001": 9.14309218571,
			"0.0": 9.91279767637,
			"0.001": 13.5526777069,
			"0.002": 24.9829727934,
			"0.003": 43.3949265844,
			"0.004": 14.3067119206,
			"0.005": 3.80190141732,
			"0.006": 3.69570085238,
			"0.007": 5.14764561168,
			"0.008": 3.83035850755,
			"0.009": 4.04228751968,
			"0.01": 8.79191447527,
			"0.011": 9.93474845419,
			"0.012": 1.74963084335,
			"0.013": 0.0,
			"0.014": 0.0,
			"0.015": 0.0,
			"0.016": 0.0,
			"0.017": 0.0,
			"0.018": 0.0,
			"0.019": 0.0,
			"0.02": 0.0,
			"0.021": 0.0,
			"0.022": 0.0,
			"0.023": 0.0,
			"0.024": 0.0,
			"0.025": 0.0
		}
	}
}
