{
	 "smiles": "OC(=O)C1CCCN(C1)C1=NS(=O)(=O)C2=C1C=CC=C2", 
	 "Tm": 479.15, 
	 "num_atms": 34, 
	 "gaussian": { 
		 "optdone": 1, 
		 "sigma_profile": "yes", 
		 "theory": "DFT", 
		 "functional": "B3LYP", 
		 "basiset": "6-31G**", 
		 "properties": { 
			 "R2extent": 5726.1388, 
			 "electric_dipole_moment_norm": 7.71318658208, 
			 "electric_quadrupole_moment_norm": 23.6099148895, 
			 "total_energy": -1312.34946111, 
			 "HOMO_LUMO_gap": 0.16971, 
			 "cosmo_polarized_energy": -27.24, 
			 "cosmo_cavitation_energy": 37.25, 
			 "cosmo_dispersion_energy": -26.86, 
			 "cosmo_repulsion_energy": 1.99, 
			 "cosmo_total_nonelectrostatic_energy": 12.39, 
			 "SMD_solvation_energy": 4.51 
		},
		"coords": [
			{
				"x": -1.1310680989,
				"y": 2.6953999014,
				"z": -1.965161789,
				"element": "O" 
			},
			{
				"x": 0.0829784067,
				"y": 2.6796832266,
				"z": -1.3785700543,
				"element": "C" 
			},
			{
				"x": 0.3472075042,
				"y": 3.3167541446,
				"z": -0.3813055323,
				"element": "O" 
			},
			{
				"x": 1.0476480127,
				"y": 1.7765274538,
				"z": -2.1368128585,
				"element": "C" 
			},
			{
				"x": 2.5146719111,
				"y": 2.0136992637,
				"z": -1.7375585468,
				"element": "C" 
			},
			{
				"x": 2.8316319894,
				"y": 1.4385799038,
				"z": -0.3502320871,
				"element": "C" 
			},
			{
				"x": 2.3995204863,
				"y": -0.0311726865,
				"z": -0.2148818634,
				"element": "C" 
			},
			{
				"x": 0.9887474631,
				"y": -0.2081624775,
				"z": -0.5924684278,
				"element": "N" 
			},
			{
				"x": 0.6812831931,
				"y": 0.2854349983,
				"z": -1.9419378815,
				"element": "C" 
			},
			{
				"x": -0.0305439326,
				"y": -0.370387813,
				"z": 0.2962349677,
				"element": "C" 
			},
			{
				"x": -1.2241612392,
				"y": 0.0822796843,
				"z": 0.0029820285,
				"element": "N" 
			},
			{
				"x": -2.3235637173,
				"y": -0.2449767196,
				"z": 1.2321905062,
				"element": "S" 
			},
			{
				"x": -2.7647850285,
				"y": 1.0183658699,
				"z": 1.8265359014,
				"element": "O" 
			},
			{
				"x": -3.3277078866,
				"y": -1.213640762,
				"z": 0.7857402519,
				"element": "O" 
			},
			{
				"x": -1.1232620446,
				"y": -1.0809456297,
				"z": 2.2750658108,
				"element": "C" 
			},
			{
				"x": 0.0976456377,
				"y": -1.1226289618,
				"z": 1.5964218157,
				"element": "C" 
			},
			{
				"x": 1.1325612129,
				"y": -1.8933870119,
				"z": 2.1375764649,
				"element": "C" 
			},
			{
				"x": 0.9348036092,
				"y": -2.5328435801,
				"z": 3.3655414975,
				"element": "C" 
			},
			{
				"x": -0.2810975772,
				"y": -2.4323149593,
				"z": 4.0464943259,
				"element": "C" 
			},
			{
				"x": -1.3421433318,
				"y": -1.7131876201,
				"z": 3.4878913904,
				"element": "C" 
			},
			{
				"x": -1.7249257329,
				"y": 3.181964025,
				"z": -1.3685913878,
				"element": "H" 
			},
			{
				"x": 0.9060939444,
				"y": 1.9947921669,
				"z": -3.2022306136,
				"element": "H" 
			},
			{
				"x": 2.7419998054,
				"y": 3.0835201154,
				"z": -1.7568915569,
				"element": "H" 
			},
			{
				"x": 3.1534384694,
				"y": 1.5341366555,
				"z": -2.4913417183,
				"element": "H" 
			},
			{
				"x": 3.9077307283,
				"y": 1.5031734443,
				"z": -0.1504813955,
				"element": "H" 
			},
			{
				"x": 2.3157570241,
				"y": 2.0333108196,
				"z": 0.4083593049,
				"element": "H" 
			},
			{
				"x": 2.5493833148,
				"y": -0.3509896669,
				"z": 0.812304856,
				"element": "H" 
			},
			{
				"x": 3.010001629,
				"y": -0.6736648798,
				"z": -0.8648084495,
				"element": "H" 
			},
			{
				"x": -0.3737069279,
				"y": 0.1107984992,
				"z": -2.1449035685,
				"element": "H" 
			},
			{
				"x": 1.2834705994,
				"y": -0.3067878705,
				"z": -2.6432683157,
				"element": "H" 
			},
			{
				"x": 2.072288276,
				"y": -2.0350161627,
				"z": 1.6191194228,
				"element": "H" 
			},
			{
				"x": 1.739755099,
				"y": -3.1261899372,
				"z": 3.7881337148,
				"element": "H" 
			},
			{
				"x": -0.411131594,
				"y": -2.9354353499,
				"z": 4.9996708353,
				"element": "H" 
			},
			{
				"x": -2.309121205,
				"y": -1.6616880836,
				"z": 3.9773829515,
				"element": "H" 
			}
		],
		 "valence_orbital": [ 
			{
				"type": "occ",
				"energy": -0.28499,
				"method": "rhf"
			},
			{
				"type": "occ",
				"energy": -0.27918,
				"method": "rhf"
			},
			{
				"type": "occ",
				"energy": -0.27309,
				"method": "rhf"
			},
			{
				"type": "occ",
				"energy": -0.26948,
				"method": "rhf"
			},
			{
				"type": "occ",
				"energy": -0.24064,
				"method": "rhf"
			},
			{
				"type": "unocc",
				"energy": -0.07093,
				"method": "rhf"
			},
			{
				"type": "unocc",
				"energy": -0.04092,
				"method": "rhf"
			},
			{
				"type": "unocc",
				"energy": 0.00472,
				"method": "rhf"
			},
			{
				"type": "unocc",
				"energy": 0.02432,
				"method": "rhf"
			},
			{
				"type": "unocc",
				"energy": 0.05943,
				"method": "rhf"
			}
		],
		"cosmo_sigma_profile": { 
			"-0.025": 0.0,
			"-0.024": 0.0,
			"-0.023": 0.0,
			"-0.022": 0.0,
			"-0.021": 0.0,
			"-0.02": 0.0,
			"-0.019": 0.0,
			"-0.018": 0.714841296223,
			"-0.017": 0.757349342276,
			"-0.016": 0.725681186607,
			"-0.015": 1.05304337746,
			"-0.014": 0.126638482642,
			"-0.013": 0.719069247745,
			"-0.012": 0.377945739062,
			"-0.011": 1.11754703753,
			"-0.01": 0.479251368405,
			"-0.009": 2.61714289773,
			"-0.008": 7.53037039679,
			"-0.007": 14.169721299,
			"-0.006": 23.3887175891,
			"-0.005": 21.5556326989,
			"-0.004": 26.1528791261,
			"-0.003": 22.217377632,
			"-0.002": 20.1168323144,
			"-0.001": 19.5350891264,
			"0.0": 15.2529614219,
			"0.001": 18.7181278977,
			"0.002": 14.6829281508,
			"0.003": 5.9566470244,
			"0.004": 5.1307833286,
			"0.005": 6.75020634507,
			"0.006": 5.80562920362,
			"0.007": 6.59591055232,
			"0.008": 7.74626772811,
			"0.009": 8.11603105324,
			"0.01": 10.4411477408,
			"0.011": 18.1243152731,
			"0.012": 8.91985332052,
			"0.013": 0.0860434485567,
			"0.014": 0.0,
			"0.015": 0.0,
			"0.016": 0.0,
			"0.017": 0.0,
			"0.018": 0.0,
			"0.019": 0.0,
			"0.02": 0.0,
			"0.021": 0.0,
			"0.022": 0.0,
			"0.023": 0.0,
			"0.024": 0.0,
			"0.025": 0.0
		}
	}
}
