{
	 "smiles": "CC=CC=CC=CC=O", 
	 "Tm": 329.95, 
	 "num_atms": 19, 
	 "gaussian": { 
		 "optdone": 1, 
		 "sigma_profile": "yes", 
		 "theory": "DFT", 
		 "functional": "B3LYP", 
		 "basiset": "6-31G**", 
		 "properties": { 
			 "R2extent": 2581.0622, 
			 "electric_dipole_moment_norm": 4.69376930196, 
			 "electric_quadrupole_moment_norm": 13.3823361399, 
			 "total_energy": -386.047361555, 
			 "HOMO_LUMO_gap": 0.136, 
			 "cosmo_polarized_energy": -8.97, 
			 "cosmo_cavitation_energy": 24.31, 
			 "cosmo_dispersion_energy": -17.12, 
			 "cosmo_repulsion_energy": 1.43, 
			 "cosmo_total_nonelectrostatic_energy": 8.62, 
			 "SMD_solvation_energy": 5.87 
		},
		"coords": [
			{
				"x": -4.1203521784,
				"y": 0.8112883584,
				"z": 0.7730646192,
				"element": "C" 
			},
			{
				"x": -2.7315885391,
				"y": 0.4733707965,
				"z": 0.3280402715,
				"element": "C" 
			},
			{
				"x": -1.8618774665,
				"y": -0.2762445196,
				"z": 1.031803494,
				"element": "C" 
			},
			{
				"x": -0.5084183293,
				"y": -0.6397524679,
				"z": 0.6364431041,
				"element": "C" 
			},
			{
				"x": 0.0465849568,
				"y": -0.5361198897,
				"z": -0.598103524,
				"element": "C" 
			},
			{
				"x": 1.4068942946,
				"y": -0.9100090987,
				"z": -0.8707349019,
				"element": "C" 
			},
			{
				"x": 2.0165211826,
				"y": -0.8265688214,
				"z": -2.0790983892,
				"element": "C" 
			},
			{
				"x": 3.4152396613,
				"y": -1.234971362,
				"z": -2.259586844,
				"element": "C" 
			},
			{
				"x": 4.1354242174,
				"y": -1.6705577382,
				"z": -1.3733578984,
				"element": "O" 
			},
			{
				"x": -4.261822993,
				"y": 1.8979158836,
				"z": 0.8388765034,
				"element": "H" 
			},
			{
				"x": -4.3505072912,
				"y": 0.3757024884,
				"z": 1.7496498288,
				"element": "H" 
			},
			{
				"x": -4.8641326329,
				"y": 0.4467845403,
				"z": 0.0522621643,
				"element": "H" 
			},
			{
				"x": -2.42330157,
				"y": 0.8845430134,
				"z": -0.6331757609,
				"element": "H" 
			},
			{
				"x": -2.1787312445,
				"y": -0.6416666175,
				"z": 2.0082921583,
				"element": "H" 
			},
			{
				"x": 0.1162239142,
				"y": -1.0523730875,
				"z": 1.4283284377,
				"element": "H" 
			},
			{
				"x": -0.5461830078,
				"y": -0.1661507275,
				"z": -1.4333839581,
				"element": "H" 
			},
			{
				"x": 2.0037392149,
				"y": -1.2928443476,
				"z": -0.0430708583,
				"element": "H" 
			},
			{
				"x": 1.4847175606,
				"y": -0.453020274,
				"z": -2.9521446159,
				"element": "H" 
			},
			{
				"x": 3.8057702504,
				"y": -1.122726129,
				"z": -3.2947038307,
				"element": "H" 
			}
		],
		 "valence_orbital": [ 
			{
				"type": "occ",
				"energy": -0.35897,
				"method": "rhf"
			},
			{
				"type": "occ",
				"energy": -0.34167,
				"method": "rhf"
			},
			{
				"type": "occ",
				"energy": -0.28748,
				"method": "rhf"
			},
			{
				"type": "occ",
				"energy": -0.24205,
				"method": "rhf"
			},
			{
				"type": "occ",
				"energy": -0.21861,
				"method": "rhf"
			},
			{
				"type": "unocc",
				"energy": -0.08261,
				"method": "rhf"
			},
			{
				"type": "unocc",
				"energy": -0.00676,
				"method": "rhf"
			},
			{
				"type": "unocc",
				"energy": 0.06953,
				"method": "rhf"
			},
			{
				"type": "unocc",
				"energy": 0.08638,
				"method": "rhf"
			},
			{
				"type": "unocc",
				"energy": 0.10527,
				"method": "rhf"
			}
		],
		"cosmo_sigma_profile": { 
			"-0.025": 0.0,
			"-0.024": 0.0,
			"-0.023": 0.0,
			"-0.022": 0.0,
			"-0.021": 0.0,
			"-0.02": 0.0,
			"-0.019": 0.0,
			"-0.018": 0.0,
			"-0.017": 0.0,
			"-0.016": 0.0,
			"-0.015": 0.0,
			"-0.014": 0.0,
			"-0.013": 0.0,
			"-0.012": 0.0,
			"-0.011": 0.0,
			"-0.01": 0.0,
			"-0.009": 0.0,
			"-0.008": 0.0,
			"-0.007": 1.94663553389,
			"-0.006": 12.376223866,
			"-0.005": 19.0630249402,
			"-0.004": 19.0383678535,
			"-0.003": 16.9872824088,
			"-0.002": 16.9263417191,
			"-0.001": 16.7740573568,
			"0.0": 15.2319364574,
			"0.001": 11.3546268869,
			"0.002": 12.7926175241,
			"0.003": 13.591801083,
			"0.004": 11.6176371977,
			"0.005": 5.50337874955,
			"0.006": 1.63781961193,
			"0.007": 1.82652417566,
			"0.008": 1.59982798678,
			"0.009": 1.69075202105,
			"0.01": 2.0610695299,
			"0.011": 2.71867483884,
			"0.012": 4.21345478184,
			"0.013": 3.42948643386,
			"0.014": 0.789352280101,
			"0.015": 0.0,
			"0.016": 0.0,
			"0.017": 0.0,
			"0.018": 0.0,
			"0.019": 0.0,
			"0.02": 0.0,
			"0.021": 0.0,
			"0.022": 0.0,
			"0.023": 0.0,
			"0.024": 0.0,
			"0.025": 0.0
		}
	}
}
