{
	 "smiles": "OC(=O)C1=C(F)C(Cl)=CC(=C1)[N+]([O-])=O", 
	 "Tm": 454.15, 
	 "num_atms": 17, 
	 "gaussian": { 
		 "optdone": 1, 
		 "sigma_profile": "yes", 
		 "theory": "DFT", 
		 "functional": "B3LYP", 
		 "basiset": "6-31G**", 
		 "properties": { 
			 "R2extent": 4172.4389, 
			 "electric_dipole_moment_norm": 2.21036902575, 
			 "electric_quadrupole_moment_norm": 20.9083511519, 
			 "total_energy": -1184.1170768, 
			 "HOMO_LUMO_gap": 0.17662, 
			 "cosmo_polarized_energy": -17.45, 
			 "cosmo_cavitation_energy": 25.88, 
			 "cosmo_dispersion_energy": -18.84, 
			 "cosmo_repulsion_energy": 1.47, 
			 "cosmo_total_nonelectrostatic_energy": 8.51, 
			 "SMD_solvation_energy": 8.13 
		},
		"coords": [
			{
				"x": -0.7880546203,
				"y": -2.3175403727,
				"z": 2.9842066328,
				"element": "O" 
			},
			{
				"x": -0.8634353332,
				"y": -1.2148614637,
				"z": 2.1969162587,
				"element": "C" 
			},
			{
				"x": -1.7714128228,
				"y": -0.433611223,
				"z": 2.3085747983,
				"element": "O" 
			},
			{
				"x": 0.2770446777,
				"y": -1.0329368613,
				"z": 1.2283107811,
				"element": "C" 
			},
			{
				"x": 0.0489341245,
				"y": -0.4478029701,
				"z": -0.0268867847,
				"element": "C" 
			},
			{
				"x": -1.1846613089,
				"y": -0.132204639,
				"z": -0.3979030664,
				"element": "F" 
			},
			{
				"x": 1.102627295,
				"y": -0.2138607009,
				"z": -0.9208728316,
				"element": "C" 
			},
			{
				"x": 0.7644884487,
				"y": 0.4899633751,
				"z": -2.472270983,
				"element": "Cl" 
			},
			{
				"x": 2.4047117201,
				"y": -0.5464974939,
				"z": -0.5620093102,
				"element": "C" 
			},
			{
				"x": 2.6224060252,
				"y": -1.1178562797,
				"z": 0.6884228676,
				"element": "C" 
			},
			{
				"x": 1.5869660966,
				"y": -1.3690246293,
				"z": 1.5816081953,
				"element": "C" 
			},
			{
				"x": 3.9987341282,
				"y": -1.4701843266,
				"z": 1.075632911,
				"element": "N" 
			},
			{
				"x": 4.8931208677,
				"y": -1.2279004731,
				"z": 0.2693137073,
				"element": "O" 
			},
			{
				"x": 4.1579756574,
				"y": -1.9873462038,
				"z": 2.1797302779,
				"element": "O" 
			},
			{
				"x": -0.0959204612,
				"y": -2.9183900371,
				"z": 2.6734364401,
				"element": "H" 
			},
			{
				"x": 3.2360651181,
				"y": -0.3703826839,
				"z": -1.2322920927,
				"element": "H" 
			},
			{
				"x": 1.8245103872,
				"y": -1.790263017,
				"z": 2.5513821985,
				"element": "H" 
			}
		],
		 "valence_orbital": [ 
			{
				"type": "occ",
				"energy": -0.33389,
				"method": "rhf"
			},
			{
				"type": "occ",
				"energy": -0.31779,
				"method": "rhf"
			},
			{
				"type": "occ",
				"energy": -0.3134,
				"method": "rhf"
			},
			{
				"type": "occ",
				"energy": -0.29627,
				"method": "rhf"
			},
			{
				"type": "occ",
				"energy": -0.2929,
				"method": "rhf"
			},
			{
				"type": "unocc",
				"energy": -0.11628,
				"method": "rhf"
			},
			{
				"type": "unocc",
				"energy": -0.08509,
				"method": "rhf"
			},
			{
				"type": "unocc",
				"energy": -0.03676,
				"method": "rhf"
			},
			{
				"type": "unocc",
				"energy": -0.01041,
				"method": "rhf"
			},
			{
				"type": "unocc",
				"energy": 0.01138,
				"method": "rhf"
			}
		],
		"cosmo_sigma_profile": { 
			"-0.025": 0.0,
			"-0.024": 0.0,
			"-0.023": 0.0,
			"-0.022": 0.0,
			"-0.021": 0.0,
			"-0.02": 0.232209258717,
			"-0.019": 1.52198210025,
			"-0.018": 1.04215315962,
			"-0.017": 1.02249415972,
			"-0.016": 1.34020292361,
			"-0.015": 0.905569586204,
			"-0.014": 1.27747614552,
			"-0.013": 0.869907839345,
			"-0.012": 1.20513571577,
			"-0.011": 1.11642775149,
			"-0.01": 2.33640440822,
			"-0.009": 3.18278205695,
			"-0.008": 4.34898393701,
			"-0.007": 6.2335882976,
			"-0.006": 6.52241289914,
			"-0.005": 11.1558127173,
			"-0.004": 17.0736465414,
			"-0.003": 18.6508000711,
			"-0.002": 11.039073871,
			"-0.001": 8.17302180619,
			"0.0": 9.38686248605,
			"0.001": 10.2815407461,
			"0.002": 16.8791633214,
			"0.003": 15.5984191217,
			"0.004": 5.65326304905,
			"0.005": 6.54648591976,
			"0.006": 8.81127904201,
			"0.007": 11.057799829,
			"0.008": 8.44492156159,
			"0.009": 8.34017300453,
			"0.01": 5.8233557858,
			"0.011": 4.46752114284,
			"0.012": 0.931431706966,
			"0.013": 0.0,
			"0.014": 0.0,
			"0.015": 0.0,
			"0.016": 0.0,
			"0.017": 0.0,
			"0.018": 0.0,
			"0.019": 0.0,
			"0.02": 0.0,
			"0.021": 0.0,
			"0.022": 0.0,
			"0.023": 0.0,
			"0.024": 0.0,
			"0.025": 0.0
		}
	}
}
