{
	 "smiles": "NC1=NC(CO)=NC(N)=N1", 
	 "Tm": 543.15, 
	 "num_atms": 17, 
	 "gaussian": { 
		 "optdone": 1, 
		 "sigma_profile": "yes", 
		 "theory": "DFT", 
		 "functional": "B3LYP", 
		 "basiset": "6-31G**", 
		 "properties": { 
			 "R2extent": 1648.2821, 
			 "electric_dipole_moment_norm": 4.29968188823, 
			 "electric_quadrupole_moment_norm": 13.0926496623, 
			 "total_energy": -505.659917875, 
			 "HOMO_LUMO_gap": 0.2259, 
			 "cosmo_polarized_energy": -15.32, 
			 "cosmo_cavitation_energy": 21.32, 
			 "cosmo_dispersion_energy": -16.65, 
			 "cosmo_repulsion_energy": 1.41, 
			 "cosmo_total_nonelectrostatic_energy": 6.08, 
			 "SMD_solvation_energy": -0.1 
		},
		"coords": [
			{
				"x": -1.7487148998,
				"y": 2.2482197214,
				"z": -0.3837531982,
				"element": "N" 
			},
			{
				"x": -0.6108765294,
				"y": 1.5435540412,
				"z": -0.1847621118,
				"element": "C" 
			},
			{
				"x": -0.7513889086,
				"y": 0.256647814,
				"z": 0.2009871681,
				"element": "N" 
			},
			{
				"x": 0.4051482551,
				"y": -0.3843088795,
				"z": 0.3609263855,
				"element": "C" 
			},
			{
				"x": 0.3557677175,
				"y": -1.8368112751,
				"z": 0.7894748487,
				"element": "C" 
			},
			{
				"x": 1.6314424136,
				"y": -2.4066216174,
				"z": 0.9351971223,
				"element": "O" 
			},
			{
				"x": 1.6253089365,
				"y": 0.1250781282,
				"z": 0.1801774172,
				"element": "N" 
			},
			{
				"x": 1.6360377361,
				"y": 1.4233340827,
				"z": -0.2003283588,
				"element": "C" 
			},
			{
				"x": 2.8471148149,
				"y": 2.0004730611,
				"z": -0.3794581356,
				"element": "N" 
			},
			{
				"x": 0.5517179943,
				"y": 2.1828634951,
				"z": -0.4001053807,
				"element": "N" 
			},
			{
				"x": -1.6887134929,
				"y": 3.2327307739,
				"z": -0.581671273,
				"element": "H" 
			},
			{
				"x": -2.62896496,
				"y": 1.8226367395,
				"z": -0.1463695311,
				"element": "H" 
			},
			{
				"x": -0.2391435358,
				"y": -2.3856137015,
				"z": 0.0427237306,
				"element": "H" 
			},
			{
				"x": -0.2099901968,
				"y": -1.8886280765,
				"z": 1.7326522373,
				"element": "H" 
			},
			{
				"x": 2.2547748153,
				"y": -1.6936890623,
				"z": 0.7109896611,
				"element": "H" 
			},
			{
				"x": 2.8915298222,
				"y": 2.9327133711,
				"z": -0.7555480422,
				"element": "H" 
			},
			{
				"x": 3.6726500178,
				"y": 1.4274213841,
				"z": -0.3328325396,
				"element": "H" 
			}
		],
		 "valence_orbital": [ 
			{
				"type": "occ",
				"energy": -0.27015,
				"method": "rhf"
			},
			{
				"type": "occ",
				"energy": -0.26102,
				"method": "rhf"
			},
			{
				"type": "occ",
				"energy": -0.25841,
				"method": "rhf"
			},
			{
				"type": "occ",
				"energy": -0.25308,
				"method": "rhf"
			},
			{
				"type": "occ",
				"energy": -0.24072,
				"method": "rhf"
			},
			{
				"type": "unocc",
				"energy": -0.01482,
				"method": "rhf"
			},
			{
				"type": "unocc",
				"energy": 0.00481,
				"method": "rhf"
			},
			{
				"type": "unocc",
				"energy": 0.08245,
				"method": "rhf"
			},
			{
				"type": "unocc",
				"energy": 0.08573,
				"method": "rhf"
			},
			{
				"type": "unocc",
				"energy": 0.12688,
				"method": "rhf"
			}
		],
		"cosmo_sigma_profile": { 
			"-0.025": 0.0,
			"-0.024": 0.0,
			"-0.023": 0.0,
			"-0.022": 0.0,
			"-0.021": 0.0,
			"-0.02": 0.0,
			"-0.019": 0.0,
			"-0.018": 0.0,
			"-0.017": 0.0,
			"-0.016": 0.0,
			"-0.015": 0.59560152154,
			"-0.014": 3.77526149076,
			"-0.013": 3.65572566956,
			"-0.012": 4.99769715496,
			"-0.011": 3.58283489604,
			"-0.01": 3.75161655202,
			"-0.009": 3.396487301,
			"-0.008": 3.48192192047,
			"-0.007": 4.0289837655,
			"-0.006": 3.81751970502,
			"-0.005": 6.37752911982,
			"-0.004": 6.72656261455,
			"-0.003": 7.80562642089,
			"-0.002": 10.3569544447,
			"-0.001": 10.8087732575,
			"0.0": 9.34575481829,
			"0.001": 10.3814526172,
			"0.002": 12.3097291546,
			"0.003": 9.88847775775,
			"0.004": 8.30039360941,
			"0.005": 7.21829358835,
			"0.006": 5.78614251853,
			"0.007": 4.07409039721,
			"0.008": 3.12666461981,
			"0.009": 3.98801659851,
			"0.01": 3.56471439417,
			"0.011": 1.92289398398,
			"0.012": 3.50991395242,
			"0.013": 3.34595731432,
			"0.014": 3.38535503311,
			"0.015": 1.21292024997,
			"0.016": 0.0,
			"0.017": 0.0,
			"0.018": 0.0,
			"0.019": 0.0,
			"0.02": 0.0,
			"0.021": 0.0,
			"0.022": 0.0,
			"0.023": 0.0,
			"0.024": 0.0,
			"0.025": 0.0
		}
	}
}
