{
	 "smiles": "CC(C)C(Br)C(=O)N1CCC(CC1)C(N)=O", 
	 "Tm": 446.15, 
	 "num_atms": 35, 
	 "gaussian": { 
		 "optdone": 1, 
		 "sigma_profile": "yes", 
		 "theory": "DFT", 
		 "functional": "B3LYP", 
		 "basiset": "6-31G**", 
		 "properties": { 
			 "R2extent": 6445.7037, 
			 "electric_dipole_moment_norm": 4.77941494955, 
			 "electric_quadrupole_moment_norm": 21.7785876144, 
			 "total_energy": -3262.01942591, 
			 "HOMO_LUMO_gap": 0.21178, 
			 "cosmo_polarized_energy": -19.18, 
			 "cosmo_cavitation_energy": 37.24, 
			 "cosmo_dispersion_energy": -25.96, 
			 "cosmo_repulsion_energy": 2.05, 
			 "cosmo_total_nonelectrostatic_energy": 13.33, 
			 "SMD_solvation_energy": 5.63 
		},
		"coords": [
			{
				"x": 1.3128471668,
				"y": -2.3484138522,
				"z": -3.286710665,
				"element": "C" 
			},
			{
				"x": 0.1461312027,
				"y": -2.8879538322,
				"z": -2.434412931,
				"element": "C" 
			},
			{
				"x": -0.2060578046,
				"y": -4.3222228473,
				"z": -2.8528446494,
				"element": "C" 
			},
			{
				"x": -1.0599853575,
				"y": -1.9435321847,
				"z": -2.578727875,
				"element": "C" 
			},
			{
				"x": -2.6054498958,
				"y": -2.4898086769,
				"z": -1.4045400988,
				"element": "Br" 
			},
			{
				"x": -0.8065449724,
				"y": -0.4329809746,
				"z": -2.4392382075,
				"element": "C" 
			},
			{
				"x": -1.0484056813,
				"y": 0.265838686,
				"z": -3.4231454513,
				"element": "O" 
			},
			{
				"x": -0.2810783077,
				"y": 0.1000152184,
				"z": -1.2971743134,
				"element": "N" 
			},
			{
				"x": -0.0104777097,
				"y": -0.6092186878,
				"z": -0.0377814443,
				"element": "C" 
			},
			{
				"x": -0.367286161,
				"y": 0.292921003,
				"z": 1.1467097974,
				"element": "C" 
			},
			{
				"x": 0.5334193681,
				"y": 1.5627704844,
				"z": 1.1881446717,
				"element": "C" 
			},
			{
				"x": 0.9845970233,
				"y": 1.9409683673,
				"z": -0.2420744253,
				"element": "C" 
			},
			{
				"x": -0.0387346638,
				"y": 1.5547950164,
				"z": -1.3083342469,
				"element": "C" 
			},
			{
				"x": 1.7566970754,
				"y": 1.2788252764,
				"z": 2.0650805325,
				"element": "C" 
			},
			{
				"x": 1.71729178,
				"y": 1.808438884,
				"z": 3.3226859158,
				"element": "N" 
			},
			{
				"x": 2.6878061107,
				"y": 0.5800550873,
				"z": 1.6822476166,
				"element": "O" 
			},
			{
				"x": 1.0271405544,
				"y": -2.268215724,
				"z": -4.3412061463,
				"element": "H" 
			},
			{
				"x": 2.1659591543,
				"y": -3.0306263206,
				"z": -3.2200315959,
				"element": "H" 
			},
			{
				"x": 1.6447313828,
				"y": -1.3618343821,
				"z": -2.9521721607,
				"element": "H" 
			},
			{
				"x": 0.4671315709,
				"y": -2.9045539431,
				"z": -1.3875130283,
				"element": "H" 
			},
			{
				"x": -1.0166373603,
				"y": -4.7319993615,
				"z": -2.2458454293,
				"element": "H" 
			},
			{
				"x": -0.5173672463,
				"y": -4.3559995068,
				"z": -3.9036319586,
				"element": "H" 
			},
			{
				"x": 0.6670921316,
				"y": -4.9729766707,
				"z": -2.7425459603,
				"element": "H" 
			},
			{
				"x": -1.4903687707,
				"y": -2.0410542651,
				"z": -3.5740281541,
				"element": "H" 
			},
			{
				"x": 1.0470363772,
				"y": -0.8940476052,
				"z": 0.0316580689,
				"element": "H" 
			},
			{
				"x": -0.6164805568,
				"y": -1.5125797523,
				"z": 0.0017357611,
				"element": "H" 
			},
			{
				"x": -0.2771861048,
				"y": -0.2774046189,
				"z": 2.0771301544,
				"element": "H" 
			},
			{
				"x": -1.4178054308,
				"y": 0.5898582575,
				"z": 1.0562413291,
				"element": "H" 
			},
			{
				"x": -0.0477940185,
				"y": 2.3846659116,
				"z": 1.6238615237,
				"element": "H" 
			},
			{
				"x": 1.9310832766,
				"y": 1.4306060905,
				"z": -0.445783745,
				"element": "H" 
			},
			{
				"x": 1.1794420095,
				"y": 3.0164514112,
				"z": -0.3082891198,
				"element": "H" 
			},
			{
				"x": 0.3129575352,
				"y": 1.8279661618,
				"z": -2.3049193787,
				"element": "H" 
			},
			{
				"x": -0.9874453675,
				"y": 2.0901255606,
				"z": -1.1576253811,
				"element": "H" 
			},
			{
				"x": 0.9771361993,
				"y": 2.4159763303,
				"z": 3.6327202281,
				"element": "H" 
			},
			{
				"x": 2.4913054909,
				"y": 1.6228454593,
				"z": 3.9429607665,
				"element": "H" 
			}
		],
		 "valence_orbital": [ 
			{
				"type": "occ",
				"energy": -0.27636,
				"method": "rhf"
			},
			{
				"type": "occ",
				"energy": -0.27141,
				"method": "rhf"
			},
			{
				"type": "occ",
				"energy": -0.25488,
				"method": "rhf"
			},
			{
				"type": "occ",
				"energy": -0.2425,
				"method": "rhf"
			},
			{
				"type": "occ",
				"energy": -0.23515,
				"method": "rhf"
			},
			{
				"type": "unocc",
				"energy": -0.02337,
				"method": "rhf"
			},
			{
				"type": "unocc",
				"energy": 0.02002,
				"method": "rhf"
			},
			{
				"type": "unocc",
				"energy": 0.04892,
				"method": "rhf"
			},
			{
				"type": "unocc",
				"energy": 0.05997,
				"method": "rhf"
			},
			{
				"type": "unocc",
				"energy": 0.08258,
				"method": "rhf"
			}
		],
		"cosmo_sigma_profile": { 
			"-0.025": 0.0,
			"-0.024": 0.0,
			"-0.023": 0.0,
			"-0.022": 0.0,
			"-0.021": 0.0,
			"-0.02": 0.0,
			"-0.019": 0.0,
			"-0.018": 0.0,
			"-0.017": 0.0,
			"-0.016": 0.0,
			"-0.015": 0.095528106269,
			"-0.014": 1.62390529215,
			"-0.013": 2.60554235065,
			"-0.012": 2.23607884777,
			"-0.011": 2.92834352644,
			"-0.01": 2.55538501163,
			"-0.009": 2.42042937374,
			"-0.008": 2.42068234153,
			"-0.007": 2.44603866412,
			"-0.006": 3.74768931906,
			"-0.005": 9.65445557859,
			"-0.004": 31.6147324118,
			"-0.003": 35.9654162867,
			"-0.002": 33.2915470661,
			"-0.001": 28.5421823768,
			"0.0": 24.8080232469,
			"0.001": 19.7229064577,
			"0.002": 12.7297849953,
			"0.003": 12.38498397,
			"0.004": 11.1511683818,
			"0.005": 10.0013082561,
			"0.006": 5.74969321307,
			"0.007": 3.05316696558,
			"0.008": 2.52815034331,
			"0.009": 2.54423763763,
			"0.01": 2.41545257467,
			"0.011": 3.1701600033,
			"0.012": 3.1658602236,
			"0.013": 5.84558034654,
			"0.014": 9.20337815326,
			"0.015": 1.5231562489,
			"0.016": 0.0,
			"0.017": 0.0,
			"0.018": 0.0,
			"0.019": 0.0,
			"0.02": 0.0,
			"0.021": 0.0,
			"0.022": 0.0,
			"0.023": 0.0,
			"0.024": 0.0,
			"0.025": 0.0
		}
	}
}
