{
	 "smiles": "ClC1=CC=CC(=C1)S(Cl)(=O)=O", 
	 "Tm": 294.15, 
	 "num_atms": 15, 
	 "gaussian": { 
		 "optdone": 1, 
		 "sigma_profile": "yes", 
		 "theory": "DFT", 
		 "functional": "B3LYP", 
		 "basiset": "6-31G**", 
		 "properties": { 
			 "R2extent": 3946.7346, 
			 "electric_dipole_moment_norm": 4.61539731117, 
			 "electric_quadrupole_moment_norm": 12.8947456559, 
			 "total_energy": -1699.99695547, 
			 "HOMO_LUMO_gap": 0.18399, 
			 "cosmo_polarized_energy": -8.58, 
			 "cosmo_cavitation_energy": 25.01, 
			 "cosmo_dispersion_energy": -19.0, 
			 "cosmo_repulsion_energy": 1.49, 
			 "cosmo_total_nonelectrostatic_energy": 7.5, 
			 "SMD_solvation_energy": 2.74 
		},
		"coords": [
			{
				"x": 1.8472666021,
				"y": -1.429541955,
				"z": 2.4776391053,
				"element": "Cl" 
			},
			{
				"x": 0.5335296741,
				"y": -0.6356611807,
				"z": 1.6373019542,
				"element": "C" 
			},
			{
				"x": -0.4065922212,
				"y": -1.403958177,
				"z": 0.9460390786,
				"element": "C" 
			},
			{
				"x": -1.4599233532,
				"y": -0.774020224,
				"z": 0.2813419118,
				"element": "C" 
			},
			{
				"x": -1.5805091948,
				"y": 0.6152434544,
				"z": 0.2976041899,
				"element": "C" 
			},
			{
				"x": -0.6211983266,
				"y": 1.3480936307,
				"z": 0.9953161586,
				"element": "C" 
			},
			{
				"x": 0.4425699285,
				"y": 0.7545074434,
				"z": 1.6742179545,
				"element": "C" 
			},
			{
				"x": -0.7677834433,
				"y": 3.1324032725,
				"z": 1.0461525993,
				"element": "S" 
			},
			{
				"x": 0.3505335955,
				"y": 3.6864490457,
				"z": -0.6807095237,
				"element": "Cl" 
			},
			{
				"x": -2.1496052884,
				"y": 3.5059397179,
				"z": 0.7746442699,
				"element": "O" 
			},
			{
				"x": -0.0288404034,
				"y": 3.643043342,
				"z": 2.1931533044,
				"element": "O" 
			},
			{
				"x": -0.3122355024,
				"y": -2.4840556914,
				"z": 0.9338902004,
				"element": "H" 
			},
			{
				"x": -2.1927521477,
				"y": -1.3728468949,
				"z": -0.2497020683,
				"element": "H" 
			},
			{
				"x": -2.3969859402,
				"y": 1.1199549604,
				"z": -0.2054348807,
				"element": "H" 
			},
			{
				"x": 1.1634260212,
				"y": 1.353749256,
				"z": 2.2171457458,
				"element": "H" 
			}
		],
		 "valence_orbital": [ 
			{
				"type": "occ",
				"energy": -0.33927,
				"method": "rhf"
			},
			{
				"type": "occ",
				"energy": -0.3335,
				"method": "rhf"
			},
			{
				"type": "occ",
				"energy": -0.3194,
				"method": "rhf"
			},
			{
				"type": "occ",
				"energy": -0.30181,
				"method": "rhf"
			},
			{
				"type": "occ",
				"energy": -0.28123,
				"method": "rhf"
			},
			{
				"type": "unocc",
				"energy": -0.09724,
				"method": "rhf"
			},
			{
				"type": "unocc",
				"energy": -0.05452,
				"method": "rhf"
			},
			{
				"type": "unocc",
				"energy": -0.04955,
				"method": "rhf"
			},
			{
				"type": "unocc",
				"energy": 0.00277,
				"method": "rhf"
			},
			{
				"type": "unocc",
				"energy": 0.05154,
				"method": "rhf"
			}
		],
		"cosmo_sigma_profile": { 
			"-0.025": 0.0,
			"-0.024": 0.0,
			"-0.023": 0.0,
			"-0.022": 0.0,
			"-0.021": 0.0,
			"-0.02": 0.0,
			"-0.019": 0.0,
			"-0.018": 0.0,
			"-0.017": 0.0,
			"-0.016": 0.0,
			"-0.015": 0.0,
			"-0.014": 0.0,
			"-0.013": 0.0,
			"-0.012": 0.0,
			"-0.011": 0.0,
			"-0.01": 0.0,
			"-0.009": 3.49119490847,
			"-0.008": 7.91512950672,
			"-0.007": 9.12668350916,
			"-0.006": 7.95456197069,
			"-0.005": 7.19508984966,
			"-0.004": 7.82028356366,
			"-0.003": 10.4514788367,
			"-0.002": 14.6672512922,
			"-0.001": 21.4358684488,
			"0.0": 23.5389033037,
			"0.001": 16.3340139481,
			"0.002": 15.8691981494,
			"0.003": 21.6797515641,
			"0.004": 13.0571281067,
			"0.005": 3.70442792591,
			"0.006": 3.37348194522,
			"0.007": 6.64235213189,
			"0.008": 9.47343879276,
			"0.009": 2.99032472112,
			"0.01": 0.0,
			"0.011": 0.0,
			"0.012": 0.0,
			"0.013": 0.0,
			"0.014": 0.0,
			"0.015": 0.0,
			"0.016": 0.0,
			"0.017": 0.0,
			"0.018": 0.0,
			"0.019": 0.0,
			"0.02": 0.0,
			"0.021": 0.0,
			"0.022": 0.0,
			"0.023": 0.0,
			"0.024": 0.0,
			"0.025": 0.0
		}
	}
}
