{
	 "smiles": "CC1=C(SC(=N1)C1=CC=CC=C1)C(=O)CBr", 
	 "Tm": 391.15, 
	 "num_atms": 26, 
	 "gaussian": { 
		 "optdone": 1, 
		 "sigma_profile": "yes", 
		 "theory": "DFT", 
		 "functional": "B3LYP", 
		 "basiset": "6-31G**", 
		 "properties": { 
			 "R2extent": 6989.7953, 
			 "electric_dipole_moment_norm": 3.53779303239, 
			 "electric_quadrupole_moment_norm": 6.88208792373, 
			 "total_energy": -3562.87597928, 
			 "HOMO_LUMO_gap": 0.14378, 
			 "cosmo_polarized_energy": -9.82, 
			 "cosmo_cavitation_energy": 34.16, 
			 "cosmo_dispersion_energy": -25.49, 
			 "cosmo_repulsion_energy": 1.95, 
			 "cosmo_total_nonelectrostatic_energy": 10.62, 
			 "SMD_solvation_energy": 3.73 
		},
		"coords": [
			{
				"x": -0.8224532205,
				"y": -0.9001331819,
				"z": 2.5537441347,
				"element": "C" 
			},
			{
				"x": -0.0665345031,
				"y": -0.412364398,
				"z": 1.3548393406,
				"element": "C" 
			},
			{
				"x": 0.5348282742,
				"y": -1.2103214922,
				"z": 0.385171177,
				"element": "C" 
			},
			{
				"x": 1.2925021181,
				"y": -0.1885479935,
				"z": -0.8174301728,
				"element": "S" 
			},
			{
				"x": 0.7587719179,
				"y": 1.2200467713,
				"z": 0.0793471797,
				"element": "C" 
			},
			{
				"x": 0.0712707708,
				"y": 0.9311022379,
				"z": 1.1631906801,
				"element": "N" 
			},
			{
				"x": 1.0454977373,
				"y": 2.5919139431,
				"z": -0.3533571205,
				"element": "C" 
			},
			{
				"x": 0.5726687689,
				"y": 3.6625818884,
				"z": 0.4274658895,
				"element": "C" 
			},
			{
				"x": 0.8289815237,
				"y": 4.9759039487,
				"z": 0.0455365057,
				"element": "C" 
			},
			{
				"x": 1.5575449139,
				"y": 5.2430926878,
				"z": -1.1167309843,
				"element": "C" 
			},
			{
				"x": 2.0301661241,
				"y": 4.1856156525,
				"z": -1.8977902306,
				"element": "C" 
			},
			{
				"x": 1.7772317454,
				"y": 2.8695747743,
				"z": -1.5203692395,
				"element": "C" 
			},
			{
				"x": 0.5808148934,
				"y": -2.6739219895,
				"z": 0.3775601819,
				"element": "C" 
			},
			{
				"x": 0.0398117587,
				"y": -3.3402691382,
				"z": 1.2527378292,
				"element": "O" 
			},
			{
				"x": 1.3613678396,
				"y": -3.3958682015,
				"z": -0.7171985808,
				"element": "C" 
			},
			{
				"x": 0.3803173972,
				"y": -3.3549251047,
				"z": -2.4368334376,
				"element": "Br" 
			},
			{
				"x": -0.1946916778,
				"y": -1.5399307557,
				"z": 3.1805799156,
				"element": "H" 
			},
			{
				"x": -1.1697040008,
				"y": -0.0416866812,
				"z": 3.1308900126,
				"element": "H" 
			},
			{
				"x": -1.676060199,
				"y": -1.5156509837,
				"z": 2.2557061108,
				"element": "H" 
			},
			{
				"x": 0.0085579165,
				"y": 3.439852711,
				"z": 1.3259721485,
				"element": "H" 
			},
			{
				"x": 0.4590560966,
				"y": 5.7944071834,
				"z": 0.6559643517,
				"element": "H" 
			},
			{
				"x": 1.7558286529,
				"y": 6.2689915287,
				"z": -1.4127592998,
				"element": "H" 
			},
			{
				"x": 2.5962437996,
				"y": 4.3860198559,
				"z": -2.8024313094,
				"element": "H" 
			},
			{
				"x": 2.1501477186,
				"y": 2.0573243396,
				"z": -2.1383099728,
				"element": "H" 
			},
			{
				"x": 2.3357247571,
				"y": -2.949303855,
				"z": -0.9181116939,
				"element": "H" 
			},
			{
				"x": 1.4554088764,
				"y": -4.4441037474,
				"z": -0.4446834156,
				"element": "H" 
			}
		],
		 "valence_orbital": [ 
			{
				"type": "occ",
				"energy": -0.28454,
				"method": "rhf"
			},
			{
				"type": "occ",
				"energy": -0.2783,
				"method": "rhf"
			},
			{
				"type": "occ",
				"energy": -0.26522,
				"method": "rhf"
			},
			{
				"type": "occ",
				"energy": -0.25924,
				"method": "rhf"
			},
			{
				"type": "occ",
				"energy": -0.23202,
				"method": "rhf"
			},
			{
				"type": "unocc",
				"energy": -0.08824,
				"method": "rhf"
			},
			{
				"type": "unocc",
				"energy": -0.04127,
				"method": "rhf"
			},
			{
				"type": "unocc",
				"energy": -0.01517,
				"method": "rhf"
			},
			{
				"type": "unocc",
				"energy": -0.00096,
				"method": "rhf"
			},
			{
				"type": "unocc",
				"energy": 0.00734,
				"method": "rhf"
			}
		],
		"cosmo_sigma_profile": { 
			"-0.025": 0.0,
			"-0.024": 0.0,
			"-0.023": 0.0,
			"-0.022": 0.0,
			"-0.021": 0.0,
			"-0.02": 0.0,
			"-0.019": 0.0,
			"-0.018": 0.0,
			"-0.017": 0.0,
			"-0.016": 0.0,
			"-0.015": 0.0,
			"-0.014": 0.0,
			"-0.013": 0.0,
			"-0.012": 0.0,
			"-0.011": 0.0,
			"-0.01": 0.0587598467575,
			"-0.009": 2.60372971266,
			"-0.008": 4.48654120836,
			"-0.007": 7.94407001425,
			"-0.006": 13.4264845942,
			"-0.005": 17.1222387549,
			"-0.004": 18.9304005971,
			"-0.003": 16.9964149264,
			"-0.002": 20.4227955182,
			"-0.001": 25.9387694325,
			"0.0": 27.2118588709,
			"0.001": 21.4551361884,
			"0.002": 22.5773328738,
			"0.003": 20.9055167398,
			"0.004": 24.9997243976,
			"0.005": 13.2950118615,
			"0.006": 4.12133507646,
			"0.007": 2.45037668996,
			"0.008": 2.84553316714,
			"0.009": 2.69105358878,
			"0.01": 3.4052326338,
			"0.011": 3.26607059796,
			"0.012": 1.59055018371,
			"0.013": 0.0979430818829,
			"0.014": 0.0,
			"0.015": 0.0,
			"0.016": 0.0,
			"0.017": 0.0,
			"0.018": 0.0,
			"0.019": 0.0,
			"0.02": 0.0,
			"0.021": 0.0,
			"0.022": 0.0,
			"0.023": 0.0,
			"0.024": 0.0,
			"0.025": 0.0
		}
	}
}
