{
	 "smiles": "NC(=O)NCCCCCC(O)=O", 
	 "Tm": 449.15, 
	 "num_atms": 26, 
	 "gaussian": { 
		 "optdone": 1, 
		 "sigma_profile": "yes", 
		 "theory": "DFT", 
		 "functional": "B3LYP", 
		 "basiset": "6-31G**", 
		 "properties": { 
			 "R2extent": 2862.7463, 
			 "electric_dipole_moment_norm": 4.35351912939, 
			 "electric_quadrupole_moment_norm": 17.0551604091, 
			 "total_energy": -610.416250435, 
			 "HOMO_LUMO_gap": 0.2607, 
			 "cosmo_polarized_energy": -14.01, 
			 "cosmo_cavitation_energy": 26.37, 
			 "cosmo_dispersion_energy": -19.75, 
			 "cosmo_repulsion_energy": 1.58, 
			 "cosmo_total_nonelectrostatic_energy": 8.21, 
			 "SMD_solvation_energy": 4.5 
		},
		"coords": [
			{
				"x": 1.8492766999,
				"y": -3.5319221491,
				"z": 2.2825205694,
				"element": "N" 
			},
			{
				"x": 1.3259920945,
				"y": -3.2363748272,
				"z": 1.0387074496,
				"element": "C" 
			},
			{
				"x": 0.30294329,
				"y": -3.8081866448,
				"z": 0.6268603907,
				"element": "O" 
			},
			{
				"x": 1.9825019806,
				"y": -2.2857957637,
				"z": 0.305382628,
				"element": "N" 
			},
			{
				"x": 2.6923765159,
				"y": -1.1174172516,
				"z": 0.8369358044,
				"element": "C" 
			},
			{
				"x": 1.9070784132,
				"y": 0.1875492041,
				"z": 0.5846492277,
				"element": "C" 
			},
			{
				"x": 0.5812678083,
				"y": 0.2505177186,
				"z": 1.3753831412,
				"element": "C" 
			},
			{
				"x": -0.5949121113,
				"y": 0.9946099094,
				"z": 0.7110691248,
				"element": "C" 
			},
			{
				"x": -1.0330059737,
				"y": 0.4828282803,
				"z": -0.6960388917,
				"element": "C" 
			},
			{
				"x": -0.7275755682,
				"y": -0.9851783255,
				"z": -0.9140917795,
				"element": "C" 
			},
			{
				"x": -1.3622662856,
				"y": -1.7935992252,
				"z": -0.0634949867,
				"element": "O" 
			},
			{
				"x": 0.0910082768,
				"y": -1.3764235371,
				"z": -1.7353734406,
				"element": "O" 
			},
			{
				"x": 2.8499343793,
				"y": -3.473559511,
				"z": 2.4047307959,
				"element": "H" 
			},
			{
				"x": 1.4104699659,
				"y": -4.3340060349,
				"z": 2.7111337357,
				"element": "H" 
			},
			{
				"x": 1.5343777718,
				"y": -2.144177667,
				"z": -0.598291297,
				"element": "H" 
			},
			{
				"x": 3.6835473112,
				"y": -1.0474707823,
				"z": 0.3719348412,
				"element": "H" 
			},
			{
				"x": 2.844851774,
				"y": -1.2602848806,
				"z": 1.9110067234,
				"element": "H" 
			},
			{
				"x": 2.5510010814,
				"y": 1.0369981358,
				"z": 0.8438616234,
				"element": "H" 
			},
			{
				"x": 1.7235365541,
				"y": 0.2614651894,
				"z": -0.492775107,
				"element": "H" 
			},
			{
				"x": 0.2415791083,
				"y": -0.7672958119,
				"z": 1.5883832471,
				"element": "H" 
			},
			{
				"x": 0.7665635177,
				"y": 0.7104634286,
				"z": 2.3538450733,
				"element": "H" 
			},
			{
				"x": -0.3657535468,
				"y": 2.0631430342,
				"z": 0.6185493752,
				"element": "H" 
			},
			{
				"x": -1.4487176978,
				"y": 0.9204894981,
				"z": 1.3923949288,
				"element": "H" 
			},
			{
				"x": -0.5187484696,
				"y": 1.0238316503,
				"z": -1.4926107172,
				"element": "H" 
			},
			{
				"x": -2.1081213446,
				"y": 0.6544230328,
				"z": -0.8166969605,
				"element": "H" 
			},
			{
				"x": -0.8892055455,
				"y": -2.6716266696,
				"z": -0.0367754995,
				"element": "H" 
			}
		],
		 "valence_orbital": [ 
			{
				"type": "occ",
				"energy": -0.29941,
				"method": "rhf"
			},
			{
				"type": "occ",
				"energy": -0.28263,
				"method": "rhf"
			},
			{
				"type": "occ",
				"energy": -0.27053,
				"method": "rhf"
			},
			{
				"type": "occ",
				"energy": -0.25861,
				"method": "rhf"
			},
			{
				"type": "occ",
				"energy": -0.24979,
				"method": "rhf"
			},
			{
				"type": "unocc",
				"energy": 0.01091,
				"method": "rhf"
			},
			{
				"type": "unocc",
				"energy": 0.03759,
				"method": "rhf"
			},
			{
				"type": "unocc",
				"energy": 0.07387,
				"method": "rhf"
			},
			{
				"type": "unocc",
				"energy": 0.09103,
				"method": "rhf"
			},
			{
				"type": "unocc",
				"energy": 0.11207,
				"method": "rhf"
			}
		],
		"cosmo_sigma_profile": { 
			"-0.025": 0.0,
			"-0.024": 0.0,
			"-0.023": 0.0,
			"-0.022": 0.0,
			"-0.021": 0.0,
			"-0.02": 0.0,
			"-0.019": 0.0,
			"-0.018": 0.0,
			"-0.017": 0.0,
			"-0.016": 0.0,
			"-0.015": 0.0,
			"-0.014": 0.792772000114,
			"-0.013": 2.23781427715,
			"-0.012": 2.61073754521,
			"-0.011": 1.90429023431,
			"-0.01": 2.98515575669,
			"-0.009": 2.49256684233,
			"-0.008": 1.77641932685,
			"-0.007": 2.10813682346,
			"-0.006": 3.28990540722,
			"-0.005": 6.98744421835,
			"-0.004": 13.3949912458,
			"-0.003": 26.2071628606,
			"-0.002": 29.1791599285,
			"-0.001": 22.394081964,
			"0.0": 15.4451462862,
			"0.001": 9.50253842757,
			"0.002": 6.64712131876,
			"0.003": 7.02106953587,
			"0.004": 6.59571853311,
			"0.005": 5.05256075976,
			"0.006": 6.06093744627,
			"0.007": 3.71954636547,
			"0.008": 4.81321263549,
			"0.009": 4.37483415879,
			"0.01": 4.52203892704,
			"0.011": 4.21770968546,
			"0.012": 4.58460079523,
			"0.013": 2.48484633603,
			"0.014": 1.66750532188,
			"0.015": 0.100881961458,
			"0.016": 0.0,
			"0.017": 0.0,
			"0.018": 0.0,
			"0.019": 0.0,
			"0.02": 0.0,
			"0.021": 0.0,
			"0.022": 0.0,
			"0.023": 0.0,
			"0.024": 0.0,
			"0.025": 0.0
		}
	}
}
