{
	 "smiles": "OC(=O)C1=CC=C(O1)C1=CC=C(Cl)C=C1", 
	 "Tm": 473.15, 
	 "num_atms": 22, 
	 "gaussian": { 
		 "optdone": 1, 
		 "sigma_profile": "yes", 
		 "theory": "DFT", 
		 "functional": "B3LYP", 
		 "basiset": "6-31G**", 
		 "properties": { 
			 "R2extent": 5685.034, 
			 "electric_dipole_moment_norm": 5.27116621442, 
			 "electric_quadrupole_moment_norm": 20.3755326051, 
			 "total_energy": -1109.24268697, 
			 "HOMO_LUMO_gap": 0.15881, 
			 "cosmo_polarized_energy": -18.12, 
			 "cosmo_cavitation_energy": 29.74, 
			 "cosmo_dispersion_energy": -21.88, 
			 "cosmo_repulsion_energy": 1.69, 
			 "cosmo_total_nonelectrostatic_energy": 9.55, 
			 "SMD_solvation_energy": 6.42 
		},
		"coords": [
			{
				"x": -2.3342726824,
				"y": -2.7535131447,
				"z": 2.3740125143,
				"element": "O" 
			},
			{
				"x": -1.8716882549,
				"y": -2.084137675,
				"z": 1.2820595252,
				"element": "C" 
			},
			{
				"x": -2.3864204732,
				"y": -2.2370116342,
				"z": 0.2011047586,
				"element": "O" 
			},
			{
				"x": -0.7271606898,
				"y": -1.1873941572,
				"z": 1.5248693106,
				"element": "C" 
			},
			{
				"x": 0.0194879431,
				"y": -0.8452168271,
				"z": 2.6272537647,
				"element": "C" 
			},
			{
				"x": 0.9950747064,
				"y": 0.0861010817,
				"z": 2.1860150336,
				"element": "C" 
			},
			{
				"x": 0.7868723478,
				"y": 0.2594278357,
				"z": 0.8345102673,
				"element": "C" 
			},
			{
				"x": -0.2579049647,
				"y": -0.5136167033,
				"z": 0.435219159,
				"element": "O" 
			},
			{
				"x": 1.4410288819,
				"y": 1.0700163576,
				"z": -0.1846606253,
				"element": "C" 
			},
			{
				"x": 2.5290400174,
				"y": 1.8961410212,
				"z": 0.1470117086,
				"element": "C" 
			},
			{
				"x": 3.1575180744,
				"y": 2.6719381428,
				"z": -0.8209724069,
				"element": "C" 
			},
			{
				"x": 2.6969795313,
				"y": 2.6252568735,
				"z": -2.1380348208,
				"element": "C" 
			},
			{
				"x": 3.4864994314,
				"y": 3.6021032123,
				"z": -3.3628460239,
				"element": "Cl" 
			},
			{
				"x": 1.6191720701,
				"y": 1.8136957865,
				"z": -2.4929472335,
				"element": "C" 
			},
			{
				"x": 0.9959859958,
				"y": 1.040531318,
				"z": -1.518031661,
				"element": "C" 
			},
			{
				"x": -1.8235065881,
				"y": -2.5291521021,
				"z": 3.1638744301,
				"element": "H" 
			},
			{
				"x": -0.1002039542,
				"y": -1.2062089866,
				"z": 3.6402856538,
				"element": "H" 
			},
			{
				"x": 1.7514225588,
				"y": 0.5646514754,
				"z": 2.7900093141,
				"element": "H" 
			},
			{
				"x": 2.8910039169,
				"y": 1.9360449592,
				"z": 1.1695679994,
				"element": "H" 
			},
			{
				"x": 3.996320235,
				"y": 3.3076489827,
				"z": -0.5606970212,
				"element": "H" 
			},
			{
				"x": 1.2730895376,
				"y": 1.7882841873,
				"z": -3.5201409268,
				"element": "H" 
			},
			{
				"x": 0.1577623593,
				"y": 0.4076099962,
				"z": -1.7873627197,
				"element": "H" 
			}
		],
		 "valence_orbital": [ 
			{
				"type": "occ",
				"energy": -0.30896,
				"method": "rhf"
			},
			{
				"type": "occ",
				"energy": -0.2856,
				"method": "rhf"
			},
			{
				"type": "occ",
				"energy": -0.279,
				"method": "rhf"
			},
			{
				"type": "occ",
				"energy": -0.27605,
				"method": "rhf"
			},
			{
				"type": "occ",
				"energy": -0.22822,
				"method": "rhf"
			},
			{
				"type": "unocc",
				"energy": -0.06941,
				"method": "rhf"
			},
			{
				"type": "unocc",
				"energy": -0.02699,
				"method": "rhf"
			},
			{
				"type": "unocc",
				"energy": -0.0195,
				"method": "rhf"
			},
			{
				"type": "unocc",
				"energy": 0.0223,
				"method": "rhf"
			},
			{
				"type": "unocc",
				"energy": 0.0456,
				"method": "rhf"
			}
		],
		"cosmo_sigma_profile": { 
			"-0.025": 0.0,
			"-0.024": 0.0,
			"-0.023": 0.0,
			"-0.022": 0.0,
			"-0.021": 0.0,
			"-0.02": 0.0478894381024,
			"-0.019": 0.903414178152,
			"-0.018": 1.06900098369,
			"-0.017": 1.02682846752,
			"-0.016": 1.11589898179,
			"-0.015": 1.23275722209,
			"-0.014": 1.21539675447,
			"-0.013": 0.728698021262,
			"-0.012": 0.998866041041,
			"-0.011": 1.94648315142,
			"-0.01": 1.35068506898,
			"-0.009": 3.89616611439,
			"-0.008": 6.10134440999,
			"-0.007": 9.79826104587,
			"-0.006": 10.333381271,
			"-0.005": 10.4832131992,
			"-0.004": 8.46811817695,
			"-0.003": 10.6820029151,
			"-0.002": 11.6398713091,
			"-0.001": 14.0230236457,
			"0.0": 24.2552559635,
			"0.001": 23.7166324266,
			"0.002": 25.7061982436,
			"0.003": 20.9188815378,
			"0.004": 12.4643101249,
			"0.005": 6.97209051815,
			"0.006": 2.99663959457,
			"0.007": 1.90534091228,
			"0.008": 3.30961068719,
			"0.009": 3.65710860433,
			"0.01": 5.46955929751,
			"0.011": 5.30722893364,
			"0.012": 6.212418991,
			"0.013": 2.24911216457,
			"0.014": 0.0159172444741,
			"0.015": 0.0,
			"0.016": 0.0,
			"0.017": 0.0,
			"0.018": 0.0,
			"0.019": 0.0,
			"0.02": 0.0,
			"0.021": 0.0,
			"0.022": 0.0,
			"0.023": 0.0,
			"0.024": 0.0,
			"0.025": 0.0
		}
	}
}
