{
	 "smiles": "NC1=NC(=NS1)C1=CC=CC=C1", 
	 "Tm": 427.15, 
	 "num_atms": 19, 
	 "gaussian": { 
		 "optdone": 1, 
		 "sigma_profile": "yes", 
		 "theory": "DFT", 
		 "functional": "B3LYP", 
		 "basiset": "6-31G**", 
		 "properties": { 
			 "R2extent": 3051.2359, 
			 "electric_dipole_moment_norm": 3.33927449306, 
			 "electric_quadrupole_moment_norm": 19.4360795358, 
			 "total_energy": -871.516076284, 
			 "HOMO_LUMO_gap": 0.18273, 
			 "cosmo_polarized_energy": -13.17, 
			 "cosmo_cavitation_energy": 25.22, 
			 "cosmo_dispersion_energy": -19.63, 
			 "cosmo_repulsion_energy": 1.52, 
			 "cosmo_total_nonelectrostatic_energy": 7.1, 
			 "SMD_solvation_energy": 1.6 
		},
		"coords": [
			{
				"x": -3.1306621833,
				"y": 0.7072033298,
				"z": -2.812141223,
				"element": "N" 
			},
			{
				"x": -2.5917076534,
				"y": 0.8047003934,
				"z": -1.563869239,
				"element": "C" 
			},
			{
				"x": -1.6660925165,
				"y": 0.0059491098,
				"z": -1.1012646506,
				"element": "N" 
			},
			{
				"x": -1.3043882233,
				"y": 0.4143949058,
				"z": 0.166080311,
				"element": "C" 
			},
			{
				"x": -1.8915615807,
				"y": 1.4633118555,
				"z": 0.7074315584,
				"element": "N" 
			},
			{
				"x": -3.0042003872,
				"y": 2.0678677818,
				"z": -0.4060301722,
				"element": "S" 
			},
			{
				"x": -0.267137351,
				"y": -0.3330832568,
				"z": 0.9061082261,
				"element": "C" 
			},
			{
				"x": 0.3548994912,
				"y": -1.4448019893,
				"z": 0.3190456115,
				"element": "C" 
			},
			{
				"x": 1.3343590022,
				"y": -2.1505571954,
				"z": 1.0165959001,
				"element": "C" 
			},
			{
				"x": 1.7024473195,
				"y": -1.7555719893,
				"z": 2.304004461,
				"element": "C" 
			},
			{
				"x": 1.0850749744,
				"y": -0.6479554369,
				"z": 2.8930187264,
				"element": "C" 
			},
			{
				"x": 0.1066118612,
				"y": 0.060262909,
				"z": 2.2010144773,
				"element": "C" 
			},
			{
				"x": -4.0331189913,
				"y": 1.1208922704,
				"z": -2.9871794397,
				"element": "H" 
			},
			{
				"x": -2.9429771639,
				"y": -0.1607138712,
				"z": -3.2941305696,
				"element": "H" 
			},
			{
				"x": 0.0616235409,
				"y": -1.7424056935,
				"z": -0.6813878584,
				"element": "H" 
			},
			{
				"x": 1.810754342,
				"y": -3.0100701676,
				"z": 0.5534999117,
				"element": "H" 
			},
			{
				"x": 2.4658191649,
				"y": -2.3063701343,
				"z": 2.8463374045,
				"element": "H" 
			},
			{
				"x": 1.3679821086,
				"y": -0.3362895202,
				"z": 3.8944641186,
				"element": "H" 
			},
			{
				"x": -0.3783257545,
				"y": 0.921036699,
				"z": 2.6486024458,
				"element": "H" 
			}
		],
		 "valence_orbital": [ 
			{
				"type": "occ",
				"energy": -0.29167,
				"method": "rhf"
			},
			{
				"type": "occ",
				"energy": -0.27319,
				"method": "rhf"
			},
			{
				"type": "occ",
				"energy": -0.2552,
				"method": "rhf"
			},
			{
				"type": "occ",
				"energy": -0.24521,
				"method": "rhf"
			},
			{
				"type": "occ",
				"energy": -0.22001,
				"method": "rhf"
			},
			{
				"type": "unocc",
				"energy": -0.03728,
				"method": "rhf"
			},
			{
				"type": "unocc",
				"energy": -0.00415,
				"method": "rhf"
			},
			{
				"type": "unocc",
				"energy": 0.00246,
				"method": "rhf"
			},
			{
				"type": "unocc",
				"energy": 0.01281,
				"method": "rhf"
			},
			{
				"type": "unocc",
				"energy": 0.0627,
				"method": "rhf"
			}
		],
		"cosmo_sigma_profile": { 
			"-0.025": 0.0,
			"-0.024": 0.0,
			"-0.023": 0.0,
			"-0.022": 0.0,
			"-0.021": 0.0,
			"-0.02": 0.0,
			"-0.019": 0.0,
			"-0.018": 0.0,
			"-0.017": 0.0,
			"-0.016": 0.554025202612,
			"-0.015": 2.32865946741,
			"-0.014": 3.27686498775,
			"-0.013": 2.26771468662,
			"-0.012": 3.24880370283,
			"-0.011": 2.28317471072,
			"-0.01": 1.49045753673,
			"-0.009": 1.89307933466,
			"-0.008": 1.69248825473,
			"-0.007": 1.64351599785,
			"-0.006": 7.07527656599,
			"-0.005": 9.06158250207,
			"-0.004": 13.0907842445,
			"-0.003": 10.5477904465,
			"-0.002": 9.86909815045,
			"-0.001": 11.9693220483,
			"0.0": 15.0428581519,
			"0.001": 15.0193203283,
			"0.002": 16.2919545831,
			"0.003": 21.7851882242,
			"0.004": 18.2041030502,
			"0.005": 13.8981895611,
			"0.006": 5.98141504308,
			"0.007": 3.48338566105,
			"0.008": 3.36246730593,
			"0.009": 3.15319529506,
			"0.01": 2.87744762676,
			"0.011": 1.65350532948,
			"0.012": 1.35870169569,
			"0.013": 0.5982270285,
			"0.014": 0.0,
			"0.015": 0.0,
			"0.016": 0.0,
			"0.017": 0.0,
			"0.018": 0.0,
			"0.019": 0.0,
			"0.02": 0.0,
			"0.021": 0.0,
			"0.022": 0.0,
			"0.023": 0.0,
			"0.024": 0.0,
			"0.025": 0.0
		}
	}
}
