{
	 "smiles": "CC(C)C1CC(=O)CC(=O)C1", 
	 "Tm": 353.15, 
	 "num_atms": 25, 
	 "gaussian": { 
		 "optdone": 1, 
		 "sigma_profile": "yes", 
		 "theory": "DFT", 
		 "functional": "B3LYP", 
		 "basiset": "6-31G**", 
		 "properties": { 
			 "R2extent": 2272.9772, 
			 "electric_dipole_moment_norm": 3.58074352893, 
			 "electric_quadrupole_moment_norm": 13.4781340174, 
			 "total_energy": -501.848511545, 
			 "HOMO_LUMO_gap": 0.20978, 
			 "cosmo_polarized_energy": -12.27, 
			 "cosmo_cavitation_energy": 25.86, 
			 "cosmo_dispersion_energy": -18.52, 
			 "cosmo_repulsion_energy": 1.48, 
			 "cosmo_total_nonelectrostatic_energy": 8.82, 
			 "SMD_solvation_energy": 5.24 
		},
		"coords": [
			{
				"x": -0.4963273957,
				"y": 0.2717482807,
				"z": 0.7381297311,
				"element": "C" 
			},
			{
				"x": -1.4916773735,
				"y": 0.6184020636,
				"z": -0.3819372455,
				"element": "C" 
			},
			{
				"x": -2.9312328266,
				"y": 0.6072430547,
				"z": 0.15833933,
				"element": "C" 
			},
			{
				"x": -1.3640250199,
				"y": -0.2414341112,
				"z": -1.6723157366,
				"element": "C" 
			},
			{
				"x": -0.0445066858,
				"y": 0.0128099049,
				"z": -2.4463393003,
				"element": "C" 
			},
			{
				"x": 1.1678439108,
				"y": -0.718800482,
				"z": -1.8902444266,
				"element": "C" 
			},
			{
				"x": 2.2429185596,
				"y": -0.1821737972,
				"z": -1.713608977,
				"element": "O" 
			},
			{
				"x": 0.9556840826,
				"y": -2.202226621,
				"z": -1.5912398664,
				"element": "C" 
			},
			{
				"x": -0.3761799334,
				"y": -2.5018782106,
				"z": -0.9047411494,
				"element": "C" 
			},
			{
				"x": -0.4547967966,
				"y": -3.2975352534,
				"z": 0.0092847335,
				"element": "O" 
			},
			{
				"x": -1.5816320941,
				"y": -1.7632424543,
				"z": -1.4677678616,
				"element": "C" 
			},
			{
				"x": -0.61964047,
				"y": 0.9691005832,
				"z": 1.5734690603,
				"element": "H" 
			},
			{
				"x": -0.6622955924,
				"y": -0.7358400158,
				"z": 1.1329886251,
				"element": "H" 
			},
			{
				"x": 0.5448628958,
				"y": 0.3462234676,
				"z": 0.4115724909,
				"element": "H" 
			},
			{
				"x": -1.277378187,
				"y": 1.6487238675,
				"z": -0.7016875626,
				"element": "H" 
			},
			{
				"x": -3.2078331161,
				"y": -0.3733146454,
				"z": 0.5612675884,
				"element": "H" 
			},
			{
				"x": -3.6571752999,
				"y": 0.8684562519,
				"z": -0.6199158034,
				"element": "H" 
			},
			{
				"x": -3.0401820591,
				"y": 1.3316633102,
				"z": 0.9719529655,
				"element": "H" 
			},
			{
				"x": -2.1728899869,
				"y": 0.0995810365,
				"z": -2.3304438248,
				"element": "H" 
			},
			{
				"x": -0.1757698371,
				"y": -0.3448190833,
				"z": -3.4788670417,
				"element": "H" 
			},
			{
				"x": 0.1924466064,
				"y": 1.0787366772,
				"z": -2.4991735475,
				"element": "H" 
			},
			{
				"x": 1.7876169275,
				"y": -2.6006498982,
				"z": -1.0087444568,
				"element": "H" 
			},
			{
				"x": 0.9339669688,
				"y": -2.7205346627,
				"z": -2.5629995104,
				"element": "H" 
			},
			{
				"x": -1.7906237626,
				"y": -2.2125295621,
				"z": -2.4503595277,
				"element": "H" 
			},
			{
				"x": -2.4411735145,
				"y": -1.9763097008,
				"z": -0.8291186864,
				"element": "H" 
			}
		],
		 "valence_orbital": [ 
			{
				"type": "occ",
				"energy": -0.33729,
				"method": "rhf"
			},
			{
				"type": "occ",
				"energy": -0.32382,
				"method": "rhf"
			},
			{
				"type": "occ",
				"energy": -0.3192,
				"method": "rhf"
			},
			{
				"type": "occ",
				"energy": -0.2592,
				"method": "rhf"
			},
			{
				"type": "occ",
				"energy": -0.24551,
				"method": "rhf"
			},
			{
				"type": "unocc",
				"energy": -0.03573,
				"method": "rhf"
			},
			{
				"type": "unocc",
				"energy": -0.01221,
				"method": "rhf"
			},
			{
				"type": "unocc",
				"energy": 0.06552,
				"method": "rhf"
			},
			{
				"type": "unocc",
				"energy": 0.10206,
				"method": "rhf"
			},
			{
				"type": "unocc",
				"energy": 0.11023,
				"method": "rhf"
			}
		],
		"cosmo_sigma_profile": { 
			"-0.025": 0.0,
			"-0.024": 0.0,
			"-0.023": 0.0,
			"-0.022": 0.0,
			"-0.021": 0.0,
			"-0.02": 0.0,
			"-0.019": 0.0,
			"-0.018": 0.0,
			"-0.017": 0.0,
			"-0.016": 0.0,
			"-0.015": 0.0,
			"-0.014": 0.0,
			"-0.013": 0.0,
			"-0.012": 0.0,
			"-0.011": 0.0,
			"-0.01": 1.11547966314,
			"-0.009": 4.47712225144,
			"-0.008": 4.14190878376,
			"-0.007": 4.60306891112,
			"-0.006": 7.40114345537,
			"-0.005": 8.14990267958,
			"-0.004": 16.0146177062,
			"-0.003": 23.897640343,
			"-0.002": 25.0140919486,
			"-0.001": 22.0275371242,
			"0.0": 16.6891299225,
			"0.001": 17.8087031276,
			"0.002": 6.78452765007,
			"0.003": 2.8749634236,
			"0.004": 2.71782619873,
			"0.005": 3.41106959243,
			"0.006": 2.20962112889,
			"0.007": 2.46242101076,
			"0.008": 3.22526967016,
			"0.009": 3.18305294493,
			"0.01": 4.04509889647,
			"0.011": 7.44774141781,
			"0.012": 7.80877718581,
			"0.013": 3.02574083574,
			"0.014": 0.0,
			"0.015": 0.0,
			"0.016": 0.0,
			"0.017": 0.0,
			"0.018": 0.0,
			"0.019": 0.0,
			"0.02": 0.0,
			"0.021": 0.0,
			"0.022": 0.0,
			"0.023": 0.0,
			"0.024": 0.0,
			"0.025": 0.0
		}
	}
}
