{
	 "smiles": "CC(=O)NO", 
	 "Tm": 362.35, 
	 "num_atms": 10, 
	 "gaussian": { 
		 "optdone": 1, 
		 "sigma_profile": "yes", 
		 "theory": "DFT", 
		 "functional": "B3LYP", 
		 "basiset": "6-31G**", 
		 "properties": { 
			 "R2extent": 685.7189, 
			 "electric_dipole_moment_norm": 3.16862966754, 
			 "electric_quadrupole_moment_norm": 7.55089357361, 
			 "total_energy": -284.37471943, 
			 "HOMO_LUMO_gap": 0.26156, 
			 "cosmo_polarized_energy": -11.57, 
			 "cosmo_cavitation_energy": 14.11, 
			 "cosmo_dispersion_energy": -10.46, 
			 "cosmo_repulsion_energy": 0.96, 
			 "cosmo_total_nonelectrostatic_energy": 4.61, 
			 "SMD_solvation_energy": 4.62 
		},
		"coords": [
			{
				"x": -0.2993616543,
				"y": 1.2331030278,
				"z": -0.3218468736,
				"element": "C" 
			},
			{
				"x": -0.4839376947,
				"y": -0.2161464589,
				"z": -0.7121973614,
				"element": "C" 
			},
			{
				"x": -0.0237503265,
				"y": -1.1637061099,
				"z": -0.0987834267,
				"element": "O" 
			},
			{
				"x": -1.1809353337,
				"y": -0.4451656258,
				"z": -1.8968592727,
				"element": "N" 
			},
			{
				"x": -2.1010262062,
				"y": 0.5484635195,
				"z": -2.3018862188,
				"element": "O" 
			},
			{
				"x": -1.2620302113,
				"y": 1.6791804426,
				"z": -0.05533326,
				"element": "H" 
			},
			{
				"x": 0.3780495873,
				"y": 1.2740991832,
				"z": 0.530733403,
				"element": "H" 
			},
			{
				"x": 0.1085134919,
				"y": 1.8183022293,
				"z": -1.1513864904,
				"element": "H" 
			},
			{
				"x": -1.5983025105,
				"y": -1.3706627363,
				"z": -1.9468079729,
				"element": "H" 
			},
			{
				"x": -1.753019142,
				"y": 0.8544325284,
				"z": -3.1524325264,
				"element": "H" 
			}
		],
		 "valence_orbital": [ 
			{
				"type": "occ",
				"energy": -0.39846,
				"method": "rhf"
			},
			{
				"type": "occ",
				"energy": -0.36394,
				"method": "rhf"
			},
			{
				"type": "occ",
				"energy": -0.32896,
				"method": "rhf"
			},
			{
				"type": "occ",
				"energy": -0.26832,
				"method": "rhf"
			},
			{
				"type": "occ",
				"energy": -0.25254,
				"method": "rhf"
			},
			{
				"type": "unocc",
				"energy": 0.00902,
				"method": "rhf"
			},
			{
				"type": "unocc",
				"energy": 0.05813,
				"method": "rhf"
			},
			{
				"type": "unocc",
				"energy": 0.0986,
				"method": "rhf"
			},
			{
				"type": "unocc",
				"energy": 0.12316,
				"method": "rhf"
			},
			{
				"type": "unocc",
				"energy": 0.13751,
				"method": "rhf"
			}
		],
		"cosmo_sigma_profile": { 
			"-0.025": 0.0,
			"-0.024": 0.0,
			"-0.023": 0.0,
			"-0.022": 0.0,
			"-0.021": 0.0,
			"-0.02": 0.0,
			"-0.019": 0.0,
			"-0.018": 0.146104617883,
			"-0.017": 1.33710598391,
			"-0.016": 0.68656942718,
			"-0.015": 0.926197967533,
			"-0.014": 1.97837221874,
			"-0.013": 2.29009372425,
			"-0.012": 1.08224246318,
			"-0.011": 0.742573197946,
			"-0.01": 1.7700877798,
			"-0.009": 2.66411691527,
			"-0.008": 1.47742134756,
			"-0.007": 1.91649739662,
			"-0.006": 4.39187774827,
			"-0.005": 7.28654039569,
			"-0.004": 6.95764611154,
			"-0.003": 7.9339030584,
			"-0.002": 8.26624622089,
			"-0.001": 8.69934870251,
			"0.0": 5.04916378994,
			"0.001": 4.10867539582,
			"0.002": 2.82194097626,
			"0.003": 3.46315815172,
			"0.004": 3.37514799555,
			"0.005": 3.10836048306,
			"0.006": 2.98008620183,
			"0.007": 2.65811817318,
			"0.008": 2.61463630787,
			"0.009": 2.98787421317,
			"0.01": 2.46313436218,
			"0.011": 3.618077965,
			"0.012": 3.43573492139,
			"0.013": 5.36547712238,
			"0.014": 1.7394027443,
			"0.015": 0.0768891261868,
			"0.016": 0.0,
			"0.017": 0.0,
			"0.018": 0.0,
			"0.019": 0.0,
			"0.02": 0.0,
			"0.021": 0.0,
			"0.022": 0.0,
			"0.023": 0.0,
			"0.024": 0.0,
			"0.025": 0.0
		}
	}
}
