{
	 "smiles": "NS(=O)(=O)CC1=C(Br)C=CC=C1", 
	 "Tm": 392.15, 
	 "num_atms": 20, 
	 "gaussian": { 
		 "optdone": 1, 
		 "sigma_profile": "yes", 
		 "theory": "DFT", 
		 "functional": "B3LYP", 
		 "basiset": "6-31G**", 
		 "properties": { 
			 "R2extent": 3822.4744, 
			 "electric_dipole_moment_norm": 4.8086616662, 
			 "electric_quadrupole_moment_norm": 11.7987285569, 
			 "total_energy": -3446.29361545, 
			 "HOMO_LUMO_gap": 0.21526, 
			 "cosmo_polarized_energy": -16.75, 
			 "cosmo_cavitation_energy": 27.35, 
			 "cosmo_dispersion_energy": -20.59, 
			 "cosmo_repulsion_energy": 1.6, 
			 "cosmo_total_nonelectrostatic_energy": 8.36, 
			 "SMD_solvation_energy": 3.15 
		},
		"coords": [
			{
				"x": -1.4613294081,
				"y": 1.1022605498,
				"z": 2.2448255933,
				"element": "N" 
			},
			{
				"x": -0.915668926,
				"y": -0.5017352624,
				"z": 2.397590893,
				"element": "S" 
			},
			{
				"x": -1.9900650683,
				"y": -1.3923284848,
				"z": 1.9548355779,
				"element": "O" 
			},
			{
				"x": -0.3025323695,
				"y": -0.6170671384,
				"z": 3.7243631935,
				"element": "O" 
			},
			{
				"x": 0.4507123937,
				"y": -0.5637752803,
				"z": 1.1836989142,
				"element": "C" 
			},
			{
				"x": 0.0170557474,
				"y": -0.428065475,
				"z": -0.246947604,
				"element": "C" 
			},
			{
				"x": -0.2377638034,
				"y": -1.5303088232,
				"z": -1.0791845986,
				"element": "C" 
			},
			{
				"x": -0.0227337109,
				"y": -3.3226693631,
				"z": -0.4454661292,
				"element": "Br" 
			},
			{
				"x": -0.6382945118,
				"y": -1.3640460556,
				"z": -2.4049774602,
				"element": "C" 
			},
			{
				"x": -0.7963061681,
				"y": -0.0806257341,
				"z": -2.9249528777,
				"element": "C" 
			},
			{
				"x": -0.5474606985,
				"y": 1.0322159812,
				"z": -2.1208814581,
				"element": "C" 
			},
			{
				"x": -0.1450653641,
				"y": 0.8526066882,
				"z": -0.8001805299,
				"element": "C" 
			},
			{
				"x": -1.4238917455,
				"y": 1.5404327699,
				"z": 3.1620244456,
				"element": "H" 
			},
			{
				"x": -2.4109290657,
				"y": 1.1007829215,
				"z": 1.8810959202,
				"element": "H" 
			},
			{
				"x": 0.9270624472,
				"y": -1.5254625402,
				"z": 1.3841971879,
				"element": "H" 
			},
			{
				"x": 1.1266966524,
				"y": 0.2383037397,
				"z": 1.4865403339,
				"element": "H" 
			},
			{
				"x": -0.8223526638,
				"y": -2.236785642,
				"z": -3.0206793729,
				"element": "H" 
			},
			{
				"x": -1.1079997078,
				"y": 0.0436732528,
				"z": -3.9576609659,
				"element": "H" 
			},
			{
				"x": -0.66214613,
				"y": 2.0350051122,
				"z": -2.5205463595,
				"element": "H" 
			},
			{
				"x": 0.0440121008,
				"y": 1.7146887838,
				"z": -0.1679947034,
				"element": "H" 
			}
		],
		 "valence_orbital": [ 
			{
				"type": "occ",
				"energy": -0.30324,
				"method": "rhf"
			},
			{
				"type": "occ",
				"energy": -0.29685,
				"method": "rhf"
			},
			{
				"type": "occ",
				"energy": -0.29034,
				"method": "rhf"
			},
			{
				"type": "occ",
				"energy": -0.26418,
				"method": "rhf"
			},
			{
				"type": "occ",
				"energy": -0.2483,
				"method": "rhf"
			},
			{
				"type": "unocc",
				"energy": -0.03304,
				"method": "rhf"
			},
			{
				"type": "unocc",
				"energy": -0.0221,
				"method": "rhf"
			},
			{
				"type": "unocc",
				"energy": 0.00246,
				"method": "rhf"
			},
			{
				"type": "unocc",
				"energy": 0.0543,
				"method": "rhf"
			},
			{
				"type": "unocc",
				"energy": 0.08011,
				"method": "rhf"
			}
		],
		"cosmo_sigma_profile": { 
			"-0.025": 0.0,
			"-0.024": 0.0,
			"-0.023": 0.0,
			"-0.022": 0.0,
			"-0.021": 0.0,
			"-0.02": 0.0,
			"-0.019": 0.0,
			"-0.018": 0.0,
			"-0.017": 0.0,
			"-0.016": 0.0,
			"-0.015": 0.956556697684,
			"-0.014": 2.20399791556,
			"-0.013": 2.6742058573,
			"-0.012": 2.3818399431,
			"-0.011": 2.73330677981,
			"-0.01": 1.29620875896,
			"-0.009": 2.64666510225,
			"-0.008": 3.95691967894,
			"-0.007": 9.92278913715,
			"-0.006": 13.4541172615,
			"-0.005": 14.189897011,
			"-0.004": 13.3243114921,
			"-0.003": 10.8326348417,
			"-0.002": 11.0005196956,
			"-0.001": 10.2423765802,
			"0.0": 11.1955395166,
			"0.001": 15.0104766517,
			"0.002": 17.0092154547,
			"0.003": 18.5500779158,
			"0.004": 13.9732154074,
			"0.005": 5.32607683812,
			"0.006": 3.4024282452,
			"0.007": 4.66002393058,
			"0.008": 4.77658515744,
			"0.009": 3.7677710442,
			"0.01": 6.48963067961,
			"0.011": 10.8682821059,
			"0.012": 4.17352357189,
			"0.013": 0.0,
			"0.014": 0.0,
			"0.015": 0.0,
			"0.016": 0.0,
			"0.017": 0.0,
			"0.018": 0.0,
			"0.019": 0.0,
			"0.02": 0.0,
			"0.021": 0.0,
			"0.022": 0.0,
			"0.023": 0.0,
			"0.024": 0.0,
			"0.025": 0.0
		}
	}
}
