{
	 "smiles": "OC1COC(OCC2OC(OC3=CC=C4C(=O)C5=C(C=CC=C5)C(=O)C4=C3O)C(O)C(O)C2O)C(O)C1O", 
	 "Tm": 533.15, 
	 "num_atms": 64, 
	 "gaussian": { 
		 "optdone": 1, 
		 "sigma_profile": "yes", 
		 "theory": "DFT", 
		 "functional": "B3LYP", 
		 "basiset": "6-31G**", 
		 "properties": { 
			 "R2extent": 21094.7389, 
			 "electric_dipole_moment_norm": 6.67759656164, 
			 "electric_quadrupole_moment_norm": 42.5111077172, 
			 "total_energy": -1946.18198232, 
			 "HOMO_LUMO_gap": 0.11918, 
			 "cosmo_polarized_energy": -32.73, 
			 "cosmo_cavitation_energy": 62.29, 
			 "cosmo_dispersion_energy": -42.53, 
			 "cosmo_repulsion_energy": 3.03, 
			 "cosmo_total_nonelectrostatic_energy": 22.79, 
			 "SMD_solvation_energy": 9.75 
		},
		"coords": [
			{
				"x": -0.5981485681,
				"y": -2.535360103,
				"z": -3.1951590336,
				"element": "O" 
			},
			{
				"x": -0.683981226,
				"y": -1.143046678,
				"z": -2.9032793322,
				"element": "C" 
			},
			{
				"x": -1.7272650086,
				"y": -0.8498350831,
				"z": -1.8084492149,
				"element": "C" 
			},
			{
				"x": -2.5072880156,
				"y": 0.3311537576,
				"z": -2.0720248672,
				"element": "O" 
			},
			{
				"x": -1.8383795857,
				"y": 1.4433922055,
				"z": -2.6093877902,
				"element": "C" 
			},
			{
				"x": -1.0129979547,
				"y": 2.0983807919,
				"z": -1.659159511,
				"element": "O" 
			},
			{
				"x": -1.7240231253,
				"y": 2.7731345855,
				"z": -0.6199844914,
				"element": "C" 
			},
			{
				"x": -0.7001388162,
				"y": 3.4915995765,
				"z": 0.2610064317,
				"element": "C" 
			},
			{
				"x": 0.2217233004,
				"y": 2.5971462178,
				"z": 0.9080893909,
				"element": "O" 
			},
			{
				"x": -0.3373309803,
				"y": 1.8159112718,
				"z": 1.9419964361,
				"element": "C" 
			},
			{
				"x": 0.6954704235,
				"y": 1.0198287086,
				"z": 2.495517015,
				"element": "O" 
			},
			{
				"x": 1.0255771696,
				"y": -0.1281090015,
				"z": 1.8205836502,
				"element": "C" 
			},
			{
				"x": 1.2802628727,
				"y": -0.1560167718,
				"z": 0.4551964836,
				"element": "C" 
			},
			{
				"x": 1.5304162515,
				"y": -1.3719343146,
				"z": -0.1897936115,
				"element": "C" 
			},
			{
				"x": 1.5241161257,
				"y": -2.5626427812,
				"z": 0.5224032772,
				"element": "C" 
			},
			{
				"x": 1.6224435604,
				"y": -3.8448657461,
				"z": -0.2150031838,
				"element": "C" 
			},
			{
				"x": 1.5430483754,
				"y": -3.8895352443,
				"z": -1.4451134568,
				"element": "O" 
			},
			{
				"x": 1.7836288664,
				"y": -5.0871532852,
				"z": 0.5885316471,
				"element": "C" 
			},
			{
				"x": 1.686434295,
				"y": -5.054505398,
				"z": 1.9955916606,
				"element": "C" 
			},
			{
				"x": 1.8166103019,
				"y": -6.2397892695,
				"z": 2.7284691976,
				"element": "C" 
			},
			{
				"x": 2.0503843522,
				"y": -7.4451449867,
				"z": 2.0701142242,
				"element": "C" 
			},
			{
				"x": 2.1447532643,
				"y": -7.4776915832,
				"z": 0.6742066623,
				"element": "C" 
			},
			{
				"x": 2.0052075183,
				"y": -6.3044220082,
				"z": -0.0641594766,
				"element": "C" 
			},
			{
				"x": 1.4253967422,
				"y": -3.7804991342,
				"z": 2.7138142708,
				"element": "C" 
			},
			{
				"x": 1.2822098688,
				"y": -3.7737417327,
				"z": 3.9519124707,
				"element": "O" 
			},
			{
				"x": 1.3556456076,
				"y": -2.5439430578,
				"z": 1.9314287754,
				"element": "C" 
			},
			{
				"x": 1.1061389802,
				"y": -1.3182627047,
				"z": 2.59321832,
				"element": "C" 
			},
			{
				"x": 0.9099186871,
				"y": -1.2355266865,
				"z": 3.9098199716,
				"element": "O" 
			},
			{
				"x": -0.8708247056,
				"y": 2.6834194078,
				"z": 3.0875534475,
				"element": "C" 
			},
			{
				"x": 0.1670540988,
				"y": 3.4017825513,
				"z": 3.7186115684,
				"element": "O" 
			},
			{
				"x": -1.865628673,
				"y": 3.7159343878,
				"z": 2.5386359546,
				"element": "C" 
			},
			{
				"x": -3.0782285196,
				"y": 3.0881441992,
				"z": 2.1034047555,
				"element": "O" 
			},
			{
				"x": -1.3027512143,
				"y": 4.4554804382,
				"z": 1.317977643,
				"element": "C" 
			},
			{
				"x": -2.2807015743,
				"y": 5.3146152957,
				"z": 0.7615346318,
				"element": "O" 
			},
			{
				"x": -0.9336978619,
				"y": 1.1103762951,
				"z": -3.8521709671,
				"element": "C" 
			},
			{
				"x": 0.4308381193,
				"y": 1.4087786452,
				"z": -3.6213380687,
				"element": "O" 
			},
			{
				"x": -1.0760466021,
				"y": -0.3857202921,
				"z": -4.1705609122,
				"element": "C" 
			},
			{
				"x": -0.2457954055,
				"y": -0.7361316541,
				"z": -5.2526726574,
				"element": "O" 
			},
			{
				"x": 0.1325646922,
				"y": -2.922845121,
				"z": -2.6862184893,
				"element": "H" 
			},
			{
				"x": 0.2981902792,
				"y": -0.7553741132,
				"z": -2.6207543202,
				"element": "H" 
			},
			{
				"x": -1.2634141066,
				"y": -0.7786886636,
				"z": -0.8173204856,
				"element": "H" 
			},
			{
				"x": -2.4482709975,
				"y": -1.6714015897,
				"z": -1.7982315698,
				"element": "H" 
			},
			{
				"x": -2.6548733289,
				"y": 2.1168646316,
				"z": -2.9008927176,
				"element": "H" 
			},
			{
				"x": -2.3413686086,
				"y": 2.0635832323,
				"z": -0.0628382554,
				"element": "H" 
			},
			{
				"x": -2.3888904117,
				"y": 3.5331820027,
				"z": -1.0524478833,
				"element": "H" 
			},
			{
				"x": -0.0687702888,
				"y": 4.081821659,
				"z": -0.4102175986,
				"element": "H" 
			},
			{
				"x": -1.1329109113,
				"y": 1.1626438118,
				"z": 1.5574311155,
				"element": "H" 
			},
			{
				"x": 1.2394191274,
				"y": 0.771184309,
				"z": -0.1026367198,
				"element": "H" 
			},
			{
				"x": 1.7162158989,
				"y": -1.3994700196,
				"z": -1.2556059251,
				"element": "H" 
			},
			{
				"x": 1.7303187045,
				"y": -6.1924681934,
				"z": 3.8085279996,
				"element": "H" 
			},
			{
				"x": 2.1560667266,
				"y": -8.3617077976,
				"z": 2.6426620242,
				"element": "H" 
			},
			{
				"x": 2.3242346631,
				"y": -8.4194260119,
				"z": 0.164289934,
				"element": "H" 
			},
			{
				"x": 2.0642629907,
				"y": -6.3050948512,
				"z": -1.147214991,
				"element": "H" 
			},
			{
				"x": 1.0054330848,
				"y": -2.1627863617,
				"z": 4.2581043664,
				"element": "H" 
			},
			{
				"x": -1.3904587972,
				"y": 2.0182074568,
				"z": 3.7986535939,
				"element": "H" 
			},
			{
				"x": 0.9088078799,
				"y": 2.7898069567,
				"z": 3.8329584765,
				"element": "H" 
			},
			{
				"x": -2.072938867,
				"y": 4.4539772876,
				"z": 3.3243071052,
				"element": "H" 
			},
			{
				"x": -3.611504576,
				"y": 2.8642925666,
				"z": 2.8762077802,
				"element": "H" 
			},
			{
				"x": -0.4782367954,
				"y": 5.0785420425,
				"z": 1.6758770929,
				"element": "H" 
			},
			{
				"x": -3.1237122241,
				"y": 4.8423414509,
				"z": 0.8423074868,
				"element": "H" 
			},
			{
				"x": -1.2989341785,
				"y": 1.6951934203,
				"z": -4.7090979201,
				"element": "H" 
			},
			{
				"x": 0.4445147856,
				"y": 2.0494165285,
				"z": -2.894710354,
				"element": "H" 
			},
			{
				"x": -2.1341678508,
				"y": -0.589619955,
				"z": -4.4052447906,
				"element": "H" 
			},
			{
				"x": -0.1025278349,
				"y": -1.6902754976,
				"z": -5.150756266,
				"element": "H" 
			}
		],
		 "valence_orbital": [ 
			{
				"type": "occ",
				"energy": -0.26473,
				"method": "rhf"
			},
			{
				"type": "occ",
				"energy": -0.26127,
				"method": "rhf"
			},
			{
				"type": "occ",
				"energy": -0.24992,
				"method": "rhf"
			},
			{
				"type": "occ",
				"energy": -0.24202,
				"method": "rhf"
			},
			{
				"type": "occ",
				"energy": -0.23952,
				"method": "rhf"
			},
			{
				"type": "unocc",
				"energy": -0.12034,
				"method": "rhf"
			},
			{
				"type": "unocc",
				"energy": -0.06876,
				"method": "rhf"
			},
			{
				"type": "unocc",
				"energy": -0.03481,
				"method": "rhf"
			},
			{
				"type": "unocc",
				"energy": -0.01775,
				"method": "rhf"
			},
			{
				"type": "unocc",
				"energy": 0.03087,
				"method": "rhf"
			}
		],
		"cosmo_sigma_profile": { 
			"-0.025": 0.0,
			"-0.024": 0.0,
			"-0.023": 0.0,
			"-0.022": 0.0,
			"-0.021": 0.0,
			"-0.02": 0.0,
			"-0.019": 0.0,
			"-0.018": 0.0318017973107,
			"-0.017": 0.737837621667,
			"-0.016": 1.29804951532,
			"-0.015": 0.954591289885,
			"-0.014": 1.53746323543,
			"-0.013": 1.40453078073,
			"-0.012": 2.00715491216,
			"-0.011": 3.08730106256,
			"-0.01": 2.87017291861,
			"-0.009": 3.43620963845,
			"-0.008": 5.94977592597,
			"-0.007": 16.4838827858,
			"-0.006": 30.9031128433,
			"-0.005": 36.3230564532,
			"-0.004": 36.0440612002,
			"-0.003": 38.3202373876,
			"-0.002": 37.4054565243,
			"-0.001": 38.8804875268,
			"0.0": 37.0387201144,
			"0.001": 34.8293255277,
			"0.002": 28.9111354492,
			"0.003": 15.7157338645,
			"0.004": 15.7889514524,
			"0.005": 13.2033526699,
			"0.006": 13.5369445297,
			"0.007": 9.80991807755,
			"0.008": 11.9880178171,
			"0.009": 11.5913411742,
			"0.01": 10.7910359197,
			"0.011": 8.45914647848,
			"0.012": 6.90538466835,
			"0.013": 6.23356604149,
			"0.014": 4.20732048811,
			"0.015": 2.42310135532,
			"0.016": 1.58549565394,
			"0.017": 0.422841937554,
			"0.018": 0.0,
			"0.019": 0.0,
			"0.02": 0.0,
			"0.021": 0.0,
			"0.022": 0.0,
			"0.023": 0.0,
			"0.024": 0.0,
			"0.025": 0.0
		}
	}
}
