{
	 "smiles": "CC1=C(S)C=C(C=C1)C(C)(C)C", 
	 "Tm": 263.15, 
	 "num_atms": 28, 
	 "gaussian": { 
		 "optdone": 1, 
		 "sigma_profile": "yes", 
		 "theory": "DFT", 
		 "functional": "B3LYP", 
		 "basiset": "6-31G**", 
		 "properties": { 
			 "R2extent": 3621.9667, 
			 "electric_dipole_moment_norm": 1.4303613075, 
			 "electric_quadrupole_moment_norm": 9.87350195625, 
			 "total_energy": -827.02007368, 
			 "HOMO_LUMO_gap": 0.21556, 
			 "cosmo_polarized_energy": -5.34, 
			 "cosmo_cavitation_energy": 30.55, 
			 "cosmo_dispersion_energy": -22.14, 
			 "cosmo_repulsion_energy": 1.71, 
			 "cosmo_total_nonelectrostatic_energy": 10.11, 
			 "SMD_solvation_energy": 4.83 
		},
		"coords": [
			{
				"x": -2.3375502256,
				"y": 3.8172892477,
				"z": -1.9243435998,
				"element": "C" 
			},
			{
				"x": -1.6443383329,
				"y": 2.6070732698,
				"z": -1.3529122859,
				"element": "C" 
			},
			{
				"x": -2.0077342952,
				"y": 1.2907305738,
				"z": -1.7046349041,
				"element": "C" 
			},
			{
				"x": -3.3753148546,
				"y": 0.9268075563,
				"z": -2.8135707085,
				"element": "S" 
			},
			{
				"x": -1.3503162582,
				"y": 0.1944911363,
				"z": -1.1408752269,
				"element": "C" 
			},
			{
				"x": -0.3163977733,
				"y": 0.3454850442,
				"z": -0.20369123,
				"element": "C" 
			},
			{
				"x": 0.0503714361,
				"y": 1.6534822939,
				"z": 0.1316782391,
				"element": "C" 
			},
			{
				"x": -0.5984548153,
				"y": 2.7507036502,
				"z": -0.4373447053,
				"element": "C" 
			},
			{
				"x": 0.3649806408,
				"y": -0.900986941,
				"z": 0.3902959663,
				"element": "C" 
			},
			{
				"x": 1.0065537914,
				"y": -1.7308312549,
				"z": -0.7472485946,
				"element": "C" 
			},
			{
				"x": 1.4699439459,
				"y": -0.5337018752,
				"z": 1.3988733641,
				"element": "C" 
			},
			{
				"x": -0.6893412693,
				"y": -1.7646521378,
				"z": 1.122646006,
				"element": "C" 
			},
			{
				"x": -1.9858790616,
				"y": 4.7315357945,
				"z": -1.439301573,
				"element": "H" 
			},
			{
				"x": -3.4236110905,
				"y": 3.7533436523,
				"z": -1.7942004659,
				"element": "H" 
			},
			{
				"x": -2.151807442,
				"y": 3.9271754576,
				"z": -3.0011402077,
				"element": "H" 
			},
			{
				"x": -3.1401941786,
				"y": 1.8903374123,
				"z": -3.7262726469,
				"element": "H" 
			},
			{
				"x": -1.654877287,
				"y": -0.7992166004,
				"z": -1.4541295479,
				"element": "H" 
			},
			{
				"x": 0.847659667,
				"y": 1.8367884254,
				"z": 0.8424778472,
				"element": "H" 
			},
			{
				"x": -0.290117997,
				"y": 3.7534266894,
				"z": -0.1511066249,
				"element": "H" 
			},
			{
				"x": 1.7631302266,
				"y": -1.1454219568,
				"z": -1.2800097656,
				"element": "H" 
			},
			{
				"x": 1.4927772909,
				"y": -2.6243760991,
				"z": -0.3394798728,
				"element": "H" 
			},
			{
				"x": 0.2642469732,
				"y": -2.0614775347,
				"z": -1.479709795,
				"element": "H" 
			},
			{
				"x": 2.2681789447,
				"y": 0.0537997062,
				"z": 0.9333709906,
				"element": "H" 
			},
			{
				"x": 1.075169072,
				"y": 0.0358425464,
				"z": 2.2466992729,
				"element": "H" 
			},
			{
				"x": 1.9230975541,
				"y": -1.4470922084,
				"z": 1.7976098599,
				"element": "H" 
			},
			{
				"x": -1.4850581312,
				"y": -2.0947701608,
				"z": 0.4483642778,
				"element": "H" 
			},
			{
				"x": -1.1555433285,
				"y": -1.2043255517,
				"z": 1.9397232549,
				"element": "H" 
			},
			{
				"x": -0.2206732018,
				"y": -2.6594601355,
				"z": 1.5477326759,
				"element": "H" 
			}
		],
		 "valence_orbital": [ 
			{
				"type": "occ",
				"energy": -0.3194,
				"method": "rhf"
			},
			{
				"type": "occ",
				"energy": -0.31393,
				"method": "rhf"
			},
			{
				"type": "occ",
				"energy": -0.27654,
				"method": "rhf"
			},
			{
				"type": "occ",
				"energy": -0.23692,
				"method": "rhf"
			},
			{
				"type": "occ",
				"energy": -0.21961,
				"method": "rhf"
			},
			{
				"type": "unocc",
				"energy": -0.00405,
				"method": "rhf"
			},
			{
				"type": "unocc",
				"energy": -0.00098,
				"method": "rhf"
			},
			{
				"type": "unocc",
				"energy": 0.03258,
				"method": "rhf"
			},
			{
				"type": "unocc",
				"energy": 0.0656,
				"method": "rhf"
			},
			{
				"type": "unocc",
				"energy": 0.08674,
				"method": "rhf"
			}
		],
		"cosmo_sigma_profile": { 
			"-0.025": 0.0,
			"-0.024": 0.0,
			"-0.023": 0.0,
			"-0.022": 0.0,
			"-0.021": 0.0,
			"-0.02": 0.0,
			"-0.019": 0.0,
			"-0.018": 0.0,
			"-0.017": 0.0,
			"-0.016": 0.0,
			"-0.015": 0.0,
			"-0.014": 0.0,
			"-0.013": 0.0,
			"-0.012": 0.0,
			"-0.011": 0.0,
			"-0.01": 0.222710656827,
			"-0.009": 2.24479541648,
			"-0.008": 2.08106114503,
			"-0.007": 2.11433289457,
			"-0.006": 2.9247846969,
			"-0.005": 9.06146777129,
			"-0.004": 12.2609042769,
			"-0.003": 23.5718940768,
			"-0.002": 32.0283768111,
			"-0.001": 27.3507499367,
			"0.0": 27.2554493871,
			"0.001": 30.7359619232,
			"0.002": 17.6942291585,
			"0.003": 9.34405656481,
			"0.004": 12.8598105648,
			"0.005": 11.4133264743,
			"0.006": 10.3856004747,
			"0.007": 2.98990857854,
			"0.008": 2.02441068502,
			"0.009": 2.21775077674,
			"0.01": 0.316269834476,
			"0.011": 0.0,
			"0.012": 0.0,
			"0.013": 0.0,
			"0.014": 0.0,
			"0.015": 0.0,
			"0.016": 0.0,
			"0.017": 0.0,
			"0.018": 0.0,
			"0.019": 0.0,
			"0.02": 0.0,
			"0.021": 0.0,
			"0.022": 0.0,
			"0.023": 0.0,
			"0.024": 0.0,
			"0.025": 0.0
		}
	}
}
