{
	 "smiles": "CC1=C(CCl)SC(=N1)C1=CC=CC=C1", 
	 "Tm": 358.15, 
	 "num_atms": 24, 
	 "gaussian": { 
		 "optdone": 1, 
		 "sigma_profile": "yes", 
		 "theory": "DFT", 
		 "functional": "B3LYP", 
		 "basiset": "6-31G**", 
		 "properties": { 
			 "R2extent": 5207.0371, 
			 "electric_dipole_moment_norm": 2.2903003886, 
			 "electric_quadrupole_moment_norm": 15.6642265143, 
			 "total_energy": -1338.34044759, 
			 "HOMO_LUMO_gap": 0.16041, 
			 "cosmo_polarized_energy": -8.74, 
			 "cosmo_cavitation_energy": 31.28, 
			 "cosmo_dispersion_energy": -23.27, 
			 "cosmo_repulsion_energy": 1.8, 
			 "cosmo_total_nonelectrostatic_energy": 9.81, 
			 "SMD_solvation_energy": 3.36 
		},
		"coords": [
			{
				"x": 0.2522727361,
				"y": -1.9218819952,
				"z": -3.362782459,
				"element": "C" 
			},
			{
				"x": 0.3023009401,
				"y": -0.6536643243,
				"z": -2.5618340369,
				"element": "C" 
			},
			{
				"x": 1.07386542,
				"y": 0.4568387404,
				"z": -2.8272178117,
				"element": "C" 
			},
			{
				"x": 2.0192422149,
				"y": 0.6857660591,
				"z": -3.9432796647,
				"element": "C" 
			},
			{
				"x": 3.7714220598,
				"y": 0.2774222724,
				"z": -3.5177362761,
				"element": "Cl" 
			},
			{
				"x": 0.807908858,
				"y": 1.6618877902,
				"z": -1.5905239024,
				"element": "S" 
			},
			{
				"x": -0.3412596508,
				"y": 0.5752512726,
				"z": -0.8156428418,
				"element": "C" 
			},
			{
				"x": -0.485105781,
				"y": -0.5655641722,
				"z": -1.4408213623,
				"element": "N" 
			},
			{
				"x": -1.0650107427,
				"y": 0.9317035881,
				"z": 0.4117002663,
				"element": "C" 
			},
			{
				"x": -1.990863896,
				"y": 0.0168694135,
				"z": 0.9447914256,
				"element": "C" 
			},
			{
				"x": -2.6929729813,
				"y": 0.3241244525,
				"z": 2.1063687926,
				"element": "C" 
			},
			{
				"x": -2.4853632626,
				"y": 1.544614251,
				"z": 2.7549136629,
				"element": "C" 
			},
			{
				"x": -1.5672670309,
				"y": 2.4581553779,
				"z": 2.2325376862,
				"element": "C" 
			},
			{
				"x": -0.8615581931,
				"y": 2.1552410984,
				"z": 1.0704455792,
				"element": "C" 
			},
			{
				"x": -0.775856926,
				"y": -2.135359858,
				"z": -3.6725309108,
				"element": "H" 
			},
			{
				"x": 0.5883079114,
				"y": -2.7652945946,
				"z": -2.7505380348,
				"element": "H" 
			},
			{
				"x": 0.8838967636,
				"y": -1.8789981844,
				"z": -4.2521060993,
				"element": "H" 
			},
			{
				"x": 2.046564555,
				"y": 1.7267112858,
				"z": -4.263905911,
				"element": "H" 
			},
			{
				"x": 1.7794696102,
				"y": 0.0559562946,
				"z": -4.7987290796,
				"element": "H" 
			},
			{
				"x": -2.1419668118,
				"y": -0.9260797371,
				"z": 0.4315181013,
				"element": "H" 
			},
			{
				"x": -3.4052313146,
				"y": -0.3908568828,
				"z": 2.5079202949,
				"element": "H" 
			},
			{
				"x": -3.0345106897,
				"y": 1.7819521438,
				"z": 3.6613448097,
				"element": "H" 
			},
			{
				"x": -1.3987567036,
				"y": 3.40804514,
				"z": 2.7311213994,
				"element": "H" 
			},
			{
				"x": -0.148027085,
				"y": 2.8747605681,
				"z": 0.6780863722,
				"element": "H" 
			}
		],
		 "valence_orbital": [ 
			{
				"type": "occ",
				"energy": -0.28615,
				"method": "rhf"
			},
			{
				"type": "occ",
				"energy": -0.27591,
				"method": "rhf"
			},
			{
				"type": "occ",
				"energy": -0.2755,
				"method": "rhf"
			},
			{
				"type": "occ",
				"energy": -0.25874,
				"method": "rhf"
			},
			{
				"type": "occ",
				"energy": -0.22345,
				"method": "rhf"
			},
			{
				"type": "unocc",
				"energy": -0.06304,
				"method": "rhf"
			},
			{
				"type": "unocc",
				"energy": -0.0106,
				"method": "rhf"
			},
			{
				"type": "unocc",
				"energy": -0.00425,
				"method": "rhf"
			},
			{
				"type": "unocc",
				"energy": 0.01,
				"method": "rhf"
			},
			{
				"type": "unocc",
				"energy": 0.04045,
				"method": "rhf"
			}
		],
		"cosmo_sigma_profile": { 
			"-0.025": 0.0,
			"-0.024": 0.0,
			"-0.023": 0.0,
			"-0.022": 0.0,
			"-0.021": 0.0,
			"-0.02": 0.0,
			"-0.019": 0.0,
			"-0.018": 0.0,
			"-0.017": 0.0,
			"-0.016": 0.0,
			"-0.015": 0.0,
			"-0.014": 0.0,
			"-0.013": 0.0,
			"-0.012": 0.0,
			"-0.011": 0.0,
			"-0.01": 0.0,
			"-0.009": 2.03736587755,
			"-0.008": 4.96047814168,
			"-0.007": 6.26494357916,
			"-0.006": 12.9912863841,
			"-0.005": 18.1739722852,
			"-0.004": 18.5082480892,
			"-0.003": 15.8022943577,
			"-0.002": 16.5778839125,
			"-0.001": 18.8867426893,
			"0.0": 20.3343061414,
			"0.001": 21.6127190125,
			"0.002": 20.1228756056,
			"0.003": 22.5006099228,
			"0.004": 19.8118203439,
			"0.005": 12.1534479876,
			"0.006": 10.7685916725,
			"0.007": 8.47386376989,
			"0.008": 1.06900409335,
			"0.009": 1.33037900819,
			"0.01": 1.03068790154,
			"0.011": 1.10537357082,
			"0.012": 0.376597086367,
			"0.013": 0.0,
			"0.014": 0.0,
			"0.015": 0.0,
			"0.016": 0.0,
			"0.017": 0.0,
			"0.018": 0.0,
			"0.019": 0.0,
			"0.02": 0.0,
			"0.021": 0.0,
			"0.022": 0.0,
			"0.023": 0.0,
			"0.024": 0.0,
			"0.025": 0.0
		}
	}
}
