{
	 "smiles": "O=C1OC(CC2=CC=CC=C12)C=CC1=CC=CC=C1", 
	 "Tm": 357.15, 
	 "num_atms": 33, 
	 "gaussian": { 
		 "optdone": 1, 
		 "sigma_profile": "yes", 
		 "theory": "DFT", 
		 "functional": "B3LYP", 
		 "basiset": "6-31G**", 
		 "properties": { 
			 "R2extent": 5979.1658, 
			 "electric_dipole_moment_norm": 4.84044022895, 
			 "electric_quadrupole_moment_norm": 22.0513533553, 
			 "total_energy": -806.694219513, 
			 "HOMO_LUMO_gap": 0.17933, 
			 "cosmo_polarized_energy": -14.32, 
			 "cosmo_cavitation_energy": 36.78, 
			 "cosmo_dispersion_energy": -25.97, 
			 "cosmo_repulsion_energy": 2.0, 
			 "cosmo_total_nonelectrostatic_energy": 12.81, 
			 "SMD_solvation_energy": 6.71 
		},
		"coords": [
			{
				"x": -0.6772372629,
				"y": 4.0755006639,
				"z": 1.6419286525,
				"element": "O" 
			},
			{
				"x": -0.7589914399,
				"y": 3.3174243071,
				"z": 0.7007347267,
				"element": "C" 
			},
			{
				"x": 0.2381350483,
				"y": 3.311403822,
				"z": -0.2293999097,
				"element": "O" 
			},
			{
				"x": 0.3264831459,
				"y": 2.2189719301,
				"z": -1.1918038873,
				"element": "C" 
			},
			{
				"x": -1.042596556,
				"y": 1.9622337807,
				"z": -1.8212432715,
				"element": "C" 
			},
			{
				"x": -2.0872005572,
				"y": 1.7460797108,
				"z": -0.7549858675,
				"element": "C" 
			},
			{
				"x": -3.2132623745,
				"y": 0.9408929478,
				"z": -0.9435040444,
				"element": "C" 
			},
			{
				"x": -4.1596546469,
				"y": 0.8013538503,
				"z": 0.0729227267,
				"element": "C" 
			},
			{
				"x": -3.9927149647,
				"y": 1.4691565793,
				"z": 1.2899904488,
				"element": "C" 
			},
			{
				"x": -2.8772664966,
				"y": 2.2782830421,
				"z": 1.485658993,
				"element": "C" 
			},
			{
				"x": -1.9243395323,
				"y": 2.4152973466,
				"z": 0.4690624493,
				"element": "C" 
			},
			{
				"x": 1.0122357438,
				"y": 1.0500011453,
				"z": -0.5313781323,
				"element": "C" 
			},
			{
				"x": 0.6402743343,
				"y": -0.2365672619,
				"z": -0.5910934256,
				"element": "C" 
			},
			{
				"x": 1.3237325997,
				"y": -1.3875184232,
				"z": 0.0200282061,
				"element": "C" 
			},
			{
				"x": 0.7342705153,
				"y": -2.6587480336,
				"z": -0.0941315892,
				"element": "C" 
			},
			{
				"x": 1.3316521085,
				"y": -3.7859819714,
				"z": 0.4681152737,
				"element": "C" 
			},
			{
				"x": 2.5380593156,
				"y": -3.665574276,
				"z": 1.1580865228,
				"element": "C" 
			},
			{
				"x": 3.139768505,
				"y": -2.4089329863,
				"z": 1.2783357793,
				"element": "C" 
			},
			{
				"x": 2.5428446021,
				"y": -1.2846605618,
				"z": 0.7161863958,
				"element": "C" 
			},
			{
				"x": 1.0006134333,
				"y": 2.6284936282,
				"z": -1.9532849155,
				"element": "H" 
			},
			{
				"x": -1.3066847534,
				"y": 2.8411791663,
				"z": -2.4238986651,
				"element": "H" 
			},
			{
				"x": -0.991855785,
				"y": 1.1151186057,
				"z": -2.5121849328,
				"element": "H" 
			},
			{
				"x": -3.3489877624,
				"y": 0.4200204754,
				"z": -1.8881098386,
				"element": "H" 
			},
			{
				"x": -5.0285115524,
				"y": 0.1684243688,
				"z": -0.0842805052,
				"element": "H" 
			},
			{
				"x": -4.7309905036,
				"y": 1.3588322496,
				"z": 2.0784258898,
				"element": "H" 
			},
			{
				"x": -2.7216501337,
				"y": 2.8175380492,
				"z": 2.4139020908,
				"element": "H" 
			},
			{
				"x": 1.9016234069,
				"y": 1.3427661778,
				"z": 0.0232323449,
				"element": "H" 
			},
			{
				"x": -0.2661185547,
				"y": -0.4949751813,
				"z": -1.1355918747,
				"element": "H" 
			},
			{
				"x": -0.2071756002,
				"y": -2.7586891196,
				"z": -0.6288547635,
				"element": "H" 
			},
			{
				"x": 0.854677855,
				"y": -4.756694401,
				"z": 0.3670556149,
				"element": "H" 
			},
			{
				"x": 3.0080047929,
				"y": -4.5406397277,
				"z": 1.5973029922,
				"element": "H" 
			},
			{
				"x": 4.0805055829,
				"y": -2.3064387271,
				"z": 1.8118253182,
				"element": "H" 
			},
			{
				"x": 3.0302574867,
				"y": -0.3199511759,
				"z": 0.8170511973,
				"element": "H" 
			}
		],
		 "valence_orbital": [ 
			{
				"type": "occ",
				"energy": -0.26625,
				"method": "rhf"
			},
			{
				"type": "occ",
				"energy": -0.25894,
				"method": "rhf"
			},
			{
				"type": "occ",
				"energy": -0.25617,
				"method": "rhf"
			},
			{
				"type": "occ",
				"energy": -0.25514,
				"method": "rhf"
			},
			{
				"type": "occ",
				"energy": -0.22692,
				"method": "rhf"
			},
			{
				"type": "unocc",
				"energy": -0.04759,
				"method": "rhf"
			},
			{
				"type": "unocc",
				"energy": -0.04036,
				"method": "rhf"
			},
			{
				"type": "unocc",
				"energy": -0.01313,
				"method": "rhf"
			},
			{
				"type": "unocc",
				"energy": -0.00433,
				"method": "rhf"
			},
			{
				"type": "unocc",
				"energy": 0.04856,
				"method": "rhf"
			}
		],
		"cosmo_sigma_profile": { 
			"-0.025": 0.0,
			"-0.024": 0.0,
			"-0.023": 0.0,
			"-0.022": 0.0,
			"-0.021": 0.0,
			"-0.02": 0.0,
			"-0.019": 0.0,
			"-0.018": 0.0,
			"-0.017": 0.0,
			"-0.016": 0.0,
			"-0.015": 0.0,
			"-0.014": 0.0,
			"-0.013": 0.0,
			"-0.012": 0.0,
			"-0.011": 0.0,
			"-0.01": 0.0,
			"-0.009": 0.0,
			"-0.008": 0.320031627849,
			"-0.007": 6.53772200294,
			"-0.006": 26.0921637908,
			"-0.005": 29.8954027635,
			"-0.004": 28.1358172575,
			"-0.003": 23.0068600366,
			"-0.002": 16.5639295623,
			"-0.001": 18.238277083,
			"0.0": 16.8497306331,
			"0.001": 15.8802384026,
			"0.002": 19.9243597824,
			"0.003": 23.4763687152,
			"0.004": 24.7730925437,
			"0.005": 13.8924519302,
			"0.006": 7.2676532095,
			"0.007": 2.15750609429,
			"0.008": 2.22200468984,
			"0.009": 2.53234527576,
			"0.01": 2.56477829405,
			"0.011": 4.80865059096,
			"0.012": 5.97139503358,
			"0.013": 2.51930687308,
			"0.014": 0.587993950189,
			"0.015": 0.0,
			"0.016": 0.0,
			"0.017": 0.0,
			"0.018": 0.0,
			"0.019": 0.0,
			"0.02": 0.0,
			"0.021": 0.0,
			"0.022": 0.0,
			"0.023": 0.0,
			"0.024": 0.0,
			"0.025": 0.0
		}
	}
}
