{
	 "smiles": "CC1=C(C=CC(F)=C1F)C(O)=O", 
	 "Tm": 427.15, 
	 "num_atms": 18, 
	 "gaussian": { 
		 "optdone": 1, 
		 "sigma_profile": "yes", 
		 "theory": "DFT", 
		 "functional": "B3LYP", 
		 "basiset": "6-31G**", 
		 "properties": { 
			 "R2extent": 2341.3903, 
			 "electric_dipole_moment_norm": 3.21614379343, 
			 "electric_quadrupole_moment_norm": 12.3777205321, 
			 "total_energy": -658.588850265, 
			 "HOMO_LUMO_gap": 0.20951, 
			 "cosmo_polarized_energy": -12.4, 
			 "cosmo_cavitation_energy": 23.3, 
			 "cosmo_dispersion_energy": -16.98, 
			 "cosmo_repulsion_energy": 1.3, 
			 "cosmo_total_nonelectrostatic_energy": 7.62, 
			 "SMD_solvation_energy": 6.08 
		},
		"coords": [
			{
				"x": -1.9551452714,
				"y": 1.2810803731,
				"z": -1.349902893,
				"element": "C" 
			},
			{
				"x": -1.3077815364,
				"y": 0.1097897589,
				"z": -0.6537211132,
				"element": "C" 
			},
			{
				"x": 0.0841768865,
				"y": -0.1496474354,
				"z": -0.6665199123,
				"element": "C" 
			},
			{
				"x": 0.6059763655,
				"y": -1.2741050724,
				"z": -0.0087104592,
				"element": "C" 
			},
			{
				"x": -0.2196730854,
				"y": -2.1575417996,
				"z": 0.6827731966,
				"element": "C" 
			},
			{
				"x": -1.5799852121,
				"y": -1.8957324537,
				"z": 0.7165387689,
				"element": "C" 
			},
			{
				"x": -2.4161150495,
				"y": -2.7091109246,
				"z": 1.3758907671,
				"element": "F" 
			},
			{
				"x": -2.1068435921,
				"y": -0.7828580499,
				"z": 0.0595798235,
				"element": "C" 
			},
			{
				"x": -3.4368411586,
				"y": -0.591154029,
				"z": 0.1335781733,
				"element": "F" 
			},
			{
				"x": 1.0073292264,
				"y": 0.7498819475,
				"z": -1.4342009389,
				"element": "C" 
			},
			{
				"x": 2.2696627053,
				"y": 0.870232524,
				"z": -0.9361196705,
				"element": "O" 
			},
			{
				"x": 0.7037193118,
				"y": 1.3397542904,
				"z": -2.444005956,
				"element": "O" 
			},
			{
				"x": -1.4100270536,
				"y": 2.2077796877,
				"z": -1.1577205349,
				"element": "H" 
			},
			{
				"x": -1.9419291919,
				"y": 1.1360383756,
				"z": -2.4333952474,
				"element": "H" 
			},
			{
				"x": -2.9877621837,
				"y": 1.3956197201,
				"z": -1.0194336932,
				"element": "H" 
			},
			{
				"x": 1.6675893984,
				"y": -1.4938910813,
				"z": -0.0717218003,
				"element": "H" 
			},
			{
				"x": 0.1678021066,
				"y": -3.0378624621,
				"z": 1.1828163512,
				"element": "H" 
			},
			{
				"x": 2.3109473343,
				"y": 0.4918266306,
				"z": -0.0467248617,
				"element": "H" 
			}
		],
		 "valence_orbital": [ 
			{
				"type": "occ",
				"energy": -0.36659,
				"method": "rhf"
			},
			{
				"type": "occ",
				"energy": -0.32237,
				"method": "rhf"
			},
			{
				"type": "occ",
				"energy": -0.28199,
				"method": "rhf"
			},
			{
				"type": "occ",
				"energy": -0.26935,
				"method": "rhf"
			},
			{
				"type": "occ",
				"energy": -0.26387,
				"method": "rhf"
			},
			{
				"type": "unocc",
				"energy": -0.05436,
				"method": "rhf"
			},
			{
				"type": "unocc",
				"energy": -0.02972,
				"method": "rhf"
			},
			{
				"type": "unocc",
				"energy": 0.03766,
				"method": "rhf"
			},
			{
				"type": "unocc",
				"energy": 0.05425,
				"method": "rhf"
			},
			{
				"type": "unocc",
				"energy": 0.07436,
				"method": "rhf"
			}
		],
		"cosmo_sigma_profile": { 
			"-0.025": 0.0,
			"-0.024": 0.0,
			"-0.023": 0.0,
			"-0.022": 0.0,
			"-0.021": 0.0,
			"-0.02": 0.0,
			"-0.019": 0.02935286101,
			"-0.018": 0.717219346382,
			"-0.017": 0.966145039765,
			"-0.016": 0.9816784638,
			"-0.015": 1.15660473052,
			"-0.014": 0.634674433942,
			"-0.013": 1.0715153816,
			"-0.012": 1.47635450561,
			"-0.011": 1.40461079119,
			"-0.01": 1.00131327816,
			"-0.009": 2.04240573759,
			"-0.008": 4.10444656918,
			"-0.007": 4.47382567082,
			"-0.006": 4.57644301857,
			"-0.005": 6.68643484583,
			"-0.004": 9.24064220401,
			"-0.003": 8.99080893027,
			"-0.002": 14.9750518803,
			"-0.001": 23.7225928009,
			"0.0": 18.1385148926,
			"0.001": 12.7437886513,
			"0.002": 10.7215295451,
			"0.003": 18.6605020349,
			"0.004": 10.2775739621,
			"0.005": 2.4977874873,
			"0.006": 2.3320004616,
			"0.007": 2.94699129503,
			"0.008": 2.42366062901,
			"0.009": 3.83399253752,
			"0.01": 4.64822811832,
			"0.011": 5.0123556901,
			"0.012": 3.259235835,
			"0.013": 1.11158652254,
			"0.014": 0.0,
			"0.015": 0.0,
			"0.016": 0.0,
			"0.017": 0.0,
			"0.018": 0.0,
			"0.019": 0.0,
			"0.02": 0.0,
			"0.021": 0.0,
			"0.022": 0.0,
			"0.023": 0.0,
			"0.024": 0.0,
			"0.025": 0.0
		}
	}
}
