{
	 "smiles": "CC(C)(C)OC(=O)NCCCC(=O)NN", 
	 "Tm": 388.15, 
	 "num_atms": 34, 
	 "gaussian": { 
		 "optdone": 1, 
		 "sigma_profile": "yes", 
		 "theory": "DFT", 
		 "functional": "B3LYP", 
		 "basiset": "6-31G**", 
		 "properties": { 
			 "R2extent": 4201.7263, 
			 "electric_dipole_moment_norm": 3.60085782696, 
			 "electric_quadrupole_moment_norm": 15.6755064767, 
			 "total_energy": -744.354661263, 
			 "HOMO_LUMO_gap": 0.25822, 
			 "cosmo_polarized_energy": -20.97, 
			 "cosmo_cavitation_energy": 36.57, 
			 "cosmo_dispersion_energy": -23.75, 
			 "cosmo_repulsion_energy": 1.9, 
			 "cosmo_total_nonelectrostatic_energy": 14.72, 
			 "SMD_solvation_energy": 7.63 
		},
		"coords": [
			{
				"x": -0.0064732374,
				"y": 3.2159332101,
				"z": 1.5679475386,
				"element": "C" 
			},
			{
				"x": 1.1203766469,
				"y": 2.177610514,
				"z": 1.5957261139,
				"element": "C" 
			},
			{
				"x": 2.0832914526,
				"y": 2.38538361,
				"z": 0.4235827829,
				"element": "C" 
			},
			{
				"x": 1.8784757838,
				"y": 2.180942834,
				"z": 2.9275476145,
				"element": "C" 
			},
			{
				"x": 0.575976596,
				"y": 0.8380731176,
				"z": 1.3281375132,
				"element": "O" 
			},
			{
				"x": -0.30774705,
				"y": 0.2621588034,
				"z": 2.1811396932,
				"element": "C" 
			},
			{
				"x": -0.7909219118,
				"y": 0.7777708929,
				"z": 3.1775368491,
				"element": "O" 
			},
			{
				"x": -0.6002760117,
				"y": -1.0133521667,
				"z": 1.7804963569,
				"element": "N" 
			},
			{
				"x": -0.1381177029,
				"y": -1.662803334,
				"z": 0.5616096146,
				"element": "C" 
			},
			{
				"x": -0.9700024764,
				"y": -1.2841948282,
				"z": -0.6752894396,
				"element": "C" 
			},
			{
				"x": -0.4682521499,
				"y": -1.9487817425,
				"z": -1.9760903239,
				"element": "C" 
			},
			{
				"x": 0.9325059263,
				"y": -1.4841458262,
				"z": -2.3536362314,
				"element": "C" 
			},
			{
				"x": 1.9424352875,
				"y": -2.009125383,
				"z": -1.8991344974,
				"element": "O" 
			},
			{
				"x": 1.0337182305,
				"y": -0.4144384174,
				"z": -3.2108516524,
				"element": "N" 
			},
			{
				"x": 0.0063027704,
				"y": 0.3546553261,
				"z": -3.7749928062,
				"element": "N" 
			},
			{
				"x": 0.4163327541,
				"y": 4.2215040568,
				"z": 1.6625019573,
				"element": "H" 
			},
			{
				"x": -0.7088239445,
				"y": 3.0477008427,
				"z": 2.3844347977,
				"element": "H" 
			},
			{
				"x": -0.5474908438,
				"y": 3.164562833,
				"z": 0.6172830396,
				"element": "H" 
			},
			{
				"x": 2.8620827805,
				"y": 1.617442849,
				"z": 0.4226343101,
				"element": "H" 
			},
			{
				"x": 1.5494294371,
				"y": 2.3334594694,
				"z": -0.530156661,
				"element": "H" 
			},
			{
				"x": 2.5615991996,
				"y": 3.3665007756,
				"z": 0.4989850275,
				"element": "H" 
			},
			{
				"x": 2.6454770141,
				"y": 1.4000157231,
				"z": 2.9289147979,
				"element": "H" 
			},
			{
				"x": 2.3763929432,
				"y": 3.1464427348,
				"z": 3.0643876524,
				"element": "H" 
			},
			{
				"x": 1.1989931735,
				"y": 2.0119431032,
				"z": 3.7631389263,
				"element": "H" 
			},
			{
				"x": -1.3215949175,
				"y": -1.448707401,
				"z": 2.3349845388,
				"element": "H" 
			},
			{
				"x": -0.182557598,
				"y": -2.7456109188,
				"z": 0.7225056024,
				"element": "H" 
			},
			{
				"x": 0.9107647419,
				"y": -1.4107158452,
				"z": 0.4016628428,
				"element": "H" 
			},
			{
				"x": -0.9560552341,
				"y": -0.1920520728,
				"z": -0.7760737732,
				"element": "H" 
			},
			{
				"x": -2.0156234455,
				"y": -1.5720525668,
				"z": -0.5113722075,
				"element": "H" 
			},
			{
				"x": -0.4041585506,
				"y": -3.0322704875,
				"z": -1.838398841,
				"element": "H" 
			},
			{
				"x": -1.1828396966,
				"y": -1.7561304485,
				"z": -2.7823689953,
				"element": "H" 
			},
			{
				"x": 1.9745181846,
				"y": -0.0949971312,
				"z": -3.4025972313,
				"element": "H" 
			},
			{
				"x": -0.5961019161,
				"y": 0.7391726844,
				"z": -3.0523764409,
				"element": "H" 
			},
			{
				"x": -0.5538362358,
				"y": -0.20559481,
				"z": -4.4120184687,
				"element": "H" 
			}
		],
		 "valence_orbital": [ 
			{
				"type": "occ",
				"energy": -0.28453,
				"method": "rhf"
			},
			{
				"type": "occ",
				"energy": -0.25992,
				"method": "rhf"
			},
			{
				"type": "occ",
				"energy": -0.25663,
				"method": "rhf"
			},
			{
				"type": "occ",
				"energy": -0.24811,
				"method": "rhf"
			},
			{
				"type": "occ",
				"energy": -0.24251,
				"method": "rhf"
			},
			{
				"type": "unocc",
				"energy": 0.01571,
				"method": "rhf"
			},
			{
				"type": "unocc",
				"energy": 0.04803,
				"method": "rhf"
			},
			{
				"type": "unocc",
				"energy": 0.06044,
				"method": "rhf"
			},
			{
				"type": "unocc",
				"energy": 0.08051,
				"method": "rhf"
			},
			{
				"type": "unocc",
				"energy": 0.08645,
				"method": "rhf"
			}
		],
		"cosmo_sigma_profile": { 
			"-0.025": 0.0,
			"-0.024": 0.0,
			"-0.023": 0.0,
			"-0.022": 0.0,
			"-0.021": 0.0,
			"-0.02": 0.0,
			"-0.019": 0.0,
			"-0.018": 0.0,
			"-0.017": 0.0,
			"-0.016": 0.0,
			"-0.015": 0.0,
			"-0.014": 0.356415389242,
			"-0.013": 1.84628844338,
			"-0.012": 3.17586746108,
			"-0.011": 4.06743909693,
			"-0.01": 5.86946668531,
			"-0.009": 5.87725299613,
			"-0.008": 5.49920258003,
			"-0.007": 5.89836898976,
			"-0.006": 4.68614660713,
			"-0.005": 8.42932513294,
			"-0.004": 20.9633357892,
			"-0.003": 27.4855341893,
			"-0.002": 25.3062080236,
			"-0.001": 25.4406270048,
			"0.0": 31.5428971658,
			"0.001": 26.799746815,
			"0.002": 12.6246961477,
			"0.003": 10.1360983905,
			"0.004": 7.0958708117,
			"0.005": 6.84773792298,
			"0.006": 4.32259842122,
			"0.007": 3.38106468844,
			"0.008": 3.81202282257,
			"0.009": 2.97554547068,
			"0.01": 3.777643737,
			"0.011": 3.0507626007,
			"0.012": 4.27005342332,
			"0.013": 5.29124684556,
			"0.014": 9.37530523916,
			"0.015": 2.75835585879,
			"0.016": 0.354298246764,
			"0.017": 0.00822622933405,
			"0.018": 0.0,
			"0.019": 0.0,
			"0.02": 0.0,
			"0.021": 0.0,
			"0.022": 0.0,
			"0.023": 0.0,
			"0.024": 0.0,
			"0.025": 0.0
		}
	}
}
