{
	 "smiles": "ClC1=CC2=C(OC3=C(O2)C=CC=C3)C=C1Cl", 
	 "Tm": 436.15, 
	 "num_atms": 22, 
	 "gaussian": { 
		 "optdone": 1, 
		 "sigma_profile": "yes", 
		 "theory": "DFT", 
		 "functional": "B3LYP", 
		 "basiset": "6-31G**", 
		 "properties": { 
			 "R2extent": 7585.4304, 
			 "electric_dipole_moment_norm": 3.32320136314, 
			 "electric_quadrupole_moment_norm": 9.18230405998, 
			 "total_energy": -1531.70272823, 
			 "HOMO_LUMO_gap": 0.17748, 
			 "cosmo_polarized_energy": -5.49, 
			 "cosmo_cavitation_energy": 30.25, 
			 "cosmo_dispersion_energy": -23.23, 
			 "cosmo_repulsion_energy": 1.77, 
			 "cosmo_total_nonelectrostatic_energy": 8.79, 
			 "SMD_solvation_energy": 5.04 
		},
		"coords": [
			{
				"x": 3.1614986392,
				"y": -0.9595130303,
				"z": 5.2345453402,
				"element": "Cl" 
			},
			{
				"x": 2.1895884163,
				"y": -1.1970604875,
				"z": 3.8045288076,
				"element": "C" 
			},
			{
				"x": 2.2567977726,
				"y": -0.2416713067,
				"z": 2.7860575538,
				"element": "C" 
			},
			{
				"x": 1.4997644705,
				"y": -0.3936601105,
				"z": 1.6328942015,
				"element": "C" 
			},
			{
				"x": 0.6641147093,
				"y": -1.5080658866,
				"z": 1.4864249654,
				"element": "C" 
			},
			{
				"x": -0.1031725425,
				"y": -1.6992312265,
				"z": 0.3617981556,
				"element": "O" 
			},
			{
				"x": -0.0045840539,
				"y": -0.7285876467,
				"z": -0.619490651,
				"element": "C" 
			},
			{
				"x": 0.8298905057,
				"y": 0.3842688027,
				"z": -0.4732282736,
				"element": "C" 
			},
			{
				"x": 1.6005960573,
				"y": 0.5729106545,
				"z": 0.660464075,
				"element": "O" 
			},
			{
				"x": 0.90335142,
				"y": 1.3393482494,
				"z": -1.4803350353,
				"element": "C" 
			},
			{
				"x": 0.1402663954,
				"y": 1.1839116046,
				"z": -2.6401542503,
				"element": "C" 
			},
			{
				"x": -0.6920268363,
				"y": 0.0739626275,
				"z": -2.7860349027,
				"element": "C" 
			},
			{
				"x": -0.7645375274,
				"y": -0.8849409534,
				"z": -1.772684963,
				"element": "C" 
			},
			{
				"x": 0.5939336812,
				"y": -2.4591910946,
				"z": 2.4945980641,
				"element": "C" 
			},
			{
				"x": 1.3545717419,
				"y": -2.3105817411,
				"z": 3.6581753456,
				"element": "C" 
			},
			{
				"x": 1.2304116208,
				"y": -3.5345752537,
				"z": 4.8961106192,
				"element": "Cl" 
			},
			{
				"x": 2.898867032,
				"y": 0.6252618344,
				"z": 2.8858941644,
				"element": "H" 
			},
			{
				"x": 1.5595165816,
				"y": 2.1916367541,
				"z": -1.3382097588,
				"element": "H" 
			},
			{
				"x": 0.2002744395,
				"y": 1.9316791618,
				"z": -3.4242124283,
				"element": "H" 
			},
			{
				"x": -1.286856294,
				"y": -0.0515848365,
				"z": -3.6848800905,
				"element": "H" 
			},
			{
				"x": -1.4024636745,
				"y": -1.7584526642,
				"z": -1.8574050042,
				"element": "H" 
			},
			{
				"x": -0.0567025545,
				"y": -3.3161634508,
				"z": 2.3678440653,
				"element": "H" 
			}
		],
		 "valence_orbital": [ 
			{
				"type": "occ",
				"energy": -0.31235,
				"method": "rhf"
			},
			{
				"type": "occ",
				"energy": -0.27502,
				"method": "rhf"
			},
			{
				"type": "occ",
				"energy": -0.26429,
				"method": "rhf"
			},
			{
				"type": "occ",
				"energy": -0.24984,
				"method": "rhf"
			},
			{
				"type": "occ",
				"energy": -0.20972,
				"method": "rhf"
			},
			{
				"type": "unocc",
				"energy": -0.03224,
				"method": "rhf"
			},
			{
				"type": "unocc",
				"energy": -0.02755,
				"method": "rhf"
			},
			{
				"type": "unocc",
				"energy": -0.01516,
				"method": "rhf"
			},
			{
				"type": "unocc",
				"energy": -0.00198,
				"method": "rhf"
			},
			{
				"type": "unocc",
				"energy": 0.01191,
				"method": "rhf"
			}
		],
		"cosmo_sigma_profile": { 
			"-0.025": 0.0,
			"-0.024": 0.0,
			"-0.023": 0.0,
			"-0.022": 0.0,
			"-0.021": 0.0,
			"-0.02": 0.0,
			"-0.019": 0.0,
			"-0.018": 0.0,
			"-0.017": 0.0,
			"-0.016": 0.0,
			"-0.015": 0.0,
			"-0.014": 0.0,
			"-0.013": 0.0,
			"-0.012": 0.0,
			"-0.011": 0.0,
			"-0.01": 0.0,
			"-0.009": 1.57802943734,
			"-0.008": 2.91797160366,
			"-0.007": 6.33547123585,
			"-0.006": 11.1090642386,
			"-0.005": 12.1773398244,
			"-0.004": 13.2898275392,
			"-0.003": 12.4799763502,
			"-0.002": 15.4154946229,
			"-0.001": 18.4214948934,
			"0.0": 31.3363649456,
			"0.001": 32.4391676186,
			"0.002": 24.1542964628,
			"0.003": 25.702606419,
			"0.004": 26.9904987381,
			"0.005": 9.78597602278,
			"0.006": 3.36137023783,
			"0.007": 1.84653174181,
			"0.008": 0.0,
			"0.009": 0.0,
			"0.01": 0.0,
			"0.011": 0.0,
			"0.012": 0.0,
			"0.013": 0.0,
			"0.014": 0.0,
			"0.015": 0.0,
			"0.016": 0.0,
			"0.017": 0.0,
			"0.018": 0.0,
			"0.019": 0.0,
			"0.02": 0.0,
			"0.021": 0.0,
			"0.022": 0.0,
			"0.023": 0.0,
			"0.024": 0.0,
			"0.025": 0.0
		}
	}
}
