{
	 "smiles": "OC1(CCOC2=CC=CC=C2)CC1", 
	 "Tm": 331.15, 
	 "num_atms": 27, 
	 "gaussian": { 
		 "optdone": 1, 
		 "sigma_profile": "yes", 
		 "theory": "DFT", 
		 "functional": "B3LYP", 
		 "basiset": "6-31G**", 
		 "properties": { 
			 "R2extent": 3368.4273, 
			 "electric_dipole_moment_norm": 1.92203069955, 
			 "electric_quadrupole_moment_norm": 4.81277072277, 
			 "total_energy": -578.009112316, 
			 "HOMO_LUMO_gap": 0.21507, 
			 "cosmo_polarized_energy": -9.44, 
			 "cosmo_cavitation_energy": 29.86, 
			 "cosmo_dispersion_energy": -21.28, 
			 "cosmo_repulsion_energy": 1.68, 
			 "cosmo_total_nonelectrostatic_energy": 10.26, 
			 "SMD_solvation_energy": 4.99 
		},
		"coords": [
			{
				"x": 0.1707339254,
				"y": -1.5534138907,
				"z": -2.0239102542,
				"element": "O" 
			},
			{
				"x": 1.1263562684,
				"y": -1.8258039748,
				"z": -1.0174927866,
				"element": "C" 
			},
			{
				"x": 1.1063603366,
				"y": -0.8271708821,
				"z": 0.1244945801,
				"element": "C" 
			},
			{
				"x": -0.231382702,
				"y": -0.8517823809,
				"z": 0.8761619473,
				"element": "C" 
			},
			{
				"x": -0.3915371006,
				"y": 0.2754703346,
				"z": 1.7382973357,
				"element": "O" 
			},
			{
				"x": -0.802295364,
				"y": 1.4670777885,
				"z": 1.2074667167,
				"element": "C" 
			},
			{
				"x": -0.911022545,
				"y": 2.5256518086,
				"z": 2.1226656949,
				"element": "C" 
			},
			{
				"x": -1.3365816552,
				"y": 3.7784831378,
				"z": 1.695272686,
				"element": "C" 
			},
			{
				"x": -1.6593385608,
				"y": 4.0001570806,
				"z": 0.352028398,
				"element": "C" 
			},
			{
				"x": -1.5472236443,
				"y": 2.9475833577,
				"z": -0.5536142512,
				"element": "C" 
			},
			{
				"x": -1.1198731247,
				"y": 1.6811014844,
				"z": -0.1413254887,
				"element": "C" 
			},
			{
				"x": 2.4128093007,
				"y": -2.4809578901,
				"z": -1.4521745847,
				"element": "C" 
			},
			{
				"x": 1.3326108238,
				"y": -3.2898533967,
				"z": -0.7561308369,
				"element": "C" 
			},
			{
				"x": 0.5013332381,
				"y": -0.8061157378,
				"z": -2.5417387147,
				"element": "H" 
			},
			{
				"x": 1.9259652539,
				"y": -1.0276852238,
				"z": 0.8230210179,
				"element": "H" 
			},
			{
				"x": 1.2781228271,
				"y": 0.179501894,
				"z": -0.2779249498,
				"element": "H" 
			},
			{
				"x": -1.0664981096,
				"y": -0.926083676,
				"z": 0.1720413606,
				"element": "H" 
			},
			{
				"x": -0.2788067584,
				"y": -1.7211908646,
				"z": 1.5374724544,
				"element": "H" 
			},
			{
				"x": -0.6600791432,
				"y": 2.3358996799,
				"z": 3.1613180503,
				"element": "H" 
			},
			{
				"x": -1.4184893206,
				"y": 4.5874633468,
				"z": 2.4160043367,
				"element": "H" 
			},
			{
				"x": -1.9915551989,
				"y": 4.9788504943,
				"z": 0.0200118238,
				"element": "H" 
			},
			{
				"x": -1.792925852,
				"y": 3.1036375174,
				"z": -1.6006780148,
				"element": "H" 
			},
			{
				"x": -1.0366713091,
				"y": 0.8822799888,
				"z": -0.8689998862,
				"element": "H" 
			},
			{
				"x": 2.5434195359,
				"y": -2.6480551393,
				"z": -2.5170478535,
				"element": "H" 
			},
			{
				"x": 3.3260241973,
				"y": -2.2545147324,
				"z": -0.9092650896,
				"element": "H" 
			},
			{
				"x": 0.7546821058,
				"y": -3.9766723492,
				"z": -1.3653948597,
				"element": "H" 
			},
			{
				"x": 1.5076625752,
				"y": -3.6170577748,
				"z": 0.2646411682,
				"element": "H" 
			}
		],
		 "valence_orbital": [ 
			{
				"type": "occ",
				"energy": -0.31215,
				"method": "rhf"
			},
			{
				"type": "occ",
				"energy": -0.28313,
				"method": "rhf"
			},
			{
				"type": "occ",
				"energy": -0.26522,
				"method": "rhf"
			},
			{
				"type": "occ",
				"energy": -0.24463,
				"method": "rhf"
			},
			{
				"type": "occ",
				"energy": -0.21123,
				"method": "rhf"
			},
			{
				"type": "unocc",
				"energy": 0.00384,
				"method": "rhf"
			},
			{
				"type": "unocc",
				"energy": 0.01896,
				"method": "rhf"
			},
			{
				"type": "unocc",
				"energy": 0.06224,
				"method": "rhf"
			},
			{
				"type": "unocc",
				"energy": 0.09545,
				"method": "rhf"
			},
			{
				"type": "unocc",
				"energy": 0.10223,
				"method": "rhf"
			}
		],
		"cosmo_sigma_profile": { 
			"-0.025": 0.0,
			"-0.024": 0.0,
			"-0.023": 0.0,
			"-0.022": 0.0,
			"-0.021": 0.0,
			"-0.02": 0.0,
			"-0.019": 0.0,
			"-0.018": 0.0,
			"-0.017": 0.0,
			"-0.016": 0.0989287787622,
			"-0.015": 0.835093549532,
			"-0.014": 1.03282306824,
			"-0.013": 0.795810626001,
			"-0.012": 0.44325741634,
			"-0.011": 1.0233242604,
			"-0.01": 0.872759740736,
			"-0.009": 0.891867947506,
			"-0.008": 1.4309066831,
			"-0.007": 1.12932206766,
			"-0.006": 3.31894523641,
			"-0.005": 16.2800399745,
			"-0.004": 26.7317847084,
			"-0.003": 25.2665519239,
			"-0.002": 20.583862938,
			"-0.001": 18.8378727275,
			"0.0": 18.1247694708,
			"0.001": 14.6716608245,
			"0.002": 14.1889254512,
			"0.003": 12.4027915175,
			"0.004": 13.308559479,
			"0.005": 13.3366484618,
			"0.006": 12.8012825863,
			"0.007": 4.17069776089,
			"0.008": 2.32230079887,
			"0.009": 2.63448536914,
			"0.01": 2.54131169495,
			"0.011": 1.94523033734,
			"0.012": 1.00191907391,
			"0.013": 1.29999856333,
			"0.014": 0.849981887403,
			"0.015": 0.0,
			"0.016": 0.0,
			"0.017": 0.0,
			"0.018": 0.0,
			"0.019": 0.0,
			"0.02": 0.0,
			"0.021": 0.0,
			"0.022": 0.0,
			"0.023": 0.0,
			"0.024": 0.0,
			"0.025": 0.0
		}
	}
}
