{
	 "smiles": "CC1=CC=CC2CC3=CC=CC=C3C(=O)N12", 
	 "Tm": 371.15, 
	 "num_atms": 29, 
	 "gaussian": { 
		 "optdone": 1, 
		 "sigma_profile": "yes", 
		 "theory": "DFT", 
		 "functional": "B3LYP", 
		 "basiset": "6-31G**", 
		 "properties": { 
			 "R2extent": 3840.4784, 
			 "electric_dipole_moment_norm": 2.94472986367, 
			 "electric_quadrupole_moment_norm": 7.4646499228, 
			 "total_energy": -671.294168156, 
			 "HOMO_LUMO_gap": 0.1364, 
			 "cosmo_polarized_energy": -8.81, 
			 "cosmo_cavitation_energy": 30.85, 
			 "cosmo_dispersion_energy": -22.94, 
			 "cosmo_repulsion_energy": 1.73, 
			 "cosmo_total_nonelectrostatic_energy": 9.64, 
			 "SMD_solvation_energy": 4.98 
		},
		"coords": [
			{
				"x": 0.5538544994,
				"y": 1.7249148683,
				"z": -2.2317200417,
				"element": "C" 
			},
			{
				"x": -0.6240753657,
				"y": 1.8232836926,
				"z": -1.2966307694,
				"element": "C" 
			},
			{
				"x": -1.4692283202,
				"y": 2.877046778,
				"z": -1.3918456754,
				"element": "C" 
			},
			{
				"x": -2.5575071188,
				"y": 3.0806046479,
				"z": -0.45728494,
				"element": "C" 
			},
			{
				"x": -2.7891187367,
				"y": 2.1939527298,
				"z": 0.5168103078,
				"element": "C" 
			},
			{
				"x": -1.9824806211,
				"y": 0.933084358,
				"z": 0.6681074327,
				"element": "C" 
			},
			{
				"x": -1.50135368,
				"y": 0.7386685839,
				"z": 2.1122338433,
				"element": "C" 
			},
			{
				"x": -0.7872100511,
				"y": -0.5807313814,
				"z": 2.2352686859,
				"element": "C" 
			},
			{
				"x": -0.7663427527,
				"y": -1.3231415009,
				"z": 3.4194865022,
				"element": "C" 
			},
			{
				"x": -0.1115751335,
				"y": -2.5534478812,
				"z": 3.4718090909,
				"element": "C" 
			},
			{
				"x": 0.534868395,
				"y": -3.0537692253,
				"z": 2.3369716329,
				"element": "C" 
			},
			{
				"x": 0.5294486915,
				"y": -2.3165239007,
				"z": 1.1574460941,
				"element": "C" 
			},
			{
				"x": -0.1302405041,
				"y": -1.0806284226,
				"z": 1.0995670077,
				"element": "C" 
			},
			{
				"x": -0.0247222657,
				"y": -0.2972685098,
				"z": -0.1759055048,
				"element": "C" 
			},
			{
				"x": 0.740151955,
				"y": -0.6683214863,
				"z": -1.0600711876,
				"element": "O" 
			},
			{
				"x": -0.8048266686,
				"y": 0.8626173325,
				"z": -0.2659541933,
				"element": "N" 
			},
			{
				"x": 0.5023011086,
				"y": 0.8456412116,
				"z": -2.8749786816,
				"element": "H" 
			},
			{
				"x": 0.5756889697,
				"y": 2.6274883976,
				"z": -2.847647512,
				"element": "H" 
			},
			{
				"x": 1.4988788221,
				"y": 1.6499699763,
				"z": -1.686906812,
				"element": "H" 
			},
			{
				"x": -1.288582514,
				"y": 3.6111777471,
				"z": -2.1677187426,
				"element": "H" 
			},
			{
				"x": -3.1703061797,
				"y": 3.9731696771,
				"z": -0.5486927897,
				"element": "H" 
			},
			{
				"x": -3.5901709222,
				"y": 2.3273446676,
				"z": 1.2385779509,
				"element": "H" 
			},
			{
				"x": -2.6319486226,
				"y": 0.0718228992,
				"z": 0.4328651396,
				"element": "H" 
			},
			{
				"x": -0.8429381627,
				"y": 1.5744439396,
				"z": 2.3873163956,
				"element": "H" 
			},
			{
				"x": -2.3642709604,
				"y": 0.7754440875,
				"z": 2.7866522473,
				"element": "H" 
			},
			{
				"x": -1.2751129526,
				"y": -0.939128306,
				"z": 4.3001719809,
				"element": "H" 
			},
			{
				"x": -0.111162232,
				"y": -3.1256890327,
				"z": 4.3953200422,
				"element": "H" 
			},
			{
				"x": 1.0424030921,
				"y": -4.0129499892,
				"z": 2.3767937891,
				"element": "H" 
			},
			{
				"x": 1.0371782311,
				"y": -2.6674759585,
				"z": 0.2658587069,
				"element": "H" 
			}
		],
		 "valence_orbital": [ 
			{
				"type": "occ",
				"energy": -0.28584,
				"method": "rhf"
			},
			{
				"type": "occ",
				"energy": -0.25749,
				"method": "rhf"
			},
			{
				"type": "occ",
				"energy": -0.25176,
				"method": "rhf"
			},
			{
				"type": "occ",
				"energy": -0.24961,
				"method": "rhf"
			},
			{
				"type": "occ",
				"energy": -0.18678,
				"method": "rhf"
			},
			{
				"type": "unocc",
				"energy": -0.05038,
				"method": "rhf"
			},
			{
				"type": "unocc",
				"energy": -0.01382,
				"method": "rhf"
			},
			{
				"type": "unocc",
				"energy": -0.00635,
				"method": "rhf"
			},
			{
				"type": "unocc",
				"energy": 0.05801,
				"method": "rhf"
			},
			{
				"type": "unocc",
				"energy": 0.08705,
				"method": "rhf"
			}
		],
		"cosmo_sigma_profile": { 
			"-0.025": 0.0,
			"-0.024": 0.0,
			"-0.023": 0.0,
			"-0.022": 0.0,
			"-0.021": 0.0,
			"-0.02": 0.0,
			"-0.019": 0.0,
			"-0.018": 0.0,
			"-0.017": 0.0,
			"-0.016": 0.0,
			"-0.015": 0.0,
			"-0.014": 0.0,
			"-0.013": 0.0,
			"-0.012": 0.0,
			"-0.011": 0.0,
			"-0.01": 0.0,
			"-0.009": 0.0,
			"-0.008": 0.0,
			"-0.007": 0.403983076816,
			"-0.006": 10.7164545978,
			"-0.005": 25.1341824924,
			"-0.004": 23.6025866329,
			"-0.003": 21.9949697752,
			"-0.002": 22.080073644,
			"-0.001": 19.7622528613,
			"0.0": 19.3853211282,
			"0.001": 18.7009334211,
			"0.002": 16.0293438409,
			"0.003": 15.8686022114,
			"0.004": 18.4564092561,
			"0.005": 12.9234639319,
			"0.006": 6.43082328052,
			"0.007": 2.30578371608,
			"0.008": 1.75341787194,
			"0.009": 1.08087103074,
			"0.01": 1.74577351951,
			"0.011": 1.85685056241,
			"0.012": 2.35205341138,
			"0.013": 2.42365193212,
			"0.014": 0.30151220126,
			"0.015": 0.0,
			"0.016": 0.0,
			"0.017": 0.0,
			"0.018": 0.0,
			"0.019": 0.0,
			"0.02": 0.0,
			"0.021": 0.0,
			"0.022": 0.0,
			"0.023": 0.0,
			"0.024": 0.0,
			"0.025": 0.0
		}
	}
}
