{
	 "smiles": "NC(=O)CN1CCC(O)CC1", 
	 "Tm": 388.15, 
	 "num_atms": 25, 
	 "gaussian": { 
		 "optdone": 1, 
		 "sigma_profile": "yes", 
		 "theory": "DFT", 
		 "functional": "B3LYP", 
		 "basiset": "6-31G**", 
		 "properties": { 
			 "R2extent": 2578.3725, 
			 "electric_dipole_moment_norm": 2.92140209146, 
			 "electric_quadrupole_moment_norm": 21.8550232336, 
			 "total_energy": -535.137319782, 
			 "HOMO_LUMO_gap": 0.25227, 
			 "cosmo_polarized_energy": -16.4, 
			 "cosmo_cavitation_energy": 25.78, 
			 "cosmo_dispersion_energy": -19.15, 
			 "cosmo_repulsion_energy": 1.56, 
			 "cosmo_total_nonelectrostatic_energy": 8.18, 
			 "SMD_solvation_energy": 3.7 
		},
		"coords": [
			{
				"x": 1.7918320847,
				"y": -1.5458831312,
				"z": -2.7369036252,
				"element": "N" 
			},
			{
				"x": 1.3051755841,
				"y": -1.947137309,
				"z": -1.5331874818,
				"element": "C" 
			},
			{
				"x": 1.3597345175,
				"y": -3.0931609927,
				"z": -1.1104004338,
				"element": "O" 
			},
			{
				"x": 0.7076308689,
				"y": -0.8110391607,
				"z": -0.6863244344,
				"element": "C" 
			},
			{
				"x": 0.3124618988,
				"y": 0.3604378054,
				"z": -1.4701495609,
				"element": "N" 
			},
			{
				"x": 0.382300983,
				"y": 1.6374028582,
				"z": -0.7438001515,
				"element": "C" 
			},
			{
				"x": -0.759177058,
				"y": 1.8485969676,
				"z": 0.2671049557,
				"element": "C" 
			},
			{
				"x": -2.1352454203,
				"y": 1.6936634982,
				"z": -0.4061292518,
				"element": "C" 
			},
			{
				"x": -2.4462860766,
				"y": 2.8124196837,
				"z": -1.240209559,
				"element": "O" 
			},
			{
				"x": -2.1994068876,
				"y": 0.364732794,
				"z": -1.1806929997,
				"element": "C" 
			},
			{
				"x": -0.9972712496,
				"y": 0.2055117222,
				"z": -2.1300504785,
				"element": "C" 
			},
			{
				"x": 2.2351015176,
				"y": -2.2204727421,
				"z": -3.3398397306,
				"element": "H" 
			},
			{
				"x": 1.7005204773,
				"y": -0.574718692,
				"z": -2.9977362667,
				"element": "H" 
			},
			{
				"x": -0.093702611,
				"y": -1.2636020983,
				"z": -0.0851138503,
				"element": "H" 
			},
			{
				"x": 1.4918440471,
				"y": -0.5117655965,
				"z": 0.0190856582,
				"element": "H" 
			},
			{
				"x": 0.3630699147,
				"y": 2.4439090818,
				"z": -1.4917607507,
				"element": "H" 
			},
			{
				"x": 1.3565593269,
				"y": 1.7062735222,
				"z": -0.2490727096,
				"element": "H" 
			},
			{
				"x": -0.6870969603,
				"y": 2.844498886,
				"z": 0.7181168421,
				"element": "H" 
			},
			{
				"x": -0.6702046576,
				"y": 1.1153952536,
				"z": 1.0789890085,
				"element": "H" 
			},
			{
				"x": -2.9184940993,
				"y": 1.7065611151,
				"z": 0.3591771127,
				"element": "H" 
			},
			{
				"x": -1.7979299383,
				"y": 2.8535516391,
				"z": -1.954454024,
				"element": "H" 
			},
			{
				"x": -3.134622527,
				"y": 0.321054984,
				"z": -1.7495694016,
				"element": "H" 
			},
			{
				"x": -2.2193460868,
				"y": -0.4664740122,
				"z": -0.4651897893,
				"element": "H" 
			},
			{
				"x": -1.0239096353,
				"y": -0.7681436334,
				"z": -2.628827784,
				"element": "H" 
			},
			{
				"x": -1.0569380128,
				"y": 0.958687557,
				"z": -2.9294612937,
				"element": "H" 
			}
		],
		 "valence_orbital": [ 
			{
				"type": "occ",
				"energy": -0.32222,
				"method": "rhf"
			},
			{
				"type": "occ",
				"energy": -0.26799,
				"method": "rhf"
			},
			{
				"type": "occ",
				"energy": -0.26,
				"method": "rhf"
			},
			{
				"type": "occ",
				"energy": -0.24719,
				"method": "rhf"
			},
			{
				"type": "occ",
				"energy": -0.22112,
				"method": "rhf"
			},
			{
				"type": "unocc",
				"energy": 0.03115,
				"method": "rhf"
			},
			{
				"type": "unocc",
				"energy": 0.05094,
				"method": "rhf"
			},
			{
				"type": "unocc",
				"energy": 0.07761,
				"method": "rhf"
			},
			{
				"type": "unocc",
				"energy": 0.09765,
				"method": "rhf"
			},
			{
				"type": "unocc",
				"energy": 0.12352,
				"method": "rhf"
			}
		],
		"cosmo_sigma_profile": { 
			"-0.025": 0.0,
			"-0.024": 0.0,
			"-0.023": 0.0,
			"-0.022": 0.0,
			"-0.021": 0.0,
			"-0.02": 0.0,
			"-0.019": 0.0,
			"-0.018": 0.0,
			"-0.017": 0.0,
			"-0.016": 0.0,
			"-0.015": 7.18997922309e-05,
			"-0.014": 0.892610858966,
			"-0.013": 2.35276566338,
			"-0.012": 2.12304772311,
			"-0.011": 3.16358008734,
			"-0.01": 1.95688054409,
			"-0.009": 2.95970438474,
			"-0.008": 3.21836830564,
			"-0.007": 2.73228206531,
			"-0.006": 6.6178469418,
			"-0.005": 7.65350880685,
			"-0.004": 19.1033170738,
			"-0.003": 23.728692058,
			"-0.002": 22.1119385582,
			"-0.001": 21.8497311603,
			"0.0": 15.7852497983,
			"0.001": 7.71631093937,
			"0.002": 4.92400829829,
			"0.003": 5.34468445365,
			"0.004": 5.89002896751,
			"0.005": 3.80190181943,
			"0.006": 2.88867636898,
			"0.007": 1.53756023224,
			"0.008": 2.78174759428,
			"0.009": 2.46924833937,
			"0.01": 2.33080838148,
			"0.011": 2.93507195931,
			"0.012": 2.52438213712,
			"0.013": 4.04194016387,
			"0.014": 8.05372157141,
			"0.015": 5.21070018721,
			"0.016": 0.420412380859,
			"0.017": 0.0,
			"0.018": 0.0,
			"0.019": 0.0,
			"0.02": 0.0,
			"0.021": 0.0,
			"0.022": 0.0,
			"0.023": 0.0,
			"0.024": 0.0,
			"0.025": 0.0
		}
	}
}
