{
	 "smiles": "ClS(=O)(=O)C1=CC=C(S1)C1=CC=CC=C1", 
	 "Tm": 359.15, 
	 "num_atms": 22, 
	 "gaussian": { 
		 "optdone": 1, 
		 "sigma_profile": "yes", 
		 "theory": "DFT", 
		 "functional": "B3LYP", 
		 "basiset": "6-31G**", 
		 "properties": { 
			 "R2extent": 6814.9742, 
			 "electric_dipole_moment_norm": 6.97046300973, 
			 "electric_quadrupole_moment_norm": 22.3234819961, 
			 "total_energy": -1792.21485125, 
			 "HOMO_LUMO_gap": 0.1494, 
			 "cosmo_polarized_energy": -10.39, 
			 "cosmo_cavitation_energy": 31.86, 
			 "cosmo_dispersion_energy": -24.11, 
			 "cosmo_repulsion_energy": 1.79, 
			 "cosmo_total_nonelectrostatic_energy": 9.54, 
			 "SMD_solvation_energy": 3.63 
		},
		"coords": [
			{
				"x": 3.9966380978,
				"y": -3.5050567781,
				"z": 0.1778787353,
				"element": "Cl" 
			},
			{
				"x": 4.3996567302,
				"y": -1.4105251655,
				"z": 0.0256054474,
				"element": "S" 
			},
			{
				"x": 5.3306426608,
				"y": -1.2681493998,
				"z": -1.0856905525,
				"element": "O" 
			},
			{
				"x": 4.7058084438,
				"y": -0.97079943,
				"z": 1.3805701761,
				"element": "O" 
			},
			{
				"x": 2.8471375556,
				"y": -0.7593524312,
				"z": -0.452899961,
				"element": "C" 
			},
			{
				"x": 2.4313691723,
				"y": -0.5791946819,
				"z": -1.7512477179,
				"element": "C" 
			},
			{
				"x": 1.1163212857,
				"y": -0.062866501,
				"z": -1.8148922714,
				"element": "C" 
			},
			{
				"x": 0.5360825319,
				"y": 0.1329693684,
				"z": -0.5742905274,
				"element": "C" 
			},
			{
				"x": 1.6374247252,
				"y": -0.3049622695,
				"z": 0.7102260002,
				"element": "S" 
			},
			{
				"x": -0.7999991154,
				"y": 0.6626814764,
				"z": -0.2735178874,
				"element": "C" 
			},
			{
				"x": -1.4965832226,
				"y": 0.2776274875,
				"z": 0.8859568278,
				"element": "C" 
			},
			{
				"x": -2.7656957755,
				"y": 0.7858935895,
				"z": 1.1525000682,
				"element": "C" 
			},
			{
				"x": -3.3655250076,
				"y": 1.6809429726,
				"z": 0.264319445,
				"element": "C" 
			},
			{
				"x": -2.6841038664,
				"y": 2.0697456306,
				"z": -0.8913649517,
				"element": "C" 
			},
			{
				"x": -1.4114061764,
				"y": 1.5710789402,
				"z": -1.1571910197,
				"element": "C" 
			},
			{
				"x": 3.0498433186,
				"y": -0.8166157818,
				"z": -2.6080819161,
				"element": "H" 
			},
			{
				"x": 0.5964727155,
				"y": 0.1359854762,
				"z": -2.7442566555,
				"element": "H" 
			},
			{
				"x": -1.052159058,
				"y": -0.4410535373,
				"z": 1.5685982223,
				"element": "H" 
			},
			{
				"x": -3.2903571229,
				"y": 0.4744198384,
				"z": 2.0506528511,
				"element": "H" 
			},
			{
				"x": -4.3560189238,
				"y": 2.0743272678,
				"z": 0.4719685344,
				"element": "H" 
			},
			{
				"x": -3.1398269373,
				"y": 2.7726909369,
				"z": -1.5823147996,
				"element": "H" 
			},
			{
				"x": -0.8750220315,
				"y": 1.9035129916,
				"z": -2.0403280477,
				"element": "H" 
			}
		],
		 "valence_orbital": [ 
			{
				"type": "occ",
				"energy": -0.31025,
				"method": "rhf"
			},
			{
				"type": "occ",
				"energy": -0.30044,
				"method": "rhf"
			},
			{
				"type": "occ",
				"energy": -0.28651,
				"method": "rhf"
			},
			{
				"type": "occ",
				"energy": -0.27434,
				"method": "rhf"
			},
			{
				"type": "occ",
				"energy": -0.24645,
				"method": "rhf"
			},
			{
				"type": "unocc",
				"energy": -0.09705,
				"method": "rhf"
			},
			{
				"type": "unocc",
				"energy": -0.05885,
				"method": "rhf"
			},
			{
				"type": "unocc",
				"energy": -0.02761,
				"method": "rhf"
			},
			{
				"type": "unocc",
				"energy": -0.01675,
				"method": "rhf"
			},
			{
				"type": "unocc",
				"energy": 0.00195,
				"method": "rhf"
			}
		],
		"cosmo_sigma_profile": { 
			"-0.025": 0.0,
			"-0.024": 0.0,
			"-0.023": 0.0,
			"-0.022": 0.0,
			"-0.021": 0.0,
			"-0.02": 0.0,
			"-0.019": 0.0,
			"-0.018": 0.0,
			"-0.017": 0.0,
			"-0.016": 0.0,
			"-0.015": 0.0,
			"-0.014": 0.0,
			"-0.013": 0.0,
			"-0.012": 0.0,
			"-0.011": 0.0,
			"-0.01": 0.459789014184,
			"-0.009": 1.86930634114,
			"-0.008": 4.70270354595,
			"-0.007": 7.4400669695,
			"-0.006": 15.5124094828,
			"-0.005": 16.5698023237,
			"-0.004": 15.9472584893,
			"-0.003": 12.8376655979,
			"-0.002": 15.9409661457,
			"-0.001": 22.1951223912,
			"0.0": 26.3316850887,
			"0.001": 26.0155143324,
			"0.002": 20.5801556755,
			"0.003": 22.4751095537,
			"0.004": 23.2760434667,
			"0.005": 4.96840649422,
			"0.006": 3.53469583959,
			"0.007": 6.69085509654,
			"0.008": 10.3128799517,
			"0.009": 3.97596082868,
			"0.01": 0.00247201091121,
			"0.011": 0.0,
			"0.012": 0.0,
			"0.013": 0.0,
			"0.014": 0.0,
			"0.015": 0.0,
			"0.016": 0.0,
			"0.017": 0.0,
			"0.018": 0.0,
			"0.019": 0.0,
			"0.02": 0.0,
			"0.021": 0.0,
			"0.022": 0.0,
			"0.023": 0.0,
			"0.024": 0.0,
			"0.025": 0.0
		}
	}
}
