{
	 "smiles": "COC1(OC)C2=C(C=CC=C2)C(O)(C2=CC=CC=C2)C2=C1C=CC=C2", 
	 "Tm": 462.0, 
	 "num_atms": 45, 
	 "gaussian": { 
		 "optdone": 1, 
		 "sigma_profile": "yes", 
		 "theory": "DFT", 
		 "functional": "B3LYP", 
		 "basiset": "6-31G**", 
		 "properties": { 
			 "R2extent": 7696.6536, 
			 "electric_dipole_moment_norm": 1.88439847431, 
			 "electric_quadrupole_moment_norm": 11.3021829768, 
			 "total_energy": -1076.03730265, 
			 "HOMO_LUMO_gap": 0.20412, 
			 "cosmo_polarized_energy": -10.84, 
			 "cosmo_cavitation_energy": 44.25, 
			 "cosmo_dispersion_energy": -30.67, 
			 "cosmo_repulsion_energy": 2.28, 
			 "cosmo_total_nonelectrostatic_energy": 15.86, 
			 "SMD_solvation_energy": 7.87 
		},
		"coords": [
			{
				"x": 1.1170938953,
				"y": 1.5888124057,
				"z": 3.3342004687,
				"element": "C" 
			},
			{
				"x": 0.7163526604,
				"y": 0.4851495275,
				"z": 2.5192424995,
				"element": "O" 
			},
			{
				"x": 0.212247049,
				"y": 0.7733174755,
				"z": 1.2360795931,
				"element": "C" 
			},
			{
				"x": -0.5354313154,
				"y": 2.0175085597,
				"z": 1.2628667223,
				"element": "O" 
			},
			{
				"x": -1.7913599885,
				"y": 1.9824094502,
				"z": 1.9544407937,
				"element": "C" 
			},
			{
				"x": 1.29769686,
				"y": 0.9954128871,
				"z": 0.1840962984,
				"element": "C" 
			},
			{
				"x": 0.9142813896,
				"y": 0.9828336372,
				"z": -1.1713001936,
				"element": "C" 
			},
			{
				"x": 1.8737339457,
				"y": 1.2794543385,
				"z": -2.1443559778,
				"element": "C" 
			},
			{
				"x": 3.2015268355,
				"y": 1.5262975911,
				"z": -1.7922374426,
				"element": "C" 
			},
			{
				"x": 3.5901872922,
				"y": 1.4556866366,
				"z": -0.4563838166,
				"element": "C" 
			},
			{
				"x": 2.6370093815,
				"y": 1.1889869017,
				"z": 0.5273069941,
				"element": "C" 
			},
			{
				"x": -0.5530717235,
				"y": 0.6728409899,
				"z": -1.5354524469,
				"element": "C" 
			},
			{
				"x": -1.3321255131,
				"y": 1.8734065348,
				"z": -1.411580806,
				"element": "O" 
			},
			{
				"x": -0.6801314236,
				"y": 0.2033227982,
				"z": -2.9868324547,
				"element": "C" 
			},
			{
				"x": -1.4250852845,
				"y": 0.9361769622,
				"z": -3.9150173722,
				"element": "C" 
			},
			{
				"x": -1.5330858477,
				"y": 0.5012143122,
				"z": -5.2397115427,
				"element": "C" 
			},
			{
				"x": -0.8974779733,
				"y": -0.6686007777,
				"z": -5.6526352922,
				"element": "C" 
			},
			{
				"x": -0.1493831793,
				"y": -1.4062549601,
				"z": -4.7303784716,
				"element": "C" 
			},
			{
				"x": -0.0430169722,
				"y": -0.9736896342,
				"z": -3.4101856754,
				"element": "C" 
			},
			{
				"x": -1.1019623943,
				"y": -0.3909940127,
				"z": -0.5540450797,
				"element": "C" 
			},
			{
				"x": -0.6939221498,
				"y": -0.3671520056,
				"z": 0.7935203791,
				"element": "C" 
			},
			{
				"x": -1.1769789914,
				"y": -1.3124574481,
				"z": 1.6999228016,
				"element": "C" 
			},
			{
				"x": -2.095356247,
				"y": -2.278057166,
				"z": 1.2858744528,
				"element": "C" 
			},
			{
				"x": -2.5420785793,
				"y": -2.2818800936,
				"z": -0.034311481,
				"element": "C" 
			},
			{
				"x": -2.0473224505,
				"y": -1.3450508296,
				"z": -0.944163643,
				"element": "C" 
			},
			{
				"x": 1.8216283565,
				"y": 1.1820324847,
				"z": 4.0639684143,
				"element": "H" 
			},
			{
				"x": 0.2641905715,
				"y": 2.0211216987,
				"z": 3.8696942845,
				"element": "H" 
			},
			{
				"x": 1.6011783533,
				"y": 2.3837265855,
				"z": 2.762337528,
				"element": "H" 
			},
			{
				"x": -1.7121132596,
				"y": 1.450924865,
				"z": 2.907185184,
				"element": "H" 
			},
			{
				"x": -2.058025921,
				"y": 3.0251062558,
				"z": 2.1418002493,
				"element": "H" 
			},
			{
				"x": -2.5671308205,
				"y": 1.509132495,
				"z": 1.3436836923,
				"element": "H" 
			},
			{
				"x": 1.5851817199,
				"y": 1.2966922291,
				"z": -3.1889890739,
				"element": "H" 
			},
			{
				"x": 3.9313574133,
				"y": 1.7494292317,
				"z": -2.5652107455,
				"element": "H" 
			},
			{
				"x": 4.6290438475,
				"y": 1.6052086317,
				"z": -0.1766527387,
				"element": "H" 
			},
			{
				"x": 2.9438587607,
				"y": 1.1110076618,
				"z": 1.5629439306,
				"element": "H" 
			},
			{
				"x": -1.0881806351,
				"y": 2.2551449979,
				"z": -0.5506111681,
				"element": "H" 
			},
			{
				"x": -1.9152900566,
				"y": 1.8455921155,
				"z": -3.5906634208,
				"element": "H" 
			},
			{
				"x": -2.1169699109,
				"y": 1.0828072514,
				"z": -5.9479520166,
				"element": "H" 
			},
			{
				"x": -0.9817179916,
				"y": -1.0051340502,
				"z": -6.6821688191,
				"element": "H" 
			},
			{
				"x": 0.3516124967,
				"y": -2.3194273097,
				"z": -5.039552327,
				"element": "H" 
			},
			{
				"x": 0.5397182606,
				"y": -1.5532452751,
				"z": -2.699815803,
				"element": "H" 
			},
			{
				"x": -0.8242011567,
				"y": -1.2830138141,
				"z": 2.7242075203,
				"element": "H" 
			},
			{
				"x": -2.4623330074,
				"y": -3.0166037135,
				"z": 1.9929158131,
				"element": "H" 
			},
			{
				"x": -3.2692846744,
				"y": -3.0184755094,
				"z": -0.3642279476,
				"element": "H" 
			},
			{
				"x": -2.391061622,
				"y": -1.3659209125,
				"z": -1.9719518633,
				"element": "H" 
			}
		],
		 "valence_orbital": [ 
			{
				"type": "occ",
				"energy": -0.2478,
				"method": "rhf"
			},
			{
				"type": "occ",
				"energy": -0.24759,
				"method": "rhf"
			},
			{
				"type": "occ",
				"energy": -0.24142,
				"method": "rhf"
			},
			{
				"type": "occ",
				"energy": -0.23476,
				"method": "rhf"
			},
			{
				"type": "occ",
				"energy": -0.22845,
				"method": "rhf"
			},
			{
				"type": "unocc",
				"energy": -0.02433,
				"method": "rhf"
			},
			{
				"type": "unocc",
				"energy": -0.01051,
				"method": "rhf"
			},
			{
				"type": "unocc",
				"energy": -0.00291,
				"method": "rhf"
			},
			{
				"type": "unocc",
				"energy": 0.00165,
				"method": "rhf"
			},
			{
				"type": "unocc",
				"energy": 0.01061,
				"method": "rhf"
			}
		],
		"cosmo_sigma_profile": { 
			"-0.025": 0.0,
			"-0.024": 0.0,
			"-0.023": 0.0,
			"-0.022": 0.0,
			"-0.021": 0.0,
			"-0.02": 0.0,
			"-0.019": 0.0,
			"-0.018": 0.0,
			"-0.017": 0.0,
			"-0.016": 0.0,
			"-0.015": 0.0,
			"-0.014": 0.0,
			"-0.013": 0.0,
			"-0.012": 0.0,
			"-0.011": 0.0,
			"-0.01": 0.0,
			"-0.009": 0.0,
			"-0.008": 0.0,
			"-0.007": 0.143216509718,
			"-0.006": 11.2539570176,
			"-0.005": 29.7764315694,
			"-0.004": 41.0960615736,
			"-0.003": 40.0708119192,
			"-0.002": 31.5874460174,
			"-0.001": 23.7274785525,
			"0.0": 20.1529785799,
			"0.001": 22.1564250164,
			"0.002": 24.9231594633,
			"0.003": 28.781726418,
			"0.004": 29.5178614495,
			"0.005": 26.9725752091,
			"0.006": 6.85825548801,
			"0.007": 3.34823065192,
			"0.008": 3.85534640726,
			"0.009": 2.65981644006,
			"0.01": 2.74642718781,
			"0.011": 1.76248438729,
			"0.012": 0.56067568375,
			"0.013": 0.344234618208,
			"0.014": 0.0,
			"0.015": 0.0,
			"0.016": 0.0,
			"0.017": 0.0,
			"0.018": 0.0,
			"0.019": 0.0,
			"0.02": 0.0,
			"0.021": 0.0,
			"0.022": 0.0,
			"0.023": 0.0,
			"0.024": 0.0,
			"0.025": 0.0
		}
	}
}
