{
	 "smiles": "NC1=C(CCNC(=O)C2=CC=CC=C2)C=CC(CCNC(=O)C2=CC=CC=C2)=C1", 
	 "Tm": 483.15, 
	 "num_atms": 54, 
	 "gaussian": { 
		 "optdone": 1, 
		 "sigma_profile": "yes", 
		 "theory": "DFT", 
		 "functional": "B3LYP", 
		 "basiset": "6-31G**", 
		 "properties": { 
			 "R2extent": 18131.1222, 
			 "electric_dipole_moment_norm": 0.700037834692, 
			 "electric_quadrupole_moment_norm": 57.5325339076, 
			 "total_energy": -1244.37452278, 
			 "HOMO_LUMO_gap": 0.17453, 
			 "cosmo_polarized_energy": -26.61, 
			 "cosmo_cavitation_energy": 58.42, 
			 "cosmo_dispersion_energy": -38.35, 
			 "cosmo_repulsion_energy": 2.96, 
			 "cosmo_total_nonelectrostatic_energy": 23.02, 
			 "SMD_solvation_energy": 8.98 
		},
		"coords": [
			{
				"x": -0.3356452528,
				"y": -0.2811109254,
				"z": -2.7888497497,
				"element": "N" 
			},
			{
				"x": -1.2172711715,
				"y": -0.1973243826,
				"z": -1.7011929854,
				"element": "C" 
			},
			{
				"x": -1.3353489755,
				"y": -1.2650658592,
				"z": -0.7817720894,
				"element": "C" 
			},
			{
				"x": -0.5296661462,
				"y": -2.5354507641,
				"z": -0.9392018041,
				"element": "C" 
			},
			{
				"x": 0.9443739925,
				"y": -2.3607278177,
				"z": -0.5029223146,
				"element": "C" 
			},
			{
				"x": 1.7595905129,
				"y": -3.5573480778,
				"z": -0.7118062265,
				"element": "N" 
			},
			{
				"x": 1.7752102013,
				"y": -4.6949196787,
				"z": 0.0727096619,
				"element": "C" 
			},
			{
				"x": 1.9855860596,
				"y": -5.7974800999,
				"z": -0.423369535,
				"element": "O" 
			},
			{
				"x": 1.5905161788,
				"y": -4.5422645895,
				"z": 1.5565597094,
				"element": "C" 
			},
			{
				"x": 0.8797933566,
				"y": -5.5440862567,
				"z": 2.2315861945,
				"element": "C" 
			},
			{
				"x": 0.7242313778,
				"y": -5.4868359032,
				"z": 3.6150026014,
				"element": "C" 
			},
			{
				"x": 1.3032909601,
				"y": -4.4432053675,
				"z": 4.3419984486,
				"element": "C" 
			},
			{
				"x": 2.0408175871,
				"y": -3.4596011273,
				"z": 3.6803235046,
				"element": "C" 
			},
			{
				"x": 2.1811019115,
				"y": -3.5051779845,
				"z": 2.2925891821,
				"element": "C" 
			},
			{
				"x": -2.1938310908,
				"y": -1.1009087035,
				"z": 0.3103638271,
				"element": "C" 
			},
			{
				"x": -2.9166016196,
				"y": 0.0724224004,
				"z": 0.5168321517,
				"element": "C" 
			},
			{
				"x": -2.7989094562,
				"y": 1.1358976519,
				"z": -0.3879635964,
				"element": "C" 
			},
			{
				"x": -3.5366552656,
				"y": 2.4367343632,
				"z": -0.1583195471,
				"element": "C" 
			},
			{
				"x": -2.7618102417,
				"y": 3.4241722087,
				"z": 0.7443212369,
				"element": "C" 
			},
			{
				"x": -1.4907443307,
				"y": 3.8534482565,
				"z": 0.1807142655,
				"element": "N" 
			},
			{
				"x": -1.4061705765,
				"y": 4.9744183157,
				"z": -0.6060178992,
				"element": "C" 
			},
			{
				"x": -2.366369223,
				"y": 5.7174364619,
				"z": -0.7975503763,
				"element": "O" 
			},
			{
				"x": -0.0615193755,
				"y": 5.25376531,
				"z": -1.2214741881,
				"element": "C" 
			},
			{
				"x": -0.0283231692,
				"y": 6.1220965296,
				"z": -2.3209810159,
				"element": "C" 
			},
			{
				"x": 1.1795716435,
				"y": 6.4247025627,
				"z": -2.945182879,
				"element": "C" 
			},
			{
				"x": 2.3716537971,
				"y": 5.8726553221,
				"z": -2.4686621415,
				"element": "C" 
			},
			{
				"x": 2.3501747377,
				"y": 5.0222640648,
				"z": -1.3615858879,
				"element": "C" 
			},
			{
				"x": 1.1398046762,
				"y": 4.7138989466,
				"z": -0.7398585627,
				"element": "C" 
			},
			{
				"x": -1.9509997252,
				"y": 0.9814256871,
				"z": -1.4892174164,
				"element": "C" 
			},
			{
				"x": -0.2287394374,
				"y": -1.2077854442,
				"z": -3.1806213375,
				"element": "H" 
			},
			{
				"x": -0.5165089974,
				"y": 0.3981200744,
				"z": -3.5167261176,
				"element": "H" 
			},
			{
				"x": -0.5521740572,
				"y": -2.8991984865,
				"z": -1.9776494505,
				"element": "H" 
			},
			{
				"x": -0.9789192226,
				"y": -3.3328518868,
				"z": -0.3372510658,
				"element": "H" 
			},
			{
				"x": 0.9694206625,
				"y": -2.0880030162,
				"z": 0.5522170725,
				"element": "H" 
			},
			{
				"x": 1.3995929969,
				"y": -1.5363639529,
				"z": -1.0604656321,
				"element": "H" 
			},
			{
				"x": 1.9052815349,
				"y": -3.8113152392,
				"z": -1.6834006128,
				"element": "H" 
			},
			{
				"x": 0.4641021019,
				"y": -6.3648758102,
				"z": 1.6562315547,
				"element": "H" 
			},
			{
				"x": 0.1610605314,
				"y": -6.2607696685,
				"z": 4.1284775806,
				"element": "H" 
			},
			{
				"x": 1.1892960121,
				"y": -4.4030835939,
				"z": 5.4215458407,
				"element": "H" 
			},
			{
				"x": 2.5126687545,
				"y": -2.6603216959,
				"z": 4.2445542044,
				"element": "H" 
			},
			{
				"x": 2.7762739295,
				"y": -2.7535601605,
				"z": 1.7829739272,
				"element": "H" 
			},
			{
				"x": -2.2987995479,
				"y": -1.9233464822,
				"z": 1.0143996902,
				"element": "H" 
			},
			{
				"x": -3.5791366984,
				"y": 0.1585910633,
				"z": 1.3739004116,
				"element": "H" 
			},
			{
				"x": -4.504266242,
				"y": 2.23617891,
				"z": 0.3170969364,
				"element": "H" 
			},
			{
				"x": -3.7425795389,
				"y": 2.9372376095,
				"z": -1.1103306259,
				"element": "H" 
			},
			{
				"x": -3.3590555308,
				"y": 4.3252697263,
				"z": 0.895001483,
				"element": "H" 
			},
			{
				"x": -2.5711422783,
				"y": 2.9647628687,
				"z": 1.7206039796,
				"element": "H" 
			},
			{
				"x": -0.7689790811,
				"y": 3.1536447233,
				"z": 0.0890950002,
				"element": "H" 
			},
			{
				"x": -0.9648396542,
				"y": 6.5496780464,
				"z": -2.662751516,
				"element": "H" 
			},
			{
				"x": 1.1938078883,
				"y": 7.0937385782,
				"z": -3.8008156068,
				"element": "H" 
			},
			{
				"x": 3.3146221128,
				"y": 6.1111280053,
				"z": -2.9524206012,
				"element": "H" 
			},
			{
				"x": 3.2762412986,
				"y": 4.6059175759,
				"z": -0.975848816,
				"element": "H" 
			},
			{
				"x": 1.1437216802,
				"y": 4.0797875208,
				"z": 0.1420854418,
				"element": "H" 
			},
			{
				"x": -1.8635005903,
				"y": 1.790490191,
				"z": -2.2119743091,
				"element": "H" 
			}
		],
		 "valence_orbital": [ 
			{
				"type": "occ",
				"energy": -0.25229,
				"method": "rhf"
			},
			{
				"type": "occ",
				"energy": -0.24574,
				"method": "rhf"
			},
			{
				"type": "occ",
				"energy": -0.24058,
				"method": "rhf"
			},
			{
				"type": "occ",
				"energy": -0.23796,
				"method": "rhf"
			},
			{
				"type": "occ",
				"energy": -0.20962,
				"method": "rhf"
			},
			{
				"type": "unocc",
				"energy": -0.03509,
				"method": "rhf"
			},
			{
				"type": "unocc",
				"energy": -0.03225,
				"method": "rhf"
			},
			{
				"type": "unocc",
				"energy": -0.00884,
				"method": "rhf"
			},
			{
				"type": "unocc",
				"energy": -0.00872,
				"method": "rhf"
			},
			{
				"type": "unocc",
				"energy": -0.00541,
				"method": "rhf"
			}
		],
		"cosmo_sigma_profile": { 
			"-0.025": 0.0,
			"-0.024": 0.0,
			"-0.023": 0.0,
			"-0.022": 0.0,
			"-0.021": 0.0,
			"-0.02": 0.0,
			"-0.019": 0.0,
			"-0.018": 0.0,
			"-0.017": 0.0,
			"-0.016": 0.0,
			"-0.015": 0.0,
			"-0.014": 0.0,
			"-0.013": 0.657172892632,
			"-0.012": 3.46311481828,
			"-0.011": 4.91225862963,
			"-0.01": 5.2956478156,
			"-0.009": 5.62426792507,
			"-0.008": 5.73876290179,
			"-0.007": 6.73569983732,
			"-0.006": 20.3102879221,
			"-0.005": 28.9588202144,
			"-0.004": 44.5613402899,
			"-0.003": 42.6005879311,
			"-0.002": 38.4841117395,
			"-0.001": 32.2167837463,
			"0.0": 29.3907208576,
			"0.001": 25.7099301965,
			"0.002": 25.8538027231,
			"0.003": 28.4519497415,
			"0.004": 32.9676967383,
			"0.005": 24.6464383156,
			"0.006": 10.3248572861,
			"0.007": 9.11486307965,
			"0.008": 4.10145712202,
			"0.009": 3.64453818835,
			"0.01": 3.95705200049,
			"0.011": 3.82236678555,
			"0.012": 4.34015376069,
			"0.013": 7.65583880723,
			"0.014": 8.99599885138,
			"0.015": 0.649094559453,
			"0.016": 0.0,
			"0.017": 0.0,
			"0.018": 0.0,
			"0.019": 0.0,
			"0.02": 0.0,
			"0.021": 0.0,
			"0.022": 0.0,
			"0.023": 0.0,
			"0.024": 0.0,
			"0.025": 0.0
		}
	}
}
