{
	 "smiles": "OC(=O)C1=NN(C(=C1)C1=CC=CC=C1)C1=NC=CC=C1", 
	 "Tm": 468.15, 
	 "num_atms": 31, 
	 "gaussian": { 
		 "optdone": 1, 
		 "sigma_profile": "yes", 
		 "theory": "DFT", 
		 "functional": "B3LYP", 
		 "basiset": "6-31G**", 
		 "properties": { 
			 "R2extent": 6086.2175, 
			 "electric_dipole_moment_norm": 6.53059582733, 
			 "electric_quadrupole_moment_norm": 39.334440993, 
			 "total_energy": -892.91009368, 
			 "HOMO_LUMO_gap": 0.18287, 
			 "cosmo_polarized_energy": -21.28, 
			 "cosmo_cavitation_energy": 36.78, 
			 "cosmo_dispersion_energy": -25.83, 
			 "cosmo_repulsion_energy": 1.99, 
			 "cosmo_total_nonelectrostatic_energy": 12.93, 
			 "SMD_solvation_energy": 5.95 
		},
		"coords": [
			{
				"x": -1.329351133,
				"y": 2.1758722102,
				"z": 4.6363418394,
				"element": "O" 
			},
			{
				"x": -0.7313322171,
				"y": 0.9740013103,
				"z": 4.3970958051,
				"element": "C" 
			},
			{
				"x": -0.3972040133,
				"y": 0.2640435518,
				"z": 5.3107912302,
				"element": "O" 
			},
			{
				"x": -0.5300931017,
				"y": 0.6516329286,
				"z": 2.9550730411,
				"element": "C" 
			},
			{
				"x": -0.2613536135,
				"y": -0.6014096342,
				"z": 2.5968401639,
				"element": "N" 
			},
			{
				"x": -0.1316135613,
				"y": -0.5689586353,
				"z": 1.2528484209,
				"element": "N" 
			},
			{
				"x": -0.3121872917,
				"y": 0.700488984,
				"z": 0.7316250031,
				"element": "C" 
			},
			{
				"x": -0.5672823342,
				"y": 1.507610286,
				"z": 1.8259444976,
				"element": "C" 
			},
			{
				"x": -0.3299538096,
				"y": 1.0920499771,
				"z": -0.690795519,
				"element": "C" 
			},
			{
				"x": -1.1207857961,
				"y": 0.4161852434,
				"z": -1.6335999152,
				"element": "C" 
			},
			{
				"x": -1.1860776413,
				"y": 0.865211915,
				"z": -2.9499043681,
				"element": "C" 
			},
			{
				"x": -0.4681655387,
				"y": 1.9972869411,
				"z": -3.345214626,
				"element": "C" 
			},
			{
				"x": 0.3144633594,
				"y": 2.6792055698,
				"z": -2.4133036781,
				"element": "C" 
			},
			{
				"x": 0.3817567986,
				"y": 2.2314295124,
				"z": -1.0936635553,
				"element": "C" 
			},
			{
				"x": 0.2616999517,
				"y": -1.7795636156,
				"z": 0.6037914354,
				"element": "C" 
			},
			{
				"x": 0.9406134372,
				"y": -1.6508304755,
				"z": -0.5301815048,
				"element": "N" 
			},
			{
				"x": 1.3278483424,
				"y": -2.774778258,
				"z": -1.1463616492,
				"element": "C" 
			},
			{
				"x": 1.0703359302,
				"y": -4.0505744783,
				"z": -0.6492224875,
				"element": "C" 
			},
			{
				"x": 0.3645366021,
				"y": -4.1592493852,
				"z": 0.5516180708,
				"element": "C" 
			},
			{
				"x": -0.0596986695,
				"y": -3.0048095087,
				"z": 1.2004723856,
				"element": "C" 
			},
			{
				"x": -1.6517287828,
				"y": 2.5600503708,
				"z": 3.8093163823,
				"element": "H" 
			},
			{
				"x": -0.7590970621,
				"y": 2.5704185727,
				"z": 1.7794013905,
				"element": "H" 
			},
			{
				"x": -1.691774067,
				"y": -0.4557053517,
				"z": -1.3305952296,
				"element": "H" 
			},
			{
				"x": -1.8042221631,
				"y": 0.3344449444,
				"z": -3.6681989381,
				"element": "H" 
			},
			{
				"x": -0.5212960875,
				"y": 2.3451612068,
				"z": -4.3726950245,
				"element": "H" 
			},
			{
				"x": 0.8776031333,
				"y": 3.5585679468,
				"z": -2.7120091718,
				"element": "H" 
			},
			{
				"x": 1.0019119873,
				"y": 2.7541816019,
				"z": -0.3716798602,
				"element": "H" 
			},
			{
				"x": 1.8780156809,
				"y": -2.6395491871,
				"z": -2.0750714455,
				"element": "H" 
			},
			{
				"x": 1.4149281124,
				"y": -4.9293297628,
				"z": -1.1839617159,
				"element": "H" 
			},
			{
				"x": 0.1424334585,
				"y": -5.1328951499,
				"z": 0.9778491283,
				"element": "H" 
			},
			{
				"x": -0.6030299105,
				"y": -3.0282896305,
				"z": 2.1360498946,
				"element": "H" 
			}
		],
		 "valence_orbital": [ 
			{
				"type": "occ",
				"energy": -0.27323,
				"method": "rhf"
			},
			{
				"type": "occ",
				"energy": -0.26734,
				"method": "rhf"
			},
			{
				"type": "occ",
				"energy": -0.25894,
				"method": "rhf"
			},
			{
				"type": "occ",
				"energy": -0.2517,
				"method": "rhf"
			},
			{
				"type": "occ",
				"energy": -0.23809,
				"method": "rhf"
			},
			{
				"type": "unocc",
				"energy": -0.05522,
				"method": "rhf"
			},
			{
				"type": "unocc",
				"energy": -0.0366,
				"method": "rhf"
			},
			{
				"type": "unocc",
				"energy": -0.02206,
				"method": "rhf"
			},
			{
				"type": "unocc",
				"energy": -0.01119,
				"method": "rhf"
			},
			{
				"type": "unocc",
				"energy": -0.00917,
				"method": "rhf"
			}
		],
		"cosmo_sigma_profile": { 
			"-0.025": 0.0,
			"-0.024": 0.0,
			"-0.023": 0.0,
			"-0.022": 0.0,
			"-0.021": 0.0,
			"-0.02": 0.0,
			"-0.019": 0.295473137609,
			"-0.018": 0.84376323085,
			"-0.017": 1.1078456152,
			"-0.016": 1.35731810937,
			"-0.015": 0.986113775182,
			"-0.014": 0.544917926021,
			"-0.013": 1.10759075806,
			"-0.012": 1.63475994495,
			"-0.011": 1.26507814193,
			"-0.01": 0.952888299045,
			"-0.009": 1.43360682531,
			"-0.008": 3.50673176044,
			"-0.007": 9.56227913279,
			"-0.006": 20.5715169577,
			"-0.005": 23.132707702,
			"-0.004": 19.9830570883,
			"-0.003": 18.9276140053,
			"-0.002": 15.5243851504,
			"-0.001": 17.8524999002,
			"0.0": 23.6801030561,
			"0.001": 23.6908555976,
			"0.002": 24.0330490946,
			"0.003": 12.7543239423,
			"0.004": 12.6423612514,
			"0.005": 10.9330937009,
			"0.006": 6.69672449117,
			"0.007": 4.83236511122,
			"0.008": 5.62888002634,
			"0.009": 5.08530688872,
			"0.01": 7.36084930667,
			"0.011": 7.31117221436,
			"0.012": 6.68130355093,
			"0.013": 3.39745489092,
			"0.014": 1.05090945328,
			"0.015": 0.0,
			"0.016": 0.0,
			"0.017": 0.0,
			"0.018": 0.0,
			"0.019": 0.0,
			"0.02": 0.0,
			"0.021": 0.0,
			"0.022": 0.0,
			"0.023": 0.0,
			"0.024": 0.0,
			"0.025": 0.0
		}
	}
}
