{
	 "smiles": "CCCCCCCC1CCCCC1", 
	 "Tm": 242.65, 
	 "num_atms": 39, 
	 "gaussian": { 
		 "optdone": 1, 
		 "sigma_profile": "yes", 
		 "theory": "DFT", 
		 "functional": "B3LYP", 
		 "basiset": "6-31G**", 
		 "properties": { 
			 "R2extent": 4699.5842, 
			 "electric_dipole_moment_norm": 0.0421934829091, 
			 "electric_quadrupole_moment_norm": 0.585392312898, 
			 "total_energy": -511.093559599, 
			 "HOMO_LUMO_gap": 0.36041, 
			 "cosmo_polarized_energy": -0.78, 
			 "cosmo_cavitation_energy": 36.51, 
			 "cosmo_dispersion_energy": -25.7, 
			 "cosmo_repulsion_energy": 2.09, 
			 "cosmo_total_nonelectrostatic_energy": 12.89, 
			 "SMD_solvation_energy": 4.53 
		},
		"coords": [
			{
				"x": 0.112988378,
				"y": -0.7146373891,
				"z": 5.2469378724,
				"element": "C" 
			},
			{
				"x": 1.2103164869,
				"y": 0.0636214253,
				"z": 4.5114246923,
				"element": "C" 
			},
			{
				"x": 0.8756789965,
				"y": 1.5441981987,
				"z": 4.2564401295,
				"element": "C" 
			},
			{
				"x": -0.3426495613,
				"y": 1.814733392,
				"z": 3.3560769474,
				"element": "C" 
			},
			{
				"x": -0.2012337779,
				"y": 1.3041231306,
				"z": 1.9147980419,
				"element": "C" 
			},
			{
				"x": -1.3983979404,
				"y": 1.6794178214,
				"z": 1.0302507683,
				"element": "C" 
			},
			{
				"x": -1.292376583,
				"y": 1.2598372546,
				"z": -0.4472807307,
				"element": "C" 
			},
			{
				"x": -1.2684808212,
				"y": -0.2746340807,
				"z": -0.6913098488,
				"element": "C" 
			},
			{
				"x": 0.1571271579,
				"y": -0.8393182368,
				"z": -0.9053766204,
				"element": "C" 
			},
			{
				"x": 0.7550094427,
				"y": -0.4637004812,
				"z": -2.2723696103,
				"element": "C" 
			},
			{
				"x": -0.1707816184,
				"y": -0.870684153,
				"z": -3.4286668668,
				"element": "C" 
			},
			{
				"x": -1.5807730744,
				"y": -0.2912802268,
				"z": -3.2399930863,
				"element": "C" 
			},
			{
				"x": -2.1658129415,
				"y": -0.6958748526,
				"z": -1.877676145,
				"element": "C" 
			},
			{
				"x": 0.4311376211,
				"y": -1.7410987308,
				"z": 5.4574941362,
				"element": "H" 
			},
			{
				"x": -0.8104793237,
				"y": -0.7726169057,
				"z": 4.6612532755,
				"element": "H" 
			},
			{
				"x": -0.1333921538,
				"y": -0.2403373726,
				"z": 6.2042877534,
				"element": "H" 
			},
			{
				"x": 2.1352451178,
				"y": 0.0177289955,
				"z": 5.1006403886,
				"element": "H" 
			},
			{
				"x": 1.4383779777,
				"y": -0.4362452393,
				"z": 3.5613967952,
				"element": "H" 
			},
			{
				"x": 1.7550677458,
				"y": 2.0322166212,
				"z": 3.8138755518,
				"element": "H" 
			},
			{
				"x": 0.7118140289,
				"y": 2.0370732074,
				"z": 5.2248003794,
				"element": "H" 
			},
			{
				"x": -1.2449989063,
				"y": 1.3800544664,
				"z": 3.8069944084,
				"element": "H" 
			},
			{
				"x": -0.5179386045,
				"y": 2.8989930621,
				"z": 3.3301487737,
				"element": "H" 
			},
			{
				"x": -0.0762117271,
				"y": 0.214462102,
				"z": 1.9210459369,
				"element": "H" 
			},
			{
				"x": 0.7192158629,
				"y": 1.7151271212,
				"z": 1.4742989688,
				"element": "H" 
			},
			{
				"x": -1.5375612659,
				"y": 2.768676025,
				"z": 1.0737895852,
				"element": "H" 
			},
			{
				"x": -2.3119847529,
				"y": 1.2428380165,
				"z": 1.4596819909,
				"element": "H" 
			},
			{
				"x": -2.1498708464,
				"y": 1.6949830549,
				"z": -0.9768660933,
				"element": "H" 
			},
			{
				"x": -0.4050661855,
				"y": 1.7326231082,
				"z": -0.8881798241,
				"element": "H" 
			},
			{
				"x": -1.6823315987,
				"y": -0.7522193098,
				"z": 0.2084250654,
				"element": "H" 
			},
			{
				"x": 0.1117712222,
				"y": -1.9353825895,
				"z": -0.8333202998,
				"element": "H" 
			},
			{
				"x": 0.8239257264,
				"y": -0.5048007443,
				"z": -0.1026921112,
				"element": "H" 
			},
			{
				"x": 0.93016065,
				"y": 0.6199413888,
				"z": -2.3175913689,
				"element": "H" 
			},
			{
				"x": 1.7384968437,
				"y": -0.9355605195,
				"z": -2.3873570878,
				"element": "H" 
			},
			{
				"x": 0.2521661724,
				"y": -0.5476595544,
				"z": -4.3877672722,
				"element": "H" 
			},
			{
				"x": -0.2364364559,
				"y": -1.9677217828,
				"z": -3.4698355154,
				"element": "H" 
			},
			{
				"x": -2.242646502,
				"y": -0.6282486801,
				"z": -4.0471049707,
				"element": "H" 
			},
			{
				"x": -1.5369788099,
				"y": 0.8043021778,
				"z": -3.3140844466,
				"element": "H" 
			},
			{
				"x": -3.1701910408,
				"y": -0.2720387495,
				"z": -1.7520319384,
				"element": "H" 
			},
			{
				"x": -2.2857049392,
				"y": -1.7886909709,
				"z": -1.8593576245,
				"element": "H" 
			}
		],
		 "valence_orbital": [ 
			{
				"type": "occ",
				"energy": -0.30751,
				"method": "rhf"
			},
			{
				"type": "occ",
				"energy": -0.30253,
				"method": "rhf"
			},
			{
				"type": "occ",
				"energy": -0.29265,
				"method": "rhf"
			},
			{
				"type": "occ",
				"energy": -0.28737,
				"method": "rhf"
			},
			{
				"type": "occ",
				"energy": -0.28319,
				"method": "rhf"
			},
			{
				"type": "unocc",
				"energy": 0.07722,
				"method": "rhf"
			},
			{
				"type": "unocc",
				"energy": 0.0889,
				"method": "rhf"
			},
			{
				"type": "unocc",
				"energy": 0.09927,
				"method": "rhf"
			},
			{
				"type": "unocc",
				"energy": 0.11099,
				"method": "rhf"
			},
			{
				"type": "unocc",
				"energy": 0.11671,
				"method": "rhf"
			}
		],
		"cosmo_sigma_profile": { 
			"-0.025": 0.0,
			"-0.024": 0.0,
			"-0.023": 0.0,
			"-0.022": 0.0,
			"-0.021": 0.0,
			"-0.02": 0.0,
			"-0.019": 0.0,
			"-0.018": 0.0,
			"-0.017": 0.0,
			"-0.016": 0.0,
			"-0.015": 0.0,
			"-0.014": 0.0,
			"-0.013": 0.0,
			"-0.012": 0.0,
			"-0.011": 0.0,
			"-0.01": 0.0,
			"-0.009": 0.0,
			"-0.008": 0.0,
			"-0.007": 0.0,
			"-0.006": 0.0,
			"-0.005": 0.0,
			"-0.004": 0.0,
			"-0.003": 1.51833811901,
			"-0.002": 28.808473097,
			"-0.001": 66.7507019126,
			"0.0": 81.9859988851,
			"0.001": 68.095431967,
			"0.002": 30.4595668809,
			"0.003": 0.558147752256,
			"0.004": 0.0,
			"0.005": 0.0,
			"0.006": 0.0,
			"0.007": 0.0,
			"0.008": 0.0,
			"0.009": 0.0,
			"0.01": 0.0,
			"0.011": 0.0,
			"0.012": 0.0,
			"0.013": 0.0,
			"0.014": 0.0,
			"0.015": 0.0,
			"0.016": 0.0,
			"0.017": 0.0,
			"0.018": 0.0,
			"0.019": 0.0,
			"0.02": 0.0,
			"0.021": 0.0,
			"0.022": 0.0,
			"0.023": 0.0,
			"0.024": 0.0,
			"0.025": 0.0
		}
	}
}
