{
	 "smiles": "CC(=O)NC1=CC(Cl)=CC=C1C(O)=O", 
	 "Tm": 477.15, 
	 "num_atms": 22, 
	 "gaussian": { 
		 "optdone": 1, 
		 "sigma_profile": "yes", 
		 "theory": "DFT", 
		 "functional": "B3LYP", 
		 "basiset": "6-31G**", 
		 "properties": { 
			 "R2extent": 3756.2587, 
			 "electric_dipole_moment_norm": 1.15885052531, 
			 "electric_quadrupole_moment_norm": 9.69756040662, 
			 "total_energy": -1088.42845951, 
			 "HOMO_LUMO_gap": 0.17427, 
			 "cosmo_polarized_energy": -14.32, 
			 "cosmo_cavitation_energy": 28.52, 
			 "cosmo_dispersion_energy": -20.84, 
			 "cosmo_repulsion_energy": 1.64, 
			 "cosmo_total_nonelectrostatic_energy": 9.33, 
			 "SMD_solvation_energy": 6.56 
		},
		"coords": [
			{
				"x": -3.5011949557,
				"y": 0.4840691952,
				"z": 1.2893590005,
				"element": "C" 
			},
			{
				"x": -2.5499662682,
				"y": -0.6256344089,
				"z": 1.6910561842,
				"element": "C" 
			},
			{
				"x": -2.9299749475,
				"y": -1.5912048401,
				"z": 2.3336270084,
				"element": "O" 
			},
			{
				"x": -1.2123244806,
				"y": -0.5848545824,
				"z": 1.2944129705,
				"element": "N" 
			},
			{
				"x": -0.4713492783,
				"y": 0.3435371749,
				"z": 0.5606494471,
				"element": "C" 
			},
			{
				"x": -0.7498928948,
				"y": 1.7191625592,
				"z": 0.6614822603,
				"element": "C" 
			},
			{
				"x": -0.0287032039,
				"y": 2.6443684259,
				"z": -0.0826085756,
				"element": "C" 
			},
			{
				"x": -0.4222358556,
				"y": 4.3450084894,
				"z": 0.0783275297,
				"element": "Cl" 
			},
			{
				"x": 1.0093716134,
				"y": 2.2587130885,
				"z": -0.9314313193,
				"element": "C" 
			},
			{
				"x": 1.3155941526,
				"y": 0.908639417,
				"z": -1.0017110683,
				"element": "C" 
			},
			{
				"x": 0.6097908841,
				"y": -0.0636317741,
				"z": -0.2738377503,
				"element": "C" 
			},
			{
				"x": 1.0967212311,
				"y": -1.4551516506,
				"z": -0.4756092777,
				"element": "C" 
			},
			{
				"x": 0.5656008009,
				"y": -2.3766138078,
				"z": 0.3760020366,
				"element": "O" 
			},
			{
				"x": 1.9203235296,
				"y": -1.7804300697,
				"z": -1.3065545094,
				"element": "O" 
			},
			{
				"x": -4.5053408738,
				"y": 0.059177129,
				"z": 1.3032142449,
				"element": "H" 
			},
			{
				"x": -3.2843370835,
				"y": 0.9017208068,
				"z": 0.3037831753,
				"element": "H" 
			},
			{
				"x": -3.4748331033,
				"y": 1.2984939904,
				"z": 2.0212852981,
				"element": "H" 
			},
			{
				"x": -0.7637376601,
				"y": -1.4808296297,
				"z": 1.4490324864,
				"element": "H" 
			},
			{
				"x": -1.5072211246,
				"y": 2.0715626074,
				"z": 1.3459791129,
				"element": "H" 
			},
			{
				"x": 1.5624585987,
				"y": 2.9944995119,
				"z": -1.502400872,
				"element": "H" 
			},
			{
				"x": 2.1227601358,
				"y": 0.5621386533,
				"z": -1.6373085003,
				"element": "H" 
			},
			{
				"x": 0.9690907837,
				"y": -3.2283402855,
				"z": 0.1390511181,
				"element": "H" 
			}
		],
		 "valence_orbital": [ 
			{
				"type": "occ",
				"energy": -0.31276,
				"method": "rhf"
			},
			{
				"type": "occ",
				"energy": -0.29624,
				"method": "rhf"
			},
			{
				"type": "occ",
				"energy": -0.26965,
				"method": "rhf"
			},
			{
				"type": "occ",
				"energy": -0.26421,
				"method": "rhf"
			},
			{
				"type": "occ",
				"energy": -0.2419,
				"method": "rhf"
			},
			{
				"type": "unocc",
				"energy": -0.06763,
				"method": "rhf"
			},
			{
				"type": "unocc",
				"energy": -0.03324,
				"method": "rhf"
			},
			{
				"type": "unocc",
				"energy": 0.01533,
				"method": "rhf"
			},
			{
				"type": "unocc",
				"energy": 0.01988,
				"method": "rhf"
			},
			{
				"type": "unocc",
				"energy": 0.03383,
				"method": "rhf"
			}
		],
		"cosmo_sigma_profile": { 
			"-0.025": 0.0,
			"-0.024": 0.0,
			"-0.023": 0.0,
			"-0.022": 0.0,
			"-0.021": 0.0,
			"-0.02": 0.0,
			"-0.019": 0.568966202449,
			"-0.018": 0.815497080628,
			"-0.017": 0.800976478492,
			"-0.016": 0.942946099374,
			"-0.015": 0.733273921699,
			"-0.014": 0.386447756856,
			"-0.013": 1.01446788818,
			"-0.012": 1.04018662298,
			"-0.011": 0.606629775459,
			"-0.01": 1.30241126361,
			"-0.009": 2.32917766035,
			"-0.008": 3.95577986121,
			"-0.007": 6.13110775736,
			"-0.006": 9.55030122458,
			"-0.005": 12.8576351414,
			"-0.004": 12.6347834564,
			"-0.003": 18.1043394402,
			"-0.002": 20.1909477335,
			"-0.001": 17.479282318,
			"0.0": 20.1884951897,
			"0.001": 22.5495812234,
			"0.002": 16.7053570295,
			"0.003": 11.8257555538,
			"0.004": 12.3709081269,
			"0.005": 3.17333129062,
			"0.006": 2.51838782791,
			"0.007": 2.09861532378,
			"0.008": 2.732750741,
			"0.009": 2.76410149273,
			"0.01": 4.43366428943,
			"0.011": 6.47315147219,
			"0.012": 5.1981807355,
			"0.013": 4.99046225404,
			"0.014": 1.10171493497,
			"0.015": 0.00516213880663,
			"0.016": 0.0,
			"0.017": 0.0,
			"0.018": 0.0,
			"0.019": 0.0,
			"0.02": 0.0,
			"0.021": 0.0,
			"0.022": 0.0,
			"0.023": 0.0,
			"0.024": 0.0,
			"0.025": 0.0
		}
	}
}
