{
	 "smiles": "BrCC(=O)C1=CC2=C(OCC(=O)N2)C=C1", 
	 "Tm": 464.15, 
	 "num_atms": 23, 
	 "gaussian": { 
		 "optdone": 1, 
		 "sigma_profile": "yes", 
		 "theory": "DFT", 
		 "functional": "B3LYP", 
		 "basiset": "6-31G**", 
		 "properties": { 
			 "R2extent": 7363.4116, 
			 "electric_dipole_moment_norm": 2.92083684241, 
			 "electric_quadrupole_moment_norm": 14.3590394076, 
			 "total_energy": -3237.71706459, 
			 "HOMO_LUMO_gap": 0.15611, 
			 "cosmo_polarized_energy": -16.19, 
			 "cosmo_cavitation_energy": 30.01, 
			 "cosmo_dispersion_energy": -22.55, 
			 "cosmo_repulsion_energy": 1.76, 
			 "cosmo_total_nonelectrostatic_energy": 9.22, 
			 "SMD_solvation_energy": 5.38 
		},
		"coords": [
			{
				"x": -0.3847222011,
				"y": -2.8581129196,
				"z": -4.2852590149,
				"element": "Br" 
			},
			{
				"x": 1.1387255716,
				"y": -3.575216139,
				"z": -3.2424338852,
				"element": "C" 
			},
			{
				"x": 0.9130715733,
				"y": -3.402528669,
				"z": -1.7429314254,
				"element": "C" 
			},
			{
				"x": 0.6518622303,
				"y": -4.3945749417,
				"z": -1.0783469525,
				"element": "O" 
			},
			{
				"x": 1.0600779258,
				"y": -2.0594488203,
				"z": -1.1199740061,
				"element": "C" 
			},
			{
				"x": 0.894731448,
				"y": -1.977220456,
				"z": 0.2728274153,
				"element": "C" 
			},
			{
				"x": 1.0341370999,
				"y": -0.7631800656,
				"z": 0.9305187326,
				"element": "C" 
			},
			{
				"x": 1.360485917,
				"y": 0.3932819504,
				"z": 0.1938600393,
				"element": "C" 
			},
			{
				"x": 1.4643695101,
				"y": 1.6028186118,
				"z": 0.8108386083,
				"element": "O" 
			},
			{
				"x": 1.839741057,
				"y": 1.5824748811,
				"z": 2.1931708502,
				"element": "C" 
			},
			{
				"x": 1.1639084188,
				"y": 0.495678336,
				"z": 3.0249933227,
				"element": "C" 
			},
			{
				"x": 0.9980428416,
				"y": 0.6081443725,
				"z": 4.2265689546,
				"element": "O" 
			},
			{
				"x": 0.8239050036,
				"y": -0.6251813849,
				"z": 2.3122509936,
				"element": "N" 
			},
			{
				"x": 1.5238862987,
				"y": 0.3203010421,
				"z": -1.1881917114,
				"element": "C" 
			},
			{
				"x": 1.3690647331,
				"y": -0.8978313196,
				"z": -1.8448120921,
				"element": "C" 
			},
			{
				"x": 1.1840899903,
				"y": -4.6378957469,
				"z": -3.466017555,
				"element": "H" 
			},
			{
				"x": 2.0252537654,
				"y": -3.0580551976,
				"z": -3.6083972285,
				"element": "H" 
			},
			{
				"x": 0.6477841546,
				"y": -2.8828024075,
				"z": 0.8183198012,
				"element": "H" 
			},
			{
				"x": 1.5662691196,
				"y": 2.5523361307,
				"z": 2.6081243527,
				"element": "H" 
			},
			{
				"x": 2.9291314384,
				"y": 1.4577549384,
				"z": 2.2835049544,
				"element": "H" 
			},
			{
				"x": 0.4311278378,
				"y": -1.3940692599,
				"z": 2.8407361745,
				"element": "H" 
			},
			{
				"x": 1.7602617862,
				"y": 1.229844498,
				"z": -1.7295631637,
				"element": "H" 
			},
			{
				"x": 1.4756944798,
				"y": -0.9296174332,
				"z": -2.9227871646,
				"element": "H" 
			}
		],
		 "valence_orbital": [ 
			{
				"type": "occ",
				"energy": -0.2863,
				"method": "rhf"
			},
			{
				"type": "occ",
				"energy": -0.27533,
				"method": "rhf"
			},
			{
				"type": "occ",
				"energy": -0.26298,
				"method": "rhf"
			},
			{
				"type": "occ",
				"energy": -0.25885,
				"method": "rhf"
			},
			{
				"type": "occ",
				"energy": -0.23356,
				"method": "rhf"
			},
			{
				"type": "unocc",
				"energy": -0.07745,
				"method": "rhf"
			},
			{
				"type": "unocc",
				"energy": -0.03117,
				"method": "rhf"
			},
			{
				"type": "unocc",
				"energy": -0.01674,
				"method": "rhf"
			},
			{
				"type": "unocc",
				"energy": 0.009,
				"method": "rhf"
			},
			{
				"type": "unocc",
				"energy": 0.05035,
				"method": "rhf"
			}
		],
		"cosmo_sigma_profile": { 
			"-0.025": 0.0,
			"-0.024": 0.0,
			"-0.023": 0.0,
			"-0.022": 0.0,
			"-0.021": 0.0,
			"-0.02": 0.0,
			"-0.019": 0.0,
			"-0.018": 0.0,
			"-0.017": 0.0,
			"-0.016": 0.872603462508,
			"-0.015": 1.05289930165,
			"-0.014": 1.57264390533,
			"-0.013": 1.45299637535,
			"-0.012": 1.03148058161,
			"-0.011": 1.2170805563,
			"-0.01": 1.05535666905,
			"-0.009": 5.5454657895,
			"-0.008": 11.0862476061,
			"-0.007": 12.7724776901,
			"-0.006": 12.5637258966,
			"-0.005": 12.8985603864,
			"-0.004": 11.2612935795,
			"-0.003": 11.7236348405,
			"-0.002": 11.3082516894,
			"-0.001": 12.1217084173,
			"0.0": 16.253481993,
			"0.001": 19.6301300932,
			"0.002": 18.6583770855,
			"0.003": 16.6078625554,
			"0.004": 13.0837557712,
			"0.005": 11.7394746074,
			"0.006": 3.44220735021,
			"0.007": 4.92672917493,
			"0.008": 4.51517460123,
			"0.009": 3.8508607125,
			"0.01": 4.07913926561,
			"0.011": 6.58572744069,
			"0.012": 6.67858118491,
			"0.013": 3.59985504005,
			"0.014": 0.151528590929,
			"0.015": 0.0,
			"0.016": 0.0,
			"0.017": 0.0,
			"0.018": 0.0,
			"0.019": 0.0,
			"0.02": 0.0,
			"0.021": 0.0,
			"0.022": 0.0,
			"0.023": 0.0,
			"0.024": 0.0,
			"0.025": 0.0
		}
	}
}
