{
	 "smiles": "CC1C(=CC2=CC=CC=C12)C1=CC=CC=C1", 
	 "Tm": 331.15, 
	 "num_atms": 30, 
	 "gaussian": { 
		 "optdone": 1, 
		 "sigma_profile": "yes", 
		 "theory": "DFT", 
		 "functional": "B3LYP", 
		 "basiset": "6-31G**", 
		 "properties": { 
			 "R2extent": 4593.1616, 
			 "electric_dipole_moment_norm": 0.648007824027, 
			 "electric_quadrupole_moment_norm": 8.37496563515, 
			 "total_energy": -618.146576334, 
			 "HOMO_LUMO_gap": 0.15686, 
			 "cosmo_polarized_energy": -6.08, 
			 "cosmo_cavitation_energy": 32.66, 
			 "cosmo_dispersion_energy": -23.52, 
			 "cosmo_repulsion_energy": 1.8, 
			 "cosmo_total_nonelectrostatic_energy": 10.94, 
			 "SMD_solvation_energy": 5.08 
		},
		"coords": [
			{
				"x": -2.7934409128,
				"y": 1.3882770612,
				"z": -0.7965790947,
				"element": "C" 
			},
			{
				"x": -1.2675935514,
				"y": 1.249739562,
				"z": -0.9712944452,
				"element": "C" 
			},
			{
				"x": -0.6828802299,
				"y": 0.0115944362,
				"z": -0.2887641322,
				"element": "C" 
			},
			{
				"x": 0.2587065035,
				"y": 0.3905266719,
				"z": 0.6144604918,
				"element": "C" 
			},
			{
				"x": 0.4053086297,
				"y": 1.8408152522,
				"z": 0.6243924649,
				"element": "C" 
			},
			{
				"x": 1.2411376247,
				"y": 2.6787183964,
				"z": 1.3675446447,
				"element": "C" 
			},
			{
				"x": 1.1671532377,
				"y": 4.058182635,
				"z": 1.1550824836,
				"element": "C" 
			},
			{
				"x": 0.276249394,
				"y": 4.5910307639,
				"z": 0.2172673738,
				"element": "C" 
			},
			{
				"x": -0.5607648648,
				"y": 3.7502582721,
				"z": -0.5299423473,
				"element": "C" 
			},
			{
				"x": -0.4910031715,
				"y": 2.3790841969,
				"z": -0.3239768784,
				"element": "C" 
			},
			{
				"x": -1.0985623529,
				"y": -1.3617486423,
				"z": -0.599461261,
				"element": "C" 
			},
			{
				"x": -0.9532592729,
				"y": -2.3961420922,
				"z": 0.3468293759,
				"element": "C" 
			},
			{
				"x": -1.3248825974,
				"y": -3.7032867849,
				"z": 0.0466393559,
				"element": "C" 
			},
			{
				"x": -1.8629218993,
				"y": -4.0145896487,
				"z": -1.2053435055,
				"element": "C" 
			},
			{
				"x": -2.0238952764,
				"y": -3.0020241652,
				"z": -2.1518705911,
				"element": "C" 
			},
			{
				"x": -1.6483316266,
				"y": -1.692867582,
				"z": -1.8529559502,
				"element": "C" 
			},
			{
				"x": -3.3197930895,
				"y": 0.5337441926,
				"z": -1.2310281444,
				"element": "H" 
			},
			{
				"x": -3.0519864384,
				"y": 1.4448374073,
				"z": 0.2649384232,
				"element": "H" 
			},
			{
				"x": -3.1575281796,
				"y": 2.2977584371,
				"z": -1.2844872129,
				"element": "H" 
			},
			{
				"x": -1.0427907845,
				"y": 1.2183960411,
				"z": -2.0483973258,
				"element": "H" 
			},
			{
				"x": 0.8533623346,
				"y": -0.2810958952,
				"z": 1.224556402,
				"element": "H" 
			},
			{
				"x": 1.9348886299,
				"y": 2.2690210367,
				"z": 2.0968347775,
				"element": "H" 
			},
			{
				"x": 1.8084978982,
				"y": 4.72505982,
				"z": 1.7246299566,
				"element": "H" 
			},
			{
				"x": 0.2337154392,
				"y": 5.6658093006,
				"z": 0.0656039787,
				"element": "H" 
			},
			{
				"x": -1.2485299569,
				"y": 4.1731076755,
				"z": -1.2582628578,
				"element": "H" 
			},
			{
				"x": -0.5641952704,
				"y": -2.1620630669,
				"z": 1.3331605778,
				"element": "H" 
			},
			{
				"x": -1.2050948597,
				"y": -4.4811011214,
				"z": 0.7957302931,
				"element": "H" 
			},
			{
				"x": -2.1574364909,
				"y": -5.0339385216,
				"z": -1.4371313711,
				"element": "H" 
			},
			{
				"x": -2.4396014045,
				"y": -3.2310666041,
				"z": -3.1291729148,
				"element": "H" 
			},
			{
				"x": -1.7634274613,
				"y": -0.9222370341,
				"z": -2.609002567,
				"element": "H" 
			}
		],
		 "valence_orbital": [ 
			{
				"type": "occ",
				"energy": -0.29672,
				"method": "rhf"
			},
			{
				"type": "occ",
				"energy": -0.2573,
				"method": "rhf"
			},
			{
				"type": "occ",
				"energy": -0.25041,
				"method": "rhf"
			},
			{
				"type": "occ",
				"energy": -0.24036,
				"method": "rhf"
			},
			{
				"type": "occ",
				"energy": -0.19876,
				"method": "rhf"
			},
			{
				"type": "unocc",
				"energy": -0.0419,
				"method": "rhf"
			},
			{
				"type": "unocc",
				"energy": -0.00108,
				"method": "rhf"
			},
			{
				"type": "unocc",
				"energy": 0.00313,
				"method": "rhf"
			},
			{
				"type": "unocc",
				"energy": 0.01964,
				"method": "rhf"
			},
			{
				"type": "unocc",
				"energy": 0.06473,
				"method": "rhf"
			}
		],
		"cosmo_sigma_profile": { 
			"-0.025": 0.0,
			"-0.024": 0.0,
			"-0.023": 0.0,
			"-0.022": 0.0,
			"-0.021": 0.0,
			"-0.02": 0.0,
			"-0.019": 0.0,
			"-0.018": 0.0,
			"-0.017": 0.0,
			"-0.016": 0.0,
			"-0.015": 0.0,
			"-0.014": 0.0,
			"-0.013": 0.0,
			"-0.012": 0.0,
			"-0.011": 0.0,
			"-0.01": 0.0,
			"-0.009": 0.0,
			"-0.008": 0.0,
			"-0.007": 0.064177860622,
			"-0.006": 8.41663892751,
			"-0.005": 22.3108440844,
			"-0.004": 25.4598892557,
			"-0.003": 28.3476986979,
			"-0.002": 20.5578676957,
			"-0.001": 21.6737220515,
			"0.0": 19.0649297088,
			"0.001": 18.7241195559,
			"0.002": 17.3565031533,
			"0.003": 18.343993556,
			"0.004": 21.6880425937,
			"0.005": 19.5764666955,
			"0.006": 15.8404933249,
			"0.007": 3.19021825355,
			"0.008": 0.0,
			"0.009": 0.0,
			"0.01": 0.0,
			"0.011": 0.0,
			"0.012": 0.0,
			"0.013": 0.0,
			"0.014": 0.0,
			"0.015": 0.0,
			"0.016": 0.0,
			"0.017": 0.0,
			"0.018": 0.0,
			"0.019": 0.0,
			"0.02": 0.0,
			"0.021": 0.0,
			"0.022": 0.0,
			"0.023": 0.0,
			"0.024": 0.0,
			"0.025": 0.0
		}
	}
}
