{
	 "smiles": "CC(C)N1C2CCC1CC(C2)C(O)=O", 
	 "Tm": 497.15, 
	 "num_atms": 33, 
	 "gaussian": { 
		 "optdone": 1, 
		 "sigma_profile": "yes", 
		 "theory": "DFT", 
		 "functional": "B3LYP", 
		 "basiset": "6-31G**", 
		 "properties": { 
			 "R2extent": 2615.1758, 
			 "electric_dipole_moment_norm": 1.93968337622, 
			 "electric_quadrupole_moment_norm": 6.95619660159, 
			 "total_energy": -635.834606981, 
			 "HOMO_LUMO_gap": 0.23915, 
			 "cosmo_polarized_energy": -9.54, 
			 "cosmo_cavitation_energy": 31.43, 
			 "cosmo_dispersion_energy": -22.17, 
			 "cosmo_repulsion_energy": 1.71, 
			 "cosmo_total_nonelectrostatic_energy": 10.97, 
			 "SMD_solvation_energy": 5.65 
		},
		"coords": [
			{
				"x": 0.1667488378,
				"y": -0.0621747623,
				"z": -2.6530373257,
				"element": "C" 
			},
			{
				"x": 1.1392891794,
				"y": -0.0046752857,
				"z": -1.4665165466,
				"element": "C" 
			},
			{
				"x": 2.1020522049,
				"y": 1.1765815442,
				"z": -1.6644026277,
				"element": "C" 
			},
			{
				"x": 0.4103281879,
				"y": 0.163441296,
				"z": -0.1912746344,
				"element": "N" 
			},
			{
				"x": 1.2255031824,
				"y": 0.0046507447,
				"z": 1.0362769961,
				"element": "C" 
			},
			{
				"x": 1.2561235684,
				"y": -1.5303411466,
				"z": 1.3211762924,
				"element": "C" 
			},
			{
				"x": -0.0050508645,
				"y": -2.0692156926,
				"z": 0.5984357682,
				"element": "C" 
			},
			{
				"x": -0.6991908844,
				"y": -0.7785549607,
				"z": 0.0906353052,
				"element": "C" 
			},
			{
				"x": -1.6083698435,
				"y": -0.1240217486,
				"z": 1.1793789692,
				"element": "C" 
			},
			{
				"x": -0.9355791544,
				"y": 1.1293307769,
				"z": 1.7613035656,
				"element": "C" 
			},
			{
				"x": 0.5223734595,
				"y": 0.8251189141,
				"z": 2.1573711232,
				"element": "C" 
			},
			{
				"x": -1.0794664034,
				"y": 2.2847834232,
				"z": 0.7769823788,
				"element": "C" 
			},
			{
				"x": -0.1339989353,
				"y": 3.2471243386,
				"z": 0.9384960168,
				"element": "O" 
			},
			{
				"x": -1.9917557987,
				"y": 2.4226195521,
				"z": -0.0118440307,
				"element": "O" 
			},
			{
				"x": -0.4088940821,
				"y": -0.9910648118,
				"z": -2.6854689483,
				"element": "H" 
			},
			{
				"x": -0.5347743971,
				"y": 0.7774427387,
				"z": -2.6063870333,
				"element": "H" 
			},
			{
				"x": 0.7244870764,
				"y": 0.0038962158,
				"z": -3.592146171,
				"element": "H" 
			},
			{
				"x": 1.7366118171,
				"y": -0.9364972645,
				"z": -1.4704706998,
				"element": "H" 
			},
			{
				"x": 2.6364626298,
				"y": 1.0724444398,
				"z": -2.6141620929,
				"element": "H" 
			},
			{
				"x": 1.5414449593,
				"y": 2.1165773786,
				"z": -1.6780826479,
				"element": "H" 
			},
			{
				"x": 2.8537109998,
				"y": 1.2463933731,
				"z": -0.873725895,
				"element": "H" 
			},
			{
				"x": 2.2317456088,
				"y": 0.3950389613,
				"z": 0.881006399,
				"element": "H" 
			},
			{
				"x": 2.1658274351,
				"y": -1.9802398976,
				"z": 0.9113846938,
				"element": "H" 
			},
			{
				"x": 1.2542212733,
				"y": -1.7429268237,
				"z": 2.3945394601,
				"element": "H" 
			},
			{
				"x": 0.2748091254,
				"y": -2.7061806567,
				"z": -0.2474872665,
				"element": "H" 
			},
			{
				"x": -0.6543811365,
				"y": -2.6653904667,
				"z": 1.2467883142,
				"element": "H" 
			},
			{
				"x": -1.2900649329,
				"y": -0.954278361,
				"z": -0.8068826631,
				"element": "H" 
			},
			{
				"x": -1.8051803511,
				"y": -0.8370962751,
				"z": 1.9875963152,
				"element": "H" 
			},
			{
				"x": -2.571114505,
				"y": 0.15965495,
				"z": 0.7488494287,
				"element": "H" 
			},
			{
				"x": -1.4866328118,
				"y": 1.4549110376,
				"z": 2.6553939689,
				"element": "H" 
			},
			{
				"x": 1.0570744164,
				"y": 1.759363697,
				"z": 2.3409717582,
				"element": "H" 
			},
			{
				"x": 0.5281710776,
				"y": 0.2624831782,
				"z": 3.0977915865,
				"element": "H" 
			},
			{
				"x": -0.3694309387,
				"y": 3.9439015936,
				"z": 0.3038102431,
				"element": "H" 
			}
		],
		 "valence_orbital": [ 
			{
				"type": "occ",
				"energy": -0.31211,
				"method": "rhf"
			},
			{
				"type": "occ",
				"energy": -0.30132,
				"method": "rhf"
			},
			{
				"type": "occ",
				"energy": -0.29881,
				"method": "rhf"
			},
			{
				"type": "occ",
				"energy": -0.25681,
				"method": "rhf"
			},
			{
				"type": "occ",
				"energy": -0.21105,
				"method": "rhf"
			},
			{
				"type": "unocc",
				"energy": 0.0281,
				"method": "rhf"
			},
			{
				"type": "unocc",
				"energy": 0.06315,
				"method": "rhf"
			},
			{
				"type": "unocc",
				"energy": 0.08409,
				"method": "rhf"
			},
			{
				"type": "unocc",
				"energy": 0.09129,
				"method": "rhf"
			},
			{
				"type": "unocc",
				"energy": 0.11966,
				"method": "rhf"
			}
		],
		"cosmo_sigma_profile": { 
			"-0.025": 0.0,
			"-0.024": 0.0,
			"-0.023": 0.0,
			"-0.022": 0.0,
			"-0.021": 0.0,
			"-0.02": 0.0,
			"-0.019": 0.0,
			"-0.018": 0.0787944544085,
			"-0.017": 0.680846868124,
			"-0.016": 0.924767358589,
			"-0.015": 0.546336149498,
			"-0.014": 0.963785590157,
			"-0.013": 0.80345800183,
			"-0.012": 0.501554946212,
			"-0.011": 0.461672278133,
			"-0.01": 0.759618722937,
			"-0.009": 0.512486144131,
			"-0.008": 0.804059914112,
			"-0.007": 0.749629795345,
			"-0.006": 1.59151094944,
			"-0.005": 4.14666096683,
			"-0.004": 8.98662767923,
			"-0.003": 26.4794280554,
			"-0.002": 43.0222921416,
			"-0.001": 35.8603665148,
			"0.0": 33.1859778285,
			"0.001": 28.9376938872,
			"0.002": 11.9213962499,
			"0.003": 3.917989779,
			"0.004": 3.81615221956,
			"0.005": 3.56670549544,
			"0.006": 4.04178082663,
			"0.007": 4.88919121471,
			"0.008": 5.79356752422,
			"0.009": 3.38864780288,
			"0.01": 1.83853463847,
			"0.011": 1.60998119158,
			"0.012": 3.1232752461,
			"0.013": 4.13919130946,
			"0.014": 0.075315033465,
			"0.015": 0.0,
			"0.016": 0.0,
			"0.017": 0.0,
			"0.018": 0.0,
			"0.019": 0.0,
			"0.02": 0.0,
			"0.021": 0.0,
			"0.022": 0.0,
			"0.023": 0.0,
			"0.024": 0.0,
			"0.025": 0.0
		}
	}
}
