{
	 "smiles": "C(C=CC1=CC=CC=C1)N1CCNCC1", 
	 "Tm": 314.65, 
	 "num_atms": 33, 
	 "gaussian": { 
		 "optdone": 1, 
		 "sigma_profile": "yes", 
		 "theory": "DFT", 
		 "functional": "B3LYP", 
		 "basiset": "6-31G**", 
		 "properties": { 
			 "R2extent": 4236.0572, 
			 "electric_dipole_moment_norm": 1.69131033817, 
			 "electric_quadrupole_moment_norm": 10.1881741146, 
			 "total_energy": -615.688441225, 
			 "HOMO_LUMO_gap": 0.17512, 
			 "cosmo_polarized_energy": -8.81, 
			 "cosmo_cavitation_energy": 33.83, 
			 "cosmo_dispersion_energy": -24.0, 
			 "cosmo_repulsion_energy": 1.88, 
			 "cosmo_total_nonelectrostatic_energy": 11.71, 
			 "SMD_solvation_energy": 2.49 
		},
		"coords": [
			{
				"x": 0.5765212284,
				"y": 1.2759477485,
				"z": -1.6760496142,
				"element": "C" 
			},
			{
				"x": -0.3896969486,
				"y": 2.3214278227,
				"z": -1.1689182429,
				"element": "C" 
			},
			{
				"x": -0.7834138763,
				"y": 2.5179097305,
				"z": 0.1017743015,
				"element": "C" 
			},
			{
				"x": -0.4459713884,
				"y": 1.7413860095,
				"z": 1.3074321698,
				"element": "C" 
			},
			{
				"x": -0.394459122,
				"y": 2.4054150411,
				"z": 2.5476134102,
				"element": "C" 
			},
			{
				"x": -0.0721980528,
				"y": 1.7211006759,
				"z": 3.7171204854,
				"element": "C" 
			},
			{
				"x": 0.1886798213,
				"y": 0.3492025543,
				"z": 3.6745901738,
				"element": "C" 
			},
			{
				"x": 0.1147024108,
				"y": -0.3283144714,
				"z": 2.4559015189,
				"element": "C" 
			},
			{
				"x": -0.2026298366,
				"y": 0.3546401417,
				"z": 1.2815634025,
				"element": "C" 
			},
			{
				"x": -0.0535378577,
				"y": 0.0043356105,
				"z": -2.0453396709,
				"element": "N" 
			},
			{
				"x": 0.9134524114,
				"y": -0.998518069,
				"z": -2.4764336015,
				"element": "C" 
			},
			{
				"x": 0.2499357256,
				"y": -2.3907421315,
				"z": -2.503099431,
				"element": "C" 
			},
			{
				"x": -1.1716498829,
				"y": -2.2693827299,
				"z": -2.8545064953,
				"element": "N" 
			},
			{
				"x": -1.4153851416,
				"y": -1.1587597434,
				"z": -3.7659296139,
				"element": "C" 
			},
			{
				"x": -1.1338760715,
				"y": 0.1670627758,
				"z": -3.0309330261,
				"element": "C" 
			},
			{
				"x": 1.3192324966,
				"y": 1.0583748049,
				"z": -0.8992893631,
				"element": "H" 
			},
			{
				"x": 1.1237578511,
				"y": 1.7096715784,
				"z": -2.5377463076,
				"element": "H" 
			},
			{
				"x": -0.7626362801,
				"y": 3.0230670668,
				"z": -1.9130203857,
				"element": "H" 
			},
			{
				"x": -1.4135937152,
				"y": 3.3876967471,
				"z": 0.2896987335,
				"element": "H" 
			},
			{
				"x": -0.5998501964,
				"y": 3.472595075,
				"z": 2.5862312941,
				"element": "H" 
			},
			{
				"x": -0.0297262129,
				"y": 2.255591719,
				"z": 4.6621545122,
				"element": "H" 
			},
			{
				"x": 0.433266541,
				"y": -0.1887441149,
				"z": 4.5862435617,
				"element": "H" 
			},
			{
				"x": 0.2920208369,
				"y": -1.3999179495,
				"z": 2.4199350411,
				"element": "H" 
			},
			{
				"x": -0.3049626457,
				"y": -0.1820833848,
				"z": 0.3423163104,
				"element": "H" 
			},
			{
				"x": 1.3478934538,
				"y": -0.7577397794,
				"z": -3.4669997138,
				"element": "H" 
			},
			{
				"x": 1.7497208254,
				"y": -1.009760523,
				"z": -1.7694927638,
				"element": "H" 
			},
			{
				"x": 0.3226152303,
				"y": -2.8541374416,
				"z": -1.5115165913,
				"element": "H" 
			},
			{
				"x": 0.8187707871,
				"y": -3.0268957465,
				"z": -3.2041501049,
				"element": "H" 
			},
			{
				"x": -1.5138350013,
				"y": -3.1398105261,
				"z": -3.2478607809,
				"element": "H" 
			},
			{
				"x": -0.8045230198,
				"y": -1.2072973969,
				"z": -4.6877328369,
				"element": "H" 
			},
			{
				"x": -2.4624387622,
				"y": -1.180732247,
				"z": -4.0849085658,
				"element": "H" 
			},
			{
				"x": -0.8817200153,
				"y": 0.9360822667,
				"z": -3.7864095106,
				"element": "H" 
			},
			{
				"x": -2.0288655923,
				"y": 0.5102288864,
				"z": -2.5014382952,
				"element": "H" 
			}
		],
		 "valence_orbital": [ 
			{
				"type": "occ",
				"energy": -0.27952,
				"method": "rhf"
			},
			{
				"type": "occ",
				"energy": -0.2413,
				"method": "rhf"
			},
			{
				"type": "occ",
				"energy": -0.22135,
				"method": "rhf"
			},
			{
				"type": "occ",
				"energy": -0.21759,
				"method": "rhf"
			},
			{
				"type": "occ",
				"energy": -0.19766,
				"method": "rhf"
			},
			{
				"type": "unocc",
				"energy": -0.02254,
				"method": "rhf"
			},
			{
				"type": "unocc",
				"energy": 0.00759,
				"method": "rhf"
			},
			{
				"type": "unocc",
				"energy": 0.05216,
				"method": "rhf"
			},
			{
				"type": "unocc",
				"energy": 0.07818,
				"method": "rhf"
			},
			{
				"type": "unocc",
				"energy": 0.09999,
				"method": "rhf"
			}
		],
		"cosmo_sigma_profile": { 
			"-0.025": 0.0,
			"-0.024": 0.0,
			"-0.023": 0.0,
			"-0.022": 0.0,
			"-0.021": 0.0,
			"-0.02": 0.0,
			"-0.019": 0.0,
			"-0.018": 0.0,
			"-0.017": 0.0,
			"-0.016": 0.0,
			"-0.015": 0.0,
			"-0.014": 0.0,
			"-0.013": 0.0,
			"-0.012": 0.0,
			"-0.011": 0.0254436147808,
			"-0.01": 0.977391237194,
			"-0.009": 1.29188035237,
			"-0.008": 0.948165153472,
			"-0.007": 1.24186695146,
			"-0.006": 3.70991697369,
			"-0.005": 12.7207356174,
			"-0.004": 20.1691995999,
			"-0.003": 25.6848993664,
			"-0.002": 43.0085612039,
			"-0.001": 42.5549755464,
			"0.0": 25.0009773242,
			"0.001": 12.0948982528,
			"0.002": 11.2705781234,
			"0.003": 12.5616892758,
			"0.004": 13.7807957674,
			"0.005": 13.5219079433,
			"0.006": 12.3297882989,
			"0.007": 2.27566974002,
			"0.008": 1.11474168201,
			"0.009": 1.09919723124,
			"0.01": 1.30207608598,
			"0.011": 0.727411667862,
			"0.012": 0.41812027424,
			"0.013": 0.651119988132,
			"0.014": 0.999752499386,
			"0.015": 0.894124616438,
			"0.016": 0.615947081056,
			"0.017": 0.920896604903,
			"0.018": 0.476439704662,
			"0.019": 0.461663293313,
			"0.02": 0.0247333060044,
			"0.021": 0.0,
			"0.022": 0.0,
			"0.023": 0.0,
			"0.024": 0.0,
			"0.025": 0.0
		}
	}
}
