{
	 "smiles": "COC1=CC=C2C[C@@H]3[C@@H]4C=C[C@H](O)[C@@H]5OC1=C2[C@]45CCN3C", 
	 "Tm": 429.15, 
	 "num_atms": 43, 
	 "gaussian": { 
		 "optdone": 1, 
		 "sigma_profile": "yes", 
		 "theory": "DFT", 
		 "functional": "B3LYP", 
		 "basiset": "6-31G**", 
		 "properties": { 
			 "R2extent": 6174.4325, 
			 "electric_dipole_moment_norm": 2.99777038147, 
			 "electric_quadrupole_moment_norm": 14.7371833886, 
			 "total_energy": -978.937759636, 
			 "HOMO_LUMO_gap": 0.20794, 
			 "cosmo_polarized_energy": -11.25, 
			 "cosmo_cavitation_energy": 40.08, 
			 "cosmo_dispersion_energy": -28.74, 
			 "cosmo_repulsion_energy": 2.15, 
			 "cosmo_total_nonelectrostatic_energy": 13.49, 
			 "SMD_solvation_energy": 4.69 
		},
		"coords": [
			{
				"x": -2.3913912642,
				"y": -2.923171855,
				"z": 1.9285804221,
				"element": "C" 
			},
			{
				"x": -1.0274474111,
				"y": -3.2693163435,
				"z": 1.6804361534,
				"element": "O" 
			},
			{
				"x": -0.2951898604,
				"y": -2.3805812169,
				"z": 0.9379119229,
				"element": "C" 
			},
			{
				"x": 0.5551353468,
				"y": -2.8840504943,
				"z": -0.0626983307,
				"element": "C" 
			},
			{
				"x": 1.4391755191,
				"y": -2.0649094085,
				"z": -0.7676196362,
				"element": "C" 
			},
			{
				"x": 1.4558579203,
				"y": -0.6761479869,
				"z": -0.5511963866,
				"element": "C" 
			},
			{
				"x": 2.5045568182,
				"y": 0.2692638104,
				"z": -1.1040739881,
				"element": "C" 
			},
			{
				"x": 2.3653590089,
				"y": 1.7498225253,
				"z": -0.6181451922,
				"element": "C" 
			},
			{
				"x": 1.8076521856,
				"y": 1.8688599595,
				"z": 0.8266092249,
				"element": "C" 
			},
			{
				"x": 2.6397065429,
				"y": 1.2160057031,
				"z": 1.9032252527,
				"element": "C" 
			},
			{
				"x": 2.0869429417,
				"y": 0.8794964692,
				"z": 3.0720934224,
				"element": "C" 
			},
			{
				"x": 0.6424741541,
				"y": 1.2033294004,
				"z": 3.3984365239,
				"element": "C" 
			},
			{
				"x": 0.1478115036,
				"y": 0.4749398539,
				"z": 4.5064233457,
				"element": "O" 
			},
			{
				"x": -0.3080391816,
				"y": 1.0598296802,
				"z": 2.1769848455,
				"element": "C" 
			},
			{
				"x": -0.867580937,
				"y": -0.3017736572,
				"z": 2.1707405917,
				"element": "O" 
			},
			{
				"x": -0.2508022323,
				"y": -1.001395565,
				"z": 1.1535198736,
				"element": "C" 
			},
			{
				"x": 0.5402085503,
				"y": -0.1829081765,
				"z": 0.3643502054,
				"element": "C" 
			},
			{
				"x": 0.3859336493,
				"y": 1.2538404382,
				"z": 0.8014560676,
				"element": "C" 
			},
			{
				"x": -0.4909764167,
				"y": 2.0735755916,
				"z": -0.1740178527,
				"element": "C" 
			},
			{
				"x": 0.140731504,
				"y": 2.1776858544,
				"z": -1.5649605832,
				"element": "C" 
			},
			{
				"x": 1.5345826947,
				"y": 2.6136399103,
				"z": -1.4772404562,
				"element": "N" 
			},
			{
				"x": 2.1119028336,
				"y": 2.8863143661,
				"z": -2.7830160653,
				"element": "C" 
			},
			{
				"x": -2.9408364224,
				"y": -2.7982411166,
				"z": 0.9864392854,
				"element": "H" 
			},
			{
				"x": -2.8182173154,
				"y": -3.7597996859,
				"z": 2.4851510726,
				"element": "H" 
			},
			{
				"x": -2.4798547585,
				"y": -2.0060362544,
				"z": 2.5185815736,
				"element": "H" 
			},
			{
				"x": 0.5381238745,
				"y": -3.9560173122,
				"z": -0.2332572168,
				"element": "H" 
			},
			{
				"x": 2.1283977752,
				"y": -2.5145160958,
				"z": -1.4778985319,
				"element": "H" 
			},
			{
				"x": 2.5185935427,
				"y": 0.2524276453,
				"z": -2.2010423688,
				"element": "H" 
			},
			{
				"x": 3.4899849477,
				"y": -0.1062218595,
				"z": -0.7976385239,
				"element": "H" 
			},
			{
				"x": 3.3694350445,
				"y": 2.1917686881,
				"z": -0.6297092664,
				"element": "H" 
			},
			{
				"x": 1.7331910346,
				"y": 2.9481810125,
				"z": 1.0249023443,
				"element": "H" 
			},
			{
				"x": 3.6957157437,
				"y": 1.0315022864,
				"z": 1.7132499062,
				"element": "H" 
			},
			{
				"x": 2.6637803806,
				"y": 0.4266075487,
				"z": 3.8745277971,
				"element": "H" 
			},
			{
				"x": 0.6010084368,
				"y": 2.2618584274,
				"z": 3.6975374783,
				"element": "H" 
			},
			{
				"x": -0.1756962265,
				"y": -0.3647341527,
				"z": 4.1454831527,
				"element": "H" 
			},
			{
				"x": -1.169172931,
				"y": 1.7188804081,
				"z": 2.3111461992,
				"element": "H" 
			},
			{
				"x": -0.6188022809,
				"y": 3.0812715128,
				"z": 0.241751701,
				"element": "H" 
			},
			{
				"x": -1.4857864088,
				"y": 1.6204591338,
				"z": -0.2556962839,
				"element": "H" 
			},
			{
				"x": -0.4087759634,
				"y": 2.9168451518,
				"z": -2.1598934753,
				"element": "H" 
			},
			{
				"x": 0.0366972263,
				"y": 1.2117546022,
				"z": -2.0940909098,
				"element": "H" 
			},
			{
				"x": 3.1374905614,
				"y": 3.2517599242,
				"z": -2.6653882489,
				"element": "H" 
			},
			{
				"x": 2.1380516061,
				"y": 2.0156241879,
				"z": -3.4651736941,
				"element": "H" 
			},
			{
				"x": 1.530168263,
				"y": 3.670677089,
				"z": -3.2794813513,
				"element": "H" 
			}
		],
		 "valence_orbital": [ 
			{
				"type": "occ",
				"energy": -0.26352,
				"method": "rhf"
			},
			{
				"type": "occ",
				"energy": -0.24919,
				"method": "rhf"
			},
			{
				"type": "occ",
				"energy": -0.22393,
				"method": "rhf"
			},
			{
				"type": "occ",
				"energy": -0.21111,
				"method": "rhf"
			},
			{
				"type": "occ",
				"energy": -0.20619,
				"method": "rhf"
			},
			{
				"type": "unocc",
				"energy": 0.00175,
				"method": "rhf"
			},
			{
				"type": "unocc",
				"energy": 0.00476,
				"method": "rhf"
			},
			{
				"type": "unocc",
				"energy": 0.02052,
				"method": "rhf"
			},
			{
				"type": "unocc",
				"energy": 0.07302,
				"method": "rhf"
			},
			{
				"type": "unocc",
				"energy": 0.0764,
				"method": "rhf"
			}
		],
		"cosmo_sigma_profile": { 
			"-0.025": 0.0,
			"-0.024": 0.0,
			"-0.023": 0.0,
			"-0.022": 0.0,
			"-0.021": 0.0,
			"-0.02": 0.0,
			"-0.019": 0.0,
			"-0.018": 0.0,
			"-0.017": 0.0,
			"-0.016": 0.0,
			"-0.015": 0.0,
			"-0.014": 0.0,
			"-0.013": 0.0,
			"-0.012": 0.0,
			"-0.011": 0.379194166115,
			"-0.01": 0.462548224846,
			"-0.009": 1.31512474408,
			"-0.008": 0.23268123896,
			"-0.007": 0.42888032117,
			"-0.006": 7.69458150598,
			"-0.005": 16.4574782086,
			"-0.004": 34.2803480293,
			"-0.003": 42.3752856271,
			"-0.002": 38.2640650871,
			"-0.001": 35.7165726708,
			"0.0": 29.9689852197,
			"0.001": 16.5183795228,
			"0.002": 12.3727207631,
			"0.003": 11.927151727,
			"0.004": 14.0776482159,
			"0.005": 12.7278204997,
			"0.006": 10.5771980572,
			"0.007": 6.87414006552,
			"0.008": 3.38677589734,
			"0.009": 2.73351343328,
			"0.01": 3.28166771928,
			"0.011": 2.79375318848,
			"0.012": 2.79532514468,
			"0.013": 2.12643826146,
			"0.014": 2.6924629999,
			"0.015": 0.44006110559,
			"0.016": 0.0,
			"0.017": 0.0,
			"0.018": 0.0,
			"0.019": 0.0,
			"0.02": 0.0,
			"0.021": 0.0,
			"0.022": 0.0,
			"0.023": 0.0,
			"0.024": 0.0,
			"0.025": 0.0
		}
	}
}
