{
	 "smiles": "OC(=O)CN(CC(O)=O)CC1=CC2=C(C(O)=C1O)C(=O)C1=CC=CC=C1C2=O", 
	 "Tm": 463.15, 
	 "num_atms": 43, 
	 "gaussian": { 
		 "optdone": 1, 
		 "sigma_profile": "yes", 
		 "theory": "DFT", 
		 "functional": "B3LYP", 
		 "basiset": "6-31G**", 
		 "properties": { 
			 "R2extent": 13923.3635, 
			 "electric_dipole_moment_norm": 3.15151699662, 
			 "electric_quadrupole_moment_norm": 12.5990909843, 
			 "total_energy": -1389.64643661, 
			 "HOMO_LUMO_gap": 0.10705, 
			 "cosmo_polarized_energy": -24.03, 
			 "cosmo_cavitation_energy": 47.98, 
			 "cosmo_dispersion_energy": -33.34, 
			 "cosmo_repulsion_energy": 2.46, 
			 "cosmo_total_nonelectrostatic_energy": 17.09, 
			 "SMD_solvation_energy": 9.92 
		},
		"coords": [
			{
				"x": -3.9777999715,
				"y": -2.4084737591,
				"z": -1.8520340554,
				"element": "O" 
			},
			{
				"x": -3.4218273011,
				"y": -1.6264825286,
				"z": -2.8057681813,
				"element": "C" 
			},
			{
				"x": -4.0728251606,
				"y": -1.0159215206,
				"z": -3.6250378234,
				"element": "O" 
			},
			{
				"x": -1.8960032223,
				"y": -1.5904943303,
				"z": -2.6973149573,
				"element": "C" 
			},
			{
				"x": -1.3673982421,
				"y": -0.7438931379,
				"z": -1.6381375591,
				"element": "N" 
			},
			{
				"x": -1.5186751624,
				"y": 0.6802917552,
				"z": -1.8169506287,
				"element": "C" 
			},
			{
				"x": -2.8900744641,
				"y": 1.2766759869,
				"z": -1.489345308,
				"element": "C" 
			},
			{
				"x": -2.9383656637,
				"y": 2.5828763067,
				"z": -1.8327836852,
				"element": "O" 
			},
			{
				"x": -3.8161608508,
				"y": 0.6988398178,
				"z": -0.9630196427,
				"element": "O" 
			},
			{
				"x": -1.4731129493,
				"y": -1.2482905392,
				"z": -0.2624855097,
				"element": "C" 
			},
			{
				"x": -0.2613558609,
				"y": -0.8596337718,
				"z": 0.5592259214,
				"element": "C" 
			},
			{
				"x": -0.3278646561,
				"y": 0.1329151017,
				"z": 1.5486639572,
				"element": "C" 
			},
			{
				"x": 0.7869243064,
				"y": 0.4995829332,
				"z": 2.2981268964,
				"element": "C" 
			},
			{
				"x": 2.0290210633,
				"y": -0.1463677184,
				"z": 2.0683461944,
				"element": "C" 
			},
			{
				"x": 2.1072208624,
				"y": -1.1454337892,
				"z": 1.085006907,
				"element": "C" 
			},
			{
				"x": 3.235302635,
				"y": -1.824245248,
				"z": 0.7979527571,
				"element": "O" 
			},
			{
				"x": 0.9630116795,
				"y": -1.4962228285,
				"z": 0.3320516469,
				"element": "C" 
			},
			{
				"x": 1.0687567449,
				"y": -2.4727867367,
				"z": -0.5982693857,
				"element": "O" 
			},
			{
				"x": 3.231273053,
				"y": 0.1926951622,
				"z": 2.833051389,
				"element": "C" 
			},
			{
				"x": 4.3142024638,
				"y": -0.3900942729,
				"z": 2.6218062899,
				"element": "O" 
			},
			{
				"x": 3.1271227066,
				"y": 1.2477906915,
				"z": 3.8680698006,
				"element": "C" 
			},
			{
				"x": 4.2602492244,
				"y": 1.5948617121,
				"z": 4.6146286508,
				"element": "C" 
			},
			{
				"x": 4.1753960996,
				"y": 2.5844698327,
				"z": 5.5904247404,
				"element": "C" 
			},
			{
				"x": 2.9579406479,
				"y": 3.2335479367,
				"z": 5.826479653,
				"element": "C" 
			},
			{
				"x": 1.8267240289,
				"y": 2.8933041599,
				"z": 5.0873654713,
				"element": "C" 
			},
			{
				"x": 1.8999388889,
				"y": 1.9010008137,
				"z": 4.104981682,
				"element": "C" 
			},
			{
				"x": 0.6670431247,
				"y": 1.5581370838,
				"z": 3.3276890495,
				"element": "C" 
			},
			{
				"x": -0.3933367374,
				"y": 2.1390643603,
				"z": 3.5439272432,
				"element": "O" 
			},
			{
				"x": -4.9394315942,
				"y": -2.2832724666,
				"z": -1.9222872811,
				"element": "H" 
			},
			{
				"x": -1.5244750029,
				"y": -1.2252170974,
				"z": -3.6593996132,
				"element": "H" 
			},
			{
				"x": -1.5198789163,
				"y": -2.6066687257,
				"z": -2.5422113201,
				"element": "H" 
			},
			{
				"x": -1.2744159452,
				"y": 0.9521224744,
				"z": -2.8498069324,
				"element": "H" 
			},
			{
				"x": -0.7930175253,
				"y": 1.2097986746,
				"z": -1.1850671933,
				"element": "H" 
			},
			{
				"x": -3.8216163079,
				"y": 2.9021863794,
				"z": -1.5810287223,
				"element": "H" 
			},
			{
				"x": -2.3868270033,
				"y": -0.9080561736,
				"z": 0.2391001392,
				"element": "H" 
			},
			{
				"x": -1.5266380174,
				"y": -2.3383077208,
				"z": -0.32372866,
				"element": "H" 
			},
			{
				"x": -1.2692810991,
				"y": 0.6338502861,
				"z": 1.7520658447,
				"element": "H" 
			},
			{
				"x": 3.9331031882,
				"y": -1.4608054873,
				"z": 1.4112905958,
				"element": "H" 
			},
			{
				"x": 1.9862075273,
				"y": -2.7922230648,
				"z": -0.5771545582,
				"element": "H" 
			},
			{
				"x": 5.1916804356,
				"y": 1.0770868254,
				"z": 4.4126335254,
				"element": "H" 
			},
			{
				"x": 5.0550487319,
				"y": 2.8520412678,
				"z": 6.1681838224,
				"element": "H" 
			},
			{
				"x": 2.8940401786,
				"y": 4.0050372605,
				"z": 6.5882608326,
				"element": "H" 
			},
			{
				"x": 0.8717740632,
				"y": 3.381114095,
				"z": 5.2509980069,
				"element": "H" 
			}
		],
		 "valence_orbital": [ 
			{
				"type": "occ",
				"energy": -0.27228,
				"method": "rhf"
			},
			{
				"type": "occ",
				"energy": -0.25985,
				"method": "rhf"
			},
			{
				"type": "occ",
				"energy": -0.25869,
				"method": "rhf"
			},
			{
				"type": "occ",
				"energy": -0.22833,
				"method": "rhf"
			},
			{
				"type": "occ",
				"energy": -0.2159,
				"method": "rhf"
			},
			{
				"type": "unocc",
				"energy": -0.10885,
				"method": "rhf"
			},
			{
				"type": "unocc",
				"energy": -0.05744,
				"method": "rhf"
			},
			{
				"type": "unocc",
				"energy": -0.02485,
				"method": "rhf"
			},
			{
				"type": "unocc",
				"energy": -0.00744,
				"method": "rhf"
			},
			{
				"type": "unocc",
				"energy": 0.00633,
				"method": "rhf"
			}
		],
		"cosmo_sigma_profile": { 
			"-0.025": 0.0,
			"-0.024": 0.0,
			"-0.023": 0.0,
			"-0.022": 0.0,
			"-0.021": 0.0,
			"-0.02": 0.0,
			"-0.019": 0.17474616657,
			"-0.018": 1.4731745043,
			"-0.017": 1.95831898557,
			"-0.016": 1.47566729976,
			"-0.015": 2.4132333244,
			"-0.014": 2.4695715275,
			"-0.013": 0.906432181632,
			"-0.012": 0.604707767384,
			"-0.011": 3.25607665328,
			"-0.01": 1.69278133596,
			"-0.009": 2.04168020702,
			"-0.008": 3.527661917,
			"-0.007": 12.4800330337,
			"-0.006": 21.5205301508,
			"-0.005": 27.0398008493,
			"-0.004": 23.0941879026,
			"-0.003": 26.7937342143,
			"-0.002": 25.5620636515,
			"-0.001": 27.1014620262,
			"0.0": 27.6710082012,
			"0.001": 31.1000800208,
			"0.002": 27.0823122244,
			"0.003": 13.9609766008,
			"0.004": 10.6774639406,
			"0.005": 13.6804574415,
			"0.006": 12.9565354343,
			"0.007": 10.3831207534,
			"0.008": 10.718824919,
			"0.009": 11.0922620723,
			"0.01": 8.22461840125,
			"0.011": 10.4555913288,
			"0.012": 8.29507937958,
			"0.013": 0.592596992381,
			"0.014": 0.0,
			"0.015": 0.0,
			"0.016": 0.0,
			"0.017": 0.0,
			"0.018": 0.0,
			"0.019": 0.0,
			"0.02": 0.0,
			"0.021": 0.0,
			"0.022": 0.0,
			"0.023": 0.0,
			"0.024": 0.0,
			"0.025": 0.0
		}
	}
}
