{
	 "smiles": "CCOC(=O)C1=C(N)SC=C1C1=CC(OC)=C(OC)C=C1", 
	 "Tm": 497.15, 
	 "num_atms": 38, 
	 "gaussian": { 
		 "optdone": 1, 
		 "sigma_profile": "yes", 
		 "theory": "DFT", 
		 "functional": "B3LYP", 
		 "basiset": "6-31G**", 
		 "properties": { 
			 "R2extent": 7633.5455, 
			 "electric_dipole_moment_norm": 0.699133413591, 
			 "electric_quadrupole_moment_norm": 11.3090707169, 
			 "total_energy": -1335.65663891, 
			 "HOMO_LUMO_gap": 0.17907, 
			 "cosmo_polarized_energy": -13.22, 
			 "cosmo_cavitation_energy": 43.15, 
			 "cosmo_dispersion_energy": -29.44, 
			 "cosmo_repulsion_energy": 2.24, 
			 "cosmo_total_nonelectrostatic_energy": 15.95, 
			 "SMD_solvation_energy": 9.19 
		},
		"coords": [
			{
				"x": 3.3281902348,
				"y": -1.1649320569,
				"z": -0.8858533968,
				"element": "C" 
			},
			{
				"x": 2.4774394283,
				"y": -2.4065513116,
				"z": -0.691249259,
				"element": "C" 
			},
			{
				"x": 1.1690123272,
				"y": -1.9699309011,
				"z": -0.2626999918,
				"element": "O" 
			},
			{
				"x": 0.2420128133,
				"y": -2.9340826899,
				"z": -0.09959501,
				"element": "C" 
			},
			{
				"x": 0.5106010181,
				"y": -4.1240782108,
				"z": -0.2795467749,
				"element": "O" 
			},
			{
				"x": -1.07268593,
				"y": -2.4458707901,
				"z": 0.3148151848,
				"element": "C" 
			},
			{
				"x": -2.0493443205,
				"y": -3.3855375522,
				"z": 0.665798062,
				"element": "C" 
			},
			{
				"x": -1.921863349,
				"y": -4.7354532077,
				"z": 0.6753703168,
				"element": "N" 
			},
			{
				"x": -3.5156043378,
				"y": -2.6169031867,
				"z": 1.2263447747,
				"element": "S" 
			},
			{
				"x": -2.8205371392,
				"y": -1.0299432341,
				"z": 0.9735660488,
				"element": "C" 
			},
			{
				"x": -1.5449082277,
				"y": -1.0771206071,
				"z": 0.493198943,
				"element": "C" 
			},
			{
				"x": -0.8289271326,
				"y": 0.1854626496,
				"z": 0.1752887131,
				"element": "C" 
			},
			{
				"x": -0.2788505773,
				"y": 0.418211406,
				"z": -1.094531115,
				"element": "C" 
			},
			{
				"x": 0.3376952837,
				"y": 1.6268247431,
				"z": -1.4026620094,
				"element": "C" 
			},
			{
				"x": 0.9026272541,
				"y": 1.7817269794,
				"z": -2.6525864627,
				"element": "O" 
			},
			{
				"x": 0.235503451,
				"y": 2.7246095979,
				"z": -3.4993650225,
				"element": "C" 
			},
			{
				"x": 0.4153680587,
				"y": 2.6449799655,
				"z": -0.4318237989,
				"element": "C" 
			},
			{
				"x": 1.0029066441,
				"y": 3.8612764225,
				"z": -0.7054287697,
				"element": "O" 
			},
			{
				"x": 2.4248183732,
				"y": 3.8182891774,
				"z": -0.869463634,
				"element": "C" 
			},
			{
				"x": -0.1501974409,
				"y": 2.429382262,
				"z": 0.8237512538,
				"element": "C" 
			},
			{
				"x": -0.7683247568,
				"y": 1.2153430766,
				"z": 1.1253035733,
				"element": "C" 
			},
			{
				"x": 3.4132323651,
				"y": -0.6009666969,
				"z": 0.0474346845,
				"element": "H" 
			},
			{
				"x": 2.8957763225,
				"y": -0.5076096971,
				"z": -1.6453477283,
				"element": "H" 
			},
			{
				"x": 4.3340202407,
				"y": -1.4538409839,
				"z": -1.2073832904,
				"element": "H" 
			},
			{
				"x": 2.3751982972,
				"y": -2.9842941455,
				"z": -1.615223822,
				"element": "H" 
			},
			{
				"x": 2.8938133442,
				"y": -3.0762161331,
				"z": 0.0683646432,
				"element": "H" 
			},
			{
				"x": -2.7402189185,
				"y": -5.3200346122,
				"z": 0.7219827048,
				"element": "H" 
			},
			{
				"x": -1.0728212334,
				"y": -5.0785145862,
				"z": 0.233683979,
				"element": "H" 
			},
			{
				"x": -3.4287322953,
				"y": -0.1528015647,
				"z": 1.1381631675,
				"element": "H" 
			},
			{
				"x": -0.3203732979,
				"y": -0.3426601126,
				"z": -1.8654187932,
				"element": "H" 
			},
			{
				"x": 0.7922910756,
				"y": 2.7414487171,
				"z": -4.4387515366,
				"element": "H" 
			},
			{
				"x": 0.2290617322,
				"y": 3.7248311369,
				"z": -3.0549607837,
				"element": "H" 
			},
			{
				"x": -0.7961251455,
				"y": 2.4065859019,
				"z": -3.6964663089,
				"element": "H" 
			},
			{
				"x": 2.7115261139,
				"y": 3.1644648078,
				"z": -1.69899523,
				"element": "H" 
			},
			{
				"x": 2.9113810884,
				"y": 3.4730670192,
				"z": 0.0516767741,
				"element": "H" 
			},
			{
				"x": 2.7399697907,
				"y": 4.8424334187,
				"z": -1.08042494,
				"element": "H" 
			},
			{
				"x": -0.0856225847,
				"y": 3.2246441584,
				"z": 1.5598564902,
				"element": "H" 
			},
			{
				"x": -1.1841085699,
				"y": 1.0515608403,
				"z": 2.1144783645,
				"element": "H" 
			}
		],
		 "valence_orbital": [ 
			{
				"type": "occ",
				"energy": -0.26252,
				"method": "rhf"
			},
			{
				"type": "occ",
				"energy": -0.25461,
				"method": "rhf"
			},
			{
				"type": "occ",
				"energy": -0.23608,
				"method": "rhf"
			},
			{
				"type": "occ",
				"energy": -0.22198,
				"method": "rhf"
			},
			{
				"type": "occ",
				"energy": -0.19444,
				"method": "rhf"
			},
			{
				"type": "unocc",
				"energy": -0.01537,
				"method": "rhf"
			},
			{
				"type": "unocc",
				"energy": -0.0119,
				"method": "rhf"
			},
			{
				"type": "unocc",
				"energy": 0.00563,
				"method": "rhf"
			},
			{
				"type": "unocc",
				"energy": 0.01247,
				"method": "rhf"
			},
			{
				"type": "unocc",
				"energy": 0.03604,
				"method": "rhf"
			}
		],
		"cosmo_sigma_profile": { 
			"-0.025": 0.0,
			"-0.024": 0.0,
			"-0.023": 0.0,
			"-0.022": 0.0,
			"-0.021": 0.0,
			"-0.02": 0.0,
			"-0.019": 0.0,
			"-0.018": 0.0,
			"-0.017": 0.0,
			"-0.016": 0.0,
			"-0.015": 0.690277868274,
			"-0.014": 1.31589181833,
			"-0.013": 1.5447418245,
			"-0.012": 1.4625313026,
			"-0.011": 1.18482285013,
			"-0.01": 1.28479263526,
			"-0.009": 2.46276991517,
			"-0.008": 2.89446489809,
			"-0.007": 3.60929145908,
			"-0.006": 6.04243516221,
			"-0.005": 17.632052,
			"-0.004": 27.834155409,
			"-0.003": 36.2309580306,
			"-0.002": 35.1582387478,
			"-0.001": 27.6440512415,
			"0.0": 27.5976256868,
			"0.001": 26.7408332915,
			"0.002": 25.3493067707,
			"0.003": 27.0175884485,
			"0.004": 24.505445751,
			"0.005": 13.8691274709,
			"0.006": 7.08158612778,
			"0.007": 5.62727974801,
			"0.008": 4.26628729101,
			"0.009": 4.68404067281,
			"0.01": 3.92869530838,
			"0.011": 3.14883872182,
			"0.012": 2.59617812622,
			"0.013": 0.92872321206,
			"0.014": 0.0,
			"0.015": 0.0,
			"0.016": 0.0,
			"0.017": 0.0,
			"0.018": 0.0,
			"0.019": 0.0,
			"0.02": 0.0,
			"0.021": 0.0,
			"0.022": 0.0,
			"0.023": 0.0,
			"0.024": 0.0,
			"0.025": 0.0
		}
	}
}
