{
	 "smiles": "[O-][N+](=O)C1=C(CNC(=O)CCl)C=CC=C1", 
	 "Tm": 367.15, 
	 "num_atms": 24, 
	 "gaussian": { 
		 "optdone": 1, 
		 "sigma_profile": "yes", 
		 "theory": "DFT", 
		 "functional": "B3LYP", 
		 "basiset": "6-31G**", 
		 "properties": { 
			 "R2extent": 4359.7419, 
			 "electric_dipole_moment_norm": 7.34109629415, 
			 "electric_quadrupole_moment_norm": 18.2548473395, 
			 "total_energy": -1143.65210189, 
			 "HOMO_LUMO_gap": 0.14988, 
			 "cosmo_polarized_energy": -20.46, 
			 "cosmo_cavitation_energy": 30.36, 
			 "cosmo_dispersion_energy": -21.87, 
			 "cosmo_repulsion_energy": 1.73, 
			 "cosmo_total_nonelectrostatic_energy": 10.21, 
			 "SMD_solvation_energy": 6.8 
		},
		"coords": [
			{
				"x": -0.7620776552,
				"y": -1.601977381,
				"z": -1.2047664639,
				"element": "O" 
			},
			{
				"x": 0.0688204568,
				"y": -1.975049738,
				"z": -0.3706301311,
				"element": "N" 
			},
			{
				"x": 0.1134156335,
				"y": -3.1157824972,
				"z": 0.0798564263,
				"element": "O" 
			},
			{
				"x": 1.0820819705,
				"y": -1.0077345999,
				"z": 0.0993792035,
				"element": "C" 
			},
			{
				"x": 1.0714770548,
				"y": 0.346823066,
				"z": -0.2954860663,
				"element": "C" 
			},
			{
				"x": 0.019656019,
				"y": 1.0166202141,
				"z": -1.1786550153,
				"element": "C" 
			},
			{
				"x": -1.3186366304,
				"y": 1.0796826454,
				"z": -0.6092369574,
				"element": "N" 
			},
			{
				"x": -1.8392264824,
				"y": 1.9937149174,
				"z": 0.2743850275,
				"element": "C" 
			},
			{
				"x": -2.9316695936,
				"y": 1.8390482983,
				"z": 0.7867896905,
				"element": "O" 
			},
			{
				"x": -0.9532941628,
				"y": 3.2247154553,
				"z": 0.5298438087,
				"element": "C" 
			},
			{
				"x": -1.7075988362,
				"y": 4.3894462234,
				"z": 1.6573048737,
				"element": "Cl" 
			},
			{
				"x": 2.1266162145,
				"y": 1.1369502363,
				"z": 0.1812344193,
				"element": "C" 
			},
			{
				"x": 3.1258005944,
				"y": 0.6298148155,
				"z": 1.0123191659,
				"element": "C" 
			},
			{
				"x": 3.0952621452,
				"y": -0.7092104724,
				"z": 1.3986675841,
				"element": "C" 
			},
			{
				"x": 2.0713835217,
				"y": -1.529040934,
				"z": 0.9366595326,
				"element": "C" 
			},
			{
				"x": 0.3665998407,
				"y": 2.0294621607,
				"z": -1.3993754487,
				"element": "H" 
			},
			{
				"x": -0.0536539979,
				"y": 0.4910735075,
				"z": -2.131779219,
				"element": "H" 
			},
			{
				"x": -1.8839952994,
				"y": 0.2467954149,
				"z": -0.7141565427,
				"element": "H" 
			},
			{
				"x": 0.0027283962,
				"y": 2.9217953523,
				"z": 0.9621292597,
				"element": "H" 
			},
			{
				"x": -0.7582607037,
				"y": 3.7541518016,
				"z": -0.4062013102,
				"element": "H" 
			},
			{
				"x": 2.1646999697,
				"y": 2.1815501188,
				"z": -0.1152066181,
				"element": "H" 
			},
			{
				"x": 3.9223024672,
				"y": 1.2823944403,
				"z": 1.3565747028,
				"element": "H" 
			},
			{
				"x": 3.8626471404,
				"y": -1.1168788462,
				"z": 2.0483191526,
				"element": "H" 
			},
			{
				"x": 2.0201219372,
				"y": -2.5759641991,
				"z": 1.2059309257,
				"element": "H" 
			}
		],
		 "valence_orbital": [ 
			{
				"type": "occ",
				"energy": -0.29937,
				"method": "rhf"
			},
			{
				"type": "occ",
				"energy": -0.29777,
				"method": "rhf"
			},
			{
				"type": "occ",
				"energy": -0.29153,
				"method": "rhf"
			},
			{
				"type": "occ",
				"energy": -0.26273,
				"method": "rhf"
			},
			{
				"type": "occ",
				"energy": -0.2587,
				"method": "rhf"
			},
			{
				"type": "unocc",
				"energy": -0.10882,
				"method": "rhf"
			},
			{
				"type": "unocc",
				"energy": -0.04519,
				"method": "rhf"
			},
			{
				"type": "unocc",
				"energy": -0.02151,
				"method": "rhf"
			},
			{
				"type": "unocc",
				"energy": 0.01564,
				"method": "rhf"
			},
			{
				"type": "unocc",
				"energy": 0.02232,
				"method": "rhf"
			}
		],
		"cosmo_sigma_profile": { 
			"-0.025": 0.0,
			"-0.024": 0.0,
			"-0.023": 0.0,
			"-0.022": 0.0,
			"-0.021": 0.0,
			"-0.02": 0.0,
			"-0.019": 0.0,
			"-0.018": 0.0,
			"-0.017": 0.0,
			"-0.016": 0.0,
			"-0.015": 0.0,
			"-0.014": 0.0,
			"-0.013": 0.0,
			"-0.012": 0.0364531453318,
			"-0.011": 0.858178480477,
			"-0.01": 3.56033847212,
			"-0.009": 5.30791831963,
			"-0.008": 7.30043123625,
			"-0.007": 16.7951759189,
			"-0.006": 19.0595002197,
			"-0.005": 15.4189676375,
			"-0.004": 14.7568776694,
			"-0.003": 13.3853909641,
			"-0.002": 13.4189023659,
			"-0.001": 14.2708039121,
			"0.0": 13.7958925919,
			"0.001": 15.8436582886,
			"0.002": 15.0428830147,
			"0.003": 8.73832711454,
			"0.004": 7.7681586065,
			"0.005": 9.61209907008,
			"0.006": 10.9440886103,
			"0.007": 8.4361361213,
			"0.008": 6.70589790194,
			"0.009": 6.0128779448,
			"0.01": 3.25848279855,
			"0.011": 1.72628074542,
			"0.012": 3.69781400736,
			"0.013": 6.01388412386,
			"0.014": 2.74896715358,
			"0.015": 0.278170608948,
			"0.016": 0.0,
			"0.017": 0.0,
			"0.018": 0.0,
			"0.019": 0.0,
			"0.02": 0.0,
			"0.021": 0.0,
			"0.022": 0.0,
			"0.023": 0.0,
			"0.024": 0.0,
			"0.025": 0.0
		}
	}
}
