{
	 "smiles": "FC1=C(C=C(C=C1)C#N)C(F)(F)F", 
	 "Tm": 341.15, 
	 "num_atms": 16, 
	 "gaussian": { 
		 "optdone": 1, 
		 "sigma_profile": "yes", 
		 "theory": "DFT", 
		 "functional": "B3LYP", 
		 "basiset": "6-31G**", 
		 "properties": { 
			 "R2extent": 2763.1513, 
			 "electric_dipole_moment_norm": 2.84434918742, 
			 "electric_quadrupole_moment_norm": 15.2103520028, 
			 "total_energy": -760.750231877, 
			 "HOMO_LUMO_gap": 0.20971, 
			 "cosmo_polarized_energy": -8.78, 
			 "cosmo_cavitation_energy": 23.97, 
			 "cosmo_dispersion_energy": -16.38, 
			 "cosmo_repulsion_energy": 1.22, 
			 "cosmo_total_nonelectrostatic_energy": 8.8, 
			 "SMD_solvation_energy": 7.18 
		},
		"coords": [
			{
				"x": 0.2221285406,
				"y": -1.8369459758,
				"z": 1.8761238669,
				"element": "F" 
			},
			{
				"x": 0.1652275834,
				"y": -0.8549463806,
				"z": 0.9669386198,
				"element": "C" 
			},
			{
				"x": -0.5792585511,
				"y": 0.2935289077,
				"z": 1.2534159068,
				"element": "C" 
			},
			{
				"x": -0.6328555775,
				"y": 1.3090806517,
				"z": 0.3030053144,
				"element": "C" 
			},
			{
				"x": 0.0501998459,
				"y": 1.1738758785,
				"z": -0.91609168,
				"element": "C" 
			},
			{
				"x": 0.7912111144,
				"y": 0.0092028332,
				"z": -1.1789283193,
				"element": "C" 
			},
			{
				"x": 0.8487443463,
				"y": -1.0091398336,
				"z": -0.2333074721,
				"element": "C" 
			},
			{
				"x": -0.0092359541,
				"y": 2.223503114,
				"z": -1.8906151267,
				"element": "C" 
			},
			{
				"x": -0.0550822888,
				"y": 3.0728183966,
				"z": -2.6837459081,
				"element": "N" 
			},
			{
				"x": -1.3036915619,
				"y": 0.4122315471,
				"z": 2.5715497055,
				"element": "C" 
			},
			{
				"x": -2.2068806725,
				"y": -0.5756564437,
				"z": 2.7266835705,
				"element": "F" 
			},
			{
				"x": -0.4483479463,
				"y": 0.3433091319,
				"z": 3.6104692509,
				"element": "F" 
			},
			{
				"x": -1.9630592235,
				"y": 1.5859982913,
				"z": 2.6630361797,
				"element": "F" 
			},
			{
				"x": -1.2051384153,
				"y": 2.2051607673,
				"z": 0.5095567712,
				"element": "H" 
			},
			{
				"x": 1.3174193332,
				"y": -0.0914532023,
				"z": -2.121820004,
				"element": "H" 
			},
			{
				"x": 1.4122194271,
				"y": -1.9184676833,
				"z": -0.4084706754,
				"element": "H" 
			}
		],
		 "valence_orbital": [ 
			{
				"type": "occ",
				"energy": -0.37103,
				"method": "rhf"
			},
			{
				"type": "occ",
				"energy": -0.35859,
				"method": "rhf"
			},
			{
				"type": "occ",
				"energy": -0.34527,
				"method": "rhf"
			},
			{
				"type": "occ",
				"energy": -0.30623,
				"method": "rhf"
			},
			{
				"type": "occ",
				"energy": -0.2795,
				"method": "rhf"
			},
			{
				"type": "unocc",
				"energy": -0.06979,
				"method": "rhf"
			},
			{
				"type": "unocc",
				"energy": -0.05747,
				"method": "rhf"
			},
			{
				"type": "unocc",
				"energy": 0.02126,
				"method": "rhf"
			},
			{
				"type": "unocc",
				"energy": 0.05153,
				"method": "rhf"
			},
			{
				"type": "unocc",
				"energy": 0.05841,
				"method": "rhf"
			}
		],
		"cosmo_sigma_profile": { 
			"-0.025": 0.0,
			"-0.024": 0.0,
			"-0.023": 0.0,
			"-0.022": 0.0,
			"-0.021": 0.0,
			"-0.02": 0.0,
			"-0.019": 0.0,
			"-0.018": 0.0,
			"-0.017": 0.0,
			"-0.016": 0.0,
			"-0.015": 0.0,
			"-0.014": 0.0,
			"-0.013": 0.0,
			"-0.012": 0.0,
			"-0.011": 0.0,
			"-0.01": 1.00715877321,
			"-0.009": 5.91854028226,
			"-0.008": 6.78119240785,
			"-0.007": 5.81835307631,
			"-0.006": 4.67974263381,
			"-0.005": 6.89217452169,
			"-0.004": 7.91071362165,
			"-0.003": 13.9365281872,
			"-0.002": 19.7570573028,
			"-0.001": 17.8619483735,
			"0.0": 12.59927885,
			"0.001": 11.8522393524,
			"0.002": 36.1574002451,
			"0.003": 18.8175320135,
			"0.004": 1.77860630707,
			"0.005": 3.01253675154,
			"0.006": 2.01577008363,
			"0.007": 3.1027023941,
			"0.008": 3.21131504614,
			"0.009": 3.42780328709,
			"0.01": 2.86470040421,
			"0.011": 2.85476660986,
			"0.012": 2.11106296078,
			"0.013": 0.803420545339,
			"0.014": 0.0,
			"0.015": 0.0,
			"0.016": 0.0,
			"0.017": 0.0,
			"0.018": 0.0,
			"0.019": 0.0,
			"0.02": 0.0,
			"0.021": 0.0,
			"0.022": 0.0,
			"0.023": 0.0,
			"0.024": 0.0,
			"0.025": 0.0
		}
	}
}
