{
	 "smiles": "CCOC(=O)C1=C(Cl)C2=C(N=C1)C(OC)=CC(OC)=C2", 
	 "Tm": 422.15, 
	 "num_atms": 34, 
	 "gaussian": { 
		 "optdone": 1, 
		 "sigma_profile": "yes", 
		 "theory": "DFT", 
		 "functional": "B3LYP", 
		 "basiset": "6-31G**", 
		 "properties": { 
			 "R2extent": 8011.6824, 
			 "electric_dipole_moment_norm": 1.98792522495, 
			 "electric_quadrupole_moment_norm": 21.7245372248, 
			 "total_energy": -1357.75206208, 
			 "HOMO_LUMO_gap": 0.13985, 
			 "cosmo_polarized_energy": -10.69, 
			 "cosmo_cavitation_energy": 39.89, 
			 "cosmo_dispersion_energy": -28.79, 
			 "cosmo_repulsion_energy": 2.21, 
			 "cosmo_total_nonelectrostatic_energy": 13.31, 
			 "SMD_solvation_energy": 8.5 
		},
		"coords": [
			{
				"x": 0.2583928934,
				"y": -5.8816674403,
				"z": -1.9284302349,
				"element": "C" 
			},
			{
				"x": -1.0576672362,
				"y": -5.1287053407,
				"z": -1.9084925579,
				"element": "C" 
			},
			{
				"x": -0.7697039914,
				"y": -3.7630287344,
				"z": -1.520224983,
				"element": "O" 
			},
			{
				"x": -1.8285683831,
				"y": -2.9433081728,
				"z": -1.4464951099,
				"element": "C" 
			},
			{
				"x": -2.9645057348,
				"y": -3.2840257587,
				"z": -1.7190094266,
				"element": "O" 
			},
			{
				"x": -1.4903595369,
				"y": -1.5352061619,
				"z": -1.0627448147,
				"element": "C" 
			},
			{
				"x": -0.4497721456,
				"y": -1.0870509005,
				"z": -0.2687605449,
				"element": "C" 
			},
			{
				"x": 0.6751771509,
				"y": -2.191709827,
				"z": 0.4925103057,
				"element": "Cl" 
			},
			{
				"x": -0.2824059248,
				"y": 0.3126434071,
				"z": -0.008753272,
				"element": "C" 
			},
			{
				"x": -1.2635688524,
				"y": 1.1899683027,
				"z": -0.5941801585,
				"element": "C" 
			},
			{
				"x": -2.2884208901,
				"y": 0.7363796749,
				"z": -1.3658461939,
				"element": "N" 
			},
			{
				"x": -2.3892034673,
				"y": -0.5514616965,
				"z": -1.5763661067,
				"element": "C" 
			},
			{
				"x": -1.1319736406,
				"y": 2.5973134669,
				"z": -0.3590205784,
				"element": "C" 
			},
			{
				"x": -1.9519741058,
				"y": 3.5503213689,
				"z": -0.868374207,
				"element": "O" 
			},
			{
				"x": -3.3585697429,
				"y": 3.333232622,
				"z": -1.0424068855,
				"element": "C" 
			},
			{
				"x": -0.0661379591,
				"y": 3.0808424814,
				"z": 0.3852052509,
				"element": "C" 
			},
			{
				"x": 0.892245579,
				"y": 2.2042604492,
				"z": 0.9337926274,
				"element": "C" 
			},
			{
				"x": 1.9560664973,
				"y": 2.6241036336,
				"z": 1.6717548882,
				"element": "O" 
			},
			{
				"x": 2.1370952681,
				"y": 4.0170420193,
				"z": 1.8849579881,
				"element": "C" 
			},
			{
				"x": 0.780636836,
				"y": 0.8344979846,
				"z": 0.752426769,
				"element": "C" 
			},
			{
				"x": 0.7266451597,
				"y": -5.8779910976,
				"z": -0.9403206398,
				"element": "H" 
			},
			{
				"x": 0.0840390502,
				"y": -6.9208551701,
				"z": -2.2243582289,
				"element": "H" 
			},
			{
				"x": 0.9552564637,
				"y": -5.4325757466,
				"z": -2.6416669726,
				"element": "H" 
			},
			{
				"x": -1.7681182571,
				"y": -5.5543490876,
				"z": -1.1931758808,
				"element": "H" 
			},
			{
				"x": -1.5440806904,
				"y": -5.1182628228,
				"z": -2.8888206291,
				"element": "H" 
			},
			{
				"x": -3.2179856162,
				"y": -0.901994654,
				"z": -2.1856092388,
				"element": "H" 
			},
			{
				"x": -3.782135707,
				"y": 2.7821286321,
				"z": -0.1972629706,
				"element": "H" 
			},
			{
				"x": -3.795132944,
				"y": 4.3342711301,
				"z": -1.081956012,
				"element": "H" 
			},
			{
				"x": -3.5688844685,
				"y": 2.7856029132,
				"z": -1.9605117048,
				"element": "H" 
			},
			{
				"x": -0.0094680367,
				"y": 4.1521261826,
				"z": 0.5281359795,
				"element": "H" 
			},
			{
				"x": 1.2978957266,
				"y": 4.4551688385,
				"z": 2.439524124,
				"element": "H" 
			},
			{
				"x": 3.0466325123,
				"y": 4.1109939566,
				"z": 2.4798440423,
				"element": "H" 
			},
			{
				"x": 2.2669967592,
				"y": 4.5586410396,
				"z": 0.9398342399,
				"element": "H" 
			},
			{
				"x": 1.5257574343,
				"y": 0.184954508,
				"z": 1.1906011365,
				"element": "H" 
			}
		],
		 "valence_orbital": [ 
			{
				"type": "occ",
				"energy": -0.28356,
				"method": "rhf"
			},
			{
				"type": "occ",
				"energy": -0.27652,
				"method": "rhf"
			},
			{
				"type": "occ",
				"energy": -0.25797,
				"method": "rhf"
			},
			{
				"type": "occ",
				"energy": -0.24419,
				"method": "rhf"
			},
			{
				"type": "occ",
				"energy": -0.20928,
				"method": "rhf"
			},
			{
				"type": "unocc",
				"energy": -0.06943,
				"method": "rhf"
			},
			{
				"type": "unocc",
				"energy": -0.02993,
				"method": "rhf"
			},
			{
				"type": "unocc",
				"energy": 0.01502,
				"method": "rhf"
			},
			{
				"type": "unocc",
				"energy": 0.02509,
				"method": "rhf"
			},
			{
				"type": "unocc",
				"energy": 0.03454,
				"method": "rhf"
			}
		],
		"cosmo_sigma_profile": { 
			"-0.025": 0.0,
			"-0.024": 0.0,
			"-0.023": 0.0,
			"-0.022": 0.0,
			"-0.021": 0.0,
			"-0.02": 0.0,
			"-0.019": 0.0,
			"-0.018": 0.0,
			"-0.017": 0.0,
			"-0.016": 0.0,
			"-0.015": 0.0,
			"-0.014": 0.0,
			"-0.013": 0.0,
			"-0.012": 0.0,
			"-0.011": 0.0,
			"-0.01": 0.0,
			"-0.009": 0.0,
			"-0.008": 0.314027724908,
			"-0.007": 2.63150055681,
			"-0.006": 11.8666801119,
			"-0.005": 22.2926356846,
			"-0.004": 32.7136181082,
			"-0.003": 33.5037815589,
			"-0.002": 27.9353670128,
			"-0.001": 31.1889571474,
			"0.0": 31.3716931876,
			"0.001": 24.0066926393,
			"0.002": 22.9472648448,
			"0.003": 21.0876110836,
			"0.004": 13.0127182036,
			"0.005": 9.79154773277,
			"0.006": 7.19551148225,
			"0.007": 7.8149250493,
			"0.008": 5.60714491073,
			"0.009": 4.5447404947,
			"0.01": 3.69424503472,
			"0.011": 4.09158436427,
			"0.012": 2.1315983939,
			"0.013": 0.0,
			"0.014": 0.0,
			"0.015": 0.0,
			"0.016": 0.0,
			"0.017": 0.0,
			"0.018": 0.0,
			"0.019": 0.0,
			"0.02": 0.0,
			"0.021": 0.0,
			"0.022": 0.0,
			"0.023": 0.0,
			"0.024": 0.0,
			"0.025": 0.0
		}
	}
}
