{
	 "smiles": "OC(=O)CC1=CC=C(NS(=O)(=O)C2=CC=C(F)C=C2)C=C1", 
	 "Tm": 454.15, 
	 "num_atms": 33, 
	 "gaussian": { 
		 "optdone": 1, 
		 "sigma_profile": "yes", 
		 "theory": "DFT", 
		 "functional": "B3LYP", 
		 "basiset": "6-31G**", 
		 "properties": { 
			 "R2extent": 9456.0581, 
			 "electric_dipole_moment_norm": 6.22010495812, 
			 "electric_quadrupole_moment_norm": 33.5541269652, 
			 "total_energy": -1394.32951021, 
			 "HOMO_LUMO_gap": 0.18792, 
			 "cosmo_polarized_energy": -24.01, 
			 "cosmo_cavitation_energy": 40.28, 
			 "cosmo_dispersion_energy": -28.31, 
			 "cosmo_repulsion_energy": 2.1, 
			 "cosmo_total_nonelectrostatic_energy": 14.08, 
			 "SMD_solvation_energy": 7.6 
		},
		"coords": [
			{
				"x": -0.5351649116,
				"y": -1.1032709587,
				"z": -4.8536463442,
				"element": "O" 
			},
			{
				"x": -1.7267418263,
				"y": -0.4832578285,
				"z": -5.0037554863,
				"element": "C" 
			},
			{
				"x": -2.3008718936,
				"y": -0.4869107437,
				"z": -6.0636173382,
				"element": "O" 
			},
			{
				"x": -2.2853072912,
				"y": 0.2552208301,
				"z": -3.7725422135,
				"element": "C" 
			},
			{
				"x": -1.6667260614,
				"y": -0.1004267244,
				"z": -2.4407359077,
				"element": "C" 
			},
			{
				"x": -2.1653284728,
				"y": -1.1619699246,
				"z": -1.6710249053,
				"element": "C" 
			},
			{
				"x": -1.5723878976,
				"y": -1.5172006806,
				"z": -0.4635691022,
				"element": "C" 
			},
			{
				"x": -0.4661188758,
				"y": -0.804538908,
				"z": 0.0208000773,
				"element": "C" 
			},
			{
				"x": 0.0768214967,
				"y": -1.1454191199,
				"z": 1.2833079966,
				"element": "N" 
			},
			{
				"x": 1.7530825773,
				"y": -1.3152381797,
				"z": 1.5776642374,
				"element": "S" 
			},
			{
				"x": 2.4735298566,
				"y": -1.524185058,
				"z": 0.3218217487,
				"element": "O" 
			},
			{
				"x": 1.7931600208,
				"y": -2.2859088196,
				"z": 2.6738771978,
				"element": "O" 
			},
			{
				"x": 2.2332186442,
				"y": 0.2876083388,
				"z": 2.2125634998,
				"element": "C" 
			},
			{
				"x": 1.713894422,
				"y": 0.7273032688,
				"z": 3.4345969395,
				"element": "C" 
			},
			{
				"x": 2.1179777508,
				"y": 1.9564796034,
				"z": 3.9447425314,
				"element": "C" 
			},
			{
				"x": 3.0406823681,
				"y": 2.7111822755,
				"z": 3.2217544929,
				"element": "C" 
			},
			{
				"x": 3.4302559403,
				"y": 3.8979019818,
				"z": 3.7154367605,
				"element": "F" 
			},
			{
				"x": 3.5738970464,
				"y": 2.2792882725,
				"z": 2.0119358452,
				"element": "C" 
			},
			{
				"x": 3.164845219,
				"y": 1.0473017802,
				"z": 1.5024482439,
				"element": "C" 
			},
			{
				"x": 0.0352853159,
				"y": 0.2667628435,
				"z": -0.7286121197,
				"element": "C" 
			},
			{
				"x": -0.556347895,
				"y": 0.6003948989,
				"z": -1.9449864867,
				"element": "C" 
			},
			{
				"x": -0.241303159,
				"y": -1.0286419127,
				"z": -3.9310967982,
				"element": "H" 
			},
			{
				"x": -2.1561726881,
				"y": 1.3238160911,
				"z": -3.9824112574,
				"element": "H" 
			},
			{
				"x": -3.3632271987,
				"y": 0.0727134104,
				"z": -3.7757439941,
				"element": "H" 
			},
			{
				"x": -3.0249354081,
				"y": -1.7248181949,
				"z": -2.0252191941,
				"element": "H" 
			},
			{
				"x": -1.9686472513,
				"y": -2.3520375625,
				"z": 0.1086979148,
				"element": "H" 
			},
			{
				"x": -0.3864396676,
				"y": -1.9174675871,
				"z": 1.7536023041,
				"element": "H" 
			},
			{
				"x": 1.0059567914,
				"y": 0.1135663103,
				"z": 3.9805597053,
				"element": "H" 
			},
			{
				"x": 1.7378258511,
				"y": 2.3347481444,
				"z": 4.8870144147,
				"element": "H" 
			},
			{
				"x": 4.2964988139,
				"y": 2.8981058748,
				"z": 1.4919488981,
				"element": "H" 
			},
			{
				"x": 3.5653286497,
				"y": 0.6682430633,
				"z": 0.5688954559,
				"element": "H" 
			},
			{
				"x": 0.8741592393,
				"y": 0.8459301287,
				"z": -0.3614804152,
				"element": "H" 
			},
			{
				"x": -0.1574995052,
				"y": 1.4393250865,
				"z": -2.5102267009,
				"element": "H" 
			}
		],
		 "valence_orbital": [ 
			{
				"type": "occ",
				"energy": -0.29349,
				"method": "rhf"
			},
			{
				"type": "occ",
				"energy": -0.28123,
				"method": "rhf"
			},
			{
				"type": "occ",
				"energy": -0.27734,
				"method": "rhf"
			},
			{
				"type": "occ",
				"energy": -0.27051,
				"method": "rhf"
			},
			{
				"type": "occ",
				"energy": -0.23955,
				"method": "rhf"
			},
			{
				"type": "unocc",
				"energy": -0.05163,
				"method": "rhf"
			},
			{
				"type": "unocc",
				"energy": -0.04336,
				"method": "rhf"
			},
			{
				"type": "unocc",
				"energy": -0.03134,
				"method": "rhf"
			},
			{
				"type": "unocc",
				"energy": -0.02852,
				"method": "rhf"
			},
			{
				"type": "unocc",
				"energy": 0.01613,
				"method": "rhf"
			}
		],
		"cosmo_sigma_profile": { 
			"-0.025": 0.0,
			"-0.024": 0.0,
			"-0.023": 0.0,
			"-0.022": 0.0,
			"-0.021": 0.0,
			"-0.02": 0.0,
			"-0.019": 0.0,
			"-0.018": 0.0,
			"-0.017": 0.0,
			"-0.016": 0.186800870299,
			"-0.015": 0.917712833951,
			"-0.014": 1.31287411422,
			"-0.013": 1.76083443711,
			"-0.012": 2.12845682437,
			"-0.011": 1.14076617728,
			"-0.01": 2.736499324,
			"-0.009": 3.64064015691,
			"-0.008": 11.9874881758,
			"-0.007": 19.8946941921,
			"-0.006": 21.1109165398,
			"-0.005": 19.9668102062,
			"-0.004": 17.5559401,
			"-0.003": 17.109457326,
			"-0.002": 14.912452264,
			"-0.001": 20.9107816737,
			"0.0": 22.8765594644,
			"0.001": 23.2009784072,
			"0.002": 15.63708264,
			"0.003": 20.5854453633,
			"0.004": 17.2738570742,
			"0.005": 5.97637754922,
			"0.006": 5.19473990442,
			"0.007": 6.19541153518,
			"0.008": 6.44853787638,
			"0.009": 8.46924490448,
			"0.01": 13.6733281939,
			"0.011": 10.7850578173,
			"0.012": 6.04207128058,
			"0.013": 3.00302498521,
			"0.014": 0.203951208606,
			"0.015": 0.0,
			"0.016": 0.0,
			"0.017": 0.0,
			"0.018": 0.0,
			"0.019": 0.0,
			"0.02": 0.0,
			"0.021": 0.0,
			"0.022": 0.0,
			"0.023": 0.0,
			"0.024": 0.0,
			"0.025": 0.0
		}
	}
}
