{
	 "smiles": "OC(=O)C1=CC(OC2=CC=C(Br)C=C2)=NC(Cl)=C1", 
	 "Tm": 487.15, 
	 "num_atms": 25, 
	 "gaussian": { 
		 "optdone": 1, 
		 "sigma_profile": "yes", 
		 "theory": "DFT", 
		 "functional": "B3LYP", 
		 "basiset": "6-31G**", 
		 "properties": { 
			 "R2extent": 10656.3319, 
			 "electric_dipole_moment_norm": 1.4072602922, 
			 "electric_quadrupole_moment_norm": 21.9775399076, 
			 "total_energy": -3773.50892174, 
			 "HOMO_LUMO_gap": 0.16996, 
			 "cosmo_polarized_energy": -18.16, 
			 "cosmo_cavitation_energy": 35.8, 
			 "cosmo_dispersion_energy": -25.99, 
			 "cosmo_repulsion_energy": 2.04, 
			 "cosmo_total_nonelectrostatic_energy": 11.84, 
			 "SMD_solvation_energy": 4.61 
		},
		"coords": [
			{
				"x": -1.5769677843,
				"y": -1.3968725663,
				"z": 4.2226086515,
				"element": "O" 
			},
			{
				"x": -0.5122187525,
				"y": -1.1169978805,
				"z": 3.4334455997,
				"element": "C" 
			},
			{
				"x": 0.4840980848,
				"y": -0.6184410665,
				"z": 3.8959055104,
				"element": "O" 
			},
			{
				"x": -0.6463236161,
				"y": -1.4616274888,
				"z": 1.9714963303,
				"element": "C" 
			},
			{
				"x": 0.1765758473,
				"y": -0.783702475,
				"z": 1.0716631145,
				"element": "C" 
			},
			{
				"x": 0.0561975946,
				"y": -1.1059741446,
				"z": -0.2852517342,
				"element": "C" 
			},
			{
				"x": 0.7748977906,
				"y": -0.5063111273,
				"z": -1.2721055353,
				"element": "O" 
			},
			{
				"x": 1.7745832279,
				"y": 0.4073197342,
				"z": -0.9500502931,
				"element": "C" 
			},
			{
				"x": 3.0316888894,
				"y": -0.0454635877,
				"z": -0.5506004798,
				"element": "C" 
			},
			{
				"x": 4.0480855245,
				"y": 0.8783305647,
				"z": -0.3085634251,
				"element": "C" 
			},
			{
				"x": 3.7911782863,
				"y": 2.239224642,
				"z": -0.4769930022,
				"element": "C" 
			},
			{
				"x": 5.1833242102,
				"y": 3.5033766639,
				"z": -0.1510136442,
				"element": "Br" 
			},
			{
				"x": 2.5363935218,
				"y": 2.6914883914,
				"z": -0.8842030364,
				"element": "C" 
			},
			{
				"x": 1.5194294038,
				"y": 1.7662725251,
				"z": -1.1212932459,
				"element": "C" 
			},
			{
				"x": -0.7902219301,
				"y": -2.0273037197,
				"z": -0.7488875594,
				"element": "N" 
			},
			{
				"x": -1.5418149222,
				"y": -2.6643645039,
				"z": 0.1253658094,
				"element": "C" 
			},
			{
				"x": -2.6298949799,
				"y": -3.8885453543,
				"z": -0.5137994067,
				"element": "Cl" 
			},
			{
				"x": -1.5308266224,
				"y": -2.4390982242,
				"z": 1.5036562159,
				"element": "C" 
			},
			{
				"x": -2.3432106982,
				"y": -1.6474975971,
				"z": 3.6873537117,
				"element": "H" 
			},
			{
				"x": 0.8746848599,
				"y": -0.0416024486,
				"z": 1.4347221663,
				"element": "H" 
			},
			{
				"x": 3.2125839333,
				"y": -1.1094946065,
				"z": -0.439694127,
				"element": "H" 
			},
			{
				"x": 5.0305673457,
				"y": 0.5428304967,
				"z": 0.0023264196,
				"element": "H" 
			},
			{
				"x": 2.3546447202,
				"y": 3.7517721221,
				"z": -1.0157250551,
				"element": "H" 
			},
			{
				"x": 0.5364429419,
				"y": 2.0892715659,
				"z": -1.4472563193,
				"element": "H" 
			},
			{
				"x": -2.1519968765,
				"y": -3.038989915,
				"z": 2.1581933344,
				"element": "H" 
			}
		],
		 "valence_orbital": [ 
			{
				"type": "occ",
				"energy": -0.2969,
				"method": "rhf"
			},
			{
				"type": "occ",
				"energy": -0.29299,
				"method": "rhf"
			},
			{
				"type": "occ",
				"energy": -0.28339,
				"method": "rhf"
			},
			{
				"type": "occ",
				"energy": -0.265,
				"method": "rhf"
			},
			{
				"type": "occ",
				"energy": -0.25183,
				"method": "rhf"
			},
			{
				"type": "unocc",
				"energy": -0.08187,
				"method": "rhf"
			},
			{
				"type": "unocc",
				"energy": -0.04023,
				"method": "rhf"
			},
			{
				"type": "unocc",
				"energy": -0.03236,
				"method": "rhf"
			},
			{
				"type": "unocc",
				"energy": -0.02845,
				"method": "rhf"
			},
			{
				"type": "unocc",
				"energy": -0.00361,
				"method": "rhf"
			}
		],
		"cosmo_sigma_profile": { 
			"-0.025": 0.0,
			"-0.024": 0.0,
			"-0.023": 0.0,
			"-0.022": 0.0,
			"-0.021": 0.0,
			"-0.02": 0.230470418614,
			"-0.019": 1.07678970363,
			"-0.018": 0.849841372658,
			"-0.017": 1.56708232081,
			"-0.016": 0.89471068901,
			"-0.015": 1.02753588374,
			"-0.014": 1.06856106147,
			"-0.013": 1.19798815548,
			"-0.012": 1.37616743546,
			"-0.011": 1.37587181129,
			"-0.01": 1.32567022612,
			"-0.009": 1.64314164358,
			"-0.008": 6.98273249729,
			"-0.007": 10.5194650196,
			"-0.006": 12.4936135114,
			"-0.005": 11.6988834686,
			"-0.004": 14.9277733338,
			"-0.003": 19.0526829181,
			"-0.002": 22.6441052397,
			"-0.001": 21.5588004651,
			"0.0": 18.385641671,
			"0.001": 24.580098264,
			"0.002": 27.1548441628,
			"0.003": 21.0535672797,
			"0.004": 22.1860070212,
			"0.005": 8.47440761311,
			"0.006": 5.17970682813,
			"0.007": 5.35013630715,
			"0.008": 5.12904506249,
			"0.009": 7.13304076328,
			"0.01": 6.69030094027,
			"0.011": 6.29351816115,
			"0.012": 2.68406270084,
			"0.013": 0.824864787684,
			"0.014": 0.0222368456759,
			"0.015": 0.0,
			"0.016": 0.0,
			"0.017": 0.0,
			"0.018": 0.0,
			"0.019": 0.0,
			"0.02": 0.0,
			"0.021": 0.0,
			"0.022": 0.0,
			"0.023": 0.0,
			"0.024": 0.0,
			"0.025": 0.0
		}
	}
}
