{
	 "smiles": "CC1=CS(=O)(=O)C2=C1C=CC=C2", 
	 "Tm": 418.15, 
	 "num_atms": 20, 
	 "gaussian": { 
		 "optdone": 1, 
		 "sigma_profile": "yes", 
		 "theory": "DFT", 
		 "functional": "B3LYP", 
		 "basiset": "6-31G**", 
		 "properties": { 
			 "R2extent": 2547.8402, 
			 "electric_dipole_moment_norm": 5.97617147093, 
			 "electric_quadrupole_moment_norm": 18.15641714, 
			 "total_energy": -896.32909471, 
			 "HOMO_LUMO_gap": 0.17883, 
			 "cosmo_polarized_energy": -15.73, 
			 "cosmo_cavitation_energy": 25.21, 
			 "cosmo_dispersion_energy": -19.09, 
			 "cosmo_repulsion_energy": 1.46, 
			 "cosmo_total_nonelectrostatic_energy": 7.58, 
			 "SMD_solvation_energy": 3.7 
		},
		"coords": [
			{
				"x": -2.2252840745,
				"y": 1.7491172889,
				"z": -2.0691494226,
				"element": "C" 
			},
			{
				"x": -1.539277904,
				"y": 0.4599195165,
				"z": -1.7303233153,
				"element": "C" 
			},
			{
				"x": -1.5975781962,
				"y": -0.665010457,
				"z": -2.4607387663,
				"element": "C" 
			},
			{
				"x": -0.6486796569,
				"y": -1.9962321556,
				"z": -1.7358614217,
				"element": "S" 
			},
			{
				"x": 0.5057711925,
				"y": -2.3321340041,
				"z": -2.5833177766,
				"element": "O" 
			},
			{
				"x": -1.535795182,
				"y": -3.0757135228,
				"z": -1.2759507307,
				"element": "O" 
			},
			{
				"x": -0.1454270663,
				"y": -0.9538558559,
				"z": -0.3570514608,
				"element": "C" 
			},
			{
				"x": -0.7056779066,
				"y": 0.3218870775,
				"z": -0.5067819095,
				"element": "C" 
			},
			{
				"x": -0.4389357033,
				"y": 1.2904243734,
				"z": 0.4606082102,
				"element": "C" 
			},
			{
				"x": 0.3780328333,
				"y": 0.9607372356,
				"z": 1.5493868168,
				"element": "C" 
			},
			{
				"x": 0.9245573018,
				"y": -0.3177142596,
				"z": 1.6761954317,
				"element": "C" 
			},
			{
				"x": 0.6636405291,
				"y": -1.2998334548,
				"z": 0.7100881173,
				"element": "C" 
			},
			{
				"x": -2.7911051709,
				"y": 1.6673765422,
				"z": -2.9991591527,
				"element": "H" 
			},
			{
				"x": -2.9156413146,
				"y": 2.0429263827,
				"z": -1.2697980662,
				"element": "H" 
			},
			{
				"x": -1.4953123787,
				"y": 2.5595957336,
				"z": -2.179369427,
				"element": "H" 
			},
			{
				"x": -2.1271809371,
				"y": -0.8408148693,
				"z": -3.3878125795,
				"element": "H" 
			},
			{
				"x": -0.8568749479,
				"y": 2.2887901283,
				"z": 0.3753746679,
				"element": "H" 
			},
			{
				"x": 0.5884695709,
				"y": 1.7115560142,
				"z": 2.3050346828,
				"element": "H" 
			},
			{
				"x": 1.5555926423,
				"y": -0.5552130902,
				"z": 2.526929628,
				"element": "H" 
			},
			{
				"x": 1.082006369,
				"y": -2.2975086238,
				"z": 0.7962964743,
				"element": "H" 
			}
		],
		 "valence_orbital": [ 
			{
				"type": "occ",
				"energy": -0.31749,
				"method": "rhf"
			},
			{
				"type": "occ",
				"energy": -0.29439,
				"method": "rhf"
			},
			{
				"type": "occ",
				"energy": -0.2879,
				"method": "rhf"
			},
			{
				"type": "occ",
				"energy": -0.27135,
				"method": "rhf"
			},
			{
				"type": "occ",
				"energy": -0.24987,
				"method": "rhf"
			},
			{
				"type": "unocc",
				"energy": -0.07104,
				"method": "rhf"
			},
			{
				"type": "unocc",
				"energy": -0.03389,
				"method": "rhf"
			},
			{
				"type": "unocc",
				"energy": 0.01896,
				"method": "rhf"
			},
			{
				"type": "unocc",
				"energy": 0.05889,
				"method": "rhf"
			},
			{
				"type": "unocc",
				"energy": 0.06318,
				"method": "rhf"
			}
		],
		"cosmo_sigma_profile": { 
			"-0.025": 0.0,
			"-0.024": 0.0,
			"-0.023": 0.0,
			"-0.022": 0.0,
			"-0.021": 0.0,
			"-0.02": 0.0,
			"-0.019": 0.0,
			"-0.018": 0.0,
			"-0.017": 0.0,
			"-0.016": 0.0,
			"-0.015": 0.0,
			"-0.014": 0.0,
			"-0.013": 0.0,
			"-0.012": 0.0,
			"-0.011": 0.0226378615915,
			"-0.01": 1.7247310284,
			"-0.009": 2.36942561139,
			"-0.008": 4.78329631196,
			"-0.007": 10.7463337994,
			"-0.006": 18.780081664,
			"-0.005": 17.1949147526,
			"-0.004": 13.330319332,
			"-0.003": 11.3657881774,
			"-0.002": 14.6070657077,
			"-0.001": 15.747083833,
			"0.0": 9.4133558246,
			"0.001": 12.5778919686,
			"0.002": 16.825833356,
			"0.003": 9.8380156893,
			"0.004": 2.0226715308,
			"0.005": 2.87600379067,
			"0.006": 2.56193378797,
			"0.007": 2.43439747883,
			"0.008": 2.81268850877,
			"0.009": 2.67742428779,
			"0.01": 6.5957447998,
			"0.011": 14.0712890016,
			"0.012": 6.90825094118,
			"0.013": 0.0135596057241,
			"0.014": 0.0,
			"0.015": 0.0,
			"0.016": 0.0,
			"0.017": 0.0,
			"0.018": 0.0,
			"0.019": 0.0,
			"0.02": 0.0,
			"0.021": 0.0,
			"0.022": 0.0,
			"0.023": 0.0,
			"0.024": 0.0,
			"0.025": 0.0
		}
	}
}
