{
	 "smiles": "CCS(=O)(=O)C1=CC(C(O)=O)=C(F)C=C1", 
	 "Tm": 403.15, 
	 "num_atms": 24, 
	 "gaussian": { 
		 "optdone": 1, 
		 "sigma_profile": "yes", 
		 "theory": "DFT", 
		 "functional": "B3LYP", 
		 "basiset": "6-31G**", 
		 "properties": { 
			 "R2extent": 4220.8597, 
			 "electric_dipole_moment_norm": 3.82830367003, 
			 "electric_quadrupole_moment_norm": 19.4942771205, 
			 "total_energy": -1147.25167462, 
			 "HOMO_LUMO_gap": 0.20612, 
			 "cosmo_polarized_energy": -19.33, 
			 "cosmo_cavitation_energy": 30.71, 
			 "cosmo_dispersion_energy": -22.04, 
			 "cosmo_repulsion_energy": 1.67, 
			 "cosmo_total_nonelectrostatic_energy": 10.34, 
			 "SMD_solvation_energy": 6.3 
		},
		"coords": [
			{
				"x": -0.6449536537,
				"y": -3.5227156093,
				"z": 0.1796036198,
				"element": "C" 
			},
			{
				"x": 0.8611029396,
				"y": -3.2887664282,
				"z": 0.1751772512,
				"element": "C" 
			},
			{
				"x": 1.4307530621,
				"y": -2.1714952277,
				"z": -1.147866496,
				"element": "S" 
			},
			{
				"x": 0.7751474748,
				"y": -2.581180435,
				"z": -2.4017037134,
				"element": "O" 
			},
			{
				"x": 2.8957285503,
				"y": -2.0917125021,
				"z": -1.0365705228,
				"element": "O" 
			},
			{
				"x": 0.7620173584,
				"y": -0.5577531443,
				"z": -0.7020590163,
				"element": "C" 
			},
			{
				"x": 1.4588582533,
				"y": 0.2447628604,
				"z": 0.1963378051,
				"element": "C" 
			},
			{
				"x": 0.9629214971,
				"y": 1.5085534769,
				"z": 0.5497625005,
				"element": "C" 
			},
			{
				"x": 1.6972215375,
				"y": 2.3817557941,
				"z": 1.5089293641,
				"element": "C" 
			},
			{
				"x": 2.8174764364,
				"y": 1.7772271502,
				"z": 1.98057548,
				"element": "O" 
			},
			{
				"x": 1.3679697177,
				"y": 3.4956864887,
				"z": 1.8524995169,
				"element": "O" 
			},
			{
				"x": -0.2422616938,
				"y": 1.9264655748,
				"z": -0.0416628938,
				"element": "C" 
			},
			{
				"x": -0.7646434769,
				"y": 3.1172955092,
				"z": 0.2546781683,
				"element": "F" 
			},
			{
				"x": -0.9327083703,
				"y": 1.1312618188,
				"z": -0.9538741868,
				"element": "C" 
			},
			{
				"x": -0.4286136175,
				"y": -0.1205956399,
				"z": -1.2903857828,
				"element": "C" 
			},
			{
				"x": -1.1955214918,
				"y": -2.6011823446,
				"z": 0.3900285706,
				"element": "H" 
			},
			{
				"x": -0.9001000956,
				"y": -4.2496832097,
				"z": 0.9563320958,
				"element": "H" 
			},
			{
				"x": -0.9767153175,
				"y": -3.9147789654,
				"z": -0.7844714804,
				"element": "H" 
			},
			{
				"x": 1.4201696625,
				"y": -4.2084033013,
				"z": -0.0255279338,
				"element": "H" 
			},
			{
				"x": 1.2331955477,
				"y": -2.8642238354,
				"z": 1.1118740025,
				"element": "H" 
			},
			{
				"x": 2.4010944088,
				"y": -0.0926500926,
				"z": 0.6111714033,
				"element": "H" 
			},
			{
				"x": 3.2307446483,
				"y": 2.4188017045,
				"z": 2.581337481,
				"element": "H" 
			},
			{
				"x": -1.8496038705,
				"y": 1.513528898,
				"z": -1.3883152392,
				"element": "H" 
			},
			{
				"x": -0.9323795067,
				"y": -0.7510985402,
				"z": -2.0149699939,
				"element": "H" 
			}
		],
		 "valence_orbital": [ 
			{
				"type": "occ",
				"energy": -0.30278,
				"method": "rhf"
			},
			{
				"type": "occ",
				"energy": -0.29444,
				"method": "rhf"
			},
			{
				"type": "occ",
				"energy": -0.2942,
				"method": "rhf"
			},
			{
				"type": "occ",
				"energy": -0.28633,
				"method": "rhf"
			},
			{
				"type": "occ",
				"energy": -0.27927,
				"method": "rhf"
			},
			{
				"type": "unocc",
				"energy": -0.07315,
				"method": "rhf"
			},
			{
				"type": "unocc",
				"energy": -0.04814,
				"method": "rhf"
			},
			{
				"type": "unocc",
				"energy": 0.02479,
				"method": "rhf"
			},
			{
				"type": "unocc",
				"energy": 0.05329,
				"method": "rhf"
			},
			{
				"type": "unocc",
				"energy": 0.07092,
				"method": "rhf"
			}
		],
		"cosmo_sigma_profile": { 
			"-0.025": 0.0,
			"-0.024": 0.0,
			"-0.023": 0.0,
			"-0.022": 0.0,
			"-0.021": 0.0,
			"-0.02": 0.0,
			"-0.019": 0.271998665441,
			"-0.018": 0.884210764625,
			"-0.017": 1.19532902104,
			"-0.016": 0.508774255232,
			"-0.015": 1.01751654709,
			"-0.014": 0.344051500581,
			"-0.013": 0.554776248199,
			"-0.012": 0.857780569236,
			"-0.011": 1.27226252367,
			"-0.01": 0.363230569475,
			"-0.009": 3.39669803947,
			"-0.008": 8.6211770638,
			"-0.007": 8.76497854651,
			"-0.006": 9.26873190477,
			"-0.005": 11.5223663344,
			"-0.004": 19.1801513428,
			"-0.003": 23.487013781,
			"-0.002": 25.0351510191,
			"-0.001": 24.7255831168,
			"0.0": 13.8602580027,
			"0.001": 8.53124727796,
			"0.002": 7.8138336624,
			"0.003": 10.6598776149,
			"0.004": 6.19631212838,
			"0.005": 5.40066115023,
			"0.006": 5.72486982827,
			"0.007": 5.12645396538,
			"0.008": 4.29804682741,
			"0.009": 5.8326478223,
			"0.01": 7.91350769738,
			"0.011": 13.9191003535,
			"0.012": 8.29579400299,
			"0.013": 0.248418447979,
			"0.014": 0.0,
			"0.015": 0.0,
			"0.016": 0.0,
			"0.017": 0.0,
			"0.018": 0.0,
			"0.019": 0.0,
			"0.02": 0.0,
			"0.021": 0.0,
			"0.022": 0.0,
			"0.023": 0.0,
			"0.024": 0.0,
			"0.025": 0.0
		}
	}
}
