{
	 "smiles": "CN1C(C)=C(C#N)C2=C1C=CC=C2", 
	 "Tm": 378.15, 
	 "num_atms": 23, 
	 "gaussian": { 
		 "optdone": 1, 
		 "sigma_profile": "yes", 
		 "theory": "DFT", 
		 "functional": "B3LYP", 
		 "basiset": "6-31G**", 
		 "properties": { 
			 "R2extent": 3010.4401, 
			 "electric_dipole_moment_norm": 6.38364139422, 
			 "electric_quadrupole_moment_norm": 23.6790689644, 
			 "total_energy": -534.70303586, 
			 "HOMO_LUMO_gap": 0.18484, 
			 "cosmo_polarized_energy": -13.37, 
			 "cosmo_cavitation_energy": 27.31, 
			 "cosmo_dispersion_energy": -19.28, 
			 "cosmo_repulsion_energy": 1.5, 
			 "cosmo_total_nonelectrostatic_energy": 9.53, 
			 "SMD_solvation_energy": 5.74 
		},
		"coords": [
			{
				"x": -1.3176857331,
				"y": -1.3581047767,
				"z": 2.1875230364,
				"element": "C" 
			},
			{
				"x": -1.4753653871,
				"y": -0.4879258872,
				"z": 1.0367287874,
				"element": "N" 
			},
			{
				"x": -2.2456912211,
				"y": 0.6532253935,
				"z": 0.962636626,
				"element": "C" 
			},
			{
				"x": -3.0554314591,
				"y": 1.1689944999,
				"z": 2.105941405,
				"element": "C" 
			},
			{
				"x": -2.1230771797,
				"y": 1.1915704223,
				"z": -0.3118164875,
				"element": "C" 
			},
			{
				"x": -2.7678965566,
				"y": 2.3670981799,
				"z": -0.766893224,
				"element": "C" 
			},
			{
				"x": -3.2970228731,
				"y": 3.3346318327,
				"z": -1.1454127795,
				"element": "N" 
			},
			{
				"x": -1.2321045972,
				"y": 0.340903591,
				"z": -1.0646686817,
				"element": "C" 
			},
			{
				"x": -0.8474528048,
				"y": -0.7003129528,
				"z": -0.1858948144,
				"element": "C" 
			},
			{
				"x": 0.0221194674,
				"y": -1.7219334731,
				"z": -0.5793964964,
				"element": "C" 
			},
			{
				"x": 0.5057386301,
				"y": -1.6820320406,
				"z": -1.884025675,
				"element": "C" 
			},
			{
				"x": 0.132761987,
				"y": -0.6529268865,
				"z": -2.7706405367,
				"element": "C" 
			},
			{
				"x": -0.7325080707,
				"y": 0.3606546139,
				"z": -2.3740397184,
				"element": "C" 
			},
			{
				"x": -1.6610995797,
				"y": -2.3719118349,
				"z": 1.9551896658,
				"element": "H" 
			},
			{
				"x": -1.9047597251,
				"y": -0.9761298652,
				"z": 3.0219238114,
				"element": "H" 
			},
			{
				"x": -0.267228084,
				"y": -1.4058319023,
				"z": 2.4938731568,
				"element": "H" 
			},
			{
				"x": -3.5728002961,
				"y": 2.0801001072,
				"z": 1.7996523783,
				"element": "H" 
			},
			{
				"x": -2.4309468541,
				"y": 1.4119015231,
				"z": 2.9738025186,
				"element": "H" 
			},
			{
				"x": -3.8119860434,
				"y": 0.4453158552,
				"z": 2.4316243447,
				"element": "H" 
			},
			{
				"x": 0.312133191,
				"y": -2.5170028735,
				"z": 0.1004157726,
				"element": "H" 
			},
			{
				"x": 1.1833326889,
				"y": -2.4594975252,
				"z": -2.2238581998,
				"element": "H" 
			},
			{
				"x": 0.529498061,
				"y": -0.6535440208,
				"z": -3.7814014943,
				"element": "H" 
			},
			{
				"x": -1.0187275603,
				"y": 1.15295802,
				"z": -3.0590633952,
				"element": "H" 
			}
		],
		 "valence_orbital": [ 
			{
				"type": "occ",
				"energy": -0.33094,
				"method": "rhf"
			},
			{
				"type": "occ",
				"energy": -0.31325,
				"method": "rhf"
			},
			{
				"type": "occ",
				"energy": -0.27519,
				"method": "rhf"
			},
			{
				"type": "occ",
				"energy": -0.23209,
				"method": "rhf"
			},
			{
				"type": "occ",
				"energy": -0.21242,
				"method": "rhf"
			},
			{
				"type": "unocc",
				"energy": -0.02758,
				"method": "rhf"
			},
			{
				"type": "unocc",
				"energy": 0.01068,
				"method": "rhf"
			},
			{
				"type": "unocc",
				"energy": 0.01592,
				"method": "rhf"
			},
			{
				"type": "unocc",
				"energy": 0.04133,
				"method": "rhf"
			},
			{
				"type": "unocc",
				"energy": 0.07128,
				"method": "rhf"
			}
		],
		"cosmo_sigma_profile": { 
			"-0.025": 0.0,
			"-0.024": 0.0,
			"-0.023": 0.0,
			"-0.022": 0.0,
			"-0.021": 0.0,
			"-0.02": 0.0,
			"-0.019": 0.0,
			"-0.018": 0.0,
			"-0.017": 0.0,
			"-0.016": 0.0,
			"-0.015": 0.0,
			"-0.014": 0.0,
			"-0.013": 0.0,
			"-0.012": 0.0,
			"-0.011": 0.0,
			"-0.01": 0.0,
			"-0.009": 0.0,
			"-0.008": 0.0119250599772,
			"-0.007": 4.4277989813,
			"-0.006": 19.2966284425,
			"-0.005": 22.1526953823,
			"-0.004": 21.9588119055,
			"-0.003": 22.2369066023,
			"-0.002": 18.0354725384,
			"-0.001": 11.4541844588,
			"0.0": 10.5337879632,
			"0.001": 12.4319544615,
			"0.002": 11.7344739052,
			"0.003": 12.1965657686,
			"0.004": 10.3323368286,
			"0.005": 11.1520728039,
			"0.006": 8.49849966484,
			"0.007": 2.75383096087,
			"0.008": 2.42100253331,
			"0.009": 2.78992335479,
			"0.01": 3.74626604259,
			"0.011": 3.52119005857,
			"0.012": 3.06205681182,
			"0.013": 2.63968079809,
			"0.014": 1.69023484097,
			"0.015": 0.0693427209725,
			"0.016": 0.0,
			"0.017": 0.0,
			"0.018": 0.0,
			"0.019": 0.0,
			"0.02": 0.0,
			"0.021": 0.0,
			"0.022": 0.0,
			"0.023": 0.0,
			"0.024": 0.0,
			"0.025": 0.0
		}
	}
}
