{
	 "smiles": "FC1=C(CN2C=CN=C2)C=C(C=C1)C#N", 
	 "Tm": 365.15, 
	 "num_atms": 23, 
	 "gaussian": { 
		 "optdone": 1, 
		 "sigma_profile": "yes", 
		 "theory": "DFT", 
		 "functional": "B3LYP", 
		 "basiset": "6-31G**", 
		 "properties": { 
			 "R2extent": 4440.5495, 
			 "electric_dipole_moment_norm": 4.90717065324, 
			 "electric_quadrupole_moment_norm": 25.3154406946, 
			 "total_energy": -688.051338005, 
			 "HOMO_LUMO_gap": 0.16566, 
			 "cosmo_polarized_energy": -17.89, 
			 "cosmo_cavitation_energy": 29.44, 
			 "cosmo_dispersion_energy": -20.21, 
			 "cosmo_repulsion_energy": 1.54, 
			 "cosmo_total_nonelectrostatic_energy": 10.77, 
			 "SMD_solvation_energy": 5.73 
		},
		"coords": [
			{
				"x": -1.1157996735,
				"y": -1.2579913967,
				"z": 1.7394608143,
				"element": "F" 
			},
			{
				"x": -1.4724147887,
				"y": -1.262982056,
				"z": 0.4367227737,
				"element": "C" 
			},
			{
				"x": -0.7199386631,
				"y": -2.0317288203,
				"z": -0.4552063197,
				"element": "C" 
			},
			{
				"x": 0.4774424554,
				"y": -2.8282284038,
				"z": 0.0271360767,
				"element": "C" 
			},
			{
				"x": 1.7145689307,
				"y": -2.0546384032,
				"z": 0.0609994653,
				"element": "N" 
			},
			{
				"x": 2.046327507,
				"y": -1.0556375798,
				"z": 0.9588560562,
				"element": "C" 
			},
			{
				"x": 3.2770596749,
				"y": -0.5989876811,
				"z": 0.5581441732,
				"element": "C" 
			},
			{
				"x": 3.7129722537,
				"y": -1.2805186339,
				"z": -0.5565803817,
				"element": "N" 
			},
			{
				"x": 2.7543748337,
				"y": -2.1375117341,
				"z": -0.8285202532,
				"element": "C" 
			},
			{
				"x": -1.1102476361,
				"y": -2.0220527045,
				"z": -1.7942008274,
				"element": "C" 
			},
			{
				"x": -2.2159445851,
				"y": -1.267457986,
				"z": -2.2201386046,
				"element": "C" 
			},
			{
				"x": -2.9458441175,
				"y": -0.506857378,
				"z": -1.2907934853,
				"element": "C" 
			},
			{
				"x": -2.5706998749,
				"y": -0.5051811978,
				"z": 0.0484168942,
				"element": "C" 
			},
			{
				"x": -2.6023381256,
				"y": -1.280571908,
				"z": -3.6006263902,
				"element": "C" 
			},
			{
				"x": -2.9178274182,
				"y": -1.2937222877,
				"z": -4.7200697912,
				"element": "N" 
			},
			{
				"x": 0.2834800912,
				"y": -3.2233957185,
				"z": 1.0278153982,
				"element": "H" 
			},
			{
				"x": 0.6432720726,
				"y": -3.6793518002,
				"z": -0.6378701516,
				"element": "H" 
			},
			{
				"x": 1.3878457087,
				"y": -0.7808649703,
				"z": 1.76771165,
				"element": "H" 
			},
			{
				"x": 3.8758488302,
				"y": 0.177888434,
				"z": 1.0133636201,
				"element": "H" 
			},
			{
				"x": 2.7517188418,
				"y": -2.8518683039,
				"z": -1.6418302675,
				"element": "H" 
			},
			{
				"x": -0.5536982507,
				"y": -2.6064172557,
				"z": -2.5202762878,
				"element": "H" 
			},
			{
				"x": -3.7993477101,
				"y": 0.0744632834,
				"z": -1.6214485586,
				"element": "H" 
			},
			{
				"x": -3.1125103566,
				"y": 0.0688145021,
				"z": 0.7915343969,
				"element": "H" 
			}
		],
		 "valence_orbital": [ 
			{
				"type": "occ",
				"energy": -0.29852,
				"method": "rhf"
			},
			{
				"type": "occ",
				"energy": -0.27704,
				"method": "rhf"
			},
			{
				"type": "occ",
				"energy": -0.27048,
				"method": "rhf"
			},
			{
				"type": "occ",
				"energy": -0.26475,
				"method": "rhf"
			},
			{
				"type": "occ",
				"energy": -0.22946,
				"method": "rhf"
			},
			{
				"type": "unocc",
				"energy": -0.0638,
				"method": "rhf"
			},
			{
				"type": "unocc",
				"energy": -0.05041,
				"method": "rhf"
			},
			{
				"type": "unocc",
				"energy": 0.02107,
				"method": "rhf"
			},
			{
				"type": "unocc",
				"energy": 0.02542,
				"method": "rhf"
			},
			{
				"type": "unocc",
				"energy": 0.05791,
				"method": "rhf"
			}
		],
		"cosmo_sigma_profile": { 
			"-0.025": 0.0,
			"-0.024": 0.0,
			"-0.023": 0.0,
			"-0.022": 0.0,
			"-0.021": 0.0,
			"-0.02": 0.0,
			"-0.019": 0.0,
			"-0.018": 0.0,
			"-0.017": 0.0,
			"-0.016": 0.0,
			"-0.015": 0.0,
			"-0.014": 0.0,
			"-0.013": 0.0,
			"-0.012": 0.0,
			"-0.011": 0.0,
			"-0.01": 1.69512935467,
			"-0.009": 7.87365102646,
			"-0.008": 11.1030566721,
			"-0.007": 12.7513147498,
			"-0.006": 13.5544096023,
			"-0.005": 13.7333186885,
			"-0.004": 13.6792275072,
			"-0.003": 12.9203018926,
			"-0.002": 17.1090645048,
			"-0.001": 20.0543316639,
			"0.0": 19.6007444853,
			"0.001": 15.1368364245,
			"0.002": 9.79048224042,
			"0.003": 12.0015679995,
			"0.004": 6.91789678337,
			"0.005": 7.44087077888,
			"0.006": 7.33929376333,
			"0.007": 5.02420637732,
			"0.008": 4.47352649448,
			"0.009": 5.72961640676,
			"0.01": 4.42472321692,
			"0.011": 3.76791319169,
			"0.012": 3.94570095964,
			"0.013": 2.68869198563,
			"0.014": 1.26264737892,
			"0.015": 1.1572329155,
			"0.016": 0.973202909028,
			"0.017": 1.44424148068,
			"0.018": 0.703677806203,
			"0.019": 0.115383694433,
			"0.02": 0.0,
			"0.021": 0.0,
			"0.022": 0.0,
			"0.023": 0.0,
			"0.024": 0.0,
			"0.025": 0.0
		}
	}
}
