{
	 "smiles": "CC1CC1(C)C", 
	 "Tm": 135.15, 
	 "num_atms": 18, 
	 "gaussian": { 
		 "optdone": 1, 
		 "sigma_profile": "yes", 
		 "theory": "DFT", 
		 "functional": "B3LYP", 
		 "basiset": "6-31G**", 
		 "properties": { 
			 "R2extent": 789.6359, 
			 "electric_dipole_moment_norm": 0.101089020175, 
			 "electric_quadrupole_moment_norm": 0.758996462442, 
			 "total_energy": -235.855935001, 
			 "HOMO_LUMO_gap": 0.34543, 
			 "cosmo_polarized_energy": -1.13, 
			 "cosmo_cavitation_energy": 19.31, 
			 "cosmo_dispersion_energy": -14.06, 
			 "cosmo_repulsion_energy": 1.21, 
			 "cosmo_total_nonelectrostatic_energy": 6.46, 
			 "SMD_solvation_energy": 3.46 
		},
		"coords": [
			{
				"x": 0.3618339999,
				"y": -0.0262138946,
				"z": 1.3101737866,
				"element": "C" 
			},
			{
				"x": 0.2766620913,
				"y": -0.1261031576,
				"z": -0.1996526284,
				"element": "C" 
			},
			{
				"x": 0.8292087286,
				"y": 0.9637315633,
				"z": -1.0948335164,
				"element": "C" 
			},
			{
				"x": -0.6636644863,
				"y": 0.7075515341,
				"z": -1.0527921352,
				"element": "C" 
			},
			{
				"x": -1.2918805142,
				"y": 0.0243587593,
				"z": -2.257062245,
				"element": "C" 
			},
			{
				"x": -1.565429901,
				"y": 1.7503691811,
				"z": -0.4129133266,
				"element": "C" 
			},
			{
				"x": -0.4226071807,
				"y": -0.6175042122,
				"z": 1.7972444315,
				"element": "H" 
			},
			{
				"x": 1.3282412455,
				"y": -0.400897345,
				"z": 1.6670800244,
				"element": "H" 
			},
			{
				"x": 0.2655824732,
				"y": 1.0051543073,
				"z": 1.66177273,
				"element": "H" 
			},
			{
				"x": 0.4264972455,
				"y": -1.1404384752,
				"z": -0.5690365473,
				"element": "H" 
			},
			{
				"x": 1.3836609509,
				"y": 0.6809920561,
				"z": -1.9860747509,
				"element": "H" 
			},
			{
				"x": 1.2010969931,
				"y": 1.8651485148,
				"z": -0.6128506177,
				"element": "H" 
			},
			{
				"x": -1.5419142884,
				"y": 0.7527026497,
				"z": -3.0385796743,
				"element": "H" 
			},
			{
				"x": -2.2179796832,
				"y": -0.494320261,
				"z": -1.9794027914,
				"element": "H" 
			},
			{
				"x": -0.6152773548,
				"y": -0.7156909627,
				"z": -2.6971311967,
				"element": "H" 
			},
			{
				"x": -2.49409782,
				"y": 1.2981511232,
				"z": -0.0430704943,
				"element": "H" 
			},
			{
				"x": -1.0857951152,
				"y": 2.2602185303,
				"z": 0.4267041188,
				"element": "H" 
			},
			{
				"x": -1.8426373843,
				"y": 2.5176900891,
				"z": -1.145975167,
				"element": "H" 
			}
		],
		 "valence_orbital": [ 
			{
				"type": "occ",
				"energy": -0.36945,
				"method": "rhf"
			},
			{
				"type": "occ",
				"energy": -0.34358,
				"method": "rhf"
			},
			{
				"type": "occ",
				"energy": -0.32779,
				"method": "rhf"
			},
			{
				"type": "occ",
				"energy": -0.26641,
				"method": "rhf"
			},
			{
				"type": "occ",
				"energy": -0.25494,
				"method": "rhf"
			},
			{
				"type": "unocc",
				"energy": 0.09049,
				"method": "rhf"
			},
			{
				"type": "unocc",
				"energy": 0.11638,
				"method": "rhf"
			},
			{
				"type": "unocc",
				"energy": 0.12963,
				"method": "rhf"
			},
			{
				"type": "unocc",
				"energy": 0.1366,
				"method": "rhf"
			},
			{
				"type": "unocc",
				"energy": 0.1369,
				"method": "rhf"
			}
		],
		"cosmo_sigma_profile": { 
			"-0.025": 0.0,
			"-0.024": 0.0,
			"-0.023": 0.0,
			"-0.022": 0.0,
			"-0.021": 0.0,
			"-0.02": 0.0,
			"-0.019": 0.0,
			"-0.018": 0.0,
			"-0.017": 0.0,
			"-0.016": 0.0,
			"-0.015": 0.0,
			"-0.014": 0.0,
			"-0.013": 0.0,
			"-0.012": 0.0,
			"-0.011": 0.0,
			"-0.01": 0.0,
			"-0.009": 0.0,
			"-0.008": 0.0,
			"-0.007": 0.0,
			"-0.006": 0.0,
			"-0.005": 3.74169614519e-05,
			"-0.004": 2.82360246214,
			"-0.003": 15.6105524416,
			"-0.002": 21.9835543849,
			"-0.001": 21.2478225749,
			"0.0": 24.9817314741,
			"0.001": 28.9028492603,
			"0.002": 18.9455239357,
			"0.003": 5.99758901235,
			"0.004": 4.75691882439,
			"0.005": 2.88234721029,
			"0.006": 0.981047915476,
			"0.007": 0.0,
			"0.008": 0.0,
			"0.009": 0.0,
			"0.01": 0.0,
			"0.011": 0.0,
			"0.012": 0.0,
			"0.013": 0.0,
			"0.014": 0.0,
			"0.015": 0.0,
			"0.016": 0.0,
			"0.017": 0.0,
			"0.018": 0.0,
			"0.019": 0.0,
			"0.02": 0.0,
			"0.021": 0.0,
			"0.022": 0.0,
			"0.023": 0.0,
			"0.024": 0.0,
			"0.025": 0.0
		}
	}
}
