{
	 "smiles": "NC(=O)C1=NN(CC(O)=O)C(=O)C2=C1C=CC=C2", 
	 "Tm": 494.15, 
	 "num_atms": 27, 
	 "gaussian": { 
		 "optdone": 1, 
		 "sigma_profile": "yes", 
		 "theory": "DFT", 
		 "functional": "B3LYP", 
		 "basiset": "6-31G**", 
		 "properties": { 
			 "R2extent": 4801.7556, 
			 "electric_dipole_moment_norm": 1.09025080601, 
			 "electric_quadrupole_moment_norm": 14.3812601068, 
			 "total_energy": -889.773279586, 
			 "HOMO_LUMO_gap": 0.16702, 
			 "cosmo_polarized_energy": -19.31, 
			 "cosmo_cavitation_energy": 32.52, 
			 "cosmo_dispersion_energy": -23.37, 
			 "cosmo_repulsion_energy": 1.81, 
			 "cosmo_total_nonelectrostatic_energy": 10.96, 
			 "SMD_solvation_energy": 7.62 
		},
		"coords": [
			{
				"x": -0.6105258537,
				"y": 0.0894184858,
				"z": -3.5095764535,
				"element": "N" 
			},
			{
				"x": 0.5146647016,
				"y": 0.3527580876,
				"z": -2.796788742,
				"element": "C" 
			},
			{
				"x": 1.5031177699,
				"y": 0.8847162327,
				"z": -3.2940527007,
				"element": "O" 
			},
			{
				"x": 0.4506512962,
				"y": -0.0623579296,
				"z": -1.3378358575,
				"element": "C" 
			},
			{
				"x": -0.6774238192,
				"y": -0.6157136245,
				"z": -0.9887091466,
				"element": "N" 
			},
			{
				"x": -0.8703057155,
				"y": -1.0263920423,
				"z": 0.2782958136,
				"element": "N" 
			},
			{
				"x": -2.1520323083,
				"y": -1.6659323839,
				"z": 0.5300851801,
				"element": "C" 
			},
			{
				"x": -2.2815938123,
				"y": -3.0771784616,
				"z": -0.0266649351,
				"element": "C" 
			},
			{
				"x": -1.0906472652,
				"y": -3.670141433,
				"z": -0.2390077995,
				"element": "O" 
			},
			{
				"x": -3.3475132399,
				"y": -3.6128156432,
				"z": -0.2240679431,
				"element": "O" 
			},
			{
				"x": 0.0696609669,
				"y": -0.941705432,
				"z": 1.3183360988,
				"element": "C" 
			},
			{
				"x": -0.1972546886,
				"y": -1.3621409978,
				"z": 2.4391339803,
				"element": "O" 
			},
			{
				"x": 1.3361464741,
				"y": -0.3111403348,
				"z": 0.9278138814,
				"element": "C" 
			},
			{
				"x": 1.5470092747,
				"y": 0.1343113877,
				"z": -0.4000652973,
				"element": "C" 
			},
			{
				"x": 2.7859494159,
				"y": 0.7309607184,
				"z": -0.7219435589,
				"element": "C" 
			},
			{
				"x": 3.7621049263,
				"y": 0.8691892309,
				"z": 0.2547254514,
				"element": "C" 
			},
			{
				"x": 3.542744671,
				"y": 0.4241005487,
				"z": 1.5683083308,
				"element": "C" 
			},
			{
				"x": 2.3335072194,
				"y": -0.1649086122,
				"z": 1.9030591112,
				"element": "C" 
			},
			{
				"x": -1.401513731,
				"y": -0.3587581251,
				"z": -3.0759528594,
				"element": "H" 
			},
			{
				"x": -0.6173386668,
				"y": 0.3365083143,
				"z": -4.4858499941,
				"element": "H" 
			},
			{
				"x": -2.2759207508,
				"y": -1.719738056,
				"z": 1.6145381495,
				"element": "H" 
			},
			{
				"x": -2.9560386851,
				"y": -1.0640117455,
				"z": 0.1040404425,
				"element": "H" 
			},
			{
				"x": -1.2845751797,
				"y": -4.5680671074,
				"z": -0.5572664572,
				"element": "H" 
			},
			{
				"x": 2.9502299864,
				"y": 1.0713138188,
				"z": -1.7346625653,
				"element": "H" 
			},
			{
				"x": 4.7106444892,
				"y": 1.3299248195,
				"z": -0.0055717475,
				"element": "H" 
			},
			{
				"x": 4.3184914019,
				"y": 0.5410550093,
				"z": 2.3191194271,
				"element": "H" 
			},
			{
				"x": 2.1256611225,
				"y": -0.5224547249,
				"z": 2.9054601908,
				"element": "H" 
			}
		],
		 "valence_orbital": [ 
			{
				"type": "occ",
				"energy": -0.27453,
				"method": "rhf"
			},
			{
				"type": "occ",
				"energy": -0.26942,
				"method": "rhf"
			},
			{
				"type": "occ",
				"energy": -0.26825,
				"method": "rhf"
			},
			{
				"type": "occ",
				"energy": -0.25826,
				"method": "rhf"
			},
			{
				"type": "occ",
				"energy": -0.24019,
				"method": "rhf"
			},
			{
				"type": "unocc",
				"energy": -0.07317,
				"method": "rhf"
			},
			{
				"type": "unocc",
				"energy": -0.05224,
				"method": "rhf"
			},
			{
				"type": "unocc",
				"energy": -0.00732,
				"method": "rhf"
			},
			{
				"type": "unocc",
				"energy": -0.00282,
				"method": "rhf"
			},
			{
				"type": "unocc",
				"energy": 0.05383,
				"method": "rhf"
			}
		],
		"cosmo_sigma_profile": { 
			"-0.025": 0.0,
			"-0.024": 0.0,
			"-0.023": 0.0,
			"-0.022": 0.0,
			"-0.021": 0.0,
			"-0.02": 0.0259599636436,
			"-0.019": 0.642520436675,
			"-0.018": 0.82336030482,
			"-0.017": 1.31195677496,
			"-0.016": 0.959604309906,
			"-0.015": 0.264798719181,
			"-0.014": 1.39836295775,
			"-0.013": 2.36997041534,
			"-0.012": 3.01224528936,
			"-0.011": 2.29374636123,
			"-0.01": 2.42601841425,
			"-0.009": 3.7771987576,
			"-0.008": 5.59063827941,
			"-0.007": 9.15732865349,
			"-0.006": 12.6427776966,
			"-0.005": 13.8551652951,
			"-0.004": 12.9956476521,
			"-0.003": 16.6011906754,
			"-0.002": 17.1244837979,
			"-0.001": 15.7060706015,
			"0.0": 17.637172507,
			"0.001": 20.0834105466,
			"0.002": 20.6180426112,
			"0.003": 16.7358979922,
			"0.004": 8.505421015,
			"0.005": 5.94782815659,
			"0.006": 6.49591832913,
			"0.007": 4.57996245808,
			"0.008": 3.85866655309,
			"0.009": 4.59099421592,
			"0.01": 5.2649072293,
			"0.011": 10.0067720536,
			"0.012": 8.66519042674,
			"0.013": 3.6192559168,
			"0.014": 1.09339137473,
			"0.015": 0.0,
			"0.016": 0.0,
			"0.017": 0.0,
			"0.018": 0.0,
			"0.019": 0.0,
			"0.02": 0.0,
			"0.021": 0.0,
			"0.022": 0.0,
			"0.023": 0.0,
			"0.024": 0.0,
			"0.025": 0.0
		}
	}
}
