{
	 "smiles": "FC(F)(F)C(=O)CC(=O)C1=CC=CC=C1", 
	 "Tm": 312.15, 
	 "num_atms": 22, 
	 "gaussian": { 
		 "optdone": 1, 
		 "sigma_profile": "yes", 
		 "theory": "DFT", 
		 "functional": "B3LYP", 
		 "basiset": "6-31G**", 
		 "properties": { 
			 "R2extent": 5017.1703, 
			 "electric_dipole_moment_norm": 5.38845779885, 
			 "electric_quadrupole_moment_norm": 8.86622908739, 
			 "total_energy": -835.2364958, 
			 "HOMO_LUMO_gap": 0.19715, 
			 "cosmo_polarized_energy": -11.47, 
			 "cosmo_cavitation_energy": 28.85, 
			 "cosmo_dispersion_energy": -19.98, 
			 "cosmo_repulsion_energy": 1.51, 
			 "cosmo_total_nonelectrostatic_energy": 10.37, 
			 "SMD_solvation_energy": 7.17 
		},
		"coords": [
			{
				"x": 1.1724851144,
				"y": -3.7918353464,
				"z": -0.8458792265,
				"element": "F" 
			},
			{
				"x": 1.8006178374,
				"y": -3.5907006925,
				"z": 0.3281692296,
				"element": "C" 
			},
			{
				"x": 1.4872715857,
				"y": -4.577658063,
				"z": 1.1642808716,
				"element": "F" 
			},
			{
				"x": 3.1341786922,
				"y": -3.6341343955,
				"z": 0.0862294791,
				"element": "F" 
			},
			{
				"x": 1.4731140317,
				"y": -2.1990377573,
				"z": 0.9228595447,
				"element": "C" 
			},
			{
				"x": 1.3442564309,
				"y": -2.0720914496,
				"z": 2.1144464691,
				"element": "O" 
			},
			{
				"x": 1.4081038209,
				"y": -1.0584544818,
				"z": -0.0741750359,
				"element": "C" 
			},
			{
				"x": 0.0079356951,
				"y": -0.9769556797,
				"z": -0.7049179563,
				"element": "C" 
			},
			{
				"x": -0.8724551455,
				"y": -1.7281793896,
				"z": -0.3187011928,
				"element": "O" 
			},
			{
				"x": -0.2349745653,
				"y": 0.0408627909,
				"z": -1.7687047824,
				"element": "C" 
			},
			{
				"x": -1.5149109005,
				"y": 0.0918159089,
				"z": -2.3457236231,
				"element": "C" 
			},
			{
				"x": -1.8006882938,
				"y": 1.02155695,
				"z": -3.3399182921,
				"element": "C" 
			},
			{
				"x": -0.8121393808,
				"y": 1.9133159208,
				"z": -3.7682126608,
				"element": "C" 
			},
			{
				"x": 0.4622849063,
				"y": 1.8720777472,
				"z": -3.1991709856,
				"element": "C" 
			},
			{
				"x": 0.7513485071,
				"y": 0.9396107297,
				"z": -2.2036335666,
				"element": "C" 
			},
			{
				"x": 1.6200662018,
				"y": -0.1282703588,
				"z": 0.4629226833,
				"element": "H" 
			},
			{
				"x": 2.1665619176,
				"y": -1.1840273952,
				"z": -0.8550638396,
				"element": "H" 
			},
			{
				"x": -2.2645920246,
				"y": -0.60938482,
				"z": -1.995143803,
				"element": "H" 
			},
			{
				"x": -2.791716664,
				"y": 1.0544321248,
				"z": -3.7825633251,
				"element": "H" 
			},
			{
				"x": -1.0353772787,
				"y": 2.6396050458,
				"z": -4.5444175306,
				"element": "H" 
			},
			{
				"x": 1.2298429082,
				"y": 2.5650024901,
				"z": -3.5302436272,
				"element": "H" 
			},
			{
				"x": 1.7458866039,
				"y": 0.9207501212,
				"z": -1.7694388298,
				"element": "H" 
			}
		],
		 "valence_orbital": [ 
			{
				"type": "occ",
				"energy": -0.36157,
				"method": "rhf"
			},
			{
				"type": "occ",
				"energy": -0.28258,
				"method": "rhf"
			},
			{
				"type": "occ",
				"energy": -0.2751,
				"method": "rhf"
			},
			{
				"type": "occ",
				"energy": -0.2716,
				"method": "rhf"
			},
			{
				"type": "occ",
				"energy": -0.27015,
				"method": "rhf"
			},
			{
				"type": "unocc",
				"energy": -0.073,
				"method": "rhf"
			},
			{
				"type": "unocc",
				"energy": -0.05625,
				"method": "rhf"
			},
			{
				"type": "unocc",
				"energy": -0.02242,
				"method": "rhf"
			},
			{
				"type": "unocc",
				"energy": 0.02418,
				"method": "rhf"
			},
			{
				"type": "unocc",
				"energy": 0.07541,
				"method": "rhf"
			}
		],
		"cosmo_sigma_profile": { 
			"-0.025": 0.0,
			"-0.024": 0.0,
			"-0.023": 0.0,
			"-0.022": 0.0,
			"-0.021": 0.0,
			"-0.02": 0.0,
			"-0.019": 0.0,
			"-0.018": 0.0,
			"-0.017": 0.0,
			"-0.016": 0.0,
			"-0.015": 0.0,
			"-0.014": 0.0,
			"-0.013": 0.0,
			"-0.012": 0.0,
			"-0.011": 0.0,
			"-0.01": 0.071849510517,
			"-0.009": 4.30762277843,
			"-0.008": 7.97456769595,
			"-0.007": 9.89718338879,
			"-0.006": 14.3171430765,
			"-0.005": 13.6886182448,
			"-0.004": 11.9251777833,
			"-0.003": 11.3074194584,
			"-0.002": 10.8402890813,
			"-0.001": 12.1380056175,
			"0.0": 14.4285406317,
			"0.001": 23.3527423329,
			"0.002": 35.6841286086,
			"0.003": 19.1965843312,
			"0.004": 11.9121995113,
			"0.005": 4.71599661613,
			"0.006": 3.9007572775,
			"0.007": 3.97007202583,
			"0.008": 5.02251484368,
			"0.009": 6.2208407002,
			"0.01": 4.33564964269,
			"0.011": 2.30574032821,
			"0.012": 0.0278824195552,
			"0.013": 0.0,
			"0.014": 0.0,
			"0.015": 0.0,
			"0.016": 0.0,
			"0.017": 0.0,
			"0.018": 0.0,
			"0.019": 0.0,
			"0.02": 0.0,
			"0.021": 0.0,
			"0.022": 0.0,
			"0.023": 0.0,
			"0.024": 0.0,
			"0.025": 0.0
		}
	}
}
