{
	 "smiles": "OC(SCC(O)=O)C(=O)C1=CC=CC=C1", 
	 "Tm": 387.15, 
	 "num_atms": 25, 
	 "gaussian": { 
		 "optdone": 1, 
		 "sigma_profile": "yes", 
		 "theory": "DFT", 
		 "functional": "B3LYP", 
		 "basiset": "6-31G**", 
		 "properties": { 
			 "R2extent": 5749.0286, 
			 "electric_dipole_moment_norm": 7.39398205164, 
			 "electric_quadrupole_moment_norm": 24.5641129486, 
			 "total_energy": -1086.17076666, 
			 "HOMO_LUMO_gap": 0.16349, 
			 "cosmo_polarized_energy": -16.39, 
			 "cosmo_cavitation_energy": 31.15, 
			 "cosmo_dispersion_energy": -22.85, 
			 "cosmo_repulsion_energy": 1.76, 
			 "cosmo_total_nonelectrostatic_energy": 10.06, 
			 "SMD_solvation_energy": 6.97 
		},
		"coords": [
			{
				"x": 0.8484331398,
				"y": 1.1619218458,
				"z": 3.021037794,
				"element": "O" 
			},
			{
				"x": 0.6148872197,
				"y": 0.7250458412,
				"z": 1.7356389248,
				"element": "C" 
			},
			{
				"x": 1.5506262659,
				"y": 1.7416885733,
				"z": 0.4210251607,
				"element": "S" 
			},
			{
				"x": 1.4943691902,
				"y": 3.3997082878,
				"z": 1.207371309,
				"element": "C" 
			},
			{
				"x": 2.8542178092,
				"y": 4.1022272139,
				"z": 1.3152617095,
				"element": "C" 
			},
			{
				"x": 3.9451544443,
				"y": 3.3159854472,
				"z": 1.3434413931,
				"element": "O" 
			},
			{
				"x": 2.9258559612,
				"y": 5.3016450087,
				"z": 1.41813704,
				"element": "O" 
			},
			{
				"x": 1.1237237013,
				"y": -0.723218085,
				"z": 1.5788500956,
				"element": "C" 
			},
			{
				"x": 1.8630246648,
				"y": -1.1279887296,
				"z": 2.4690749424,
				"element": "O" 
			},
			{
				"x": 0.7410363429,
				"y": -1.5556246189,
				"z": 0.4168936698,
				"element": "C" 
			},
			{
				"x": 1.2797377578,
				"y": -2.8518559524,
				"z": 0.328717117,
				"element": "C" 
			},
			{
				"x": 0.9405688552,
				"y": -3.6802454858,
				"z": -0.7345445751,
				"element": "C" 
			},
			{
				"x": 0.0596822191,
				"y": -3.2245448253,
				"z": -1.7214090263,
				"element": "C" 
			},
			{
				"x": -0.4803424002,
				"y": -1.939293177,
				"z": -1.642385141,
				"element": "C" 
			},
			{
				"x": -0.1441609608,
				"y": -1.1055162987,
				"z": -0.5774557205,
				"element": "C" 
			},
			{
				"x": 1.5491297437,
				"y": 0.5708267722,
				"z": 3.3665382339,
				"element": "H" 
			},
			{
				"x": -0.4481760592,
				"y": 0.8291351879,
				"z": 1.5069761337,
				"element": "H" 
			},
			{
				"x": 1.1279399401,
				"y": 3.2479178154,
				"z": 2.2285568015,
				"element": "H" 
			},
			{
				"x": 0.8124618334,
				"y": 4.0630764402,
				"z": 0.6752222835,
				"element": "H" 
			},
			{
				"x": 3.6693682748,
				"y": 2.3915742457,
				"z": 1.1926441892,
				"element": "H" 
			},
			{
				"x": 1.9597723427,
				"y": -3.1828538248,
				"z": 1.106160738,
				"element": "H" 
			},
			{
				"x": 1.3597402487,
				"y": -4.6796982884,
				"z": -0.7986846431,
				"element": "H" 
			},
			{
				"x": -0.2050244125,
				"y": -3.8722010058,
				"z": -2.5521828876,
				"element": "H" 
			},
			{
				"x": -1.162258002,
				"y": -1.5861331284,
				"z": -2.4095476325,
				"element": "H" 
			},
			{
				"x": -0.5631681202,
				"y": -0.1059792592,
				"z": -0.5335379096,
				"element": "H" 
			}
		],
		 "valence_orbital": [ 
			{
				"type": "occ",
				"energy": -0.29632,
				"method": "rhf"
			},
			{
				"type": "occ",
				"energy": -0.28379,
				"method": "rhf"
			},
			{
				"type": "occ",
				"energy": -0.28052,
				"method": "rhf"
			},
			{
				"type": "occ",
				"energy": -0.27289,
				"method": "rhf"
			},
			{
				"type": "occ",
				"energy": -0.2539,
				"method": "rhf"
			},
			{
				"type": "unocc",
				"energy": -0.09041,
				"method": "rhf"
			},
			{
				"type": "unocc",
				"energy": -0.0311,
				"method": "rhf"
			},
			{
				"type": "unocc",
				"energy": -0.00617,
				"method": "rhf"
			},
			{
				"type": "unocc",
				"energy": 0.00843,
				"method": "rhf"
			},
			{
				"type": "unocc",
				"energy": 0.02062,
				"method": "rhf"
			}
		],
		"cosmo_sigma_profile": { 
			"-0.025": 0.0,
			"-0.024": 0.0,
			"-0.023": 0.0,
			"-0.022": 0.0,
			"-0.021": 0.0,
			"-0.02": 0.0,
			"-0.019": 0.0,
			"-0.018": 0.0,
			"-0.017": 0.0,
			"-0.016": 0.0,
			"-0.015": 0.0,
			"-0.014": 0.0,
			"-0.013": 0.312283981386,
			"-0.012": 1.46388917395,
			"-0.011": 1.05850483945,
			"-0.01": 1.95638683164,
			"-0.009": 4.2446013525,
			"-0.008": 5.99214772881,
			"-0.007": 13.5137203394,
			"-0.006": 18.9224344821,
			"-0.005": 20.6780681922,
			"-0.004": 16.3290585475,
			"-0.003": 13.1084849154,
			"-0.002": 11.2462874358,
			"-0.001": 13.2644346872,
			"0.0": 15.1800924104,
			"0.001": 16.1627555565,
			"0.002": 18.8094146975,
			"0.003": 18.8412137149,
			"0.004": 8.2068317483,
			"0.005": 6.59611300392,
			"0.006": 5.33483947318,
			"0.007": 5.11624800512,
			"0.008": 5.58967236716,
			"0.009": 7.1486637631,
			"0.01": 7.95089869777,
			"0.011": 6.34527667276,
			"0.012": 5.50054749945,
			"0.013": 1.5087707136,
			"0.014": 0.0,
			"0.015": 0.0,
			"0.016": 0.0,
			"0.017": 0.0,
			"0.018": 0.0,
			"0.019": 0.0,
			"0.02": 0.0,
			"0.021": 0.0,
			"0.022": 0.0,
			"0.023": 0.0,
			"0.024": 0.0,
			"0.025": 0.0
		}
	}
}
