{
	 "smiles": "CC1=NOC2=C1C(=CC(=N2)C1=C(C)C=C(C)C=C1)C(O)=O", 
	 "Tm": 496.15, 
	 "num_atms": 35, 
	 "gaussian": { 
		 "optdone": 1, 
		 "sigma_profile": "yes", 
		 "theory": "DFT", 
		 "functional": "B3LYP", 
		 "basiset": "6-31G**", 
		 "properties": { 
			 "R2extent": 8649.3444, 
			 "electric_dipole_moment_norm": 4.97804260026, 
			 "electric_quadrupole_moment_norm": 15.3198881912, 
			 "total_energy": -953.300676749, 
			 "HOMO_LUMO_gap": 0.14994, 
			 "cosmo_polarized_energy": -18.32, 
			 "cosmo_cavitation_energy": 39.28, 
			 "cosmo_dispersion_energy": -28.13, 
			 "cosmo_repulsion_energy": 2.13, 
			 "cosmo_total_nonelectrostatic_energy": 13.28, 
			 "SMD_solvation_energy": 6.63 
		},
		"coords": [
			{
				"x": 4.3291141251,
				"y": 1.2791065293,
				"z": -2.7802649264,
				"element": "C" 
			},
			{
				"x": 3.6520233399,
				"y": 1.6299492914,
				"z": -1.4940021112,
				"element": "C" 
			},
			{
				"x": 4.3556823059,
				"y": 2.1727831011,
				"z": -0.5296439641,
				"element": "N" 
			},
			{
				"x": 3.5003976167,
				"y": 2.3981741955,
				"z": 0.5698867914,
				"element": "O" 
			},
			{
				"x": 2.2665372791,
				"y": 1.9737104017,
				"z": 0.2296068168,
				"element": "C" 
			},
			{
				"x": 2.2790775277,
				"y": 1.4705032396,
				"z": -1.0814836429,
				"element": "C" 
			},
			{
				"x": 1.0606434518,
				"y": 0.9563346668,
				"z": -1.5617654862,
				"element": "C" 
			},
			{
				"x": -0.0338429689,
				"y": 1.0286101068,
				"z": -0.7008110736,
				"element": "C" 
			},
			{
				"x": 0.077296398,
				"y": 1.5962873087,
				"z": 0.5972469099,
				"element": "C" 
			},
			{
				"x": 1.2471347869,
				"y": 2.059184413,
				"z": 1.0675279389,
				"element": "N" 
			},
			{
				"x": -1.1214626415,
				"y": 1.7013388415,
				"z": 1.4679377939,
				"element": "C" 
			},
			{
				"x": -1.0780052536,
				"y": 1.4593200861,
				"z": 2.8635234397,
				"element": "C" 
			},
			{
				"x": 0.1795922927,
				"y": 1.0505105484,
				"z": 3.5958752363,
				"element": "C" 
			},
			{
				"x": -2.2681067018,
				"y": 1.5796592394,
				"z": 3.5895225639,
				"element": "C" 
			},
			{
				"x": -3.4887024116,
				"y": 1.9416659903,
				"z": 3.0073737996,
				"element": "C" 
			},
			{
				"x": -4.732857479,
				"y": 2.0963885184,
				"z": 3.8480872553,
				"element": "C" 
			},
			{
				"x": -3.5109375479,
				"y": 2.1781056322,
				"z": 1.6289962464,
				"element": "C" 
			},
			{
				"x": -2.346964989,
				"y": 2.0550151468,
				"z": 0.8781023363,
				"element": "C" 
			},
			{
				"x": 0.9192521634,
				"y": 0.4009987999,
				"z": -2.9508304958,
				"element": "C" 
			},
			{
				"x": 0.0298537613,
				"y": -0.6119582874,
				"z": -3.0972439336,
				"element": "O" 
			},
			{
				"x": 1.5289086141,
				"y": 0.8238438753,
				"z": -3.9031693497,
				"element": "O" 
			},
			{
				"x": 5.3814545247,
				"y": 1.5638339141,
				"z": -2.7240774536,
				"element": "H" 
			},
			{
				"x": 4.2607452847,
				"y": 0.2043141499,
				"z": -2.9750316483,
				"element": "H" 
			},
			{
				"x": 3.8465544479,
				"y": 1.7845645015,
				"z": -3.6190301845,
				"element": "H" 
			},
			{
				"x": -1.0046684978,
				"y": 0.6673381457,
				"z": -1.0219890813,
				"element": "H" 
			},
			{
				"x": -0.0661245358,
				"y": 0.699447258,
				"z": 4.6018743734,
				"element": "H" 
			},
			{
				"x": 0.8815809503,
				"y": 1.8841209476,
				"z": 3.6784573396,
				"element": "H" 
			},
			{
				"x": 0.7137603027,
				"y": 0.2493438281,
				"z": 3.0760555095,
				"element": "H" 
			},
			{
				"x": -2.2396479359,
				"y": 1.3767387638,
				"z": 4.6579411629,
				"element": "H" 
			},
			{
				"x": -4.724133273,
				"y": 1.4175582624,
				"z": 4.7060651595,
				"element": "H" 
			},
			{
				"x": -4.8161364453,
				"y": 3.1169812835,
				"z": 4.2423995079,
				"element": "H" 
			},
			{
				"x": -5.6374109561,
				"y": 1.8985829038,
				"z": 3.2653961682,
				"element": "H" 
			},
			{
				"x": -4.4390339783,
				"y": 2.4647559895,
				"z": 1.1415530074,
				"element": "H" 
			},
			{
				"x": -2.3814851288,
				"y": 2.2694586998,
				"z": -0.1862329222,
				"element": "H" 
			},
			{
				"x": -0.2726884285,
				"y": -0.9185702925,
				"z": -2.2301530837,
				"element": "H" 
			}
		],
		 "valence_orbital": [ 
			{
				"type": "occ",
				"energy": -0.28396,
				"method": "rhf"
			},
			{
				"type": "occ",
				"energy": -0.28218,
				"method": "rhf"
			},
			{
				"type": "occ",
				"energy": -0.27601,
				"method": "rhf"
			},
			{
				"type": "occ",
				"energy": -0.25368,
				"method": "rhf"
			},
			{
				"type": "occ",
				"energy": -0.23856,
				"method": "rhf"
			},
			{
				"type": "unocc",
				"energy": -0.08862,
				"method": "rhf"
			},
			{
				"type": "unocc",
				"energy": -0.0449,
				"method": "rhf"
			},
			{
				"type": "unocc",
				"energy": -0.00998,
				"method": "rhf"
			},
			{
				"type": "unocc",
				"energy": -0.00115,
				"method": "rhf"
			},
			{
				"type": "unocc",
				"energy": 0.01693,
				"method": "rhf"
			}
		],
		"cosmo_sigma_profile": { 
			"-0.025": 0.0,
			"-0.024": 0.0,
			"-0.023": 0.0,
			"-0.022": 0.0,
			"-0.021": 0.0,
			"-0.02": 0.0660985201654,
			"-0.019": 0.721493976846,
			"-0.018": 0.96276395559,
			"-0.017": 1.21557599293,
			"-0.016": 1.00857680988,
			"-0.015": 0.970361153795,
			"-0.014": 0.886734428764,
			"-0.013": 1.32964840673,
			"-0.012": 1.33564320257,
			"-0.011": 0.606638945748,
			"-0.01": 1.52596190679,
			"-0.009": 2.05716526849,
			"-0.008": 2.74228475765,
			"-0.007": 4.21037742897,
			"-0.006": 8.20033525983,
			"-0.005": 14.4738275145,
			"-0.004": 24.51802376,
			"-0.003": 31.7375809071,
			"-0.002": 33.4390853027,
			"-0.001": 33.2824991966,
			"0.0": 24.4545590024,
			"0.001": 19.6167842636,
			"0.002": 12.4679999006,
			"0.003": 12.7245422232,
			"0.004": 14.3609440539,
			"0.005": 15.729290199,
			"0.006": 8.33833654378,
			"0.007": 10.1890750755,
			"0.008": 9.99627702453,
			"0.009": 5.79823845781,
			"0.01": 6.84856709811,
			"0.011": 3.78006227653,
			"0.012": 2.96644101916,
			"0.013": 0.881238518276,
			"0.014": 0.176970564965,
			"0.015": 0.0,
			"0.016": 0.0,
			"0.017": 0.0,
			"0.018": 0.0,
			"0.019": 0.0,
			"0.02": 0.0,
			"0.021": 0.0,
			"0.022": 0.0,
			"0.023": 0.0,
			"0.024": 0.0,
			"0.025": 0.0
		}
	}
}
