{
	 "smiles": "OC(=O)C1=CC2=C(N1)C=C(F)C=C2F", 
	 "Tm": 526.15, 
	 "num_atms": 19, 
	 "gaussian": { 
		 "optdone": 1, 
		 "sigma_profile": "yes", 
		 "theory": "DFT", 
		 "functional": "B3LYP", 
		 "basiset": "6-31G**", 
		 "properties": { 
			 "R2extent": 3484.9582, 
			 "electric_dipole_moment_norm": 4.05206535239, 
			 "electric_quadrupole_moment_norm": 19.1881305442, 
			 "total_energy": -750.844415576, 
			 "HOMO_LUMO_gap": 0.17036, 
			 "cosmo_polarized_energy": -18.22, 
			 "cosmo_cavitation_energy": 25.63, 
			 "cosmo_dispersion_energy": -18.59, 
			 "cosmo_repulsion_energy": 1.4, 
			 "cosmo_total_nonelectrostatic_energy": 8.44, 
			 "SMD_solvation_energy": 6.31 
		},
		"coords": [
			{
				"x": -0.4597664018,
				"y": 0.9091672995,
				"z": -4.2450864345,
				"element": "O" 
			},
			{
				"x": -1.5029920956,
				"y": 0.7559369949,
				"z": -3.3715707252,
				"element": "C" 
			},
			{
				"x": -2.6188405384,
				"y": 1.0991741988,
				"z": -3.6771828291,
				"element": "O" 
			},
			{
				"x": -1.1517252262,
				"y": 0.1703402766,
				"z": -2.0646209387,
				"element": "C" 
			},
			{
				"x": -1.9800285161,
				"y": -0.4761239302,
				"z": -1.1819608738,
				"element": "C" 
			},
			{
				"x": -1.1693520606,
				"y": -0.9023425617,
				"z": -0.0850417241,
				"element": "C" 
			},
			{
				"x": 0.1625003289,
				"y": -0.4724962772,
				"z": -0.338264487,
				"element": "C" 
			},
			{
				"x": 0.16260492,
				"y": 0.1421898695,
				"z": -1.5742979161,
				"element": "N" 
			},
			{
				"x": 1.2158908406,
				"y": -0.686474984,
				"z": 0.5602594651,
				"element": "C" 
			},
			{
				"x": 0.8888407464,
				"y": -1.368146764,
				"z": 1.7195079268,
				"element": "C" 
			},
			{
				"x": 1.859396948,
				"y": -1.6089853088,
				"z": 2.6217390446,
				"element": "F" 
			},
			{
				"x": -0.4035631347,
				"y": -1.835741608,
				"z": 2.0180544416,
				"element": "C" 
			},
			{
				"x": -1.4146475417,
				"y": -1.5964568828,
				"z": 1.1090402395,
				"element": "C" 
			},
			{
				"x": -2.6620889487,
				"y": -2.0246311299,
				"z": 1.3673600741,
				"element": "F" 
			},
			{
				"x": 0.2731347191,
				"y": 0.3309903078,
				"z": -3.9869469739,
				"element": "H" 
			},
			{
				"x": -3.0352377981,
				"y": -0.6481020212,
				"z": -1.3298877841,
				"element": "H" 
			},
			{
				"x": 0.8719498522,
				"y": 0.8027338865,
				"z": -1.8577564833,
				"element": "H" 
			},
			{
				"x": 2.2323358049,
				"y": -0.357208492,
				"z": 0.3804103098,
				"element": "H" 
			},
			{
				"x": -0.5940118981,
				"y": -2.3672228738,
				"z": 2.9419456683,
				"element": "H" 
			}
		],
		 "valence_orbital": [ 
			{
				"type": "occ",
				"energy": -0.32623,
				"method": "rhf"
			},
			{
				"type": "occ",
				"energy": -0.3019,
				"method": "rhf"
			},
			{
				"type": "occ",
				"energy": -0.28405,
				"method": "rhf"
			},
			{
				"type": "occ",
				"energy": -0.25435,
				"method": "rhf"
			},
			{
				"type": "occ",
				"energy": -0.23009,
				"method": "rhf"
			},
			{
				"type": "unocc",
				"energy": -0.05973,
				"method": "rhf"
			},
			{
				"type": "unocc",
				"energy": -0.00944,
				"method": "rhf"
			},
			{
				"type": "unocc",
				"energy": 0.01226,
				"method": "rhf"
			},
			{
				"type": "unocc",
				"energy": 0.03473,
				"method": "rhf"
			},
			{
				"type": "unocc",
				"energy": 0.07715,
				"method": "rhf"
			}
		],
		"cosmo_sigma_profile": { 
			"-0.025": 0.0,
			"-0.024": 0.0,
			"-0.023": 0.0,
			"-0.022": 0.0,
			"-0.021": 0.0,
			"-0.02": 0.0,
			"-0.019": 0.233085819,
			"-0.018": 1.64710111319,
			"-0.017": 2.10883741526,
			"-0.016": 2.87476912853,
			"-0.015": 2.29214087825,
			"-0.014": 1.84318026214,
			"-0.013": 2.44149191224,
			"-0.012": 1.71491869097,
			"-0.011": 1.28482348135,
			"-0.01": 2.04770885515,
			"-0.009": 3.25417669832,
			"-0.008": 5.70863563047,
			"-0.007": 5.61518749911,
			"-0.006": 4.46318564267,
			"-0.005": 5.65259518887,
			"-0.004": 5.03845259581,
			"-0.003": 6.38608999657,
			"-0.002": 6.60517950657,
			"-0.001": 10.4884463962,
			"0.0": 18.1123441487,
			"0.001": 25.6767997002,
			"0.002": 23.3218751346,
			"0.003": 17.0073530442,
			"0.004": 19.4582720569,
			"0.005": 3.5038666218,
			"0.006": 2.10939406984,
			"0.007": 2.95261339565,
			"0.008": 2.64937708851,
			"0.009": 3.38731955638,
			"0.01": 4.84169887569,
			"0.011": 6.35085258637,
			"0.012": 4.5275738755,
			"0.013": 1.07399028386,
			"0.014": 0.0,
			"0.015": 0.0,
			"0.016": 0.0,
			"0.017": 0.0,
			"0.018": 0.0,
			"0.019": 0.0,
			"0.02": 0.0,
			"0.021": 0.0,
			"0.022": 0.0,
			"0.023": 0.0,
			"0.024": 0.0,
			"0.025": 0.0
		}
	}
}
