{
	 "smiles": "NC1=CC(=C(C=CC2=CC=CC=C2)C=C1C=CC1=CC=CC=C1)[N+]([O-])=O", 
	 "Tm": 384.15, 
	 "num_atms": 44, 
	 "gaussian": { 
		 "optdone": 1, 
		 "sigma_profile": "yes", 
		 "theory": "DFT", 
		 "functional": "B3LYP", 
		 "basiset": "6-31G**", 
		 "properties": { 
			 "R2extent": 16548.6717, 
			 "electric_dipole_moment_norm": 5.42128271722, 
			 "electric_quadrupole_moment_norm": 24.795675656, 
			 "total_energy": -1109.02222531, 
			 "HOMO_LUMO_gap": 0.11519, 
			 "cosmo_polarized_energy": -18.23, 
			 "cosmo_cavitation_energy": 49.6, 
			 "cosmo_dispersion_energy": -35.07, 
			 "cosmo_repulsion_energy": 2.62, 
			 "cosmo_total_nonelectrostatic_energy": 17.15, 
			 "SMD_solvation_energy": 10.18 
		},
		"coords": [
			{
				"x": -2.2778961832,
				"y": 2.5412014206,
				"z": -0.1080754919,
				"element": "N" 
			},
			{
				"x": -1.4954486671,
				"y": 1.5955132328,
				"z": 0.5463970116,
				"element": "C" 
			},
			{
				"x": -1.7098971526,
				"y": 1.3485445361,
				"z": 1.9079683467,
				"element": "C" 
			},
			{
				"x": -0.9419380511,
				"y": 0.4266747071,
				"z": 2.6078732452,
				"element": "C" 
			},
			{
				"x": 0.0430956769,
				"y": -0.3677057916,
				"z": 1.9833764668,
				"element": "C" 
			},
			{
				"x": 0.8051279054,
				"y": -1.4804480343,
				"z": 2.5628440817,
				"element": "C" 
			},
			{
				"x": 0.4298452267,
				"y": -2.3053666599,
				"z": 3.5595691395,
				"element": "C" 
			},
			{
				"x": 1.191054485,
				"y": -3.4457021833,
				"z": 4.0790721395,
				"element": "C" 
			},
			{
				"x": 0.5509076139,
				"y": -4.3423937355,
				"z": 4.9548951957,
				"element": "C" 
			},
			{
				"x": 1.2186961318,
				"y": -5.4526820794,
				"z": 5.467848673,
				"element": "C" 
			},
			{
				"x": 2.5492446348,
				"y": -5.6906844564,
				"z": 5.1208339884,
				"element": "C" 
			},
			{
				"x": 3.2049820868,
				"y": -4.8035829005,
				"z": 4.2612265692,
				"element": "C" 
			},
			{
				"x": 2.538105834,
				"y": -3.6947880948,
				"z": 3.7497498233,
				"element": "C" 
			},
			{
				"x": 0.2445514321,
				"y": -0.0839218261,
				"z": 0.6235373916,
				"element": "C" 
			},
			{
				"x": -0.4512759969,
				"y": 0.8871647853,
				"z": -0.1128229687,
				"element": "C" 
			},
			{
				"x": -0.0741743515,
				"y": 1.0709961023,
				"z": -1.5171981581,
				"element": "C" 
			},
			{
				"x": -0.208045375,
				"y": 2.1779358507,
				"z": -2.282960564,
				"element": "C" 
			},
			{
				"x": 0.2208116536,
				"y": 2.320058225,
				"z": -3.6790976994,
				"element": "C" 
			},
			{
				"x": 0.2955926634,
				"y": 3.6109068499,
				"z": -4.2353805112,
				"element": "C" 
			},
			{
				"x": 0.7082566059,
				"y": 3.8071209087,
				"z": -5.5517621586,
				"element": "C" 
			},
			{
				"x": 1.0482750834,
				"y": 2.7129199201,
				"z": -6.3486526044,
				"element": "C" 
			},
			{
				"x": 0.9666969115,
				"y": 1.4222933462,
				"z": -5.8166963807,
				"element": "C" 
			},
			{
				"x": 0.5552587577,
				"y": 1.2265016306,
				"z": -4.5018177342,
				"element": "C" 
			},
			{
				"x": -1.1942240729,
				"y": 0.3878756929,
				"z": 4.0597846439,
				"element": "N" 
			},
			{
				"x": -2.3684707468,
				"y": 0.4602526057,
				"z": 4.4298956071,
				"element": "O" 
			},
			{
				"x": -0.2243071714,
				"y": 0.3329178312,
				"z": 4.810288315,
				"element": "O" 
			},
			{
				"x": -2.3991834066,
				"y": 2.3798776894,
				"z": -1.1000109082,
				"element": "H" 
			},
			{
				"x": -3.1515512071,
				"y": 2.7541243147,
				"z": 0.3550869887,
				"element": "H" 
			},
			{
				"x": -2.4798560284,
				"y": 1.8907568016,
				"z": 2.4457068933,
				"element": "H" 
			},
			{
				"x": 1.7406729614,
				"y": -1.6812034855,
				"z": 2.0444173305,
				"element": "H" 
			},
			{
				"x": -0.5377382626,
				"y": -2.158802744,
				"z": 4.033388726,
				"element": "H" 
			},
			{
				"x": -0.4849850088,
				"y": -4.1613911345,
				"z": 5.2303401877,
				"element": "H" 
			},
			{
				"x": 0.7003837023,
				"y": -6.1301310165,
				"z": 6.1405196074,
				"element": "H" 
			},
			{
				"x": 3.0745678549,
				"y": -6.5528387316,
				"z": 5.5212143177,
				"element": "H" 
			},
			{
				"x": 4.2448269805,
				"y": -4.9736468437,
				"z": 3.9962339822,
				"element": "H" 
			},
			{
				"x": 3.0733627104,
				"y": -3.0059994121,
				"z": 3.1033952289,
				"element": "H" 
			},
			{
				"x": 0.9972893546,
				"y": -0.6661218193,
				"z": 0.098060309,
				"element": "H" 
			},
			{
				"x": 0.432341615,
				"y": 0.2100249848,
				"z": -1.95099013,
				"element": "H" 
			},
			{
				"x": -0.6107240745,
				"y": 3.0835452603,
				"z": -1.835762093,
				"element": "H" 
			},
			{
				"x": 0.0349327826,
				"y": 4.4675035308,
				"z": -3.6186509385,
				"element": "H" 
			},
			{
				"x": 0.7629625355,
				"y": 4.8141528356,
				"z": -5.9552775918,
				"element": "H" 
			},
			{
				"x": 1.3666589958,
				"y": 2.8613023716,
				"z": -7.3762601036,
				"element": "H" 
			},
			{
				"x": 1.2172481648,
				"y": 0.564144119,
				"z": -6.4339316859,
				"element": "H" 
			},
			{
				"x": 0.4758653957,
				"y": 0.2147013962,
				"z": -4.1159764873,
				"element": "H" 
			}
		],
		 "valence_orbital": [ 
			{
				"type": "occ",
				"energy": -0.25886,
				"method": "rhf"
			},
			{
				"type": "occ",
				"energy": -0.24936,
				"method": "rhf"
			},
			{
				"type": "occ",
				"energy": -0.24814,
				"method": "rhf"
			},
			{
				"type": "occ",
				"energy": -0.21951,
				"method": "rhf"
			},
			{
				"type": "occ",
				"energy": -0.19869,
				"method": "rhf"
			},
			{
				"type": "unocc",
				"energy": -0.0835,
				"method": "rhf"
			},
			{
				"type": "unocc",
				"energy": -0.04799,
				"method": "rhf"
			},
			{
				"type": "unocc",
				"energy": -0.0414,
				"method": "rhf"
			},
			{
				"type": "unocc",
				"energy": -0.00862,
				"method": "rhf"
			},
			{
				"type": "unocc",
				"energy": -0.00431,
				"method": "rhf"
			}
		],
		"cosmo_sigma_profile": { 
			"-0.025": 0.0,
			"-0.024": 0.0,
			"-0.023": 0.0,
			"-0.022": 0.0,
			"-0.021": 0.0,
			"-0.02": 0.0,
			"-0.019": 0.0,
			"-0.018": 0.0,
			"-0.017": 0.0,
			"-0.016": 0.0,
			"-0.015": 0.0,
			"-0.014": 0.212794744033,
			"-0.013": 1.8612254556,
			"-0.012": 1.79689184025,
			"-0.011": 3.10299841755,
			"-0.01": 3.19945022078,
			"-0.009": 2.89615893089,
			"-0.008": 3.00998128082,
			"-0.007": 11.3455246925,
			"-0.006": 26.140648467,
			"-0.005": 31.5626249368,
			"-0.004": 27.572727867,
			"-0.003": 26.3016376121,
			"-0.002": 22.6503178166,
			"-0.001": 20.0135385099,
			"0.0": 18.9344183972,
			"0.001": 25.3310226324,
			"0.002": 33.953610098,
			"0.003": 34.0780960348,
			"0.004": 29.3655216539,
			"0.005": 27.9819571636,
			"0.006": 14.9031247065,
			"0.007": 8.01328637129,
			"0.008": 10.693667216,
			"0.009": 7.62785296592,
			"0.01": 4.21139567844,
			"0.011": 0.667430578363,
			"0.012": 0.296175857459,
			"0.013": 0.00252986531123,
			"0.014": 0.0,
			"0.015": 0.0,
			"0.016": 0.0,
			"0.017": 0.0,
			"0.018": 0.0,
			"0.019": 0.0,
			"0.02": 0.0,
			"0.021": 0.0,
			"0.022": 0.0,
			"0.023": 0.0,
			"0.024": 0.0,
			"0.025": 0.0
		}
	}
}
