{
	 "smiles": "CN(C)C(=O)NC1=CC(=CC=C1)C(O)=O", 
	 "Tm": 483.15, 
	 "num_atms": 27, 
	 "gaussian": { 
		 "optdone": 1, 
		 "sigma_profile": "yes", 
		 "theory": "DFT", 
		 "functional": "B3LYP", 
		 "basiset": "6-31G**", 
		 "properties": { 
			 "R2extent": 5476.8601, 
			 "electric_dipole_moment_norm": 6.75602235047, 
			 "electric_quadrupole_moment_norm": 22.4468229638, 
			 "total_energy": -723.499172229, 
			 "HOMO_LUMO_gap": 0.18224, 
			 "cosmo_polarized_energy": -23.23, 
			 "cosmo_cavitation_energy": 31.11, 
			 "cosmo_dispersion_energy": -22.83, 
			 "cosmo_repulsion_energy": 1.78, 
			 "cosmo_total_nonelectrostatic_energy": 10.06, 
			 "SMD_solvation_energy": 6.96 
		},
		"coords": [
			{
				"x": 1.3830068054,
				"y": -1.8470110222,
				"z": 3.5990224686,
				"element": "C" 
			},
			{
				"x": 0.5391550368,
				"y": -1.0049756256,
				"z": 2.7604198232,
				"element": "N" 
			},
			{
				"x": -0.8714465039,
				"y": -1.3452532133,
				"z": 2.67228458,
				"element": "C" 
			},
			{
				"x": 1.15234157,
				"y": -0.0385107147,
				"z": 1.9838838586,
				"element": "C" 
			},
			{
				"x": 2.3460250188,
				"y": 0.2308730287,
				"z": 2.0828777275,
				"element": "O" 
			},
			{
				"x": 0.3015171803,
				"y": 0.6066946411,
				"z": 1.0885493793,
				"element": "N" 
			},
			{
				"x": 0.6137964762,
				"y": 1.6675576631,
				"z": 0.2199168833,
				"element": "C" 
			},
			{
				"x": -0.3913353252,
				"y": 2.0854630102,
				"z": -0.6672027073,
				"element": "C" 
			},
			{
				"x": -0.1803328818,
				"y": 3.1566480608,
				"z": -1.5426081004,
				"element": "C" 
			},
			{
				"x": 1.04348226,
				"y": 3.8351575364,
				"z": -1.5293110436,
				"element": "C" 
			},
			{
				"x": 2.0455250054,
				"y": 3.4075776792,
				"z": -0.6626893063,
				"element": "C" 
			},
			{
				"x": 1.8505236726,
				"y": 2.3350089636,
				"z": 0.2082143532,
				"element": "C" 
			},
			{
				"x": -1.2413008144,
				"y": 3.6327958384,
				"z": -2.4879312335,
				"element": "C" 
			},
			{
				"x": -2.1831298633,
				"y": 2.7166240217,
				"z": -2.8537334571,
				"element": "O" 
			},
			{
				"x": -1.293422728,
				"y": 4.7576926203,
				"z": -2.9245569233,
				"element": "O" 
			},
			{
				"x": 1.0193331554,
				"y": -1.8419940261,
				"z": 4.6330007751,
				"element": "H" 
			},
			{
				"x": 1.3947809596,
				"y": -2.8838633062,
				"z": 3.2377955229,
				"element": "H" 
			},
			{
				"x": 2.3954237959,
				"y": -1.4489039531,
				"z": 3.5723346933,
				"element": "H" 
			},
			{
				"x": -1.1241024634,
				"y": -1.9109100197,
				"z": 1.7622059706,
				"element": "H" 
			},
			{
				"x": -1.5050880742,
				"y": -0.4523369319,
				"z": 2.7257768997,
				"element": "H" 
			},
			{
				"x": -1.1342335004,
				"y": -1.9694697176,
				"z": 3.5286061494,
				"element": "H" 
			},
			{
				"x": -0.6363283224,
				"y": 0.2516198966,
				"z": 0.9946041802,
				"element": "H" 
			},
			{
				"x": -1.3630248111,
				"y": 1.5952289593,
				"z": -0.6287437442,
				"element": "H" 
			},
			{
				"x": 1.1853127468,
				"y": 4.6758658196,
				"z": -2.1986800237,
				"element": "H" 
			},
			{
				"x": 3.0042546093,
				"y": 3.9178181734,
				"z": -0.6551146872,
				"element": "H" 
			},
			{
				"x": 2.630902398,
				"y": 2.0064298434,
				"z": 0.8789020868,
				"element": "H" 
			},
			{
				"x": -1.8960354024,
				"y": 1.8324727747,
				"z": -2.5864241254,
				"element": "H" 
			}
		],
		 "valence_orbital": [ 
			{
				"type": "occ",
				"energy": -0.2734,
				"method": "rhf"
			},
			{
				"type": "occ",
				"energy": -0.26929,
				"method": "rhf"
			},
			{
				"type": "occ",
				"energy": -0.26286,
				"method": "rhf"
			},
			{
				"type": "occ",
				"energy": -0.25121,
				"method": "rhf"
			},
			{
				"type": "occ",
				"energy": -0.22679,
				"method": "rhf"
			},
			{
				"type": "unocc",
				"energy": -0.04455,
				"method": "rhf"
			},
			{
				"type": "unocc",
				"energy": -0.01549,
				"method": "rhf"
			},
			{
				"type": "unocc",
				"energy": 0.04147,
				"method": "rhf"
			},
			{
				"type": "unocc",
				"energy": 0.0496,
				"method": "rhf"
			},
			{
				"type": "unocc",
				"energy": 0.06263,
				"method": "rhf"
			}
		],
		"cosmo_sigma_profile": { 
			"-0.025": 0.0,
			"-0.024": 0.0,
			"-0.023": 0.0,
			"-0.022": 0.0,
			"-0.021": 0.0,
			"-0.02": 0.0,
			"-0.019": 0.0438771050596,
			"-0.018": 0.465994846497,
			"-0.017": 1.09543316174,
			"-0.016": 1.0376545037,
			"-0.015": 2.14882252722,
			"-0.014": 1.80490375261,
			"-0.013": 2.25940509207,
			"-0.012": 2.9200292411,
			"-0.011": 2.80466329203,
			"-0.01": 2.35090106049,
			"-0.009": 2.78526523746,
			"-0.008": 2.61848436716,
			"-0.007": 4.24699838995,
			"-0.006": 9.30903568388,
			"-0.005": 15.3394377448,
			"-0.004": 19.8734236741,
			"-0.003": 21.5224033626,
			"-0.002": 18.2384396593,
			"-0.001": 15.6255618456,
			"0.0": 11.4597148584,
			"0.001": 13.3419542592,
			"0.002": 16.1487078544,
			"0.003": 17.3006855433,
			"0.004": 13.0218916244,
			"0.005": 4.56060350176,
			"0.006": 4.43477863595,
			"0.007": 4.67934960385,
			"0.008": 4.71069518751,
			"0.009": 4.95041297526,
			"0.01": 6.10047911883,
			"0.011": 6.73511509286,
			"0.012": 7.35835272073,
			"0.013": 4.39069124021,
			"0.014": 1.87274681808,
			"0.015": 0.0,
			"0.016": 0.0,
			"0.017": 0.0,
			"0.018": 0.0,
			"0.019": 0.0,
			"0.02": 0.0,
			"0.021": 0.0,
			"0.022": 0.0,
			"0.023": 0.0,
			"0.024": 0.0,
			"0.025": 0.0
		}
	}
}
