{
	 "smiles": "OC1=C2NN=CC2=CC=C1", 
	 "Tm": 455.15, 
	 "num_atms": 16, 
	 "gaussian": { 
		 "optdone": 1, 
		 "sigma_profile": "yes", 
		 "theory": "DFT", 
		 "functional": "B3LYP", 
		 "basiset": "6-31G**", 
		 "properties": { 
			 "R2extent": 1652.313, 
			 "electric_dipole_moment_norm": 1.20015318189, 
			 "electric_quadrupole_moment_norm": 10.6747958102, 
			 "total_energy": -455.058658228, 
			 "HOMO_LUMO_gap": 0.18593, 
			 "cosmo_polarized_energy": -14.85, 
			 "cosmo_cavitation_energy": 20.15, 
			 "cosmo_dispersion_energy": -15.47, 
			 "cosmo_repulsion_energy": 1.24, 
			 "cosmo_total_nonelectrostatic_energy": 5.93, 
			 "SMD_solvation_energy": 2.76 
		},
		"coords": [
			{
				"x": 0.8255879428,
				"y": 2.6312944228,
				"z": 0.1873294284,
				"element": "O" 
			},
			{
				"x": 1.2653041312,
				"y": 1.3863395683,
				"z": -0.1847842676,
				"element": "C" 
			},
			{
				"x": 0.5068750812,
				"y": 0.475520438,
				"z": -0.947323631,
				"element": "C" 
			},
			{
				"x": -0.7540813337,
				"y": 0.537222462,
				"z": -1.4913247764,
				"element": "N" 
			},
			{
				"x": -1.0853817779,
				"y": -0.5979459058,
				"z": -2.1630402137,
				"element": "N" 
			},
			{
				"x": -0.0398999835,
				"y": -1.3968238858,
				"z": -2.0552507582,
				"element": "C" 
			},
			{
				"x": 1.0173392327,
				"y": -0.7983764239,
				"z": -1.3005921678,
				"element": "C" 
			},
			{
				"x": 2.3085635906,
				"y": -1.1850775365,
				"z": -0.892017599,
				"element": "C" 
			},
			{
				"x": 3.0466012725,
				"y": -0.2843772237,
				"z": -0.1433728316,
				"element": "C" 
			},
			{
				"x": 2.5334090193,
				"y": 0.9845455028,
				"z": 0.2063620928,
				"element": "C" 
			},
			{
				"x": -0.0653968812,
				"y": 2.7894862756,
				"z": -0.1444637923,
				"element": "H" 
			},
			{
				"x": -1.4338303347,
				"y": 1.2785367975,
				"z": -1.4594405467,
				"element": "H" 
			},
			{
				"x": -0.064001508,
				"y": -2.3756240625,
				"z": -2.5156257165,
				"element": "H" 
			},
			{
				"x": 2.7090567211,
				"y": -2.1581750616,
				"z": -1.1570477087,
				"element": "H" 
			},
			{
				"x": 4.0460104833,
				"y": -0.5479030385,
				"z": 0.1893078828,
				"element": "H" 
			},
			{
				"x": 3.1275443443,
				"y": 1.6768576714,
				"z": 0.7939846055,
				"element": "H" 
			}
		],
		 "valence_orbital": [ 
			{
				"type": "occ",
				"energy": -0.33095,
				"method": "rhf"
			},
			{
				"type": "occ",
				"energy": -0.29474,
				"method": "rhf"
			},
			{
				"type": "occ",
				"energy": -0.27815,
				"method": "rhf"
			},
			{
				"type": "occ",
				"energy": -0.24227,
				"method": "rhf"
			},
			{
				"type": "occ",
				"energy": -0.20704,
				"method": "rhf"
			},
			{
				"type": "unocc",
				"energy": -0.02111,
				"method": "rhf"
			},
			{
				"type": "unocc",
				"energy": 0.01863,
				"method": "rhf"
			},
			{
				"type": "unocc",
				"energy": 0.02555,
				"method": "rhf"
			},
			{
				"type": "unocc",
				"energy": 0.06395,
				"method": "rhf"
			},
			{
				"type": "unocc",
				"energy": 0.10833,
				"method": "rhf"
			}
		],
		"cosmo_sigma_profile": { 
			"-0.025": 0.0,
			"-0.024": 0.0,
			"-0.023": 0.0,
			"-0.022": 0.105569294274,
			"-0.021": 0.91862823519,
			"-0.02": 1.08209412203,
			"-0.019": 1.40346779116,
			"-0.018": 1.54417865097,
			"-0.017": 1.41328491954,
			"-0.016": 1.66109025149,
			"-0.015": 1.98077097563,
			"-0.014": 1.454665607,
			"-0.013": 1.27463915094,
			"-0.012": 0.762165517649,
			"-0.011": 1.26205215583,
			"-0.01": 1.58754909599,
			"-0.009": 0.928176016916,
			"-0.008": 1.26483204867,
			"-0.007": 2.70968581536,
			"-0.006": 5.50626891481,
			"-0.005": 8.17672912343,
			"-0.004": 10.1631101041,
			"-0.003": 7.89268303406,
			"-0.002": 6.92756316254,
			"-0.001": 6.42621268279,
			"0.0": 7.29956886303,
			"0.001": 7.07680340943,
			"0.002": 10.5738665555,
			"0.003": 13.8188358238,
			"0.004": 15.4120463327,
			"0.005": 12.4906843256,
			"0.006": 7.91969619663,
			"0.007": 3.9726870443,
			"0.008": 2.92360126602,
			"0.009": 2.73589691986,
			"0.01": 2.82451587512,
			"0.011": 3.49335123358,
			"0.012": 1.03571554215,
			"0.013": 1.53535561601,
			"0.014": 0.996771859123,
			"0.015": 0.87579341531,
			"0.016": 0.13286961956,
			"0.017": 0.0,
			"0.018": 0.0,
			"0.019": 0.0,
			"0.02": 0.0,
			"0.021": 0.0,
			"0.022": 0.0,
			"0.023": 0.0,
			"0.024": 0.0,
			"0.025": 0.0
		}
	}
}
