{
	 "smiles": "FC(F)(F)C(F)(F)C(F)(F)C(F)(F)C(F)(F)I", 
	 "Tm": 223.15, 
	 "num_atms": 17, 
	 "gaussian": { 
		 "optdone": 1, 
		 "sigma_profile": "no", 
		 "theory": "DFT", 
		 "functional": "B3LYP", 
		 "basiset": "6-31G**", 
		 "properties": { 
			 "R2extent": 3804.2708, 
			 "electric_dipole_moment_norm": 0.631109776505, 
			 "electric_quadrupole_moment_norm": 3.34646166271, 
			 "total_energy": -1300.10431281, 
			 "HOMO_LUMO_gap": 0.20622, 
			 "cosmo_polarized_energy": -81633.82, 
			 "cosmo_cavitation_energy": 28.24, 
			 "cosmo_dispersion_energy": -20.29, 
			 "cosmo_repulsion_energy": 1.35, 
			 "cosmo_total_nonelectrostatic_energy": 9.3, 
			 "SMD_solvation_energy": 7.66 
		},
		"coords": [
			{
				"x": 0.4150661566,
				"y": 3.7525825159,
				"z": 0.8003174085,
				"element": "F" 
			},
			{
				"x": 0.0156024233,
				"y": 3.1392910244,
				"z": -0.3200959379,
				"element": "C" 
			},
			{
				"x": 1.0136201903,
				"y": 3.1705121251,
				"z": -1.2114913302,
				"element": "F" 
			},
			{
				"x": -1.039109326,
				"y": 3.7917574095,
				"z": -0.8172981367,
				"element": "F" 
			},
			{
				"x": -0.3625962897,
				"y": 1.674240067,
				"z": 0.0270775586,
				"element": "C" 
			},
			{
				"x": -1.46025587,
				"y": 1.7157529466,
				"z": 0.8173259311,
				"element": "F" 
			},
			{
				"x": 0.6693661516,
				"y": 1.1372707285,
				"z": 0.7196644593,
				"element": "F" 
			},
			{
				"x": -0.6521361698,
				"y": 0.7751792433,
				"z": -1.1978731641,
				"element": "C" 
			},
			{
				"x": -1.5414692035,
				"y": 1.4301928679,
				"z": -1.985969428,
				"element": "F" 
			},
			{
				"x": 0.4964015789,
				"y": 0.6039085021,
				"z": -1.8871272977,
				"element": "F" 
			},
			{
				"x": -1.2837738103,
				"y": -0.6318038223,
				"z": -0.9374092003,
				"element": "C" 
			},
			{
				"x": -2.5243919661,
				"y": -0.4659342868,
				"z": -0.4373838049,
				"element": "F" 
			},
			{
				"x": -1.3900921516,
				"y": -1.1878683363,
				"z": -2.16905291,
				"element": "F" 
			},
			{
				"x": -0.4805345863,
				"y": -1.6578602904,
				"z": -0.0618561185,
				"element": "C" 
			},
			{
				"x": -0.799908162,
				"y": -2.8885988313,
				"z": -0.4948435751,
				"element": "F" 
			},
			{
				"x": 0.8358700153,
				"y": -1.4693931873,
				"z": -0.2598854083,
				"element": "F" 
			},
			{
				"x": -0.9232589807,
				"y": -1.5868286759,
				"z": 2.0805009542,
				"element": "I" 
			}
		],
		 "valence_orbital": [ 
			{
				"type": "occ",
				"energy": -0.40888,
				"method": "rhf"
			},
			{
				"type": "occ",
				"energy": -0.36831,
				"method": "rhf"
			},
			{
				"type": "occ",
				"energy": -0.35077,
				"method": "rhf"
			},
			{
				"type": "occ",
				"energy": -0.29258,
				"method": "rhf"
			},
			{
				"type": "occ",
				"energy": -0.29158,
				"method": "rhf"
			},
			{
				"type": "unocc",
				"energy": -0.08536,
				"method": "rhf"
			},
			{
				"type": "unocc",
				"energy": 0.0172,
				"method": "rhf"
			},
			{
				"type": "unocc",
				"energy": 0.02111,
				"method": "rhf"
			},
			{
				"type": "unocc",
				"energy": 0.04612,
				"method": "rhf"
			},
			{
				"type": "unocc",
				"energy": 0.04761,
				"method": "rhf"
			}
		],
		"cosmo_sigma_profile": { 
			"0.0": 0.0,
			"0.0": 0.0,
			"0.0": 0.0,
			"0.0": 0.0,
			"0.0": 0.0,
			"0.0": 0.0,
			"0.0": 0.0,
			"0.0": 0.0,
			"0.0": 0.0,
			"0.0": 0.0,
			"0.0": 0.0,
			"0.0": 0.0,
			"0.0": 0.0,
			"0.0": 0.0,
			"0.0": 0.0,
			"0.0": 0.0,
			"0.0": 0.0,
			"0.0": 0.0,
			"0.0": 0.0,
			"0.0": 0.0,
			"0.0": 0.0,
			"0.0": 0.0,
			"0.0": 0.0,
			"0.0": 0.0,
			"0.0": 0.0,
			"0.0": 0.0,
			"0.0": 0.0,
			"0.0": 0.0,
			"0.0": 0.0,
			"0.0": 0.0,
			"0.0": 0.0,
			"0.0": 0.0,
			"0.0": 0.0,
			"0.0": 0.0,
			"0.0": 0.0,
			"0.0": 0.0,
			"0.0": 0.0,
			"0.0": 0.0,
			"0.0": 0.0,
			"0.0": 0.0,
			"0.0": 0.0,
			"0.0": 0.0,
			"0.0": 0.0,
			"0.0": 0.0,
			"0.0": 0.0,
			"0.0": 0.0,
			"0.0": 0.0,
			"0.0": 0.0,
			"0.0": 0.0,
			"0.0": 0.0,
			"0.0": 0.0
		}
	}
}
