{
	 "smiles": "CC1=CC(=CC(C)=C1I)C(C)(C)C", 
	 "Tm": 329.15, 
	 "num_atms": 30, 
	 "gaussian": { 
		 "optdone": 1, 
		 "sigma_profile": "no", 
		 "theory": "DFT", 
		 "functional": "B3LYP", 
		 "basiset": "6-31G**", 
		 "properties": { 
			 "R2extent": 3443.0381, 
			 "electric_dipole_moment_norm": 1.94353032649, 
			 "electric_quadrupole_moment_norm": 7.30187348836, 
			 "total_energy": -478.937700773, 
			 "HOMO_LUMO_gap": 0.19853, 
			 "cosmo_polarized_energy": -84302.33, 
			 "cosmo_cavitation_energy": 33.45, 
			 "cosmo_dispersion_energy": -24.82, 
			 "cosmo_repulsion_energy": 1.92, 
			 "cosmo_total_nonelectrostatic_energy": 10.55, 
			 "SMD_solvation_energy": 5.08 
		},
		"coords": [
			{
				"x": -0.7960233272,
				"y": -3.3774462372,
				"z": -0.5360753016,
				"element": "C" 
			},
			{
				"x": 0.2341144401,
				"y": -2.2753879613,
				"z": -0.5106586227,
				"element": "C" 
			},
			{
				"x": -0.1885448696,
				"y": -0.9427069069,
				"z": -0.4560266296,
				"element": "C" 
			},
			{
				"x": 0.7008710298,
				"y": 0.1395168323,
				"z": -0.4290700491,
				"element": "C" 
			},
			{
				"x": 2.0653498147,
				"y": -0.1573121662,
				"z": -0.4591737947,
				"element": "C" 
			},
			{
				"x": 2.5560774719,
				"y": -1.4717151554,
				"z": -0.5142849159,
				"element": "C" 
			},
			{
				"x": 4.0476138131,
				"y": -1.6979529233,
				"z": -0.5438191987,
				"element": "C" 
			},
			{
				"x": 1.6191653485,
				"y": -2.5142991447,
				"z": -0.539124137,
				"element": "C" 
			},
			{
				"x": 2.3185052901,
				"y": -4.5340701172,
				"z": -0.6229955346,
				"element": "I" 
			},
			{
				"x": 0.1582276123,
				"y": 1.5792251506,
				"z": -0.3690449778,
				"element": "C" 
			},
			{
				"x": -0.7245158741,
				"y": 1.8475624478,
				"z": -1.6113479418,
				"element": "C" 
			},
			{
				"x": 1.2848360236,
				"y": 2.6297078536,
				"z": -0.3447327593,
				"element": "C" 
			},
			{
				"x": -0.6922793011,
				"y": 1.75478417,
				"z": 0.9117308242,
				"element": "C" 
			},
			{
				"x": -0.6808179536,
				"y": -4.054207892,
				"z": 0.3174620611,
				"element": "H" 
			},
			{
				"x": -1.8056496318,
				"y": -2.9600277246,
				"z": -0.5063381428,
				"element": "H" 
			},
			{
				"x": -0.7060880921,
				"y": -3.9901738973,
				"z": -1.4395545129,
				"element": "H" 
			},
			{
				"x": -1.2590088655,
				"y": -0.7592111973,
				"z": -0.4342177693,
				"element": "H" 
			},
			{
				"x": 2.796174114,
				"y": 0.6431679414,
				"z": -0.4401517529,
				"element": "H" 
			},
			{
				"x": 4.3794113999,
				"y": -2.2995909143,
				"z": 0.3093126428,
				"element": "H" 
			},
			{
				"x": 4.5813388525,
				"y": -0.7446289512,
				"z": -0.516683143,
				"element": "H" 
			},
			{
				"x": 4.3543101999,
				"y": -2.2354940156,
				"z": -1.4476311372,
				"element": "H" 
			},
			{
				"x": -0.1460067298,
				"y": 1.7360518753,
				"z": -2.5342679865,
				"element": "H" 
			},
			{
				"x": -1.5734281407,
				"y": 1.1596160767,
				"z": -1.6646847398,
				"element": "H" 
			},
			{
				"x": -1.1237694061,
				"y": 2.8676631099,
				"z": -1.5813657065,
				"element": "H" 
			},
			{
				"x": 1.9091914159,
				"y": 2.57938481,
				"z": -1.2428308444,
				"element": "H" 
			},
			{
				"x": 0.8506117292,
				"y": 3.6337592474,
				"z": -0.3015724987,
				"element": "H" 
			},
			{
				"x": 1.9325560639,
				"y": 2.5131695546,
				"z": 0.5303677989,
				"element": "H" 
			},
			{
				"x": -1.5404384744,
				"y": 1.0642466022,
				"z": 0.9360589414,
				"element": "H" 
			},
			{
				"x": -0.0906109115,
				"y": 1.5762233043,
				"z": 1.8089486102,
				"element": "H" 
			},
			{
				"x": -1.0909730418,
				"y": 2.7740462283,
				"z": 0.9669712184,
				"element": "H" 
			}
		],
		 "valence_orbital": [ 
			{
				"type": "occ",
				"energy": -0.31409,
				"method": "rhf"
			},
			{
				"type": "occ",
				"energy": -0.2816,
				"method": "rhf"
			},
			{
				"type": "occ",
				"energy": -0.25858,
				"method": "rhf"
			},
			{
				"type": "occ",
				"energy": -0.24113,
				"method": "rhf"
			},
			{
				"type": "occ",
				"energy": -0.22735,
				"method": "rhf"
			},
			{
				"type": "unocc",
				"energy": -0.02882,
				"method": "rhf"
			},
			{
				"type": "unocc",
				"energy": -0.009,
				"method": "rhf"
			},
			{
				"type": "unocc",
				"energy": -0.00081,
				"method": "rhf"
			},
			{
				"type": "unocc",
				"energy": 0.04214,
				"method": "rhf"
			},
			{
				"type": "unocc",
				"energy": 0.05,
				"method": "rhf"
			}
		],
		"cosmo_sigma_profile": { 
			"0.0": 0.0,
			"0.0": 0.0,
			"0.0": 0.0,
			"0.0": 0.0,
			"0.0": 0.0,
			"0.0": 0.0,
			"0.0": 0.0,
			"0.0": 0.0,
			"0.0": 0.0,
			"0.0": 0.0,
			"0.0": 0.0,
			"0.0": 0.0,
			"0.0": 0.0,
			"0.0": 0.0,
			"0.0": 0.0,
			"0.0": 0.0,
			"0.0": 0.0,
			"0.0": 0.0,
			"0.0": 0.0,
			"0.0": 0.0,
			"0.0": 0.0,
			"0.0": 0.0,
			"0.0": 0.0,
			"0.0": 0.0,
			"0.0": 0.0,
			"0.0": 0.0,
			"0.0": 0.0,
			"0.0": 0.0,
			"0.0": 0.0,
			"0.0": 0.0,
			"0.0": 0.0,
			"0.0": 0.0,
			"0.0": 0.0,
			"0.0": 0.0,
			"0.0": 0.0,
			"0.0": 0.0,
			"0.0": 0.0,
			"0.0": 0.0,
			"0.0": 0.0,
			"0.0": 0.0,
			"0.0": 0.0,
			"0.0": 0.0,
			"0.0": 0.0,
			"0.0": 0.0,
			"0.0": 0.0,
			"0.0": 0.0,
			"0.0": 0.0,
			"0.0": 0.0,
			"0.0": 0.0,
			"0.0": 0.0,
			"0.0": 0.0
		}
	}
}
