{
	 "smiles": "COC1=C(C)C(Cl)=CC=C1", 
	 "Tm": 270.15, 
	 "num_atms": 19, 
	 "gaussian": { 
		 "optdone": 1, 
		 "sigma_profile": "yes", 
		 "theory": "DFT", 
		 "functional": "B3LYP", 
		 "basiset": "6-31G**", 
		 "properties": { 
			 "R2extent": 2561.0905, 
			 "electric_dipole_moment_norm": 3.11025961778, 
			 "electric_quadrupole_moment_norm": 6.26751623452, 
			 "total_energy": -845.686793415, 
			 "HOMO_LUMO_gap": 0.21588, 
			 "cosmo_polarized_energy": -5.16, 
			 "cosmo_cavitation_energy": 23.75, 
			 "cosmo_dispersion_energy": -17.83, 
			 "cosmo_repulsion_energy": 1.44, 
			 "cosmo_total_nonelectrostatic_energy": 7.36, 
			 "SMD_solvation_energy": 4.68 
		},
		"coords": [
			{
				"x": -0.2062589488,
				"y": 2.3764278826,
				"z": 1.9489065847,
				"element": "C" 
			},
			{
				"x": -0.3265761678,
				"y": 1.6209258221,
				"z": 0.7548811739,
				"element": "O" 
			},
			{
				"x": 0.8134239547,
				"y": 1.2184464581,
				"z": 0.116034432,
				"element": "C" 
			},
			{
				"x": 0.6143648006,
				"y": 0.4695118511,
				"z": -1.0682767786,
				"element": "C" 
			},
			{
				"x": -0.7730627124,
				"y": 0.1531351294,
				"z": -1.5662067187,
				"element": "C" 
			},
			{
				"x": 1.7646469726,
				"y": 0.0462520387,
				"z": -1.7399956387,
				"element": "C" 
			},
			{
				"x": 1.5920059444,
				"y": -0.8925189459,
				"z": -3.2247828101,
				"element": "Cl" 
			},
			{
				"x": 3.0592505749,
				"y": 0.3271602466,
				"z": -1.2981289664,
				"element": "C" 
			},
			{
				"x": 3.2135410986,
				"y": 1.0653413091,
				"z": -0.1307880586,
				"element": "C" 
			},
			{
				"x": 2.0994440117,
				"y": 1.5137337077,
				"z": 0.5806234351,
				"element": "C" 
			},
			{
				"x": 0.317907882,
				"y": 1.8151884646,
				"z": 2.7330404016,
				"element": "H" 
			},
			{
				"x": -1.2261505353,
				"y": 2.582942342,
				"z": 2.2770759246,
				"element": "H" 
			},
			{
				"x": 0.3162897587,
				"y": 3.3261734029,
				"z": 1.7770864348,
				"element": "H" 
			},
			{
				"x": -0.9265744871,
				"y": -0.9291923389,
				"z": -1.6326445494,
				"element": "H" 
			},
			{
				"x": -1.5272722199,
				"y": 0.5721288497,
				"z": -0.9019000649,
				"element": "H" 
			},
			{
				"x": -0.9283390915,
				"y": 0.5572910995,
				"z": -2.5721689198,
				"element": "H" 
			},
			{
				"x": 3.9142582381,
				"y": -0.0277482612,
				"z": -1.8611928144,
				"element": "H" 
			},
			{
				"x": 4.2100603917,
				"y": 1.2966894406,
				"z": 0.2332258775,
				"element": "H" 
			},
			{
				"x": 2.2411405348,
				"y": 2.0875115014,
				"z": 1.4879110553,
				"element": "H" 
			}
		],
		 "valence_orbital": [ 
			{
				"type": "occ",
				"energy": -0.3299,
				"method": "rhf"
			},
			{
				"type": "occ",
				"energy": -0.30918,
				"method": "rhf"
			},
			{
				"type": "occ",
				"energy": -0.30505,
				"method": "rhf"
			},
			{
				"type": "occ",
				"energy": -0.23926,
				"method": "rhf"
			},
			{
				"type": "occ",
				"energy": -0.22266,
				"method": "rhf"
			},
			{
				"type": "unocc",
				"energy": -0.00678,
				"method": "rhf"
			},
			{
				"type": "unocc",
				"energy": 0.00661,
				"method": "rhf"
			},
			{
				"type": "unocc",
				"energy": 0.03607,
				"method": "rhf"
			},
			{
				"type": "unocc",
				"energy": 0.09533,
				"method": "rhf"
			},
			{
				"type": "unocc",
				"energy": 0.11001,
				"method": "rhf"
			}
		],
		"cosmo_sigma_profile": { 
			"-0.025": 0.0,
			"-0.024": 0.0,
			"-0.023": 0.0,
			"-0.022": 0.0,
			"-0.021": 0.0,
			"-0.02": 0.0,
			"-0.019": 0.0,
			"-0.018": 0.0,
			"-0.017": 0.0,
			"-0.016": 0.0,
			"-0.015": 0.0,
			"-0.014": 0.0,
			"-0.013": 0.0,
			"-0.012": 0.0,
			"-0.011": 0.0,
			"-0.01": 0.0,
			"-0.009": 0.0,
			"-0.008": 0.0,
			"-0.007": 1.61781048019,
			"-0.006": 10.1440740237,
			"-0.005": 14.0852372338,
			"-0.004": 16.6447985441,
			"-0.003": 15.8053902411,
			"-0.002": 13.1573861631,
			"-0.001": 13.7867957309,
			"0.0": 16.1265873791,
			"0.001": 13.5832236441,
			"0.002": 16.5343207543,
			"0.003": 18.5985777732,
			"0.004": 19.1613954694,
			"0.005": 15.688062751,
			"0.006": 3.44078445843,
			"0.007": 1.87820759045,
			"0.008": 0.697587116828,
			"0.009": 0.000915788300507,
			"0.01": 0.0,
			"0.011": 0.0,
			"0.012": 0.0,
			"0.013": 0.0,
			"0.014": 0.0,
			"0.015": 0.0,
			"0.016": 0.0,
			"0.017": 0.0,
			"0.018": 0.0,
			"0.019": 0.0,
			"0.02": 0.0,
			"0.021": 0.0,
			"0.022": 0.0,
			"0.023": 0.0,
			"0.024": 0.0,
			"0.025": 0.0
		}
	}
}
