{
	 "smiles": "COC1=C(OCC2=C(C)ON=C2C)C=CC(C=O)=C1", 
	 "Tm": 386.15, 
	 "num_atms": 34, 
	 "gaussian": { 
		 "optdone": 1, 
		 "sigma_profile": "yes", 
		 "theory": "DFT", 
		 "functional": "B3LYP", 
		 "basiset": "6-31G**", 
		 "properties": { 
			 "R2extent": 6712.0684, 
			 "electric_dipole_moment_norm": 4.16274077382, 
			 "electric_quadrupole_moment_norm": 27.5816331231, 
			 "total_energy": -898.102443149, 
			 "HOMO_LUMO_gap": 0.1827, 
			 "cosmo_polarized_energy": -15.16, 
			 "cosmo_cavitation_energy": 38.53, 
			 "cosmo_dispersion_energy": -25.45, 
			 "cosmo_repulsion_energy": 1.98, 
			 "cosmo_total_nonelectrostatic_energy": 15.06, 
			 "SMD_solvation_energy": 8.52 
		},
		"coords": [
			{
				"x": 0.1987372397,
				"y": 2.1199579384,
				"z": 3.6833688833,
				"element": "C" 
			},
			{
				"x": -1.0024674899,
				"y": 1.8749174496,
				"z": 2.9384887724,
				"element": "O" 
			},
			{
				"x": -0.8674862063,
				"y": 2.0480198155,
				"z": 1.5752796005,
				"element": "C" 
			},
			{
				"x": -0.2207003012,
				"y": 1.073765242,
				"z": 0.7778568001,
				"element": "C" 
			},
			{
				"x": 0.3531747205,
				"y": -0.0511564312,
				"z": 1.3058113681,
				"element": "O" 
			},
			{
				"x": -0.4993149569,
				"y": -0.9537908495,
				"z": 2.0715215913,
				"element": "C" 
			},
			{
				"x": -1.5740656941,
				"y": -1.57650186,
				"z": 1.2479758776,
				"element": "C" 
			},
			{
				"x": -2.9176258347,
				"y": -1.3146420389,
				"z": 1.2531155121,
				"element": "C" 
			},
			{
				"x": -3.7854708842,
				"y": -0.3964189674,
				"z": 2.0433475139,
				"element": "C" 
			},
			{
				"x": -3.5311418864,
				"y": -2.0886468018,
				"z": 0.3370318604,
				"element": "O" 
			},
			{
				"x": -2.5767403127,
				"y": -2.8900325296,
				"z": -0.3147617033,
				"element": "N" 
			},
			{
				"x": -1.4257852328,
				"y": -2.5788117359,
				"z": 0.2319396473,
				"element": "C" 
			},
			{
				"x": -0.166761312,
				"y": -3.251189092,
				"z": -0.2195713367,
				"element": "C" 
			},
			{
				"x": -0.0979714431,
				"y": 1.2863999978,
				"z": -0.5994194298,
				"element": "C" 
			},
			{
				"x": -0.6236287334,
				"y": 2.4331315809,
				"z": -1.1865123671,
				"element": "C" 
			},
			{
				"x": -1.2928883636,
				"y": 3.381777311,
				"z": -0.403074888,
				"element": "C" 
			},
			{
				"x": -1.8651799245,
				"y": 4.5929109136,
				"z": -1.0258157363,
				"element": "C" 
			},
			{
				"x": -2.4576081938,
				"y": 5.468858649,
				"z": -0.4229721838,
				"element": "O" 
			},
			{
				"x": -1.4055848572,
				"y": 3.1810398648,
				"z": 0.9809384596,
				"element": "C" 
			},
			{
				"x": 0.5282295937,
				"y": 3.1575863286,
				"z": 3.5534172425,
				"element": "H" 
			},
			{
				"x": 1.002394411,
				"y": 1.4418251113,
				"z": 3.3762313787,
				"element": "H" 
			},
			{
				"x": -0.0487918201,
				"y": 1.9470739786,
				"z": 4.7324339827,
				"element": "H" 
			},
			{
				"x": -0.9203228257,
				"y": -0.425075559,
				"z": 2.9283855769,
				"element": "H" 
			},
			{
				"x": 0.2046822069,
				"y": -1.7065169767,
				"z": 2.4351964704,
				"element": "H" 
			},
			{
				"x": -4.4770284931,
				"y": -0.9632456055,
				"z": 2.6762582939,
				"element": "H" 
			},
			{
				"x": -4.3870177898,
				"y": 0.2281353274,
				"z": 1.3755338401,
				"element": "H" 
			},
			{
				"x": -3.1819127,
				"y": 0.2563332793,
				"z": 2.6768367965,
				"element": "H" 
			},
			{
				"x": 0.580048585,
				"y": -2.5110659975,
				"z": -0.5229689302,
				"element": "H" 
			},
			{
				"x": 0.2718119799,
				"y": -3.8450843386,
				"z": 0.5904748128,
				"element": "H" 
			},
			{
				"x": -0.3761995687,
				"y": -3.9154798255,
				"z": -1.0601280614,
				"element": "H" 
			},
			{
				"x": 0.4090150155,
				"y": 0.5300224225,
				"z": -1.1890376697,
				"element": "H" 
			},
			{
				"x": -0.5304925898,
				"y": 2.5873604366,
				"z": -2.2586308337,
				"element": "H" 
			},
			{
				"x": -1.7148288137,
				"y": 4.6594194237,
				"z": -2.1266974573,
				"element": "H" 
			},
			{
				"x": -1.9112775244,
				"y": 3.9227235385,
				"z": 1.5907463163,
				"element": "H" 
			}
		],
		 "valence_orbital": [ 
			{
				"type": "occ",
				"energy": -0.28165,
				"method": "rhf"
			},
			{
				"type": "occ",
				"energy": -0.26168,
				"method": "rhf"
			},
			{
				"type": "occ",
				"energy": -0.25493,
				"method": "rhf"
			},
			{
				"type": "occ",
				"energy": -0.25399,
				"method": "rhf"
			},
			{
				"type": "occ",
				"energy": -0.24486,
				"method": "rhf"
			},
			{
				"type": "unocc",
				"energy": -0.06216,
				"method": "rhf"
			},
			{
				"type": "unocc",
				"energy": -0.01688,
				"method": "rhf"
			},
			{
				"type": "unocc",
				"energy": -0.0077,
				"method": "rhf"
			},
			{
				"type": "unocc",
				"energy": 0.03269,
				"method": "rhf"
			},
			{
				"type": "unocc",
				"energy": 0.04196,
				"method": "rhf"
			}
		],
		"cosmo_sigma_profile": { 
			"-0.025": 0.0,
			"-0.024": 0.0,
			"-0.023": 0.0,
			"-0.022": 0.0,
			"-0.021": 0.0,
			"-0.02": 0.0,
			"-0.019": 0.0,
			"-0.018": 0.0,
			"-0.017": 0.0,
			"-0.016": 0.0,
			"-0.015": 0.0,
			"-0.014": 0.0,
			"-0.013": 0.0,
			"-0.012": 0.0,
			"-0.011": 0.0,
			"-0.01": 0.0,
			"-0.009": 0.00806478832964,
			"-0.008": 1.39944052856,
			"-0.007": 6.48770599308,
			"-0.006": 18.136852661,
			"-0.005": 26.200243457,
			"-0.004": 25.9009160179,
			"-0.003": 33.9557610744,
			"-0.002": 32.4432950502,
			"-0.001": 25.6341611356,
			"0.0": 20.5062851086,
			"0.001": 22.9295855259,
			"0.002": 19.922458628,
			"0.003": 14.0117842552,
			"0.004": 6.47778084431,
			"0.005": 5.8252974323,
			"0.006": 5.7476853137,
			"0.007": 5.00969030344,
			"0.008": 8.41868195981,
			"0.009": 7.21479297722,
			"0.01": 5.44579569436,
			"0.011": 5.95441007181,
			"0.012": 4.50248456256,
			"0.013": 2.35609942696,
			"0.014": 1.36357878849,
			"0.015": 0.624872579282,
			"0.016": 0.0,
			"0.017": 0.0,
			"0.018": 0.0,
			"0.019": 0.0,
			"0.02": 0.0,
			"0.021": 0.0,
			"0.022": 0.0,
			"0.023": 0.0,
			"0.024": 0.0,
			"0.025": 0.0
		}
	}
}
