{
	 "smiles": "COC(=O)CN(C)C1=NC=C(Br)C=C1", 
	 "Tm": 366.15, 
	 "num_atms": 25, 
	 "gaussian": { 
		 "optdone": 1, 
		 "sigma_profile": "yes", 
		 "theory": "DFT", 
		 "functional": "B3LYP", 
		 "basiset": "6-31G**", 
		 "properties": { 
			 "R2extent": 7029.4811, 
			 "electric_dipole_moment_norm": 2.66766705194, 
			 "electric_quadrupole_moment_norm": 10.4328004495, 
			 "total_energy": -3180.94033293, 
			 "HOMO_LUMO_gap": 0.17752, 
			 "cosmo_polarized_energy": -10.8, 
			 "cosmo_cavitation_energy": 31.35, 
			 "cosmo_dispersion_energy": -22.56, 
			 "cosmo_repulsion_energy": 1.81, 
			 "cosmo_total_nonelectrostatic_energy": 10.59, 
			 "SMD_solvation_energy": 4.51 
		},
		"coords": [
			{
				"x": -1.2545318705,
				"y": -1.6351977205,
				"z": 2.9576729,
				"element": "C" 
			},
			{
				"x": -0.693209323,
				"y": -0.7246352803,
				"z": 1.9940509812,
				"element": "O" 
			},
			{
				"x": 0.6163738739,
				"y": -0.4588971066,
				"z": 2.147614715,
				"element": "C" 
			},
			{
				"x": 1.3088158633,
				"y": -0.9130613998,
				"z": 3.0317258097,
				"element": "O" 
			},
			{
				"x": 1.1328146517,
				"y": 0.5270506977,
				"z": 1.0915094225,
				"element": "C" 
			},
			{
				"x": 0.4573949273,
				"y": 0.5291438918,
				"z": -0.1844521917,
				"element": "N" 
			},
			{
				"x": -0.6519971445,
				"y": 1.4597917427,
				"z": -0.3720470851,
				"element": "C" 
			},
			{
				"x": 0.5945930584,
				"y": -0.5536146577,
				"z": -1.0357719988,
				"element": "C" 
			},
			{
				"x": -0.1729966333,
				"y": -0.5516213606,
				"z": -2.141046325,
				"element": "N" 
			},
			{
				"x": -0.0513329531,
				"y": -1.5458362378,
				"z": -3.0212350465,
				"element": "C" 
			},
			{
				"x": 0.8340650867,
				"y": -2.6051611357,
				"z": -2.8495695664,
				"element": "C" 
			},
			{
				"x": 0.943289228,
				"y": -3.9944418532,
				"z": -4.1525519507,
				"element": "Br" 
			},
			{
				"x": 1.6238281957,
				"y": -2.6337369629,
				"z": -1.6996726712,
				"element": "C" 
			},
			{
				"x": 1.5080207732,
				"y": -1.6063231157,
				"z": -0.7755585044,
				"element": "C" 
			},
			{
				"x": -2.3010592886,
				"y": -1.7502824657,
				"z": 2.6778284577,
				"element": "H" 
			},
			{
				"x": -0.7374916207,
				"y": -2.5967262918,
				"z": 2.919179499,
				"element": "H" 
			},
			{
				"x": -1.1669594597,
				"y": -1.2257908572,
				"z": 3.9669845968,
				"element": "H" 
			},
			{
				"x": 2.2035684075,
				"y": 0.3314980071,
				"z": 0.9805906896,
				"element": "H" 
			},
			{
				"x": 1.0490724675,
				"y": 1.5286012464,
				"z": 1.5269593464,
				"element": "H" 
			},
			{
				"x": -0.8197956358,
				"y": 1.6111528584,
				"z": -1.4367382019,
				"element": "H" 
			},
			{
				"x": -1.5813581905,
				"y": 1.0872833563,
				"z": 0.0780047935,
				"element": "H" 
			},
			{
				"x": -0.3922585993,
				"y": 2.4149134364,
				"z": 0.093202834,
				"element": "H" 
			},
			{
				"x": -0.6903720913,
				"y": -1.4995894129,
				"z": -3.9000859459,
				"element": "H" 
			},
			{
				"x": 2.3150049214,
				"y": -3.451401524,
				"z": -1.5260412122,
				"element": "H" 
			},
			{
				"x": 2.1078213558,
				"y": -1.6361178545,
				"z": 0.1255466541,
				"element": "H" 
			}
		],
		 "valence_orbital": [ 
			{
				"type": "occ",
				"energy": -0.28933,
				"method": "rhf"
			},
			{
				"type": "occ",
				"energy": -0.2845,
				"method": "rhf"
			},
			{
				"type": "occ",
				"energy": -0.27071,
				"method": "rhf"
			},
			{
				"type": "occ",
				"energy": -0.2604,
				"method": "rhf"
			},
			{
				"type": "occ",
				"energy": -0.2058,
				"method": "rhf"
			},
			{
				"type": "unocc",
				"energy": -0.02828,
				"method": "rhf"
			},
			{
				"type": "unocc",
				"energy": -0.00288,
				"method": "rhf"
			},
			{
				"type": "unocc",
				"energy": 0.0012,
				"method": "rhf"
			},
			{
				"type": "unocc",
				"energy": 0.01206,
				"method": "rhf"
			},
			{
				"type": "unocc",
				"energy": 0.0844,
				"method": "rhf"
			}
		],
		"cosmo_sigma_profile": { 
			"-0.025": 0.0,
			"-0.024": 0.0,
			"-0.023": 0.0,
			"-0.022": 0.0,
			"-0.021": 0.0,
			"-0.02": 0.0,
			"-0.019": 0.0,
			"-0.018": 0.0,
			"-0.017": 0.0,
			"-0.016": 0.0,
			"-0.015": 0.0,
			"-0.014": 0.0,
			"-0.013": 0.0,
			"-0.012": 0.0,
			"-0.011": 0.0,
			"-0.01": 0.0,
			"-0.009": 1.49569116575,
			"-0.008": 5.84827418101,
			"-0.007": 9.65896515526,
			"-0.006": 14.9147614307,
			"-0.005": 16.0237260323,
			"-0.004": 20.1845382963,
			"-0.003": 19.5737745464,
			"-0.002": 18.827685923,
			"-0.001": 17.325085893,
			"0.0": 12.9239656413,
			"0.001": 17.9511396059,
			"0.002": 22.7144244145,
			"0.003": 18.1051066634,
			"0.004": 18.1473471,
			"0.005": 14.0671026106,
			"0.006": 3.70189129659,
			"0.007": 2.38239404537,
			"0.008": 3.74956327399,
			"0.009": 2.4332793287,
			"0.01": 2.85691620447,
			"0.011": 4.85155209504,
			"0.012": 4.47497949546,
			"0.013": 0.417744392962,
			"0.014": 0.0,
			"0.015": 0.0,
			"0.016": 0.0,
			"0.017": 0.0,
			"0.018": 0.0,
			"0.019": 0.0,
			"0.02": 0.0,
			"0.021": 0.0,
			"0.022": 0.0,
			"0.023": 0.0,
			"0.024": 0.0,
			"0.025": 0.0
		}
	}
}
