{
	 "smiles": "CC12CCC3C(CCC4CC(O)CCC34C)C1CCC21OCCO1", 
	 "Tm": 424.15, 
	 "num_atms": 58, 
	 "gaussian": { 
		 "optdone": 1, 
		 "sigma_profile": "yes", 
		 "theory": "DFT", 
		 "functional": "B3LYP", 
		 "basiset": "6-31G**", 
		 "properties": { 
			 "R2extent": 8672.7988, 
			 "electric_dipole_moment_norm": 1.12800745565, 
			 "electric_quadrupole_moment_norm": 20.1229777419, 
			 "total_energy": -1046.39118239, 
			 "HOMO_LUMO_gap": 0.306, 
			 "cosmo_polarized_energy": -10.74, 
			 "cosmo_cavitation_energy": 47.84, 
			 "cosmo_dispersion_energy": -33.48, 
			 "cosmo_repulsion_energy": 2.46, 
			 "cosmo_total_nonelectrostatic_energy": 16.82, 
			 "SMD_solvation_energy": 6.27 
		},
		"coords": [
			{
				"x": -3.1310101771,
				"y": 0.3466831408,
				"z": -0.9581991237,
				"element": "C" 
			},
			{
				"x": -1.6419535065,
				"y": 0.457320947,
				"z": -1.357010328,
				"element": "C" 
			},
			{
				"x": -1.1348007013,
				"y": -0.8654719567,
				"z": -1.9478077729,
				"element": "C" 
			},
			{
				"x": -1.0833260644,
				"y": -1.9616945235,
				"z": -0.8633296405,
				"element": "C" 
			},
			{
				"x": -0.2904484426,
				"y": -1.6239791024,
				"z": 0.4339957659,
				"element": "C" 
			},
			{
				"x": -0.6560787843,
				"y": -0.1835000893,
				"z": 0.9469021053,
				"element": "C" 
			},
			{
				"x": 0.2696327241,
				"y": 0.2285430572,
				"z": 2.1035375053,
				"element": "C" 
			},
			{
				"x": 1.7640921418,
				"y": 0.263847916,
				"z": 1.7102219799,
				"element": "C" 
			},
			{
				"x": 2.1211251774,
				"y": -0.6461458783,
				"z": 0.5143991606,
				"element": "C" 
			},
			{
				"x": 3.6398476451,
				"y": -0.8964979042,
				"z": 0.4490783074,
				"element": "C" 
			},
			{
				"x": 4.0412763526,
				"y": -1.6948073361,
				"z": -0.7945581309,
				"element": "C" 
			},
			{
				"x": 5.4490181192,
				"y": -1.9126067212,
				"z": -0.8677315736,
				"element": "O" 
			},
			{
				"x": 3.2476803016,
				"y": -3.0020495777,
				"z": -0.8695384281,
				"element": "C" 
			},
			{
				"x": 1.7304349264,
				"y": -2.7558790015,
				"z": -0.7934056464,
				"element": "C" 
			},
			{
				"x": 1.2757341356,
				"y": -1.9560537818,
				"z": 0.4587157586,
				"element": "C" 
			},
			{
				"x": 1.5318569512,
				"y": -2.8319524807,
				"z": 1.712239187,
				"element": "C" 
			},
			{
				"x": -0.7065174914,
				"y": 0.8524616738,
				"z": -0.1875695789,
				"element": "C" 
			},
			{
				"x": -1.1103365247,
				"y": 2.3059399888,
				"z": 0.1378196454,
				"element": "C" 
			},
			{
				"x": -1.4740042143,
				"y": 2.9064386276,
				"z": -1.2504220276,
				"element": "C" 
			},
			{
				"x": -1.4768507684,
				"y": 1.716801849,
				"z": -2.2542778,
				"element": "C" 
			},
			{
				"x": -2.4924504119,
				"y": 1.8001131271,
				"z": -3.2490990877,
				"element": "O" 
			},
			{
				"x": -1.882725312,
				"y": 2.1690816309,
				"z": -4.4809530354,
				"element": "C" 
			},
			{
				"x": -0.493605116,
				"y": 1.554522352,
				"z": -4.3490046988,
				"element": "C" 
			},
			{
				"x": -0.2246464183,
				"y": 1.7139139374,
				"z": -2.9596652602,
				"element": "O" 
			},
			{
				"x": -3.7287153843,
				"y": 0.1063322138,
				"z": -1.8412292754,
				"element": "H" 
			},
			{
				"x": -3.5235043379,
				"y": 1.28113909,
				"z": -0.5482936847,
				"element": "H" 
			},
			{
				"x": -3.3004407161,
				"y": -0.4310629704,
				"z": -0.2103701527,
				"element": "H" 
			},
			{
				"x": -1.7828487164,
				"y": -1.2006134822,
				"z": -2.7680964904,
				"element": "H" 
			},
			{
				"x": -0.1383731266,
				"y": -0.6985871047,
				"z": -2.3726080001,
				"element": "H" 
			},
			{
				"x": -2.1129463113,
				"y": -2.1800724436,
				"z": -0.5561574092,
				"element": "H" 
			},
			{
				"x": -0.7197027978,
				"y": -2.8940027289,
				"z": -1.3027592647,
				"element": "H" 
			},
			{
				"x": -0.7135521772,
				"y": -2.2997161809,
				"z": 1.1874448927,
				"element": "H" 
			},
			{
				"x": -1.6717036334,
				"y": -0.2521125019,
				"z": 1.361881948,
				"element": "H" 
			},
			{
				"x": -0.0369827433,
				"y": 1.2030836024,
				"z": 2.5000656165,
				"element": "H" 
			},
			{
				"x": 0.1198322032,
				"y": -0.4831094514,
				"z": 2.9244171911,
				"element": "H" 
			},
			{
				"x": 2.0661009427,
				"y": 1.2879124409,
				"z": 1.4593153438,
				"element": "H" 
			},
			{
				"x": 2.3716137203,
				"y": -0.0178604343,
				"z": 2.5796040192,
				"element": "H" 
			},
			{
				"x": 1.8773762304,
				"y": -0.0979141436,
				"z": -0.4041254802,
				"element": "H" 
			},
			{
				"x": 3.9770290996,
				"y": -1.4372928122,
				"z": 1.346001997,
				"element": "H" 
			},
			{
				"x": 4.1730709422,
				"y": 0.0619860049,
				"z": 0.4501854603,
				"element": "H" 
			},
			{
				"x": 3.8125138724,
				"y": -1.0936758008,
				"z": -1.6848715143,
				"element": "H" 
			},
			{
				"x": 5.6991945826,
				"y": -2.4365733901,
				"z": -0.0943809916,
				"element": "H" 
			},
			{
				"x": 3.572863469,
				"y": -3.6589267604,
				"z": -0.0502197657,
				"element": "H" 
			},
			{
				"x": 3.4963671683,
				"y": -3.5250580065,
				"z": -1.7999825976,
				"element": "H" 
			},
			{
				"x": 1.2112926979,
				"y": -3.7209598137,
				"z": -0.8301017257,
				"element": "H" 
			},
			{
				"x": 1.4329662549,
				"y": -2.2109538661,
				"z": -1.697424454,
				"element": "H" 
			},
			{
				"x": 2.5860339343,
				"y": -3.0883812284,
				"z": 1.8445150854,
				"element": "H" 
			},
			{
				"x": 0.9761011939,
				"y": -3.7732651363,
				"z": 1.6311281946,
				"element": "H" 
			},
			{
				"x": 1.2013292344,
				"y": -2.3381561613,
				"z": 2.6299732022,
				"element": "H" 
			},
			{
				"x": 0.2885121252,
				"y": 0.9166982005,
				"z": -0.6416459332,
				"element": "H" 
			},
			{
				"x": -1.9713653741,
				"y": 2.3320781723,
				"z": 0.815775252,
				"element": "H" 
			},
			{
				"x": -0.3044180989,
				"y": 2.8610699336,
				"z": 0.6265708922,
				"element": "H" 
			},
			{
				"x": -0.7475107014,
				"y": 3.651007618,
				"z": -1.5839195084,
				"element": "H" 
			},
			{
				"x": -2.4607292057,
				"y": 3.3764328701,
				"z": -1.2529331082,
				"element": "H" 
			},
			{
				"x": -1.8284783263,
				"y": 3.2628050839,
				"z": -4.5859938351,
				"element": "H" 
			},
			{
				"x": -2.4786115264,
				"y": 1.7587214873,
				"z": -5.3007302545,
				"element": "H" 
			},
			{
				"x": -0.4986129422,
				"y": 0.4928145816,
				"z": -4.6346697222,
				"element": "H" 
			},
			{
				"x": 0.2826539064,
				"y": 2.0764832239,
				"z": -4.9156032098,
				"element": "H" 
			}
		],
		 "valence_orbital": [ 
			{
				"type": "occ",
				"energy": -0.27209,
				"method": "rhf"
			},
			{
				"type": "occ",
				"energy": -0.26975,
				"method": "rhf"
			},
			{
				"type": "occ",
				"energy": -0.26494,
				"method": "rhf"
			},
			{
				"type": "occ",
				"energy": -0.24863,
				"method": "rhf"
			},
			{
				"type": "occ",
				"energy": -0.23802,
				"method": "rhf"
			},
			{
				"type": "unocc",
				"energy": 0.06798,
				"method": "rhf"
			},
			{
				"type": "unocc",
				"energy": 0.07718,
				"method": "rhf"
			},
			{
				"type": "unocc",
				"energy": 0.0844,
				"method": "rhf"
			},
			{
				"type": "unocc",
				"energy": 0.09172,
				"method": "rhf"
			},
			{
				"type": "unocc",
				"energy": 0.09557,
				"method": "rhf"
			}
		],
		"cosmo_sigma_profile": { 
			"-0.025": 0.0,
			"-0.024": 0.0,
			"-0.023": 0.0,
			"-0.022": 0.0,
			"-0.021": 0.0,
			"-0.02": 0.0,
			"-0.019": 0.0,
			"-0.018": 0.0,
			"-0.017": 0.0,
			"-0.016": 0.0,
			"-0.015": 0.0876300009064,
			"-0.014": 0.841699344316,
			"-0.013": 0.723542559698,
			"-0.012": 1.1925046882,
			"-0.011": 0.560727135601,
			"-0.01": 0.980091189052,
			"-0.009": 1.11162089618,
			"-0.008": 0.931780559013,
			"-0.007": 1.6184732171,
			"-0.006": 3.72126381011,
			"-0.005": 9.21282077924,
			"-0.004": 15.1400010932,
			"-0.003": 27.3926451982,
			"-0.002": 52.1508802174,
			"-0.001": 70.2908965459,
			"0.0": 61.4928538206,
			"0.001": 46.0686312164,
			"0.002": 23.5548825464,
			"0.003": 5.72460280007,
			"0.004": 5.95188739856,
			"0.005": 4.68867911627,
			"0.006": 4.30654076665,
			"0.007": 4.6907014376,
			"0.008": 3.50477013242,
			"0.009": 3.73006591579,
			"0.01": 3.56308204586,
			"0.011": 2.46478967655,
			"0.012": 3.24739309409,
			"0.013": 1.65772953649,
			"0.014": 2.29469518002,
			"0.015": 2.11511372356,
			"0.016": 0.164953607411,
			"0.017": 0.0,
			"0.018": 0.0,
			"0.019": 0.0,
			"0.02": 0.0,
			"0.021": 0.0,
			"0.022": 0.0,
			"0.023": 0.0,
			"0.024": 0.0,
			"0.025": 0.0
		}
	}
}
