{
	 "smiles": "CC1(Br)CS(=O)(=O)CC1Br", 
	 "Tm": 400.15, 
	 "num_atms": 18, 
	 "gaussian": { 
		 "optdone": 1, 
		 "sigma_profile": "yes", 
		 "theory": "DFT", 
		 "functional": "B3LYP", 
		 "basiset": "6-31G**", 
		 "properties": { 
			 "R2extent": 3582.6859, 
			 "electric_dipole_moment_norm": 4.51992710118, 
			 "electric_quadrupole_moment_norm": 12.5537675389, 
			 "total_energy": -5886.7355154, 
			 "HOMO_LUMO_gap": 0.22559, 
			 "cosmo_polarized_energy": -16.09, 
			 "cosmo_cavitation_energy": 25.54, 
			 "cosmo_dispersion_energy": -19.73, 
			 "cosmo_repulsion_energy": 1.51, 
			 "cosmo_total_nonelectrostatic_energy": 7.32, 
			 "SMD_solvation_energy": 1.34 
		},
		"coords": [
			{
				"x": -0.4830317255,
				"y": 3.1994587419,
				"z": -0.8771565464,
				"element": "C" 
			},
			{
				"x": 0.2151671253,
				"y": 2.0537415029,
				"z": -0.1560739797,
				"element": "C" 
			},
			{
				"x": 2.0044614803,
				"y": 2.7830998992,
				"z": 0.46668187,
				"element": "Br" 
			},
			{
				"x": -0.5493738972,
				"y": 1.5404506058,
				"z": 1.064602124,
				"element": "C" 
			},
			{
				"x": 0.1032939123,
				"y": -0.1406694073,
				"z": 1.4520070547,
				"element": "S" 
			},
			{
				"x": -1.0139588055,
				"y": -1.0931386136,
				"z": 1.4466231181,
				"element": "O" 
			},
			{
				"x": 1.0294564432,
				"y": -0.0775608902,
				"z": 2.5886539187,
				"element": "O" 
			},
			{
				"x": 1.0694843966,
				"y": -0.2993974297,
				"z": -0.1116976765,
				"element": "C" 
			},
			{
				"x": 0.5930459366,
				"y": 0.827626812,
				"z": -1.0235659487,
				"element": "C" 
			},
			{
				"x": -0.9911162789,
				"y": 0.2110350543,
				"z": -2.080856483,
				"element": "Br" 
			},
			{
				"x": -1.4695427959,
				"y": 2.8769144265,
				"z": -1.2198713041,
				"element": "H" 
			},
			{
				"x": 0.0983905535,
				"y": 3.5236799324,
				"z": -1.7436714195,
				"element": "H" 
			},
			{
				"x": -0.6024692089,
				"y": 4.0506972225,
				"z": -0.2037724424,
				"element": "H" 
			},
			{
				"x": -1.6056313271,
				"y": 1.4037045361,
				"z": 0.8185811243,
				"element": "H" 
			},
			{
				"x": -0.4400492913,
				"y": 2.1665518694,
				"z": 1.9491986492,
				"element": "H" 
			},
			{
				"x": 0.8998654627,
				"y": -1.2964647282,
				"z": -0.5154351732,
				"element": "H" 
			},
			{
				"x": 2.1184680599,
				"y": -0.1638279334,
				"z": 0.1578012736,
				"element": "H" 
			},
			{
				"x": 1.3286399597,
				"y": 1.0895983995,
				"z": -1.7810481594,
				"element": "H" 
			}
		],
		 "valence_orbital": [ 
			{
				"type": "occ",
				"energy": -0.3074,
				"method": "rhf"
			},
			{
				"type": "occ",
				"energy": -0.29858,
				"method": "rhf"
			},
			{
				"type": "occ",
				"energy": -0.29712,
				"method": "rhf"
			},
			{
				"type": "occ",
				"energy": -0.29543,
				"method": "rhf"
			},
			{
				"type": "occ",
				"energy": -0.28861,
				"method": "rhf"
			},
			{
				"type": "unocc",
				"energy": -0.06302,
				"method": "rhf"
			},
			{
				"type": "unocc",
				"energy": -0.01644,
				"method": "rhf"
			},
			{
				"type": "unocc",
				"energy": 0.04673,
				"method": "rhf"
			},
			{
				"type": "unocc",
				"energy": 0.04952,
				"method": "rhf"
			},
			{
				"type": "unocc",
				"energy": 0.05433,
				"method": "rhf"
			}
		],
		"cosmo_sigma_profile": { 
			"-0.025": 0.0,
			"-0.024": 0.0,
			"-0.023": 0.0,
			"-0.022": 0.0,
			"-0.021": 0.0,
			"-0.02": 0.0,
			"-0.019": 0.0,
			"-0.018": 0.0,
			"-0.017": 0.0,
			"-0.016": 0.0,
			"-0.015": 0.0,
			"-0.014": 0.0,
			"-0.013": 0.0,
			"-0.012": 0.0,
			"-0.011": 0.0,
			"-0.01": 2.27197994434,
			"-0.009": 8.54773553433,
			"-0.008": 10.4592161204,
			"-0.007": 11.4071176768,
			"-0.006": 13.8478499174,
			"-0.005": 11.575934541,
			"-0.004": 10.4583170231,
			"-0.003": 11.5893027356,
			"-0.002": 13.9197399422,
			"-0.001": 11.236823153,
			"0.0": 9.80584245817,
			"0.001": 9.52088737692,
			"0.002": 10.9860842693,
			"0.003": 12.2049883159,
			"0.004": 14.2443303568,
			"0.005": 8.67733916961,
			"0.006": 3.4104294781,
			"0.007": 3.32638653013,
			"0.008": 3.20763184478,
			"0.009": 3.20008851137,
			"0.01": 7.25031153796,
			"0.011": 12.0724369096,
			"0.012": 4.16100674524,
			"0.013": 0.0,
			"0.014": 0.0,
			"0.015": 0.0,
			"0.016": 0.0,
			"0.017": 0.0,
			"0.018": 0.0,
			"0.019": 0.0,
			"0.02": 0.0,
			"0.021": 0.0,
			"0.022": 0.0,
			"0.023": 0.0,
			"0.024": 0.0,
			"0.025": 0.0
		}
	}
}
