{
	 "smiles": "CC(C)N1C(=O)C2C=CC(C)C(C2C1=O)C(O)=O", 
	 "Tm": 423.15, 
	 "num_atms": 35, 
	 "gaussian": { 
		 "optdone": 1, 
		 "sigma_profile": "yes", 
		 "theory": "DFT", 
		 "functional": "B3LYP", 
		 "basiset": "6-31G**", 
		 "properties": { 
			 "R2extent": 4646.3134, 
			 "electric_dipole_moment_norm": 1.34065438872, 
			 "electric_quadrupole_moment_norm": 18.5836426577, 
			 "total_energy": -861.308434391, 
			 "HOMO_LUMO_gap": 0.22756, 
			 "cosmo_polarized_energy": -16.33, 
			 "cosmo_cavitation_energy": 36.54, 
			 "cosmo_dispersion_energy": -24.95, 
			 "cosmo_repulsion_energy": 1.93, 
			 "cosmo_total_nonelectrostatic_energy": 13.52, 
			 "SMD_solvation_energy": 8.44 
		},
		"coords": [
			{
				"x": -2.3175173932,
				"y": 2.3900984014,
				"z": 1.37282258,
				"element": "C" 
			},
			{
				"x": -2.7301731433,
				"y": 1.3168147134,
				"z": 0.3575656964,
				"element": "C" 
			},
			{
				"x": -3.2316124461,
				"y": 1.9121703056,
				"z": -0.9633067356,
				"element": "C" 
			},
			{
				"x": -1.6265735146,
				"y": 0.3632325234,
				"z": 0.1239109016,
				"element": "N" 
			},
			{
				"x": -1.7072228154,
				"y": -0.9901249933,
				"z": 0.5131504852,
				"element": "C" 
			},
			{
				"x": -2.7000913529,
				"y": -1.5291234826,
				"z": 0.9546369401,
				"element": "O" 
			},
			{
				"x": -0.3014551447,
				"y": -1.5481918921,
				"z": 0.35559776,
				"element": "C" 
			},
			{
				"x": -0.0190742763,
				"y": -2.9890872531,
				"z": 0.0758465571,
				"element": "C" 
			},
			{
				"x": 1.0854694131,
				"y": -3.2993739704,
				"z": -0.6128934597,
				"element": "C" 
			},
			{
				"x": 2.088711535,
				"y": -2.3233919273,
				"z": -1.2156827094,
				"element": "C" 
			},
			{
				"x": 3.5297188252,
				"y": -2.7349674734,
				"z": -0.8619040137,
				"element": "C" 
			},
			{
				"x": 1.7832577638,
				"y": -0.7928028089,
				"z": -0.9411593816,
				"element": "C" 
			},
			{
				"x": 0.2746421842,
				"y": -0.6592367968,
				"z": -0.7489870193,
				"element": "C" 
			},
			{
				"x": -0.4062153442,
				"y": 0.6776600857,
				"z": -0.4923735745,
				"element": "C" 
			},
			{
				"x": -0.0318409648,
				"y": 1.7900820129,
				"z": -0.8071420094,
				"element": "O" 
			},
			{
				"x": 2.6606099031,
				"y": -0.1753416113,
				"z": 0.1406397496,
				"element": "C" 
			},
			{
				"x": 2.1075343318,
				"y": -0.1666681552,
				"z": 1.3806380831,
				"element": "O" 
			},
			{
				"x": 3.7674513245,
				"y": 0.268740062,
				"z": -0.0643905035,
				"element": "O" 
			},
			{
				"x": -1.9924358272,
				"y": 1.9335079173,
				"z": 2.3126865133,
				"element": "H" 
			},
			{
				"x": -3.1705016865,
				"y": 3.0409120743,
				"z": 1.5896585021,
				"element": "H" 
			},
			{
				"x": -1.5027583585,
				"y": 3.0028998297,
				"z": 0.9802605922,
				"element": "H" 
			},
			{
				"x": -3.5197411718,
				"y": 0.6956404874,
				"z": 0.7909432845,
				"element": "H" 
			},
			{
				"x": -2.4551076384,
				"y": 2.5143064826,
				"z": -1.4412914201,
				"element": "H" 
			},
			{
				"x": -4.097641982,
				"y": 2.5535371666,
				"z": -0.7725390878,
				"element": "H" 
			},
			{
				"x": -3.5413219033,
				"y": 1.1224254167,
				"z": -1.6545890567,
				"element": "H" 
			},
			{
				"x": 0.1832860841,
				"y": -1.2741286502,
				"z": 1.3037999725,
				"element": "H" 
			},
			{
				"x": -0.681409643,
				"y": -3.7541547807,
				"z": 0.471243382,
				"element": "H" 
			},
			{
				"x": 1.3178650026,
				"y": -4.3471877346,
				"z": -0.7989523146,
				"element": "H" 
			},
			{
				"x": 1.9939919429,
				"y": -2.4351870822,
				"z": -2.3063986158,
				"element": "H" 
			},
			{
				"x": 3.6952001159,
				"y": -2.7145140106,
				"z": 0.2200881025,
				"element": "H" 
			},
			{
				"x": 4.258510158,
				"y": -2.0667046378,
				"z": -1.3269694318,
				"element": "H" 
			},
			{
				"x": 3.7236847414,
				"y": -3.754924695,
				"z": -1.2081309717,
				"element": "H" 
			},
			{
				"x": 2.0843182845,
				"y": -0.2432605117,
				"z": -1.8369980328,
				"element": "H" 
			},
			{
				"x": -0.1735552917,
				"y": -1.0124641144,
				"z": -1.6907062941,
				"element": "H" 
			},
			{
				"x": 2.7586982877,
				"y": 0.2650091024,
				"z": 1.9601255299,
				"element": "H" 
			}
		],
		 "valence_orbital": [ 
			{
				"type": "occ",
				"energy": -0.2857,
				"method": "rhf"
			},
			{
				"type": "occ",
				"energy": -0.27584,
				"method": "rhf"
			},
			{
				"type": "occ",
				"energy": -0.27197,
				"method": "rhf"
			},
			{
				"type": "occ",
				"energy": -0.26719,
				"method": "rhf"
			},
			{
				"type": "occ",
				"energy": -0.25081,
				"method": "rhf"
			},
			{
				"type": "unocc",
				"energy": -0.02325,
				"method": "rhf"
			},
			{
				"type": "unocc",
				"energy": -0.00502,
				"method": "rhf"
			},
			{
				"type": "unocc",
				"energy": 0.00476,
				"method": "rhf"
			},
			{
				"type": "unocc",
				"energy": 0.02836,
				"method": "rhf"
			},
			{
				"type": "unocc",
				"energy": 0.06583,
				"method": "rhf"
			}
		],
		"cosmo_sigma_profile": { 
			"-0.025": 0.0,
			"-0.024": 0.0,
			"-0.023": 0.0,
			"-0.022": 0.0,
			"-0.021": 0.0,
			"-0.02": 0.0,
			"-0.019": 0.0525687229137,
			"-0.018": 1.13103334154,
			"-0.017": 0.725308832579,
			"-0.016": 0.802881468431,
			"-0.015": 0.82723004178,
			"-0.014": 0.535214407754,
			"-0.013": 0.257473983934,
			"-0.012": 1.1031561924,
			"-0.011": 1.37483467803,
			"-0.01": 0.403093546475,
			"-0.009": 0.731622009601,
			"-0.008": 3.01845177372,
			"-0.007": 6.02749671566,
			"-0.006": 10.1141062999,
			"-0.005": 12.4918717399,
			"-0.004": 25.7924253017,
			"-0.003": 31.2145220929,
			"-0.002": 28.3908610991,
			"-0.001": 25.4784560478,
			"0.0": 30.4743529144,
			"0.001": 22.3951215742,
			"0.002": 13.1121864591,
			"0.003": 9.0905612753,
			"0.004": 8.34478468603,
			"0.005": 6.9851649785,
			"0.006": 4.97000235821,
			"0.007": 4.472222261,
			"0.008": 4.09382071646,
			"0.009": 4.71220334142,
			"0.01": 6.19880391769,
			"0.011": 10.3596737326,
			"0.012": 9.61293233155,
			"0.013": 0.546775212392,
			"0.014": 0.0,
			"0.015": 0.0,
			"0.016": 0.0,
			"0.017": 0.0,
			"0.018": 0.0,
			"0.019": 0.0,
			"0.02": 0.0,
			"0.021": 0.0,
			"0.022": 0.0,
			"0.023": 0.0,
			"0.024": 0.0,
			"0.025": 0.0
		}
	}
}
