{
	 "smiles": "COC(=O)C1=CC(=CC(Cl)=C1)C(=O)OC", 
	 "Tm": 352.15, 
	 "num_atms": 24, 
	 "gaussian": { 
		 "optdone": 1, 
		 "sigma_profile": "yes", 
		 "theory": "DFT", 
		 "functional": "B3LYP", 
		 "basiset": "6-31G**", 
		 "properties": { 
			 "R2extent": 5960.8905, 
			 "electric_dipole_moment_norm": 2.14238081816, 
			 "electric_quadrupole_moment_norm": 16.7147159746, 
			 "total_energy": -1147.5984794, 
			 "HOMO_LUMO_gap": 0.19314, 
			 "cosmo_polarized_energy": -9.88, 
			 "cosmo_cavitation_energy": 31.6, 
			 "cosmo_dispersion_energy": -22.92, 
			 "cosmo_repulsion_energy": 1.81, 
			 "cosmo_total_nonelectrostatic_energy": 10.49, 
			 "SMD_solvation_energy": 8.39 
		},
		"coords": [
			{
				"x": -1.5956004732,
				"y": 1.8621170191,
				"z": -2.789739153,
				"element": "C" 
			},
			{
				"x": -1.7704894647,
				"y": 1.5229198668,
				"z": -1.4039268438,
				"element": "O" 
			},
			{
				"x": -0.7248178925,
				"y": 0.8914063451,
				"z": -0.8290343217,
				"element": "C" 
			},
			{
				"x": 0.300521345,
				"y": 0.6181883496,
				"z": -1.4201383904,
				"element": "O" 
			},
			{
				"x": -0.9758179025,
				"y": 0.5692520075,
				"z": 0.6082938455,
				"element": "C" 
			},
			{
				"x": 0.0363944547,
				"y": -0.0880260571,
				"z": 1.315041098,
				"element": "C" 
			},
			{
				"x": -0.1544706763,
				"y": -0.4092267075,
				"z": 2.6611205306,
				"element": "C" 
			},
			{
				"x": -1.3540144699,
				"y": -0.0757632857,
				"z": 3.3039881278,
				"element": "C" 
			},
			{
				"x": -2.3503331264,
				"y": 0.5779761351,
				"z": 2.5858953085,
				"element": "C" 
			},
			{
				"x": -3.8558243809,
				"y": 0.9985469367,
				"z": 3.3859366921,
				"element": "Cl" 
			},
			{
				"x": -2.178455,
				"y": 0.9066953729,
				"z": 1.2424995511,
				"element": "C" 
			},
			{
				"x": 0.8844173622,
				"y": -1.1105813277,
				"z": 3.4753126786,
				"element": "C" 
			},
			{
				"x": 0.7489786251,
				"y": -1.4030555194,
				"z": 4.6468666739,
				"element": "O" 
			},
			{
				"x": 1.9955175481,
				"y": -1.3828018074,
				"z": 2.7616800866,
				"element": "O" 
			},
			{
				"x": 3.0393188362,
				"y": -2.0575323399,
				"z": 3.4836396649,
				"element": "C" 
			},
			{
				"x": -2.5186158583,
				"y": 2.3572883313,
				"z": -3.0895995402,
				"element": "H" 
			},
			{
				"x": -0.7404509125,
				"y": 2.5307245138,
				"z": -2.9153321662,
				"element": "H" 
			},
			{
				"x": -1.4291478872,
				"y": 0.9618098594,
				"z": -3.386253439,
				"element": "H" 
			},
			{
				"x": 0.9581889439,
				"y": -0.3398455136,
				"z": 0.806209363,
				"element": "H" 
			},
			{
				"x": -1.4846721212,
				"y": -0.3327509072,
				"z": 4.3486269213,
				"element": "H" 
			},
			{
				"x": -2.9614654551,
				"y": 1.4154258928,
				"z": 0.6947579502,
				"element": "H" 
			},
			{
				"x": 3.8484089982,
				"y": -2.1965037608,
				"z": 2.7674146343,
				"element": "H" 
			},
			{
				"x": 2.6848554804,
				"y": -3.0211182814,
				"z": 3.8578121145,
				"element": "H" 
			},
			{
				"x": 3.3724740269,
				"y": -1.4520451223,
				"z": 4.3301286134,
				"element": "H" 
			}
		],
		 "valence_orbital": [ 
			{
				"type": "occ",
				"energy": -0.31064,
				"method": "rhf"
			},
			{
				"type": "occ",
				"energy": -0.28743,
				"method": "rhf"
			},
			{
				"type": "occ",
				"energy": -0.2822,
				"method": "rhf"
			},
			{
				"type": "occ",
				"energy": -0.27902,
				"method": "rhf"
			},
			{
				"type": "occ",
				"energy": -0.26151,
				"method": "rhf"
			},
			{
				"type": "unocc",
				"energy": -0.06837,
				"method": "rhf"
			},
			{
				"type": "unocc",
				"energy": -0.04948,
				"method": "rhf"
			},
			{
				"type": "unocc",
				"energy": 0.01863,
				"method": "rhf"
			},
			{
				"type": "unocc",
				"energy": 0.02238,
				"method": "rhf"
			},
			{
				"type": "unocc",
				"energy": 0.07058,
				"method": "rhf"
			}
		],
		"cosmo_sigma_profile": { 
			"-0.025": 0.0,
			"-0.024": 0.0,
			"-0.023": 0.0,
			"-0.022": 0.0,
			"-0.021": 0.0,
			"-0.02": 0.0,
			"-0.019": 0.0,
			"-0.018": 0.0,
			"-0.017": 0.0,
			"-0.016": 0.0,
			"-0.015": 0.0,
			"-0.014": 0.0,
			"-0.013": 0.0,
			"-0.012": 0.0,
			"-0.011": 0.0,
			"-0.01": 0.0,
			"-0.009": 0.0,
			"-0.008": 0.418862729318,
			"-0.007": 4.95627121428,
			"-0.006": 12.9777166961,
			"-0.005": 17.7700981778,
			"-0.004": 23.4267106711,
			"-0.003": 25.1622567505,
			"-0.002": 21.1000274614,
			"-0.001": 25.5242719512,
			"0.0": 31.7630641135,
			"0.001": 15.3122461905,
			"0.002": 12.9285995859,
			"0.003": 13.8015595717,
			"0.004": 15.4453144274,
			"0.005": 7.03746916828,
			"0.006": 2.5374483325,
			"0.007": 2.71091470635,
			"0.008": 3.21178052213,
			"0.009": 2.8711521336,
			"0.01": 4.46588168027,
			"0.011": 8.2739851602,
			"0.012": 3.45622965181,
			"0.013": 0.0,
			"0.014": 0.0,
			"0.015": 0.0,
			"0.016": 0.0,
			"0.017": 0.0,
			"0.018": 0.0,
			"0.019": 0.0,
			"0.02": 0.0,
			"0.021": 0.0,
			"0.022": 0.0,
			"0.023": 0.0,
			"0.024": 0.0,
			"0.025": 0.0
		}
	}
}
