{
	 "smiles": "CCCCCCCCCCCCCCCCCCCCC(O)=O", 
	 "Tm": 348.15, 
	 "num_atms": 65, 
	 "gaussian": { 
		 "optdone": 1, 
		 "sigma_profile": "yes", 
		 "theory": "DFT", 
		 "functional": "B3LYP", 
		 "basiset": "6-31G**", 
		 "properties": { 
			 "R2extent": 23952.2669, 
			 "electric_dipole_moment_norm": 1.84828607634, 
			 "electric_quadrupole_moment_norm": 29.2222764671, 
			 "total_energy": -976.070455649, 
			 "HOMO_LUMO_gap": 0.27916, 
			 "cosmo_polarized_energy": -8.68, 
			 "cosmo_cavitation_energy": 63.06, 
			 "cosmo_dispersion_energy": -41.66, 
			 "cosmo_repulsion_energy": 3.34, 
			 "cosmo_total_nonelectrostatic_energy": 24.74, 
			 "SMD_solvation_energy": 9.07 
		},
		"coords": [
			{
				"x": 1.807962638,
				"y": 6.421571844,
				"z": -0.6282981528,
				"element": "C" 
			},
			{
				"x": 0.6221630433,
				"y": 7.1282317951,
				"z": -1.2962617076,
				"element": "C" 
			},
			{
				"x": -0.7546921329,
				"y": 6.5442951607,
				"z": -0.9366345514,
				"element": "C" 
			},
			{
				"x": -1.1533366532,
				"y": 6.7166804758,
				"z": 0.5367778078,
				"element": "C" 
			},
			{
				"x": -2.5991578499,
				"y": 6.2971396937,
				"z": 0.8566144116,
				"element": "C" 
			},
			{
				"x": -2.9647279316,
				"y": 4.8101823142,
				"z": 0.6761381556,
				"element": "C" 
			},
			{
				"x": -2.2739570083,
				"y": 3.8278324463,
				"z": 1.6501761752,
				"element": "C" 
			},
			{
				"x": -0.946255587,
				"y": 3.2031768131,
				"z": 1.1770785509,
				"element": "C" 
			},
			{
				"x": -1.1083661137,
				"y": 2.1821034779,
				"z": 0.0402582466,
				"element": "C" 
			},
			{
				"x": 0.2108406505,
				"y": 1.5826049553,
				"z": -0.4785915264,
				"element": "C" 
			},
			{
				"x": 0.939652351,
				"y": 0.6755588903,
				"z": 0.5242534839,
				"element": "C" 
			},
			{
				"x": 2.2803126944,
				"y": 0.1132659148,
				"z": 0.0168340785,
				"element": "C" 
			},
			{
				"x": 2.2096221498,
				"y": -0.8080223406,
				"z": -1.2139706467,
				"element": "C" 
			},
			{
				"x": 1.4153008233,
				"y": -2.1045819232,
				"z": -1.0012645137,
				"element": "C" 
			},
			{
				"x": 1.4544163093,
				"y": -3.0340692842,
				"z": -2.2231659438,
				"element": "C" 
			},
			{
				"x": 0.6090950255,
				"y": -4.3120386885,
				"z": -2.0910246926,
				"element": "C" 
			},
			{
				"x": 1.105885302,
				"y": -5.2928334726,
				"z": -1.017165026,
				"element": "C" 
			},
			{
				"x": 0.3677667835,
				"y": -6.641745443,
				"z": -0.9939415807,
				"element": "C" 
			},
			{
				"x": -1.1064044198,
				"y": -6.5494903086,
				"z": -0.5748286433,
				"element": "C" 
			},
			{
				"x": -1.8170093088,
				"y": -7.9150715317,
				"z": -0.533304482,
				"element": "C" 
			},
			{
				"x": -1.2386876791,
				"y": -8.8885223574,
				"z": 0.4717232902,
				"element": "C" 
			},
			{
				"x": -1.1483228707,
				"y": -8.3434386315,
				"z": 1.7132518442,
				"element": "O" 
			},
			{
				"x": -0.9003631253,
				"y": -10.0289722162,
				"z": 0.2436967141,
				"element": "O" 
			},
			{
				"x": 2.7598597569,
				"y": 6.8500591427,
				"z": -0.9593355094,
				"element": "H" 
			},
			{
				"x": 1.8215720955,
				"y": 5.3536905747,
				"z": -0.8773657318,
				"element": "H" 
			},
			{
				"x": 1.7730915532,
				"y": 6.5061483276,
				"z": 0.4627071971,
				"element": "H" 
			},
			{
				"x": 0.7494558271,
				"y": 7.0818446674,
				"z": -2.3855057499,
				"element": "H" 
			},
			{
				"x": 0.6396862328,
				"y": 8.1953931992,
				"z": -1.0348289921,
				"element": "H" 
			},
			{
				"x": -1.5167407746,
				"y": 7.0289921241,
				"z": -1.5629173078,
				"element": "H" 
			},
			{
				"x": -0.7723367535,
				"y": 5.4803925744,
				"z": -1.2096741685,
				"element": "H" 
			},
			{
				"x": -0.4567455495,
				"y": 6.1719765128,
				"z": 1.1852747639,
				"element": "H" 
			},
			{
				"x": -1.0404636398,
				"y": 7.7768660211,
				"z": 0.8045104153,
				"element": "H" 
			},
			{
				"x": -2.8230546147,
				"y": 6.5804159947,
				"z": 1.8944582509,
				"element": "H" 
			},
			{
				"x": -3.2765186121,
				"y": 6.8947035026,
				"z": 0.2302658703,
				"element": "H" 
			},
			{
				"x": -2.7860933051,
				"y": 4.5026617996,
				"z": -0.361689652,
				"element": "H" 
			},
			{
				"x": -4.0498788987,
				"y": 4.7301038474,
				"z": 0.817487203,
				"element": "H" 
			},
			{
				"x": -2.1080654524,
				"y": 4.3411616966,
				"z": 2.6071585155,
				"element": "H" 
			},
			{
				"x": -2.9663001027,
				"y": 3.0050635252,
				"z": 1.8745460739,
				"element": "H" 
			},
			{
				"x": -0.4746632113,
				"y": 2.7133987265,
				"z": 2.0380872068,
				"element": "H" 
			},
			{
				"x": -0.2486798457,
				"y": 3.9874013643,
				"z": 0.8572445688,
				"element": "H" 
			},
			{
				"x": -1.7678177117,
				"y": 1.3693163491,
				"z": 0.3785009948,
				"element": "H" 
			},
			{
				"x": -1.6269177745,
				"y": 2.6570485892,
				"z": -0.8025103456,
				"element": "H" 
			},
			{
				"x": 0.8835293119,
				"y": 2.3981712612,
				"z": -0.7831884575,
				"element": "H" 
			},
			{
				"x": -0.0040476117,
				"y": 1.0136121195,
				"z": -1.3918921348,
				"element": "H" 
			},
			{
				"x": 1.1379539722,
				"y": 1.2354467507,
				"z": 1.4464603879,
				"element": "H" 
			},
			{
				"x": 0.272828559,
				"y": -0.1483374154,
				"z": 0.8134278642,
				"element": "H" 
			},
			{
				"x": 2.7619332061,
				"y": -0.4359216232,
				"z": 0.8376172325,
				"element": "H" 
			},
			{
				"x": 2.9476877489,
				"y": 0.954952874,
				"z": -0.2142618804,
				"element": "H" 
			},
			{
				"x": 3.2360992694,
				"y": -1.0686898424,
				"z": -1.5063128472,
				"element": "H" 
			},
			{
				"x": 1.7888032989,
				"y": -0.2619488259,
				"z": -2.0688665741,
				"element": "H" 
			},
			{
				"x": 1.8134565387,
				"y": -2.6254073473,
				"z": -0.120013941,
				"element": "H" 
			},
			{
				"x": 0.3678267082,
				"y": -1.8690747192,
				"z": -0.7679498869,
				"element": "H" 
			},
			{
				"x": 2.4974826526,
				"y": -3.310831393,
				"z": -2.4343842531,
				"element": "H" 
			},
			{
				"x": 1.1079309118,
				"y": -2.4731898956,
				"z": -3.1019796502,
				"element": "H" 
			},
			{
				"x": 0.6007147206,
				"y": -4.8300238686,
				"z": -3.0602133405,
				"element": "H" 
			},
			{
				"x": -0.4328679213,
				"y": -4.0290267466,
				"z": -1.889323869,
				"element": "H" 
			},
			{
				"x": 2.1745729403,
				"y": -5.4834836057,
				"z": -1.1862558587,
				"element": "H" 
			},
			{
				"x": 1.0341058018,
				"y": -4.8306387614,
				"z": -0.0237898758,
				"element": "H" 
			},
			{
				"x": 0.8921763206,
				"y": -7.3152854941,
				"z": -0.3033342202,
				"element": "H" 
			},
			{
				"x": 0.4347525365,
				"y": -7.1112902036,
				"z": -1.9856828271,
				"element": "H" 
			},
			{
				"x": -1.6565597157,
				"y": -5.9076053515,
				"z": -1.2720835303,
				"element": "H" 
			},
			{
				"x": -1.1795786333,
				"y": -6.0777188439,
				"z": 0.41195742,
				"element": "H" 
			},
			{
				"x": -1.7835680723,
				"y": -8.4102141706,
				"z": -1.5071930403,
				"element": "H" 
			},
			{
				"x": -2.8725269749,
				"y": -7.7681145614,
				"z": -0.2710291528,
				"element": "H" 
			},
			{
				"x": -0.7793318777,
				"y": -9.0397764591,
				"z": 2.2821275407,
				"element": "H" 
			}
		],
		 "valence_orbital": [ 
			{
				"type": "occ",
				"energy": -0.30133,
				"method": "rhf"
			},
			{
				"type": "occ",
				"energy": -0.29994,
				"method": "rhf"
			},
			{
				"type": "occ",
				"energy": -0.29951,
				"method": "rhf"
			},
			{
				"type": "occ",
				"energy": -0.29265,
				"method": "rhf"
			},
			{
				"type": "occ",
				"energy": -0.2684,
				"method": "rhf"
			},
			{
				"type": "unocc",
				"energy": 0.01076,
				"method": "rhf"
			},
			{
				"type": "unocc",
				"energy": 0.06817,
				"method": "rhf"
			},
			{
				"type": "unocc",
				"energy": 0.07414,
				"method": "rhf"
			},
			{
				"type": "unocc",
				"energy": 0.08401,
				"method": "rhf"
			},
			{
				"type": "unocc",
				"energy": 0.0921,
				"method": "rhf"
			}
		],
		"cosmo_sigma_profile": { 
			"-0.025": 0.0,
			"-0.024": 0.0,
			"-0.023": 0.0,
			"-0.022": 0.0,
			"-0.021": 0.0,
			"-0.02": 0.0,
			"-0.019": 0.0,
			"-0.018": 0.302636329186,
			"-0.017": 1.01659039785,
			"-0.016": 0.75423099982,
			"-0.015": 1.02427271566,
			"-0.014": 0.597916918457,
			"-0.013": 0.63154470103,
			"-0.012": 0.240763286554,
			"-0.011": 1.17324458895,
			"-0.01": 0.94305724449,
			"-0.009": 0.365619763417,
			"-0.008": 0.412024408582,
			"-0.007": 0.7674749872,
			"-0.006": 3.14955776264,
			"-0.005": 4.07220756139,
			"-0.004": 5.89137552112,
			"-0.003": 12.6943811605,
			"-0.002": 58.3074266128,
			"-0.001": 109.544267967,
			"0.0": 116.582078631,
			"0.001": 92.5249802305,
			"0.002": 39.4084497646,
			"0.003": 3.46402037146,
			"0.004": 2.70604146942,
			"0.005": 2.7352225884,
			"0.006": 2.91013745529,
			"0.007": 2.06065129603,
			"0.008": 2.56150256802,
			"0.009": 2.54170556815,
			"0.01": 2.45329975967,
			"0.011": 3.09583291227,
			"0.012": 5.36470963904,
			"0.013": 1.77675223329,
			"0.014": 0.106822009632,
			"0.015": 0.0,
			"0.016": 0.0,
			"0.017": 0.0,
			"0.018": 0.0,
			"0.019": 0.0,
			"0.02": 0.0,
			"0.021": 0.0,
			"0.022": 0.0,
			"0.023": 0.0,
			"0.024": 0.0,
			"0.025": 0.0
		}
	}
}
