{
	 "smiles": "CN1CCN(CC1)C(=O)C1CNC2=C(O1)C=CC=C2", 
	 "Tm": 406.15, 
	 "num_atms": 38, 
	 "gaussian": { 
		 "optdone": 1, 
		 "sigma_profile": "yes", 
		 "theory": "DFT", 
		 "functional": "B3LYP", 
		 "basiset": "6-31G**", 
		 "properties": { 
			 "R2extent": 5219.6745, 
			 "electric_dipole_moment_norm": 1.04616849025, 
			 "electric_quadrupole_moment_norm": 13.6978502715, 
			 "total_energy": -859.633485024, 
			 "HOMO_LUMO_gap": 0.1938, 
			 "cosmo_polarized_energy": -14.38, 
			 "cosmo_cavitation_energy": 38.37, 
			 "cosmo_dispersion_energy": -27.01, 
			 "cosmo_repulsion_energy": 2.08, 
			 "cosmo_total_nonelectrostatic_energy": 13.44, 
			 "SMD_solvation_energy": 2.89 
		},
		"coords": [
			{
				"x": -0.4054657951,
				"y": 3.4809951989,
				"z": 3.5892068738,
				"element": "C" 
			},
			{
				"x": -0.8795617086,
				"y": 3.1813540888,
				"z": 2.2462814686,
				"element": "N" 
			},
			{
				"x": 0.2129888548,
				"y": 2.7877599318,
				"z": 1.3584322324,
				"element": "C" 
			},
			{
				"x": -0.3016508125,
				"y": 2.5736812954,
				"z": -0.0666893541,
				"element": "C" 
			},
			{
				"x": -1.3833695512,
				"y": 1.5862899993,
				"z": -0.0664139117,
				"element": "N" 
			},
			{
				"x": -2.475938458,
				"y": 1.9362643587,
				"z": 0.8442174989,
				"element": "C" 
			},
			{
				"x": -1.928542063,
				"y": 2.1619068306,
				"z": 2.2532656041,
				"element": "C" 
			},
			{
				"x": -1.5742302422,
				"y": 0.5619424813,
				"z": -0.9533308167,
				"element": "C" 
			},
			{
				"x": -2.6446565454,
				"y": -0.0342664024,
				"z": -1.0447829156,
				"element": "O" 
			},
			{
				"x": -0.4118644095,
				"y": 0.1661257741,
				"z": -1.9064017923,
				"element": "C" 
			},
			{
				"x": -0.6647272891,
				"y": -1.2132458862,
				"z": -2.52207202,
				"element": "C" 
			},
			{
				"x": -0.4967600025,
				"y": -2.2139166644,
				"z": -1.4881945511,
				"element": "N" 
			},
			{
				"x": 0.6095778559,
				"y": -2.1176813306,
				"z": -0.6575551746,
				"element": "C" 
			},
			{
				"x": 1.2808721488,
				"y": -0.8814949768,
				"z": -0.5593707804,
				"element": "C" 
			},
			{
				"x": 0.8922295635,
				"y": 0.2108367512,
				"z": -1.3156211518,
				"element": "O" 
			},
			{
				"x": 2.3806678629,
				"y": -0.7297653186,
				"z": 0.2791832189,
				"element": "C" 
			},
			{
				"x": 2.8342173951,
				"y": -1.8047876472,
				"z": 1.046762012,
				"element": "C" 
			},
			{
				"x": 2.1705545985,
				"y": -3.0306704453,
				"z": 0.971005439,
				"element": "C" 
			},
			{
				"x": 1.0720058769,
				"y": -3.1852556343,
				"z": 0.1266511176,
				"element": "C" 
			},
			{
				"x": 0.0592306716,
				"y": 2.6125034938,
				"z": 4.0943102225,
				"element": "H" 
			},
			{
				"x": 0.3370065123,
				"y": 4.2848472043,
				"z": 3.5485811483,
				"element": "H" 
			},
			{
				"x": -1.2415295525,
				"y": 3.8234556825,
				"z": 4.2078004949,
				"element": "H" 
			},
			{
				"x": 0.963733838,
				"y": 3.5867372505,
				"z": 1.3501139258,
				"element": "H" 
			},
			{
				"x": 0.7132540235,
				"y": 1.8607054528,
				"z": 1.7009584311,
				"element": "H" 
			},
			{
				"x": -0.6962002073,
				"y": 3.5275600595,
				"z": -0.4468918527,
				"element": "H" 
			},
			{
				"x": 0.5119943901,
				"y": 2.2425878464,
				"z": -0.7061414168,
				"element": "H" 
			},
			{
				"x": -3.2037176859,
				"y": 1.1257062035,
				"z": 0.8244469917,
				"element": "H" 
			},
			{
				"x": -2.9667582665,
				"y": 2.8542113789,
				"z": 0.4907220574,
				"element": "H" 
			},
			{
				"x": -1.5610582698,
				"y": 1.1976235391,
				"z": 2.6567331097,
				"element": "H" 
			},
			{
				"x": -2.7432968309,
				"y": 2.5016017009,
				"z": 2.9032757211,
				"element": "H" 
			},
			{
				"x": -0.3751286477,
				"y": 0.9116412754,
				"z": -2.7101323335,
				"element": "H" 
			},
			{
				"x": -1.6870323153,
				"y": -1.2529261096,
				"z": -2.8988724866,
				"element": "H" 
			},
			{
				"x": 0.038454761,
				"y": -1.3416617247,
				"z": -3.3612325175,
				"element": "H" 
			},
			{
				"x": -0.8390770093,
				"y": -3.1415971137,
				"z": -1.6859162687,
				"element": "H" 
			},
			{
				"x": 2.8741672078,
				"y": 0.23681443,
				"z": 0.3117275138,
				"element": "H" 
			},
			{
				"x": 3.6940900259,
				"y": -1.6806176482,
				"z": 1.6971991338,
				"element": "H" 
			},
			{
				"x": 2.5090817758,
				"y": -3.8741552717,
				"z": 1.5653630842,
				"element": "H" 
			},
			{
				"x": 0.5577382998,
				"y": -4.1415100539,
				"z": 0.0643820445,
				"element": "H" 
			}
		],
		 "valence_orbital": [ 
			{
				"type": "occ",
				"energy": -0.25191,
				"method": "rhf"
			},
			{
				"type": "occ",
				"energy": -0.23748,
				"method": "rhf"
			},
			{
				"type": "occ",
				"energy": -0.22064,
				"method": "rhf"
			},
			{
				"type": "occ",
				"energy": -0.21642,
				"method": "rhf"
			},
			{
				"type": "occ",
				"energy": -0.18492,
				"method": "rhf"
			},
			{
				"type": "unocc",
				"energy": 0.00888,
				"method": "rhf"
			},
			{
				"type": "unocc",
				"energy": 0.01922,
				"method": "rhf"
			},
			{
				"type": "unocc",
				"energy": 0.02617,
				"method": "rhf"
			},
			{
				"type": "unocc",
				"energy": 0.08233,
				"method": "rhf"
			},
			{
				"type": "unocc",
				"energy": 0.09183,
				"method": "rhf"
			}
		],
		"cosmo_sigma_profile": { 
			"-0.025": 0.0,
			"-0.024": 0.0,
			"-0.023": 0.0,
			"-0.022": 0.0,
			"-0.021": 0.0,
			"-0.02": 0.0,
			"-0.019": 0.0,
			"-0.018": 0.0,
			"-0.017": 0.0,
			"-0.016": 0.0,
			"-0.015": 0.0,
			"-0.014": 0.00231015391451,
			"-0.013": 0.966599404518,
			"-0.012": 1.28213910861,
			"-0.011": 1.39871145291,
			"-0.01": 1.60572476047,
			"-0.009": 1.54550747786,
			"-0.008": 3.21057551319,
			"-0.007": 5.06813991713,
			"-0.006": 6.32940869673,
			"-0.005": 13.1678438526,
			"-0.004": 34.4271402109,
			"-0.003": 34.5963542034,
			"-0.002": 35.3857309086,
			"-0.001": 31.2999600153,
			"0.0": 24.7649212021,
			"0.001": 14.6730740652,
			"0.002": 13.6085652209,
			"0.003": 10.5647528963,
			"0.004": 9.29449704689,
			"0.005": 12.3663941684,
			"0.006": 10.7814542847,
			"0.007": 10.1555133381,
			"0.008": 3.99817617947,
			"0.009": 3.30968144062,
			"0.01": 2.8370487346,
			"0.011": 2.05867883121,
			"0.012": 2.10377610469,
			"0.013": 4.76629444075,
			"0.014": 4.26038945,
			"0.015": 0.726266193943,
			"0.016": 0.158352824094,
			"0.017": 0.0,
			"0.018": 0.0,
			"0.019": 0.0,
			"0.02": 0.0,
			"0.021": 0.0,
			"0.022": 0.0,
			"0.023": 0.0,
			"0.024": 0.0,
			"0.025": 0.0
		}
	}
}
