{
	 "smiles": "N#CC(=C/C1=CC=CN=C1)C1=NC2=C(N1)C=CC=C2", 
	 "Tm": 501.15, 
	 "num_atms": 29, 
	 "gaussian": { 
		 "optdone": 1, 
		 "sigma_profile": "yes", 
		 "theory": "DFT", 
		 "functional": "B3LYP", 
		 "basiset": "6-31G**", 
		 "properties": { 
			 "R2extent": 7285.1221, 
			 "electric_dipole_moment_norm": 1.24731555751, 
			 "electric_quadrupole_moment_norm": 13.846121813, 
			 "total_energy": -796.61185052, 
			 "HOMO_LUMO_gap": 0.12338, 
			 "cosmo_polarized_energy": -15.08, 
			 "cosmo_cavitation_energy": 35.23, 
			 "cosmo_dispersion_energy": -25.43, 
			 "cosmo_repulsion_energy": 1.9, 
			 "cosmo_total_nonelectrostatic_energy": 11.7, 
			 "SMD_solvation_energy": 3.52 
		},
		"coords": [
			{
				"x": 2.4321771401,
				"y": 0.9749906486,
				"z": 2.3262430144,
				"element": "N" 
			},
			{
				"x": 1.9219243312,
				"y": 0.6778691439,
				"z": 1.3218162367,
				"element": "C" 
			},
			{
				"x": 1.2458665094,
				"y": 0.236989961,
				"z": 0.1402924168,
				"element": "C" 
			},
			{
				"x": 1.3944752664,
				"y": 0.8043771112,
				"z": -1.0897612488,
				"element": "C" 
			},
			{
				"x": 2.2056138446,
				"y": 1.9228521991,
				"z": -1.5374857361,
				"element": "C" 
			},
			{
				"x": 3.0644970396,
				"y": 2.7075486859,
				"z": -0.7409083121,
				"element": "C" 
			},
			{
				"x": 3.7707113126,
				"y": 3.7458881589,
				"z": -1.3348725024,
				"element": "C" 
			},
			{
				"x": 3.6092807084,
				"y": 3.9818449477,
				"z": -2.7028857749,
				"element": "C" 
			},
			{
				"x": 2.8013042572,
				"y": 3.2541812359,
				"z": -3.4856295862,
				"element": "N" 
			},
			{
				"x": 2.1284494082,
				"y": 2.2610244163,
				"z": -2.9072666808,
				"element": "C" 
			},
			{
				"x": 0.344073202,
				"y": -0.9067689576,
				"z": 0.3239978891,
				"element": "C" 
			},
			{
				"x": -0.3706104217,
				"y": -1.4659749576,
				"z": -0.6301487143,
				"element": "N" 
			},
			{
				"x": -1.0596380877,
				"y": -2.4910379372,
				"z": -0.0102075752,
				"element": "C" 
			},
			{
				"x": -0.737683552,
				"y": -2.5393780049,
				"z": 1.3712581366,
				"element": "C" 
			},
			{
				"x": 0.1652911589,
				"y": -1.5099283418,
				"z": 1.5533889349,
				"element": "N" 
			},
			{
				"x": -1.2923789161,
				"y": -3.4812188375,
				"z": 2.2405622773,
				"element": "C" 
			},
			{
				"x": -2.1910517862,
				"y": -4.3878215129,
				"z": 1.6859606304,
				"element": "C" 
			},
			{
				"x": -2.523701061,
				"y": -4.3555175056,
				"z": 0.314526761,
				"element": "C" 
			},
			{
				"x": -1.9683991827,
				"y": -3.4159315473,
				"z": -0.545418627,
				"element": "C" 
			},
			{
				"x": 0.7950811672,
				"y": 0.326189522,
				"z": -1.8617957303,
				"element": "H" 
			},
			{
				"x": 3.1795108104,
				"y": 2.5128112759,
				"z": 0.3185104861,
				"element": "H" 
			},
			{
				"x": 4.4394276611,
				"y": 4.3674087355,
				"z": -0.7480502903,
				"element": "H" 
			},
			{
				"x": 4.1515219352,
				"y": 4.7892541783,
				"z": -3.1912535574,
				"element": "H" 
			},
			{
				"x": 1.47640488,
				"y": 1.680341182,
				"z": -3.5594396436,
				"element": "H" 
			},
			{
				"x": 0.6169718705,
				"y": -1.2379002446,
				"z": 2.4144963162,
				"element": "H" 
			},
			{
				"x": -1.0389105977,
				"y": -3.5090324462,
				"z": 3.2958085276,
				"element": "H" 
			},
			{
				"x": -2.6474838078,
				"y": -5.1384590156,
				"z": 2.3241136309,
				"element": "H" 
			},
			{
				"x": -3.2301594854,
				"y": -5.0836261709,
				"z": -0.072544086,
				"element": "H" 
			},
			{
				"x": -2.2204656047,
				"y": -3.3864759225,
				"z": -1.6003071926,
				"element": "H" 
			}
		],
		 "valence_orbital": [ 
			{
				"type": "occ",
				"energy": -0.28493,
				"method": "rhf"
			},
			{
				"type": "occ",
				"energy": -0.26965,
				"method": "rhf"
			},
			{
				"type": "occ",
				"energy": -0.26782,
				"method": "rhf"
			},
			{
				"type": "occ",
				"energy": -0.23541,
				"method": "rhf"
			},
			{
				"type": "occ",
				"energy": -0.21985,
				"method": "rhf"
			},
			{
				"type": "unocc",
				"energy": -0.09647,
				"method": "rhf"
			},
			{
				"type": "unocc",
				"energy": -0.03467,
				"method": "rhf"
			},
			{
				"type": "unocc",
				"energy": -0.01526,
				"method": "rhf"
			},
			{
				"type": "unocc",
				"energy": 0.00261,
				"method": "rhf"
			},
			{
				"type": "unocc",
				"energy": 0.00883,
				"method": "rhf"
			}
		],
		"cosmo_sigma_profile": { 
			"-0.025": 0.0,
			"-0.024": 0.0,
			"-0.023": 0.0,
			"-0.022": 0.0,
			"-0.021": 0.0,
			"-0.02": 0.0,
			"-0.019": 0.0,
			"-0.018": 0.0,
			"-0.017": 0.00810643571875,
			"-0.016": 0.665143712567,
			"-0.015": 1.09262602671,
			"-0.014": 1.13701097059,
			"-0.013": 0.708521403193,
			"-0.012": 0.966790567492,
			"-0.011": 1.13637832313,
			"-0.01": 1.19074428675,
			"-0.009": 3.22362162841,
			"-0.008": 4.91377792665,
			"-0.007": 11.3510807749,
			"-0.006": 14.9351122109,
			"-0.005": 17.4187945459,
			"-0.004": 17.7743558575,
			"-0.003": 21.0751462978,
			"-0.002": 18.6011001733,
			"-0.001": 22.4861325918,
			"0.0": 25.9119533249,
			"0.001": 21.2086731846,
			"0.002": 15.4585246407,
			"0.003": 14.7459344727,
			"0.004": 15.6660408898,
			"0.005": 13.4053384504,
			"0.006": 9.14631780545,
			"0.007": 4.56055349292,
			"0.008": 4.61519578147,
			"0.009": 4.5678005296,
			"0.01": 5.01597544149,
			"0.011": 4.58785087082,
			"0.012": 3.41922510169,
			"0.013": 1.37542415511,
			"0.014": 2.34936998384,
			"0.015": 0.833555235603,
			"0.016": 0.405133165553,
			"0.017": 0.0,
			"0.018": 0.0,
			"0.019": 0.0,
			"0.02": 0.0,
			"0.021": 0.0,
			"0.022": 0.0,
			"0.023": 0.0,
			"0.024": 0.0,
			"0.025": 0.0
		}
	}
}
