{
	 "smiles": "CCC(C(=O)OC1CC(C)CCC1C(C)C)C(=O)C=CC1=CC=CC=C1", 
	 "Tm": 408.15, 
	 "num_atms": 58, 
	 "gaussian": { 
		 "optdone": 1, 
		 "sigma_profile": "yes", 
		 "theory": "DFT", 
		 "functional": "B3LYP", 
		 "basiset": "6-31G**", 
		 "properties": { 
			 "R2extent": 10234.1125, 
			 "electric_dipole_moment_norm": 4.21838620091, 
			 "electric_quadrupole_moment_norm": 15.6844215698, 
			 "total_energy": -1121.4193239, 
			 "HOMO_LUMO_gap": 0.18291, 
			 "cosmo_polarized_energy": -12.28, 
			 "cosmo_cavitation_energy": 56.61, 
			 "cosmo_dispersion_energy": -34.1, 
			 "cosmo_repulsion_energy": 2.59, 
			 "cosmo_total_nonelectrostatic_energy": 25.1, 
			 "SMD_solvation_energy": 9.8 
		},
		"coords": [
			{
				"x": 1.9155001476,
				"y": -2.6283285648,
				"z": 2.1113971488,
				"element": "C" 
			},
			{
				"x": 0.4289676141,
				"y": -2.9900065989,
				"z": 2.1596003318,
				"element": "C" 
			},
			{
				"x": -0.4355124666,
				"y": -2.2293337692,
				"z": 1.1333369485,
				"element": "C" 
			},
			{
				"x": -0.5835090252,
				"y": -0.7551405792,
				"z": 1.5035830151,
				"element": "C" 
			},
			{
				"x": -1.3902806821,
				"y": -0.3515440779,
				"z": 2.3179565195,
				"element": "O" 
			},
			{
				"x": 0.2770826966,
				"y": 0.035688656,
				"z": 0.8318144559,
				"element": "O" 
			},
			{
				"x": 0.1414520983,
				"y": 1.4816603284,
				"z": 1.0433626822,
				"element": "C" 
			},
			{
				"x": 0.9037028188,
				"y": 1.9094452564,
				"z": 2.2967983019,
				"element": "C" 
			},
			{
				"x": 2.4237599799,
				"y": 1.6114238519,
				"z": 2.2340633157,
				"element": "C" 
			},
			{
				"x": 3.1981491691,
				"y": 2.5977283661,
				"z": 3.119926655,
				"element": "C" 
			},
			{
				"x": 2.9333326025,
				"y": 1.6138977791,
				"z": 0.7697504485,
				"element": "C" 
			},
			{
				"x": 2.1502774165,
				"y": 2.6008114526,
				"z": -0.1081522908,
				"element": "C" 
			},
			{
				"x": 0.6370667461,
				"y": 2.2487975564,
				"z": -0.2058353596,
				"element": "C" 
			},
			{
				"x": 0.1918230317,
				"y": 1.6167277322,
				"z": -1.5585314248,
				"element": "C" 
			},
			{
				"x": 1.1094088704,
				"y": 0.5030038582,
				"z": -2.0922337076,
				"element": "C" 
			},
			{
				"x": 0.0199124031,
				"y": 2.7093432469,
				"z": -2.6281020687,
				"element": "C" 
			},
			{
				"x": -1.8567823892,
				"y": -2.8232188789,
				"z": 1.0502720226,
				"element": "C" 
			},
			{
				"x": -2.2117801433,
				"y": -3.7383669748,
				"z": 1.7686362161,
				"element": "O" 
			},
			{
				"x": -2.8247752194,
				"y": -2.1805542665,
				"z": 0.0991770736,
				"element": "C" 
			},
			{
				"x": -2.7699245705,
				"y": -2.1417782812,
				"z": -1.2436819312,
				"element": "C" 
			},
			{
				"x": -1.7908784699,
				"y": -2.7691307851,
				"z": -2.147328399,
				"element": "C" 
			},
			{
				"x": -1.5696778943,
				"y": -2.1982620856,
				"z": -3.414410078,
				"element": "C" 
			},
			{
				"x": -0.6531816657,
				"y": -2.7558316684,
				"z": -4.3032835587,
				"element": "C" 
			},
			{
				"x": 0.0506537538,
				"y": -3.9099590476,
				"z": -3.950822072,
				"element": "C" 
			},
			{
				"x": -0.1791782553,
				"y": -4.5058038637,
				"z": -2.7089620403,
				"element": "C" 
			},
			{
				"x": -1.0948900292,
				"y": -3.9474275411,
				"z": -1.8181097288,
				"element": "C" 
			},
			{
				"x": 2.4765343257,
				"y": -3.2150486301,
				"z": 2.8456824225,
				"element": "H" 
			},
			{
				"x": 2.0870718083,
				"y": -1.5702831965,
				"z": 2.3305563539,
				"element": "H" 
			},
			{
				"x": 2.34410222,
				"y": -2.8330522707,
				"z": 1.1238161267,
				"element": "H" 
			},
			{
				"x": 0.0180200334,
				"y": -2.8090902618,
				"z": 3.1583383749,
				"element": "H" 
			},
			{
				"x": 0.2955408404,
				"y": -4.0599137387,
				"z": 1.9721361078,
				"element": "H" 
			},
			{
				"x": 0.0200650269,
				"y": -2.2881643691,
				"z": 0.1384366474,
				"element": "H" 
			},
			{
				"x": -0.9274371479,
				"y": 1.6617510114,
				"z": 1.1837234604,
				"element": "H" 
			},
			{
				"x": 0.451370272,
				"y": 1.4495397102,
				"z": 3.1800134776,
				"element": "H" 
			},
			{
				"x": 0.7473945206,
				"y": 2.9924295324,
				"z": 2.3984709171,
				"element": "H" 
			},
			{
				"x": 2.5889838604,
				"y": 0.6071249592,
				"z": 2.6427229426,
				"element": "H" 
			},
			{
				"x": 3.1329043582,
				"y": 3.6193696284,
				"z": 2.7256727977,
				"element": "H" 
			},
			{
				"x": 4.2587188841,
				"y": 2.3300134542,
				"z": 3.1777222073,
				"element": "H" 
			},
			{
				"x": 2.8002049852,
				"y": 2.6135188663,
				"z": 4.1408987704,
				"element": "H" 
			},
			{
				"x": 2.8364642218,
				"y": 0.6079785876,
				"z": 0.3489594112,
				"element": "H" 
			},
			{
				"x": 4.0022385387,
				"y": 1.8588959327,
				"z": 0.7496516941,
				"element": "H" 
			},
			{
				"x": 2.2591085106,
				"y": 3.6091307638,
				"z": 0.3106497796,
				"element": "H" 
			},
			{
				"x": 2.5939793436,
				"y": 2.6504518169,
				"z": -1.1076059164,
				"element": "H" 
			},
			{
				"x": 0.0896424431,
				"y": 3.1989269721,
				"z": -0.1362042566,
				"element": "H" 
			},
			{
				"x": -0.797182309,
				"y": 1.1689300756,
				"z": -1.3849878111,
				"element": "H" 
			},
			{
				"x": 1.251472442,
				"y": -0.2928924594,
				"z": -1.3603173046,
				"element": "H" 
			},
			{
				"x": 0.6729094332,
				"y": 0.0563300552,
				"z": -2.9917102234,
				"element": "H" 
			},
			{
				"x": 2.0949341978,
				"y": 0.8925846053,
				"z": -2.3710966374,
				"element": "H" 
			},
			{
				"x": -0.7151774213,
				"y": 3.462053829,
				"z": -2.3220826886,
				"element": "H" 
			},
			{
				"x": 0.9661216356,
				"y": 3.2285907811,
				"z": -2.8225991711,
				"element": "H" 
			},
			{
				"x": -0.3159879042,
				"y": 2.279109619,
				"z": -3.5779097532,
				"element": "H" 
			},
			{
				"x": -3.6798127479,
				"y": -1.7304906673,
				"z": 0.5986880914,
				"element": "H" 
			},
			{
				"x": -3.5649722032,
				"y": -1.5941812979,
				"z": -1.7492070863,
				"element": "H" 
			},
			{
				"x": -2.1197566207,
				"y": -1.3037278528,
				"z": -3.6953989104,
				"element": "H" 
			},
			{
				"x": -0.4930252353,
				"y": -2.2947421473,
				"z": -5.2736685934,
				"element": "H" 
			},
			{
				"x": 0.7601211705,
				"y": -4.3504869567,
				"z": -4.6451014535,
				"element": "H" 
			},
			{
				"x": 0.3432670115,
				"y": -5.4189785806,
				"z": -2.4386854447,
				"element": "H" 
			},
			{
				"x": -1.3008370322,
				"y": -4.4490188726,
				"z": -0.8778868074,
				"element": "H" 
			}
		],
		 "valence_orbital": [ 
			{
				"type": "occ",
				"energy": -0.28405,
				"method": "rhf"
			},
			{
				"type": "occ",
				"energy": -0.27049,
				"method": "rhf"
			},
			{
				"type": "occ",
				"energy": -0.25984,
				"method": "rhf"
			},
			{
				"type": "occ",
				"energy": -0.25266,
				"method": "rhf"
			},
			{
				"type": "occ",
				"energy": -0.23473,
				"method": "rhf"
			},
			{
				"type": "unocc",
				"energy": -0.05182,
				"method": "rhf"
			},
			{
				"type": "unocc",
				"energy": -0.01849,
				"method": "rhf"
			},
			{
				"type": "unocc",
				"energy": -0.00783,
				"method": "rhf"
			},
			{
				"type": "unocc",
				"energy": 0.00854,
				"method": "rhf"
			},
			{
				"type": "unocc",
				"energy": 0.04379,
				"method": "rhf"
			}
		],
		"cosmo_sigma_profile": { 
			"-0.025": 0.0,
			"-0.024": 0.0,
			"-0.023": 0.0,
			"-0.022": 0.0,
			"-0.021": 0.0,
			"-0.02": 0.0,
			"-0.019": 0.0,
			"-0.018": 0.0,
			"-0.017": 0.0,
			"-0.016": 0.0,
			"-0.015": 0.0,
			"-0.014": 0.0,
			"-0.013": 0.0,
			"-0.012": 0.0,
			"-0.011": 0.0,
			"-0.01": 0.0,
			"-0.009": 0.0,
			"-0.008": 0.207511766271,
			"-0.007": 3.07201238717,
			"-0.006": 12.7982860869,
			"-0.005": 14.8932038778,
			"-0.004": 24.7581268836,
			"-0.003": 42.9135848664,
			"-0.002": 59.4311964966,
			"-0.001": 55.8352405633,
			"0.0": 61.5768818666,
			"0.001": 56.0176186536,
			"0.002": 36.2438653155,
			"0.003": 17.8696690913,
			"0.004": 14.8141739229,
			"0.005": 10.6091207085,
			"0.006": 3.63083629997,
			"0.007": 3.66495861144,
			"0.008": 2.89057639005,
			"0.009": 3.59632815802,
			"0.01": 4.26908921548,
			"0.011": 7.23841389342,
			"0.012": 4.65222366588,
			"0.013": 0.137862016178,
			"0.014": 0.0,
			"0.015": 0.0,
			"0.016": 0.0,
			"0.017": 0.0,
			"0.018": 0.0,
			"0.019": 0.0,
			"0.02": 0.0,
			"0.021": 0.0,
			"0.022": 0.0,
			"0.023": 0.0,
			"0.024": 0.0,
			"0.025": 0.0
		}
	}
}
