{
	 "smiles": "CC1CC(N)=NN1CC1=CC=CC=C1", 
	 "Tm": 433.15, 
	 "num_atms": 29, 
	 "gaussian": { 
		 "optdone": 1, 
		 "sigma_profile": "yes", 
		 "theory": "DFT", 
		 "functional": "B3LYP", 
		 "basiset": "6-31G**", 
		 "properties": { 
			 "R2extent": 3668.4845, 
			 "electric_dipole_moment_norm": 2.73626395108, 
			 "electric_quadrupole_moment_norm": 10.9772082471, 
			 "total_energy": -592.436966796, 
			 "HOMO_LUMO_gap": 0.18015, 
			 "cosmo_polarized_energy": -12.11, 
			 "cosmo_cavitation_energy": 31.2, 
			 "cosmo_dispersion_energy": -22.28, 
			 "cosmo_repulsion_energy": 1.78, 
			 "cosmo_total_nonelectrostatic_energy": 10.71, 
			 "SMD_solvation_energy": 3.18 
		},
		"coords": [
			{
				"x": 0.9017243015,
				"y": 2.6202195906,
				"z": 1.202253869,
				"element": "C" 
			},
			{
				"x": 0.5521654531,
				"y": 1.9728525098,
				"z": -0.1469315742,
				"element": "C" 
			},
			{
				"x": 1.6103339903,
				"y": 2.2897580911,
				"z": -1.2225198933,
				"element": "C" 
			},
			{
				"x": 2.4852500004,
				"y": 1.0624186529,
				"z": -1.1008296192,
				"element": "C" 
			},
			{
				"x": 3.7066325231,
				"y": 0.9531187964,
				"z": -1.7505227617,
				"element": "N" 
			},
			{
				"x": 1.9245430975,
				"y": 0.0868353269,
				"z": -0.4804987871,
				"element": "N" 
			},
			{
				"x": 0.5992694854,
				"y": 0.4806215634,
				"z": -0.1549994063,
				"element": "N" 
			},
			{
				"x": 0.0958987504,
				"y": -0.2429537513,
				"z": 1.0064910383,
				"element": "C" 
			},
			{
				"x": -1.4077277985,
				"y": -0.1078210814,
				"z": 1.1561853263,
				"element": "C" 
			},
			{
				"x": -2.2494906222,
				"y": -0.1902156343,
				"z": 0.0378294098,
				"element": "C" 
			},
			{
				"x": -3.6338635702,
				"y": -0.1055920966,
				"z": 0.1831620578,
				"element": "C" 
			},
			{
				"x": -4.2005992744,
				"y": 0.0592996946,
				"z": 1.4499620895,
				"element": "C" 
			},
			{
				"x": -3.3716873999,
				"y": 0.1424577902,
				"z": 2.5690576005,
				"element": "C" 
			},
			{
				"x": -1.9850447258,
				"y": 0.0633043617,
				"z": 2.4197669813,
				"element": "C" 
			},
			{
				"x": 0.9213182925,
				"y": 3.7101766694,
				"z": 1.09560199,
				"element": "H" 
			},
			{
				"x": 1.8855904149,
				"y": 2.2945890525,
				"z": 1.5563719923,
				"element": "H" 
			},
			{
				"x": 0.1608902841,
				"y": 2.3774949953,
				"z": 1.9688904676,
				"element": "H" 
			},
			{
				"x": -0.4490815145,
				"y": 2.291896296,
				"z": -0.4505644752,
				"element": "H" 
			},
			{
				"x": 1.1787078428,
				"y": 2.3307544488,
				"z": -2.2312135771,
				"element": "H" 
			},
			{
				"x": 2.1385074078,
				"y": 3.2332305672,
				"z": -1.0463033973,
				"element": "H" 
			},
			{
				"x": 4.2972885821,
				"y": 1.7722008596,
				"z": -1.6764641469,
				"element": "H" 
			},
			{
				"x": 4.202891498,
				"y": 0.1035584611,
				"z": -1.5078992647,
				"element": "H" 
			},
			{
				"x": 0.5888535549,
				"y": 0.0474360773,
				"z": 1.9494884401,
				"element": "H" 
			},
			{
				"x": 0.3611010817,
				"y": -1.2921864942,
				"z": 0.833911233,
				"element": "H" 
			},
			{
				"x": -1.8014965156,
				"y": -0.3130952768,
				"z": -0.9436389851,
				"element": "H" 
			},
			{
				"x": -4.2731141135,
				"y": -0.1704385594,
				"z": -0.6933147465,
				"element": "H" 
			},
			{
				"x": -5.2792028005,
				"y": 0.1249093603,
				"z": 1.5622698074,
				"element": "H" 
			},
			{
				"x": -3.801851907,
				"y": 0.274743286,
				"z": 3.5580796831,
				"element": "H" 
			},
			{
				"x": -1.3429063183,
				"y": 0.1323264428,
				"z": 3.2950786486,
				"element": "H" 
			}
		],
		 "valence_orbital": [ 
			{
				"type": "occ",
				"energy": -0.28113,
				"method": "rhf"
			},
			{
				"type": "occ",
				"energy": -0.2651,
				"method": "rhf"
			},
			{
				"type": "occ",
				"energy": -0.24242,
				"method": "rhf"
			},
			{
				"type": "occ",
				"energy": -0.23533,
				"method": "rhf"
			},
			{
				"type": "occ",
				"energy": -0.17624,
				"method": "rhf"
			},
			{
				"type": "unocc",
				"energy": 0.00391,
				"method": "rhf"
			},
			{
				"type": "unocc",
				"energy": 0.00595,
				"method": "rhf"
			},
			{
				"type": "unocc",
				"energy": 0.03789,
				"method": "rhf"
			},
			{
				"type": "unocc",
				"energy": 0.07966,
				"method": "rhf"
			},
			{
				"type": "unocc",
				"energy": 0.0945,
				"method": "rhf"
			}
		],
		"cosmo_sigma_profile": { 
			"-0.025": 0.0,
			"-0.024": 0.0,
			"-0.023": 0.0,
			"-0.022": 0.0,
			"-0.021": 0.0,
			"-0.02": 0.0,
			"-0.019": 0.0,
			"-0.018": 0.0,
			"-0.017": 0.0,
			"-0.016": 0.0,
			"-0.015": 0.0,
			"-0.014": 0.0,
			"-0.013": 0.660071491258,
			"-0.012": 2.38632148946,
			"-0.011": 2.4244991134,
			"-0.01": 2.43597146365,
			"-0.009": 2.90369954084,
			"-0.008": 2.63650244203,
			"-0.007": 2.32041572804,
			"-0.006": 3.95614250465,
			"-0.005": 12.1062752964,
			"-0.004": 20.3336304099,
			"-0.003": 27.3546264384,
			"-0.002": 25.8947673325,
			"-0.001": 25.7178686257,
			"0.0": 17.5842077109,
			"0.001": 18.4851938232,
			"0.002": 12.4529870329,
			"0.003": 10.9554155528,
			"0.004": 9.80401187001,
			"0.005": 9.93525084073,
			"0.006": 10.9866667905,
			"0.007": 5.28956063566,
			"0.008": 2.70496154794,
			"0.009": 3.04168776082,
			"0.01": 1.85723612128,
			"0.011": 2.50023487935,
			"0.012": 2.89612400078,
			"0.013": 2.13133980091,
			"0.014": 1.28718291551,
			"0.015": 1.04847103787,
			"0.016": 0.968685322942,
			"0.017": 0.0537742806175,
			"0.018": 0.0,
			"0.019": 0.0,
			"0.02": 0.0,
			"0.021": 0.0,
			"0.022": 0.0,
			"0.023": 0.0,
			"0.024": 0.0,
			"0.025": 0.0
		}
	}
}
