{
	 "smiles": "OC(=O)CCNS(=O)(=O)C1=CC=C(C=C1)[N+]([O-])=O", 
	 "Tm": 424.15, 
	 "num_atms": 28, 
	 "gaussian": { 
		 "optdone": 1, 
		 "sigma_profile": "yes", 
		 "theory": "DFT", 
		 "functional": "B3LYP", 
		 "basiset": "6-31G**", 
		 "properties": { 
			 "R2extent": 6966.9219, 
			 "electric_dipole_moment_norm": 4.1665398654, 
			 "electric_quadrupole_moment_norm": 43.0113288964, 
			 "total_energy": -1307.85381501, 
			 "HOMO_LUMO_gap": 0.1425, 
			 "cosmo_polarized_energy": -26.68, 
			 "cosmo_cavitation_energy": 34.44, 
			 "cosmo_dispersion_energy": -24.87, 
			 "cosmo_repulsion_energy": 1.86, 
			 "cosmo_total_nonelectrostatic_energy": 11.43, 
			 "SMD_solvation_energy": 8.24 
		},
		"coords": [
			{
				"x": -3.4865692274,
				"y": 3.1438524059,
				"z": 2.3234282307,
				"element": "O" 
			},
			{
				"x": -2.3087924741,
				"y": 3.7824998664,
				"z": 2.2091955608,
				"element": "C" 
			},
			{
				"x": -2.2354480813,
				"y": 4.9881247016,
				"z": 2.2542485514,
				"element": "O" 
			},
			{
				"x": -1.0744222829,
				"y": 2.8992744124,
				"z": 2.0045762144,
				"element": "C" 
			},
			{
				"x": -0.7442318834,
				"y": 2.7130608434,
				"z": 0.5146229993,
				"element": "C" 
			},
			{
				"x": -1.8722045968,
				"y": 2.205027966,
				"z": -0.2873890469,
				"element": "N" 
			},
			{
				"x": -2.5206501651,
				"y": 0.682779112,
				"z": -0.1165202096,
				"element": "S" 
			},
			{
				"x": -3.5219288918,
				"y": 0.5572917862,
				"z": -1.1712455213,
				"element": "O" 
			},
			{
				"x": -2.8578876096,
				"y": 0.5280326783,
				"z": 1.3100257825,
				"element": "O" 
			},
			{
				"x": -1.2129873738,
				"y": -0.5105676317,
				"z": -0.4513090174,
				"element": "C" 
			},
			{
				"x": -1.0121005014,
				"y": -0.928309999,
				"z": -1.7709075473,
				"element": "C" 
			},
			{
				"x": 0.013261226,
				"y": -1.8270807827,
				"z": -2.0511278826,
				"element": "C" 
			},
			{
				"x": 0.8082827908,
				"y": -2.2816960144,
				"z": -1.0005126502,
				"element": "C" 
			},
			{
				"x": 0.6099247154,
				"y": -1.8823991467,
				"z": 0.3186142099,
				"element": "C" 
			},
			{
				"x": -0.4186614087,
				"y": -0.9840910174,
				"z": 0.5966941218,
				"element": "C" 
			},
			{
				"x": 1.9001860376,
				"y": -3.2327570436,
				"z": -1.2970643248,
				"element": "N" 
			},
			{
				"x": 2.5851059966,
				"y": -3.6182969457,
				"z": -0.3528637617,
				"element": "O" 
			},
			{
				"x": 2.0511500516,
				"y": -3.5713464908,
				"z": -2.468269968,
				"element": "O" 
			},
			{
				"x": -3.3847095042,
				"y": 2.1893107497,
				"z": 2.1433893187,
				"element": "H" 
			},
			{
				"x": -1.1972403568,
				"y": 1.9314623865,
				"z": 2.4959818226,
				"element": "H" 
			},
			{
				"x": -0.227948446,
				"y": 3.4140345332,
				"z": 2.466106578,
				"element": "H" 
			},
			{
				"x": 0.1464779634,
				"y": 2.0783602737,
				"z": 0.4079304122,
				"element": "H" 
			},
			{
				"x": -0.5071021578,
				"y": 3.6895926832,
				"z": 0.0843913868,
				"element": "H" 
			},
			{
				"x": -1.9191538728,
				"y": 2.5140426804,
				"z": -1.2519261635,
				"element": "H" 
			},
			{
				"x": -1.6665294762,
				"y": -0.5716282232,
				"z": -2.5585583787,
				"element": "H" 
			},
			{
				"x": 0.2012997018,
				"y": -2.1829130497,
				"z": -3.056239094,
				"element": "H" 
			},
			{
				"x": 1.2472641211,
				"y": -2.2790414423,
				"z": 1.0988269518,
				"element": "H" 
			},
			{
				"x": -0.6228842943,
				"y": -0.6762192918,
				"z": 1.6156014252,
				"element": "H" 
			}
		],
		 "valence_orbital": [ 
			{
				"type": "occ",
				"energy": -0.31653,
				"method": "rhf"
			},
			{
				"type": "occ",
				"energy": -0.31284,
				"method": "rhf"
			},
			{
				"type": "occ",
				"energy": -0.30748,
				"method": "rhf"
			},
			{
				"type": "occ",
				"energy": -0.29927,
				"method": "rhf"
			},
			{
				"type": "occ",
				"energy": -0.26375,
				"method": "rhf"
			},
			{
				"type": "unocc",
				"energy": -0.12125,
				"method": "rhf"
			},
			{
				"type": "unocc",
				"energy": -0.06311,
				"method": "rhf"
			},
			{
				"type": "unocc",
				"energy": -0.04615,
				"method": "rhf"
			},
			{
				"type": "unocc",
				"energy": 0.00853,
				"method": "rhf"
			},
			{
				"type": "unocc",
				"energy": 0.02589,
				"method": "rhf"
			}
		],
		"cosmo_sigma_profile": { 
			"-0.025": 0.0,
			"-0.024": 0.0,
			"-0.023": 0.0,
			"-0.022": 0.0,
			"-0.021": 0.0,
			"-0.02": 0.0,
			"-0.019": 0.0,
			"-0.018": 0.0,
			"-0.017": 0.11595686833,
			"-0.016": 1.13708361973,
			"-0.015": 1.28066101522,
			"-0.014": 1.10335474093,
			"-0.013": 1.25372059692,
			"-0.012": 1.94595336886,
			"-0.011": 0.706777406018,
			"-0.01": 1.59290019918,
			"-0.009": 5.68794225538,
			"-0.008": 10.7742407467,
			"-0.007": 15.052859669,
			"-0.006": 20.0577972333,
			"-0.005": 20.8897465771,
			"-0.004": 18.8292284154,
			"-0.003": 15.277175117,
			"-0.002": 16.9651247146,
			"-0.001": 19.4140543679,
			"0.0": 13.3119114316,
			"0.001": 5.90467318125,
			"0.002": 7.7041576142,
			"0.003": 8.04137743936,
			"0.004": 7.3238484344,
			"0.005": 8.7901886477,
			"0.006": 9.59257512574,
			"0.007": 13.8969568183,
			"0.008": 10.0829716943,
			"0.009": 10.9332610075,
			"0.01": 10.4293390394,
			"0.011": 6.71938958196,
			"0.012": 5.90550516849,
			"0.013": 3.72668508159,
			"0.014": 0.610899560447,
			"0.015": 0.0,
			"0.016": 0.0,
			"0.017": 0.0,
			"0.018": 0.0,
			"0.019": 0.0,
			"0.02": 0.0,
			"0.021": 0.0,
			"0.022": 0.0,
			"0.023": 0.0,
			"0.024": 0.0,
			"0.025": 0.0
		}
	}
}
