{
	 "smiles": "FC1=CC(CBr)=C(Br)C=C1", 
	 "Tm": 308.15, 
	 "num_atms": 15, 
	 "gaussian": { 
		 "optdone": 1, 
		 "sigma_profile": "yes", 
		 "theory": "DFT", 
		 "functional": "B3LYP", 
		 "basiset": "6-31G**", 
		 "properties": { 
			 "R2extent": 5834.6492, 
			 "electric_dipole_moment_norm": 2.07034822675, 
			 "electric_quadrupole_moment_norm": 9.8848079, 
			 "total_energy": -5512.40290313, 
			 "HOMO_LUMO_gap": 0.19482, 
			 "cosmo_polarized_energy": -6.31, 
			 "cosmo_cavitation_energy": 24.19, 
			 "cosmo_dispersion_energy": -18.13, 
			 "cosmo_repulsion_energy": 1.44, 
			 "cosmo_total_nonelectrostatic_energy": 7.5, 
			 "SMD_solvation_energy": 2.39 
		},
		"coords": [
			{
				"x": -3.7538329029,
				"y": 2.9070265784,
				"z": 1.8940266435,
				"element": "F" 
			},
			{
				"x": -2.5095408994,
				"y": 2.582163439,
				"z": 1.4947799568,
				"element": "C" 
			},
			{
				"x": -1.7824581647,
				"y": 1.6666312269,
				"z": 2.2406596651,
				"element": "C" 
			},
			{
				"x": -0.4847552165,
				"y": 1.3065373351,
				"z": 1.8478291844,
				"element": "C" 
			},
			{
				"x": 0.2688532719,
				"y": 0.3075344386,
				"z": 2.6634402618,
				"element": "C" 
			},
			{
				"x": 1.3724958156,
				"y": 1.1824515468,
				"z": 4.0832240542,
				"element": "Br" 
			},
			{
				"x": 0.0383808858,
				"y": 1.9022607,
				"z": 0.6879709513,
				"element": "C" 
			},
			{
				"x": 1.7984661532,
				"y": 1.4775775156,
				"z": 0.0744044215,
				"element": "Br" 
			},
			{
				"x": -0.7037094434,
				"y": 2.8203302615,
				"z": -0.0552642368,
				"element": "C" 
			},
			{
				"x": -1.9913490106,
				"y": 3.169254559,
				"z": 0.3461309821,
				"element": "C" 
			},
			{
				"x": -2.2254868682,
				"y": 1.2384570622,
				"z": 3.1337759987,
				"element": "H" 
			},
			{
				"x": 0.9822059998,
				"y": -0.2638941813,
				"z": 2.0754533852,
				"element": "H" 
			},
			{
				"x": -0.3985349819,
				"y": -0.3569402293,
				"z": 3.2078584553,
				"element": "H" 
			},
			{
				"x": -0.2736862297,
				"y": 3.2603402995,
				"z": -0.9473446519,
				"element": "H" 
			},
			{
				"x": -2.586448409,
				"y": 3.8800694481,
				"z": -0.2161450712,
				"element": "H" 
			}
		],
		 "valence_orbital": [ 
			{
				"type": "occ",
				"energy": -0.29878,
				"method": "rhf"
			},
			{
				"type": "occ",
				"energy": -0.28332,
				"method": "rhf"
			},
			{
				"type": "occ",
				"energy": -0.27382,
				"method": "rhf"
			},
			{
				"type": "occ",
				"energy": -0.26944,
				"method": "rhf"
			},
			{
				"type": "occ",
				"energy": -0.24791,
				"method": "rhf"
			},
			{
				"type": "unocc",
				"energy": -0.05309,
				"method": "rhf"
			},
			{
				"type": "unocc",
				"energy": -0.02371,
				"method": "rhf"
			},
			{
				"type": "unocc",
				"energy": -0.00331,
				"method": "rhf"
			},
			{
				"type": "unocc",
				"energy": 0.01975,
				"method": "rhf"
			},
			{
				"type": "unocc",
				"energy": 0.0855,
				"method": "rhf"
			}
		],
		"cosmo_sigma_profile": { 
			"-0.025": 0.0,
			"-0.024": 0.0,
			"-0.023": 0.0,
			"-0.022": 0.0,
			"-0.021": 0.0,
			"-0.02": 0.0,
			"-0.019": 0.0,
			"-0.018": 0.0,
			"-0.017": 0.0,
			"-0.016": 0.0,
			"-0.015": 0.0,
			"-0.014": 0.0,
			"-0.013": 0.0,
			"-0.012": 0.0,
			"-0.011": 0.0,
			"-0.01": 0.0734878318196,
			"-0.009": 2.6082645496,
			"-0.008": 7.02354106757,
			"-0.007": 8.68535917105,
			"-0.006": 8.71717620263,
			"-0.005": 8.63886577329,
			"-0.004": 9.43743306495,
			"-0.003": 8.98254354637,
			"-0.002": 9.60855796818,
			"-0.001": 13.294430071,
			"0.0": 17.4786705993,
			"0.001": 23.2389377945,
			"0.002": 20.4667937408,
			"0.003": 17.3338739334,
			"0.004": 22.3417023914,
			"0.005": 10.7543940237,
			"0.006": 11.193272439,
			"0.007": 0.854795196329,
			"0.008": 0.0,
			"0.009": 0.0,
			"0.01": 0.0,
			"0.011": 0.0,
			"0.012": 0.0,
			"0.013": 0.0,
			"0.014": 0.0,
			"0.015": 0.0,
			"0.016": 0.0,
			"0.017": 0.0,
			"0.018": 0.0,
			"0.019": 0.0,
			"0.02": 0.0,
			"0.021": 0.0,
			"0.022": 0.0,
			"0.023": 0.0,
			"0.024": 0.0,
			"0.025": 0.0
		}
	}
}
