{
	 "smiles": "COC(=O)C1=C(C)ON=C1C1=C(Cl)C=CC=C1Cl", 
	 "Tm": 388.15, 
	 "num_atms": 27, 
	 "gaussian": { 
		 "optdone": 1, 
		 "sigma_profile": "yes", 
		 "theory": "DFT", 
		 "functional": "B3LYP", 
		 "basiset": "6-31G**", 
		 "properties": { 
			 "R2extent": 5829.7121, 
			 "electric_dipole_moment_norm": 3.00179522786, 
			 "electric_quadrupole_moment_norm": 22.7483749475, 
			 "total_energy": -1663.46832652, 
			 "HOMO_LUMO_gap": 0.21296, 
			 "cosmo_polarized_energy": -13.0, 
			 "cosmo_cavitation_energy": 36.35, 
			 "cosmo_dispersion_energy": -24.56, 
			 "cosmo_repulsion_energy": 1.93, 
			 "cosmo_total_nonelectrostatic_energy": 13.71, 
			 "SMD_solvation_energy": 7.07 
		},
		"coords": [
			{
				"x": 2.2571733144,
				"y": -3.3799621915,
				"z": 3.0263577781,
				"element": "C" 
			},
			{
				"x": 2.2856404466,
				"y": -2.1585339705,
				"z": 2.2688617902,
				"element": "O" 
			},
			{
				"x": 1.0674734708,
				"y": -1.6231952503,
				"z": 2.000659968,
				"element": "C" 
			},
			{
				"x": 0.0218815772,
				"y": -2.1223911158,
				"z": 2.3641396688,
				"element": "O" 
			},
			{
				"x": 1.1795788439,
				"y": -0.3818898058,
				"z": 1.2264687881,
				"element": "C" 
			},
			{
				"x": 2.2993944184,
				"y": 0.2692024323,
				"z": 0.7662432552,
				"element": "C" 
			},
			{
				"x": 3.7636747922,
				"y": 0.0111348194,
				"z": 0.8510268819,
				"element": "C" 
			},
			{
				"x": 1.9219665842,
				"y": 1.3727181907,
				"z": 0.1028307103,
				"element": "O" 
			},
			{
				"x": 0.5228640533,
				"y": 1.4840635736,
				"z": 0.1056089728,
				"element": "N" 
			},
			{
				"x": 0.0951579851,
				"y": 0.4398924411,
				"z": 0.7736015129,
				"element": "C" 
			},
			{
				"x": -1.3626379241,
				"y": 0.2420812649,
				"z": 0.9707273629,
				"element": "C" 
			},
			{
				"x": -2.0311322987,
				"y": 0.7771180721,
				"z": 2.0829511831,
				"element": "C" 
			},
			{
				"x": -1.1310656581,
				"y": 1.6793343646,
				"z": 3.2886455478,
				"element": "Cl" 
			},
			{
				"x": -3.4011535043,
				"y": 0.6092934736,
				"z": 2.2719545986,
				"element": "C" 
			},
			{
				"x": -4.1339092167,
				"y": -0.1116143428,
				"z": 1.3317523498,
				"element": "C" 
			},
			{
				"x": -3.5066434206,
				"y": -0.6622356619,
				"z": 0.2164230332,
				"element": "C" 
			},
			{
				"x": -2.1355180186,
				"y": -0.4811192694,
				"z": 0.0488736565,
				"element": "C" 
			},
			{
				"x": -1.3696383596,
				"y": -1.195339754,
				"z": -1.3586529293,
				"element": "Cl" 
			},
			{
				"x": 3.2998998524,
				"y": -3.6711264506,
				"z": 3.1524336722,
				"element": "H" 
			},
			{
				"x": 1.7828861039,
				"y": -3.2193479054,
				"z": 3.9975607045,
				"element": "H" 
			},
			{
				"x": 1.7045046154,
				"y": -4.1536891969,
				"z": 2.487948887,
				"element": "H" 
			},
			{
				"x": 4.0861440742,
				"y": -0.0298512983,
				"z": 1.8949673449,
				"element": "H" 
			},
			{
				"x": 4.0099501289,
				"y": -0.9539351176,
				"z": 0.3999439876,
				"element": "H" 
			},
			{
				"x": 4.3083126962,
				"y": 0.8030562091,
				"z": 0.3337558748,
				"element": "H" 
			},
			{
				"x": -3.8787167327,
				"y": 1.0392212879,
				"z": 3.1445436374,
				"element": "H" 
			},
			{
				"x": -5.2019274349,
				"y": -0.2473702943,
				"z": 1.4705382986,
				"element": "H" 
			},
			{
				"x": -4.0667603887,
				"y": -1.2272145042,
				"z": -0.5193665358,
				"element": "H" 
			}
		],
		 "valence_orbital": [ 
			{
				"type": "occ",
				"energy": -0.2979,
				"method": "rhf"
			},
			{
				"type": "occ",
				"energy": -0.28404,
				"method": "rhf"
			},
			{
				"type": "occ",
				"energy": -0.26648,
				"method": "rhf"
			},
			{
				"type": "occ",
				"energy": -0.25997,
				"method": "rhf"
			},
			{
				"type": "occ",
				"energy": -0.24985,
				"method": "rhf"
			},
			{
				"type": "unocc",
				"energy": -0.03689,
				"method": "rhf"
			},
			{
				"type": "unocc",
				"energy": -0.02897,
				"method": "rhf"
			},
			{
				"type": "unocc",
				"energy": -0.02287,
				"method": "rhf"
			},
			{
				"type": "unocc",
				"energy": -0.00846,
				"method": "rhf"
			},
			{
				"type": "unocc",
				"energy": 0.00768,
				"method": "rhf"
			}
		],
		"cosmo_sigma_profile": { 
			"-0.025": 0.0,
			"-0.024": 0.0,
			"-0.023": 0.0,
			"-0.022": 0.0,
			"-0.021": 0.0,
			"-0.02": 0.0,
			"-0.019": 0.0,
			"-0.018": 0.0,
			"-0.017": 0.0,
			"-0.016": 0.0,
			"-0.015": 0.0,
			"-0.014": 0.0,
			"-0.013": 0.0,
			"-0.012": 0.0,
			"-0.011": 0.0,
			"-0.01": 0.0,
			"-0.009": 0.074725493764,
			"-0.008": 4.55925275353,
			"-0.007": 9.82273725725,
			"-0.006": 16.9475804244,
			"-0.005": 18.3695595153,
			"-0.004": 20.503785645,
			"-0.003": 26.9778186541,
			"-0.002": 21.2997268067,
			"-0.001": 19.4997817923,
			"0.0": 23.002266581,
			"0.001": 25.6073363446,
			"0.002": 28.907135984,
			"0.003": 24.3278033485,
			"0.004": 19.3599458475,
			"0.005": 5.99531569192,
			"0.006": 6.47542984352,
			"0.007": 5.50347176011,
			"0.008": 3.47705897361,
			"0.009": 3.78147680066,
			"0.01": 3.28835143174,
			"0.011": 3.76146994769,
			"0.012": 3.41256935893,
			"0.013": 0.812177878468,
			"0.014": 0.00781798751866,
			"0.015": 0.0,
			"0.016": 0.0,
			"0.017": 0.0,
			"0.018": 0.0,
			"0.019": 0.0,
			"0.02": 0.0,
			"0.021": 0.0,
			"0.022": 0.0,
			"0.023": 0.0,
			"0.024": 0.0,
			"0.025": 0.0
		}
	}
}
