{
	 "smiles": "NC(=O)CC1=NOC2=C1C=CC=C2", 
	 "Tm": 421.15, 
	 "num_atms": 21, 
	 "gaussian": { 
		 "optdone": 1, 
		 "sigma_profile": "yes", 
		 "theory": "DFT", 
		 "functional": "B3LYP", 
		 "basiset": "6-31G**", 
		 "properties": { 
			 "R2extent": 2788.1123, 
			 "electric_dipole_moment_norm": 1.31428229844, 
			 "electric_quadrupole_moment_norm": 15.3057383667, 
			 "total_energy": -607.706392504, 
			 "HOMO_LUMO_gap": 0.19756, 
			 "cosmo_polarized_energy": -14.5, 
			 "cosmo_cavitation_energy": 25.97, 
			 "cosmo_dispersion_energy": -18.78, 
			 "cosmo_repulsion_energy": 1.49, 
			 "cosmo_total_nonelectrostatic_energy": 8.68, 
			 "SMD_solvation_energy": 4.86 
		},
		"coords": [
			{
				"x": 1.7550084486,
				"y": -0.9119065294,
				"z": 1.2954358344,
				"element": "N" 
			},
			{
				"x": 0.6643598814,
				"y": -1.2738334773,
				"z": 0.5591759433,
				"element": "C" 
			},
			{
				"x": -0.2014222496,
				"y": -2.03199372,
				"z": 0.9689822165,
				"element": "O" 
			},
			{
				"x": 0.6054400317,
				"y": -0.6408843316,
				"z": -0.8400882522,
				"element": "C" 
			},
			{
				"x": 0.09924234,
				"y": 0.7697376657,
				"z": -0.7705514012,
				"element": "C" 
			},
			{
				"x": 0.8737459029,
				"y": 1.7660382128,
				"z": -1.1190199024,
				"element": "N" 
			},
			{
				"x": 0.1329006624,
				"y": 2.9547590574,
				"z": -0.9389434438,
				"element": "O" 
			},
			{
				"x": -1.0962829556,
				"y": 2.6200171775,
				"z": -0.4713870069,
				"element": "C" 
			},
			{
				"x": -1.1903036742,
				"y": 1.2313148373,
				"z": -0.3305647582,
				"element": "C" 
			},
			{
				"x": -2.3678529181,
				"y": 0.6428862711,
				"z": 0.1568374476,
				"element": "C" 
			},
			{
				"x": -3.4214401193,
				"y": 1.4909350325,
				"z": 0.4738091129,
				"element": "C" 
			},
			{
				"x": -3.3084188836,
				"y": 2.8897779927,
				"z": 0.3147249359,
				"element": "C" 
			},
			{
				"x": -2.1439744852,
				"y": 3.4872599117,
				"z": -0.1586631889,
				"element": "C" 
			},
			{
				"x": 2.3590905063,
				"y": -0.1609841918,
				"z": 0.9984469545,
				"element": "H" 
			},
			{
				"x": 1.7807835146,
				"y": -1.1938566567,
				"z": 2.2642412635,
				"element": "H" 
			},
			{
				"x": -0.0734664085,
				"y": -1.2568857887,
				"z": -1.4348170381,
				"element": "H" 
			},
			{
				"x": 1.590957012,
				"y": -0.6398942681,
				"z": -1.3147722496,
				"element": "H" 
			},
			{
				"x": -2.4340818084,
				"y": -0.4312737768,
				"z": 0.2955999544,
				"element": "H" 
			},
			{
				"x": -4.3492424601,
				"y": 1.0764896773,
				"z": 0.8554358838,
				"element": "H" 
			},
			{
				"x": -4.1549775656,
				"y": 3.5189371753,
				"z": 0.5737810283,
				"element": "H" 
			},
			{
				"x": -2.0497647718,
				"y": 4.5605597291,
				"z": -0.2779633338,
				"element": "H" 
			}
		],
		 "valence_orbital": [ 
			{
				"type": "occ",
				"energy": -0.31208,
				"method": "rhf"
			},
			{
				"type": "occ",
				"energy": -0.27879,
				"method": "rhf"
			},
			{
				"type": "occ",
				"energy": -0.26053,
				"method": "rhf"
			},
			{
				"type": "occ",
				"energy": -0.25492,
				"method": "rhf"
			},
			{
				"type": "occ",
				"energy": -0.24351,
				"method": "rhf"
			},
			{
				"type": "unocc",
				"energy": -0.04595,
				"method": "rhf"
			},
			{
				"type": "unocc",
				"energy": 0.00083,
				"method": "rhf"
			},
			{
				"type": "unocc",
				"energy": 0.01405,
				"method": "rhf"
			},
			{
				"type": "unocc",
				"energy": 0.04307,
				"method": "rhf"
			},
			{
				"type": "unocc",
				"energy": 0.06976,
				"method": "rhf"
			}
		],
		"cosmo_sigma_profile": { 
			"-0.025": 0.0,
			"-0.024": 0.0,
			"-0.023": 0.0,
			"-0.022": 0.0,
			"-0.021": 0.0,
			"-0.02": 0.0,
			"-0.019": 0.0,
			"-0.018": 0.0,
			"-0.017": 0.0,
			"-0.016": 0.0,
			"-0.015": 0.112408947254,
			"-0.014": 2.00230815038,
			"-0.013": 2.2401393719,
			"-0.012": 2.04881910707,
			"-0.011": 2.51317864942,
			"-0.01": 2.43085346243,
			"-0.009": 2.34892880516,
			"-0.008": 3.42940220113,
			"-0.007": 8.12960941592,
			"-0.006": 12.3213897212,
			"-0.005": 14.3571122198,
			"-0.004": 13.3608934327,
			"-0.003": 11.6173622308,
			"-0.002": 9.87694131726,
			"-0.001": 13.9482014112,
			"0.0": 12.9571135669,
			"0.001": 12.9781927161,
			"0.002": 14.4951886396,
			"0.003": 13.9727044217,
			"0.004": 11.5538369275,
			"0.005": 4.74158902614,
			"0.006": 4.30304683337,
			"0.007": 4.31119334506,
			"0.008": 6.31118251657,
			"0.009": 3.7906317562,
			"0.01": 2.90691770927,
			"0.011": 2.17961408171,
			"0.012": 4.02458377282,
			"0.013": 5.29444072459,
			"0.014": 2.90517711635,
			"0.015": 0.0495706823642,
			"0.016": 0.0,
			"0.017": 0.0,
			"0.018": 0.0,
			"0.019": 0.0,
			"0.02": 0.0,
			"0.021": 0.0,
			"0.022": 0.0,
			"0.023": 0.0,
			"0.024": 0.0,
			"0.025": 0.0
		}
	}
}
