{
	 "smiles": "OC(=O)C1=CN=C(O)N=C1C1=CC=NC=C1", 
	 "Tm": 583.15, 
	 "num_atms": 23, 
	 "gaussian": { 
		 "optdone": 1, 
		 "sigma_profile": "yes", 
		 "theory": "DFT", 
		 "functional": "B3LYP", 
		 "basiset": "6-31G**", 
		 "properties": { 
			 "R2extent": 3908.9997, 
			 "electric_dipole_moment_norm": 2.58702186694, 
			 "electric_quadrupole_moment_norm": 18.4844427868, 
			 "total_energy": -775.211282688, 
			 "HOMO_LUMO_gap": 0.18358, 
			 "cosmo_polarized_energy": -18.9, 
			 "cosmo_cavitation_energy": 28.5, 
			 "cosmo_dispersion_energy": -20.94, 
			 "cosmo_repulsion_energy": 1.61, 
			 "cosmo_total_nonelectrostatic_energy": 9.17, 
			 "SMD_solvation_energy": 2.46 
		},
		"coords": [
			{
				"x": 2.2127683482,
				"y": -0.5270545523,
				"z": 1.724352686,
				"element": "O" 
			},
			{
				"x": 2.2372413714,
				"y": -1.4212428896,
				"z": 0.7099827949,
				"element": "C" 
			},
			{
				"x": 3.2964432565,
				"y": -1.8524008096,
				"z": 0.3147569058,
				"element": "O" 
			},
			{
				"x": 0.9314490369,
				"y": -1.9104747521,
				"z": 0.1516303053,
				"element": "C" 
			},
			{
				"x": 0.9769054103,
				"y": -3.1819227188,
				"z": -0.4458688545,
				"element": "C" 
			},
			{
				"x": -0.0934529185,
				"y": -3.8194170421,
				"z": -0.9061347834,
				"element": "N" 
			},
			{
				"x": -1.2560155819,
				"y": -3.1660030965,
				"z": -0.7520758989,
				"element": "C" 
			},
			{
				"x": -2.3650830556,
				"y": -3.799311293,
				"z": -1.1460846338,
				"element": "O" 
			},
			{
				"x": -1.4322155542,
				"y": -1.9425563024,
				"z": -0.2595915749,
				"element": "N" 
			},
			{
				"x": -0.3408236115,
				"y": -1.2944196579,
				"z": 0.1731331542,
				"element": "C" 
			},
			{
				"x": -0.6059110342,
				"y": 0.1012048306,
				"z": 0.6305749221,
				"element": "C" 
			},
			{
				"x": -1.7612655892,
				"y": 0.38108368,
				"z": 1.3743896032,
				"element": "C" 
			},
			{
				"x": -2.0128031383,
				"y": 1.6976360511,
				"z": 1.7553229691,
				"element": "C" 
			},
			{
				"x": -1.220573129,
				"y": 2.7304710504,
				"z": 1.4366488384,
				"element": "N" 
			},
			{
				"x": -0.1315812351,
				"y": 2.4611809695,
				"z": 0.7084164388,
				"element": "C" 
			},
			{
				"x": 0.2229551252,
				"y": 1.1786195359,
				"z": 0.2847826685,
				"element": "C" 
			},
			{
				"x": 1.3070523854,
				"y": -0.2595514072,
				"z": 1.9403401172,
				"element": "H" 
			},
			{
				"x": 1.9364640992,
				"y": -3.6848219146,
				"z": -0.5308731036,
				"element": "H" 
			},
			{
				"x": -2.0827859035,
				"y": -4.6633680215,
				"z": -1.4864446066,
				"element": "H" 
			},
			{
				"x": -2.446113357,
				"y": -0.4177287031,
				"z": 1.6352042147,
				"element": "H" 
			},
			{
				"x": -2.8977326908,
				"y": 1.9355075076,
				"z": 2.3421187567,
				"element": "H" 
			},
			{
				"x": 0.4931628993,
				"y": 3.3114725752,
				"z": 0.4427034134,
				"element": "H" 
			},
			{
				"x": 1.1117148664,
				"y": 1.0349969606,
				"z": -0.3202843325,
				"element": "H" 
			}
		],
		 "valence_orbital": [ 
			{
				"type": "occ",
				"energy": -0.29043,
				"method": "rhf"
			},
			{
				"type": "occ",
				"energy": -0.2858,
				"method": "rhf"
			},
			{
				"type": "occ",
				"energy": -0.27891,
				"method": "rhf"
			},
			{
				"type": "occ",
				"energy": -0.27608,
				"method": "rhf"
			},
			{
				"type": "occ",
				"energy": -0.27273,
				"method": "rhf"
			},
			{
				"type": "unocc",
				"energy": -0.08915,
				"method": "rhf"
			},
			{
				"type": "unocc",
				"energy": -0.06112,
				"method": "rhf"
			},
			{
				"type": "unocc",
				"energy": -0.03373,
				"method": "rhf"
			},
			{
				"type": "unocc",
				"energy": -0.0253,
				"method": "rhf"
			},
			{
				"type": "unocc",
				"energy": 0.02728,
				"method": "rhf"
			}
		],
		"cosmo_sigma_profile": { 
			"-0.025": 0.0,
			"-0.024": 0.0,
			"-0.023": 0.0,
			"-0.022": 0.0,
			"-0.021": 0.0,
			"-0.02": 0.0,
			"-0.019": 0.282894498776,
			"-0.018": 0.839304695565,
			"-0.017": 0.908892595473,
			"-0.016": 1.2711708541,
			"-0.015": 1.66740970866,
			"-0.014": 1.45176652538,
			"-0.013": 1.31345851972,
			"-0.012": 2.3229675446,
			"-0.011": 1.59023203214,
			"-0.01": 1.47952397147,
			"-0.009": 3.44856649541,
			"-0.008": 5.73411902064,
			"-0.007": 10.9905835294,
			"-0.006": 12.943313001,
			"-0.005": 14.5207707005,
			"-0.004": 16.7089108412,
			"-0.003": 14.5373309955,
			"-0.002": 12.8009953883,
			"-0.001": 12.3732361383,
			"0.0": 14.8081293101,
			"0.001": 13.5888437604,
			"0.002": 8.02918022961,
			"0.003": 7.22278431071,
			"0.004": 8.37564955908,
			"0.005": 5.86252605249,
			"0.006": 6.24912685917,
			"0.007": 6.24645699363,
			"0.008": 8.91460368965,
			"0.009": 7.4363567772,
			"0.01": 9.97703778741,
			"0.011": 7.64788834636,
			"0.012": 4.43709052546,
			"0.013": 1.90944167913,
			"0.014": 0.995319835369,
			"0.015": 0.70041924789,
			"0.016": 0.457899607132,
			"0.017": 0.0,
			"0.018": 0.0,
			"0.019": 0.0,
			"0.02": 0.0,
			"0.021": 0.0,
			"0.022": 0.0,
			"0.023": 0.0,
			"0.024": 0.0,
			"0.025": 0.0
		}
	}
}
