{
	 "smiles": "CC(C)C1=CC=C(C=C1)C(C)C", 
	 "Tm": 256.15, 
	 "num_atms": 30, 
	 "gaussian": { 
		 "optdone": 1, 
		 "sigma_profile": "yes", 
		 "theory": "DFT", 
		 "functional": "B3LYP", 
		 "basiset": "6-31G**", 
		 "properties": { 
			 "R2extent": 4453.7488, 
			 "electric_dipole_moment_norm": 0.0, 
			 "electric_quadrupole_moment_norm": 5.44127316352, 
			 "total_energy": -468.154219912, 
			 "HOMO_LUMO_gap": 0.23088, 
			 "cosmo_polarized_energy": -3.27, 
			 "cosmo_cavitation_energy": 31.23, 
			 "cosmo_dispersion_energy": -21.87, 
			 "cosmo_repulsion_energy": 1.77, 
			 "cosmo_total_nonelectrostatic_energy": 11.14, 
			 "SMD_solvation_energy": 5.49 
		},
		"coords": [
			{
				"x": -3.8164179211,
				"y": -0.0369642953,
				"z": 0.540224801,
				"element": "C" 
			},
			{
				"x": -2.9059692996,
				"y": -1.2793356789,
				"z": 0.522886353,
				"element": "C" 
			},
			{
				"x": -3.7385002013,
				"y": -2.5727181215,
				"z": 0.4399278594,
				"element": "C" 
			},
			{
				"x": -1.8626470934,
				"y": -1.2034187841,
				"z": -0.5841858003,
				"element": "C" 
			},
			{
				"x": -0.4952494464,
				"y": -1.1731595098,
				"z": -0.2817761232,
				"element": "C" 
			},
			{
				"x": 0.4702484394,
				"y": -1.1035039821,
				"z": -1.2859379246,
				"element": "C" 
			},
			{
				"x": 0.1062033221,
				"y": -1.0610875667,
				"z": -2.6386814666,
				"element": "C" 
			},
			{
				"x": -1.2611931906,
				"y": -1.0913479872,
				"z": -2.9410907995,
				"element": "C" 
			},
			{
				"x": -2.2266915495,
				"y": -1.1610025737,
				"z": -1.9369279436,
				"element": "C" 
			},
			{
				"x": 1.149527934,
				"y": -0.9851854435,
				"z": -3.745752131,
				"element": "C" 
			},
			{
				"x": 2.0598878538,
				"y": -2.2276247982,
				"z": -3.7631428428,
				"element": "C" 
			},
			{
				"x": 1.9821529112,
				"y": 0.3081293955,
				"z": -3.6627429773,
				"element": "C" 
			},
			{
				"x": -4.5208538032,
				"y": -0.0836587207,
				"z": 1.3781941315,
				"element": "H" 
			},
			{
				"x": -4.4027592953,
				"y": 0.0381222497,
				"z": -0.3822585139,
				"element": "H" 
			},
			{
				"x": -3.2304218286,
				"y": 0.8822450309,
				"z": 0.637500753,
				"element": "H" 
			},
			{
				"x": -2.36087693,
				"y": -1.3003269439,
				"z": 1.4759977405,
				"element": "H" 
			},
			{
				"x": -4.3218261728,
				"y": -2.6104168847,
				"z": -0.4867548196,
				"element": "H" 
			},
			{
				"x": -4.4420504731,
				"y": -2.6358142969,
				"z": 1.27756267,
				"element": "H" 
			},
			{
				"x": -3.0969574641,
				"y": -3.4590511856,
				"z": 0.4652794801,
				"element": "H" 
			},
			{
				"x": -0.1804527183,
				"y": -1.2047163889,
				"z": 0.7591058372,
				"element": "H" 
			},
			{
				"x": 1.5208109469,
				"y": -1.0821413389,
				"z": -1.0068719744,
				"element": "H" 
			},
			{
				"x": -1.575991669,
				"y": -1.0597891833,
				"z": -3.9819726018,
				"element": "H" 
			},
			{
				"x": -3.2772533705,
				"y": -1.182364203,
				"z": -2.2159962434,
				"element": "H" 
			},
			{
				"x": 0.6044373518,
				"y": -0.9641181773,
				"z": -4.6988622943,
				"element": "H" 
			},
			{
				"x": 1.4738233786,
				"y": -3.1467848896,
				"z": -3.8604724208,
				"element": "H" 
			},
			{
				"x": 2.7643376231,
				"y": -2.1809389257,
				"z": -4.6011008712,
				"element": "H" 
			},
			{
				"x": 2.6462091156,
				"y": -2.3027986869,
				"z": -2.8406541309,
				"element": "H" 
			},
			{
				"x": 2.5655106593,
				"y": 0.3457367886,
				"z": -2.7360763902,
				"element": "H" 
			},
			{
				"x": 2.6856853303,
				"y": 0.3712212713,
				"z": -4.5003933805,
				"element": "H" 
			},
			{
				"x": 1.3406775606,
				"y": 1.1945138307,
				"z": -3.6880279761,
				"element": "H" 
			}
		],
		 "valence_orbital": [ 
			{
				"type": "occ",
				"energy": -0.3239,
				"method": "rhf"
			},
			{
				"type": "occ",
				"energy": -0.31566,
				"method": "rhf"
			},
			{
				"type": "occ",
				"energy": -0.30911,
				"method": "rhf"
			},
			{
				"type": "occ",
				"energy": -0.24157,
				"method": "rhf"
			},
			{
				"type": "occ",
				"energy": -0.22678,
				"method": "rhf"
			},
			{
				"type": "unocc",
				"energy": 0.0041,
				"method": "rhf"
			},
			{
				"type": "unocc",
				"energy": 0.00981,
				"method": "rhf"
			},
			{
				"type": "unocc",
				"energy": 0.08889,
				"method": "rhf"
			},
			{
				"type": "unocc",
				"energy": 0.09627,
				"method": "rhf"
			},
			{
				"type": "unocc",
				"energy": 0.11141,
				"method": "rhf"
			}
		],
		"cosmo_sigma_profile": { 
			"-0.025": 0.0,
			"-0.024": 0.0,
			"-0.023": 0.0,
			"-0.022": 0.0,
			"-0.021": 0.0,
			"-0.02": 0.0,
			"-0.019": 0.0,
			"-0.018": 0.0,
			"-0.017": 0.0,
			"-0.016": 0.0,
			"-0.015": 0.0,
			"-0.014": 0.0,
			"-0.013": 0.0,
			"-0.012": 0.0,
			"-0.011": 0.0,
			"-0.01": 0.0,
			"-0.009": 0.0,
			"-0.008": 0.0,
			"-0.007": 0.0,
			"-0.006": 0.0,
			"-0.005": 3.17251887671,
			"-0.004": 13.8511583837,
			"-0.003": 27.1210045239,
			"-0.002": 36.3160156813,
			"-0.001": 33.0045729919,
			"0.0": 35.4326113921,
			"0.001": 36.0538211173,
			"0.002": 22.4282764816,
			"0.003": 7.50385797336,
			"0.004": 7.70332830207,
			"0.005": 6.71251997464,
			"0.006": 6.94725009721,
			"0.007": 6.44314626068,
			"0.008": 0.243897821585,
			"0.009": 0.0,
			"0.01": 0.0,
			"0.011": 0.0,
			"0.012": 0.0,
			"0.013": 0.0,
			"0.014": 0.0,
			"0.015": 0.0,
			"0.016": 0.0,
			"0.017": 0.0,
			"0.018": 0.0,
			"0.019": 0.0,
			"0.02": 0.0,
			"0.021": 0.0,
			"0.022": 0.0,
			"0.023": 0.0,
			"0.024": 0.0,
			"0.025": 0.0
		}
	}
}
