{
	 "smiles": "CCC1=CC(O)=CC=C1", 
	 "Tm": 269.15, 
	 "num_atms": 19, 
	 "gaussian": { 
		 "optdone": 1, 
		 "sigma_profile": "yes", 
		 "theory": "DFT", 
		 "functional": "B3LYP", 
		 "basiset": "6-31G**", 
		 "properties": { 
			 "R2extent": 2290.5261, 
			 "electric_dipole_moment_norm": 1.56875161195, 
			 "electric_quadrupole_moment_norm": 8.97601987464, 
			 "total_energy": -386.107990775, 
			 "HOMO_LUMO_gap": 0.21804, 
			 "cosmo_polarized_energy": -7.63, 
			 "cosmo_cavitation_energy": 22.22, 
			 "cosmo_dispersion_energy": -16.29, 
			 "cosmo_repulsion_energy": 1.35, 
			 "cosmo_total_nonelectrostatic_energy": 7.28, 
			 "SMD_solvation_energy": 4.14 
		},
		"coords": [
			{
				"x": 0.5284733339,
				"y": -0.5461504099,
				"z": -0.8455816749,
				"element": "C" 
			},
			{
				"x": 0.9411181826,
				"y": 0.1669945768,
				"z": 0.4545005527,
				"element": "C" 
			},
			{
				"x": -0.2407200784,
				"y": 0.7247149446,
				"z": 1.2205452496,
				"element": "C" 
			},
			{
				"x": -0.9082607606,
				"y": -0.0650724473,
				"z": 2.1651104932,
				"element": "C" 
			},
			{
				"x": -2.025142991,
				"y": 0.4256792404,
				"z": 2.8482176332,
				"element": "C" 
			},
			{
				"x": -2.6993726462,
				"y": -0.3154954114,
				"z": 3.7796112519,
				"element": "O" 
			},
			{
				"x": -2.4911544211,
				"y": 1.7200619117,
				"z": 2.594777329,
				"element": "C" 
			},
			{
				"x": -1.827694148,
				"y": 2.5071182027,
				"z": 1.6569829763,
				"element": "C" 
			},
			{
				"x": -0.7115086141,
				"y": 2.0201587175,
				"z": 0.9729818616,
				"element": "C" 
			},
			{
				"x": 0.0009048153,
				"y": 0.1388725534,
				"z": -1.5170008848,
				"element": "H" 
			},
			{
				"x": -0.142379122,
				"y": -1.3859347085,
				"z": -0.6367898432,
				"element": "H" 
			},
			{
				"x": 1.404756195,
				"y": -0.9346411562,
				"z": -1.3753392955,
				"element": "H" 
			},
			{
				"x": 1.6347753785,
				"y": 0.9813065133,
				"z": 0.2140425973,
				"element": "H" 
			},
			{
				"x": 1.4939726357,
				"y": -0.5345730246,
				"z": 1.0909592997,
				"element": "H" 
			},
			{
				"x": -0.5508184347,
				"y": -1.0731958595,
				"z": 2.3734850944,
				"element": "H" 
			},
			{
				"x": -2.2760236824,
				"y": -1.1800180945,
				"z": 3.8592354804,
				"element": "H" 
			},
			{
				"x": -3.3565606918,
				"y": 2.0852316419,
				"z": 3.1374911912,
				"element": "H" 
			},
			{
				"x": -2.183428338,
				"y": 3.5149223101,
				"z": 1.4610083471,
				"element": "H" 
			},
			{
				"x": -0.2011366129,
				"y": 2.6479204992,
				"z": 0.2474623407,
				"element": "H" 
			}
		],
		 "valence_orbital": [ 
			{
				"type": "occ",
				"energy": -0.33604,
				"method": "rhf"
			},
			{
				"type": "occ",
				"energy": -0.32428,
				"method": "rhf"
			},
			{
				"type": "occ",
				"energy": -0.32027,
				"method": "rhf"
			},
			{
				"type": "occ",
				"energy": -0.24101,
				"method": "rhf"
			},
			{
				"type": "occ",
				"energy": -0.21536,
				"method": "rhf"
			},
			{
				"type": "unocc",
				"energy": 0.00268,
				"method": "rhf"
			},
			{
				"type": "unocc",
				"energy": 0.01781,
				"method": "rhf"
			},
			{
				"type": "unocc",
				"energy": 0.07375,
				"method": "rhf"
			},
			{
				"type": "unocc",
				"energy": 0.09466,
				"method": "rhf"
			},
			{
				"type": "unocc",
				"energy": 0.11849,
				"method": "rhf"
			}
		],
		"cosmo_sigma_profile": { 
			"-0.025": 0.0,
			"-0.024": 0.0,
			"-0.023": 0.0,
			"-0.022": 0.0,
			"-0.021": 0.0,
			"-0.02": 0.0,
			"-0.019": 0.0,
			"-0.018": 0.149404145246,
			"-0.017": 0.961938646954,
			"-0.016": 1.06532814467,
			"-0.015": 0.760905804424,
			"-0.014": 1.21809186193,
			"-0.013": 0.987379629738,
			"-0.012": 0.67949898461,
			"-0.011": 0.566676398603,
			"-0.01": 1.71937151867,
			"-0.009": 0.817756625049,
			"-0.008": 1.00510722279,
			"-0.007": 1.32685792401,
			"-0.006": 2.25997522251,
			"-0.005": 6.57863802051,
			"-0.004": 10.1935330909,
			"-0.003": 16.5011441888,
			"-0.002": 16.6507184823,
			"-0.001": 18.4123502863,
			"0.0": 17.3549388967,
			"0.001": 15.9744674333,
			"0.002": 9.10421893309,
			"0.003": 7.69028334505,
			"0.004": 10.3455853356,
			"0.005": 10.4329703899,
			"0.006": 9.88393887115,
			"0.007": 4.68451317122,
			"0.008": 1.6158372284,
			"0.009": 0.943345148245,
			"0.01": 1.85822833835,
			"0.011": 1.8330194937,
			"0.012": 1.41511099547,
			"0.013": 0.0,
			"0.014": 0.0,
			"0.015": 0.0,
			"0.016": 0.0,
			"0.017": 0.0,
			"0.018": 0.0,
			"0.019": 0.0,
			"0.02": 0.0,
			"0.021": 0.0,
			"0.022": 0.0,
			"0.023": 0.0,
			"0.024": 0.0,
			"0.025": 0.0
		}
	}
}
