{
	 "smiles": "O=C(C1=CC=CC=C1)C1=CC=C(C=C1)C(=O)C1=CC=CC=C1", 
	 "Tm": 436.15, 
	 "num_atms": 36, 
	 "gaussian": { 
		 "optdone": 1, 
		 "sigma_profile": "yes", 
		 "theory": "DFT", 
		 "functional": "B3LYP", 
		 "basiset": "6-31G**", 
		 "properties": { 
			 "R2extent": 9949.1481, 
			 "electric_dipole_moment_norm": 5.42712026032, 
			 "electric_quadrupole_moment_norm": 12.0323463024, 
			 "total_energy": -921.017570745, 
			 "HOMO_LUMO_gap": 0.16665, 
			 "cosmo_polarized_energy": -13.91, 
			 "cosmo_cavitation_energy": 41.08, 
			 "cosmo_dispersion_energy": -29.28, 
			 "cosmo_repulsion_energy": 2.2, 
			 "cosmo_total_nonelectrostatic_energy": 14.01, 
			 "SMD_solvation_energy": 7.67 
		},
		"coords": [
			{
				"x": 3.6619283217,
				"y": -2.8909675469,
				"z": 1.2495732893,
				"element": "O" 
			},
			{
				"x": 2.5793003661,
				"y": -2.6849189364,
				"z": 0.7126514587,
				"element": "C" 
			},
			{
				"x": 1.8519962502,
				"y": -3.8092491973,
				"z": 0.0378569928,
				"element": "C" 
			},
			{
				"x": 0.4536831036,
				"y": -3.8596971866,
				"z": -0.0749633717,
				"element": "C" 
			},
			{
				"x": -0.1660547005,
				"y": -4.9675976995,
				"z": -0.654472745,
				"element": "C" 
			},
			{
				"x": 0.6035093892,
				"y": -6.0274770621,
				"z": -1.1366044927,
				"element": "C" 
			},
			{
				"x": 1.9967630096,
				"y": -5.9883244965,
				"z": -1.0212932236,
				"element": "C" 
			},
			{
				"x": 2.6152808262,
				"y": -4.8930907507,
				"z": -0.4265466925,
				"element": "C" 
			},
			{
				"x": 1.9968362876,
				"y": -1.2991235601,
				"z": 0.7375853114,
				"element": "C" 
			},
			{
				"x": 1.1847908646,
				"y": -0.7921631975,
				"z": -0.2870033211,
				"element": "C" 
			},
			{
				"x": 0.723807862,
				"y": 0.5235640348,
				"z": -0.2378081696,
				"element": "C" 
			},
			{
				"x": 1.0662805886,
				"y": 1.3565614579,
				"z": 0.8369146293,
				"element": "C" 
			},
			{
				"x": 1.909888903,
				"y": 0.857185188,
				"z": 1.844359911,
				"element": "C" 
			},
			{
				"x": 2.368396218,
				"y": -0.4512004281,
				"z": 1.7953891611,
				"element": "C" 
			},
			{
				"x": 0.6571833376,
				"y": 2.8009998924,
				"z": 0.9177050046,
				"element": "C" 
			},
			{
				"x": 1.3870187741,
				"y": 3.6005360527,
				"z": 1.4929469774,
				"element": "O" 
			},
			{
				"x": -0.6271160866,
				"y": 3.268803548,
				"z": 0.3010892866,
				"element": "C" 
			},
			{
				"x": -0.7159277487,
				"y": 4.6197214837,
				"z": -0.0732226388,
				"element": "C" 
			},
			{
				"x": -1.8952230379,
				"y": 5.1273401194,
				"z": -0.6093398156,
				"element": "C" 
			},
			{
				"x": -3.0116308659,
				"y": 4.2975632516,
				"z": -0.7545657462,
				"element": "C" 
			},
			{
				"x": -2.9422620604,
				"y": 2.9602484668,
				"z": -0.3611243606,
				"element": "C" 
			},
			{
				"x": -1.7544576187,
				"y": 2.4445132605,
				"z": 0.1589606648,
				"element": "C" 
			},
			{
				"x": -0.1514212228,
				"y": -3.0472864612,
				"z": 0.3132423112,
				"element": "H" 
			},
			{
				"x": -1.2491799858,
				"y": -5.0039846504,
				"z": -0.7258625411,
				"element": "H" 
			},
			{
				"x": 0.1198382354,
				"y": -6.8853204569,
				"z": -1.5951178293,
				"element": "H" 
			},
			{
				"x": 2.5964792243,
				"y": -6.8153485717,
				"z": -1.3900238426,
				"element": "H" 
			},
			{
				"x": 3.6928585573,
				"y": -4.852972791,
				"z": -0.3073865985,
				"element": "H" 
			},
			{
				"x": 0.9331123086,
				"y": -1.4149062104,
				"z": -1.1387619235,
				"element": "H" 
			},
			{
				"x": 0.1192182378,
				"y": 0.9085741656,
				"z": -1.0519677165,
				"element": "H" 
			},
			{
				"x": 2.1989612252,
				"y": 1.521294541,
				"z": 2.6519495221,
				"element": "H" 
			},
			{
				"x": 3.0272030669,
				"y": -0.8421195565,
				"z": 2.5634764744,
				"element": "H" 
			},
			{
				"x": 0.154316495,
				"y": 5.2518750568,
				"z": 0.068355618,
				"element": "H" 
			},
			{
				"x": -1.9497739342,
				"y": 6.1698712159,
				"z": -0.9089127486,
				"element": "H" 
			},
			{
				"x": -3.9345342856,
				"y": 4.6951635566,
				"z": -1.1671576621,
				"element": "H" 
			},
			{
				"x": -3.8134557837,
				"y": 2.3186007385,
				"z": -0.4554168433,
				"element": "H" 
			},
			{
				"x": -1.7128141218,
				"y": 1.4087327296,
				"z": 0.47879567,
				"element": "H" 
			}
		],
		 "valence_orbital": [ 
			{
				"type": "occ",
				"energy": -0.26436,
				"method": "rhf"
			},
			{
				"type": "occ",
				"energy": -0.2633,
				"method": "rhf"
			},
			{
				"type": "occ",
				"energy": -0.26289,
				"method": "rhf"
			},
			{
				"type": "occ",
				"energy": -0.25034,
				"method": "rhf"
			},
			{
				"type": "occ",
				"energy": -0.24931,
				"method": "rhf"
			},
			{
				"type": "unocc",
				"energy": -0.08266,
				"method": "rhf"
			},
			{
				"type": "unocc",
				"energy": -0.05335,
				"method": "rhf"
			},
			{
				"type": "unocc",
				"energy": -0.02072,
				"method": "rhf"
			},
			{
				"type": "unocc",
				"energy": -0.02042,
				"method": "rhf"
			},
			{
				"type": "unocc",
				"energy": -0.01228,
				"method": "rhf"
			}
		],
		"cosmo_sigma_profile": { 
			"-0.025": 0.0,
			"-0.024": 0.0,
			"-0.023": 0.0,
			"-0.022": 0.0,
			"-0.021": 0.0,
			"-0.02": 0.0,
			"-0.019": 0.0,
			"-0.018": 0.0,
			"-0.017": 0.0,
			"-0.016": 0.0,
			"-0.015": 0.0,
			"-0.014": 0.0,
			"-0.013": 0.0,
			"-0.012": 0.0,
			"-0.011": 0.0,
			"-0.01": 0.0,
			"-0.009": 0.0,
			"-0.008": 0.0,
			"-0.007": 4.87998642996,
			"-0.006": 22.7831013926,
			"-0.005": 29.5686026073,
			"-0.004": 34.2450804512,
			"-0.003": 25.8615082303,
			"-0.002": 26.3107412658,
			"-0.001": 21.9729910527,
			"0.0": 20.6915608467,
			"0.001": 23.0005014117,
			"0.002": 29.2292978015,
			"0.003": 28.0899436577,
			"0.004": 26.0219350665,
			"0.005": 6.37198376368,
			"0.006": 2.98592400025,
			"0.007": 4.09459422676,
			"0.008": 3.78234251425,
			"0.009": 2.96905780768,
			"0.01": 4.93074882473,
			"0.011": 6.01330870075,
			"0.012": 7.06288307585,
			"0.013": 0.242036326939,
			"0.014": 0.0,
			"0.015": 0.0,
			"0.016": 0.0,
			"0.017": 0.0,
			"0.018": 0.0,
			"0.019": 0.0,
			"0.02": 0.0,
			"0.021": 0.0,
			"0.022": 0.0,
			"0.023": 0.0,
			"0.024": 0.0,
			"0.025": 0.0
		}
	}
}
