{
	 "smiles": "CCS(=O)(=O)C1=CC=C(C=C1)S(Cl)(=O)=O", 
	 "Tm": 378.15, 
	 "num_atms": 24, 
	 "gaussian": { 
		 "optdone": 1, 
		 "sigma_profile": "yes", 
		 "theory": "DFT", 
		 "functional": "B3LYP", 
		 "basiset": "6-31G**", 
		 "properties": { 
			 "R2extent": 6559.9256, 
			 "electric_dipole_moment_norm": 4.14316614318, 
			 "electric_quadrupole_moment_norm": 31.6130603691, 
			 "total_energy": -1867.60562591, 
			 "HOMO_LUMO_gap": 0.19471, 
			 "cosmo_polarized_energy": -17.98, 
			 "cosmo_cavitation_energy": 33.05, 
			 "cosmo_dispersion_energy": -24.48, 
			 "cosmo_repulsion_energy": 1.84, 
			 "cosmo_total_nonelectrostatic_energy": 10.41, 
			 "SMD_solvation_energy": 3.71 
		},
		"coords": [
			{
				"x": -2.2499643514,
				"y": 0.905473636,
				"z": -3.0674992025,
				"element": "C" 
			},
			{
				"x": -1.0687979246,
				"y": 1.8170035008,
				"z": -2.7562018297,
				"element": "C" 
			},
			{
				"x": -0.5746023645,
				"y": 1.8154932428,
				"z": -1.0018098807,
				"element": "S" 
			},
			{
				"x": -1.7914159928,
				"y": 1.9169194443,
				"z": -0.1805185257,
				"element": "O" 
			},
			{
				"x": 0.5334757252,
				"y": 2.7726261782,
				"z": -0.8636737474,
				"element": "O" 
			},
			{
				"x": 0.1141603625,
				"y": 0.1611350083,
				"z": -0.7299464631,
				"element": "C" 
			},
			{
				"x": 1.4577974323,
				"y": -0.0700505557,
				"z": -1.033561267,
				"element": "C" 
			},
			{
				"x": 1.9953904609,
				"y": -1.3379703152,
				"z": -0.8193845126,
				"element": "C" 
			},
			{
				"x": 1.1646945614,
				"y": -2.3315257068,
				"z": -0.2988298889,
				"element": "C" 
			},
			{
				"x": -0.1742760214,
				"y": -2.1073513777,
				"z": 0.0217032223,
				"element": "C" 
			},
			{
				"x": -0.7047848755,
				"y": -0.8361723947,
				"z": -0.1974257182,
				"element": "C" 
			},
			{
				"x": 1.8430101524,
				"y": -3.9733444072,
				"z": -0.0506655027,
				"element": "S" 
			},
			{
				"x": 2.5655210925,
				"y": -3.8203669114,
				"z": 1.9424258128,
				"element": "Cl" 
			},
			{
				"x": 0.7524166354,
				"y": -4.9388823795,
				"z": -0.0222959044,
				"element": "O" 
			},
			{
				"x": 3.0130291952,
				"y": -4.1378675326,
				"z": -0.9030353432,
				"element": "O" 
			},
			{
				"x": -2.5268423665,
				"y": 1.0153803786,
				"z": -4.1200504601,
				"element": "H" 
			},
			{
				"x": -2.0060674685,
				"y": -0.1467319948,
				"z": -2.8948212611,
				"element": "H" 
			},
			{
				"x": -3.1135736897,
				"y": 1.1693306585,
				"z": -2.4530105792,
				"element": "H" 
			},
			{
				"x": -1.3019376213,
				"y": 2.8712082155,
				"z": -2.9383596759,
				"element": "H" 
			},
			{
				"x": -0.1689213322,
				"y": 1.5670888334,
				"z": -3.325381198,
				"element": "H" 
			},
			{
				"x": 2.0749412828,
				"y": 0.737993386,
				"z": -1.4116352561,
				"element": "H" 
			},
			{
				"x": 3.031908622,
				"y": -1.5558833202,
				"z": -1.0506132594,
				"element": "H" 
			},
			{
				"x": -0.7824594675,
				"y": -2.9082505975,
				"z": 0.4267106382,
				"element": "H" 
			},
			{
				"x": -1.7344020469,
				"y": -0.6084549895,
				"z": 0.0556798028,
				"element": "H" 
			}
		],
		 "valence_orbital": [ 
			{
				"type": "occ",
				"energy": -0.32429,
				"method": "rhf"
			},
			{
				"type": "occ",
				"energy": -0.31524,
				"method": "rhf"
			},
			{
				"type": "occ",
				"energy": -0.31134,
				"method": "rhf"
			},
			{
				"type": "occ",
				"energy": -0.30639,
				"method": "rhf"
			},
			{
				"type": "occ",
				"energy": -0.3,
				"method": "rhf"
			},
			{
				"type": "unocc",
				"energy": -0.10529,
				"method": "rhf"
			},
			{
				"type": "unocc",
				"energy": -0.06875,
				"method": "rhf"
			},
			{
				"type": "unocc",
				"energy": -0.05741,
				"method": "rhf"
			},
			{
				"type": "unocc",
				"energy": 0.02966,
				"method": "rhf"
			},
			{
				"type": "unocc",
				"energy": 0.04343,
				"method": "rhf"
			}
		],
		"cosmo_sigma_profile": { 
			"-0.025": 0.0,
			"-0.024": 0.0,
			"-0.023": 0.0,
			"-0.022": 0.0,
			"-0.021": 0.0,
			"-0.02": 0.0,
			"-0.019": 0.0,
			"-0.018": 0.0,
			"-0.017": 0.0,
			"-0.016": 0.0,
			"-0.015": 0.0,
			"-0.014": 0.0,
			"-0.013": 0.0,
			"-0.012": 0.0,
			"-0.011": 0.0,
			"-0.01": 0.813978195886,
			"-0.009": 7.30002667805,
			"-0.008": 12.2125802616,
			"-0.007": 11.4061476129,
			"-0.006": 11.398657288,
			"-0.005": 15.9944424064,
			"-0.004": 19.0557730628,
			"-0.003": 19.1146431366,
			"-0.002": 22.3072585338,
			"-0.001": 27.435724117,
			"0.0": 15.1669396294,
			"0.001": 9.71358599307,
			"0.002": 12.6541581223,
			"0.003": 16.5824282448,
			"0.004": 7.41826811266,
			"0.005": 4.85311055871,
			"0.006": 6.39651875688,
			"0.007": 10.0661299865,
			"0.008": 11.8540287504,
			"0.009": 5.68327578738,
			"0.01": 5.6329251993,
			"0.011": 8.84061248606,
			"0.012": 4.84362630756,
			"0.013": 0.0,
			"0.014": 0.0,
			"0.015": 0.0,
			"0.016": 0.0,
			"0.017": 0.0,
			"0.018": 0.0,
			"0.019": 0.0,
			"0.02": 0.0,
			"0.021": 0.0,
			"0.022": 0.0,
			"0.023": 0.0,
			"0.024": 0.0,
			"0.025": 0.0
		}
	}
}
