{
	 "smiles": "COC1=C2OCOC2=CC(C=O)=C1", 
	 "Tm": 405.15, 
	 "num_atms": 21, 
	 "gaussian": { 
		 "optdone": 1, 
		 "sigma_profile": "yes", 
		 "theory": "DFT", 
		 "functional": "B3LYP", 
		 "basiset": "6-31G**", 
		 "properties": { 
			 "R2extent": 2633.631, 
			 "electric_dipole_moment_norm": 5.15137776522, 
			 "electric_quadrupole_moment_norm": 10.9730597351, 
			 "total_energy": -648.619470116, 
			 "HOMO_LUMO_gap": 0.16609, 
			 "cosmo_polarized_energy": -10.62, 
			 "cosmo_cavitation_energy": 25.54, 
			 "cosmo_dispersion_energy": -19.15, 
			 "cosmo_repulsion_energy": 1.51, 
			 "cosmo_total_nonelectrostatic_energy": 7.9, 
			 "SMD_solvation_energy": 6.95 
		},
		"coords": [
			{
				"x": -2.1205461617,
				"y": -0.8488463512,
				"z": 2.4258885318,
				"element": "C" 
			},
			{
				"x": -2.1618903124,
				"y": -0.3828970075,
				"z": 1.0769608296,
				"element": "O" 
			},
			{
				"x": -1.0427386709,
				"y": -0.4467526771,
				"z": 0.3085010747,
				"element": "C" 
			},
			{
				"x": 0.213838719,
				"y": -0.9308775842,
				"z": 0.6712809422,
				"element": "C" 
			},
			{
				"x": 0.627374172,
				"y": -1.4552308365,
				"z": 1.8752137812,
				"element": "O" 
			},
			{
				"x": 2.0111210234,
				"y": -1.7984644818,
				"z": 1.7102454867,
				"element": "C" 
			},
			{
				"x": 2.393985467,
				"y": -1.4607020532,
				"z": 0.3791968433,
				"element": "O" 
			},
			{
				"x": 1.2826668434,
				"y": -0.9344100753,
				"z": -0.2331673773,
				"element": "C" 
			},
			{
				"x": 1.1826634562,
				"y": -0.4715843311,
				"z": -1.522982666,
				"element": "C" 
			},
			{
				"x": -0.0856693124,
				"y": 0.0214932756,
				"z": -1.9024387198,
				"element": "C" 
			},
			{
				"x": -0.2875404071,
				"y": 0.5399598967,
				"z": -3.2706599429,
				"element": "C" 
			},
			{
				"x": 0.5737447141,
				"y": 0.5817141401,
				"z": -4.1297814407,
				"element": "O" 
			},
			{
				"x": -1.1598503487,
				"y": 0.0310055842,
				"z": -1.0109823061,
				"element": "C" 
			},
			{
				"x": -1.4000431147,
				"y": -0.2831171788,
				"z": 3.0247014702,
				"element": "H" 
			},
			{
				"x": -3.1262392894,
				"y": -0.690916803,
				"z": 2.8179391249,
				"element": "H" 
			},
			{
				"x": -1.8698564835,
				"y": -1.9129827091,
				"z": 2.4761181765,
				"element": "H" 
			},
			{
				"x": 2.6138379503,
				"y": -1.225962833,
				"z": 2.4262060473,
				"element": "H" 
			},
			{
				"x": 2.1382470096,
				"y": -2.8763082791,
				"z": 1.8706225067,
				"element": "H" 
			},
			{
				"x": 2.0079682008,
				"y": -0.4735929859,
				"z": -2.2236812832,
				"element": "H" 
			},
			{
				"x": -1.3180422239,
				"y": 0.9069332383,
				"z": -3.4760972935,
				"element": "H" 
			},
			{
				"x": -2.127831231,
				"y": 0.414040052,
				"z": -1.3204837857,
				"element": "H" 
			}
		],
		 "valence_orbital": [ 
			{
				"type": "occ",
				"energy": -0.34283,
				"method": "rhf"
			},
			{
				"type": "occ",
				"energy": -0.30537,
				"method": "rhf"
			},
			{
				"type": "occ",
				"energy": -0.24948,
				"method": "rhf"
			},
			{
				"type": "occ",
				"energy": -0.22999,
				"method": "rhf"
			},
			{
				"type": "occ",
				"energy": -0.2197,
				"method": "rhf"
			},
			{
				"type": "unocc",
				"energy": -0.05361,
				"method": "rhf"
			},
			{
				"type": "unocc",
				"energy": 0.00104,
				"method": "rhf"
			},
			{
				"type": "unocc",
				"energy": 0.05407,
				"method": "rhf"
			},
			{
				"type": "unocc",
				"energy": 0.06987,
				"method": "rhf"
			},
			{
				"type": "unocc",
				"energy": 0.0981,
				"method": "rhf"
			}
		],
		"cosmo_sigma_profile": { 
			"-0.025": 0.0,
			"-0.024": 0.0,
			"-0.023": 0.0,
			"-0.022": 0.0,
			"-0.021": 0.0,
			"-0.02": 0.0,
			"-0.019": 0.0,
			"-0.018": 0.0,
			"-0.017": 0.0,
			"-0.016": 0.0,
			"-0.015": 0.0,
			"-0.014": 0.0,
			"-0.013": 0.0,
			"-0.012": 0.0,
			"-0.011": 0.0,
			"-0.01": 0.0,
			"-0.009": 0.0,
			"-0.008": 5.85712721184,
			"-0.007": 11.0825530379,
			"-0.006": 14.1752255329,
			"-0.005": 13.5332495342,
			"-0.004": 16.0225202885,
			"-0.003": 15.469387333,
			"-0.002": 11.9090027409,
			"-0.001": 13.5718170069,
			"0.0": 13.4324225218,
			"0.001": 13.4870569528,
			"0.002": 17.569840019,
			"0.003": 15.1707029033,
			"0.004": 6.76271134437,
			"0.005": 5.56512327094,
			"0.006": 5.44087322132,
			"0.007": 3.95201911796,
			"0.008": 4.40933758906,
			"0.009": 4.85391417682,
			"0.01": 3.3409578336,
			"0.011": 3.536066692,
			"0.012": 3.8545558561,
			"0.013": 1.31125045916,
			"0.014": 0.0715491467063,
			"0.015": 0.0,
			"0.016": 0.0,
			"0.017": 0.0,
			"0.018": 0.0,
			"0.019": 0.0,
			"0.02": 0.0,
			"0.021": 0.0,
			"0.022": 0.0,
			"0.023": 0.0,
			"0.024": 0.0,
			"0.025": 0.0
		}
	}
}
