{
	 "smiles": "C1CCC(CC1)P(C1=CC=CC=C1)C1=CC=CC=C1", 
	 "Tm": 333.15, 
	 "num_atms": 40, 
	 "gaussian": { 
		 "optdone": 1, 
		 "sigma_profile": "yes", 
		 "theory": "DFT", 
		 "functional": "B3LYP", 
		 "basiset": "6-31G**", 
		 "properties": { 
			 "R2extent": 5888.491, 
			 "electric_dipole_moment_norm": 1.45887202317, 
			 "electric_quadrupole_moment_norm": 10.4642911456, 
			 "total_energy": -1039.92892007, 
			 "HOMO_LUMO_gap": 0.18847, 
			 "cosmo_polarized_energy": -6.67, 
			 "cosmo_cavitation_energy": 40.78, 
			 "cosmo_dispersion_energy": -28.93, 
			 "cosmo_repulsion_energy": 2.35, 
			 "cosmo_total_nonelectrostatic_energy": 14.19, 
			 "SMD_solvation_energy": 5.91 
		},
		"coords": [
			{
				"x": -1.020030286,
				"y": -1.5078916594,
				"z": -4.0235108313,
				"element": "C" 
			},
			{
				"x": -0.6869332806,
				"y": -2.6146350381,
				"z": -3.0158706755,
				"element": "C" 
			},
			{
				"x": 0.4663744212,
				"y": -2.1909719355,
				"z": -2.0729170632,
				"element": "C" 
			},
			{
				"x": 0.4896548291,
				"y": -0.6574513205,
				"z": -1.8214674303,
				"element": "C" 
			},
			{
				"x": -0.9356816659,
				"y": -0.0847340929,
				"z": -1.8781484947,
				"element": "C" 
			},
			{
				"x": -1.5356569698,
				"y": -0.2411970075,
				"z": -3.2990341101,
				"element": "C" 
			},
			{
				"x": 1.540606906,
				"y": -0.3036319201,
				"z": -0.2881221975,
				"element": "P" 
			},
			{
				"x": 0.4217354293,
				"y": -0.8163708527,
				"z": 1.1002128047,
				"element": "C" 
			},
			{
				"x": 0.7191597204,
				"y": -2.0319966694,
				"z": 1.7384503283,
				"element": "C" 
			},
			{
				"x": -0.0858587716,
				"y": -2.520178965,
				"z": 2.7705830642,
				"element": "C" 
			},
			{
				"x": -1.1969743352,
				"y": -1.7902521294,
				"z": 3.1923993472,
				"element": "C" 
			},
			{
				"x": -1.4988005265,
				"y": -0.5720193293,
				"z": 2.5778310625,
				"element": "C" 
			},
			{
				"x": -0.6992061458,
				"y": -0.0906414377,
				"z": 1.5410706854,
				"element": "C" 
			},
			{
				"x": 1.5262693756,
				"y": 1.5437430427,
				"z": -0.1688830765,
				"element": "C" 
			},
			{
				"x": 1.515368891,
				"y": 2.3645538927,
				"z": -1.3098943865,
				"element": "C" 
			},
			{
				"x": 1.6507865284,
				"y": 3.7502252148,
				"z": -1.2024727636,
				"element": "C" 
			},
			{
				"x": 1.8066554938,
				"y": 4.3485068783,
				"z": 0.0478466997,
				"element": "C" 
			},
			{
				"x": 1.8326376442,
				"y": 3.5464268913,
				"z": 1.1906963711,
				"element": "C" 
			},
			{
				"x": 1.6993851439,
				"y": 2.1625869849,
				"z": 1.0830747315,
				"element": "C" 
			},
			{
				"x": -1.761126804,
				"y": -1.8555916801,
				"z": -4.7519469543,
				"element": "H" 
			},
			{
				"x": -0.1167097843,
				"y": -1.2689230064,
				"z": -4.6002774061,
				"element": "H" 
			},
			{
				"x": -0.4210820188,
				"y": -3.5447161712,
				"z": -3.5308636757,
				"element": "H" 
			},
			{
				"x": -1.5848498755,
				"y": -2.8389004089,
				"z": -2.4257358647,
				"element": "H" 
			},
			{
				"x": 0.3614868223,
				"y": -2.7291057436,
				"z": -1.1233485469,
				"element": "H" 
			},
			{
				"x": 1.4311942248,
				"y": -2.4951398113,
				"z": -2.4945065279,
				"element": "H" 
			},
			{
				"x": 1.072176427,
				"y": -0.1991120152,
				"z": -2.6328505872,
				"element": "H" 
			},
			{
				"x": -1.5564496667,
				"y": -0.6166908254,
				"z": -1.1482976047,
				"element": "H" 
			},
			{
				"x": -0.9490947646,
				"y": 0.9694482319,
				"z": -1.5844653441,
				"element": "H" 
			},
			{
				"x": -1.2998078803,
				"y": 0.6448412873,
				"z": -3.9010373141,
				"element": "H" 
			},
			{
				"x": -2.6291131271,
				"y": -0.2754055962,
				"z": -3.2208100918,
				"element": "H" 
			},
			{
				"x": 1.5954925414,
				"y": -2.5947273827,
				"z": 1.427441493,
				"element": "H" 
			},
			{
				"x": 0.1619523075,
				"y": -3.4633955104,
				"z": 3.2494843799,
				"element": "H" 
			},
			{
				"x": -1.8212472524,
				"y": -2.1629585151,
				"z": 3.9996723847,
				"element": "H" 
			},
			{
				"x": -2.3600694832,
				"y": 0.003771448,
				"z": 2.905862861,
				"element": "H" 
			},
			{
				"x": -0.9398411984,
				"y": 0.8617378982,
				"z": 1.0798311706,
				"element": "H" 
			},
			{
				"x": 1.4018391929,
				"y": 1.9277547455,
				"z": -2.2972795012,
				"element": "H" 
			},
			{
				"x": 1.6322251203,
				"y": 4.3613409566,
				"z": -2.100847366,
				"element": "H" 
			},
			{
				"x": 1.9108454072,
				"y": 5.426433401,
				"z": 0.1312783829,
				"element": "H" 
			},
			{
				"x": 1.9585270035,
				"y": 3.9983091437,
				"z": 2.1709102557,
				"element": "H" 
			},
			{
				"x": 1.7246604066,
				"y": 1.556359007,
				"z": 1.9839417914,
				"element": "H" 
			}
		],
		 "valence_orbital": [ 
			{
				"type": "occ",
				"energy": -0.26436,
				"method": "rhf"
			},
			{
				"type": "occ",
				"energy": -0.25344,
				"method": "rhf"
			},
			{
				"type": "occ",
				"energy": -0.25161,
				"method": "rhf"
			},
			{
				"type": "occ",
				"energy": -0.24623,
				"method": "rhf"
			},
			{
				"type": "occ",
				"energy": -0.20593,
				"method": "rhf"
			},
			{
				"type": "unocc",
				"energy": -0.01746,
				"method": "rhf"
			},
			{
				"type": "unocc",
				"energy": -0.00702,
				"method": "rhf"
			},
			{
				"type": "unocc",
				"energy": -0.0069,
				"method": "rhf"
			},
			{
				"type": "unocc",
				"energy": 0.00398,
				"method": "rhf"
			},
			{
				"type": "unocc",
				"energy": 0.06237,
				"method": "rhf"
			}
		],
		"cosmo_sigma_profile": { 
			"-0.025": 0.0,
			"-0.024": 0.0,
			"-0.023": 0.0,
			"-0.022": 0.0,
			"-0.021": 0.0,
			"-0.02": 0.0,
			"-0.019": 0.0,
			"-0.018": 0.0,
			"-0.017": 0.0,
			"-0.016": 0.0,
			"-0.015": 0.0,
			"-0.014": 0.0,
			"-0.013": 0.0,
			"-0.012": 0.0,
			"-0.011": 0.0,
			"-0.01": 0.0,
			"-0.009": 0.0,
			"-0.008": 0.0,
			"-0.007": 0.0265060385027,
			"-0.006": 7.81059298252,
			"-0.005": 18.8333144197,
			"-0.004": 22.8584513169,
			"-0.003": 24.5522305244,
			"-0.002": 36.5456245434,
			"-0.001": 43.1512604139,
			"0.0": 40.7604451697,
			"0.001": 36.9156095676,
			"0.002": 21.5594847289,
			"0.003": 16.8930330477,
			"0.004": 15.4728436141,
			"0.005": 17.5156774997,
			"0.006": 12.152543047,
			"0.007": 1.21348209132,
			"0.008": 0.756527237144,
			"0.009": 0.866352543452,
			"0.01": 0.967154695819,
			"0.011": 0.740848041118,
			"0.012": 0.445202186855,
			"0.013": 0.795193162554,
			"0.014": 0.704021413905,
			"0.015": 0.212421645767,
			"0.016": 0.0,
			"0.017": 0.0,
			"0.018": 0.0,
			"0.019": 0.0,
			"0.02": 0.0,
			"0.021": 0.0,
			"0.022": 0.0,
			"0.023": 0.0,
			"0.024": 0.0,
			"0.025": 0.0
		}
	}
}
