{
	 "smiles": "COC(=O)C1=C(C)C=CC(=C1)S(Cl)(=O)=O", 
	 "Tm": 318.15, 
	 "num_atms": 24, 
	 "gaussian": { 
		 "optdone": 1, 
		 "sigma_profile": "yes", 
		 "theory": "DFT", 
		 "functional": "B3LYP", 
		 "basiset": "6-31G**", 
		 "properties": { 
			 "R2extent": 5808.9059, 
			 "electric_dipole_moment_norm": 4.40009765119, 
			 "electric_quadrupole_moment_norm": 29.3125021605, 
			 "total_energy": -1507.60391976, 
			 "HOMO_LUMO_gap": 0.19288, 
			 "cosmo_polarized_energy": -11.0, 
			 "cosmo_cavitation_energy": 32.01, 
			 "cosmo_dispersion_energy": -23.54, 
			 "cosmo_repulsion_energy": 1.81, 
			 "cosmo_total_nonelectrostatic_energy": 10.28, 
			 "SMD_solvation_energy": 5.72 
		},
		"coords": [
			{
				"x": 0.0014524801,
				"y": -3.7946379965,
				"z": 1.5282134289,
				"element": "C" 
			},
			{
				"x": 0.4794839206,
				"y": -2.4915164721,
				"z": 1.1540875317,
				"element": "O" 
			},
			{
				"x": -0.4760499944,
				"y": -1.5953470749,
				"z": 0.8269692762,
				"element": "C" 
			},
			{
				"x": -1.6620862259,
				"y": -1.8619417865,
				"z": 0.8450265907,
				"element": "O" 
			},
			{
				"x": 0.1064769446,
				"y": -0.2685561423,
				"z": 0.4510973102,
				"element": "C" 
			},
			{
				"x": -0.724664762,
				"y": 0.8149813694,
				"z": 0.0683262426,
				"element": "C" 
			},
			{
				"x": -2.2290562827,
				"y": 0.7327491525,
				"z": 0.0127950278,
				"element": "C" 
			},
			{
				"x": -0.1083709282,
				"y": 2.0285624371,
				"z": -0.2793375375,
				"element": "C" 
			},
			{
				"x": 1.271270531,
				"y": 2.1960846288,
				"z": -0.2547611554,
				"element": "C" 
			},
			{
				"x": 2.058157783,
				"y": 1.1104970707,
				"z": 0.1290637291,
				"element": "C" 
			},
			{
				"x": 1.4991067756,
				"y": -0.1120651821,
				"z": 0.4797206638,
				"element": "C" 
			},
			{
				"x": 3.8338408946,
				"y": 1.2873340969,
				"z": 0.150775686,
				"element": "S" 
			},
			{
				"x": 4.1648749538,
				"y": 1.9767067849,
				"z": 2.1459677375,
				"element": "Cl" 
			},
			{
				"x": 4.2170551754,
				"y": 2.3882767011,
				"z": -0.7244379557,
				"element": "O" 
			},
			{
				"x": 4.4556870712,
				"y": -0.0281117263,
				"z": 0.0695444208,
				"element": "O" 
			},
			{
				"x": 0.8930980366,
				"y": -4.3772519595,
				"z": 1.7570493542,
				"element": "H" 
			},
			{
				"x": -0.6505100801,
				"y": -3.7267969957,
				"z": 2.4023140753,
				"element": "H" 
			},
			{
				"x": -0.5557026256,
				"y": -4.2487212715,
				"z": 0.7053345644,
				"element": "H" 
			},
			{
				"x": -2.6473249672,
				"y": 1.6902082855,
				"z": -0.3074350832,
				"element": "H" 
			},
			{
				"x": -2.6492250983,
				"y": 0.4671559791,
				"z": 0.9861679707,
				"element": "H" 
			},
			{
				"x": -2.5598521166,
				"y": -0.0494857291,
				"z": -0.6751796627,
				"element": "H" 
			},
			{
				"x": -0.7344774055,
				"y": 2.8628543046,
				"z": -0.5805099382,
				"element": "H" 
			},
			{
				"x": 1.7303535123,
				"y": 3.1377295969,
				"z": -0.5344333398,
				"element": "H" 
			},
			{
				"x": 2.131762408,
				"y": -0.942508071,
				"z": 0.7647410628,
				"element": "H" 
			}
		],
		 "valence_orbital": [ 
			{
				"type": "occ",
				"energy": -0.3187,
				"method": "rhf"
			},
			{
				"type": "occ",
				"energy": -0.31331,
				"method": "rhf"
			},
			{
				"type": "occ",
				"energy": -0.29148,
				"method": "rhf"
			},
			{
				"type": "occ",
				"energy": -0.28943,
				"method": "rhf"
			},
			{
				"type": "occ",
				"energy": -0.28409,
				"method": "rhf"
			},
			{
				"type": "unocc",
				"energy": -0.09121,
				"method": "rhf"
			},
			{
				"type": "unocc",
				"energy": -0.07135,
				"method": "rhf"
			},
			{
				"type": "unocc",
				"energy": -0.0427,
				"method": "rhf"
			},
			{
				"type": "unocc",
				"energy": 0.02248,
				"method": "rhf"
			},
			{
				"type": "unocc",
				"energy": 0.05894,
				"method": "rhf"
			}
		],
		"cosmo_sigma_profile": { 
			"-0.025": 0.0,
			"-0.024": 0.0,
			"-0.023": 0.0,
			"-0.022": 0.0,
			"-0.021": 0.0,
			"-0.02": 0.0,
			"-0.019": 0.0,
			"-0.018": 0.0,
			"-0.017": 0.0,
			"-0.016": 0.0,
			"-0.015": 0.0,
			"-0.014": 0.0,
			"-0.013": 0.0,
			"-0.012": 0.0,
			"-0.011": 0.0,
			"-0.01": 0.045828423252,
			"-0.009": 0.819365267505,
			"-0.008": 3.27285332614,
			"-0.007": 6.77366566775,
			"-0.006": 12.077492222,
			"-0.005": 14.9087265842,
			"-0.004": 20.1801445871,
			"-0.003": 24.2896068534,
			"-0.002": 23.574132143,
			"-0.001": 29.1634159037,
			"0.0": 24.7147783755,
			"0.001": 15.2708442158,
			"0.002": 12.7377325502,
			"0.003": 17.510195744,
			"0.004": 13.4394320653,
			"0.005": 4.4619649723,
			"0.006": 4.46885230981,
			"0.007": 8.02274855858,
			"0.008": 11.1649911004,
			"0.009": 5.75791226674,
			"0.01": 1.79726301667,
			"0.011": 2.54647426558,
			"0.012": 1.47749085501,
			"0.013": 0.0,
			"0.014": 0.0,
			"0.015": 0.0,
			"0.016": 0.0,
			"0.017": 0.0,
			"0.018": 0.0,
			"0.019": 0.0,
			"0.02": 0.0,
			"0.021": 0.0,
			"0.022": 0.0,
			"0.023": 0.0,
			"0.024": 0.0,
			"0.025": 0.0
		}
	}
}
