{
	 "smiles": "CC(C)OC(=O)C1=C(C)NC(=S)NC1C1=CC=CO1", 
	 "Tm": 464.15, 
	 "num_atms": 35, 
	 "gaussian": { 
		 "optdone": 1, 
		 "sigma_profile": "yes", 
		 "theory": "DFT", 
		 "functional": "B3LYP", 
		 "basiset": "6-31G**", 
		 "properties": { 
			 "R2extent": 7426.7148, 
			 "electric_dipole_moment_norm": 4.91431751314, 
			 "electric_quadrupole_moment_norm": 27.395876021, 
			 "total_energy": -1238.39513921, 
			 "HOMO_LUMO_gap": 0.15491, 
			 "cosmo_polarized_energy": -18.87, 
			 "cosmo_cavitation_energy": 40.04, 
			 "cosmo_dispersion_energy": -27.54, 
			 "cosmo_repulsion_energy": 2.13, 
			 "cosmo_total_nonelectrostatic_energy": 14.64, 
			 "SMD_solvation_energy": 6.76 
		},
		"coords": [
			{
				"x": 3.5554435984,
				"y": 0.8625362074,
				"z": -0.5287856645,
				"element": "C" 
			},
			{
				"x": 3.1343516287,
				"y": -0.3203730523,
				"z": -1.3978797421,
				"element": "C" 
			},
			{
				"x": 3.6295619094,
				"y": -0.2450095818,
				"z": -2.8405018048,
				"element": "C" 
			},
			{
				"x": 1.6913303144,
				"y": -0.5551397507,
				"z": -1.3322439828,
				"element": "O" 
			},
			{
				"x": 0.8307042518,
				"y": 0.3780413407,
				"z": -1.8013049534,
				"element": "C" 
			},
			{
				"x": 1.1794962125,
				"y": 1.4382338613,
				"z": -2.302364745,
				"element": "O" 
			},
			{
				"x": -0.5859541874,
				"y": 0.0023777333,
				"z": -1.6760055166,
				"element": "C" 
			},
			{
				"x": -1.0835037081,
				"y": -1.1648002447,
				"z": -1.1812764207,
				"element": "C" 
			},
			{
				"x": -0.3088947652,
				"y": -2.3038281692,
				"z": -0.5689365868,
				"element": "C" 
			},
			{
				"x": -2.4505664785,
				"y": -1.387779028,
				"z": -1.2486256748,
				"element": "N" 
			},
			{
				"x": -3.3452635118,
				"y": -0.6448501533,
				"z": -1.9920309128,
				"element": "C" 
			},
			{
				"x": -4.9333967515,
				"y": -1.1416578995,
				"z": -2.1806867908,
				"element": "S" 
			},
			{
				"x": -2.8130893123,
				"y": 0.451138676,
				"z": -2.5723638888,
				"element": "N" 
			},
			{
				"x": -1.5494312754,
				"y": 1.0809518517,
				"z": -2.151946923,
				"element": "C" 
			},
			{
				"x": -1.7799759474,
				"y": 2.1578054962,
				"z": -1.1301333151,
				"element": "C" 
			},
			{
				"x": -1.5085497125,
				"y": 3.4946035304,
				"z": -1.1104246313,
				"element": "C" 
			},
			{
				"x": -1.9750320819,
				"y": 3.9859702768,
				"z": 0.1531400033,
				"element": "C" 
			},
			{
				"x": -2.4969139449,
				"y": 2.9113294228,
				"z": 0.805547323,
				"element": "C" 
			},
			{
				"x": -2.3846784313,
				"y": 1.7879427253,
				"z": 0.0409734037,
				"element": "O" 
			},
			{
				"x": 3.2127470278,
				"y": 1.80651866,
				"z": -0.953913026,
				"element": "H" 
			},
			{
				"x": 4.6477237214,
				"y": 0.8836617517,
				"z": -0.452275704,
				"element": "H" 
			},
			{
				"x": 3.1478222563,
				"y": 0.7596918278,
				"z": 0.4814808848,
				"element": "H" 
			},
			{
				"x": 3.5168121699,
				"y": -1.2409891433,
				"z": -0.9447222583,
				"element": "H" 
			},
			{
				"x": 4.7244964662,
				"y": -0.2654989178,
				"z": -2.8481959385,
				"element": "H" 
			},
			{
				"x": 3.2716677901,
				"y": -1.1057391547,
				"z": -3.4136369822,
				"element": "H" 
			},
			{
				"x": 3.2901197592,
				"y": 0.6702444293,
				"z": -3.3267033609,
				"element": "H" 
			},
			{
				"x": -0.9894207739,
				"y": -3.0318051089,
				"z": -0.1179443957,
				"element": "H" 
			},
			{
				"x": 0.3813507102,
				"y": -1.9430416318,
				"z": 0.1931589325,
				"element": "H" 
			},
			{
				"x": 0.2907317217,
				"y": -2.8157635686,
				"z": -1.3265354279,
				"element": "H" 
			},
			{
				"x": -2.838364487,
				"y": -2.2344902065,
				"z": -0.8587551363,
				"element": "H" 
			},
			{
				"x": -3.4797469652,
				"y": 1.0254918564,
				"z": -3.070140618,
				"element": "H" 
			},
			{
				"x": -1.1074004632,
				"y": 1.5704988438,
				"z": -3.0231283752,
				"element": "H" 
			},
			{
				"x": -1.019625905,
				"y": 4.0541579957,
				"z": -1.8947103431,
				"element": "H" 
			},
			{
				"x": -1.927543984,
				"y": 5.0009455756,
				"z": 0.5205155192,
				"element": "H" 
			},
			{
				"x": -2.9687068516,
				"y": 2.7798235488,
				"z": 1.7669570532,
				"element": "H" 
			}
		],
		 "valence_orbital": [ 
			{
				"type": "occ",
				"energy": -0.26949,
				"method": "rhf"
			},
			{
				"type": "occ",
				"energy": -0.24151,
				"method": "rhf"
			},
			{
				"type": "occ",
				"energy": -0.23158,
				"method": "rhf"
			},
			{
				"type": "occ",
				"energy": -0.21283,
				"method": "rhf"
			},
			{
				"type": "occ",
				"energy": -0.21022,
				"method": "rhf"
			},
			{
				"type": "unocc",
				"energy": -0.05531,
				"method": "rhf"
			},
			{
				"type": "unocc",
				"energy": 0.00574,
				"method": "rhf"
			},
			{
				"type": "unocc",
				"energy": 0.01907,
				"method": "rhf"
			},
			{
				"type": "unocc",
				"energy": 0.05824,
				"method": "rhf"
			},
			{
				"type": "unocc",
				"energy": 0.06782,
				"method": "rhf"
			}
		],
		"cosmo_sigma_profile": { 
			"-0.025": 0.0,
			"-0.024": 0.0,
			"-0.023": 0.0,
			"-0.022": 0.0,
			"-0.021": 0.0,
			"-0.02": 0.0,
			"-0.019": 0.0,
			"-0.018": 0.0,
			"-0.017": 0.0,
			"-0.016": 0.166919825059,
			"-0.015": 1.6888849771,
			"-0.014": 2.38980270415,
			"-0.013": 2.10061862907,
			"-0.012": 2.55309669875,
			"-0.011": 2.12790319691,
			"-0.01": 1.22801062638,
			"-0.009": 3.65711228213,
			"-0.008": 4.4467984512,
			"-0.007": 7.1343269159,
			"-0.006": 10.9280975745,
			"-0.005": 14.1271140042,
			"-0.004": 23.2958681639,
			"-0.003": 24.0503653937,
			"-0.002": 28.8353521813,
			"-0.001": 28.5570526147,
			"0.0": 28.7177074431,
			"0.001": 22.5613935959,
			"0.002": 15.956773889,
			"0.003": 17.7561973976,
			"0.004": 14.8030121644,
			"0.005": 13.6565535209,
			"0.006": 8.95443532695,
			"0.007": 6.716066679,
			"0.008": 6.46507871903,
			"0.009": 6.82888267175,
			"0.01": 9.54345025884,
			"0.011": 7.12877763984,
			"0.012": 2.92392561957,
			"0.013": 0.434938008315,
			"0.014": 0.0,
			"0.015": 0.0,
			"0.016": 0.0,
			"0.017": 0.0,
			"0.018": 0.0,
			"0.019": 0.0,
			"0.02": 0.0,
			"0.021": 0.0,
			"0.022": 0.0,
			"0.023": 0.0,
			"0.024": 0.0,
			"0.025": 0.0
		}
	}
}
