{
	 "smiles": "CC1=NC(=NO1)C1=CC(=CC=C1)[N+]([O-])=O", 
	 "Tm": 382.15, 
	 "num_atms": 22, 
	 "gaussian": { 
		 "optdone": 1, 
		 "sigma_profile": "yes", 
		 "theory": "DFT", 
		 "functional": "B3LYP", 
		 "basiset": "6-31G**", 
		 "properties": { 
			 "R2extent": 4450.0486, 
			 "electric_dipole_moment_norm": 6.24371982315, 
			 "electric_quadrupole_moment_norm": 8.64370670777, 
			 "total_energy": -736.973492592, 
			 "HOMO_LUMO_gap": 0.17455, 
			 "cosmo_polarized_energy": -11.6, 
			 "cosmo_cavitation_energy": 28.28, 
			 "cosmo_dispersion_energy": -20.9, 
			 "cosmo_repulsion_energy": 1.62, 
			 "cosmo_total_nonelectrostatic_energy": 9.01, 
			 "SMD_solvation_energy": 5.85 
		},
		"coords": [
			{
				"x": 0.2225151765,
				"y": 5.8806047181,
				"z": -0.9877463762,
				"element": "C" 
			},
			{
				"x": 0.2263256938,
				"y": 4.4005015709,
				"z": -0.8441443495,
				"element": "C" 
			},
			{
				"x": -0.7259830977,
				"y": 3.6199804161,
				"z": -0.425489599,
				"element": "N" 
			},
			{
				"x": -0.1456962314,
				"y": 2.3689772346,
				"z": -0.5115796011,
				"element": "C" 
			},
			{
				"x": 1.090544988,
				"y": 2.3736661861,
				"z": -0.9562227711,
				"element": "N" 
			},
			{
				"x": 1.3458620975,
				"y": 3.7322013004,
				"z": -1.1810862213,
				"element": "O" 
			},
			{
				"x": -0.8518495637,
				"y": 1.135370596,
				"z": -0.1370682083,
				"element": "C" 
			},
			{
				"x": -0.2167456291,
				"y": -0.1086533138,
				"z": -0.2434172594,
				"element": "C" 
			},
			{
				"x": -0.9229298078,
				"y": -1.2479481564,
				"z": 0.1218316535,
				"element": "C" 
			},
			{
				"x": -2.2364774598,
				"y": -1.1995575503,
				"z": 0.5890178745,
				"element": "C" 
			},
			{
				"x": -2.8569291152,
				"y": 0.0433981709,
				"z": 0.690215643,
				"element": "C" 
			},
			{
				"x": -2.172628454,
				"y": 1.2050034019,
				"z": 0.3306089791,
				"element": "C" 
			},
			{
				"x": -0.2573441988,
				"y": -2.5596230441,
				"z": 0.0110630827,
				"element": "N" 
			},
			{
				"x": 0.8999119081,
				"y": -2.5791825538,
				"z": -0.403044579,
				"element": "O" 
			},
			{
				"x": -0.903534843,
				"y": -3.5536144318,
				"z": 0.3402455536,
				"element": "O" 
			},
			{
				"x": -0.7474621625,
				"y": 6.2684031085,
				"z": -0.6771013697,
				"element": "H" 
			},
			{
				"x": 0.4121573781,
				"y": 6.1663241514,
				"z": -2.0268372359,
				"element": "H" 
			},
			{
				"x": 1.0073944238,
				"y": 6.3285410348,
				"z": -0.3707983752,
				"element": "H" 
			},
			{
				"x": 0.8016026685,
				"y": -0.1925213404,
				"z": -0.6010546958,
				"element": "H" 
			},
			{
				"x": -2.7392238902,
				"y": -2.1193397397,
				"z": 0.8597087872,
				"element": "H" 
			},
			{
				"x": -3.8784142063,
				"y": 0.1074057445,
				"z": 1.0509387872,
				"element": "H" 
			},
			{
				"x": -2.6490956747,
				"y": 2.1761624961,
				"z": 0.4066602804,
				"element": "H" 
			}
		],
		 "valence_orbital": [ 
			{
				"type": "occ",
				"energy": -0.30912,
				"method": "rhf"
			},
			{
				"type": "occ",
				"energy": -0.30862,
				"method": "rhf"
			},
			{
				"type": "occ",
				"energy": -0.29248,
				"method": "rhf"
			},
			{
				"type": "occ",
				"energy": -0.28632,
				"method": "rhf"
			},
			{
				"type": "occ",
				"energy": -0.26555,
				"method": "rhf"
			},
			{
				"type": "unocc",
				"energy": -0.091,
				"method": "rhf"
			},
			{
				"type": "unocc",
				"energy": -0.06346,
				"method": "rhf"
			},
			{
				"type": "unocc",
				"energy": -0.01657,
				"method": "rhf"
			},
			{
				"type": "unocc",
				"energy": -0.00778,
				"method": "rhf"
			},
			{
				"type": "unocc",
				"energy": 0.06015,
				"method": "rhf"
			}
		],
		"cosmo_sigma_profile": { 
			"-0.025": 0.0,
			"-0.024": 0.0,
			"-0.023": 0.0,
			"-0.022": 0.0,
			"-0.021": 0.0,
			"-0.02": 0.0,
			"-0.019": 0.0,
			"-0.018": 0.0,
			"-0.017": 0.0,
			"-0.016": 0.0,
			"-0.015": 0.0,
			"-0.014": 0.0,
			"-0.013": 0.0,
			"-0.012": 0.0,
			"-0.011": 0.0,
			"-0.01": 0.0,
			"-0.009": 0.0,
			"-0.008": 4.03156946658,
			"-0.007": 12.6466081664,
			"-0.006": 14.5729779956,
			"-0.005": 14.3820346281,
			"-0.004": 16.4015342235,
			"-0.003": 17.5276379544,
			"-0.002": 20.6638617518,
			"-0.001": 20.4854885385,
			"0.0": 21.7113991206,
			"0.001": 13.8357497926,
			"0.002": 7.72253069453,
			"0.003": 5.42756002092,
			"0.004": 7.27933832965,
			"0.005": 6.66696571908,
			"0.006": 9.66799629673,
			"0.007": 13.1577731164,
			"0.008": 8.35923337687,
			"0.009": 6.81620957321,
			"0.01": 4.1561104877,
			"0.011": 1.62100443111,
			"0.012": 0.965249047652,
			"0.013": 0.0,
			"0.014": 0.0,
			"0.015": 0.0,
			"0.016": 0.0,
			"0.017": 0.0,
			"0.018": 0.0,
			"0.019": 0.0,
			"0.02": 0.0,
			"0.021": 0.0,
			"0.022": 0.0,
			"0.023": 0.0,
			"0.024": 0.0,
			"0.025": 0.0
		}
	}
}
