{
	 "smiles": "COC1=C(N)C=C(C)C(=C1)C1=CC=CC=C1", 
	 "Tm": 339.15, 
	 "num_atms": 31, 
	 "gaussian": { 
		 "optdone": 1, 
		 "sigma_profile": "yes", 
		 "theory": "DFT", 
		 "functional": "B3LYP", 
		 "basiset": "6-31G**", 
		 "properties": { 
			 "R2extent": 4359.4519, 
			 "electric_dipole_moment_norm": 1.30126262914, 
			 "electric_quadrupole_moment_norm": 8.02483000568, 
			 "total_energy": -672.505362453, 
			 "HOMO_LUMO_gap": 0.18183, 
			 "cosmo_polarized_energy": -9.62, 
			 "cosmo_cavitation_energy": 33.93, 
			 "cosmo_dispersion_energy": -24.18, 
			 "cosmo_repulsion_energy": 1.89, 
			 "cosmo_total_nonelectrostatic_energy": 11.64, 
			 "SMD_solvation_energy": 6.18 
		},
		"coords": [
			{
				"x": 2.9964588237,
				"y": 2.8664921436,
				"z": -0.8223690125,
				"element": "C" 
			},
			{
				"x": 2.6061111596,
				"y": 1.7922145287,
				"z": -1.6818831794,
				"element": "O" 
			},
			{
				"x": 1.293535744,
				"y": 1.3795003544,
				"z": -1.5021164838,
				"element": "C" 
			},
			{
				"x": 0.2988096191,
				"y": 1.9334204347,
				"z": -2.329398722,
				"element": "C" 
			},
			{
				"x": 0.6439452634,
				"y": 2.929403654,
				"z": -3.2423000216,
				"element": "N" 
			},
			{
				"x": -1.0131307631,
				"y": 1.4712459823,
				"z": -2.1687332627,
				"element": "C" 
			},
			{
				"x": -1.3614088222,
				"y": 0.5065770061,
				"z": -1.2159831816,
				"element": "C" 
			},
			{
				"x": -2.8062254749,
				"y": 0.0588210216,
				"z": -1.1451062771,
				"element": "C" 
			},
			{
				"x": -0.3526997782,
				"y": -0.0374734315,
				"z": -0.3873717454,
				"element": "C" 
			},
			{
				"x": 0.9677049363,
				"y": 0.4135949756,
				"z": -0.5619071539,
				"element": "C" 
			},
			{
				"x": -0.6133828788,
				"y": -1.08082702,
				"z": 0.6438813524,
				"element": "C" 
			},
			{
				"x": -1.5997984178,
				"y": -0.9179834294,
				"z": 1.631647447,
				"element": "C" 
			},
			{
				"x": -1.8068196413,
				"y": -1.8913315986,
				"z": 2.6091683485,
				"element": "C" 
			},
			{
				"x": -1.0285812575,
				"y": -3.0502872375,
				"z": 2.6249807028,
				"element": "C" 
			},
			{
				"x": -0.0403491861,
				"y": -3.2255366693,
				"z": 1.6545388241,
				"element": "C" 
			},
			{
				"x": 0.1634471689,
				"y": -2.2524039892,
				"z": 0.6764094681,
				"element": "C" 
			},
			{
				"x": 4.0342952857,
				"y": 3.1035986111,
				"z": -1.0683965479,
				"element": "H" 
			},
			{
				"x": 2.9334682446,
				"y": 2.5719627888,
				"z": 0.2326693052,
				"element": "H" 
			},
			{
				"x": 2.3708010348,
				"y": 3.7535170286,
				"z": -0.9824701089,
				"element": "H" 
			},
			{
				"x": 1.6181608936,
				"y": 2.8881838195,
				"z": -3.5146669458,
				"element": "H" 
			},
			{
				"x": 0.0221939284,
				"y": 3.0139333041,
				"z": -4.0348678491,
				"element": "H" 
			},
			{
				"x": -1.7894276891,
				"y": 1.8740246228,
				"z": -2.8165246051,
				"element": "H" 
			},
			{
				"x": -3.3745630216,
				"y": 0.6238684305,
				"z": -0.3961677728,
				"element": "H" 
			},
			{
				"x": -3.3030255245,
				"y": 0.2135321489,
				"z": -2.1075668001,
				"element": "H" 
			},
			{
				"x": -2.8927758863,
				"y": -0.9981604847,
				"z": -0.8816719166,
				"element": "H" 
			},
			{
				"x": 1.7640783807,
				"y": 0.0074408559,
				"z": 0.0547302827,
				"element": "H" 
			},
			{
				"x": -2.1934704697,
				"y": -0.0091744344,
				"z": 1.6464455162,
				"element": "H" 
			},
			{
				"x": -2.5717716826,
				"y": -1.7388462628,
				"z": 3.3657669741,
				"element": "H" 
			},
			{
				"x": -1.1898265958,
				"y": -3.8081353525,
				"z": 3.3863299776,
				"element": "H" 
			},
			{
				"x": 0.5695704974,
				"y": -4.1248670308,
				"z": 1.6541912653,
				"element": "H" 
			},
			{
				"x": 0.9234761092,
				"y": -2.4024047708,
				"z": -0.0852578775,
				"element": "H" 
			}
		],
		 "valence_orbital": [ 
			{
				"type": "occ",
				"energy": -0.26953,
				"method": "rhf"
			},
			{
				"type": "occ",
				"energy": -0.24335,
				"method": "rhf"
			},
			{
				"type": "occ",
				"energy": -0.24325,
				"method": "rhf"
			},
			{
				"type": "occ",
				"energy": -0.22978,
				"method": "rhf"
			},
			{
				"type": "occ",
				"energy": -0.19077,
				"method": "rhf"
			},
			{
				"type": "unocc",
				"energy": -0.00894,
				"method": "rhf"
			},
			{
				"type": "unocc",
				"energy": 0.00365,
				"method": "rhf"
			},
			{
				"type": "unocc",
				"energy": 0.01067,
				"method": "rhf"
			},
			{
				"type": "unocc",
				"energy": 0.03765,
				"method": "rhf"
			},
			{
				"type": "unocc",
				"energy": 0.08413,
				"method": "rhf"
			}
		],
		"cosmo_sigma_profile": { 
			"-0.025": 0.0,
			"-0.024": 0.0,
			"-0.023": 0.0,
			"-0.022": 0.0,
			"-0.021": 0.0,
			"-0.02": 0.0,
			"-0.019": 0.0,
			"-0.018": 0.0,
			"-0.017": 0.0,
			"-0.016": 0.0,
			"-0.015": 0.0,
			"-0.014": 0.0,
			"-0.013": 0.129136208891,
			"-0.012": 1.14822358625,
			"-0.011": 1.70338453867,
			"-0.01": 2.16196524203,
			"-0.009": 3.13977265027,
			"-0.008": 2.08773916693,
			"-0.007": 2.03619268036,
			"-0.006": 5.13179671356,
			"-0.005": 16.4953474596,
			"-0.004": 24.6769053616,
			"-0.003": 29.4910982513,
			"-0.002": 25.5390186625,
			"-0.001": 20.9774819992,
			"0.0": 20.6886127772,
			"0.001": 17.7417429635,
			"0.002": 14.2741904423,
			"0.003": 15.8637233564,
			"0.004": 16.4603661355,
			"0.005": 17.7067585457,
			"0.006": 16.9731924294,
			"0.007": 4.46892722289,
			"0.008": 1.53870146973,
			"0.009": 1.6330141874,
			"0.01": 1.95644677766,
			"0.011": 1.41515886294,
			"0.012": 2.03100369352,
			"0.013": 0.648316605155,
			"0.014": 0.489922115384,
			"0.015": 0.0741577072121,
			"0.016": 0.0,
			"0.017": 0.0,
			"0.018": 0.0,
			"0.019": 0.0,
			"0.02": 0.0,
			"0.021": 0.0,
			"0.022": 0.0,
			"0.023": 0.0,
			"0.024": 0.0,
			"0.025": 0.0
		}
	}
}
