{
	 "smiles": "CCC1(O)CCC(N)CC1", 
	 "Tm": 353.15, 
	 "num_atms": 27, 
	 "gaussian": { 
		 "optdone": 1, 
		 "sigma_profile": "yes", 
		 "theory": "DFT", 
		 "functional": "B3LYP", 
		 "basiset": "6-31G**", 
		 "properties": { 
			 "R2extent": 1672.1499, 
			 "electric_dipole_moment_norm": 1.29017864654, 
			 "electric_quadrupole_moment_norm": 11.0227294583, 
			 "total_energy": -445.082334027, 
			 "HOMO_LUMO_gap": 0.28905, 
			 "cosmo_polarized_energy": -10.05, 
			 "cosmo_cavitation_energy": 25.87, 
			 "cosmo_dispersion_energy": -19.14, 
			 "cosmo_repulsion_energy": 1.54, 
			 "cosmo_total_nonelectrostatic_energy": 8.28, 
			 "SMD_solvation_energy": 2.65 
		},
		"coords": [
			{
				"x": 2.0503502022,
				"y": -1.0205472364,
				"z": -2.548342989,
				"element": "C" 
			},
			{
				"x": 1.8491348701,
				"y": 0.0894622603,
				"z": -1.510882172,
				"element": "C" 
			},
			{
				"x": 1.2493687175,
				"y": -0.3719229801,
				"z": -0.1662534974,
				"element": "C" 
			},
			{
				"x": 2.2000078735,
				"y": -1.3211100742,
				"z": 0.3397751224,
				"element": "O" 
			},
			{
				"x": -0.1353752794,
				"y": -1.0404109808,
				"z": -0.3077491176,
				"element": "C" 
			},
			{
				"x": -1.2569400302,
				"y": -0.0544317423,
				"z": -0.6795802209,
				"element": "C" 
			},
			{
				"x": -1.3606970451,
				"y": 1.1261856844,
				"z": 0.3044746313,
				"element": "C" 
			},
			{
				"x": -1.9706368454,
				"y": 0.6714551957,
				"z": 1.5650167361,
				"element": "N" 
			},
			{
				"x": 0.0189997487,
				"y": 1.8098275814,
				"z": 0.4567666826,
				"element": "C" 
			},
			{
				"x": 1.1320623571,
				"y": 0.8124288891,
				"z": 0.820179127,
				"element": "C" 
			},
			{
				"x": 2.6245679828,
				"y": -1.8459461541,
				"z": -2.1206001967,
				"element": "H" 
			},
			{
				"x": 2.595524945,
				"y": -0.636713353,
				"z": -3.4168150687,
				"element": "H" 
			},
			{
				"x": 1.0991013369,
				"y": -1.4213120273,
				"z": -2.9140148819,
				"element": "H" 
			},
			{
				"x": 2.8203042666,
				"y": 0.5441466004,
				"z": -1.280363902,
				"element": "H" 
			},
			{
				"x": 1.227505255,
				"y": 0.8849211486,
				"z": -1.9359215408,
				"element": "H" 
			},
			{
				"x": 1.8458280698,
				"y": -1.6817929354,
				"z": 1.1635731244,
				"element": "H" 
			},
			{
				"x": -0.0834475077,
				"y": -1.8563516837,
				"z": -1.0352313029,
				"element": "H" 
			},
			{
				"x": -0.3761864344,
				"y": -1.5175175565,
				"z": 0.6547712117,
				"element": "H" 
			},
			{
				"x": -1.0739645955,
				"y": 0.3402695438,
				"z": -1.686715002,
				"element": "H" 
			},
			{
				"x": -2.2194373023,
				"y": -0.5752264303,
				"z": -0.7101538026,
				"element": "H" 
			},
			{
				"x": -2.0596238122,
				"y": 1.8590916745,
				"z": -0.1186876601,
				"element": "H" 
			},
			{
				"x": -1.3597094771,
				"y": 0.0098012351,
				"z": 2.0382184075,
				"element": "H" 
			},
			{
				"x": -2.0694339401,
				"y": 1.4609873986,
				"z": 2.1999895303,
				"element": "H" 
			},
			{
				"x": -0.0419325723,
				"y": 2.5953688672,
				"z": 1.2213172827,
				"element": "H" 
			},
			{
				"x": 0.2720206436,
				"y": 2.3195344048,
				"z": -0.4819426657,
				"element": "H" 
			},
			{
				"x": 0.9291286435,
				"y": 0.3959957396,
				"z": 1.8188151652,
				"element": "H" 
			},
			{
				"x": 2.1010799294,
				"y": 1.3187069306,
				"z": 0.894856999,
				"element": "H" 
			}
		],
		 "valence_orbital": [ 
			{
				"type": "occ",
				"energy": -0.31465,
				"method": "rhf"
			},
			{
				"type": "occ",
				"energy": -0.31204,
				"method": "rhf"
			},
			{
				"type": "occ",
				"energy": -0.29801,
				"method": "rhf"
			},
			{
				"type": "occ",
				"energy": -0.25495,
				"method": "rhf"
			},
			{
				"type": "occ",
				"energy": -0.2317,
				"method": "rhf"
			},
			{
				"type": "unocc",
				"energy": 0.05735,
				"method": "rhf"
			},
			{
				"type": "unocc",
				"energy": 0.08085,
				"method": "rhf"
			},
			{
				"type": "unocc",
				"energy": 0.0966,
				"method": "rhf"
			},
			{
				"type": "unocc",
				"energy": 0.1186,
				"method": "rhf"
			},
			{
				"type": "unocc",
				"energy": 0.12898,
				"method": "rhf"
			}
		],
		"cosmo_sigma_profile": { 
			"-0.025": 0.0,
			"-0.024": 0.0,
			"-0.023": 0.0,
			"-0.022": 0.0,
			"-0.021": 0.0,
			"-0.02": 0.0,
			"-0.019": 0.0,
			"-0.018": 0.0,
			"-0.017": 0.0,
			"-0.016": 0.0,
			"-0.015": 0.0115424674897,
			"-0.014": 0.597162844307,
			"-0.013": 0.97126325574,
			"-0.012": 0.780936603029,
			"-0.011": 1.04381305218,
			"-0.01": 1.2076669363,
			"-0.009": 2.92166935696,
			"-0.008": 5.33635898794,
			"-0.007": 3.7884056169,
			"-0.006": 4.68940980715,
			"-0.005": 3.87347749787,
			"-0.004": 5.48681435225,
			"-0.003": 14.8639261873,
			"-0.002": 25.7552002084,
			"-0.001": 28.4572440953,
			"0.0": 27.7099221454,
			"0.001": 25.7363479667,
			"0.002": 11.3402358652,
			"0.003": 3.60842634314,
			"0.004": 3.66282328405,
			"0.005": 2.23217390325,
			"0.006": 2.11968588666,
			"0.007": 2.60184026483,
			"0.008": 2.27497430111,
			"0.009": 2.00153881079,
			"0.01": 2.09134561089,
			"0.011": 2.5257987518,
			"0.012": 2.07784373203,
			"0.013": 1.51536644433,
			"0.014": 2.08451586148,
			"0.015": 1.50139726051,
			"0.016": 0.280289850155,
			"0.017": 0.378591788727,
			"0.018": 0.96222153888,
			"0.019": 0.535892159279,
			"0.02": 0.330594788234,
			"0.021": 0.0318121414536,
			"0.022": 0.0,
			"0.023": 0.0,
			"0.024": 0.0,
			"0.025": 0.0
		}
	}
}
