{
	 "smiles": "CC1(NC(=O)NC1=O)C1=CC=CC=C1", 
	 "Tm": 473.15, 
	 "num_atms": 24, 
	 "gaussian": { 
		 "optdone": 1, 
		 "sigma_profile": "yes", 
		 "theory": "DFT", 
		 "functional": "B3LYP", 
		 "basiset": "6-31G**", 
		 "properties": { 
			 "R2extent": 3815.9046, 
			 "electric_dipole_moment_norm": 2.52770917235, 
			 "electric_quadrupole_moment_norm": 10.4220093312, 
			 "total_energy": -647.085261477, 
			 "HOMO_LUMO_gap": 0.22772, 
			 "cosmo_polarized_energy": -16.02, 
			 "cosmo_cavitation_energy": 27.85, 
			 "cosmo_dispersion_energy": -19.99, 
			 "cosmo_repulsion_energy": 1.58, 
			 "cosmo_total_nonelectrostatic_energy": 9.44, 
			 "SMD_solvation_energy": 6.5 
		},
		"coords": [
			{
				"x": 0.4172046983,
				"y": -1.0545229783,
				"z": 3.5825033062,
				"element": "C" 
			},
			{
				"x": -0.0826705617,
				"y": -1.2103554202,
				"z": 2.1309759692,
				"element": "C" 
			},
			{
				"x": -1.356303782,
				"y": -0.5216327343,
				"z": 1.9294418022,
				"element": "N" 
			},
			{
				"x": -2.4188087419,
				"y": -1.3639919734,
				"z": 1.7103133671,
				"element": "C" 
			},
			{
				"x": -3.5951468956,
				"y": -1.0877913908,
				"z": 1.6085733753,
				"element": "O" 
			},
			{
				"x": -1.858732792,
				"y": -2.6558946336,
				"z": 1.6261606186,
				"element": "N" 
			},
			{
				"x": -0.5093230275,
				"y": -2.6868462718,
				"z": 1.8961912157,
				"element": "C" 
			},
			{
				"x": 0.2020846992,
				"y": -3.6666052739,
				"z": 1.9631229971,
				"element": "O" 
			},
			{
				"x": 0.9936106567,
				"y": -0.7937918591,
				"z": 1.1196696786,
				"element": "C" 
			},
			{
				"x": 0.778844573,
				"y": 0.2540752134,
				"z": 0.2180882288,
				"element": "C" 
			},
			{
				"x": 1.7825242115,
				"y": 0.6412125352,
				"z": -0.6727789668,
				"element": "C" 
			},
			{
				"x": 3.0094961694,
				"y": -0.0209287836,
				"z": -0.680034677,
				"element": "C" 
			},
			{
				"x": 3.2249853738,
				"y": -1.0785308818,
				"z": 0.2062707078,
				"element": "C" 
			},
			{
				"x": 2.2273459852,
				"y": -1.4621319233,
				"z": 1.1012610835,
				"element": "C" 
			},
			{
				"x": 0.6931296357,
				"y": -0.0128350477,
				"z": 3.7726973588,
				"element": "H" 
			},
			{
				"x": 1.2955909646,
				"y": -1.6800157385,
				"z": 3.75157276,
				"element": "H" 
			},
			{
				"x": -0.3625560884,
				"y": -1.3501859393,
				"z": 4.2909621831,
				"element": "H" 
			},
			{
				"x": -1.5351778949,
				"y": 0.4199855783,
				"z": 2.2437378631,
				"element": "H" 
			},
			{
				"x": -2.4217915356,
				"y": -3.476545564,
				"z": 1.4539818948,
				"element": "H" 
			},
			{
				"x": -0.179205035,
				"y": 0.7621945445,
				"z": 0.2018014224,
				"element": "H" 
			},
			{
				"x": 1.5989412803,
				"y": 1.4589146551,
				"z": -1.3639468812,
				"element": "H" 
			},
			{
				"x": 3.789365452,
				"y": 0.2788529411,
				"z": -1.3740209145,
				"element": "H" 
			},
			{
				"x": 4.1718181195,
				"y": -1.6108551895,
				"z": 0.1998333493,
				"element": "H" 
			},
			{
				"x": 2.3927745352,
				"y": -2.3038738648,
				"z": 1.7646222578,
				"element": "H" 
			}
		],
		 "valence_orbital": [ 
			{
				"type": "occ",
				"energy": -0.29073,
				"method": "rhf"
			},
			{
				"type": "occ",
				"energy": -0.27435,
				"method": "rhf"
			},
			{
				"type": "occ",
				"energy": -0.267,
				"method": "rhf"
			},
			{
				"type": "occ",
				"energy": -0.25489,
				"method": "rhf"
			},
			{
				"type": "occ",
				"energy": -0.24947,
				"method": "rhf"
			},
			{
				"type": "unocc",
				"energy": -0.02175,
				"method": "rhf"
			},
			{
				"type": "unocc",
				"energy": -0.00686,
				"method": "rhf"
			},
			{
				"type": "unocc",
				"energy": 0.00118,
				"method": "rhf"
			},
			{
				"type": "unocc",
				"energy": 0.05718,
				"method": "rhf"
			},
			{
				"type": "unocc",
				"energy": 0.07143,
				"method": "rhf"
			}
		],
		"cosmo_sigma_profile": { 
			"-0.025": 0.0,
			"-0.024": 0.0,
			"-0.023": 0.0,
			"-0.022": 0.0,
			"-0.021": 0.0,
			"-0.02": 0.0,
			"-0.019": 0.0,
			"-0.018": 0.0,
			"-0.017": 0.497557205296,
			"-0.016": 1.45450057832,
			"-0.015": 2.14416300299,
			"-0.014": 1.96790182231,
			"-0.013": 1.61447819364,
			"-0.012": 2.05738985893,
			"-0.011": 1.73793388137,
			"-0.01": 2.16244775107,
			"-0.009": 2.54359765435,
			"-0.008": 2.14365499963,
			"-0.007": 2.65775329653,
			"-0.006": 8.49745136395,
			"-0.005": 17.12256092,
			"-0.004": 18.3679601809,
			"-0.003": 19.25004064,
			"-0.002": 16.8002668675,
			"-0.001": 16.3399649205,
			"0.0": 10.7836573213,
			"0.001": 11.4753468764,
			"0.002": 9.75286833564,
			"0.003": 10.5505344845,
			"0.004": 10.263751303,
			"0.005": 12.0179215804,
			"0.006": 6.89791858993,
			"0.007": 2.66121142134,
			"0.008": 3.02349952127,
			"0.009": 2.77589469425,
			"0.01": 3.16696107701,
			"0.011": 6.02409310153,
			"0.012": 8.08443151917,
			"0.013": 6.00084541731,
			"0.014": 0.547842829691,
			"0.015": 0.0,
			"0.016": 0.0,
			"0.017": 0.0,
			"0.018": 0.0,
			"0.019": 0.0,
			"0.02": 0.0,
			"0.021": 0.0,
			"0.022": 0.0,
			"0.023": 0.0,
			"0.024": 0.0,
			"0.025": 0.0
		}
	}
}
