{
	 "smiles": "OC(=O)C1=C2N=CC=CC2=C(C=C1)[N+]([O-])=O", 
	 "Tm": 478.15, 
	 "num_atms": 22, 
	 "gaussian": { 
		 "optdone": 1, 
		 "sigma_profile": "yes", 
		 "theory": "DFT", 
		 "functional": "B3LYP", 
		 "basiset": "6-31G**", 
		 "properties": { 
			 "R2extent": 3909.6499, 
			 "electric_dipole_moment_norm": 4.63112792093, 
			 "electric_quadrupole_moment_norm": 27.4975744638, 
			 "total_energy": -794.995610433, 
			 "HOMO_LUMO_gap": 0.15038, 
			 "cosmo_polarized_energy": -15.31, 
			 "cosmo_cavitation_energy": 27.25, 
			 "cosmo_dispersion_energy": -20.58, 
			 "cosmo_repulsion_energy": 1.55, 
			 "cosmo_total_nonelectrostatic_energy": 8.22, 
			 "SMD_solvation_energy": 7.51 
		},
		"coords": [
			{
				"x": -0.6072977678,
				"y": -1.2517598146,
				"z": -2.4905786327,
				"element": "O" 
			},
			{
				"x": -0.5077433191,
				"y": 0.0510366128,
				"z": -2.2395563704,
				"element": "C" 
			},
			{
				"x": -0.3699963691,
				"y": 0.8762432855,
				"z": -3.1183682861,
				"element": "O" 
			},
			{
				"x": -0.5738139537,
				"y": 0.4898263212,
				"z": -0.7813301378,
				"element": "C" 
			},
			{
				"x": -0.7266221142,
				"y": -0.4013388384,
				"z": 0.3298567047,
				"element": "C" 
			},
			{
				"x": -0.8390405544,
				"y": -1.7365823488,
				"z": 0.0659699366,
				"element": "N" 
			},
			{
				"x": -0.9963001283,
				"y": -2.5903378162,
				"z": 1.0570758561,
				"element": "C" 
			},
			{
				"x": -1.0627348509,
				"y": -2.1879680137,
				"z": 2.4067934731,
				"element": "C" 
			},
			{
				"x": -0.9447941515,
				"y": -0.8529936211,
				"z": 2.7163182814,
				"element": "C" 
			},
			{
				"x": -0.7631768387,
				"y": 0.1000199196,
				"z": 1.6758953798,
				"element": "C" 
			},
			{
				"x": -0.6520298145,
				"y": 1.514797708,
				"z": 1.8410447874,
				"element": "C" 
			},
			{
				"x": -0.5288957827,
				"y": 2.3632216555,
				"z": 0.762307663,
				"element": "C" 
			},
			{
				"x": -0.4806662796,
				"y": 1.8463112592,
				"z": -0.5434799005,
				"element": "C" 
			},
			{
				"x": -0.6536828984,
				"y": 2.1560111843,
				"z": 3.1714060254,
				"element": "N" 
			},
			{
				"x": -0.3098335269,
				"y": 1.4854566001,
				"z": 4.1464801088,
				"element": "O" 
			},
			{
				"x": -0.978051416,
				"y": 3.3396741305,
				"z": 3.2240076843,
				"element": "O" 
			},
			{
				"x": -0.7154783558,
				"y": -1.735106853,
				"z": -1.6248464074,
				"element": "H" 
			},
			{
				"x": -1.0791629522,
				"y": -3.6404090151,
				"z": 0.7859322368,
				"element": "H" 
			},
			{
				"x": -1.2038516336,
				"y": -2.9288683039,
				"z": 3.1861519504,
				"element": "H" 
			},
			{
				"x": -0.9832243993,
				"y": -0.5179632597,
				"z": 3.742574345,
				"element": "H" 
			},
			{
				"x": -0.4634509337,
				"y": 3.4291356899,
				"z": 0.9407674231,
				"element": "H" 
			},
			{
				"x": -0.3668519597,
				"y": 2.5050935179,
				"z": -1.3969221211,
				"element": "H" 
			}
		],
		 "valence_orbital": [ 
			{
				"type": "occ",
				"energy": -0.30766,
				"method": "rhf"
			},
			{
				"type": "occ",
				"energy": -0.30183,
				"method": "rhf"
			},
			{
				"type": "occ",
				"energy": -0.29641,
				"method": "rhf"
			},
			{
				"type": "occ",
				"energy": -0.27745,
				"method": "rhf"
			},
			{
				"type": "occ",
				"energy": -0.27455,
				"method": "rhf"
			},
			{
				"type": "unocc",
				"energy": -0.12417,
				"method": "rhf"
			},
			{
				"type": "unocc",
				"energy": -0.07821,
				"method": "rhf"
			},
			{
				"type": "unocc",
				"energy": -0.05928,
				"method": "rhf"
			},
			{
				"type": "unocc",
				"energy": -0.03306,
				"method": "rhf"
			},
			{
				"type": "unocc",
				"energy": 0.03458,
				"method": "rhf"
			}
		],
		"cosmo_sigma_profile": { 
			"-0.025": 0.0,
			"-0.024": 0.0,
			"-0.023": 0.0,
			"-0.022": 0.0,
			"-0.021": 0.0,
			"-0.02": 0.0,
			"-0.019": 0.0,
			"-0.018": 0.0,
			"-0.017": 0.0,
			"-0.016": 0.0,
			"-0.015": 0.0,
			"-0.014": 0.0,
			"-0.013": 0.0,
			"-0.012": 0.0,
			"-0.011": 0.0,
			"-0.01": 0.0655015951087,
			"-0.009": 3.43883310013,
			"-0.008": 10.008899592,
			"-0.007": 11.4657919702,
			"-0.006": 10.3621176754,
			"-0.005": 13.0677763151,
			"-0.004": 13.3157302314,
			"-0.003": 21.7737331883,
			"-0.002": 23.9532396708,
			"-0.001": 21.5562068515,
			"0.0": 14.1493825776,
			"0.001": 8.39590394562,
			"0.002": 6.01438415884,
			"0.003": 5.22998448602,
			"0.004": 3.8708434158,
			"0.005": 6.40420593938,
			"0.006": 7.41370724647,
			"0.007": 9.20418122068,
			"0.008": 7.67753221324,
			"0.009": 6.47922213556,
			"0.01": 4.01916583441,
			"0.011": 6.4731458385,
			"0.012": 4.45665401854,
			"0.013": 1.95345527944,
			"0.014": 0.314744731082,
			"0.015": 0.0,
			"0.016": 0.0,
			"0.017": 0.0,
			"0.018": 0.0,
			"0.019": 0.0,
			"0.02": 0.0,
			"0.021": 0.0,
			"0.022": 0.0,
			"0.023": 0.0,
			"0.024": 0.0,
			"0.025": 0.0
		}
	}
}
