{
	 "smiles": "ClC(Cl)(Cl)CC(Cl)(Cl)Cl", 
	 "Tm": 246.15, 
	 "num_atms": 11, 
	 "gaussian": { 
		 "optdone": 1, 
		 "sigma_profile": "yes", 
		 "theory": "DFT", 
		 "functional": "B3LYP", 
		 "basiset": "6-31G**", 
		 "properties": { 
			 "R2extent": 5439.0794, 
			 "electric_dipole_moment_norm": 1.0186316557, 
			 "electric_quadrupole_moment_norm": 4.49002435962, 
			 "total_energy": -2876.63793815, 
			 "HOMO_LUMO_gap": 0.25258, 
			 "cosmo_polarized_energy": -4.62, 
			 "cosmo_cavitation_energy": 24.72, 
			 "cosmo_dispersion_energy": -18.49, 
			 "cosmo_repulsion_energy": 1.5, 
			 "cosmo_total_nonelectrostatic_energy": 7.72, 
			 "SMD_solvation_energy": 2.22 
		},
		"coords": [
			{
				"x": 1.4617359088,
				"y": -1.5319356695,
				"z": -3.4631953951,
				"element": "Cl" 
			},
			{
				"x": 0.6552894602,
				"y": -0.7031706073,
				"z": -2.0992458805,
				"element": "C" 
			},
			{
				"x": -0.984905617,
				"y": -0.1694917646,
				"z": -2.614108181,
				"element": "Cl" 
			},
			{
				"x": 1.6085051229,
				"y": 0.7903525109,
				"z": -1.686765823,
				"element": "Cl" 
			},
			{
				"x": 0.6082285537,
				"y": -1.5293190485,
				"z": -0.7902477365,
				"element": "C" 
			},
			{
				"x": 0.1516630854,
				"y": -3.0084381589,
				"z": -0.7440673863,
				"element": "C" 
			},
			{
				"x": -1.3773643612,
				"y": -3.3335586242,
				"z": -1.6124151241,
				"element": "Cl" 
			},
			{
				"x": 1.4282412617,
				"y": -4.1229207797,
				"z": -1.3510458753,
				"element": "Cl" 
			},
			{
				"x": -0.0973584231,
				"y": -3.3761391384,
				"z": 1.0200296499,
				"element": "Cl" 
			},
			{
				"x": -0.0406349028,
				"y": -0.9692628818,
				"z": -0.1141424839,
				"element": "H" 
			},
			{
				"x": 1.6139999113,
				"y": -1.520315838,
				"z": -0.3657957641,
				"element": "H" 
			}
		],
		 "valence_orbital": [ 
			{
				"type": "occ",
				"energy": -0.3317,
				"method": "rhf"
			},
			{
				"type": "occ",
				"energy": -0.32243,
				"method": "rhf"
			},
			{
				"type": "occ",
				"energy": -0.32239,
				"method": "rhf"
			},
			{
				"type": "occ",
				"energy": -0.31536,
				"method": "rhf"
			},
			{
				"type": "occ",
				"energy": -0.31474,
				"method": "rhf"
			},
			{
				"type": "unocc",
				"energy": -0.06216,
				"method": "rhf"
			},
			{
				"type": "unocc",
				"energy": -0.05047,
				"method": "rhf"
			},
			{
				"type": "unocc",
				"energy": -0.02287,
				"method": "rhf"
			},
			{
				"type": "unocc",
				"energy": -0.01516,
				"method": "rhf"
			},
			{
				"type": "unocc",
				"energy": -0.01057,
				"method": "rhf"
			}
		],
		"cosmo_sigma_profile": { 
			"-0.025": 0.0,
			"-0.024": 0.0,
			"-0.023": 0.0,
			"-0.022": 0.0,
			"-0.021": 0.0,
			"-0.02": 0.0,
			"-0.019": 0.0,
			"-0.018": 0.0,
			"-0.017": 0.0,
			"-0.016": 0.0,
			"-0.015": 0.0,
			"-0.014": 0.0,
			"-0.013": 0.0,
			"-0.012": 0.0,
			"-0.011": 0.0,
			"-0.01": 1.46421177821,
			"-0.009": 4.03311837805,
			"-0.008": 3.9689926855,
			"-0.007": 4.26649068009,
			"-0.006": 3.10771229144,
			"-0.005": 4.40622364833,
			"-0.004": 10.9381901592,
			"-0.003": 10.5349302255,
			"-0.002": 12.2115946194,
			"-0.001": 15.4915371455,
			"0.0": 18.5098717977,
			"0.001": 25.8035609068,
			"0.002": 43.4198648001,
			"0.003": 49.1681513477,
			"0.004": 2.32855454448,
			"0.005": 0.0,
			"0.006": 0.0,
			"0.007": 0.0,
			"0.008": 0.0,
			"0.009": 0.0,
			"0.01": 0.0,
			"0.011": 0.0,
			"0.012": 0.0,
			"0.013": 0.0,
			"0.014": 0.0,
			"0.015": 0.0,
			"0.016": 0.0,
			"0.017": 0.0,
			"0.018": 0.0,
			"0.019": 0.0,
			"0.02": 0.0,
			"0.021": 0.0,
			"0.022": 0.0,
			"0.023": 0.0,
			"0.024": 0.0,
			"0.025": 0.0
		}
	}
}
