{
	 "smiles": "NCC1CCN(CC1)C1=CC=NC=C1", 
	 "Tm": 346.15, 
	 "num_atms": 31, 
	 "gaussian": { 
		 "optdone": 1, 
		 "sigma_profile": "yes", 
		 "theory": "DFT", 
		 "functional": "B3LYP", 
		 "basiset": "6-31G**", 
		 "properties": { 
			 "R2extent": 4002.2859, 
			 "electric_dipole_moment_norm": 6.19831630526, 
			 "electric_quadrupole_moment_norm": 10.4890812949, 
			 "total_energy": -593.662574715, 
			 "HOMO_LUMO_gap": 0.20644, 
			 "cosmo_polarized_energy": -12.53, 
			 "cosmo_cavitation_energy": 31.43, 
			 "cosmo_dispersion_energy": -23.27, 
			 "cosmo_repulsion_energy": 1.83, 
			 "cosmo_total_nonelectrostatic_energy": 9.99, 
			 "SMD_solvation_energy": 1.63 
		},
		"coords": [
			{
				"x": 0.9808293921,
				"y": 0.6668720958,
				"z": -4.9100756599,
				"element": "N" 
			},
			{
				"x": 1.6644378302,
				"y": 0.954189908,
				"z": -3.6467103912,
				"element": "C" 
			},
			{
				"x": 0.6584840571,
				"y": 1.2008786341,
				"z": -2.5107894169,
				"element": "C" 
			},
			{
				"x": -0.2251836366,
				"y": -0.0370573369,
				"z": -2.228437485,
				"element": "C" 
			},
			{
				"x": 0.31327582,
				"y": -0.8988683477,
				"z": -1.0825897038,
				"element": "C" 
			},
			{
				"x": 0.3835540815,
				"y": -0.1248457559,
				"z": 0.1601307023,
				"element": "N" 
			},
			{
				"x": 0.6062593967,
				"y": 1.3172841848,
				"z": 0.0458412679,
				"element": "C" 
			},
			{
				"x": 1.3952390495,
				"y": 1.6408780175,
				"z": -1.2264769753,
				"element": "C" 
			},
			{
				"x": 0.2480549472,
				"y": -0.7292819345,
				"z": 1.3893126016,
				"element": "C" 
			},
			{
				"x": 0.3064142985,
				"y": -2.1341215256,
				"z": 1.5495621244,
				"element": "C" 
			},
			{
				"x": 0.1610316031,
				"y": -2.684901421,
				"z": 2.817145746,
				"element": "C" 
			},
			{
				"x": -0.032391651,
				"y": -1.9856800408,
				"z": 3.9446221618,
				"element": "N" 
			},
			{
				"x": -0.0852611079,
				"y": -0.6553301529,
				"z": 3.7883116311,
				"element": "C" 
			},
			{
				"x": 0.0415181827,
				"y": 0.0129944129,
				"z": 2.5763596799,
				"element": "C" 
			},
			{
				"x": 1.6538478505,
				"y": 0.3949212941,
				"z": -5.6214644109,
				"element": "H" 
			},
			{
				"x": 0.5209858271,
				"y": 1.506484807,
				"z": -5.2554419628,
				"element": "H" 
			},
			{
				"x": 2.3574517666,
				"y": 1.8136586969,
				"z": -3.695718587,
				"element": "H" 
			},
			{
				"x": 2.277989934,
				"y": 0.0791603957,
				"z": -3.3926768733,
				"element": "H" 
			},
			{
				"x": -0.0010169758,
				"y": 2.0209365868,
				"z": -2.8293406479,
				"element": "H" 
			},
			{
				"x": -1.2399526732,
				"y": 0.2808625676,
				"z": -1.962959777,
				"element": "H" 
			},
			{
				"x": -0.3095839864,
				"y": -0.6363429294,
				"z": -3.1399076189,
				"element": "H" 
			},
			{
				"x": 1.2962778868,
				"y": -1.322809346,
				"z": -1.3465670954,
				"element": "H" 
			},
			{
				"x": -0.3628555774,
				"y": -1.7448222003,
				"z": -0.9287476668,
				"element": "H" 
			},
			{
				"x": -0.344420276,
				"y": 1.876158527,
				"z": 0.0548948428,
				"element": "H" 
			},
			{
				"x": 1.1797333315,
				"y": 1.6523484369,
				"z": 0.9153691921,
				"element": "H" 
			},
			{
				"x": 2.3648096509,
				"y": 1.1292286004,
				"z": -1.1623138778,
				"element": "H" 
			},
			{
				"x": 1.6121393588,
				"y": 2.7144477922,
				"z": -1.2520111665,
				"element": "H" 
			},
			{
				"x": 0.4910245209,
				"y": -2.7908736582,
				"z": 0.7081533269,
				"element": "H" 
			},
			{
				"x": 0.2127506754,
				"y": -3.7674757486,
				"z": 2.9304512935,
				"element": "H" 
			},
			{
				"x": -0.2492849768,
				"y": -0.0746900935,
				"z": 4.6957760343,
				"element": "H" 
			},
			{
				"x": -0.0497586001,
				"y": 1.0922955338,
				"z": 2.5585987117,
				"element": "H" 
			}
		],
		 "valence_orbital": [ 
			{
				"type": "occ",
				"energy": -0.29468,
				"method": "rhf"
			},
			{
				"type": "occ",
				"energy": -0.24365,
				"method": "rhf"
			},
			{
				"type": "occ",
				"energy": -0.24306,
				"method": "rhf"
			},
			{
				"type": "occ",
				"energy": -0.23366,
				"method": "rhf"
			},
			{
				"type": "occ",
				"energy": -0.1983,
				"method": "rhf"
			},
			{
				"type": "unocc",
				"energy": 0.00814,
				"method": "rhf"
			},
			{
				"type": "unocc",
				"energy": 0.01303,
				"method": "rhf"
			},
			{
				"type": "unocc",
				"energy": 0.06629,
				"method": "rhf"
			},
			{
				"type": "unocc",
				"energy": 0.08207,
				"method": "rhf"
			},
			{
				"type": "unocc",
				"energy": 0.09486,
				"method": "rhf"
			}
		],
		"cosmo_sigma_profile": { 
			"-0.025": 0.0,
			"-0.024": 0.0,
			"-0.023": 0.0,
			"-0.022": 0.0,
			"-0.021": 0.0,
			"-0.02": 0.0,
			"-0.019": 0.0,
			"-0.018": 0.0,
			"-0.017": 0.0,
			"-0.016": 0.0,
			"-0.015": 0.0,
			"-0.014": 0.0,
			"-0.013": 0.0,
			"-0.012": 0.0,
			"-0.011": 0.0,
			"-0.01": 0.39081528927,
			"-0.009": 2.91704350419,
			"-0.008": 2.53055107911,
			"-0.007": 2.6458507506,
			"-0.006": 6.86430072002,
			"-0.005": 12.8433085737,
			"-0.004": 18.2263217313,
			"-0.003": 35.1871121044,
			"-0.002": 36.4483492169,
			"-0.001": 30.4483266138,
			"0.0": 15.5228756044,
			"0.001": 11.6390909603,
			"0.002": 8.45334101824,
			"0.003": 9.39469077901,
			"0.004": 11.3562087483,
			"0.005": 13.4335276036,
			"0.006": 4.4672324045,
			"0.007": 3.25730677844,
			"0.008": 1.54230849189,
			"0.009": 1.9758269957,
			"0.01": 2.677207566,
			"0.011": 2.28556541627,
			"0.012": 1.57167246393,
			"0.013": 1.73211032083,
			"0.014": 1.95636854233,
			"0.015": 0.942557832258,
			"0.016": 1.57061525413,
			"0.017": 1.6450243885,
			"0.018": 0.82765512971,
			"0.019": 0.210862186299,
			"0.02": 0.0,
			"0.021": 0.0,
			"0.022": 0.0,
			"0.023": 0.0,
			"0.024": 0.0,
			"0.025": 0.0
		}
	}
}
