{
	 "smiles": "CC1=CC=C(C=C1)C1=NOC(CBr)=C1", 
	 "Tm": 360.15, 
	 "num_atms": 24, 
	 "gaussian": { 
		 "optdone": 1, 
		 "sigma_profile": "yes", 
		 "theory": "DFT", 
		 "functional": "B3LYP", 
		 "basiset": "6-31G**", 
		 "properties": { 
			 "R2extent": 7389.9507, 
			 "electric_dipole_moment_norm": 3.57608318416, 
			 "electric_quadrupole_moment_norm": 12.562448938, 
			 "total_energy": -3126.5391249, 
			 "HOMO_LUMO_gap": 0.18001, 
			 "cosmo_polarized_energy": -10.99, 
			 "cosmo_cavitation_energy": 31.02, 
			 "cosmo_dispersion_energy": -23.04, 
			 "cosmo_repulsion_energy": 1.82, 
			 "cosmo_total_nonelectrostatic_energy": 9.79, 
			 "SMD_solvation_energy": 4.05 
		},
		"coords": [
			{
				"x": 2.587122282,
				"y": -4.0820029011,
				"z": -0.7169801474,
				"element": "C" 
			},
			{
				"x": 1.6952934743,
				"y": -2.8711825068,
				"z": -0.583545798,
				"element": "C" 
			},
			{
				"x": 2.2411556,
				"y": -1.5999033864,
				"z": -0.3427118043,
				"element": "C" 
			},
			{
				"x": 1.4306122302,
				"y": -0.4805941172,
				"z": -0.2005036741,
				"element": "C" 
			},
			{
				"x": 0.0327817626,
				"y": -0.5951182475,
				"z": -0.2966398827,
				"element": "C" 
			},
			{
				"x": -0.5177465023,
				"y": -1.8601613856,
				"z": -0.538593351,
				"element": "C" 
			},
			{
				"x": 0.3035303221,
				"y": -2.9780824626,
				"z": -0.6801481995,
				"element": "C" 
			},
			{
				"x": -0.8266280946,
				"y": 0.5913754255,
				"z": -0.1476265849,
				"element": "C" 
			},
			{
				"x": -0.2977901757,
				"y": 1.7801017201,
				"z": 0.0916668336,
				"element": "N" 
			},
			{
				"x": -1.3621497062,
				"y": 2.6694239104,
				"z": 0.1731149928,
				"element": "O" 
			},
			{
				"x": -2.5186282037,
				"y": 1.9974519898,
				"z": -0.0185973455,
				"element": "C" 
			},
			{
				"x": -3.7671980807,
				"y": 2.7829002724,
				"z": 0.0215069434,
				"element": "C" 
			},
			{
				"x": -4.4515374012,
				"y": 3.0305711214,
				"z": 1.8832973292,
				"element": "Br" 
			},
			{
				"x": -2.2517967783,
				"y": 0.6784825333,
				"z": -0.2284507913,
				"element": "C" 
			},
			{
				"x": 3.0181579499,
				"y": -4.3648126217,
				"z": 0.2512322057,
				"element": "H" 
			},
			{
				"x": 2.0357465584,
				"y": -4.9460273578,
				"z": -1.0979067131,
				"element": "H" 
			},
			{
				"x": 3.4243033976,
				"y": -3.888406951,
				"z": -1.3961431315,
				"element": "H" 
			},
			{
				"x": 3.3200937515,
				"y": -1.4882026613,
				"z": -0.2668812478,
				"element": "H" 
			},
			{
				"x": 1.8683165887,
				"y": 0.4945246305,
				"z": -0.0156604654,
				"element": "H" 
			},
			{
				"x": -1.5937776959,
				"y": -1.9813199812,
				"z": -0.6192034147,
				"element": "H" 
			},
			{
				"x": -0.1465622916,
				"y": -3.9493130369,
				"z": -0.8689680663,
				"element": "H" 
			},
			{
				"x": -3.6199334167,
				"y": 3.791710975,
				"z": -0.3589995066,
				"element": "H" 
			},
			{
				"x": -4.5703305011,
				"y": 2.2827824309,
				"z": -0.5142648422,
				"element": "H" 
			},
			{
				"x": -2.9651350693,
				"y": -0.1102973923,
				"z": -0.4081933385,
				"element": "H" 
			}
		],
		 "valence_orbital": [ 
			{
				"type": "occ",
				"energy": -0.28554,
				"method": "rhf"
			},
			{
				"type": "occ",
				"energy": -0.27988,
				"method": "rhf"
			},
			{
				"type": "occ",
				"energy": -0.26583,
				"method": "rhf"
			},
			{
				"type": "occ",
				"energy": -0.25569,
				"method": "rhf"
			},
			{
				"type": "occ",
				"energy": -0.23394,
				"method": "rhf"
			},
			{
				"type": "unocc",
				"energy": -0.05393,
				"method": "rhf"
			},
			{
				"type": "unocc",
				"energy": -0.03001,
				"method": "rhf"
			},
			{
				"type": "unocc",
				"energy": -0.00617,
				"method": "rhf"
			},
			{
				"type": "unocc",
				"energy": 0.03438,
				"method": "rhf"
			},
			{
				"type": "unocc",
				"energy": 0.0728,
				"method": "rhf"
			}
		],
		"cosmo_sigma_profile": { 
			"-0.025": 0.0,
			"-0.024": 0.0,
			"-0.023": 0.0,
			"-0.022": 0.0,
			"-0.021": 0.0,
			"-0.02": 0.0,
			"-0.019": 0.0,
			"-0.018": 0.0,
			"-0.017": 0.0,
			"-0.016": 0.0,
			"-0.015": 0.0,
			"-0.014": 0.0,
			"-0.013": 0.0,
			"-0.012": 0.0,
			"-0.011": 0.0,
			"-0.01": 1.43534286446,
			"-0.009": 7.44241824019,
			"-0.008": 6.87659614787,
			"-0.007": 6.41850665192,
			"-0.006": 8.59310952516,
			"-0.005": 12.7175684741,
			"-0.004": 18.2569533903,
			"-0.003": 16.3805220904,
			"-0.002": 18.2293266075,
			"-0.001": 16.1973590357,
			"0.0": 21.5458169252,
			"0.001": 19.6347330292,
			"0.002": 18.4686277966,
			"0.003": 16.4592253858,
			"0.004": 17.5219882345,
			"0.005": 22.3982315475,
			"0.006": 8.22742737174,
			"0.007": 4.53787355514,
			"0.008": 3.90893082926,
			"0.009": 1.61448756502,
			"0.01": 1.29218829854,
			"0.011": 1.50992741845,
			"0.012": 1.09294062306,
			"0.013": 0.693931484018,
			"0.014": 0.012903134269,
			"0.015": 0.0,
			"0.016": 0.0,
			"0.017": 0.0,
			"0.018": 0.0,
			"0.019": 0.0,
			"0.02": 0.0,
			"0.021": 0.0,
			"0.022": 0.0,
			"0.023": 0.0,
			"0.024": 0.0,
			"0.025": 0.0
		}
	}
}
