{
	 "smiles": "C1CNCCNCCNCCN1", 
	 "Tm": 383.15, 
	 "num_atms": 32, 
	 "gaussian": { 
		 "optdone": 1, 
		 "sigma_profile": "yes", 
		 "theory": "DFT", 
		 "functional": "B3LYP", 
		 "basiset": "6-31G**", 
		 "properties": { 
			 "R2extent": 2370.8395, 
			 "electric_dipole_moment_norm": 1.74274137496, 
			 "electric_quadrupole_moment_norm": 8.12544107541, 
			 "total_energy": -535.862421624, 
			 "HOMO_LUMO_gap": 0.25573, 
			 "cosmo_polarized_energy": -9.89, 
			 "cosmo_cavitation_energy": 28.91, 
			 "cosmo_dispersion_energy": -21.73, 
			 "cosmo_repulsion_energy": 1.71, 
			 "cosmo_total_nonelectrostatic_energy": 8.88, 
			 "SMD_solvation_energy": -2.22 
		},
		"coords": [
			{
				"x": -1.686539736,
				"y": -1.9433845716,
				"z": -0.9035401707,
				"element": "C" 
			},
			{
				"x": -1.8857645458,
				"y": -2.1324419694,
				"z": 0.6211593735,
				"element": "C" 
			},
			{
				"x": -0.6933419124,
				"y": -2.2126247917,
				"z": 1.4831389331,
				"element": "N" 
			},
			{
				"x": 0.3942649352,
				"y": -1.2428878192,
				"z": 1.3293239232,
				"element": "C" 
			},
			{
				"x": 0.1227604947,
				"y": 0.1379358148,
				"z": 1.9496155414,
				"element": "C" 
			},
			{
				"x": -0.8139087337,
				"y": 0.9598209645,
				"z": 1.1673966841,
				"element": "N" 
			},
			{
				"x": -0.3745650402,
				"y": 2.2766102135,
				"z": 0.6989744316,
				"element": "C" 
			},
			{
				"x": 0.7509225378,
				"y": 2.2354674316,
				"z": -0.3684438899,
				"element": "C" 
			},
			{
				"x": 0.6447329089,
				"y": 1.3007967519,
				"z": -1.477489356,
				"element": "N" 
			},
			{
				"x": -0.5488711996,
				"y": 1.3102409546,
				"z": -2.3346926832,
				"element": "C" 
			},
			{
				"x": -1.1284333229,
				"y": -0.1028914339,
				"z": -2.4900452171,
				"element": "C" 
			},
			{
				"x": -1.7536301798,
				"y": -0.5301321901,
				"z": -1.2462788871,
				"element": "N" 
			},
			{
				"x": -2.4705798327,
				"y": -2.4977369369,
				"z": -1.4420005367,
				"element": "H" 
			},
			{
				"x": -0.7281326736,
				"y": -2.41872819,
				"z": -1.2008525476,
				"element": "H" 
			},
			{
				"x": -2.5354791963,
				"y": -1.3215816352,
				"z": 0.9712017359,
				"element": "H" 
			},
			{
				"x": -2.4386415013,
				"y": -3.0605158859,
				"z": 0.8022161715,
				"element": "H" 
			},
			{
				"x": -0.2943471916,
				"y": -3.1398278569,
				"z": 1.3752097976,
				"element": "H" 
			},
			{
				"x": 0.7115743419,
				"y": -1.1007373287,
				"z": 0.2803419857,
				"element": "H" 
			},
			{
				"x": 1.2581927213,
				"y": -1.668360813,
				"z": 1.8551990685,
				"element": "H" 
			},
			{
				"x": 1.0831204824,
				"y": 0.6626953494,
				"z": 2.0404227898,
				"element": "H" 
			},
			{
				"x": -0.2534537708,
				"y": -0.0145773481,
				"z": 2.9693723104,
				"element": "H" 
			},
			{
				"x": -1.6954314281,
				"y": 1.0541495698,
				"z": 1.6576465741,
				"element": "H" 
			},
			{
				"x": -1.2610912918,
				"y": 2.7614500002,
				"z": 0.2739540842,
				"element": "H" 
			},
			{
				"x": -0.0206400911,
				"y": 2.9336445603,
				"z": 1.515641015,
				"element": "H" 
			},
			{
				"x": 1.7048402118,
				"y": 2.0193156871,
				"z": 0.1284278018,
				"element": "H" 
			},
			{
				"x": 0.8499979329,
				"y": 3.2579671028,
				"z": -0.7590419771,
				"element": "H" 
			},
			{
				"x": 0.824763088,
				"y": 0.3593821031,
				"z": -1.1505035509,
				"element": "H" 
			},
			{
				"x": -0.2953329748,
				"y": 1.7089920898,
				"z": -3.3273431592,
				"element": "H" 
			},
			{
				"x": -1.3349736545,
				"y": 1.9603405506,
				"z": -1.9242139531,
				"element": "H" 
			},
			{
				"x": -0.3024171976,
				"y": -0.7753306659,
				"z": -2.798553771,
				"element": "H" 
			},
			{
				"x": -1.8504411659,
				"y": -0.1122288605,
				"z": -3.3204529288,
				"element": "H" 
			},
			{
				"x": -1.3798530142,
				"y": 0.0144791531,
				"z": -0.4662895932,
				"element": "H" 
			}
		],
		 "valence_orbital": [ 
			{
				"type": "occ",
				"energy": -0.32018,
				"method": "rhf"
			},
			{
				"type": "occ",
				"energy": -0.23394,
				"method": "rhf"
			},
			{
				"type": "occ",
				"energy": -0.21455,
				"method": "rhf"
			},
			{
				"type": "occ",
				"energy": -0.20683,
				"method": "rhf"
			},
			{
				"type": "occ",
				"energy": -0.18938,
				"method": "rhf"
			},
			{
				"type": "unocc",
				"energy": 0.06635,
				"method": "rhf"
			},
			{
				"type": "unocc",
				"energy": 0.07567,
				"method": "rhf"
			},
			{
				"type": "unocc",
				"energy": 0.08965,
				"method": "rhf"
			},
			{
				"type": "unocc",
				"energy": 0.10422,
				"method": "rhf"
			},
			{
				"type": "unocc",
				"energy": 0.11501,
				"method": "rhf"
			}
		],
		"cosmo_sigma_profile": { 
			"-0.025": 0.0,
			"-0.024": 0.0,
			"-0.023": 0.0,
			"-0.022": 0.0,
			"-0.021": 0.0,
			"-0.02": 0.0,
			"-0.019": 0.0,
			"-0.018": 0.0,
			"-0.017": 0.0,
			"-0.016": 0.0,
			"-0.015": 0.0,
			"-0.014": 0.0,
			"-0.013": 0.0,
			"-0.012": 0.0,
			"-0.011": 0.0309786626851,
			"-0.01": 1.31616455207,
			"-0.009": 2.71844981803,
			"-0.008": 2.45785296243,
			"-0.007": 3.25083587056,
			"-0.006": 5.03391089424,
			"-0.005": 5.32407883853,
			"-0.004": 13.1408337088,
			"-0.003": 24.763963678,
			"-0.002": 32.4405416872,
			"-0.001": 37.4679332458,
			"0.0": 33.2219645221,
			"0.001": 17.0108149481,
			"0.002": 5.98722910356,
			"0.003": 4.54780329366,
			"0.004": 4.0589274811,
			"0.005": 3.00282585296,
			"0.006": 2.53733266152,
			"0.007": 2.80258116964,
			"0.008": 2.75155149978,
			"0.009": 2.13987616657,
			"0.01": 1.88867794066,
			"0.011": 1.88427538506,
			"0.012": 0.974297599894,
			"0.013": 2.16880957094,
			"0.014": 1.96704442251,
			"0.015": 1.56361472416,
			"0.016": 1.81948666337,
			"0.017": 0.937842832949,
			"0.018": 1.50404585299,
			"0.019": 0.637660097101,
			"0.02": 0.0,
			"0.021": 0.0,
			"0.022": 0.0,
			"0.023": 0.0,
			"0.024": 0.0,
			"0.025": 0.0
		}
	}
}
