{
	 "smiles": "OC(=O)C1=C2CCCN2C(=O)C=C1O", 
	 "Tm": 510.15, 
	 "num_atms": 23, 
	 "gaussian": { 
		 "optdone": 1, 
		 "sigma_profile": "yes", 
		 "theory": "DFT", 
		 "functional": "B3LYP", 
		 "basiset": "6-31G**", 
		 "properties": { 
			 "R2extent": 3009.061, 
			 "electric_dipole_moment_norm": 1.7961484933, 
			 "electric_quadrupole_moment_norm": 32.4190875041, 
			 "total_energy": -704.059784359, 
			 "HOMO_LUMO_gap": 0.1856, 
			 "cosmo_polarized_energy": -21.35, 
			 "cosmo_cavitation_energy": 26.12, 
			 "cosmo_dispersion_energy": -20.06, 
			 "cosmo_repulsion_energy": 1.56, 
			 "cosmo_total_nonelectrostatic_energy": 7.62, 
			 "SMD_solvation_energy": 5.81 
		},
		"coords": [
			{
				"x": 2.829542529,
				"y": -2.5779152629,
				"z": 2.073853394,
				"element": "O" 
			},
			{
				"x": 1.967950893,
				"y": -1.5507282114,
				"z": 2.2104823299,
				"element": "C" 
			},
			{
				"x": 1.9132672207,
				"y": -0.9526159564,
				"z": 3.2678847957,
				"element": "O" 
			},
			{
				"x": 1.1098468496,
				"y": -1.1909560627,
				"z": 1.0408937679,
				"element": "C" 
			},
			{
				"x": 0.277379674,
				"y": -0.0835316389,
				"z": 1.1343660593,
				"element": "C" 
			},
			{
				"x": 0.0824627612,
				"y": 0.8843054277,
				"z": 2.277311506,
				"element": "C" 
			},
			{
				"x": -0.6763093506,
				"y": 2.0644315101,
				"z": 1.6310661314,
				"element": "C" 
			},
			{
				"x": -1.3781799723,
				"y": 1.4501571323,
				"z": 0.4112911563,
				"element": "C" 
			},
			{
				"x": -0.5409731146,
				"y": 0.2748107759,
				"z": 0.113549364,
				"element": "N" 
			},
			{
				"x": -0.6688281699,
				"y": -0.4062360534,
				"z": -1.1247814294,
				"element": "C" 
			},
			{
				"x": -1.4691240907,
				"y": -0.0040437789,
				"z": -1.9634657462,
				"element": "O" 
			},
			{
				"x": 0.2143061832,
				"y": -1.5380803233,
				"z": -1.2320875855,
				"element": "C" 
			},
			{
				"x": 1.0476853858,
				"y": -1.9027043173,
				"z": -0.2095054088,
				"element": "C" 
			},
			{
				"x": 1.8753914955,
				"y": -2.9871589002,
				"z": -0.3347594698,
				"element": "O" 
			},
			{
				"x": 2.7548988839,
				"y": -2.9760054579,
				"z": 1.1891262184,
				"element": "H" 
			},
			{
				"x": -0.5010890859,
				"y": 0.3891276588,
				"z": 3.0626715438,
				"element": "H" 
			},
			{
				"x": 1.0297259302,
				"y": 1.154743796,
				"z": 2.7413699508,
				"element": "H" 
			},
			{
				"x": -1.380475776,
				"y": 2.5389136257,
				"z": 2.3174908333,
				"element": "H" 
			},
			{
				"x": 0.0354523289,
				"y": 2.828821975,
				"z": 1.303763441,
				"element": "H" 
			},
			{
				"x": -2.3991334874,
				"y": 1.1146800075,
				"z": 0.6265771812,
				"element": "H" 
			},
			{
				"x": -1.4206771185,
				"y": 2.0936508844,
				"z": -0.4682719324,
				"element": "H" 
			},
			{
				"x": 0.1804695452,
				"y": -2.0940606895,
				"z": -2.1634666564,
				"element": "H" 
			},
			{
				"x": 1.7713104856,
				"y": -3.3912061408,
				"z": -1.2063594446,
				"element": "H" 
			}
		],
		 "valence_orbital": [ 
			{
				"type": "occ",
				"energy": -0.30368,
				"method": "rhf"
			},
			{
				"type": "occ",
				"energy": -0.28024,
				"method": "rhf"
			},
			{
				"type": "occ",
				"energy": -0.26655,
				"method": "rhf"
			},
			{
				"type": "occ",
				"energy": -0.25982,
				"method": "rhf"
			},
			{
				"type": "occ",
				"energy": -0.22887,
				"method": "rhf"
			},
			{
				"type": "unocc",
				"energy": -0.04327,
				"method": "rhf"
			},
			{
				"type": "unocc",
				"energy": -0.02667,
				"method": "rhf"
			},
			{
				"type": "unocc",
				"energy": 0.03594,
				"method": "rhf"
			},
			{
				"type": "unocc",
				"energy": 0.05703,
				"method": "rhf"
			},
			{
				"type": "unocc",
				"energy": 0.08121,
				"method": "rhf"
			}
		],
		"cosmo_sigma_profile": { 
			"-0.025": 0.0,
			"-0.024": 0.0,
			"-0.023": 0.0,
			"-0.022": 0.0,
			"-0.021": 0.0,
			"-0.02": 0.556060997389,
			"-0.019": 1.1269958887,
			"-0.018": 1.5262764172,
			"-0.017": 0.972468323057,
			"-0.016": 1.25733444263,
			"-0.015": 0.889924906808,
			"-0.014": 0.264663634553,
			"-0.013": 1.00999649677,
			"-0.012": 1.48638780924,
			"-0.011": 0.853646513028,
			"-0.01": 1.26179008822,
			"-0.009": 1.76033693919,
			"-0.008": 2.25633322544,
			"-0.007": 2.03664620474,
			"-0.006": 9.51486760221,
			"-0.005": 19.7307070648,
			"-0.004": 22.8247754661,
			"-0.003": 17.9180084187,
			"-0.002": 18.677350911,
			"-0.001": 15.6145941591,
			"0.0": 10.8364893232,
			"0.001": 8.65337090947,
			"0.002": 7.85267509126,
			"0.003": 5.62219700516,
			"0.004": 3.17136833278,
			"0.005": 3.45496470369,
			"0.006": 4.28538887022,
			"0.007": 3.17972625755,
			"0.008": 3.88667269657,
			"0.009": 3.92980964842,
			"0.01": 4.44256580039,
			"0.011": 5.2601824926,
			"0.012": 6.71294477246,
			"0.013": 6.3459355015,
			"0.014": 6.78780805887,
			"0.015": 1.39286135019,
			"0.016": 0.0384221847396,
			"0.017": 0.0,
			"0.018": 0.0,
			"0.019": 0.0,
			"0.02": 0.0,
			"0.021": 0.0,
			"0.022": 0.0,
			"0.023": 0.0,
			"0.024": 0.0,
			"0.025": 0.0
		}
	}
}
