{
	 "smiles": "NC1=C(C=CC=C1F)C(O)=O", 
	 "Tm": 457.15, 
	 "num_atms": 17, 
	 "gaussian": { 
		 "optdone": 1, 
		 "sigma_profile": "yes", 
		 "theory": "DFT", 
		 "functional": "B3LYP", 
		 "basiset": "6-31G**", 
		 "properties": { 
			 "R2extent": 2020.1167, 
			 "electric_dipole_moment_norm": 5.08293686563, 
			 "electric_quadrupole_moment_norm": 22.0700842606, 
			 "total_energy": -575.409815097, 
			 "HOMO_LUMO_gap": 0.20151, 
			 "cosmo_polarized_energy": -14.74, 
			 "cosmo_cavitation_energy": 21.6, 
			 "cosmo_dispersion_energy": -16.27, 
			 "cosmo_repulsion_energy": 1.28, 
			 "cosmo_total_nonelectrostatic_energy": 6.61, 
			 "SMD_solvation_energy": 5.66 
		},
		"coords": [
			{
				"x": 1.2320488107,
				"y": -1.8143242219,
				"z": 1.0844735807,
				"element": "N" 
			},
			{
				"x": 0.9015329396,
				"y": -0.4840641156,
				"z": 0.6713691169,
				"element": "C" 
			},
			{
				"x": 0.031734728,
				"y": 0.3262965199,
				"z": 1.4258931138,
				"element": "C" 
			},
			{
				"x": -0.2719344771,
				"y": 1.6167339657,
				"z": 0.9708924944,
				"element": "C" 
			},
			{
				"x": 0.303039405,
				"y": 2.1228562495,
				"z": -0.1913629083,
				"element": "C" 
			},
			{
				"x": 1.1955725621,
				"y": 1.340677016,
				"z": -0.9285204277,
				"element": "C" 
			},
			{
				"x": 1.4676007474,
				"y": 0.0559758592,
				"z": -0.486354083,
				"element": "C" 
			},
			{
				"x": 2.321608835,
				"y": -0.7287596115,
				"z": -1.1899441012,
				"element": "F" 
			},
			{
				"x": -0.5731370842,
				"y": -0.0913827693,
				"z": 2.748203097,
				"element": "C" 
			},
			{
				"x": -0.0548726019,
				"y": -1.1805088897,
				"z": 3.3392274977,
				"element": "O" 
			},
			{
				"x": -1.4640726051,
				"y": 0.5443488922,
				"z": 3.2683444773,
				"element": "O" 
			},
			{
				"x": 2.0756616686,
				"y": -2.1314878678,
				"z": 0.6158200214,
				"element": "H" 
			},
			{
				"x": 0.4871587376,
				"y": -2.4708659768,
				"z": 0.8564593589,
				"element": "H" 
			},
			{
				"x": -0.9572566514,
				"y": 2.2083042474,
				"z": 1.5670516888,
				"element": "H" 
			},
			{
				"x": 0.0676663018,
				"y": 3.1286299453,
				"z": -0.5238619847,
				"element": "H" 
			},
			{
				"x": 1.6678794996,
				"y": 1.7016821627,
				"z": -1.8357666682,
				"element": "H" 
			},
			{
				"x": 0.6628691843,
				"y": -1.5545114053,
				"z": 2.773175726,
				"element": "H" 
			}
		],
		 "valence_orbital": [ 
			{
				"type": "occ",
				"energy": -0.31992,
				"method": "rhf"
			},
			{
				"type": "occ",
				"energy": -0.3015,
				"method": "rhf"
			},
			{
				"type": "occ",
				"energy": -0.27007,
				"method": "rhf"
			},
			{
				"type": "occ",
				"energy": -0.26297,
				"method": "rhf"
			},
			{
				"type": "occ",
				"energy": -0.25375,
				"method": "rhf"
			},
			{
				"type": "unocc",
				"energy": -0.05224,
				"method": "rhf"
			},
			{
				"type": "unocc",
				"energy": -0.01643,
				"method": "rhf"
			},
			{
				"type": "unocc",
				"energy": 0.05127,
				"method": "rhf"
			},
			{
				"type": "unocc",
				"energy": 0.05587,
				"method": "rhf"
			},
			{
				"type": "unocc",
				"energy": 0.08721,
				"method": "rhf"
			}
		],
		"cosmo_sigma_profile": { 
			"-0.025": 0.0,
			"-0.024": 0.0,
			"-0.023": 0.0,
			"-0.022": 0.0,
			"-0.021": 0.0,
			"-0.02": 0.0,
			"-0.019": 0.0,
			"-0.018": 0.0,
			"-0.017": 0.0,
			"-0.016": 0.0,
			"-0.015": 0.0187485361797,
			"-0.014": 1.35147525477,
			"-0.013": 2.27903579976,
			"-0.012": 3.05277318358,
			"-0.011": 3.0915200948,
			"-0.01": 2.73671270233,
			"-0.009": 2.45500067061,
			"-0.008": 3.13377084028,
			"-0.007": 5.97372049345,
			"-0.006": 8.4129669608,
			"-0.005": 10.9619277862,
			"-0.004": 8.20842500707,
			"-0.003": 8.2693807413,
			"-0.002": 7.29643221978,
			"-0.001": 11.7224301213,
			"0.0": 14.2506597105,
			"0.001": 11.9358227582,
			"0.002": 13.6549849164,
			"0.003": 14.8153565314,
			"0.004": 8.35861112682,
			"0.005": 2.39507032477,
			"0.006": 2.08041364201,
			"0.007": 2.23940635989,
			"0.008": 2.87639720078,
			"0.009": 2.86607652223,
			"0.01": 3.46343634524,
			"0.011": 5.05675924235,
			"0.012": 6.63221657757,
			"0.013": 2.83370178594,
			"0.014": 0.730714126628,
			"0.015": 0.0,
			"0.016": 0.0,
			"0.017": 0.0,
			"0.018": 0.0,
			"0.019": 0.0,
			"0.02": 0.0,
			"0.021": 0.0,
			"0.022": 0.0,
			"0.023": 0.0,
			"0.024": 0.0,
			"0.025": 0.0
		}
	}
}
