{
	 "smiles": "OC(=O)CC#N", 
	 "Tm": 339.65, 
	 "num_atms": 9, 
	 "gaussian": { 
		 "optdone": 1, 
		 "sigma_profile": "yes", 
		 "theory": "DFT", 
		 "functional": "B3LYP", 
		 "basiset": "6-31G**", 
		 "properties": { 
			 "R2extent": 672.3344, 
			 "electric_dipole_moment_norm": 4.81422965904, 
			 "electric_quadrupole_moment_norm": 3.3290127095, 
			 "total_energy": -321.31307884, 
			 "HOMO_LUMO_gap": 0.28646, 
			 "cosmo_polarized_energy": -15.52, 
			 "cosmo_cavitation_energy": 14.87, 
			 "cosmo_dispersion_energy": -10.39, 
			 "cosmo_repulsion_energy": 0.94, 
			 "cosmo_total_nonelectrostatic_energy": 5.41, 
			 "SMD_solvation_energy": 5.65 
		},
		"coords": [
			{
				"x": 0.3646160167,
				"y": 2.5795247475,
				"z": 0.1333769554,
				"element": "O" 
			},
			{
				"x": -0.051970633,
				"y": 1.3081587625,
				"z": 0.3211871773,
				"element": "C" 
			},
			{
				"x": -0.0741480903,
				"y": 0.7511294135,
				"z": 1.3885782798,
				"element": "O" 
			},
			{
				"x": -0.4790928268,
				"y": 0.7138092528,
				"z": -1.0184658326,
				"element": "C" 
			},
			{
				"x": -0.9474108456,
				"y": -0.6655055233,
				"z": -0.9146858346,
				"element": "C" 
			},
			{
				"x": -1.3253487912,
				"y": -1.7603787071,
				"z": -0.8703263108,
				"element": "N" 
			},
			{
				"x": 0.6259207035,
				"y": 2.9184120295,
				"z": 1.0061861696,
				"element": "H" 
			},
			{
				"x": 0.3675419167,
				"y": 0.7696002637,
				"z": -1.7126860157,
				"element": "H" 
			},
			{
				"x": -1.26690745,
				"y": 1.3445497609,
				"z": -1.4466645883,
				"element": "H" 
			}
		],
		 "valence_orbital": [ 
			{
				"type": "occ",
				"energy": -0.36553,
				"method": "rhf"
			},
			{
				"type": "occ",
				"energy": -0.34702,
				"method": "rhf"
			},
			{
				"type": "occ",
				"energy": -0.339,
				"method": "rhf"
			},
			{
				"type": "occ",
				"energy": -0.33479,
				"method": "rhf"
			},
			{
				"type": "occ",
				"energy": -0.30457,
				"method": "rhf"
			},
			{
				"type": "unocc",
				"energy": -0.01811,
				"method": "rhf"
			},
			{
				"type": "unocc",
				"energy": 0.02095,
				"method": "rhf"
			},
			{
				"type": "unocc",
				"energy": 0.02928,
				"method": "rhf"
			},
			{
				"type": "unocc",
				"energy": 0.05552,
				"method": "rhf"
			},
			{
				"type": "unocc",
				"energy": 0.09026,
				"method": "rhf"
			}
		],
		"cosmo_sigma_profile": { 
			"-0.025": 0.0,
			"-0.024": 0.0,
			"-0.023": 0.0,
			"-0.022": 0.0,
			"-0.021": 0.0,
			"-0.02": 0.0,
			"-0.019": 0.830898204496,
			"-0.018": 1.07343703216,
			"-0.017": 0.863661702125,
			"-0.016": 0.64721699928,
			"-0.015": 1.12994668209,
			"-0.014": 0.595810788485,
			"-0.013": 0.258893051875,
			"-0.012": 1.22943184808,
			"-0.011": 5.83038171316,
			"-0.01": 5.8509092112,
			"-0.009": 5.42606070766,
			"-0.008": 5.24313954029,
			"-0.007": 5.56008424632,
			"-0.006": 2.62228132914,
			"-0.005": 4.01444698071,
			"-0.004": 3.82735411947,
			"-0.003": 3.90569501647,
			"-0.002": 3.22322339118,
			"-0.001": 3.56224538105,
			"0.0": 3.45671612622,
			"0.001": 3.09152940909,
			"0.002": 2.57196783027,
			"0.003": 4.13937481176,
			"0.004": 4.70791330458,
			"0.005": 4.52031897508,
			"0.006": 4.75304618779,
			"0.007": 7.71935416723,
			"0.008": 6.62820487524,
			"0.009": 5.77030454954,
			"0.01": 7.30182972255,
			"0.011": 6.04935275324,
			"0.012": 2.28956541685,
			"0.013": 0.734561717297,
			"0.014": 0.0,
			"0.015": 0.0,
			"0.016": 0.0,
			"0.017": 0.0,
			"0.018": 0.0,
			"0.019": 0.0,
			"0.02": 0.0,
			"0.021": 0.0,
			"0.022": 0.0,
			"0.023": 0.0,
			"0.024": 0.0,
			"0.025": 0.0
		}
	}
}
