{
	 "smiles": "OC(=O)C1=CC(=C(Br)C=C1)S(Cl)(=O)=O", 
	 "Tm": 455.15, 
	 "num_atms": 18, 
	 "gaussian": { 
		 "optdone": 1, 
		 "sigma_profile": "yes", 
		 "theory": "DFT", 
		 "functional": "B3LYP", 
		 "basiset": "6-31G**", 
		 "properties": { 
			 "R2extent": 6388.2506, 
			 "electric_dipole_moment_norm": 3.62647320409, 
			 "electric_quadrupole_moment_norm": 17.9991993597, 
			 "total_energy": -3999.77052501, 
			 "HOMO_LUMO_gap": 0.18162, 
			 "cosmo_polarized_energy": -13.13, 
			 "cosmo_cavitation_energy": 28.95, 
			 "cosmo_dispersion_energy": -21.95, 
			 "cosmo_repulsion_energy": 1.68, 
			 "cosmo_total_nonelectrostatic_energy": 8.67, 
			 "SMD_solvation_energy": 4.05 
		},
		"coords": [
			{
				"x": 1.9365395111,
				"y": 1.3992445714,
				"z": 2.1623811473,
				"element": "O" 
			},
			{
				"x": 1.78461773,
				"y": 0.0691345822,
				"z": 1.9812093421,
				"element": "C" 
			},
			{
				"x": 1.9455955778,
				"y": -0.7436357052,
				"z": 2.8677702545,
				"element": "O" 
			},
			{
				"x": 1.4007732471,
				"y": -0.2824810685,
				"z": 0.5845117366,
				"element": "C" 
			},
			{
				"x": 1.2242609158,
				"y": 0.6883871736,
				"z": -0.4037831921,
				"element": "C" 
			},
			{
				"x": 0.8678328121,
				"y": 0.3046903846,
				"z": -1.6981033717,
				"element": "C" 
			},
			{
				"x": 0.6757910465,
				"y": -1.0495154088,
				"z": -2.0172753928,
				"element": "C" 
			},
			{
				"x": 0.161694,
				"y": -1.6604343499,
				"z": -3.7340717208,
				"element": "Br" 
			},
			{
				"x": 0.8540212361,
				"y": -2.0119648188,
				"z": -1.0186975512,
				"element": "C" 
			},
			{
				"x": 1.2148304977,
				"y": -1.6329095916,
				"z": 0.2688221402,
				"element": "C" 
			},
			{
				"x": 0.735050765,
				"y": 1.656046587,
				"z": -2.8864560722,
				"element": "S" 
			},
			{
				"x": -1.3584425175,
				"y": 1.7190991374,
				"z": -3.222894773,
				"element": "Cl" 
			},
			{
				"x": 1.3652481692,
				"y": 1.2935862712,
				"z": -4.1463428126,
				"element": "O" 
			},
			{
				"x": 1.0684087841,
				"y": 2.8941619882,
				"z": -2.1940755922,
				"element": "O" 
			},
			{
				"x": 2.1834457503,
				"y": 1.5248296332,
				"z": 3.0935589849,
				"element": "H" 
			},
			{
				"x": 1.363557405,
				"y": 1.7378614008,
				"z": -0.17731197,
				"element": "H" 
			},
			{
				"x": 0.7052567368,
				"y": -3.0568107241,
				"z": -1.2644515691,
				"element": "H" 
			},
			{
				"x": 1.355018333,
				"y": -2.3751900627,
				"z": 1.047210412,
				"element": "H" 
			}
		],
		 "valence_orbital": [ 
			{
				"type": "occ",
				"energy": -0.32007,
				"method": "rhf"
			},
			{
				"type": "occ",
				"energy": -0.30828,
				"method": "rhf"
			},
			{
				"type": "occ",
				"energy": -0.30557,
				"method": "rhf"
			},
			{
				"type": "occ",
				"energy": -0.30269,
				"method": "rhf"
			},
			{
				"type": "occ",
				"energy": -0.28091,
				"method": "rhf"
			},
			{
				"type": "unocc",
				"energy": -0.09929,
				"method": "rhf"
			},
			{
				"type": "unocc",
				"energy": -0.08246,
				"method": "rhf"
			},
			{
				"type": "unocc",
				"energy": -0.0591,
				"method": "rhf"
			},
			{
				"type": "unocc",
				"energy": -0.02295,
				"method": "rhf"
			},
			{
				"type": "unocc",
				"energy": 0.01081,
				"method": "rhf"
			}
		],
		"cosmo_sigma_profile": { 
			"-0.025": 0.0,
			"-0.024": 0.0,
			"-0.023": 0.0,
			"-0.022": 0.0,
			"-0.021": 0.0,
			"-0.02": 0.0,
			"-0.019": 0.661026854043,
			"-0.018": 1.04423949627,
			"-0.017": 0.60322737151,
			"-0.016": 0.949478867584,
			"-0.015": 1.1400887462,
			"-0.014": 0.237774580818,
			"-0.013": 0.52959277912,
			"-0.012": 1.00090541007,
			"-0.011": 0.868359313706,
			"-0.01": 0.508293835047,
			"-0.009": 2.8288387895,
			"-0.008": 4.53374496261,
			"-0.007": 6.60146822334,
			"-0.006": 6.35183062619,
			"-0.005": 9.13766780333,
			"-0.004": 12.7054600292,
			"-0.003": 19.5635322599,
			"-0.002": 28.0994226548,
			"-0.001": 18.2163232581,
			"0.0": 15.3777609481,
			"0.001": 15.5399173924,
			"0.002": 19.6031343215,
			"0.003": 21.0460083199,
			"0.004": 7.15134025189,
			"0.005": 6.56774009963,
			"0.006": 6.7364936364,
			"0.007": 9.5300687193,
			"0.008": 10.4718424308,
			"0.009": 3.54566988971,
			"0.01": 2.58628078007,
			"0.011": 4.69810338457,
			"0.012": 0.452924508495,
			"0.013": 0.0,
			"0.014": 0.0,
			"0.015": 0.0,
			"0.016": 0.0,
			"0.017": 0.0,
			"0.018": 0.0,
			"0.019": 0.0,
			"0.02": 0.0,
			"0.021": 0.0,
			"0.022": 0.0,
			"0.023": 0.0,
			"0.024": 0.0,
			"0.025": 0.0
		}
	}
}
