{
	 "smiles": "CC1CCCC1(C)C", 
	 "Tm": 251.35, 
	 "num_atms": 24, 
	 "gaussian": { 
		 "optdone": 1, 
		 "sigma_profile": "yes", 
		 "theory": "DFT", 
		 "functional": "B3LYP", 
		 "basiset": "6-31G**", 
		 "properties": { 
			 "R2extent": 1334.2435, 
			 "electric_dipole_moment_norm": 0.0430413754427, 
			 "electric_quadrupole_moment_norm": 0.277572440995, 
			 "total_energy": -314.513053929, 
			 "HOMO_LUMO_gap": 0.36373, 
			 "cosmo_polarized_energy": -0.65, 
			 "cosmo_cavitation_energy": 23.07, 
			 "cosmo_dispersion_energy": -16.93, 
			 "cosmo_repulsion_energy": 1.37, 
			 "cosmo_total_nonelectrostatic_energy": 7.51, 
			 "SMD_solvation_energy": 3.61 
		},
		"coords": [
			{
				"x": 1.4095421737,
				"y": 2.1365104676,
				"z": 1.9972380935,
				"element": "C" 
			},
			{
				"x": 1.0661677112,
				"y": 1.6061809958,
				"z": 0.5962757994,
				"element": "C" 
			},
			{
				"x": 2.3453655007,
				"y": 1.1515949378,
				"z": -0.1631254123,
				"element": "C" 
			},
			{
				"x": 2.4252966608,
				"y": -0.3975096019,
				"z": -0.0183466846,
				"element": "C" 
			},
			{
				"x": 1.1777752504,
				"y": -0.8059249834,
				"z": 0.7969944069,
				"element": "C" 
			},
			{
				"x": 0.1524067769,
				"y": 0.3355264141,
				"z": 0.5884036246,
				"element": "C" 
			},
			{
				"x": -0.9442724865,
				"y": 0.3330067999,
				"z": 1.6630967498,
				"element": "C" 
			},
			{
				"x": -0.5178033433,
				"y": 0.1989527917,
				"z": -0.7954323551,
				"element": "C" 
			},
			{
				"x": 2.098659513,
				"y": 2.9845204991,
				"z": 1.9192418964,
				"element": "H" 
			},
			{
				"x": 0.5225322837,
				"y": 2.4830532457,
				"z": 2.5362306532,
				"element": "H" 
			},
			{
				"x": 1.9002513515,
				"y": 1.3754656591,
				"z": 2.6151900541,
				"element": "H" 
			},
			{
				"x": 0.5667746598,
				"y": 2.41762375,
				"z": 0.0504429665,
				"element": "H" 
			},
			{
				"x": 2.2888543221,
				"y": 1.4342062778,
				"z": -1.2192178334,
				"element": "H" 
			},
			{
				"x": 3.2358058757,
				"y": 1.6464259556,
				"z": 0.2385165092,
				"element": "H" 
			},
			{
				"x": 2.4185779478,
				"y": -0.8755210787,
				"z": -1.0033268771,
				"element": "H" 
			},
			{
				"x": 3.3493094062,
				"y": -0.7183619113,
				"z": 0.4724730995,
				"element": "H" 
			},
			{
				"x": 0.7765290174,
				"y": -1.7821236819,
				"z": 0.501754966,
				"element": "H" 
			},
			{
				"x": 1.4288764362,
				"y": -0.8788300425,
				"z": 1.8622955784,
				"element": "H" 
			},
			{
				"x": -0.5290241822,
				"y": 0.3641742523,
				"z": 2.6747967887,
				"element": "H" 
			},
			{
				"x": -1.5537400727,
				"y": -0.5748458949,
				"z": 1.5862193225,
				"element": "H" 
			},
			{
				"x": -1.6188438624,
				"y": 1.1900392936,
				"z": 1.5490141563,
				"element": "H" 
			},
			{
				"x": 0.2115918481,
				"y": 0.1919373684,
				"z": -1.6115540619,
				"element": "H" 
			},
			{
				"x": -1.2084062032,
				"y": 1.0304589332,
				"z": -0.977630615,
				"element": "H" 
			},
			{
				"x": -1.0932265845,
				"y": -0.7317604473,
				"z": -0.8588508257,
				"element": "H" 
			}
		],
		 "valence_orbital": [ 
			{
				"type": "occ",
				"energy": -0.31422,
				"method": "rhf"
			},
			{
				"type": "occ",
				"energy": -0.31011,
				"method": "rhf"
			},
			{
				"type": "occ",
				"energy": -0.3029,
				"method": "rhf"
			},
			{
				"type": "occ",
				"energy": -0.30177,
				"method": "rhf"
			},
			{
				"type": "occ",
				"energy": -0.29166,
				"method": "rhf"
			},
			{
				"type": "unocc",
				"energy": 0.07207,
				"method": "rhf"
			},
			{
				"type": "unocc",
				"energy": 0.10307,
				"method": "rhf"
			},
			{
				"type": "unocc",
				"energy": 0.11834,
				"method": "rhf"
			},
			{
				"type": "unocc",
				"energy": 0.13405,
				"method": "rhf"
			},
			{
				"type": "unocc",
				"energy": 0.13795,
				"method": "rhf"
			}
		],
		"cosmo_sigma_profile": { 
			"-0.025": 0.0,
			"-0.024": 0.0,
			"-0.023": 0.0,
			"-0.022": 0.0,
			"-0.021": 0.0,
			"-0.02": 0.0,
			"-0.019": 0.0,
			"-0.018": 0.0,
			"-0.017": 0.0,
			"-0.016": 0.0,
			"-0.015": 0.0,
			"-0.014": 0.0,
			"-0.013": 0.0,
			"-0.012": 0.0,
			"-0.011": 0.0,
			"-0.01": 0.0,
			"-0.009": 0.0,
			"-0.008": 0.0,
			"-0.007": 0.0,
			"-0.006": 0.0,
			"-0.005": 0.0,
			"-0.004": 0.0,
			"-0.003": 1.63657943216,
			"-0.002": 27.5088789785,
			"-0.001": 40.2274695809,
			"0.0": 40.6472316568,
			"0.001": 33.9825835304,
			"0.002": 29.144327622,
			"0.003": 3.01623570804,
			"0.004": 0.0,
			"0.005": 0.0,
			"0.006": 0.0,
			"0.007": 0.0,
			"0.008": 0.0,
			"0.009": 0.0,
			"0.01": 0.0,
			"0.011": 0.0,
			"0.012": 0.0,
			"0.013": 0.0,
			"0.014": 0.0,
			"0.015": 0.0,
			"0.016": 0.0,
			"0.017": 0.0,
			"0.018": 0.0,
			"0.019": 0.0,
			"0.02": 0.0,
			"0.021": 0.0,
			"0.022": 0.0,
			"0.023": 0.0,
			"0.024": 0.0,
			"0.025": 0.0
		}
	}
}
