{
	 "smiles": "NC(=S)C1=CC(Br)=CS1", 
	 "Tm": 473.15, 
	 "num_atms": 13, 
	 "gaussian": { 
		 "optdone": 1, 
		 "sigma_profile": "yes", 
		 "theory": "DFT", 
		 "functional": "B3LYP", 
		 "basiset": "6-31G**", 
		 "properties": { 
			 "R2extent": 3768.1767, 
			 "electric_dipole_moment_norm": 4.49945031532, 
			 "electric_quadrupole_moment_norm": 7.11046217556, 
			 "total_energy": -3615.46103216, 
			 "HOMO_LUMO_gap": 0.13651, 
			 "cosmo_polarized_energy": -14.15, 
			 "cosmo_cavitation_energy": 23.11, 
			 "cosmo_dispersion_energy": -18.68, 
			 "cosmo_repulsion_energy": 1.44, 
			 "cosmo_total_nonelectrostatic_energy": 5.87, 
			 "SMD_solvation_energy": 1.95 
		},
		"coords": [
			{
				"x": -0.0123313283,
				"y": -1.3342985252,
				"z": 1.789512685,
				"element": "N" 
			},
			{
				"x": 0.6153728081,
				"y": -0.6153669258,
				"z": 0.8313904177,
				"element": "C" 
			},
			{
				"x": 2.2465118414,
				"y": -0.8180288078,
				"z": 0.5262123403,
				"element": "S" 
			},
			{
				"x": -0.2097548445,
				"y": 0.3433729544,
				"z": 0.081286366,
				"element": "C" 
			},
			{
				"x": 0.2105856037,
				"y": 1.1753364772,
				"z": -0.9310082787,
				"element": "C" 
			},
			{
				"x": -0.8369180763,
				"y": 1.9805106276,
				"z": -1.4480300428,
				"element": "C" 
			},
			{
				"x": -0.5772277509,
				"y": 3.2296074046,
				"z": -2.8494113686,
				"element": "Br" 
			},
			{
				"x": -2.0496036883,
				"y": 1.7763867258,
				"z": -0.8467682617,
				"element": "C" 
			},
			{
				"x": -1.9286867135,
				"y": 0.5723164091,
				"z": 0.3856662617,
				"element": "S" 
			},
			{
				"x": 0.5342371932,
				"y": -1.9985151442,
				"z": 2.3167368004,
				"element": "H" 
			},
			{
				"x": -0.9943991922,
				"y": -1.2412258094,
				"z": 2.0033309011,
				"element": "H" 
			},
			{
				"x": 1.2348027923,
				"y": 1.195691306,
				"z": -1.278131154,
				"element": "H" 
			},
			{
				"x": -2.9923886446,
				"y": 2.2597133078,
				"z": -1.0571866663,
				"element": "H" 
			}
		],
		 "valence_orbital": [ 
			{
				"type": "occ",
				"energy": -0.29877,
				"method": "rhf"
			},
			{
				"type": "occ",
				"energy": -0.27783,
				"method": "rhf"
			},
			{
				"type": "occ",
				"energy": -0.25352,
				"method": "rhf"
			},
			{
				"type": "occ",
				"energy": -0.23025,
				"method": "rhf"
			},
			{
				"type": "occ",
				"energy": -0.21806,
				"method": "rhf"
			},
			{
				"type": "unocc",
				"energy": -0.08155,
				"method": "rhf"
			},
			{
				"type": "unocc",
				"energy": -0.01882,
				"method": "rhf"
			},
			{
				"type": "unocc",
				"energy": 0.00264,
				"method": "rhf"
			},
			{
				"type": "unocc",
				"energy": 0.01183,
				"method": "rhf"
			},
			{
				"type": "unocc",
				"energy": 0.04976,
				"method": "rhf"
			}
		],
		"cosmo_sigma_profile": { 
			"-0.025": 0.0,
			"-0.024": 0.0,
			"-0.023": 0.0,
			"-0.022": 0.0,
			"-0.021": 0.0,
			"-0.02": 0.0,
			"-0.019": 0.0,
			"-0.018": 0.0,
			"-0.017": 0.0,
			"-0.016": 0.722671472432,
			"-0.015": 2.48364799442,
			"-0.014": 2.11547788598,
			"-0.013": 2.47149805412,
			"-0.012": 2.4008357898,
			"-0.011": 2.26579362764,
			"-0.01": 3.99296976725,
			"-0.009": 3.82822556704,
			"-0.008": 2.78262412901,
			"-0.007": 5.42345934582,
			"-0.006": 3.68320293184,
			"-0.005": 6.14676853832,
			"-0.004": 7.04970302387,
			"-0.003": 7.16988956344,
			"-0.002": 8.6150888108,
			"-0.001": 12.1631988559,
			"0.0": 17.288761782,
			"0.001": 24.3237722566,
			"0.002": 18.1106246129,
			"0.003": 12.3752424221,
			"0.004": 14.3748517271,
			"0.005": 5.08748951273,
			"0.006": 4.4709135824,
			"0.007": 3.99719726953,
			"0.008": 5.49182010914,
			"0.009": 9.14801911768,
			"0.01": 3.97385215242,
			"0.011": 1.76278106143,
			"0.012": 0.411229953149,
			"0.013": 0.0,
			"0.014": 0.0,
			"0.015": 0.0,
			"0.016": 0.0,
			"0.017": 0.0,
			"0.018": 0.0,
			"0.019": 0.0,
			"0.02": 0.0,
			"0.021": 0.0,
			"0.022": 0.0,
			"0.023": 0.0,
			"0.024": 0.0,
			"0.025": 0.0
		}
	}
}
