{
	 "smiles": "NC1=CC=C(C=C1)C(C1=CC=C(N)C=C1)(C(F)(F)F)C(F)(F)F", 
	 "Tm": 470.15, 
	 "num_atms": 35, 
	 "gaussian": { 
		 "optdone": 1, 
		 "sigma_profile": "yes", 
		 "theory": "DFT", 
		 "functional": "B3LYP", 
		 "basiset": "6-31G**", 
		 "properties": { 
			 "R2extent": 8118.295, 
			 "electric_dipole_moment_norm": 5.53201194594, 
			 "electric_quadrupole_moment_norm": 20.5346267697, 
			 "total_energy": -1287.38818054, 
			 "HOMO_LUMO_gap": 0.19572, 
			 "cosmo_polarized_energy": -15.33, 
			 "cosmo_cavitation_energy": 39.15, 
			 "cosmo_dispersion_energy": -27.11, 
			 "cosmo_repulsion_energy": 1.97, 
			 "cosmo_total_nonelectrostatic_energy": 14.01, 
			 "SMD_solvation_energy": 8.41 
		},
		"coords": [
			{
				"x": 5.1279050221,
				"y": -2.1480534682,
				"z": 2.3750570069,
				"element": "N" 
			},
			{
				"x": 3.8878501284,
				"y": -2.0818525709,
				"z": 1.7454991142,
				"element": "C" 
			},
			{
				"x": 2.7652100498,
				"y": -2.7283787639,
				"z": 2.2865763734,
				"element": "C" 
			},
			{
				"x": 1.5397143225,
				"y": -2.7099428907,
				"z": 1.6277327103,
				"element": "C" 
			},
			{
				"x": 1.3749614448,
				"y": -2.0277732908,
				"z": 0.4140879256,
				"element": "C" 
			},
			{
				"x": 2.5031665735,
				"y": -1.3908544509,
				"z": -0.1261521844,
				"element": "C" 
			},
			{
				"x": 3.7333556355,
				"y": -1.4133205469,
				"z": 0.5190820166,
				"element": "C" 
			},
			{
				"x": 0.0571696783,
				"y": -2.013517334,
				"z": -0.3902312725,
				"element": "C" 
			},
			{
				"x": -0.2293079171,
				"y": -0.6196506042,
				"z": -0.9891812998,
				"element": "C" 
			},
			{
				"x": -0.7460334823,
				"y": -0.4151191273,
				"z": -2.2762398477,
				"element": "C" 
			},
			{
				"x": -1.0300299708,
				"y": 0.8632273615,
				"z": -2.7469213724,
				"element": "C" 
			},
			{
				"x": -0.8297524642,
				"y": 1.99346861,
				"z": -1.9385431959,
				"element": "C" 
			},
			{
				"x": -1.1676206386,
				"y": 3.2672138259,
				"z": -2.3878448088,
				"element": "N" 
			},
			{
				"x": -0.3303976817,
				"y": 1.7925794113,
				"z": -0.6403785375,
				"element": "C" 
			},
			{
				"x": -0.0392321935,
				"y": 0.5135309778,
				"z": -0.1828223551,
				"element": "C" 
			},
			{
				"x": 0.1983175941,
				"y": -3.1099618518,
				"z": -1.4858985672,
				"element": "C" 
			},
			{
				"x": -0.9633500655,
				"y": -3.3630947912,
				"z": -2.1348544259,
				"element": "F" 
			},
			{
				"x": 0.612057138,
				"y": -4.2783380214,
				"z": -0.9667280932,
				"element": "F" 
			},
			{
				"x": 1.101087397,
				"y": -2.7422932408,
				"z": -2.41874836,
				"element": "F" 
			},
			{
				"x": -1.1753814365,
				"y": -2.3763597438,
				"z": 0.4884760778,
				"element": "C" 
			},
			{
				"x": -1.2225573659,
				"y": -1.601360742,
				"z": 1.5919667569,
				"element": "F" 
			},
			{
				"x": -2.3284507211,
				"y": -2.1957640577,
				"z": -0.1775514487,
				"element": "F" 
			},
			{
				"x": -1.1668057757,
				"y": -3.6644291253,
				"z": 0.9075185415,
				"element": "F" 
			},
			{
				"x": 5.7798419778,
				"y": -1.4143193769,
				"z": 2.136070649,
				"element": "H" 
			},
			{
				"x": 5.1051551133,
				"y": -2.3342507163,
				"z": 3.367714155,
				"element": "H" 
			},
			{
				"x": 2.855910712,
				"y": -3.2613483579,
				"z": 3.2298188449,
				"element": "H" 
			},
			{
				"x": 0.7116116309,
				"y": -3.2373996322,
				"z": 2.0821579543,
				"element": "H" 
			},
			{
				"x": 2.4176997317,
				"y": -0.8609801061,
				"z": -1.0680764907,
				"element": "H" 
			},
			{
				"x": 4.5859481413,
				"y": -0.9106186682,
				"z": 0.0691261734,
				"element": "H" 
			},
			{
				"x": -0.9333778163,
				"y": -1.2516902533,
				"z": -2.9361703037,
				"element": "H" 
			},
			{
				"x": -1.4233280531,
				"y": 0.9861854152,
				"z": -3.7529996795,
				"element": "H" 
			},
			{
				"x": -0.7020748268,
				"y": 4.033364838,
				"z": -1.9222491874,
				"element": "H" 
			},
			{
				"x": -1.1930293657,
				"y": 3.3848493667,
				"z": -3.3908735473,
				"element": "H" 
			},
			{
				"x": -0.1728049283,
				"y": 2.6466409967,
				"z": 0.0137081484,
				"element": "H" 
			},
			{
				"x": 0.3497724121,
				"y": 0.3947109296,
				"z": 0.8220725296,
				"element": "H" 
			}
		],
		 "valence_orbital": [ 
			{
				"type": "occ",
				"energy": -0.30288,
				"method": "rhf"
			},
			{
				"type": "occ",
				"energy": -0.25169,
				"method": "rhf"
			},
			{
				"type": "occ",
				"energy": -0.24612,
				"method": "rhf"
			},
			{
				"type": "occ",
				"energy": -0.20915,
				"method": "rhf"
			},
			{
				"type": "occ",
				"energy": -0.20197,
				"method": "rhf"
			},
			{
				"type": "unocc",
				"energy": -0.00625,
				"method": "rhf"
			},
			{
				"type": "unocc",
				"energy": 0.00661,
				"method": "rhf"
			},
			{
				"type": "unocc",
				"energy": 0.00773,
				"method": "rhf"
			},
			{
				"type": "unocc",
				"energy": 0.00836,
				"method": "rhf"
			},
			{
				"type": "unocc",
				"energy": 0.0765,
				"method": "rhf"
			}
		],
		"cosmo_sigma_profile": { 
			"-0.025": 0.0,
			"-0.024": 0.0,
			"-0.023": 0.0,
			"-0.022": 0.0,
			"-0.021": 0.0,
			"-0.02": 0.0,
			"-0.019": 0.0,
			"-0.018": 0.0,
			"-0.017": 0.0,
			"-0.016": 0.0,
			"-0.015": 0.0,
			"-0.014": 0.0,
			"-0.013": 1.60894040479,
			"-0.012": 5.50476507235,
			"-0.011": 5.11857130681,
			"-0.01": 6.30140783507,
			"-0.009": 6.87057534061,
			"-0.008": 4.98200355513,
			"-0.007": 6.81907219462,
			"-0.006": 9.38634065035,
			"-0.005": 14.8643602182,
			"-0.004": 14.0943752173,
			"-0.003": 12.9856736775,
			"-0.002": 11.4871160589,
			"-0.001": 14.465780734,
			"0.0": 15.7404725702,
			"0.001": 23.320692303,
			"0.002": 54.1373613094,
			"0.003": 42.742012916,
			"0.004": 17.9306724915,
			"0.005": 21.0068837169,
			"0.006": 11.2523759746,
			"0.007": 1.90785694678,
			"0.008": 1.57003977439,
			"0.009": 1.04001476628,
			"0.01": 1.64306624576,
			"0.011": 1.34065342243,
			"0.012": 1.54055168722,
			"0.013": 1.16576213532,
			"0.014": 0.747061449527,
			"0.015": 0.0,
			"0.016": 0.0,
			"0.017": 0.0,
			"0.018": 0.0,
			"0.019": 0.0,
			"0.02": 0.0,
			"0.021": 0.0,
			"0.022": 0.0,
			"0.023": 0.0,
			"0.024": 0.0,
			"0.025": 0.0
		}
	}
}
