{
	 "smiles": "CC(SC1=NN=C(N)S1)C(=O)NC1=C(C)N(C)N(C1=O)C1=CC=CC=C1", 
	 "Tm": 418.15, 
	 "num_atms": 44, 
	 "gaussian": { 
		 "optdone": 1, 
		 "sigma_profile": "yes", 
		 "theory": "DFT", 
		 "functional": "B3LYP", 
		 "basiset": "6-31G**", 
		 "properties": { 
			 "R2extent": 15459.244, 
			 "electric_dipole_moment_norm": 8.35954191388, 
			 "electric_quadrupole_moment_norm": 26.8412990563, 
			 "total_energy": -1895.83487056, 
			 "HOMO_LUMO_gap": 0.17174, 
			 "cosmo_polarized_energy": -32.31, 
			 "cosmo_cavitation_energy": 51.05, 
			 "cosmo_dispersion_energy": -35.34, 
			 "cosmo_repulsion_energy": 2.62, 
			 "cosmo_total_nonelectrostatic_energy": 18.33, 
			 "SMD_solvation_energy": 7.26 
		},
		"coords": [
			{
				"x": -0.9554483794,
				"y": -0.3947798199,
				"z": -2.2271717554,
				"element": "C" 
			},
			{
				"x": 0.5703279427,
				"y": -0.4885052955,
				"z": -2.0636023537,
				"element": "C" 
			},
			{
				"x": 1.4954268925,
				"y": -0.1090478226,
				"z": -3.6173531721,
				"element": "S" 
			},
			{
				"x": 0.9957139617,
				"y": -1.3794196977,
				"z": -4.7399467592,
				"element": "C" 
			},
			{
				"x": -0.2118311887,
				"y": -1.5826461951,
				"z": -5.1766468026,
				"element": "N" 
			},
			{
				"x": -0.3188568051,
				"y": -2.6249364367,
				"z": -6.0546494988,
				"element": "N" 
			},
			{
				"x": 0.8391164999,
				"y": -3.1776704771,
				"z": -6.3229575469,
				"element": "C" 
			},
			{
				"x": 0.9882874779,
				"y": -4.1654857251,
				"z": -7.2689619973,
				"element": "N" 
			},
			{
				"x": 2.1903124206,
				"y": -2.4795250415,
				"z": -5.4545275999,
				"element": "S" 
			},
			{
				"x": 0.997075753,
				"y": -1.82940026,
				"z": -1.455894944,
				"element": "C" 
			},
			{
				"x": 1.4922465519,
				"y": -2.7468702498,
				"z": -2.0887287759,
				"element": "O" 
			},
			{
				"x": 0.7343138989,
				"y": -2.00739933,
				"z": -0.1031647088,
				"element": "N" 
			},
			{
				"x": 0.3200566432,
				"y": -1.0810816772,
				"z": 0.8680544008,
				"element": "C" 
			},
			{
				"x": -0.7055069288,
				"y": -1.2506433282,
				"z": 1.7531147259,
				"element": "C" 
			},
			{
				"x": -1.612333035,
				"y": -2.4267177743,
				"z": 1.9064451597,
				"element": "C" 
			},
			{
				"x": -0.8202542738,
				"y": -0.1420998612,
				"z": 2.5857980488,
				"element": "N" 
			},
			{
				"x": -0.9834971177,
				"y": -0.3593579571,
				"z": 4.0318613835,
				"element": "C" 
			},
			{
				"x": 0.2497214985,
				"y": 0.7157916898,
				"z": 2.2536834071,
				"element": "N" 
			},
			{
				"x": 0.971056275,
				"y": 0.198902823,
				"z": 1.1561742727,
				"element": "C" 
			},
			{
				"x": 1.8890543816,
				"y": 0.7743901222,
				"z": 0.5827728571,
				"element": "O" 
			},
			{
				"x": 0.1686763757,
				"y": 2.0947748396,
				"z": 2.5870808907,
				"element": "C" 
			},
			{
				"x": 1.3505964573,
				"y": 2.8431083689,
				"z": 2.670332532,
				"element": "C" 
			},
			{
				"x": 1.280042304,
				"y": 4.1980888707,
				"z": 2.9889334114,
				"element": "C" 
			},
			{
				"x": 0.0507638618,
				"y": 4.8090195096,
				"z": 3.2460829036,
				"element": "C" 
			},
			{
				"x": -1.1211063685,
				"y": 4.0558234712,
				"z": 3.1647518135,
				"element": "C" 
			},
			{
				"x": -1.0707123816,
				"y": 2.703683395,
				"z": 2.8261405533,
				"element": "C" 
			},
			{
				"x": -1.2289733558,
				"y": 0.6012947893,
				"z": -2.5830152607,
				"element": "H" 
			},
			{
				"x": -1.4531951253,
				"y": -0.5685764439,
				"z": -1.2672607173,
				"element": "H" 
			},
			{
				"x": -1.3126687716,
				"y": -1.1237510486,
				"z": -2.9569008243,
				"element": "H" 
			},
			{
				"x": 0.9320319771,
				"y": 0.3120532483,
				"z": -1.4102620452,
				"element": "H" 
			},
			{
				"x": 0.0983080609,
				"y": -4.5441790374,
				"z": -7.5693692329,
				"element": "H" 
			},
			{
				"x": 1.6847100043,
				"y": -4.8721193473,
				"z": -7.0783414915,
				"element": "H" 
			},
			{
				"x": 1.0365588339,
				"y": -2.9223414151,
				"z": 0.2107993807,
				"element": "H" 
			},
			{
				"x": -2.6483881176,
				"y": -2.1087386742,
				"z": 2.0568849751,
				"element": "H" 
			},
			{
				"x": -1.3289882035,
				"y": -3.0605947116,
				"z": 2.7556367338,
				"element": "H" 
			},
			{
				"x": -1.564838815,
				"y": -3.0368155895,
				"z": 1.0016364405,
				"element": "H" 
			},
			{
				"x": -1.8711647362,
				"y": -0.9730405541,
				"z": 4.1911739515,
				"element": "H" 
			},
			{
				"x": -0.1064123492,
				"y": -0.8532040224,
				"z": 4.4692057891,
				"element": "H" 
			},
			{
				"x": -1.1360481957,
				"y": 0.6032266149,
				"z": 4.5203955311,
				"element": "H" 
			},
			{
				"x": 2.2999610209,
				"y": 2.3657394602,
				"z": 2.4658566443,
				"element": "H" 
			},
			{
				"x": 2.1973246253,
				"y": 4.7767918909,
				"z": 3.0442224351,
				"element": "H" 
			},
			{
				"x": 0.0066112741,
				"y": 5.8628435572,
				"z": 3.5034342011,
				"element": "H" 
			},
			{
				"x": -2.0843726442,
				"y": 4.5220118647,
				"z": 3.3505757133,
				"element": "H" 
			},
			{
				"x": -1.9819982002,
				"y": 2.1244032778,
				"z": 2.7254073308,
				"element": "H" 
			}
		],
		 "valence_orbital": [ 
			{
				"type": "occ",
				"energy": -0.25155,
				"method": "rhf"
			},
			{
				"type": "occ",
				"energy": -0.23982,
				"method": "rhf"
			},
			{
				"type": "occ",
				"energy": -0.23676,
				"method": "rhf"
			},
			{
				"type": "occ",
				"energy": -0.22045,
				"method": "rhf"
			},
			{
				"type": "occ",
				"energy": -0.2114,
				"method": "rhf"
			},
			{
				"type": "unocc",
				"energy": -0.03966,
				"method": "rhf"
			},
			{
				"type": "unocc",
				"energy": -0.01829,
				"method": "rhf"
			},
			{
				"type": "unocc",
				"energy": -0.01047,
				"method": "rhf"
			},
			{
				"type": "unocc",
				"energy": -0.00415,
				"method": "rhf"
			},
			{
				"type": "unocc",
				"energy": 0.01222,
				"method": "rhf"
			}
		],
		"cosmo_sigma_profile": { 
			"-0.025": 0.0,
			"-0.024": 0.0,
			"-0.023": 0.0,
			"-0.022": 0.0,
			"-0.021": 0.0,
			"-0.02": 0.0,
			"-0.019": 0.0,
			"-0.018": 0.0,
			"-0.017": 0.0,
			"-0.016": 0.0116251591785,
			"-0.015": 1.35268953728,
			"-0.014": 3.49628227686,
			"-0.013": 4.26460733309,
			"-0.012": 3.34018711907,
			"-0.011": 3.83451950562,
			"-0.01": 2.87794088544,
			"-0.009": 3.19038516469,
			"-0.008": 2.7061696504,
			"-0.007": 6.40262689899,
			"-0.006": 21.5875440107,
			"-0.005": 27.9862658668,
			"-0.004": 33.7795081166,
			"-0.003": 34.6831985498,
			"-0.002": 34.0214322885,
			"-0.001": 31.7516146063,
			"0.0": 26.683663369,
			"0.001": 22.534632851,
			"0.002": 21.6950254334,
			"0.003": 19.6966496097,
			"0.004": 18.2713354285,
			"0.005": 18.6513495718,
			"0.006": 11.1488311186,
			"0.007": 8.73315785518,
			"0.008": 7.66272720267,
			"0.009": 7.40758106293,
			"0.01": 5.47045272571,
			"0.011": 8.12234920221,
			"0.012": 8.15138482128,
			"0.013": 8.12274029624,
			"0.014": 2.20008031501,
			"0.015": 0.668392149628,
			"0.016": 0.0202598358421,
			"0.017": 0.0,
			"0.018": 0.0,
			"0.019": 0.0,
			"0.02": 0.0,
			"0.021": 0.0,
			"0.022": 0.0,
			"0.023": 0.0,
			"0.024": 0.0,
			"0.025": 0.0
		}
	}
}
