{
	 "smiles": "CC(O)CS(=O)(=O)C1=CC=C(C)C=C1", 
	 "Tm": 350.15, 
	 "num_atms": 28, 
	 "gaussian": { 
		 "optdone": 1, 
		 "sigma_profile": "yes", 
		 "theory": "DFT", 
		 "functional": "B3LYP", 
		 "basiset": "6-31G**", 
		 "properties": { 
			 "R2extent": 3693.5269, 
			 "electric_dipole_moment_norm": 5.53513010236, 
			 "electric_quadrupole_moment_norm": 15.4098910986, 
			 "total_energy": -1013.30017189, 
			 "HOMO_LUMO_gap": 0.22647, 
			 "cosmo_polarized_energy": -16.93, 
			 "cosmo_cavitation_energy": 32.08, 
			 "cosmo_dispersion_energy": -23.18, 
			 "cosmo_repulsion_energy": 1.8, 
			 "cosmo_total_nonelectrostatic_energy": 10.7, 
			 "SMD_solvation_energy": 4.83 
		},
		"coords": [
			{
				"x": 2.9156249901,
				"y": -0.6425034685,
				"z": -2.7952955189,
				"element": "C" 
			},
			{
				"x": 2.4767983646,
				"y": 0.2522944278,
				"z": -1.6381690832,
				"element": "C" 
			},
			{
				"x": 3.4266533651,
				"y": 1.2896535098,
				"z": -1.3844372631,
				"element": "O" 
			},
			{
				"x": 2.3741478838,
				"y": -0.4909334414,
				"z": -0.301290214,
				"element": "C" 
			},
			{
				"x": 0.875546581,
				"y": -1.495091589,
				"z": -0.0565127557,
				"element": "S" 
			},
			{
				"x": 0.6096301615,
				"y": -2.2616564869,
				"z": -1.288251457,
				"element": "O" 
			},
			{
				"x": 1.0509352136,
				"y": -2.1776784806,
				"z": 1.2356482479,
				"element": "O" 
			},
			{
				"x": -0.4470830802,
				"y": -0.2899903734,
				"z": 0.1283014884,
				"element": "C" 
			},
			{
				"x": -1.2649537233,
				"y": 0.0081233242,
				"z": -0.9617483606,
				"element": "C" 
			},
			{
				"x": -2.2947824041,
				"y": 0.9354480736,
				"z": -0.8037662828,
				"element": "C" 
			},
			{
				"x": -2.5182554777,
				"y": 1.5676416391,
				"z": 0.4268879285,
				"element": "C" 
			},
			{
				"x": -3.616343839,
				"y": 2.591413211,
				"z": 0.5851257379,
				"element": "C" 
			},
			{
				"x": -1.689312777,
				"y": 1.2363770586,
				"z": 1.5104595491,
				"element": "C" 
			},
			{
				"x": -0.6582832428,
				"y": 0.311092003,
				"z": 1.3716584188,
				"element": "C" 
			},
			{
				"x": 2.2123481985,
				"y": -1.4657135551,
				"z": -2.9395939646,
				"element": "H" 
			},
			{
				"x": 2.9675034397,
				"y": -0.0646361874,
				"z": -3.7259030993,
				"element": "H" 
			},
			{
				"x": 3.9094615161,
				"y": -1.055091414,
				"z": -2.5924452459,
				"element": "H" 
			},
			{
				"x": 1.4954742605,
				"y": 0.6963107734,
				"z": -1.8721080909,
				"element": "H" 
			},
			{
				"x": 3.612032966,
				"y": 1.7283042343,
				"z": -2.2251920765,
				"element": "H" 
			},
			{
				"x": 3.1992666232,
				"y": -1.197013516,
				"z": -0.1648308444,
				"element": "H" 
			},
			{
				"x": 2.3949481586,
				"y": 0.2258742929,
				"z": 0.5233467678,
				"element": "H" 
			},
			{
				"x": -1.106621887,
				"y": -0.5013076673,
				"z": -1.9062352382,
				"element": "H" 
			},
			{
				"x": -2.9401712621,
				"y": 1.1648153899,
				"z": -1.6475117215,
				"element": "H" 
			},
			{
				"x": -4.3857912938,
				"y": 2.4762052835,
				"z": -0.1830794648,
				"element": "H" 
			},
			{
				"x": -4.0974148123,
				"y": 2.513164414,
				"z": 1.5647919401,
				"element": "H" 
			},
			{
				"x": -3.2169736824,
				"y": 3.60971768,
				"z": 0.5007404159,
				"element": "H" 
			},
			{
				"x": -1.8622181521,
				"y": 1.7015338736,
				"z": 2.4774237672,
				"element": "H" 
			},
			{
				"x": -0.0391660884,
				"y": 0.035246991,
				"z": 2.2190864198,
				"element": "H" 
			}
		],
		 "valence_orbital": [ 
			{
				"type": "occ",
				"energy": -0.29285,
				"method": "rhf"
			},
			{
				"type": "occ",
				"energy": -0.28268,
				"method": "rhf"
			},
			{
				"type": "occ",
				"energy": -0.27845,
				"method": "rhf"
			},
			{
				"type": "occ",
				"energy": -0.26946,
				"method": "rhf"
			},
			{
				"type": "occ",
				"energy": -0.26376,
				"method": "rhf"
			},
			{
				"type": "unocc",
				"energy": -0.03729,
				"method": "rhf"
			},
			{
				"type": "unocc",
				"energy": -0.02229,
				"method": "rhf"
			},
			{
				"type": "unocc",
				"energy": 0.05506,
				"method": "rhf"
			},
			{
				"type": "unocc",
				"energy": 0.07543,
				"method": "rhf"
			},
			{
				"type": "unocc",
				"energy": 0.08017,
				"method": "rhf"
			}
		],
		"cosmo_sigma_profile": { 
			"-0.025": 0.0,
			"-0.024": 0.0,
			"-0.023": 0.0,
			"-0.022": 0.0,
			"-0.021": 0.0,
			"-0.02": 0.0,
			"-0.019": 0.0,
			"-0.018": 0.0,
			"-0.017": 0.0,
			"-0.016": 0.318149385169,
			"-0.015": 0.959260362402,
			"-0.014": 0.999707199489,
			"-0.013": 1.38262500433,
			"-0.012": 0.675115443332,
			"-0.011": 0.789224015271,
			"-0.01": 0.94605482866,
			"-0.009": 0.950944073509,
			"-0.008": 3.60853855867,
			"-0.007": 7.43927913525,
			"-0.006": 14.151507751,
			"-0.005": 18.8239222894,
			"-0.004": 22.5548700394,
			"-0.003": 18.9307633602,
			"-0.002": 20.4240804544,
			"-0.001": 22.5077736807,
			"0.0": 21.102547217,
			"0.001": 14.2989561316,
			"0.002": 13.9173078262,
			"0.003": 15.1562045561,
			"0.004": 6.05676207938,
			"0.005": 4.10403717886,
			"0.006": 3.96849093232,
			"0.007": 4.28624667793,
			"0.008": 3.70283113136,
			"0.009": 4.39731373892,
			"0.01": 5.37274562686,
			"0.011": 8.15786862759,
			"0.012": 9.40232310366,
			"0.013": 3.25321417771,
			"0.014": 0.12138113435,
			"0.015": 0.0,
			"0.016": 0.0,
			"0.017": 0.0,
			"0.018": 0.0,
			"0.019": 0.0,
			"0.02": 0.0,
			"0.021": 0.0,
			"0.022": 0.0,
			"0.023": 0.0,
			"0.024": 0.0,
			"0.025": 0.0
		}
	}
}
