{
	 "smiles": "CCN(CC)C1=CC=C(C=C1)C(O)=O", 
	 "Tm": 466.65, 
	 "num_atms": 29, 
	 "gaussian": { 
		 "optdone": 1, 
		 "sigma_profile": "yes", 
		 "theory": "DFT", 
		 "functional": "B3LYP", 
		 "basiset": "6-31G**", 
		 "properties": { 
			 "R2extent": 4422.9281, 
			 "electric_dipole_moment_norm": 4.62680929043, 
			 "electric_quadrupole_moment_norm": 13.6845398567, 
			 "total_energy": -633.4364587, 
			 "HOMO_LUMO_gap": 0.17214, 
			 "cosmo_polarized_energy": -12.02, 
			 "cosmo_cavitation_energy": 31.21, 
			 "cosmo_dispersion_energy": -22.57, 
			 "cosmo_repulsion_energy": 1.77, 
			 "cosmo_total_nonelectrostatic_energy": 10.41, 
			 "SMD_solvation_energy": 6.27 
		},
		"coords": [
			{
				"x": 1.9551552711,
				"y": -1.7334214994,
				"z": 0.5912958529,
				"element": "C" 
			},
			{
				"x": 2.0856263521,
				"y": -0.5597513398,
				"z": -0.3903983598,
				"element": "C" 
			},
			{
				"x": 0.8182645741,
				"y": -0.0279098526,
				"z": -0.8902733305,
				"element": "N" 
			},
			{
				"x": 0.3350512056,
				"y": -0.5171152671,
				"z": -2.1812612382,
				"element": "C" 
			},
			{
				"x": -0.6767213906,
				"y": -1.6694925571,
				"z": -2.1012244526,
				"element": "C" 
			},
			{
				"x": 0.059936951,
				"y": 0.8432907449,
				"z": -0.1283971271,
				"element": "C" 
			},
			{
				"x": 0.5020671453,
				"y": 1.2972884839,
				"z": 1.1420975384,
				"element": "C" 
			},
			{
				"x": -0.2423763011,
				"y": 2.2025223206,
				"z": 1.8828351547,
				"element": "C" 
			},
			{
				"x": -1.4671184688,
				"y": 2.6953059531,
				"z": 1.4089380854,
				"element": "C" 
			},
			{
				"x": -1.9221669222,
				"y": 2.2421998506,
				"z": 0.1620967914,
				"element": "C" 
			},
			{
				"x": -1.189300367,
				"y": 1.3384202156,
				"z": -0.5885506959,
				"element": "C" 
			},
			{
				"x": -2.2951697104,
				"y": 3.6535225141,
				"z": 2.1611813107,
				"element": "C" 
			},
			{
				"x": -1.7488938278,
				"y": 4.0153829846,
				"z": 3.3564159246,
				"element": "O" 
			},
			{
				"x": -3.3654005872,
				"y": 4.1048651076,
				"z": 1.7920067518,
				"element": "O" 
			},
			{
				"x": 1.3554411105,
				"y": -1.4580083974,
				"z": 1.4631637064,
				"element": "H" 
			},
			{
				"x": 1.4792359728,
				"y": -2.5956516278,
				"z": 0.1151584842,
				"element": "H" 
			},
			{
				"x": 2.945264516,
				"y": -2.0441983414,
				"z": 0.9424872664,
				"element": "H" 
			},
			{
				"x": 2.6692062938,
				"y": -0.8770012302,
				"z": -1.2602810672,
				"element": "H" 
			},
			{
				"x": 2.6567918153,
				"y": 0.2532098908,
				"z": 0.0718737401,
				"element": "H" 
			},
			{
				"x": -0.0947587269,
				"y": 0.3201117123,
				"z": -2.742507479,
				"element": "H" 
			},
			{
				"x": 1.2104740229,
				"y": -0.8411012896,
				"z": -2.7527217373,
				"element": "H" 
			},
			{
				"x": -0.2318705213,
				"y": -2.5543161682,
				"z": -1.6366063233,
				"element": "H" 
			},
			{
				"x": -1.5549954431,
				"y": -1.3875725779,
				"z": -1.514042748,
				"element": "H" 
			},
			{
				"x": -1.0130684848,
				"y": -1.9475211429,
				"z": -3.1060925295,
				"element": "H" 
			},
			{
				"x": 1.4351268767,
				"y": 0.9401252228,
				"z": 1.5581643033,
				"element": "H" 
			},
			{
				"x": 0.1276424328,
				"y": 2.5318867101,
				"z": 2.8476915481,
				"element": "H" 
			},
			{
				"x": -2.8725937463,
				"y": 2.6140354349,
				"z": -0.2068894478,
				"element": "H" 
			},
			{
				"x": -1.5923144772,
				"y": 1.0141281681,
				"z": -1.5391712197,
				"element": "H" 
			},
			{
				"x": -2.3820355653,
				"y": 4.6399659772,
				"z": 3.7455112972,
				"element": "H" 
			}
		],
		 "valence_orbital": [ 
			{
				"type": "occ",
				"energy": -0.30351,
				"method": "rhf"
			},
			{
				"type": "occ",
				"energy": -0.28641,
				"method": "rhf"
			},
			{
				"type": "occ",
				"energy": -0.25896,
				"method": "rhf"
			},
			{
				"type": "occ",
				"energy": -0.25007,
				"method": "rhf"
			},
			{
				"type": "occ",
				"energy": -0.19687,
				"method": "rhf"
			},
			{
				"type": "unocc",
				"energy": -0.02473,
				"method": "rhf"
			},
			{
				"type": "unocc",
				"energy": 0.0009,
				"method": "rhf"
			},
			{
				"type": "unocc",
				"energy": 0.06673,
				"method": "rhf"
			},
			{
				"type": "unocc",
				"energy": 0.08147,
				"method": "rhf"
			},
			{
				"type": "unocc",
				"energy": 0.09199,
				"method": "rhf"
			}
		],
		"cosmo_sigma_profile": { 
			"-0.025": 0.0,
			"-0.024": 0.0,
			"-0.023": 0.0,
			"-0.022": 0.0,
			"-0.021": 0.0,
			"-0.02": 0.0,
			"-0.019": 0.0,
			"-0.018": 0.036487408643,
			"-0.017": 0.852428443905,
			"-0.016": 0.91574563553,
			"-0.015": 0.547128145726,
			"-0.014": 1.46156614084,
			"-0.013": 0.424463469356,
			"-0.012": 0.302256022354,
			"-0.011": 0.309868590615,
			"-0.01": 0.950985426843,
			"-0.009": 1.33416704325,
			"-0.008": 0.164672170462,
			"-0.007": 0.840785210139,
			"-0.006": 7.62290583035,
			"-0.005": 13.2019049982,
			"-0.004": 20.6892617248,
			"-0.003": 26.0504975505,
			"-0.002": 26.6565909595,
			"-0.001": 22.7892587714,
			"0.0": 20.8557530612,
			"0.001": 19.8324728834,
			"0.002": 15.1765134029,
			"0.003": 13.9219746621,
			"0.004": 12.3558286171,
			"0.005": 13.7447897945,
			"0.006": 4.69760838019,
			"0.007": 2.65285735961,
			"0.008": 3.4527738527,
			"0.009": 2.56589689316,
			"0.01": 1.3226239431,
			"0.011": 1.88612116971,
			"0.012": 4.41967493045,
			"0.013": 3.8841679996,
			"0.014": 0.0311471827406,
			"0.015": 0.0,
			"0.016": 0.0,
			"0.017": 0.0,
			"0.018": 0.0,
			"0.019": 0.0,
			"0.02": 0.0,
			"0.021": 0.0,
			"0.022": 0.0,
			"0.023": 0.0,
			"0.024": 0.0,
			"0.025": 0.0
		}
	}
}
