{
	 "smiles": "CC1=NC2=C(N1)C=CC=C2", 
	 "Tm": 449.15, 
	 "num_atms": 18, 
	 "gaussian": { 
		 "optdone": 1, 
		 "sigma_profile": "yes", 
		 "theory": "DFT", 
		 "functional": "B3LYP", 
		 "basiset": "6-31G**", 
		 "properties": { 
			 "R2extent": 2610.3638, 
			 "electric_dipole_moment_norm": 3.50071356155, 
			 "electric_quadrupole_moment_norm": 9.27615599966, 
			 "total_energy": -419.195301868, 
			 "HOMO_LUMO_gap": 0.20776, 
			 "cosmo_polarized_energy": -12.54, 
			 "cosmo_cavitation_energy": 21.64, 
			 "cosmo_dispersion_energy": -16.51, 
			 "cosmo_repulsion_energy": 1.34, 
			 "cosmo_total_nonelectrostatic_energy": 6.47, 
			 "SMD_solvation_energy": 1.63 
		},
		"coords": [
			{
				"x": -0.5600828006,
				"y": 1.302709604,
				"z": 2.8372147999,
				"element": "C" 
			},
			{
				"x": 0.189122226,
				"y": 0.163686966,
				"z": 2.2273444827,
				"element": "C" 
			},
			{
				"x": 0.0121369597,
				"y": -1.10287049,
				"z": 2.516782826,
				"element": "N" 
			},
			{
				"x": 0.9153901309,
				"y": -1.7914294898,
				"z": 1.7165196943,
				"element": "C" 
			},
			{
				"x": 1.6585563808,
				"y": -0.8869086607,
				"z": 0.9189933436,
				"element": "C" 
			},
			{
				"x": 1.1687376904,
				"y": 0.3603706224,
				"z": 1.2703273846,
				"element": "N" 
			},
			{
				"x": 2.6389645902,
				"y": -1.3072829193,
				"z": 0.0194026618,
				"element": "C" 
			},
			{
				"x": 2.8636672639,
				"y": -2.6801242138,
				"z": -0.0661055094,
				"element": "C" 
			},
			{
				"x": 2.1347497755,
				"y": -3.5952958215,
				"z": 0.7188219974,
				"element": "C" 
			},
			{
				"x": 1.1585511421,
				"y": -3.1664859599,
				"z": 1.6135788338,
				"element": "C" 
			},
			{
				"x": -1.2739374205,
				"y": 0.9044471441,
				"z": 3.5587981127,
				"element": "H" 
			},
			{
				"x": 0.1121983973,
				"y": 1.9962616754,
				"z": 3.3559111376,
				"element": "H" 
			},
			{
				"x": -1.1093767937,
				"y": 1.875488742,
				"z": 2.080759162,
				"element": "H" 
			},
			{
				"x": 1.4672688978,
				"y": 1.2490671519,
				"z": 0.9001481735,
				"element": "H" 
			},
			{
				"x": 3.2028745524,
				"y": -0.6047459616,
				"z": -0.5873123168,
				"element": "H" 
			},
			{
				"x": 3.6177822941,
				"y": -3.0520789957,
				"z": -0.7534739866,
				"element": "H" 
			},
			{
				"x": 2.3421489343,
				"y": -4.656852291,
				"z": 0.6205000454,
				"element": "H" 
			},
			{
				"x": 0.5941477795,
				"y": -3.8670571027,
				"z": 2.2205891574,
				"element": "H" 
			}
		],
		 "valence_orbital": [ 
			{
				"type": "occ",
				"energy": -0.32943,
				"method": "rhf"
			},
			{
				"type": "occ",
				"energy": -0.29818,
				"method": "rhf"
			},
			{
				"type": "occ",
				"energy": -0.26402,
				"method": "rhf"
			},
			{
				"type": "occ",
				"energy": -0.22171,
				"method": "rhf"
			},
			{
				"type": "occ",
				"energy": -0.21655,
				"method": "rhf"
			},
			{
				"type": "unocc",
				"energy": -0.00879,
				"method": "rhf"
			},
			{
				"type": "unocc",
				"energy": 0.02713,
				"method": "rhf"
			},
			{
				"type": "unocc",
				"energy": 0.06005,
				"method": "rhf"
			},
			{
				"type": "unocc",
				"energy": 0.07471,
				"method": "rhf"
			},
			{
				"type": "unocc",
				"energy": 0.10504,
				"method": "rhf"
			}
		],
		"cosmo_sigma_profile": { 
			"-0.025": 0.0,
			"-0.024": 0.0,
			"-0.023": 0.0,
			"-0.022": 0.0,
			"-0.021": 0.0,
			"-0.02": 0.0,
			"-0.019": 0.0,
			"-0.018": 0.0,
			"-0.017": 0.0248444677995,
			"-0.016": 1.28371812087,
			"-0.015": 1.17909482994,
			"-0.014": 1.59602288692,
			"-0.013": 0.939397693662,
			"-0.012": 0.960969618983,
			"-0.011": 1.97797832991,
			"-0.01": 0.977921352333,
			"-0.009": 1.24123642094,
			"-0.008": 1.36276656047,
			"-0.007": 2.49251400409,
			"-0.006": 6.78243852133,
			"-0.005": 14.4843639774,
			"-0.004": 13.4852753228,
			"-0.003": 14.4514319828,
			"-0.002": 12.5624561342,
			"-0.001": 12.0685877259,
			"0.0": 8.64821895254,
			"0.001": 7.75422118398,
			"0.002": 9.84603933978,
			"0.003": 10.1566288944,
			"0.004": 9.68201043081,
			"0.005": 11.4208412548,
			"0.006": 9.9528008824,
			"0.007": 5.1003398567,
			"0.008": 1.95554953705,
			"0.009": 1.07640118424,
			"0.01": 1.43787775136,
			"0.011": 1.33651571965,
			"0.012": 1.12267875009,
			"0.013": 1.10212580381,
			"0.014": 1.01061975512,
			"0.015": 0.596902540669,
			"0.016": 1.3294234827,
			"0.017": 0.792465283257,
			"0.018": 0.697663981254,
			"0.019": 0.0,
			"0.02": 0.0,
			"0.021": 0.0,
			"0.022": 0.0,
			"0.023": 0.0,
			"0.024": 0.0,
			"0.025": 0.0
		}
	}
}
