{
	 "smiles": "COC1=CC=C(C=C1)C1=CSC(NC(=O)C(C)Cl)=N1", 
	 "Tm": 398.15, 
	 "num_atms": 32, 
	 "gaussian": { 
		 "optdone": 1, 
		 "sigma_profile": "yes", 
		 "theory": "DFT", 
		 "functional": "B3LYP", 
		 "basiset": "6-31G**", 
		 "properties": { 
			 "R2extent": 11080.1296, 
			 "electric_dipole_moment_norm": 1.75517435031, 
			 "electric_quadrupole_moment_norm": 10.8514817689, 
			 "total_energy": -1621.56300141, 
			 "HOMO_LUMO_gap": 0.16021, 
			 "cosmo_polarized_energy": -13.7, 
			 "cosmo_cavitation_energy": 39.72, 
			 "cosmo_dispersion_energy": -29.74, 
			 "cosmo_repulsion_energy": 2.24, 
			 "cosmo_total_nonelectrostatic_energy": 12.22, 
			 "SMD_solvation_energy": 6.36 
		},
		"coords": [
			{
				"x": 3.7963222542,
				"y": -3.8189485087,
				"z": 3.4562327548,
				"element": "C" 
			},
			{
				"x": 3.5954613021,
				"y": -3.7113720939,
				"z": 2.0560386903,
				"element": "O" 
			},
			{
				"x": 2.6940964849,
				"y": -2.7930378538,
				"z": 1.6027111633,
				"element": "C" 
			},
			{
				"x": 2.535243961,
				"y": -2.7310418656,
				"z": 0.2089230503,
				"element": "C" 
			},
			{
				"x": 1.643606527,
				"y": -1.8313023774,
				"z": -0.353100032,
				"element": "C" 
			},
			{
				"x": 0.8793101166,
				"y": -0.9622891337,
				"z": 0.4490887051,
				"element": "C" 
			},
			{
				"x": 1.0494531777,
				"y": -1.0369878387,
				"z": 1.8375695788,
				"element": "C" 
			},
			{
				"x": 1.9436314037,
				"y": -1.9380499947,
				"z": 2.4173576686,
				"element": "C" 
			},
			{
				"x": -0.0734176967,
				"y": 0.0011196074,
				"z": -0.1310209654,
				"element": "C" 
			},
			{
				"x": -0.3433756245,
				"y": 0.1998244142,
				"z": -1.461483385,
				"element": "C" 
			},
			{
				"x": -1.5394160564,
				"y": 1.441827212,
				"z": -1.6892117012,
				"element": "S" 
			},
			{
				"x": -1.5900009854,
				"y": 1.6058981813,
				"z": 0.054835461,
				"element": "C" 
			},
			{
				"x": -2.4130352306,
				"y": 2.5099509578,
				"z": 0.7179975663,
				"element": "N" 
			},
			{
				"x": -3.2713467474,
				"y": 3.3798115386,
				"z": 0.1142501959,
				"element": "C" 
			},
			{
				"x": -3.4107271455,
				"y": 3.4534834563,
				"z": -1.1003681281,
				"element": "O" 
			},
			{
				"x": -4.1160396852,
				"y": 4.3073351304,
				"z": 0.9990461297,
				"element": "C" 
			},
			{
				"x": -5.6064615713,
				"y": 4.070345209,
				"z": 0.7701387,
				"element": "C" 
			},
			{
				"x": -3.7237140329,
				"y": 4.1902400233,
				"z": 2.7851562358,
				"element": "Cl" 
			},
			{
				"x": -0.8002025518,
				"y": 0.8187262193,
				"z": 0.7219573611,
				"element": "N" 
			},
			{
				"x": 4.544736375,
				"y": -4.6008117891,
				"z": 3.5946472313,
				"element": "H" 
			},
			{
				"x": 4.1714651699,
				"y": -2.8807847567,
				"z": 3.8852365845,
				"element": "H" 
			},
			{
				"x": 2.8739073358,
				"y": -4.1064874725,
				"z": 3.9771870492,
				"element": "H" 
			},
			{
				"x": 3.1238473542,
				"y": -3.4006802711,
				"z": -0.4095635246,
				"element": "H" 
			},
			{
				"x": 1.5415900321,
				"y": -1.8068607352,
				"z": -1.4338912797,
				"element": "H" 
			},
			{
				"x": 0.4681538247,
				"y": -0.3747536973,
				"z": 2.4691398992,
				"element": "H" 
			},
			{
				"x": 2.0446396344,
				"y": -1.962730281,
				"z": 3.4960001622,
				"element": "H" 
			},
			{
				"x": 0.081770274,
				"y": -0.298912654,
				"z": -2.3197645654,
				"element": "H" 
			},
			{
				"x": -2.3333664081,
				"y": 2.5023389055,
				"z": 1.7281854141,
				"element": "H" 
			},
			{
				"x": -3.8447506487,
				"y": 5.328076411,
				"z": 0.7223519363,
				"element": "H" 
			},
			{
				"x": -5.8991181786,
				"y": 3.0718944368,
				"z": 1.1055546424,
				"element": "H" 
			},
			{
				"x": -5.8080067666,
				"y": 4.156546988,
				"z": -0.3005687773,
				"element": "H" 
			},
			{
				"x": -6.1987558977,
				"y": 4.8115326325,
				"z": 1.3102661787,
				"element": "H" 
			}
		],
		 "valence_orbital": [ 
			{
				"type": "occ",
				"energy": -0.27946,
				"method": "rhf"
			},
			{
				"type": "occ",
				"energy": -0.27686,
				"method": "rhf"
			},
			{
				"type": "occ",
				"energy": -0.25103,
				"method": "rhf"
			},
			{
				"type": "occ",
				"energy": -0.24163,
				"method": "rhf"
			},
			{
				"type": "occ",
				"energy": -0.19798,
				"method": "rhf"
			},
			{
				"type": "unocc",
				"energy": -0.03777,
				"method": "rhf"
			},
			{
				"type": "unocc",
				"energy": -0.01397,
				"method": "rhf"
			},
			{
				"type": "unocc",
				"energy": 0.00057,
				"method": "rhf"
			},
			{
				"type": "unocc",
				"energy": 0.00204,
				"method": "rhf"
			},
			{
				"type": "unocc",
				"energy": 0.02956,
				"method": "rhf"
			}
		],
		"cosmo_sigma_profile": { 
			"-0.025": 0.0,
			"-0.024": 0.0,
			"-0.023": 0.0,
			"-0.022": 0.0,
			"-0.021": 0.0,
			"-0.02": 0.0,
			"-0.019": 0.0,
			"-0.018": 0.0,
			"-0.017": 0.0,
			"-0.016": 0.0,
			"-0.015": 0.0,
			"-0.014": 0.0,
			"-0.013": 0.0,
			"-0.012": 0.454473873661,
			"-0.011": 0.903109312068,
			"-0.01": 0.755915364044,
			"-0.009": 5.61249343531,
			"-0.008": 6.27127303512,
			"-0.007": 6.91246072655,
			"-0.006": 15.7236428727,
			"-0.005": 25.1391167679,
			"-0.004": 24.9027966591,
			"-0.003": 24.963822532,
			"-0.002": 22.9188863311,
			"-0.001": 20.244783156,
			"0.0": 17.9580158733,
			"0.001": 18.236028148,
			"0.002": 20.0131968286,
			"0.003": 28.5559200278,
			"0.004": 26.6827360429,
			"0.005": 23.9441270802,
			"0.006": 7.74610115879,
			"0.007": 4.55174552271,
			"0.008": 4.4743243828,
			"0.009": 5.27650705872,
			"0.01": 4.47024543248,
			"0.011": 3.01200777635,
			"0.012": 1.61213788636,
			"0.013": 0.0121769994178,
			"0.014": 0.0,
			"0.015": 0.0,
			"0.016": 0.0,
			"0.017": 0.0,
			"0.018": 0.0,
			"0.019": 0.0,
			"0.02": 0.0,
			"0.021": 0.0,
			"0.022": 0.0,
			"0.023": 0.0,
			"0.024": 0.0,
			"0.025": 0.0
		}
	}
}
