{
	 "smiles": "CC1=CC(Cl)=CC=C1OCCCC(O)=O", 
	 "Tm": 373.15, 
	 "num_atms": 28, 
	 "gaussian": { 
		 "optdone": 1, 
		 "sigma_profile": "yes", 
		 "theory": "DFT", 
		 "functional": "B3LYP", 
		 "basiset": "6-31G**", 
		 "properties": { 
			 "R2extent": 6301.026, 
			 "electric_dipole_moment_norm": 2.44935700542, 
			 "electric_quadrupole_moment_norm": 27.2578538587, 
			 "total_energy": -1112.88180662, 
			 "HOMO_LUMO_gap": 0.20737, 
			 "cosmo_polarized_energy": -16.7, 
			 "cosmo_cavitation_energy": 33.58, 
			 "cosmo_dispersion_energy": -23.79, 
			 "cosmo_repulsion_energy": 1.9, 
			 "cosmo_total_nonelectrostatic_energy": 11.69, 
			 "SMD_solvation_energy": 6.62 
		},
		"coords": [
			{
				"x": -0.0382050137,
				"y": -0.2212872095,
				"z": 2.4268021156,
				"element": "C" 
			},
			{
				"x": 0.8421424517,
				"y": -1.2914007949,
				"z": 1.8339564139,
				"element": "C" 
			},
			{
				"x": 1.1618745837,
				"y": -2.4471326025,
				"z": 2.5450920491,
				"element": "C" 
			},
			{
				"x": 1.9863245248,
				"y": -3.4251357706,
				"z": 1.9849466039,
				"element": "C" 
			},
			{
				"x": 2.3661130412,
				"y": -4.872953833,
				"z": 2.9126991788,
				"element": "Cl" 
			},
			{
				"x": 2.5060596292,
				"y": -3.2669572523,
				"z": 0.7071286829,
				"element": "C" 
			},
			{
				"x": 2.1937806578,
				"y": -2.115211537,
				"z": -0.021146076,
				"element": "C" 
			},
			{
				"x": 1.3692327998,
				"y": -1.131396181,
				"z": 0.5330440435,
				"element": "C" 
			},
			{
				"x": 1.0163544118,
				"y": 0.0354593715,
				"z": -0.0897382885,
				"element": "O" 
			},
			{
				"x": 1.4960264984,
				"y": 0.3261874812,
				"z": -1.4076639615,
				"element": "C" 
			},
			{
				"x": 0.6670655208,
				"y": -0.3555357378,
				"z": -2.4993255584,
				"element": "C" 
			},
			{
				"x": -0.8079060491,
				"y": 0.0566135129,
				"z": -2.4745015615,
				"element": "C" 
			},
			{
				"x": -1.037313007,
				"y": 1.4887055266,
				"z": -2.9450781243,
				"element": "C" 
			},
			{
				"x": -2.3208210956,
				"y": 1.9286810751,
				"z": -2.8660906725,
				"element": "O" 
			},
			{
				"x": -0.1769310742,
				"y": 2.2164092325,
				"z": -3.3764389343,
				"element": "O" 
			},
			{
				"x": -0.9421391013,
				"y": -0.0706800759,
				"z": 1.8258666864,
				"element": "H" 
			},
			{
				"x": 0.4787937729,
				"y": 0.7436488963,
				"z": 2.455814917,
				"element": "H" 
			},
			{
				"x": -0.3416622735,
				"y": -0.4835409485,
				"z": 3.4433131996,
				"element": "H" 
			},
			{
				"x": 0.7679146441,
				"y": -2.58593111,
				"z": 3.5466552486,
				"element": "H" 
			},
			{
				"x": 3.1456806696,
				"y": -4.0290209827,
				"z": 0.2760983952,
				"element": "H" 
			},
			{
				"x": 2.6035399501,
				"y": -2.0043695337,
				"z": -1.0176274808,
				"element": "H" 
			},
			{
				"x": 2.5563540818,
				"y": 0.0624784481,
				"z": -1.4955115055,
				"element": "H" 
			},
			{
				"x": 1.4122030175,
				"y": 1.4102603766,
				"z": -1.5046439581,
				"element": "H" 
			},
			{
				"x": 1.1007147416,
				"y": -0.0880640915,
				"z": -3.4685155099,
				"element": "H" 
			},
			{
				"x": 0.7336517864,
				"y": -1.44317787,
				"z": -2.3956873934,
				"element": "H" 
			},
			{
				"x": -1.2118538857,
				"y": -0.053153578,
				"z": -1.4598266069,
				"element": "H" 
			},
			{
				"x": -1.400855174,
				"y": -0.6061419572,
				"z": -3.1189383164,
				"element": "H" 
			},
			{
				"x": -2.889640109,
				"y": 1.2387471454,
				"z": -2.4954835864,
				"element": "H" 
			}
		],
		 "valence_orbital": [ 
			{
				"type": "occ",
				"energy": -0.30777,
				"method": "rhf"
			},
			{
				"type": "occ",
				"energy": -0.30306,
				"method": "rhf"
			},
			{
				"type": "occ",
				"energy": -0.27964,
				"method": "rhf"
			},
			{
				"type": "occ",
				"energy": -0.25674,
				"method": "rhf"
			},
			{
				"type": "occ",
				"energy": -0.21911,
				"method": "rhf"
			},
			{
				"type": "unocc",
				"energy": -0.01174,
				"method": "rhf"
			},
			{
				"type": "unocc",
				"energy": 6e-05,
				"method": "rhf"
			},
			{
				"type": "unocc",
				"energy": 0.00241,
				"method": "rhf"
			},
			{
				"type": "unocc",
				"energy": 0.03327,
				"method": "rhf"
			},
			{
				"type": "unocc",
				"energy": 0.0476,
				"method": "rhf"
			}
		],
		"cosmo_sigma_profile": { 
			"-0.025": 0.0,
			"-0.024": 0.0,
			"-0.023": 0.0,
			"-0.022": 0.0,
			"-0.021": 0.0,
			"-0.02": 0.0,
			"-0.019": 0.552778600798,
			"-0.018": 1.14907209806,
			"-0.017": 1.13174545631,
			"-0.016": 0.969931122258,
			"-0.015": 1.00090153868,
			"-0.014": 1.24435945447,
			"-0.013": 1.11655426899,
			"-0.012": 0.993286588207,
			"-0.011": 1.26727072719,
			"-0.01": 0.871228205325,
			"-0.009": 1.45652577684,
			"-0.008": 2.6416455459,
			"-0.007": 6.95692928873,
			"-0.006": 11.6831689301,
			"-0.005": 13.295548526,
			"-0.004": 20.730114997,
			"-0.003": 21.64449117,
			"-0.002": 19.9894152387,
			"-0.001": 17.6325939724,
			"0.0": 19.7269384878,
			"0.001": 15.8738121747,
			"0.002": 17.2994106491,
			"0.003": 18.0640858033,
			"0.004": 21.2602752931,
			"0.005": 17.2533259522,
			"0.006": 5.59301693296,
			"0.007": 3.43521160084,
			"0.008": 3.50582683296,
			"0.009": 3.71209158723,
			"0.01": 3.86647067586,
			"0.011": 5.56650473694,
			"0.012": 4.48203017068,
			"0.013": 1.63842606502,
			"0.014": 0.0606127353383,
			"0.015": 0.0,
			"0.016": 0.0,
			"0.017": 0.0,
			"0.018": 0.0,
			"0.019": 0.0,
			"0.02": 0.0,
			"0.021": 0.0,
			"0.022": 0.0,
			"0.023": 0.0,
			"0.024": 0.0,
			"0.025": 0.0
		}
	}
}
