{
	 "smiles": "COCCOC1=C(OC)C=C(C=C1)C(C)=O", 
	 "Tm": 359.15, 
	 "num_atms": 32, 
	 "gaussian": { 
		 "optdone": 1, 
		 "sigma_profile": "yes", 
		 "theory": "DFT", 
		 "functional": "B3LYP", 
		 "basiset": "6-31G**", 
		 "properties": { 
			 "R2extent": 5143.1037, 
			 "electric_dipole_moment_norm": 4.5874253389, 
			 "electric_quadrupole_moment_norm": 9.70598046258, 
			 "total_energy": -767.776714675, 
			 "HOMO_LUMO_gap": 0.1684, 
			 "cosmo_polarized_energy": -14.02, 
			 "cosmo_cavitation_energy": 35.44, 
			 "cosmo_dispersion_energy": -25.3, 
			 "cosmo_repulsion_energy": 2.02, 
			 "cosmo_total_nonelectrostatic_energy": 12.16, 
			 "SMD_solvation_energy": 8.46 
		},
		"coords": [
			{
				"x": 4.4456589945,
				"y": -1.8441890439,
				"z": 1.0849744148,
				"element": "C" 
			},
			{
				"x": 3.190076596,
				"y": -1.9627692526,
				"z": 0.4473305048,
				"element": "O" 
			},
			{
				"x": 3.2359083016,
				"y": -1.646341291,
				"z": -0.9286063646,
				"element": "C" 
			},
			{
				"x": 1.8397499557,
				"y": -1.7008277166,
				"z": -1.5273483304,
				"element": "C" 
			},
			{
				"x": 1.0519742925,
				"y": -0.5492156651,
				"z": -1.2282277523,
				"element": "O" 
			},
			{
				"x": 0.1210861443,
				"y": -0.5781553166,
				"z": -0.2358032745,
				"element": "C" 
			},
			{
				"x": -0.8937200899,
				"y": 0.4144318172,
				"z": -0.3301580979,
				"element": "C" 
			},
			{
				"x": -0.7947010377,
				"y": 1.2553057052,
				"z": -1.3975005594,
				"element": "O" 
			},
			{
				"x": -1.7828870813,
				"y": 2.264422113,
				"z": -1.5325571225,
				"element": "C" 
			},
			{
				"x": -1.8911395415,
				"y": 0.4620104478,
				"z": 0.632288286,
				"element": "C" 
			},
			{
				"x": -1.9148677672,
				"y": -0.4578002448,
				"z": 1.6995874447,
				"element": "C" 
			},
			{
				"x": -0.9083026457,
				"y": -1.4221547261,
				"z": 1.787197158,
				"element": "C" 
			},
			{
				"x": 0.1067233391,
				"y": -1.4791918873,
				"z": 0.8284801933,
				"element": "C" 
			},
			{
				"x": -3.0245493972,
				"y": -0.3421376253,
				"z": 2.6886872754,
				"element": "C" 
			},
			{
				"x": -3.0784674416,
				"y": -1.3233430769,
				"z": 3.8506330543,
				"element": "C" 
			},
			{
				"x": -3.8830025318,
				"y": 0.5241449102,
				"z": 2.5755450266,
				"element": "O" 
			},
			{
				"x": 5.190675403,
				"y": -2.5274119095,
				"z": 0.6476127691,
				"element": "H" 
			},
			{
				"x": 4.3015542007,
				"y": -2.1040343138,
				"z": 2.1359949388,
				"element": "H" 
			},
			{
				"x": 4.8380137757,
				"y": -0.8178371994,
				"z": 1.0217038845,
				"element": "H" 
			},
			{
				"x": 3.656240028,
				"y": -0.6404647901,
				"z": -1.0889142306,
				"element": "H" 
			},
			{
				"x": 3.8767323691,
				"y": -2.3655042713,
				"z": -1.469366631,
				"element": "H" 
			},
			{
				"x": 1.9359030057,
				"y": -1.7064318145,
				"z": -2.6185942457,
				"element": "H" 
			},
			{
				"x": 1.327549604,
				"y": -2.6202738774,
				"z": -1.2221576594,
				"element": "H" 
			},
			{
				"x": -2.7868218775,
				"y": 1.8361403523,
				"z": -1.6486536466,
				"element": "H" 
			},
			{
				"x": -1.7854481481,
				"y": 2.9467357849,
				"z": -0.6729119904,
				"element": "H" 
			},
			{
				"x": -1.5215326255,
				"y": 2.8206952616,
				"z": -2.4341536366,
				"element": "H" 
			},
			{
				"x": -2.6862994658,
				"y": 1.1959189297,
				"z": 0.5928267961,
				"element": "H" 
			},
			{
				"x": -0.8917457192,
				"y": -2.1331964873,
				"z": 2.6062768158,
				"element": "H" 
			},
			{
				"x": 0.9153213252,
				"y": -2.1914009842,
				"z": 0.9327103992,
				"element": "H" 
			},
			{
				"x": -3.1511590038,
				"y": -2.3558789298,
				"z": 3.4920613639,
				"element": "H" 
			},
			{
				"x": -3.9508417095,
				"y": -1.0902381542,
				"z": 4.4618731538,
				"element": "H" 
			},
			{
				"x": -2.1749812518,
				"y": -1.2546067443,
				"z": 4.4663700628,
				"element": "H" 
			}
		],
		 "valence_orbital": [ 
			{
				"type": "occ",
				"energy": -0.30434,
				"method": "rhf"
			},
			{
				"type": "occ",
				"energy": -0.26883,
				"method": "rhf"
			},
			{
				"type": "occ",
				"energy": -0.23501,
				"method": "rhf"
			},
			{
				"type": "occ",
				"energy": -0.23442,
				"method": "rhf"
			},
			{
				"type": "occ",
				"energy": -0.20597,
				"method": "rhf"
			},
			{
				"type": "unocc",
				"energy": -0.03757,
				"method": "rhf"
			},
			{
				"type": "unocc",
				"energy": 0.01177,
				"method": "rhf"
			},
			{
				"type": "unocc",
				"energy": 0.0605,
				"method": "rhf"
			},
			{
				"type": "unocc",
				"energy": 0.08207,
				"method": "rhf"
			},
			{
				"type": "unocc",
				"energy": 0.09433,
				"method": "rhf"
			}
		],
		"cosmo_sigma_profile": { 
			"-0.025": 0.0,
			"-0.024": 0.0,
			"-0.023": 0.0,
			"-0.022": 0.0,
			"-0.021": 0.0,
			"-0.02": 0.0,
			"-0.019": 0.0,
			"-0.018": 0.0,
			"-0.017": 0.0,
			"-0.016": 0.0,
			"-0.015": 0.0,
			"-0.014": 0.0,
			"-0.013": 0.0,
			"-0.012": 0.0,
			"-0.011": 0.0,
			"-0.01": 0.0,
			"-0.009": 0.0,
			"-0.008": 0.0,
			"-0.007": 0.994648079609,
			"-0.006": 14.35372068,
			"-0.005": 29.7035678425,
			"-0.004": 38.2335583673,
			"-0.003": 34.6625336408,
			"-0.002": 26.5348581051,
			"-0.001": 17.6455945818,
			"0.0": 13.5999672717,
			"0.001": 10.589642634,
			"0.002": 13.5262700615,
			"0.003": 14.8044975787,
			"0.004": 15.4581896215,
			"0.005": 9.53555744847,
			"0.006": 6.46336916409,
			"0.007": 5.73772139052,
			"0.008": 4.56202091662,
			"0.009": 3.94592337989,
			"0.01": 3.72044632847,
			"0.011": 3.93241290416,
			"0.012": 5.56392689913,
			"0.013": 4.03628264921,
			"0.014": 1.8502754536,
			"0.015": 0.133392565536,
			"0.016": 0.0,
			"0.017": 0.0,
			"0.018": 0.0,
			"0.019": 0.0,
			"0.02": 0.0,
			"0.021": 0.0,
			"0.022": 0.0,
			"0.023": 0.0,
			"0.024": 0.0,
			"0.025": 0.0
		}
	}
}
