{
	 "smiles": "OC(=O)CCC(=O)NCC(=O)C1=C(F)C=C(F)C=C1", 
	 "Tm": 447.15, 
	 "num_atms": 30, 
	 "gaussian": { 
		 "optdone": 1, 
		 "sigma_profile": "yes", 
		 "theory": "DFT", 
		 "functional": "B3LYP", 
		 "basiset": "6-31G**", 
		 "properties": { 
			 "R2extent": 8851.7816, 
			 "electric_dipole_moment_norm": 5.08346780358, 
			 "electric_quadrupole_moment_norm": 19.0598023439, 
			 "total_energy": -1019.2576275, 
			 "HOMO_LUMO_gap": 0.17304, 
			 "cosmo_polarized_energy": -20.33, 
			 "cosmo_cavitation_energy": 36.76, 
			 "cosmo_dispersion_energy": -26.05, 
			 "cosmo_repulsion_energy": 1.98, 
			 "cosmo_total_nonelectrostatic_energy": 12.7, 
			 "SMD_solvation_energy": 8.25 
		},
		"coords": [
			{
				"x": 0.9358905071,
				"y": 1.6140429431,
				"z": 4.7644934598,
				"element": "O" 
			},
			{
				"x": 0.2731857301,
				"y": 2.791125278,
				"z": 4.621860177,
				"element": "C" 
			},
			{
				"x": -0.5681398675,
				"y": 3.1598847231,
				"z": 5.4083904854,
				"element": "O" 
			},
			{
				"x": 0.7730203181,
				"y": 3.598951772,
				"z": 3.4406642386,
				"element": "C" 
			},
			{
				"x": 1.3059159572,
				"y": 2.7811205282,
				"z": 2.2639481591,
				"element": "C" 
			},
			{
				"x": 0.215191675,
				"y": 1.9089372653,
				"z": 1.6424323171,
				"element": "C" 
			},
			{
				"x": -0.9111408459,
				"y": 1.817866477,
				"z": 2.1212404757,
				"element": "O" 
			},
			{
				"x": 0.5827633219,
				"y": 1.2373636259,
				"z": 0.5172524643,
				"element": "N" 
			},
			{
				"x": -0.3229663321,
				"y": 0.3414111309,
				"z": -0.1559079242,
				"element": "C" 
			},
			{
				"x": 0.401424002,
				"y": -0.3290949106,
				"z": -1.3142992583,
				"element": "C" 
			},
			{
				"x": 1.5762690793,
				"y": -0.0587399566,
				"z": -1.5342616632,
				"element": "O" 
			},
			{
				"x": -0.3136989762,
				"y": -1.3107498117,
				"z": -2.1822043644,
				"element": "C" 
			},
			{
				"x": -1.6514925213,
				"y": -1.7062989166,
				"z": -2.0375601528,
				"element": "C" 
			},
			{
				"x": -2.407445166,
				"y": -1.1900027703,
				"z": -1.048627563,
				"element": "F" 
			},
			{
				"x": -2.2597724939,
				"y": -2.6272440754,
				"z": -2.8807272094,
				"element": "C" 
			},
			{
				"x": -1.4936679678,
				"y": -3.1688706287,
				"z": -3.9054107486,
				"element": "C" 
			},
			{
				"x": -2.0633189593,
				"y": -4.0597327346,
				"z": -4.7298717867,
				"element": "F" 
			},
			{
				"x": -0.1584751113,
				"y": -2.81750239,
				"z": -4.1026645438,
				"element": "C" 
			},
			{
				"x": 0.4119784933,
				"y": -1.8942842495,
				"z": -3.2390371714,
				"element": "C" 
			},
			{
				"x": 0.5471925974,
				"y": 1.1885902987,
				"z": 5.54675345,
				"element": "H" 
			},
			{
				"x": 1.5709237358,
				"y": 4.2504462575,
				"z": 3.8194505579,
				"element": "H" 
			},
			{
				"x": -0.0535108533,
				"y": 4.2427878125,
				"z": 3.1350398672,
				"element": "H" 
			},
			{
				"x": 1.712777002,
				"y": 3.452907738,
				"z": 1.4981848183,
				"element": "H" 
			},
			{
				"x": 2.1298266122,
				"y": 2.1363894701,
				"z": 2.5890626995,
				"element": "H" 
			},
			{
				"x": 1.5190054981,
				"y": 1.2873905096,
				"z": 0.1363140191,
				"element": "H" 
			},
			{
				"x": -0.7161119341,
				"y": -0.4206678328,
				"z": 0.5292671905,
				"element": "H" 
			},
			{
				"x": -1.2091259379,
				"y": 0.8691342447,
				"z": -0.5323622685,
				"element": "H" 
			},
			{
				"x": -3.2957012698,
				"y": -2.9092821086,
				"z": -2.7390760697,
				"element": "H" 
			},
			{
				"x": 0.4012018211,
				"y": -3.2656293169,
				"z": -4.9154185642,
				"element": "H" 
			},
			{
				"x": 1.4467018859,
				"y": -1.5909503724,
				"z": -3.3538250912,
				"element": "H" 
			}
		],
		 "valence_orbital": [ 
			{
				"type": "occ",
				"energy": -0.2833,
				"method": "rhf"
			},
			{
				"type": "occ",
				"energy": -0.27526,
				"method": "rhf"
			},
			{
				"type": "occ",
				"energy": -0.26094,
				"method": "rhf"
			},
			{
				"type": "occ",
				"energy": -0.25423,
				"method": "rhf"
			},
			{
				"type": "occ",
				"energy": -0.24953,
				"method": "rhf"
			},
			{
				"type": "unocc",
				"energy": -0.07649,
				"method": "rhf"
			},
			{
				"type": "unocc",
				"energy": -0.03304,
				"method": "rhf"
			},
			{
				"type": "unocc",
				"energy": 0.01687,
				"method": "rhf"
			},
			{
				"type": "unocc",
				"energy": 0.02472,
				"method": "rhf"
			},
			{
				"type": "unocc",
				"energy": 0.0307,
				"method": "rhf"
			}
		],
		"cosmo_sigma_profile": { 
			"-0.025": 0.0,
			"-0.024": 0.0,
			"-0.023": 0.0,
			"-0.022": 0.0,
			"-0.021": 0.0,
			"-0.02": 0.0,
			"-0.019": 0.0,
			"-0.018": 0.440151227306,
			"-0.017": 0.877838991554,
			"-0.016": 0.768757030626,
			"-0.015": 1.13195146035,
			"-0.014": 0.593148198359,
			"-0.013": 0.494802766651,
			"-0.012": 0.778418948086,
			"-0.011": 1.74158290573,
			"-0.01": 2.25621741282,
			"-0.009": 3.38509798815,
			"-0.008": 5.86059396516,
			"-0.007": 12.6467925307,
			"-0.006": 17.8667241348,
			"-0.005": 18.7238333583,
			"-0.004": 18.4281619624,
			"-0.003": 16.74985361,
			"-0.002": 19.0381302193,
			"-0.001": 28.391660253,
			"0.0": 23.3457295971,
			"0.001": 19.8987242179,
			"0.002": 15.5349430822,
			"0.003": 18.0551443864,
			"0.004": 8.49675899506,
			"0.005": 5.72508639148,
			"0.006": 4.53645570451,
			"0.007": 6.5148274398,
			"0.008": 6.22088383343,
			"0.009": 5.9830630603,
			"0.01": 6.44923274103,
			"0.011": 6.43734346316,
			"0.012": 7.35279956279,
			"0.013": 5.70869387783,
			"0.014": 2.18568981865,
			"0.015": 0.0253252070211,
			"0.016": 0.0,
			"0.017": 0.0,
			"0.018": 0.0,
			"0.019": 0.0,
			"0.02": 0.0,
			"0.021": 0.0,
			"0.022": 0.0,
			"0.023": 0.0,
			"0.024": 0.0,
			"0.025": 0.0
		}
	}
}
