{
	 "smiles": "CC1=C(C(C)=NO1)S(N)(=O)=O", 
	 "Tm": 425.15, 
	 "num_atms": 19, 
	 "gaussian": { 
		 "optdone": 1, 
		 "sigma_profile": "yes", 
		 "theory": "DFT", 
		 "functional": "B3LYP", 
		 "basiset": "6-31G**", 
		 "properties": { 
			 "R2extent": 2411.4775, 
			 "electric_dipole_moment_norm": 3.35231348474, 
			 "electric_quadrupole_moment_norm": 11.1831580862, 
			 "total_energy": -928.603425177, 
			 "HOMO_LUMO_gap": 0.23854, 
			 "cosmo_polarized_energy": -15.89, 
			 "cosmo_cavitation_energy": 24.44, 
			 "cosmo_dispersion_energy": -18.32, 
			 "cosmo_repulsion_energy": 1.44, 
			 "cosmo_total_nonelectrostatic_energy": 7.56, 
			 "SMD_solvation_energy": 4.21 
		},
		"coords": [
			{
				"x": 1.7775683217,
				"y": 0.4353150915,
				"z": -1.8667059748,
				"element": "C" 
			},
			{
				"x": 2.0400101062,
				"y": 0.4548349089,
				"z": -0.4032532955,
				"element": "C" 
			},
			{
				"x": 1.2559441272,
				"y": 0.7061508157,
				"z": 0.6944906431,
				"element": "C" 
			},
			{
				"x": 2.1281889821,
				"y": 0.542791192,
				"z": 1.822745395,
				"element": "C" 
			},
			{
				"x": 1.8495557161,
				"y": 0.7017272505,
				"z": 3.2836866844,
				"element": "C" 
			},
			{
				"x": 3.3350149319,
				"y": 0.2167288458,
				"z": 1.4222243609,
				"element": "N" 
			},
			{
				"x": 3.2758716861,
				"y": 0.1604287041,
				"z": 0.0143211331,
				"element": "O" 
			},
			{
				"x": -0.4401923747,
				"y": 1.1705110519,
				"z": 0.671927913,
				"element": "S" 
			},
			{
				"x": -1.2025685145,
				"y": -0.2491297119,
				"z": 0.1404938275,
				"element": "N" 
			},
			{
				"x": -0.6682995525,
				"y": 2.1386132425,
				"z": -0.4043258107,
				"element": "O" 
			},
			{
				"x": -0.8204210025,
				"y": 1.4645557626,
				"z": 2.0568574488,
				"element": "O" 
			},
			{
				"x": 1.0284457647,
				"y": 1.1882229076,
				"z": -2.1188667147,
				"element": "H" 
			},
			{
				"x": 1.3929686124,
				"y": -0.544766549,
				"z": -2.1708639144,
				"element": "H" 
			},
			{
				"x": 2.7012031209,
				"y": 0.6299570821,
				"z": -2.4157999259,
				"element": "H" 
			},
			{
				"x": 1.0718246357,
				"y": 0.006774896,
				"z": 3.6117518217,
				"element": "H" 
			},
			{
				"x": 1.4854637606,
				"y": 1.7092070988,
				"z": 3.4984807171,
				"element": "H" 
			},
			{
				"x": 2.7646947898,
				"y": 0.5127401942,
				"z": 3.8477013472,
				"element": "H" 
			},
			{
				"x": -2.0072551599,
				"y": 0.0206458142,
				"z": -0.4217396066,
				"element": "H" 
			},
			{
				"x": -1.4936179513,
				"y": -0.8156085974,
				"z": 0.9344739507,
				"element": "H" 
			}
		],
		 "valence_orbital": [ 
			{
				"type": "occ",
				"energy": -0.31605,
				"method": "rhf"
			},
			{
				"type": "occ",
				"energy": -0.31285,
				"method": "rhf"
			},
			{
				"type": "occ",
				"energy": -0.31059,
				"method": "rhf"
			},
			{
				"type": "occ",
				"energy": -0.29627,
				"method": "rhf"
			},
			{
				"type": "occ",
				"energy": -0.27063,
				"method": "rhf"
			},
			{
				"type": "unocc",
				"energy": -0.03209,
				"method": "rhf"
			},
			{
				"type": "unocc",
				"energy": 0.01018,
				"method": "rhf"
			},
			{
				"type": "unocc",
				"energy": 0.05228,
				"method": "rhf"
			},
			{
				"type": "unocc",
				"energy": 0.07019,
				"method": "rhf"
			},
			{
				"type": "unocc",
				"energy": 0.07883,
				"method": "rhf"
			}
		],
		"cosmo_sigma_profile": { 
			"-0.025": 0.0,
			"-0.024": 0.0,
			"-0.023": 0.0,
			"-0.022": 0.0,
			"-0.021": 0.0,
			"-0.02": 0.0,
			"-0.019": 0.0,
			"-0.018": 0.0,
			"-0.017": 0.0,
			"-0.016": 0.0808921589072,
			"-0.015": 1.87603488668,
			"-0.014": 2.5571443882,
			"-0.013": 3.54069771976,
			"-0.012": 2.46430721246,
			"-0.011": 1.71071092023,
			"-0.01": 1.71820435312,
			"-0.009": 2.18373927729,
			"-0.008": 1.69049430705,
			"-0.007": 5.09821707801,
			"-0.006": 7.68570121917,
			"-0.005": 12.4163181932,
			"-0.004": 15.2039059963,
			"-0.003": 18.1029143025,
			"-0.002": 17.4841572023,
			"-0.001": 13.0736046753,
			"0.0": 8.40945320387,
			"0.001": 7.22501536217,
			"0.002": 6.55031871249,
			"0.003": 5.8093024397,
			"0.004": 5.38773793268,
			"0.005": 5.51759991835,
			"0.006": 6.55735656288,
			"0.007": 7.71887995477,
			"0.008": 6.61687862234,
			"0.009": 6.0706110806,
			"0.01": 7.83114656895,
			"0.011": 9.42627369072,
			"0.012": 2.40736677209,
			"0.013": 1.33196783678,
			"0.014": 0.143387669084,
			"0.015": 0.0,
			"0.016": 0.0,
			"0.017": 0.0,
			"0.018": 0.0,
			"0.019": 0.0,
			"0.02": 0.0,
			"0.021": 0.0,
			"0.022": 0.0,
			"0.023": 0.0,
			"0.024": 0.0,
			"0.025": 0.0
		}
	}
}
