{
	 "smiles": "CCCN(CCC)C1=C(C=C(C=C1[N+]([O-])=O)S(C)(=O)=O)[N+]([O-])=O", 
	 "Tm": 423.15, 
	 "num_atms": 42, 
	 "gaussian": { 
		 "optdone": 1, 
		 "sigma_profile": "yes", 
		 "theory": "DFT", 
		 "functional": "B3LYP", 
		 "basiset": "6-31G**", 
		 "properties": { 
			 "R2extent": 9936.1885, 
			 "electric_dipole_moment_norm": 4.97229974157, 
			 "electric_quadrupole_moment_norm": 29.619680621, 
			 "total_energy": -1520.33793948, 
			 "HOMO_LUMO_gap": 0.13337, 
			 "cosmo_polarized_energy": -21.64, 
			 "cosmo_cavitation_energy": 46.92, 
			 "cosmo_dispersion_energy": -31.36, 
			 "cosmo_repulsion_energy": 2.39, 
			 "cosmo_total_nonelectrostatic_energy": 17.96, 
			 "SMD_solvation_energy": 11.92 
		},
		"coords": [
			{
				"x": 0.8098786261,
				"y": 0.4497214624,
				"z": -3.9849002788,
				"element": "C" 
			},
			{
				"x": -0.1441542975,
				"y": 0.5849475771,
				"z": -2.7932069095,
				"element": "C" 
			},
			{
				"x": 0.2576769328,
				"y": -0.3582537938,
				"z": -1.6488537493,
				"element": "C" 
			},
			{
				"x": -0.560091284,
				"y": -0.1616756903,
				"z": -0.4424340157,
				"element": "N" 
			},
			{
				"x": -2.0180565482,
				"y": -0.3117538926,
				"z": -0.5690942774,
				"element": "C" 
			},
			{
				"x": -2.4237263735,
				"y": -1.6892289145,
				"z": -1.1154962359,
				"element": "C" 
			},
			{
				"x": -3.9462989385,
				"y": -1.8631572077,
				"z": -1.105054411,
				"element": "C" 
			},
			{
				"x": 0.0160741167,
				"y": 0.1464081809,
				"z": 0.7594283632,
				"element": "C" 
			},
			{
				"x": 1.2111478849,
				"y": -0.4760018505,
				"z": 1.2326716539,
				"element": "C" 
			},
			{
				"x": 1.822830165,
				"y": -0.1425433862,
				"z": 2.4342763088,
				"element": "C" 
			},
			{
				"x": 1.2214593385,
				"y": 0.7889156706,
				"z": 3.2762243613,
				"element": "C" 
			},
			{
				"x": 0.0259262766,
				"y": 1.3953609886,
				"z": 2.903616077,
				"element": "C" 
			},
			{
				"x": -0.5254968085,
				"y": 1.11401083,
				"z": 1.6591429044,
				"element": "C" 
			},
			{
				"x": -1.6322348881,
				"y": 2.0057769632,
				"z": 1.2646158026,
				"element": "N" 
			},
			{
				"x": -1.6451159768,
				"y": 2.4285977106,
				"z": 0.1091244755,
				"element": "O" 
			},
			{
				"x": -2.4373126265,
				"y": 2.3220575533,
				"z": 2.1385502068,
				"element": "O" 
			},
			{
				"x": 1.9649178802,
				"y": 1.1716146323,
				"z": 4.868775942,
				"element": "S" 
			},
			{
				"x": 3.1042453184,
				"y": 2.5266493446,
				"z": 4.5014231797,
				"element": "C" 
			},
			{
				"x": 0.8997883653,
				"y": 1.7054640754,
				"z": 5.7287958925,
				"element": "O" 
			},
			{
				"x": 2.7708039401,
				"y": 0.0085136766,
				"z": 5.2653316627,
				"element": "O" 
			},
			{
				"x": 1.797898158,
				"y": -1.6463314802,
				"z": 0.5526207406,
				"element": "N" 
			},
			{
				"x": 1.0318128912,
				"y": -2.4847539433,
				"z": 0.0817203589,
				"element": "O" 
			},
			{
				"x": 3.0250675609,
				"y": -1.734038474,
				"z": 0.5528580272,
				"element": "O" 
			},
			{
				"x": 1.8372566616,
				"y": 0.7097711149,
				"z": -3.7066157044,
				"element": "H" 
			},
			{
				"x": 0.5094490231,
				"y": 1.1123782568,
				"z": -4.8016925874,
				"element": "H" 
			},
			{
				"x": 0.8209006322,
				"y": -0.5743095109,
				"z": -4.3744586519,
				"element": "H" 
			},
			{
				"x": -1.1663399126,
				"y": 0.3650314532,
				"z": -3.1217841266,
				"element": "H" 
			},
			{
				"x": -0.1502114226,
				"y": 1.6145455772,
				"z": -2.4186472041,
				"element": "H" 
			},
			{
				"x": 0.221088028,
				"y": -1.4030601778,
				"z": -1.976960241,
				"element": "H" 
			},
			{
				"x": 1.2974856936,
				"y": -0.1470053548,
				"z": -1.385787882,
				"element": "H" 
			},
			{
				"x": -2.4524829395,
				"y": -0.2028820518,
				"z": 0.4279916158,
				"element": "H" 
			},
			{
				"x": -2.4385693318,
				"y": 0.4900081891,
				"z": -1.1863788389,
				"element": "H" 
			},
			{
				"x": -2.0527477754,
				"y": -1.8138160095,
				"z": -2.1393220204,
				"element": "H" 
			},
			{
				"x": -1.9428749749,
				"y": -2.4659685633,
				"z": -0.5107668038,
				"element": "H" 
			},
			{
				"x": -4.4411171778,
				"y": -1.0956024515,
				"z": -1.7105590682,
				"element": "H" 
			},
			{
				"x": -4.3495970338,
				"y": -1.7953318125,
				"z": -0.0886415396,
				"element": "H" 
			},
			{
				"x": -4.2293986186,
				"y": -2.8390751816,
				"z": -1.5099272552,
				"element": "H" 
			},
			{
				"x": 2.7223357065,
				"y": -0.6662776427,
				"z": 2.7370050623,
				"element": "H" 
			},
			{
				"x": -0.4629815615,
				"y": 2.1111332797,
				"z": 3.554609528,
				"element": "H" 
			},
			{
				"x": 3.5791711984,
				"y": 2.7878472598,
				"z": 5.4495131572,
				"element": "H" 
			},
			{
				"x": 3.8522272221,
				"y": 2.1847490012,
				"z": 3.7847582258,
				"element": "H" 
			},
			{
				"x": 2.5404668699,
				"y": 3.3761645918,
				"z": 4.1135282551,
				"element": "H" 
			}
		],
		 "valence_orbital": [ 
			{
				"type": "occ",
				"energy": -0.30957,
				"method": "rhf"
			},
			{
				"type": "occ",
				"energy": -0.30421,
				"method": "rhf"
			},
			{
				"type": "occ",
				"energy": -0.30013,
				"method": "rhf"
			},
			{
				"type": "occ",
				"energy": -0.29521,
				"method": "rhf"
			},
			{
				"type": "occ",
				"energy": -0.24008,
				"method": "rhf"
			},
			{
				"type": "unocc",
				"energy": -0.10671,
				"method": "rhf"
			},
			{
				"type": "unocc",
				"energy": -0.09859,
				"method": "rhf"
			},
			{
				"type": "unocc",
				"energy": -0.0533,
				"method": "rhf"
			},
			{
				"type": "unocc",
				"energy": -0.0361,
				"method": "rhf"
			},
			{
				"type": "unocc",
				"energy": 0.04549,
				"method": "rhf"
			}
		],
		"cosmo_sigma_profile": { 
			"-0.025": 0.0,
			"-0.024": 0.0,
			"-0.023": 0.0,
			"-0.022": 0.0,
			"-0.021": 0.0,
			"-0.02": 0.0,
			"-0.019": 0.0,
			"-0.018": 0.0,
			"-0.017": 0.0,
			"-0.016": 0.0,
			"-0.015": 0.0,
			"-0.014": 0.0,
			"-0.013": 0.0,
			"-0.012": 0.0,
			"-0.011": 0.00453095601439,
			"-0.01": 1.07556683836,
			"-0.009": 7.21527781799,
			"-0.008": 12.2393783057,
			"-0.007": 13.5491632296,
			"-0.006": 14.000231918,
			"-0.005": 16.4742976882,
			"-0.004": 31.4645190571,
			"-0.003": 38.8825547089,
			"-0.002": 37.2042379484,
			"-0.001": 33.0026407319,
			"0.0": 27.6388871652,
			"0.001": 21.8933864908,
			"0.002": 11.4901053296,
			"0.003": 10.4390446803,
			"0.004": 11.3255593473,
			"0.005": 8.83279661619,
			"0.006": 11.1541509569,
			"0.007": 17.220791817,
			"0.008": 13.417154505,
			"0.009": 10.0597443041,
			"0.01": 7.57099080861,
			"0.011": 9.48234061987,
			"0.012": 4.17173907182,
			"0.013": 0.0,
			"0.014": 0.0,
			"0.015": 0.0,
			"0.016": 0.0,
			"0.017": 0.0,
			"0.018": 0.0,
			"0.019": 0.0,
			"0.02": 0.0,
			"0.021": 0.0,
			"0.022": 0.0,
			"0.023": 0.0,
			"0.024": 0.0,
			"0.025": 0.0
		}
	}
}
