{
	 "smiles": "ClC1=CC=C(C=C1)C1=NOC(C=C)=N1", 
	 "Tm": 336.15, 
	 "num_atms": 21, 
	 "gaussian": { 
		 "optdone": 1, 
		 "sigma_profile": "yes", 
		 "theory": "DFT", 
		 "functional": "B3LYP", 
		 "basiset": "6-31G**", 
		 "properties": { 
			 "R2extent": 5402.8193, 
			 "electric_dipole_moment_norm": 2.864768872, 
			 "electric_quadrupole_moment_norm": 8.40431363765, 
			 "total_energy": -1030.1493605, 
			 "HOMO_LUMO_gap": 0.17204, 
			 "cosmo_polarized_energy": -7.49, 
			 "cosmo_cavitation_energy": 28.71, 
			 "cosmo_dispersion_energy": -21.2, 
			 "cosmo_repulsion_energy": 1.64, 
			 "cosmo_total_nonelectrostatic_energy": 9.16, 
			 "SMD_solvation_energy": 3.69 
		},
		"coords": [
			{
				"x": -3.9753624367,
				"y": 4.4835187192,
				"z": -0.0159005891,
				"element": "Cl" 
			},
			{
				"x": -2.6617273085,
				"y": 3.3252254165,
				"z": -0.1449330014,
				"element": "C" 
			},
			{
				"x": -2.4439937896,
				"y": 2.6682627957,
				"z": -1.3556216673,
				"element": "C" 
			},
			{
				"x": -1.4003217947,
				"y": 1.7505819583,
				"z": -1.4517149497,
				"element": "C" 
			},
			{
				"x": -0.5786681895,
				"y": 1.4896633931,
				"z": -0.3468541676,
				"element": "C" 
			},
			{
				"x": -0.8147118655,
				"y": 2.1615684923,
				"z": 0.8626091798,
				"element": "C" 
			},
			{
				"x": -1.8544929947,
				"y": 3.0795776373,
				"z": 0.9679326674,
				"element": "C" 
			},
			{
				"x": 0.5164755259,
				"y": 0.5190912652,
				"z": -0.4673713262,
				"element": "C" 
			},
			{
				"x": 1.3244341991,
				"y": 0.2281267639,
				"z": 0.531159936,
				"element": "N" 
			},
			{
				"x": 2.1951459336,
				"y": -0.7207319339,
				"z": -0.0182434941,
				"element": "O" 
			},
			{
				"x": 1.8144194467,
				"y": -0.900853314,
				"z": -1.2996971099,
				"element": "C" 
			},
			{
				"x": 2.5349882434,
				"y": -1.8387253697,
				"z": -2.1445947003,
				"element": "C" 
			},
			{
				"x": 3.5834536309,
				"y": -2.5631164117,
				"z": -1.73758567,
				"element": "C" 
			},
			{
				"x": 0.7879543236,
				"y": -0.165978716,
				"z": -1.633098701,
				"element": "N" 
			},
			{
				"x": -3.0819578097,
				"y": 2.8730239546,
				"z": -2.2079769684,
				"element": "H" 
			},
			{
				"x": -1.2138713004,
				"y": 1.2289051024,
				"z": -2.3839103664,
				"element": "H" 
			},
			{
				"x": -0.1794182555,
				"y": 1.9605363891,
				"z": 1.7186682658,
				"element": "H" 
			},
			{
				"x": -2.0408174804,
				"y": 3.6011199987,
				"z": 1.8999654863,
				"element": "H" 
			},
			{
				"x": 2.1487249438,
				"y": -1.9090329145,
				"z": -3.156366401,
				"element": "H" 
			},
			{
				"x": 3.9682965293,
				"y": -2.4914292627,
				"z": -0.7253911222,
				"element": "H" 
			},
			{
				"x": 4.0826504489,
				"y": -3.2484339638,
				"z": -2.4138753009,
				"element": "H" 
			}
		],
		 "valence_orbital": [ 
			{
				"type": "occ",
				"energy": -0.31674,
				"method": "rhf"
			},
			{
				"type": "occ",
				"energy": -0.30176,
				"method": "rhf"
			},
			{
				"type": "occ",
				"energy": -0.27505,
				"method": "rhf"
			},
			{
				"type": "occ",
				"energy": -0.26921,
				"method": "rhf"
			},
			{
				"type": "occ",
				"energy": -0.242,
				"method": "rhf"
			},
			{
				"type": "unocc",
				"energy": -0.06996,
				"method": "rhf"
			},
			{
				"type": "unocc",
				"energy": -0.04318,
				"method": "rhf"
			},
			{
				"type": "unocc",
				"energy": -0.0182,
				"method": "rhf"
			},
			{
				"type": "unocc",
				"energy": 0.02664,
				"method": "rhf"
			},
			{
				"type": "unocc",
				"energy": 0.04739,
				"method": "rhf"
			}
		],
		"cosmo_sigma_profile": { 
			"-0.025": 0.0,
			"-0.024": 0.0,
			"-0.023": 0.0,
			"-0.022": 0.0,
			"-0.021": 0.0,
			"-0.02": 0.0,
			"-0.019": 0.0,
			"-0.018": 0.0,
			"-0.017": 0.0,
			"-0.016": 0.0,
			"-0.015": 0.0,
			"-0.014": 0.0,
			"-0.013": 0.0,
			"-0.012": 0.0,
			"-0.011": 0.0,
			"-0.01": 0.0,
			"-0.009": 0.0202373173439,
			"-0.008": 3.8914818487,
			"-0.007": 10.9207531824,
			"-0.006": 11.9804012887,
			"-0.005": 11.9667165047,
			"-0.004": 11.5557413464,
			"-0.003": 13.9332867577,
			"-0.002": 16.521833838,
			"-0.001": 20.5966725861,
			"0.0": 23.3361283638,
			"0.001": 25.1906376458,
			"0.002": 28.0402228225,
			"0.003": 16.5595440155,
			"0.004": 13.9869922005,
			"0.005": 6.26799743473,
			"0.006": 6.0527183035,
			"0.007": 3.5949511997,
			"0.008": 2.09488163192,
			"0.009": 2.20662685866,
			"0.01": 2.84814791998,
			"0.011": 1.83794664068,
			"0.012": 1.15930973488,
			"0.013": 0.0,
			"0.014": 0.0,
			"0.015": 0.0,
			"0.016": 0.0,
			"0.017": 0.0,
			"0.018": 0.0,
			"0.019": 0.0,
			"0.02": 0.0,
			"0.021": 0.0,
			"0.022": 0.0,
			"0.023": 0.0,
			"0.024": 0.0,
			"0.025": 0.0
		}
	}
}
