{
	 "smiles": "OC(=O)COC1=C(CC2=CC=CC=C2)C=CC=C1", 
	 "Tm": 385.15, 
	 "num_atms": 32, 
	 "gaussian": { 
		 "optdone": 1, 
		 "sigma_profile": "yes", 
		 "theory": "DFT", 
		 "functional": "B3LYP", 
		 "basiset": "6-31G**", 
		 "properties": { 
			 "R2extent": 5878.0263, 
			 "electric_dipole_moment_norm": 2.78797367635, 
			 "electric_quadrupole_moment_norm": 17.6447960034, 
			 "total_energy": -805.711072732, 
			 "HOMO_LUMO_gap": 0.21002, 
			 "cosmo_polarized_energy": -14.52, 
			 "cosmo_cavitation_energy": 36.19, 
			 "cosmo_dispersion_energy": -25.06, 
			 "cosmo_repulsion_energy": 1.93, 
			 "cosmo_total_nonelectrostatic_energy": 13.07, 
			 "SMD_solvation_energy": 7.28 
		},
		"coords": [
			{
				"x": -5.3569114961,
				"y": -0.7990422712,
				"z": 1.2383024593,
				"element": "O" 
			},
			{
				"x": -4.4124800957,
				"y": -0.196186286,
				"z": 0.4796001361,
				"element": "C" 
			},
			{
				"x": -4.64042972,
				"y": 0.323884193,
				"z": -0.584864522,
				"element": "O" 
			},
			{
				"x": -3.0663216973,
				"y": -0.2940002381,
				"z": 1.1763280664,
				"element": "C" 
			},
			{
				"x": -2.1216095411,
				"y": 0.400447465,
				"z": 0.4069768419,
				"element": "O" 
			},
			{
				"x": -0.8169865863,
				"y": 0.4329178086,
				"z": 0.8351454441,
				"element": "C" 
			},
			{
				"x": 0.0694091656,
				"y": 1.1444182941,
				"z": -0.0001653566,
				"element": "C" 
			},
			{
				"x": -0.4227908876,
				"y": 1.7821557315,
				"z": -1.2881294711,
				"element": "C" 
			},
			{
				"x": -0.5352368961,
				"y": 0.8060389999,
				"z": -2.4536025032,
				"element": "C" 
			},
			{
				"x": -1.7717849332,
				"y": 0.2596304995,
				"z": -2.8212934221,
				"element": "C" 
			},
			{
				"x": -1.861468864,
				"y": -0.6339364358,
				"z": -3.8911421401,
				"element": "C" 
			},
			{
				"x": -0.7196732646,
				"y": -0.9953692079,
				"z": -4.607658622,
				"element": "C" 
			},
			{
				"x": 0.5172934038,
				"y": -0.4561358786,
				"z": -4.2476505753,
				"element": "C" 
			},
			{
				"x": 0.6053755016,
				"y": 0.4368161211,
				"z": -3.1796476963,
				"element": "C" 
			},
			{
				"x": 1.4051793645,
				"y": 1.2309645021,
				"z": 0.393430676,
				"element": "C" 
			},
			{
				"x": 1.8698283162,
				"y": 0.6290139172,
				"z": 1.5669887915,
				"element": "C" 
			},
			{
				"x": 0.9790550221,
				"y": -0.0731325053,
				"z": 2.3720784031,
				"element": "C" 
			},
			{
				"x": -0.3690446583,
				"y": -0.1713350064,
				"z": 2.0126595988,
				"element": "C" 
			},
			{
				"x": -6.1935660625,
				"y": -0.7225723097,
				"z": 0.7497309875,
				"element": "H" 
			},
			{
				"x": -2.8117200357,
				"y": -1.3587524719,
				"z": 1.2850768262,
				"element": "H" 
			},
			{
				"x": -3.16695021,
				"y": 0.1221175439,
				"z": 2.1893720675,
				"element": "H" 
			},
			{
				"x": 0.2728323141,
				"y": 2.5842282074,
				"z": -1.5589824011,
				"element": "H" 
			},
			{
				"x": -1.3985754143,
				"y": 2.2447499844,
				"z": -1.1145855722,
				"element": "H" 
			},
			{
				"x": -2.6628696232,
				"y": 0.5266233313,
				"z": -2.2611593955,
				"element": "H" 
			},
			{
				"x": -2.8290544641,
				"y": -1.0459994635,
				"z": -4.1652946127,
				"element": "H" 
			},
			{
				"x": -0.7920491089,
				"y": -1.6882810202,
				"z": -5.441438722,
				"element": "H" 
			},
			{
				"x": 1.4125523469,
				"y": -0.7268701992,
				"z": -4.8010367651,
				"element": "H" 
			},
			{
				"x": 1.57194663,
				"y": 0.854982568,
				"z": -2.9076690505,
				"element": "H" 
			},
			{
				"x": 2.0964444576,
				"y": 1.7875317435,
				"z": -0.2346423187,
				"element": "H" 
			},
			{
				"x": 2.9155432661,
				"y": 0.713815213,
				"z": 1.8460177063,
				"element": "H" 
			},
			{
				"x": 1.3203212513,
				"y": -0.5464171702,
				"z": 3.2881631065,
				"element": "H" 
			},
			{
				"x": -1.0521574806,
				"y": -0.7160056594,
				"z": 2.6540920353,
				"element": "H" 
			}
		],
		 "valence_orbital": [ 
			{
				"type": "occ",
				"energy": -0.29137,
				"method": "rhf"
			},
			{
				"type": "occ",
				"energy": -0.24686,
				"method": "rhf"
			},
			{
				"type": "occ",
				"energy": -0.23469,
				"method": "rhf"
			},
			{
				"type": "occ",
				"energy": -0.22903,
				"method": "rhf"
			},
			{
				"type": "occ",
				"energy": -0.21919,
				"method": "rhf"
			},
			{
				"type": "unocc",
				"energy": -0.00917,
				"method": "rhf"
			},
			{
				"type": "unocc",
				"energy": -0.00081,
				"method": "rhf"
			},
			{
				"type": "unocc",
				"energy": 0.00926,
				"method": "rhf"
			},
			{
				"type": "unocc",
				"energy": 0.015,
				"method": "rhf"
			},
			{
				"type": "unocc",
				"energy": 0.01918,
				"method": "rhf"
			}
		],
		"cosmo_sigma_profile": { 
			"-0.025": 0.0,
			"-0.024": 0.0,
			"-0.023": 0.0,
			"-0.022": 0.0,
			"-0.021": 0.0,
			"-0.02": 0.0,
			"-0.019": 0.486860114446,
			"-0.018": 0.902811733715,
			"-0.017": 0.8968014398,
			"-0.016": 0.878511497741,
			"-0.015": 0.608664990181,
			"-0.014": 0.712435793035,
			"-0.013": 0.563057217138,
			"-0.012": 1.03899180616,
			"-0.011": 0.799120692733,
			"-0.01": 0.470315414941,
			"-0.009": 0.466740853501,
			"-0.008": 7.45598839774,
			"-0.007": 9.03798099833,
			"-0.006": 8.66886193914,
			"-0.005": 22.4798110754,
			"-0.004": 21.9720753216,
			"-0.003": 22.6999931359,
			"-0.002": 19.2374921534,
			"-0.001": 17.523760732,
			"0.0": 17.0430666287,
			"0.001": 16.0205782837,
			"0.002": 15.0423960722,
			"0.003": 17.4841828782,
			"0.004": 19.1405473209,
			"0.005": 23.3195366304,
			"0.006": 21.7433469867,
			"0.007": 7.89681180428,
			"0.008": 3.44526059987,
			"0.009": 3.81229805858,
			"0.01": 3.34733371612,
			"0.011": 2.80792535844,
			"0.012": 0.310046133946,
			"0.013": 0.0,
			"0.014": 0.0,
			"0.015": 0.0,
			"0.016": 0.0,
			"0.017": 0.0,
			"0.018": 0.0,
			"0.019": 0.0,
			"0.02": 0.0,
			"0.021": 0.0,
			"0.022": 0.0,
			"0.023": 0.0,
			"0.024": 0.0,
			"0.0": 0.0
		}
	}
}
