{
	 "smiles": "CC1=CC2=C(NC3=C2CC(C)(C)CC3)C=C1", 
	 "Tm": 388.15, 
	 "num_atms": 35, 
	 "gaussian": { 
		 "optdone": 1, 
		 "sigma_profile": "yes", 
		 "theory": "DFT", 
		 "functional": "B3LYP", 
		 "basiset": "6-31G**", 
		 "properties": { 
			 "R2extent": 4504.0699, 
			 "electric_dipole_moment_norm": 2.08915928306, 
			 "electric_quadrupole_moment_norm": 10.7005252198, 
			 "total_energy": -637.838996453, 
			 "HOMO_LUMO_gap": 0.18954, 
			 "cosmo_polarized_energy": -7.76, 
			 "cosmo_cavitation_energy": 34.99, 
			 "cosmo_dispersion_energy": -25.3, 
			 "cosmo_repulsion_energy": 1.95, 
			 "cosmo_total_nonelectrostatic_energy": 11.64, 
			 "SMD_solvation_energy": 4.87 
		},
		"coords": [
			{
				"x": -3.7265937864,
				"y": 0.5196932011,
				"z": 1.8360024964,
				"element": "C" 
			},
			{
				"x": -2.2254777592,
				"y": 0.3346620339,
				"z": 1.8460984442,
				"element": "C" 
			},
			{
				"x": -1.5170155184,
				"y": 0.1535270768,
				"z": 0.6602695279,
				"element": "C" 
			},
			{
				"x": -0.121928507,
				"y": -0.0176199903,
				"z": 0.6898925,
				"element": "C" 
			},
			{
				"x": 0.5453812913,
				"y": -0.0007149417,
				"z": 1.9454544936,
				"element": "C" 
			},
			{
				"x": 1.8935703913,
				"y": -0.1877543718,
				"z": 1.699360149,
				"element": "N" 
			},
			{
				"x": 2.0919867015,
				"y": -0.3176516235,
				"z": 0.3335507914,
				"element": "C" 
			},
			{
				"x": 0.8867830067,
				"y": -0.223567003,
				"z": -0.3177830658,
				"element": "C" 
			},
			{
				"x": 0.7585226039,
				"y": -0.3118539858,
				"z": -1.8122823914,
				"element": "C" 
			},
			{
				"x": 2.0203628806,
				"y": -0.9363435711,
				"z": -2.4723943859,
				"element": "C" 
			},
			{
				"x": 2.0130180963,
				"y": -0.6252832016,
				"z": -3.9787876571,
				"element": "C" 
			},
			{
				"x": 2.0158880483,
				"y": -2.4659592302,
				"z": -2.2769174458,
				"element": "C" 
			},
			{
				"x": 3.2893649837,
				"y": -0.3101727664,
				"z": -1.8360865869,
				"element": "C" 
			},
			{
				"x": 3.4159801706,
				"y": -0.5549429391,
				"z": -0.3183826562,
				"element": "C" 
			},
			{
				"x": -0.1476804879,
				"y": 0.1808257151,
				"z": 3.1452561962,
				"element": "C" 
			},
			{
				"x": -1.526179836,
				"y": 0.3461229582,
				"z": 3.076799712,
				"element": "C" 
			},
			{
				"x": -4.0179304288,
				"y": 1.4810655403,
				"z": 2.276339635,
				"element": "H" 
			},
			{
				"x": -4.1243312076,
				"y": 0.4885173246,
				"z": 0.8175091964,
				"element": "H" 
			},
			{
				"x": -4.2337003447,
				"y": -0.2624509039,
				"z": 2.4140264674,
				"element": "H" 
			},
			{
				"x": -2.0471658816,
				"y": 0.1454721207,
				"z": -0.2893274859,
				"element": "H" 
			},
			{
				"x": 2.6175782185,
				"y": -0.2167543772,
				"z": 2.3984223408,
				"element": "H" 
			},
			{
				"x": -0.124776835,
				"y": -0.9028990819,
				"z": -2.0912009806,
				"element": "H" 
			},
			{
				"x": 0.5912417483,
				"y": 0.6899438371,
				"z": -2.2364794597,
				"element": "H" 
			},
			{
				"x": 2.8665219014,
				"y": -1.0919945462,
				"z": -4.483990238,
				"element": "H" 
			},
			{
				"x": 1.0993340355,
				"y": -1.0026536908,
				"z": -4.4522566865,
				"element": "H" 
			},
			{
				"x": 2.063198666,
				"y": 0.4539934413,
				"z": -4.1629792152,
				"element": "H" 
			},
			{
				"x": 1.9211071819,
				"y": -2.7418810558,
				"z": -1.2227128667,
				"element": "H" 
			},
			{
				"x": 2.9367988928,
				"y": -2.9153686035,
				"z": -2.666866398,
				"element": "H" 
			},
			{
				"x": 1.1735074184,
				"y": -2.9189627972,
				"z": -2.8114838264,
				"element": "H" 
			},
			{
				"x": 4.1818716356,
				"y": -0.6955860246,
				"z": -2.3441603148,
				"element": "H" 
			},
			{
				"x": 3.2672907676,
				"y": 0.7723827072,
				"z": -2.0168867374,
				"element": "H" 
			},
			{
				"x": 3.7590830305,
				"y": -1.5823492153,
				"z": -0.1259584349,
				"element": "H" 
			},
			{
				"x": 4.1879431083,
				"y": 0.1047258214,
				"z": 0.1009606885,
				"element": "H" 
			},
			{
				"x": 0.3687007595,
				"y": 0.1928826343,
				"z": 4.1015605035,
				"element": "H" 
			},
			{
				"x": -2.0868549459,
				"y": 0.4885495088,
				"z": 3.997533691,
				"element": "H" 
			}
		],
		 "valence_orbital": [ 
			{
				"type": "occ",
				"energy": -0.3049,
				"method": "rhf"
			},
			{
				"type": "occ",
				"energy": -0.29849,
				"method": "rhf"
			},
			{
				"type": "occ",
				"energy": -0.25692,
				"method": "rhf"
			},
			{
				"type": "occ",
				"energy": -0.20113,
				"method": "rhf"
			},
			{
				"type": "occ",
				"energy": -0.18619,
				"method": "rhf"
			},
			{
				"type": "unocc",
				"energy": 0.00335,
				"method": "rhf"
			},
			{
				"type": "unocc",
				"energy": 0.0365,
				"method": "rhf"
			},
			{
				"type": "unocc",
				"energy": 0.07205,
				"method": "rhf"
			},
			{
				"type": "unocc",
				"energy": 0.08434,
				"method": "rhf"
			},
			{
				"type": "unocc",
				"energy": 0.08782,
				"method": "rhf"
			}
		],
		"cosmo_sigma_profile": { 
			"-0.025": 0.0,
			"-0.024": 0.0,
			"-0.023": 0.0,
			"-0.022": 0.0,
			"-0.021": 0.0,
			"-0.02": 0.0,
			"-0.019": 0.0,
			"-0.018": 0.0,
			"-0.017": 0.0,
			"-0.016": 0.0,
			"-0.015": 0.457299417448,
			"-0.014": 1.13122914001,
			"-0.013": 1.35126701347,
			"-0.012": 1.70662954013,
			"-0.011": 0.923382382424,
			"-0.01": 0.693336930385,
			"-0.009": 1.35547590359,
			"-0.008": 1.76908789654,
			"-0.007": 1.09126800954,
			"-0.006": 2.17340438025,
			"-0.005": 3.98963434723,
			"-0.004": 10.3346553853,
			"-0.003": 19.5768706308,
			"-0.002": 43.9166776666,
			"-0.001": 42.1257632798,
			"0.0": 34.0078254495,
			"0.001": 31.1968373495,
			"0.002": 19.8485352461,
			"0.003": 8.2732936816,
			"0.004": 9.22010208279,
			"0.005": 8.75344789753,
			"0.006": 11.7868705037,
			"0.007": 10.829929985,
			"0.008": 6.20033459886,
			"0.009": 0.133597922929,
			"0.01": 0.0,
			"0.011": 0.0,
			"0.012": 0.0,
			"0.013": 0.0,
			"0.014": 0.0,
			"0.015": 0.0,
			"0.016": 0.0,
			"0.017": 0.0,
			"0.018": 0.0,
			"0.019": 0.0,
			"0.02": 0.0,
			"0.021": 0.0,
			"0.022": 0.0,
			"0.023": 0.0,
			"0.024": 0.0,
			"0.025": 0.0
		}
	}
}
