{
	 "smiles": "CC(=O)C1=CC(F)=C(C=C1)N1CCCCC1", 
	 "Tm": 341.15, 
	 "num_atms": 32, 
	 "gaussian": { 
		 "optdone": 1, 
		 "sigma_profile": "yes", 
		 "theory": "DFT", 
		 "functional": "B3LYP", 
		 "basiset": "6-31G**", 
		 "properties": { 
			 "R2extent": 5205.4166, 
			 "electric_dipole_moment_norm": 4.7293633747, 
			 "electric_quadrupole_moment_norm": 17.6381752908, 
			 "total_energy": -734.83966752, 
			 "HOMO_LUMO_gap": 0.15659, 
			 "cosmo_polarized_energy": -9.88, 
			 "cosmo_cavitation_energy": 33.65, 
			 "cosmo_dispersion_energy": -24.61, 
			 "cosmo_repulsion_energy": 1.88, 
			 "cosmo_total_nonelectrostatic_energy": 10.93, 
			 "SMD_solvation_energy": 5.24 
		},
		"coords": [
			{
				"x": 3.3681164743,
				"y": -2.0382070275,
				"z": 1.5951951512,
				"element": "C" 
			},
			{
				"x": 2.9144722686,
				"y": -0.6068927295,
				"z": 1.8442553456,
				"element": "C" 
			},
			{
				"x": 3.4969086895,
				"y": 0.0913817376,
				"z": 2.664901579,
				"element": "O" 
			},
			{
				"x": 1.7557831275,
				"y": -0.0793734813,
				"z": 1.0746440875,
				"element": "C" 
			},
			{
				"x": 1.0610649687,
				"y": -0.8339821438,
				"z": 0.1133331487,
				"element": "C" 
			},
			{
				"x": -0.0037629278,
				"y": -0.2840996907,
				"z": -0.569439906,
				"element": "C" 
			},
			{
				"x": -0.5949872173,
				"y": -1.0434225361,
				"z": -1.5325422709,
				"element": "F" 
			},
			{
				"x": -0.4778000432,
				"y": 1.0311131,
				"z": -0.3410038843,
				"element": "C" 
			},
			{
				"x": 0.2457882064,
				"y": 1.7751454554,
				"z": 0.6242096773,
				"element": "C" 
			},
			{
				"x": 1.3269876468,
				"y": 1.2360176604,
				"z": 1.3050471226,
				"element": "C" 
			},
			{
				"x": -1.5403782957,
				"y": 1.5705320452,
				"z": -1.0380188089,
				"element": "N" 
			},
			{
				"x": -1.7397763049,
				"y": 3.0224616389,
				"z": -1.0338255679,
				"element": "C" 
			},
			{
				"x": -2.6612320358,
				"y": 3.4350828243,
				"z": -2.1845584164,
				"element": "C" 
			},
			{
				"x": -4.0655084713,
				"y": 2.8061831805,
				"z": -2.0486645329,
				"element": "C" 
			},
			{
				"x": -3.9966868731,
				"y": 1.4597498597,
				"z": -1.2970642611,
				"element": "C" 
			},
			{
				"x": -2.6615478893,
				"y": 0.7428927003,
				"z": -1.5247934208,
				"element": "C" 
			},
			{
				"x": 3.6658835464,
				"y": -2.1812319785,
				"z": 0.5503174546,
				"element": "H" 
			},
			{
				"x": 2.562824542,
				"y": -2.7507995526,
				"z": 1.8054489211,
				"element": "H" 
			},
			{
				"x": 4.2178849664,
				"y": -2.251484861,
				"z": 2.244224327,
				"element": "H" 
			},
			{
				"x": 1.3490747451,
				"y": -1.847868375,
				"z": -0.1417253405,
				"element": "H" 
			},
			{
				"x": -0.0683102624,
				"y": 2.7858572803,
				"z": 0.8548445042,
				"element": "H" 
			},
			{
				"x": 1.857855695,
				"y": 1.8220503518,
				"z": 2.0477123313,
				"element": "H" 
			},
			{
				"x": -0.7636388477,
				"y": 3.5049720431,
				"z": -1.1496919328,
				"element": "H" 
			},
			{
				"x": -2.1592056176,
				"y": 3.3757856353,
				"z": -0.0758493694,
				"element": "H" 
			},
			{
				"x": -2.7242011041,
				"y": 4.5276455793,
				"z": -2.2186676619,
				"element": "H" 
			},
			{
				"x": -2.1943679402,
				"y": 3.1183307963,
				"z": -3.1242633493,
				"element": "H" 
			},
			{
				"x": -4.7374478696,
				"y": 3.4873791101,
				"z": -1.5148545415,
				"element": "H" 
			},
			{
				"x": -4.4975446608,
				"y": 2.6637258661,
				"z": -3.0453527382,
				"element": "H" 
			},
			{
				"x": -4.8129636524,
				"y": 0.7988597851,
				"z": -1.6080409902,
				"element": "H" 
			},
			{
				"x": -4.1211547944,
				"y": 1.6225523001,
				"z": -0.2198826499,
				"element": "H" 
			},
			{
				"x": -2.5374493377,
				"y": 0.5038236434,
				"z": -2.5903700003,
				"element": "H" 
			},
			{
				"x": -2.6573807314,
				"y": -0.2046802174,
				"z": -0.986524007,
				"element": "H" 
			}
		],
		 "valence_orbital": [ 
			{
				"type": "occ",
				"energy": -0.32545,
				"method": "rhf"
			},
			{
				"type": "occ",
				"energy": -0.28326,
				"method": "rhf"
			},
			{
				"type": "occ",
				"energy": -0.24894,
				"method": "rhf"
			},
			{
				"type": "occ",
				"energy": -0.23532,
				"method": "rhf"
			},
			{
				"type": "occ",
				"energy": -0.19695,
				"method": "rhf"
			},
			{
				"type": "unocc",
				"energy": -0.04036,
				"method": "rhf"
			},
			{
				"type": "unocc",
				"energy": 0.00123,
				"method": "rhf"
			},
			{
				"type": "unocc",
				"energy": 0.05476,
				"method": "rhf"
			},
			{
				"type": "unocc",
				"energy": 0.06813,
				"method": "rhf"
			},
			{
				"type": "unocc",
				"energy": 0.0876,
				"method": "rhf"
			}
		],
		"cosmo_sigma_profile": { 
			"-0.025": 0.0,
			"-0.024": 0.0,
			"-0.023": 0.0,
			"-0.022": 0.0,
			"-0.021": 0.0,
			"-0.02": 0.0,
			"-0.019": 0.0,
			"-0.018": 0.0,
			"-0.017": 0.0,
			"-0.016": 0.0,
			"-0.015": 0.0,
			"-0.014": 0.0,
			"-0.013": 0.0,
			"-0.012": 0.0,
			"-0.011": 0.0,
			"-0.01": 0.0,
			"-0.009": 0.0,
			"-0.008": 0.0341315287847,
			"-0.007": 1.49321261135,
			"-0.006": 7.33627156,
			"-0.005": 11.8191224276,
			"-0.004": 20.1849091705,
			"-0.003": 34.5323547903,
			"-0.002": 41.2343038633,
			"-0.001": 31.0158982561,
			"0.0": 23.6473818943,
			"0.001": 16.2343123583,
			"0.002": 14.9317518344,
			"0.003": 16.4040100281,
			"0.004": 16.5906599634,
			"0.005": 9.61312780944,
			"0.006": 1.5493923967,
			"0.007": 2.2305230361,
			"0.008": 0.962381751491,
			"0.009": 1.68528803376,
			"0.01": 2.04944568034,
			"0.011": 2.43056172006,
			"0.012": 3.33075455508,
			"0.013": 3.90643897211,
			"0.014": 1.14944008244,
			"0.015": 0.0100830079506,
			"0.016": 0.0,
			"0.017": 0.0,
			"0.018": 0.0,
			"0.019": 0.0,
			"0.02": 0.0,
			"0.021": 0.0,
			"0.022": 0.0,
			"0.023": 0.0,
			"0.024": 0.0,
			"0.025": 0.0
		}
	}
}
