{
	 "smiles": "CC(=O)NCC1=CC=C(C=C1)C(O)=O", 
	 "Tm": 462.15, 
	 "num_atms": 25, 
	 "gaussian": { 
		 "optdone": 1, 
		 "sigma_profile": "yes", 
		 "theory": "DFT", 
		 "functional": "B3LYP", 
		 "basiset": "6-31G**", 
		 "properties": { 
			 "R2extent": 4061.141, 
			 "electric_dipole_moment_norm": 1.88009547896, 
			 "electric_quadrupole_moment_norm": 23.9027283006, 
			 "total_energy": -668.153418125, 
			 "HOMO_LUMO_gap": 0.19526, 
			 "cosmo_polarized_energy": -18.35, 
			 "cosmo_cavitation_energy": 29.85, 
			 "cosmo_dispersion_energy": -21.25, 
			 "cosmo_repulsion_energy": 1.68, 
			 "cosmo_total_nonelectrostatic_energy": 10.28, 
			 "SMD_solvation_energy": 6.81 
		},
		"coords": [
			{
				"x": -1.5147002573,
				"y": 0.2658280758,
				"z": -3.8838004172,
				"element": "C" 
			},
			{
				"x": -2.4600558248,
				"y": -0.439520757,
				"z": -2.9235772874,
				"element": "C" 
			},
			{
				"x": -3.1062927499,
				"y": -1.4264388214,
				"z": -3.2460252207,
				"element": "O" 
			},
			{
				"x": -2.5781522503,
				"y": 0.0933821895,
				"z": -1.6585203628,
				"element": "N" 
			},
			{
				"x": -1.8183340767,
				"y": 1.1767779072,
				"z": -1.0694819762,
				"element": "C" 
			},
			{
				"x": -0.5653462406,
				"y": 0.7754376193,
				"z": -0.2960663,
				"element": "C" 
			},
			{
				"x": -0.0902398353,
				"y": -0.5391456182,
				"z": -0.2759203353,
				"element": "C" 
			},
			{
				"x": 1.0656827211,
				"y": -0.8659410493,
				"z": 0.4337313658,
				"element": "C" 
			},
			{
				"x": 1.7626589967,
				"y": 0.1241196577,
				"z": 1.1354242103,
				"element": "C" 
			},
			{
				"x": 1.2890849077,
				"y": 1.444573554,
				"z": 1.1200633636,
				"element": "C" 
			},
			{
				"x": 0.1372270877,
				"y": 1.7627758882,
				"z": 0.4126715343,
				"element": "C" 
			},
			{
				"x": 2.9981393025,
				"y": -0.1656572644,
				"z": 1.9083295179,
				"element": "C" 
			},
			{
				"x": 3.3651508294,
				"y": -1.4709281486,
				"z": 1.8560955988,
				"element": "O" 
			},
			{
				"x": 3.6366165357,
				"y": 0.6591423093,
				"z": 2.5326570607,
				"element": "O" 
			},
			{
				"x": -1.8583001851,
				"y": 1.2827688838,
				"z": -4.1031173115,
				"element": "H" 
			},
			{
				"x": -1.4956358082,
				"y": -0.3071808065,
				"z": -4.8101299261,
				"element": "H" 
			},
			{
				"x": -0.5001164924,
				"y": 0.3348855421,
				"z": -3.4784000601,
				"element": "H" 
			},
			{
				"x": -3.1933258601,
				"y": -0.4413525159,
				"z": -1.0587621929,
				"element": "H" 
			},
			{
				"x": -1.5384352443,
				"y": 1.8805797001,
				"z": -1.8601754288,
				"element": "H" 
			},
			{
				"x": -2.4815121543,
				"y": 1.7384038642,
				"z": -0.3998548266,
				"element": "H" 
			},
			{
				"x": -0.628962409,
				"y": -1.3122601124,
				"z": -0.8141299027,
				"element": "H" 
			},
			{
				"x": 1.4279879301,
				"y": -1.8876784659,
				"z": 0.4452943325,
				"element": "H" 
			},
			{
				"x": 1.8389560735,
				"y": 2.2003252981,
				"z": 1.6707447968,
				"element": "H" 
			},
			{
				"x": -0.2247025944,
				"y": 2.7885794378,
				"z": 0.408582606,
				"element": "H" 
			},
			{
				"x": 4.1737075983,
				"y": -1.5384763676,
				"z": 2.3898671615,
				"element": "H" 
			}
		],
		 "valence_orbital": [ 
			{
				"type": "occ",
				"energy": -0.27991,
				"method": "rhf"
			},
			{
				"type": "occ",
				"energy": -0.26774,
				"method": "rhf"
			},
			{
				"type": "occ",
				"energy": -0.26308,
				"method": "rhf"
			},
			{
				"type": "occ",
				"energy": -0.25679,
				"method": "rhf"
			},
			{
				"type": "occ",
				"energy": -0.24867,
				"method": "rhf"
			},
			{
				"type": "unocc",
				"energy": -0.05341,
				"method": "rhf"
			},
			{
				"type": "unocc",
				"energy": -0.01809,
				"method": "rhf"
			},
			{
				"type": "unocc",
				"energy": 0.02466,
				"method": "rhf"
			},
			{
				"type": "unocc",
				"energy": 0.04801,
				"method": "rhf"
			},
			{
				"type": "unocc",
				"energy": 0.07509,
				"method": "rhf"
			}
		],
		"cosmo_sigma_profile": { 
			"-0.025": 0.0,
			"-0.024": 0.0,
			"-0.023": 0.0,
			"-0.022": 0.0,
			"-0.021": 0.0,
			"-0.02": 0.0,
			"-0.019": 0.0139741832415,
			"-0.018": 0.55990003956,
			"-0.017": 1.23688949758,
			"-0.016": 0.726632805027,
			"-0.015": 0.486853357973,
			"-0.014": 1.00642822325,
			"-0.013": 2.42876487355,
			"-0.012": 1.28743692178,
			"-0.011": 1.48521122718,
			"-0.01": 2.06817302813,
			"-0.009": 1.19001170922,
			"-0.008": 1.62268437687,
			"-0.007": 7.33010569422,
			"-0.006": 17.0724811325,
			"-0.005": 17.5234511515,
			"-0.004": 19.1459882297,
			"-0.003": 16.5994056812,
			"-0.002": 15.2755617291,
			"-0.001": 15.8312260882,
			"0.0": 14.0664300756,
			"0.001": 14.2328480969,
			"0.002": 14.6642373002,
			"0.003": 13.6237827129,
			"0.004": 12.153295591,
			"0.005": 4.51602871081,
			"0.006": 4.21867649477,
			"0.007": 4.22090889268,
			"0.008": 4.33743613434,
			"0.009": 1.72486613768,
			"0.01": 2.94860311471,
			"0.011": 5.32570511203,
			"0.012": 6.23611842165,
			"0.013": 3.44168335863,
			"0.014": 5.85378475301,
			"0.015": 2.16473814829,
			"0.016": 0.0788511800274,
			"0.017": 0.0,
			"0.018": 0.0,
			"0.019": 0.0,
			"0.02": 0.0,
			"0.021": 0.0,
			"0.022": 0.0,
			"0.023": 0.0,
			"0.024": 0.0,
			"0.025": 0.0
		}
	}
}
