{
	 "smiles": "CCOC(=O)C1=CN(CCC#N)N=C1", 
	 "Tm": 361.15, 
	 "num_atms": 25, 
	 "gaussian": { 
		 "optdone": 1, 
		 "sigma_profile": "yes", 
		 "theory": "DFT", 
		 "functional": "B3LYP", 
		 "basiset": "6-31G**", 
		 "properties": { 
			 "R2extent": 4935.0579, 
			 "electric_dipole_moment_norm": 3.47620286088, 
			 "electric_quadrupole_moment_norm": 24.2186149428, 
			 "total_energy": -664.268157314, 
			 "HOMO_LUMO_gap": 0.23569, 
			 "cosmo_polarized_energy": -17.88, 
			 "cosmo_cavitation_energy": 31.38, 
			 "cosmo_dispersion_energy": -21.76, 
			 "cosmo_repulsion_energy": 1.76, 
			 "cosmo_total_nonelectrostatic_energy": 11.39, 
			 "SMD_solvation_energy": 7.46 
		},
		"coords": [
			{
				"x": 2.0052030096,
				"y": -3.4387307459,
				"z": 1.012196609,
				"element": "C" 
			},
			{
				"x": 1.1469067443,
				"y": -2.5915462318,
				"z": 1.9325367554,
				"element": "C" 
			},
			{
				"x": 0.865641766,
				"y": -1.3512951489,
				"z": 1.2451104397,
				"element": "O" 
			},
			{
				"x": 0.1029583356,
				"y": -0.4626541256,
				"z": 1.9280310417,
				"element": "C" 
			},
			{
				"x": -0.3326209812,
				"y": -0.6637999338,
				"z": 3.0453633718,
				"element": "O" 
			},
			{
				"x": -0.1280351352,
				"y": 0.7625445127,
				"z": 1.1547247219,
				"element": "C" 
			},
			{
				"x": 0.3173933836,
				"y": 1.0932968173,
				"z": -0.1174748875,
				"element": "C" 
			},
			{
				"x": -0.1572564653,
				"y": 2.3332707322,
				"z": -0.3818006161,
				"element": "N" 
			},
			{
				"x": 0.0142081765,
				"y": 3.1282618024,
				"z": -1.5850186108,
				"element": "C" 
			},
			{
				"x": -1.3440607275,
				"y": 3.375512082,
				"z": -2.2753175048,
				"element": "C" 
			},
			{
				"x": -1.1947383802,
				"y": 4.1939208218,
				"z": -3.4791711525,
				"element": "C" 
			},
			{
				"x": -1.050226079,
				"y": 4.8400054175,
				"z": -4.4322305942,
				"element": "N" 
			},
			{
				"x": -0.8946466761,
				"y": 2.8400567669,
				"z": 0.6437179603,
				"element": "N" 
			},
			{
				"x": -0.8769427065,
				"y": 1.8915978586,
				"z": 1.5713649439,
				"element": "C" 
			},
			{
				"x": 2.2415149345,
				"y": -4.3907186846,
				"z": 1.4974192624,
				"element": "H" 
			},
			{
				"x": 1.4830265863,
				"y": -3.6517750113,
				"z": 0.0747717807,
				"element": "H" 
			},
			{
				"x": 2.9451905888,
				"y": -2.9315475283,
				"z": 0.77561739,
				"element": "H" 
			},
			{
				"x": 0.1999864165,
				"y": -3.082168564,
				"z": 2.1789711962,
				"element": "H" 
			},
			{
				"x": 1.6542303128,
				"y": -2.3660306565,
				"z": 2.8758281077,
				"element": "H" 
			},
			{
				"x": 0.9255076957,
				"y": 0.543483455,
				"z": -0.8199984368,
				"element": "H" 
			},
			{
				"x": 0.6957323369,
				"y": 2.5929149068,
				"z": -2.2494943899,
				"element": "H" 
			},
			{
				"x": 0.4744895585,
				"y": 4.0831201307,
				"z": -1.316995377,
				"element": "H" 
			},
			{
				"x": -1.8070909357,
				"y": 2.4200891292,
				"z": -2.5458967465,
				"element": "H" 
			},
			{
				"x": -2.0140161424,
				"y": 3.8764778939,
				"z": -1.5695498832,
				"element": "H" 
			},
			{
				"x": -1.3904556166,
				"y": 2.028714304,
				"z": 2.5125946184,
				"element": "H" 
			}
		],
		 "valence_orbital": [ 
			{
				"type": "occ",
				"energy": -0.30866,
				"method": "rhf"
			},
			{
				"type": "occ",
				"energy": -0.30142,
				"method": "rhf"
			},
			{
				"type": "occ",
				"energy": -0.27658,
				"method": "rhf"
			},
			{
				"type": "occ",
				"energy": -0.27545,
				"method": "rhf"
			},
			{
				"type": "occ",
				"energy": -0.26523,
				"method": "rhf"
			},
			{
				"type": "unocc",
				"energy": -0.02954,
				"method": "rhf"
			},
			{
				"type": "unocc",
				"energy": -0.00082,
				"method": "rhf"
			},
			{
				"type": "unocc",
				"energy": 0.02166,
				"method": "rhf"
			},
			{
				"type": "unocc",
				"energy": 0.03014,
				"method": "rhf"
			},
			{
				"type": "unocc",
				"energy": 0.07141,
				"method": "rhf"
			}
		],
		"cosmo_sigma_profile": { 
			"-0.025": 0.0,
			"-0.024": 0.0,
			"-0.023": 0.0,
			"-0.022": 0.0,
			"-0.021": 0.0,
			"-0.02": 0.0,
			"-0.019": 0.0,
			"-0.018": 0.0,
			"-0.017": 0.0,
			"-0.016": 0.0,
			"-0.015": 0.0,
			"-0.014": 0.0,
			"-0.013": 0.0,
			"-0.012": 0.0018925845617,
			"-0.011": 1.19888871309,
			"-0.01": 3.20708851807,
			"-0.009": 7.46187924997,
			"-0.008": 12.4091547304,
			"-0.007": 12.2375948409,
			"-0.006": 9.22646465597,
			"-0.005": 14.9290126184,
			"-0.004": 17.6152966629,
			"-0.003": 17.9513731368,
			"-0.002": 17.5771113871,
			"-0.001": 16.6924573611,
			"0.0": 17.1204442938,
			"0.001": 15.6587873551,
			"0.002": 13.3535721442,
			"0.003": 9.57424441097,
			"0.004": 7.23650602969,
			"0.005": 6.82700603703,
			"0.006": 8.07597611763,
			"0.007": 4.67406361634,
			"0.008": 6.21896035325,
			"0.009": 6.7489548829,
			"0.01": 5.40257023363,
			"0.011": 6.16508342457,
			"0.012": 8.4760339142,
			"0.013": 3.50827273714,
			"0.014": 0.611475387259,
			"0.015": 0.0,
			"0.016": 0.0,
			"0.017": 0.0,
			"0.018": 0.0,
			"0.019": 0.0,
			"0.02": 0.0,
			"0.021": 0.0,
			"0.022": 0.0,
			"0.023": 0.0,
			"0.024": 0.0,
			"0.025": 0.0
		}
	}
}
