{
	 "smiles": "CCOC(=O)C1=C(N)CCC1", 
	 "Tm": 331.65, 
	 "num_atms": 24, 
	 "gaussian": { 
		 "optdone": 1, 
		 "sigma_profile": "yes", 
		 "theory": "DFT", 
		 "functional": "B3LYP", 
		 "basiset": "6-31G**", 
		 "properties": { 
			 "R2extent": 3137.0868, 
			 "electric_dipole_moment_norm": 4.15323066179, 
			 "electric_quadrupole_moment_norm": 8.57350928209, 
			 "total_energy": -517.906524703, 
			 "HOMO_LUMO_gap": 0.19189, 
			 "cosmo_polarized_energy": -11.81, 
			 "cosmo_cavitation_energy": 26.51, 
			 "cosmo_dispersion_energy": -19.53, 
			 "cosmo_repulsion_energy": 1.62, 
			 "cosmo_total_nonelectrostatic_energy": 8.6, 
			 "SMD_solvation_energy": 5.08 
		},
		"coords": [
			{
				"x": 2.0513478937,
				"y": 2.5770598513,
				"z": -3.2026686881,
				"element": "C" 
			},
			{
				"x": 1.8008835924,
				"y": 1.4793140849,
				"z": -2.1844568225,
				"element": "C" 
			},
			{
				"x": 0.4051328533,
				"y": 1.5206767698,
				"z": -1.8292062856,
				"element": "O" 
			},
			{
				"x": 0.0050415726,
				"y": 0.5844586496,
				"z": -0.8966990693,
				"element": "C" 
			},
			{
				"x": 0.7931799149,
				"y": -0.2139316271,
				"z": -0.4167309386,
				"element": "O" 
			},
			{
				"x": -1.4092266442,
				"y": 0.658669857,
				"z": -0.5829987766,
				"element": "C" 
			},
			{
				"x": -2.3341244902,
				"y": 1.5459272495,
				"z": -1.0616256886,
				"element": "C" 
			},
			{
				"x": -2.1509652651,
				"y": 2.6050286824,
				"z": -1.8957440419,
				"element": "N" 
			},
			{
				"x": -3.6951016239,
				"y": 1.2914412791,
				"z": -0.4488167523,
				"element": "C" 
			},
			{
				"x": -3.5519253512,
				"y": -0.1193401393,
				"z": 0.1632368159,
				"element": "C" 
			},
			{
				"x": -2.0350272883,
				"y": -0.2910299954,
				"z": 0.4185168997,
				"element": "C" 
			},
			{
				"x": 3.1053785178,
				"y": 2.5796983782,
				"z": -3.4977621487,
				"element": "H" 
			},
			{
				"x": 1.446876146,
				"y": 2.4244143917,
				"z": -4.1024029687,
				"element": "H" 
			},
			{
				"x": 1.811600987,
				"y": 3.5606277081,
				"z": -2.7867293041,
				"element": "H" 
			},
			{
				"x": 2.4039810356,
				"y": 1.6163188496,
				"z": -1.2812195727,
				"element": "H" 
			},
			{
				"x": 2.0397368032,
				"y": 0.4891011882,
				"z": -2.585935234,
				"element": "H" 
			},
			{
				"x": -1.2533569573,
				"y": 2.6762387346,
				"z": -2.3541484388,
				"element": "H" 
			},
			{
				"x": -2.9522452295,
				"y": 2.9915381922,
				"z": -2.3686104365,
				"element": "H" 
			},
			{
				"x": -3.8935611518,
				"y": 2.0547680448,
				"z": 0.3172058479,
				"element": "H" 
			},
			{
				"x": -4.5056519741,
				"y": 1.3664574989,
				"z": -1.1850753825,
				"element": "H" 
			},
			{
				"x": -4.1583844222,
				"y": -0.2507189305,
				"z": 1.0637029876,
				"element": "H" 
			},
			{
				"x": -3.8849216566,
				"y": -0.8637685353,
				"z": -0.5680085411,
				"element": "H" 
			},
			{
				"x": -1.7686621992,
				"y": -0.0145629692,
				"z": 1.4489977675,
				"element": "H" 
			},
			{
				"x": -1.6976050628,
				"y": -1.3229872132,
				"z": 0.2810787719,
				"element": "H" 
			}
		],
		 "valence_orbital": [ 
			{
				"type": "occ",
				"energy": -0.33426,
				"method": "rhf"
			},
			{
				"type": "occ",
				"energy": -0.31538,
				"method": "rhf"
			},
			{
				"type": "occ",
				"energy": -0.28169,
				"method": "rhf"
			},
			{
				"type": "occ",
				"energy": -0.25037,
				"method": "rhf"
			},
			{
				"type": "occ",
				"energy": -0.20051,
				"method": "rhf"
			},
			{
				"type": "unocc",
				"energy": -0.00862,
				"method": "rhf"
			},
			{
				"type": "unocc",
				"energy": 0.07911,
				"method": "rhf"
			},
			{
				"type": "unocc",
				"energy": 0.09874,
				"method": "rhf"
			},
			{
				"type": "unocc",
				"energy": 0.10222,
				"method": "rhf"
			},
			{
				"type": "unocc",
				"energy": 0.11163,
				"method": "rhf"
			}
		],
		"cosmo_sigma_profile": { 
			"-0.025": 0.0,
			"-0.024": 0.0,
			"-0.023": 0.0,
			"-0.022": 0.0,
			"-0.021": 0.0,
			"-0.02": 0.0,
			"-0.019": 0.0,
			"-0.018": 0.0,
			"-0.017": 0.0,
			"-0.016": 0.0,
			"-0.015": 0.0,
			"-0.014": 0.473164679873,
			"-0.013": 1.49701596077,
			"-0.012": 0.964183727989,
			"-0.011": 1.4112382451,
			"-0.01": 1.26264002087,
			"-0.009": 2.37940100819,
			"-0.008": 2.21911954452,
			"-0.007": 2.19682903886,
			"-0.006": 2.34784849092,
			"-0.005": 4.49324266702,
			"-0.004": 15.1821437891,
			"-0.003": 23.5381089472,
			"-0.002": 28.0885734358,
			"-0.001": 26.4351262322,
			"0.0": 22.8104916432,
			"0.001": 16.7603155156,
			"0.002": 8.50445942007,
			"0.003": 8.55339549082,
			"0.004": 8.48154283963,
			"0.005": 5.66745765314,
			"0.006": 2.43285827056,
			"0.007": 2.31556658075,
			"0.008": 2.7436295149,
			"0.009": 2.00106013979,
			"0.01": 2.03412482167,
			"0.011": 1.9363532338,
			"0.012": 1.58452009382,
			"0.013": 3.98010217488,
			"0.014": 4.33739403972,
			"0.015": 0.331285187297,
			"0.016": 0.0,
			"0.017": 0.0,
			"0.018": 0.0,
			"0.019": 0.0,
			"0.02": 0.0,
			"0.021": 0.0,
			"0.022": 0.0,
			"0.023": 0.0,
			"0.024": 0.0,
			"0.025": 0.0
		}
	}
}
