{
	 "smiles": "COC1=C(NCCC(O)=O)C=CC=C1", 
	 "Tm": 358.15, 
	 "num_atms": 27, 
	 "gaussian": { 
		 "optdone": 1, 
		 "sigma_profile": "yes", 
		 "theory": "DFT", 
		 "functional": "B3LYP", 
		 "basiset": "6-31G**", 
		 "properties": { 
			 "R2extent": 3773.1898, 
			 "electric_dipole_moment_norm": 6.58039823491, 
			 "electric_quadrupole_moment_norm": 23.2842618861, 
			 "total_energy": -669.325513077, 
			 "HOMO_LUMO_gap": 0.20924, 
			 "cosmo_polarized_energy": -16.65, 
			 "cosmo_cavitation_energy": 30.27, 
			 "cosmo_dispersion_energy": -21.96, 
			 "cosmo_repulsion_energy": 1.75, 
			 "cosmo_total_nonelectrostatic_energy": 10.05, 
			 "SMD_solvation_energy": 7.09 
		},
		"coords": [
			{
				"x": -1.6196311128,
				"y": 3.1602334458,
				"z": -1.1224809733,
				"element": "C" 
			},
			{
				"x": -1.1267676169,
				"y": 2.086197372,
				"z": -0.3354260605,
				"element": "O" 
			},
			{
				"x": 0.0541628371,
				"y": 1.494428066,
				"z": -0.7073665973,
				"element": "C" 
			},
			{
				"x": 0.4769113244,
				"y": 0.4471714474,
				"z": 0.1475626653,
				"element": "C" 
			},
			{
				"x": -0.379325287,
				"y": 0.100394734,
				"z": 1.2199993501,
				"element": "N" 
			},
			{
				"x": 0.1648851393,
				"y": -0.5662094935,
				"z": 2.4094846036,
				"element": "C" 
			},
			{
				"x": -0.9724140721,
				"y": -0.9328928517,
				"z": 3.370577546,
				"element": "C" 
			},
			{
				"x": -1.9817187178,
				"y": -1.9591800228,
				"z": 2.8364489893,
				"element": "C" 
			},
			{
				"x": -2.2261932326,
				"y": -1.9144645331,
				"z": 1.5142782508,
				"element": "O" 
			},
			{
				"x": -2.5432261427,
				"y": -2.7462334303,
				"z": 3.5617288231,
				"element": "O" 
			},
			{
				"x": 1.6786499236,
				"y": -0.2033636217,
				"z": -0.1343252042,
				"element": "C" 
			},
			{
				"x": 2.443635107,
				"y": 0.1614845972,
				"z": -1.2483914532,
				"element": "C" 
			},
			{
				"x": 2.0169609315,
				"y": 1.185906517,
				"z": -2.0844952429,
				"element": "C" 
			},
			{
				"x": 0.8189195009,
				"y": 1.8587888412,
				"z": -1.8116544048,
				"element": "C" 
			},
			{
				"x": -2.5514248932,
				"y": 3.4775181791,
				"z": -0.652219992,
				"element": "H" 
			},
			{
				"x": -0.915911834,
				"y": 4.001979708,
				"z": -1.1399538075,
				"element": "H" 
			},
			{
				"x": -1.8246378912,
				"y": 2.8401037111,
				"z": -2.1513530271,
				"element": "H" 
			},
			{
				"x": -0.9604082523,
				"y": 0.8987384602,
				"z": 1.4627862803,
				"element": "H" 
			},
			{
				"x": 0.913187735,
				"y": 0.055102082,
				"z": 2.9234841658,
				"element": "H" 
			},
			{
				"x": 0.6717749302,
				"y": -1.4820949415,
				"z": 2.0908148064,
				"element": "H" 
			},
			{
				"x": -1.531858624,
				"y": -0.0276726184,
				"z": 3.6473909357,
				"element": "H" 
			},
			{
				"x": -0.567345685,
				"y": -1.3409223184,
				"z": 4.2988889837,
				"element": "H" 
			},
			{
				"x": -1.6714530464,
				"y": -1.2059147759,
				"z": 1.1030580453,
				"element": "H" 
			},
			{
				"x": 2.0263146152,
				"y": -1.0022931577,
				"z": 0.5108670293,
				"element": "H" 
			},
			{
				"x": 3.3732130615,
				"y": -0.3613255758,
				"z": -1.4504224488,
				"element": "H" 
			},
			{
				"x": 2.6063885865,
				"y": 1.4742948226,
				"z": -2.9491154074,
				"element": "H" 
			},
			{
				"x": 0.4926127157,
				"y": 2.661125357,
				"z": -2.4628658559,
				"element": "H" 
			}
		],
		 "valence_orbital": [ 
			{
				"type": "occ",
				"energy": -0.30821,
				"method": "rhf"
			},
			{
				"type": "occ",
				"energy": -0.29194,
				"method": "rhf"
			},
			{
				"type": "occ",
				"energy": -0.25112,
				"method": "rhf"
			},
			{
				"type": "occ",
				"energy": -0.24493,
				"method": "rhf"
			},
			{
				"type": "occ",
				"energy": -0.21243,
				"method": "rhf"
			},
			{
				"type": "unocc",
				"energy": -0.00319,
				"method": "rhf"
			},
			{
				"type": "unocc",
				"energy": 0.00429,
				"method": "rhf"
			},
			{
				"type": "unocc",
				"energy": 0.02474,
				"method": "rhf"
			},
			{
				"type": "unocc",
				"energy": 0.07106,
				"method": "rhf"
			},
			{
				"type": "unocc",
				"energy": 0.08289,
				"method": "rhf"
			}
		],
		"cosmo_sigma_profile": { 
			"-0.025": 0.0,
			"-0.024": 0.0,
			"-0.023": 0.0,
			"-0.022": 0.0,
			"-0.021": 0.0,
			"-0.02": 0.0,
			"-0.019": 0.0,
			"-0.018": 0.0,
			"-0.017": 0.0,
			"-0.016": 0.0,
			"-0.015": 0.0,
			"-0.014": 0.0,
			"-0.013": 0.0,
			"-0.012": 0.369139498221,
			"-0.011": 1.86978542231,
			"-0.01": 1.89403514633,
			"-0.009": 1.2825833671,
			"-0.008": 2.53533699471,
			"-0.007": 6.18165099424,
			"-0.006": 15.6186720379,
			"-0.005": 27.6431955601,
			"-0.004": 27.1399091457,
			"-0.003": 25.3062051102,
			"-0.002": 14.1265962892,
			"-0.001": 9.65948601489,
			"0.0": 9.35083190137,
			"0.001": 9.63554392613,
			"0.002": 9.55307390749,
			"0.003": 11.932933042,
			"0.004": 11.6982680428,
			"0.005": 9.7705767636,
			"0.006": 10.3276714874,
			"0.007": 6.92202715196,
			"0.008": 2.5275645379,
			"0.009": 2.48252731857,
			"0.01": 3.31097379802,
			"0.011": 4.34438221972,
			"0.012": 7.34528285325,
			"0.013": 5.06726286405,
			"0.014": 1.60659618667,
			"0.015": 0.0134235301556,
			"0.016": 0.0,
			"0.017": 0.0,
			"0.018": 0.0,
			"0.019": 0.0,
			"0.02": 0.0,
			"0.021": 0.0,
			"0.022": 0.0,
			"0.023": 0.0,
			"0.024": 0.0,
			"0.025": 0.0
		}
	}
}
