{
	 "smiles": "CCN(CC)CCOC(=O)C(O)(C1=CC=CC=C1)C1=CC=CC=C1", 
	 "Tm": 324.15, 
	 "num_atms": 49, 
	 "gaussian": { 
		 "optdone": 1, 
		 "sigma_profile": "yes", 
		 "theory": "DFT", 
		 "functional": "B3LYP", 
		 "basiset": "6-31G**", 
		 "properties": { 
			 "R2extent": 8657.1726, 
			 "electric_dipole_moment_norm": 2.57777152401, 
			 "electric_quadrupole_moment_norm": 5.00073286929, 
			 "total_energy": -1057.61444053, 
			 "HOMO_LUMO_gap": 0.18271, 
			 "cosmo_polarized_energy": -11.17, 
			 "cosmo_cavitation_energy": 49.94, 
			 "cosmo_dispersion_energy": -32.09, 
			 "cosmo_repulsion_energy": 2.45, 
			 "cosmo_total_nonelectrostatic_energy": 20.31, 
			 "SMD_solvation_energy": 7.07 
		},
		"coords": [
			{
				"x": 0.3562309362,
				"y": 3.5310537058,
				"z": -4.491689605,
				"element": "C" 
			},
			{
				"x": -0.5310207779,
				"y": 3.068022871,
				"z": -3.3312107857,
				"element": "C" 
			},
			{
				"x": -0.5287038826,
				"y": 1.6217647372,
				"z": -3.1338025718,
				"element": "N" 
			},
			{
				"x": -1.7583260321,
				"y": 1.0726032629,
				"z": -2.5589336341,
				"element": "C" 
			},
			{
				"x": -2.2291881839,
				"y": 1.6337467124,
				"z": -1.2060350163,
				"element": "C" 
			},
			{
				"x": 0.7299721863,
				"y": 1.01819932,
				"z": -2.7388343668,
				"element": "C" 
			},
			{
				"x": 1.2800976222,
				"y": 1.2725509185,
				"z": -1.3203878286,
				"element": "C" 
			},
			{
				"x": 0.6897872653,
				"y": 0.389430335,
				"z": -0.3211013401,
				"element": "O" 
			},
			{
				"x": 1.2530551239,
				"y": -0.8150175647,
				"z": -0.1873044944,
				"element": "C" 
			},
			{
				"x": 2.1834544945,
				"y": -1.2176772651,
				"z": -0.8620565375,
				"element": "O" 
			},
			{
				"x": 0.6452797686,
				"y": -1.6969676379,
				"z": 0.9382964032,
				"element": "C" 
			},
			{
				"x": 1.0669975873,
				"y": -3.0196775677,
				"z": 0.6476816736,
				"element": "O" 
			},
			{
				"x": -0.8914941114,
				"y": -1.686104357,
				"z": 0.8788070633,
				"element": "C" 
			},
			{
				"x": -1.687697502,
				"y": -0.9851201258,
				"z": 1.7888052651,
				"element": "C" 
			},
			{
				"x": -3.080649407,
				"y": -1.0135851186,
				"z": 1.6801536225,
				"element": "C" 
			},
			{
				"x": -3.6940567089,
				"y": -1.7407823273,
				"z": 0.660847597,
				"element": "C" 
			},
			{
				"x": -2.904084707,
				"y": -2.4466829527,
				"z": -0.250491583,
				"element": "C" 
			},
			{
				"x": -1.5150089986,
				"y": -2.4227531799,
				"z": -0.1393770764,
				"element": "C" 
			},
			{
				"x": 1.222243784,
				"y": -1.239686959,
				"z": 2.2975001896,
				"element": "C" 
			},
			{
				"x": 1.3212355119,
				"y": 0.1091786124,
				"z": 2.6686827634,
				"element": "C" 
			},
			{
				"x": 1.8401157482,
				"y": 0.4654096081,
				"z": 3.9153888159,
				"element": "C" 
			},
			{
				"x": 2.2665268811,
				"y": -0.5179698295,
				"z": 4.8083076869,
				"element": "C" 
			},
			{
				"x": 2.1701366103,
				"y": -1.8621195323,
				"z": 4.4448046082,
				"element": "C" 
			},
			{
				"x": 1.6544474538,
				"y": -2.2203460164,
				"z": 3.1990779479,
				"element": "C" 
			},
			{
				"x": 1.4212382402,
				"y": 3.3701175522,
				"z": -4.296243157,
				"element": "H" 
			},
			{
				"x": 0.2194090497,
				"y": 4.6039597134,
				"z": -4.6626862448,
				"element": "H" 
			},
			{
				"x": 0.095510491,
				"y": 2.9955551094,
				"z": -5.4094429711,
				"element": "H" 
			},
			{
				"x": -0.2582998723,
				"y": 3.6343357256,
				"z": -2.4199543923,
				"element": "H" 
			},
			{
				"x": -1.5656063336,
				"y": 3.3532168423,
				"z": -3.5549314677,
				"element": "H" 
			},
			{
				"x": -2.5607554159,
				"y": 1.2278313992,
				"z": -3.2948946195,
				"element": "H" 
			},
			{
				"x": -1.6253200657,
				"y": -0.011475437,
				"z": -2.4705909148,
				"element": "H" 
			},
			{
				"x": -3.1704067161,
				"y": 1.1545415337,
				"z": -0.9168204984,
				"element": "H" 
			},
			{
				"x": -1.5064947502,
				"y": 1.4388247506,
				"z": -0.4111320282,
				"element": "H" 
			},
			{
				"x": -2.4096277881,
				"y": 2.7129068112,
				"z": -1.2599510779,
				"element": "H" 
			},
			{
				"x": 1.5053955924,
				"y": 1.3648089766,
				"z": -3.4321378086,
				"element": "H" 
			},
			{
				"x": 0.665353941,
				"y": -0.0658780177,
				"z": -2.8843021639,
				"element": "H" 
			},
			{
				"x": 1.0444176411,
				"y": 2.2778143838,
				"z": -0.9662657373,
				"element": "H" 
			},
			{
				"x": 2.3615911605,
				"y": 1.120083232,
				"z": -1.3047245751,
				"element": "H" 
			},
			{
				"x": 1.8828276583,
				"y": -2.9221773363,
				"z": 0.1252278831,
				"element": "H" 
			},
			{
				"x": -1.2269278547,
				"y": -0.4237265721,
				"z": 2.5933958629,
				"element": "H" 
			},
			{
				"x": -3.6842494086,
				"y": -0.4694500239,
				"z": 2.401167418,
				"element": "H" 
			},
			{
				"x": -4.7771597267,
				"y": -1.765672814,
				"z": 0.5807536756,
				"element": "H" 
			},
			{
				"x": -3.370460263,
				"y": -3.0261786015,
				"z": -1.042420672,
				"element": "H" 
			},
			{
				"x": -0.9011159026,
				"y": -2.9967450965,
				"z": -0.8250434196,
				"element": "H" 
			},
			{
				"x": 0.992639322,
				"y": 0.8851918231,
				"z": 1.9864392827,
				"element": "H" 
			},
			{
				"x": 1.9125125512,
				"y": 1.5154889569,
				"z": 4.1847737473,
				"element": "H" 
			},
			{
				"x": 2.6718586781,
				"y": -0.2394102798,
				"z": 5.7768593946,
				"element": "H" 
			},
			{
				"x": 2.4998627387,
				"y": -2.6370570959,
				"z": 5.1312617452,
				"element": "H" 
			},
			{
				"x": 1.586156371,
				"y": -3.2615751848,
				"z": 2.9072339419,
				"element": "H" 
			}
		],
		 "valence_orbital": [ 
			{
				"type": "occ",
				"energy": -0.25044,
				"method": "rhf"
			},
			{
				"type": "occ",
				"energy": -0.24813,
				"method": "rhf"
			},
			{
				"type": "occ",
				"energy": -0.24453,
				"method": "rhf"
			},
			{
				"type": "occ",
				"energy": -0.23984,
				"method": "rhf"
			},
			{
				"type": "occ",
				"energy": -0.19949,
				"method": "rhf"
			},
			{
				"type": "unocc",
				"energy": -0.01678,
				"method": "rhf"
			},
			{
				"type": "unocc",
				"energy": -0.00961,
				"method": "rhf"
			},
			{
				"type": "unocc",
				"energy": -0.00015,
				"method": "rhf"
			},
			{
				"type": "unocc",
				"energy": 0.00334,
				"method": "rhf"
			},
			{
				"type": "unocc",
				"energy": 0.01456,
				"method": "rhf"
			}
		],
		"cosmo_sigma_profile": { 
			"-0.025": 0.0,
			"-0.024": 0.0,
			"-0.023": 0.0,
			"-0.022": 0.0,
			"-0.021": 0.0,
			"-0.02": 0.0,
			"-0.019": 0.0,
			"-0.018": 0.0,
			"-0.017": 0.0,
			"-0.016": 0.0,
			"-0.015": 0.0,
			"-0.014": 0.0,
			"-0.013": 0.0,
			"-0.012": 0.0600197685939,
			"-0.011": 0.579969203665,
			"-0.01": 0.413046177741,
			"-0.009": 0.30738552838,
			"-0.008": 0.661982184883,
			"-0.007": 1.055500707,
			"-0.006": 9.77501735713,
			"-0.005": 24.9616545932,
			"-0.004": 34.1365459295,
			"-0.003": 39.6968095806,
			"-0.002": 40.4086862379,
			"-0.001": 39.0975227952,
			"0.0": 39.2554006699,
			"0.001": 37.6365813046,
			"0.002": 32.4859329009,
			"0.003": 24.3267017947,
			"0.004": 22.7171712213,
			"0.005": 18.8511642839,
			"0.006": 7.80100683011,
			"0.007": 3.18841561022,
			"0.008": 3.29440784019,
			"0.009": 3.53312245832,
			"0.01": 4.52103843788,
			"0.011": 2.44692216856,
			"0.012": 1.19442203325,
			"0.013": 0.889306045539,
			"0.014": 0.192558196476,
			"0.015": 0.036194491509,
			"0.016": 0.0,
			"0.017": 0.0,
			"0.018": 0.0,
			"0.019": 0.0,
			"0.02": 0.0,
			"0.021": 0.0,
			"0.022": 0.0,
			"0.023": 0.0,
			"0.024": 0.0,
			"0.025": 0.0
		}
	}
}
