{
	 "smiles": "CN1C(SCC(O)=O)=NC2=C1C=CC=C2", 
	 "Tm": 430.15, 
	 "num_atms": 25, 
	 "gaussian": { 
		 "optdone": 1, 
		 "sigma_profile": "yes", 
		 "theory": "DFT", 
		 "functional": "B3LYP", 
		 "basiset": "6-31G**", 
		 "properties": { 
			 "R2extent": 4500.2525, 
			 "electric_dipole_moment_norm": 7.66048919717, 
			 "electric_quadrupole_moment_norm": 17.2265670019, 
			 "total_energy": -1045.25637086, 
			 "HOMO_LUMO_gap": 0.19339, 
			 "cosmo_polarized_energy": -15.74, 
			 "cosmo_cavitation_energy": 30.31, 
			 "cosmo_dispersion_energy": -22.67, 
			 "cosmo_repulsion_energy": 1.71, 
			 "cosmo_total_nonelectrostatic_energy": 9.35, 
			 "SMD_solvation_energy": 5.37 
		},
		"coords": [
			{
				"x": 2.6407781939,
				"y": 0.756347976,
				"z": 0.5498755005,
				"element": "C" 
			},
			{
				"x": 1.5764983177,
				"y": 0.1370968087,
				"z": -0.221757636,
				"element": "N" 
			},
			{
				"x": 0.557941696,
				"y": 0.7584042795,
				"z": -0.904711653,
				"element": "C" 
			},
			{
				"x": 0.3760723015,
				"y": 2.5112543204,
				"z": -0.917795913,
				"element": "S" 
			},
			{
				"x": -0.5929672031,
				"y": 2.7273092801,
				"z": -2.4732327394,
				"element": "C" 
			},
			{
				"x": -2.1114235177,
				"y": 2.5140206396,
				"z": -2.3496370154,
				"element": "C" 
			},
			{
				"x": -2.5166220603,
				"y": 1.2766072936,
				"z": -2.0741463046,
				"element": "O" 
			},
			{
				"x": -2.8777091806,
				"y": 3.4328510552,
				"z": -2.5330667718,
				"element": "O" 
			},
			{
				"x": -0.248768391,
				"y": -0.0867069143,
				"z": -1.5164180583,
				"element": "N" 
			},
			{
				"x": 0.2531003152,
				"y": -1.3511515122,
				"z": -1.2338373851,
				"element": "C" 
			},
			{
				"x": 1.3927766102,
				"y": -1.2307785679,
				"z": -0.4092969648,
				"element": "C" 
			},
			{
				"x": 2.1046448471,
				"y": -2.3396499748,
				"z": 0.0497462716,
				"element": "C" 
			},
			{
				"x": 1.6394137006,
				"y": -3.5909718511,
				"z": -0.351296463,
				"element": "C" 
			},
			{
				"x": 0.5048167901,
				"y": -3.7254258342,
				"z": -1.1744988497,
				"element": "C" 
			},
			{
				"x": -0.2019927271,
				"y": -2.6141805551,
				"z": -1.6260250418,
				"element": "C" 
			},
			{
				"x": 2.4287800662,
				"y": 0.7164724841,
				"z": 1.623335345,
				"element": "H" 
			},
			{
				"x": 2.7480525176,
				"y": 1.7986810943,
				"z": 0.2452219748,
				"element": "H" 
			},
			{
				"x": 3.5816252351,
				"y": 0.2367602578,
				"z": 0.3512394037,
				"element": "H" 
			},
			{
				"x": -0.4274965651,
				"y": 3.766258636,
				"z": -2.7582797384,
				"element": "H" 
			},
			{
				"x": -0.161084462,
				"y": 2.0643094875,
				"z": -3.2276554005,
				"element": "H" 
			},
			{
				"x": -1.741739135,
				"y": 0.6563984868,
				"z": -1.9492023642,
				"element": "H" 
			},
			{
				"x": 2.9755033678,
				"y": -2.2413262217,
				"z": 0.6898871433,
				"element": "H" 
			},
			{
				"x": 2.1625645945,
				"y": -4.4820132217,
				"z": -0.0181728336,
				"element": "H" 
			},
			{
				"x": 0.1745307273,
				"y": -4.7194069096,
				"z": -1.4600523695,
				"element": "H" 
			},
			{
				"x": -1.0781960389,
				"y": -2.713760537,
				"z": -2.258122137,
				"element": "H" 
			}
		],
		 "valence_orbital": [ 
			{
				"type": "occ",
				"energy": -0.2921,
				"method": "rhf"
			},
			{
				"type": "occ",
				"energy": -0.29129,
				"method": "rhf"
			},
			{
				"type": "occ",
				"energy": -0.25334,
				"method": "rhf"
			},
			{
				"type": "occ",
				"energy": -0.24366,
				"method": "rhf"
			},
			{
				"type": "occ",
				"energy": -0.22976,
				"method": "rhf"
			},
			{
				"type": "unocc",
				"energy": -0.03637,
				"method": "rhf"
			},
			{
				"type": "unocc",
				"energy": -0.01245,
				"method": "rhf"
			},
			{
				"type": "unocc",
				"energy": 0.00296,
				"method": "rhf"
			},
			{
				"type": "unocc",
				"energy": 0.02674,
				"method": "rhf"
			},
			{
				"type": "unocc",
				"energy": 0.03232,
				"method": "rhf"
			}
		],
		"cosmo_sigma_profile": { 
			"-0.025": 0.0,
			"-0.024": 0.0,
			"-0.023": 0.0,
			"-0.022": 0.0,
			"-0.021": 0.0,
			"-0.02": 0.0,
			"-0.019": 0.0,
			"-0.018": 0.0,
			"-0.017": 0.0,
			"-0.016": 0.0,
			"-0.015": 0.0,
			"-0.014": 0.0,
			"-0.013": 0.0,
			"-0.012": 0.0,
			"-0.011": 0.0,
			"-0.01": 0.0,
			"-0.009": 1.74414239309,
			"-0.008": 4.88434643252,
			"-0.007": 11.2794898764,
			"-0.006": 17.3634423144,
			"-0.005": 22.5066694085,
			"-0.004": 22.9421468811,
			"-0.003": 16.457294263,
			"-0.002": 13.9560815479,
			"-0.001": 16.4748052811,
			"0.0": 14.0140486927,
			"0.001": 14.6751290492,
			"0.002": 13.029251743,
			"0.003": 14.5984962735,
			"0.004": 14.6868077078,
			"0.005": 13.1314106405,
			"0.006": 5.89171436016,
			"0.007": 2.00616242194,
			"0.008": 2.37736793632,
			"0.009": 2.87630860854,
			"0.01": 3.24966840308,
			"0.011": 5.75515904437,
			"0.012": 6.99244274103,
			"0.013": 3.38109160035,
			"0.014": 0.396230484332,
			"0.015": 0.0,
			"0.016": 0.0,
			"0.017": 0.0,
			"0.018": 0.0,
			"0.019": 0.0,
			"0.02": 0.0,
			"0.021": 0.0,
			"0.022": 0.0,
			"0.023": 0.0,
			"0.024": 0.0,
			"0.025": 0.0
		}
	}
}
