{
	 "smiles": "COC(=O)C1=C(Cl)N=CN=C1Cl", 
	 "Tm": 324.15, 
	 "num_atms": 16, 
	 "gaussian": { 
		 "optdone": 1, 
		 "sigma_profile": "yes", 
		 "theory": "DFT", 
		 "functional": "B3LYP", 
		 "basiset": "6-31G**", 
		 "properties": { 
			 "R2extent": 4007.3608, 
			 "electric_dipole_moment_norm": 2.15054677001, 
			 "electric_quadrupole_moment_norm": 11.0258086447, 
			 "total_energy": -1411.36916885, 
			 "HOMO_LUMO_gap": 0.21893, 
			 "cosmo_polarized_energy": -8.62, 
			 "cosmo_cavitation_energy": 25.52, 
			 "cosmo_dispersion_energy": -18.28, 
			 "cosmo_repulsion_energy": 1.48, 
			 "cosmo_total_nonelectrostatic_energy": 8.71, 
			 "SMD_solvation_energy": 2.67 
		},
		"coords": [
			{
				"x": 1.9221508363,
				"y": -1.8830559554,
				"z": 1.6753968673,
				"element": "C" 
			},
			{
				"x": 1.4704732009,
				"y": -0.959261402,
				"z": 0.6628778082,
				"element": "O" 
			},
			{
				"x": 2.1035920099,
				"y": -1.0478409899,
				"z": -0.5141305685,
				"element": "C" 
			},
			{
				"x": 2.9940824852,
				"y": -1.8207468488,
				"z": -0.7773074361,
				"element": "O" 
			},
			{
				"x": 1.5570101531,
				"y": -0.042262354,
				"z": -1.4932933929,
				"element": "C" 
			},
			{
				"x": 0.5187983531,
				"y": -0.3351160476,
				"z": -2.3864035659,
				"element": "C" 
			},
			{
				"x": -0.2469234701,
				"y": -1.9040137391,
				"z": -2.3264553788,
				"element": "Cl" 
			},
			{
				"x": 0.0643346395,
				"y": 0.5170853449,
				"z": -3.291273621,
				"element": "N" 
			},
			{
				"x": 0.6587884512,
				"y": 1.7124650288,
				"z": -3.3180627043,
				"element": "C" 
			},
			{
				"x": 1.6516893116,
				"y": 2.1251632991,
				"z": -2.5263104716,
				"element": "N" 
			},
			{
				"x": 2.0819688387,
				"y": 1.2485186307,
				"z": -1.6330535985,
				"element": "C" 
			},
			{
				"x": 3.3775704473,
				"y": 1.7657268287,
				"z": -0.5816189459,
				"element": "Cl" 
			},
			{
				"x": 1.7808878404,
				"y": -2.9123374629,
				"z": 1.3384354126,
				"element": "H" 
			},
			{
				"x": 1.309360768,
				"y": -1.6750718607,
				"z": 2.5512683401,
				"element": "H" 
			},
			{
				"x": 2.9795490726,
				"y": -1.7178861316,
				"z": 1.8934675012,
				"element": "H" 
			},
			{
				"x": 0.2969670624,
				"y": 2.4215336599,
				"z": -4.0578362459,
				"element": "H" 
			}
		],
		 "valence_orbital": [ 
			{
				"type": "occ",
				"energy": -0.32429,
				"method": "rhf"
			},
			{
				"type": "occ",
				"energy": -0.31307,
				"method": "rhf"
			},
			{
				"type": "occ",
				"energy": -0.31023,
				"method": "rhf"
			},
			{
				"type": "occ",
				"energy": -0.29356,
				"method": "rhf"
			},
			{
				"type": "occ",
				"energy": -0.28721,
				"method": "rhf"
			},
			{
				"type": "unocc",
				"energy": -0.06828,
				"method": "rhf"
			},
			{
				"type": "unocc",
				"energy": -0.06509,
				"method": "rhf"
			},
			{
				"type": "unocc",
				"energy": -0.01996,
				"method": "rhf"
			},
			{
				"type": "unocc",
				"energy": -0.00586,
				"method": "rhf"
			},
			{
				"type": "unocc",
				"energy": 0.0394,
				"method": "rhf"
			}
		],
		"cosmo_sigma_profile": { 
			"-0.025": 0.0,
			"-0.024": 0.0,
			"-0.023": 0.0,
			"-0.022": 0.0,
			"-0.021": 0.0,
			"-0.02": 0.0,
			"-0.019": 0.0,
			"-0.018": 0.0,
			"-0.017": 0.0,
			"-0.016": 0.0,
			"-0.015": 0.0,
			"-0.014": 0.0,
			"-0.013": 0.0,
			"-0.012": 0.0,
			"-0.011": 0.0,
			"-0.01": 1.29071760103,
			"-0.009": 1.99897015608,
			"-0.008": 2.24052009771,
			"-0.007": 7.14580794587,
			"-0.006": 10.5934451218,
			"-0.005": 13.240433548,
			"-0.004": 21.08476524,
			"-0.003": 16.2182419234,
			"-0.002": 13.4093182529,
			"-0.001": 12.442291321,
			"0.0": 18.3347845573,
			"0.001": 17.9740902367,
			"0.002": 20.9648522081,
			"0.003": 11.1044737298,
			"0.004": 7.64547893494,
			"0.005": 5.78059435233,
			"0.006": 5.28906646178,
			"0.007": 4.14282837746,
			"0.008": 3.34271405889,
			"0.009": 4.94717188327,
			"0.01": 6.10224724554,
			"0.011": 3.66501657101,
			"0.012": 1.21268363421,
			"0.013": 0.0322884057037,
			"0.014": 0.0,
			"0.015": 0.0,
			"0.016": 0.0,
			"0.017": 0.0,
			"0.018": 0.0,
			"0.019": 0.0,
			"0.02": 0.0,
			"0.021": 0.0,
			"0.022": 0.0,
			"0.023": 0.0,
			"0.024": 0.0,
			"0.025": 0.0
		}
	}
}
