{
	 "smiles": "CCC(C)(O)CNC1C(O)C2(C)CCC1C2(C)C", 
	 "Tm": 392.15, 
	 "num_atms": 47, 
	 "gaussian": { 
		 "optdone": 1, 
		 "sigma_profile": "yes", 
		 "theory": "DFT", 
		 "functional": "B3LYP", 
		 "basiset": "6-31G**", 
		 "properties": { 
			 "R2extent": 5963.329, 
			 "electric_dipole_moment_norm": 2.21290112522, 
			 "electric_quadrupole_moment_norm": 7.32089917975, 
			 "total_energy": -794.269484048, 
			 "HOMO_LUMO_gap": 0.28002, 
			 "cosmo_polarized_energy": -12.84, 
			 "cosmo_cavitation_energy": 42.41, 
			 "cosmo_dispersion_energy": -28.77, 
			 "cosmo_repulsion_energy": 2.2, 
			 "cosmo_total_nonelectrostatic_energy": 15.84, 
			 "SMD_solvation_energy": 5.55 
		},
		"coords": [
			{
				"x": 1.4928626888,
				"y": -3.92694643,
				"z": 2.2612038032,
				"element": "C" 
			},
			{
				"x": 2.4996988291,
				"y": -2.9131757143,
				"z": 1.7065505229,
				"element": "C" 
			},
			{
				"x": 2.4241332232,
				"y": -2.6667221505,
				"z": 0.1834202989,
				"element": "C" 
			},
			{
				"x": 3.5773459652,
				"y": -1.7599037359,
				"z": -0.2563668279,
				"element": "C" 
			},
			{
				"x": 2.6289550358,
				"y": -3.8865091127,
				"z": -0.5460323734,
				"element": "O" 
			},
			{
				"x": 1.0617053723,
				"y": -2.0797787906,
				"z": -0.2549941863,
				"element": "C" 
			},
			{
				"x": 0.729208051,
				"y": -0.8307562285,
				"z": 0.4248973065,
				"element": "N" 
			},
			{
				"x": -0.6448146448,
				"y": -0.373945594,
				"z": 0.242936127,
				"element": "C" 
			},
			{
				"x": -0.9699057736,
				"y": 0.8771500854,
				"z": 1.1049273559,
				"element": "C" 
			},
			{
				"x": -1.7307272508,
				"y": 0.4647569879,
				"z": 2.2377132129,
				"element": "O" 
			},
			{
				"x": -1.7054740008,
				"y": 1.8375216592,
				"z": 0.113614655,
				"element": "C" 
			},
			{
				"x": -2.5424880107,
				"y": 2.9122112584,
				"z": 0.7944421362,
				"element": "C" 
			},
			{
				"x": -0.5748188249,
				"y": 2.3914595793,
				"z": -0.798588927,
				"element": "C" 
			},
			{
				"x": -0.1796664129,
				"y": 1.1721411701,
				"z": -1.6877827085,
				"element": "C" 
			},
			{
				"x": -1.1232144737,
				"y": 0.0589478331,
				"z": -1.1809385249,
				"element": "C" 
			},
			{
				"x": -2.4377589588,
				"y": 0.8385096396,
				"z": -0.8611688998,
				"element": "C" 
			},
			{
				"x": -3.5463053463,
				"y": -0.0139700666,
				"z": -0.2090173314,
				"element": "C" 
			},
			{
				"x": -3.0739531459,
				"y": 1.5060285773,
				"z": -2.0967339324,
				"element": "C" 
			},
			{
				"x": 1.59107439,
				"y": -4.9075676205,
				"z": 1.7792909628,
				"element": "H" 
			},
			{
				"x": 1.6603781539,
				"y": -4.0846333194,
				"z": 3.3311717321,
				"element": "H" 
			},
			{
				"x": 0.4596015134,
				"y": -3.5860370335,
				"z": 2.1424746627,
				"element": "H" 
			},
			{
				"x": 3.516751404,
				"y": -3.2555860892,
				"z": 1.9334442764,
				"element": "H" 
			},
			{
				"x": 2.3539963874,
				"y": -1.95357006,
				"z": 2.212632544,
				"element": "H" 
			},
			{
				"x": 3.5612755856,
				"y": -0.8058635745,
				"z": 0.2799522036,
				"element": "H" 
			},
			{
				"x": 4.5329107127,
				"y": -2.2496417867,
				"z": -0.0481500599,
				"element": "H" 
			},
			{
				"x": 3.5241067971,
				"y": -1.5655803117,
				"z": -1.332305257,
				"element": "H" 
			},
			{
				"x": 1.9160330144,
				"y": -4.4946017444,
				"z": -0.3101962843,
				"element": "H" 
			},
			{
				"x": 0.2726795501,
				"y": -2.8033043927,
				"z": -0.0090926344,
				"element": "H" 
			},
			{
				"x": 1.0785551788,
				"y": -2.0058411547,
				"z": -1.3562452621,
				"element": "H" 
			},
			{
				"x": 1.3812291835,
				"y": -0.1029584609,
				"z": 0.1456634339,
				"element": "H" 
			},
			{
				"x": -1.2839337415,
				"y": -1.1871655544,
				"z": 0.5996293528,
				"element": "H" 
			},
			{
				"x": -0.0370996431,
				"y": 1.347505489,
				"z": 1.4536769772,
				"element": "H" 
			},
			{
				"x": -1.8385550035,
				"y": 1.2281206865,
				"z": 2.8191579592,
				"element": "H" 
			},
			{
				"x": -3.0391342281,
				"y": 3.5548316207,
				"z": 0.0600574798,
				"element": "H" 
			},
			{
				"x": -1.9188867024,
				"y": 3.5634718273,
				"z": 1.4209691645,
				"element": "H" 
			},
			{
				"x": -3.3174885164,
				"y": 2.4733125165,
				"z": 1.4311579989,
				"element": "H" 
			},
			{
				"x": 0.2649361912,
				"y": 2.7718039048,
				"z": -0.2054565657,
				"element": "H" 
			},
			{
				"x": -0.9355115465,
				"y": 3.2308630405,
				"z": -1.4008937843,
				"element": "H" 
			},
			{
				"x": -0.3367921334,
				"y": 1.3765335024,
				"z": -2.7501578443,
				"element": "H" 
			},
			{
				"x": 0.8755497119,
				"y": 0.8988005543,
				"z": -1.5850866033,
				"element": "H" 
			},
			{
				"x": -1.2365999944,
				"y": -0.7793628759,
				"z": -1.8755582501,
				"element": "H" 
			},
			{
				"x": -3.8276906784,
				"y": -0.8371732465,
				"z": -0.8767782403,
				"element": "H" 
			},
			{
				"x": -4.445247524,
				"y": 0.5942001257,
				"z": -0.0554965431,
				"element": "H" 
			},
			{
				"x": -3.2719472032,
				"y": -0.4262683769,
				"z": 0.7604892348,
				"element": "H" 
			},
			{
				"x": -3.9202555777,
				"y": 2.1358298075,
				"z": -1.8003266545,
				"element": "H" 
			},
			{
				"x": -3.4672131037,
				"y": 0.7390072999,
				"z": -2.7738693367,
				"element": "H" 
			},
			{
				"x": -2.3878045,
				"y": 2.1292562595,
				"z": -2.6732363696,
				"element": "H" 
			}
		],
		 "valence_orbital": [ 
			{
				"type": "occ",
				"energy": -0.29565,
				"method": "rhf"
			},
			{
				"type": "occ",
				"energy": -0.2844,
				"method": "rhf"
			},
			{
				"type": "occ",
				"energy": -0.25909,
				"method": "rhf"
			},
			{
				"type": "occ",
				"energy": -0.25258,
				"method": "rhf"
			},
			{
				"type": "occ",
				"energy": -0.21323,
				"method": "rhf"
			},
			{
				"type": "unocc",
				"energy": 0.06679,
				"method": "rhf"
			},
			{
				"type": "unocc",
				"energy": 0.06773,
				"method": "rhf"
			},
			{
				"type": "unocc",
				"energy": 0.07806,
				"method": "rhf"
			},
			{
				"type": "unocc",
				"energy": 0.08257,
				"method": "rhf"
			},
			{
				"type": "unocc",
				"energy": 0.10259,
				"method": "rhf"
			}
		],
		"cosmo_sigma_profile": { 
			"-0.025": 0.0,
			"-0.024": 0.0,
			"-0.023": 0.0,
			"-0.022": 0.0,
			"-0.021": 0.0,
			"-0.02": 0.0,
			"-0.019": 0.0,
			"-0.018": 0.0,
			"-0.017": 0.0,
			"-0.016": 0.0,
			"-0.015": 0.0495953739944,
			"-0.014": 1.01098360253,
			"-0.013": 2.04821518531,
			"-0.012": 1.27644149325,
			"-0.011": 1.67507859825,
			"-0.01": 2.71253322693,
			"-0.009": 2.30194665083,
			"-0.008": 2.8214647399,
			"-0.007": 3.81387612272,
			"-0.006": 4.94939026366,
			"-0.005": 6.22176908358,
			"-0.004": 7.71091245694,
			"-0.003": 25.9527446654,
			"-0.002": 42.4341751547,
			"-0.001": 50.4316067647,
			"0.0": 49.7675982874,
			"0.001": 47.1867859075,
			"0.002": 26.5158489666,
			"0.003": 6.11514350957,
			"0.004": 4.58925289318,
			"0.005": 3.02571706819,
			"0.006": 3.82499539339,
			"0.007": 2.62342591636,
			"0.008": 3.50362143783,
			"0.009": 3.28271848408,
			"0.01": 2.78735474267,
			"0.011": 3.92860705167,
			"0.012": 2.04437054641,
			"0.013": 2.83121102863,
			"0.014": 4.86773190656,
			"0.015": 1.58167775139,
			"0.016": 0.0,
			"0.017": 0.0,
			"0.018": 0.0,
			"0.019": 0.0,
			"0.02": 0.0,
			"0.021": 0.0,
			"0.022": 0.0,
			"0.023": 0.0,
			"0.024": 0.0,
			"0.025": 0.0
		}
	}
}
