{
	 "smiles": "OC(=O)C1=CC=C(NC(=O)C2CC2)C=C1", 
	 "Tm": 548.15, 
	 "num_atms": 26, 
	 "gaussian": { 
		 "optdone": 1, 
		 "sigma_profile": "yes", 
		 "theory": "DFT", 
		 "functional": "B3LYP", 
		 "basiset": "6-31G**", 
		 "properties": { 
			 "R2extent": 5145.2074, 
			 "electric_dipole_moment_norm": 6.15559894324, 
			 "electric_quadrupole_moment_norm": 20.5775683371, 
			 "total_energy": -706.226479353, 
			 "HOMO_LUMO_gap": 0.18632, 
			 "cosmo_polarized_energy": -21.53, 
			 "cosmo_cavitation_energy": 30.73, 
			 "cosmo_dispersion_energy": -22.61, 
			 "cosmo_repulsion_energy": 1.75, 
			 "cosmo_total_nonelectrostatic_energy": 9.87, 
			 "SMD_solvation_energy": 6.4 
		},
		"coords": [
			{
				"x": 1.3203548476,
				"y": -3.0605890465,
				"z": -3.7836083524,
				"element": "O" 
			},
			{
				"x": 2.0300755778,
				"y": -2.3953645736,
				"z": -2.8309020226,
				"element": "C" 
			},
			{
				"x": 3.2255610484,
				"y": -2.5619796833,
				"z": -2.7483943441,
				"element": "O" 
			},
			{
				"x": 1.2630590646,
				"y": -1.4844502154,
				"z": -1.9275701127,
				"element": "C" 
			},
			{
				"x": -0.0167921374,
				"y": -0.992262157,
				"z": -2.2181261289,
				"element": "C" 
			},
			{
				"x": -0.686326358,
				"y": -0.1352927462,
				"z": -1.3491279973,
				"element": "C" 
			},
			{
				"x": -0.0661955758,
				"y": 0.248876159,
				"z": -0.1482910868,
				"element": "C" 
			},
			{
				"x": -0.6653977744,
				"y": 1.1029910989,
				"z": 0.7905851369,
				"element": "N" 
			},
			{
				"x": -1.9155684459,
				"y": 1.6955044677,
				"z": 0.7546342662,
				"element": "C" 
			},
			{
				"x": -2.7146461457,
				"y": 1.5413349855,
				"z": -0.1613814675,
				"element": "O" 
			},
			{
				"x": -2.2182497096,
				"y": 2.5529182284,
				"z": 1.9426143716,
				"element": "C" 
			},
			{
				"x": -3.6662232444,
				"y": 2.5998403068,
				"z": 2.4038043706,
				"element": "C" 
			},
			{
				"x": -3.0830388099,
				"y": 3.7798520338,
				"z": 1.7005663675,
				"element": "C" 
			},
			{
				"x": 1.2254602162,
				"y": -0.2290823965,
				"z": 0.1430471895,
				"element": "C" 
			},
			{
				"x": 1.8810778776,
				"y": -1.0748035211,
				"z": -0.7369880884,
				"element": "C" 
			},
			{
				"x": 0.3719049424,
				"y": -2.9571180647,
				"z": -3.626568397,
				"element": "H" 
			},
			{
				"x": -0.5075326801,
				"y": -1.2401165986,
				"z": -3.1568162132,
				"element": "H" 
			},
			{
				"x": -1.6698482254,
				"y": 0.2449971189,
				"z": -1.583506201,
				"element": "H" 
			},
			{
				"x": -0.1005900753,
				"y": 1.3086526744,
				"z": 1.6022883699,
				"element": "H" 
			},
			{
				"x": -1.4505704957,
				"y": 2.63014734,
				"z": 2.7083671264,
				"element": "H" 
			},
			{
				"x": -4.3574775363,
				"y": 1.9772250194,
				"z": 1.8457811524,
				"element": "H" 
			},
			{
				"x": -3.8423784656,
				"y": 2.6570327183,
				"z": 3.4731171241,
				"element": "H" 
			},
			{
				"x": -3.3839075298,
				"y": 3.9473802446,
				"z": 0.6718407548,
				"element": "H" 
			},
			{
				"x": -2.8467620871,
				"y": 4.6712053258,
				"z": 2.2727469977,
				"element": "H" 
			},
			{
				"x": 1.7140864634,
				"y": 0.0710147227,
				"z": 1.0673105617,
				"element": "H" 
			},
			{
				"x": 2.880525258,
				"y": -1.4368134412,
				"z": -0.5220233774,
				"element": "H" 
			}
		],
		 "valence_orbital": [ 
			{
				"type": "occ",
				"energy": -0.3034,
				"method": "rhf"
			},
			{
				"type": "occ",
				"energy": -0.27245,
				"method": "rhf"
			},
			{
				"type": "occ",
				"energy": -0.27002,
				"method": "rhf"
			},
			{
				"type": "occ",
				"energy": -0.26609,
				"method": "rhf"
			},
			{
				"type": "occ",
				"energy": -0.23681,
				"method": "rhf"
			},
			{
				"type": "unocc",
				"energy": -0.05049,
				"method": "rhf"
			},
			{
				"type": "unocc",
				"energy": -0.02018,
				"method": "rhf"
			},
			{
				"type": "unocc",
				"energy": 0.01014,
				"method": "rhf"
			},
			{
				"type": "unocc",
				"energy": 0.05056,
				"method": "rhf"
			},
			{
				"type": "unocc",
				"energy": 0.06021,
				"method": "rhf"
			}
		],
		"cosmo_sigma_profile": { 
			"-0.025": 0.0,
			"-0.024": 0.0,
			"-0.023": 0.0,
			"-0.022": 0.0,
			"-0.021": 0.0,
			"-0.02": 0.0,
			"-0.019": 0.0,
			"-0.018": 0.907294980875,
			"-0.017": 0.461906923608,
			"-0.016": 1.33873511899,
			"-0.015": 3.19968104159,
			"-0.014": 2.40404475932,
			"-0.013": 2.37867494105,
			"-0.012": 2.69896477203,
			"-0.011": 2.67294497619,
			"-0.01": 3.0245800807,
			"-0.009": 2.78488179922,
			"-0.008": 3.73841133285,
			"-0.007": 5.56274520914,
			"-0.006": 8.42013210447,
			"-0.005": 14.8494813982,
			"-0.004": 12.8728388861,
			"-0.003": 13.0212972987,
			"-0.002": 13.9121441898,
			"-0.001": 16.532311893,
			"0.0": 19.3598683703,
			"0.001": 18.4881973898,
			"0.002": 20.1216902025,
			"0.003": 20.106185036,
			"0.004": 9.52995691292,
			"0.005": 3.76848175279,
			"0.006": 4.92142386626,
			"0.007": 4.97730761185,
			"0.008": 3.75656054003,
			"0.009": 2.97895531294,
			"0.01": 6.7239302851,
			"0.011": 7.05428483851,
			"0.012": 8.15296650933,
			"0.013": 3.98964822944,
			"0.014": 0.476914867422,
			"0.015": 0.0,
			"0.016": 0.0,
			"0.017": 0.0,
			"0.018": 0.0,
			"0.019": 0.0,
			"0.02": 0.0,
			"0.021": 0.0,
			"0.022": 0.0,
			"0.023": 0.0,
			"0.024": 0.0,
			"0.025": 0.0
		}
	}
}
