{
	 "smiles": "CC(=O)NC1=C(CCNC(=O)C2=CC=CC=C2)C=CC(CCNC(=O)C2=CC=CC=C2)=C1", 
	 "Tm": 449.15, 
	 "num_atms": 59, 
	 "gaussian": { 
		 "optdone": 1, 
		 "sigma_profile": "yes", 
		 "theory": "DFT", 
		 "functional": "B3LYP", 
		 "basiset": "6-31G**", 
		 "properties": { 
			 "R2extent": 13303.8997, 
			 "electric_dipole_moment_norm": 4.08159253478, 
			 "electric_quadrupole_moment_norm": 33.0503089206, 
			 "total_energy": -1397.03180445, 
			 "HOMO_LUMO_gap": 0.19698, 
			 "cosmo_polarized_energy": -28.63, 
			 "cosmo_cavitation_energy": 61.25, 
			 "cosmo_dispersion_energy": -36.32, 
			 "cosmo_repulsion_energy": 2.64, 
			 "cosmo_total_nonelectrostatic_energy": 27.56, 
			 "SMD_solvation_energy": 9.94 
		},
		"coords": [
			{
				"x": -2.3723458937,
				"y": -0.7081651824,
				"z": 1.024365186,
				"element": "C" 
			},
			{
				"x": -2.5315507092,
				"y": -1.7077504479,
				"z": -0.1027861796,
				"element": "C" 
			},
			{
				"x": -3.5589958874,
				"y": -1.7988306074,
				"z": -0.7696656838,
				"element": "O" 
			},
			{
				"x": -1.4728708677,
				"y": -2.5538918858,
				"z": -0.3651202881,
				"element": "N" 
			},
			{
				"x": -0.1141873237,
				"y": -2.3962226573,
				"z": 0.0423501577,
				"element": "C" 
			},
			{
				"x": 0.871990398,
				"y": -2.0370387314,
				"z": -0.8968673983,
				"element": "C" 
			},
			{
				"x": 0.5747594532,
				"y": -1.7965773891,
				"z": -2.3643195506,
				"element": "C" 
			},
			{
				"x": 0.3945570235,
				"y": -0.3223278867,
				"z": -2.7781919614,
				"element": "C" 
			},
			{
				"x": -0.8759245964,
				"y": 0.2649238401,
				"z": -2.3669591773,
				"element": "N" 
			},
			{
				"x": -0.9537490984,
				"y": 1.5944512057,
				"z": -2.028351618,
				"element": "C" 
			},
			{
				"x": 0.0560413418,
				"y": 2.2733820905,
				"z": -1.8365387684,
				"element": "O" 
			},
			{
				"x": -2.328606942,
				"y": 2.1950541065,
				"z": -1.9146377561,
				"element": "C" 
			},
			{
				"x": -3.5108379312,
				"y": 1.4476961603,
				"z": -1.7967552582,
				"element": "C" 
			},
			{
				"x": -4.7426734909,
				"y": 2.098545888,
				"z": -1.7081501073,
				"element": "C" 
			},
			{
				"x": -4.8089513049,
				"y": 3.4924104548,
				"z": -1.7419135495,
				"element": "C" 
			},
			{
				"x": -3.634428946,
				"y": 4.240738888,
				"z": -1.8549963758,
				"element": "C" 
			},
			{
				"x": -2.40278324,
				"y": 3.5958549066,
				"z": -1.9360225667,
				"element": "C" 
			},
			{
				"x": 2.1896595595,
				"y": -1.9183081322,
				"z": -0.4356707441,
				"element": "C" 
			},
			{
				"x": 2.5269939398,
				"y": -2.1327325335,
				"z": 0.8983253435,
				"element": "C" 
			},
			{
				"x": 1.5469415201,
				"y": -2.4977373207,
				"z": 1.8309714033,
				"element": "C" 
			},
			{
				"x": 1.8856659386,
				"y": -2.738010797,
				"z": 3.2861179114,
				"element": "C" 
			},
			{
				"x": 1.9343326742,
				"y": -1.4549451701,
				"z": 4.1514184757,
				"element": "C" 
			},
			{
				"x": 3.0418024042,
				"y": -0.566143959,
				"z": 3.8183056562,
				"element": "N" 
			},
			{
				"x": 3.0261640322,
				"y": 0.5028668019,
				"z": 2.9388546972,
				"element": "C" 
			},
			{
				"x": 4.0320530362,
				"y": 0.79619764,
				"z": 2.3003414815,
				"element": "O" 
			},
			{
				"x": 1.7738829505,
				"y": 1.3243921023,
				"z": 2.8477200489,
				"element": "C" 
			},
			{
				"x": 1.0225007118,
				"y": 1.6716009778,
				"z": 3.9802494662,
				"element": "C" 
			},
			{
				"x": -0.0901635883,
				"y": 2.5047064939,
				"z": 3.8560713809,
				"element": "C" 
			},
			{
				"x": -0.465867199,
				"y": 2.9866737823,
				"z": 2.600254453,
				"element": "C" 
			},
			{
				"x": 0.2828776212,
				"y": 2.6513597923,
				"z": 1.4680316272,
				"element": "C" 
			},
			{
				"x": 1.4060365619,
				"y": 1.835040924,
				"z": 1.595596482,
				"element": "C" 
			},
			{
				"x": 0.2320382682,
				"y": -2.6374047719,
				"z": 1.3763398336,
				"element": "C" 
			},
			{
				"x": -1.4346284194,
				"y": -0.1515839123,
				"z": 0.9499299249,
				"element": "H" 
			},
			{
				"x": -3.2152495977,
				"y": -0.019157002,
				"z": 0.9856340153,
				"element": "H" 
			},
			{
				"x": -2.3780494815,
				"y": -1.2186471655,
				"z": 1.9925517608,
				"element": "H" 
			},
			{
				"x": -1.6542961161,
				"y": -3.132252106,
				"z": -1.176885768,
				"element": "H" 
			},
			{
				"x": 1.4165934368,
				"y": -2.1831838429,
				"z": -2.9504408362,
				"element": "H" 
			},
			{
				"x": -0.3007299501,
				"y": -2.3688679449,
				"z": -2.6922653977,
				"element": "H" 
			},
			{
				"x": 0.4944106422,
				"y": -0.2583110459,
				"z": -3.8716423983,
				"element": "H" 
			},
			{
				"x": 1.1786494737,
				"y": 0.3014286131,
				"z": -2.3460448398,
				"element": "H" 
			},
			{
				"x": -1.7198035735,
				"y": -0.1820493858,
				"z": -2.6975119193,
				"element": "H" 
			},
			{
				"x": -3.4976770953,
				"y": 0.3638765693,
				"z": -1.7297595573,
				"element": "H" 
			},
			{
				"x": -5.6495071588,
				"y": 1.5098816177,
				"z": -1.6055619758,
				"element": "H" 
			},
			{
				"x": -5.7706742733,
				"y": 3.9934809255,
				"z": -1.6762567259,
				"element": "H" 
			},
			{
				"x": -3.679282558,
				"y": 5.3257658529,
				"z": -1.8804655932,
				"element": "H" 
			},
			{
				"x": -1.4783371371,
				"y": 4.1566083248,
				"z": -2.0211167985,
				"element": "H" 
			},
			{
				"x": 2.9711954821,
				"y": -1.6489460803,
				"z": -1.1419670867,
				"element": "H" 
			},
			{
				"x": 3.5602332534,
				"y": -2.0160859869,
				"z": 1.2106792155,
				"element": "H" 
			},
			{
				"x": 2.8529977576,
				"y": -3.2505925648,
				"z": 3.3661060633,
				"element": "H" 
			},
			{
				"x": 1.1420394969,
				"y": -3.4099237082,
				"z": 3.7314119606,
				"element": "H" 
			},
			{
				"x": 1.0005192753,
				"y": -0.901855689,
				"z": 4.0421345134,
				"element": "H" 
			},
			{
				"x": 2.0189425888,
				"y": -1.7464034269,
				"z": 5.2059116668,
				"element": "H" 
			},
			{
				"x": 3.9586997696,
				"y": -1.0005668503,
				"z": 3.8225931901,
				"element": "H" 
			},
			{
				"x": 1.3270742742,
				"y": 1.3139843738,
				"z": 4.9595465254,
				"element": "H" 
			},
			{
				"x": -0.6586076672,
				"y": 2.7813452304,
				"z": 4.7396717618,
				"element": "H" 
			},
			{
				"x": -1.3365783208,
				"y": 3.6294117317,
				"z": 2.5039357786,
				"element": "H" 
			},
			{
				"x": 0.0057529657,
				"y": 3.0175387298,
				"z": 0.4847558671,
				"element": "H" 
			},
			{
				"x": 2.0041711629,
				"y": 1.58603984,
				"z": 0.7258213031,
				"element": "H" 
			},
			{
				"x": -0.5476186461,
				"y": -2.9588436798,
				"z": 2.0611687286,
				"element": "H" 
			}
		],
		 "valence_orbital": [ 
			{
				"type": "occ",
				"energy": -0.24824,
				"method": "rhf"
			},
			{
				"type": "occ",
				"energy": -0.24715,
				"method": "rhf"
			},
			{
				"type": "occ",
				"energy": -0.24443,
				"method": "rhf"
			},
			{
				"type": "occ",
				"energy": -0.23584,
				"method": "rhf"
			},
			{
				"type": "occ",
				"energy": -0.23317,
				"method": "rhf"
			},
			{
				"type": "unocc",
				"energy": -0.03619,
				"method": "rhf"
			},
			{
				"type": "unocc",
				"energy": -0.0255,
				"method": "rhf"
			},
			{
				"type": "unocc",
				"energy": -0.01762,
				"method": "rhf"
			},
			{
				"type": "unocc",
				"energy": -0.01519,
				"method": "rhf"
			},
			{
				"type": "unocc",
				"energy": -0.00531,
				"method": "rhf"
			}
		],
		"cosmo_sigma_profile": { 
			"-0.025": 0.0,
			"-0.024": 0.0,
			"-0.023": 0.0,
			"-0.022": 0.0,
			"-0.021": 0.0,
			"-0.02": 0.0,
			"-0.019": 0.0,
			"-0.018": 0.0,
			"-0.017": 0.0,
			"-0.016": 0.0,
			"-0.015": 0.0,
			"-0.014": 0.0855136395806,
			"-0.013": 2.06825973252,
			"-0.012": 2.70496520723,
			"-0.011": 3.4293608236,
			"-0.01": 3.59476982661,
			"-0.009": 4.20773101446,
			"-0.008": 4.19471693115,
			"-0.007": 5.92091813047,
			"-0.006": 22.2662987216,
			"-0.005": 35.2000524921,
			"-0.004": 48.3314449899,
			"-0.003": 38.5844050929,
			"-0.002": 34.0411391113,
			"-0.001": 35.5908882379,
			"0.0": 37.220698287,
			"0.001": 37.9212003498,
			"0.002": 34.1066445146,
			"0.003": 33.8003802781,
			"0.004": 30.1664798202,
			"0.005": 21.3414655247,
			"0.006": 6.81209864276,
			"0.007": 4.81302217414,
			"0.008": 4.80941194311,
			"0.009": 2.78211574754,
			"0.01": 3.36995979743,
			"0.011": 4.89598358491,
			"0.012": 4.97786547972,
			"0.013": 8.97748320084,
			"0.014": 8.38176344833,
			"0.015": 0.902292319374,
			"0.016": 0.0,
			"0.017": 0.0,
			"0.018": 0.0,
			"0.019": 0.0,
			"0.02": 0.0,
			"0.021": 0.0,
			"0.022": 0.0,
			"0.023": 0.0,
			"0.024": 0.0,
			"0.025": 0.0
		}
	}
}
