{
	 "smiles": "CC1=NC=C(C#N)C(N)=N1", 
	 "Tm": 523.15, 
	 "num_atms": 16, 
	 "gaussian": { 
		 "optdone": 1, 
		 "sigma_profile": "yes", 
		 "theory": "DFT", 
		 "functional": "B3LYP", 
		 "basiset": "6-31G**", 
		 "properties": { 
			 "R2extent": 1688.8941, 
			 "electric_dipole_moment_norm": 3.04868949878, 
			 "electric_quadrupole_moment_norm": 15.5670571095, 
			 "total_energy": -451.262698835, 
			 "HOMO_LUMO_gap": 0.19323, 
			 "cosmo_polarized_energy": -12.72, 
			 "cosmo_cavitation_energy": 21.56, 
			 "cosmo_dispersion_energy": -15.63, 
			 "cosmo_repulsion_energy": 1.29, 
			 "cosmo_total_nonelectrostatic_energy": 7.22, 
			 "SMD_solvation_energy": 2.43 
		},
		"coords": [
			{
				"x": -0.4900274639,
				"y": 0.3171491996,
				"z": 2.2208934925,
				"element": "C" 
			},
			{
				"x": -0.3641669262,
				"y": 0.0005137702,
				"z": 0.7571662763,
				"element": "C" 
			},
			{
				"x": -1.3071318729,
				"y": -0.8117704539,
				"z": 0.2352437309,
				"element": "N" 
			},
			{
				"x": -1.1882883529,
				"y": -1.0866464469,
				"z": -1.0612494519,
				"element": "C" 
			},
			{
				"x": -0.1603522017,
				"y": -0.5807288321,
				"z": -1.8628700018,
				"element": "C" 
			},
			{
				"x": -0.0384573479,
				"y": -0.8781453274,
				"z": -3.2485326945,
				"element": "C" 
			},
			{
				"x": 0.1119792066,
				"y": -1.0863999225,
				"z": -4.385270078,
				"element": "N" 
			},
			{
				"x": 0.7814548115,
				"y": 0.2663297027,
				"z": -1.2122027729,
				"element": "C" 
			},
			{
				"x": 1.8216934744,
				"y": 0.8206815858,
				"z": -1.8702102978,
				"element": "N" 
			},
			{
				"x": 0.6617552882,
				"y": 0.5444125692,
				"z": 0.0980346214,
				"element": "N" 
			},
			{
				"x": 0.3176726154,
				"y": 0.9740373557,
				"z": 2.5441147692,
				"element": "H" 
			},
			{
				"x": -0.4704653316,
				"y": -0.6082215346,
				"z": 2.8055506939,
				"element": "H" 
			},
			{
				"x": -1.4554187062,
				"y": 0.7947643467,
				"z": 2.4172339874,
				"element": "H" 
			},
			{
				"x": -1.9393650273,
				"y": -1.7402725256,
				"z": -1.5009516084,
				"element": "H" 
			},
			{
				"x": 1.9724799324,
				"y": 0.6548771535,
				"z": -2.8523011402,
				"element": "H" 
			},
			{
				"x": 2.4532379022,
				"y": 1.4106193595,
				"z": -1.352549526,
				"element": "H" 
			}
		],
		 "valence_orbital": [ 
			{
				"type": "occ",
				"energy": -0.34826,
				"method": "rhf"
			},
			{
				"type": "occ",
				"energy": -0.3145,
				"method": "rhf"
			},
			{
				"type": "occ",
				"energy": -0.2967,
				"method": "rhf"
			},
			{
				"type": "occ",
				"energy": -0.26143,
				"method": "rhf"
			},
			{
				"type": "occ",
				"energy": -0.25028,
				"method": "rhf"
			},
			{
				"type": "unocc",
				"energy": -0.05705,
				"method": "rhf"
			},
			{
				"type": "unocc",
				"energy": -0.02792,
				"method": "rhf"
			},
			{
				"type": "unocc",
				"energy": 0.01959,
				"method": "rhf"
			},
			{
				"type": "unocc",
				"energy": 0.05837,
				"method": "rhf"
			},
			{
				"type": "unocc",
				"energy": 0.07132,
				"method": "rhf"
			}
		],
		"cosmo_sigma_profile": { 
			"-0.025": 0.0,
			"-0.024": 0.0,
			"-0.023": 0.0,
			"-0.022": 0.0,
			"-0.021": 0.0,
			"-0.02": 0.0,
			"-0.019": 0.0,
			"-0.018": 0.0,
			"-0.017": 0.0,
			"-0.016": 0.0,
			"-0.015": 1.08882746199,
			"-0.014": 2.26762893866,
			"-0.013": 2.2797219454,
			"-0.012": 1.70276895297,
			"-0.011": 1.55712525054,
			"-0.01": 2.42550625608,
			"-0.009": 3.17608876305,
			"-0.008": 4.97542833602,
			"-0.007": 3.13091442127,
			"-0.006": 5.19497604171,
			"-0.005": 8.28914540732,
			"-0.004": 9.4271058753,
			"-0.003": 12.6852158905,
			"-0.002": 18.3199251857,
			"-0.001": 19.1191377392,
			"0.0": 10.9562594838,
			"0.001": 7.83554714404,
			"0.002": 6.18927808332,
			"0.003": 6.35575348453,
			"0.004": 5.45464856172,
			"0.005": 4.4506767955,
			"0.006": 4.81440773016,
			"0.007": 4.31657020847,
			"0.008": 5.10381711167,
			"0.009": 4.95916713598,
			"0.01": 4.3350900854,
			"0.011": 4.78300707981,
			"0.012": 4.20699126944,
			"0.013": 2.33152629763,
			"0.014": 0.80550589684,
			"0.015": 0.595807593381,
			"0.016": 0.303068245713,
			"0.017": 0.0,
			"0.018": 0.0,
			"0.019": 0.0,
			"0.02": 0.0,
			"0.021": 0.0,
			"0.022": 0.0,
			"0.023": 0.0,
			"0.024": 0.0,
			"0.025": 0.0
		}
	}
}
