{
	 "smiles": "CN(C)CC1=C(O)C(Br)=C(C(O)=O)C(Br)=C1O", 
	 "Tm": 481.15, 
	 "num_atms": 28, 
	 "gaussian": { 
		 "optdone": 1, 
		 "sigma_profile": "yes", 
		 "theory": "DFT", 
		 "functional": "B3LYP", 
		 "basiset": "6-31G**", 
		 "properties": { 
			 "R2extent": 8968.191, 
			 "electric_dipole_moment_norm": 7.10516142322, 
			 "electric_quadrupole_moment_norm": 19.7838233426, 
			 "total_energy": -5886.14104725, 
			 "HOMO_LUMO_gap": 0.17914, 
			 "cosmo_polarized_energy": -17.18, 
			 "cosmo_cavitation_energy": 35.21, 
			 "cosmo_dispersion_energy": -25.95, 
			 "cosmo_repulsion_energy": 2.01, 
			 "cosmo_total_nonelectrostatic_energy": 11.27, 
			 "SMD_solvation_energy": 6.1 
		},
		"coords": [
			{
				"x": 1.134539151,
				"y": -2.4213767124,
				"z": -1.3253310352,
				"element": "C" 
			},
			{
				"x": 0.1121555866,
				"y": -1.6578781497,
				"z": -2.0529926882,
				"element": "N" 
			},
			{
				"x": 0.325446247,
				"y": -1.7325280749,
				"z": -3.5009792254,
				"element": "C" 
			},
			{
				"x": 0.0433859065,
				"y": -0.2540671844,
				"z": -1.5881265366,
				"element": "C" 
			},
			{
				"x": -0.5838879643,
				"y": -0.1331034952,
				"z": -0.2122604232,
				"element": "C" 
			},
			{
				"x": -1.6712320442,
				"y": -0.953195711,
				"z": 0.1504254007,
				"element": "C" 
			},
			{
				"x": -2.1234587075,
				"y": -1.9088570307,
				"z": -0.674526905,
				"element": "O" 
			},
			{
				"x": -2.294066227,
				"y": -0.770082676,
				"z": 1.3999993174,
				"element": "C" 
			},
			{
				"x": -3.7539150366,
				"y": -1.9285151794,
				"z": 1.8276777185,
				"element": "Br" 
			},
			{
				"x": -1.8453981671,
				"y": 0.1998850029,
				"z": 2.3037562576,
				"element": "C" 
			},
			{
				"x": -2.4590520921,
				"y": 0.3665341181,
				"z": 3.6807401144,
				"element": "C" 
			},
			{
				"x": -3.774879775,
				"y": 0.6681362332,
				"z": 3.7160165948,
				"element": "O" 
			},
			{
				"x": -1.8164153144,
				"y": 0.2804895797,
				"z": 4.6951131579,
				"element": "O" 
			},
			{
				"x": -0.7562157098,
				"y": 0.9988610866,
				"z": 1.9323120981,
				"element": "C" 
			},
			{
				"x": -0.0773635736,
				"y": 2.384198536,
				"z": 3.0697521191,
				"element": "Br" 
			},
			{
				"x": -0.1355235078,
				"y": 0.8479057573,
				"z": 0.6826903389,
				"element": "C" 
			},
			{
				"x": 0.8924876112,
				"y": 1.6353397067,
				"z": 0.2817092825,
				"element": "O" 
			},
			{
				"x": 1.0924032204,
				"y": -3.4702987563,
				"z": -1.6305797485,
				"element": "H" 
			},
			{
				"x": 0.9436858427,
				"y": -2.3663041097,
				"z": -0.2512438067,
				"element": "H" 
			},
			{
				"x": 2.1496651933,
				"y": -2.0382203519,
				"z": -1.519027987,
				"element": "H" 
			},
			{
				"x": 0.33001056,
				"y": -2.7800108632,
				"z": -3.8141803591,
				"element": "H" 
			},
			{
				"x": 1.2805277032,
				"y": -1.2750673975,
				"z": -3.8080602988,
				"element": "H" 
			},
			{
				"x": -0.4880355945,
				"y": -1.2207367428,
				"z": -4.0226020234,
				"element": "H" 
			},
			{
				"x": 1.0339538472,
				"y": 0.2206191194,
				"z": -1.5925535329,
				"element": "H" 
			},
			{
				"x": -0.5757634592,
				"y": 0.2929775887,
				"z": -2.3111008202,
				"element": "H" 
			},
			{
				"x": -1.418957211,
				"y": -2.023537638,
				"z": -1.3823167182,
				"element": "H" 
			},
			{
				"x": -4.1638253769,
				"y": 0.590330536,
				"z": 2.831730178,
				"element": "H" 
			},
			{
				"x": 1.0976288919,
				"y": 2.2571028082,
				"z": 1.0014595307,
				"element": "H" 
			}
		],
		 "valence_orbital": [ 
			{
				"type": "occ",
				"energy": -0.28843,
				"method": "rhf"
			},
			{
				"type": "occ",
				"energy": -0.27672,
				"method": "rhf"
			},
			{
				"type": "occ",
				"energy": -0.25957,
				"method": "rhf"
			},
			{
				"type": "occ",
				"energy": -0.24653,
				"method": "rhf"
			},
			{
				"type": "occ",
				"energy": -0.22301,
				"method": "rhf"
			},
			{
				"type": "unocc",
				"energy": -0.04387,
				"method": "rhf"
			},
			{
				"type": "unocc",
				"energy": -0.02307,
				"method": "rhf"
			},
			{
				"type": "unocc",
				"energy": -0.00674,
				"method": "rhf"
			},
			{
				"type": "unocc",
				"energy": 0.01594,
				"method": "rhf"
			},
			{
				"type": "unocc",
				"energy": 0.02365,
				"method": "rhf"
			}
		],
		"cosmo_sigma_profile": { 
			"-0.025": 0.0,
			"-0.024": 0.0,
			"-0.023": 0.0,
			"-0.022": 0.0,
			"-0.021": 0.0,
			"-0.02": 0.0,
			"-0.019": 0.0,
			"-0.018": 0.21938610828,
			"-0.017": 0.944827075329,
			"-0.016": 0.645677471941,
			"-0.015": 0.58236322965,
			"-0.014": 1.46723660872,
			"-0.013": 1.4058103404,
			"-0.012": 1.4072023532,
			"-0.011": 2.27602628372,
			"-0.01": 1.0870037957,
			"-0.009": 1.86281672887,
			"-0.008": 1.60557536895,
			"-0.007": 3.22772746127,
			"-0.006": 7.53556746319,
			"-0.005": 15.5807289326,
			"-0.004": 22.9433832905,
			"-0.003": 26.7592181777,
			"-0.002": 31.7657438363,
			"-0.001": 30.7670596562,
			"0.0": 22.6559032088,
			"0.001": 16.2997738034,
			"0.002": 16.0913641779,
			"0.003": 13.8566205032,
			"0.004": 11.7268239863,
			"0.005": 7.5260190717,
			"0.006": 6.88355373542,
			"0.007": 6.95696495194,
			"0.008": 7.36262707412,
			"0.009": 6.735181614,
			"0.01": 7.10156026425,
			"0.011": 7.76854881612,
			"0.012": 2.31681149346,
			"0.013": 0.0,
			"0.014": 0.0,
			"0.015": 0.0,
			"0.016": 0.0,
			"0.017": 0.0,
			"0.018": 0.0,
			"0.019": 0.0,
			"0.02": 0.0,
			"0.021": 0.0,
			"0.022": 0.0,
			"0.023": 0.0,
			"0.024": 0.0,
			"0.025": 0.0
		}
	}
}
