{
	 "smiles": "CCCCOC(=O)CCC", 
	 "Tm": 181.35, 
	 "num_atms": 26, 
	 "gaussian": { 
		 "optdone": 1, 
		 "sigma_profile": "yes", 
		 "theory": "DFT", 
		 "functional": "B3LYP", 
		 "basiset": "6-31G**", 
		 "properties": { 
			 "R2extent": 2864.7317, 
			 "electric_dipole_moment_norm": 1.5498093657, 
			 "electric_quadrupole_moment_norm": 7.37318426055, 
			 "total_energy": -464.974909646, 
			 "HOMO_LUMO_gap": 0.28299, 
			 "cosmo_polarized_energy": -5.76, 
			 "cosmo_cavitation_energy": 27.97, 
			 "cosmo_dispersion_energy": -19.69, 
			 "cosmo_repulsion_energy": 1.65, 
			 "cosmo_total_nonelectrostatic_energy": 9.94, 
			 "SMD_solvation_energy": 5.46 
		},
		"coords": [
			{
				"x": 2.6425983578,
				"y": -0.5916550331,
				"z": 0.7047391476,
				"element": "C" 
			},
			{
				"x": 3.3651263746,
				"y": 0.73403979,
				"z": 0.4343724855,
				"element": "C" 
			},
			{
				"x": 2.4934340097,
				"y": 1.8479009449,
				"z": -0.1699292576,
				"element": "C" 
			},
			{
				"x": 2.0559887708,
				"y": 1.6471502936,
				"z": -1.6199085479,
				"element": "C" 
			},
			{
				"x": 1.1132447808,
				"y": 0.5589700807,
				"z": -1.7854691007,
				"element": "O" 
			},
			{
				"x": -0.195574749,
				"y": 0.8570802737,
				"z": -1.6074846461,
				"element": "C" 
			},
			{
				"x": -0.6047812291,
				"y": 1.9682032619,
				"z": -1.3416686501,
				"element": "O" 
			},
			{
				"x": -1.0556805601,
				"y": -0.3841244064,
				"z": -1.759862413,
				"element": "C" 
			},
			{
				"x": -2.5473990571,
				"y": -0.0751500458,
				"z": -1.9258833703,
				"element": "C" 
			},
			{
				"x": -2.8887582647,
				"y": 0.580232617,
				"z": -3.2681479289,
				"element": "C" 
			},
			{
				"x": 3.3145392815,
				"y": -1.3090442815,
				"z": 1.1877896721,
				"element": "H" 
			},
			{
				"x": 2.2693536183,
				"y": -1.0430424044,
				"z": -0.2177639564,
				"element": "H" 
			},
			{
				"x": 1.7852997282,
				"y": -0.4409739118,
				"z": 1.3715430794,
				"element": "H" 
			},
			{
				"x": 3.7847198455,
				"y": 1.1071088051,
				"z": 1.377354432,
				"element": "H" 
			},
			{
				"x": 4.2251366018,
				"y": 0.5552812261,
				"z": -0.2262624577,
				"element": "H" 
			},
			{
				"x": 1.6017827414,
				"y": 2.0171012607,
				"z": 0.4456267945,
				"element": "H" 
			},
			{
				"x": 3.0600751412,
				"y": 2.7887427101,
				"z": -0.1485237725,
				"element": "H" 
			},
			{
				"x": 2.9047038802,
				"y": 1.3704723254,
				"z": -2.2524173354,
				"element": "H" 
			},
			{
				"x": 1.5972681523,
				"y": 2.5602767826,
				"z": -2.0065675039,
				"element": "H" 
			},
			{
				"x": -0.8842205135,
				"y": -0.9940406255,
				"z": -0.8624938944,
				"element": "H" 
			},
			{
				"x": -0.6680332875,
				"y": -0.9739467605,
				"z": -2.5984390234,
				"element": "H" 
			},
			{
				"x": -2.8628047068,
				"y": 0.5802651658,
				"z": -1.1072099458,
				"element": "H" 
			},
			{
				"x": -3.1070674341,
				"y": -1.0119739657,
				"z": -1.8188081204,
				"element": "H" 
			},
			{
				"x": -2.3739780237,
				"y": 1.5392978832,
				"z": -3.3751052142,
				"element": "H" 
			},
			{
				"x": -2.597233768,
				"y": -0.0604249544,
				"z": -4.1088781904,
				"element": "H" 
			},
			{
				"x": -3.9641396906,
				"y": 0.7673529685,
				"z": -3.3510022819,
				"element": "H" 
			}
		],
		 "valence_orbital": [ 
			{
				"type": "occ",
				"energy": -0.33361,
				"method": "rhf"
			},
			{
				"type": "occ",
				"energy": -0.33109,
				"method": "rhf"
			},
			{
				"type": "occ",
				"energy": -0.32043,
				"method": "rhf"
			},
			{
				"type": "occ",
				"energy": -0.28896,
				"method": "rhf"
			},
			{
				"type": "occ",
				"energy": -0.26751,
				"method": "rhf"
			},
			{
				"type": "unocc",
				"energy": 0.01548,
				"method": "rhf"
			},
			{
				"type": "unocc",
				"energy": 0.08684,
				"method": "rhf"
			},
			{
				"type": "unocc",
				"energy": 0.10094,
				"method": "rhf"
			},
			{
				"type": "unocc",
				"energy": 0.12263,
				"method": "rhf"
			},
			{
				"type": "unocc",
				"energy": 0.12674,
				"method": "rhf"
			}
		],
		"cosmo_sigma_profile": { 
			"-0.025": 0.0,
			"-0.024": 0.0,
			"-0.023": 0.0,
			"-0.022": 0.0,
			"-0.021": 0.0,
			"-0.02": 0.0,
			"-0.019": 0.0,
			"-0.018": 0.0,
			"-0.017": 0.0,
			"-0.016": 0.0,
			"-0.015": 0.0,
			"-0.014": 0.0,
			"-0.013": 0.0,
			"-0.012": 0.0,
			"-0.011": 0.0,
			"-0.01": 0.0,
			"-0.009": 0.0,
			"-0.008": 0.0,
			"-0.007": 0.0,
			"-0.006": 0.972015833444,
			"-0.005": 6.28615430254,
			"-0.004": 12.7326933351,
			"-0.003": 23.7598258697,
			"-0.002": 35.9405444871,
			"-0.001": 34.2170827231,
			"0.0": 33.4253667284,
			"0.001": 27.1545531714,
			"0.002": 12.358160215,
			"0.003": 4.63515344202,
			"0.004": 3.38230868058,
			"0.005": 3.23531887136,
			"0.006": 2.77417730074,
			"0.007": 2.49885374281,
			"0.008": 2.19646992407,
			"0.009": 2.23476764278,
			"0.01": 1.57745609556,
			"0.011": 2.17803273268,
			"0.012": 3.71612984437,
			"0.013": 1.19812258935,
			"0.014": 0.0,
			"0.015": 0.0,
			"0.016": 0.0,
			"0.017": 0.0,
			"0.018": 0.0,
			"0.019": 0.0,
			"0.02": 0.0,
			"0.021": 0.0,
			"0.022": 0.0,
			"0.023": 0.0,
			"0.024": 0.0,
			"0.025": 0.0
		}
	}
}
