{
	 "smiles": "OC(=O)C=CC1=CC=C2OCOC2=C1", 
	 "Tm": 516.15, 
	 "num_atms": 22, 
	 "gaussian": { 
		 "optdone": 1, 
		 "sigma_profile": "yes", 
		 "theory": "DFT", 
		 "functional": "B3LYP", 
		 "basiset": "6-31G**", 
		 "properties": { 
			 "R2extent": 5293.1353, 
			 "electric_dipole_moment_norm": 6.57073684529, 
			 "electric_quadrupole_moment_norm": 32.8634232461, 
			 "total_energy": -686.743609348, 
			 "HOMO_LUMO_gap": 0.14918, 
			 "cosmo_polarized_energy": -17.87, 
			 "cosmo_cavitation_energy": 27.31, 
			 "cosmo_dispersion_energy": -20.51, 
			 "cosmo_repulsion_energy": 1.6, 
			 "cosmo_total_nonelectrostatic_energy": 8.4, 
			 "SMD_solvation_energy": 6.67 
		},
		"coords": [
			{
				"x": 3.6811124656,
				"y": -4.2448200602,
				"z": 2.8441255599,
				"element": "O" 
			},
			{
				"x": 2.3791158029,
				"y": -4.1774507816,
				"z": 3.2496289612,
				"element": "C" 
			},
			{
				"x": 1.9707776652,
				"y": -4.9392464794,
				"z": 4.0963069177,
				"element": "O" 
			},
			{
				"x": 1.5124405636,
				"y": -3.1600666457,
				"z": 2.606291883,
				"element": "C" 
			},
			{
				"x": 1.742406426,
				"y": -2.6041837018,
				"z": 1.4001769392,
				"element": "C" 
			},
			{
				"x": 0.9104596729,
				"y": -1.6394889263,
				"z": 0.6795803453,
				"element": "C" 
			},
			{
				"x": -0.2442324365,
				"y": -1.0641938048,
				"z": 1.2409395325,
				"element": "C" 
			},
			{
				"x": -1.0324530539,
				"y": -0.142914234,
				"z": 0.5398600836,
				"element": "C" 
			},
			{
				"x": -0.6273471335,
				"y": 0.1841287706,
				"z": -0.7424024082,
				"element": "C" 
			},
			{
				"x": -1.2087738857,
				"y": 1.0560061541,
				"z": -1.6214735173,
				"element": "O" 
			},
			{
				"x": -0.4342426714,
				"y": 0.9795169269,
				"z": -2.8280776771,
				"element": "C" 
			},
			{
				"x": 0.6937821543,
				"y": 0.1326888757,
				"z": -2.5770636402,
				"element": "O" 
			},
			{
				"x": 0.5153650498,
				"y": -0.372764032,
				"z": -1.3134031852,
				"element": "C" 
			},
			{
				"x": 1.3015009375,
				"y": -1.2775720809,
				"z": -0.6357700712,
				"element": "C" 
			},
			{
				"x": 3.9023153474,
				"y": -3.4608522935,
				"z": 2.3229749985,
				"element": "H" 
			},
			{
				"x": 0.602798339,
				"y": -2.9619018739,
				"z": 3.1635308471,
				"element": "H" 
			},
			{
				"x": 2.6348040478,
				"y": -2.9119203004,
				"z": 0.8529909182,
				"element": "H" 
			},
			{
				"x": -0.5392223677,
				"y": -1.3328596262,
				"z": 2.2492114697,
				"element": "H" 
			},
			{
				"x": -1.9193385727,
				"y": 0.298573921,
				"z": 0.9795130371,
				"element": "H" 
			},
			{
				"x": -1.0490281314,
				"y": 0.5472216762,
				"z": -3.6280999499,
				"element": "H" 
			},
			{
				"x": -0.0868570249,
				"y": 1.9817096698,
				"z": -3.1004306255,
				"element": "H" 
			},
			{
				"x": 2.1876168059,
				"y": -1.7020111534,
				"z": -1.0956104183,
				"element": "H" 
			}
		],
		 "valence_orbital": [ 
			{
				"type": "occ",
				"energy": -0.31083,
				"method": "rhf"
			},
			{
				"type": "occ",
				"energy": -0.29285,
				"method": "rhf"
			},
			{
				"type": "occ",
				"energy": -0.26615,
				"method": "rhf"
			},
			{
				"type": "occ",
				"energy": -0.25843,
				"method": "rhf"
			},
			{
				"type": "occ",
				"energy": -0.21773,
				"method": "rhf"
			},
			{
				"type": "unocc",
				"energy": -0.06855,
				"method": "rhf"
			},
			{
				"type": "unocc",
				"energy": -0.01614,
				"method": "rhf"
			},
			{
				"type": "unocc",
				"energy": 0.01988,
				"method": "rhf"
			},
			{
				"type": "unocc",
				"energy": 0.06266,
				"method": "rhf"
			},
			{
				"type": "unocc",
				"energy": 0.08029,
				"method": "rhf"
			}
		],
		"cosmo_sigma_profile": { 
			"-0.025": 0.0,
			"-0.024": 0.0,
			"-0.023": 0.0,
			"-0.022": 0.0,
			"-0.021": 0.0,
			"-0.02": 0.0,
			"-0.019": 0.0195390640056,
			"-0.018": 0.736037911792,
			"-0.017": 1.13007584576,
			"-0.016": 0.651127942679,
			"-0.015": 1.05314280021,
			"-0.014": 1.18523059889,
			"-0.013": 0.471918968016,
			"-0.012": 0.6752040383,
			"-0.011": 1.91968741784,
			"-0.01": 1.13910450854,
			"-0.009": 2.57668496716,
			"-0.008": 10.7857580595,
			"-0.007": 15.3545789786,
			"-0.006": 12.773727396,
			"-0.005": 11.3590353078,
			"-0.004": 8.69864568344,
			"-0.003": 9.34442320253,
			"-0.002": 9.03988420304,
			"-0.001": 12.2333771973,
			"0.0": 12.4479807036,
			"0.001": 13.8969305609,
			"0.002": 19.7600618017,
			"0.003": 17.0830775999,
			"0.004": 8.35652060734,
			"0.005": 5.66960694507,
			"0.006": 4.46680801671,
			"0.007": 4.51855805296,
			"0.008": 5.21962057272,
			"0.009": 6.23293178717,
			"0.01": 4.10119477108,
			"0.011": 5.22955133307,
			"0.012": 5.98417849489,
			"0.013": 4.4532598042,
			"0.014": 0.677338131387,
			"0.015": 0.0,
			"0.016": 0.0,
			"0.017": 0.0,
			"0.018": 0.0,
			"0.019": 0.0,
			"0.02": 0.0,
			"0.021": 0.0,
			"0.022": 0.0,
			"0.023": 0.0,
			"0.024": 0.0,
			"0.025": 0.0
		}
	}
}
