{
	 "smiles": "CCCCC(CC)C(=O)OC=C", 
	 "Tm": 183.15, 
	 "num_atms": 30, 
	 "gaussian": { 
		 "optdone": 1, 
		 "sigma_profile": "yes", 
		 "theory": "DFT", 
		 "functional": "B3LYP", 
		 "basiset": "6-31G**", 
		 "properties": { 
			 "R2extent": 2777.1459, 
			 "electric_dipole_moment_norm": 1.66362580829, 
			 "electric_quadrupole_moment_norm": 4.70715968499, 
			 "total_energy": -542.366395657, 
			 "HOMO_LUMO_gap": 0.23852, 
			 "cosmo_polarized_energy": -5.58, 
			 "cosmo_cavitation_energy": 32.21, 
			 "cosmo_dispersion_energy": -21.46, 
			 "cosmo_repulsion_energy": 1.77, 
			 "cosmo_total_nonelectrostatic_energy": 12.51, 
			 "SMD_solvation_energy": 7.11 
		},
		"coords": [
			{
				"x": 0.8046833308,
				"y": 3.3251357306,
				"z": 2.5311846996,
				"element": "C" 
			},
			{
				"x": 0.3230931314,
				"y": 3.0564333244,
				"z": 1.1006834154,
				"element": "C" 
			},
			{
				"x": -0.8839634702,
				"y": 2.1068201886,
				"z": 1.0033571371,
				"element": "C" 
			},
			{
				"x": -0.6756255911,
				"y": 0.6898444824,
				"z": 1.5672882611,
				"element": "C" 
			},
			{
				"x": 0.4824554983,
				"y": -0.1194804837,
				"z": 0.9353115576,
				"element": "C" 
			},
			{
				"x": 0.58423322,
				"y": -1.5296296575,
				"z": 1.5555342614,
				"element": "C" 
			},
			{
				"x": 1.771223068,
				"y": -2.3523666525,
				"z": 1.0438493313,
				"element": "C" 
			},
			{
				"x": 0.3379381747,
				"y": -0.1737960372,
				"z": -0.5748339408,
				"element": "C" 
			},
			{
				"x": 1.062190959,
				"y": 0.3698643736,
				"z": -1.3766207932,
				"element": "O" 
			},
			{
				"x": -0.7578284098,
				"y": -0.9189494164,
				"z": -0.9362489966,
				"element": "O" 
			},
			{
				"x": -1.0424273295,
				"y": -1.0489968705,
				"z": -2.2848190341,
				"element": "C" 
			},
			{
				"x": -2.0922581466,
				"y": -1.7615311932,
				"z": -2.6781556747,
				"element": "C" 
			},
			{
				"x": -0.0058144184,
				"y": 3.7205616218,
				"z": 3.154955094,
				"element": "H" 
			},
			{
				"x": 1.1802396574,
				"y": 2.4177776025,
				"z": 3.016765109,
				"element": "H" 
			},
			{
				"x": 1.6178095218,
				"y": 4.058248525,
				"z": 2.540577996,
				"element": "H" 
			},
			{
				"x": 1.1497189614,
				"y": 2.6643484166,
				"z": 0.4960067022,
				"element": "H" 
			},
			{
				"x": 0.0419093565,
				"y": 4.0092321078,
				"z": 0.6346951911,
				"element": "H" 
			},
			{
				"x": -1.7356471249,
				"y": 2.5562349438,
				"z": 1.5316896045,
				"element": "H" 
			},
			{
				"x": -1.1896883547,
				"y": 2.0350807747,
				"z": -0.0486051489,
				"element": "H" 
			},
			{
				"x": -0.48745816,
				"y": 0.7410607189,
				"z": 2.646587028,
				"element": "H" 
			},
			{
				"x": -1.6043956725,
				"y": 0.1205075922,
				"z": 1.4437126566,
				"element": "H" 
			},
			{
				"x": 1.4271558987,
				"y": 0.4078088453,
				"z": 1.1045414467,
				"element": "H" 
			},
			{
				"x": -0.3516079378,
				"y": -2.0681790127,
				"z": 1.3690475595,
				"element": "H" 
			},
			{
				"x": 0.6638108885,
				"y": -1.4078662953,
				"z": 2.6429714778,
				"element": "H" 
			},
			{
				"x": 2.7214277163,
				"y": -1.8390601485,
				"z": 1.228033105,
				"element": "H" 
			},
			{
				"x": 1.6991452645,
				"y": -2.5387775525,
				"z": -0.0331120047,
				"element": "H" 
			},
			{
				"x": 1.8148912677,
				"y": -3.3253829434,
				"z": 1.5431616698,
				"element": "H" 
			},
			{
				"x": -0.3503897603,
				"y": -0.5328497269,
				"z": -2.9397061879,
				"element": "H" 
			},
			{
				"x": -2.7466745233,
				"y": -2.2544524885,
				"z": -1.9676590911,
				"element": "H" 
			},
			{
				"x": -2.3098470154,
				"y": -1.8590407694,
				"z": -3.734792432,
				"element": "H" 
			}
		],
		 "valence_orbital": [ 
			{
				"type": "occ",
				"energy": -0.32428,
				"method": "rhf"
			},
			{
				"type": "occ",
				"energy": -0.31735,
				"method": "rhf"
			},
			{
				"type": "occ",
				"energy": -0.31078,
				"method": "rhf"
			},
			{
				"type": "occ",
				"energy": -0.27291,
				"method": "rhf"
			},
			{
				"type": "occ",
				"energy": -0.24861,
				"method": "rhf"
			},
			{
				"type": "unocc",
				"energy": -0.01009,
				"method": "rhf"
			},
			{
				"type": "unocc",
				"energy": 0.03888,
				"method": "rhf"
			},
			{
				"type": "unocc",
				"energy": 0.07469,
				"method": "rhf"
			},
			{
				"type": "unocc",
				"energy": 0.10732,
				"method": "rhf"
			},
			{
				"type": "unocc",
				"energy": 0.11363,
				"method": "rhf"
			}
		],
		"cosmo_sigma_profile": { 
			"-0.025": 0.0,
			"-0.024": 0.0,
			"-0.023": 0.0,
			"-0.022": 0.0,
			"-0.021": 0.0,
			"-0.02": 0.0,
			"-0.019": 0.0,
			"-0.018": 0.0,
			"-0.017": 0.0,
			"-0.016": 0.0,
			"-0.015": 0.0,
			"-0.014": 0.0,
			"-0.013": 0.0,
			"-0.012": 0.0,
			"-0.011": 0.0,
			"-0.01": 0.0,
			"-0.009": 0.0,
			"-0.008": 0.0,
			"-0.007": 1.46154996503,
			"-0.006": 3.95324179693,
			"-0.005": 4.62790217745,
			"-0.004": 9.01227312708,
			"-0.003": 29.8025826234,
			"-0.002": 34.9753230853,
			"-0.001": 40.0846643112,
			"0.0": 41.0891501703,
			"0.001": 31.9961159225,
			"0.002": 13.9740891138,
			"0.003": 8.41681075286,
			"0.004": 7.98492164741,
			"0.005": 7.84515427772,
			"0.006": 2.49492582123,
			"0.007": 1.89752509347,
			"0.008": 1.18389518,
			"0.009": 1.40919174313,
			"0.01": 2.70773818606,
			"0.011": 3.6416948277,
			"0.012": 1.57041770436,
			"0.013": 0.0860538310989,
			"0.014": 0.0,
			"0.015": 0.0,
			"0.016": 0.0,
			"0.017": 0.0,
			"0.018": 0.0,
			"0.019": 0.0,
			"0.02": 0.0,
			"0.021": 0.0,
			"0.022": 0.0,
			"0.023": 0.0,
			"0.024": 0.0,
			"0.025": 0.0
		}
	}
}
