{
	 "smiles": "CS(=O)(=O)NC1=C(N)C=CC(F)=C1", 
	 "Tm": 395.15, 
	 "num_atms": 22, 
	 "gaussian": { 
		 "optdone": 1, 
		 "sigma_profile": "yes", 
		 "theory": "DFT", 
		 "functional": "B3LYP", 
		 "basiset": "6-31G**", 
		 "properties": { 
			 "R2extent": 3077.0898, 
			 "electric_dipole_moment_norm": 5.45104100883, 
			 "electric_quadrupole_moment_norm": 16.6676486431, 
			 "total_energy": -1030.07555795, 
			 "HOMO_LUMO_gap": 0.20186, 
			 "cosmo_polarized_energy": -17.58, 
			 "cosmo_cavitation_energy": 27.61, 
			 "cosmo_dispersion_energy": -20.58, 
			 "cosmo_repulsion_energy": 1.57, 
			 "cosmo_total_nonelectrostatic_energy": 8.6, 
			 "SMD_solvation_energy": 5.06 
		},
		"coords": [
			{
				"x": -0.5314655011,
				"y": -1.7072678828,
				"z": -2.5479642688,
				"element": "C" 
			},
			{
				"x": 0.8025533102,
				"y": -0.8335447265,
				"z": -1.7148543341,
				"element": "S" 
			},
			{
				"x": 2.0741982467,
				"y": -1.4956750042,
				"z": -2.0049451581,
				"element": "O" 
			},
			{
				"x": 0.6164850175,
				"y": 0.5957263476,
				"z": -1.9730050143,
				"element": "O" 
			},
			{
				"x": 0.5027217295,
				"y": -1.2238270106,
				"z": -0.0983563558,
				"element": "N" 
			},
			{
				"x": -0.4291985948,
				"y": -0.6093956384,
				"z": 0.7740329526,
				"element": "C" 
			},
			{
				"x": -0.4473856407,
				"y": -1.1221967833,
				"z": 2.093635403,
				"element": "C" 
			},
			{
				"x": 0.4865661421,
				"y": -2.1356226799,
				"z": 2.4236001451,
				"element": "N" 
			},
			{
				"x": -1.329684441,
				"y": -0.5675167696,
				"z": 3.0213428559,
				"element": "C" 
			},
			{
				"x": -2.2028113671,
				"y": 0.4640780868,
				"z": 2.6677444215,
				"element": "C" 
			},
			{
				"x": -2.1791475779,
				"y": 0.9214876099,
				"z": 1.3597645893,
				"element": "C" 
			},
			{
				"x": -3.0212758605,
				"y": 1.9115508703,
				"z": 0.9911047209,
				"element": "F" 
			},
			{
				"x": -1.3065098836,
				"y": 0.4115632348,
				"z": 0.4029776065,
				"element": "C" 
			},
			{
				"x": -0.4572804538,
				"y": -1.4617291079,
				"z": -3.6087429704,
				"element": "H" 
			},
			{
				"x": -0.4039628971,
				"y": -2.777483238,
				"z": -2.38688633,
				"element": "H" 
			},
			{
				"x": -1.4851776586,
				"y": -1.3601831432,
				"z": -2.1468155605,
				"element": "H" 
			},
			{
				"x": 1.356007536,
				"y": -1.542286861,
				"z": 0.3575971828,
				"element": "H" 
			},
			{
				"x": 0.4484681506,
				"y": -2.39153347,
				"z": 3.403216299,
				"element": "H" 
			},
			{
				"x": 0.3721670972,
				"y": -2.9717369283,
				"z": 1.8564459197,
				"element": "H" 
			},
			{
				"x": -1.3423347795,
				"y": -0.9572278891,
				"z": 4.0360144247,
				"element": "H" 
			},
			{
				"x": -2.8928612552,
				"y": 0.8963349444,
				"z": 3.3830374305,
				"element": "H" 
			},
			{
				"x": -1.279671319,
				"y": 0.8521860391,
				"z": -0.5849439594,
				"element": "H" 
			}
		],
		 "valence_orbital": [ 
			{
				"type": "occ",
				"energy": -0.31214,
				"method": "rhf"
			},
			{
				"type": "occ",
				"energy": -0.30835,
				"method": "rhf"
			},
			{
				"type": "occ",
				"energy": -0.30254,
				"method": "rhf"
			},
			{
				"type": "occ",
				"energy": -0.24681,
				"method": "rhf"
			},
			{
				"type": "occ",
				"energy": -0.21315,
				"method": "rhf"
			},
			{
				"type": "unocc",
				"energy": -0.01129,
				"method": "rhf"
			},
			{
				"type": "unocc",
				"energy": 0.00651,
				"method": "rhf"
			},
			{
				"type": "unocc",
				"energy": 0.05055,
				"method": "rhf"
			},
			{
				"type": "unocc",
				"energy": 0.06895,
				"method": "rhf"
			},
			{
				"type": "unocc",
				"energy": 0.07523,
				"method": "rhf"
			}
		],
		"cosmo_sigma_profile": { 
			"-0.025": 0.0,
			"-0.024": 0.0,
			"-0.023": 0.0,
			"-0.022": 0.0,
			"-0.021": 0.0,
			"-0.02": 0.0,
			"-0.019": 0.0,
			"-0.018": 0.0,
			"-0.017": 0.0,
			"-0.016": 0.0,
			"-0.015": 0.0,
			"-0.014": 0.0,
			"-0.013": 0.317946172047,
			"-0.012": 2.16573393904,
			"-0.011": 4.08645597861,
			"-0.01": 4.12753137479,
			"-0.009": 7.21476691204,
			"-0.008": 9.28599875896,
			"-0.007": 10.2523016847,
			"-0.006": 13.032708371,
			"-0.005": 12.8566435004,
			"-0.004": 14.0657286531,
			"-0.003": 9.06716311686,
			"-0.002": 7.08317354124,
			"-0.001": 8.24005717352,
			"0.0": 8.47317435245,
			"0.001": 10.8781312012,
			"0.002": 14.7571198729,
			"0.003": 15.0665056391,
			"0.004": 17.839570379,
			"0.005": 14.8085353468,
			"0.006": 3.02583188906,
			"0.007": 3.39537860992,
			"0.008": 4.56241020712,
			"0.009": 3.80403897179,
			"0.01": 8.30152988974,
			"0.011": 10.4156605713,
			"0.012": 2.29187387843,
			"0.013": 0.375418269107,
			"0.014": 0.0,
			"0.015": 0.0,
			"0.016": 0.0,
			"0.017": 0.0,
			"0.018": 0.0,
			"0.019": 0.0,
			"0.02": 0.0,
			"0.021": 0.0,
			"0.022": 0.0,
			"0.023": 0.0,
			"0.024": 0.0,
			"0.025": 0.0
		}
	}
}
