{
	 "smiles": "CCCCCCCCCCCCCC(=O)CCC", 
	 "Tm": 313.15, 
	 "num_atms": 52, 
	 "gaussian": { 
		 "optdone": 1, 
		 "sigma_profile": "yes", 
		 "theory": "DFT", 
		 "functional": "B3LYP", 
		 "basiset": "6-31G**", 
		 "properties": { 
			 "R2extent": 11714.6923, 
			 "electric_dipole_moment_norm": 2.31911671548, 
			 "electric_quadrupole_moment_norm": 12.4572770106, 
			 "total_energy": -743.573751743, 
			 "HOMO_LUMO_gap": 0.23173, 
			 "cosmo_polarized_energy": -6.73, 
			 "cosmo_cavitation_energy": 50.67, 
			 "cosmo_dispersion_energy": -34.01, 
			 "cosmo_repulsion_energy": 2.76, 
			 "cosmo_total_nonelectrostatic_energy": 19.42, 
			 "SMD_solvation_energy": 7.19 
		},
		"coords": [
			{
				"x": -2.0540299474,
				"y": 1.8337826995,
				"z": -5.0070383606,
				"element": "C" 
			},
			{
				"x": -0.7319648155,
				"y": 1.0575247455,
				"z": -5.031348978,
				"element": "C" 
			},
			{
				"x": -0.8564061629,
				"y": -0.3938559871,
				"z": -5.5275020519,
				"element": "C" 
			},
			{
				"x": -1.7493070578,
				"y": -1.3178892215,
				"z": -4.6778287992,
				"element": "C" 
			},
			{
				"x": -1.3153059537,
				"y": -1.509067017,
				"z": -3.213583896,
				"element": "C" 
			},
			{
				"x": 0.0573157326,
				"y": -2.1775386708,
				"z": -3.041512674,
				"element": "C" 
			},
			{
				"x": 0.4196391997,
				"y": -2.5225307957,
				"z": -1.587189823,
				"element": "C" 
			},
			{
				"x": 0.6224515772,
				"y": -1.3090035626,
				"z": -0.6680914078,
				"element": "C" 
			},
			{
				"x": 1.0531333318,
				"y": -1.7023263585,
				"z": 0.7526905064,
				"element": "C" 
			},
			{
				"x": 1.1987731725,
				"y": -0.5265665446,
				"z": 1.7343069972,
				"element": "C" 
			},
			{
				"x": 2.3677671684,
				"y": 0.4179165705,
				"z": 1.4178826941,
				"element": "C" 
			},
			{
				"x": 2.5039583167,
				"y": 1.6327932762,
				"z": 2.352247566,
				"element": "C" 
			},
			{
				"x": 2.7572123764,
				"y": 1.2876533549,
				"z": 3.8276423902,
				"element": "C" 
			},
			{
				"x": 1.4955741795,
				"y": 1.064569969,
				"z": 4.662459926,
				"element": "C" 
			},
			{
				"x": 0.4131301133,
				"y": 1.5045093498,
				"z": 4.3180358661,
				"element": "O" 
			},
			{
				"x": 1.6843808519,
				"y": 0.3229189155,
				"z": 5.9823250387,
				"element": "C" 
			},
			{
				"x": 0.4086495625,
				"y": 0.1576837415,
				"z": 6.8154850809,
				"element": "C" 
			},
			{
				"x": -0.5702442227,
				"y": -0.8719741033,
				"z": 6.240436436,
				"element": "C" 
			},
			{
				"x": -1.8943893813,
				"y": 2.8753883415,
				"z": -4.7091447392,
				"element": "H" 
			},
			{
				"x": -2.7710727397,
				"y": 1.3989896466,
				"z": -4.3029328503,
				"element": "H" 
			},
			{
				"x": -2.526198691,
				"y": 1.8401001651,
				"z": -5.9966198252,
				"element": "H" 
			},
			{
				"x": -0.2826559992,
				"y": 1.0719744115,
				"z": -4.0298739465,
				"element": "H" 
			},
			{
				"x": -0.0220077561,
				"y": 1.5834785699,
				"z": -5.6826659283,
				"element": "H" 
			},
			{
				"x": 0.1488831525,
				"y": -0.8275670309,
				"z": -5.6026105385,
				"element": "H" 
			},
			{
				"x": -1.25248779,
				"y": -0.3813397145,
				"z": -6.5524324016,
				"element": "H" 
			},
			{
				"x": -2.7794653201,
				"y": -0.9398993946,
				"z": -4.692231815,
				"element": "H" 
			},
			{
				"x": -1.7872875456,
				"y": -2.3020231573,
				"z": -5.1650557777,
				"element": "H" 
			},
			{
				"x": -1.3271433089,
				"y": -0.5415373413,
				"z": -2.6965158252,
				"element": "H" 
			},
			{
				"x": -2.0710624026,
				"y": -2.1261158415,
				"z": -2.7077598479,
				"element": "H" 
			},
			{
				"x": 0.8428340835,
				"y": -1.5342191364,
				"z": -3.4607215195,
				"element": "H" 
			},
			{
				"x": 0.0738474798,
				"y": -3.1011339154,
				"z": -3.6369734111,
				"element": "H" 
			},
			{
				"x": -0.3611295478,
				"y": -3.1708787149,
				"z": -1.1636043414,
				"element": "H" 
			},
			{
				"x": 1.3412148334,
				"y": -3.1208490428,
				"z": -1.5863654449,
				"element": "H" 
			},
			{
				"x": -0.3053150292,
				"y": -0.7247708391,
				"z": -0.6068556739,
				"element": "H" 
			},
			{
				"x": 1.3721354487,
				"y": -0.6451516628,
				"z": -1.1196097706,
				"element": "H" 
			},
			{
				"x": 0.3142480134,
				"y": -2.4070179144,
				"z": 1.1578842695,
				"element": "H" 
			},
			{
				"x": 2.0020621161,
				"y": -2.2565532189,
				"z": 0.7038325557,
				"element": "H" 
			},
			{
				"x": 0.2634450049,
				"y": 0.0473018983,
				"z": 1.7653281567,
				"element": "H" 
			},
			{
				"x": 1.3282672139,
				"y": -0.93785271,
				"z": 2.7441115287,
				"element": "H" 
			},
			{
				"x": 3.3057841962,
				"y": -0.1574039359,
				"z": 1.4353622921,
				"element": "H" 
			},
			{
				"x": 2.2657283052,
				"y": 0.7942418887,
				"z": 0.3925584097,
				"element": "H" 
			},
			{
				"x": 1.5982613906,
				"y": 2.2470058572,
				"z": 2.29881478,
				"element": "H" 
			},
			{
				"x": 3.3313834239,
				"y": 2.2537060863,
				"z": 1.9894880907,
				"element": "H" 
			},
			{
				"x": 3.283759874,
				"y": 2.1190258023,
				"z": 4.3206289903,
				"element": "H" 
			},
			{
				"x": 3.4256747439,
				"y": 0.4227381692,
				"z": 3.9315866357,
				"element": "H" 
			},
			{
				"x": 2.1367277378,
				"y": -0.6547442346,
				"z": 5.7596164855,
				"element": "H" 
			},
			{
				"x": 2.4549370299,
				"y": 0.8674760262,
				"z": 6.5481061714,
				"element": "H" 
			},
			{
				"x": -0.0889817929,
				"y": 1.1305835469,
				"z": 6.8925052485,
				"element": "H" 
			},
			{
				"x": 0.6934477381,
				"y": -0.1351649574,
				"z": 7.8333381728,
				"element": "H" 
			},
			{
				"x": -0.9045077172,
				"y": -0.5749076647,
				"z": 5.243333496,
				"element": "H" 
			},
			{
				"x": -0.1050800099,
				"y": -1.8624516317,
				"z": 6.166477484,
				"element": "H" 
			},
			{
				"x": -1.4552841767,
				"y": -0.9697287115,
				"z": 6.8775843789,
				"element": "H" 
			}
		],
		 "valence_orbital": [ 
			{
				"type": "occ",
				"energy": -0.30478,
				"method": "rhf"
			},
			{
				"type": "occ",
				"energy": -0.30258,
				"method": "rhf"
			},
			{
				"type": "occ",
				"energy": -0.29831,
				"method": "rhf"
			},
			{
				"type": "occ",
				"energy": -0.29458,
				"method": "rhf"
			},
			{
				"type": "occ",
				"energy": -0.24177,
				"method": "rhf"
			},
			{
				"type": "unocc",
				"energy": -0.01004,
				"method": "rhf"
			},
			{
				"type": "unocc",
				"energy": 0.07276,
				"method": "rhf"
			},
			{
				"type": "unocc",
				"energy": 0.08009,
				"method": "rhf"
			},
			{
				"type": "unocc",
				"energy": 0.10037,
				"method": "rhf"
			},
			{
				"type": "unocc",
				"energy": 0.1051,
				"method": "rhf"
			}
		],
		"cosmo_sigma_profile": { 
			"-0.025": 0.0,
			"-0.024": 0.0,
			"-0.023": 0.0,
			"-0.022": 0.0,
			"-0.021": 0.0,
			"-0.02": 0.0,
			"-0.019": 0.0,
			"-0.018": 0.0,
			"-0.017": 0.0,
			"-0.016": 0.0,
			"-0.015": 0.0,
			"-0.014": 0.0,
			"-0.013": 0.0,
			"-0.012": 0.0,
			"-0.011": 0.0,
			"-0.01": 0.0,
			"-0.009": 0.0,
			"-0.008": 0.0,
			"-0.007": 0.104592427707,
			"-0.006": 2.7208606421,
			"-0.005": 9.30760057125,
			"-0.004": 10.7570965968,
			"-0.003": 15.689135264,
			"-0.002": 48.2552204449,
			"-0.001": 83.1428364651,
			"0.0": 84.774491166,
			"0.001": 74.774189363,
			"0.002": 32.3782957691,
			"0.003": 3.79231930821,
			"0.004": 2.58687167489,
			"0.005": 2.6254158242,
			"0.006": 2.20970935793,
			"0.007": 2.05366376626,
			"0.008": 2.1126184721,
			"0.009": 1.73654470294,
			"0.01": 1.95198690664,
			"0.011": 2.12179261043,
			"0.012": 2.77275520061,
			"0.013": 1.83744299984,
			"0.014": 0.0,
			"0.015": 0.0,
			"0.016": 0.0,
			"0.017": 0.0,
			"0.018": 0.0,
			"0.019": 0.0,
			"0.02": 0.0,
			"0.021": 0.0,
			"0.022": 0.0,
			"0.023": 0.0,
			"0.024": 0.0,
			"0.025": 0.0
		}
	}
}
