{
	 "smiles": "FC(F)(F)C1=CC(=CC=C1)C(=O)C1=CC=CC=C1", 
	 "Tm": 325.35, 
	 "num_atms": 27, 
	 "gaussian": { 
		 "optdone": 1, 
		 "sigma_profile": "yes", 
		 "theory": "DFT", 
		 "functional": "B3LYP", 
		 "basiset": "6-31G**", 
		 "properties": { 
			 "R2extent": 5605.8891, 
			 "electric_dipole_moment_norm": 1.56617990346, 
			 "electric_quadrupole_moment_norm": 19.6605013962, 
			 "total_energy": -913.668282557, 
			 "HOMO_LUMO_gap": 0.17929, 
			 "cosmo_polarized_energy": -8.56, 
			 "cosmo_cavitation_energy": 33.28, 
			 "cosmo_dispersion_energy": -23.16, 
			 "cosmo_repulsion_energy": 1.72, 
			 "cosmo_total_nonelectrostatic_energy": 11.84, 
			 "SMD_solvation_energy": 7.2 
		},
		"coords": [
			{
				"x": 0.1736270548,
				"y": -2.6436412675,
				"z": 2.6946115668,
				"element": "F" 
			},
			{
				"x": 0.2994273589,
				"y": -1.3050613675,
				"z": 2.5579216276,
				"element": "C" 
			},
			{
				"x": 1.6205629433,
				"y": -1.0187147369,
				"z": 2.5503131584,
				"element": "F" 
			},
			{
				"x": -0.2170106615,
				"y": -0.7451602987,
				"z": 3.6757570246,
				"element": "F" 
			},
			{
				"x": -0.3888510486,
				"y": -0.8031021743,
				"z": 1.316312732,
				"element": "C" 
			},
			{
				"x": 0.0818182596,
				"y": 0.3496890015,
				"z": 0.6833887165,
				"element": "C" 
			},
			{
				"x": -0.5898229827,
				"y": 0.8608202355,
				"z": -0.4343291118,
				"element": "C" 
			},
			{
				"x": -1.7456035396,
				"y": 0.2103999265,
				"z": -0.8949301481,
				"element": "C" 
			},
			{
				"x": -2.1999916627,
				"y": -0.9489760954,
				"z": -0.2737272382,
				"element": "C" 
			},
			{
				"x": -1.5235236127,
				"y": -1.4603142102,
				"z": 0.8353383269,
				"element": "C" 
			},
			{
				"x": -0.1848079133,
				"y": 2.136007502,
				"z": -1.1221117835,
				"element": "C" 
			},
			{
				"x": -1.0431450194,
				"y": 2.8141496081,
				"z": -1.675271478,
				"element": "O" 
			},
			{
				"x": 1.2460528859,
				"y": 2.580243577,
				"z": -1.1322855232,
				"element": "C" 
			},
			{
				"x": 1.499375869,
				"y": 3.9543673061,
				"z": -1.2773791798,
				"element": "C" 
			},
			{
				"x": 2.8060797796,
				"y": 4.4279608103,
				"z": -1.3385142479,
				"element": "C" 
			},
			{
				"x": 3.8782426554,
				"y": 3.5317307421,
				"z": -1.2814945131,
				"element": "C" 
			},
			{
				"x": 3.6370989246,
				"y": 2.1620532886,
				"z": -1.1642095359,
				"element": "C" 
			},
			{
				"x": 2.3277435304,
				"y": 1.6864611333,
				"z": -1.0840084892,
				"element": "C" 
			},
			{
				"x": 0.9598984471,
				"y": 0.8509323638,
				"z": 1.0730164246,
				"element": "H" 
			},
			{
				"x": -2.2713769104,
				"y": 0.635196211,
				"z": -1.7433964944,
				"element": "H" 
			},
			{
				"x": -3.0838122367,
				"y": -1.4562625359,
				"z": -0.6480081851,
				"element": "H" 
			},
			{
				"x": -1.8703469185,
				"y": -2.3641350565,
				"z": 1.3246439952,
				"element": "H" 
			},
			{
				"x": 0.6536219942,
				"y": 4.6308140682,
				"z": -1.3411317319,
				"element": "H" 
			},
			{
				"x": 2.992338282,
				"y": 5.4934547716,
				"z": -1.4362348933,
				"element": "H" 
			},
			{
				"x": 4.8985371951,
				"y": 3.9007134903,
				"z": -1.3346766813,
				"element": "H" 
			},
			{
				"x": 4.4672557447,
				"y": 1.4624719071,
				"z": -1.1375983932,
				"element": "H" 
			},
			{
				"x": 2.1490115816,
				"y": 0.6189017999,
				"z": -1.0116959446,
				"element": "H" 
			}
		],
		 "valence_orbital": [ 
			{
				"type": "occ",
				"energy": -0.27693,
				"method": "rhf"
			},
			{
				"type": "occ",
				"energy": -0.27585,
				"method": "rhf"
			},
			{
				"type": "occ",
				"energy": -0.26678,
				"method": "rhf"
			},
			{
				"type": "occ",
				"energy": -0.26446,
				"method": "rhf"
			},
			{
				"type": "occ",
				"energy": -0.25298,
				"method": "rhf"
			},
			{
				"type": "unocc",
				"energy": -0.07369,
				"method": "rhf"
			},
			{
				"type": "unocc",
				"energy": -0.0333,
				"method": "rhf"
			},
			{
				"type": "unocc",
				"energy": -0.02521,
				"method": "rhf"
			},
			{
				"type": "unocc",
				"energy": -0.01276,
				"method": "rhf"
			},
			{
				"type": "unocc",
				"energy": 0.04336,
				"method": "rhf"
			}
		],
		"cosmo_sigma_profile": { 
			"-0.025": 0.0,
			"-0.024": 0.0,
			"-0.023": 0.0,
			"-0.022": 0.0,
			"-0.021": 0.0,
			"-0.02": 0.0,
			"-0.019": 0.0,
			"-0.018": 0.0,
			"-0.017": 0.0,
			"-0.016": 0.0,
			"-0.015": 0.0,
			"-0.014": 0.0,
			"-0.013": 0.0,
			"-0.012": 0.0,
			"-0.011": 0.0,
			"-0.01": 0.0,
			"-0.009": 0.0,
			"-0.008": 0.736797359134,
			"-0.007": 6.6573039235,
			"-0.006": 16.2800813171,
			"-0.005": 20.5381255133,
			"-0.004": 19.7031396942,
			"-0.003": 17.1993285754,
			"-0.002": 18.2022346153,
			"-0.001": 16.3051501963,
			"0.0": 20.2912578135,
			"0.001": 25.0771813061,
			"0.002": 35.5771392163,
			"0.003": 39.3081010695,
			"0.004": 13.4982663696,
			"0.005": 2.63785936905,
			"0.006": 2.2541261005,
			"0.007": 1.65497198447,
			"0.008": 1.94395170657,
			"0.009": 1.35413632021,
			"0.01": 2.22458772333,
			"0.011": 3.39602329626,
			"0.012": 3.29972283515,
			"0.013": 0.130159728179,
			"0.014": 0.0,
			"0.015": 0.0,
			"0.016": 0.0,
			"0.017": 0.0,
			"0.018": 0.0,
			"0.019": 0.0,
			"0.02": 0.0,
			"0.021": 0.0,
			"0.022": 0.0,
			"0.023": 0.0,
			"0.024": 0.0,
			"0.025": 0.0
		}
	}
}
