{
	 "smiles": "COC1=CC=C(CC(O)=O)C=C1OC", 
	 "Tm": 370.65, 
	 "num_atms": 26, 
	 "gaussian": { 
		 "optdone": 1, 
		 "sigma_profile": "yes", 
		 "theory": "DFT", 
		 "functional": "B3LYP", 
		 "basiset": "6-31G**", 
		 "properties": { 
			 "R2extent": 3602.8561, 
			 "electric_dipole_moment_norm": 1.46350279808, 
			 "electric_quadrupole_moment_norm": 10.1064868312, 
			 "total_energy": -689.177315461, 
			 "HOMO_LUMO_gap": 0.20521, 
			 "cosmo_polarized_energy": -12.63, 
			 "cosmo_cavitation_energy": 30.23, 
			 "cosmo_dispersion_energy": -21.38, 
			 "cosmo_repulsion_energy": 1.72, 
			 "cosmo_total_nonelectrostatic_energy": 10.57, 
			 "SMD_solvation_energy": 7.87 
		},
		"coords": [
			{
				"x": -2.8998766088,
				"y": 1.306283732,
				"z": -2.9266268487,
				"element": "C" 
			},
			{
				"x": -1.5269237665,
				"y": 1.4074434246,
				"z": -3.3114087682,
				"element": "O" 
			},
			{
				"x": -0.611960557,
				"y": 0.9098000293,
				"z": -2.416623658,
				"element": "C" 
			},
			{
				"x": 0.1544944636,
				"y": -0.19124714,
				"z": -2.781416034,
				"element": "C" 
			},
			{
				"x": 1.1452784259,
				"y": -0.6937603126,
				"z": -1.9322680507,
				"element": "C" 
			},
			{
				"x": 1.3733251041,
				"y": -0.0924392699,
				"z": -0.6959328906,
				"element": "C" 
			},
			{
				"x": 2.4572318794,
				"y": -0.6164043385,
				"z": 0.2358767423,
				"element": "C" 
			},
			{
				"x": 1.894015494,
				"y": -0.9988743138,
				"z": 1.5917844601,
				"element": "C" 
			},
			{
				"x": 1.7569995184,
				"y": -2.3373874,
				"z": 1.7315981285,
				"element": "O" 
			},
			{
				"x": 1.5746837284,
				"y": -0.2158846833,
				"z": 2.4613680546,
				"element": "O" 
			},
			{
				"x": 0.6045016765,
				"y": 1.019986764,
				"z": -0.3173414746,
				"element": "C" 
			},
			{
				"x": -0.3794028311,
				"y": 1.529581624,
				"z": -1.1654676822,
				"element": "C" 
			},
			{
				"x": -1.1526144652,
				"y": 2.6186481723,
				"z": -0.8821225543,
				"element": "O" 
			},
			{
				"x": -0.9361435633,
				"y": 3.2901855178,
				"z": 0.3505487491,
				"element": "C" 
			},
			{
				"x": -3.479142822,
				"y": 1.6998524687,
				"z": -3.7646191751,
				"element": "H" 
			},
			{
				"x": -3.1818965127,
				"y": 0.2590988645,
				"z": -2.7545416829,
				"element": "H" 
			},
			{
				"x": -3.1110316866,
				"y": 1.8934689352,
				"z": -2.0284012626,
				"element": "H" 
			},
			{
				"x": -0.0366230036,
				"y": -0.642537428,
				"z": -3.7498549162,
				"element": "H" 
			},
			{
				"x": 1.7331275338,
				"y": -1.5544847814,
				"z": -2.237597475,
				"element": "H" 
			},
			{
				"x": 2.9540091459,
				"y": -1.4789348844,
				"z": -0.2123274022,
				"element": "H" 
			},
			{
				"x": 3.2074703001,
				"y": 0.1613793668,
				"z": 0.4164313283,
				"element": "H" 
			},
			{
				"x": 1.3648088161,
				"y": -2.4786630778,
				"z": 2.6103197873,
				"element": "H" 
			},
			{
				"x": 0.7848417113,
				"y": 1.4704308304,
				"z": 0.6512392319,
				"element": "H" 
			},
			{
				"x": -1.1287311249,
				"y": 2.6349485958,
				"z": 1.2092844201,
				"element": "H" 
			},
			{
				"x": -1.6409717598,
				"y": 4.1228475031,
				"z": 0.3657178121,
				"element": "H" 
			},
			{
				"x": 0.0867309039,
				"y": 3.6805618011,
				"z": 0.4214811609,
				"element": "H" 
			}
		],
		 "valence_orbital": [ 
			{
				"type": "occ",
				"energy": -0.31416,
				"method": "rhf"
			},
			{
				"type": "occ",
				"energy": -0.2783,
				"method": "rhf"
			},
			{
				"type": "occ",
				"energy": -0.26949,
				"method": "rhf"
			},
			{
				"type": "occ",
				"energy": -0.23708,
				"method": "rhf"
			},
			{
				"type": "occ",
				"energy": -0.21212,
				"method": "rhf"
			},
			{
				"type": "unocc",
				"energy": -0.00691,
				"method": "rhf"
			},
			{
				"type": "unocc",
				"energy": 0.00732,
				"method": "rhf"
			},
			{
				"type": "unocc",
				"energy": 0.02121,
				"method": "rhf"
			},
			{
				"type": "unocc",
				"energy": 0.07712,
				"method": "rhf"
			},
			{
				"type": "unocc",
				"energy": 0.09242,
				"method": "rhf"
			}
		],
		"cosmo_sigma_profile": { 
			"-0.025": 0.0,
			"-0.024": 0.0,
			"-0.023": 0.0,
			"-0.022": 0.0,
			"-0.021": 0.0,
			"-0.02": 0.0,
			"-0.019": 0.0,
			"-0.018": 0.919741921783,
			"-0.017": 0.887377701531,
			"-0.016": 0.417527370053,
			"-0.015": 1.07813442399,
			"-0.014": 1.1298872938,
			"-0.013": 0.264776861839,
			"-0.012": 0.449497591569,
			"-0.011": 0.649115316174,
			"-0.01": 1.39062528401,
			"-0.009": 0.35230618525,
			"-0.008": 0.459588827363,
			"-0.007": 2.13137178329,
			"-0.006": 11.9594419284,
			"-0.005": 21.3434997378,
			"-0.004": 23.3317911134,
			"-0.003": 25.3078528358,
			"-0.002": 20.5437953829,
			"-0.001": 13.5330043987,
			"0.0": 12.5835883705,
			"0.001": 11.9065183127,
			"0.002": 12.1236170611,
			"0.003": 14.6160181765,
			"0.004": 13.9036149158,
			"0.005": 11.7430854159,
			"0.006": 5.78071902183,
			"0.007": 4.20465583592,
			"0.008": 4.92371546456,
			"0.009": 5.24957681887,
			"0.01": 4.73158203422,
			"0.011": 5.60039991936,
			"0.012": 5.48628574088,
			"0.013": 0.177008891047,
			"0.014": 0.0,
			"0.015": 0.0,
			"0.016": 0.0,
			"0.017": 0.0,
			"0.018": 0.0,
			"0.019": 0.0,
			"0.02": 0.0,
			"0.021": 0.0,
			"0.022": 0.0,
			"0.023": 0.0,
			"0.024": 0.0,
			"0.025": 0.0
		}
	}
}
