{
	 "smiles": "[O-][N+](=O)C1=CC=C(C=C1)C1=C(C(=NN1C1=CC=CC=C1)C(=O)C1=CC=CC=C1)S(=O)(=O)C1=CC=CC=C1", 
	 "Tm": 389.15, 
	 "num_atms": 56, 
	 "gaussian": { 
		 "optdone": 1, 
		 "sigma_profile": "yes", 
		 "theory": "DFT", 
		 "functional": "B3LYP", 
		 "basiset": "6-31G**", 
		 "properties": { 
			 "R2extent": 19264.1075, 
			 "electric_dipole_moment_norm": 6.00362261056, 
			 "electric_quadrupole_moment_norm": 28.0233121015, 
			 "total_energy": -2016.80013193, 
			 "HOMO_LUMO_gap": 0.15453, 
			 "cosmo_polarized_energy": -24.37, 
			 "cosmo_cavitation_energy": 63.32, 
			 "cosmo_dispersion_energy": -41.31, 
			 "cosmo_repulsion_energy": 3.09, 
			 "cosmo_total_nonelectrostatic_energy": 25.09, 
			 "SMD_solvation_energy": 11.72 
		},
		"coords": [
			{
				"x": -2.1689809158,
				"y": 5.9760389174,
				"z": 3.1138777225,
				"element": "O" 
			},
			{
				"x": -2.5562911278,
				"y": 5.4617320728,
				"z": 2.0659859326,
				"element": "N" 
			},
			{
				"x": -3.3868054972,
				"y": 5.9564132478,
				"z": 1.3045963663,
				"element": "O" 
			},
			{
				"x": -1.9851964171,
				"y": 4.1553416363,
				"z": 1.6951460074,
				"element": "C" 
			},
			{
				"x": -1.0371699139,
				"y": 3.5703634112,
				"z": 2.5310673381,
				"element": "C" 
			},
			{
				"x": -0.5007847126,
				"y": 2.3345816675,
				"z": 2.1795558244,
				"element": "C" 
			},
			{
				"x": -0.9151230646,
				"y": 1.6921031157,
				"z": 1.0014362332,
				"element": "C" 
			},
			{
				"x": -1.871795308,
				"y": 2.3099607162,
				"z": 0.1762232522,
				"element": "C" 
			},
			{
				"x": -2.410793813,
				"y": 3.5453510221,
				"z": 0.5170260219,
				"element": "C" 
			},
			{
				"x": -0.3732539318,
				"y": 0.3705557394,
				"z": 0.6106256659,
				"element": "C" 
			},
			{
				"x": 0.9155630389,
				"y": -0.047926791,
				"z": 0.2722919038,
				"element": "C" 
			},
			{
				"x": 0.7803497923,
				"y": -1.3991861406,
				"z": -0.1504071903,
				"element": "C" 
			},
			{
				"x": -0.484857845,
				"y": -1.7948996538,
				"z": -0.0585119409,
				"element": "N" 
			},
			{
				"x": -1.1777887816,
				"y": -0.720599219,
				"z": 0.3931735714,
				"element": "N" 
			},
			{
				"x": -2.5858546902,
				"y": -0.8723669731,
				"z": 0.6106024073,
				"element": "C" 
			},
			{
				"x": -3.3416053752,
				"y": -1.5295439908,
				"z": -0.3641446439,
				"element": "C" 
			},
			{
				"x": -4.7083735408,
				"y": -1.7110946151,
				"z": -0.1604231176,
				"element": "C" 
			},
			{
				"x": -5.3175483835,
				"y": -1.2356018534,
				"z": 1.0030327535,
				"element": "C" 
			},
			{
				"x": -4.5513512946,
				"y": -0.5872232984,
				"z": 1.9731785007,
				"element": "C" 
			},
			{
				"x": -3.180433618,
				"y": -0.4097318674,
				"z": 1.7871888144,
				"element": "C" 
			},
			{
				"x": 1.7910624348,
				"y": -2.3240564776,
				"z": -0.7828707284,
				"element": "C" 
			},
			{
				"x": 2.4020836722,
				"y": -1.9355540092,
				"z": -1.7691691418,
				"element": "O" 
			},
			{
				"x": 1.9807712603,
				"y": -3.6924199476,
				"z": -0.2312695848,
				"element": "C" 
			},
			{
				"x": 2.8419224376,
				"y": -4.5606074796,
				"z": -0.9246941476,
				"element": "C" 
			},
			{
				"x": 3.0763066268,
				"y": -5.8451041634,
				"z": -0.4480333733,
				"element": "C" 
			},
			{
				"x": 2.4572226223,
				"y": -6.2765079525,
				"z": 0.7302263691,
				"element": "C" 
			},
			{
				"x": 1.6047971413,
				"y": -5.4190320839,
				"z": 1.4278934591,
				"element": "C" 
			},
			{
				"x": 1.3654693734,
				"y": -4.1306334875,
				"z": 0.9516912156,
				"element": "C" 
			},
			{
				"x": 2.4423027092,
				"y": 0.8680377668,
				"z": 0.4115129541,
				"element": "S" 
			},
			{
				"x": 2.3077469192,
				"y": 1.7875136407,
				"z": 1.5551461368,
				"element": "O" 
			},
			{
				"x": 3.5196304276,
				"y": -0.1270191002,
				"z": 0.3824351781,
				"element": "O" 
			},
			{
				"x": 2.5189939884,
				"y": 1.8761314277,
				"z": -1.0755928679,
				"element": "C" 
			},
			{
				"x": 2.771686118,
				"y": 1.266220179,
				"z": -2.3078845866,
				"element": "C" 
			},
			{
				"x": 2.8536267925,
				"y": 2.0716287613,
				"z": -3.4435242791,
				"element": "C" 
			},
			{
				"x": 2.6929669523,
				"y": 3.4564586907,
				"z": -3.3407550253,
				"element": "C" 
			},
			{
				"x": 2.4462297375,
				"y": 4.0483175792,
				"z": -2.1002962256,
				"element": "C" 
			},
			{
				"x": 2.3558936406,
				"y": 3.2572787796,
				"z": -0.9539794812,
				"element": "C" 
			},
			{
				"x": -0.7333795595,
				"y": 4.0825833127,
				"z": 3.4352018379,
				"element": "H" 
			},
			{
				"x": 0.2548298647,
				"y": 1.874945346,
				"z": 2.8030673294,
				"element": "H" 
			},
			{
				"x": -2.1895571446,
				"y": 1.8210954407,
				"z": -0.7385976799,
				"element": "H" 
			},
			{
				"x": -3.1441875689,
				"y": 4.0398746347,
				"z": -0.1070559786,
				"element": "H" 
			},
			{
				"x": -2.8508681198,
				"y": -1.8977173656,
				"z": -1.2577078632,
				"element": "H" 
			},
			{
				"x": -5.2977249235,
				"y": -2.2221075103,
				"z": -0.9155448597,
				"element": "H" 
			},
			{
				"x": -6.3833362485,
				"y": -1.3750350142,
				"z": 1.1556937033,
				"element": "H" 
			},
			{
				"x": -5.0161520148,
				"y": -0.2274796482,
				"z": 2.8859123035,
				"element": "H" 
			},
			{
				"x": -2.5799486882,
				"y": 0.0733933406,
				"z": 2.5491830164,
				"element": "H" 
			},
			{
				"x": 3.3153704129,
				"y": -4.2002149589,
				"z": -1.8314956275,
				"element": "H" 
			},
			{
				"x": 3.7417738463,
				"y": -6.511675101,
				"z": -0.9885853934,
				"element": "H" 
			},
			{
				"x": 2.6420452516,
				"y": -7.2796606772,
				"z": 1.1041106427,
				"element": "H" 
			},
			{
				"x": 1.1273320914,
				"y": -5.7527846997,
				"z": 2.3442713735,
				"element": "H" 
			},
			{
				"x": 0.6993571136,
				"y": -3.4695689426,
				"z": 1.4928602586,
				"element": "H" 
			},
			{
				"x": 2.8863563843,
				"y": 0.1887683584,
				"z": -2.3699776121,
				"element": "H" 
			},
			{
				"x": 3.0479443139,
				"y": 1.6162169906,
				"z": -4.4099210657,
				"element": "H" 
			},
			{
				"x": 2.762698052,
				"y": 4.0759942004,
				"z": -4.2302789919,
				"element": "H" 
			},
			{
				"x": 2.3274245336,
				"y": 5.1248199111,
				"z": -2.0222752446,
				"element": "H" 
			},
			{
				"x": 2.1761049492,
				"y": 3.6919331148,
				"z": 0.022782557,
				"element": "H" 
			}
		],
		 "valence_orbital": [ 
			{
				"type": "occ",
				"energy": -0.26524,
				"method": "rhf"
			},
			{
				"type": "occ",
				"energy": -0.26235,
				"method": "rhf"
			},
			{
				"type": "occ",
				"energy": -0.26107,
				"method": "rhf"
			},
			{
				"type": "occ",
				"energy": -0.25991,
				"method": "rhf"
			},
			{
				"type": "occ",
				"energy": -0.25377,
				"method": "rhf"
			},
			{
				"type": "unocc",
				"energy": -0.09924,
				"method": "rhf"
			},
			{
				"type": "unocc",
				"energy": -0.06972,
				"method": "rhf"
			},
			{
				"type": "unocc",
				"energy": -0.04964,
				"method": "rhf"
			},
			{
				"type": "unocc",
				"energy": -0.03941,
				"method": "rhf"
			},
			{
				"type": "unocc",
				"energy": -0.03426,
				"method": "rhf"
			}
		],
		"cosmo_sigma_profile": { 
			"-0.025": 0.0,
			"-0.024": 0.0,
			"-0.023": 0.0,
			"-0.022": 0.0,
			"-0.021": 0.0,
			"-0.02": 0.0,
			"-0.019": 0.0,
			"-0.018": 0.0,
			"-0.017": 0.0,
			"-0.016": 0.0,
			"-0.015": 0.0,
			"-0.014": 0.0,
			"-0.013": 0.0,
			"-0.012": 0.0,
			"-0.011": 0.0,
			"-0.01": 0.0,
			"-0.009": 0.182538474414,
			"-0.008": 4.04061812329,
			"-0.007": 20.9972350228,
			"-0.006": 37.5883917644,
			"-0.005": 42.334516143,
			"-0.004": 37.1466955565,
			"-0.003": 33.0798678864,
			"-0.002": 34.2762984528,
			"-0.001": 36.2354626747,
			"0.0": 39.6405127468,
			"0.001": 37.7359313139,
			"0.002": 39.4953089229,
			"0.003": 44.6771120692,
			"0.004": 26.5779787503,
			"0.005": 9.68969360179,
			"0.006": 9.72330080642,
			"0.007": 14.3460022462,
			"0.008": 12.9227938529,
			"0.009": 11.0487097783,
			"0.01": 9.80040531219,
			"0.011": 7.14873163621,
			"0.012": 2.70056832459,
			"0.013": 0.0,
			"0.014": 0.0,
			"0.015": 0.0,
			"0.016": 0.0,
			"0.017": 0.0,
			"0.018": 0.0,
			"0.019": 0.0,
			"0.02": 0.0,
			"0.021": 0.0,
			"0.022": 0.0,
			"0.023": 0.0,
			"0.024": 0.0,
			"0.025": 0.0
		}
	}
}
