{
	 "smiles": "CC(C)(C)OC(=O)NC(C(O)=O)C1=CC=CC=C1", 
	 "Tm": 387.15, 
	 "num_atms": 35, 
	 "gaussian": { 
		 "optdone": 1, 
		 "sigma_profile": "yes", 
		 "theory": "DFT", 
		 "functional": "B3LYP", 
		 "basiset": "6-31G**", 
		 "properties": { 
			 "R2extent": 5133.2895, 
			 "electric_dipole_moment_norm": 4.79816848495, 
			 "electric_quadrupole_moment_norm": 20.2639763025, 
			 "total_energy": -861.317362251, 
			 "HOMO_LUMO_gap": 0.22983, 
			 "cosmo_polarized_energy": -17.87, 
			 "cosmo_cavitation_energy": 37.43, 
			 "cosmo_dispersion_energy": -24.77, 
			 "cosmo_repulsion_energy": 1.9, 
			 "cosmo_total_nonelectrostatic_energy": 14.57, 
			 "SMD_solvation_energy": 7.69 
		},
		"coords": [
			{
				"x": 0.4196621711,
				"y": -1.7093000331,
				"z": -1.5792953234,
				"element": "C" 
			},
			{
				"x": 1.1230606714,
				"y": -1.9351689928,
				"z": -0.2389748941,
				"element": "C" 
			},
			{
				"x": 0.3175662366,
				"y": -2.8821315437,
				"z": 0.6548457214,
				"element": "C" 
			},
			{
				"x": 2.5646819477,
				"y": -2.4082683807,
				"z": -0.4481276288,
				"element": "C" 
			},
			{
				"x": 1.1276124752,
				"y": -0.5782710408,
				"z": 0.3499710493,
				"element": "O" 
			},
			{
				"x": 1.7584985649,
				"y": -0.3261685312,
				"z": 1.5179708458,
				"element": "C" 
			},
			{
				"x": 2.1846876659,
				"y": -1.1445951514,
				"z": 2.3111689028,
				"element": "O" 
			},
			{
				"x": 1.8176945658,
				"y": 1.0345230844,
				"z": 1.7416436298,
				"element": "N" 
			},
			{
				"x": 1.6785101222,
				"y": 2.0641621101,
				"z": 0.7234719207,
				"element": "C" 
			},
			{
				"x": 2.3906462074,
				"y": 1.6218898908,
				"z": -0.5975189629,
				"element": "C" 
			},
			{
				"x": 1.7201961741,
				"y": 1.8124353361,
				"z": -1.7493087581,
				"element": "O" 
			},
			{
				"x": 3.5122289337,
				"y": 1.181988753,
				"z": -0.5869892734,
				"element": "O" 
			},
			{
				"x": 0.2596221557,
				"y": 2.5980816599,
				"z": 0.5360426206,
				"element": "C" 
			},
			{
				"x": 0.0872164293,
				"y": 3.8742962706,
				"z": -0.0260569219,
				"element": "C" 
			},
			{
				"x": -1.1894572904,
				"y": 4.4022500166,
				"z": -0.2256283647,
				"element": "C" 
			},
			{
				"x": -2.3142443897,
				"y": 3.6620855146,
				"z": 0.1413725052,
				"element": "C" 
			},
			{
				"x": -2.1523038905,
				"y": 2.3955129681,
				"z": 0.7063926909,
				"element": "C" 
			},
			{
				"x": -0.8764167391,
				"y": 1.8652796823,
				"z": 0.9022497211,
				"element": "C" 
			},
			{
				"x": -0.5960130204,
				"y": -1.3325541922,
				"z": -1.4236418074,
				"element": "H" 
			},
			{
				"x": 0.3559563987,
				"y": -2.6522136467,
				"z": -2.1302902123,
				"element": "H" 
			},
			{
				"x": 0.9695080519,
				"y": -0.9852258448,
				"z": -2.1864824218,
				"element": "H" 
			},
			{
				"x": 0.2323582168,
				"y": -3.8592228156,
				"z": 0.1680481217,
				"element": "H" 
			},
			{
				"x": -0.69383282,
				"y": -2.4930996535,
				"z": 0.8114411826,
				"element": "H" 
			},
			{
				"x": 0.802274227,
				"y": -3.0096490351,
				"z": 1.6229111765,
				"element": "H" 
			},
			{
				"x": 3.0656354747,
				"y": -2.5737532568,
				"z": 0.5064508576,
				"element": "H" 
			},
			{
				"x": 2.560806922,
				"y": -3.3480488039,
				"z": -1.0096962336,
				"element": "H" 
			},
			{
				"x": 3.1286194232,
				"y": -1.6644113525,
				"z": -1.0179724376,
				"element": "H" 
			},
			{
				"x": 2.3750884362,
				"y": 1.2579381694,
				"z": 2.5521935814,
				"element": "H" 
			},
			{
				"x": 2.2941814419,
				"y": 2.905536429,
				"z": 1.062977362,
				"element": "H" 
			},
			{
				"x": 0.8199930799,
				"y": 2.1219064168,
				"z": -1.5534573294,
				"element": "H" 
			},
			{
				"x": 0.9597039278,
				"y": 4.4637425152,
				"z": -0.3006303632,
				"element": "H" 
			},
			{
				"x": -1.3020072679,
				"y": 5.3928250129,
				"z": -0.656362224,
				"element": "H" 
			},
			{
				"x": -3.3091747864,
				"y": 4.0712291708,
				"z": -0.0070117892,
				"element": "H" 
			},
			{
				"x": -3.0232755832,
				"y": 1.8160059039,
				"z": 0.9985941924,
				"element": "H" 
			},
			{
				"x": -0.7571841335,
				"y": 0.8832933707,
				"z": 1.343098864,
				"element": "H" 
			}
		],
		 "valence_orbital": [ 
			{
				"type": "occ",
				"energy": -0.28957,
				"method": "rhf"
			},
			{
				"type": "occ",
				"energy": -0.2704,
				"method": "rhf"
			},
			{
				"type": "occ",
				"energy": -0.27002,
				"method": "rhf"
			},
			{
				"type": "occ",
				"energy": -0.25818,
				"method": "rhf"
			},
			{
				"type": "occ",
				"energy": -0.25618,
				"method": "rhf"
			},
			{
				"type": "unocc",
				"energy": -0.02635,
				"method": "rhf"
			},
			{
				"type": "unocc",
				"energy": -0.02204,
				"method": "rhf"
			},
			{
				"type": "unocc",
				"energy": 0.00371,
				"method": "rhf"
			},
			{
				"type": "unocc",
				"energy": 0.04866,
				"method": "rhf"
			},
			{
				"type": "unocc",
				"energy": 0.07061,
				"method": "rhf"
			}
		],
		"cosmo_sigma_profile": { 
			"-0.025": 0.0,
			"-0.024": 0.0,
			"-0.023": 0.0,
			"-0.022": 0.0,
			"-0.021": 0.0,
			"-0.02": 0.0,
			"-0.019": 0.0,
			"-0.018": 0.0,
			"-0.017": 0.0,
			"-0.016": 0.0,
			"-0.015": 0.803692612921,
			"-0.014": 1.99234606474,
			"-0.013": 1.37780657069,
			"-0.012": 1.99974755519,
			"-0.011": 1.84330133124,
			"-0.01": 3.08004006018,
			"-0.009": 4.69727763968,
			"-0.008": 3.98743112218,
			"-0.007": 4.87435323965,
			"-0.006": 10.3528818268,
			"-0.005": 13.0873611983,
			"-0.004": 24.0975536485,
			"-0.003": 20.5584472345,
			"-0.002": 22.808240752,
			"-0.001": 24.8742694851,
			"0.0": 32.2441183688,
			"0.001": 25.6509573621,
			"0.002": 15.9043290522,
			"0.003": 16.6622905842,
			"0.004": 15.5934155179,
			"0.005": 9.34042568611,
			"0.006": 3.94765491376,
			"0.007": 4.62416159916,
			"0.008": 3.53864664796,
			"0.009": 4.43039309211,
			"0.01": 6.01744853475,
			"0.011": 5.22658708016,
			"0.012": 6.23032873451,
			"0.013": 4.30104810216,
			"0.014": 0.451095577452,
			"0.015": 0.0,
			"0.016": 0.0,
			"0.017": 0.0,
			"0.018": 0.0,
			"0.019": 0.0,
			"0.02": 0.0,
			"0.021": 0.0,
			"0.022": 0.0,
			"0.023": 0.0,
			"0.024": 0.0,
			"0.025": 0.0
		}
	}
}
