{
	 "smiles": "CC(C)CC1(CC=C)C(=O)NC(=O)NC1=O", 
	 "Tm": 411.15, 
	 "num_atms": 32, 
	 "gaussian": { 
		 "optdone": 1, 
		 "sigma_profile": "yes", 
		 "theory": "DFT", 
		 "functional": "B3LYP", 
		 "basiset": "6-31G**", 
		 "properties": { 
			 "R2extent": 3593.7952, 
			 "electric_dipole_moment_norm": 0.984095010657, 
			 "electric_quadrupole_moment_norm": 7.78869659763, 
			 "total_energy": -764.028698373, 
			 "HOMO_LUMO_gap": 0.21419, 
			 "cosmo_polarized_energy": -16.47, 
			 "cosmo_cavitation_energy": 34.36, 
			 "cosmo_dispersion_energy": -23.07, 
			 "cosmo_repulsion_energy": 1.81, 
			 "cosmo_total_nonelectrostatic_energy": 13.1, 
			 "SMD_solvation_energy": 8.09 
		},
		"coords": [
			{
				"x": 0.0205062815,
				"y": 3.559411403,
				"z": 0.9399824843,
				"element": "C" 
			},
			{
				"x": -0.4271564489,
				"y": 2.3711321893,
				"z": 0.0734518955,
				"element": "C" 
			},
			{
				"x": -1.9381225161,
				"y": 2.1374264173,
				"z": 0.2273157341,
				"element": "C" 
			},
			{
				"x": 0.438795406,
				"y": 1.1422020302,
				"z": 0.4278685438,
				"element": "C" 
			},
			{
				"x": 0.1875533932,
				"y": -0.1709547303,
				"z": -0.3576211687,
				"element": "C" 
			},
			{
				"x": 1.4090668663,
				"y": -1.1638563955,
				"z": -0.165360937,
				"element": "C" 
			},
			{
				"x": 1.6955671308,
				"y": -1.5787432679,
				"z": 1.2496060513,
				"element": "C" 
			},
			{
				"x": 1.7415286495,
				"y": -2.8471054157,
				"z": 1.657095674,
				"element": "C" 
			},
			{
				"x": -1.0530429399,
				"y": -0.893003012,
				"z": 0.1722026001,
				"element": "C" 
			},
			{
				"x": -1.3360733283,
				"y": -0.9529870056,
				"z": 1.3521127498,
				"element": "O" 
			},
			{
				"x": -1.8235567727,
				"y": -1.5737761147,
				"z": -0.7691638482,
				"element": "N" 
			},
			{
				"x": -1.7633550498,
				"y": -1.4683481141,
				"z": -2.1528146888,
				"element": "C" 
			},
			{
				"x": -2.5254436679,
				"y": -2.0516886378,
				"z": -2.8961535574,
				"element": "O" 
			},
			{
				"x": -0.7583127115,
				"y": -0.6241583329,
				"z": -2.6140533807,
				"element": "N" 
			},
			{
				"x": 0.1662202776,
				"y": 0.0943150568,
				"z": -1.864409244,
				"element": "C" 
			},
			{
				"x": 0.9589481833,
				"y": 0.8369590413,
				"z": -2.4126605998,
				"element": "O" 
			},
			{
				"x": -0.5275047248,
				"y": 4.4683034191,
				"z": 0.6708198665,
				"element": "H" 
			},
			{
				"x": 1.0893517117,
				"y": 3.7649905466,
				"z": 0.8172910945,
				"element": "H" 
			},
			{
				"x": -0.1634722487,
				"y": 3.3627567418,
				"z": 2.0031917828,
				"element": "H" 
			},
			{
				"x": -0.2248949663,
				"y": 2.6313267394,
				"z": -0.9728070788,
				"element": "H" 
			},
			{
				"x": -2.3184809936,
				"y": 1.3814187003,
				"z": -0.4685835416,
				"element": "H" 
			},
			{
				"x": -2.1913942108,
				"y": 1.8106239636,
				"z": 1.2414035147,
				"element": "H" 
			},
			{
				"x": -2.4883623736,
				"y": 3.0615238488,
				"z": 0.0209432727,
				"element": "H" 
			},
			{
				"x": 0.3100581188,
				"y": 0.9060395925,
				"z": 1.4884855397,
				"element": "H" 
			},
			{
				"x": 1.4876858826,
				"y": 1.4154771467,
				"z": 0.274302933,
				"element": "H" 
			},
			{
				"x": 2.2727673661,
				"y": -0.6375298211,
				"z": -0.5900366746,
				"element": "H" 
			},
			{
				"x": 1.2425260303,
				"y": -2.0564827984,
				"z": -0.7801822832,
				"element": "H" 
			},
			{
				"x": 1.9069092526,
				"y": -0.7827296682,
				"z": 1.9603612254,
				"element": "H" 
			},
			{
				"x": 1.5399469175,
				"y": -3.6741235266,
				"z": 0.9800040762,
				"element": "H" 
			},
			{
				"x": 1.9844873618,
				"y": -3.1064675694,
				"z": 2.6828376756,
				"element": "H" 
			},
			{
				"x": -2.600008397,
				"y": -2.1164830863,
				"z": -0.4091862451,
				"element": "H" 
			},
			{
				"x": -0.72283748,
				"y": -0.4998693402,
				"z": -3.6192434662,
				"element": "H" 
			}
		],
		 "valence_orbital": [ 
			{
				"type": "occ",
				"energy": -0.30352,
				"method": "rhf"
			},
			{
				"type": "occ",
				"energy": -0.30206,
				"method": "rhf"
			},
			{
				"type": "occ",
				"energy": -0.29709,
				"method": "rhf"
			},
			{
				"type": "occ",
				"energy": -0.26803,
				"method": "rhf"
			},
			{
				"type": "occ",
				"energy": -0.26205,
				"method": "rhf"
			},
			{
				"type": "unocc",
				"energy": -0.04786,
				"method": "rhf"
			},
			{
				"type": "unocc",
				"energy": -0.00838,
				"method": "rhf"
			},
			{
				"type": "unocc",
				"energy": 0.01026,
				"method": "rhf"
			},
			{
				"type": "unocc",
				"energy": 0.05344,
				"method": "rhf"
			},
			{
				"type": "unocc",
				"energy": 0.07128,
				"method": "rhf"
			}
		],
		"cosmo_sigma_profile": { 
			"-0.025": 0.0,
			"-0.024": 0.0,
			"-0.023": 0.0,
			"-0.022": 0.0,
			"-0.021": 0.0,
			"-0.02": 0.0,
			"-0.019": 0.0,
			"-0.018": 0.0,
			"-0.017": 0.223238896009,
			"-0.016": 1.87995797845,
			"-0.015": 1.83909240737,
			"-0.014": 1.85780808225,
			"-0.013": 1.4957374109,
			"-0.012": 1.07710990325,
			"-0.011": 1.33637668765,
			"-0.01": 2.51868113094,
			"-0.009": 2.69355482463,
			"-0.008": 2.96955187704,
			"-0.007": 3.54989681965,
			"-0.006": 7.0123368677,
			"-0.005": 15.9492420236,
			"-0.004": 17.4725818231,
			"-0.003": 27.0255243649,
			"-0.002": 29.8831203924,
			"-0.001": 24.2337109218,
			"0.0": 22.6353573745,
			"0.001": 22.5689880617,
			"0.002": 12.224585588,
			"0.003": 6.51177546239,
			"0.004": 7.33059438927,
			"0.005": 6.78888859496,
			"0.006": 4.94921626697,
			"0.007": 4.21707286592,
			"0.008": 4.31869357621,
			"0.009": 5.23807280082,
			"0.01": 5.95292026694,
			"0.011": 13.2125660423,
			"0.012": 9.3006264155,
			"0.013": 0.162993363894,
			"0.014": 0.0,
			"0.015": 0.0,
			"0.016": 0.0,
			"0.017": 0.0,
			"0.018": 0.0,
			"0.019": 0.0,
			"0.02": 0.0,
			"0.021": 0.0,
			"0.022": 0.0,
			"0.023": 0.0,
			"0.024": 0.0,
			"0.025": 0.0
		}
	}
}
