{
	 "smiles": "CC1=C(C)C(NN=C(C#N)C2=NC(=CS2)C2=CC=C(Cl)C=C2)=CC=C1", 
	 "Tm": 469.15, 
	 "num_atms": 40, 
	 "gaussian": { 
		 "optdone": 1, 
		 "sigma_profile": "yes", 
		 "theory": "DFT", 
		 "functional": "B3LYP", 
		 "basiset": "6-31G**", 
		 "properties": { 
			 "R2extent": 13785.861, 
			 "electric_dipole_moment_norm": 3.62681547366, 
			 "electric_quadrupole_moment_norm": 36.2094723647, 
			 "total_energy": -1810.41141404, 
			 "HOMO_LUMO_gap": 0.12953, 
			 "cosmo_polarized_energy": -13.78, 
			 "cosmo_cavitation_energy": 49.26, 
			 "cosmo_dispersion_energy": -34.13, 
			 "cosmo_repulsion_energy": 2.52, 
			 "cosmo_total_nonelectrostatic_energy": 17.65, 
			 "SMD_solvation_energy": 7.96 
		},
		"coords": [
			{
				"x": -4.0895612073,
				"y": 1.7941804457,
				"z": 4.1860630576,
				"element": "C" 
			},
			{
				"x": -2.8987345229,
				"y": 1.0438514383,
				"z": 3.6301211751,
				"element": "C" 
			},
			{
				"x": -2.7786878152,
				"y": 0.7953103205,
				"z": 2.2435591789,
				"element": "C" 
			},
			{
				"x": -3.8112373393,
				"y": 1.3346041954,
				"z": 1.2801355388,
				"element": "C" 
			},
			{
				"x": -1.6545958702,
				"y": 0.0601942542,
				"z": 1.8064107986,
				"element": "C" 
			},
			{
				"x": -1.4125290426,
				"y": -0.2794717037,
				"z": 0.456155701,
				"element": "N" 
			},
			{
				"x": -2.3711181967,
				"y": -0.4798827449,
				"z": -0.415013906,
				"element": "N" 
			},
			{
				"x": -2.0766035591,
				"y": -0.8723360158,
				"z": -1.6407503207,
				"element": "C" 
			},
			{
				"x": -3.1950583368,
				"y": -1.0558046356,
				"z": -2.5172040485,
				"element": "C" 
			},
			{
				"x": -4.0705055259,
				"y": -1.2182046119,
				"z": -3.2673806562,
				"element": "N" 
			},
			{
				"x": -0.7452361162,
				"y": -1.1423005421,
				"z": -2.1629597011,
				"element": "C" 
			},
			{
				"x": 0.3633584496,
				"y": -0.9968591177,
				"z": -1.4675158095,
				"element": "N" 
			},
			{
				"x": 1.4857205023,
				"y": -1.3461093677,
				"z": -2.1917105351,
				"element": "C" 
			},
			{
				"x": 1.2167196822,
				"y": -1.7606897924,
				"z": -3.4741615919,
				"element": "C" 
			},
			{
				"x": -0.4787718567,
				"y": -1.7292812134,
				"z": -3.8028813368,
				"element": "S" 
			},
			{
				"x": 2.8196396151,
				"y": -1.2368793563,
				"z": -1.5723903403,
				"element": "C" 
			},
			{
				"x": 3.0257083642,
				"y": -0.3827092822,
				"z": -0.477242569,
				"element": "C" 
			},
			{
				"x": 4.2819168153,
				"y": -0.2576097203,
				"z": 0.1109052814,
				"element": "C" 
			},
			{
				"x": 5.3501170436,
				"y": -0.9952117876,
				"z": -0.3985384778,
				"element": "C" 
			},
			{
				"x": 6.9369427122,
				"y": -0.845235513,
				"z": 0.3377265151,
				"element": "Cl" 
			},
			{
				"x": 5.1736701137,
				"y": -1.8553278846,
				"z": -1.482753995,
				"element": "C" 
			},
			{
				"x": 3.911988395,
				"y": -1.9730444644,
				"z": -2.0591674269,
				"element": "C" 
			},
			{
				"x": -0.6586378791,
				"y": -0.3558671,
				"z": 2.7033939526,
				"element": "C" 
			},
			{
				"x": -0.7805652491,
				"y": -0.0753502096,
				"z": 4.056520189,
				"element": "C" 
			},
			{
				"x": -1.9047651393,
				"y": 0.6085317966,
				"z": 4.5147434594,
				"element": "C" 
			},
			{
				"x": -5.0381208931,
				"y": 1.3378437659,
				"z": 3.8835500803,
				"element": "H" 
			},
			{
				"x": -4.0592865555,
				"y": 1.8075791979,
				"z": 5.2784189135,
				"element": "H" 
			},
			{
				"x": -4.1127406041,
				"y": 2.8364365752,
				"z": 3.8457906803,
				"element": "H" 
			},
			{
				"x": -3.3550360598,
				"y": 1.6532058428,
				"z": 0.3410127841,
				"element": "H" 
			},
			{
				"x": -4.3343924246,
				"y": 2.1906160186,
				"z": 1.7095420694,
				"element": "H" 
			},
			{
				"x": -4.5594262191,
				"y": 0.5793945723,
				"z": 1.016311742,
				"element": "H" 
			},
			{
				"x": -0.4520364226,
				"y": -0.5009568425,
				"z": 0.1652525587,
				"element": "H" 
			},
			{
				"x": 1.9182481404,
				"y": -2.046426051,
				"z": -4.243918763,
				"element": "H" 
			},
			{
				"x": 2.1950406028,
				"y": 0.1997157713,
				"z": -0.0942761261,
				"element": "H" 
			},
			{
				"x": 4.434039292,
				"y": 0.4090228637,
				"z": 0.9525213503,
				"element": "H" 
			},
			{
				"x": 6.0102649518,
				"y": -2.4318787861,
				"z": -1.8613277238,
				"element": "H" 
			},
			{
				"x": 3.7749656507,
				"y": -2.6653621784,
				"z": -2.8841164271,
				"element": "H" 
			},
			{
				"x": 0.1925194441,
				"y": -0.9187784457,
				"z": 2.3295044227,
				"element": "H" 
			},
			{
				"x": -0.0136319,
				"y": -0.402967333,
				"z": 4.7515971615,
				"element": "H" 
			},
			{
				"x": -2.01498104,
				"y": 0.8150576416,
				"z": 5.5755731447,
				"element": "H" 
			}
		],
		 "valence_orbital": [ 
			{
				"type": "occ",
				"energy": -0.27561,
				"method": "rhf"
			},
			{
				"type": "occ",
				"energy": -0.27381,
				"method": "rhf"
			},
			{
				"type": "occ",
				"energy": -0.24716,
				"method": "rhf"
			},
			{
				"type": "occ",
				"energy": -0.24167,
				"method": "rhf"
			},
			{
				"type": "occ",
				"energy": -0.21169,
				"method": "rhf"
			},
			{
				"type": "unocc",
				"energy": -0.08216,
				"method": "rhf"
			},
			{
				"type": "unocc",
				"energy": -0.04965,
				"method": "rhf"
			},
			{
				"type": "unocc",
				"energy": -0.02597,
				"method": "rhf"
			},
			{
				"type": "unocc",
				"energy": -0.01093,
				"method": "rhf"
			},
			{
				"type": "unocc",
				"energy": -0.00875,
				"method": "rhf"
			}
		],
		"cosmo_sigma_profile": { 
			"-0.025": 0.0,
			"-0.024": 0.0,
			"-0.023": 0.0,
			"-0.022": 0.0,
			"-0.021": 0.0,
			"-0.02": 0.0,
			"-0.019": 0.0,
			"-0.018": 0.0,
			"-0.017": 0.0,
			"-0.016": 0.0,
			"-0.015": 0.0,
			"-0.014": 0.0,
			"-0.013": 0.0,
			"-0.012": 0.0,
			"-0.011": 0.0206825946566,
			"-0.01": 2.04735696639,
			"-0.009": 3.05512289826,
			"-0.008": 5.29621501857,
			"-0.007": 8.99528259186,
			"-0.006": 15.0677215198,
			"-0.005": 17.7122946653,
			"-0.004": 25.6456212755,
			"-0.003": 27.3097476169,
			"-0.002": 34.7928309984,
			"-0.001": 36.9727745972,
			"0.0": 42.9855399505,
			"0.001": 44.9943889198,
			"0.002": 34.854117295,
			"0.003": 34.9207753678,
			"0.004": 25.0651357714,
			"0.005": 17.6123956058,
			"0.006": 5.16674243667,
			"0.007": 2.96795475692,
			"0.008": 3.26102996583,
			"0.009": 3.07525177312,
			"0.01": 2.94792734395,
			"0.011": 2.80321232349,
			"0.012": 2.35219147699,
			"0.013": 1.14567040643,
			"0.014": 0.00263170145102,
			"0.015": 0.0,
			"0.016": 0.0,
			"0.017": 0.0,
			"0.018": 0.0,
			"0.019": 0.0,
			"0.02": 0.0,
			"0.021": 0.0,
			"0.022": 0.0,
			"0.023": 0.0,
			"0.024": 0.0,
			"0.025": 0.0
		}
	}
}
