{
	 "smiles": "CC(C)(C)OC(=O)NCC#C", 
	 "Tm": 315.15, 
	 "num_atms": 24, 
	 "gaussian": { 
		 "optdone": 1, 
		 "sigma_profile": "yes", 
		 "theory": "DFT", 
		 "functional": "B3LYP", 
		 "basiset": "6-31G**", 
		 "properties": { 
			 "R2extent": 3007.0509, 
			 "electric_dipole_moment_norm": 2.07125925224, 
			 "electric_quadrupole_moment_norm": 10.0061210321, 
			 "total_energy": -517.845099672, 
			 "HOMO_LUMO_gap": 0.28887, 
			 "cosmo_polarized_energy": -9.62, 
			 "cosmo_cavitation_energy": 27.96, 
			 "cosmo_dispersion_energy": -19.22, 
			 "cosmo_repulsion_energy": 1.57, 
			 "cosmo_total_nonelectrostatic_energy": 10.31, 
			 "SMD_solvation_energy": 6.78 
		},
		"coords": [
			{
				"x": -0.4550207951,
				"y": -0.7144589006,
				"z": -2.6189068147,
				"element": "C" 
			},
			{
				"x": -1.2187845653,
				"y": 0.3685714363,
				"z": -1.8525170944,
				"element": "C" 
			},
			{
				"x": -1.1483050148,
				"y": 1.7099556943,
				"z": -2.5900110364,
				"element": "C" 
			},
			{
				"x": -2.6615965695,
				"y": -0.0707978949,
				"z": -1.5817820689,
				"element": "C" 
			},
			{
				"x": -0.471029931,
				"y": 0.4503852204,
				"z": -0.58707453,
				"element": "O" 
			},
			{
				"x": -0.8489952626,
				"y": 1.3084132165,
				"z": 0.3889600941,
				"element": "C" 
			},
			{
				"x": -1.781272593,
				"y": 2.0951782979,
				"z": 0.3477959079,
				"element": "O" 
			},
			{
				"x": -0.0262979377,
				"y": 1.1414414091,
				"z": 1.474291774,
				"element": "N" 
			},
			{
				"x": -0.0585487209,
				"y": 2.0782818491,
				"z": 2.5877087342,
				"element": "C" 
			},
			{
				"x": 1.1388289724,
				"y": 2.9230957113,
				"z": 2.6728603977,
				"element": "C" 
			},
			{
				"x": 2.1378102678,
				"y": 3.59620674,
				"z": 2.7563624,
				"element": "C" 
			},
			{
				"x": 0.5872073416,
				"y": -0.4185188395,
				"z": -2.7700934686,
				"element": "H" 
			},
			{
				"x": -0.9147880445,
				"y": -0.8763396924,
				"z": -3.5983415766,
				"element": "H" 
			},
			{
				"x": -0.4689584666,
				"y": -1.6599208558,
				"z": -2.0688437452,
				"element": "H" 
			},
			{
				"x": -0.1055554524,
				"y": 2.01277652,
				"z": -2.7285480837,
				"element": "H" 
			},
			{
				"x": -1.6072395481,
				"y": 1.6099114071,
				"z": -3.5790541235,
				"element": "H" 
			},
			{
				"x": -1.6719658277,
				"y": 2.4886564461,
				"z": -2.0351094971,
				"element": "H" 
			},
			{
				"x": -3.1786155618,
				"y": -0.2392192477,
				"z": -2.5320802928,
				"element": "H" 
			},
			{
				"x": -2.6736154606,
				"y": -1.0089234106,
				"z": -1.01780438,
				"element": "H" 
			},
			{
				"x": -3.2018710694,
				"y": 0.689121472,
				"z": -1.0167243973,
				"element": "H" 
			},
			{
				"x": 0.7921312191,
				"y": 0.5651362329,
				"z": 1.3449473135,
				"element": "H" 
			},
			{
				"x": -0.9520307195,
				"y": 2.6932543804,
				"z": 2.4418193785,
				"element": "H" 
			},
			{
				"x": -0.1877680353,
				"y": 1.5335141416,
				"z": 3.5321580468,
				"element": "H" 
			},
			{
				"x": 3.0118817747,
				"y": 4.2021786663,
				"z": 2.8192870625,
				"element": "H" 
			}
		],
		 "valence_orbital": [ 
			{
				"type": "occ",
				"energy": -0.28854,
				"method": "rhf"
			},
			{
				"type": "occ",
				"energy": -0.28372,
				"method": "rhf"
			},
			{
				"type": "occ",
				"energy": -0.27218,
				"method": "rhf"
			},
			{
				"type": "occ",
				"energy": -0.26346,
				"method": "rhf"
			},
			{
				"type": "occ",
				"energy": -0.25509,
				"method": "rhf"
			},
			{
				"type": "unocc",
				"energy": 0.03378,
				"method": "rhf"
			},
			{
				"type": "unocc",
				"energy": 0.05253,
				"method": "rhf"
			},
			{
				"type": "unocc",
				"energy": 0.06128,
				"method": "rhf"
			},
			{
				"type": "unocc",
				"energy": 0.08828,
				"method": "rhf"
			},
			{
				"type": "unocc",
				"energy": 0.10317,
				"method": "rhf"
			}
		],
		"cosmo_sigma_profile": { 
			"-0.025": 0.0,
			"-0.024": 0.0,
			"-0.023": 0.0,
			"-0.022": 0.0,
			"-0.021": 0.0,
			"-0.02": 0.0,
			"-0.019": 0.0,
			"-0.018": 0.0,
			"-0.017": 0.0,
			"-0.016": 0.0,
			"-0.015": 0.0762733943523,
			"-0.014": 0.693248592437,
			"-0.013": 1.10759193107,
			"-0.012": 1.0852289333,
			"-0.011": 2.27471973342,
			"-0.01": 2.2005638087,
			"-0.009": 1.66997427695,
			"-0.008": 1.8822766905,
			"-0.007": 4.59993488415,
			"-0.006": 5.44961706499,
			"-0.005": 6.1928395712,
			"-0.004": 16.6009778555,
			"-0.003": 18.6220927015,
			"-0.002": 18.761616185,
			"-0.001": 20.6404342663,
			"0.0": 29.1550691002,
			"0.001": 21.9813746609,
			"0.002": 10.9252124092,
			"0.003": 8.65723011415,
			"0.004": 9.44603539938,
			"0.005": 7.95466000621,
			"0.006": 11.3311019626,
			"0.007": 8.17606021883,
			"0.008": 1.51993894,
			"0.009": 1.28037266702,
			"0.01": 1.04536709007,
			"0.011": 1.87095548212,
			"0.012": 1.95759370031,
			"0.013": 2.8924554771,
			"0.014": 0.162076495502,
			"0.015": 0.0,
			"0.016": 0.0,
			"0.017": 0.0,
			"0.018": 0.0,
			"0.019": 0.0,
			"0.02": 0.0,
			"0.021": 0.0,
			"0.022": 0.0,
			"0.023": 0.0,
			"0.024": 0.0,
			"0.025": 0.0
		}
	}
}
