{
	 "smiles": "CC1=CC=C(C=C1)C1=NN=C(S)O1", 
	 "Tm": 540.15, 
	 "num_atms": 21, 
	 "gaussian": { 
		 "optdone": 1, 
		 "sigma_profile": "yes", 
		 "theory": "DFT", 
		 "functional": "B3LYP", 
		 "basiset": "6-31G**", 
		 "properties": { 
			 "R2extent": 5063.6178, 
			 "electric_dipole_moment_norm": 4.76627151975, 
			 "electric_quadrupole_moment_norm": 20.4087657424, 
			 "total_energy": -930.663316495, 
			 "HOMO_LUMO_gap": 0.17854, 
			 "cosmo_polarized_energy": -11.98, 
			 "cosmo_cavitation_energy": 27.86, 
			 "cosmo_dispersion_energy": -21.12, 
			 "cosmo_repulsion_energy": 1.62, 
			 "cosmo_total_nonelectrostatic_energy": 8.35, 
			 "SMD_solvation_energy": 2.84 
		},
		"coords": [
			{
				"x": 0.7962009604,
				"y": 1.2769604904,
				"z": 3.0637841656,
				"element": "C" 
			},
			{
				"x": 0.1897620563,
				"y": 1.0219651139,
				"z": 1.7053123002,
				"element": "C" 
			},
			{
				"x": -1.1952476829,
				"y": 0.8352779583,
				"z": 1.5624728618,
				"element": "C" 
			},
			{
				"x": -1.7646763275,
				"y": 0.5794419565,
				"z": 0.3220085995,
				"element": "C" 
			},
			{
				"x": -0.9525244424,
				"y": 0.5053636074,
				"z": -0.8227891014,
				"element": "C" 
			},
			{
				"x": 0.4306025562,
				"y": 0.6929195086,
				"z": -0.6949360642,
				"element": "C" 
			},
			{
				"x": 0.9872556913,
				"y": 0.9479528196,
				"z": 0.5564587748,
				"element": "C" 
			},
			{
				"x": -1.5686247565,
				"y": 0.2405741051,
				"z": -2.115306998,
				"element": "C" 
			},
			{
				"x": -2.8235212655,
				"y": 0.0552573147,
				"z": -2.3987339432,
				"element": "N" 
			},
			{
				"x": -2.9022600006,
				"y": -0.1856192484,
				"z": -3.7711066798,
				"element": "N" 
			},
			{
				"x": -1.6868732117,
				"y": -0.1149524693,
				"z": -4.2117866258,
				"element": "C" 
			},
			{
				"x": -1.1694823796,
				"y": -0.2622032093,
				"z": -5.8834927853,
				"element": "S" 
			},
			{
				"x": -0.7740283043,
				"y": 0.1527718968,
				"z": -3.2363837326,
				"element": "O" 
			},
			{
				"x": 0.8119522193,
				"y": 0.36076459,
				"z": 3.6668815197,
				"element": "H" 
			},
			{
				"x": 0.220311423,
				"y": 2.0204435655,
				"z": 3.6246535674,
				"element": "H" 
			},
			{
				"x": 1.8257129207,
				"y": 1.6360424536,
				"z": 2.9825324839,
				"element": "H" 
			},
			{
				"x": -1.8348394812,
				"y": 0.8928098477,
				"z": 2.4395739729,
				"element": "H" 
			},
			{
				"x": -2.8351530032,
				"y": 0.4370527582,
				"z": 0.2191275488,
				"element": "H" 
			},
			{
				"x": 1.066204062,
				"y": 0.6423268716,
				"z": -1.5727084509,
				"element": "H" 
			},
			{
				"x": 2.0608703249,
				"y": 1.0937527079,
				"z": 0.6413632742,
				"element": "H" 
			},
			{
				"x": 0.1269586413,
				"y": -0.4695026389,
				"z": -5.5813246875,
				"element": "H" 
			}
		],
		 "valence_orbital": [ 
			{
				"type": "occ",
				"energy": -0.32291,
				"method": "rhf"
			},
			{
				"type": "occ",
				"energy": -0.27993,
				"method": "rhf"
			},
			{
				"type": "occ",
				"energy": -0.2746,
				"method": "rhf"
			},
			{
				"type": "occ",
				"energy": -0.26358,
				"method": "rhf"
			},
			{
				"type": "occ",
				"energy": -0.22934,
				"method": "rhf"
			},
			{
				"type": "unocc",
				"energy": -0.0508,
				"method": "rhf"
			},
			{
				"type": "unocc",
				"energy": -0.01359,
				"method": "rhf"
			},
			{
				"type": "unocc",
				"energy": -0.00502,
				"method": "rhf"
			},
			{
				"type": "unocc",
				"energy": 0.01457,
				"method": "rhf"
			},
			{
				"type": "unocc",
				"energy": 0.04932,
				"method": "rhf"
			}
		],
		"cosmo_sigma_profile": { 
			"-0.025": 0.0,
			"-0.024": 0.0,
			"-0.023": 0.0,
			"-0.022": 0.0,
			"-0.021": 0.0,
			"-0.02": 0.0,
			"-0.019": 0.0,
			"-0.018": 0.0,
			"-0.017": 0.0,
			"-0.016": 0.0,
			"-0.015": 0.0,
			"-0.014": 0.290773623146,
			"-0.013": 1.87805539304,
			"-0.012": 1.73693654244,
			"-0.011": 1.18739415536,
			"-0.01": 1.56792326505,
			"-0.009": 1.58469288122,
			"-0.008": 1.40261991931,
			"-0.007": 2.11726427239,
			"-0.006": 7.32884426775,
			"-0.005": 14.8198490522,
			"-0.004": 18.6268710041,
			"-0.003": 16.7743434182,
			"-0.002": 19.4199212982,
			"-0.001": 21.8971542073,
			"0.0": 21.5474017615,
			"0.001": 18.2167757802,
			"0.002": 16.1384507813,
			"0.003": 15.4002787723,
			"0.004": 16.2551619675,
			"0.005": 5.24193473178,
			"0.006": 2.83103032326,
			"0.007": 1.7921381344,
			"0.008": 2.29821642412,
			"0.009": 2.49354503409,
			"0.01": 2.34646284687,
			"0.011": 3.36065958792,
			"0.012": 3.27006969784,
			"0.013": 2.35633349907,
			"0.014": 1.85965552571,
			"0.015": 0.305925286366,
			"0.016": 0.0,
			"0.017": 0.0,
			"0.018": 0.0,
			"0.019": 0.0,
			"0.02": 0.0,
			"0.021": 0.0,
			"0.022": 0.0,
			"0.023": 0.0,
			"0.024": 0.0,
			"0.025": 0.0
		}
	}
}
