{
	 "smiles": "FC1=C(C=CC=C1)N1C=NN=C1S", 
	 "Tm": 441.15, 
	 "num_atms": 19, 
	 "gaussian": { 
		 "optdone": 1, 
		 "sigma_profile": "yes", 
		 "theory": "DFT", 
		 "functional": "B3LYP", 
		 "basiset": "6-31G**", 
		 "properties": { 
			 "R2extent": 2925.4953, 
			 "electric_dipole_moment_norm": 5.8509324368, 
			 "electric_quadrupole_moment_norm": 13.0076188228, 
			 "total_energy": -970.702312838, 
			 "HOMO_LUMO_gap": 0.19327, 
			 "cosmo_polarized_energy": -14.38, 
			 "cosmo_cavitation_energy": 25.91, 
			 "cosmo_dispersion_energy": -19.14, 
			 "cosmo_repulsion_energy": 1.44, 
			 "cosmo_total_nonelectrostatic_energy": 8.21, 
			 "SMD_solvation_energy": 3.11 
		},
		"coords": [
			{
				"x": 0.8929276531,
				"y": -0.8096217149,
				"z": 1.6731025121,
				"element": "F" 
			},
			{
				"x": 0.3390582417,
				"y": -0.9501200582,
				"z": 0.4544486539,
				"element": "C" 
			},
			{
				"x": 0.2316173755,
				"y": 0.1725430049,
				"z": -0.3745074025,
				"element": "C" 
			},
			{
				"x": -0.3588091975,
				"y": 0.0233024093,
				"z": -1.6339416432,
				"element": "C" 
			},
			{
				"x": -0.8088620132,
				"y": -1.2279093797,
				"z": -2.0543923059,
				"element": "C" 
			},
			{
				"x": -0.6916087117,
				"y": -2.3350402169,
				"z": -1.2117665941,
				"element": "C" 
			},
			{
				"x": -0.1194892294,
				"y": -2.1973696702,
				"z": 0.0536759937,
				"element": "C" 
			},
			{
				"x": 0.7132381495,
				"y": 1.4323121229,
				"z": 0.074168518,
				"element": "N" 
			},
			{
				"x": 0.4111656435,
				"y": 2.0757003443,
				"z": 1.2600240093,
				"element": "C" 
			},
			{
				"x": 1.0301685758,
				"y": 3.2195958851,
				"z": 1.342365655,
				"element": "N" 
			},
			{
				"x": 1.7866359681,
				"y": 3.3683986104,
				"z": 0.1899818007,
				"element": "N" 
			},
			{
				"x": 1.58774725,
				"y": 2.3023993041,
				"z": -0.5460252152,
				"element": "C" 
			},
			{
				"x": 2.3530760607,
				"y": 1.9673077464,
				"z": -2.1037170705,
				"element": "S" 
			},
			{
				"x": -0.4647271889,
				"y": 0.8937890374,
				"z": -2.2725876028,
				"element": "H" 
			},
			{
				"x": -1.2607276439,
				"y": -1.3324957157,
				"z": -3.035149983,
				"element": "H" 
			},
			{
				"x": -1.0482486159,
				"y": -3.3079532027,
				"z": -1.5344685093,
				"element": "H" 
			},
			{
				"x": -0.0144878849,
				"y": -3.0369290135,
				"z": 0.7320013194,
				"element": "H" 
			},
			{
				"x": -0.2598712252,
				"y": 1.6551885929,
				"z": 1.9937426418,
				"element": "H" 
			},
			{
				"x": 3.1011967927,
				"y": 3.084901914,
				"z": -2.0337547775,
				"element": "H" 
			}
		],
		 "valence_orbital": [ 
			{
				"type": "occ",
				"energy": -0.30996,
				"method": "rhf"
			},
			{
				"type": "occ",
				"energy": -0.27879,
				"method": "rhf"
			},
			{
				"type": "occ",
				"energy": -0.26975,
				"method": "rhf"
			},
			{
				"type": "occ",
				"energy": -0.25406,
				"method": "rhf"
			},
			{
				"type": "occ",
				"energy": -0.23588,
				"method": "rhf"
			},
			{
				"type": "unocc",
				"energy": -0.04261,
				"method": "rhf"
			},
			{
				"type": "unocc",
				"energy": -0.02919,
				"method": "rhf"
			},
			{
				"type": "unocc",
				"energy": 0.00985,
				"method": "rhf"
			},
			{
				"type": "unocc",
				"energy": 0.0194,
				"method": "rhf"
			},
			{
				"type": "unocc",
				"energy": 0.04025,
				"method": "rhf"
			}
		],
		"cosmo_sigma_profile": { 
			"-0.025": 0.0,
			"-0.024": 0.0,
			"-0.023": 0.0,
			"-0.022": 0.0,
			"-0.021": 0.0,
			"-0.02": 0.0,
			"-0.019": 0.0,
			"-0.018": 0.0,
			"-0.017": 0.0,
			"-0.016": 0.0,
			"-0.015": 0.0,
			"-0.014": 0.0,
			"-0.013": 0.0986870391131,
			"-0.012": 1.5419189502,
			"-0.011": 2.34505997172,
			"-0.01": 3.11231832445,
			"-0.009": 2.43496565863,
			"-0.008": 5.3782205691,
			"-0.007": 11.0985418439,
			"-0.006": 12.2407606369,
			"-0.005": 11.7775104239,
			"-0.004": 9.99409976691,
			"-0.003": 11.4475482028,
			"-0.002": 12.8125593859,
			"-0.001": 16.0514254527,
			"0.0": 15.6860228167,
			"0.001": 20.3173219472,
			"0.002": 18.2930866072,
			"0.003": 17.9700918419,
			"0.004": 6.80240006747,
			"0.005": 3.93015408009,
			"0.006": 3.97414608816,
			"0.007": 2.18702424858,
			"0.008": 2.26150391223,
			"0.009": 1.62259167373,
			"0.01": 2.18064200812,
			"0.011": 2.46620064226,
			"0.012": 3.32829939352,
			"0.013": 3.75939488065,
			"0.014": 2.37419452949,
			"0.015": 2.39453073711,
			"0.016": 1.63140122168,
			"0.017": 0.136191227606,
			"0.018": 0.0,
			"0.019": 0.0,
			"0.02": 0.0,
			"0.021": 0.0,
			"0.022": 0.0,
			"0.023": 0.0,
			"0.024": 0.0,
			"0.025": 0.0
		}
	}
}
