{
	 "smiles": "CCCC#N", 
	 "Tm": 161.15, 
	 "num_atms": 12, 
	 "gaussian": { 
		 "optdone": 1, 
		 "sigma_profile": "yes", 
		 "theory": "DFT", 
		 "functional": "B3LYP", 
		 "basiset": "6-31G**", 
		 "properties": { 
			 "R2extent": 1128.4129, 
			 "electric_dipole_moment_norm": 3.88937540744, 
			 "electric_quadrupole_moment_norm": 14.5115348478, 
			 "total_energy": -211.387636836, 
			 "HOMO_LUMO_gap": 0.35194, 
			 "cosmo_polarized_energy": -8.02, 
			 "cosmo_cavitation_energy": 15.77, 
			 "cosmo_dispersion_energy": -11.13, 
			 "cosmo_repulsion_energy": 1.01, 
			 "cosmo_total_nonelectrostatic_energy": 5.65, 
			 "SMD_solvation_energy": 4.26 
		},
		"coords": [
			{
				"x": 2.056926002,
				"y": 0.3661669353,
				"z": -1.4071849841,
				"element": "C" 
			},
			{
				"x": 1.0512646861,
				"y": 0.7621090531,
				"z": -0.3237301489,
				"element": "C" 
			},
			{
				"x": 1.7145239544,
				"y": 1.3040988078,
				"z": 0.9620009892,
				"element": "C" 
			},
			{
				"x": 2.5691808701,
				"y": 0.3141337332,
				"z": 1.6259100791,
				"element": "C" 
			},
			{
				"x": 3.2400836117,
				"y": -0.4830780161,
				"z": 2.1378492177,
				"element": "N" 
			},
			{
				"x": 2.7281654397,
				"y": -0.4231923624,
				"z": -1.0545989856,
				"element": "H" 
			},
			{
				"x": 1.5415292259,
				"y": -0.0041288477,
				"z": -2.2983864657,
				"element": "H" 
			},
			{
				"x": 2.6728331881,
				"y": 1.2210057554,
				"z": -1.7083131542,
				"element": "H" 
			},
			{
				"x": 0.3799357278,
				"y": 1.5430172501,
				"z": -0.6988690774,
				"element": "H" 
			},
			{
				"x": 0.421640392,
				"y": -0.0956456384,
				"z": -0.0622933413,
				"element": "H" 
			},
			{
				"x": 0.9511320991,
				"y": 1.6298509429,
				"z": 1.6779128263,
				"element": "H" 
			},
			{
				"x": 2.3282848032,
				"y": 2.1833623868,
				"z": 0.7300030449,
				"element": "H" 
			}
		],
		 "valence_orbital": [ 
			{
				"type": "occ",
				"energy": -0.3727,
				"method": "rhf"
			},
			{
				"type": "occ",
				"energy": -0.36037,
				"method": "rhf"
			},
			{
				"type": "occ",
				"energy": -0.34907,
				"method": "rhf"
			},
			{
				"type": "occ",
				"energy": -0.3196,
				"method": "rhf"
			},
			{
				"type": "occ",
				"energy": -0.31941,
				"method": "rhf"
			},
			{
				"type": "unocc",
				"energy": 0.03253,
				"method": "rhf"
			},
			{
				"type": "unocc",
				"energy": 0.0407,
				"method": "rhf"
			},
			{
				"type": "unocc",
				"energy": 0.08794,
				"method": "rhf"
			},
			{
				"type": "unocc",
				"energy": 0.12488,
				"method": "rhf"
			},
			{
				"type": "unocc",
				"energy": 0.13078,
				"method": "rhf"
			}
		],
		"cosmo_sigma_profile": { 
			"-0.025": 0.0,
			"-0.024": 0.0,
			"-0.023": 0.0,
			"-0.022": 0.0,
			"-0.021": 0.0,
			"-0.02": 0.0,
			"-0.019": 0.0,
			"-0.018": 0.0,
			"-0.017": 0.0,
			"-0.016": 0.0,
			"-0.015": 0.0,
			"-0.014": 0.0,
			"-0.013": 0.0,
			"-0.012": 0.0,
			"-0.011": 0.0,
			"-0.01": 0.0,
			"-0.009": 0.0,
			"-0.008": 1.87752996831,
			"-0.007": 5.61996252624,
			"-0.006": 5.47130790885,
			"-0.005": 7.50370422629,
			"-0.004": 15.3019737266,
			"-0.003": 13.2892144146,
			"-0.002": 11.9139139849,
			"-0.001": 14.5203128093,
			"0.0": 10.3278287483,
			"0.001": 7.15201405615,
			"0.002": 2.1511991095,
			"0.003": 1.58545250537,
			"0.004": 2.24529647828,
			"0.005": 1.94295535573,
			"0.006": 1.8935374932,
			"0.007": 2.88333332033,
			"0.008": 3.05303006545,
			"0.009": 3.34861889356,
			"0.01": 3.56803738637,
			"0.011": 3.0443878575,
			"0.012": 2.62679941427,
			"0.013": 2.20389690305,
			"0.014": 0.89217192484,
			"0.015": 0.0,
			"0.016": 0.0,
			"0.017": 0.0,
			"0.018": 0.0,
			"0.019": 0.0,
			"0.02": 0.0,
			"0.021": 0.0,
			"0.022": 0.0,
			"0.023": 0.0,
			"0.024": 0.0,
			"0.025": 0.0
		}
	}
}
