{
	 "smiles": "CC1=C(Br)C=NC=C1Br", 
	 "Tm": 378.65, 
	 "num_atms": 14, 
	 "gaussian": { 
		 "optdone": 1, 
		 "sigma_profile": "yes", 
		 "theory": "DFT", 
		 "functional": "B3LYP", 
		 "basiset": "6-31G**", 
		 "properties": { 
			 "R2extent": 3146.2649, 
			 "electric_dipole_moment_norm": 1.46126563294, 
			 "electric_quadrupole_moment_norm": 2.29659381041, 
			 "total_energy": -5429.20828461, 
			 "HOMO_LUMO_gap": 0.21159, 
			 "cosmo_polarized_energy": -4.41, 
			 "cosmo_cavitation_energy": 22.24, 
			 "cosmo_dispersion_energy": -17.45, 
			 "cosmo_repulsion_energy": 1.41, 
			 "cosmo_total_nonelectrostatic_energy": 6.2, 
			 "SMD_solvation_energy": 0.41 
		},
		"coords": [
			{
				"x": 0.3208795887,
				"y": 0.8708777172,
				"z": -1.3026235663,
				"element": "C" 
			},
			{
				"x": 0.5156529148,
				"y": 0.2621422537,
				"z": 0.0573678568,
				"element": "C" 
			},
			{
				"x": 1.7114071091,
				"y": 0.3843210681,
				"z": 0.7843820495,
				"element": "C" 
			},
			{
				"x": 3.2096335378,
				"y": 1.339256913,
				"z": 0.0760296383,
				"element": "Br" 
			},
			{
				"x": 1.8574900057,
				"y": -0.1937482474,
				"z": 2.0455169353,
				"element": "C" 
			},
			{
				"x": 0.8858812729,
				"y": -0.8940208819,
				"z": 2.633527903,
				"element": "N" 
			},
			{
				"x": -0.2620336214,
				"y": -1.0414999737,
				"z": 1.9696514788,
				"element": "C" 
			},
			{
				"x": -0.4769985877,
				"y": -0.4909587076,
				"z": 0.7060640921,
				"element": "C" 
			},
			{
				"x": -2.1733334616,
				"y": -0.8135197043,
				"z": -0.1166411385,
				"element": "Br" 
			},
			{
				"x": 0.6313217293,
				"y": 0.1656066625,
				"z": -2.083096214,
				"element": "H" 
			},
			{
				"x": 0.9236134624,
				"y": 1.772809266,
				"z": -1.4152708379,
				"element": "H" 
			},
			{
				"x": -0.7289139412,
				"y": 1.1112322048,
				"z": -1.4747186156,
				"element": "H" 
			},
			{
				"x": 2.790689231,
				"y": -0.082891548,
				"z": 2.5905663394,
				"element": "H" 
			},
			{
				"x": -1.0459892399,
				"y": -1.6175070223,
				"z": 2.4532440792,
				"element": "H" 
			}
		],
		 "valence_orbital": [ 
			{
				"type": "occ",
				"energy": -0.31203,
				"method": "rhf"
			},
			{
				"type": "occ",
				"energy": -0.29743,
				"method": "rhf"
			},
			{
				"type": "occ",
				"energy": -0.2754,
				"method": "rhf"
			},
			{
				"type": "occ",
				"energy": -0.27298,
				"method": "rhf"
			},
			{
				"type": "occ",
				"energy": -0.25644,
				"method": "rhf"
			},
			{
				"type": "unocc",
				"energy": -0.04485,
				"method": "rhf"
			},
			{
				"type": "unocc",
				"energy": -0.03471,
				"method": "rhf"
			},
			{
				"type": "unocc",
				"energy": -0.02263,
				"method": "rhf"
			},
			{
				"type": "unocc",
				"energy": 0.01664,
				"method": "rhf"
			},
			{
				"type": "unocc",
				"energy": 0.10858,
				"method": "rhf"
			}
		],
		"cosmo_sigma_profile": { 
			"-0.025": 0.0,
			"-0.024": 0.0,
			"-0.023": 0.0,
			"-0.022": 0.0,
			"-0.021": 0.0,
			"-0.02": 0.0,
			"-0.019": 0.0,
			"-0.018": 0.0,
			"-0.017": 0.0,
			"-0.016": 0.0,
			"-0.015": 0.0,
			"-0.014": 0.0,
			"-0.013": 0.0,
			"-0.012": 0.0,
			"-0.011": 0.0,
			"-0.01": 0.0,
			"-0.009": 0.0,
			"-0.008": 1.4780191332,
			"-0.007": 3.47371799503,
			"-0.006": 5.34841795852,
			"-0.005": 7.157721846,
			"-0.004": 12.1666226321,
			"-0.003": 14.928685993,
			"-0.002": 18.7158197085,
			"-0.001": 25.8871634338,
			"0.0": 22.9805411447,
			"0.001": 14.6488590685,
			"0.002": 15.5909245131,
			"0.003": 17.0918067017,
			"0.004": 14.3577885412,
			"0.005": 1.37556441152,
			"0.006": 1.74999089651,
			"0.007": 1.36499941452,
			"0.008": 0.55288474637,
			"0.009": 1.13674816115,
			"0.01": 0.756536388238,
			"0.011": 1.10549411732,
			"0.012": 0.969609862643,
			"0.013": 0.924796838117,
			"0.014": 0.858628399105,
			"0.015": 0.48875626612,
			"0.016": 0.0195281911352,
			"0.017": 0.0,
			"0.018": 0.0,
			"0.019": 0.0,
			"0.02": 0.0,
			"0.021": 0.0,
			"0.022": 0.0,
			"0.023": 0.0,
			"0.024": 0.0,
			"0.025": 0.0
		}
	}
}
