{
	 "smiles": "SC1=CC=CC=C1", 
	 "Tm": 258.25, 
	 "num_atms": 13, 
	 "gaussian": { 
		 "optdone": 1, 
		 "sigma_profile": "yes", 
		 "theory": "DFT", 
		 "functional": "B3LYP", 
		 "basiset": "6-31G**", 
		 "properties": { 
			 "R2extent": 1446.4164, 
			 "electric_dipole_moment_norm": 1.2586533955, 
			 "electric_quadrupole_moment_norm": 9.04671331976, 
			 "total_energy": -630.43740477, 
			 "HOMO_LUMO_gap": 0.21271, 
			 "cosmo_polarized_energy": -5.56, 
			 "cosmo_cavitation_energy": 18.26, 
			 "cosmo_dispersion_energy": -14.3, 
			 "cosmo_repulsion_energy": 1.15, 
			 "cosmo_total_nonelectrostatic_energy": 5.1, 
			 "SMD_solvation_energy": 2.68 
		},
		"coords": [
			{
				"x": -0.4103590445,
				"y": -2.81381914,
				"z": 2.1449262801,
				"element": "S" 
			},
			{
				"x": 0.3348298151,
				"y": -1.4582926575,
				"z": 1.2475090589,
				"element": "C" 
			},
			{
				"x": -0.4186975219,
				"y": -0.4487031943,
				"z": 0.6353830544,
				"element": "C" 
			},
			{
				"x": 0.2237273685,
				"y": 0.5825047202,
				"z": -0.0508325629,
				"element": "C" 
			},
			{
				"x": 1.6161032426,
				"y": 0.6194094685,
				"z": -0.1347566496,
				"element": "C" 
			},
			{
				"x": 2.365653601,
				"y": -0.3880074443,
				"z": 0.4760113668,
				"element": "C" 
			},
			{
				"x": 1.7336402936,
				"y": -1.4225928997,
				"z": 1.1641377037,
				"element": "C" 
			},
			{
				"x": -1.6918859397,
				"y": -2.440505386,
				"z": 1.9681093001,
				"element": "H" 
			},
			{
				"x": -1.503412825,
				"y": -0.4641124138,
				"z": 0.6920032743,
				"element": "H" 
			},
			{
				"x": -0.3722717391,
				"y": 1.3595661495,
				"z": -0.5211850945,
				"element": "H" 
			},
			{
				"x": 2.1116718351,
				"y": 1.4236516996,
				"z": -0.6697474815,
				"element": "H" 
			},
			{
				"x": 3.4503202467,
				"y": -0.3715292769,
				"z": 0.4185534432,
				"element": "H" 
			},
			{
				"x": 2.3257806675,
				"y": -2.2014696253,
				"z": 1.636088307,
				"element": "H" 
			}
		],
		 "valence_orbital": [ 
			{
				"type": "occ",
				"energy": -0.3501,
				"method": "rhf"
			},
			{
				"type": "occ",
				"energy": -0.33439,
				"method": "rhf"
			},
			{
				"type": "occ",
				"energy": -0.29678,
				"method": "rhf"
			},
			{
				"type": "occ",
				"energy": -0.25564,
				"method": "rhf"
			},
			{
				"type": "occ",
				"energy": -0.21855,
				"method": "rhf"
			},
			{
				"type": "unocc",
				"energy": -0.00584,
				"method": "rhf"
			},
			{
				"type": "unocc",
				"energy": -0.00361,
				"method": "rhf"
			},
			{
				"type": "unocc",
				"energy": 0.0154,
				"method": "rhf"
			},
			{
				"type": "unocc",
				"energy": 0.07069,
				"method": "rhf"
			},
			{
				"type": "unocc",
				"energy": 0.10734,
				"method": "rhf"
			}
		],
		"cosmo_sigma_profile": { 
			"-0.025": 0.0,
			"-0.024": 0.0,
			"-0.023": 0.0,
			"-0.022": 0.0,
			"-0.021": 0.0,
			"-0.02": 0.0,
			"-0.019": 0.0,
			"-0.018": 0.0,
			"-0.017": 0.0,
			"-0.016": 0.0,
			"-0.015": 0.0,
			"-0.014": 0.0,
			"-0.013": 0.0,
			"-0.012": 0.0,
			"-0.011": 0.341146177243,
			"-0.01": 3.11604358974,
			"-0.009": 2.06871205905,
			"-0.008": 2.31607727156,
			"-0.007": 2.59314310635,
			"-0.006": 8.53881877721,
			"-0.005": 11.209636439,
			"-0.004": 12.7051785448,
			"-0.003": 10.3613482925,
			"-0.002": 7.29112575823,
			"-0.001": 7.45305780416,
			"0.0": 8.08998692419,
			"0.001": 7.99582570584,
			"0.002": 8.78916731913,
			"0.003": 10.7192653765,
			"0.004": 13.5613628428,
			"0.005": 15.2867732241,
			"0.006": 8.92543106508,
			"0.007": 2.86370217749,
			"0.008": 2.75532816212,
			"0.009": 1.62141192159,
			"0.01": 0.0329970913483,
			"0.011": 0.0,
			"0.012": 0.0,
			"0.013": 0.0,
			"0.014": 0.0,
			"0.015": 0.0,
			"0.016": 0.0,
			"0.017": 0.0,
			"0.018": 0.0,
			"0.019": 0.0,
			"0.02": 0.0,
			"0.021": 0.0,
			"0.022": 0.0,
			"0.023": 0.0,
			"0.024": 0.0,
			"0.025": 0.0
		}
	}
}
