{
	 "smiles": "CC(C)(C)OC(=O)NC1=CSC(Br)=N1", 
	 "Tm": 378.15, 
	 "num_atms": 25, 
	 "gaussian": { 
		 "optdone": 1, 
		 "sigma_profile": "yes", 
		 "theory": "DFT", 
		 "functional": "B3LYP", 
		 "basiset": "6-31G**", 
		 "properties": { 
			 "R2extent": 11361.0761, 
			 "electric_dipole_moment_norm": 1.09699193251, 
			 "electric_quadrupole_moment_norm": 15.1584735914, 
			 "total_energy": -3541.03444168, 
			 "HOMO_LUMO_gap": 0.18135, 
			 "cosmo_polarized_energy": -12.02, 
			 "cosmo_cavitation_energy": 32.94, 
			 "cosmo_dispersion_energy": -23.84, 
			 "cosmo_repulsion_energy": 1.85, 
			 "cosmo_total_nonelectrostatic_energy": 10.95, 
			 "SMD_solvation_energy": 4.47 
		},
		"coords": [
			{
				"x": 0.0306316559,
				"y": -0.4299111532,
				"z": 0.9101205941,
				"element": "C" 
			},
			{
				"x": 0.0684651791,
				"y": 0.4090211233,
				"z": -0.3707292606,
				"element": "C" 
			},
			{
				"x": 1.4783113121,
				"y": 0.90849234,
				"z": -0.7003883215,
				"element": "C" 
			},
			{
				"x": -0.9221720398,
				"y": 1.5726165577,
				"z": -0.294331681,
				"element": "C" 
			},
			{
				"x": -0.4621958248,
				"y": -0.3785571239,
				"z": -1.5020487109,
				"element": "O" 
			},
			{
				"x": 0.1371371019,
				"y": -1.5010114535,
				"z": -1.8966543163,
				"element": "C" 
			},
			{
				"x": 1.138292404,
				"y": -2.0160476803,
				"z": -1.4262522878,
				"element": "O" 
			},
			{
				"x": -0.5057615149,
				"y": -2.1036667501,
				"z": -2.973982528,
				"element": "N" 
			},
			{
				"x": -1.6405266435,
				"y": -1.7773618034,
				"z": -3.7185772231,
				"element": "C" 
			},
			{
				"x": -2.0883937531,
				"y": -2.5500979667,
				"z": -4.7645528184,
				"element": "C" 
			},
			{
				"x": -3.5166232687,
				"y": -1.8409202312,
				"z": -5.4516945027,
				"element": "S" 
			},
			{
				"x": -3.3796748497,
				"y": -0.5685400075,
				"z": -4.2672033531,
				"element": "C" 
			},
			{
				"x": -4.6421104923,
				"y": 0.8354836454,
				"z": -4.2256075536,
				"element": "Br" 
			},
			{
				"x": -2.3859059119,
				"y": -0.6525681183,
				"z": -3.4474114108,
				"element": "N" 
			},
			{
				"x": -0.9813826535,
				"y": -0.8071699553,
				"z": 1.0872618229,
				"element": "H" 
			},
			{
				"x": 0.7187699255,
				"y": -1.2734144983,
				"z": 0.8479591057,
				"element": "H" 
			},
			{
				"x": 0.3140007776,
				"y": 0.1947991436,
				"z": 1.7633639862,
				"element": "H" 
			},
			{
				"x": 2.18125631,
				"y": 0.0785985166,
				"z": -0.7780407452,
				"element": "H" 
			},
			{
				"x": 1.4739845187,
				"y": 1.4621273851,
				"z": -1.6445015415,
				"element": "H" 
			},
			{
				"x": 1.8184078996,
				"y": 1.5866211429,
				"z": 0.0889561387,
				"element": "H" 
			},
			{
				"x": -0.6426886485,
				"y": 2.2487224471,
				"z": 0.5192626669,
				"element": "H" 
			},
			{
				"x": -1.935251468,
				"y": 1.2042367774,
				"z": -0.1119072228,
				"element": "H" 
			},
			{
				"x": -0.9278573478,
				"y": 2.1353457823,
				"z": -1.2316813436,
				"element": "H" 
			},
			{
				"x": -0.0263739959,
				"y": -2.9490535885,
				"z": -3.2473315035,
				"element": "H" 
			},
			{
				"x": -1.671138672,
				"y": -3.4666445312,
				"z": -5.1558279901,
				"element": "H" 
			}
		],
		 "valence_orbital": [ 
			{
				"type": "occ",
				"energy": -0.29393,
				"method": "rhf"
			},
			{
				"type": "occ",
				"energy": -0.29194,
				"method": "rhf"
			},
			{
				"type": "occ",
				"energy": -0.28454,
				"method": "rhf"
			},
			{
				"type": "occ",
				"energy": -0.27098,
				"method": "rhf"
			},
			{
				"type": "occ",
				"energy": -0.22189,
				"method": "rhf"
			},
			{
				"type": "unocc",
				"energy": -0.04054,
				"method": "rhf"
			},
			{
				"type": "unocc",
				"energy": -0.02084,
				"method": "rhf"
			},
			{
				"type": "unocc",
				"energy": 0.01336,
				"method": "rhf"
			},
			{
				"type": "unocc",
				"energy": 0.02218,
				"method": "rhf"
			},
			{
				"type": "unocc",
				"energy": 0.07256,
				"method": "rhf"
			}
		],
		"cosmo_sigma_profile": { 
			"-0.025": 0.0,
			"-0.024": 0.0,
			"-0.023": 0.0,
			"-0.022": 0.0,
			"-0.021": 0.0,
			"-0.02": 0.0,
			"-0.019": 0.0,
			"-0.018": 0.0,
			"-0.017": 0.0,
			"-0.016": 0.510836169908,
			"-0.015": 1.24537740303,
			"-0.014": 0.991484097689,
			"-0.013": 0.877621375755,
			"-0.012": 1.13897887436,
			"-0.011": 1.67015921754,
			"-0.01": 2.47676987783,
			"-0.009": 2.363398344,
			"-0.008": 2.47643512551,
			"-0.007": 2.78148180528,
			"-0.006": 3.46457627687,
			"-0.005": 5.10291036222,
			"-0.004": 17.2862372979,
			"-0.003": 19.6662210937,
			"-0.002": 25.0336635926,
			"-0.001": 32.3431984231,
			"0.0": 40.6602182268,
			"0.001": 32.6798702783,
			"0.002": 21.2586643402,
			"0.003": 14.8339876167,
			"0.004": 5.82842162051,
			"0.005": 5.01161150469,
			"0.006": 3.84900990509,
			"0.007": 2.43486376178,
			"0.008": 3.7249378027,
			"0.009": 2.44484316806,
			"0.01": 3.20275668946,
			"0.011": 2.98395155023,
			"0.012": 4.2366080407,
			"0.013": 3.79609419176,
			"0.014": 0.160179050617,
			"0.015": 0.0,
			"0.016": 0.0,
			"0.017": 0.0,
			"0.018": 0.0,
			"0.019": 0.0,
			"0.02": 0.0,
			"0.021": 0.0,
			"0.022": 0.0,
			"0.023": 0.0,
			"0.024": 0.0,
			"0.025": 0.0
		}
	}
}
