{
	 "smiles": "CSC1=NC(C=O)=CC=C1C#N", 
	 "Tm": 413.15, 
	 "num_atms": 18, 
	 "gaussian": { 
		 "optdone": 1, 
		 "sigma_profile": "yes", 
		 "theory": "DFT", 
		 "functional": "B3LYP", 
		 "basiset": "6-31G**", 
		 "properties": { 
			 "R2extent": 3639.4746, 
			 "electric_dipole_moment_norm": 2.2444555264, 
			 "electric_quadrupole_moment_norm": 25.764972908, 
			 "total_energy": -891.348991284, 
			 "HOMO_LUMO_gap": 0.14011, 
			 "cosmo_polarized_energy": -11.78, 
			 "cosmo_cavitation_energy": 26.0, 
			 "cosmo_dispersion_energy": -18.48, 
			 "cosmo_repulsion_energy": 1.43, 
			 "cosmo_total_nonelectrostatic_energy": 8.95, 
			 "SMD_solvation_energy": 6.24 
		},
		"coords": [
			{
				"x": 0.7990685751,
				"y": 0.4518596228,
				"z": 4.2863185958,
				"element": "C" 
			},
			{
				"x": -0.832266408,
				"y": -0.1895294682,
				"z": 3.7838629069,
				"element": "S" 
			},
			{
				"x": -0.4849222709,
				"y": -0.742685673,
				"z": 2.1379722523,
				"element": "C" 
			},
			{
				"x": 0.7443843566,
				"y": -0.6007813957,
				"z": 1.6473416078,
				"element": "N" 
			},
			{
				"x": 0.9964349907,
				"y": -1.0241644967,
				"z": 0.3975369784,
				"element": "C" 
			},
			{
				"x": 2.4006352681,
				"y": -0.8274691167,
				"z": -0.07544485,
				"element": "C" 
			},
			{
				"x": 2.7881110267,
				"y": -1.1556646506,
				"z": -1.177508115,
				"element": "O" 
			},
			{
				"x": 0.0406573555,
				"y": -1.611584702,
				"z": -0.4325000756,
				"element": "C" 
			},
			{
				"x": -1.2468951001,
				"y": -1.764791965,
				"z": 0.0697532832,
				"element": "C" 
			},
			{
				"x": -1.5316774138,
				"y": -1.3303965366,
				"z": 1.369969907,
				"element": "C" 
			},
			{
				"x": -2.8490342743,
				"y": -1.4788625123,
				"z": 1.9049967198,
				"element": "C" 
			},
			{
				"x": -3.9242967974,
				"y": -1.6039585192,
				"z": 2.3318188172,
				"element": "N" 
			},
			{
				"x": 0.6623331242,
				"y": 0.8163993301,
				"z": 5.3063727393,
				"element": "H" 
			},
			{
				"x": 1.110606248,
				"y": 1.2686365445,
				"z": 3.6352042031,
				"element": "H" 
			},
			{
				"x": 1.5479778075,
				"y": -0.3399466467,
				"z": 4.268719926,
				"element": "H" 
			},
			{
				"x": 3.061684742,
				"y": -0.3511793321,
				"z": 0.6763748862,
				"element": "H" 
			},
			{
				"x": 0.3202589943,
				"y": -1.9283058833,
				"z": -1.4303520228,
				"element": "H" 
			},
			{
				"x": -2.0349602244,
				"y": -2.2140745992,
				"z": -0.5256377595,
				"element": "H" 
			}
		],
		 "valence_orbital": [ 
			{
				"type": "occ",
				"energy": -0.32998,
				"method": "rhf"
			},
			{
				"type": "occ",
				"energy": -0.30357,
				"method": "rhf"
			},
			{
				"type": "occ",
				"energy": -0.30081,
				"method": "rhf"
			},
			{
				"type": "occ",
				"energy": -0.2757,
				"method": "rhf"
			},
			{
				"type": "occ",
				"energy": -0.24559,
				"method": "rhf"
			},
			{
				"type": "unocc",
				"energy": -0.10548,
				"method": "rhf"
			},
			{
				"type": "unocc",
				"energy": -0.05236,
				"method": "rhf"
			},
			{
				"type": "unocc",
				"energy": -0.01562,
				"method": "rhf"
			},
			{
				"type": "unocc",
				"energy": -0.00164,
				"method": "rhf"
			},
			{
				"type": "unocc",
				"energy": 0.03813,
				"method": "rhf"
			}
		],
		"cosmo_sigma_profile": { 
			"-0.025": 0.0,
			"-0.024": 0.0,
			"-0.023": 0.0,
			"-0.022": 0.0,
			"-0.021": 0.0,
			"-0.02": 0.0,
			"-0.019": 0.0,
			"-0.018": 0.0,
			"-0.017": 0.0,
			"-0.016": 0.0,
			"-0.015": 0.0,
			"-0.014": 0.0,
			"-0.013": 0.0,
			"-0.012": 0.0,
			"-0.011": 0.0,
			"-0.01": 1.32806148458,
			"-0.009": 3.31661578738,
			"-0.008": 4.98610428784,
			"-0.007": 8.40858257574,
			"-0.006": 10.6403255217,
			"-0.005": 13.4837586743,
			"-0.004": 14.0639523925,
			"-0.003": 22.8242466094,
			"-0.002": 23.2306049229,
			"-0.001": 16.5601837392,
			"0.0": 10.2145671554,
			"0.001": 7.60763062711,
			"0.002": 9.19802060309,
			"0.003": 10.506030966,
			"0.004": 9.56228865311,
			"0.005": 7.62692063346,
			"0.006": 8.40154497411,
			"0.007": 5.78858005186,
			"0.008": 5.38597763717,
			"0.009": 5.52699894221,
			"0.01": 7.00121888521,
			"0.011": 4.28819356131,
			"0.012": 2.13041904004,
			"0.013": 0.0677272243924,
			"0.014": 0.0,
			"0.015": 0.0,
			"0.016": 0.0,
			"0.017": 0.0,
			"0.018": 0.0,
			"0.019": 0.0,
			"0.02": 0.0,
			"0.021": 0.0,
			"0.022": 0.0,
			"0.023": 0.0,
			"0.024": 0.0,
			"0.025": 0.0
		}
	}
}
