{
	 "smiles": "CC1=CC(CN2N=C(C=C2C2=NN=C(S)O2)C(C)(C)C)=CC=C1", 
	 "Tm": 403.15, 
	 "num_atms": 43, 
	 "gaussian": { 
		 "optdone": 1, 
		 "sigma_profile": "yes", 
		 "theory": "DFT", 
		 "functional": "B3LYP", 
		 "basiset": "6-31G**", 
		 "properties": { 
			 "R2extent": 9649.2354, 
			 "electric_dipole_moment_norm": 2.35457681548, 
			 "electric_quadrupole_moment_norm": 17.0899891867, 
			 "total_energy": -1352.24623732, 
			 "HOMO_LUMO_gap": 0.18168, 
			 "cosmo_polarized_energy": -13.56, 
			 "cosmo_cavitation_energy": 48.29, 
			 "cosmo_dispersion_energy": -31.99, 
			 "cosmo_repulsion_energy": 2.41, 
			 "cosmo_total_nonelectrostatic_energy": 18.71, 
			 "SMD_solvation_energy": 5.41 
		},
		"coords": [
			{
				"x": 1.0816306986,
				"y": -4.8489112275,
				"z": 2.2030188163,
				"element": "C" 
			},
			{
				"x": 0.075877795,
				"y": -4.2783188485,
				"z": 1.2303287786,
				"element": "C" 
			},
			{
				"x": 0.3314608431,
				"y": -3.082829776,
				"z": 0.5517861845,
				"element": "C" 
			},
			{
				"x": -0.6061199544,
				"y": -2.5309878476,
				"z": -0.3308700113,
				"element": "C" 
			},
			{
				"x": -0.2896906259,
				"y": -1.2524970218,
				"z": -1.087717536,
				"element": "C" 
			},
			{
				"x": 0.231074352,
				"y": -0.1759438849,
				"z": -0.2420607507,
				"element": "N" 
			},
			{
				"x": 1.5667369465,
				"y": -0.0056202665,
				"z": -0.1794695877,
				"element": "N" 
			},
			{
				"x": 1.7833525484,
				"y": 0.9632866434,
				"z": 0.7228245557,
				"element": "C" 
			},
			{
				"x": 0.5626542465,
				"y": 1.4188851657,
				"z": 1.2562792821,
				"element": "C" 
			},
			{
				"x": -0.4193285017,
				"y": 0.6651981381,
				"z": 0.6222795888,
				"element": "C" 
			},
			{
				"x": -1.845734434,
				"y": 0.7595901214,
				"z": 0.824053228,
				"element": "C" 
			},
			{
				"x": -2.4674712458,
				"y": 1.4905537482,
				"z": 1.7022715592,
				"element": "N" 
			},
			{
				"x": -3.8335511918,
				"y": 1.2757604527,
				"z": 1.5143983597,
				"element": "N" 
			},
			{
				"x": -3.9280495253,
				"y": 0.4301231865,
				"z": 0.5377787374,
				"element": "C" 
			},
			{
				"x": -5.3517105685,
				"y": -0.2729638286,
				"z": -0.2077721018,
				"element": "S" 
			},
			{
				"x": -2.7210758557,
				"y": 0.0485023342,
				"z": 0.0358890583,
				"element": "O" 
			},
			{
				"x": 3.2016248868,
				"y": 1.4268091925,
				"z": 1.017143763,
				"element": "C" 
			},
			{
				"x": 4.0530397928,
				"y": 0.2159285815,
				"z": 1.4595029084,
				"element": "C" 
			},
			{
				"x": 3.8092014811,
				"y": 2.0375049502,
				"z": -0.26639061,
				"element": "C" 
			},
			{
				"x": 3.1947202789,
				"y": 2.4847339979,
				"z": 2.1349675258,
				"element": "C" 
			},
			{
				"x": -1.8189844654,
				"y": -3.191375971,
				"z": -0.5412451174,
				"element": "C" 
			},
			{
				"x": -2.0841116198,
				"y": -4.3919856505,
				"z": 0.1213632083,
				"element": "C" 
			},
			{
				"x": -1.1458961989,
				"y": -4.9291433711,
				"z": 0.9995629777,
				"element": "C" 
			},
			{
				"x": 0.7912043323,
				"y": -4.6396084982,
				"z": 3.2400383469,
				"element": "H" 
			},
			{
				"x": 2.075579375,
				"y": -4.4201695624,
				"z": 2.0482534799,
				"element": "H" 
			},
			{
				"x": 1.1617355647,
				"y": -5.936388756,
				"z": 2.1041958746,
				"element": "H" 
			},
			{
				"x": 1.2745952071,
				"y": -2.5657220558,
				"z": 0.7095011934,
				"element": "H" 
			},
			{
				"x": -1.1752176121,
				"y": -0.8917201347,
				"z": -1.613486072,
				"element": "H" 
			},
			{
				"x": 0.4978832445,
				"y": -1.4236788073,
				"z": -1.8260160032,
				"element": "H" 
			},
			{
				"x": 0.3846073317,
				"y": 2.1901703497,
				"z": 1.9886768828,
				"element": "H" 
			},
			{
				"x": -6.1926632029,
				"y": 0.4045906039,
				"z": 0.5967892808,
				"element": "H" 
			},
			{
				"x": 4.0617276268,
				"y": -0.5555750324,
				"z": 0.6849445044,
				"element": "H" 
			},
			{
				"x": 5.0863725872,
				"y": 0.5256906732,
				"z": 1.6519019118,
				"element": "H" 
			},
			{
				"x": 3.6556575217,
				"y": -0.2293733411,
				"z": 2.3779274742,
				"element": "H" 
			},
			{
				"x": 4.8408190005,
				"y": 2.3601583952,
				"z": -0.085687019,
				"element": "H" 
			},
			{
				"x": 3.2339142987,
				"y": 2.9086023496,
				"z": -0.5976182885,
				"element": "H" 
			},
			{
				"x": 3.8121332284,
				"y": 1.3058642811,
				"z": -1.0789815024,
				"element": "H" 
			},
			{
				"x": 4.2175830155,
				"y": 2.8108542031,
				"z": 2.349460923,
				"element": "H" 
			},
			{
				"x": 2.6172104439,
				"y": 3.3698720021,
				"z": 1.8476803712,
				"element": "H" 
			},
			{
				"x": 2.7692395143,
				"y": 2.086518351,
				"z": 3.062298951,
				"element": "H" 
			},
			{
				"x": -2.5543785315,
				"y": -2.7712407292,
				"z": -1.2222289169,
				"element": "H" 
			},
			{
				"x": -3.0269712459,
				"y": -4.9050387306,
				"z": -0.0457440533,
				"element": "H" 
			},
			{
				"x": -1.3600813826,
				"y": -5.8631043798,
				"z": 1.5135698447,
				"element": "H" 
			}
		],
		 "valence_orbital": [ 
			{
				"type": "occ",
				"energy": -0.27923,
				"method": "rhf"
			},
			{
				"type": "occ",
				"energy": -0.25458,
				"method": "rhf"
			},
			{
				"type": "occ",
				"energy": -0.24525,
				"method": "rhf"
			},
			{
				"type": "occ",
				"energy": -0.24263,
				"method": "rhf"
			},
			{
				"type": "occ",
				"energy": -0.22757,
				"method": "rhf"
			},
			{
				"type": "unocc",
				"energy": -0.04589,
				"method": "rhf"
			},
			{
				"type": "unocc",
				"energy": -0.01119,
				"method": "rhf"
			},
			{
				"type": "unocc",
				"energy": -0.00842,
				"method": "rhf"
			},
			{
				"type": "unocc",
				"energy": -0.00112,
				"method": "rhf"
			},
			{
				"type": "unocc",
				"energy": 0.01047,
				"method": "rhf"
			}
		],
		"cosmo_sigma_profile": { 
			"-0.025": 0.0,
			"-0.024": 0.0,
			"-0.023": 0.0,
			"-0.022": 0.0,
			"-0.021": 0.0,
			"-0.02": 0.0,
			"-0.019": 0.0,
			"-0.018": 0.0,
			"-0.017": 0.0,
			"-0.016": 0.0,
			"-0.015": 0.0,
			"-0.014": 0.104261445295,
			"-0.013": 1.72824236053,
			"-0.012": 1.88868120352,
			"-0.011": 1.06071859141,
			"-0.01": 1.17694203744,
			"-0.009": 1.37601013877,
			"-0.008": 1.31187025078,
			"-0.007": 3.63145949317,
			"-0.006": 9.52242912499,
			"-0.005": 15.5968748995,
			"-0.004": 24.6690863173,
			"-0.003": 39.662171718,
			"-0.002": 44.6724481488,
			"-0.001": 41.6170632743,
			"0.0": 40.7302239242,
			"0.001": 45.684824241,
			"0.002": 26.3973060566,
			"0.003": 20.0143414449,
			"0.004": 16.1335335151,
			"0.005": 13.985764277,
			"0.006": 9.88682739899,
			"0.007": 3.25107511381,
			"0.008": 2.98930131887,
			"0.009": 2.59382370364,
			"0.01": 3.67868688191,
			"0.011": 3.851322104,
			"0.012": 3.59766112707,
			"0.013": 2.36129579073,
			"0.014": 1.61756012642,
			"0.015": 0.149405103846,
			"0.016": 0.0,
			"0.017": 0.0,
			"0.018": 0.0,
			"0.019": 0.0,
			"0.02": 0.0,
			"0.021": 0.0,
			"0.022": 0.0,
			"0.023": 0.0,
			"0.024": 0.0,
			"0.025": 0.0
		}
	}
}
