{
	 "smiles": "NC1=NC(=CC=C1)C1=CC2=C(C=CC=C2)C=C1", 
	 "Tm": 398.15, 
	 "num_atms": 29, 
	 "gaussian": { 
		 "optdone": 1, 
		 "sigma_profile": "yes", 
		 "theory": "DFT", 
		 "functional": "B3LYP", 
		 "basiset": "6-31G**", 
		 "properties": { 
			 "R2extent": 5226.0004, 
			 "electric_dipole_moment_norm": 1.92732192952, 
			 "electric_quadrupole_moment_norm": 17.3882453315, 
			 "total_energy": -688.360273937, 
			 "HOMO_LUMO_gap": 0.15618, 
			 "cosmo_polarized_energy": -11.78, 
			 "cosmo_cavitation_energy": 32.82, 
			 "cosmo_dispersion_energy": -24.42, 
			 "cosmo_repulsion_energy": 1.85, 
			 "cosmo_total_nonelectrostatic_energy": 10.26, 
			 "SMD_solvation_energy": 4.12 
		},
		"coords": [
			{
				"x": -3.2613241112,
				"y": -1.928913787,
				"z": 3.4150704849,
				"element": "N" 
			},
			{
				"x": -2.7945033646,
				"y": -2.1064313925,
				"z": 2.1244326886,
				"element": "C" 
			},
			{
				"x": -1.783888993,
				"y": -1.3168571075,
				"z": 1.748561506,
				"element": "N" 
			},
			{
				"x": -1.2437144781,
				"y": -1.4727023838,
				"z": 0.5236047713,
				"element": "C" 
			},
			{
				"x": -1.7298310514,
				"y": -2.4268796165,
				"z": -0.3802113775,
				"element": "C" 
			},
			{
				"x": -2.7888239177,
				"y": -3.2456967387,
				"z": 0.0201628488,
				"element": "C" 
			},
			{
				"x": -3.3350003324,
				"y": -3.1043045322,
				"z": 1.2854513146,
				"element": "C" 
			},
			{
				"x": -0.1223155736,
				"y": -0.5571208599,
				"z": 0.1781647793,
				"element": "C" 
			},
			{
				"x": 0.0886876144,
				"y": 0.5916669875,
				"z": 0.922304031,
				"element": "C" 
			},
			{
				"x": 1.1353904156,
				"y": 1.4968017118,
				"z": 0.6177509975,
				"element": "C" 
			},
			{
				"x": 2.0052395903,
				"y": 1.2139600786,
				"z": -0.4852545638,
				"element": "C" 
			},
			{
				"x": 3.0530348737,
				"y": 2.123142094,
				"z": -0.787968028,
				"element": "C" 
			},
			{
				"x": 3.2349163789,
				"y": 3.2632741332,
				"z": -0.036825672,
				"element": "C" 
			},
			{
				"x": 2.3753477514,
				"y": 3.5455937747,
				"z": 1.0541634538,
				"element": "C" 
			},
			{
				"x": 1.3510547107,
				"y": 2.6829102611,
				"z": 1.3727887049,
				"element": "C" 
			},
			{
				"x": 1.7831994879,
				"y": 0.0240116933,
				"z": -1.2290814783,
				"element": "C" 
			},
			{
				"x": 0.7564283365,
				"y": -0.831820541,
				"z": -0.9105634314,
				"element": "C" 
			},
			{
				"x": -4.2174817498,
				"y": -2.1927732555,
				"z": 3.5998729709,
				"element": "H" 
			},
			{
				"x": -2.9715799812,
				"y": -1.0587614062,
				"z": 3.8389514449,
				"element": "H" 
			},
			{
				"x": -1.3188529846,
				"y": -2.5159597201,
				"z": -1.377986798,
				"element": "H" 
			},
			{
				"x": -3.1866080184,
				"y": -3.992035556,
				"z": -0.6620974257,
				"element": "H" 
			},
			{
				"x": -4.1486165885,
				"y": -3.7362765008,
				"z": 1.6278543952,
				"element": "H" 
			},
			{
				"x": -0.569942814,
				"y": 0.7963284207,
				"z": 1.7596397423,
				"element": "H" 
			},
			{
				"x": 3.7114032136,
				"y": 1.9039218731,
				"z": -1.6249489279,
				"element": "H" 
			},
			{
				"x": 4.039610279,
				"y": 3.9519279504,
				"z": -0.2781694223,
				"element": "H" 
			},
			{
				"x": 2.5297086594,
				"y": 4.4479238119,
				"z": 1.6389456164,
				"element": "H" 
			},
			{
				"x": 0.6902321118,
				"y": 2.8957530307,
				"z": 2.2091935105,
				"element": "H" 
			},
			{
				"x": 2.4483513279,
				"y": -0.2080004812,
				"z": -2.0571249238,
				"element": "H" 
			},
			{
				"x": 0.6339792073,
				"y": -1.744381942,
				"z": -1.4842812123,
				"element": "H" 
			}
		],
		 "valence_orbital": [ 
			{
				"type": "occ",
				"energy": -0.27139,
				"method": "rhf"
			},
			{
				"type": "occ",
				"energy": -0.2533,
				"method": "rhf"
			},
			{
				"type": "occ",
				"energy": -0.2372,
				"method": "rhf"
			},
			{
				"type": "occ",
				"energy": -0.21444,
				"method": "rhf"
			},
			{
				"type": "occ",
				"energy": -0.20091,
				"method": "rhf"
			},
			{
				"type": "unocc",
				"energy": -0.04473,
				"method": "rhf"
			},
			{
				"type": "unocc",
				"energy": -0.01994,
				"method": "rhf"
			},
			{
				"type": "unocc",
				"energy": 0.00083,
				"method": "rhf"
			},
			{
				"type": "unocc",
				"energy": 0.02656,
				"method": "rhf"
			},
			{
				"type": "unocc",
				"energy": 0.04237,
				"method": "rhf"
			}
		],
		"cosmo_sigma_profile": { 
			"-0.025": 0.0,
			"-0.024": 0.0,
			"-0.023": 0.0,
			"-0.022": 0.0,
			"-0.021": 0.0,
			"-0.02": 0.0,
			"-0.019": 0.0,
			"-0.018": 0.0,
			"-0.017": 0.0,
			"-0.016": 0.0,
			"-0.015": 0.0,
			"-0.014": 0.117995279246,
			"-0.013": 0.943376592614,
			"-0.012": 2.15243637289,
			"-0.011": 2.63988502853,
			"-0.01": 2.17712094104,
			"-0.009": 2.66067304128,
			"-0.008": 3.19456374939,
			"-0.007": 4.96815692211,
			"-0.006": 14.9421114177,
			"-0.005": 20.0099801611,
			"-0.004": 20.6375717584,
			"-0.003": 16.9328733001,
			"-0.002": 12.5458361564,
			"-0.001": 12.4850671108,
			"0.0": 12.1188787527,
			"0.001": 14.2886140838,
			"0.002": 17.1391160195,
			"0.003": 25.4151012944,
			"0.004": 38.0674141193,
			"0.005": 21.8383107794,
			"0.006": 5.08654406785,
			"0.007": 2.96627782743,
			"0.008": 3.14702037577,
			"0.009": 1.80387121028,
			"0.01": 2.10416755858,
			"0.011": 1.16315736608,
			"0.012": 1.0533687524,
			"0.013": 0.703578231609,
			"0.014": 0.00623696749269,
			"0.015": 0.0,
			"0.016": 0.0,
			"0.017": 0.0,
			"0.018": 0.0,
			"0.019": 0.0,
			"0.02": 0.0,
			"0.021": 0.0,
			"0.022": 0.0,
			"0.023": 0.0,
			"0.024": 0.0,
			"0.025": 0.0
		}
	}
}
