{
	 "smiles": "FC1=CC=C(C=C1)N1C=C(C=O)C=N1", 
	 "Tm": 394.15, 
	 "num_atms": 21, 
	 "gaussian": { 
		 "optdone": 1, 
		 "sigma_profile": "yes", 
		 "theory": "DFT", 
		 "functional": "B3LYP", 
		 "basiset": "6-31G**", 
		 "properties": { 
			 "R2extent": 4098.512, 
			 "electric_dipole_moment_norm": 1.75472799317, 
			 "electric_quadrupole_moment_norm": 15.4691299636, 
			 "total_energy": -669.80913315, 
			 "HOMO_LUMO_gap": 0.17872, 
			 "cosmo_polarized_energy": -11.01, 
			 "cosmo_cavitation_energy": 27.03, 
			 "cosmo_dispersion_energy": -19.62, 
			 "cosmo_repulsion_energy": 1.48, 
			 "cosmo_total_nonelectrostatic_energy": 8.89, 
			 "SMD_solvation_energy": 6.02 
		},
		"coords": [
			{
				"x": 2.5143507329,
				"y": 4.3601300139,
				"z": -2.2423496927,
				"element": "F" 
			},
			{
				"x": 1.8843096821,
				"y": 3.2331788367,
				"z": -1.8574099356,
				"element": "C" 
			},
			{
				"x": 1.1871816968,
				"y": 3.2213849162,
				"z": -0.6545431376,
				"element": "C" 
			},
			{
				"x": 0.5365483446,
				"y": 2.0564413833,
				"z": -0.2577035713,
				"element": "C" 
			},
			{
				"x": 0.5901171669,
				"y": 0.9160537539,
				"z": -1.0679819224,
				"element": "C" 
			},
			{
				"x": 1.2963791347,
				"y": 0.9449637317,
				"z": -2.2759389969,
				"element": "C" 
			},
			{
				"x": 1.9479105792,
				"y": 2.1103011832,
				"z": -2.6741029068,
				"element": "C" 
			},
			{
				"x": -0.0818697895,
				"y": -0.2676012334,
				"z": -0.6457339435,
				"element": "N" 
			},
			{
				"x": -0.1569356607,
				"y": -1.4678178233,
				"z": -1.2702610573,
				"element": "C" 
			},
			{
				"x": -0.9225609531,
				"y": -2.3003063937,
				"z": -0.4643253038,
				"element": "C" 
			},
			{
				"x": -1.2732827139,
				"y": -3.6924997409,
				"z": -0.7309095564,
				"element": "C" 
			},
			{
				"x": -0.9258270693,
				"y": -4.3107621532,
				"z": -1.7231672537,
				"element": "O" 
			},
			{
				"x": -1.2670528896,
				"y": -1.4849577775,
				"z": 0.6467013832,
				"element": "C" 
			},
			{
				"x": -0.7642997239,
				"y": -0.2659692997,
				"z": 0.5404720362,
				"element": "N" 
			},
			{
				"x": 1.1583985965,
				"y": 4.1157131184,
				"z": -0.0420383557,
				"element": "H" 
			},
			{
				"x": -0.0144170547,
				"y": 2.0147881006,
				"z": 0.6727123054,
				"element": "H" 
			},
			{
				"x": 1.3485107784,
				"y": 0.0717400256,
				"z": -2.915592149,
				"element": "H" 
			},
			{
				"x": 2.5002895278,
				"y": 2.1533896192,
				"z": -3.6059948505,
				"element": "H" 
			},
			{
				"x": 0.3121122507,
				"y": -1.6786723163,
				"z": -2.2174718244,
				"element": "H" 
			},
			{
				"x": -1.8986144078,
				"y": -4.1729701355,
				"z": 0.0528040713,
				"element": "H" 
			},
			{
				"x": -1.8607482282,
				"y": -1.7464278092,
				"z": 1.5132346614,
				"element": "H" 
			}
		],
		 "valence_orbital": [ 
			{
				"type": "occ",
				"energy": -0.30536,
				"method": "rhf"
			},
			{
				"type": "occ",
				"energy": -0.27985,
				"method": "rhf"
			},
			{
				"type": "occ",
				"energy": -0.26899,
				"method": "rhf"
			},
			{
				"type": "occ",
				"energy": -0.25393,
				"method": "rhf"
			},
			{
				"type": "occ",
				"energy": -0.23806,
				"method": "rhf"
			},
			{
				"type": "unocc",
				"energy": -0.05934,
				"method": "rhf"
			},
			{
				"type": "unocc",
				"energy": -0.02945,
				"method": "rhf"
			},
			{
				"type": "unocc",
				"energy": -0.02248,
				"method": "rhf"
			},
			{
				"type": "unocc",
				"energy": 0.02728,
				"method": "rhf"
			},
			{
				"type": "unocc",
				"energy": 0.0682,
				"method": "rhf"
			}
		],
		"cosmo_sigma_profile": { 
			"-0.025": 0.0,
			"-0.024": 0.0,
			"-0.023": 0.0,
			"-0.022": 0.0,
			"-0.021": 0.0,
			"-0.02": 0.0,
			"-0.019": 0.0,
			"-0.018": 0.0,
			"-0.017": 0.0,
			"-0.016": 0.0,
			"-0.015": 0.0,
			"-0.014": 0.0,
			"-0.013": 0.15901859001,
			"-0.012": 1.2879629417,
			"-0.011": 1.71215768209,
			"-0.01": 1.57739677437,
			"-0.009": 2.59810962391,
			"-0.008": 7.74960313643,
			"-0.007": 10.690043474,
			"-0.006": 12.1547280035,
			"-0.005": 11.5261077293,
			"-0.004": 8.71467213637,
			"-0.003": 9.89126971089,
			"-0.002": 11.7095994106,
			"-0.001": 13.4973478391,
			"0.0": 19.97361092,
			"0.001": 23.6412040717,
			"0.002": 22.7522597457,
			"0.003": 14.4186548557,
			"0.004": 13.2513648951,
			"0.005": 5.76105236353,
			"0.006": 2.87589121296,
			"0.007": 2.30410821846,
			"0.008": 2.75902527015,
			"0.009": 3.28031373011,
			"0.01": 3.96886712743,
			"0.011": 4.65364340547,
			"0.012": 4.04093175456,
			"0.013": 1.71860089708,
			"0.014": 0.134508235752,
			"0.015": 0.0,
			"0.016": 0.0,
			"0.017": 0.0,
			"0.018": 0.0,
			"0.019": 0.0,
			"0.02": 0.0,
			"0.021": 0.0,
			"0.022": 0.0,
			"0.023": 0.0,
			"0.024": 0.0,
			"0.025": 0.0
		}
	}
}
