{
	 "smiles": "[O-][N+](=O)C1=CC(C#N)=C(Cl)N=C1", 
	 "Tm": 393.15, 
	 "num_atms": 14, 
	 "gaussian": { 
		 "optdone": 1, 
		 "sigma_profile": "yes", 
		 "theory": "DFT", 
		 "functional": "B3LYP", 
		 "basiset": "6-31G**", 
		 "properties": { 
			 "R2extent": 2924.6564, 
			 "electric_dipole_moment_norm": 1.43502440746, 
			 "electric_quadrupole_moment_norm": 12.9613997192, 
			 "total_energy": -1004.59877758, 
			 "HOMO_LUMO_gap": 0.17859, 
			 "cosmo_polarized_energy": -12.14, 
			 "cosmo_cavitation_energy": 23.23, 
			 "cosmo_dispersion_energy": -16.63, 
			 "cosmo_repulsion_energy": 1.32, 
			 "cosmo_total_nonelectrostatic_energy": 7.93, 
			 "SMD_solvation_energy": 6.09 
		},
		"coords": [
			{
				"x": -0.1631564045,
				"y": -2.0340877903,
				"z": 3.2376071822,
				"element": "O" 
			},
			{
				"x": 0.1513422435,
				"y": -2.7166063019,
				"z": 2.2659241695,
				"element": "N" 
			},
			{
				"x": 0.3462939265,
				"y": -3.9291902701,
				"z": 2.2737976701,
				"element": "O" 
			},
			{
				"x": 0.3083320781,
				"y": -2.0220549603,
				"z": 0.9806105912,
				"element": "C" 
			},
			{
				"x": 0.1009433352,
				"y": -0.6509062198,
				"z": 0.9110319236,
				"element": "C" 
			},
			{
				"x": 0.2596423134,
				"y": -0.0250868559,
				"z": -0.3293786921,
				"element": "C" 
			},
			{
				"x": 0.058013137,
				"y": 1.3851692915,
				"z": -0.4562748899,
				"element": "C" 
			},
			{
				"x": -0.112642705,
				"y": 2.5326540214,
				"z": -0.5279438092,
				"element": "N" 
			},
			{
				"x": 0.6222498978,
				"y": -0.8412593126,
				"z": -1.429170746,
				"element": "C" 
			},
			{
				"x": 0.8333693033,
				"y": -0.1188118346,
				"z": -2.9949888893,
				"element": "Cl" 
			},
			{
				"x": 0.8159334945,
				"y": -2.1462811619,
				"z": -1.3452454859,
				"element": "N" 
			},
			{
				"x": 0.6637419176,
				"y": -2.7411918367,
				"z": -0.1595093029,
				"element": "C" 
			},
			{
				"x": -0.1752293191,
				"y": -0.0915724289,
				"z": 1.7965868338,
				"element": "H" 
			},
			{
				"x": 0.8259667818,
				"y": -3.81247434,
				"z": -0.1059465551,
				"element": "H" 
			}
		],
		 "valence_orbital": [ 
			{
				"type": "occ",
				"energy": -0.34346,
				"method": "rhf"
			},
			{
				"type": "occ",
				"energy": -0.33735,
				"method": "rhf"
			},
			{
				"type": "occ",
				"energy": -0.32528,
				"method": "rhf"
			},
			{
				"type": "occ",
				"energy": -0.31774,
				"method": "rhf"
			},
			{
				"type": "occ",
				"energy": -0.30554,
				"method": "rhf"
			},
			{
				"type": "unocc",
				"energy": -0.12695,
				"method": "rhf"
			},
			{
				"type": "unocc",
				"energy": -0.10269,
				"method": "rhf"
			},
			{
				"type": "unocc",
				"energy": -0.05522,
				"method": "rhf"
			},
			{
				"type": "unocc",
				"energy": -0.00893,
				"method": "rhf"
			},
			{
				"type": "unocc",
				"energy": 0.00871,
				"method": "rhf"
			}
		],
		"cosmo_sigma_profile": { 
			"-0.025": 0.0,
			"-0.024": 0.0,
			"-0.023": 0.0,
			"-0.022": 0.0,
			"-0.021": 0.0,
			"-0.02": 0.0,
			"-0.019": 0.0,
			"-0.018": 0.0,
			"-0.017": 0.0,
			"-0.016": 0.0,
			"-0.015": 0.0,
			"-0.014": 0.0,
			"-0.013": 0.0,
			"-0.012": 0.621746587451,
			"-0.011": 1.80324766488,
			"-0.01": 2.72185165794,
			"-0.009": 4.48139320288,
			"-0.008": 5.99299775578,
			"-0.007": 8.89047389624,
			"-0.006": 15.9321946483,
			"-0.005": 16.7302112676,
			"-0.004": 9.16474055321,
			"-0.003": 8.05348368997,
			"-0.002": 8.57612243579,
			"-0.001": 8.20380417758,
			"0.0": 8.90403765881,
			"0.001": 11.770979904,
			"0.002": 13.2700093181,
			"0.003": 6.86926665856,
			"0.004": 8.70324720652,
			"0.005": 8.24365108107,
			"0.006": 12.1755858232,
			"0.007": 10.4018855508,
			"0.008": 7.87566747011,
			"0.009": 5.59437870447,
			"0.01": 3.40834947408,
			"0.011": 2.82921510208,
			"0.012": 0.745129514483,
			"0.013": 0.0,
			"0.014": 0.0,
			"0.015": 0.0,
			"0.016": 0.0,
			"0.017": 0.0,
			"0.018": 0.0,
			"0.019": 0.0,
			"0.02": 0.0,
			"0.021": 0.0,
			"0.022": 0.0,
			"0.023": 0.0,
			"0.024": 0.0,
			"0.025": 0.0
		}
	}
}
