{
	 "smiles": "OC(=O)CC1=CC2=C3C=CC=CC3=CC=C2O1", 
	 "Tm": 440.15, 
	 "num_atms": 27, 
	 "gaussian": { 
		 "optdone": 1, 
		 "sigma_profile": "yes", 
		 "theory": "DFT", 
		 "functional": "B3LYP", 
		 "basiset": "6-31G**", 
		 "properties": { 
			 "R2extent": 5454.4149, 
			 "electric_dipole_moment_norm": 3.31648979947, 
			 "electric_quadrupole_moment_norm": 21.2155351111, 
			 "total_energy": -765.199643952, 
			 "HOMO_LUMO_gap": 0.16524, 
			 "cosmo_polarized_energy": -17.27, 
			 "cosmo_cavitation_energy": 31.67, 
			 "cosmo_dispersion_energy": -23.53, 
			 "cosmo_repulsion_energy": 1.78, 
			 "cosmo_total_nonelectrostatic_energy": 9.92, 
			 "SMD_solvation_energy": 6.37 
		},
		"coords": [
			{
				"x": 4.1488554542,
				"y": 4.4885556831,
				"z": 0.2872073969,
				"element": "O" 
			},
			{
				"x": 3.1302262434,
				"y": 3.592959516,
				"z": 0.3825421957,
				"element": "C" 
			},
			{
				"x": 2.7392221381,
				"y": 3.2434891706,
				"z": 1.4659806691,
				"element": "O" 
			},
			{
				"x": 2.5890273469,
				"y": 3.1244600801,
				"z": -0.9644962024,
				"element": "C" 
			},
			{
				"x": 1.468287537,
				"y": 2.1403667936,
				"z": -0.9087267754,
				"element": "C" 
			},
			{
				"x": 0.7727119152,
				"y": 1.5219663056,
				"z": 0.0831219877,
				"element": "C" 
			},
			{
				"x": -0.1944510267,
				"y": 0.6779872745,
				"z": -0.5705040536,
				"element": "C" 
			},
			{
				"x": -1.2123339046,
				"y": -0.2191946641,
				"z": -0.1244906092,
				"element": "C" 
			},
			{
				"x": -1.4903464344,
				"y": -0.4739715994,
				"z": 1.2403009221,
				"element": "C" 
			},
			{
				"x": -2.4891422026,
				"y": -1.3537607297,
				"z": 1.6037815906,
				"element": "C" 
			},
			{
				"x": -3.2523288799,
				"y": -2.0161208797,
				"z": 0.6154992477,
				"element": "C" 
			},
			{
				"x": -3.0028318859,
				"y": -1.7866267351,
				"z": -0.7208222493,
				"element": "C" 
			},
			{
				"x": -1.9838344827,
				"y": -0.8887093372,
				"z": -1.1334875098,
				"element": "C" 
			},
			{
				"x": -1.7237315693,
				"y": -0.6495270438,
				"z": -2.5202082371,
				"element": "C" 
			},
			{
				"x": -0.7400043579,
				"y": 0.2174540588,
				"z": -2.9395580683,
				"element": "C" 
			},
			{
				"x": 0.0029640888,
				"y": 0.8619508932,
				"z": -1.93583956,
				"element": "C" 
			},
			{
				"x": 1.0171403476,
				"y": 1.7540008171,
				"z": -2.1548662859,
				"element": "O" 
			},
			{
				"x": 4.3574613447,
				"y": 4.6771407797,
				"z": -0.6388425547,
				"element": "H" 
			},
			{
				"x": 3.4257704555,
				"y": 2.6973879125,
				"z": -1.5377257739,
				"element": "H" 
			},
			{
				"x": 2.2710018806,
				"y": 4.0124856701,
				"z": -1.5313734226,
				"element": "H" 
			},
			{
				"x": 0.9440642362,
				"y": 1.6642793424,
				"z": 1.1376885305,
				"element": "H" 
			},
			{
				"x": -0.9054589705,
				"y": 0.0335890994,
				"z": 2.001957468,
				"element": "H" 
			},
			{
				"x": -2.6914613664,
				"y": -1.5396055755,
				"z": 2.6546779316,
				"element": "H" 
			},
			{
				"x": -4.0362252895,
				"y": -2.7066949049,
				"z": 0.9126003392,
				"element": "H" 
			},
			{
				"x": -3.5887426844,
				"y": -2.2951292248,
				"z": -1.4825422406,
				"element": "H" 
			},
			{
				"x": -2.3285704265,
				"y": -1.1748618598,
				"z": -3.2540090317,
				"element": "H" 
			},
			{
				"x": -0.5396695068,
				"y": 0.4015291574,
				"z": -3.9894657045,
				"element": "H" 
			}
		],
		 "valence_orbital": [ 
			{
				"type": "occ",
				"energy": -0.29767,
				"method": "rhf"
			},
			{
				"type": "occ",
				"energy": -0.28567,
				"method": "rhf"
			},
			{
				"type": "occ",
				"energy": -0.25434,
				"method": "rhf"
			},
			{
				"type": "occ",
				"energy": -0.23104,
				"method": "rhf"
			},
			{
				"type": "occ",
				"energy": -0.20164,
				"method": "rhf"
			},
			{
				"type": "unocc",
				"energy": -0.0364,
				"method": "rhf"
			},
			{
				"type": "unocc",
				"energy": -0.00443,
				"method": "rhf"
			},
			{
				"type": "unocc",
				"energy": -0.00272,
				"method": "rhf"
			},
			{
				"type": "unocc",
				"energy": 0.01559,
				"method": "rhf"
			},
			{
				"type": "unocc",
				"energy": 0.04259,
				"method": "rhf"
			}
		],
		"cosmo_sigma_profile": { 
			"-0.025": 0.0,
			"-0.024": 0.0,
			"-0.023": 0.0,
			"-0.022": 0.0,
			"-0.021": 0.0,
			"-0.02": 0.330010449991,
			"-0.019": 1.05586630452,
			"-0.018": 1.0965336162,
			"-0.017": 1.48541769828,
			"-0.016": 1.62318764675,
			"-0.015": 0.635225779036,
			"-0.014": 1.01175949779,
			"-0.013": 1.61173793593,
			"-0.012": 1.07584482407,
			"-0.011": 1.92012499499,
			"-0.01": 2.09196086831,
			"-0.009": 3.58404167947,
			"-0.008": 4.05184263471,
			"-0.007": 5.66223950676,
			"-0.006": 14.1036188393,
			"-0.005": 16.1084484911,
			"-0.004": 15.2604489684,
			"-0.003": 13.2576492706,
			"-0.002": 11.7324031072,
			"-0.001": 11.1597159685,
			"0.0": 10.7392737618,
			"0.001": 15.5116561162,
			"0.002": 17.4970552686,
			"0.003": 22.5204851567,
			"0.004": 29.5304473381,
			"0.005": 18.2283631432,
			"0.006": 6.90089257323,
			"0.007": 4.30805124299,
			"0.008": 4.31519069184,
			"0.009": 3.35473748425,
			"0.01": 5.62151007084,
			"0.011": 3.97911643156,
			"0.012": 2.42910019008,
			"0.013": 0.42553830365,
			"0.014": 0.0,
			"0.015": 0.0,
			"0.016": 0.0,
			"0.017": 0.0,
			"0.018": 0.0,
			"0.019": 0.0,
			"0.02": 0.0,
			"0.021": 0.0,
			"0.022": 0.0,
			"0.023": 0.0,
			"0.024": 0.0,
			"0.025": 0.0
		}
	}
}
