{
	 "smiles": "OC[C@@H]1N=C(O[C@H]1C1=CC=CC=C1)C1=CC=CC=C1", 
	 "Tm": 459.5, 
	 "num_atms": 34, 
	 "gaussian": { 
		 "optdone": 1, 
		 "sigma_profile": "yes", 
		 "theory": "DFT", 
		 "functional": "B3LYP", 
		 "basiset": "6-31G**", 
		 "properties": { 
			 "R2extent": 7338.3844, 
			 "electric_dipole_moment_norm": 2.54866558418, 
			 "electric_quadrupole_moment_norm": 14.9427269466, 
			 "total_energy": -823.934412022, 
			 "HOMO_LUMO_gap": 0.19464, 
			 "cosmo_polarized_energy": -11.36, 
			 "cosmo_cavitation_energy": 37.88, 
			 "cosmo_dispersion_energy": -26.77, 
			 "cosmo_repulsion_energy": 2.07, 
			 "cosmo_total_nonelectrostatic_energy": 13.18, 
			 "SMD_solvation_energy": 4.16 
		},
		"coords": [
			{
				"x": -2.2641096561,
				"y": 2.1419749599,
				"z": 1.806902586,
				"element": "O" 
			},
			{
				"x": -2.4174761797,
				"y": 0.7489236364,
				"z": 1.9691861557,
				"element": "C" 
			},
			{
				"x": -1.3125473584,
				"y": -0.0149889963,
				"z": 1.2321096762,
				"element": "C" 
			},
			{
				"x": -1.3385910142,
				"y": 0.3404653037,
				"z": -0.1921715758,
				"element": "N" 
			},
			{
				"x": -1.3654242987,
				"y": -0.7549748917,
				"z": -0.8521889873,
				"element": "C" 
			},
			{
				"x": -1.3765528374,
				"y": -1.9264813465,
				"z": -0.1461867051,
				"element": "O" 
			},
			{
				"x": -1.4774417378,
				"y": -1.5667612104,
				"z": 1.2589781828,
				"element": "C" 
			},
			{
				"x": -0.4631306899,
				"y": -2.3149529791,
				"z": 2.0873098445,
				"element": "C" 
			},
			{
				"x": -0.797523041,
				"y": -2.7304965293,
				"z": 3.3811774341,
				"element": "C" 
			},
			{
				"x": 0.1461709044,
				"y": -3.367126983,
				"z": 4.1890910364,
				"element": "C" 
			},
			{
				"x": 1.4326775204,
				"y": -3.6056231424,
				"z": 3.7043917117,
				"element": "C" 
			},
			{
				"x": 1.7696286845,
				"y": -3.203676385,
				"z": 2.4094254801,
				"element": "C" 
			},
			{
				"x": 0.8295256555,
				"y": -2.5594066103,
				"z": 1.606097111,
				"element": "C" 
			},
			{
				"x": -1.3736614676,
				"y": -0.885801352,
				"z": -2.3176702059,
				"element": "C" 
			},
			{
				"x": -1.4467995243,
				"y": -2.1466175142,
				"z": -2.9268364292,
				"element": "C" 
			},
			{
				"x": -1.454003207,
				"y": -2.2481363999,
				"z": -4.3176198681,
				"element": "C" 
			},
			{
				"x": -1.389370358,
				"y": -1.0974542299,
				"z": -5.1054338082,
				"element": "C" 
			},
			{
				"x": -1.3161938925,
				"y": 0.1610118459,
				"z": -4.4997624439,
				"element": "C" 
			},
			{
				"x": -1.3071447764,
				"y": 0.2691483386,
				"z": -3.1124875561,
				"element": "C" 
			},
			{
				"x": -2.11776644,
				"y": 2.2778676502,
				"z": 0.8584319377,
				"element": "H" 
			},
			{
				"x": -2.3716718778,
				"y": 0.5390173085,
				"z": 3.0442152439,
				"element": "H" 
			},
			{
				"x": -3.3966089202,
				"y": 0.3977199208,
				"z": 1.5989320089,
				"element": "H" 
			},
			{
				"x": -0.3461977856,
				"y": 0.28935742,
				"z": 1.6547160556,
				"element": "H" 
			},
			{
				"x": -2.490427734,
				"y": -1.8390516938,
				"z": 1.5847505468,
				"element": "H" 
			},
			{
				"x": -1.8031065426,
				"y": -2.5587103184,
				"z": 3.7582352111,
				"element": "H" 
			},
			{
				"x": -0.1272064006,
				"y": -3.6836196591,
				"z": 5.1915605397,
				"element": "H" 
			},
			{
				"x": 2.1668326784,
				"y": -4.1067827156,
				"z": 4.3285058546,
				"element": "H" 
			},
			{
				"x": 2.7671201878,
				"y": -3.3937795698,
				"z": 2.0234627666,
				"element": "H" 
			},
			{
				"x": 1.0894776945,
				"y": -2.258436705,
				"z": 0.5961153461,
				"element": "H" 
			},
			{
				"x": -1.498093785,
				"y": -3.0351660552,
				"z": -2.3077875323,
				"element": "H" 
			},
			{
				"x": -1.5108615797,
				"y": -3.2263471517,
				"z": -4.7859180536,
				"element": "H" 
			},
			{
				"x": -1.3955041257,
				"y": -1.1793503284,
				"z": -6.1886027527,
				"element": "H" 
			},
			{
				"x": -1.2647304998,
				"y": 1.0570262974,
				"z": -5.1112909401,
				"element": "H" 
			},
			{
				"x": -1.2478875956,
				"y": 1.2362300854,
				"z": -2.6250378713,
				"element": "H" 
			}
		],
		 "valence_orbital": [ 
			{
				"type": "occ",
				"energy": -0.26378,
				"method": "rhf"
			},
			{
				"type": "occ",
				"energy": -0.25888,
				"method": "rhf"
			},
			{
				"type": "occ",
				"energy": -0.25561,
				"method": "rhf"
			},
			{
				"type": "occ",
				"energy": -0.24484,
				"method": "rhf"
			},
			{
				"type": "occ",
				"energy": -0.23832,
				"method": "rhf"
			},
			{
				"type": "unocc",
				"energy": -0.04368,
				"method": "rhf"
			},
			{
				"type": "unocc",
				"energy": -0.01113,
				"method": "rhf"
			},
			{
				"type": "unocc",
				"energy": -0.00774,
				"method": "rhf"
			},
			{
				"type": "unocc",
				"energy": -0.00723,
				"method": "rhf"
			},
			{
				"type": "unocc",
				"energy": 0.05726,
				"method": "rhf"
			}
		],
		"cosmo_sigma_profile": { 
			"-0.025": 0.0,
			"-0.024": 0.0,
			"-0.023": 0.0,
			"-0.022": 0.0,
			"-0.021": 0.0,
			"-0.02": 0.0,
			"-0.019": 0.0,
			"-0.018": 0.0,
			"-0.017": 0.0,
			"-0.016": 0.0,
			"-0.015": 0.0,
			"-0.014": 0.0,
			"-0.013": 0.0,
			"-0.012": 0.107830070818,
			"-0.011": 0.463404489329,
			"-0.01": 0.859841189109,
			"-0.009": 0.643214945338,
			"-0.008": 0.541768035217,
			"-0.007": 3.83288424667,
			"-0.006": 17.7947830228,
			"-0.005": 28.4103397734,
			"-0.004": 30.6898206468,
			"-0.003": 25.8229643028,
			"-0.002": 19.6070008739,
			"-0.001": 19.9270248303,
			"0.0": 18.9299243645,
			"0.001": 19.9160591722,
			"0.002": 21.3944639492,
			"0.003": 22.6164806893,
			"0.004": 24.2547606826,
			"0.005": 17.9455906339,
			"0.006": 9.53726249245,
			"0.007": 4.36309790375,
			"0.008": 2.40372018439,
			"0.009": 2.24579996139,
			"0.01": 1.44443778342,
			"0.011": 1.33278607032,
			"0.012": 1.93579553019,
			"0.013": 1.88295593943,
			"0.014": 2.34950878236,
			"0.015": 0.519910995059,
			"0.016": 0.0,
			"0.017": 0.0,
			"0.018": 0.0,
			"0.019": 0.0,
			"0.02": 0.0,
			"0.021": 0.0,
			"0.022": 0.0,
			"0.023": 0.0,
			"0.024": 0.0,
			"0.025": 0.0
		}
	}
}
