{
	 "smiles": "OC(=O)C1=CC=C(C=C1)N1C(=O)CCC1=O", 
	 "Tm": 484.15, 
	 "num_atms": 25, 
	 "gaussian": { 
		 "optdone": 1, 
		 "sigma_profile": "yes", 
		 "theory": "DFT", 
		 "functional": "B3LYP", 
		 "basiset": "6-31G**", 
		 "properties": { 
			 "R2extent": 4676.0862, 
			 "electric_dipole_moment_norm": 3.46735993228, 
			 "electric_quadrupole_moment_norm": 15.9588644204, 
			 "total_energy": -780.29135677, 
			 "HOMO_LUMO_gap": 0.19554, 
			 "cosmo_polarized_energy": -17.68, 
			 "cosmo_cavitation_energy": 30.05, 
			 "cosmo_dispersion_energy": -22.12, 
			 "cosmo_repulsion_energy": 1.72, 
			 "cosmo_total_nonelectrostatic_energy": 9.65, 
			 "SMD_solvation_energy": 7.59 
		},
		"coords": [
			{
				"x": -2.5492587953,
				"y": 3.5172591895,
				"z": 3.150295212,
				"element": "O" 
			},
			{
				"x": -2.824396395,
				"y": 2.2380993275,
				"z": 2.7902537432,
				"element": "C" 
			},
			{
				"x": -3.7707598425,
				"y": 1.6285596644,
				"z": 3.2485798737,
				"element": "O" 
			},
			{
				"x": -1.8602459855,
				"y": 1.6914647992,
				"z": 1.8004171426,
				"element": "C" 
			},
			{
				"x": -0.786697364,
				"y": 2.4424659412,
				"z": 1.3045712872,
				"element": "C" 
			},
			{
				"x": 0.092136074,
				"y": 1.8869325103,
				"z": 0.3801400777,
				"element": "C" 
			},
			{
				"x": -0.1044513996,
				"y": 0.5718930237,
				"z": -0.0608895502,
				"element": "C" 
			},
			{
				"x": -1.1779467969,
				"y": -0.1853391621,
				"z": 0.4277235176,
				"element": "C" 
			},
			{
				"x": -2.045964355,
				"y": 0.3762542272,
				"z": 1.3562956283,
				"element": "C" 
			},
			{
				"x": 0.7938164321,
				"y": 0.0000256776,
				"z": -1.0143667151,
				"element": "N" 
			},
			{
				"x": 1.3274731451,
				"y": 0.7094352533,
				"z": -2.1127131244,
				"element": "C" 
			},
			{
				"x": 1.1029441128,
				"y": 1.8700582147,
				"z": -2.3717733905,
				"element": "O" 
			},
			{
				"x": 2.21995826,
				"y": -0.2400616333,
				"z": -2.9018905072,
				"element": "C" 
			},
			{
				"x": 2.193120321,
				"y": -1.5637955454,
				"z": -2.1329919981,
				"element": "C" 
			},
			{
				"x": 1.2451350889,
				"y": -1.337398693,
				"z": -0.9620866397,
				"element": "C" 
			},
			{
				"x": 0.9280120059,
				"y": -2.150253909,
				"z": -0.1237032737,
				"element": "O" 
			},
			{
				"x": -3.2363826278,
				"y": 3.7634416639,
				"z": 3.7909737172,
				"element": "H" 
			},
			{
				"x": -0.6391534261,
				"y": 3.4603152433,
				"z": 1.6462068452,
				"element": "H" 
			},
			{
				"x": 0.9146582761,
				"y": 2.4714621777,
				"z": -0.0096080186,
				"element": "H" 
			},
			{
				"x": -1.3186658949,
				"y": -1.2046999937,
				"z": 0.0941802971,
				"element": "H" 
			},
			{
				"x": -2.8819264604,
				"y": -0.1927038119,
				"z": 1.7481222294,
				"element": "H" 
			},
			{
				"x": 1.8237048738,
				"y": -0.3172604115,
				"z": -3.9185428129,
				"element": "H" 
			},
			{
				"x": 3.2158227102,
				"y": 0.204450034,
				"z": -2.9815457055,
				"element": "H" 
			},
			{
				"x": 1.8237821658,
				"y": -2.4086144743,
				"z": -2.7208247026,
				"element": "H" 
			},
			{
				"x": 3.1681858772,
				"y": -1.8565893133,
				"z": -1.7329231326,
				"element": "H" 
			}
		],
		 "valence_orbital": [ 
			{
				"type": "occ",
				"energy": -0.29582,
				"method": "rhf"
			},
			{
				"type": "occ",
				"energy": -0.2772,
				"method": "rhf"
			},
			{
				"type": "occ",
				"energy": -0.26936,
				"method": "rhf"
			},
			{
				"type": "occ",
				"energy": -0.26321,
				"method": "rhf"
			},
			{
				"type": "occ",
				"energy": -0.25178,
				"method": "rhf"
			},
			{
				"type": "unocc",
				"energy": -0.05624,
				"method": "rhf"
			},
			{
				"type": "unocc",
				"energy": -0.02997,
				"method": "rhf"
			},
			{
				"type": "unocc",
				"energy": -0.01231,
				"method": "rhf"
			},
			{
				"type": "unocc",
				"energy": 0.01088,
				"method": "rhf"
			},
			{
				"type": "unocc",
				"energy": 0.06112,
				"method": "rhf"
			}
		],
		"cosmo_sigma_profile": { 
			"-0.025": 0.0,
			"-0.024": 0.0,
			"-0.023": 0.0,
			"-0.022": 0.0,
			"-0.021": 0.0,
			"-0.02": 0.0,
			"-0.019": 0.0119062982487,
			"-0.018": 0.820640516862,
			"-0.017": 0.827285957927,
			"-0.016": 1.08641550662,
			"-0.015": 0.437812924347,
			"-0.014": 1.09509331511,
			"-0.013": 0.570117953427,
			"-0.012": 0.433279032353,
			"-0.011": 1.02113646175,
			"-0.01": 0.83466149741,
			"-0.009": 0.517123727274,
			"-0.008": 4.91426702741,
			"-0.007": 19.7180101806,
			"-0.006": 18.7737010023,
			"-0.005": 17.5218186193,
			"-0.004": 13.8583743004,
			"-0.003": 14.0898404005,
			"-0.002": 12.4625367417,
			"-0.001": 11.4656433103,
			"0.0": 12.8978233911,
			"0.001": 14.2772527483,
			"0.002": 17.5602728162,
			"0.003": 11.7988233549,
			"0.004": 6.9109093144,
			"0.005": 7.00620268309,
			"0.006": 4.65373006561,
			"0.007": 6.37129048641,
			"0.008": 5.27519717355,
			"0.009": 5.87662957514,
			"0.01": 6.85758607299,
			"0.011": 12.238880352,
			"0.012": 7.7970565027,
			"0.013": 0.425016476769,
			"0.014": 0.0,
			"0.015": 0.0,
			"0.016": 0.0,
			"0.017": 0.0,
			"0.018": 0.0,
			"0.019": 0.0,
			"0.02": 0.0,
			"0.021": 0.0,
			"0.022": 0.0,
			"0.023": 0.0,
			"0.024": 0.0,
			"0.025": 0.0
		}
	}
}
