{
	 "smiles": "[O-][N+](=O)C1=CC=C(C=C1)S(=O)(=O)NC1=CC2=NN(N=C2C=C1)C1CCCC1", 
	 "Tm": 467.15, 
	 "num_atms": 44, 
	 "gaussian": { 
		 "optdone": 1, 
		 "sigma_profile": "yes", 
		 "theory": "DFT", 
		 "functional": "B3LYP", 
		 "basiset": "6-31G**", 
		 "properties": { 
			 "R2extent": 17431.5311, 
			 "electric_dipole_moment_norm": 5.2345728565, 
			 "electric_quadrupole_moment_norm": 20.5753450071, 
			 "total_energy": -1630.69831559, 
			 "HOMO_LUMO_gap": 0.1335, 
			 "cosmo_polarized_energy": -20.31, 
			 "cosmo_cavitation_energy": 50.3, 
			 "cosmo_dispersion_energy": -35.39, 
			 "cosmo_repulsion_energy": 2.64, 
			 "cosmo_total_nonelectrostatic_energy": 17.54, 
			 "SMD_solvation_energy": 6.99 
		},
		"coords": [
			{
				"x": 2.4110267389,
				"y": 5.8508706155,
				"z": -2.5272392249,
				"element": "O" 
			},
			{
				"x": 1.8390182314,
				"y": 5.4662447726,
				"z": -3.5448918254,
				"element": "N" 
			},
			{
				"x": 2.261004085,
				"y": 5.6122654179,
				"z": -4.690190102,
				"element": "O" 
			},
			{
				"x": 0.5454621264,
				"y": 4.7735191734,
				"z": -3.3791257851,
				"element": "C" 
			},
			{
				"x": -0.1266579895,
				"y": 4.3304148746,
				"z": -4.5181047195,
				"element": "C" 
			},
			{
				"x": -1.3444189162,
				"y": 3.6763059881,
				"z": -4.3604378931,
				"element": "C" 
			},
			{
				"x": -1.8511827589,
				"y": 3.4825382104,
				"z": -3.0723463463,
				"element": "C" 
			},
			{
				"x": -1.1773735835,
				"y": 3.9387299162,
				"z": -1.9385135396,
				"element": "C" 
			},
			{
				"x": 0.0433662209,
				"y": 4.5938432927,
				"z": -2.09290501,
				"element": "C" 
			},
			{
				"x": -3.4354145635,
				"y": 2.6520431233,
				"z": -2.8746723798,
				"element": "S" 
			},
			{
				"x": -3.8804490312,
				"y": 2.8990448124,
				"z": -1.5017608979,
				"element": "O" 
			},
			{
				"x": -4.2758775262,
				"y": 2.9752580117,
				"z": -4.0307196475,
				"element": "O" 
			},
			{
				"x": -3.0226685581,
				"y": 1.012079861,
				"z": -3.1058219837,
				"element": "N" 
			},
			{
				"x": -2.6082778876,
				"y": 0.2243911284,
				"z": -1.9776600252,
				"element": "C" 
			},
			{
				"x": -1.2572950343,
				"y": 0.1229652887,
				"z": -1.7096492943,
				"element": "C" 
			},
			{
				"x": -0.8841117101,
				"y": -0.6587556485,
				"z": -0.5952628477,
				"element": "C" 
			},
			{
				"x": 0.3412218901,
				"y": -0.9397201726,
				"z": -0.091825089,
				"element": "N" 
			},
			{
				"x": 0.061450876,
				"y": -1.7291752579,
				"z": 0.9390899905,
				"element": "N" 
			},
			{
				"x": -1.214908634,
				"y": -2.0089450402,
				"z": 1.1754870154,
				"element": "N" 
			},
			{
				"x": -1.85892303,
				"y": -1.330235948,
				"z": 0.1978113838,
				"element": "C" 
			},
			{
				"x": -3.2369703638,
				"y": -1.2223945869,
				"z": -0.0981458976,
				"element": "C" 
			},
			{
				"x": -3.5889994869,
				"y": -0.4381949041,
				"z": -1.1730611587,
				"element": "C" 
			},
			{
				"x": 1.13480642,
				"y": -2.2869760545,
				"z": 1.7741106306,
				"element": "C" 
			},
			{
				"x": 0.9884941299,
				"y": -1.8591383066,
				"z": 3.2633853702,
				"element": "C" 
			},
			{
				"x": 1.2250437768,
				"y": -3.1445700217,
				"z": 4.0787177289,
				"element": "C" 
			},
			{
				"x": 0.6471158275,
				"y": -4.2486273223,
				"z": 3.1791741787,
				"element": "C" 
			},
			{
				"x": 1.129126814,
				"y": -3.843777667,
				"z": 1.7753891945,
				"element": "C" 
			},
			{
				"x": 0.3053383467,
				"y": 4.5056810918,
				"z": -5.495151845,
				"element": "H" 
			},
			{
				"x": -1.9037077212,
				"y": 3.3299610517,
				"z": -5.2221519115,
				"element": "H" 
			},
			{
				"x": -1.6132302583,
				"y": 3.7897703178,
				"z": -0.9574618062,
				"element": "H" 
			},
			{
				"x": 0.6027281336,
				"y": 4.9651215725,
				"z": -1.2436443479,
				"element": "H" 
			},
			{
				"x": -3.7745915721,
				"y": 0.6077929505,
				"z": -3.6603793328,
				"element": "H" 
			},
			{
				"x": -0.5215087429,
				"y": 0.6083285647,
				"z": -2.3398817944,
				"element": "H" 
			},
			{
				"x": -3.9813788722,
				"y": -1.7281006347,
				"z": 0.5069561249,
				"element": "H" 
			},
			{
				"x": -4.635924018,
				"y": -0.3013335266,
				"z": -1.4257012516,
				"element": "H" 
			},
			{
				"x": 2.0423755952,
				"y": -1.8904860838,
				"z": 1.3193179948,
				"element": "H" 
			},
			{
				"x": 1.6711307947,
				"y": -1.0450187012,
				"z": 3.521710466,
				"element": "H" 
			},
			{
				"x": -0.0327824731,
				"y": -1.5022272439,
				"z": 3.4231462033,
				"element": "H" 
			},
			{
				"x": 0.7589825576,
				"y": -3.1006635495,
				"z": 5.0675863382,
				"element": "H" 
			},
			{
				"x": 2.2994277151,
				"y": -3.3093312344,
				"z": 4.2307376644,
				"element": "H" 
			},
			{
				"x": 0.9713493673,
				"y": -5.2544005919,
				"z": 3.4629501833,
				"element": "H" 
			},
			{
				"x": -0.4477176442,
				"y": -4.2244956541,
				"z": 3.2167458404,
				"element": "H" 
			},
			{
				"x": 0.5156530689,
				"y": -4.2471009587,
				"z": 0.9665752507,
				"element": "H" 
			},
			{
				"x": 2.1556476599,
				"y": -4.1921009272,
				"z": 1.6157143981,
				"element": "H" 
			}
		],
		 "valence_orbital": [ 
			{
				"type": "occ",
				"energy": -0.30258,
				"method": "rhf"
			},
			{
				"type": "occ",
				"energy": -0.29474,
				"method": "rhf"
			},
			{
				"type": "occ",
				"energy": -0.28622,
				"method": "rhf"
			},
			{
				"type": "occ",
				"energy": -0.25704,
				"method": "rhf"
			},
			{
				"type": "occ",
				"energy": -0.23953,
				"method": "rhf"
			},
			{
				"type": "unocc",
				"energy": -0.10603,
				"method": "rhf"
			},
			{
				"type": "unocc",
				"energy": -0.06151,
				"method": "rhf"
			},
			{
				"type": "unocc",
				"energy": -0.04382,
				"method": "rhf"
			},
			{
				"type": "unocc",
				"energy": -0.02857,
				"method": "rhf"
			},
			{
				"type": "unocc",
				"energy": -0.0042,
				"method": "rhf"
			}
		],
		"cosmo_sigma_profile": { 
			"-0.025": 0.0,
			"-0.024": 0.0,
			"-0.023": 0.0,
			"-0.022": 0.0,
			"-0.021": 0.0,
			"-0.02": 0.0,
			"-0.019": 0.0,
			"-0.018": 0.0,
			"-0.017": 0.0,
			"-0.016": 0.0809370274226,
			"-0.015": 1.03810321975,
			"-0.014": 1.09554224729,
			"-0.013": 1.24483174394,
			"-0.012": 0.978579878243,
			"-0.011": 1.69673030443,
			"-0.01": 0.863596097348,
			"-0.009": 4.25268593524,
			"-0.008": 8.99145341925,
			"-0.007": 13.4157125412,
			"-0.006": 14.4014174059,
			"-0.005": 15.6246521793,
			"-0.004": 25.7978793022,
			"-0.003": 33.9607211729,
			"-0.002": 43.3275195774,
			"-0.001": 45.8541604074,
			"0.0": 34.9367770629,
			"0.001": 26.9160488596,
			"0.002": 21.0243200102,
			"0.003": 14.4038530028,
			"0.004": 9.36071679143,
			"0.005": 10.6480171932,
			"0.006": 12.5963427156,
			"0.007": 15.0156417374,
			"0.008": 12.1224993672,
			"0.009": 10.881721006,
			"0.01": 11.7021454558,
			"0.011": 6.3386469025,
			"0.012": 1.33987632134,
			"0.013": 1.01078283877,
			"0.014": 0.160278251968,
			"0.015": 0.0,
			"0.016": 0.0,
			"0.017": 0.0,
			"0.018": 0.0,
			"0.019": 0.0,
			"0.02": 0.0,
			"0.021": 0.0,
			"0.022": 0.0,
			"0.023": 0.0,
			"0.024": 0.0,
			"0.025": 0.0
		}
	}
}
