{
	 "smiles": "CC1=CC(=NO1)C(=O)NC1=CC=CC=C1", 
	 "Tm": 411.15, 
	 "num_atms": 25, 
	 "gaussian": { 
		 "optdone": 1, 
		 "sigma_profile": "yes", 
		 "theory": "DFT", 
		 "functional": "B3LYP", 
		 "basiset": "6-31G**", 
		 "properties": { 
			 "R2extent": 3923.124, 
			 "electric_dipole_moment_norm": 5.87552581732, 
			 "electric_quadrupole_moment_norm": 13.0533686763, 
			 "total_energy": -685.104332653, 
			 "HOMO_LUMO_gap": 0.19587, 
			 "cosmo_polarized_energy": -16.7, 
			 "cosmo_cavitation_energy": 30.29, 
			 "cosmo_dispersion_energy": -21.21, 
			 "cosmo_repulsion_energy": 1.69, 
			 "cosmo_total_nonelectrostatic_energy": 10.77, 
			 "SMD_solvation_energy": 5.94 
		},
		"coords": [
			{
				"x": -1.8764190312,
				"y": 1.8806315214,
				"z": -2.6113462179,
				"element": "C" 
			},
			{
				"x": -1.0744478275,
				"y": 1.7360939875,
				"z": -1.3648546347,
				"element": "C" 
			},
			{
				"x": -0.5456709458,
				"y": 0.6706028937,
				"z": -0.7001209422,
				"element": "C" 
			},
			{
				"x": 0.0892388641,
				"y": 1.2573856637,
				"z": 0.4340652149,
				"element": "C" 
			},
			{
				"x": -0.0406802099,
				"y": 2.5668968956,
				"z": 0.4498748028,
				"element": "N" 
			},
			{
				"x": -0.7715955724,
				"y": 2.87303558,
				"z": -0.6969163169,
				"element": "O" 
			},
			{
				"x": 0.756036913,
				"y": 0.5738811569,
				"z": 1.5942210002,
				"element": "C" 
			},
			{
				"x": 0.4357383968,
				"y": 0.8113381893,
				"z": 2.7475590219,
				"element": "O" 
			},
			{
				"x": 1.6840986684,
				"y": -0.4033059198,
				"z": 1.2964434748,
				"element": "N" 
			},
			{
				"x": 2.4019375669,
				"y": -0.6571852467,
				"z": 0.1000627564,
				"element": "C" 
			},
			{
				"x": 2.8411923482,
				"y": 0.3788012821,
				"z": -0.7361013098,
				"element": "C" 
			},
			{
				"x": 3.5590222349,
				"y": 0.0778615569,
				"z": -1.8933069367,
				"element": "C" 
			},
			{
				"x": 3.8742542516,
				"y": -1.2441343861,
				"z": -2.2126380316,
				"element": "C" 
			},
			{
				"x": 3.4590195811,
				"y": -2.2731464176,
				"z": -1.3649457702,
				"element": "C" 
			},
			{
				"x": 2.7188863296,
				"y": -1.9849564808,
				"z": -0.2196306105,
				"element": "C" 
			},
			{
				"x": -2.8484740265,
				"y": 2.3379444673,
				"z": -2.3992484463,
				"element": "H" 
			},
			{
				"x": -1.3607651455,
				"y": 2.5200588718,
				"z": -3.3353182814,
				"element": "H" 
			},
			{
				"x": -2.0433040837,
				"y": 0.9026731855,
				"z": -3.0667199053,
				"element": "H" 
			},
			{
				"x": -0.5992496234,
				"y": -0.3732100405,
				"z": -0.9661938761,
				"element": "H" 
			},
			{
				"x": 1.966641854,
				"y": -0.9189809121,
				"z": 2.1216315882,
				"element": "H" 
			},
			{
				"x": 2.6334606926,
				"y": 1.4102580419,
				"z": -0.4740431021,
				"element": "H" 
			},
			{
				"x": 3.8917833724,
				"y": 0.8874418579,
				"z": -2.5363370488,
				"element": "H" 
			},
			{
				"x": 4.4447640648,
				"y": -1.4696923097,
				"z": -3.108362271,
				"element": "H" 
			},
			{
				"x": 3.7023906065,
				"y": -3.3054854369,
				"z": -1.5987907594,
				"element": "H" 
			},
			{
				"x": 2.3773407208,
				"y": -2.7856080013,
				"z": 0.4308166016,
				"element": "H" 
			}
		],
		 "valence_orbital": [ 
			{
				"type": "occ",
				"energy": -0.29817,
				"method": "rhf"
			},
			{
				"type": "occ",
				"energy": -0.26686,
				"method": "rhf"
			},
			{
				"type": "occ",
				"energy": -0.26179,
				"method": "rhf"
			},
			{
				"type": "occ",
				"energy": -0.25609,
				"method": "rhf"
			},
			{
				"type": "occ",
				"energy": -0.23405,
				"method": "rhf"
			},
			{
				"type": "unocc",
				"energy": -0.03818,
				"method": "rhf"
			},
			{
				"type": "unocc",
				"energy": -0.0161,
				"method": "rhf"
			},
			{
				"type": "unocc",
				"energy": -0.00733,
				"method": "rhf"
			},
			{
				"type": "unocc",
				"energy": 0.01653,
				"method": "rhf"
			},
			{
				"type": "unocc",
				"energy": 0.07213,
				"method": "rhf"
			}
		],
		"cosmo_sigma_profile": { 
			"-0.025": 0.0,
			"-0.024": 0.0,
			"-0.023": 0.0,
			"-0.022": 0.0,
			"-0.021": 0.0,
			"-0.02": 0.0,
			"-0.019": 0.0,
			"-0.018": 0.0,
			"-0.017": 0.0,
			"-0.016": 0.0,
			"-0.015": 0.577285504491,
			"-0.014": 1.15037521078,
			"-0.013": 1.05595597701,
			"-0.012": 0.885039571704,
			"-0.011": 0.925711649375,
			"-0.01": 1.23316521489,
			"-0.009": 1.37133206596,
			"-0.008": 2.78389300577,
			"-0.007": 5.97448141527,
			"-0.006": 18.3313352262,
			"-0.005": 18.7334419122,
			"-0.004": 21.9939259458,
			"-0.003": 19.8730031234,
			"-0.002": 19.540721628,
			"-0.001": 14.666847375,
			"0.0": 15.5186611711,
			"0.001": 13.2539613439,
			"0.002": 12.3335216392,
			"0.003": 10.3586564473,
			"0.004": 11.9093299593,
			"0.005": 10.9698511184,
			"0.006": 4.89593953055,
			"0.007": 5.5002531509,
			"0.008": 4.67178022571,
			"0.009": 2.24265500245,
			"0.01": 3.8360388052,
			"0.011": 4.46974212146,
			"0.012": 7.43641007086,
			"0.013": 4.94706606348,
			"0.014": 0.860368607339,
			"0.015": 0.0,
			"0.016": 0.0,
			"0.017": 0.0,
			"0.018": 0.0,
			"0.019": 0.0,
			"0.02": 0.0,
			"0.021": 0.0,
			"0.022": 0.0,
			"0.023": 0.0,
			"0.024": 0.0,
			"0.025": 0.0
		}
	}
}
