{
	 "smiles": "O=C(CCC1=CC=CC=C1)CC#N", 
	 "Tm": 343.15, 
	 "num_atms": 24, 
	 "gaussian": { 
		 "optdone": 1, 
		 "sigma_profile": "yes", 
		 "theory": "DFT", 
		 "functional": "B3LYP", 
		 "basiset": "6-31G**", 
		 "properties": { 
			 "R2extent": 4690.7377, 
			 "electric_dipole_moment_norm": 5.70255163414, 
			 "electric_quadrupole_moment_norm": 30.2842472535, 
			 "total_energy": -555.756440716, 
			 "HOMO_LUMO_gap": 0.20932, 
			 "cosmo_polarized_energy": -17.58, 
			 "cosmo_cavitation_energy": 29.69, 
			 "cosmo_dispersion_energy": -20.43, 
			 "cosmo_repulsion_energy": 1.64, 
			 "cosmo_total_nonelectrostatic_energy": 10.9, 
			 "SMD_solvation_energy": 6.8 
		},
		"coords": [
			{
				"x": 1.0589662624,
				"y": 3.1034224613,
				"z": 0.5051478579,
				"element": "O" 
			},
			{
				"x": 0.5787651599,
				"y": 2.9966700296,
				"z": -0.600195795,
				"element": "C" 
			},
			{
				"x": -0.2468131894,
				"y": 1.7995488161,
				"z": -1.0423394703,
				"element": "C" 
			},
			{
				"x": -0.5007627101,
				"y": 0.7825598511,
				"z": 0.0820525454,
				"element": "C" 
			},
			{
				"x": -1.3066898283,
				"y": -0.4064822127,
				"z": -0.3960504581,
				"element": "C" 
			},
			{
				"x": -2.7072728335,
				"y": -0.3918118203,
				"z": -0.3452275716,
				"element": "C" 
			},
			{
				"x": -3.453249648,
				"y": -1.4728615123,
				"z": -0.8170341302,
				"element": "C" 
			},
			{
				"x": -2.8073971755,
				"y": -2.5904102092,
				"z": -1.3490235133,
				"element": "C" 
			},
			{
				"x": -1.4125958785,
				"y": -2.6194599353,
				"z": -1.4027222818,
				"element": "C" 
			},
			{
				"x": -0.6710116434,
				"y": -1.5360756524,
				"z": -0.9295098839,
				"element": "C" 
			},
			{
				"x": 0.7627239284,
				"y": 4.0910785614,
				"z": -1.6763385165,
				"element": "C" 
			},
			{
				"x": 1.6534122707,
				"y": 5.1739903967,
				"z": -1.2681821546,
				"element": "C" 
			},
			{
				"x": 2.3596006227,
				"y": 6.0425202786,
				"z": -0.9657512397,
				"element": "N" 
			},
			{
				"x": 0.2732357758,
				"y": 1.320198579,
				"z": -1.884380515,
				"element": "H" 
			},
			{
				"x": -1.1954719919,
				"y": 2.1608914716,
				"z": -1.4635469918,
				"element": "H" 
			},
			{
				"x": 0.4633440406,
				"y": 0.4554848452,
				"z": 0.4835728526,
				"element": "H" 
			},
			{
				"x": -1.0176542432,
				"y": 1.2875836842,
				"z": 0.9045198889,
				"element": "H" 
			},
			{
				"x": -3.2174529141,
				"y": 0.4716419643,
				"z": 0.076096452,
				"element": "H" 
			},
			{
				"x": -4.5380086808,
				"y": -1.4446729875,
				"z": -0.7635993311,
				"element": "H" 
			},
			{
				"x": -3.3860837252,
				"y": -3.4344074735,
				"z": -1.7129938068,
				"element": "H" 
			},
			{
				"x": -0.9010177891,
				"y": -3.4882992175,
				"z": -1.8073779447,
				"element": "H" 
			},
			{
				"x": 0.4156393714,
				"y": -1.5699585519,
				"z": -0.9662968476,
				"element": "H" 
			},
			{
				"x": 1.1391488764,
				"y": 3.6337901594,
				"z": -2.5999665992,
				"element": "H" 
			},
			{
				"x": -0.2235540572,
				"y": 4.5047584742,
				"z": -1.9244525455,
				"element": "H" 
			}
		],
		 "valence_orbital": [ 
			{
				"type": "occ",
				"energy": -0.33203,
				"method": "rhf"
			},
			{
				"type": "occ",
				"energy": -0.32882,
				"method": "rhf"
			},
			{
				"type": "occ",
				"energy": -0.27689,
				"method": "rhf"
			},
			{
				"type": "occ",
				"energy": -0.25644,
				"method": "rhf"
			},
			{
				"type": "occ",
				"energy": -0.24785,
				"method": "rhf"
			},
			{
				"type": "unocc",
				"energy": -0.03853,
				"method": "rhf"
			},
			{
				"type": "unocc",
				"energy": -0.00847,
				"method": "rhf"
			},
			{
				"type": "unocc",
				"energy": -0.00756,
				"method": "rhf"
			},
			{
				"type": "unocc",
				"energy": 0.02504,
				"method": "rhf"
			},
			{
				"type": "unocc",
				"energy": 0.0327,
				"method": "rhf"
			}
		],
		"cosmo_sigma_profile": { 
			"-0.025": 0.0,
			"-0.024": 0.0,
			"-0.023": 0.0,
			"-0.022": 0.0,
			"-0.021": 0.0,
			"-0.02": 0.0,
			"-0.019": 0.0,
			"-0.018": 0.0,
			"-0.017": 0.0,
			"-0.016": 0.0,
			"-0.015": 0.0,
			"-0.014": 0.0,
			"-0.013": 0.0,
			"-0.012": 0.0,
			"-0.011": 2.2278643646,
			"-0.01": 8.05347948531,
			"-0.009": 6.04789923774,
			"-0.008": 6.37925414281,
			"-0.007": 6.90210430499,
			"-0.006": 8.68808193825,
			"-0.005": 16.9403825581,
			"-0.004": 23.1234340481,
			"-0.003": 19.9487806021,
			"-0.002": 12.0999965119,
			"-0.001": 12.7595041605,
			"0.0": 11.2439199411,
			"0.001": 9.83535148864,
			"0.002": 9.10397090324,
			"0.003": 11.7730122226,
			"0.004": 10.3631529445,
			"0.005": 11.5514399725,
			"0.006": 12.0252790932,
			"0.007": 7.65645290887,
			"0.008": 6.15314213467,
			"0.009": 6.22777361934,
			"0.01": 6.99706919222,
			"0.011": 6.25153172335,
			"0.012": 2.71165888905,
			"0.013": 1.49380334964,
			"0.014": 0.0698079666261,
			"0.015": 0.0,
			"0.016": 0.0,
			"0.017": 0.0,
			"0.018": 0.0,
			"0.019": 0.0,
			"0.02": 0.0,
			"0.021": 0.0,
			"0.022": 0.0,
			"0.023": 0.0,
			"0.024": 0.0,
			"0.025": 0.0
		}
	}
}
