{
	 "smiles": "OC(=O)C1=C2C(Br)=CC=CC2=NC(=C1)C1=CC=CC=C1", 
	 "Tm": 509.15, 
	 "num_atms": 30, 
	 "gaussian": { 
		 "optdone": 1, 
		 "sigma_profile": "yes", 
		 "theory": "DFT", 
		 "functional": "B3LYP", 
		 "basiset": "6-31G**", 
		 "properties": { 
			 "R2extent": 8225.7239, 
			 "electric_dipole_moment_norm": 1.72859511454, 
			 "electric_quadrupole_moment_norm": 13.3547381625, 
			 "total_energy": -3392.34941181, 
			 "HOMO_LUMO_gap": 0.15208, 
			 "cosmo_polarized_energy": -12.85, 
			 "cosmo_cavitation_energy": 37.07, 
			 "cosmo_dispersion_energy": -27.1, 
			 "cosmo_repulsion_energy": 2.04, 
			 "cosmo_total_nonelectrostatic_energy": 12.0, 
			 "SMD_solvation_energy": 4.91 
		},
		"coords": [
			{
				"x": 0.7505244737,
				"y": -2.8514441477,
				"z": -1.648648822,
				"element": "O" 
			},
			{
				"x": 1.357225933,
				"y": -2.0045377348,
				"z": -0.7892489444,
				"element": "C" 
			},
			{
				"x": 2.5589727353,
				"y": -1.8950358736,
				"z": -0.6952356882,
				"element": "O" 
			},
			{
				"x": 0.3602435544,
				"y": -1.1158524626,
				"z": -0.0971687237,
				"element": "C" 
			},
			{
				"x": -0.7487053891,
				"y": -1.5533506005,
				"z": 0.6939632442,
				"element": "C" 
			},
			{
				"x": -0.9811227688,
				"y": -2.8541593533,
				"z": 1.2281925164,
				"element": "C" 
			},
			{
				"x": 0.3437740577,
				"y": -4.2378650707,
				"z": 1.1666287307,
				"element": "Br" 
			},
			{
				"x": -2.1396441245,
				"y": -3.1586969622,
				"z": 1.9107788942,
				"element": "C" 
			},
			{
				"x": -3.1245804184,
				"y": -2.1707220447,
				"z": 2.1264905262,
				"element": "C" 
			},
			{
				"x": -2.913104004,
				"y": -0.8820492049,
				"z": 1.7016961156,
				"element": "C" 
			},
			{
				"x": -1.7244473469,
				"y": -0.5387202821,
				"z": 1.0052885177,
				"element": "C" 
			},
			{
				"x": -1.5665360401,
				"y": 0.7719979195,
				"z": 0.6808885997,
				"element": "N" 
			},
			{
				"x": -0.4681847922,
				"y": 1.1670725749,
				"z": 0.0588908974,
				"element": "C" 
			},
			{
				"x": 0.5100855404,
				"y": 0.2251456287,
				"z": -0.3677432509,
				"element": "C" 
			},
			{
				"x": -0.319196596,
				"y": 2.6186188548,
				"z": -0.2210609784,
				"element": "C" 
			},
			{
				"x": 0.9291126815,
				"y": 3.1890032507,
				"z": -0.5196543505,
				"element": "C" 
			},
			{
				"x": 1.043305076,
				"y": 4.5550151432,
				"z": -0.7751375788,
				"element": "C" 
			},
			{
				"x": -0.0870382037,
				"y": 5.3727641498,
				"z": -0.7388550545,
				"element": "C" 
			},
			{
				"x": -1.3328964717,
				"y": 4.8164569494,
				"z": -0.4360217585,
				"element": "C" 
			},
			{
				"x": -1.4483384406,
				"y": 3.4540019627,
				"z": -0.1758463387,
				"element": "C" 
			},
			{
				"x": 1.4591338929,
				"y": -3.3715848081,
				"z": -2.0646786159,
				"element": "H" 
			},
			{
				"x": -2.2782890568,
				"y": -4.1586147653,
				"z": 2.3047977874,
				"element": "H" 
			},
			{
				"x": -4.0311670518,
				"y": -2.4352524562,
				"z": 2.6618868401,
				"element": "H" 
			},
			{
				"x": -3.6228158058,
				"y": -0.0851538457,
				"z": 1.8938100762,
				"element": "H" 
			},
			{
				"x": 1.3533301628,
				"y": 0.5433647527,
				"z": -0.9682786846,
				"element": "H" 
			},
			{
				"x": 1.8242951755,
				"y": 2.5752401859,
				"z": -0.5282989091,
				"element": "H" 
			},
			{
				"x": 2.0177294688,
				"y": 4.9803688861,
				"z": -0.9968600733,
				"element": "H" 
			},
			{
				"x": 0.0022526957,
				"y": 6.4362350324,
				"z": -0.9410513724,
				"element": "H" 
			},
			{
				"x": -2.2167384903,
				"y": 5.4471969402,
				"z": -0.4041759044,
				"element": "H" 
			},
			{
				"x": -2.4083804469,
				"y": 3.0119573814,
				"z": 0.0652523026,
				"element": "H" 
			}
		],
		 "valence_orbital": [ 
			{
				"type": "occ",
				"energy": -0.2789,
				"method": "rhf"
			},
			{
				"type": "occ",
				"energy": -0.26629,
				"method": "rhf"
			},
			{
				"type": "occ",
				"energy": -0.25531,
				"method": "rhf"
			},
			{
				"type": "occ",
				"energy": -0.24406,
				"method": "rhf"
			},
			{
				"type": "occ",
				"energy": -0.23022,
				"method": "rhf"
			},
			{
				"type": "unocc",
				"energy": -0.07814,
				"method": "rhf"
			},
			{
				"type": "unocc",
				"energy": -0.04457,
				"method": "rhf"
			},
			{
				"type": "unocc",
				"energy": -0.01676,
				"method": "rhf"
			},
			{
				"type": "unocc",
				"energy": -0.0054,
				"method": "rhf"
			},
			{
				"type": "unocc",
				"energy": 0.00113,
				"method": "rhf"
			}
		],
		"cosmo_sigma_profile": { 
			"-0.025": 0.0,
			"-0.024": 0.0,
			"-0.023": 0.0,
			"-0.022": 0.0,
			"-0.021": 0.0,
			"-0.02": 0.0,
			"-0.019": 0.290917585507,
			"-0.018": 0.927251275702,
			"-0.017": 0.839557225921,
			"-0.016": 0.751151212084,
			"-0.015": 1.04012012724,
			"-0.014": 0.613879369339,
			"-0.013": 0.323197143151,
			"-0.012": 0.64562500942,
			"-0.011": 0.763725749527,
			"-0.01": 0.652882901657,
			"-0.009": 1.24199424889,
			"-0.008": 4.34184499228,
			"-0.007": 7.96908370387,
			"-0.006": 15.9263845826,
			"-0.005": 17.0264034754,
			"-0.004": 19.4847619847,
			"-0.003": 16.4368401546,
			"-0.002": 16.974663402,
			"-0.001": 23.3239672091,
			"0.0": 26.0392448387,
			"0.001": 28.0618699213,
			"0.002": 27.5217711818,
			"0.003": 24.1298198079,
			"0.004": 22.7037419343,
			"0.005": 15.4890724496,
			"0.006": 5.60789800079,
			"0.007": 4.47696555645,
			"0.008": 4.19135661099,
			"0.009": 3.04713772423,
			"0.01": 3.74846214262,
			"0.011": 5.360609527,
			"0.012": 1.69464160581,
			"0.013": 0.00984319538399,
			"0.014": 0.0,
			"0.015": 0.0,
			"0.016": 0.0,
			"0.017": 0.0,
			"0.018": 0.0,
			"0.019": 0.0,
			"0.02": 0.0,
			"0.021": 0.0,
			"0.022": 0.0,
			"0.023": 0.0,
			"0.024": 0.0,
			"0.025": 0.0
		}
	}
}
