{
	 "smiles": "BrC1=CC=C(C=C1)C(=O)C1=CC=CC=C1", 
	 "Tm": 354.95, 
	 "num_atms": 24, 
	 "gaussian": { 
		 "optdone": 1, 
		 "sigma_profile": "yes", 
		 "theory": "DFT", 
		 "functional": "B3LYP", 
		 "basiset": "6-31G**", 
		 "properties": { 
			 "R2extent": 7488.5526, 
			 "electric_dipole_moment_norm": 2.79435085306, 
			 "electric_quadrupole_moment_norm": 7.18036712362, 
			 "total_energy": -3147.43761784, 
			 "HOMO_LUMO_gap": 0.1763, 
			 "cosmo_polarized_energy": -8.62, 
			 "cosmo_cavitation_energy": 30.98, 
			 "cosmo_dispersion_energy": -22.94, 
			 "cosmo_repulsion_energy": 1.78, 
			 "cosmo_total_nonelectrostatic_energy": 9.82, 
			 "SMD_solvation_energy": 4.5 
		},
		"coords": [
			{
				"x": -3.713419561,
				"y": -2.8012850195,
				"z": -3.2184124041,
				"element": "Br" 
			},
			{
				"x": -3.0040350771,
				"y": -1.55372144,
				"z": -1.960068255,
				"element": "C" 
			},
			{
				"x": -1.636316573,
				"y": -1.2855130413,
				"z": -1.9605767573,
				"element": "C" 
			},
			{
				"x": -1.120939584,
				"y": -0.3836301638,
				"z": -1.0297994622,
				"element": "C" 
			},
			{
				"x": -1.963828547,
				"y": 0.2576236991,
				"z": -0.1096199394,
				"element": "C" 
			},
			{
				"x": -3.3412630478,
				"y": -0.0107558919,
				"z": -0.1509606561,
				"element": "C" 
			},
			{
				"x": -3.8659167479,
				"y": -0.9221512591,
				"z": -1.0609446674,
				"element": "C" 
			},
			{
				"x": -1.4843885254,
				"y": 1.2937894219,
				"z": 0.8653918213,
				"element": "C" 
			},
			{
				"x": -2.2546091318,
				"y": 2.172008435,
				"z": 1.2387288183,
				"element": "O" 
			},
			{
				"x": -0.0768834841,
				"y": 1.2650062953,
				"z": 1.3820036344,
				"element": "C" 
			},
			{
				"x": 0.4880282729,
				"y": 2.4804296801,
				"z": 1.8017045173,
				"element": "C" 
			},
			{
				"x": 1.773358389,
				"y": 2.5147316765,
				"z": 2.3336860521,
				"element": "C" 
			},
			{
				"x": 2.5022281515,
				"y": 1.3300939704,
				"z": 2.4787074938,
				"element": "C" 
			},
			{
				"x": 1.9395089224,
				"y": 0.1132936994,
				"z": 2.0901999752,
				"element": "C" 
			},
			{
				"x": 0.6582517864,
				"y": 0.0792478839,
				"z": 1.5384224882,
				"element": "C" 
			},
			{
				"x": -0.985525316,
				"y": -1.7705839634,
				"z": -2.6789668761,
				"element": "H" 
			},
			{
				"x": -0.0591238501,
				"y": -0.1625685014,
				"z": -1.041607307,
				"element": "H" 
			},
			{
				"x": -3.9912778062,
				"y": 0.5118611577,
				"z": 0.5427880523,
				"element": "H" 
			},
			{
				"x": -4.9279395048,
				"y": -1.1384438491,
				"z": -1.0806366604,
				"element": "H" 
			},
			{
				"x": -0.1023210409,
				"y": 3.385193702,
				"z": 1.7020844575,
				"element": "H" 
			},
			{
				"x": 2.2070894397,
				"y": 3.4615134816,
				"z": 2.6420659284,
				"element": "H" 
			},
			{
				"x": 3.5031653884,
				"y": 1.3556011568,
				"z": 2.9000382239,
				"element": "H" 
			},
			{
				"x": 2.4956951702,
				"y": -0.8104969449,
				"z": 2.2198617548,
				"element": "H" 
			},
			{
				"x": 0.2198622766,
				"y": -0.8723441854,
				"z": 1.2567097676,
				"element": "H" 
			}
		],
		 "valence_orbital": [ 
			{
				"type": "occ",
				"energy": -0.27305,
				"method": "rhf"
			},
			{
				"type": "occ",
				"energy": -0.266,
				"method": "rhf"
			},
			{
				"type": "occ",
				"energy": -0.26365,
				"method": "rhf"
			},
			{
				"type": "occ",
				"energy": -0.25535,
				"method": "rhf"
			},
			{
				"type": "occ",
				"energy": -0.24711,
				"method": "rhf"
			},
			{
				"type": "unocc",
				"energy": -0.07081,
				"method": "rhf"
			},
			{
				"type": "unocc",
				"energy": -0.02535,
				"method": "rhf"
			},
			{
				"type": "unocc",
				"energy": -0.02003,
				"method": "rhf"
			},
			{
				"type": "unocc",
				"energy": -0.01194,
				"method": "rhf"
			},
			{
				"type": "unocc",
				"energy": 0.00175,
				"method": "rhf"
			}
		],
		"cosmo_sigma_profile": { 
			"-0.025": 0.0,
			"-0.024": 0.0,
			"-0.023": 0.0,
			"-0.022": 0.0,
			"-0.021": 0.0,
			"-0.02": 0.0,
			"-0.019": 0.0,
			"-0.018": 0.0,
			"-0.017": 0.0,
			"-0.016": 0.0,
			"-0.015": 0.0,
			"-0.014": 0.0,
			"-0.013": 0.0,
			"-0.012": 0.0,
			"-0.011": 0.0,
			"-0.01": 0.0,
			"-0.009": 0.0,
			"-0.008": 1.01635156869,
			"-0.007": 6.42140709536,
			"-0.006": 16.109871932,
			"-0.005": 18.6430046941,
			"-0.004": 20.6247521253,
			"-0.003": 17.5670568549,
			"-0.002": 17.3135236061,
			"-0.001": 17.4272206576,
			"0.0": 17.1958602592,
			"0.001": 23.6406014974,
			"0.002": 29.4813835645,
			"0.003": 21.1516884324,
			"0.004": 24.8726660814,
			"0.005": 5.16404082087,
			"0.006": 1.80034999527,
			"0.007": 1.73519236973,
			"0.008": 1.85915647051,
			"0.009": 1.43175445945,
			"0.01": 2.08010208902,
			"0.011": 3.30268179071,
			"0.012": 3.63359312342,
			"0.013": 0.470799491971,
			"0.014": 0.0,
			"0.015": 0.0,
			"0.016": 0.0,
			"0.017": 0.0,
			"0.018": 0.0,
			"0.019": 0.0,
			"0.02": 0.0,
			"0.021": 0.0,
			"0.022": 0.0,
			"0.023": 0.0,
			"0.024": 0.0,
			"0.025": 0.0
		}
	}
}
