{
	 "smiles": "NC(=S)CCN1C=CC=C(C1=O)C(F)(F)F", 
	 "Tm": 427.15, 
	 "num_atms": 25, 
	 "gaussian": { 
		 "optdone": 1, 
		 "sigma_profile": "yes", 
		 "theory": "DFT", 
		 "functional": "B3LYP", 
		 "basiset": "6-31G**", 
		 "properties": { 
			 "R2extent": 5892.7561, 
			 "electric_dipole_moment_norm": 5.93203594814, 
			 "electric_quadrupole_moment_norm": 28.4190438986, 
			 "total_energy": -1230.84089521, 
			 "HOMO_LUMO_gap": 0.12917, 
			 "cosmo_polarized_energy": -19.88, 
			 "cosmo_cavitation_energy": 31.84, 
			 "cosmo_dispersion_energy": -22.97, 
			 "cosmo_repulsion_energy": 1.69, 
			 "cosmo_total_nonelectrostatic_energy": 10.56, 
			 "SMD_solvation_energy": 5.88 
		},
		"coords": [
			{
				"x": 1.7702136848,
				"y": -1.8740987759,
				"z": 2.9094915684,
				"element": "N" 
			},
			{
				"x": 0.6639210672,
				"y": -1.2781132884,
				"z": 3.3801401994,
				"element": "C" 
			},
			{
				"x": 0.2621055368,
				"y": -1.189330631,
				"z": 4.9942284055,
				"element": "S" 
			},
			{
				"x": -0.2132524025,
				"y": -0.6928772594,
				"z": 2.2813629183,
				"element": "C" 
			},
			{
				"x": -0.8351685366,
				"y": -1.7947495961,
				"z": 1.3801920864,
				"element": "C" 
			},
			{
				"x": -0.8014994983,
				"y": -1.4439306029,
				"z": -0.0494517108,
				"element": "N" 
			},
			{
				"x": -1.9310570673,
				"y": -1.0537561898,
				"z": -0.7057843096,
				"element": "C" 
			},
			{
				"x": -1.9149432779,
				"y": -0.7259817924,
				"z": -2.0329038004,
				"element": "C" 
			},
			{
				"x": -0.6844301033,
				"y": -0.8026786267,
				"z": -2.7284084564,
				"element": "C" 
			},
			{
				"x": 0.4625084094,
				"y": -1.191670451,
				"z": -2.0862496871,
				"element": "C" 
			},
			{
				"x": 0.4630013319,
				"y": -1.5306118323,
				"z": -0.6773070356,
				"element": "C" 
			},
			{
				"x": 1.4544086364,
				"y": -1.8742857005,
				"z": -0.0232916966,
				"element": "O" 
			},
			{
				"x": 1.7784428292,
				"y": -1.2767751384,
				"z": -2.8134277983,
				"element": "C" 
			},
			{
				"x": 2.2895645411,
				"y": -2.5223036191,
				"z": -2.7824416878,
				"element": "F" 
			},
			{
				"x": 1.6328879709,
				"y": -0.9359622915,
				"z": -4.1173750579,
				"element": "F" 
			},
			{
				"x": 2.698248945,
				"y": -0.4461656663,
				"z": -2.2857830567,
				"element": "F" 
			},
			{
				"x": 1.9397701767,
				"y": -1.9320484568,
				"z": 1.9062337067,
				"element": "H" 
			},
			{
				"x": 2.403219398,
				"y": -2.3145707092,
				"z": 3.5608859708,
				"element": "H" 
			},
			{
				"x": 0.4083407954,
				"y": -0.0389737245,
				"z": 1.6605265268,
				"element": "H" 
			},
			{
				"x": -0.9935559056,
				"y": -0.084786193,
				"z": 2.7376561136,
				"element": "H" 
			},
			{
				"x": -0.2860789929,
				"y": -2.7310456864,
				"z": 1.490116893,
				"element": "H" 
			},
			{
				"x": -1.8760445346,
				"y": -1.9773088354,
				"z": 1.6520432747,
				"element": "H" 
			},
			{
				"x": -2.8349903579,
				"y": -1.0246069856,
				"z": -0.107403269,
				"element": "H" 
			},
			{
				"x": -2.8273012702,
				"y": -0.4212070482,
				"z": -2.5289065532,
				"element": "H" 
			},
			{
				"x": -0.6408113757,
				"y": -0.5520608991,
				"z": -3.7827435441,
				"element": "H" 
			}
		],
		 "valence_orbital": [ 
			{
				"type": "occ",
				"energy": -0.32535,
				"method": "rhf"
			},
			{
				"type": "occ",
				"energy": -0.28737,
				"method": "rhf"
			},
			{
				"type": "occ",
				"energy": -0.25148,
				"method": "rhf"
			},
			{
				"type": "occ",
				"energy": -0.2262,
				"method": "rhf"
			},
			{
				"type": "occ",
				"energy": -0.20293,
				"method": "rhf"
			},
			{
				"type": "unocc",
				"energy": -0.07376,
				"method": "rhf"
			},
			{
				"type": "unocc",
				"energy": -0.02876,
				"method": "rhf"
			},
			{
				"type": "unocc",
				"energy": -0.02107,
				"method": "rhf"
			},
			{
				"type": "unocc",
				"energy": 0.05409,
				"method": "rhf"
			},
			{
				"type": "unocc",
				"energy": 0.07693,
				"method": "rhf"
			}
		],
		"cosmo_sigma_profile": { 
			"-0.025": 0.0,
			"-0.024": 0.0,
			"-0.023": 0.0,
			"-0.022": 0.0,
			"-0.021": 0.0,
			"-0.02": 0.0,
			"-0.019": 0.0,
			"-0.018": 0.0,
			"-0.017": 0.0,
			"-0.016": 0.0,
			"-0.015": 0.260174057856,
			"-0.014": 1.25689483377,
			"-0.013": 1.27405997863,
			"-0.012": 1.05702486895,
			"-0.011": 2.86626344952,
			"-0.01": 4.72148550066,
			"-0.009": 4.91588963336,
			"-0.008": 7.76189177496,
			"-0.007": 10.0264437809,
			"-0.006": 14.344549613,
			"-0.005": 14.4334617988,
			"-0.004": 14.7098950886,
			"-0.003": 16.7434684334,
			"-0.002": 14.2667790322,
			"-0.001": 12.4713033753,
			"0.0": 15.2818179367,
			"0.001": 12.6781069986,
			"0.002": 19.2692836059,
			"0.003": 28.8092354273,
			"0.004": 7.98279164885,
			"0.005": 6.76671324043,
			"0.006": 5.40575940164,
			"0.007": 6.12244066184,
			"0.008": 6.39720215092,
			"0.009": 8.40135335339,
			"0.01": 7.80861729835,
			"0.011": 6.08430345952,
			"0.012": 3.89690874717,
			"0.013": 1.09290509558,
			"0.014": 0.0,
			"0.015": 0.0,
			"0.016": 0.0,
			"0.017": 0.0,
			"0.018": 0.0,
			"0.019": 0.0,
			"0.02": 0.0,
			"0.021": 0.0,
			"0.022": 0.0,
			"0.023": 0.0,
			"0.024": 0.0,
			"0.025": 0.0
		}
	}
}
