{
	 "smiles": "NC1=NN=C(N1)C1=C(Cl)C=CC=C1", 
	 "Tm": 492.15, 
	 "num_atms": 20, 
	 "gaussian": { 
		 "optdone": 1, 
		 "sigma_profile": "yes", 
		 "theory": "DFT", 
		 "functional": "B3LYP", 
		 "basiset": "6-31G**", 
		 "properties": { 
			 "R2extent": 3556.3737, 
			 "electric_dipole_moment_norm": 3.50255859908, 
			 "electric_quadrupole_moment_norm": 28.4563527681, 
			 "total_energy": -988.255192604, 
			 "HOMO_LUMO_gap": 0.17051, 
			 "cosmo_polarized_energy": -18.7, 
			 "cosmo_cavitation_energy": 26.12, 
			 "cosmo_dispersion_energy": -19.94, 
			 "cosmo_repulsion_energy": 1.57, 
			 "cosmo_total_nonelectrostatic_energy": 7.75, 
			 "SMD_solvation_energy": 2.03 
		},
		"coords": [
			{
				"x": -4.6606990734,
				"y": -0.106963066,
				"z": 2.8132796026,
				"element": "N" 
			},
			{
				"x": -3.3537227093,
				"y": 0.2205728375,
				"z": 2.4876845823,
				"element": "C" 
			},
			{
				"x": -2.4319521979,
				"y": 0.6559854486,
				"z": 3.3220754907,
				"element": "N" 
			},
			{
				"x": -1.2632797527,
				"y": 0.766651196,
				"z": 2.6070540875,
				"element": "N" 
			},
			{
				"x": -1.4990840202,
				"y": 0.4132683677,
				"z": 1.3583490256,
				"element": "C" 
			},
			{
				"x": -2.8281049945,
				"y": 0.0529736827,
				"z": 1.2395063486,
				"element": "N" 
			},
			{
				"x": -0.4753425583,
				"y": 0.4301753173,
				"z": 0.3073799929,
				"element": "C" 
			},
			{
				"x": -0.6371697753,
				"y": 0.0753184651,
				"z": -1.0438326834,
				"element": "C" 
			},
			{
				"x": -2.1913193186,
				"y": -0.4716020617,
				"z": -1.7049403444,
				"element": "Cl" 
			},
			{
				"x": 0.4187061152,
				"y": 0.1307170852,
				"z": -1.9551219529,
				"element": "C" 
			},
			{
				"x": 1.6777720671,
				"y": 0.5465257966,
				"z": -1.5345638196,
				"element": "C" 
			},
			{
				"x": 1.8724457055,
				"y": 0.905713696,
				"z": -0.1979104389,
				"element": "C" 
			},
			{
				"x": 0.8164420085,
				"y": 0.8470627341,
				"z": 0.6990688129,
				"element": "C" 
			},
			{
				"x": -4.8441539426,
				"y": 0.1253791831,
				"z": 3.7826527461,
				"element": "H" 
			},
			{
				"x": -5.3598153471,
				"y": 0.3076613336,
				"z": 2.2069804849,
				"element": "H" 
			},
			{
				"x": -3.2776023802,
				"y": -0.3293224354,
				"z": 0.4216466575,
				"element": "H" 
			},
			{
				"x": 0.2417565777,
				"y": -0.1537189399,
				"z": -2.9862900758,
				"element": "H" 
			},
			{
				"x": 2.4963023539,
				"y": 0.5878347449,
				"z": -2.2463477316,
				"element": "H" 
			},
			{
				"x": 2.8493742698,
				"y": 1.2319331364,
				"z": 0.1450558375,
				"element": "H" 
			},
			{
				"x": 0.9496469725,
				"y": 1.1213334784,
				"z": 1.7393733773,
				"element": "H" 
			}
		],
		 "valence_orbital": [ 
			{
				"type": "occ",
				"energy": -0.29945,
				"method": "rhf"
			},
			{
				"type": "occ",
				"energy": -0.27861,
				"method": "rhf"
			},
			{
				"type": "occ",
				"energy": -0.25754,
				"method": "rhf"
			},
			{
				"type": "occ",
				"energy": -0.2495,
				"method": "rhf"
			},
			{
				"type": "occ",
				"energy": -0.21194,
				"method": "rhf"
			},
			{
				"type": "unocc",
				"energy": -0.04143,
				"method": "rhf"
			},
			{
				"type": "unocc",
				"energy": -0.01691,
				"method": "rhf"
			},
			{
				"type": "unocc",
				"energy": 0.01201,
				"method": "rhf"
			},
			{
				"type": "unocc",
				"energy": 0.04804,
				"method": "rhf"
			},
			{
				"type": "unocc",
				"energy": 0.0665,
				"method": "rhf"
			}
		],
		"cosmo_sigma_profile": { 
			"-0.025": 0.0,
			"-0.024": 0.0,
			"-0.023": 0.0,
			"-0.022": 0.0,
			"-0.021": 0.0,
			"-0.02": 0.0,
			"-0.019": 0.0,
			"-0.018": 0.0,
			"-0.017": 0.0,
			"-0.016": 0.123283868599,
			"-0.015": 1.04425219345,
			"-0.014": 3.4017947938,
			"-0.013": 2.99435939161,
			"-0.012": 3.86630170932,
			"-0.011": 3.39427481748,
			"-0.01": 2.47417619465,
			"-0.009": 2.88782649181,
			"-0.008": 3.41959056604,
			"-0.007": 6.57383044874,
			"-0.006": 9.52648317364,
			"-0.005": 10.9751389478,
			"-0.004": 10.8937702994,
			"-0.003": 10.2080393693,
			"-0.002": 10.6163822624,
			"-0.001": 12.461672327,
			"0.0": 15.0983984084,
			"0.001": 17.4296912051,
			"0.002": 18.1220975937,
			"0.003": 20.504607115,
			"0.004": 12.1767058369,
			"0.005": 2.88804615692,
			"0.006": 2.50646733525,
			"0.007": 2.42759366941,
			"0.008": 2.04909563464,
			"0.009": 2.80818616952,
			"0.01": 3.53772052822,
			"0.011": 1.67769848982,
			"0.012": 3.69050871767,
			"0.013": 2.76821223448,
			"0.014": 4.11297762346,
			"0.015": 2.26461211127,
			"0.016": 2.03103696431,
			"0.017": 0.999998785598,
			"0.018": 0.048620447252,
			"0.019": 0.0,
			"0.02": 0.0,
			"0.021": 0.0,
			"0.022": 0.0,
			"0.023": 0.0,
			"0.024": 0.0,
			"0.025": 0.0
		}
	}
}
