{
	 "smiles": "CC1=CC(O)=NO1", 
	 "Tm": 359.65, 
	 "num_atms": 12, 
	 "gaussian": { 
		 "optdone": 1, 
		 "sigma_profile": "yes", 
		 "theory": "DFT", 
		 "functional": "B3LYP", 
		 "basiset": "6-31G**", 
		 "properties": { 
			 "R2extent": 1208.7285, 
			 "electric_dipole_moment_norm": 1.95742596284, 
			 "electric_quadrupole_moment_norm": 7.05991283799, 
			 "total_energy": -360.58372578, 
			 "HOMO_LUMO_gap": 0.2472, 
			 "cosmo_polarized_energy": -9.47, 
			 "cosmo_cavitation_energy": 16.44, 
			 "cosmo_dispersion_energy": -12.5, 
			 "cosmo_repulsion_energy": 1.07, 
			 "cosmo_total_nonelectrostatic_energy": 5.01, 
			 "SMD_solvation_energy": 3.65 
		},
		"coords": [
			{
				"x": -0.9562158957,
				"y": 0.5088803289,
				"z": -1.3754798255,
				"element": "C" 
			},
			{
				"x": 0.3644986475,
				"y": -0.0936161395,
				"z": -1.0418940024,
				"element": "C" 
			},
			{
				"x": 1.4361638663,
				"y": 0.340939665,
				"z": -0.3212109892,
				"element": "C" 
			},
			{
				"x": 2.3513940825,
				"y": -0.745737821,
				"z": -0.4161302186,
				"element": "C" 
			},
			{
				"x": 3.5731965256,
				"y": -0.7789638448,
				"z": 0.1479383761,
				"element": "O" 
			},
			{
				"x": 1.8876238193,
				"y": -1.7486934939,
				"z": -1.1251669718,
				"element": "N" 
			},
			{
				"x": 0.6072540452,
				"y": -1.3307467676,
				"z": -1.5295447135,
				"element": "O" 
			},
			{
				"x": -1.7746649503,
				"y": -0.1135878259,
				"z": -0.9990130071,
				"element": "H" 
			},
			{
				"x": -1.0405255684,
				"y": 1.5024900706,
				"z": -0.9312133078,
				"element": "H" 
			},
			{
				"x": -1.0809390149,
				"y": 0.5983757027,
				"z": -2.4596802151,
				"element": "H" 
			},
			{
				"x": 1.5681110778,
				"y": 1.2767683549,
				"z": 0.1975506189,
				"element": "H" 
			},
			{
				"x": 3.9753033651,
				"y": -1.6322082294,
				"z": -0.0768557441,
				"element": "H" 
			}
		],
		 "valence_orbital": [ 
			{
				"type": "occ",
				"energy": -0.38595,
				"method": "rhf"
			},
			{
				"type": "occ",
				"energy": -0.36931,
				"method": "rhf"
			},
			{
				"type": "occ",
				"energy": -0.30412,
				"method": "rhf"
			},
			{
				"type": "occ",
				"energy": -0.26206,
				"method": "rhf"
			},
			{
				"type": "occ",
				"energy": -0.24857,
				"method": "rhf"
			},
			{
				"type": "unocc",
				"energy": -0.00137,
				"method": "rhf"
			},
			{
				"type": "unocc",
				"energy": 0.05849,
				"method": "rhf"
			},
			{
				"type": "unocc",
				"energy": 0.08438,
				"method": "rhf"
			},
			{
				"type": "unocc",
				"energy": 0.10049,
				"method": "rhf"
			},
			{
				"type": "unocc",
				"energy": 0.12336,
				"method": "rhf"
			}
		],
		"cosmo_sigma_profile": { 
			"-0.025": 0.0,
			"-0.024": 0.0,
			"-0.023": 0.0,
			"-0.022": 0.0,
			"-0.021": 0.0,
			"-0.02": 0.0,
			"-0.019": 0.235255491297,
			"-0.018": 0.784237810329,
			"-0.017": 0.9719881142,
			"-0.016": 0.582794491858,
			"-0.015": 1.4427087122,
			"-0.014": 0.40198672236,
			"-0.013": 0.356753594272,
			"-0.012": 0.358767842128,
			"-0.011": 1.02974494167,
			"-0.01": 1.06902792378,
			"-0.009": 0.723181067751,
			"-0.008": 2.28241164927,
			"-0.007": 2.77650663411,
			"-0.006": 8.95594290713,
			"-0.005": 8.17855314501,
			"-0.004": 9.33988420689,
			"-0.003": 8.18362596741,
			"-0.002": 11.1814388931,
			"-0.001": 7.9125909277,
			"0.0": 4.98191871922,
			"0.001": 9.34364236405,
			"0.002": 8.64005534951,
			"0.003": 6.60497609942,
			"0.004": 3.50642997247,
			"0.005": 3.54060031429,
			"0.006": 2.35377815425,
			"0.007": 3.74376881549,
			"0.008": 6.6034145263,
			"0.009": 5.76566857338,
			"0.01": 2.98289729103,
			"0.011": 1.68372266092,
			"0.012": 1.33577401472,
			"0.013": 1.73176292646,
			"0.014": 1.01840020735,
			"0.015": 0.345447328709,
			"0.016": 0.0,
			"0.017": 0.0,
			"0.018": 0.0,
			"0.019": 0.0,
			"0.02": 0.0,
			"0.021": 0.0,
			"0.022": 0.0,
			"0.023": 0.0,
			"0.024": 0.0,
			"0.025": 0.0
		}
	}
}
