{
	 "smiles": "CC(C)(C)OC(=O)N1CCCC(C1)N1C=C(C=N1)C(O)=O", 
	 "Tm": 440.15, 
	 "num_atms": 42, 
	 "gaussian": { 
		 "optdone": 1, 
		 "sigma_profile": "yes", 
		 "theory": "DFT", 
		 "functional": "B3LYP", 
		 "basiset": "6-31G**", 
		 "properties": { 
			 "R2extent": 9276.6042, 
			 "electric_dipole_moment_norm": 4.68463529103, 
			 "electric_quadrupole_moment_norm": 48.474789698, 
			 "total_energy": -1011.32179752, 
			 "HOMO_LUMO_gap": 0.21075, 
			 "cosmo_polarized_energy": -24.32, 
			 "cosmo_cavitation_energy": 43.85, 
			 "cosmo_dispersion_energy": -30.09, 
			 "cosmo_repulsion_energy": 2.32, 
			 "cosmo_total_nonelectrostatic_energy": 16.08, 
			 "SMD_solvation_energy": 8.61 
		},
		"coords": [
			{
				"x": -4.6362996479,
				"y": 1.0389919272,
				"z": 0.7603632187,
				"element": "C" 
			},
			{
				"x": -3.7073840894,
				"y": 1.3324533198,
				"z": -0.4226162586,
				"element": "C" 
			},
			{
				"x": -3.2384423634,
				"y": 2.7897558801,
				"z": -0.3952578245,
				"element": "C" 
			},
			{
				"x": -4.3570964939,
				"y": 0.9973429472,
				"z": -1.7692774757,
				"element": "C" 
			},
			{
				"x": -2.4456172779,
				"y": 0.5890112466,
				"z": -0.2703054606,
				"element": "O" 
			},
			{
				"x": -2.4360156597,
				"y": -0.7684653057,
				"z": -0.2711126313,
				"element": "C" 
			},
			{
				"x": -3.4227119508,
				"y": -1.4873564017,
				"z": -0.3431836865,
				"element": "O" 
			},
			{
				"x": -1.1605981151,
				"y": -1.2627764242,
				"z": -0.1717875423,
				"element": "N" 
			},
			{
				"x": -0.9891592114,
				"y": -2.7213240047,
				"z": -0.0979903374,
				"element": "C" 
			},
			{
				"x": 0.3375594431,
				"y": -3.0625101241,
				"z": 0.6013072312,
				"element": "C" 
			},
			{
				"x": 0.5927114223,
				"y": -2.1051913224,
				"z": 1.771988873,
				"element": "C" 
			},
			{
				"x": 0.7180711148,
				"y": -0.6345756505,
				"z": 1.2888486463,
				"element": "C" 
			},
			{
				"x": 0.0430876292,
				"y": -0.4508842937,
				"z": -0.0935230793,
				"element": "C" 
			},
			{
				"x": 2.1142171595,
				"y": -0.1932560256,
				"z": 1.213705131,
				"element": "N" 
			},
			{
				"x": 2.6923783169,
				"y": 0.8523045844,
				"z": 1.8481242915,
				"element": "C" 
			},
			{
				"x": 4.0265586055,
				"y": 0.8811653156,
				"z": 1.4513854131,
				"element": "C" 
			},
			{
				"x": 4.1400158468,
				"y": -0.2110436532,
				"z": 0.5557978835,
				"element": "C" 
			},
			{
				"x": 2.9903049228,
				"y": -0.8582401763,
				"z": 0.416948726,
				"element": "N" 
			},
			{
				"x": 5.1253211663,
				"y": 1.8017149718,
				"z": 1.7985435616,
				"element": "C" 
			},
			{
				"x": 4.8943247186,
				"y": 2.6857425571,
				"z": 2.8126432181,
				"element": "O" 
			},
			{
				"x": 6.1927491218,
				"y": 1.8040095626,
				"z": 1.2311202651,
				"element": "O" 
			},
			{
				"x": -5.5213178789,
				"y": 1.6808231898,
				"z": 0.700587386,
				"element": "H" 
			},
			{
				"x": -4.1267424157,
				"y": 1.252677227,
				"z": 1.7056386767,
				"element": "H" 
			},
			{
				"x": -4.9538884706,
				"y": -0.0036308357,
				"z": 0.7565748794,
				"element": "H" 
			},
			{
				"x": -2.7347534271,
				"y": 3.0168436408,
				"z": 0.5491869151,
				"element": "H" 
			},
			{
				"x": -2.5421222494,
				"y": 2.9882159602,
				"z": -1.2153706089,
				"element": "H" 
			},
			{
				"x": -4.095154382,
				"y": 3.4620258097,
				"z": -0.4991960634,
				"element": "H" 
			},
			{
				"x": -5.2304404334,
				"y": 1.639041237,
				"z": -1.9247330473,
				"element": "H" 
			},
			{
				"x": -3.6524006043,
				"y": 1.180073306,
				"z": -2.5868066844,
				"element": "H" 
			},
			{
				"x": -4.6746901027,
				"y": -0.0448824586,
				"z": -1.8011578663,
				"element": "H" 
			},
			{
				"x": -1.838573328,
				"y": -3.1223498878,
				"z": 0.4605161073,
				"element": "H" 
			},
			{
				"x": -1.0273944391,
				"y": -3.1654159203,
				"z": -1.1018769433,
				"element": "H" 
			},
			{
				"x": 1.1781375811,
				"y": -3.0057107072,
				"z": -0.097465732,
				"element": "H" 
			},
			{
				"x": 0.2930311572,
				"y": -4.0967171619,
				"z": 0.9571634905,
				"element": "H" 
			},
			{
				"x": 1.498316966,
				"y": -2.3864908314,
				"z": 2.3160979954,
				"element": "H" 
			},
			{
				"x": -0.2419867492,
				"y": -2.1674375014,
				"z": 2.4798372445,
				"element": "H" 
			},
			{
				"x": 0.2416761452,
				"y": 0.0304210661,
				"z": 2.0149313055,
				"element": "H" 
			},
			{
				"x": 0.7542109415,
				"y": -0.7608313805,
				"z": -0.8675871046,
				"element": "H" 
			},
			{
				"x": -0.2118131184,
				"y": 0.591840242,
				"z": -0.267228481,
				"element": "H" 
			},
			{
				"x": 2.1136108459,
				"y": 1.4904722932,
				"z": 2.5022485422,
				"element": "H" 
			},
			{
				"x": 5.0262462884,
				"y": -0.5292407719,
				"z": 0.0251472495,
				"element": "H" 
			},
			{
				"x": 4.0510730157,
				"y": 2.4944045544,
				"z": 3.2445705763,
				"element": "H" 
			}
		],
		 "valence_orbital": [ 
			{
				"type": "occ",
				"energy": -0.27866,
				"method": "rhf"
			},
			{
				"type": "occ",
				"energy": -0.27346,
				"method": "rhf"
			},
			{
				"type": "occ",
				"energy": -0.26823,
				"method": "rhf"
			},
			{
				"type": "occ",
				"energy": -0.26304,
				"method": "rhf"
			},
			{
				"type": "occ",
				"energy": -0.24065,
				"method": "rhf"
			},
			{
				"type": "unocc",
				"energy": -0.0299,
				"method": "rhf"
			},
			{
				"type": "unocc",
				"energy": 0.00251,
				"method": "rhf"
			},
			{
				"type": "unocc",
				"energy": 0.04853,
				"method": "rhf"
			},
			{
				"type": "unocc",
				"energy": 0.04953,
				"method": "rhf"
			},
			{
				"type": "unocc",
				"energy": 0.06142,
				"method": "rhf"
			}
		],
		"cosmo_sigma_profile": { 
			"-0.025": 0.0,
			"-0.024": 0.0,
			"-0.023": 0.0,
			"-0.022": 0.0,
			"-0.021": 0.0,
			"-0.02": 0.0,
			"-0.019": 0.694885636337,
			"-0.018": 1.22875488432,
			"-0.017": 1.28834465443,
			"-0.016": 0.993889532237,
			"-0.015": 0.872830688814,
			"-0.014": 0.78386826596,
			"-0.013": 1.51459502359,
			"-0.012": 1.05007158423,
			"-0.011": 2.83518958863,
			"-0.01": 3.58231461012,
			"-0.009": 2.03049089454,
			"-0.008": 3.61761722948,
			"-0.007": 5.43437693696,
			"-0.006": 6.15003213557,
			"-0.005": 7.59375894045,
			"-0.004": 29.0757933652,
			"-0.003": 39.3440328147,
			"-0.002": 36.5979006419,
			"-0.001": 32.9668751538,
			"0.0": 35.4617391553,
			"0.001": 32.9291744657,
			"0.002": 17.1861874176,
			"0.003": 9.99897064096,
			"0.004": 9.69740090942,
			"0.005": 6.99815509168,
			"0.006": 7.19642785387,
			"0.007": 4.73454857191,
			"0.008": 5.89421755281,
			"0.009": 5.91652835476,
			"0.01": 5.97706487038,
			"0.011": 8.24236601818,
			"0.012": 7.90306801704,
			"0.013": 5.32261646045,
			"0.014": 2.46299172734,
			"0.015": 0.0204606822527,
			"0.016": 0.0,
			"0.017": 0.0,
			"0.018": 0.0,
			"0.019": 0.0,
			"0.02": 0.0,
			"0.021": 0.0,
			"0.022": 0.0,
			"0.023": 0.0,
			"0.024": 0.0,
			"0.025": 0.0
		}
	}
}
