{
	 "smiles": "ClCC1=NC(=NO1)C1=CC=C(OCC2=CC=C(Cl)C=C2)C=C1", 
	 "Tm": 391.15, 
	 "num_atms": 34, 
	 "gaussian": { 
		 "optdone": 1, 
		 "sigma_profile": "yes", 
		 "theory": "DFT", 
		 "functional": "B3LYP", 
		 "basiset": "6-31G**", 
		 "properties": { 
			 "R2extent": 15201.2883, 
			 "electric_dipole_moment_norm": 2.02254670651, 
			 "electric_quadrupole_moment_norm": 26.5162619947, 
			 "total_energy": -1797.22845886, 
			 "HOMO_LUMO_gap": 0.17007, 
			 "cosmo_polarized_energy": -13.57, 
			 "cosmo_cavitation_energy": 43.66, 
			 "cosmo_dispersion_energy": -31.45, 
			 "cosmo_repulsion_energy": 2.42, 
			 "cosmo_total_nonelectrostatic_energy": 14.63, 
			 "SMD_solvation_energy": 5.21 
		},
		"coords": [
			{
				"x": -5.6461388689,
				"y": -0.6309729753,
				"z": 5.8458713555,
				"element": "Cl" 
			},
			{
				"x": -4.6698810598,
				"y": -1.8487348985,
				"z": 4.9151748905,
				"element": "C" 
			},
			{
				"x": -3.66458811,
				"y": -1.1940087794,
				"z": 4.0377742041,
				"element": "C" 
			},
			{
				"x": -3.7408041967,
				"y": -0.986970643,
				"z": 2.7586354725,
				"element": "N" 
			},
			{
				"x": -2.5381314693,
				"y": -0.3555602618,
				"z": 2.4879470128,
				"element": "C" 
			},
			{
				"x": -1.7725526648,
				"y": -0.1893988523,
				"z": 3.5479770341,
				"element": "N" 
			},
			{
				"x": -2.5236077283,
				"y": -0.753136287,
				"z": 4.5891827452,
				"element": "O" 
			},
			{
				"x": -2.1549560968,
				"y": 0.0841516397,
				"z": 1.1444912985,
				"element": "C" 
			},
			{
				"x": -0.9190887127,
				"y": 0.7025701309,
				"z": 0.9119928452,
				"element": "C" 
			},
			{
				"x": -0.5560669341,
				"y": 1.1206807178,
				"z": -0.3655278885,
				"element": "C" 
			},
			{
				"x": -1.4414345717,
				"y": 0.9248760167,
				"z": -1.4350551324,
				"element": "C" 
			},
			{
				"x": -1.2022126776,
				"y": 1.3034864724,
				"z": -2.7261516388,
				"element": "O" 
			},
			{
				"x": -0.0387463921,
				"y": 2.0712109446,
				"z": -3.0294680204,
				"element": "C" 
			},
			{
				"x": 1.2353406548,
				"y": 1.253699552,
				"z": -3.1194563846,
				"element": "C" 
			},
			{
				"x": 1.204277057,
				"y": -0.0799040703,
				"z": -3.541957022,
				"element": "C" 
			},
			{
				"x": 2.3816477356,
				"y": -0.8142300145,
				"z": -3.6759125416,
				"element": "C" 
			},
			{
				"x": 3.602322316,
				"y": -0.2018911895,
				"z": -3.3917878043,
				"element": "C" 
			},
			{
				"x": 5.0912355316,
				"y": -1.1203181301,
				"z": -3.5603560337,
				"element": "Cl" 
			},
			{
				"x": 3.659637693,
				"y": 1.1260139668,
				"z": -2.9716140575,
				"element": "C" 
			},
			{
				"x": 2.4714072744,
				"y": 1.844074724,
				"z": -2.8344413831,
				"element": "C" 
			},
			{
				"x": -2.6785348636,
				"y": 0.3018411031,
				"z": -1.2119786415,
				"element": "C" 
			},
			{
				"x": -3.0304644752,
				"y": -0.1135270393,
				"z": 0.0636105946,
				"element": "C" 
			},
			{
				"x": -5.3637541912,
				"y": -2.4202538606,
				"z": 4.301970371,
				"element": "H" 
			},
			{
				"x": -4.1873663201,
				"y": -2.4911010376,
				"z": 5.6515774533,
				"element": "H" 
			},
			{
				"x": -0.2337198921,
				"y": 0.8512907313,
				"z": 1.7399523298,
				"element": "H" 
			},
			{
				"x": 0.4158316127,
				"y": 1.5722128656,
				"z": -0.520080702,
				"element": "H" 
			},
			{
				"x": 0.0776266298,
				"y": 2.8929874102,
				"z": -2.311189842,
				"element": "H" 
			},
			{
				"x": -0.2654374907,
				"y": 2.5184738923,
				"z": -4.0034149117,
				"element": "H" 
			},
			{
				"x": 0.2495260337,
				"y": -0.5483997317,
				"z": -3.7581846102,
				"element": "H" 
			},
			{
				"x": 2.3554786037,
				"y": -1.8494264534,
				"z": -3.9978202022,
				"element": "H" 
			},
			{
				"x": 4.615761212,
				"y": 1.5859989295,
				"z": -2.7479823386,
				"element": "H" 
			},
			{
				"x": 2.5143652426,
				"y": 2.8779285776,
				"z": -2.4996329189,
				"element": "H" 
			},
			{
				"x": -3.3481143547,
				"y": 0.1621297617,
				"z": -2.0540660286,
				"element": "H" 
			},
			{
				"x": -3.9881565261,
				"y": -0.5911932115,
				"z": 0.2391204956,
				"element": "H" 
			}
		],
		 "valence_orbital": [ 
			{
				"type": "occ",
				"energy": -0.29566,
				"method": "rhf"
			},
			{
				"type": "occ",
				"energy": -0.27162,
				"method": "rhf"
			},
			{
				"type": "occ",
				"energy": -0.2636,
				"method": "rhf"
			},
			{
				"type": "occ",
				"energy": -0.24968,
				"method": "rhf"
			},
			{
				"type": "occ",
				"energy": -0.22697,
				"method": "rhf"
			},
			{
				"type": "unocc",
				"energy": -0.0569,
				"method": "rhf"
			},
			{
				"type": "unocc",
				"energy": -0.02932,
				"method": "rhf"
			},
			{
				"type": "unocc",
				"energy": -0.02446,
				"method": "rhf"
			},
			{
				"type": "unocc",
				"energy": -0.02328,
				"method": "rhf"
			},
			{
				"type": "unocc",
				"energy": -0.00961,
				"method": "rhf"
			}
		],
		"cosmo_sigma_profile": { 
			"-0.025": 0.0,
			"-0.024": 0.0,
			"-0.023": 0.0,
			"-0.022": 0.0,
			"-0.021": 0.0,
			"-0.02": 0.0,
			"-0.019": 0.0,
			"-0.018": 0.0,
			"-0.017": 0.0,
			"-0.016": 0.0,
			"-0.015": 0.0,
			"-0.014": 0.0,
			"-0.013": 0.0,
			"-0.012": 0.0,
			"-0.011": 0.102691650411,
			"-0.01": 3.70332935248,
			"-0.009": 4.56108500975,
			"-0.008": 5.80574220713,
			"-0.007": 16.0890669996,
			"-0.006": 20.9864956484,
			"-0.005": 20.5178066786,
			"-0.004": 19.8406928752,
			"-0.003": 16.3428835805,
			"-0.002": 18.1293654885,
			"-0.001": 22.2377136791,
			"0.0": 22.4156964128,
			"0.001": 31.8830843938,
			"0.002": 33.8091175931,
			"0.003": 40.3497473346,
			"0.004": 33.7422986782,
			"0.005": 21.6261287061,
			"0.006": 7.64414159741,
			"0.007": 3.78926102093,
			"0.008": 3.71536844326,
			"0.009": 3.46977038366,
			"0.01": 1.60915189957,
			"0.011": 2.37102047798,
			"0.012": 0.773134498471,
			"0.013": 0.0177811405314,
			"0.014": 0.0,
			"0.015": 0.0,
			"0.016": 0.0,
			"0.017": 0.0,
			"0.018": 0.0,
			"0.019": 0.0,
			"0.02": 0.0,
			"0.021": 0.0,
			"0.022": 0.0,
			"0.023": 0.0,
			"0.024": 0.0,
			"0.025": 0.0
		}
	}
}
