{
	 "smiles": "COC1=C(C=C(CN2C(=O)C3=C(C=CC=C3)C2=O)C=C1)C(O)=O", 
	 "Tm": 417.15, 
	 "num_atms": 36, 
	 "gaussian": { 
		 "optdone": 1, 
		 "sigma_profile": "yes", 
		 "theory": "DFT", 
		 "functional": "B3LYP", 
		 "basiset": "6-31G**", 
		 "properties": { 
			 "R2extent": 9275.8336, 
			 "electric_dipole_moment_norm": 3.03111407077, 
			 "electric_quadrupole_moment_norm": 20.9310288775, 
			 "total_energy": -1086.54863475, 
			 "HOMO_LUMO_gap": 0.15975, 
			 "cosmo_polarized_energy": -17.92, 
			 "cosmo_cavitation_energy": 41.97, 
			 "cosmo_dispersion_energy": -29.11, 
			 "cosmo_repulsion_energy": 2.18, 
			 "cosmo_total_nonelectrostatic_energy": 15.04, 
			 "SMD_solvation_energy": 9.71 
		},
		"coords": [
			{
				"x": 1.6296493831,
				"y": -1.0164988523,
				"z": 5.9079319517,
				"element": "C" 
			},
			{
				"x": 2.1100297923,
				"y": -0.8488640779,
				"z": 4.5695180577,
				"element": "O" 
			},
			{
				"x": 1.1668908945,
				"y": -0.5346513878,
				"z": 3.6303291406,
				"element": "C" 
			},
			{
				"x": 0.816175024,
				"y": 0.7988049387,
				"z": 3.3198534485,
				"element": "C" 
			},
			{
				"x": -0.0903958316,
				"y": 1.0348060455,
				"z": 2.272388526,
				"element": "C" 
			},
			{
				"x": -0.6687071519,
				"y": -0.0119213351,
				"z": 1.5548739471,
				"element": "C" 
			},
			{
				"x": -1.6487934487,
				"y": 0.2708379907,
				"z": 0.4323926252,
				"element": "C" 
			},
			{
				"x": -1.0144734978,
				"y": 0.3626377204,
				"z": -0.8820757331,
				"element": "N" 
			},
			{
				"x": -0.7708365553,
				"y": -0.7418762635,
				"z": -1.7117031581,
				"element": "C" 
			},
			{
				"x": -1.0724632911,
				"y": -1.8921465053,
				"z": -1.4551414433,
				"element": "O" 
			},
			{
				"x": -0.0945079712,
				"y": -0.1910427364,
				"z": -2.9241007909,
				"element": "C" 
			},
			{
				"x": 0.0388232677,
				"y": 1.1903488892,
				"z": -2.7613244482,
				"element": "C" 
			},
			{
				"x": 0.6342754026,
				"y": 1.9811381949,
				"z": -3.7328676844,
				"element": "C" 
			},
			{
				"x": 1.1007684242,
				"y": 1.3402224422,
				"z": -4.8887747169,
				"element": "C" 
			},
			{
				"x": 0.9671441606,
				"y": -0.0445226255,
				"z": -5.0519541774,
				"element": "C" 
			},
			{
				"x": 0.3626795783,
				"y": -0.8345938838,
				"z": -4.0645962892,
				"element": "C" 
			},
			{
				"x": -0.5501201742,
				"y": 1.5649703234,
				"z": -1.4408264352,
				"element": "C" 
			},
			{
				"x": -0.6410081303,
				"y": 2.65981317,
				"z": -0.9210005655,
				"element": "O" 
			},
			{
				"x": -0.3081145885,
				"y": -1.3285321941,
				"z": 1.8727880063,
				"element": "C" 
			},
			{
				"x": 0.6014339563,
				"y": -1.5817928783,
				"z": 2.8943236114,
				"element": "C" 
			},
			{
				"x": 1.3892592928,
				"y": 1.9493849268,
				"z": 4.0697941833,
				"element": "C" 
			},
			{
				"x": 1.2533144927,
				"y": 3.1207476336,
				"z": 3.3940024341,
				"element": "O" 
			},
			{
				"x": 1.915033606,
				"y": 1.9113548145,
				"z": 5.1649241159,
				"element": "O" 
			},
			{
				"x": 2.4931204724,
				"y": -1.321940101,
				"z": 6.5015170979,
				"element": "H" 
			},
			{
				"x": 1.2354088558,
				"y": -0.0754636072,
				"z": 6.2994061411,
				"element": "H" 
			},
			{
				"x": 0.8626330772,
				"y": -1.8008113584,
				"z": 5.9521793836,
				"element": "H" 
			},
			{
				"x": -0.338442878,
				"y": 2.0593502016,
				"z": 2.0177829548,
				"element": "H" 
			},
			{
				"x": -2.1581240261,
				"y": 1.2225931993,
				"z": 0.5989806099,
				"element": "H" 
			},
			{
				"x": -2.3959518397,
				"y": -0.5240580589,
				"z": 0.3677491434,
				"element": "H" 
			},
			{
				"x": 0.7324248451,
				"y": 3.0531407172,
				"z": -3.5957858109,
				"element": "H" 
			},
			{
				"x": 1.5742965744,
				"y": 1.9249088866,
				"z": -5.6717655898,
				"element": "H" 
			},
			{
				"x": 1.339079268,
				"y": -0.511678011,
				"z": -5.9589247573,
				"element": "H" 
			},
			{
				"x": 0.2537527464,
				"y": -1.9080658896,
				"z": -4.1804901624,
				"element": "H" 
			},
			{
				"x": -0.7315623695,
				"y": -2.1509782405,
				"z": 1.3031118944,
				"element": "H" 
			},
			{
				"x": 0.9048949067,
				"y": -2.5954642814,
				"z": 3.1356792894,
				"element": "H" 
			},
			{
				"x": 1.6273137328,
				"y": 3.8004421931,
				"z": 3.9783052001,
				"element": "H" 
			}
		],
		 "valence_orbital": [ 
			{
				"type": "occ",
				"energy": -0.27104,
				"method": "rhf"
			},
			{
				"type": "occ",
				"energy": -0.26936,
				"method": "rhf"
			},
			{
				"type": "occ",
				"energy": -0.26477,
				"method": "rhf"
			},
			{
				"type": "occ",
				"energy": -0.26007,
				"method": "rhf"
			},
			{
				"type": "occ",
				"energy": -0.24387,
				"method": "rhf"
			},
			{
				"type": "unocc",
				"energy": -0.08412,
				"method": "rhf"
			},
			{
				"type": "unocc",
				"energy": -0.04644,
				"method": "rhf"
			},
			{
				"type": "unocc",
				"energy": -0.04266,
				"method": "rhf"
			},
			{
				"type": "unocc",
				"energy": -0.01033,
				"method": "rhf"
			},
			{
				"type": "unocc",
				"energy": 0.02602,
				"method": "rhf"
			}
		],
		"cosmo_sigma_profile": { 
			"-0.025": 0.0,
			"-0.024": 0.0,
			"-0.023": 0.0,
			"-0.022": 0.0,
			"-0.021": 0.0,
			"-0.02": 0.0,
			"-0.019": 0.0,
			"-0.018": 0.633281041267,
			"-0.017": 1.07720221281,
			"-0.016": 0.5876644901,
			"-0.015": 0.746196304881,
			"-0.014": 0.709023483445,
			"-0.013": 0.874811745051,
			"-0.012": 0.745615742137,
			"-0.011": 0.887873794328,
			"-0.01": 0.504814677418,
			"-0.009": 0.38825966308,
			"-0.008": 2.6262170647,
			"-0.007": 11.2452313497,
			"-0.006": 18.9298974333,
			"-0.005": 22.7907478163,
			"-0.004": 25.1581612699,
			"-0.003": 28.4732704299,
			"-0.002": 27.2254139704,
			"-0.001": 24.7752213032,
			"0.0": 23.638445079,
			"0.001": 27.4218043026,
			"0.002": 33.5135907101,
			"0.003": 17.3064577309,
			"0.004": 7.39380405947,
			"0.005": 6.47601770982,
			"0.006": 6.62987523654,
			"0.007": 6.2342652904,
			"0.008": 6.44616129451,
			"0.009": 6.10571385603,
			"0.01": 8.12654279624,
			"0.011": 12.5126730404,
			"0.012": 6.09088585086,
			"0.013": 0.111584456243,
			"0.014": 0.0,
			"0.015": 0.0,
			"0.016": 0.0,
			"0.017": 0.0,
			"0.018": 0.0,
			"0.019": 0.0,
			"0.02": 0.0,
			"0.021": 0.0,
			"0.022": 0.0,
			"0.023": 0.0,
			"0.024": 0.0,
			"0.025": 0.0
		}
	}
}
