{
	 "smiles": "BrC1=CNN=C1C#N", 
	 "Tm": 433.15, 
	 "num_atms": 10, 
	 "gaussian": { 
		 "optdone": 1, 
		 "sigma_profile": "yes", 
		 "theory": "DFT", 
		 "functional": "B3LYP", 
		 "basiset": "6-31G**", 
		 "properties": { 
			 "R2extent": 2318.7294, 
			 "electric_dipole_moment_norm": 6.4273941267, 
			 "electric_quadrupole_moment_norm": 17.9329261031, 
			 "total_energy": -2889.23343441, 
			 "HOMO_LUMO_gap": 0.22217, 
			 "cosmo_polarized_energy": -14.82, 
			 "cosmo_cavitation_energy": 18.48, 
			 "cosmo_dispersion_energy": -13.67, 
			 "cosmo_repulsion_energy": 1.16, 
			 "cosmo_total_nonelectrostatic_energy": 5.96, 
			 "SMD_solvation_energy": 2.98 
		},
		"coords": [
			{
				"x": 0.6196681036,
				"y": 2.7526898333,
				"z": 0.2561775135,
				"element": "Br" 
			},
			{
				"x": 0.2481822247,
				"y": 1.131731158,
				"z": -0.6061147031,
				"element": "C" 
			},
			{
				"x": -0.218945404,
				"y": -0.0303926167,
				"z": -0.0297080417,
				"element": "C" 
			},
			{
				"x": -0.3320336968,
				"y": -0.9225852957,
				"z": -1.0494748988,
				"element": "N" 
			},
			{
				"x": 0.0238778469,
				"y": -0.4349371755,
				"z": -2.2438316733,
				"element": "N" 
			},
			{
				"x": 0.3843326521,
				"y": 0.8311025597,
				"z": -1.9885530545,
				"element": "C" 
			},
			{
				"x": 0.8341632153,
				"y": 1.6946391029,
				"z": -3.0295115041,
				"element": "C" 
			},
			{
				"x": 1.2041448699,
				"y": 2.4182551016,
				"z": -3.8601944016,
				"element": "N" 
			},
			{
				"x": -0.466634153,
				"y": -0.2689658422,
				"z": 0.99282514,
				"element": "H" 
			},
			{
				"x": -0.6464556586,
				"y": -1.8802368252,
				"z": -0.9945143763,
				"element": "H" 
			}
		],
		 "valence_orbital": [ 
			{
				"type": "occ",
				"energy": -0.34472,
				"method": "rhf"
			},
			{
				"type": "occ",
				"energy": -0.33443,
				"method": "rhf"
			},
			{
				"type": "occ",
				"energy": -0.30436,
				"method": "rhf"
			},
			{
				"type": "occ",
				"energy": -0.28431,
				"method": "rhf"
			},
			{
				"type": "occ",
				"energy": -0.26376,
				"method": "rhf"
			},
			{
				"type": "unocc",
				"energy": -0.04159,
				"method": "rhf"
			},
			{
				"type": "unocc",
				"energy": -0.00637,
				"method": "rhf"
			},
			{
				"type": "unocc",
				"energy": -0.00187,
				"method": "rhf"
			},
			{
				"type": "unocc",
				"energy": 0.02084,
				"method": "rhf"
			},
			{
				"type": "unocc",
				"energy": 0.0596,
				"method": "rhf"
			}
		],
		"cosmo_sigma_profile": { 
			"-0.025": 0.0,
			"-0.024": 0.0,
			"-0.023": 0.0,
			"-0.022": 0.0,
			"-0.021": 0.0,
			"-0.02": 0.0,
			"-0.019": 0.933211039626,
			"-0.018": 1.78723789901,
			"-0.017": 1.87428749835,
			"-0.016": 0.853763664431,
			"-0.015": 0.738300172074,
			"-0.014": 1.64244270521,
			"-0.013": 1.28683850612,
			"-0.012": 1.46042290301,
			"-0.011": 3.59013059181,
			"-0.01": 2.44449366139,
			"-0.009": 1.9528801843,
			"-0.008": 1.91465608532,
			"-0.007": 1.63235592453,
			"-0.006": 3.03769430513,
			"-0.005": 3.41083102778,
			"-0.004": 3.52808987356,
			"-0.003": 6.34730546096,
			"-0.002": 9.75030938921,
			"-0.001": 14.2079751446,
			"0.0": 14.0784588787,
			"0.001": 12.6528988137,
			"0.002": 12.1720628768,
			"0.003": 15.518193485,
			"0.004": 5.13857171834,
			"0.005": 4.03678608677,
			"0.006": 4.21429679865,
			"0.007": 4.6066140016,
			"0.008": 4.31370594554,
			"0.009": 4.21987355094,
			"0.01": 3.54918596265,
			"0.011": 3.55287860363,
			"0.012": 2.74085282484,
			"0.013": 0.695502380377,
			"0.014": 0.0,
			"0.015": 0.0,
			"0.016": 0.0,
			"0.017": 0.0,
			"0.018": 0.0,
			"0.019": 0.0,
			"0.02": 0.0,
			"0.021": 0.0,
			"0.022": 0.0,
			"0.023": 0.0,
			"0.024": 0.0,
			"0.025": 0.0
		}
	}
}
