{
	 "smiles": "OC(=O)CCN1C(S)=NN=C1C1=CC=C(F)C=C1", 
	 "Tm": 290.15, 
	 "num_atms": 28, 
	 "gaussian": { 
		 "optdone": 1, 
		 "sigma_profile": "yes", 
		 "theory": "DFT", 
		 "functional": "B3LYP", 
		 "basiset": "6-31G**", 
		 "properties": { 
			 "R2extent": 5735.8507, 
			 "electric_dipole_moment_norm": 4.31055736999, 
			 "electric_quadrupole_moment_norm": 20.1957023693, 
			 "total_energy": -1237.89809404, 
			 "HOMO_LUMO_gap": 0.18562, 
			 "cosmo_polarized_energy": -25.65, 
			 "cosmo_cavitation_energy": 34.62, 
			 "cosmo_dispersion_energy": -24.21, 
			 "cosmo_repulsion_energy": 1.79, 
			 "cosmo_total_nonelectrostatic_energy": 12.21, 
			 "SMD_solvation_energy": 4.52 
		},
		"coords": [
			{
				"x": 2.377969015,
				"y": 2.0263585378,
				"z": -1.8117855745,
				"element": "O" 
			},
			{
				"x": 1.5496827087,
				"y": 2.9398478944,
				"z": -1.2453305267,
				"element": "C" 
			},
			{
				"x": 1.6252917474,
				"y": 4.1029375917,
				"z": -1.5496204614,
				"element": "O" 
			},
			{
				"x": 0.5345535147,
				"y": 2.4039024585,
				"z": -0.2364082435,
				"element": "C" 
			},
			{
				"x": -0.6749844198,
				"y": 1.7034767079,
				"z": -0.8877772509,
				"element": "C" 
			},
			{
				"x": -0.322858912,
				"y": 0.4671014966,
				"z": -1.593872484,
				"element": "N" 
			},
			{
				"x": -0.2356739641,
				"y": 0.3026344391,
				"z": -2.9584647284,
				"element": "C" 
			},
			{
				"x": -0.8586442464,
				"y": 1.4820249827,
				"z": -4.1150183523,
				"element": "S" 
			},
			{
				"x": 0.3478053005,
				"y": -0.8320891903,
				"z": -3.2657641564,
				"element": "N" 
			},
			{
				"x": 0.6725844837,
				"y": -1.4516630688,
				"z": -2.0801712677,
				"element": "N" 
			},
			{
				"x": 0.2677484267,
				"y": -0.6878893497,
				"z": -1.0861853076,
				"element": "C" 
			},
			{
				"x": 0.4283764671,
				"y": -1.0452897114,
				"z": 0.3322290635,
				"element": "C" 
			},
			{
				"x": -0.5563559974,
				"y": -0.7882193226,
				"z": 1.3010338556,
				"element": "C" 
			},
			{
				"x": -0.3739449793,
				"y": -1.1791800526,
				"z": 2.626104068,
				"element": "C" 
			},
			{
				"x": 0.7966877599,
				"y": -1.8445522606,
				"z": 2.9730909488,
				"element": "C" 
			},
			{
				"x": 0.9777662917,
				"y": -2.2221269068,
				"z": 4.2518728296,
				"element": "F" 
			},
			{
				"x": 1.782157772,
				"y": -2.1370109813,
				"z": 2.0350898402,
				"element": "C" 
			},
			{
				"x": 1.5930306514,
				"y": -1.7347449321,
				"z": 0.7167502602,
				"element": "C" 
			},
			{
				"x": 2.2046392621,
				"y": 1.1335831245,
				"z": -1.4792079882,
				"element": "H" 
			},
			{
				"x": 0.1650305562,
				"y": 3.2654330932,
				"z": 0.3237268271,
				"element": "H" 
			},
			{
				"x": 1.0148844377,
				"y": 1.7201872672,
				"z": 0.4719574473,
				"element": "H" 
			},
			{
				"x": -1.1441979625,
				"y": 2.3738760317,
				"z": -1.6111777017,
				"element": "H" 
			},
			{
				"x": -1.4220651714,
				"y": 1.4855937962,
				"z": -0.1228821907,
				"element": "H" 
			},
			{
				"x": -0.2959973336,
				"y": 0.8459877126,
				"z": -5.1591491309,
				"element": "H" 
			},
			{
				"x": -1.4916439267,
				"y": -0.3158756925,
				"z": 1.0201894427,
				"element": "H" 
			},
			{
				"x": -1.1285470305,
				"y": -0.9918534384,
				"z": 3.3819615116,
				"element": "H" 
			},
			{
				"x": 2.6763543654,
				"y": -2.6671277898,
				"z": 2.3438625479,
				"element": "H" 
			},
			{
				"x": 2.3405511835,
				"y": -1.9606224373,
				"z": -0.0359532776,
				"element": "H" 
			}
		],
		 "valence_orbital": [ 
			{
				"type": "occ",
				"energy": -0.28504,
				"method": "rhf"
			},
			{
				"type": "occ",
				"energy": -0.27922,
				"method": "rhf"
			},
			{
				"type": "occ",
				"energy": -0.27679,
				"method": "rhf"
			},
			{
				"type": "occ",
				"energy": -0.26933,
				"method": "rhf"
			},
			{
				"type": "occ",
				"energy": -0.23471,
				"method": "rhf"
			},
			{
				"type": "unocc",
				"energy": -0.04909,
				"method": "rhf"
			},
			{
				"type": "unocc",
				"energy": -0.03586,
				"method": "rhf"
			},
			{
				"type": "unocc",
				"energy": -0.01036,
				"method": "rhf"
			},
			{
				"type": "unocc",
				"energy": -0.00326,
				"method": "rhf"
			},
			{
				"type": "unocc",
				"energy": 0.01379,
				"method": "rhf"
			}
		],
		"cosmo_sigma_profile": { 
			"-0.025": 0.0,
			"-0.024": 0.0,
			"-0.023": 0.0,
			"-0.022": 0.0,
			"-0.021": 0.0,
			"-0.02": 0.0,
			"-0.019": 0.0,
			"-0.018": 0.00282120638339,
			"-0.017": 0.0316372437996,
			"-0.016": 0.305497296712,
			"-0.015": 0.695479284754,
			"-0.014": 1.41041059783,
			"-0.013": 1.63762812987,
			"-0.012": 2.88315857215,
			"-0.011": 3.57920059371,
			"-0.01": 4.44880991364,
			"-0.009": 5.60046263192,
			"-0.008": 10.8928441805,
			"-0.007": 17.8333901732,
			"-0.006": 17.9154195017,
			"-0.005": 15.2637517103,
			"-0.004": 13.5474959597,
			"-0.003": 10.921267743,
			"-0.002": 11.4155723545,
			"-0.001": 13.0977623549,
			"0.0": 17.3554752214,
			"0.001": 19.6244143288,
			"0.002": 19.644222144,
			"0.003": 16.8170072377,
			"0.004": 16.34177589,
			"0.005": 7.29333189775,
			"0.006": 5.45000454945,
			"0.007": 3.68958073873,
			"0.008": 5.0690334053,
			"0.009": 5.0767729357,
			"0.01": 6.78603039482,
			"0.011": 7.6924310798,
			"0.012": 7.61659085382,
			"0.013": 3.98188061281,
			"0.014": 3.02099161009,
			"0.015": 1.94965296376,
			"0.016": 0.99494533495,
			"0.017": 0.0101058614655,
			"0.018": 0.0,
			"0.019": 0.0,
			"0.02": 0.0,
			"0.021": 0.0,
			"0.022": 0.0,
			"0.023": 0.0,
			"0.024": 0.0,
			"0.025": 0.0
		}
	}
}
