{
	 "smiles": "CCOC(=O)C1=C(C)OC(NC(=O)NC2=CC=C(F)C=C2)=C1C(=O)OCC", 
	 "Tm": 420.15, 
	 "num_atms": 46, 
	 "gaussian": { 
		 "optdone": 1, 
		 "sigma_profile": "yes", 
		 "theory": "DFT", 
		 "functional": "B3LYP", 
		 "basiset": "6-31G**", 
		 "properties": { 
			 "R2extent": 16216.4705, 
			 "electric_dipole_moment_norm": 6.31488602114, 
			 "electric_quadrupole_moment_norm": 14.9737582473, 
			 "total_energy": -1358.09875474, 
			 "HOMO_LUMO_gap": 0.1759, 
			 "cosmo_polarized_energy": -19.44, 
			 "cosmo_cavitation_energy": 51.95, 
			 "cosmo_dispersion_energy": -35.44, 
			 "cosmo_repulsion_energy": 2.68, 
			 "cosmo_total_nonelectrostatic_energy": 19.19, 
			 "SMD_solvation_energy": 12.25 
		},
		"coords": [
			{
				"x": -4.3461049233,
				"y": 3.0793433363,
				"z": 1.6767152807,
				"element": "C" 
			},
			{
				"x": -2.9398895413,
				"y": 3.4113199598,
				"z": 2.151638873,
				"element": "C" 
			},
			{
				"x": -1.9869304902,
				"y": 2.4105566638,
				"z": 1.7107184144,
				"element": "O" 
			},
			{
				"x": -1.4785483764,
				"y": 2.5799157428,
				"z": 0.4633812913,
				"element": "C" 
			},
			{
				"x": -1.7879206182,
				"y": 3.4897119703,
				"z": -0.2743490805,
				"element": "O" 
			},
			{
				"x": -0.4738507466,
				"y": 1.5357011987,
				"z": 0.1390997596,
				"element": "C" 
			},
			{
				"x": 0.4501098673,
				"y": 1.0301676692,
				"z": 1.0054826786,
				"element": "C" 
			},
			{
				"x": 0.76035795,
				"y": 1.1871407025,
				"z": 2.4490332131,
				"element": "C" 
			},
			{
				"x": 1.3282884954,
				"y": 0.2073696022,
				"z": 0.3023863341,
				"element": "O" 
			},
			{
				"x": 0.9403435716,
				"y": 0.196478002,
				"z": -0.9958435495,
				"element": "C" 
			},
			{
				"x": 1.6291600379,
				"y": -0.5448639555,
				"z": -1.9084466437,
				"element": "N" 
			},
			{
				"x": 2.6858400718,
				"y": -1.474541684,
				"z": -1.8098312949,
				"element": "C" 
			},
			{
				"x": 3.0632723597,
				"y": -2.0357701676,
				"z": -2.826933756,
				"element": "O" 
			},
			{
				"x": 3.2026951743,
				"y": -1.6569340976,
				"z": -0.5526873345,
				"element": "N" 
			},
			{
				"x": 4.2553622333,
				"y": -2.5217560141,
				"z": -0.1786041692,
				"element": "C" 
			},
			{
				"x": 4.9461512155,
				"y": -3.3485021494,
				"z": -1.0788141751,
				"element": "C" 
			},
			{
				"x": 5.972855568,
				"y": -4.1708037494,
				"z": -0.615149047,
				"element": "C" 
			},
			{
				"x": 6.3062685711,
				"y": -4.167245799,
				"z": 0.7329032321,
				"element": "C" 
			},
			{
				"x": 7.3024585702,
				"y": -4.96717091,
				"z": 1.1730874349,
				"element": "F" 
			},
			{
				"x": 5.6364972731,
				"y": -3.3570999415,
				"z": 1.6417603133,
				"element": "C" 
			},
			{
				"x": 4.6114699621,
				"y": -2.5364131105,
				"z": 1.1797030401,
				"element": "C" 
			},
			{
				"x": -0.1701279692,
				"y": 0.9961191358,
				"z": -1.177617337,
				"element": "C" 
			},
			{
				"x": -0.8447754941,
				"y": 1.0526084929,
				"z": -2.4716689562,
				"element": "C" 
			},
			{
				"x": -0.3508360689,
				"y": 0.5759293964,
				"z": -3.4931351144,
				"element": "O" 
			},
			{
				"x": -2.0522442873,
				"y": 1.631022786,
				"z": -2.4316745875,
				"element": "O" 
			},
			{
				"x": -2.7663070185,
				"y": 1.7466148904,
				"z": -3.6865470362,
				"element": "C" 
			},
			{
				"x": -3.5697659701,
				"y": 0.489608212,
				"z": -3.9839448237,
				"element": "C" 
			},
			{
				"x": -5.0560616997,
				"y": 3.8065216356,
				"z": 2.0846621566,
				"element": "H" 
			},
			{
				"x": -4.4010262885,
				"y": 3.1195078723,
				"z": 0.5864186174,
				"element": "H" 
			},
			{
				"x": -4.6450669286,
				"y": 2.0817340872,
				"z": 2.0114147535,
				"element": "H" 
			},
			{
				"x": -2.8691076957,
				"y": 3.3893134978,
				"z": 3.2417981625,
				"element": "H" 
			},
			{
				"x": -2.6197570753,
				"y": 4.3893600845,
				"z": 1.7849685281,
				"element": "H" 
			},
			{
				"x": 0.7179592036,
				"y": 0.2208029705,
				"z": 2.9655665938,
				"element": "H" 
			},
			{
				"x": 0.0304979685,
				"y": 1.8518476918,
				"z": 2.9083744268,
				"element": "H" 
			},
			{
				"x": 1.7655941105,
				"y": 1.5992789498,
				"z": 2.5960185254,
				"element": "H" 
			},
			{
				"x": 1.253150847,
				"y": -0.4353957175,
				"z": -2.851326381,
				"element": "H" 
			},
			{
				"x": 2.7977552514,
				"y": -1.1122912075,
				"z": 0.1954282017,
				"element": "H" 
			},
			{
				"x": 4.6752763068,
				"y": -3.339013741,
				"z": -2.1245651233,
				"element": "H" 
			},
			{
				"x": 6.5163081453,
				"y": -4.8152508562,
				"z": -1.2977863592,
				"element": "H" 
			},
			{
				"x": 5.9170192172,
				"y": -3.3734590543,
				"z": 2.6891703251,
				"element": "H" 
			},
			{
				"x": 4.08169833,
				"y": -1.8993908737,
				"z": 1.8839231922,
				"element": "H" 
			},
			{
				"x": -3.4130505022,
				"y": 2.6149879445,
				"z": -3.5435390493,
				"element": "H" 
			},
			{
				"x": -2.0484118171,
				"y": 1.9543257048,
				"z": -4.4830600629,
				"element": "H" 
			},
			{
				"x": -4.2537949754,
				"y": 0.2601616494,
				"z": -3.1615020305,
				"element": "H" 
			},
			{
				"x": -4.1628106458,
				"y": 0.6359528452,
				"z": -4.8929107416,
				"element": "H" 
			},
			{
				"x": -2.905101169,
				"y": -0.3630996656,
				"z": -4.1417166952,
				"element": "H" 
			}
		],
		 "valence_orbital": [ 
			{
				"type": "occ",
				"energy": -0.27764,
				"method": "rhf"
			},
			{
				"type": "occ",
				"energy": -0.27622,
				"method": "rhf"
			},
			{
				"type": "occ",
				"energy": -0.26041,
				"method": "rhf"
			},
			{
				"type": "occ",
				"energy": -0.22502,
				"method": "rhf"
			},
			{
				"type": "occ",
				"energy": -0.21334,
				"method": "rhf"
			},
			{
				"type": "unocc",
				"energy": -0.03744,
				"method": "rhf"
			},
			{
				"type": "unocc",
				"energy": -0.03264,
				"method": "rhf"
			},
			{
				"type": "unocc",
				"energy": -0.01088,
				"method": "rhf"
			},
			{
				"type": "unocc",
				"energy": 0.00483,
				"method": "rhf"
			},
			{
				"type": "unocc",
				"energy": 0.03922,
				"method": "rhf"
			}
		],
		"cosmo_sigma_profile": { 
			"-0.025": 0.0,
			"-0.024": 0.0,
			"-0.023": 0.0,
			"-0.022": 0.0,
			"-0.021": 0.0,
			"-0.02": 0.0,
			"-0.019": 0.0,
			"-0.018": 0.0,
			"-0.017": 0.0,
			"-0.016": 0.0,
			"-0.015": 0.0,
			"-0.014": 0.0,
			"-0.013": 0.025272772315,
			"-0.012": 0.652816011232,
			"-0.011": 0.902270342194,
			"-0.01": 1.04016122824,
			"-0.009": 1.45988849956,
			"-0.008": 1.96858655892,
			"-0.007": 6.54043935806,
			"-0.006": 16.4075380828,
			"-0.005": 23.057385079,
			"-0.004": 37.2767670269,
			"-0.003": 43.9750941733,
			"-0.002": 48.091769057,
			"-0.001": 39.2113415648,
			"0.0": 35.8152342685,
			"0.001": 28.0341319817,
			"0.002": 22.4643605581,
			"0.003": 23.7199711294,
			"0.004": 26.0236724155,
			"0.005": 11.9703131337,
			"0.006": 7.57424252315,
			"0.007": 5.81107075118,
			"0.008": 3.90628094584,
			"0.009": 5.45759907702,
			"0.01": 5.69311494183,
			"0.011": 6.3056311062,
			"0.012": 8.22141922719,
			"0.013": 2.60668710268,
			"0.014": 0.00214875372829,
			"0.015": 0.0,
			"0.016": 0.0,
			"0.017": 0.0,
			"0.018": 0.0,
			"0.019": 0.0,
			"0.02": 0.0,
			"0.021": 0.0,
			"0.022": 0.0,
			"0.023": 0.0,
			"0.024": 0.0,
			"0.025": 0.0
		}
	}
}
