{
	 "smiles": "ClCC(=O)NC1(CCCC1)C#N", 
	 "Tm": 348.15, 
	 "num_atms": 23, 
	 "gaussian": { 
		 "optdone": 1, 
		 "sigma_profile": "yes", 
		 "theory": "DFT", 
		 "functional": "B3LYP", 
		 "basiset": "6-31G**", 
		 "properties": { 
			 "R2extent": 2797.336, 
			 "electric_dipole_moment_norm": 2.28372659047, 
			 "electric_quadrupole_moment_norm": 11.629995923, 
			 "total_energy": -956.397761337, 
			 "HOMO_LUMO_gap": 0.2698, 
			 "cosmo_polarized_energy": -11.79, 
			 "cosmo_cavitation_energy": 27.67, 
			 "cosmo_dispersion_energy": -19.78, 
			 "cosmo_repulsion_energy": 1.62, 
			 "cosmo_total_nonelectrostatic_energy": 9.51, 
			 "SMD_solvation_energy": 5.22 
		},
		"coords": [
			{
				"x": 0.5830280718,
				"y": -2.3617856265,
				"z": -3.2431236604,
				"element": "Cl" 
			},
			{
				"x": 1.2300226996,
				"y": -2.4840726717,
				"z": -1.5536634443,
				"element": "C" 
			},
			{
				"x": 0.7948398856,
				"y": -1.3988412225,
				"z": -0.5642294168,
				"element": "C" 
			},
			{
				"x": 1.232723638,
				"y": -1.4748439891,
				"z": 0.5790055679,
				"element": "O" 
			},
			{
				"x": -0.0422881607,
				"y": -0.4343132179,
				"z": -1.0115684163,
				"element": "N" 
			},
			{
				"x": -0.5210171886,
				"y": 0.6693873711,
				"z": -0.162557103,
				"element": "C" 
			},
			{
				"x": 0.6267908278,
				"y": 1.613641251,
				"z": 0.3314748412,
				"element": "C" 
			},
			{
				"x": 0.1343429444,
				"y": 2.1279404372,
				"z": 1.688900494,
				"element": "C" 
			},
			{
				"x": -0.5028067533,
				"y": 0.8781499824,
				"z": 2.3199020328,
				"element": "C" 
			},
			{
				"x": -1.2508201648,
				"y": 0.1950737427,
				"z": 1.1575740608,
				"element": "C" 
			},
			{
				"x": -1.4642940541,
				"y": 1.4410250751,
				"z": -0.9926991513,
				"element": "C" 
			},
			{
				"x": -2.2042229691,
				"y": 2.0632656406,
				"z": -1.6355011255,
				"element": "N" 
			},
			{
				"x": 0.9191585289,
				"y": -3.4505603176,
				"z": -1.1560810401,
				"element": "H" 
			},
			{
				"x": 2.3180899518,
				"y": -2.4654427399,
				"z": -1.6204579219,
				"element": "H" 
			},
			{
				"x": -0.3355714873,
				"y": -0.4647989853,
				"z": -1.9788046113,
				"element": "H" 
			},
			{
				"x": 0.8515097551,
				"y": 2.3965582079,
				"z": -0.3970272588,
				"element": "H" 
			},
			{
				"x": 1.5175268566,
				"y": 0.9968820712,
				"z": 0.4702609325,
				"element": "H" 
			},
			{
				"x": -0.616788699,
				"y": 2.9158140564,
				"z": 1.5503350049,
				"element": "H" 
			},
			{
				"x": 0.9444075145,
				"y": 2.5486700012,
				"z": 2.2918092311,
				"element": "H" 
			},
			{
				"x": 0.2844286361,
				"y": 0.2107938495,
				"z": 2.6834450628,
				"element": "H" 
			},
			{
				"x": -1.165442523,
				"y": 1.110816266,
				"z": 3.1584028974,
				"element": "H" 
			},
			{
				"x": -2.2983450936,
				"y": 0.5060479124,
				"z": 1.1224826985,
				"element": "H" 
			},
			{
				"x": -1.2275722166,
				"y": -0.8926070943,
				"z": 1.225620326,
				"element": "H" 
			}
		],
		 "valence_orbital": [ 
			{
				"type": "occ",
				"energy": -0.33536,
				"method": "rhf"
			},
			{
				"type": "occ",
				"energy": -0.32646,
				"method": "rhf"
			},
			{
				"type": "occ",
				"energy": -0.31937,
				"method": "rhf"
			},
			{
				"type": "occ",
				"energy": -0.27676,
				"method": "rhf"
			},
			{
				"type": "occ",
				"energy": -0.27352,
				"method": "rhf"
			},
			{
				"type": "unocc",
				"energy": -0.00372,
				"method": "rhf"
			},
			{
				"type": "unocc",
				"energy": 0.00385,
				"method": "rhf"
			},
			{
				"type": "unocc",
				"energy": 0.01207,
				"method": "rhf"
			},
			{
				"type": "unocc",
				"energy": 0.03375,
				"method": "rhf"
			},
			{
				"type": "unocc",
				"energy": 0.0655,
				"method": "rhf"
			}
		],
		"cosmo_sigma_profile": { 
			"-0.025": 0.0,
			"-0.024": 0.0,
			"-0.023": 0.0,
			"-0.022": 0.0,
			"-0.021": 0.0,
			"-0.02": 0.0,
			"-0.019": 0.0,
			"-0.018": 0.0,
			"-0.017": 0.0,
			"-0.016": 0.0,
			"-0.015": 0.0,
			"-0.014": 0.0,
			"-0.013": 0.0,
			"-0.012": 0.283915934485,
			"-0.011": 1.15841840827,
			"-0.01": 1.7305460392,
			"-0.009": 4.71289703175,
			"-0.008": 4.98127093293,
			"-0.007": 5.20940430084,
			"-0.006": 6.19336349749,
			"-0.005": 10.39830177,
			"-0.004": 19.168708402,
			"-0.003": 24.4706494168,
			"-0.002": 25.5956499398,
			"-0.001": 22.1150815415,
			"0.0": 17.0839105233,
			"0.001": 9.56176842152,
			"0.002": 7.02941956549,
			"0.003": 6.96166381827,
			"0.004": 7.746395165,
			"0.005": 11.2532464658,
			"0.006": 4.94177817596,
			"0.007": 4.28687062055,
			"0.008": 4.29670134455,
			"0.009": 4.95956688724,
			"0.01": 4.50264353359,
			"0.011": 4.11503397536,
			"0.012": 4.3358781469,
			"0.013": 3.25221108173,
			"0.014": 0.45130433269,
			"0.015": 0.0,
			"0.016": 0.0,
			"0.017": 0.0,
			"0.018": 0.0,
			"0.019": 0.0,
			"0.02": 0.0,
			"0.021": 0.0,
			"0.022": 0.0,
			"0.023": 0.0,
			"0.024": 0.0,
			"0.025": 0.0
		}
	}
}
