{
	 "smiles": "CCC=CBr", 
	 "Tm": 173.15, 
	 "num_atms": 12, 
	 "gaussian": { 
		 "optdone": 1, 
		 "sigma_profile": "yes", 
		 "theory": "DFT", 
		 "functional": "B3LYP", 
		 "basiset": "6-31G**", 
		 "properties": { 
			 "R2extent": 2118.1921, 
			 "electric_dipole_moment_norm": 1.74172567587, 
			 "electric_quadrupole_moment_norm": 4.65537443929, 
			 "total_energy": -2728.032807, 
			 "HOMO_LUMO_gap": 0.24922, 
			 "cosmo_polarized_energy": -2.89, 
			 "cosmo_cavitation_energy": 17.41, 
			 "cosmo_dispersion_energy": -13.27, 
			 "cosmo_repulsion_energy": 1.19, 
			 "cosmo_total_nonelectrostatic_energy": 5.33, 
			 "SMD_solvation_energy": 2.49 
		},
		"coords": [
			{
				"x": 1.6998451706,
				"y": 2.2902480319,
				"z": 1.1614376816,
				"element": "C" 
			},
			{
				"x": 0.7608438768,
				"y": 1.3646555815,
				"z": 0.3687180043,
				"element": "C" 
			},
			{
				"x": 1.498657799,
				"y": 0.5170945098,
				"z": -0.6259408554,
				"element": "C" 
			},
			{
				"x": 1.3473593945,
				"y": 0.4647046138,
				"z": -1.947056771,
				"element": "C" 
			},
			{
				"x": 0.0754028981,
				"y": 1.4969298267,
				"z": -2.9364892206,
				"element": "Br" 
			},
			{
				"x": 2.206744377,
				"y": 2.9963388119,
				"z": 0.49665942,
				"element": "H" 
			},
			{
				"x": 2.4693534166,
				"y": 1.718683404,
				"z": 1.6919992406,
				"element": "H" 
			},
			{
				"x": 1.1390885501,
				"y": 2.865594931,
				"z": 1.9046520086,
				"element": "H" 
			},
			{
				"x": -0.004837745,
				"y": 1.9534288946,
				"z": -0.1441380104,
				"element": "H" 
			},
			{
				"x": 0.2352749989,
				"y": 0.702440322,
				"z": 1.0710349834,
				"element": "H" 
			},
			{
				"x": 2.2733260576,
				"y": -0.1372170883,
				"z": -0.2217274241,
				"element": "H" 
			},
			{
				"x": 1.9318412058,
				"y": -0.175701839,
				"z": -2.594849057,
				"element": "H" 
			}
		],
		 "valence_orbital": [ 
			{
				"type": "occ",
				"energy": -0.35055,
				"method": "rhf"
			},
			{
				"type": "occ",
				"energy": -0.34351,
				"method": "rhf"
			},
			{
				"type": "occ",
				"energy": -0.32448,
				"method": "rhf"
			},
			{
				"type": "occ",
				"energy": -0.28036,
				"method": "rhf"
			},
			{
				"type": "occ",
				"energy": -0.24344,
				"method": "rhf"
			},
			{
				"type": "unocc",
				"energy": 0.00578,
				"method": "rhf"
			},
			{
				"type": "unocc",
				"energy": 0.01931,
				"method": "rhf"
			},
			{
				"type": "unocc",
				"energy": 0.09922,
				"method": "rhf"
			},
			{
				"type": "unocc",
				"energy": 0.11972,
				"method": "rhf"
			},
			{
				"type": "unocc",
				"energy": 0.15131,
				"method": "rhf"
			}
		],
		"cosmo_sigma_profile": { 
			"-0.025": 0.0,
			"-0.024": 0.0,
			"-0.023": 0.0,
			"-0.022": 0.0,
			"-0.021": 0.0,
			"-0.02": 0.0,
			"-0.019": 0.0,
			"-0.018": 0.0,
			"-0.017": 0.0,
			"-0.016": 0.0,
			"-0.015": 0.0,
			"-0.014": 0.0,
			"-0.013": 0.0,
			"-0.012": 0.0,
			"-0.011": 0.0,
			"-0.01": 0.0,
			"-0.009": 0.0418977952051,
			"-0.008": 1.438516184,
			"-0.007": 2.52645268776,
			"-0.006": 4.16237223283,
			"-0.005": 3.70924228632,
			"-0.004": 7.16561320426,
			"-0.003": 13.7408042356,
			"-0.002": 14.6497691304,
			"-0.001": 16.2327062151,
			"0.0": 15.5648905064,
			"0.001": 15.7921335794,
			"0.002": 9.05881474383,
			"0.003": 9.17116008338,
			"0.004": 12.1885121079,
			"0.005": 12.436651312,
			"0.006": 2.58713886869,
			"0.007": 0.0,
			"0.008": 0.0,
			"0.009": 0.0,
			"0.01": 0.0,
			"0.011": 0.0,
			"0.012": 0.0,
			"0.013": 0.0,
			"0.014": 0.0,
			"0.015": 0.0,
			"0.016": 0.0,
			"0.017": 0.0,
			"0.018": 0.0,
			"0.019": 0.0,
			"0.02": 0.0,
			"0.021": 0.0,
			"0.022": 0.0,
			"0.023": 0.0,
			"0.024": 0.0,
			"0.025": 0.0
		}
	}
}
