{
	 "smiles": "CC(C)CCC[C@H](C)[C@H]1CCC2C3CC(=O)[C@@]4(O)CC(=O)CC[C@]4(C)C3CC[C@]12C", 
	 "Tm": 495.15, 
	 "num_atms": 74, 
	 "gaussian": { 
		 "optdone": 1, 
		 "sigma_profile": "yes", 
		 "theory": "DFT", 
		 "functional": "B3LYP", 
		 "basiset": "6-31G**", 
		 "properties": { 
			 "R2extent": 18719.3807, 
			 "electric_dipole_moment_norm": 3.85565653294, 
			 "electric_quadrupole_moment_norm": 25.2017704765, 
			 "total_energy": -1281.06775214, 
			 "HOMO_LUMO_gap": 0.19598, 
			 "cosmo_polarized_energy": -13.08, 
			 "cosmo_cavitation_energy": 61.51, 
			 "cosmo_dispersion_energy": -41.59, 
			 "cosmo_repulsion_energy": 3.04, 
			 "cosmo_total_nonelectrostatic_energy": 22.96, 
			 "SMD_solvation_energy": 9.69 
		},
		"coords": [
			{
				"x": 2.6857838902,
				"y": -1.9695746952,
				"z": 6.5111883838,
				"element": "C" 
			},
			{
				"x": 2.57968657,
				"y": -0.6485747164,
				"z": 5.7334115282,
				"element": "C" 
			},
			{
				"x": 1.5278694766,
				"y": 0.2670551726,
				"z": 6.3781158403,
				"element": "C" 
			},
			{
				"x": 2.2648680557,
				"y": -0.8614960906,
				"z": 4.2369857172,
				"element": "C" 
			},
			{
				"x": 3.3792491374,
				"y": -1.5556714385,
				"z": 3.4395830409,
				"element": "C" 
			},
			{
				"x": 3.0785932871,
				"y": -1.882043061,
				"z": 1.9610579459,
				"element": "C" 
			},
			{
				"x": 2.8662753305,
				"y": -0.7031271786,
				"z": 0.9655704547,
				"element": "C" 
			},
			{
				"x": 3.9214754424,
				"y": 0.3942230723,
				"z": 1.1935480424,
				"element": "C" 
			},
			{
				"x": 1.381002497,
				"y": -0.2013167002,
				"z": 0.934896744,
				"element": "C" 
			},
			{
				"x": 1.1963025346,
				"y": 1.2905891584,
				"z": 0.5688654591,
				"element": "C" 
			},
			{
				"x": 1.1819641232,
				"y": 1.3483419919,
				"z": -0.9757630629,
				"element": "C" 
			},
			{
				"x": 0.8814528095,
				"y": -0.1101729229,
				"z": -1.4506926834,
				"element": "C" 
			},
			{
				"x": -0.0822488751,
				"y": -0.2980623908,
				"z": -2.6615853681,
				"element": "C" 
			},
			{
				"x": 0.2052105188,
				"y": 0.7897948802,
				"z": -3.7545904905,
				"element": "C" 
			},
			{
				"x": -0.80720956,
				"y": 1.9034098029,
				"z": -3.7498803716,
				"element": "C" 
			},
			{
				"x": -0.5127184112,
				"y": 3.0871890229,
				"z": -3.6783857893,
				"element": "O" 
			},
			{
				"x": -2.3000180883,
				"y": 1.5244496681,
				"z": -3.7619865008,
				"element": "C" 
			},
			{
				"x": -2.9150166446,
				"y": 2.3433193618,
				"z": -2.7580915071,
				"element": "O" 
			},
			{
				"x": -2.9457819062,
				"y": 1.85968514,
				"z": -5.121226033,
				"element": "C" 
			},
			{
				"x": -4.3677964717,
				"y": 1.2959531364,
				"z": -5.2329036165,
				"element": "C" 
			},
			{
				"x": -4.9621691448,
				"y": 1.3289144688,
				"z": -6.2933588119,
				"element": "O" 
			},
			{
				"x": -5.0007896198,
				"y": 0.7404088461,
				"z": -3.9636030988,
				"element": "C" 
			},
			{
				"x": -4.0660004362,
				"y": -0.0786421276,
				"z": -3.022990301,
				"element": "C" 
			},
			{
				"x": -2.5603794461,
				"y": 0.0359498632,
				"z": -3.3929678595,
				"element": "C" 
			},
			{
				"x": -2.3466640079,
				"y": -0.9229614957,
				"z": -4.6001435936,
				"element": "C" 
			},
			{
				"x": -1.598328795,
				"y": -0.419029784,
				"z": -2.2479221198,
				"element": "C" 
			},
			{
				"x": -1.8146960285,
				"y": 0.1919116643,
				"z": -0.8514853126,
				"element": "C" 
			},
			{
				"x": -1.0325266292,
				"y": -0.6225307351,
				"z": 0.1925724648,
				"element": "C" 
			},
			{
				"x": 0.4767567666,
				"y": -0.8853565506,
				"z": -0.1567663028,
				"element": "C" 
			},
			{
				"x": 0.6826938054,
				"y": -2.4010005923,
				"z": -0.3252866245,
				"element": "C" 
			},
			{
				"x": 3.4741060688,
				"y": -2.6201530994,
				"z": 6.1207583804,
				"element": "H" 
			},
			{
				"x": 2.9075800796,
				"y": -1.7841725058,
				"z": 7.5678460565,
				"element": "H" 
			},
			{
				"x": 1.7405157987,
				"y": -2.5248744321,
				"z": 6.4642173533,
				"element": "H" 
			},
			{
				"x": 3.5531761875,
				"y": -0.1386781092,
				"z": 5.7987788017,
				"element": "H" 
			},
			{
				"x": 0.5310525373,
				"y": -0.1888619128,
				"z": 6.3311053378,
				"element": "H" 
			},
			{
				"x": 1.7554093981,
				"y": 0.4547497591,
				"z": 7.4331459321,
				"element": "H" 
			},
			{
				"x": 1.4737117273,
				"y": 1.2357501543,
				"z": 5.8691741845,
				"element": "H" 
			},
			{
				"x": 2.0545107932,
				"y": 0.1191412145,
				"z": 3.7925195106,
				"element": "H" 
			},
			{
				"x": 1.3327520377,
				"y": -1.4405151125,
				"z": 4.1507410405,
				"element": "H" 
			},
			{
				"x": 3.62430244,
				"y": -2.5081397818,
				"z": 3.9256675538,
				"element": "H" 
			},
			{
				"x": 4.2923595991,
				"y": -0.9498446422,
				"z": 3.5063095193,
				"element": "H" 
			},
			{
				"x": 2.2106053348,
				"y": -2.5499426782,
				"z": 1.9214000502,
				"element": "H" 
			},
			{
				"x": 3.9257541283,
				"y": -2.476171506,
				"z": 1.592130345,
				"element": "H" 
			},
			{
				"x": 3.089076788,
				"y": -1.113981805,
				"z": -0.0276590803,
				"element": "H" 
			},
			{
				"x": 3.9333749584,
				"y": 1.1224420103,
				"z": 0.3774121365,
				"element": "H" 
			},
			{
				"x": 4.9214736988,
				"y": -0.0515276953,
				"z": 1.2431064726,
				"element": "H" 
			},
			{
				"x": 3.7623851886,
				"y": 0.9448809636,
				"z": 2.1265606431,
				"element": "H" 
			},
			{
				"x": 0.9451048315,
				"y": -0.3927991384,
				"z": 1.9206097087,
				"element": "H" 
			},
			{
				"x": 1.9493694006,
				"y": 1.9464863457,
				"z": 1.0096368828,
				"element": "H" 
			},
			{
				"x": 0.2316004813,
				"y": 1.6337881884,
				"z": 0.9571054529,
				"element": "H" 
			},
			{
				"x": 0.4577228537,
				"y": 2.0811020172,
				"z": -1.3379903154,
				"element": "H" 
			},
			{
				"x": 2.1538118843,
				"y": 1.673178128,
				"z": -1.3629604928,
				"element": "H" 
			},
			{
				"x": 1.84017139,
				"y": -0.5293584132,
				"z": -1.7821650474,
				"element": "H" 
			},
			{
				"x": 0.1902544862,
				"y": -1.2545119499,
				"z": -3.119421774,
				"element": "H" 
			},
			{
				"x": 0.1780714235,
				"y": 0.330503909,
				"z": -4.7495183524,
				"element": "H" 
			},
			{
				"x": 1.1986531108,
				"y": 1.2273751955,
				"z": -3.6379690779,
				"element": "H" 
			},
			{
				"x": -2.4532486516,
				"y": 3.1965541618,
				"z": -2.8179949612,
				"element": "H" 
			},
			{
				"x": -2.9875748344,
				"y": 2.9491984052,
				"z": -5.2339896481,
				"element": "H" 
			},
			{
				"x": -2.373265257,
				"y": 1.4820882737,
				"z": -5.9748158458,
				"element": "H" 
			},
			{
				"x": -5.8880954342,
				"y": 0.1770387118,
				"z": -4.2616940676,
				"element": "H" 
			},
			{
				"x": -5.3443979445,
				"y": 1.6265491436,
				"z": -3.4157051446,
				"element": "H" 
			},
			{
				"x": -4.3481346668,
				"y": -1.1369489346,
				"z": -3.0556601483,
				"element": "H" 
			},
			{
				"x": -4.2326155981,
				"y": 0.2624853407,
				"z": -2.0023414405,
				"element": "H" 
			},
			{
				"x": -2.4232928446,
				"y": -1.9550546552,
				"z": -4.2433382404,
				"element": "H" 
			},
			{
				"x": -1.3786960427,
				"y": -0.8217587346,
				"z": -5.0934717638,
				"element": "H" 
			},
			{
				"x": -3.1121800777,
				"y": -0.8010993284,
				"z": -5.3708166656,
				"element": "H" 
			},
			{
				"x": -1.7966389801,
				"y": -1.4932161269,
				"z": -2.1233945815,
				"element": "H" 
			},
			{
				"x": -2.8733833757,
				"y": 0.170630266,
				"z": -0.578854188,
				"element": "H" 
			},
			{
				"x": -1.5295150512,
				"y": 1.246860383,
				"z": -0.8347024548,
				"element": "H" 
			},
			{
				"x": -1.1151834993,
				"y": -0.1317140947,
				"z": 1.1685955924,
				"element": "H" 
			},
			{
				"x": -1.5384987076,
				"y": -1.5898756989,
				"z": 0.3059638478,
				"element": "H" 
			},
			{
				"x": 0.4016258159,
				"y": -2.9443403233,
				"z": 0.5832353532,
				"element": "H" 
			},
			{
				"x": 0.0512970617,
				"y": -2.7867977219,
				"z": -1.1338532009,
				"element": "H" 
			},
			{
				"x": 1.7168512814,
				"y": -2.6621989417,
				"z": -0.5685698384,
				"element": "H" 
			}
		],
		 "valence_orbital": [ 
			{
				"type": "occ",
				"energy": -0.28449,
				"method": "rhf"
			},
			{
				"type": "occ",
				"energy": -0.28236,
				"method": "rhf"
			},
			{
				"type": "occ",
				"energy": -0.27785,
				"method": "rhf"
			},
			{
				"type": "occ",
				"energy": -0.25753,
				"method": "rhf"
			},
			{
				"type": "occ",
				"energy": -0.23371,
				"method": "rhf"
			},
			{
				"type": "unocc",
				"energy": -0.03773,
				"method": "rhf"
			},
			{
				"type": "unocc",
				"energy": -0.01161,
				"method": "rhf"
			},
			{
				"type": "unocc",
				"energy": 0.05435,
				"method": "rhf"
			},
			{
				"type": "unocc",
				"energy": 0.06936,
				"method": "rhf"
			},
			{
				"type": "unocc",
				"energy": 0.07494,
				"method": "rhf"
			}
		],
		"cosmo_sigma_profile": { 
			"-0.025": 0.0,
			"-0.024": 0.0,
			"-0.023": 0.0,
			"-0.022": 0.0,
			"-0.021": 0.0,
			"-0.02": 0.0,
			"-0.019": 0.0,
			"-0.018": 0.0,
			"-0.017": 0.0,
			"-0.016": 0.0,
			"-0.015": 0.0,
			"-0.014": 0.0,
			"-0.013": 0.0,
			"-0.012": 0.340003036176,
			"-0.011": 0.641605218664,
			"-0.01": 0.704547088968,
			"-0.009": 1.13355739137,
			"-0.008": 1.74079892199,
			"-0.007": 4.76437893969,
			"-0.006": 7.04000975561,
			"-0.005": 8.41277621486,
			"-0.004": 15.1720225845,
			"-0.003": 37.9001879418,
			"-0.002": 72.7842181107,
			"-0.001": 87.6846565503,
			"0.0": 80.5415990833,
			"0.001": 57.783099363,
			"0.002": 38.9889839979,
			"0.003": 7.3737317947,
			"0.004": 4.65831326535,
			"0.005": 4.97153803421,
			"0.006": 3.69621643811,
			"0.007": 4.47817578906,
			"0.008": 3.1219495817,
			"0.009": 4.68996960061,
			"0.01": 5.31804736987,
			"0.011": 6.2035714049,
			"0.012": 6.41869814124,
			"0.013": 3.51275701686,
			"0.014": 0.304071647568,
			"0.015": 0.0,
			"0.016": 0.0,
			"0.017": 0.0,
			"0.018": 0.0,
			"0.019": 0.0,
			"0.02": 0.0,
			"0.021": 0.0,
			"0.022": 0.0,
			"0.023": 0.0,
			"0.024": 0.0,
			"0.025": 0.0
		}
	}
}
