{
	 "smiles": "SC1=NC2=C(C=CC=C2)C=C1", 
	 "Tm": 447.15, 
	 "num_atms": 18, 
	 "gaussian": { 
		 "optdone": 1, 
		 "sigma_profile": "yes", 
		 "theory": "DFT", 
		 "functional": "B3LYP", 
		 "basiset": "6-31G**", 
		 "properties": { 
			 "R2extent": 3241.8351, 
			 "electric_dipole_moment_norm": 2.01086805882, 
			 "electric_quadrupole_moment_norm": 6.5670678122, 
			 "total_energy": -800.12319634, 
			 "HOMO_LUMO_gap": 0.16982, 
			 "cosmo_polarized_energy": -7.06, 
			 "cosmo_cavitation_energy": 23.7, 
			 "cosmo_dispersion_energy": -18.4, 
			 "cosmo_repulsion_energy": 1.41, 
			 "cosmo_total_nonelectrostatic_energy": 6.71, 
			 "SMD_solvation_energy": 2.0 
		},
		"coords": [
			{
				"x": -3.5779269446,
				"y": -0.0472706833,
				"z": -0.0967675805,
				"element": "S" 
			},
			{
				"x": -1.9308853686,
				"y": -0.507178403,
				"z": -0.619510273,
				"element": "C" 
			},
			{
				"x": -1.7733670841,
				"y": -1.6251623709,
				"z": -1.2894050469,
				"element": "N" 
			},
			{
				"x": -0.5101575049,
				"y": -1.9680587894,
				"z": -1.6845972629,
				"element": "C" 
			},
			{
				"x": 0.6306174869,
				"y": -1.1560020152,
				"z": -1.3940108971,
				"element": "C" 
			},
			{
				"x": 1.9114915491,
				"y": -1.5735928177,
				"z": -1.8351110195,
				"element": "C" 
			},
			{
				"x": 2.0587768318,
				"y": -2.750217925,
				"z": -2.5372845864,
				"element": "C" 
			},
			{
				"x": 0.9288900471,
				"y": -3.5543049165,
				"z": -2.8249513293,
				"element": "C" 
			},
			{
				"x": -0.3289205512,
				"y": -3.1744025713,
				"z": -2.4092085052,
				"element": "C" 
			},
			{
				"x": 0.4044832057,
				"y": 0.0434834779,
				"z": -0.6663992707,
				"element": "C" 
			},
			{
				"x": -0.8659709525,
				"y": 0.3770649363,
				"z": -0.2754530913,
				"element": "C" 
			},
			{
				"x": -4.1660762087,
				"y": -1.1334902853,
				"z": -0.6324049081,
				"element": "H" 
			},
			{
				"x": 2.7738861073,
				"y": -0.950840932,
				"z": -1.6103753524,
				"element": "H" 
			},
			{
				"x": 3.0421004142,
				"y": -3.0656702216,
				"z": -2.8729675488,
				"element": "H" 
			},
			{
				"x": 1.0596187193,
				"y": -4.4792795588,
				"z": -3.3792547188,
				"element": "H" 
			},
			{
				"x": -1.2080470689,
				"y": -3.7749637541,
				"z": -2.6185274086,
				"element": "H" 
			},
			{
				"x": 1.2451949182,
				"y": 0.6892033703,
				"z": -0.4250465016,
				"element": "H" 
			},
			{
				"x": -1.0679075961,
				"y": 1.2863834597,
				"z": 0.2808753011,
				"element": "H" 
			}
		],
		 "valence_orbital": [ 
			{
				"type": "occ",
				"energy": -0.31054,
				"method": "rhf"
			},
			{
				"type": "occ",
				"energy": -0.2829,
				"method": "rhf"
			},
			{
				"type": "occ",
				"energy": -0.26163,
				"method": "rhf"
			},
			{
				"type": "occ",
				"energy": -0.24046,
				"method": "rhf"
			},
			{
				"type": "occ",
				"energy": -0.22399,
				"method": "rhf"
			},
			{
				"type": "unocc",
				"energy": -0.05417,
				"method": "rhf"
			},
			{
				"type": "unocc",
				"energy": -0.01845,
				"method": "rhf"
			},
			{
				"type": "unocc",
				"energy": 0.01762,
				"method": "rhf"
			},
			{
				"type": "unocc",
				"energy": 0.01837,
				"method": "rhf"
			},
			{
				"type": "unocc",
				"energy": 0.07794,
				"method": "rhf"
			}
		],
		"cosmo_sigma_profile": { 
			"-0.025": 0.0,
			"-0.024": 0.0,
			"-0.023": 0.0,
			"-0.022": 0.0,
			"-0.021": 0.0,
			"-0.02": 0.0,
			"-0.019": 0.0,
			"-0.018": 0.0,
			"-0.017": 0.0,
			"-0.016": 0.0,
			"-0.015": 0.0,
			"-0.014": 0.0,
			"-0.013": 0.0,
			"-0.012": 0.0,
			"-0.011": 0.397241910722,
			"-0.01": 1.58885096102,
			"-0.009": 0.944638951636,
			"-0.008": 2.78969267872,
			"-0.007": 8.40702091167,
			"-0.006": 11.9426134259,
			"-0.005": 13.1605505482,
			"-0.004": 12.7790090685,
			"-0.003": 10.3043522359,
			"-0.002": 10.1189751758,
			"-0.001": 8.1924097595,
			"0.0": 12.3438749418,
			"0.001": 16.7941875278,
			"0.002": 22.1197694873,
			"0.003": 20.0985008966,
			"0.004": 16.9243732519,
			"0.005": 8.92828065937,
			"0.006": 4.13321156446,
			"0.007": 3.99841837726,
			"0.008": 3.05520253853,
			"0.009": 1.12140120451,
			"0.01": 0.600984804384,
			"0.011": 1.42827617874,
			"0.012": 0.816455967663,
			"0.013": 0.290281519129,
			"0.014": 0.0,
			"0.015": 0.0,
			"0.016": 0.0,
			"0.017": 0.0,
			"0.018": 0.0,
			"0.019": 0.0,
			"0.02": 0.0,
			"0.021": 0.0,
			"0.022": 0.0,
			"0.023": 0.0,
			"0.024": 0.0,
			"0.025": 0.0
		}
	}
}
