{
	 "smiles": "FC1=CC=C(C=C1)C1=CC=C(O1)C=O", 
	 "Tm": 353.15, 
	 "num_atms": 21, 
	 "gaussian": { 
		 "optdone": 1, 
		 "sigma_profile": "yes", 
		 "theory": "DFT", 
		 "functional": "B3LYP", 
		 "basiset": "6-31G**", 
		 "properties": { 
			 "R2extent": 4315.1959, 
			 "electric_dipole_moment_norm": 3.19632896617, 
			 "electric_quadrupole_moment_norm": 19.9736459176, 
			 "total_energy": -673.645405024, 
			 "HOMO_LUMO_gap": 0.14986, 
			 "cosmo_polarized_energy": -9.44, 
			 "cosmo_cavitation_energy": 27.28, 
			 "cosmo_dispersion_energy": -19.63, 
			 "cosmo_repulsion_energy": 1.49, 
			 "cosmo_total_nonelectrostatic_energy": 9.15, 
			 "SMD_solvation_energy": 6.7 
		},
		"coords": [
			{
				"x": -2.3104655262,
				"y": -3.297589334,
				"z": 3.3128559848,
				"element": "F" 
			},
			{
				"x": -1.5088166084,
				"y": -2.5099150919,
				"z": 2.5706393058,
				"element": "C" 
			},
			{
				"x": -0.2478868784,
				"y": -2.9740242025,
				"z": 2.211402021,
				"element": "C" 
			},
			{
				"x": 0.5760580588,
				"y": -2.1559986426,
				"z": 1.4445504513,
				"element": "C" 
			},
			{
				"x": 0.1463653482,
				"y": -0.8797126246,
				"z": 1.0363635966,
				"element": "C" 
			},
			{
				"x": -1.1358341429,
				"y": -0.4435805999,
				"z": 1.4186452265,
				"element": "C" 
			},
			{
				"x": -1.9668144683,
				"y": -1.2535198117,
				"z": 2.184889171,
				"element": "C" 
			},
			{
				"x": 1.0093850391,
				"y": -0.0235248614,
				"z": 0.2333495359,
				"element": "C" 
			},
			{
				"x": 0.8551713787,
				"y": 1.2433724523,
				"z": -0.2972175303,
				"element": "C" 
			},
			{
				"x": 2.051464901,
				"y": 1.545078934,
				"z": -0.9901230133,
				"element": "C" 
			},
			{
				"x": 2.873758686,
				"y": 0.4523183967,
				"z": -0.8494513009,
				"element": "C" 
			},
			{
				"x": 2.2357841005,
				"y": -0.5072463533,
				"z": -0.1008115006,
				"element": "O" 
			},
			{
				"x": 4.213950836,
				"y": 0.155757556,
				"z": -1.3246608461,
				"element": "C" 
			},
			{
				"x": 4.8781520378,
				"y": 0.9284372943,
				"z": -1.996606022,
				"element": "O" 
			},
			{
				"x": 0.0716710157,
				"y": -3.9594436276,
				"z": 2.5321713556,
				"element": "H" 
			},
			{
				"x": 1.561724856,
				"y": -2.5032843591,
				"z": 1.1563609953,
				"element": "H" 
			},
			{
				"x": -1.4883641214,
				"y": 0.5369363526,
				"z": 1.1153304045,
				"element": "H" 
			},
			{
				"x": -2.9566989038,
				"y": -0.9284864057,
				"z": 2.485538988,
				"element": "H" 
			},
			{
				"x": -0.0138076247,
				"y": 1.877084297,
				"z": -0.1986749429,
				"element": "H" 
			},
			{
				"x": 2.2996888503,
				"y": 2.4460012732,
				"z": -1.5318217337,
				"element": "H" 
			},
			{
				"x": 4.593213166,
				"y": -0.8438606419,
				"z": -1.0245301466,
				"element": "H" 
			}
		],
		 "valence_orbital": [ 
			{
				"type": "occ",
				"energy": -0.30265,
				"method": "rhf"
			},
			{
				"type": "occ",
				"energy": -0.28603,
				"method": "rhf"
			},
			{
				"type": "occ",
				"energy": -0.27616,
				"method": "rhf"
			},
			{
				"type": "occ",
				"energy": -0.25632,
				"method": "rhf"
			},
			{
				"type": "occ",
				"energy": -0.22225,
				"method": "rhf"
			},
			{
				"type": "unocc",
				"energy": -0.07239,
				"method": "rhf"
			},
			{
				"type": "unocc",
				"energy": -0.02667,
				"method": "rhf"
			},
			{
				"type": "unocc",
				"energy": -0.02004,
				"method": "rhf"
			},
			{
				"type": "unocc",
				"energy": 0.05694,
				"method": "rhf"
			},
			{
				"type": "unocc",
				"energy": 0.07291,
				"method": "rhf"
			}
		],
		"cosmo_sigma_profile": { 
			"-0.025": 0.0,
			"-0.024": 0.0,
			"-0.023": 0.0,
			"-0.022": 0.0,
			"-0.021": 0.0,
			"-0.02": 0.0,
			"-0.019": 0.0,
			"-0.018": 0.0,
			"-0.017": 0.0,
			"-0.016": 0.0,
			"-0.015": 0.0,
			"-0.014": 0.0,
			"-0.013": 0.0,
			"-0.012": 0.0,
			"-0.011": 0.0,
			"-0.01": 0.10163163324,
			"-0.009": 2.34906726801,
			"-0.008": 5.92953784678,
			"-0.007": 9.46518379477,
			"-0.006": 13.7778010727,
			"-0.005": 12.0104464306,
			"-0.004": 11.1023064277,
			"-0.003": 11.2561237321,
			"-0.002": 11.5141402963,
			"-0.001": 12.8513082094,
			"0.0": 25.2087518186,
			"0.001": 27.1161071748,
			"0.002": 22.3569265918,
			"0.003": 21.3595126422,
			"0.004": 12.5611146079,
			"0.005": 2.86933288006,
			"0.006": 1.40756983963,
			"0.007": 1.61218107974,
			"0.008": 1.50119078979,
			"0.009": 1.83247648825,
			"0.01": 2.53035687212,
			"0.011": 3.74096988393,
			"0.012": 4.35317006557,
			"0.013": 1.75430357719,
			"0.014": 0.0978639128607,
			"0.015": 0.0,
			"0.016": 0.0,
			"0.017": 0.0,
			"0.018": 0.0,
			"0.019": 0.0,
			"0.02": 0.0,
			"0.021": 0.0,
			"0.022": 0.0,
			"0.023": 0.0,
			"0.024": 0.0,
			"0.0": 0.0
		}
	}
}
