{
	 "smiles": "C1CNCC(C1)C1=NC(=CN1)C1=CC=CC=C1", 
	 "Tm": 367.15, 
	 "num_atms": 34, 
	 "gaussian": { 
		 "optdone": 1, 
		 "sigma_profile": "yes", 
		 "theory": "DFT", 
		 "functional": "B3LYP", 
		 "basiset": "6-31G**", 
		 "properties": { 
			 "R2extent": 6345.806, 
			 "electric_dipole_moment_norm": 2.56019050268, 
			 "electric_quadrupole_moment_norm": 12.2593344526, 
			 "total_energy": -707.992122702, 
			 "HOMO_LUMO_gap": 0.18911, 
			 "cosmo_polarized_energy": -15.54, 
			 "cosmo_cavitation_energy": 35.8, 
			 "cosmo_dispersion_energy": -26.24, 
			 "cosmo_repulsion_energy": 2.04, 
			 "cosmo_total_nonelectrostatic_energy": 11.59, 
			 "SMD_solvation_energy": 1.82 
		},
		"coords": [
			{
				"x": 3.6049347784,
				"y": -0.4947595812,
				"z": -0.7314719457,
				"element": "C" 
			},
			{
				"x": 4.3212484678,
				"y": -1.783313732,
				"z": -0.3086574907,
				"element": "C" 
			},
			{
				"x": 3.4067017326,
				"y": -2.9353431776,
				"z": -0.1704177004,
				"element": "N" 
			},
			{
				"x": 1.9995170053,
				"y": -2.5761009313,
				"z": 0.0602152583,
				"element": "C" 
			},
			{
				"x": 1.9246798654,
				"y": -1.3585770522,
				"z": 1.0043570956,
				"element": "C" 
			},
			{
				"x": 2.5226011584,
				"y": -0.1096207856,
				"z": 0.3020657268,
				"element": "C" 
			},
			{
				"x": 0.520345613,
				"y": -1.1139887954,
				"z": 1.4769962132,
				"element": "C" 
			},
			{
				"x": -0.4164562899,
				"y": -0.4442843701,
				"z": 0.8395336367,
				"element": "N" 
			},
			{
				"x": -1.5603510271,
				"y": -0.5232848474,
				"z": 1.6165901399,
				"element": "C" 
			},
			{
				"x": -1.2952019269,
				"y": -1.2643423879,
				"z": 2.7501481803,
				"element": "C" 
			},
			{
				"x": 0.0290900924,
				"y": -1.6330367145,
				"z": 2.6472856381,
				"element": "N" 
			},
			{
				"x": -2.8131976995,
				"y": 0.1250280974,
				"z": 1.2056593881,
				"element": "C" 
			},
			{
				"x": -3.9795977039,
				"y": 0.0406787084,
				"z": 1.9852630193,
				"element": "C" 
			},
			{
				"x": -5.1571306359,
				"y": 0.6633349454,
				"z": 1.5774613506,
				"element": "C" 
			},
			{
				"x": -5.1955294248,
				"y": 1.3838321607,
				"z": 0.381116166,
				"element": "C" 
			},
			{
				"x": -4.0424451978,
				"y": 1.473516368,
				"z": -0.4015311193,
				"element": "C" 
			},
			{
				"x": -2.8633063979,
				"y": 0.8516163359,
				"z": 0.0045214128,
				"element": "C" 
			},
			{
				"x": 3.1472673857,
				"y": -0.6486358847,
				"z": -1.7166930089,
				"element": "H" 
			},
			{
				"x": 4.3264524775,
				"y": 0.3218412108,
				"z": -0.8487358843,
				"element": "H" 
			},
			{
				"x": 5.1077754234,
				"y": -2.047618613,
				"z": -1.0234779821,
				"element": "H" 
			},
			{
				"x": 4.8295922784,
				"y": -1.6083735596,
				"z": 0.6515425515,
				"element": "H" 
			},
			{
				"x": 3.4658671433,
				"y": -3.5178017083,
				"z": -0.9989421316,
				"element": "H" 
			},
			{
				"x": 1.4862975916,
				"y": -3.4355973748,
				"z": 0.5096583267,
				"element": "H" 
			},
			{
				"x": 1.4438271007,
				"y": -2.3216635678,
				"z": -0.8586519122,
				"element": "H" 
			},
			{
				"x": 2.5369257377,
				"y": -1.6090872879,
				"z": 1.8821518759,
				"element": "H" 
			},
			{
				"x": 2.9430515658,
				"y": 0.5568485408,
				"z": 1.0639236137,
				"element": "H" 
			},
			{
				"x": 1.7098985487,
				"y": 0.4371273418,
				"z": -0.1835565101,
				"element": "H" 
			},
			{
				"x": -1.8995636797,
				"y": -1.5471636455,
				"z": 3.5975296141,
				"element": "H" 
			},
			{
				"x": 0.5469743467,
				"y": -2.1811635277,
				"z": 3.3175146572,
				"element": "H" 
			},
			{
				"x": -3.9688340759,
				"y": -0.5163277,
				"z": 2.9182604666,
				"element": "H" 
			},
			{
				"x": -6.0476782086,
				"y": 0.5856071571,
				"z": 2.1952698618,
				"element": "H" 
			},
			{
				"x": -6.1140870162,
				"y": 1.8690035222,
				"z": 0.063577217,
				"element": "H" 
			},
			{
				"x": -4.0609320294,
				"y": 2.0312043865,
				"z": -1.3340728194,
				"element": "H" 
			},
			{
				"x": -1.9636369995,
				"y": 0.9164464695,
				"z": -0.5975329053,
				"element": "H" 
			}
		],
		 "valence_orbital": [ 
			{
				"type": "occ",
				"energy": -0.26414,
				"method": "rhf"
			},
			{
				"type": "occ",
				"energy": -0.25054,
				"method": "rhf"
			},
			{
				"type": "occ",
				"energy": -0.23741,
				"method": "rhf"
			},
			{
				"type": "occ",
				"energy": -0.21072,
				"method": "rhf"
			},
			{
				"type": "occ",
				"energy": -0.19789,
				"method": "rhf"
			},
			{
				"type": "unocc",
				"energy": -0.00878,
				"method": "rhf"
			},
			{
				"type": "unocc",
				"energy": 0.01118,
				"method": "rhf"
			},
			{
				"type": "unocc",
				"energy": 0.03481,
				"method": "rhf"
			},
			{
				"type": "unocc",
				"energy": 0.06782,
				"method": "rhf"
			},
			{
				"type": "unocc",
				"energy": 0.08127,
				"method": "rhf"
			}
		],
		"cosmo_sigma_profile": { 
			"-0.025": 0.0,
			"-0.024": 0.0,
			"-0.023": 0.0,
			"-0.022": 0.0,
			"-0.021": 0.0,
			"-0.02": 0.0,
			"-0.019": 0.0,
			"-0.018": 0.0,
			"-0.017": 0.0,
			"-0.016": 1.01357670634,
			"-0.015": 1.72213213189,
			"-0.014": 1.19934035896,
			"-0.013": 1.54849469457,
			"-0.012": 1.02545347273,
			"-0.011": 1.55137477982,
			"-0.01": 1.78046008667,
			"-0.009": 3.09175611713,
			"-0.008": 5.78413485518,
			"-0.007": 5.20289553768,
			"-0.006": 5.88429295098,
			"-0.005": 12.7869077781,
			"-0.004": 14.2534710596,
			"-0.003": 24.303947335,
			"-0.002": 32.1656913082,
			"-0.001": 28.8256878287,
			"0.0": 22.2863471816,
			"0.001": 19.0534401487,
			"0.002": 12.6177489507,
			"0.003": 13.4540592782,
			"0.004": 16.3084351785,
			"0.005": 18.9034424164,
			"0.006": 13.7431511465,
			"0.007": 6.70209085864,
			"0.008": 2.99936047653,
			"0.009": 2.42449410658,
			"0.01": 2.49489865177,
			"0.011": 2.29861791806,
			"0.012": 1.83063816299,
			"0.013": 1.50801494292,
			"0.014": 1.05674090604,
			"0.015": 0.333017769408,
			"0.016": 0.038834331074,
			"0.017": 0.576791246852,
			"0.018": 0.664820165733,
			"0.019": 0.293978976207,
			"0.02": 0.0,
			"0.021": 0.0,
			"0.022": 0.0,
			"0.023": 0.0,
			"0.024": 0.0,
			"0.025": 0.0
		}
	}
}
