{
	 "smiles": "CN1C(S)=NN=C1C1CCS(=O)(=O)C1", 
	 "Tm": 425.15, 
	 "num_atms": 25, 
	 "gaussian": { 
		 "optdone": 1, 
		 "sigma_profile": "yes", 
		 "theory": "DFT", 
		 "functional": "B3LYP", 
		 "basiset": "6-31G**", 
		 "properties": { 
			 "R2extent": 4915.9947, 
			 "electric_dipole_moment_norm": 8.05976824233, 
			 "electric_quadrupole_moment_norm": 19.3087269518, 
			 "total_energy": -1384.36053895, 
			 "HOMO_LUMO_gap": 0.23472, 
			 "cosmo_polarized_energy": -27.81, 
			 "cosmo_cavitation_energy": 30.77, 
			 "cosmo_dispersion_energy": -23.31, 
			 "cosmo_repulsion_energy": 1.73, 
			 "cosmo_total_nonelectrostatic_energy": 9.2, 
			 "SMD_solvation_energy": 1.95 
		},
		"coords": [
			{
				"x": 1.5805931163,
				"y": -0.0753163658,
				"z": -1.802460902,
				"element": "C" 
			},
			{
				"x": 0.1594479111,
				"y": -0.3648772057,
				"z": -1.9318782248,
				"element": "N" 
			},
			{
				"x": -0.4459719428,
				"y": -1.0594050341,
				"z": -2.9509992244,
				"element": "C" 
			},
			{
				"x": 0.4644781086,
				"y": -1.7218916455,
				"z": -4.3123691178,
				"element": "S" 
			},
			{
				"x": -1.7418122833,
				"y": -1.1422313817,
				"z": -2.7682464199,
				"element": "N" 
			},
			{
				"x": -2.0162120038,
				"y": -0.4802261802,
				"z": -1.5873167938,
				"element": "N" 
			},
			{
				"x": -0.8889453091,
				"y": -0.0241227195,
				"z": -1.0970823783,
				"element": "C" 
			},
			{
				"x": -0.7337084028,
				"y": 0.7002017186,
				"z": 0.2113044414,
				"element": "C" 
			},
			{
				"x": -0.2643881277,
				"y": -0.2820648953,
				"z": 1.3479134095,
				"element": "C" 
			},
			{
				"x": -1.5152124837,
				"y": -0.8562227218,
				"z": 2.0076105461,
				"element": "C" 
			},
			{
				"x": -2.5365195894,
				"y": 0.6318118339,
				"z": 2.2524857398,
				"element": "S" 
			},
			{
				"x": -1.8936264638,
				"y": 1.439970113,
				"z": 3.3051886339,
				"element": "O" 
			},
			{
				"x": -3.9693826869,
				"y": 0.3202837107,
				"z": 2.3213500585,
				"element": "O" 
			},
			{
				"x": -2.0792289246,
				"y": 1.3500854207,
				"z": 0.6301655325,
				"element": "C" 
			},
			{
				"x": 1.7295626012,
				"y": 0.6827410624,
				"z": -1.0334835321,
				"element": "H" 
			},
			{
				"x": 2.141626751,
				"y": -0.9736908793,
				"z": -1.5265916577,
				"element": "H" 
			},
			{
				"x": 1.969146296,
				"y": 0.3115049928,
				"z": -2.7483080812,
				"element": "H" 
			},
			{
				"x": -0.650342712,
				"y": -2.1482483251,
				"z": -4.93511478,
				"element": "H" 
			},
			{
				"x": 0.0239364733,
				"y": 1.4821961466,
				"z": 0.0985202726,
				"element": "H" 
			},
			{
				"x": 0.3126778458,
				"y": 0.2723656833,
				"z": 2.0931246829,
				"element": "H" 
			},
			{
				"x": 0.3728757237,
				"y": -1.0729526521,
				"z": 0.9431625746,
				"element": "H" 
			},
			{
				"x": -1.3431731449,
				"y": -1.3187957505,
				"z": 2.9806555339,
				"element": "H" 
			},
			{
				"x": -2.0695068607,
				"y": -1.5328818884,
				"z": 1.3516626511,
				"element": "H" 
			},
			{
				"x": -2.879445754,
				"y": 1.1049482851,
				"z": -0.0688436917,
				"element": "H" 
			},
			{
				"x": -2.0103681376,
				"y": 2.4288186779,
				"z": 0.775050727,
				"element": "H" 
			}
		],
		 "valence_orbital": [ 
			{
				"type": "occ",
				"energy": -0.30542,
				"method": "rhf"
			},
			{
				"type": "occ",
				"energy": -0.29171,
				"method": "rhf"
			},
			{
				"type": "occ",
				"energy": -0.27983,
				"method": "rhf"
			},
			{
				"type": "occ",
				"energy": -0.26953,
				"method": "rhf"
			},
			{
				"type": "occ",
				"energy": -0.24315,
				"method": "rhf"
			},
			{
				"type": "unocc",
				"energy": -0.00843,
				"method": "rhf"
			},
			{
				"type": "unocc",
				"energy": -0.00222,
				"method": "rhf"
			},
			{
				"type": "unocc",
				"energy": 0.02602,
				"method": "rhf"
			},
			{
				"type": "unocc",
				"energy": 0.04214,
				"method": "rhf"
			},
			{
				"type": "unocc",
				"energy": 0.05232,
				"method": "rhf"
			}
		],
		"cosmo_sigma_profile": { 
			"-0.025": 0.0,
			"-0.024": 0.0,
			"-0.023": 0.0,
			"-0.022": 0.0,
			"-0.021": 0.0,
			"-0.02": 0.0,
			"-0.019": 0.0,
			"-0.018": 0.0,
			"-0.017": 0.0,
			"-0.016": 0.0,
			"-0.015": 0.0,
			"-0.014": 0.0,
			"-0.013": 0.132309423917,
			"-0.012": 1.40957201317,
			"-0.011": 1.72857650307,
			"-0.01": 2.59431620361,
			"-0.009": 5.10971955149,
			"-0.008": 11.9235518905,
			"-0.007": 17.4181943099,
			"-0.006": 23.0152883625,
			"-0.005": 23.64324753,
			"-0.004": 22.7712956465,
			"-0.003": 12.9220391173,
			"-0.002": 9.57764161368,
			"-0.001": 8.83801241918,
			"0.0": 7.51194511675,
			"0.001": 9.05055446263,
			"0.002": 9.16579229246,
			"0.003": 7.01495724626,
			"0.004": 6.5622512741,
			"0.005": 4.54087586564,
			"0.006": 6.84497831752,
			"0.007": 4.83358935185,
			"0.008": 3.54160652777,
			"0.009": 4.66336183345,
			"0.01": 5.49066185782,
			"0.011": 12.9314233621,
			"0.012": 12.0090322157,
			"0.013": 5.31668468287,
			"0.014": 2.71295174162,
			"0.015": 1.82648506271,
			"0.016": 0.885379367718,
			"0.017": 0.287514962242,
			"0.018": 0.0,
			"0.019": 0.0,
			"0.02": 0.0,
			"0.021": 0.0,
			"0.022": 0.0,
			"0.023": 0.0,
			"0.024": 0.0,
			"0.025": 0.0
		}
	}
}
