{
	 "smiles": "CC(C)(C)OC(=O)C(C)(C)SC1=CC=C(Cl)C=C1", 
	 "Tm": 318.15, 
	 "num_atms": 37, 
	 "gaussian": { 
		 "optdone": 1, 
		 "sigma_profile": "yes", 
		 "theory": "DFT", 
		 "functional": "B3LYP", 
		 "basiset": "6-31G**", 
		 "properties": { 
			 "R2extent": 6337.5944, 
			 "electric_dipole_moment_norm": 2.13382614803, 
			 "electric_quadrupole_moment_norm": 15.4435104788, 
			 "total_energy": -1553.80112246, 
			 "HOMO_LUMO_gap": 0.19348, 
			 "cosmo_polarized_energy": -9.41, 
			 "cosmo_cavitation_energy": 41.84, 
			 "cosmo_dispersion_energy": -27.26, 
			 "cosmo_repulsion_energy": 2.06, 
			 "cosmo_total_nonelectrostatic_energy": 16.64, 
			 "SMD_solvation_energy": 7.1 
		},
		"coords": [
			{
				"x": -1.3353365671,
				"y": 1.4659951963,
				"z": -3.2808075331,
				"element": "C" 
			},
			{
				"x": -0.7156423893,
				"y": 0.0813785793,
				"z": -3.0675463795,
				"element": "C" 
			},
			{
				"x": -1.3524920628,
				"y": -0.9816348576,
				"z": -3.9688207933,
				"element": "C" 
			},
			{
				"x": 0.8014778471,
				"y": 0.1256172235,
				"z": -3.2627137233,
				"element": "C" 
			},
			{
				"x": -0.8457518404,
				"y": -0.3273150378,
				"z": -1.6517755545,
				"element": "O" 
			},
			{
				"x": -2.0463535766,
				"y": -0.4958821102,
				"z": -1.070583826,
				"element": "C" 
			},
			{
				"x": -3.1196420007,
				"y": -0.3002754188,
				"z": -1.6048098396,
				"element": "O" 
			},
			{
				"x": -1.9006338251,
				"y": -0.9857156363,
				"z": 0.3801729823,
				"element": "C" 
			},
			{
				"x": -3.239412835,
				"y": -1.573821005,
				"z": 0.8465813193,
				"element": "C" 
			},
			{
				"x": -0.7625026584,
				"y": -1.9959059692,
				"z": 0.5450796205,
				"element": "C" 
			},
			{
				"x": -1.6731064541,
				"y": 0.5275584039,
				"z": 1.4900206579,
				"element": "S" 
			},
			{
				"x": -0.0167489346,
				"y": 1.1347673637,
				"z": 1.1812578548,
				"element": "C" 
			},
			{
				"x": 0.174266444,
				"y": 2.2500412131,
				"z": 0.3532074679,
				"element": "C" 
			},
			{
				"x": 1.4450947593,
				"y": 2.7943221753,
				"z": 0.1690055451,
				"element": "C" 
			},
			{
				"x": 2.5334387,
				"y": 2.2119010381,
				"z": 0.8190698666,
				"element": "C" 
			},
			{
				"x": 4.1382967363,
				"y": 2.8879362425,
				"z": 0.5891874651,
				"element": "Cl" 
			},
			{
				"x": 2.3681244378,
				"y": 1.1100896182,
				"z": 1.6580071183,
				"element": "C" 
			},
			{
				"x": 1.0901781238,
				"y": 0.5830240871,
				"z": 1.8428245325,
				"element": "C" 
			},
			{
				"x": -0.8784376087,
				"y": 2.196384186,
				"z": -2.6067320469,
				"element": "H" 
			},
			{
				"x": -2.4116110447,
				"y": 1.4473900409,
				"z": -3.109023422,
				"element": "H" 
			},
			{
				"x": -1.1474277099,
				"y": 1.7923347586,
				"z": -4.3089255747,
				"element": "H" 
			},
			{
				"x": -1.1446106012,
				"y": -0.7427610912,
				"z": -5.0167736906,
				"element": "H" 
			},
			{
				"x": -0.9256966045,
				"y": -1.9668076401,
				"z": -3.7556449019,
				"element": "H" 
			},
			{
				"x": -2.432781282,
				"y": -1.0240671992,
				"z": -3.8273026836,
				"element": "H" 
			},
			{
				"x": 1.0388648735,
				"y": 0.4260469934,
				"z": -4.287673836,
				"element": "H" 
			},
			{
				"x": 1.2583235268,
				"y": 0.8420831283,
				"z": -2.5745444545,
				"element": "H" 
			},
			{
				"x": 1.2438883621,
				"y": -0.8578851978,
				"z": -3.0794702171,
				"element": "H" 
			},
			{
				"x": -3.4850093795,
				"y": -2.4492835241,
				"z": 0.2374301596,
				"element": "H" 
			},
			{
				"x": -3.172799594,
				"y": -1.8835104114,
				"z": 1.8926968137,
				"element": "H" 
			},
			{
				"x": -4.0512424969,
				"y": -0.8538871565,
				"z": 0.7312213521,
				"element": "H" 
			},
			{
				"x": -0.9445436436,
				"y": -2.8640474204,
				"z": -0.0996057122,
				"element": "H" 
			},
			{
				"x": 0.2025534529,
				"y": -1.5714401754,
				"z": 0.268052347,
				"element": "H" 
			},
			{
				"x": -0.7183166157,
				"y": -2.3442362762,
				"z": 1.5809333872,
				"element": "H" 
			},
			{
				"x": -0.6809486882,
				"y": 2.6989306193,
				"z": -0.1404867676,
				"element": "H" 
			},
			{
				"x": 1.5908414012,
				"y": 3.660784261,
				"z": -0.4666954719,
				"element": "H" 
			},
			{
				"x": 3.223713443,
				"y": 0.6806771201,
				"z": 2.1674016307,
				"element": "H" 
			},
			{
				"x": 0.9493863055,
				"y": -0.2574861213,
				"z": 2.5138863076,
				"element": "H" 
			}
		],
		 "valence_orbital": [ 
			{
				"type": "occ",
				"energy": -0.29715,
				"method": "rhf"
			},
			{
				"type": "occ",
				"energy": -0.27157,
				"method": "rhf"
			},
			{
				"type": "occ",
				"energy": -0.26812,
				"method": "rhf"
			},
			{
				"type": "occ",
				"energy": -0.25171,
				"method": "rhf"
			},
			{
				"type": "occ",
				"energy": -0.23289,
				"method": "rhf"
			},
			{
				"type": "unocc",
				"energy": -0.03941,
				"method": "rhf"
			},
			{
				"type": "unocc",
				"energy": -0.02239,
				"method": "rhf"
			},
			{
				"type": "unocc",
				"energy": 0.00317,
				"method": "rhf"
			},
			{
				"type": "unocc",
				"energy": 0.02087,
				"method": "rhf"
			},
			{
				"type": "unocc",
				"energy": 0.05713,
				"method": "rhf"
			}
		],
		"cosmo_sigma_profile": { 
			"-0.025": 0.0,
			"-0.024": 0.0,
			"-0.023": 0.0,
			"-0.022": 0.0,
			"-0.021": 0.0,
			"-0.02": 0.0,
			"-0.019": 0.0,
			"-0.018": 0.0,
			"-0.017": 0.0,
			"-0.016": 0.0,
			"-0.015": 0.0,
			"-0.014": 0.0,
			"-0.013": 0.0,
			"-0.012": 0.0,
			"-0.011": 0.0,
			"-0.01": 0.0,
			"-0.009": 0.0,
			"-0.008": 0.995480159071,
			"-0.007": 5.3503312692,
			"-0.006": 9.1948618838,
			"-0.005": 12.5197299628,
			"-0.004": 26.2112102791,
			"-0.003": 28.4151123136,
			"-0.002": 33.0547070463,
			"-0.001": 39.7747020537,
			"0.0": 48.8290103998,
			"0.001": 34.0163781844,
			"0.002": 24.239048704,
			"0.003": 17.6702906269,
			"0.004": 17.6734839103,
			"0.005": 11.4992322085,
			"0.006": 5.93542214094,
			"0.007": 4.33859278403,
			"0.008": 3.64833690929,
			"0.009": 2.47313447727,
			"0.01": 1.61861683647,
			"0.011": 2.2771940852,
			"0.012": 2.45560192405,
			"0.013": 0.358995389293,
			"0.014": 0.0,
			"0.015": 0.0,
			"0.016": 0.0,
			"0.017": 0.0,
			"0.018": 0.0,
			"0.019": 0.0,
			"0.02": 0.0,
			"0.021": 0.0,
			"0.022": 0.0,
			"0.023": 0.0,
			"0.024": 0.0,
			"0.025": 0.0
		}
	}
}
