{
	 "smiles": "CCCCCCCCC(=O)OCCCC", 
	 "Tm": 235.15, 
	 "num_atms": 41, 
	 "gaussian": { 
		 "optdone": 1, 
		 "sigma_profile": "yes", 
		 "theory": "DFT", 
		 "functional": "B3LYP", 
		 "basiset": "6-31G**", 
		 "properties": { 
			 "R2extent": 6990.6652, 
			 "electric_dipole_moment_norm": 2.09897537623, 
			 "electric_quadrupole_moment_norm": 12.9428473946, 
			 "total_energy": -661.551024029, 
			 "HOMO_LUMO_gap": 0.27719, 
			 "cosmo_polarized_energy": -6.56, 
			 "cosmo_cavitation_energy": 42.22, 
			 "cosmo_dispersion_energy": -28.66, 
			 "cosmo_repulsion_energy": 2.39, 
			 "cosmo_total_nonelectrostatic_energy": 15.95, 
			 "SMD_solvation_energy": 7.12 
		},
		"coords": [
			{
				"x": 2.0752187048,
				"y": 1.5313951071,
				"z": -5.010719037,
				"element": "C" 
			},
			{
				"x": 1.4527977138,
				"y": 0.2469667095,
				"z": -5.5715663009,
				"element": "C" 
			},
			{
				"x": 0.3691549229,
				"y": -0.379924827,
				"z": -4.6786246925,
				"element": "C" 
			},
			{
				"x": 0.8763254537,
				"y": -0.9147534281,
				"z": -3.3317013498,
				"element": "C" 
			},
			{
				"x": -0.2273175334,
				"y": -1.5907032605,
				"z": -2.5050499317,
				"element": "C" 
			},
			{
				"x": 0.2455432555,
				"y": -2.2128622019,
				"z": -1.1807485772,
				"element": "C" 
			},
			{
				"x": 0.7324280766,
				"y": -1.1968855214,
				"z": -0.1384245727,
				"element": "C" 
			},
			{
				"x": 1.1297008488,
				"y": -1.8678931053,
				"z": 1.1921220726,
				"element": "C" 
			},
			{
				"x": 1.6331188695,
				"y": -0.8630237135,
				"z": 2.2071848452,
				"element": "C" 
			},
			{
				"x": 2.7965153984,
				"y": -0.6763423547,
				"z": 2.4943966152,
				"element": "O" 
			},
			{
				"x": 0.6101138062,
				"y": -0.1591459397,
				"z": 2.7472747705,
				"element": "O" 
			},
			{
				"x": 0.9796688385,
				"y": 0.8613712022,
				"z": 3.7032487915,
				"element": "C" 
			},
			{
				"x": -0.2952766064,
				"y": 1.5459745905,
				"z": 4.1757847862,
				"element": "C" 
			},
			{
				"x": -1.0869659305,
				"y": 2.2766149269,
				"z": 3.0782832248,
				"element": "C" 
			},
			{
				"x": -0.355658074,
				"y": 3.4749848924,
				"z": 2.4622285048,
				"element": "C" 
			},
			{
				"x": 1.3076901625,
				"y": 2.291394794,
				"z": -4.8222500782,
				"element": "H" 
			},
			{
				"x": 2.6027604355,
				"y": 1.3535932916,
				"z": -4.0680232319,
				"element": "H" 
			},
			{
				"x": 2.798146357,
				"y": 1.9581475798,
				"z": -5.7137959877,
				"element": "H" 
			},
			{
				"x": 1.0135328225,
				"y": 0.4649707581,
				"z": -6.5534932745,
				"element": "H" 
			},
			{
				"x": 2.243901914,
				"y": -0.4938456326,
				"z": -5.7523416287,
				"element": "H" 
			},
			{
				"x": -0.107325289,
				"y": -1.2040199258,
				"z": -5.2272606927,
				"element": "H" 
			},
			{
				"x": -0.423306803,
				"y": 0.3611801504,
				"z": -4.4987705313,
				"element": "H" 
			},
			{
				"x": 1.685716932,
				"y": -1.6375572633,
				"z": -3.5120095596,
				"element": "H" 
			},
			{
				"x": 1.3221753355,
				"y": -0.0958604601,
				"z": -2.7545440436,
				"element": "H" 
			},
			{
				"x": -1.024549469,
				"y": -0.8622907157,
				"z": -2.2980940343,
				"element": "H" 
			},
			{
				"x": -0.6905965233,
				"y": -2.3785025959,
				"z": -3.1143659086,
				"element": "H" 
			},
			{
				"x": -0.5813609058,
				"y": -2.791438089,
				"z": -0.7469829907,
				"element": "H" 
			},
			{
				"x": 1.0479728364,
				"y": -2.9359328293,
				"z": -1.3848060217,
				"element": "H" 
			},
			{
				"x": 1.5956501975,
				"y": -0.6415796364,
				"z": -0.5237492078,
				"element": "H" 
			},
			{
				"x": -0.0567880406,
				"y": -0.4597091051,
				"z": 0.05456916,
				"element": "H" 
			},
			{
				"x": 1.9318616721,
				"y": -2.5923405167,
				"z": 1.0276496339,
				"element": "H" 
			},
			{
				"x": 0.264228618,
				"y": -2.3948157851,
				"z": 1.6093966233,
				"element": "H" 
			},
			{
				"x": 1.6775775046,
				"y": 1.5562858754,
				"z": 3.2261489675,
				"element": "H" 
			},
			{
				"x": 1.5114238513,
				"y": 0.3885579554,
				"z": 4.535232555,
				"element": "H" 
			},
			{
				"x": -0.0125831546,
				"y": 2.2566635966,
				"z": 4.9643571278,
				"element": "H" 
			},
			{
				"x": -0.9369899991,
				"y": 0.7932228868,
				"z": 4.649584909,
				"element": "H" 
			},
			{
				"x": -1.3483060424,
				"y": 1.5586710044,
				"z": 2.2922855892,
				"element": "H" 
			},
			{
				"x": -2.0357174173,
				"y": 2.6184607492,
				"z": 3.5099612858,
				"element": "H" 
			},
			{
				"x": 0.5644503053,
				"y": 3.1750037683,
				"z": 1.9497698144,
				"element": "H" 
			},
			{
				"x": -0.9868295845,
				"y": 3.9816457476,
				"z": 1.7249985712,
				"element": "H" 
			},
			{
				"x": -0.0837034599,
				"y": 4.2113213206,
				"z": 3.2276438049,
				"element": "H" 
			}
		],
		 "valence_orbital": [ 
			{
				"type": "occ",
				"energy": -0.31849,
				"method": "rhf"
			},
			{
				"type": "occ",
				"energy": -0.31169,
				"method": "rhf"
			},
			{
				"type": "occ",
				"energy": -0.30557,
				"method": "rhf"
			},
			{
				"type": "occ",
				"energy": -0.29232,
				"method": "rhf"
			},
			{
				"type": "occ",
				"energy": -0.26046,
				"method": "rhf"
			},
			{
				"type": "unocc",
				"energy": 0.01673,
				"method": "rhf"
			},
			{
				"type": "unocc",
				"energy": 0.08048,
				"method": "rhf"
			},
			{
				"type": "unocc",
				"energy": 0.08833,
				"method": "rhf"
			},
			{
				"type": "unocc",
				"energy": 0.09838,
				"method": "rhf"
			},
			{
				"type": "unocc",
				"energy": 0.10909,
				"method": "rhf"
			}
		],
		"cosmo_sigma_profile": { 
			"-0.025": 0.0,
			"-0.024": 0.0,
			"-0.023": 0.0,
			"-0.022": 0.0,
			"-0.021": 0.0,
			"-0.02": 0.0,
			"-0.019": 0.0,
			"-0.018": 0.0,
			"-0.017": 0.0,
			"-0.016": 0.0,
			"-0.015": 0.0,
			"-0.014": 0.0,
			"-0.013": 0.0,
			"-0.012": 0.0,
			"-0.011": 0.0,
			"-0.01": 0.0,
			"-0.009": 0.0,
			"-0.008": 0.0,
			"-0.007": 0.0,
			"-0.006": 0.0105669740734,
			"-0.005": 4.05910501584,
			"-0.004": 12.9109681154,
			"-0.003": 29.1923346448,
			"-0.002": 54.4706207484,
			"-0.001": 61.9956375094,
			"0.0": 62.0573654525,
			"0.001": 48.5615263651,
			"0.002": 20.4546174338,
			"0.003": 4.82434949227,
			"0.004": 3.16040265828,
			"0.005": 2.73399716544,
			"0.006": 2.30341100316,
			"0.007": 2.30444188702,
			"0.008": 1.75279116906,
			"0.009": 2.08628162793,
			"0.01": 1.68989623079,
			"0.011": 2.1383636625,
			"0.012": 4.70224032936,
			"0.013": 3.02338414328,
			"0.014": 0.195205299546,
			"0.015": 0.0,
			"0.016": 0.0,
			"0.017": 0.0,
			"0.018": 0.0,
			"0.019": 0.0,
			"0.02": 0.0,
			"0.021": 0.0,
			"0.022": 0.0,
			"0.023": 0.0,
			"0.024": 0.0,
			"0.025": 0.0
		}
	}
}
