{
	 "smiles": "NC(=O)C1CCN(CC1)C(=O)CCl", 
	 "Tm": 410.15, 
	 "num_atms": 26, 
	 "gaussian": { 
		 "optdone": 1, 
		 "sigma_profile": "yes", 
		 "theory": "DFT", 
		 "functional": "B3LYP", 
		 "basiset": "6-31G**", 
		 "properties": { 
			 "R2extent": 3780.3418, 
			 "electric_dipole_moment_norm": 1.22752543762, 
			 "electric_quadrupole_moment_norm": 28.8404576033, 
			 "total_energy": -1032.85455355, 
			 "HOMO_LUMO_gap": 0.22464, 
			 "cosmo_polarized_energy": -20.94, 
			 "cosmo_cavitation_energy": 29.62, 
			 "cosmo_dispersion_energy": -21.5, 
			 "cosmo_repulsion_energy": 1.72, 
			 "cosmo_total_nonelectrostatic_energy": 9.84, 
			 "SMD_solvation_energy": 5.01 
		},
		"coords": [
			{
				"x": -2.5041169079,
				"y": 1.9290729363,
				"z": 0.9972519283,
				"element": "N" 
			},
			{
				"x": -2.8370008847,
				"y": 0.6333589782,
				"z": 0.7058177118,
				"element": "C" 
			},
			{
				"x": -3.72467609,
				"y": 0.0430875093,
				"z": 1.3042955224,
				"element": "O" 
			},
			{
				"x": -2.0093879952,
				"y": -0.0685017898,
				"z": -0.3772345794,
				"element": "C" 
			},
			{
				"x": -0.8603765415,
				"y": -0.8491223983,
				"z": 0.3126646056,
				"element": "C" 
			},
			{
				"x": 0.2046544375,
				"y": -1.2936277852,
				"z": -0.6915030076,
				"element": "C" 
			},
			{
				"x": 0.823004805,
				"y": -0.1186492049,
				"z": -1.3288316522,
				"element": "N" 
			},
			{
				"x": 0.0436365264,
				"y": 1.1260985725,
				"z": -1.3774395918,
				"element": "C" 
			},
			{
				"x": -1.4505433062,
				"y": 0.8232730741,
				"z": -1.5200272931,
				"element": "C" 
			},
			{
				"x": 2.0645457875,
				"y": -0.1105597944,
				"z": -1.9010160064,
				"element": "C" 
			},
			{
				"x": 2.5494323815,
				"y": 0.8837573537,
				"z": -2.4320648147,
				"element": "O" 
			},
			{
				"x": 2.8606284191,
				"y": -1.4179593562,
				"z": -1.8951415743,
				"element": "C" 
			},
			{
				"x": 3.6489476661,
				"y": -1.7259280638,
				"z": -0.2845590597,
				"element": "Cl" 
			},
			{
				"x": -1.7175203238,
				"y": 2.4019180334,
				"z": 0.5839861144,
				"element": "H" 
			},
			{
				"x": -2.9757413459,
				"y": 2.3660749128,
				"z": 1.7748613494,
				"element": "H" 
			},
			{
				"x": -2.702392487,
				"y": -0.7982252179,
				"z": -0.8057605685,
				"element": "H" 
			},
			{
				"x": -1.2670517546,
				"y": -1.7212632971,
				"z": 0.8313393696,
				"element": "H" 
			},
			{
				"x": -0.3814563992,
				"y": -0.2232817671,
				"z": 1.0751490807,
				"element": "H" 
			},
			{
				"x": 0.9716799141,
				"y": -1.8702163348,
				"z": -0.171090893,
				"element": "H" 
			},
			{
				"x": -0.2530257889,
				"y": -1.9486806731,
				"z": -1.4488381281,
				"element": "H" 
			},
			{
				"x": 0.4149847757,
				"y": 1.707036982,
				"z": -2.222671261,
				"element": "H" 
			},
			{
				"x": 0.2462579767,
				"y": 1.7239183903,
				"z": -0.4751027857,
				"element": "H" 
			},
			{
				"x": -1.600935439,
				"y": 0.3087738273,
				"z": -2.4751992997,
				"element": "H" 
			},
			{
				"x": -2.0076004759,
				"y": 1.7630603794,
				"z": -1.5952050056,
				"element": "H" 
			},
			{
				"x": 3.6641574197,
				"y": -1.3060916857,
				"z": -2.619211459,
				"element": "H" 
			},
			{
				"x": 2.2597956305,
				"y": -2.2988235811,
				"z": -2.1254687022,
				"element": "H" 
			}
		],
		 "valence_orbital": [ 
			{
				"type": "occ",
				"energy": -0.30761,
				"method": "rhf"
			},
			{
				"type": "occ",
				"energy": -0.27335,
				"method": "rhf"
			},
			{
				"type": "occ",
				"energy": -0.25819,
				"method": "rhf"
			},
			{
				"type": "occ",
				"energy": -0.25011,
				"method": "rhf"
			},
			{
				"type": "occ",
				"energy": -0.24897,
				"method": "rhf"
			},
			{
				"type": "unocc",
				"energy": -0.02433,
				"method": "rhf"
			},
			{
				"type": "unocc",
				"energy": 0.02238,
				"method": "rhf"
			},
			{
				"type": "unocc",
				"energy": 0.04238,
				"method": "rhf"
			},
			{
				"type": "unocc",
				"energy": 0.05645,
				"method": "rhf"
			},
			{
				"type": "unocc",
				"energy": 0.07902,
				"method": "rhf"
			}
		],
		"cosmo_sigma_profile": { 
			"-0.025": 0.0,
			"-0.024": 0.0,
			"-0.023": 0.0,
			"-0.022": 0.0,
			"-0.021": 0.0,
			"-0.02": 0.0,
			"-0.019": 0.0,
			"-0.018": 0.0,
			"-0.017": 0.0,
			"-0.016": 0.0,
			"-0.015": 0.0,
			"-0.014": 0.630938094679,
			"-0.013": 2.46754714812,
			"-0.012": 2.48363946153,
			"-0.011": 2.43719417147,
			"-0.01": 2.7953539791,
			"-0.009": 3.4377273123,
			"-0.008": 7.01780982544,
			"-0.007": 7.45785315063,
			"-0.006": 7.71804063837,
			"-0.005": 18.2862318105,
			"-0.004": 27.1573975789,
			"-0.003": 21.2867079566,
			"-0.002": 15.905601292,
			"-0.001": 13.7886946039,
			"0.0": 9.3679607327,
			"0.001": 8.47581571722,
			"0.002": 8.46499249647,
			"0.003": 10.9544215192,
			"0.004": 9.62167565521,
			"0.005": 10.7236076415,
			"0.006": 6.93521362847,
			"0.007": 2.83614674489,
			"0.008": 2.79141753321,
			"0.009": 2.71233903992,
			"0.01": 1.8206649366,
			"0.011": 3.28616164674,
			"0.012": 3.57189258267,
			"0.013": 7.58294542243,
			"0.014": 8.78575354753,
			"0.015": 2.71296100093,
			"0.016": 0.124819452795,
			"0.017": 0.0,
			"0.018": 0.0,
			"0.019": 0.0,
			"0.02": 0.0,
			"0.021": 0.0,
			"0.022": 0.0,
			"0.023": 0.0,
			"0.024": 0.0,
			"0.025": 0.0
		}
	}
}
