{
	 "smiles": "OC(=O)C1=CC=C(C=C1)N1C=CC(=N1)C(F)(F)F", 
	 "Tm": 463.15, 
	 "num_atms": 25, 
	 "gaussian": { 
		 "optdone": 1, 
		 "sigma_profile": "yes", 
		 "theory": "DFT", 
		 "functional": "B3LYP", 
		 "basiset": "6-31G**", 
		 "properties": { 
			 "R2extent": 7393.9807, 
			 "electric_dipole_moment_norm": 5.52192263437, 
			 "electric_quadrupole_moment_norm": 22.323899819, 
			 "total_energy": -982.848835818, 
			 "HOMO_LUMO_gap": 0.18411, 
			 "cosmo_polarized_energy": -18.89, 
			 "cosmo_cavitation_energy": 32.45, 
			 "cosmo_dispersion_energy": -23.15, 
			 "cosmo_repulsion_energy": 1.7, 
			 "cosmo_total_nonelectrostatic_energy": 10.99, 
			 "SMD_solvation_energy": 7.52 
		},
		"coords": [
			{
				"x": 2.7336359073,
				"y": 2.5890446245,
				"z": -3.7040095341,
				"element": "O" 
			},
			{
				"x": 2.4153128299,
				"y": 1.2669449488,
				"z": -3.7489388297,
				"element": "C" 
			},
			{
				"x": 2.7486645105,
				"y": 0.5967580793,
				"z": -4.6971798151,
				"element": "O" 
			},
			{
				"x": 1.6525404189,
				"y": 0.7147935002,
				"z": -2.5831318269,
				"element": "C" 
			},
			{
				"x": 1.6390859172,
				"y": 1.3167194536,
				"z": -1.3182173135,
				"element": "C" 
			},
			{
				"x": 0.9262217993,
				"y": 0.7485988175,
				"z": -0.2658067601,
				"element": "C" 
			},
			{
				"x": 0.2240378212,
				"y": -0.4436659951,
				"z": -0.471882291,
				"element": "C" 
			},
			{
				"x": 0.2341129374,
				"y": -1.0616124828,
				"z": -1.7295276971,
				"element": "C" 
			},
			{
				"x": 0.9508777483,
				"y": -0.4852163959,
				"z": -2.7690521167,
				"element": "C" 
			},
			{
				"x": -0.5012005137,
				"y": -1.0416297527,
				"z": 0.5906152641,
				"element": "N" 
			},
			{
				"x": -0.3550690833,
				"y": -0.8390416651,
				"z": 1.9389620406,
				"element": "C" 
			},
			{
				"x": -1.2651710115,
				"y": -1.6559734475,
				"z": 2.5681625815,
				"element": "C" 
			},
			{
				"x": -1.9190873034,
				"y": -2.324700542,
				"z": 1.5078745696,
				"element": "C" 
			},
			{
				"x": -1.4592477554,
				"y": -1.9563557967,
				"z": 0.3186371845,
				"element": "N" 
			},
			{
				"x": -3.0451107428,
				"y": -3.307572087,
				"z": 1.6115524258,
				"element": "C" 
			},
			{
				"x": -4.2400303921,
				"y": -2.7300014345,
				"z": 1.3627599899,
				"element": "F" 
			},
			{
				"x": -3.0996305477,
				"y": -3.817866763,
				"z": 2.8625611604,
				"element": "F" 
			},
			{
				"x": -2.9058411637,
				"y": -4.3289086771,
				"z": 0.7486623533,
				"element": "F" 
			},
			{
				"x": 2.2515253948,
				"y": 3.0272376625,
				"z": -2.989457078,
				"element": "H" 
			},
			{
				"x": 2.2068879012,
				"y": 2.2232106493,
				"z": -1.124984926,
				"element": "H" 
			},
			{
				"x": 0.9108796259,
				"y": 1.2424994802,
				"z": 0.6990351247,
				"element": "H" 
			},
			{
				"x": -0.3179050478,
				"y": -1.9826654395,
				"z": -1.8680184137,
				"element": "H" 
			},
			{
				"x": 0.9850162865,
				"y": -0.9572717715,
				"z": -3.7447771835,
				"element": "H" 
			},
			{
				"x": 0.3903286351,
				"y": -0.1707494788,
				"z": 2.3395929759,
				"element": "H" 
			},
			{
				"x": -1.4291341722,
				"y": -1.7713754865,
				"z": 3.6278681153,
				"element": "H" 
			}
		],
		 "valence_orbital": [ 
			{
				"type": "occ",
				"energy": -0.31612,
				"method": "rhf"
			},
			{
				"type": "occ",
				"energy": -0.28881,
				"method": "rhf"
			},
			{
				"type": "occ",
				"energy": -0.28131,
				"method": "rhf"
			},
			{
				"type": "occ",
				"energy": -0.27949,
				"method": "rhf"
			},
			{
				"type": "occ",
				"energy": -0.25604,
				"method": "rhf"
			},
			{
				"type": "unocc",
				"energy": -0.07193,
				"method": "rhf"
			},
			{
				"type": "unocc",
				"energy": -0.03834,
				"method": "rhf"
			},
			{
				"type": "unocc",
				"energy": -0.01404,
				"method": "rhf"
			},
			{
				"type": "unocc",
				"energy": 0.02589,
				"method": "rhf"
			},
			{
				"type": "unocc",
				"energy": 0.04394,
				"method": "rhf"
			}
		],
		"cosmo_sigma_profile": { 
			"-0.025": 0.0,
			"-0.024": 0.0,
			"-0.023": 0.0,
			"-0.022": 0.0,
			"-0.021": 0.0,
			"-0.02": 0.0,
			"-0.019": 0.342146844983,
			"-0.018": 1.1834760314,
			"-0.017": 0.81528124549,
			"-0.016": 1.02369372709,
			"-0.015": 0.802322560148,
			"-0.014": 1.30238796765,
			"-0.013": 0.878452965811,
			"-0.012": 2.07907974014,
			"-0.011": 2.83627932556,
			"-0.01": 3.82134062451,
			"-0.009": 4.28419436753,
			"-0.008": 6.90173069422,
			"-0.007": 7.27199241466,
			"-0.006": 9.5984695824,
			"-0.005": 10.1224675349,
			"-0.004": 8.61630532094,
			"-0.003": 11.5774556163,
			"-0.002": 13.6464384798,
			"-0.001": 15.9960052847,
			"0.0": 18.4482090827,
			"0.001": 25.9168585845,
			"0.002": 39.6822392148,
			"0.003": 30.9702414227,
			"0.004": 5.11795899915,
			"0.005": 5.33961198191,
			"0.006": 4.35826785542,
			"0.007": 3.95773399876,
			"0.008": 4.03728878445,
			"0.009": 4.12857338971,
			"0.01": 5.83328397412,
			"0.011": 5.42253230514,
			"0.012": 4.30932813459,
			"0.013": 1.30190736882,
			"0.014": 0.0279355050066,
			"0.015": 0.0,
			"0.016": 0.0,
			"0.017": 0.0,
			"0.018": 0.0,
			"0.019": 0.0,
			"0.02": 0.0,
			"0.021": 0.0,
			"0.022": 0.0,
			"0.023": 0.0,
			"0.024": 0.0,
			"0.025": 0.0
		}
	}
}
