{
	 "smiles": "CN1C(S)=NC=C1CO", 
	 "Tm": 494.15, 
	 "num_atms": 17, 
	 "gaussian": { 
		 "optdone": 1, 
		 "sigma_profile": "yes", 
		 "theory": "DFT", 
		 "functional": "B3LYP", 
		 "basiset": "6-31G**", 
		 "properties": { 
			 "R2extent": 3093.8942, 
			 "electric_dipole_moment_norm": 3.70379848939, 
			 "electric_quadrupole_moment_norm": 16.5833439164, 
			 "total_energy": -778.243233108, 
			 "HOMO_LUMO_gap": 0.22047, 
			 "cosmo_polarized_energy": -13.28, 
			 "cosmo_cavitation_energy": 22.09, 
			 "cosmo_dispersion_energy": -16.97, 
			 "cosmo_repulsion_energy": 1.36, 
			 "cosmo_total_nonelectrostatic_energy": 6.48, 
			 "SMD_solvation_energy": 2.04 
		},
		"coords": [
			{
				"x": -0.3984458447,
				"y": 1.4424481198,
				"z": 0.6822830165,
				"element": "C" 
			},
			{
				"x": -0.1303272841,
				"y": 0.8924471311,
				"z": 2.0033290651,
				"element": "N" 
			},
			{
				"x": 1.011038331,
				"y": 0.2681285102,
				"z": 2.4255083536,
				"element": "C" 
			},
			{
				"x": 2.404151164,
				"y": 0.0488247904,
				"z": 1.3470803643,
				"element": "S" 
			},
			{
				"x": 0.9444033367,
				"y": -0.1320596869,
				"z": 3.6782092396,
				"element": "N" 
			},
			{
				"x": -0.3109846048,
				"y": 0.2461525441,
				"z": 4.0951026484,
				"element": "C" 
			},
			{
				"x": -0.9982721523,
				"y": 0.886321794,
				"z": 3.0943300394,
				"element": "C" 
			},
			{
				"x": -2.3469102323,
				"y": 1.5116525629,
				"z": 3.0727739046,
				"element": "C" 
			},
			{
				"x": -3.1733085019,
				"y": 0.8545964476,
				"z": 2.10315092,
				"element": "O" 
			},
			{
				"x": 0.0986690815,
				"y": 0.830386323,
				"z": -0.0745407945,
				"element": "H" 
			},
			{
				"x": -0.0359633423,
				"y": 2.472992416,
				"z": 0.5969320005,
				"element": "H" 
			},
			{
				"x": -1.4741764327,
				"y": 1.4116100126,
				"z": 0.5078865049,
				"element": "H" 
			},
			{
				"x": 3.0243452376,
				"y": -0.7820739893,
				"z": 2.2041135114,
				"element": "H" 
			},
			{
				"x": -0.6546837538,
				"y": 0.0388629414,
				"z": 5.0998384639,
				"element": "H" 
			},
			{
				"x": -2.2719848405,
				"y": 2.5870656632,
				"z": 2.8393488217,
				"element": "H" 
			},
			{
				"x": -2.768876316,
				"y": 1.4283210369,
				"z": 4.0843531254,
				"element": "H" 
			},
			{
				"x": -4.0109738453,
				"y": 1.334523383,
				"z": 2.0583008153,
				"element": "H" 
			}
		],
		 "valence_orbital": [ 
			{
				"type": "occ",
				"energy": -0.29044,
				"method": "rhf"
			},
			{
				"type": "occ",
				"energy": -0.28138,
				"method": "rhf"
			},
			{
				"type": "occ",
				"energy": -0.26536,
				"method": "rhf"
			},
			{
				"type": "occ",
				"energy": -0.26439,
				"method": "rhf"
			},
			{
				"type": "occ",
				"energy": -0.20415,
				"method": "rhf"
			},
			{
				"type": "unocc",
				"energy": 0.01632,
				"method": "rhf"
			},
			{
				"type": "unocc",
				"energy": 0.0189,
				"method": "rhf"
			},
			{
				"type": "unocc",
				"energy": 0.05795,
				"method": "rhf"
			},
			{
				"type": "unocc",
				"energy": 0.07663,
				"method": "rhf"
			},
			{
				"type": "unocc",
				"energy": 0.08885,
				"method": "rhf"
			}
		],
		"cosmo_sigma_profile": { 
			"-0.025": 0.0,
			"-0.024": 0.0,
			"-0.023": 0.0,
			"-0.022": 0.0,
			"-0.021": 0.0,
			"-0.02": 0.0,
			"-0.019": 0.0,
			"-0.018": 0.0,
			"-0.017": 0.0274893496819,
			"-0.016": 0.795116221195,
			"-0.015": 1.14293488092,
			"-0.014": 1.20112185239,
			"-0.013": 0.846403345745,
			"-0.012": 0.789894981506,
			"-0.011": 2.63573378161,
			"-0.01": 2.01900066318,
			"-0.009": 1.72936651017,
			"-0.008": 2.19162981555,
			"-0.007": 2.83215512313,
			"-0.006": 8.81419886456,
			"-0.005": 16.5394145914,
			"-0.004": 17.4183140891,
			"-0.003": 18.0490185229,
			"-0.002": 8.07289193624,
			"-0.001": 7.9863319869,
			"0.0": 8.14373116677,
			"0.001": 6.21772251509,
			"0.002": 9.38887999823,
			"0.003": 8.74995429447,
			"0.004": 9.16217324525,
			"0.005": 8.86424299481,
			"0.006": 7.08717510427,
			"0.007": 5.43408059134,
			"0.008": 4.01440684268,
			"0.009": 2.9742706121,
			"0.01": 2.63371287178,
			"0.011": 2.10280044589,
			"0.012": 2.46738936872,
			"0.013": 2.03095906012,
			"0.014": 2.4070500036,
			"0.015": 0.787541871415,
			"0.016": 0.797720804346,
			"0.017": 0.887658322847,
			"0.018": 0.0760504091522,
			"0.019": 0.0,
			"0.02": 0.0,
			"0.021": 0.0,
			"0.022": 0.0,
			"0.023": 0.0,
			"0.024": 0.0,
			"0.025": 0.0
		}
	}
}
