{
	 "smiles": "CC1=C(C(O)=O)C(C#N)=C(O1)N1C=CC=C1", 
	 "Tm": 482.15, 
	 "num_atms": 24, 
	 "gaussian": { 
		 "optdone": 1, 
		 "sigma_profile": "yes", 
		 "theory": "DFT", 
		 "functional": "B3LYP", 
		 "basiset": "6-31G**", 
		 "properties": { 
			 "R2extent": 4006.142, 
			 "electric_dipole_moment_norm": 5.32602644943, 
			 "electric_quadrupole_moment_norm": 8.72162605137, 
			 "total_energy": -759.124568296, 
			 "HOMO_LUMO_gap": 0.17359, 
			 "cosmo_polarized_energy": -14.02, 
			 "cosmo_cavitation_energy": 30.03, 
			 "cosmo_dispersion_energy": -21.35, 
			 "cosmo_repulsion_energy": 1.62, 
			 "cosmo_total_nonelectrostatic_energy": 10.29, 
			 "SMD_solvation_energy": 8.54 
		},
		"coords": [
			{
				"x": -2.402653896,
				"y": 1.762468405,
				"z": 1.9021894688,
				"element": "C" 
			},
			{
				"x": -1.2436799392,
				"y": 1.0108046918,
				"z": 1.3547572904,
				"element": "C" 
			},
			{
				"x": -0.0091802458,
				"y": 1.3694943655,
				"z": 0.8934162338,
				"element": "C" 
			},
			{
				"x": 0.4532502466,
				"y": 2.778233625,
				"z": 0.8546274788,
				"element": "C" 
			},
			{
				"x": 1.6908609744,
				"y": 3.0327651176,
				"z": 0.3797706385,
				"element": "O" 
			},
			{
				"x": -0.2533553698,
				"y": 3.6880444273,
				"z": 1.2337975663,
				"element": "O" 
			},
			{
				"x": 0.6568034525,
				"y": 0.1346829045,
				"z": 0.4944281693,
				"element": "C" 
			},
			{
				"x": 1.9578864561,
				"y": 0.0274273312,
				"z": -0.0426602719,
				"element": "C" 
			},
			{
				"x": 3.0394261347,
				"y": 0.0130039329,
				"z": -0.4811938403,
				"element": "N" 
			},
			{
				"x": -0.2439796188,
				"y": -0.8760646761,
				"z": 0.7524818435,
				"element": "C" 
			},
			{
				"x": -1.3819750197,
				"y": -0.3571243502,
				"z": 1.2670418436,
				"element": "O" 
			},
			{
				"x": -0.2172472944,
				"y": -2.2421989605,
				"z": 0.5982377013,
				"element": "N" 
			},
			{
				"x": 0.843897324,
				"y": -2.9949379122,
				"z": 0.089387191,
				"element": "C" 
			},
			{
				"x": 0.4663875081,
				"y": -4.3090459009,
				"z": 0.1045473019,
				"element": "C" 
			},
			{
				"x": -0.8627825256,
				"y": -4.3795595813,
				"z": 0.635637372,
				"element": "C" 
			},
			{
				"x": -1.2637877378,
				"y": -3.1067627021,
				"z": 0.9315392787,
				"element": "C" 
			},
			{
				"x": -2.764325979,
				"y": 2.4957276195,
				"z": 1.176028057,
				"element": "H" 
			},
			{
				"x": -2.1106165132,
				"y": 2.3264587735,
				"z": 2.792365909,
				"element": "H" 
			},
			{
				"x": -3.2081635379,
				"y": 1.0702059146,
				"z": 2.1554487031,
				"element": "H" 
			},
			{
				"x": 2.1692169925,
				"y": 2.234871818,
				"z": 0.1030499834,
				"element": "H" 
			},
			{
				"x": 1.7579037385,
				"y": -2.5219057284,
				"z": -0.2314072205,
				"element": "H" 
			},
			{
				"x": 1.0745164567,
				"y": -5.1377364296,
				"z": -0.2287218401,
				"element": "H" 
			},
			{
				"x": -1.4540492454,
				"y": -5.2722462706,
				"z": 0.7815728211,
				"element": "H" 
			},
			{
				"x": -2.1804523615,
				"y": -2.7184064145,
				"z": 1.343658321,
				"element": "H" 
			}
		],
		 "valence_orbital": [ 
			{
				"type": "occ",
				"energy": -0.31185,
				"method": "rhf"
			},
			{
				"type": "occ",
				"energy": -0.30117,
				"method": "rhf"
			},
			{
				"type": "occ",
				"energy": -0.28296,
				"method": "rhf"
			},
			{
				"type": "occ",
				"energy": -0.24131,
				"method": "rhf"
			},
			{
				"type": "occ",
				"energy": -0.23474,
				"method": "rhf"
			},
			{
				"type": "unocc",
				"energy": -0.06115,
				"method": "rhf"
			},
			{
				"type": "unocc",
				"energy": -0.04775,
				"method": "rhf"
			},
			{
				"type": "unocc",
				"energy": -0.00812,
				"method": "rhf"
			},
			{
				"type": "unocc",
				"energy": 0.02688,
				"method": "rhf"
			},
			{
				"type": "unocc",
				"energy": 0.05943,
				"method": "rhf"
			}
		],
		"cosmo_sigma_profile": { 
			"-0.025": 0.0,
			"-0.024": 0.0,
			"-0.023": 0.0,
			"-0.022": 0.0,
			"-0.021": 0.0,
			"-0.02": 0.0,
			"-0.019": 0.0,
			"-0.018": 0.0,
			"-0.017": 0.0,
			"-0.016": 0.0,
			"-0.015": 0.0,
			"-0.014": 0.0,
			"-0.013": 0.0285687009267,
			"-0.012": 0.588512679304,
			"-0.011": 1.03490222454,
			"-0.01": 2.71645278628,
			"-0.009": 1.95214100056,
			"-0.008": 2.39224016587,
			"-0.007": 6.45490114282,
			"-0.006": 13.0291794665,
			"-0.005": 16.097435624,
			"-0.004": 23.7933145938,
			"-0.003": 29.373270326,
			"-0.002": 25.6469388183,
			"-0.001": 17.059408086,
			"0.0": 11.719768998,
			"0.001": 9.5117227441,
			"0.002": 10.205209758,
			"0.003": 8.42567759051,
			"0.004": 9.90701633925,
			"0.005": 10.043359118,
			"0.006": 8.7647163647,
			"0.007": 4.0754375919,
			"0.008": 4.90015056795,
			"0.009": 5.87223555552,
			"0.01": 6.74773365665,
			"0.011": 6.47665004435,
			"0.012": 4.70062043389,
			"0.013": 1.51105284424,
			"0.014": 0.0389490890785,
			"0.015": 0.0,
			"0.016": 0.0,
			"0.017": 0.0,
			"0.018": 0.0,
			"0.019": 0.0,
			"0.02": 0.0,
			"0.021": 0.0,
			"0.022": 0.0,
			"0.023": 0.0,
			"0.024": 0.0,
			"0.025": 0.0
		}
	}
}
