{
	 "smiles": "BrCCOC1=CC=C(CC#N)C=C1", 
	 "Tm": 326.15, 
	 "num_atms": 23, 
	 "gaussian": { 
		 "optdone": 1, 
		 "sigma_profile": "yes", 
		 "theory": "DFT", 
		 "functional": "B3LYP", 
		 "basiset": "6-31G**", 
		 "properties": { 
			 "R2extent": 8309.7293, 
			 "electric_dipole_moment_norm": 3.30778851501, 
			 "electric_quadrupole_moment_norm": 27.7332347767, 
			 "total_energy": -3088.4462166, 
			 "HOMO_LUMO_gap": 0.21257, 
			 "cosmo_polarized_energy": -13.5, 
			 "cosmo_cavitation_energy": 30.34, 
			 "cosmo_dispersion_energy": -21.84, 
			 "cosmo_repulsion_energy": 1.76, 
			 "cosmo_total_nonelectrostatic_energy": 10.25, 
			 "SMD_solvation_energy": 5.41 
		},
		"coords": [
			{
				"x": 0.7014435609,
				"y": -0.4935243427,
				"z": 6.0080509378,
				"element": "Br" 
			},
			{
				"x": -0.312862688,
				"y": -1.3098684007,
				"z": 4.5256850563,
				"element": "C" 
			},
			{
				"x": -0.9144443241,
				"y": -0.2155259561,
				"z": 3.6499838598,
				"element": "C" 
			},
			{
				"x": -1.6668852129,
				"y": -0.7907678737,
				"z": 2.5849730684,
				"element": "O" 
			},
			{
				"x": -1.0305012632,
				"y": -1.2076429777,
				"z": 1.4456716027,
				"element": "C" 
			},
			{
				"x": 0.3460397231,
				"y": -1.1251293562,
				"z": 1.2116440922,
				"element": "C" 
			},
			{
				"x": 0.8648890345,
				"y": -1.5717121766,
				"z": -0.0074557125,
				"element": "C" 
			},
			{
				"x": 0.041239691,
				"y": -2.1083401855,
				"z": -0.9965241903,
				"element": "C" 
			},
			{
				"x": 0.6440884426,
				"y": -2.6356278256,
				"z": -2.2918748393,
				"element": "C" 
			},
			{
				"x": -0.1148124946,
				"y": -2.2639691947,
				"z": -3.4917858595,
				"element": "C" 
			},
			{
				"x": -0.7275611504,
				"y": -1.9803732407,
				"z": -4.4357317908,
				"element": "N" 
			},
			{
				"x": -1.336849653,
				"y": -2.1856545378,
				"z": -0.7473335153,
				"element": "C" 
			},
			{
				"x": -1.8686621554,
				"y": -1.7419548669,
				"z": 0.4557426978,
				"element": "C" 
			},
			{
				"x": -1.0874259183,
				"y": -1.9266100363,
				"z": 4.9791585613,
				"element": "H" 
			},
			{
				"x": 0.3902835792,
				"y": -1.9397439363,
				"z": 3.9829721784,
				"element": "H" 
			},
			{
				"x": -1.6284786029,
				"y": 0.3748142288,
				"z": 4.2282879629,
				"element": "H" 
			},
			{
				"x": -0.1410816019,
				"y": 0.4628896695,
				"z": 3.2748162614,
				"element": "H" 
			},
			{
				"x": 1.0233197375,
				"y": -0.7155411464,
				"z": 1.9518728479,
				"element": "H" 
			},
			{
				"x": 1.9359759939,
				"y": -1.4970859835,
				"z": -0.1778820281,
				"element": "H" 
			},
			{
				"x": 1.6691897759,
				"y": -2.2671434856,
				"z": -2.4082283438,
				"element": "H" 
			},
			{
				"x": 0.7115728324,
				"y": -3.7322152215,
				"z": -2.2709589264,
				"element": "H" 
			},
			{
				"x": -2.0020615865,
				"y": -2.5844465862,
				"z": -1.5082046964,
				"element": "H" 
			},
			{
				"x": -2.9346157198,
				"y": -1.7914265677,
				"z": 0.6512207754,
				"element": "H" 
			}
		],
		 "valence_orbital": [ 
			{
				"type": "occ",
				"energy": -0.32304,
				"method": "rhf"
			},
			{
				"type": "occ",
				"energy": -0.28828,
				"method": "rhf"
			},
			{
				"type": "occ",
				"energy": -0.28628,
				"method": "rhf"
			},
			{
				"type": "occ",
				"energy": -0.2679,
				"method": "rhf"
			},
			{
				"type": "occ",
				"energy": -0.23471,
				"method": "rhf"
			},
			{
				"type": "unocc",
				"energy": -0.02214,
				"method": "rhf"
			},
			{
				"type": "unocc",
				"energy": -0.01391,
				"method": "rhf"
			},
			{
				"type": "unocc",
				"energy": -0.00551,
				"method": "rhf"
			},
			{
				"type": "unocc",
				"energy": 0.03041,
				"method": "rhf"
			},
			{
				"type": "unocc",
				"energy": 0.04083,
				"method": "rhf"
			}
		],
		"cosmo_sigma_profile": { 
			"-0.025": 0.0,
			"-0.024": 0.0,
			"-0.023": 0.0,
			"-0.022": 0.0,
			"-0.021": 0.0,
			"-0.02": 0.0,
			"-0.019": 0.0,
			"-0.018": 0.0,
			"-0.017": 0.0,
			"-0.016": 0.0,
			"-0.015": 0.0,
			"-0.014": 0.0,
			"-0.013": 0.0,
			"-0.012": 0.0,
			"-0.011": 0.0,
			"-0.01": 0.0,
			"-0.009": 2.98484434572,
			"-0.008": 8.88399172589,
			"-0.007": 14.0350002154,
			"-0.006": 20.3738277715,
			"-0.005": 18.848200942,
			"-0.004": 17.6046693647,
			"-0.003": 13.3712789331,
			"-0.002": 12.6622919585,
			"-0.001": 11.3946487813,
			"0.0": 10.8439275122,
			"0.001": 12.4936410386,
			"0.002": 14.5818278706,
			"0.003": 14.7434686225,
			"0.004": 19.897969061,
			"0.005": 17.1412300063,
			"0.006": 11.8312832535,
			"0.007": 3.59157716718,
			"0.008": 4.18022922154,
			"0.009": 4.91582566451,
			"0.01": 3.63165788391,
			"0.011": 3.06716096477,
			"0.012": 2.41532093329,
			"0.013": 2.00346716585,
			"0.014": 0.311619582306,
			"0.015": 0.0,
			"0.016": 0.0,
			"0.017": 0.0,
			"0.018": 0.0,
			"0.019": 0.0,
			"0.02": 0.0,
			"0.021": 0.0,
			"0.022": 0.0,
			"0.023": 0.0,
			"0.024": 0.0,
			"0.025": 0.0
		}
	}
}
