{
	 "smiles": "CC(C)NC(=S)NC(C)C", 
	 "Tm": 417.15, 
	 "num_atms": 26, 
	 "gaussian": { 
		 "optdone": 1, 
		 "sigma_profile": "yes", 
		 "theory": "DFT", 
		 "functional": "B3LYP", 
		 "basiset": "6-31G**", 
		 "properties": { 
			 "R2extent": 2791.7795, 
			 "electric_dipole_moment_norm": 5.66008530236, 
			 "electric_quadrupole_moment_norm": 17.801475968, 
			 "total_energy": -784.115852356, 
			 "HOMO_LUMO_gap": 0.20537, 
			 "cosmo_polarized_energy": -16.42, 
			 "cosmo_cavitation_energy": 29.25, 
			 "cosmo_dispersion_energy": -20.65, 
			 "cosmo_repulsion_energy": 1.67, 
			 "cosmo_total_nonelectrostatic_energy": 10.27, 
			 "SMD_solvation_energy": 3.83 
		},
		"coords": [
			{
				"x": -3.0845196684,
				"y": -0.1445177807,
				"z": -0.460165113,
				"element": "C" 
			},
			{
				"x": -1.9627543445,
				"y": 0.5733780942,
				"z": 0.3012796861,
				"element": "C" 
			},
			{
				"x": -1.5632145757,
				"y": 1.8975725749,
				"z": -0.3556290314,
				"element": "C" 
			},
			{
				"x": -0.771380651,
				"y": -0.2761200166,
				"z": 0.4211451515,
				"element": "N" 
			},
			{
				"x": -0.5616745082,
				"y": -1.1953793406,
				"z": 1.3992288136,
				"element": "C" 
			},
			{
				"x": -1.5803505832,
				"y": -1.4043846377,
				"z": 2.7343077661,
				"element": "S" 
			},
			{
				"x": 0.5463971579,
				"y": -1.9829438551,
				"z": 1.2615942471,
				"element": "N" 
			},
			{
				"x": 1.6658774861,
				"y": -1.8165637941,
				"z": 0.3304250925,
				"element": "C" 
			},
			{
				"x": 2.4608004037,
				"y": -3.125247231,
				"z": 0.293617299,
				"element": "C" 
			},
			{
				"x": 2.5547531702,
				"y": -0.6152631576,
				"z": 0.6932789283,
				"element": "C" 
			},
			{
				"x": -3.3473954042,
				"y": -1.0761448611,
				"z": 0.0468773758,
				"element": "H" 
			},
			{
				"x": -2.7784800614,
				"y": -0.3758469709,
				"z": -1.4876744489,
				"element": "H" 
			},
			{
				"x": -3.9791088261,
				"y": 0.4853183907,
				"z": -0.5082409363,
				"element": "H" 
			},
			{
				"x": -2.2968327016,
				"y": 0.7564041476,
				"z": 1.3256809812,
				"element": "H" 
			},
			{
				"x": -0.7868830204,
				"y": 2.4071537158,
				"z": 0.2227948124,
				"element": "H" 
			},
			{
				"x": -1.1872490637,
				"y": 1.7415795428,
				"z": -1.375333631,
				"element": "H" 
			},
			{
				"x": -2.4300604082,
				"y": 2.5609269895,
				"z": -0.4269041386,
				"element": "H" 
			},
			{
				"x": -0.1791809114,
				"y": -0.313449856,
				"z": -0.3974807853,
				"element": "H" 
			},
			{
				"x": 0.6920296312,
				"y": -2.5874138392,
				"z": 2.0586615592,
				"element": "H" 
			},
			{
				"x": 1.2499399369,
				"y": -1.6624477232,
				"z": -0.6762640321,
				"element": "H" 
			},
			{
				"x": 3.2865371592,
				"y": -3.0514127967,
				"z": -0.4193902952,
				"element": "H" 
			},
			{
				"x": 2.890713253,
				"y": -3.3433616334,
				"z": 1.2784314893,
				"element": "H" 
			},
			{
				"x": 1.8229104046,
				"y": -3.9644125926,
				"z": 0.0025032461,
				"element": "H" 
			},
			{
				"x": 3.0255120325,
				"y": -0.7723646036,
				"z": 1.6692437929,
				"element": "H" 
			},
			{
				"x": 3.3459553648,
				"y": -0.4796955755,
				"z": -0.0518342241,
				"element": "H" 
			},
			{
				"x": 1.9704587281,
				"y": 0.30743681,
				"z": 0.7469463947,
				"element": "H" 
			}
		],
		 "valence_orbital": [ 
			{
				"type": "occ",
				"energy": -0.34353,
				"method": "rhf"
			},
			{
				"type": "occ",
				"energy": -0.33658,
				"method": "rhf"
			},
			{
				"type": "occ",
				"energy": -0.25166,
				"method": "rhf"
			},
			{
				"type": "occ",
				"energy": -0.20025,
				"method": "rhf"
			},
			{
				"type": "occ",
				"energy": -0.1926,
				"method": "rhf"
			},
			{
				"type": "unocc",
				"energy": 0.01277,
				"method": "rhf"
			},
			{
				"type": "unocc",
				"energy": 0.05492,
				"method": "rhf"
			},
			{
				"type": "unocc",
				"energy": 0.07722,
				"method": "rhf"
			},
			{
				"type": "unocc",
				"energy": 0.09559,
				"method": "rhf"
			},
			{
				"type": "unocc",
				"energy": 0.10974,
				"method": "rhf"
			}
		],
		"cosmo_sigma_profile": { 
			"-0.025": 0.0,
			"-0.024": 0.0,
			"-0.023": 0.0,
			"-0.022": 0.0,
			"-0.021": 0.0,
			"-0.02": 0.0,
			"-0.019": 0.0,
			"-0.018": 0.0,
			"-0.017": 0.0,
			"-0.016": 0.0,
			"-0.015": 0.0,
			"-0.014": 0.395248501083,
			"-0.013": 1.00813253079,
			"-0.012": 1.86470728228,
			"-0.011": 2.35690849598,
			"-0.01": 2.30428312673,
			"-0.009": 2.52450405562,
			"-0.008": 3.23648846467,
			"-0.007": 2.99911638778,
			"-0.006": 3.40091122474,
			"-0.005": 4.95123720353,
			"-0.004": 17.7362863114,
			"-0.003": 29.2715108282,
			"-0.002": 26.6654757084,
			"-0.001": 25.3226797577,
			"0.0": 30.2559205156,
			"0.001": 20.7457685416,
			"0.002": 5.91913988799,
			"0.003": 3.67815508579,
			"0.004": 3.08868257675,
			"0.005": 5.02515538138,
			"0.006": 4.4305906507,
			"0.007": 3.89338390616,
			"0.008": 3.83338507546,
			"0.009": 3.64948322129,
			"0.01": 4.58769855095,
			"0.011": 5.9888382077,
			"0.012": 6.86022228599,
			"0.013": 3.6251937698,
			"0.014": 0.0780703679406,
			"0.015": 0.0,
			"0.016": 0.0,
			"0.017": 0.0,
			"0.018": 0.0,
			"0.019": 0.0,
			"0.02": 0.0,
			"0.021": 0.0,
			"0.022": 0.0,
			"0.023": 0.0,
			"0.024": 0.0,
			"0.025": 0.0
		}
	}
}
