{
	 "smiles": "COC1=C(NC(=O)C2=CC=C(NC(=O)C(C)Cl)C=C2)C=CC=C1", 
	 "Tm": 423.15, 
	 "num_atms": 40, 
	 "gaussian": { 
		 "optdone": 1, 
		 "sigma_profile": "yes", 
		 "theory": "DFT", 
		 "functional": "B3LYP", 
		 "basiset": "6-31G**", 
		 "properties": { 
			 "R2extent": 12928.1783, 
			 "electric_dipole_moment_norm": 2.8188869612, 
			 "electric_quadrupole_moment_norm": 27.576015116, 
			 "total_energy": -1453.45222257, 
			 "HOMO_LUMO_gap": 0.16354, 
			 "cosmo_polarized_energy": -18.42, 
			 "cosmo_cavitation_energy": 45.94, 
			 "cosmo_dispersion_energy": -32.43, 
			 "cosmo_repulsion_energy": 2.49, 
			 "cosmo_total_nonelectrostatic_energy": 16.0, 
			 "SMD_solvation_energy": 9.16 
		},
		"coords": [
			{
				"x": 4.1350968801,
				"y": -2.3274569736,
				"z": -5.1482241217,
				"element": "C" 
			},
			{
				"x": 3.0403690679,
				"y": -1.5582301888,
				"z": -4.6742215476,
				"element": "O" 
			},
			{
				"x": 3.29570972,
				"y": -0.5325181521,
				"z": -3.8040488161,
				"element": "C" 
			},
			{
				"x": 2.1576796042,
				"y": 0.2176017844,
				"z": -3.4197993449,
				"element": "C" 
			},
			{
				"x": 0.9242597481,
				"y": -0.1680840051,
				"z": -3.9805019183,
				"element": "N" 
			},
			{
				"x": -0.3877145698,
				"y": 0.0831062084,
				"z": -3.6163760881,
				"element": "C" 
			},
			{
				"x": -1.2708532731,
				"y": 0.0176421322,
				"z": -4.4664965285,
				"element": "O" 
			},
			{
				"x": -0.7284245233,
				"y": 0.347855333,
				"z": -2.182485841,
				"element": "C" 
			},
			{
				"x": -1.8606407437,
				"y": 1.1319788227,
				"z": -1.9200189728,
				"element": "C" 
			},
			{
				"x": -2.2848094906,
				"y": 1.3468703142,
				"z": -0.6166288847,
				"element": "C" 
			},
			{
				"x": -1.6025437383,
				"y": 0.7535355254,
				"z": 0.4589653673,
				"element": "C" 
			},
			{
				"x": -2.0997096416,
				"y": 1.0099507477,
				"z": 1.7532843501,
				"element": "N" 
			},
			{
				"x": -1.6158913935,
				"y": 0.5744509719,
				"z": 2.9504083253,
				"element": "C" 
			},
			{
				"x": -0.6361289962,
				"y": -0.1420854946,
				"z": 3.1112116943,
				"element": "O" 
			},
			{
				"x": -2.376729275,
				"y": 0.9970497448,
				"z": 4.2229192539,
				"element": "C" 
			},
			{
				"x": -2.9493171867,
				"y": -0.2201102571,
				"z": 4.9438681985,
				"element": "C" 
			},
			{
				"x": -3.7031746411,
				"y": 2.2389989262,
				"z": 3.9444081693,
				"element": "Cl" 
			},
			{
				"x": -0.4865391843,
				"y": -0.0597135914,
				"z": 0.2076370847,
				"element": "C" 
			},
			{
				"x": -0.0604448258,
				"y": -0.2487859565,
				"z": -1.1048327899,
				"element": "C" 
			},
			{
				"x": 2.3291474023,
				"y": 1.3185781892,
				"z": -2.577092325,
				"element": "C" 
			},
			{
				"x": 3.5924760567,
				"y": 1.6416239518,
				"z": -2.0758538528,
				"element": "C" 
			},
			{
				"x": 4.7029125066,
				"y": 0.8870278473,
				"z": -2.4418437299,
				"element": "C" 
			},
			{
				"x": 4.5579247478,
				"y": -0.1955155427,
				"z": -3.3159694199,
				"element": "C" 
			},
			{
				"x": 3.7114960757,
				"y": -3.0655376166,
				"z": -5.8307564934,
				"element": "H" 
			},
			{
				"x": 4.8603296864,
				"y": -1.7062882644,
				"z": -5.6888484351,
				"element": "H" 
			},
			{
				"x": 4.6463950214,
				"y": -2.8462117427,
				"z": -4.3276737323,
				"element": "H" 
			},
			{
				"x": 0.9864915679,
				"y": -0.5710573309,
				"z": -4.9081622327,
				"element": "H" 
			},
			{
				"x": -2.4040060309,
				"y": 1.5597627074,
				"z": -2.7555666483,
				"element": "H" 
			},
			{
				"x": -3.1566572258,
				"y": 1.9682756114,
				"z": -0.4261065185,
				"element": "H" 
			},
			{
				"x": -2.9132364798,
				"y": 1.6102152989,
				"z": 1.8028101162,
				"element": "H" 
			},
			{
				"x": -1.6512660624,
				"y": 1.5110717435,
				"z": 4.8555553392,
				"element": "H" 
			},
			{
				"x": -3.3802616409,
				"y": 0.0692096981,
				"z": 5.9044688155,
				"element": "H" 
			},
			{
				"x": -2.1369395731,
				"y": -0.931610295,
				"z": 5.1119979676,
				"element": "H" 
			},
			{
				"x": -3.7232062305,
				"y": -0.7031292237,
				"z": 4.3412101775,
				"element": "H" 
			},
			{
				"x": 0.0279744642,
				"y": -0.5300339263,
				"z": 1.0332047631,
				"element": "H" 
			},
			{
				"x": 0.7997644583,
				"y": -0.8835751598,
				"z": -1.2870345649,
				"element": "H" 
			},
			{
				"x": 1.4698344513,
				"y": 1.9232269497,
				"z": -2.3134193571,
				"element": "H" 
			},
			{
				"x": 3.7015318204,
				"y": 2.4944743468,
				"z": -1.4133850416,
				"element": "H" 
			},
			{
				"x": 5.6884659182,
				"y": 1.137202734,
				"z": -2.0614942656,
				"element": "H" 
			},
			{
				"x": 5.428235529,
				"y": -0.7720658673,
				"z": -3.6062081516,
				"element": "H" 
			}
		],
		 "valence_orbital": [ 
			{
				"type": "occ",
				"energy": -0.26114,
				"method": "rhf"
			},
			{
				"type": "occ",
				"energy": -0.25248,
				"method": "rhf"
			},
			{
				"type": "occ",
				"energy": -0.23868,
				"method": "rhf"
			},
			{
				"type": "occ",
				"energy": -0.229,
				"method": "rhf"
			},
			{
				"type": "occ",
				"energy": -0.20798,
				"method": "rhf"
			},
			{
				"type": "unocc",
				"energy": -0.04444,
				"method": "rhf"
			},
			{
				"type": "unocc",
				"energy": -0.01148,
				"method": "rhf"
			},
			{
				"type": "unocc",
				"energy": -0.00588,
				"method": "rhf"
			},
			{
				"type": "unocc",
				"energy": 0.00373,
				"method": "rhf"
			},
			{
				"type": "unocc",
				"energy": 0.0103,
				"method": "rhf"
			}
		],
		"cosmo_sigma_profile": { 
			"-0.025": 0.0,
			"-0.024": 0.0,
			"-0.023": 0.0,
			"-0.022": 0.0,
			"-0.021": 0.0,
			"-0.02": 0.0,
			"-0.019": 0.0,
			"-0.018": 0.0,
			"-0.017": 0.0,
			"-0.016": 0.0,
			"-0.015": 0.0,
			"-0.014": 0.0788924290837,
			"-0.013": 0.920000789752,
			"-0.012": 1.04461514754,
			"-0.011": 1.20245496017,
			"-0.01": 2.20519744846,
			"-0.009": 2.9172465532,
			"-0.008": 5.16475812011,
			"-0.007": 6.39979859659,
			"-0.006": 18.0695820557,
			"-0.005": 33.1084132071,
			"-0.004": 31.9306268474,
			"-0.003": 29.2858204321,
			"-0.002": 25.5092381145,
			"-0.001": 27.3821931663,
			"0.0": 22.8965505779,
			"0.001": 24.3224441758,
			"0.002": 25.2412869356,
			"0.003": 26.9733272953,
			"0.004": 23.7741312116,
			"0.005": 18.5753723852,
			"0.006": 9.57799019179,
			"0.007": 3.93343277128,
			"0.008": 3.90395377055,
			"0.009": 3.63093692875,
			"0.01": 2.36973291439,
			"0.011": 4.38620651516,
			"0.012": 5.29388637219,
			"0.013": 5.8644535124,
			"0.014": 2.29565074614,
			"0.015": 0.000129296939256,
			"0.016": 0.0,
			"0.017": 0.0,
			"0.018": 0.0,
			"0.019": 0.0,
			"0.02": 0.0,
			"0.021": 0.0,
			"0.022": 0.0,
			"0.023": 0.0,
			"0.024": 0.0,
			"0.025": 0.0
		}
	}
}
