{
	 "smiles": "OC1=C(C=CC=C1)N1CCOCC1", 
	 "Tm": 488.15, 
	 "num_atms": 26, 
	 "gaussian": { 
		 "optdone": 1, 
		 "sigma_profile": "yes", 
		 "theory": "DFT", 
		 "functional": "B3LYP", 
		 "basiset": "6-31G**", 
		 "properties": { 
			 "R2extent": 3109.5381, 
			 "electric_dipole_moment_norm": 1.55796946697, 
			 "electric_quadrupole_moment_norm": 12.7071137069, 
			 "total_energy": -594.059364173, 
			 "HOMO_LUMO_gap": 0.1938, 
			 "cosmo_polarized_energy": -10.96, 
			 "cosmo_cavitation_energy": 27.44, 
			 "cosmo_dispersion_energy": -20.78, 
			 "cosmo_repulsion_energy": 1.64, 
			 "cosmo_total_nonelectrostatic_energy": 8.3, 
			 "SMD_solvation_energy": 3.65 
		},
		"coords": [
			{
				"x": -0.6511374815,
				"y": -2.5176624231,
				"z": 1.1889603072,
				"element": "O" 
			},
			{
				"x": -0.0125003751,
				"y": -1.7042904994,
				"z": 0.2829928643,
				"element": "C" 
			},
			{
				"x": -0.2141454489,
				"y": -0.3038871451,
				"z": 0.400259473,
				"element": "C" 
			},
			{
				"x": 0.3856235316,
				"y": 0.5113545433,
				"z": -0.5752731021,
				"element": "C" 
			},
			{
				"x": 1.1634388853,
				"y": -0.0209633873,
				"z": -1.6070307172,
				"element": "C" 
			},
			{
				"x": 1.376624505,
				"y": -1.3929029216,
				"z": -1.6849337599,
				"element": "C" 
			},
			{
				"x": 0.7848343084,
				"y": -2.2266037208,
				"z": -0.7316918166,
				"element": "C" 
			},
			{
				"x": -1.0350792071,
				"y": 0.2171353838,
				"z": 1.4084470991,
				"element": "N" 
			},
			{
				"x": -0.9205064288,
				"y": -0.2698128812,
				"z": 2.7968435973,
				"element": "C" 
			},
			{
				"x": -0.8855271947,
				"y": 0.904005162,
				"z": 3.773031276,
				"element": "C" 
			},
			{
				"x": -2.0377527385,
				"y": 1.7358406582,
				"z": 3.6826204502,
				"element": "O" 
			},
			{
				"x": -2.5609034301,
				"y": 1.8586206426,
				"z": 2.3610961764,
				"element": "C" 
			},
			{
				"x": -1.51631263,
				"y": 1.5875595377,
				"z": 1.2831005943,
				"element": "C" 
			},
			{
				"x": -0.4488228051,
				"y": -3.4360982903,
				"z": 0.9697882753,
				"element": "H" 
			},
			{
				"x": 0.2508472309,
				"y": 1.5854676302,
				"z": -0.5224939419,
				"element": "H" 
			},
			{
				"x": 1.6084625239,
				"y": 0.6475427428,
				"z": -2.3379650887,
				"element": "H" 
			},
			{
				"x": 1.9853441337,
				"y": -1.8200474833,
				"z": -2.4755621746,
				"element": "H" 
			},
			{
				"x": 0.9208944708,
				"y": -3.3056252113,
				"z": -0.7889592244,
				"element": "H" 
			},
			{
				"x": -1.7559590638,
				"y": -0.935354346,
				"z": 3.0465962813,
				"element": "H" 
			},
			{
				"x": -0.0020734163,
				"y": -0.8501642823,
				"z": 2.9139144874,
				"element": "H" 
			},
			{
				"x": 0.0281677384,
				"y": 1.4964904298,
				"z": 3.6056757701,
				"element": "H" 
			},
			{
				"x": -0.8512431709,
				"y": 0.5284564206,
				"z": 4.8012427551,
				"element": "H" 
			},
			{
				"x": -3.4038662906,
				"y": 1.1640243868,
				"z": 2.2260787592,
				"element": "H" 
			},
			{
				"x": -2.944765166,
				"y": 2.8797967047,
				"z": 2.2581380884,
				"element": "H" 
			},
			{
				"x": -0.7113104134,
				"y": 2.3396281234,
				"z": 1.3668074131,
				"element": "H" 
			},
			{
				"x": -1.9755320672,
				"y": 1.7191902259,
				"z": 0.2962161576,
				"element": "H" 
			}
		],
		 "valence_orbital": [ 
			{
				"type": "occ",
				"energy": -0.29795,
				"method": "rhf"
			},
			{
				"type": "occ",
				"energy": -0.27193,
				"method": "rhf"
			},
			{
				"type": "occ",
				"energy": -0.24433,
				"method": "rhf"
			},
			{
				"type": "occ",
				"energy": -0.22611,
				"method": "rhf"
			},
			{
				"type": "occ",
				"energy": -0.1825,
				"method": "rhf"
			},
			{
				"type": "unocc",
				"energy": 0.0113,
				"method": "rhf"
			},
			{
				"type": "unocc",
				"energy": 0.02072,
				"method": "rhf"
			},
			{
				"type": "unocc",
				"energy": 0.0708,
				"method": "rhf"
			},
			{
				"type": "unocc",
				"energy": 0.08864,
				"method": "rhf"
			},
			{
				"type": "unocc",
				"energy": 0.09454,
				"method": "rhf"
			}
		],
		"cosmo_sigma_profile": { 
			"-0.025": 0.0,
			"-0.024": 0.0,
			"-0.023": 0.0,
			"-0.022": 0.0,
			"-0.021": 0.0,
			"-0.02": 0.0,
			"-0.019": 0.0,
			"-0.018": 0.180299158043,
			"-0.017": 0.946603773555,
			"-0.016": 0.780302663263,
			"-0.015": 0.990339249834,
			"-0.014": 0.721570016814,
			"-0.013": 1.47977928527,
			"-0.012": 0.649972406739,
			"-0.011": 0.944275081123,
			"-0.01": 0.807208096934,
			"-0.009": 1.42900509818,
			"-0.008": 1.34111091696,
			"-0.007": 0.727065290362,
			"-0.006": 2.02103293475,
			"-0.005": 14.4232789567,
			"-0.004": 25.5227396159,
			"-0.003": 30.9837627638,
			"-0.002": 20.3498630553,
			"-0.001": 13.8697362355,
			"0.0": 11.0337895657,
			"0.001": 8.6610976375,
			"0.002": 9.22894262547,
			"0.003": 8.73526600806,
			"0.004": 9.77746577245,
			"0.005": 11.385395182,
			"0.006": 10.4753368713,
			"0.007": 10.3743742964,
			"0.008": 5.31771623094,
			"0.009": 2.43983886522,
			"0.01": 2.66906795832,
			"0.011": 2.46106336576,
			"0.012": 1.83105920457,
			"0.013": 1.58463463389,
			"0.014": 1.21924681333,
			"0.015": 0.0,
			"0.016": 0.0,
			"0.017": 0.0,
			"0.018": 0.0,
			"0.019": 0.0,
			"0.02": 0.0,
			"0.021": 0.0,
			"0.022": 0.0,
			"0.023": 0.0,
			"0.024": 0.0,
			"0.025": 0.0
		}
	}
}
