{
	 "smiles": "NNC(=O)C1=CC=C(COC2=C3N=CC=CC3=CC=C2)C=C1", 
	 "Tm": 409.15, 
	 "num_atms": 37, 
	 "gaussian": { 
		 "optdone": 1, 
		 "sigma_profile": "yes", 
		 "theory": "DFT", 
		 "functional": "B3LYP", 
		 "basiset": "6-31G**", 
		 "properties": { 
			 "R2extent": 9411.3764, 
			 "electric_dipole_moment_norm": 2.4900979037, 
			 "electric_quadrupole_moment_norm": 24.3604701131, 
			 "total_energy": -971.52011928, 
			 "HOMO_LUMO_gap": 0.16608, 
			 "cosmo_polarized_energy": -21.94, 
			 "cosmo_cavitation_energy": 41.66, 
			 "cosmo_dispersion_energy": -29.53, 
			 "cosmo_repulsion_energy": 2.26, 
			 "cosmo_total_nonelectrostatic_energy": 14.38, 
			 "SMD_solvation_energy": 6.77 
		},
		"coords": [
			{
				"x": -1.3600512852,
				"y": -1.5255061632,
				"z": -5.6959646259,
				"element": "N" 
			},
			{
				"x": -1.6990855958,
				"y": -2.6712250992,
				"z": -4.9413951513,
				"element": "N" 
			},
			{
				"x": -2.3358584852,
				"y": -2.6784765062,
				"z": -3.7138749653,
				"element": "C" 
			},
			{
				"x": -3.0165643196,
				"y": -3.6415924823,
				"z": -3.3795095027,
				"element": "O" 
			},
			{
				"x": -2.1563714155,
				"y": -1.4943082231,
				"z": -2.8074502179,
				"element": "C" 
			},
			{
				"x": -0.9487983712,
				"y": -0.7940652499,
				"z": -2.6724446475,
				"element": "C" 
			},
			{
				"x": -0.8315158524,
				"y": 0.2481805035,
				"z": -1.7550000003,
				"element": "C" 
			},
			{
				"x": -1.9202130213,
				"y": 0.6138188096,
				"z": -0.9555720235,
				"element": "C" 
			},
			{
				"x": -1.8233884201,
				"y": 1.7911278203,
				"z": -0.0036775309,
				"element": "C" 
			},
			{
				"x": -0.5019884674,
				"y": 2.0667115296,
				"z": 0.443800568,
				"element": "O" 
			},
			{
				"x": 0.0353837151,
				"y": 1.3072748058,
				"z": 1.438249138,
				"element": "C" 
			},
			{
				"x": 1.3348954014,
				"y": 1.7274498824,
				"z": 1.8893675687,
				"element": "C" 
			},
			{
				"x": 1.9173111316,
				"y": 2.8022447006,
				"z": 1.2924628083,
				"element": "N" 
			},
			{
				"x": 3.1078294869,
				"y": 3.175233844,
				"z": 1.7190388724,
				"element": "C" 
			},
			{
				"x": 3.8172421506,
				"y": 2.5279186094,
				"z": 2.7596994997,
				"element": "C" 
			},
			{
				"x": 3.23966656,
				"y": 1.4394443642,
				"z": 3.3693427158,
				"element": "C" 
			},
			{
				"x": 1.9603194847,
				"y": 0.9947577393,
				"z": 2.9477048894,
				"element": "C" 
			},
			{
				"x": 1.3033322972,
				"y": -0.1234798548,
				"z": 3.5266476148,
				"element": "C" 
			},
			{
				"x": 0.0674485766,
				"y": -0.5012715398,
				"z": 3.0607654536,
				"element": "C" 
			},
			{
				"x": -0.5722356636,
				"y": 0.206658374,
				"z": 2.0140637772,
				"element": "C" 
			},
			{
				"x": -3.1214228192,
				"y": -0.0959307854,
				"z": -1.0774664535,
				"element": "C" 
			},
			{
				"x": -3.236131603,
				"y": -1.1448607408,
				"z": -1.9853734326,
				"element": "C" 
			},
			{
				"x": -0.4334804892,
				"y": -1.2035617942,
				"z": -5.433081751,
				"element": "H" 
			},
			{
				"x": -2.0177294434,
				"y": -0.7723447552,
				"z": -5.5088285864,
				"element": "H" 
			},
			{
				"x": -1.9681430604,
				"y": -3.4619462562,
				"z": -5.5155587898,
				"element": "H" 
			},
			{
				"x": -0.0816923221,
				"y": -1.0850743071,
				"z": -3.2569901653,
				"element": "H" 
			},
			{
				"x": 0.1092482446,
				"y": 0.7775023829,
				"z": -1.6430948405,
				"element": "H" 
			},
			{
				"x": -2.5036561729,
				"y": 1.6577269234,
				"z": 0.8480266384,
				"element": "H" 
			},
			{
				"x": -2.1251425637,
				"y": 2.708866657,
				"z": -0.5207620326,
				"element": "H" 
			},
			{
				"x": 3.5500325377,
				"y": 4.0384293048,
				"z": 1.2220702167,
				"element": "H" 
			},
			{
				"x": 4.7949198105,
				"y": 2.8924621338,
				"z": 3.05924429,
				"element": "H" 
			},
			{
				"x": 3.7469226224,
				"y": 0.9093005978,
				"z": 4.1715426106,
				"element": "H" 
			},
			{
				"x": 1.7909738254,
				"y": -0.6701721768,
				"z": 4.328698058,
				"element": "H" 
			},
			{
				"x": -0.4382853507,
				"y": -1.3609974163,
				"z": 3.4904704154,
				"element": "H" 
			},
			{
				"x": -1.5343976229,
				"y": -0.1417826525,
				"z": 1.660029981,
				"element": "H" 
			},
			{
				"x": -3.9701440881,
				"y": 0.1661502262,
				"z": -0.4496816928,
				"element": "H" 
			},
			{
				"x": -4.1538294121,
				"y": -1.7186632056,
				"z": -2.0610987063,
				"element": "H" 
			}
		],
		 "valence_orbital": [ 
			{
				"type": "occ",
				"energy": -0.2528,
				"method": "rhf"
			},
			{
				"type": "occ",
				"energy": -0.25137,
				"method": "rhf"
			},
			{
				"type": "occ",
				"energy": -0.24974,
				"method": "rhf"
			},
			{
				"type": "occ",
				"energy": -0.24263,
				"method": "rhf"
			},
			{
				"type": "occ",
				"energy": -0.21337,
				"method": "rhf"
			},
			{
				"type": "unocc",
				"energy": -0.04729,
				"method": "rhf"
			},
			{
				"type": "unocc",
				"energy": -0.04162,
				"method": "rhf"
			},
			{
				"type": "unocc",
				"energy": -0.01765,
				"method": "rhf"
			},
			{
				"type": "unocc",
				"energy": -0.01403,
				"method": "rhf"
			},
			{
				"type": "unocc",
				"energy": 0.02922,
				"method": "rhf"
			}
		],
		"cosmo_sigma_profile": { 
			"-0.025": 0.0,
			"-0.024": 0.0,
			"-0.023": 0.0,
			"-0.022": 0.0,
			"-0.021": 0.0,
			"-0.02": 0.0,
			"-0.019": 0.0,
			"-0.018": 0.0,
			"-0.017": 0.0,
			"-0.016": 0.0,
			"-0.015": 0.0,
			"-0.014": 0.0208588187639,
			"-0.013": 0.696307906671,
			"-0.012": 2.61037090652,
			"-0.011": 3.58684961153,
			"-0.01": 3.66940306812,
			"-0.009": 4.12172854761,
			"-0.008": 4.27585280216,
			"-0.007": 14.1944019975,
			"-0.006": 24.8469405747,
			"-0.005": 27.4312412228,
			"-0.004": 22.2192024156,
			"-0.003": 19.4991079273,
			"-0.002": 17.0955403855,
			"-0.001": 16.2271312499,
			"0.0": 19.401662598,
			"0.001": 21.2989159828,
			"0.002": 30.6000185085,
			"0.003": 27.2410476797,
			"0.004": 20.7667291106,
			"0.005": 9.98986072355,
			"0.006": 4.38459812468,
			"0.007": 3.93528886342,
			"0.008": 4.6509328203,
			"0.009": 2.62633709955,
			"0.01": 2.71232284329,
			"0.011": 3.73684187522,
			"0.012": 4.53317521171,
			"0.013": 7.0291846525,
			"0.014": 4.40708578244,
			"0.015": 1.71086076335,
			"0.016": 1.20780881902,
			"0.017": 1.0580162794,
			"0.018": 0.8383742808,
			"0.019": 0.218589545621,
			"0.02": 0.0,
			"0.021": 0.0,
			"0.022": 0.0,
			"0.023": 0.0,
			"0.024": 0.0,
			"0.025": 0.0
		}
	}
}
