{
	 "smiles": "ClCN1C(=S)SC2=C1C=CC=C2", 
	 "Tm": 401.15, 
	 "num_atms": 18, 
	 "gaussian": { 
		 "optdone": 1, 
		 "sigma_profile": "yes", 
		 "theory": "DFT", 
		 "functional": "B3LYP", 
		 "basiset": "6-31G**", 
		 "properties": { 
			 "R2extent": 4106.8234, 
			 "electric_dipole_moment_norm": 5.06736598836, 
			 "electric_quadrupole_moment_norm": 17.038989215, 
			 "total_energy": -1619.79859414, 
			 "HOMO_LUMO_gap": 0.16322, 
			 "cosmo_polarized_energy": -10.91, 
			 "cosmo_cavitation_energy": 26.82, 
			 "cosmo_dispersion_energy": -20.64, 
			 "cosmo_repulsion_energy": 1.53, 
			 "cosmo_total_nonelectrostatic_energy": 7.71, 
			 "SMD_solvation_energy": 2.77 
		},
		"coords": [
			{
				"x": 2.0477623956,
				"y": 1.3804865018,
				"z": -2.2794991688,
				"element": "Cl" 
			},
			{
				"x": 0.4698901233,
				"y": 2.1297591545,
				"z": -1.746932872,
				"element": "C" 
			},
			{
				"x": -0.6001027044,
				"y": 1.1821111617,
				"z": -1.672292047,
				"element": "N" 
			},
			{
				"x": -1.5600287342,
				"y": 1.0910681206,
				"z": -2.6704942225,
				"element": "C" 
			},
			{
				"x": -1.6724342149,
				"y": 2.0027417114,
				"z": -4.0446235162,
				"element": "S" 
			},
			{
				"x": -2.7156628343,
				"y": -0.1794820789,
				"z": -2.2368811004,
				"element": "S" 
			},
			{
				"x": -1.8528766809,
				"y": -0.5571296184,
				"z": -0.7485544673,
				"element": "C" 
			},
			{
				"x": -0.7271684266,
				"y": 0.2695122085,
				"z": -0.6113535126,
				"element": "C" 
			},
			{
				"x": 0.1237020485,
				"y": 0.1367859532,
				"z": 0.4879874144,
				"element": "C" 
			},
			{
				"x": -0.1860042336,
				"y": -0.8242689615,
				"z": 1.4508082658,
				"element": "C" 
			},
			{
				"x": -1.3144167671,
				"y": -1.6415812602,
				"z": 1.3199675716,
				"element": "C" 
			},
			{
				"x": -2.1572215747,
				"y": -1.5166873477,
				"z": 0.2146081964,
				"element": "C" 
			},
			{
				"x": 0.21277021,
				"y": 2.8832048979,
				"z": -2.4881527688,
				"element": "H" 
			},
			{
				"x": 0.6537920339,
				"y": 2.5685694757,
				"z": -0.7676884705,
				"element": "H" 
			},
			{
				"x": 1.0150057374,
				"y": 0.7459644852,
				"z": 0.5845283153,
				"element": "H" 
			},
			{
				"x": 0.466787185,
				"y": -0.9405376397,
				"z": 2.3099894408,
				"element": "H" 
			},
			{
				"x": -1.5351892649,
				"y": -2.384214033,
				"z": 2.0799650438,
				"element": "H" 
			},
			{
				"x": -3.029604298,
				"y": -2.1527027312,
				"z": 0.105417898,
				"element": "H" 
			}
		],
		 "valence_orbital": [ 
			{
				"type": "occ",
				"energy": -0.31041,
				"method": "rhf"
			},
			{
				"type": "occ",
				"energy": -0.29305,
				"method": "rhf"
			},
			{
				"type": "occ",
				"energy": -0.2615,
				"method": "rhf"
			},
			{
				"type": "occ",
				"energy": -0.23169,
				"method": "rhf"
			},
			{
				"type": "occ",
				"energy": -0.22285,
				"method": "rhf"
			},
			{
				"type": "unocc",
				"energy": -0.05963,
				"method": "rhf"
			},
			{
				"type": "unocc",
				"energy": -0.0281,
				"method": "rhf"
			},
			{
				"type": "unocc",
				"energy": -0.02369,
				"method": "rhf"
			},
			{
				"type": "unocc",
				"energy": -0.00608,
				"method": "rhf"
			},
			{
				"type": "unocc",
				"energy": 0.02639,
				"method": "rhf"
			}
		],
		"cosmo_sigma_profile": { 
			"-0.025": 0.0,
			"-0.024": 0.0,
			"-0.023": 0.0,
			"-0.022": 0.0,
			"-0.021": 0.0,
			"-0.02": 0.0,
			"-0.019": 0.0,
			"-0.018": 0.0,
			"-0.017": 0.0,
			"-0.016": 0.0,
			"-0.015": 0.0,
			"-0.014": 0.0,
			"-0.013": 0.0,
			"-0.012": 0.0,
			"-0.011": 1.14619873847,
			"-0.01": 2.91383150522,
			"-0.009": 3.1223312566,
			"-0.008": 6.427782982,
			"-0.007": 10.3823119591,
			"-0.006": 13.2756289327,
			"-0.005": 10.5760950789,
			"-0.004": 11.0114690409,
			"-0.003": 8.76736346333,
			"-0.002": 10.6622343407,
			"-0.001": 12.4028881278,
			"0.0": 17.029553625,
			"0.001": 20.058412601,
			"0.002": 22.2362256619,
			"0.003": 21.4573406564,
			"0.004": 13.9325517549,
			"0.005": 12.9520821736,
			"0.006": 8.9658462165,
			"0.007": 7.81602956739,
			"0.008": 5.1471916089,
			"0.009": 2.32562434389,
			"0.01": 0.727946098913,
			"0.011": 0.0,
			"0.012": 0.0,
			"0.013": 0.0,
			"0.014": 0.0,
			"0.015": 0.0,
			"0.016": 0.0,
			"0.017": 0.0,
			"0.018": 0.0,
			"0.019": 0.0,
			"0.02": 0.0,
			"0.021": 0.0,
			"0.022": 0.0,
			"0.023": 0.0,
			"0.024": 0.0,
			"0.025": 0.0
		}
	}
}
