{
	 "smiles": "C=CC[Si](C1=CC=CC=C1)(C1=CC=CC=C1)C1=CC=CC=C1", 
	 "Tm": 362.15, 
	 "num_atms": 42, 
	 "gaussian": { 
		 "optdone": 1, 
		 "sigma_profile": "yes", 
		 "theory": "DFT", 
		 "functional": "B3LYP", 
		 "basiset": "6-31G**", 
		 "properties": { 
			 "R2extent": 7113.4076, 
			 "electric_dipole_moment_norm": 0.586946828938, 
			 "electric_quadrupole_moment_norm": 6.5232016311, 
			 "total_energy": -1101.79345639, 
			 "HOMO_LUMO_gap": 0.21527, 
			 "cosmo_polarized_energy": -7.61, 
			 "cosmo_cavitation_energy": 46.57, 
			 "cosmo_dispersion_energy": -28.97, 
			 "cosmo_repulsion_energy": 2.31, 
			 "cosmo_total_nonelectrostatic_energy": 19.91, 
			 "SMD_solvation_energy": 8.56 
		},
		"coords": [
			{
				"x": -4.2116491531,
				"y": -0.3599467535,
				"z": -1.4895478854,
				"element": "C" 
			},
			{
				"x": -3.3989777645,
				"y": -0.5613549998,
				"z": -0.4483287528,
				"element": "C" 
			},
			{
				"x": -2.0813383795,
				"y": -1.2784552058,
				"z": -0.4899354295,
				"element": "C" 
			},
			{
				"x": -0.5413881993,
				"y": -0.1959261075,
				"z": -0.1245951701,
				"element": "Si" 
			},
			{
				"x": -0.8167297169,
				"y": 0.732330931,
				"z": 1.5015796716,
				"element": "C" 
			},
			{
				"x": -0.5767152677,
				"y": 2.112978683,
				"z": 1.6223148677,
				"element": "C" 
			},
			{
				"x": -0.7769722187,
				"y": 2.781729461,
				"z": 2.8323444234,
				"element": "C" 
			},
			{
				"x": -1.2248115262,
				"y": 2.0814256446,
				"z": 3.9529313753,
				"element": "C" 
			},
			{
				"x": -1.4702149727,
				"y": 0.7095400794,
				"z": 3.8588317111,
				"element": "C" 
			},
			{
				"x": -1.2677285725,
				"y": 0.047156911,
				"z": 2.6475805928,
				"element": "C" 
			},
			{
				"x": -0.2214867595,
				"y": 1.0291548828,
				"z": -1.5290238296,
				"element": "C" 
			},
			{
				"x": 1.0335132507,
				"y": 1.1032277229,
				"z": -2.1621841592,
				"element": "C" 
			},
			{
				"x": 1.2752336348,
				"y": 2.0151414725,
				"z": -3.1919526996,
				"element": "C" 
			},
			{
				"x": 0.2624159898,
				"y": 2.8770985069,
				"z": -3.6139671861,
				"element": "C" 
			},
			{
				"x": -0.9916214719,
				"y": 2.8222927879,
				"z": -3.0017725756,
				"element": "C" 
			},
			{
				"x": -1.2292607912,
				"y": 1.9101839192,
				"z": -1.9725480022,
				"element": "C" 
			},
			{
				"x": 0.9382095216,
				"y": -1.3649823899,
				"z": 0.0501041962,
				"element": "C" 
			},
			{
				"x": 1.1870366171,
				"y": -2.3583984977,
				"z": -0.9177292427,
				"element": "C" 
			},
			{
				"x": 2.2735703406,
				"y": -3.2267841013,
				"z": -0.8063344813,
				"element": "C" 
			},
			{
				"x": 3.1416866072,
				"y": -3.1219790327,
				"z": 0.2827910308,
				"element": "C" 
			},
			{
				"x": 2.9163966315,
				"y": -2.1462870914,
				"z": 1.2545105704,
				"element": "C" 
			},
			{
				"x": 1.8269361784,
				"y": -1.2799660709,
				"z": 1.1373454072,
				"element": "C" 
			},
			{
				"x": -3.9694659759,
				"y": -0.7274752968,
				"z": -2.4841298681,
				"element": "H" 
			},
			{
				"x": -5.1491626885,
				"y": 0.1778909653,
				"z": -1.3828995713,
				"element": "H" 
			},
			{
				"x": -3.6928893196,
				"y": -0.1705950376,
				"z": 0.5262764534,
				"element": "H" 
			},
			{
				"x": -1.9387414083,
				"y": -1.7620932648,
				"z": -1.464163541,
				"element": "H" 
			},
			{
				"x": -2.0704249124,
				"y": -2.0818819894,
				"z": 0.2610324269,
				"element": "H" 
			},
			{
				"x": -0.2333661395,
				"y": 2.6748795184,
				"z": 0.7581785714,
				"element": "H" 
			},
			{
				"x": -0.5846073748,
				"y": 3.8492187734,
				"z": 2.8985456711,
				"element": "H" 
			},
			{
				"x": -1.3824925471,
				"y": 2.6002097997,
				"z": 4.8945578704,
				"element": "H" 
			},
			{
				"x": -1.8192551295,
				"y": 0.1575479708,
				"z": 4.7273909876,
				"element": "H" 
			},
			{
				"x": -1.4615883953,
				"y": -1.0224661269,
				"z": 2.599587993,
				"element": "H" 
			},
			{
				"x": 1.8331944061,
				"y": 0.4380647638,
				"z": -1.8486416194,
				"element": "H" 
			},
			{
				"x": 2.2536715634,
				"y": 2.0516854958,
				"z": -3.663470802,
				"element": "H" 
			},
			{
				"x": 0.4480589134,
				"y": 3.5874161958,
				"z": -4.415143216,
				"element": "H" 
			},
			{
				"x": -1.785618197,
				"y": 3.4893317497,
				"z": -3.3268665639,
				"element": "H" 
			},
			{
				"x": -2.2142296967,
				"y": 1.8787358265,
				"z": -1.5160612393,
				"element": "H" 
			},
			{
				"x": 0.5264548658,
				"y": -2.457709829,
				"z": -1.7763979893,
				"element": "H" 
			},
			{
				"x": 2.4423825779,
				"y": -3.9846501842,
				"z": -1.5666498508,
				"element": "H" 
			},
			{
				"x": 3.987865316,
				"y": -3.7976774447,
				"z": 0.3727433707,
				"element": "H" 
			},
			{
				"x": 3.587621435,
				"y": -2.0594534569,
				"z": 2.1047381122,
				"element": "H" 
			},
			{
				"x": 1.6634887292,
				"y": -0.5298591801,
				"z": 1.906258372,
				"element": "H" 
			}
		],
		 "valence_orbital": [ 
			{
				"type": "occ",
				"energy": -0.24916,
				"method": "rhf"
			},
			{
				"type": "occ",
				"energy": -0.24828,
				"method": "rhf"
			},
			{
				"type": "occ",
				"energy": -0.24536,
				"method": "rhf"
			},
			{
				"type": "occ",
				"energy": -0.24375,
				"method": "rhf"
			},
			{
				"type": "occ",
				"energy": -0.23132,
				"method": "rhf"
			},
			{
				"type": "unocc",
				"energy": -0.01605,
				"method": "rhf"
			},
			{
				"type": "unocc",
				"energy": -0.01242,
				"method": "rhf"
			},
			{
				"type": "unocc",
				"energy": -0.00964,
				"method": "rhf"
			},
			{
				"type": "unocc",
				"energy": -0.00416,
				"method": "rhf"
			},
			{
				"type": "unocc",
				"energy": 0.00371,
				"method": "rhf"
			}
		],
		"cosmo_sigma_profile": { 
			"-0.025": 0.0,
			"-0.024": 0.0,
			"-0.023": 0.0,
			"-0.022": 0.0,
			"-0.021": 0.0,
			"-0.02": 0.0,
			"-0.019": 0.0,
			"-0.018": 0.0,
			"-0.017": 0.0,
			"-0.016": 0.0,
			"-0.015": 0.0,
			"-0.014": 0.0,
			"-0.013": 0.0,
			"-0.012": 0.0,
			"-0.011": 0.0,
			"-0.01": 0.0,
			"-0.009": 0.0,
			"-0.008": 0.0,
			"-0.007": 0.0,
			"-0.006": 9.3668247406,
			"-0.005": 27.2867872666,
			"-0.004": 36.3436660096,
			"-0.003": 39.5039011999,
			"-0.002": 29.3986224121,
			"-0.001": 30.7309392386,
			"0.0": 30.3794774562,
			"0.001": 32.8944871525,
			"0.002": 29.8541072149,
			"0.003": 28.2875980532,
			"0.004": 27.0802160726,
			"0.005": 25.0451397832,
			"0.006": 19.1509777061,
			"0.007": 2.34784355612,
			"0.008": 0.382097238697,
			"0.009": 0.0,
			"0.01": 0.0,
			"0.011": 0.0,
			"0.012": 0.0,
			"0.013": 0.0,
			"0.014": 0.0,
			"0.015": 0.0,
			"0.016": 0.0,
			"0.017": 0.0,
			"0.018": 0.0,
			"0.019": 0.0,
			"0.02": 0.0,
			"0.021": 0.0,
			"0.022": 0.0,
			"0.023": 0.0,
			"0.024": 0.0,
			"0.025": 0.0
		}
	}
}
