{
	 "smiles": "[O-][N+](=O)C1=CC=CC(OCCBr)=C1", 
	 "Tm": 312.15, 
	 "num_atms": 21, 
	 "gaussian": { 
		 "optdone": 1, 
		 "sigma_profile": "yes", 
		 "theory": "DFT", 
		 "functional": "B3LYP", 
		 "basiset": "6-31G**", 
		 "properties": { 
			 "R2extent": 5392.2431, 
			 "electric_dipole_moment_norm": 6.33972154041, 
			 "electric_quadrupole_moment_norm": 14.0795142917, 
			 "total_energy": -3161.39106925, 
			 "HOMO_LUMO_gap": 0.16052, 
			 "cosmo_polarized_energy": -13.5, 
			 "cosmo_cavitation_energy": 28.62, 
			 "cosmo_dispersion_energy": -21.15, 
			 "cosmo_repulsion_energy": 1.7, 
			 "cosmo_total_nonelectrostatic_energy": 9.16, 
			 "SMD_solvation_energy": 6.17 
		},
		"coords": [
			{
				"x": -2.482303798,
				"y": -1.3781087557,
				"z": -3.3955322581,
				"element": "O" 
			},
			{
				"x": -1.806005897,
				"y": -0.6154154319,
				"z": -2.7067392965,
				"element": "N" 
			},
			{
				"x": -1.17572036,
				"y": 0.3478250571,
				"z": -3.1391174695,
				"element": "O" 
			},
			{
				"x": -1.7502174287,
				"y": -0.8775503011,
				"z": -1.2556106018,
				"element": "C" 
			},
			{
				"x": -2.4642517377,
				"y": -1.9601973016,
				"z": -0.740087725,
				"element": "C" 
			},
			{
				"x": -2.3960093945,
				"y": -2.1840556854,
				"z": 0.6304486365,
				"element": "C" 
			},
			{
				"x": -1.638804102,
				"y": -1.3533098276,
				"z": 1.4633677936,
				"element": "C" 
			},
			{
				"x": -0.9312350414,
				"y": -0.2746836692,
				"z": 0.9150141088,
				"element": "C" 
			},
			{
				"x": -0.1681362412,
				"y": 0.5978661999,
				"z": 1.6300194958,
				"element": "O" 
			},
			{
				"x": -0.0288888462,
				"y": 0.4007433864,
				"z": 3.0290911557,
				"element": "C" 
			},
			{
				"x": 0.8969112887,
				"y": 1.4687549022,
				"z": 3.5689489855,
				"element": "C" 
			},
			{
				"x": 2.7527156433,
				"y": 1.2358368837,
				"z": 2.944223833,
				"element": "Br" 
			},
			{
				"x": -0.9869000854,
				"y": -0.0324268284,
				"z": -0.4634800752,
				"element": "C" 
			},
			{
				"x": -3.0434658533,
				"y": -2.5888107788,
				"z": -1.4030431629,
				"element": "H" 
			},
			{
				"x": -2.9390401638,
				"y": -3.0167031535,
				"z": 1.0663805234,
				"element": "H" 
			},
			{
				"x": -1.6088783385,
				"y": -1.5549078906,
				"z": 2.5273830765,
				"element": "H" 
			},
			{
				"x": 0.3654285556,
				"y": -0.5998705597,
				"z": 3.2463657142,
				"element": "H" 
			},
			{
				"x": -1.0060953546,
				"y": 0.5054185089,
				"z": 3.5272276665,
				"element": "H" 
			},
			{
				"x": 0.9357508721,
				"y": 1.4269505748,
				"z": 4.6570162615,
				"element": "H" 
			},
			{
				"x": 0.587572755,
				"y": 2.4609495307,
				"z": 3.2424974452,
				"element": "H" 
			},
			{
				"x": -0.4434264725,
				"y": 0.7958951397,
				"z": -0.8984741072,
				"element": "H" 
			}
		],
		 "valence_orbital": [ 
			{
				"type": "occ",
				"energy": -0.28994,
				"method": "rhf"
			},
			{
				"type": "occ",
				"energy": -0.28484,
				"method": "rhf"
			},
			{
				"type": "occ",
				"energy": -0.28398,
				"method": "rhf"
			},
			{
				"type": "occ",
				"energy": -0.28178,
				"method": "rhf"
			},
			{
				"type": "occ",
				"energy": -0.24848,
				"method": "rhf"
			},
			{
				"type": "unocc",
				"energy": -0.08796,
				"method": "rhf"
			},
			{
				"type": "unocc",
				"energy": -0.02258,
				"method": "rhf"
			},
			{
				"type": "unocc",
				"energy": -0.00957,
				"method": "rhf"
			},
			{
				"type": "unocc",
				"energy": 0.00583,
				"method": "rhf"
			},
			{
				"type": "unocc",
				"energy": 0.07214,
				"method": "rhf"
			}
		],
		"cosmo_sigma_profile": { 
			"-0.025": 0.0,
			"-0.024": 0.0,
			"-0.023": 0.0,
			"-0.022": 0.0,
			"-0.021": 0.0,
			"-0.02": 0.0,
			"-0.019": 0.0,
			"-0.018": 0.0,
			"-0.017": 0.0,
			"-0.016": 0.0,
			"-0.015": 0.0,
			"-0.014": 0.0,
			"-0.013": 0.0,
			"-0.012": 0.0,
			"-0.011": 0.0,
			"-0.01": 0.0,
			"-0.009": 0.882770677164,
			"-0.008": 8.49437698558,
			"-0.007": 18.6406536097,
			"-0.006": 18.807585055,
			"-0.005": 13.5076622447,
			"-0.004": 10.6701611633,
			"-0.003": 10.3511047078,
			"-0.002": 11.033312924,
			"-0.001": 13.2685853105,
			"0.0": 15.511594713,
			"0.001": 20.7606810214,
			"0.002": 14.4767205602,
			"0.003": 12.0287468887,
			"0.004": 8.7449862106,
			"0.005": 10.4139396656,
			"0.006": 15.2679731113,
			"0.007": 11.5812981532,
			"0.008": 9.90856980859,
			"0.009": 4.72218331044,
			"0.01": 2.6074508334,
			"0.011": 0.0978698948439,
			"0.012": 0.0,
			"0.013": 0.0,
			"0.014": 0.0,
			"0.015": 0.0,
			"0.016": 0.0,
			"0.017": 0.0,
			"0.018": 0.0,
			"0.019": 0.0,
			"0.02": 0.0,
			"0.021": 0.0,
			"0.022": 0.0,
			"0.023": 0.0,
			"0.024": 0.0,
			"0.025": 0.0
		}
	}
}
