{
	 "smiles": "OC(=O)C1=C2C(ON=C2C2CC2)=NC(=C1)C1=CC=C(F)C=C1", 
	 "Tm": 503.15, 
	 "num_atms": 33, 
	 "gaussian": { 
		 "optdone": 1, 
		 "sigma_profile": "yes", 
		 "theory": "DFT", 
		 "functional": "B3LYP", 
		 "basiset": "6-31G**", 
		 "properties": { 
			 "R2extent": 9335.8626, 
			 "electric_dipole_moment_norm": 1.94671171723, 
			 "electric_quadrupole_moment_norm": 20.8262687189, 
			 "total_energy": -1051.28162262, 
			 "HOMO_LUMO_gap": 0.14635, 
			 "cosmo_polarized_energy": -16.05, 
			 "cosmo_cavitation_energy": 38.34, 
			 "cosmo_dispersion_energy": -27.78, 
			 "cosmo_repulsion_energy": 2.02, 
			 "cosmo_total_nonelectrostatic_energy": 12.58, 
			 "SMD_solvation_energy": 6.23 
		},
		"coords": [
			{
				"x": -3.387050391,
				"y": 1.6885882202,
				"z": -0.3676457094,
				"element": "O" 
			},
			{
				"x": -3.1763165727,
				"y": 0.4779495847,
				"z": 0.1913983463,
				"element": "C" 
			},
			{
				"x": -4.1115112769,
				"y": -0.2206122198,
				"z": 0.5032950563,
				"element": "O" 
			},
			{
				"x": -1.7472832738,
				"y": 0.0309571609,
				"z": 0.3785595164,
				"element": "C" 
			},
			{
				"x": -0.6036782624,
				"y": 0.8565672642,
				"z": 0.4551349252,
				"element": "C" 
			},
			{
				"x": 0.626358899,
				"y": 0.1885721208,
				"z": 0.5884002731,
				"element": "C" 
			},
			{
				"x": 1.6362293632,
				"y": 1.0880335621,
				"z": 0.6349971816,
				"element": "O" 
			},
			{
				"x": 1.0806894448,
				"y": 2.3721453534,
				"z": 0.5573447528,
				"element": "N" 
			},
			{
				"x": -0.2219201525,
				"y": 2.2495393386,
				"z": 0.4522515256,
				"element": "C" 
			},
			{
				"x": -1.0689909505,
				"y": 3.4638176193,
				"z": 0.3422528292,
				"element": "C" 
			},
			{
				"x": -0.4428924735,
				"y": 4.797426511,
				"z": 0.0351994477,
				"element": "C" 
			},
			{
				"x": -1.2708044312,
				"y": 4.1310601574,
				"z": -1.02642976,
				"element": "C" 
			},
			{
				"x": 0.8541963316,
				"y": -1.1064066569,
				"z": 0.6712782624,
				"element": "N" 
			},
			{
				"x": -0.2403101683,
				"y": -1.889137255,
				"z": 0.6310802166,
				"element": "C" 
			},
			{
				"x": -1.5385941931,
				"y": -1.3402209059,
				"z": 0.482629909,
				"element": "C" 
			},
			{
				"x": -0.0142425034,
				"y": -3.350639541,
				"z": 0.730372647,
				"element": "C" 
			},
			{
				"x": 1.2893470434,
				"y": -3.8594488198,
				"z": 0.5823196614,
				"element": "C" 
			},
			{
				"x": 1.5412418149,
				"y": -5.224227185,
				"z": 0.6647171297,
				"element": "C" 
			},
			{
				"x": 0.4770336285,
				"y": -6.0882555437,
				"z": 0.9046795837,
				"element": "C" 
			},
			{
				"x": 0.7130765922,
				"y": -7.4109730219,
				"z": 0.9862183386,
				"element": "F" 
			},
			{
				"x": -0.8237066982,
				"y": -5.6237477441,
				"z": 1.0667030597,
				"element": "C" 
			},
			{
				"x": -1.0620791228,
				"y": -4.2550613536,
				"z": 0.9781722591,
				"element": "C" 
			},
			{
				"x": -2.5605954808,
				"y": 2.1239992474,
				"z": -0.6303016331,
				"element": "H" 
			},
			{
				"x": -1.929239641,
				"y": 3.4722832563,
				"z": 1.0066343168,
				"element": "H" 
			},
			{
				"x": 0.6325256183,
				"y": 4.8165756999,
				"z": -0.097490425,
				"element": "H" 
			},
			{
				"x": -0.8586071736,
				"y": 5.6631914459,
				"z": 0.5395872637,
				"element": "H" 
			},
			{
				"x": -0.7466423526,
				"y": 3.6996906583,
				"z": -1.8741123295,
				"element": "H" 
			},
			{
				"x": -2.2544423647,
				"y": 4.5327001124,
				"z": -1.2513405585,
				"element": "H" 
			},
			{
				"x": -2.4104599289,
				"y": -1.9778960702,
				"z": 0.4251649592,
				"element": "H" 
			},
			{
				"x": 2.1005583701,
				"y": -3.1641042132,
				"z": 0.4013860653,
				"element": "H" 
			},
			{
				"x": 2.541652659,
				"y": -5.6258301896,
				"z": 0.5459417795,
				"element": "H" 
			},
			{
				"x": -1.6245806532,
				"y": -6.3276267615,
				"z": 1.2640081292,
				"element": "H" 
			},
			{
				"x": -2.0756616998,
				"y": -3.8990098318,
				"z": 1.1259929803,
				"element": "H" 
			}
		],
		 "valence_orbital": [ 
			{
				"type": "occ",
				"energy": -0.29385,
				"method": "rhf"
			},
			{
				"type": "occ",
				"energy": -0.28839,
				"method": "rhf"
			},
			{
				"type": "occ",
				"energy": -0.27621,
				"method": "rhf"
			},
			{
				"type": "occ",
				"energy": -0.27132,
				"method": "rhf"
			},
			{
				"type": "occ",
				"energy": -0.24102,
				"method": "rhf"
			},
			{
				"type": "unocc",
				"energy": -0.09467,
				"method": "rhf"
			},
			{
				"type": "unocc",
				"energy": -0.04864,
				"method": "rhf"
			},
			{
				"type": "unocc",
				"energy": -0.02009,
				"method": "rhf"
			},
			{
				"type": "unocc",
				"energy": -0.00927,
				"method": "rhf"
			},
			{
				"type": "unocc",
				"energy": 0.01703,
				"method": "rhf"
			}
		],
		"cosmo_sigma_profile": { 
			"-0.025": 0.0,
			"-0.024": 0.0,
			"-0.023": 0.0,
			"-0.022": 0.0,
			"-0.021": 0.0,
			"-0.02": 0.0,
			"-0.019": 0.0,
			"-0.018": 0.0,
			"-0.017": 0.0,
			"-0.016": 0.0,
			"-0.015": 0.135078009486,
			"-0.014": 0.617627940563,
			"-0.013": 0.588978262216,
			"-0.012": 0.679826440956,
			"-0.011": 0.94820017907,
			"-0.01": 1.26842892981,
			"-0.009": 3.59798717691,
			"-0.008": 6.04926999039,
			"-0.007": 11.4639982632,
			"-0.006": 19.5448177216,
			"-0.005": 20.3460005898,
			"-0.004": 18.6646674965,
			"-0.003": 22.5765176093,
			"-0.002": 21.7870555592,
			"-0.001": 21.7480687314,
			"0.0": 22.6765703316,
			"0.001": 20.8182734595,
			"0.002": 21.8954979606,
			"0.003": 23.2269398319,
			"0.004": 17.1858780955,
			"0.005": 6.94143451018,
			"0.006": 7.34753001389,
			"0.007": 10.0366140195,
			"0.008": 7.14775924827,
			"0.009": 7.40268644739,
			"0.01": 5.99605795754,
			"0.011": 6.30857213907,
			"0.012": 2.31898570225,
			"0.013": 0.0884862463041,
			"0.014": 0.0,
			"0.015": 0.0,
			"0.016": 0.0,
			"0.017": 0.0,
			"0.018": 0.0,
			"0.019": 0.0,
			"0.02": 0.0,
			"0.021": 0.0,
			"0.022": 0.0,
			"0.023": 0.0,
			"0.024": 0.0,
			"0.025": 0.0
		}
	}
}
