{
	 "smiles": "COC(=O)C1=CC(OC(F)F)=C(N)C=C1", 
	 "Tm": 338.15, 
	 "num_atms": 24, 
	 "gaussian": { 
		 "optdone": 1, 
		 "sigma_profile": "yes", 
		 "theory": "DFT", 
		 "functional": "B3LYP", 
		 "basiset": "6-31G**", 
		 "properties": { 
			 "R2extent": 4595.8833, 
			 "electric_dipole_moment_norm": 1.28172014496, 
			 "electric_quadrupole_moment_norm": 19.6298581215, 
			 "total_energy": -828.494560268, 
			 "HOMO_LUMO_gap": 0.18117, 
			 "cosmo_polarized_energy": -13.15, 
			 "cosmo_cavitation_energy": 29.82, 
			 "cosmo_dispersion_energy": -21.41, 
			 "cosmo_repulsion_energy": 1.65, 
			 "cosmo_total_nonelectrostatic_energy": 10.06, 
			 "SMD_solvation_energy": 7.83 
		},
		"coords": [
			{
				"x": -2.9369322554,
				"y": 1.0694235964,
				"z": 1.4267126543,
				"element": "C" 
			},
			{
				"x": -1.6326291185,
				"y": 0.685194368,
				"z": 0.970182762,
				"element": "O" 
			},
			{
				"x": -1.5275423447,
				"y": -0.5983846992,
				"z": 0.5419412222,
				"element": "C" 
			},
			{
				"x": -2.468448897,
				"y": -1.3708916738,
				"z": 0.5371322455,
				"element": "O" 
			},
			{
				"x": -0.1583905166,
				"y": -0.9338315006,
				"z": 0.090084422,
				"element": "C" 
			},
			{
				"x": 0.899629566,
				"y": -0.0133867587,
				"z": 0.1287715362,
				"element": "C" 
			},
			{
				"x": 2.1578538198,
				"y": -0.3852463278,
				"z": -0.3117391113,
				"element": "C" 
			},
			{
				"x": 3.229235157,
				"y": 0.5114685941,
				"z": -0.1925352192,
				"element": "O" 
			},
			{
				"x": 3.4344797066,
				"y": 1.3752680667,
				"z": -1.2412032799,
				"element": "C" 
			},
			{
				"x": 4.0323283631,
				"y": 2.4759641154,
				"z": -0.7479573996,
				"element": "F" 
			},
			{
				"x": 4.3002183843,
				"y": 0.8184149575,
				"z": -2.1426748383,
				"element": "F" 
			},
			{
				"x": 2.4266859289,
				"y": -1.6856218104,
				"z": -0.7968630161,
				"element": "C" 
			},
			{
				"x": 3.6751913904,
				"y": -2.0127324774,
				"z": -1.2599175008,
				"element": "N" 
			},
			{
				"x": 1.3554336384,
				"y": -2.6029519242,
				"z": -0.8152890371,
				"element": "C" 
			},
			{
				"x": 0.0920996763,
				"y": -2.2309771165,
				"z": -0.3838506546,
				"element": "C" 
			},
			{
				"x": -3.2492711825,
				"y": 0.4496458101,
				"z": 2.271192263,
				"element": "H" 
			},
			{
				"x": -3.6733864985,
				"y": 0.9652659569,
				"z": 0.6256879794,
				"element": "H" 
			},
			{
				"x": -2.847566217,
				"y": 2.1125571166,
				"z": 1.7307721254,
				"element": "H" 
			},
			{
				"x": 0.7477000609,
				"y": 0.9861354268,
				"z": 0.5194876473,
				"element": "H" 
			},
			{
				"x": 2.5107996102,
				"y": 1.6410826058,
				"z": -1.766682585,
				"element": "H" 
			},
			{
				"x": 3.9266301277,
				"y": -2.9865214106,
				"z": -1.314328403,
				"element": "H" 
			},
			{
				"x": 4.4242081083,
				"y": -1.3615273893,
				"z": -1.0822563669,
				"element": "H" 
			},
			{
				"x": 1.5326586381,
				"y": -3.6096401768,
				"z": -1.1838978135,
				"element": "H" 
			},
			{
				"x": -0.7290851457,
				"y": -2.9394073491,
				"z": -0.4030696321,
				"element": "H" 
			}
		],
		 "valence_orbital": [ 
			{
				"type": "occ",
				"energy": -0.32036,
				"method": "rhf"
			},
			{
				"type": "occ",
				"energy": -0.29661,
				"method": "rhf"
			},
			{
				"type": "occ",
				"energy": -0.2682,
				"method": "rhf"
			},
			{
				"type": "occ",
				"energy": -0.26149,
				"method": "rhf"
			},
			{
				"type": "occ",
				"energy": -0.21702,
				"method": "rhf"
			},
			{
				"type": "unocc",
				"energy": -0.03585,
				"method": "rhf"
			},
			{
				"type": "unocc",
				"energy": -0.01174,
				"method": "rhf"
			},
			{
				"type": "unocc",
				"energy": 0.06396,
				"method": "rhf"
			},
			{
				"type": "unocc",
				"energy": 0.07932,
				"method": "rhf"
			},
			{
				"type": "unocc",
				"energy": 0.09447,
				"method": "rhf"
			}
		],
		"cosmo_sigma_profile": { 
			"-0.025": 0.0,
			"-0.024": 0.0,
			"-0.023": 0.0,
			"-0.022": 0.0,
			"-0.021": 0.0,
			"-0.02": 0.0,
			"-0.019": 0.0,
			"-0.018": 0.0,
			"-0.017": 0.0,
			"-0.016": 0.0,
			"-0.015": 0.0709110722907,
			"-0.014": 0.907799678242,
			"-0.013": 1.62389955026,
			"-0.012": 1.75626272368,
			"-0.011": 1.98516898614,
			"-0.01": 4.89736547224,
			"-0.009": 4.6659487303,
			"-0.008": 4.24982521445,
			"-0.007": 6.69319201804,
			"-0.006": 10.3316518536,
			"-0.005": 12.4931304508,
			"-0.004": 14.636655986,
			"-0.003": 15.1203526016,
			"-0.002": 12.9264920459,
			"-0.001": 11.4919967825,
			"0.0": 12.1925825367,
			"0.001": 15.5824090331,
			"0.002": 19.6679233091,
			"0.003": 25.8607926973,
			"0.004": 25.7275082645,
			"0.005": 8.53122990884,
			"0.006": 5.48729785082,
			"0.007": 4.05832212392,
			"0.008": 3.21534454946,
			"0.009": 2.92170301822,
			"0.01": 2.07744809007,
			"0.011": 2.11915872444,
			"0.012": 4.31215450605,
			"0.013": 2.05064449729,
			"0.014": 0.0,
			"0.015": 0.0,
			"0.016": 0.0,
			"0.017": 0.0,
			"0.018": 0.0,
			"0.019": 0.0,
			"0.02": 0.0,
			"0.021": 0.0,
			"0.022": 0.0,
			"0.023": 0.0,
			"0.024": 0.0,
			"0.025": 0.0
		}
	}
}
