{
	 "smiles": "O=S1(=O)CC2=C(C1)C1=CC=CC=C1C=N2", 
	 "Tm": 483.15, 
	 "num_atms": 24, 
	 "gaussian": { 
		 "optdone": 1, 
		 "sigma_profile": "yes", 
		 "theory": "DFT", 
		 "functional": "B3LYP", 
		 "basiset": "6-31G**", 
		 "properties": { 
			 "R2extent": 4573.9766, 
			 "electric_dipole_moment_norm": 6.536530644, 
			 "electric_quadrupole_moment_norm": 24.6221927738, 
			 "total_energy": -1027.92474447, 
			 "HOMO_LUMO_gap": 0.173, 
			 "cosmo_polarized_energy": -16.87, 
			 "cosmo_cavitation_energy": 28.73, 
			 "cosmo_dispersion_energy": -22.19, 
			 "cosmo_repulsion_energy": 1.64, 
			 "cosmo_total_nonelectrostatic_energy": 8.18, 
			 "SMD_solvation_energy": 1.93 
		},
		"coords": [
			{
				"x": 0.3179293324,
				"y": -2.6532091607,
				"z": -4.4634153081,
				"element": "O" 
			},
			{
				"x": 0.280013929,
				"y": -1.2442280983,
				"z": -4.0447672585,
				"element": "S" 
			},
			{
				"x": 0.0297288275,
				"y": -0.1745845471,
				"z": -5.0220909088,
				"element": "O" 
			},
			{
				"x": 1.7876648004,
				"y": -0.8511879713,
				"z": -3.0787151534,
				"element": "C" 
			},
			{
				"x": 1.3024637537,
				"y": -0.5915314822,
				"z": -1.676169363,
				"element": "C" 
			},
			{
				"x": -0.0591296079,
				"y": -0.7000088065,
				"z": -1.4553422156,
				"element": "C" 
			},
			{
				"x": -0.9039866575,
				"y": -1.065947124,
				"z": -2.6434648683,
				"element": "C" 
			},
			{
				"x": -0.5660206487,
				"y": -0.4640118629,
				"z": -0.1463975503,
				"element": "C" 
			},
			{
				"x": -1.9379700031,
				"y": -0.5438088384,
				"z": 0.2073743528,
				"element": "C" 
			},
			{
				"x": -2.3361622421,
				"y": -0.2981031406,
				"z": 1.5042238945,
				"element": "C" 
			},
			{
				"x": -1.3906012536,
				"y": 0.0369497398,
				"z": 2.5039604503,
				"element": "C" 
			},
			{
				"x": -0.052738345,
				"y": 0.121506228,
				"z": 2.1884835224,
				"element": "C" 
			},
			{
				"x": 0.3870002749,
				"y": -0.1257437251,
				"z": 0.8635401614,
				"element": "C" 
			},
			{
				"x": 1.7590356465,
				"y": -0.049953959,
				"z": 0.4920216528,
				"element": "C" 
			},
			{
				"x": 2.2145200026,
				"y": -0.2706207479,
				"z": -0.7224238849,
				"element": "N" 
			},
			{
				"x": 2.4624315485,
				"y": -1.708753834,
				"z": -3.1436426349,
				"element": "H" 
			},
			{
				"x": 2.2610129863,
				"y": 0.0227410514,
				"z": -3.5338403006,
				"element": "H" 
			},
			{
				"x": -1.4221527066,
				"y": -2.0240422749,
				"z": -2.5388912424,
				"element": "H" 
			},
			{
				"x": -1.623236501,
				"y": -0.2924106722,
				"z": -2.929268131,
				"element": "H" 
			},
			{
				"x": -2.6732133843,
				"y": -0.7996330376,
				"z": -0.5492999908,
				"element": "H" 
			},
			{
				"x": -3.3883528411,
				"y": -0.3615420727,
				"z": 1.7657158484,
				"element": "H" 
			},
			{
				"x": -1.7271619899,
				"y": 0.226275923,
				"z": 3.5185623285,
				"element": "H" 
			},
			{
				"x": 0.682008664,
				"y": 0.3777823783,
				"z": 2.9472086904,
				"element": "H" 
			},
			{
				"x": 2.496616415,
				"y": 0.2071660349,
				"z": 1.252737909,
				"element": "H" 
			}
		],
		 "valence_orbital": [ 
			{
				"type": "occ",
				"energy": -0.29476,
				"method": "rhf"
			},
			{
				"type": "occ",
				"energy": -0.28849,
				"method": "rhf"
			},
			{
				"type": "occ",
				"energy": -0.28021,
				"method": "rhf"
			},
			{
				"type": "occ",
				"energy": -0.27318,
				"method": "rhf"
			},
			{
				"type": "occ",
				"energy": -0.24537,
				"method": "rhf"
			},
			{
				"type": "unocc",
				"energy": -0.07237,
				"method": "rhf"
			},
			{
				"type": "unocc",
				"energy": -0.04377,
				"method": "rhf"
			},
			{
				"type": "unocc",
				"energy": 0.00507,
				"method": "rhf"
			},
			{
				"type": "unocc",
				"energy": 0.05222,
				"method": "rhf"
			},
			{
				"type": "unocc",
				"energy": 0.05922,
				"method": "rhf"
			}
		],
		"cosmo_sigma_profile": { 
			"-0.025": 0.0,
			"-0.024": 0.0,
			"-0.023": 0.0,
			"-0.022": 0.0,
			"-0.021": 0.0,
			"-0.02": 0.0,
			"-0.019": 0.0,
			"-0.018": 0.0,
			"-0.017": 0.0,
			"-0.016": 0.0,
			"-0.015": 0.0,
			"-0.014": 0.0,
			"-0.013": 0.0,
			"-0.012": 0.0,
			"-0.011": 0.0,
			"-0.01": 0.0,
			"-0.009": 2.94475045419,
			"-0.008": 10.867612613,
			"-0.007": 18.2959674937,
			"-0.006": 20.5701766235,
			"-0.005": 18.609139309,
			"-0.004": 14.0839960722,
			"-0.003": 9.67568846495,
			"-0.002": 10.8695249851,
			"-0.001": 11.5125298112,
			"0.0": 15.407873255,
			"0.001": 16.0001604636,
			"0.002": 14.9903595572,
			"0.003": 12.9716895042,
			"0.004": 7.17964624794,
			"0.005": 2.9307032256,
			"0.006": 2.4825785448,
			"0.007": 3.49186587375,
			"0.008": 3.75784102926,
			"0.009": 3.8186767929,
			"0.01": 6.05398150253,
			"0.011": 12.7537821673,
			"0.012": 8.80203743756,
			"0.013": 1.02831050597,
			"0.014": 0.838819240833,
			"0.015": 0.532430321207,
			"0.016": 0.152079016526,
			"0.017": 0.0,
			"0.018": 0.0,
			"0.019": 0.0,
			"0.02": 0.0,
			"0.021": 0.0,
			"0.022": 0.0,
			"0.023": 0.0,
			"0.024": 0.0,
			"0.025": 0.0
		}
	}
}
