{
	 "smiles": "CC1(O)CCCCC1", 
	 "Tm": 298.65, 
	 "num_atms": 22, 
	 "gaussian": { 
		 "optdone": 1, 
		 "sigma_profile": "yes", 
		 "theory": "DFT", 
		 "functional": "B3LYP", 
		 "basiset": "6-31G**", 
		 "properties": { 
			 "R2extent": 1068.9309, 
			 "electric_dipole_moment_norm": 1.46082041675, 
			 "electric_quadrupole_moment_norm": 4.80243356643, 
			 "total_energy": -350.423501926, 
			 "HOMO_LUMO_gap": 0.32876, 
			 "cosmo_polarized_energy": -5.61, 
			 "cosmo_cavitation_energy": 21.79, 
			 "cosmo_dispersion_energy": -16.42, 
			 "cosmo_repulsion_energy": 1.35, 
			 "cosmo_total_nonelectrostatic_energy": 6.73, 
			 "SMD_solvation_energy": 3.06 
		},
		"coords": [
			{
				"x": -0.7137904079,
				"y": 0.6325249004,
				"z": -1.0663146919,
				"element": "C" 
			},
			{
				"x": 0.4354785346,
				"y": 0.0697147043,
				"z": -0.2157738829,
				"element": "C" 
			},
			{
				"x": 1.6830578505,
				"y": 0.4205167734,
				"z": -0.8347923715,
				"element": "O" 
			},
			{
				"x": 0.4062634722,
				"y": 0.6151480309,
				"z": 1.228955694,
				"element": "C" 
			},
			{
				"x": -0.7378960073,
				"y": 0.0410092555,
				"z": 2.0806817415,
				"element": "C" 
			},
			{
				"x": -0.7093219873,
				"y": -1.4949378495,
				"z": 2.0834249526,
				"element": "C" 
			},
			{
				"x": -0.7136648611,
				"y": -2.056885944,
				"z": 0.6535371301,
				"element": "C" 
			},
			{
				"x": 0.4299567985,
				"y": -1.4692464071,
				"z": -0.1876955349,
				"element": "C" 
			},
			{
				"x": -1.6995810402,
				"y": 0.3598101356,
				"z": -0.6784418668,
				"element": "H" 
			},
			{
				"x": -0.6328360993,
				"y": 0.2615628734,
				"z": -2.0924184809,
				"element": "H" 
			},
			{
				"x": -0.666747998,
				"y": 1.7284837814,
				"z": -1.0957677485,
				"element": "H" 
			},
			{
				"x": 1.7257279324,
				"y": 1.3857471503,
				"z": -0.8761943663,
				"element": "H" 
			},
			{
				"x": 1.3684808607,
				"y": 0.3565280313,
				"z": 1.6890654766,
				"element": "H" 
			},
			{
				"x": 0.3519947507,
				"y": 1.7128474708,
				"z": 1.2049715993,
				"element": "H" 
			},
			{
				"x": -1.705100013,
				"y": 0.3879127014,
				"z": 1.6927294228,
				"element": "H" 
			},
			{
				"x": -0.6644711035,
				"y": 0.4252834242,
				"z": 3.1050681729,
				"element": "H" 
			},
			{
				"x": -1.5600172817,
				"y": -1.8905108141,
				"z": 2.6511967728,
				"element": "H" 
			},
			{
				"x": 0.1985747659,
				"y": -1.8360563981,
				"z": 2.6008782616,
				"element": "H" 
			},
			{
				"x": -1.6799310852,
				"y": -1.8377095644,
				"z": 0.1793013364,
				"element": "H" 
			},
			{
				"x": -0.627172345,
				"y": -3.1496450253,
				"z": 0.6756368375,
				"element": "H" 
			},
			{
				"x": 0.3950838894,
				"y": -1.846814523,
				"z": -1.2162067789,
				"element": "H" 
			},
			{
				"x": 1.3936113746,
				"y": -1.7868827075,
				"z": 0.2301583247,
				"element": "H" 
			}
		],
		 "valence_orbital": [ 
			{
				"type": "occ",
				"energy": -0.33003,
				"method": "rhf"
			},
			{
				"type": "occ",
				"energy": -0.31456,
				"method": "rhf"
			},
			{
				"type": "occ",
				"energy": -0.31257,
				"method": "rhf"
			},
			{
				"type": "occ",
				"energy": -0.29052,
				"method": "rhf"
			},
			{
				"type": "occ",
				"energy": -0.25557,
				"method": "rhf"
			},
			{
				"type": "unocc",
				"energy": 0.07319,
				"method": "rhf"
			},
			{
				"type": "unocc",
				"energy": 0.09238,
				"method": "rhf"
			},
			{
				"type": "unocc",
				"energy": 0.11063,
				"method": "rhf"
			},
			{
				"type": "unocc",
				"energy": 0.13647,
				"method": "rhf"
			},
			{
				"type": "unocc",
				"energy": 0.13772,
				"method": "rhf"
			}
		],
		"cosmo_sigma_profile": { 
			"-0.025": 0.0,
			"-0.024": 0.0,
			"-0.023": 0.0,
			"-0.022": 0.0,
			"-0.021": 0.0,
			"-0.02": 0.0,
			"-0.019": 0.0,
			"-0.018": 0.0,
			"-0.017": 0.0,
			"-0.016": 0.0,
			"-0.015": 0.0321582011677,
			"-0.014": 0.93677463009,
			"-0.013": 0.523293490891,
			"-0.012": 1.1767123938,
			"-0.011": 0.496771677346,
			"-0.01": 0.856543662536,
			"-0.009": 1.42592604281,
			"-0.008": 1.3155313045,
			"-0.007": 0.650062275661,
			"-0.006": 1.36178791406,
			"-0.005": 1.12034982141,
			"-0.004": 2.33849279878,
			"-0.003": 11.0356910899,
			"-0.002": 23.7055445541,
			"-0.001": 31.5640864381,
			"0.0": 33.4357503684,
			"0.001": 27.4715248204,
			"0.002": 7.93680947982,
			"0.003": 1.60298840154,
			"0.004": 1.65302025039,
			"0.005": 1.95308489331,
			"0.006": 1.67660913824,
			"0.007": 1.07110096397,
			"0.008": 1.33070271818,
			"0.009": 0.92614101752,
			"0.01": 1.24440723242,
			"0.011": 1.78913792086,
			"0.012": 1.35753939363,
			"0.013": 0.729417039216,
			"0.014": 1.87297808607,
			"0.015": 1.79843071162,
			"0.016": 0.00338667822032,
			"0.017": 0.0,
			"0.018": 0.0,
			"0.019": 0.0,
			"0.02": 0.0,
			"0.021": 0.0,
			"0.022": 0.0,
			"0.023": 0.0,
			"0.024": 0.0,
			"0.025": 0.0
		}
	}
}
