{
	 "smiles": "NC1=NC(O)=NC2=C1N=CN2", 
	 "Tm": 573.15, 
	 "num_atms": 16, 
	 "gaussian": { 
		 "optdone": 1, 
		 "sigma_profile": "yes", 
		 "theory": "DFT", 
		 "functional": "B3LYP", 
		 "basiset": "6-31G**", 
		 "properties": { 
			 "R2extent": 2077.4356, 
			 "electric_dipole_moment_norm": 2.97669456948, 
			 "electric_quadrupole_moment_norm": 19.6195585136, 
			 "total_energy": -542.555604827, 
			 "HOMO_LUMO_gap": 0.19942, 
			 "cosmo_polarized_energy": -19.06, 
			 "cosmo_cavitation_energy": 20.88, 
			 "cosmo_dispersion_energy": -16.38, 
			 "cosmo_repulsion_energy": 1.32, 
			 "cosmo_total_nonelectrostatic_energy": 5.83, 
			 "SMD_solvation_energy": -0.61 
		},
		"coords": [
			{
				"x": 1.0696901498,
				"y": 1.9025570497,
				"z": -0.4132510337,
				"element": "N" 
			},
			{
				"x": 1.0480177379,
				"y": 0.642723134,
				"z": -0.9065230764,
				"element": "C" 
			},
			{
				"x": 1.8431168977,
				"y": 0.3455023099,
				"z": -1.9454046622,
				"element": "N" 
			},
			{
				"x": 1.824605741,
				"y": -0.911048761,
				"z": -2.4067325997,
				"element": "C" 
			},
			{
				"x": 2.6502779709,
				"y": -1.1338677302,
				"z": -3.4494302884,
				"element": "O" 
			},
			{
				"x": 1.1084633965,
				"y": -1.9604205985,
				"z": -1.9830393535,
				"element": "N" 
			},
			{
				"x": 0.3250044683,
				"y": -1.6234832502,
				"z": -0.9501190168,
				"element": "C" 
			},
			{
				"x": 0.2274452436,
				"y": -0.3645705833,
				"z": -0.3509397614,
				"element": "C" 
			},
			{
				"x": -0.6859707796,
				"y": -0.3682283644,
				"z": 0.691715416,
				"element": "N" 
			},
			{
				"x": -1.1281848967,
				"y": -1.5995648883,
				"z": 0.7224691,
				"element": "C" 
			},
			{
				"x": -0.5559236109,
				"y": -2.4104631216,
				"z": -0.2448725051,
				"element": "N" 
			},
			{
				"x": 1.5955795393,
				"y": 2.6043476556,
				"z": -0.9085374755,
				"element": "H" 
			},
			{
				"x": 0.4044621844,
				"y": 2.1712814056,
				"z": 0.2928188055,
				"element": "H" 
			},
			{
				"x": 2.5370419263,
				"y": -2.0684695925,
				"z": -3.6793805883,
				"element": "H" 
			},
			{
				"x": -1.8642458114,
				"y": -1.9843525069,
				"z": 1.4155485114,
				"element": "H" 
			},
			{
				"x": -0.7399801571,
				"y": -3.388042158,
				"z": -0.4117214719,
				"element": "H" 
			}
		],
		 "valence_orbital": [ 
			{
				"type": "occ",
				"energy": -0.28593,
				"method": "rhf"
			},
			{
				"type": "occ",
				"energy": -0.28546,
				"method": "rhf"
			},
			{
				"type": "occ",
				"energy": -0.25443,
				"method": "rhf"
			},
			{
				"type": "occ",
				"energy": -0.2493,
				"method": "rhf"
			},
			{
				"type": "occ",
				"energy": -0.21013,
				"method": "rhf"
			},
			{
				"type": "unocc",
				"energy": -0.01071,
				"method": "rhf"
			},
			{
				"type": "unocc",
				"energy": 0.01992,
				"method": "rhf"
			},
			{
				"type": "unocc",
				"energy": 0.04916,
				"method": "rhf"
			},
			{
				"type": "unocc",
				"energy": 0.07581,
				"method": "rhf"
			},
			{
				"type": "unocc",
				"energy": 0.09113,
				"method": "rhf"
			}
		],
		"cosmo_sigma_profile": { 
			"-0.025": 0.0,
			"-0.024": 0.0,
			"-0.023": 0.0,
			"-0.022": 0.0,
			"-0.021": 0.0,
			"-0.02": 0.0,
			"-0.019": 0.0,
			"-0.018": 0.0613897616793,
			"-0.017": 1.65532526582,
			"-0.016": 2.50878954359,
			"-0.015": 2.60197408242,
			"-0.014": 2.62553025039,
			"-0.013": 3.37979300744,
			"-0.012": 3.85871910416,
			"-0.011": 3.99837591346,
			"-0.01": 4.76219738945,
			"-0.009": 5.89026883009,
			"-0.008": 4.23632866335,
			"-0.007": 4.43541194081,
			"-0.006": 3.79117766646,
			"-0.005": 3.6454663561,
			"-0.004": 4.15369033507,
			"-0.003": 4.12271415453,
			"-0.002": 4.41553925431,
			"-0.001": 7.06354663591,
			"0.0": 13.4621521723,
			"0.001": 15.7308070191,
			"0.002": 9.48590546487,
			"0.003": 6.62615904437,
			"0.004": 7.74259851991,
			"0.005": 5.88835768235,
			"0.006": 5.36545857068,
			"0.007": 4.93141746584,
			"0.008": 4.17547729515,
			"0.009": 4.75727853603,
			"0.01": 3.11103504936,
			"0.011": 5.08199018368,
			"0.012": 5.15865933605,
			"0.013": 3.20629458462,
			"0.014": 2.67347945152,
			"0.015": 1.82047067142,
			"0.016": 0.83917393179,
			"0.017": 0.0,
			"0.018": 0.0,
			"0.019": 0.0,
			"0.02": 0.0,
			"0.021": 0.0,
			"0.022": 0.0,
			"0.023": 0.0,
			"0.024": 0.0,
			"0.025": 0.0
		}
	}
}
