{
	 "smiles": "OCC1=CC=CC(=C1)[N+]([O-])=O", 
	 "Tm": 304.35, 
	 "num_atms": 18, 
	 "gaussian": { 
		 "optdone": 1, 
		 "sigma_profile": "yes", 
		 "theory": "DFT", 
		 "functional": "B3LYP", 
		 "basiset": "6-31G**", 
		 "properties": { 
			 "R2extent": 2310.8797, 
			 "electric_dipole_moment_norm": 3.59478838598, 
			 "electric_quadrupole_moment_norm": 17.6213030279, 
			 "total_energy": -551.276295204, 
			 "HOMO_LUMO_gap": 0.18062, 
			 "cosmo_polarized_energy": -11.49, 
			 "cosmo_cavitation_energy": 22.92, 
			 "cosmo_dispersion_energy": -16.91, 
			 "cosmo_repulsion_energy": 1.37, 
			 "cosmo_total_nonelectrostatic_energy": 7.38, 
			 "SMD_solvation_energy": 6.32 
		},
		"coords": [
			{
				"x": -1.2165177311,
				"y": -1.505668431,
				"z": 2.9358001535,
				"element": "O" 
			},
			{
				"x": -0.186537519,
				"y": -0.865719024,
				"z": 2.2007155005,
				"element": "C" 
			},
			{
				"x": -0.4270770705,
				"y": -0.8524859641,
				"z": 0.7007166054,
				"element": "C" 
			},
			{
				"x": -1.7324008977,
				"y": -0.8687257131,
				"z": 0.1905854231,
				"element": "C" 
			},
			{
				"x": -1.9647020458,
				"y": -0.826004242,
				"z": -1.185711819,
				"element": "C" 
			},
			{
				"x": -0.8973318495,
				"y": -0.7635812172,
				"z": -2.0792990398,
				"element": "C" 
			},
			{
				"x": 0.3946831621,
				"y": -0.7497938301,
				"z": -1.5578697875,
				"element": "C" 
			},
			{
				"x": 0.6479523869,
				"y": -0.7972709466,
				"z": -0.1890157852,
				"element": "C" 
			},
			{
				"x": 1.5364271608,
				"y": -0.6947884095,
				"z": -2.4875376885,
				"element": "N" 
			},
			{
				"x": 2.6680038593,
				"y": -0.6949218931,
				"z": -2.0035012719,
				"element": "O" 
			},
			{
				"x": 1.2900303674,
				"y": -0.6515845303,
				"z": -3.6921906939,
				"element": "O" 
			},
			{
				"x": -1.2276053751,
				"y": -2.4376149009,
				"z": 2.6793694086,
				"element": "H" 
			},
			{
				"x": -0.1607824071,
				"y": 0.1637578733,
				"z": 2.5772933125,
				"element": "H" 
			},
			{
				"x": 0.8008002586,
				"y": -1.3041136369,
				"z": 2.4113569969,
				"element": "H" 
			},
			{
				"x": -2.5616412449,
				"y": -0.9218605476,
				"z": 0.8888154741,
				"element": "H" 
			},
			{
				"x": -2.981974601,
				"y": -0.8403908825,
				"z": -1.5645169971,
				"element": "H" 
			},
			{
				"x": -1.0417674913,
				"y": -0.7302213211,
				"z": -3.15162952,
				"element": "H" 
			},
			{
				"x": 1.6752410379,
				"y": -0.7938123835,
				"z": 0.1574197284,
				"element": "H" 
			}
		],
		 "valence_orbital": [ 
			{
				"type": "occ",
				"energy": -0.30856,
				"method": "rhf"
			},
			{
				"type": "occ",
				"energy": -0.29686,
				"method": "rhf"
			},
			{
				"type": "occ",
				"energy": -0.29121,
				"method": "rhf"
			},
			{
				"type": "occ",
				"energy": -0.28218,
				"method": "rhf"
			},
			{
				"type": "occ",
				"energy": -0.27052,
				"method": "rhf"
			},
			{
				"type": "unocc",
				"energy": -0.0899,
				"method": "rhf"
			},
			{
				"type": "unocc",
				"energy": -0.03062,
				"method": "rhf"
			},
			{
				"type": "unocc",
				"energy": -0.0014,
				"method": "rhf"
			},
			{
				"type": "unocc",
				"energy": 0.06833,
				"method": "rhf"
			},
			{
				"type": "unocc",
				"energy": 0.08457,
				"method": "rhf"
			}
		],
		"cosmo_sigma_profile": { 
			"-0.025": 0.0,
			"-0.024": 0.0,
			"-0.023": 0.0,
			"-0.022": 0.0,
			"-0.021": 0.0,
			"-0.02": 0.0,
			"-0.019": 0.0,
			"-0.018": 0.0,
			"-0.017": 0.0,
			"-0.016": 0.602137660625,
			"-0.015": 0.926462936101,
			"-0.014": 1.06434330427,
			"-0.013": 0.875159006148,
			"-0.012": 0.868201212026,
			"-0.011": 0.580437806514,
			"-0.01": 1.36442487703,
			"-0.009": 1.29500329222,
			"-0.008": 1.40107194965,
			"-0.007": 6.24963707921,
			"-0.006": 11.984697939,
			"-0.005": 15.5263333672,
			"-0.004": 12.6674891965,
			"-0.003": 11.5359194952,
			"-0.002": 11.0894986655,
			"-0.001": 13.7994177084,
			"0.0": 11.3964711365,
			"0.001": 14.1414589307,
			"0.002": 13.5646341472,
			"0.003": 7.27546566322,
			"0.004": 2.93459396097,
			"0.005": 3.8241192536,
			"0.006": 5.14846274308,
			"0.007": 8.43152787951,
			"0.008": 9.23496896212,
			"0.009": 5.35256342117,
			"0.01": 3.71486255702,
			"0.011": 1.19254958836,
			"0.012": 1.76219788914,
			"0.013": 1.68927725142,
			"0.014": 1.18416323032,
			"0.015": 0.0,
			"0.016": 0.0,
			"0.017": 0.0,
			"0.018": 0.0,
			"0.019": 0.0,
			"0.02": 0.0,
			"0.021": 0.0,
			"0.022": 0.0,
			"0.023": 0.0,
			"0.024": 0.0,
			"0.025": 0.0
		}
	}
}
