{
	 "smiles": "SC1=NN=C(CN2CCCC2=O)O1", 
	 "Tm": 446.15, 
	 "num_atms": 22, 
	 "gaussian": { 
		 "optdone": 1, 
		 "sigma_profile": "yes", 
		 "theory": "DFT", 
		 "functional": "B3LYP", 
		 "basiset": "6-31G**", 
		 "properties": { 
			 "R2extent": 4090.0113, 
			 "electric_dipole_moment_norm": 3.1188657217, 
			 "electric_quadrupole_moment_norm": 19.7703136333, 
			 "total_energy": -985.031144325, 
			 "HOMO_LUMO_gap": 0.22719, 
			 "cosmo_polarized_energy": -17.12, 
			 "cosmo_cavitation_energy": 28.39, 
			 "cosmo_dispersion_energy": -20.89, 
			 "cosmo_repulsion_energy": 1.65, 
			 "cosmo_total_nonelectrostatic_energy": 9.15, 
			 "SMD_solvation_energy": 2.8 
		},
		"coords": [
			{
				"x": -3.4228886742,
				"y": -1.2297232958,
				"z": -3.8527247878,
				"element": "S" 
			},
			{
				"x": -2.9117273158,
				"y": -0.0492966274,
				"z": -2.6573169547,
				"element": "C" 
			},
			{
				"x": -3.1728651166,
				"y": 1.2192112587,
				"z": -2.663170208,
				"element": "N" 
			},
			{
				"x": -2.5294875198,
				"y": 1.7401200498,
				"z": -1.5329025255,
				"element": "N" 
			},
			{
				"x": -1.948043268,
				"y": 0.7480148133,
				"z": -0.941500062,
				"element": "C" 
			},
			{
				"x": -1.123921142,
				"y": 0.7589641134,
				"z": 0.304698796,
				"element": "C" 
			},
			{
				"x": 0.2810764418,
				"y": 0.5126839312,
				"z": 0.0521093076,
				"element": "N" 
			},
			{
				"x": 1.1607703119,
				"y": 1.4809567556,
				"z": -0.5955922284,
				"element": "C" 
			},
			{
				"x": 2.462095327,
				"y": 0.6754253569,
				"z": -0.8045121348,
				"element": "C" 
			},
			{
				"x": 2.4251958192,
				"y": -0.3893432849,
				"z": 0.3049030448,
				"element": "C" 
			},
			{
				"x": 0.9410286829,
				"y": -0.5496756679,
				"z": 0.6322142271,
				"element": "C" 
			},
			{
				"x": 0.4140444042,
				"y": -1.42354882,
				"z": 1.3009191248,
				"element": "O" 
			},
			{
				"x": -2.1409708774,
				"y": -0.4387046491,
				"z": -1.6045104998,
				"element": "O" 
			},
			{
				"x": -2.9699878105,
				"y": -2.2894817279,
				"z": -3.1554556575,
				"element": "H" 
			},
			{
				"x": -1.2759479781,
				"y": 1.7348299288,
				"z": 0.7802213182,
				"element": "H" 
			},
			{
				"x": -1.4553205103,
				"y": -0.0299756091,
				"z": 0.9878745444,
				"element": "H" 
			},
			{
				"x": 1.3170681692,
				"y": 2.3566352994,
				"z": 0.0526518574,
				"element": "H" 
			},
			{
				"x": 0.7267179467,
				"y": 1.8388173695,
				"z": -1.5346987898,
				"element": "H" 
			},
			{
				"x": 3.3475740991,
				"y": 1.3136572232,
				"z": -0.7674444164,
				"element": "H" 
			},
			{
				"x": 2.4388607976,
				"y": 0.1936478414,
				"z": -1.7867778744,
				"element": "H" 
			},
			{
				"x": 2.9331313702,
				"y": -0.0556951735,
				"z": 1.2181023263,
				"element": "H" 
			},
			{
				"x": 2.8602968427,
				"y": -1.3508190856,
				"z": 0.0245115925,
				"element": "H" 
			}
		],
		 "valence_orbital": [ 
			{
				"type": "occ",
				"energy": -0.33012,
				"method": "rhf"
			},
			{
				"type": "occ",
				"energy": -0.28847,
				"method": "rhf"
			},
			{
				"type": "occ",
				"energy": -0.26045,
				"method": "rhf"
			},
			{
				"type": "occ",
				"energy": -0.25759,
				"method": "rhf"
			},
			{
				"type": "occ",
				"energy": -0.24914,
				"method": "rhf"
			},
			{
				"type": "unocc",
				"energy": -0.02195,
				"method": "rhf"
			},
			{
				"type": "unocc",
				"energy": -0.0065,
				"method": "rhf"
			},
			{
				"type": "unocc",
				"energy": 0.0161,
				"method": "rhf"
			},
			{
				"type": "unocc",
				"energy": 0.02642,
				"method": "rhf"
			},
			{
				"type": "unocc",
				"energy": 0.04628,
				"method": "rhf"
			}
		],
		"cosmo_sigma_profile": { 
			"-0.025": 0.0,
			"-0.024": 0.0,
			"-0.023": 0.0,
			"-0.022": 0.0,
			"-0.021": 0.0,
			"-0.02": 0.0,
			"-0.019": 0.0,
			"-0.018": 0.0,
			"-0.017": 0.0,
			"-0.016": 0.0,
			"-0.015": 0.0,
			"-0.014": 0.313568654551,
			"-0.013": 1.67047578227,
			"-0.012": 1.80841434451,
			"-0.011": 1.70244827244,
			"-0.01": 1.46793100993,
			"-0.009": 1.2318099726,
			"-0.008": 3.17247792579,
			"-0.007": 5.48821452447,
			"-0.006": 9.65335684129,
			"-0.005": 19.4499606916,
			"-0.004": 29.2594824853,
			"-0.003": 25.3750984286,
			"-0.002": 18.7731418861,
			"-0.001": 14.6865185872,
			"0.0": 11.9344916197,
			"0.001": 11.3996170708,
			"0.002": 9.62995838453,
			"0.003": 7.35859736097,
			"0.004": 6.78325272233,
			"0.005": 5.45693353194,
			"0.006": 3.64531076334,
			"0.007": 3.07570194308,
			"0.008": 3.29264376405,
			"0.009": 4.04520509572,
			"0.01": 4.08908223036,
			"0.011": 5.29055400489,
			"0.012": 4.21585340217,
			"0.013": 7.47371720401,
			"0.014": 5.54605705418,
			"0.015": 1.02189827336,
			"0.016": 0.0,
			"0.017": 0.0,
			"0.018": 0.0,
			"0.019": 0.0,
			"0.02": 0.0,
			"0.021": 0.0,
			"0.022": 0.0,
			"0.023": 0.0,
			"0.024": 0.0,
			"0.025": 0.0
		}
	}
}
