{
	 "smiles": "CC(C)C1C=CC(C)=C(C=NNC(N)=O)C1=O", 
	 "Tm": 495.15, 
	 "num_atms": 34, 
	 "gaussian": { 
		 "optdone": 1, 
		 "sigma_profile": "yes", 
		 "theory": "DFT", 
		 "functional": "B3LYP", 
		 "basiset": "6-31G**", 
		 "properties": { 
			 "R2extent": 5834.396, 
			 "electric_dipole_moment_norm": 5.93095179714, 
			 "electric_quadrupole_moment_norm": 19.4035116505, 
			 "total_energy": -782.207855839, 
			 "HOMO_LUMO_gap": 0.12692, 
			 "cosmo_polarized_energy": -18.03, 
			 "cosmo_cavitation_energy": 37.51, 
			 "cosmo_dispersion_energy": -25.77, 
			 "cosmo_repulsion_energy": 2.02, 
			 "cosmo_total_nonelectrostatic_energy": 13.76, 
			 "SMD_solvation_energy": 7.7 
		},
		"coords": [
			{
				"x": -4.1299839547,
				"y": -0.8384006156,
				"z": -1.3362942344,
				"element": "C" 
			},
			{
				"x": -2.7722235544,
				"y": -1.5522747017,
				"z": -1.3227070508,
				"element": "C" 
			},
			{
				"x": -1.8284278942,
				"y": -0.9922673305,
				"z": -2.3968269905,
				"element": "C" 
			},
			{
				"x": -2.1084931943,
				"y": -1.5559128245,
				"z": 0.1084703515,
				"element": "C" 
			},
			{
				"x": -1.0753619515,
				"y": -2.6316623433,
				"z": 0.2027735315,
				"element": "C" 
			},
			{
				"x": 0.2125167386,
				"y": -2.3720886561,
				"z": 0.4872260963,
				"element": "C" 
			},
			{
				"x": 0.7111860689,
				"y": -1.0275212372,
				"z": 0.7439503023,
				"element": "C" 
			},
			{
				"x": 2.1859661691,
				"y": -0.8871757763,
				"z": 1.0060976459,
				"element": "C" 
			},
			{
				"x": -0.1522221594,
				"y": 0.0473941729,
				"z": 0.7492281661,
				"element": "C" 
			},
			{
				"x": 0.1958876442,
				"y": 1.4395286334,
				"z": 0.9960156893,
				"element": "C" 
			},
			{
				"x": 1.3897646279,
				"y": 1.8720202368,
				"z": 1.241033389,
				"element": "N" 
			},
			{
				"x": 1.5303210684,
				"y": 3.2030756122,
				"z": 1.4374866246,
				"element": "N" 
			},
			{
				"x": 2.7638222457,
				"y": 3.7977096154,
				"z": 1.7090797085,
				"element": "C" 
			},
			{
				"x": 3.8242044494,
				"y": 2.9351512479,
				"z": 1.696927982,
				"element": "N" 
			},
			{
				"x": 2.8360265923,
				"y": 5.001835645,
				"z": 1.9079032668,
				"element": "O" 
			},
			{
				"x": -1.6079705267,
				"y": -0.1679459135,
				"z": 0.5133714088,
				"element": "C" 
			},
			{
				"x": -2.4112138815,
				"y": 0.7554543812,
				"z": 0.6304049117,
				"element": "O" 
			},
			{
				"x": -4.578146943,
				"y": -0.9065706903,
				"z": -2.3337575736,
				"element": "H" 
			},
			{
				"x": -4.0258872406,
				"y": 0.2153699288,
				"z": -1.0703178946,
				"element": "H" 
			},
			{
				"x": -4.8250440533,
				"y": -1.2950778307,
				"z": -0.6231154175,
				"element": "H" 
			},
			{
				"x": -2.9508243136,
				"y": -2.6119884386,
				"z": -1.5536792583,
				"element": "H" 
			},
			{
				"x": -2.2601283378,
				"y": -1.1348474268,
				"z": -3.3927756448,
				"element": "H" 
			},
			{
				"x": -0.8533574323,
				"y": -1.4895483541,
				"z": -2.3789578407,
				"element": "H" 
			},
			{
				"x": -1.6675909351,
				"y": 0.0823123403,
				"z": -2.2593566048,
				"element": "H" 
			},
			{
				"x": -2.9204232245,
				"y": -1.7939775331,
				"z": 0.8118381966,
				"element": "H" 
			},
			{
				"x": -1.3994837684,
				"y": -3.6519792728,
				"z": 0.0085575634,
				"element": "H" 
			},
			{
				"x": 0.9339999628,
				"y": -3.1835859918,
				"z": 0.5320766935,
				"element": "H" 
			},
			{
				"x": 2.6470845958,
				"y": -0.1999694472,
				"z": 0.2889491608,
				"element": "H" 
			},
			{
				"x": 2.6906136304,
				"y": -1.8546995004,
				"z": 0.9480949288,
				"element": "H" 
			},
			{
				"x": 2.3656474348,
				"y": -0.4520331063,
				"z": 1.9954565841,
				"element": "H" 
			},
			{
				"x": -0.6537879755,
				"y": 2.127360608,
				"z": 0.9587234575,
				"element": "H" 
			},
			{
				"x": 0.7352709593,
				"y": 3.8366203879,
				"z": 1.4069395295,
				"element": "H" 
			},
			{
				"x": 3.6510136888,
				"y": 1.9423777448,
				"z": 1.7066063801,
				"element": "H" 
			},
			{
				"x": 4.6878454642,
				"y": 3.2965164361,
				"z": 2.0665769415,
				"element": "H" 
			}
		],
		 "valence_orbital": [ 
			{
				"type": "occ",
				"energy": -0.26978,
				"method": "rhf"
			},
			{
				"type": "occ",
				"energy": -0.26389,
				"method": "rhf"
			},
			{
				"type": "occ",
				"energy": -0.25826,
				"method": "rhf"
			},
			{
				"type": "occ",
				"energy": -0.24429,
				"method": "rhf"
			},
			{
				"type": "occ",
				"energy": -0.21131,
				"method": "rhf"
			},
			{
				"type": "unocc",
				"energy": -0.08439,
				"method": "rhf"
			},
			{
				"type": "unocc",
				"energy": -0.02019,
				"method": "rhf"
			},
			{
				"type": "unocc",
				"energy": 0.02452,
				"method": "rhf"
			},
			{
				"type": "unocc",
				"energy": 0.07227,
				"method": "rhf"
			},
			{
				"type": "unocc",
				"energy": 0.07874,
				"method": "rhf"
			}
		],
		"cosmo_sigma_profile": { 
			"-0.025": 0.0,
			"-0.024": 0.0,
			"-0.023": 0.0,
			"-0.022": 0.0,
			"-0.021": 0.0,
			"-0.02": 0.0,
			"-0.019": 0.0,
			"-0.018": 0.0,
			"-0.017": 0.0,
			"-0.016": 0.0,
			"-0.015": 0.111812020397,
			"-0.014": 1.74908018034,
			"-0.013": 2.65066674911,
			"-0.012": 2.31586361647,
			"-0.011": 1.7333641624,
			"-0.01": 1.86921949219,
			"-0.009": 2.91824896825,
			"-0.008": 3.11303277141,
			"-0.007": 3.75161391367,
			"-0.006": 11.3673171413,
			"-0.005": 15.0936324944,
			"-0.004": 19.9825569531,
			"-0.003": 23.0332734596,
			"-0.002": 26.9676451529,
			"-0.001": 30.1087277292,
			"0.0": 31.9739253849,
			"0.001": 32.8152964201,
			"0.002": 20.367641304,
			"0.003": 10.3446864987,
			"0.004": 8.44227824218,
			"0.005": 4.69501439364,
			"0.006": 4.18602794368,
			"0.007": 3.19222065811,
			"0.008": 3.23380886536,
			"0.009": 4.27760109663,
			"0.01": 2.2385205182,
			"0.011": 3.41150459126,
			"0.012": 4.68417036321,
			"0.013": 4.21792540341,
			"0.014": 7.07249455832,
			"0.015": 2.02747244948,
			"0.016": 0.0,
			"0.017": 0.0,
			"0.018": 0.0,
			"0.019": 0.0,
			"0.02": 0.0,
			"0.021": 0.0,
			"0.022": 0.0,
			"0.023": 0.0,
			"0.024": 0.0,
			"0.025": 0.0
		}
	}
}
