{
	 "smiles": "ClC1=NC=CC(=C1)C(=O)CBr", 
	 "Tm": 328.95, 
	 "num_atms": 16, 
	 "gaussian": { 
		 "optdone": 1, 
		 "sigma_profile": "yes", 
		 "theory": "DFT", 
		 "functional": "B3LYP", 
		 "basiset": "6-31G**", 
		 "properties": { 
			 "R2extent": 4877.7103, 
			 "electric_dipole_moment_norm": 3.46877716926, 
			 "electric_quadrupole_moment_norm": 12.1778587412, 
			 "total_energy": -3431.31560385, 
			 "HOMO_LUMO_gap": 0.1805, 
			 "cosmo_polarized_energy": -13.87, 
			 "cosmo_cavitation_energy": 25.24, 
			 "cosmo_dispersion_energy": -19.15, 
			 "cosmo_repulsion_energy": 1.55, 
			 "cosmo_total_nonelectrostatic_energy": 7.63, 
			 "SMD_solvation_energy": 2.05 
		},
		"coords": [
			{
				"x": -1.6866014813,
				"y": -4.1779465738,
				"z": -2.3446360076,
				"element": "Cl" 
			},
			{
				"x": -0.8151425731,
				"y": -2.7526292847,
				"z": -1.7994087578,
				"element": "C" 
			},
			{
				"x": 0.0057567536,
				"y": -2.1893267411,
				"z": -2.6714259965,
				"element": "N" 
			},
			{
				"x": 0.6756652017,
				"y": -1.1022139371,
				"z": -2.2675279113,
				"element": "C" 
			},
			{
				"x": 0.5488767422,
				"y": -0.5490958588,
				"z": -0.9947536294,
				"element": "C" 
			},
			{
				"x": -0.3259411683,
				"y": -1.1607040307,
				"z": -0.0856603736,
				"element": "C" 
			},
			{
				"x": -1.0291295069,
				"y": -2.2958259081,
				"z": -0.4989370189,
				"element": "C" 
			},
			{
				"x": -0.5610058538,
				"y": -0.6698980092,
				"z": 1.3232351181,
				"element": "C" 
			},
			{
				"x": -1.3332420086,
				"y": -1.2473213151,
				"z": 2.0581974649,
				"element": "O" 
			},
			{
				"x": 0.2207479618,
				"y": 0.5712970323,
				"z": 1.7470182339,
				"element": "C" 
			},
			{
				"x": -0.1470440197,
				"y": 1.1291260145,
				"z": 3.576366725,
				"element": "Br" 
			},
			{
				"x": 1.3440861456,
				"y": -0.6562767436,
				"z": -3.0002227759,
				"element": "H" 
			},
			{
				"x": 1.1236301298,
				"y": 0.333306444,
				"z": -0.737619645,
				"element": "H" 
			},
			{
				"x": -1.7119342415,
				"y": -2.7900571228,
				"z": 0.1806578611,
				"element": "H" 
			},
			{
				"x": -0.0250395664,
				"y": 1.4140982349,
				"z": 1.0973350875,
				"element": "H" 
			},
			{
				"x": 1.294617485,
				"y": 0.3851677992,
				"z": 1.6763816256,
				"element": "H" 
			}
		],
		 "valence_orbital": [ 
			{
				"type": "occ",
				"energy": -0.29556,
				"method": "rhf"
			},
			{
				"type": "occ",
				"energy": -0.28886,
				"method": "rhf"
			},
			{
				"type": "occ",
				"energy": -0.28704,
				"method": "rhf"
			},
			{
				"type": "occ",
				"energy": -0.28425,
				"method": "rhf"
			},
			{
				"type": "occ",
				"energy": -0.27709,
				"method": "rhf"
			},
			{
				"type": "unocc",
				"energy": -0.09659,
				"method": "rhf"
			},
			{
				"type": "unocc",
				"energy": -0.04361,
				"method": "rhf"
			},
			{
				"type": "unocc",
				"energy": -0.01397,
				"method": "rhf"
			},
			{
				"type": "unocc",
				"energy": 0.0006,
				"method": "rhf"
			},
			{
				"type": "unocc",
				"energy": 0.02607,
				"method": "rhf"
			}
		],
		"cosmo_sigma_profile": { 
			"-0.025": 0.0,
			"-0.024": 0.0,
			"-0.023": 0.0,
			"-0.022": 0.0,
			"-0.021": 0.0,
			"-0.02": 0.0,
			"-0.019": 0.0,
			"-0.018": 0.0,
			"-0.017": 0.0,
			"-0.016": 0.0,
			"-0.015": 0.0,
			"-0.014": 0.0,
			"-0.013": 0.0,
			"-0.012": 0.0,
			"-0.011": 1.36209124909,
			"-0.01": 9.53283591447,
			"-0.009": 5.73505688984,
			"-0.008": 7.2996667635,
			"-0.007": 8.95198750234,
			"-0.006": 6.57550512079,
			"-0.005": 6.67723104948,
			"-0.004": 7.42683346583,
			"-0.003": 8.60877380173,
			"-0.002": 16.9717444335,
			"-0.001": 20.0971763639,
			"0.0": 15.6231514706,
			"0.001": 9.37542686834,
			"0.002": 10.3741771059,
			"0.003": 13.6321521577,
			"0.004": 16.5031855092,
			"0.005": 13.4472715413,
			"0.006": 7.94067517454,
			"0.007": 3.90129112665,
			"0.008": 4.31200992397,
			"0.009": 3.70329471772,
			"0.01": 4.94127224731,
			"0.011": 3.32204369552,
			"0.012": 1.10948387142,
			"0.013": 1.02479616198,
			"0.014": 0.313691464342,
			"0.015": 0.0,
			"0.016": 0.0,
			"0.017": 0.0,
			"0.018": 0.0,
			"0.019": 0.0,
			"0.02": 0.0,
			"0.021": 0.0,
			"0.022": 0.0,
			"0.023": 0.0,
			"0.024": 0.0,
			"0.025": 0.0
		}
	}
}
