{
	 "smiles": "CCOC(=O)C1=C(CBr)C2=C(O1)C=CC(Br)=C2", 
	 "Tm": 406.15, 
	 "num_atms": 27, 
	 "gaussian": { 
		 "optdone": 1, 
		 "sigma_profile": "yes", 
		 "theory": "DFT", 
		 "functional": "B3LYP", 
		 "basiset": "6-31G**", 
		 "properties": { 
			 "R2extent": 11260.6191, 
			 "electric_dipole_moment_norm": 3.4402186166, 
			 "electric_quadrupole_moment_norm": 11.6546289503, 
			 "total_energy": -5831.7954628, 
			 "HOMO_LUMO_gap": 0.16803, 
			 "cosmo_polarized_energy": -9.65, 
			 "cosmo_cavitation_energy": 36.66, 
			 "cosmo_dispersion_energy": -26.81, 
			 "cosmo_repulsion_energy": 2.12, 
			 "cosmo_total_nonelectrostatic_energy": 11.97, 
			 "SMD_solvation_energy": 5.23 
		},
		"coords": [
			{
				"x": -3.1810527704,
				"y": 3.9466543174,
				"z": -2.2610281514,
				"element": "C" 
			},
			{
				"x": -1.7981480562,
				"y": 4.1776486763,
				"z": -1.671992491,
				"element": "C" 
			},
			{
				"x": -1.1914598643,
				"y": 2.9284029627,
				"z": -1.2506301128,
				"element": "O" 
			},
			{
				"x": -0.5385228438,
				"y": 2.2340539626,
				"z": -2.1956188833,
				"element": "C" 
			},
			{
				"x": -0.4161427207,
				"y": 2.580650602,
				"z": -3.3583317485,
				"element": "O" 
			},
			{
				"x": 0.0324988743,
				"y": 0.9820457629,
				"z": -1.6673007262,
				"element": "C" 
			},
			{
				"x": 0.7285737182,
				"y": -0.0104542589,
				"z": -2.3139262617,
				"element": "C" 
			},
			{
				"x": 1.1040412279,
				"y": -0.0564246995,
				"z": -3.7469148941,
				"element": "C" 
			},
			{
				"x": 0.1496047497,
				"y": -1.5298651777,
				"z": -4.7102206498,
				"element": "Br" 
			},
			{
				"x": 1.0458277297,
				"y": -0.9832919913,
				"z": -1.2959962292,
				"element": "C" 
			},
			{
				"x": 0.5066639361,
				"y": -0.4751421694,
				"z": -0.1018794878,
				"element": "C" 
			},
			{
				"x": -0.1106628175,
				"y": 0.7194244929,
				"z": -0.3254861464,
				"element": "O" 
			},
			{
				"x": 0.6093329441,
				"y": -1.1270152493,
				"z": 1.1227802665,
				"element": "C" 
			},
			{
				"x": 1.2856270469,
				"y": -2.3429436697,
				"z": 1.1272282429,
				"element": "C" 
			},
			{
				"x": 1.8262973731,
				"y": -2.8676954678,
				"z": -0.0634246166,
				"element": "C" 
			},
			{
				"x": 2.7360801823,
				"y": -4.5478382667,
				"z": 0.0179377696,
				"element": "Br" 
			},
			{
				"x": 1.7191638698,
				"y": -2.2155384332,
				"z": -1.2834817312,
				"element": "C" 
			},
			{
				"x": -3.1156097509,
				"y": 3.3645436812,
				"z": -3.1833679543,
				"element": "H" 
			},
			{
				"x": -3.8234069136,
				"y": 3.4177800097,
				"z": -1.5511701602,
				"element": "H" 
			},
			{
				"x": -3.6467004125,
				"y": 4.9095631498,
				"z": -2.4955124974,
				"element": "H" 
			},
			{
				"x": -1.1358762826,
				"y": 4.6646596813,
				"z": -2.3913708612,
				"element": "H" 
			},
			{
				"x": -1.8434394716,
				"y": 4.7716200998,
				"z": -0.7567259052,
				"element": "H" 
			},
			{
				"x": 2.1586087734,
				"y": -0.2910303145,
				"z": -3.8869481629,
				"element": "H" 
			},
			{
				"x": 0.8310506106,
				"y": 0.8573439837,
				"z": -4.265101386,
				"element": "H" 
			},
			{
				"x": 0.1827400091,
				"y": -0.707567855,
				"z": 2.026786743,
				"element": "H" 
			},
			{
				"x": 1.3984021991,
				"y": -2.8980179224,
				"z": 2.0509831684,
				"element": "H" 
			},
			{
				"x": 2.1264086598,
				"y": -2.649065907,
				"z": -2.1887871333,
				"element": "H" 
			}
		],
		 "valence_orbital": [ 
			{
				"type": "occ",
				"energy": -0.29144,
				"method": "rhf"
			},
			{
				"type": "occ",
				"energy": -0.27542,
				"method": "rhf"
			},
			{
				"type": "occ",
				"energy": -0.27194,
				"method": "rhf"
			},
			{
				"type": "occ",
				"energy": -0.24632,
				"method": "rhf"
			},
			{
				"type": "occ",
				"energy": -0.24435,
				"method": "rhf"
			},
			{
				"type": "unocc",
				"energy": -0.07632,
				"method": "rhf"
			},
			{
				"type": "unocc",
				"energy": -0.02083,
				"method": "rhf"
			},
			{
				"type": "unocc",
				"energy": -0.01361,
				"method": "rhf"
			},
			{
				"type": "unocc",
				"energy": 0.00121,
				"method": "rhf"
			},
			{
				"type": "unocc",
				"energy": 0.01862,
				"method": "rhf"
			}
		],
		"cosmo_sigma_profile": { 
			"-0.025": 0.0,
			"-0.024": 0.0,
			"-0.023": 0.0,
			"-0.022": 0.0,
			"-0.021": 0.0,
			"-0.02": 0.0,
			"-0.019": 0.0,
			"-0.018": 0.0,
			"-0.017": 0.0,
			"-0.016": 0.0,
			"-0.015": 0.0,
			"-0.014": 0.0,
			"-0.013": 0.0,
			"-0.012": 0.0,
			"-0.011": 0.0,
			"-0.01": 0.0,
			"-0.009": 0.999494737885,
			"-0.008": 5.58069655789,
			"-0.007": 9.20920734782,
			"-0.006": 10.0445716757,
			"-0.005": 15.5551091684,
			"-0.004": 22.7373562076,
			"-0.003": 24.1082913115,
			"-0.002": 26.5830285026,
			"-0.001": 25.1021342113,
			"0.0": 26.6350982091,
			"0.001": 25.7983336741,
			"0.002": 26.8042632822,
			"0.003": 18.4624797563,
			"0.004": 20.7057176041,
			"0.005": 15.9825714324,
			"0.006": 10.4095503471,
			"0.007": 2.93850199781,
			"0.008": 3.05351583207,
			"0.009": 3.76223592762,
			"0.01": 3.04168531316,
			"0.011": 2.25051463814,
			"0.012": 0.223581071251,
			"0.013": 0.0,
			"0.014": 0.0,
			"0.015": 0.0,
			"0.016": 0.0,
			"0.017": 0.0,
			"0.018": 0.0,
			"0.019": 0.0,
			"0.02": 0.0,
			"0.021": 0.0,
			"0.022": 0.0,
			"0.023": 0.0,
			"0.024": 0.0,
			"0.025": 0.0
		}
	}
}
