{
	 "smiles": "CCCS(=O)(=O)N1CCCCC1C(O)=O", 
	 "Tm": 358.15, 
	 "num_atms": 32, 
	 "gaussian": { 
		 "optdone": 1, 
		 "sigma_profile": "yes", 
		 "theory": "DFT", 
		 "functional": "B3LYP", 
		 "basiset": "6-31G**", 
		 "properties": { 
			 "R2extent": 4099.6156, 
			 "electric_dipole_moment_norm": 2.81172222312, 
			 "electric_quadrupole_moment_norm": 14.2995972601, 
			 "total_energy": -1106.99550478, 
			 "HOMO_LUMO_gap": 0.23835, 
			 "cosmo_polarized_energy": -15.51, 
			 "cosmo_cavitation_energy": 33.9, 
			 "cosmo_dispersion_energy": -24.13, 
			 "cosmo_repulsion_energy": 1.86, 
			 "cosmo_total_nonelectrostatic_energy": 11.64, 
			 "SMD_solvation_energy": 5.37 
		},
		"coords": [
			{
				"x": 1.4521169958,
				"y": 2.7305693337,
				"z": 1.8061255312,
				"element": "C" 
			},
			{
				"x": -0.0459865988,
				"y": 2.9617327205,
				"z": 1.5803764283,
				"element": "C" 
			},
			{
				"x": -0.670645505,
				"y": 2.11796404,
				"z": 0.4611059893,
				"element": "C" 
			},
			{
				"x": -0.8946297522,
				"y": 0.3737261084,
				"z": 0.9172494793,
				"element": "S" 
			},
			{
				"x": -1.8544405029,
				"y": 0.3171728935,
				"z": 2.0279701572,
				"element": "O" 
			},
			{
				"x": 0.4295542794,
				"y": -0.2566001246,
				"z": 1.0430172884,
				"element": "O" 
			},
			{
				"x": -1.6766984305,
				"y": -0.254605208,
				"z": -0.4553156087,
				"element": "N" 
			},
			{
				"x": -3.0323069658,
				"y": -0.8182743282,
				"z": -0.2799569715,
				"element": "C" 
			},
			{
				"x": -3.0023036808,
				"y": -2.2788653614,
				"z": 0.2160252421,
				"element": "C" 
			},
			{
				"x": -1.7257833006,
				"y": -2.9993915329,
				"z": -0.2736710993,
				"element": "C" 
			},
			{
				"x": -1.266862106,
				"y": -2.4334191138,
				"z": -1.6230375503,
				"element": "C" 
			},
			{
				"x": -0.8464872761,
				"y": -0.9580388522,
				"z": -1.4638092333,
				"element": "C" 
			},
			{
				"x": -0.9791527639,
				"y": -0.1776156522,
				"z": -2.7732798197,
				"element": "C" 
			},
			{
				"x": -0.172185381,
				"y": 0.9119413765,
				"z": -2.7858813941,
				"element": "O" 
			},
			{
				"x": -1.725045708,
				"y": -0.4455426357,
				"z": -3.6886717973,
				"element": "O" 
			},
			{
				"x": 1.8247068175,
				"y": 3.3955330352,
				"z": 2.5914880836,
				"element": "H" 
			},
			{
				"x": 2.0230299551,
				"y": 2.9378895016,
				"z": 0.8939831615,
				"element": "H" 
			},
			{
				"x": 1.6589566345,
				"y": 1.6993913058,
				"z": 2.100244091,
				"element": "H" 
			},
			{
				"x": -0.6064211964,
				"y": 2.7876527006,
				"z": 2.5058828255,
				"element": "H" 
			},
			{
				"x": -0.219477569,
				"y": 4.0109694743,
				"z": 1.3108929081,
				"element": "H" 
			},
			{
				"x": -0.0733547464,
				"y": 2.1152131106,
				"z": -0.4551898434,
				"element": "H" 
			},
			{
				"x": -1.6794767879,
				"y": 2.4620951252,
				"z": 0.2175346651,
				"element": "H" 
			},
			{
				"x": -3.5087823595,
				"y": -0.7498927565,
				"z": -1.2637022266,
				"element": "H" 
			},
			{
				"x": -3.5905535493,
				"y": -0.1755452046,
				"z": 0.4002520563,
				"element": "H" 
			},
			{
				"x": -3.0471540533,
				"y": -2.2989127947,
				"z": 1.3086827565,
				"element": "H" 
			},
			{
				"x": -3.8982773481,
				"y": -2.7904151477,
				"z": -0.1561012021,
				"element": "H" 
			},
			{
				"x": -1.9014767655,
				"y": -4.0767173522,
				"z": -0.3535936345,
				"element": "H" 
			},
			{
				"x": -0.921262516,
				"y": -2.866316754,
				"z": 0.4590425131,
				"element": "H" 
			},
			{
				"x": -2.0681674024,
				"y": -2.5030188961,
				"z": -2.3660102445,
				"element": "H" 
			},
			{
				"x": -0.4178041084,
				"y": -2.9977599235,
				"z": -2.0224953906,
				"element": "H" 
			},
			{
				"x": 0.1915265456,
				"y": -0.9001561824,
				"z": -1.1299308985,
				"element": "H" 
			},
			{
				"x": -0.354654854,
				"y": 1.3785370947,
				"z": -3.619426262,
				"element": "H" 
			}
		],
		 "valence_orbital": [ 
			{
				"type": "occ",
				"energy": -0.31196,
				"method": "rhf"
			},
			{
				"type": "occ",
				"energy": -0.29997,
				"method": "rhf"
			},
			{
				"type": "occ",
				"energy": -0.29421,
				"method": "rhf"
			},
			{
				"type": "occ",
				"energy": -0.29173,
				"method": "rhf"
			},
			{
				"type": "occ",
				"energy": -0.24859,
				"method": "rhf"
			},
			{
				"type": "unocc",
				"energy": -0.01024,
				"method": "rhf"
			},
			{
				"type": "unocc",
				"energy": 0.05584,
				"method": "rhf"
			},
			{
				"type": "unocc",
				"energy": 0.06465,
				"method": "rhf"
			},
			{
				"type": "unocc",
				"energy": 0.06571,
				"method": "rhf"
			},
			{
				"type": "unocc",
				"energy": 0.08828,
				"method": "rhf"
			}
		],
		"cosmo_sigma_profile": { 
			"-0.025": 0.0,
			"-0.024": 0.0,
			"-0.023": 0.0,
			"-0.022": 0.0,
			"-0.021": 0.0,
			"-0.02": 0.0,
			"-0.019": 0.190395975512,
			"-0.018": 0.874784751767,
			"-0.017": 0.93462391389,
			"-0.016": 0.814979883097,
			"-0.015": 1.08767991509,
			"-0.014": 0.395618082649,
			"-0.013": 0.4064375,
			"-0.012": 0.564859997145,
			"-0.011": 0.846824921816,
			"-0.01": 0.944756422096,
			"-0.009": 0.578756863674,
			"-0.008": 1.56075644164,
			"-0.007": 4.25764519199,
			"-0.006": 5.28130287553,
			"-0.005": 12.2405626912,
			"-0.004": 21.9555489347,
			"-0.003": 30.5717864395,
			"-0.002": 31.7225243747,
			"-0.001": 33.1596804616,
			"0.0": 25.0094537755,
			"0.001": 18.1050318183,
			"0.002": 9.79739034605,
			"0.003": 6.88100760923,
			"0.004": 6.04037276633,
			"0.005": 4.57455734267,
			"0.006": 5.38168013308,
			"0.007": 4.71457160557,
			"0.008": 5.18789828651,
			"0.009": 5.77336985354,
			"0.01": 8.30207438529,
			"0.011": 11.2280363204,
			"0.012": 4.31994755049,
			"0.013": 0.026217032584,
			"0.014": 0.0,
			"0.015": 0.0,
			"0.016": 0.0,
			"0.017": 0.0,
			"0.018": 0.0,
			"0.019": 0.0,
			"0.02": 0.0,
			"0.021": 0.0,
			"0.022": 0.0,
			"0.023": 0.0,
			"0.024": 0.0,
			"0.025": 0.0
		}
	}
}
