{
	 "smiles": "N1C2=CC=CC=C2C(=C1C1=C(C2=C(N1)C=CC=C2)C1=CC=CC=C1)C1=CC=CC=C1", 
	 "Tm": 500.15, 
	 "num_atms": 50, 
	 "gaussian": { 
		 "optdone": 1, 
		 "sigma_profile": "yes", 
		 "theory": "DFT", 
		 "functional": "B3LYP", 
		 "basiset": "6-31G**", 
		 "properties": { 
			 "R2extent": 12781.3582, 
			 "electric_dipole_moment_norm": 0.254870064935, 
			 "electric_quadrupole_moment_norm": 17.3697815499, 
			 "total_energy": -1188.57758351, 
			 "HOMO_LUMO_gap": 0.13895, 
			 "cosmo_polarized_energy": -12.26, 
			 "cosmo_cavitation_energy": 52.84, 
			 "cosmo_dispersion_energy": -35.83, 
			 "cosmo_repulsion_energy": 2.67, 
			 "cosmo_total_nonelectrostatic_energy": 19.68, 
			 "SMD_solvation_energy": 7.41 
		},
		"coords": [
			{
				"x": -1.0191724657,
				"y": 2.1582842788,
				"z": -0.4516377923,
				"element": "N" 
			},
			{
				"x": -1.1643088246,
				"y": 2.4252895755,
				"z": -1.7918490277,
				"element": "C" 
			},
			{
				"x": -1.5111282492,
				"y": 3.6129610191,
				"z": -2.4454747905,
				"element": "C" 
			},
			{
				"x": -1.5954917627,
				"y": 3.5792779874,
				"z": -3.8323644653,
				"element": "C" 
			},
			{
				"x": -1.3507294255,
				"y": 2.3896822436,
				"z": -4.5504631067,
				"element": "C" 
			},
			{
				"x": -1.0091154283,
				"y": 1.2129270968,
				"z": -3.8971437273,
				"element": "C" 
			},
			{
				"x": -0.899538558,
				"y": 1.2186846484,
				"z": -2.4940893552,
				"element": "C" 
			},
			{
				"x": -0.5953024536,
				"y": 0.207857789,
				"z": -1.5104530805,
				"element": "C" 
			},
			{
				"x": -0.6760462832,
				"y": 0.8275028615,
				"z": -0.2625748807,
				"element": "C" 
			},
			{
				"x": -0.3760363356,
				"y": 0.3324792412,
				"z": 1.0712311195,
				"element": "C" 
			},
			{
				"x": -0.704875954,
				"y": 0.8345226516,
				"z": 2.3311889939,
				"element": "C" 
			},
			{
				"x": -0.036917746,
				"y": -0.0036957299,
				"z": 3.2971373134,
				"element": "C" 
			},
			{
				"x": 0.6732122508,
				"y": -0.9990975431,
				"z": 2.573239417,
				"element": "C" 
			},
			{
				"x": 0.4517175515,
				"y": -0.7683846372,
				"z": 1.2367284346,
				"element": "N" 
			},
			{
				"x": 1.424532962,
				"y": -1.9949360969,
				"z": 3.2071914003,
				"element": "C" 
			},
			{
				"x": 1.4553427446,
				"y": -1.9866326261,
				"z": 4.5966858263,
				"element": "C" 
			},
			{
				"x": 0.7470902747,
				"y": -1.0168175011,
				"z": 5.337321303,
				"element": "C" 
			},
			{
				"x": 0.0009425875,
				"y": -0.0319061262,
				"z": 4.7036806537,
				"element": "C" 
			},
			{
				"x": -1.5855219918,
				"y": 1.9734459909,
				"z": 2.662340639,
				"element": "C" 
			},
			{
				"x": -2.8854843143,
				"y": 2.0794740201,
				"z": 2.1312975246,
				"element": "C" 
			},
			{
				"x": -3.7125011515,
				"y": 3.1507049836,
				"z": 2.4685610629,
				"element": "C" 
			},
			{
				"x": -3.2665730173,
				"y": 4.1339144997,
				"z": 3.3548352302,
				"element": "C" 
			},
			{
				"x": -1.9836409353,
				"y": 4.0388100241,
				"z": 3.897610559,
				"element": "C" 
			},
			{
				"x": -1.151471176,
				"y": 2.9733741781,
				"z": 3.5535207331,
				"element": "C" 
			},
			{
				"x": -0.295650657,
				"y": -1.2066380898,
				"z": -1.8133818958,
				"element": "C" 
			},
			{
				"x": -0.9893069657,
				"y": -2.2586264355,
				"z": -1.1846702068,
				"element": "C" 
			},
			{
				"x": -0.7086605065,
				"y": -3.5890195919,
				"z": -1.4953667359,
				"element": "C" 
			},
			{
				"x": 0.2610802633,
				"y": -3.9003790339,
				"z": -2.4512477907,
				"element": "C" 
			},
			{
				"x": 0.9514472019,
				"y": -2.8689057306,
				"z": -3.0907791247,
				"element": "C" 
			},
			{
				"x": 0.6791009913,
				"y": -1.537944454,
				"z": -2.7738780557,
				"element": "C" 
			},
			{
				"x": -1.1305644855,
				"y": 2.8205248759,
				"z": 0.2998450361,
				"element": "H" 
			},
			{
				"x": -1.7084183974,
				"y": 4.5250467849,
				"z": -1.8896089629,
				"element": "H" 
			},
			{
				"x": -1.859286629,
				"y": 4.48387281,
				"z": -4.3723995566,
				"element": "H" 
			},
			{
				"x": -1.4351697464,
				"y": 2.3970180031,
				"z": -5.6332283185,
				"element": "H" 
			},
			{
				"x": -0.8331456095,
				"y": 0.2999525614,
				"z": -4.4576865795,
				"element": "H" 
			},
			{
				"x": 0.834191177,
				"y": -1.3019854953,
				"z": 0.472086086,
				"element": "H" 
			},
			{
				"x": 1.9610265417,
				"y": -2.7461803394,
				"z": 2.6348167898,
				"element": "H" 
			},
			{
				"x": 2.0311018349,
				"y": -2.7432938969,
				"z": 5.1215494976,
				"element": "H" 
			},
			{
				"x": 0.7854446748,
				"y": -1.0459990682,
				"z": 6.4223295989,
				"element": "H" 
			},
			{
				"x": -0.5494041015,
				"y": 0.7035334101,
				"z": 5.2824260877,
				"element": "H" 
			},
			{
				"x": -3.2464326035,
				"y": 1.3066812633,
				"z": 1.4594270606,
				"element": "H" 
			},
			{
				"x": -4.7122464169,
				"y": 3.2099459072,
				"z": 2.047387432,
				"element": "H" 
			},
			{
				"x": -3.9138085142,
				"y": 4.9643300281,
				"z": 3.6215897665,
				"element": "H" 
			},
			{
				"x": -1.6256141043,
				"y": 4.7996691143,
				"z": 4.5856361781,
				"element": "H" 
			},
			{
				"x": -0.1486418211,
				"y": 2.9137148855,
				"z": 3.9657545511,
				"element": "H" 
			},
			{
				"x": -1.7600470029,
				"y": -2.0229125944,
				"z": -0.4571358412,
				"element": "H" 
			},
			{
				"x": -1.2583237194,
				"y": -4.3834737969,
				"z": -0.9982745329,
				"element": "H" 
			},
			{
				"x": 0.4743271694,
				"y": -4.9366432383,
				"z": -2.6968992147,
				"element": "H" 
			},
			{
				"x": 1.7098066994,
				"y": -3.0999189923,
				"z": -3.8337408538,
				"element": "H" 
			},
			{
				"x": 1.2310124284,
				"y": -0.7404917153,
				"z": -3.2623703989,
				"element": "H" 
			}
		],
		 "valence_orbital": [ 
			{
				"type": "occ",
				"energy": -0.24933,
				"method": "rhf"
			},
			{
				"type": "occ",
				"energy": -0.23985,
				"method": "rhf"
			},
			{
				"type": "occ",
				"energy": -0.21451,
				"method": "rhf"
			},
			{
				"type": "occ",
				"energy": -0.20207,
				"method": "rhf"
			},
			{
				"type": "occ",
				"energy": -0.18297,
				"method": "rhf"
			},
			{
				"type": "unocc",
				"energy": -0.04402,
				"method": "rhf"
			},
			{
				"type": "unocc",
				"energy": -0.00838,
				"method": "rhf"
			},
			{
				"type": "unocc",
				"energy": -0.00604,
				"method": "rhf"
			},
			{
				"type": "unocc",
				"energy": -0.00597,
				"method": "rhf"
			},
			{
				"type": "unocc",
				"energy": -0.00499,
				"method": "rhf"
			}
		],
		"cosmo_sigma_profile": { 
			"-0.025": 0.0,
			"-0.024": 0.0,
			"-0.023": 0.0,
			"-0.022": 0.0,
			"-0.021": 0.0,
			"-0.02": 0.0,
			"-0.019": 0.0,
			"-0.018": 0.0,
			"-0.017": 0.0,
			"-0.016": 0.0,
			"-0.015": 0.0,
			"-0.014": 0.0,
			"-0.013": 0.477605047978,
			"-0.012": 1.47612201362,
			"-0.011": 1.93674811515,
			"-0.01": 1.75712969781,
			"-0.009": 1.97306697599,
			"-0.008": 2.06770861133,
			"-0.007": 3.83566413695,
			"-0.006": 13.823151467,
			"-0.005": 31.7119376773,
			"-0.004": 36.2193211845,
			"-0.003": 40.761766993,
			"-0.002": 32.1005001902,
			"-0.001": 28.8367110796,
			"0.0": 26.7693270133,
			"0.001": 30.7403618621,
			"0.002": 30.7549562251,
			"0.003": 36.2919461328,
			"0.004": 38.2211781719,
			"0.005": 32.9992225496,
			"0.006": 22.7500309462,
			"0.007": 9.25247776052,
			"0.008": 0.064489574939,
			"0.009": 0.0,
			"0.01": 0.0,
			"0.011": 0.0,
			"0.012": 0.0,
			"0.013": 0.0,
			"0.014": 0.0,
			"0.015": 0.0,
			"0.016": 0.0,
			"0.017": 0.0,
			"0.018": 0.0,
			"0.019": 0.0,
			"0.02": 0.0,
			"0.021": 0.0,
			"0.022": 0.0,
			"0.023": 0.0,
			"0.024": 0.0,
			"0.025": 0.0
		}
	}
}
