{
	 "smiles": "CCCCCCCCOC1=CC=C(NC(=O)C2=CC=C(OC)C=C2)C=C1", 
	 "Tm": 426.15, 
	 "num_atms": 55, 
	 "gaussian": { 
		 "optdone": 1, 
		 "sigma_profile": "yes", 
		 "theory": "DFT", 
		 "functional": "B3LYP", 
		 "basiset": "6-31G**", 
		 "properties": { 
			 "R2extent": 17424.7175, 
			 "electric_dipole_moment_norm": 5.26001382603, 
			 "electric_quadrupole_moment_norm": 28.2151540325, 
			 "total_energy": -1136.25670455, 
			 "HOMO_LUMO_gap": 0.18035, 
			 "cosmo_polarized_energy": -15.57, 
			 "cosmo_cavitation_energy": 56.91, 
			 "cosmo_dispersion_energy": -37.96, 
			 "cosmo_repulsion_energy": 2.95, 
			 "cosmo_total_nonelectrostatic_energy": 21.9, 
			 "SMD_solvation_energy": 10.24 
		},
		"coords": [
			{
				"x": 1.8240848061,
				"y": 0.8776748384,
				"z": 5.7618880278,
				"element": "C" 
			},
			{
				"x": 1.9084513397,
				"y": 2.2120259247,
				"z": 6.5120123586,
				"element": "C" 
			},
			{
				"x": 2.0069598174,
				"y": 3.4682688457,
				"z": 5.6275202608,
				"element": "C" 
			},
			{
				"x": 3.2700120992,
				"y": 3.5517084269,
				"z": 4.7378316822,
				"element": "C" 
			},
			{
				"x": 3.1087301346,
				"y": 3.02321777,
				"z": 3.2994887985,
				"element": "C" 
			},
			{
				"x": 2.3001638417,
				"y": 3.9648603928,
				"z": 2.3927010349,
				"element": "C" 
			},
			{
				"x": 2.1422089607,
				"y": 3.5016658668,
				"z": 0.9332138342,
				"element": "C" 
			},
			{
				"x": 1.1350996605,
				"y": 2.3827200762,
				"z": 0.6896699444,
				"element": "C" 
			},
			{
				"x": 1.64290517,
				"y": 1.1592573604,
				"z": 1.2231174613,
				"element": "O" 
			},
			{
				"x": 0.8876371558,
				"y": 0.0282942001,
				"z": 1.101346809,
				"element": "C" 
			},
			{
				"x": -0.3654515939,
				"y": -0.0336705631,
				"z": 0.4793799892,
				"element": "C" 
			},
			{
				"x": -1.0579036987,
				"y": -1.2453527907,
				"z": 0.4225197249,
				"element": "C" 
			},
			{
				"x": -0.5028183344,
				"y": -2.4149007528,
				"z": 0.9493475243,
				"element": "C" 
			},
			{
				"x": -1.1894680852,
				"y": -3.6604294458,
				"z": 0.9289473682,
				"element": "N" 
			},
			{
				"x": -2.0505826681,
				"y": -4.1902140031,
				"z": -0.0204998662,
				"element": "C" 
			},
			{
				"x": -2.8952250568,
				"y": -5.0120333243,
				"z": 0.3249262847,
				"element": "O" 
			},
			{
				"x": -1.8890058694,
				"y": -3.804743862,
				"z": -1.4563477744,
				"element": "C" 
			},
			{
				"x": -0.669010365,
				"y": -3.4350489028,
				"z": -2.0335713044,
				"element": "C" 
			},
			{
				"x": -0.5674197604,
				"y": -3.1767007438,
				"z": -3.401213023,
				"element": "C" 
			},
			{
				"x": -1.7054167363,
				"y": -3.2787994699,
				"z": -4.2122611241,
				"element": "C" 
			},
			{
				"x": -1.7240052646,
				"y": -3.0381675777,
				"z": -5.5522447496,
				"element": "O" 
			},
			{
				"x": -0.5119845991,
				"y": -2.6624866776,
				"z": -6.1889688379,
				"element": "C" 
			},
			{
				"x": -2.9329712969,
				"y": -3.6597822773,
				"z": -3.6450303439,
				"element": "C" 
			},
			{
				"x": -3.0149038096,
				"y": -3.9313348438,
				"z": -2.2891985872,
				"element": "C" 
			},
			{
				"x": 0.7557266911,
				"y": -2.3441619966,
				"z": 1.5673106747,
				"element": "C" 
			},
			{
				"x": 1.4384722194,
				"y": -1.1381725627,
				"z": 1.6532671195,
				"element": "C" 
			},
			{
				"x": 0.9796865603,
				"y": 0.8632327347,
				"z": 5.0632300365,
				"element": "H" 
			},
			{
				"x": 1.6899325707,
				"y": 0.0453115702,
				"z": 6.4611653459,
				"element": "H" 
			},
			{
				"x": 2.7328623082,
				"y": 0.6762606867,
				"z": 5.1857703244,
				"element": "H" 
			},
			{
				"x": 1.0254423315,
				"y": 2.3127161808,
				"z": 7.1567885194,
				"element": "H" 
			},
			{
				"x": 2.7739160501,
				"y": 2.1894549394,
				"z": 7.1889517422,
				"element": "H" 
			},
			{
				"x": 1.1050901569,
				"y": 3.5413262053,
				"z": 5.0042986861,
				"element": "H" 
			},
			{
				"x": 1.9783482324,
				"y": 4.342207911,
				"z": 6.2902058594,
				"element": "H" 
			},
			{
				"x": 4.0864009372,
				"y": 3.0079313877,
				"z": 5.2320432092,
				"element": "H" 
			},
			{
				"x": 3.6051097925,
				"y": 4.5963927282,
				"z": 4.6820567629,
				"element": "H" 
			},
			{
				"x": 4.1048666136,
				"y": 2.891495269,
				"z": 2.8548747579,
				"element": "H" 
			},
			{
				"x": 2.6471781455,
				"y": 2.0324943011,
				"z": 3.3043969031,
				"element": "H" 
			},
			{
				"x": 2.7933489378,
				"y": 4.9465925587,
				"z": 2.3874336157,
				"element": "H" 
			},
			{
				"x": 1.3014504144,
				"y": 4.1360869618,
				"z": 2.8181196275,
				"element": "H" 
			},
			{
				"x": 1.8063894356,
				"y": 4.3530096984,
				"z": 0.3269103992,
				"element": "H" 
			},
			{
				"x": 3.1130306317,
				"y": 3.1945117536,
				"z": 0.5237998667,
				"element": "H" 
			},
			{
				"x": 0.9583767808,
				"y": 2.2642168594,
				"z": -0.3892187708,
				"element": "H" 
			},
			{
				"x": 0.1714246829,
				"y": 2.6246250828,
				"z": 1.1626585325,
				"element": "H" 
			},
			{
				"x": -0.8224643641,
				"y": 0.8516851566,
				"z": 0.0544725194,
				"element": "H" 
			},
			{
				"x": -2.0390877054,
				"y": -1.2770649774,
				"z": -0.0386529813,
				"element": "H" 
			},
			{
				"x": -1.3352515393,
				"y": -4.1047415454,
				"z": 1.8283239244,
				"element": "H" 
			},
			{
				"x": 0.2220270613,
				"y": -3.3594902573,
				"z": -1.4203751863,
				"element": "H" 
			},
			{
				"x": 0.3941077765,
				"y": -2.9041855431,
				"z": -3.8193919568,
				"element": "H" 
			},
			{
				"x": -0.1153322033,
				"y": -1.7235565255,
				"z": -5.782137737,
				"element": "H" 
			},
			{
				"x": 0.2524041007,
				"y": -3.4444718812,
				"z": -6.0973257752,
				"element": "H" 
			},
			{
				"x": -0.7569517412,
				"y": -2.5219964642,
				"z": -7.242748757,
				"element": "H" 
			},
			{
				"x": -3.7988438408,
				"y": -3.7440976237,
				"z": -4.293439522,
				"element": "H" 
			},
			{
				"x": -3.9503528262,
				"y": -4.2558393884,
				"z": -1.8460744126,
				"element": "H" 
			},
			{
				"x": 1.1969088573,
				"y": -3.2475973412,
				"z": 1.9788595418,
				"element": "H" 
			},
			{
				"x": 2.4095970846,
				"y": -1.077704346,
				"z": 2.1333516384,
				"element": "H" 
			}
		],
		 "valence_orbital": [ 
			{
				"type": "occ",
				"energy": -0.25891,
				"method": "rhf"
			},
			{
				"type": "occ",
				"energy": -0.25406,
				"method": "rhf"
			},
			{
				"type": "occ",
				"energy": -0.2444,
				"method": "rhf"
			},
			{
				"type": "occ",
				"energy": -0.22302,
				"method": "rhf"
			},
			{
				"type": "occ",
				"energy": -0.20692,
				"method": "rhf"
			},
			{
				"type": "unocc",
				"energy": -0.02657,
				"method": "rhf"
			},
			{
				"type": "unocc",
				"energy": -0.01188,
				"method": "rhf"
			},
			{
				"type": "unocc",
				"energy": -6e-05,
				"method": "rhf"
			},
			{
				"type": "unocc",
				"energy": 0.01046,
				"method": "rhf"
			},
			{
				"type": "unocc",
				"energy": 0.0683,
				"method": "rhf"
			}
		],
		"cosmo_sigma_profile": { 
			"-0.025": 0.0,
			"-0.024": 0.0,
			"-0.023": 0.0,
			"-0.022": 0.0,
			"-0.021": 0.0,
			"-0.02": 0.0,
			"-0.019": 0.0,
			"-0.018": 0.0,
			"-0.017": 0.0,
			"-0.016": 0.0,
			"-0.015": 0.0,
			"-0.014": 0.357405033934,
			"-0.013": 0.791903299453,
			"-0.012": 0.997456562384,
			"-0.011": 1.02208312348,
			"-0.01": 0.686805033404,
			"-0.009": 1.17261301953,
			"-0.008": 1.20416217063,
			"-0.007": 3.26792452655,
			"-0.006": 17.1784259932,
			"-0.005": 27.09635312,
			"-0.004": 30.5977735696,
			"-0.003": 32.5956561245,
			"-0.002": 41.1744237258,
			"-0.001": 52.7870889563,
			"0.0": 54.8132754688,
			"0.001": 49.2660293252,
			"0.002": 33.2211194769,
			"0.003": 24.0263167675,
			"0.004": 28.7310448065,
			"0.005": 14.1668147323,
			"0.006": 4.33642530531,
			"0.007": 3.31009149416,
			"0.008": 4.65451490017,
			"0.009": 3.70593945248,
			"0.01": 2.94675062028,
			"0.011": 1.52182875235,
			"0.012": 2.19515439603,
			"0.013": 4.2991572642,
			"0.014": 4.01581036947,
			"0.015": 0.176603970514,
			"0.016": 0.0,
			"0.017": 0.0,
			"0.018": 0.0,
			"0.019": 0.0,
			"0.02": 0.0,
			"0.021": 0.0,
			"0.022": 0.0,
			"0.023": 0.0,
			"0.024": 0.0,
			"0.025": 0.0
		}
	}
}
