{
	 "smiles": "CCOC(=O)C1=C(C=CC(F)=C1)S(Cl)(=O)=O", 
	 "Tm": 343.15, 
	 "num_atms": 24, 
	 "gaussian": { 
		 "optdone": 1, 
		 "sigma_profile": "yes", 
		 "theory": "DFT", 
		 "functional": "B3LYP", 
		 "basiset": "6-31G**", 
		 "properties": { 
			 "R2extent": 5230.4836, 
			 "electric_dipole_moment_norm": 5.17855251301, 
			 "electric_quadrupole_moment_norm": 18.1329930762, 
			 "total_energy": -1606.82272094, 
			 "HOMO_LUMO_gap": 0.19522, 
			 "cosmo_polarized_energy": -13.18, 
			 "cosmo_cavitation_energy": 32.7, 
			 "cosmo_dispersion_energy": -23.64, 
			 "cosmo_repulsion_energy": 1.81, 
			 "cosmo_total_nonelectrostatic_energy": 10.87, 
			 "SMD_solvation_energy": 5.82 
		},
		"coords": [
			{
				"x": -1.6357272408,
				"y": 0.3860502008,
				"z": 3.5532702448,
				"element": "C" 
			},
			{
				"x": -1.6791285073,
				"y": 0.8171182273,
				"z": 2.1008513114,
				"element": "C" 
			},
			{
				"x": -0.5869391483,
				"y": 0.1477515354,
				"z": 1.4152056402,
				"element": "O" 
			},
			{
				"x": -0.4504002442,
				"y": 0.4494330806,
				"z": 0.1127045301,
				"element": "C" 
			},
			{
				"x": -1.1685744074,
				"y": 1.205962509,
				"z": -0.4993183857,
				"element": "O" 
			},
			{
				"x": 0.6749008614,
				"y": -0.3345895662,
				"z": -0.5083583161,
				"element": "C" 
			},
			{
				"x": 1.5401779727,
				"y": 0.1847575856,
				"z": -1.4909638663,
				"element": "C" 
			},
			{
				"x": 2.4980151252,
				"y": -0.6220872899,
				"z": -2.109905968,
				"element": "C" 
			},
			{
				"x": 2.6065668342,
				"y": -1.9679757267,
				"z": -1.7693441289,
				"element": "C" 
			},
			{
				"x": 1.7611937837,
				"y": -2.4704837224,
				"z": -0.7885100131,
				"element": "C" 
			},
			{
				"x": 1.8615392799,
				"y": -3.7607621687,
				"z": -0.4377417692,
				"element": "F" 
			},
			{
				"x": 0.8110025704,
				"y": -1.678955443,
				"z": -0.1520707027,
				"element": "C" 
			},
			{
				"x": 1.6247386499,
				"y": 1.9352062582,
				"z": -1.9169629457,
				"element": "S" 
			},
			{
				"x": 0.0815501283,
				"y": 2.1592513054,
				"z": -3.3424624734,
				"element": "Cl" 
			},
			{
				"x": 1.2966985234,
				"y": 2.7459187638,
				"z": -0.7531646973,
				"element": "O" 
			},
			{
				"x": 2.8635615072,
				"y": 2.1458601198,
				"z": -2.6594648435,
				"element": "O" 
			},
			{
				"x": -0.6859759053,
				"y": 0.6671233119,
				"z": 4.0166071926,
				"element": "H" 
			},
			{
				"x": -1.7605161626,
				"y": -0.6966007327,
				"z": 3.6471377975,
				"element": "H" 
			},
			{
				"x": -2.4452148797,
				"y": 0.8736565227,
				"z": 4.1049376549,
				"element": "H" 
			},
			{
				"x": -1.5483891584,
				"y": 1.89637586,
				"z": 1.9822081111,
				"element": "H" 
			},
			{
				"x": -2.6181506701,
				"y": 0.5398097166,
				"z": 1.6120180493,
				"element": "H" 
			},
			{
				"x": 3.1651282471,
				"y": -0.1857463012,
				"z": -2.8434093773,
				"element": "H" 
			},
			{
				"x": 3.3388156224,
				"y": -2.6146925623,
				"z": -2.2390068179,
				"element": "H" 
			},
			{
				"x": 0.1759272183,
				"y": -2.1093814841,
				"z": 0.6121437733,
				"element": "H" 
			}
		],
		 "valence_orbital": [ 
			{
				"type": "occ",
				"energy": -0.31605,
				"method": "rhf"
			},
			{
				"type": "occ",
				"energy": -0.30801,
				"method": "rhf"
			},
			{
				"type": "occ",
				"energy": -0.30287,
				"method": "rhf"
			},
			{
				"type": "occ",
				"energy": -0.2898,
				"method": "rhf"
			},
			{
				"type": "occ",
				"energy": -0.28448,
				"method": "rhf"
			},
			{
				"type": "unocc",
				"energy": -0.08926,
				"method": "rhf"
			},
			{
				"type": "unocc",
				"energy": -0.06582,
				"method": "rhf"
			},
			{
				"type": "unocc",
				"energy": -0.04694,
				"method": "rhf"
			},
			{
				"type": "unocc",
				"energy": 0.01613,
				"method": "rhf"
			},
			{
				"type": "unocc",
				"energy": 0.05229,
				"method": "rhf"
			}
		],
		"cosmo_sigma_profile": { 
			"-0.025": 0.0,
			"-0.024": 0.0,
			"-0.023": 0.0,
			"-0.022": 0.0,
			"-0.021": 0.0,
			"-0.02": 0.0,
			"-0.019": 0.0,
			"-0.018": 0.0,
			"-0.017": 0.0,
			"-0.016": 0.0,
			"-0.015": 0.0,
			"-0.014": 0.0,
			"-0.013": 0.0,
			"-0.012": 0.0,
			"-0.011": 0.0,
			"-0.01": 0.560366708965,
			"-0.009": 4.65873392701,
			"-0.008": 5.01084850616,
			"-0.007": 4.86223254577,
			"-0.006": 9.30894868726,
			"-0.005": 15.6629932289,
			"-0.004": 19.4779008099,
			"-0.003": 23.9529040092,
			"-0.002": 31.8558124232,
			"-0.001": 26.1042036572,
			"0.0": 17.6219275639,
			"0.001": 13.8501166173,
			"0.002": 14.8121534844,
			"0.003": 21.6485714101,
			"0.004": 9.18168739479,
			"0.005": 6.50541581023,
			"0.006": 6.19894347175,
			"0.007": 7.31298766496,
			"0.008": 10.4791350053,
			"0.009": 8.55346231739,
			"0.01": 3.94203895913,
			"0.011": 2.55104583317,
			"0.012": 0.196686558168,
			"0.013": 0.0,
			"0.014": 0.0,
			"0.015": 0.0,
			"0.016": 0.0,
			"0.017": 0.0,
			"0.018": 0.0,
			"0.019": 0.0,
			"0.02": 0.0,
			"0.021": 0.0,
			"0.022": 0.0,
			"0.023": 0.0,
			"0.024": 0.0,
			"0.025": 0.0
		}
	}
}
