{
	 "smiles": "CC1=CC=C(C=C2C(N)=NC(=O)N=C2N)C=C1", 
	 "Tm": 445.15, 
	 "num_atms": 29, 
	 "gaussian": { 
		 "optdone": 1, 
		 "sigma_profile": "yes", 
		 "theory": "DFT", 
		 "functional": "B3LYP", 
		 "basiset": "6-31G**", 
		 "properties": { 
			 "R2extent": 5200.782, 
			 "electric_dipole_moment_norm": 10.4419864322, 
			 "electric_quadrupole_moment_norm": 35.0033337584, 
			 "total_energy": -758.739045072, 
			 "HOMO_LUMO_gap": 0.13757, 
			 "cosmo_polarized_energy": -33.43, 
			 "cosmo_cavitation_energy": 33.45, 
			 "cosmo_dispersion_energy": -24.27, 
			 "cosmo_repulsion_energy": 1.9, 
			 "cosmo_total_nonelectrostatic_energy": 11.08, 
			 "SMD_solvation_energy": 3.52 
		},
		"coords": [
			{
				"x": 3.6910682141,
				"y": 3.9505262583,
				"z": 0.8590171897,
				"element": "C" 
			},
			{
				"x": 2.7989605357,
				"y": 2.8499082484,
				"z": 0.3396536696,
				"element": "C" 
			},
			{
				"x": 2.429624585,
				"y": 1.7760764892,
				"z": 1.1659612287,
				"element": "C" 
			},
			{
				"x": 1.6129710363,
				"y": 0.7506742784,
				"z": 0.7038489552,
				"element": "C" 
			},
			{
				"x": 1.1299920852,
				"y": 0.7585923963,
				"z": -0.6204561957,
				"element": "C" 
			},
			{
				"x": 0.3105914893,
				"y": -0.3097725248,
				"z": -1.2074302161,
				"element": "C" 
			},
			{
				"x": -0.6135446094,
				"y": -1.1517329545,
				"z": -0.676916597,
				"element": "C" 
			},
			{
				"x": -1.1549675611,
				"y": -2.2765559764,
				"z": -1.4869069368,
				"element": "C" 
			},
			{
				"x": -1.1023717525,
				"y": -2.1783299303,
				"z": -2.8606360286,
				"element": "N" 
			},
			{
				"x": -1.6023769125,
				"y": -3.3637224463,
				"z": -0.9541113405,
				"element": "N" 
			},
			{
				"x": -1.5970388778,
				"y": -3.4626143404,
				"z": 0.4594438275,
				"element": "C" 
			},
			{
				"x": -1.6557856273,
				"y": -4.5519820338,
				"z": 0.9965467945,
				"element": "O" 
			},
			{
				"x": -1.6230988351,
				"y": -2.2808288171,
				"z": 1.228992094,
				"element": "N" 
			},
			{
				"x": -1.1722422877,
				"y": -1.1890415601,
				"z": 0.6991768331,
				"element": "C" 
			},
			{
				"x": -1.2375017188,
				"y": -0.0343939089,
				"z": 1.4235114777,
				"element": "N" 
			},
			{
				"x": 1.5318343062,
				"y": 1.8162766755,
				"z": -1.4577581013,
				"element": "C" 
			},
			{
				"x": 2.3342041715,
				"y": 2.8493728161,
				"z": -0.9814597892,
				"element": "C" 
			},
			{
				"x": 4.6923994875,
				"y": 3.5699195617,
				"z": 1.0926985617,
				"element": "H" 
			},
			{
				"x": 3.2908881192,
				"y": 4.3849335354,
				"z": 1.7817819917,
				"element": "H" 
			},
			{
				"x": 3.8028806036,
				"y": 4.7553092814,
				"z": 0.1277652209,
				"element": "H" 
			},
			{
				"x": 2.7981530241,
				"y": 1.7388406933,
				"z": 2.188153056,
				"element": "H" 
			},
			{
				"x": 1.3620995919,
				"y": -0.0707614307,
				"z": 1.36383477,
				"element": "H" 
			},
			{
				"x": 0.5266645251,
				"y": -0.4727332439,
				"z": -2.2623884085,
				"element": "H" 
			},
			{
				"x": -1.5622691329,
				"y": -2.9510433225,
				"z": -3.3251867362,
				"element": "H" 
			},
			{
				"x": -1.2795106692,
				"y": -1.272358907,
				"z": -3.26975717,
				"element": "H" 
			},
			{
				"x": -1.1233401729,
				"y": 0.8611643978,
				"z": 0.9789461061,
				"element": "H" 
			},
			{
				"x": -1.7649179938,
				"y": -0.0844848856,
				"z": 2.2829479217,
				"element": "H" 
			},
			{
				"x": 1.2002552234,
				"y": 1.8302990032,
				"z": -2.4931065634,
				"element": "H" 
			},
			{
				"x": 2.6142791526,
				"y": 3.6605626471,
				"z": -1.6482656149,
				"element": "H" 
			}
		],
		 "valence_orbital": [ 
			{
				"type": "occ",
				"energy": -0.25639,
				"method": "rhf"
			},
			{
				"type": "occ",
				"energy": -0.25158,
				"method": "rhf"
			},
			{
				"type": "occ",
				"energy": -0.23689,
				"method": "rhf"
			},
			{
				"type": "occ",
				"energy": -0.23616,
				"method": "rhf"
			},
			{
				"type": "occ",
				"energy": -0.22633,
				"method": "rhf"
			},
			{
				"type": "unocc",
				"energy": -0.08876,
				"method": "rhf"
			},
			{
				"type": "unocc",
				"energy": -0.02309,
				"method": "rhf"
			},
			{
				"type": "unocc",
				"energy": -0.01001,
				"method": "rhf"
			},
			{
				"type": "unocc",
				"energy": 0.02162,
				"method": "rhf"
			},
			{
				"type": "unocc",
				"energy": 0.04328,
				"method": "rhf"
			}
		],
		"cosmo_sigma_profile": { 
			"-0.025": 0.0,
			"-0.024": 0.0,
			"-0.023": 0.0,
			"-0.022": 0.0,
			"-0.021": 0.0,
			"-0.02": 0.0,
			"-0.019": 0.0,
			"-0.018": 0.0,
			"-0.017": 0.0,
			"-0.016": 0.0,
			"-0.015": 0.335356093099,
			"-0.014": 2.89999411777,
			"-0.013": 4.4099305113,
			"-0.012": 5.18122757812,
			"-0.011": 4.56817232329,
			"-0.01": 4.51582303841,
			"-0.009": 4.81803147727,
			"-0.008": 5.17699574866,
			"-0.007": 6.01577666197,
			"-0.006": 10.5150542311,
			"-0.005": 15.5606456121,
			"-0.004": 21.495199072,
			"-0.003": 19.3109675312,
			"-0.002": 17.3773402733,
			"-0.001": 20.5226892888,
			"0.0": 19.0224548463,
			"0.001": 13.8631734576,
			"0.002": 13.1075347887,
			"0.003": 13.3535511027,
			"0.004": 12.2587262866,
			"0.005": 5.32493021847,
			"0.006": 3.17826548254,
			"0.007": 2.20395978327,
			"0.008": 3.19223472575,
			"0.009": 3.38791961695,
			"0.01": 2.79520942016,
			"0.011": 2.9568395403,
			"0.012": 3.29143243705,
			"0.013": 5.85360316516,
			"0.014": 6.67580761374,
			"0.015": 5.01738243699,
			"0.016": 5.43316579017,
			"0.017": 2.72468521812,
			"0.018": 0.0,
			"0.019": 0.0,
			"0.02": 0.0,
			"0.021": 0.0,
			"0.022": 0.0,
			"0.023": 0.0,
			"0.024": 0.0,
			"0.025": 0.0
		}
	}
}
