{
	 "smiles": "O=C(C1=NOC(=C1S(=O)(=O)C1=CC=CC=C1)C1=CC2=C(C=CC=C2)C=C1)C1=CC=CC=C1", 
	 "Tm": 451.15, 
	 "num_atms": 49, 
	 "gaussian": { 
		 "optdone": 1, 
		 "sigma_profile": "yes", 
		 "theory": "DFT", 
		 "functional": "B3LYP", 
		 "basiset": "6-31G**", 
		 "properties": { 
			 "R2extent": 16010.8413, 
			 "electric_dipole_moment_norm": 3.13997790757, 
			 "electric_quadrupole_moment_norm": 27.754110259, 
			 "total_energy": -1754.73211805, 
			 "HOMO_LUMO_gap": 0.15464, 
			 "cosmo_polarized_energy": -17.79, 
			 "cosmo_cavitation_energy": 55.39, 
			 "cosmo_dispersion_energy": -37.83, 
			 "cosmo_repulsion_energy": 2.75, 
			 "cosmo_total_nonelectrostatic_energy": 20.32, 
			 "SMD_solvation_energy": 8.39 
		},
		"coords": [
			{
				"x": -0.7251757813,
				"y": -2.4373724041,
				"z": -2.9301273476,
				"element": "O" 
			},
			{
				"x": 0.3297370413,
				"y": -2.1721123419,
				"z": -2.3743395614,
				"element": "C" 
			},
			{
				"x": 0.4135751596,
				"y": -0.8661107197,
				"z": -1.6032201941,
				"element": "C" 
			},
			{
				"x": 1.1318433279,
				"y": 0.1080948721,
				"z": -2.1065595868,
				"element": "N" 
			},
			{
				"x": 0.8958421188,
				"y": 1.2111103425,
				"z": -1.2822418348,
				"element": "O" 
			},
			{
				"x": 0.0439275451,
				"y": 0.8881442797,
				"z": -0.2834144106,
				"element": "C" 
			},
			{
				"x": -0.2974732649,
				"y": -0.4451618566,
				"z": -0.432983626,
				"element": "C" 
			},
			{
				"x": -1.3662788364,
				"y": -1.513709766,
				"z": 0.5173628117,
				"element": "S" 
			},
			{
				"x": -1.0518124948,
				"y": -2.8741396311,
				"z": 0.0642683378,
				"element": "O" 
			},
			{
				"x": -1.2481161694,
				"y": -1.1650067697,
				"z": 1.9432437539,
				"element": "O" 
			},
			{
				"x": -3.0270153803,
				"y": -1.0798862081,
				"z": -0.0132043989,
				"element": "C" 
			},
			{
				"x": -3.8731714113,
				"y": -0.4335253523,
				"z": 0.8891362286,
				"element": "C" 
			},
			{
				"x": -5.1713906903,
				"y": -0.1187512018,
				"z": 0.4846649095,
				"element": "C" 
			},
			{
				"x": -5.6019800859,
				"y": -0.447014705,
				"z": -0.802211329,
				"element": "C" 
			},
			{
				"x": -4.7401903532,
				"y": -1.0939039145,
				"z": -1.6929169974,
				"element": "C" 
			},
			{
				"x": -3.441568287,
				"y": -1.4205111912,
				"z": -1.3045069862,
				"element": "C" 
			},
			{
				"x": -0.2963033574,
				"y": 2.00074172,
				"z": 0.6082824515,
				"element": "C" 
			},
			{
				"x": -0.6063834817,
				"y": 1.8124050024,
				"z": 1.9457958942,
				"element": "C" 
			},
			{
				"x": -0.9116526555,
				"y": 2.9160576372,
				"z": 2.7820638457,
				"element": "C" 
			},
			{
				"x": -0.8948664877,
				"y": 4.2403799322,
				"z": 2.2366321939,
				"element": "C" 
			},
			{
				"x": -1.2045245332,
				"y": 5.3364435668,
				"z": 3.0833553212,
				"element": "C" 
			},
			{
				"x": -1.5136724026,
				"y": 5.1329878427,
				"z": 4.4104344247,
				"element": "C" 
			},
			{
				"x": -1.5268700494,
				"y": 3.8238262229,
				"z": 4.9523824515,
				"element": "C" 
			},
			{
				"x": -1.2318005834,
				"y": 2.7400943944,
				"z": 4.1565307043,
				"element": "C" 
			},
			{
				"x": -0.5634458848,
				"y": 4.4045018143,
				"z": 0.8634249081,
				"element": "C" 
			},
			{
				"x": -0.2679836782,
				"y": 3.3250248583,
				"z": 0.0704103627,
				"element": "C" 
			},
			{
				"x": 1.5290522313,
				"y": -3.0375841458,
				"z": -2.4655428392,
				"element": "C" 
			},
			{
				"x": 2.7435661817,
				"y": -2.7110804571,
				"z": -1.8425530368,
				"element": "C" 
			},
			{
				"x": 3.837056764,
				"y": -3.5682846038,
				"z": -1.9553458876,
				"element": "C" 
			},
			{
				"x": 3.7242993996,
				"y": -4.7527241908,
				"z": -2.6856322493,
				"element": "C" 
			},
			{
				"x": 2.5151999816,
				"y": -5.0842418535,
				"z": -3.3075971433,
				"element": "C" 
			},
			{
				"x": 1.4227282866,
				"y": -4.2323400116,
				"z": -3.1985796984,
				"element": "C" 
			},
			{
				"x": -3.5174014232,
				"y": -0.197341355,
				"z": 1.8853782549,
				"element": "H" 
			},
			{
				"x": -5.8439448424,
				"y": 0.3805016968,
				"z": 1.1755180591,
				"element": "H" 
			},
			{
				"x": -6.6128616537,
				"y": -0.1992095955,
				"z": -1.1128762818,
				"element": "H" 
			},
			{
				"x": -5.0799536547,
				"y": -1.3482906372,
				"z": -2.6922497927,
				"element": "H" 
			},
			{
				"x": -2.7591345613,
				"y": -1.9168035075,
				"z": -1.9878108763,
				"element": "H" 
			},
			{
				"x": -0.6078555791,
				"y": 0.8146366852,
				"z": 2.3675713214,
				"element": "H" 
			},
			{
				"x": -1.1923850701,
				"y": 6.3405677313,
				"z": 2.6676196659,
				"element": "H" 
			},
			{
				"x": -1.7479593875,
				"y": 5.9794942005,
				"z": 5.049394221,
				"element": "H" 
			},
			{
				"x": -1.7709048376,
				"y": 3.6795997739,
				"z": 6.0006837919,
				"element": "H" 
			},
			{
				"x": -1.2399455979,
				"y": 1.7335485163,
				"z": 4.5658504975,
				"element": "H" 
			},
			{
				"x": -0.5478664251,
				"y": 5.4066539847,
				"z": 0.4434586039,
				"element": "H" 
			},
			{
				"x": -0.017749663,
				"y": 3.4654784453,
				"z": -0.974914084,
				"element": "H" 
			},
			{
				"x": 2.835428523,
				"y": -1.7886195051,
				"z": -1.2807485008,
				"element": "H" 
			},
			{
				"x": 4.7756290382,
				"y": -3.3124525235,
				"z": -1.4732820611,
				"element": "H" 
			},
			{
				"x": 4.577544119,
				"y": -5.41977178,
				"z": -2.7703777667,
				"element": "H" 
			},
			{
				"x": 2.4296959845,
				"y": -6.0072567853,
				"z": -3.8731886849,
				"element": "H" 
			},
			{
				"x": 0.4735128623,
				"y": -4.4675865057,
				"z": -3.6676378393,
				"element": "H" 
			}
		],
		 "valence_orbital": [ 
			{
				"type": "occ",
				"energy": -0.26597,
				"method": "rhf"
			},
			{
				"type": "occ",
				"energy": -0.26357,
				"method": "rhf"
			},
			{
				"type": "occ",
				"energy": -0.26097,
				"method": "rhf"
			},
			{
				"type": "occ",
				"energy": -0.24861,
				"method": "rhf"
			},
			{
				"type": "occ",
				"energy": -0.22645,
				"method": "rhf"
			},
			{
				"type": "unocc",
				"energy": -0.07181,
				"method": "rhf"
			},
			{
				"type": "unocc",
				"energy": -0.06966,
				"method": "rhf"
			},
			{
				"type": "unocc",
				"energy": -0.04122,
				"method": "rhf"
			},
			{
				"type": "unocc",
				"energy": -0.03672,
				"method": "rhf"
			},
			{
				"type": "unocc",
				"energy": -0.01681,
				"method": "rhf"
			}
		],
		"cosmo_sigma_profile": { 
			"-0.025": 0.0,
			"-0.024": 0.0,
			"-0.023": 0.0,
			"-0.022": 0.0,
			"-0.021": 0.0,
			"-0.02": 0.0,
			"-0.019": 0.0,
			"-0.018": 0.0,
			"-0.017": 0.0,
			"-0.016": 0.0,
			"-0.015": 0.0,
			"-0.014": 0.0,
			"-0.013": 0.0,
			"-0.012": 0.0,
			"-0.011": 0.0,
			"-0.01": 0.0,
			"-0.009": 0.0,
			"-0.008": 0.156155772933,
			"-0.007": 14.1527782619,
			"-0.006": 34.8577605613,
			"-0.005": 35.9913217962,
			"-0.004": 32.7774451065,
			"-0.003": 28.0370232496,
			"-0.002": 31.3051442712,
			"-0.001": 28.8197329554,
			"0.0": 31.1358087046,
			"0.001": 36.2601721089,
			"0.002": 47.6441804516,
			"0.003": 52.4112750289,
			"0.004": 20.643365947,
			"0.005": 10.8635756149,
			"0.006": 6.62822363483,
			"0.007": 6.14065085562,
			"0.008": 7.74474436597,
			"0.009": 7.40360087842,
			"0.01": 7.68829001267,
			"0.011": 6.54433129371,
			"0.012": 1.0539861918,
			"0.013": 0.0,
			"0.014": 0.0,
			"0.015": 0.0,
			"0.016": 0.0,
			"0.017": 0.0,
			"0.018": 0.0,
			"0.019": 0.0,
			"0.02": 0.0,
			"0.021": 0.0,
			"0.022": 0.0,
			"0.023": 0.0,
			"0.024": 0.0,
			"0.025": 0.0
		}
	}
}
