{
	 "smiles": "CC1(O)CC2=C1C(Cl)=CC=C2", 
	 "Tm": 367.15, 
	 "num_atms": 20, 
	 "gaussian": { 
		 "optdone": 1, 
		 "sigma_profile": "yes", 
		 "theory": "DFT", 
		 "functional": "B3LYP", 
		 "basiset": "6-31G**", 
		 "properties": { 
			 "R2extent": 2382.9321, 
			 "electric_dipole_moment_norm": 1.42337181369, 
			 "electric_quadrupole_moment_norm": 9.43828923852, 
			 "total_energy": -883.761049972, 
			 "HOMO_LUMO_gap": 0.23025, 
			 "cosmo_polarized_energy": -7.18, 
			 "cosmo_cavitation_energy": 25.29, 
			 "cosmo_dispersion_energy": -18.11, 
			 "cosmo_repulsion_energy": 1.46, 
			 "cosmo_total_nonelectrostatic_energy": 8.64, 
			 "SMD_solvation_energy": 3.78 
		},
		"coords": [
			{
				"x": 1.1486609847,
				"y": -0.6118171773,
				"z": 2.3794505935,
				"element": "C" 
			},
			{
				"x": 2.0014290212,
				"y": -0.0285129763,
				"z": 1.2561723903,
				"element": "C" 
			},
			{
				"x": 2.9763705054,
				"y": 0.8709335105,
				"z": 1.7582000631,
				"element": "O" 
			},
			{
				"x": 2.6859950144,
				"y": -1.0804752312,
				"z": 0.2945772905,
				"element": "C" 
			},
			{
				"x": 1.8183584409,
				"y": -0.5062210613,
				"z": -0.8160476497,
				"element": "C" 
			},
			{
				"x": 1.2370759984,
				"y": 0.4504942975,
				"z": 0.0142264531,
				"element": "C" 
			},
			{
				"x": 0.3116750721,
				"y": 1.3547894864,
				"z": -0.472244428,
				"element": "C" 
			},
			{
				"x": -0.4129103677,
				"y": 2.5799377519,
				"z": 0.5666646146,
				"element": "Cl" 
			},
			{
				"x": -0.0332105631,
				"y": 1.2742555767,
				"z": -1.8276421671,
				"element": "C" 
			},
			{
				"x": 0.5495787875,
				"y": 0.2977837474,
				"z": -2.6473099741,
				"element": "C" 
			},
			{
				"x": 1.4926259409,
				"y": -0.6215794321,
				"z": -2.1600963249,
				"element": "C" 
			},
			{
				"x": 0.5713003112,
				"y": 0.1770117542,
				"z": 2.8751405467,
				"element": "H" 
			},
			{
				"x": 1.7948281405,
				"y": -1.0866077297,
				"z": 3.1244590372,
				"element": "H" 
			},
			{
				"x": 0.4400113386,
				"y": -1.3540877812,
				"z": 1.9996120387,
				"element": "H" 
			},
			{
				"x": 2.5100723711,
				"y": 1.6011865182,
				"z": 2.1881599835,
				"element": "H" 
			},
			{
				"x": 2.5183463607,
				"y": -2.1308897227,
				"z": 0.5550513711,
				"element": "H" 
			},
			{
				"x": 3.7589063844,
				"y": -0.8977483766,
				"z": 0.1883282541,
				"element": "H" 
			},
			{
				"x": -0.7549835914,
				"y": 1.9715316333,
				"z": -2.2396650651,
				"element": "H" 
			},
			{
				"x": 0.2581675109,
				"y": 0.2625010665,
				"z": -3.6933193362,
				"element": "H" 
			},
			{
				"x": 1.9341023392,
				"y": -1.3658858542,
				"z": -2.8161176912,
				"element": "H" 
			}
		],
		 "valence_orbital": [ 
			{
				"type": "occ",
				"energy": -0.32168,
				"method": "rhf"
			},
			{
				"type": "occ",
				"energy": -0.30655,
				"method": "rhf"
			},
			{
				"type": "occ",
				"energy": -0.27034,
				"method": "rhf"
			},
			{
				"type": "occ",
				"energy": -0.24921,
				"method": "rhf"
			},
			{
				"type": "occ",
				"energy": -0.24677,
				"method": "rhf"
			},
			{
				"type": "unocc",
				"energy": -0.01652,
				"method": "rhf"
			},
			{
				"type": "unocc",
				"energy": -0.00769,
				"method": "rhf"
			},
			{
				"type": "unocc",
				"energy": 0.03138,
				"method": "rhf"
			},
			{
				"type": "unocc",
				"energy": 0.07358,
				"method": "rhf"
			},
			{
				"type": "unocc",
				"energy": 0.1098,
				"method": "rhf"
			}
		],
		"cosmo_sigma_profile": { 
			"-0.025": 0.0,
			"-0.024": 0.0,
			"-0.023": 0.0,
			"-0.022": 0.0,
			"-0.021": 0.0,
			"-0.02": 0.0,
			"-0.019": 0.0,
			"-0.018": 0.0,
			"-0.017": 0.0,
			"-0.016": 0.0,
			"-0.015": 0.288994279219,
			"-0.014": 0.566129773369,
			"-0.013": 0.897731472739,
			"-0.012": 0.707738653581,
			"-0.011": 0.512641743453,
			"-0.01": 0.866463416306,
			"-0.009": 1.00648111127,
			"-0.008": 1.31617921325,
			"-0.007": 2.92551353674,
			"-0.006": 7.69609405651,
			"-0.005": 9.28411611223,
			"-0.004": 15.5362220655,
			"-0.003": 15.8564025382,
			"-0.002": 17.6681922279,
			"-0.001": 18.5095943382,
			"0.0": 21.3339025351,
			"0.001": 14.6619006328,
			"0.002": 15.8138876578,
			"0.003": 15.6966366807,
			"0.004": 18.246624795,
			"0.005": 11.1702248486,
			"0.006": 1.5504375242,
			"0.007": 1.54473125308,
			"0.008": 1.38140921076,
			"0.009": 0.890380505963,
			"0.01": 1.18032254061,
			"0.011": 1.31084072276,
			"0.012": 1.60640261285,
			"0.013": 1.82720510384,
			"0.014": 0.832969961393,
			"0.015": 0.0,
			"0.016": 0.0,
			"0.017": 0.0,
			"0.018": 0.0,
			"0.019": 0.0,
			"0.02": 0.0,
			"0.021": 0.0,
			"0.022": 0.0,
			"0.023": 0.0,
			"0.024": 0.0,
			"0.025": 0.0
		}
	}
}
