{
	 "smiles": "FC1=C(C=CC(C=O)=C1)N1CCOCC1", 
	 "Tm": 342.15, 
	 "num_atms": 27, 
	 "gaussian": { 
		 "optdone": 1, 
		 "sigma_profile": "yes", 
		 "theory": "DFT", 
		 "functional": "B3LYP", 
		 "basiset": "6-31G**", 
		 "properties": { 
			 "R2extent": 4995.983, 
			 "electric_dipole_moment_norm": 5.27860718182, 
			 "electric_quadrupole_moment_norm": 30.2433045162, 
			 "total_energy": -731.398793892, 
			 "HOMO_LUMO_gap": 0.15696, 
			 "cosmo_polarized_energy": -12.73, 
			 "cosmo_cavitation_energy": 29.96, 
			 "cosmo_dispersion_energy": -22.09, 
			 "cosmo_repulsion_energy": 1.68, 
			 "cosmo_total_nonelectrostatic_energy": 9.56, 
			 "SMD_solvation_energy": 5.68 
		},
		"coords": [
			{
				"x": 0.8806177543,
				"y": 0.9165414568,
				"z": -1.8437577716,
				"element": "F" 
			},
			{
				"x": 0.7566705098,
				"y": -0.4174578881,
				"z": -2.083697056,
				"element": "C" 
			},
			{
				"x": 0.5305302306,
				"y": -1.2993002442,
				"z": -0.9908305327,
				"element": "C" 
			},
			{
				"x": 0.497864428,
				"y": -2.6767042332,
				"z": -1.3152548266,
				"element": "C" 
			},
			{
				"x": 0.6495650101,
				"y": -3.1227365948,
				"z": -2.6226947325,
				"element": "C" 
			},
			{
				"x": 0.8356506064,
				"y": -2.2214321183,
				"z": -3.6760584029,
				"element": "C" 
			},
			{
				"x": 0.9852387195,
				"y": -2.6933923305,
				"z": -5.0598761474,
				"element": "C" 
			},
			{
				"x": 1.1489881586,
				"y": -1.9724286498,
				"z": -6.0294461066,
				"element": "O" 
			},
			{
				"x": 0.8892561937,
				"y": -0.8475457493,
				"z": -3.3817215003,
				"element": "C" 
			},
			{
				"x": 0.4125840161,
				"y": -0.8653926558,
				"z": 0.3144527042,
				"element": "N" 
			},
			{
				"x": -0.1598659024,
				"y": 0.4177176649,
				"z": 0.7187114187,
				"element": "C" 
			},
			{
				"x": 0.7509732922,
				"y": 1.0675444825,
				"z": 1.7719015263,
				"element": "C" 
			},
			{
				"x": 1.3334677064,
				"y": 0.1020220795,
				"z": 2.64908004,
				"element": "O" 
			},
			{
				"x": 0.5520260429,
				"y": -1.0704821272,
				"z": 2.7544521348,
				"element": "C" 
			},
			{
				"x": 0.5146213706,
				"y": -1.8261190411,
				"z": 1.412674909,
				"element": "C" 
			},
			{
				"x": 0.3325188241,
				"y": -3.4015278658,
				"z": -0.5282044288,
				"element": "H" 
			},
			{
				"x": 0.6096218484,
				"y": -4.1894172674,
				"z": -2.8300735218,
				"element": "H" 
			},
			{
				"x": 0.9377510736,
				"y": -3.800116103,
				"z": -5.1743990703,
				"element": "H" 
			},
			{
				"x": 1.0629835434,
				"y": -0.1291876251,
				"z": -4.1757102877,
				"element": "H" 
			},
			{
				"x": -0.2663815224,
				"y": 1.076870463,
				"z": -0.1368081088,
				"element": "H" 
			},
			{
				"x": -1.1683294529,
				"y": 0.2538242785,
				"z": 1.1281237587,
				"element": "H" 
			},
			{
				"x": 1.5864082029,
				"y": 1.5778639995,
				"z": 1.2825952175,
				"element": "H" 
			},
			{
				"x": 0.1764942504,
				"y": 1.8111542502,
				"z": 2.3466394741,
				"element": "H" 
			},
			{
				"x": -0.4677993631,
				"y": -0.8416826765,
				"z": 3.101783511,
				"element": "H" 
			},
			{
				"x": 1.0203007468,
				"y": -1.6999612066,
				"z": 3.5156902097,
				"element": "H" 
			},
			{
				"x": 1.4376120755,
				"y": -2.4028133182,
				"z": 1.2842943809,
				"element": "H" 
			},
			{
				"x": -0.3270683635,
				"y": -2.5402409802,
				"z": 1.426033209,
				"element": "H" 
			}
		],
		 "valence_orbital": [ 
			{
				"type": "occ",
				"energy": -0.29238,
				"method": "rhf"
			},
			{
				"type": "occ",
				"energy": -0.26377,
				"method": "rhf"
			},
			{
				"type": "occ",
				"energy": -0.25923,
				"method": "rhf"
			},
			{
				"type": "occ",
				"energy": -0.24575,
				"method": "rhf"
			},
			{
				"type": "occ",
				"energy": -0.20952,
				"method": "rhf"
			},
			{
				"type": "unocc",
				"energy": -0.05256,
				"method": "rhf"
			},
			{
				"type": "unocc",
				"energy": -0.0083,
				"method": "rhf"
			},
			{
				"type": "unocc",
				"energy": 0.04837,
				"method": "rhf"
			},
			{
				"type": "unocc",
				"energy": 0.07274,
				"method": "rhf"
			},
			{
				"type": "unocc",
				"energy": 0.0825,
				"method": "rhf"
			}
		],
		"cosmo_sigma_profile": { 
			"-0.025": 0.0,
			"-0.024": 0.0,
			"-0.023": 0.0,
			"-0.022": 0.0,
			"-0.021": 0.0,
			"-0.02": 0.0,
			"-0.019": 0.0,
			"-0.018": 0.0,
			"-0.017": 0.0,
			"-0.016": 0.0,
			"-0.015": 0.0,
			"-0.014": 0.0,
			"-0.013": 0.0,
			"-0.012": 0.0,
			"-0.011": 0.0,
			"-0.01": 0.0,
			"-0.009": 0.0,
			"-0.008": 8.82610410365e-05,
			"-0.007": 4.05515813777,
			"-0.006": 12.9993530557,
			"-0.005": 28.2001197397,
			"-0.004": 32.0160881333,
			"-0.003": 22.1142298671,
			"-0.002": 14.7704120801,
			"-0.001": 12.5415340792,
			"0.0": 13.2089378557,
			"0.001": 16.3392538509,
			"0.002": 16.4971128537,
			"0.003": 15.9624777001,
			"0.004": 13.5299015376,
			"0.005": 4.88835911491,
			"0.006": 3.25834711033,
			"0.007": 2.69621088841,
			"0.008": 2.56317112477,
			"0.009": 3.35877748511,
			"0.01": 3.29430372715,
			"0.011": 4.25624505045,
			"0.012": 6.29411216333,
			"0.013": 4.103731794,
			"0.014": 0.594113356773,
			"0.015": 0.0,
			"0.016": 0.0,
			"0.017": 0.0,
			"0.018": 0.0,
			"0.019": 0.0,
			"0.02": 0.0,
			"0.021": 0.0,
			"0.022": 0.0,
			"0.023": 0.0,
			"0.024": 0.0,
			"0.025": 0.0
		}
	}
}
