{
	 "smiles": "CCC(C)(C)C1=CC=C(O)C=C1", 
	 "Tm": 368.15, 
	 "num_atms": 28, 
	 "gaussian": { 
		 "optdone": 1, 
		 "sigma_profile": "yes", 
		 "theory": "DFT", 
		 "functional": "B3LYP", 
		 "basiset": "6-31G**", 
		 "properties": { 
			 "R2extent": 3058.9442, 
			 "electric_dipole_moment_norm": 1.35498349067, 
			 "electric_quadrupole_moment_norm": 10.2216731052, 
			 "total_energy": -504.048952627, 
			 "HOMO_LUMO_gap": 0.21286, 
			 "cosmo_polarized_energy": -7.8, 
			 "cosmo_cavitation_energy": 28.94, 
			 "cosmo_dispersion_energy": -20.56, 
			 "cosmo_repulsion_energy": 1.63, 
			 "cosmo_total_nonelectrostatic_energy": 10.01, 
			 "SMD_solvation_energy": 5.39 
		},
		"coords": [
			{
				"x": -1.5455647063,
				"y": -2.2883657986,
				"z": -0.5398309701,
				"element": "C" 
			},
			{
				"x": -0.9394284553,
				"y": -1.6072895353,
				"z": -1.7715280247,
				"element": "C" 
			},
			{
				"x": -0.1399041771,
				"y": -0.2966995418,
				"z": -1.5049843567,
				"element": "C" 
			},
			{
				"x": 0.3887233772,
				"y": 0.2283317163,
				"z": -2.8623264925,
				"element": "C" 
			},
			{
				"x": -1.0888559292,
				"y": 0.7738471344,
				"z": -0.9314110969,
				"element": "C" 
			},
			{
				"x": 1.0545167721,
				"y": -0.5760600476,
				"z": -0.5738272165,
				"element": "C" 
			},
			{
				"x": 2.0320543543,
				"y": -1.5147711115,
				"z": -0.9428065052,
				"element": "C" 
			},
			{
				"x": 3.1345897405,
				"y": -1.7905326275,
				"z": -0.1367889357,
				"element": "C" 
			},
			{
				"x": 3.2943965158,
				"y": -1.122413365,
				"z": 1.0813385984,
				"element": "C" 
			},
			{
				"x": 4.3535128156,
				"y": -1.3456043768,
				"z": 1.9180347357,
				"element": "O" 
			},
			{
				"x": 2.3386084612,
				"y": -0.1840460097,
				"z": 1.4736505907,
				"element": "C" 
			},
			{
				"x": 1.2408726312,
				"y": 0.0771066614,
				"z": 0.6541942868,
				"element": "C" 
			},
			{
				"x": -0.7762341834,
				"y": -2.5293781075,
				"z": 0.2001969674,
				"element": "H" 
			},
			{
				"x": -2.2952900794,
				"y": -1.659042888,
				"z": -0.0498625073,
				"element": "H" 
			},
			{
				"x": -2.0412584615,
				"y": -3.2224998596,
				"z": -0.8241764944,
				"element": "H" 
			},
			{
				"x": -1.7384876018,
				"y": -1.3725383847,
				"z": -2.4879020948,
				"element": "H" 
			},
			{
				"x": -0.2816545475,
				"y": -2.3210077088,
				"z": -2.2828209819,
				"element": "H" 
			},
			{
				"x": 1.0406433117,
				"y": -0.5003731156,
				"z": -3.3538178239,
				"element": "H" 
			},
			{
				"x": -0.4436518331,
				"y": 0.4420254356,
				"z": -3.5429063386,
				"element": "H" 
			},
			{
				"x": 0.9627400483,
				"y": 1.1508520128,
				"z": -2.7273150113,
				"element": "H" 
			},
			{
				"x": -1.5022583529,
				"y": 0.4923304422,
				"z": 0.0411211584,
				"element": "H" 
			},
			{
				"x": -1.9295544306,
				"y": 0.9267020961,
				"z": -1.6165207491,
				"element": "H" 
			},
			{
				"x": -0.5807614274,
				"y": 1.7367045614,
				"z": -0.8143932614,
				"element": "H" 
			},
			{
				"x": 1.9404060658,
				"y": -2.0506839829,
				"z": -1.8831189228,
				"element": "H" 
			},
			{
				"x": 3.8714845155,
				"y": -2.5252961798,
				"z": -0.4564501635,
				"element": "H" 
			},
			{
				"x": 4.9301660505,
				"y": -2.0124467295,
				"z": 1.523569335,
				"element": "H" 
			},
			{
				"x": 2.4658020657,
				"y": 0.3320336207,
				"z": 2.4198281141,
				"element": "H" 
			},
			{
				"x": 0.5201874602,
				"y": 0.8125156895,
				"z": 0.9933541609,
				"element": "H" 
			}
		],
		 "valence_orbital": [ 
			{
				"type": "occ",
				"energy": -0.31591,
				"method": "rhf"
			},
			{
				"type": "occ",
				"energy": -0.30949,
				"method": "rhf"
			},
			{
				"type": "occ",
				"energy": -0.30395,
				"method": "rhf"
			},
			{
				"type": "occ",
				"energy": -0.24631,
				"method": "rhf"
			},
			{
				"type": "occ",
				"energy": -0.21148,
				"method": "rhf"
			},
			{
				"type": "unocc",
				"energy": 0.00138,
				"method": "rhf"
			},
			{
				"type": "unocc",
				"energy": 0.0185,
				"method": "rhf"
			},
			{
				"type": "unocc",
				"energy": 0.07362,
				"method": "rhf"
			},
			{
				"type": "unocc",
				"energy": 0.08201,
				"method": "rhf"
			},
			{
				"type": "unocc",
				"energy": 0.11006,
				"method": "rhf"
			}
		],
		"cosmo_sigma_profile": { 
			"-0.025": 0.0,
			"-0.024": 0.0,
			"-0.023": 0.0,
			"-0.022": 0.0,
			"-0.021": 0.0,
			"-0.02": 0.0,
			"-0.019": 0.0,
			"-0.018": 0.0949251986751,
			"-0.017": 0.942427444659,
			"-0.016": 1.42555460543,
			"-0.015": 0.790552239844,
			"-0.014": 0.732320949903,
			"-0.013": 1.11461771399,
			"-0.012": 0.966118734594,
			"-0.011": 0.83029353995,
			"-0.01": 1.39412334716,
			"-0.009": 1.11826250065,
			"-0.008": 0.842585575571,
			"-0.007": 1.16678414148,
			"-0.006": 2.17201837247,
			"-0.005": 6.63555567895,
			"-0.004": 9.10921206152,
			"-0.003": 16.9286588262,
			"-0.002": 28.9110186793,
			"-0.001": 23.8224109177,
			"0.0": 25.8607410069,
			"0.001": 28.3054502837,
			"0.002": 22.589523196,
			"0.003": 8.92059956812,
			"0.004": 10.4452919875,
			"0.005": 9.94320172708,
			"0.006": 9.76660018825,
			"0.007": 3.02068294141,
			"0.008": 1.27636282771,
			"0.009": 1.42016112559,
			"0.01": 1.55205118055,
			"0.011": 1.89190223495,
			"0.012": 1.50779304127,
			"0.013": 0.00913353891709,
			"0.014": 0.0,
			"0.015": 0.0,
			"0.016": 0.0,
			"0.017": 0.0,
			"0.018": 0.0,
			"0.019": 0.0,
			"0.02": 0.0,
			"0.021": 0.0,
			"0.022": 0.0,
			"0.023": 0.0,
			"0.024": 0.0,
			"0.025": 0.0
		}
	}
}
