{
	 "smiles": "NC1=C(N)C=C(F)C(F)=C1", 
	 "Tm": 401.15, 
	 "num_atms": 16, 
	 "gaussian": { 
		 "optdone": 1, 
		 "sigma_profile": "yes", 
		 "theory": "DFT", 
		 "functional": "B3LYP", 
		 "basiset": "6-31G**", 
		 "properties": { 
			 "R2extent": 1970.2423, 
			 "electric_dipole_moment_norm": 4.20437966649, 
			 "electric_quadrupole_moment_norm": 10.2861281968, 
			 "total_energy": -541.41638254, 
			 "HOMO_LUMO_gap": 0.19179, 
			 "cosmo_polarized_energy": -11.31, 
			 "cosmo_cavitation_energy": 20.98, 
			 "cosmo_dispersion_energy": -15.5, 
			 "cosmo_repulsion_energy": 1.23, 
			 "cosmo_total_nonelectrostatic_energy": 6.71, 
			 "SMD_solvation_energy": 4.71 
		},
		"coords": [
			{
				"x": 1.3154707184,
				"y": -1.1811052548,
				"z": -1.311141402,
				"element": "N" 
			},
			{
				"x": 0.326949192,
				"y": -0.2276195047,
				"z": -1.1013632475,
				"element": "C" 
			},
			{
				"x": -1.031833233,
				"y": -0.5591092799,
				"z": -1.3264573285,
				"element": "C" 
			},
			{
				"x": -1.3359527785,
				"y": -1.9059271189,
				"z": -1.6908509567,
				"element": "N" 
			},
			{
				"x": -2.0108009685,
				"y": 0.4311621995,
				"z": -1.2161209605,
				"element": "C" 
			},
			{
				"x": -1.6681239202,
				"y": 1.7329466775,
				"z": -0.8716140185,
				"element": "C" 
			},
			{
				"x": -2.618265737,
				"y": 2.68572519,
				"z": -0.7658350648,
				"element": "F" 
			},
			{
				"x": -0.3400345626,
				"y": 2.0477761849,
				"z": -0.6083963222,
				"element": "C" 
			},
			{
				"x": -0.0154706061,
				"y": 3.3071187524,
				"z": -0.2557270422,
				"element": "F" 
			},
			{
				"x": 0.6520079692,
				"y": 1.0837894926,
				"z": -0.7242742187,
				"element": "C" 
			},
			{
				"x": 2.1359451965,
				"y": -1.1447663041,
				"z": -0.7271902352,
				"element": "H" 
			},
			{
				"x": 0.984051011,
				"y": -2.1059356559,
				"z": -1.5386932245,
				"element": "H" 
			},
			{
				"x": -1.2801225415,
				"y": -2.5323702262,
				"z": -0.8898385557,
				"element": "H" 
			},
			{
				"x": -2.2692433592,
				"y": -1.9857874923,
				"z": -2.0794832445,
				"element": "H" 
			},
			{
				"x": -3.0582647269,
				"y": 0.195808567,
				"z": -1.3793362632,
				"element": "H" 
			},
			{
				"x": 1.6835883464,
				"y": 1.374193773,
				"z": -0.5541779152,
				"element": "H" 
			}
		],
		 "valence_orbital": [ 
			{
				"type": "occ",
				"energy": -0.34935,
				"method": "rhf"
			},
			{
				"type": "occ",
				"energy": -0.30311,
				"method": "rhf"
			},
			{
				"type": "occ",
				"energy": -0.28545,
				"method": "rhf"
			},
			{
				"type": "occ",
				"energy": -0.23335,
				"method": "rhf"
			},
			{
				"type": "occ",
				"energy": -0.19113,
				"method": "rhf"
			},
			{
				"type": "unocc",
				"energy": 0.00066,
				"method": "rhf"
			},
			{
				"type": "unocc",
				"energy": 0.02381,
				"method": "rhf"
			},
			{
				"type": "unocc",
				"energy": 0.06708,
				"method": "rhf"
			},
			{
				"type": "unocc",
				"energy": 0.08052,
				"method": "rhf"
			},
			{
				"type": "unocc",
				"energy": 0.09942,
				"method": "rhf"
			}
		],
		"cosmo_sigma_profile": { 
			"-0.025": 0.0,
			"-0.024": 0.0,
			"-0.023": 0.0,
			"-0.022": 0.0,
			"-0.021": 0.0,
			"-0.02": 0.0,
			"-0.019": 0.0,
			"-0.018": 0.0,
			"-0.017": 0.0,
			"-0.016": 0.0,
			"-0.015": 0.0,
			"-0.014": 0.0,
			"-0.013": 0.501939060874,
			"-0.012": 2.21393124661,
			"-0.011": 4.5958480635,
			"-0.01": 5.49141835097,
			"-0.009": 6.11971568319,
			"-0.008": 6.53666245377,
			"-0.007": 7.09673025165,
			"-0.006": 7.08384892597,
			"-0.005": 4.55224262009,
			"-0.004": 5.51691932022,
			"-0.003": 4.58191583916,
			"-0.002": 4.21550481561,
			"-0.001": 3.61654119657,
			"0.0": 7.15576885924,
			"0.001": 10.1275194538,
			"0.002": 14.8986674671,
			"0.003": 13.9464514542,
			"0.004": 27.0972753973,
			"0.005": 17.4567414096,
			"0.006": 2.72626701619,
			"0.007": 1.93056732793,
			"0.008": 1.55236953361,
			"0.009": 1.65800904527,
			"0.01": 1.6417603023,
			"0.011": 1.51254377064,
			"0.012": 1.04973881894,
			"0.013": 0.950987046853,
			"0.014": 0.938072219479,
			"0.015": 0.0321144503789,
			"0.016": 0.0,
			"0.017": 0.0,
			"0.018": 0.0,
			"0.019": 0.0,
			"0.02": 0.0,
			"0.021": 0.0,
			"0.022": 0.0,
			"0.023": 0.0,
			"0.024": 0.0,
			"0.025": 0.0
		}
	}
}
