{
	 "smiles": "CN(CC(O)=O)C(=O)C1=CC=C(Br)O1", 
	 "Tm": 384.15, 
	 "num_atms": 22, 
	 "gaussian": { 
		 "optdone": 1, 
		 "sigma_profile": "yes", 
		 "theory": "DFT", 
		 "functional": "B3LYP", 
		 "basiset": "6-31G**", 
		 "properties": { 
			 "R2extent": 4995.0085, 
			 "electric_dipole_moment_norm": 3.18915392228, 
			 "electric_quadrupole_moment_norm": 22.8872023915, 
			 "total_energy": -3236.70271345, 
			 "HOMO_LUMO_gap": 0.18729, 
			 "cosmo_polarized_energy": -16.98, 
			 "cosmo_cavitation_energy": 29.66, 
			 "cosmo_dispersion_energy": -20.83, 
			 "cosmo_repulsion_energy": 1.65, 
			 "cosmo_total_nonelectrostatic_energy": 10.48, 
			 "SMD_solvation_energy": 6.87 
		},
		"coords": [
			{
				"x": 0.9175514383,
				"y": 2.3922569908,
				"z": -0.3832426136,
				"element": "C" 
			},
			{
				"x": 0.3354098317,
				"y": 1.0487607815,
				"z": -0.2797928562,
				"element": "N" 
			},
			{
				"x": -0.9406986952,
				"y": 0.8798216241,
				"z": -0.9805772941,
				"element": "C" 
			},
			{
				"x": -0.7961810652,
				"y": 0.4784194849,
				"z": -2.4567981142,
				"element": "C" 
			},
			{
				"x": 0.4280146439,
				"y": 0.0536407462,
				"z": -2.8213194302,
				"element": "O" 
			},
			{
				"x": -1.7221630048,
				"y": 0.5342478848,
				"z": -3.2262310163,
				"element": "O" 
			},
			{
				"x": 0.6846683287,
				"y": 0.323618983,
				"z": 0.8593352222,
				"element": "C" 
			},
			{
				"x": 1.4157932002,
				"y": 0.7898700509,
				"z": 1.7257837849,
				"element": "O" 
			},
			{
				"x": 0.2329200709,
				"y": -1.0751903058,
				"z": 0.9869883399,
				"element": "C" 
			},
			{
				"x": 0.3196000111,
				"y": -1.9075988404,
				"z": 2.0696845455,
				"element": "C" 
			},
			{
				"x": -0.1743414363,
				"y": -3.1794754514,
				"z": 1.658840871,
				"element": "C" 
			},
			{
				"x": -0.5187239514,
				"y": -3.0310516515,
				"z": 0.3453463792,
				"element": "C" 
			},
			{
				"x": -1.2260504005,
				"y": -4.2293528728,
				"z": -0.8947443075,
				"element": "Br" 
			},
			{
				"x": -0.2838989061,
				"y": -1.7702115784,
				"z": -0.0895411604,
				"element": "O" 
			},
			{
				"x": 0.9436845268,
				"y": 2.6840655402,
				"z": -1.4363689469,
				"element": "H" 
			},
			{
				"x": 0.3292514609,
				"y": 3.1288743974,
				"z": 0.1777905009,
				"element": "H" 
			},
			{
				"x": 1.9277004092,
				"y": 2.378867618,
				"z": 0.0226517333,
				"element": "H" 
			},
			{
				"x": -1.5532749799,
				"y": 0.119495429,
				"z": -0.4963689846,
				"element": "H" 
			},
			{
				"x": -1.5104487603,
				"y": 1.8146325575,
				"z": -0.9512722363,
				"element": "H" 
			},
			{
				"x": 0.9929221749,
				"y": 0.0749151558,
				"z": -2.0276623318,
				"element": "H" 
			},
			{
				"x": 0.7029926859,
				"y": -1.6259442605,
				"z": 3.0389466215,
				"element": "H" 
			},
			{
				"x": -0.261427583,
				"y": -4.0819622832,
				"z": 2.2437512939,
				"element": "H" 
			}
		],
		 "valence_orbital": [ 
			{
				"type": "occ",
				"energy": -0.31277,
				"method": "rhf"
			},
			{
				"type": "occ",
				"energy": -0.29371,
				"method": "rhf"
			},
			{
				"type": "occ",
				"energy": -0.28615,
				"method": "rhf"
			},
			{
				"type": "occ",
				"energy": -0.25724,
				"method": "rhf"
			},
			{
				"type": "occ",
				"energy": -0.24771,
				"method": "rhf"
			},
			{
				"type": "unocc",
				"energy": -0.06042,
				"method": "rhf"
			},
			{
				"type": "unocc",
				"energy": -0.00813,
				"method": "rhf"
			},
			{
				"type": "unocc",
				"energy": 0.00782,
				"method": "rhf"
			},
			{
				"type": "unocc",
				"energy": 0.01615,
				"method": "rhf"
			},
			{
				"type": "unocc",
				"energy": 0.06778,
				"method": "rhf"
			}
		],
		"cosmo_sigma_profile": { 
			"-0.025": 0.0,
			"-0.024": 0.0,
			"-0.023": 0.0,
			"-0.022": 0.0,
			"-0.021": 0.0,
			"-0.02": 0.0,
			"-0.019": 0.0,
			"-0.018": 0.0,
			"-0.017": 0.0,
			"-0.016": 0.0,
			"-0.015": 0.258765618963,
			"-0.014": 0.753257385493,
			"-0.013": 0.968023314221,
			"-0.012": 0.615313440954,
			"-0.011": 1.39589654332,
			"-0.01": 1.00365798109,
			"-0.009": 3.18443661933,
			"-0.008": 9.55250690723,
			"-0.007": 12.4106171132,
			"-0.006": 15.1044905368,
			"-0.005": 15.6835451013,
			"-0.004": 14.9790903272,
			"-0.003": 15.3972350342,
			"-0.002": 14.7437885866,
			"-0.001": 15.0124523893,
			"0.0": 17.9472097531,
			"0.001": 16.6519790522,
			"0.002": 21.9296700079,
			"0.003": 10.9243750228,
			"0.004": 4.33170836306,
			"0.005": 2.91870468273,
			"0.006": 4.17686814741,
			"0.007": 3.76071202917,
			"0.008": 4.38571497659,
			"0.009": 5.2722665075,
			"0.01": 6.41512041342,
			"0.011": 6.9529175715,
			"0.012": 9.91168597806,
			"0.013": 3.91093855386,
			"0.014": 0.00437799045527,
			"0.015": 0.0,
			"0.016": 0.0,
			"0.017": 0.0,
			"0.018": 0.0,
			"0.019": 0.0,
			"0.02": 0.0,
			"0.021": 0.0,
			"0.022": 0.0,
			"0.023": 0.0,
			"0.024": 0.0,
			"0.025": 0.0
		}
	}
}
