{
	 "smiles": "C1OC1C1CO1", 
	 "Tm": 277.15, 
	 "num_atms": 12, 
	 "gaussian": { 
		 "optdone": 1, 
		 "sigma_profile": "yes", 
		 "theory": "DFT", 
		 "functional": "B3LYP", 
		 "basiset": "6-31G**", 
		 "properties": { 
			 "R2extent": 816.831, 
			 "electric_dipole_moment_norm": 1.45310390888, 
			 "electric_quadrupole_moment_norm": 9.2637730105, 
			 "total_energy": -306.383928517, 
			 "HOMO_LUMO_gap": 0.35133, 
			 "cosmo_polarized_energy": -7.63, 
			 "cosmo_cavitation_energy": 15.64, 
			 "cosmo_dispersion_energy": -11.71, 
			 "cosmo_repulsion_energy": 1.02, 
			 "cosmo_total_nonelectrostatic_energy": 4.95, 
			 "SMD_solvation_energy": 2.86 
		},
		"coords": [
			{
				"x": -1.755853191,
				"y": -0.826778142,
				"z": -1.2674374251,
				"element": "C" 
			},
			{
				"x": -0.5694065867,
				"y": -1.1156335647,
				"z": -2.0157091622,
				"element": "O" 
			},
			{
				"x": -0.9019792007,
				"y": 0.2574404329,
				"z": -1.7758338489,
				"element": "C" 
			},
			{
				"x": 0.0676822247,
				"y": 1.0157705313,
				"z": -0.9159160336,
				"element": "C" 
			},
			{
				"x": -0.16692902,
				"y": 1.3009947507,
				"z": 0.5077158594,
				"element": "C" 
			},
			{
				"x": -0.3712700475,
				"y": 2.3107308813,
				"z": -0.4871099699,
				"element": "O" 
			},
			{
				"x": -2.6957651967,
				"y": -1.05015012,
				"z": -1.7722242771,
				"element": "H" 
			},
			{
				"x": -1.7182201642,
				"y": -1.0971090424,
				"z": -0.2129661662,
				"element": "H" 
			},
			{
				"x": -1.2348570927,
				"y": 0.8034241194,
				"z": -2.6615215132,
				"element": "H" 
			},
			{
				"x": 1.1000146493,
				"y": 0.9831668745,
				"z": -1.2716880011,
				"element": "H" 
			},
			{
				"x": 0.6843113313,
				"y": 1.459226594,
				"z": 1.1699053011,
				"element": "H" 
			},
			{
				"x": -1.0714277057,
				"y": 0.9351166848,
				"z": 0.9918852369,
				"element": "H" 
			}
		],
		 "valence_orbital": [ 
			{
				"type": "occ",
				"energy": -0.38339,
				"method": "rhf"
			},
			{
				"type": "occ",
				"energy": -0.33067,
				"method": "rhf"
			},
			{
				"type": "occ",
				"energy": -0.30693,
				"method": "rhf"
			},
			{
				"type": "occ",
				"energy": -0.27984,
				"method": "rhf"
			},
			{
				"type": "occ",
				"energy": -0.26949,
				"method": "rhf"
			},
			{
				"type": "unocc",
				"energy": 0.08184,
				"method": "rhf"
			},
			{
				"type": "unocc",
				"energy": 0.08301,
				"method": "rhf"
			},
			{
				"type": "unocc",
				"energy": 0.09646,
				"method": "rhf"
			},
			{
				"type": "unocc",
				"energy": 0.1052,
				"method": "rhf"
			},
			{
				"type": "unocc",
				"energy": 0.12271,
				"method": "rhf"
			}
		],
		"cosmo_sigma_profile": { 
			"-0.025": 0.0,
			"-0.024": 0.0,
			"-0.023": 0.0,
			"-0.022": 0.0,
			"-0.021": 0.0,
			"-0.02": 0.0,
			"-0.019": 0.0,
			"-0.018": 0.0,
			"-0.017": 0.0,
			"-0.016": 0.0,
			"-0.015": 0.0,
			"-0.014": 0.0,
			"-0.013": 0.0,
			"-0.012": 0.0,
			"-0.011": 0.0,
			"-0.01": 0.0,
			"-0.009": 0.0,
			"-0.008": 0.00272318303274,
			"-0.007": 7.23759988786,
			"-0.006": 14.2261068735,
			"-0.005": 13.7394388795,
			"-0.004": 13.4796699947,
			"-0.003": 10.8562926225,
			"-0.002": 7.79359334515,
			"-0.001": 7.07148880646,
			"0.0": 5.06953170545,
			"0.001": 4.16156765354,
			"0.002": 3.0503235964,
			"0.003": 2.9337322896,
			"0.004": 3.40808070237,
			"0.005": 1.92254293659,
			"0.006": 3.72473038223,
			"0.007": 3.88391193687,
			"0.008": 1.29340731394,
			"0.009": 3.38326010096,
			"0.01": 5.29767073019,
			"0.011": 6.63436411724,
			"0.012": 4.1726000039,
			"0.013": 0.307777474966,
			"0.014": 0.0,
			"0.015": 0.0,
			"0.016": 0.0,
			"0.017": 0.0,
			"0.018": 0.0,
			"0.019": 0.0,
			"0.02": 0.0,
			"0.021": 0.0,
			"0.022": 0.0,
			"0.023": 0.0,
			"0.024": 0.0,
			"0.025": 0.0
		}
	}
}
