{
	 "smiles": "CC1=C(C)C=C(C=C1)C1=NN(CC2=CC=CC=C2)C=C1C(O)=O", 
	 "Tm": 429.15, 
	 "num_atms": 41, 
	 "gaussian": { 
		 "optdone": 1, 
		 "sigma_profile": "yes", 
		 "theory": "DFT", 
		 "functional": "B3LYP", 
		 "basiset": "6-31G**", 
		 "properties": { 
			 "R2extent": 10196.0167, 
			 "electric_dipole_moment_norm": 1.83181806957, 
			 "electric_quadrupole_moment_norm": 19.1418720221, 
			 "total_energy": -994.84172604, 
			 "HOMO_LUMO_gap": 0.1905, 
			 "cosmo_polarized_energy": -16.16, 
			 "cosmo_cavitation_energy": 45.52, 
			 "cosmo_dispersion_energy": -31.4, 
			 "cosmo_repulsion_energy": 2.4, 
			 "cosmo_total_nonelectrostatic_energy": 16.52, 
			 "SMD_solvation_energy": 8.03 
		},
		"coords": [
			{
				"x": -1.1080355855,
				"y": -0.1495266336,
				"z": 4.9120342925,
				"element": "C" 
			},
			{
				"x": -1.0013200498,
				"y": -0.1830007702,
				"z": 3.4066124935,
				"element": "C" 
			},
			{
				"x": -0.1284608014,
				"y": 0.6890622443,
				"z": 2.7198695942,
				"element": "C" 
			},
			{
				"x": 0.7247454884,
				"y": 1.6821214104,
				"z": 3.473644333,
				"element": "C" 
			},
			{
				"x": -0.058516733,
				"y": 0.622808003,
				"z": 1.3274356328,
				"element": "C" 
			},
			{
				"x": -0.8253211992,
				"y": -0.2880598943,
				"z": 0.5828333312,
				"element": "C" 
			},
			{
				"x": -1.6930401061,
				"y": -1.1424902939,
				"z": 1.2725447402,
				"element": "C" 
			},
			{
				"x": -1.7706652732,
				"y": -1.0832502163,
				"z": 2.6622803972,
				"element": "C" 
			},
			{
				"x": -0.7395557368,
				"y": -0.2657806606,
				"z": -0.8925194883,
				"element": "C" 
			},
			{
				"x": -0.6013742363,
				"y": 0.9188015486,
				"z": -1.4994297755,
				"element": "N" 
			},
			{
				"x": -0.5729300116,
				"y": 0.6555742467,
				"z": -2.8304036201,
				"element": "N" 
			},
			{
				"x": -0.3732976832,
				"y": 1.7525974519,
				"z": -3.7764469676,
				"element": "C" 
			},
			{
				"x": 1.0781651852,
				"y": 1.9625510893,
				"z": -4.1667110294,
				"element": "C" 
			},
			{
				"x": 2.0429260608,
				"y": 2.2405158701,
				"z": -3.188617786,
				"element": "C" 
			},
			{
				"x": 3.3728583586,
				"y": 2.4453224537,
				"z": -3.5514563998,
				"element": "C" 
			},
			{
				"x": 3.7537815298,
				"y": 2.381099874,
				"z": -4.8949701461,
				"element": "C" 
			},
			{
				"x": 2.7982717448,
				"y": 2.107839444,
				"z": -5.8733015803,
				"element": "C" 
			},
			{
				"x": 1.4663753848,
				"y": 1.8967618965,
				"z": -5.5083582457,
				"element": "C" 
			},
			{
				"x": -0.683452837,
				"y": -0.6577054734,
				"z": -3.093428407,
				"element": "C" 
			},
			{
				"x": -0.7945992892,
				"y": -1.3132052485,
				"z": -1.8728315111,
				"element": "C" 
			},
			{
				"x": -0.8580864709,
				"y": -2.7776687113,
				"z": -1.8264309362,
				"element": "C" 
			},
			{
				"x": -0.8026505821,
				"y": -3.3071144972,
				"z": -0.5798336233,
				"element": "O" 
			},
			{
				"x": -0.931727705,
				"y": -3.4847182835,
				"z": -2.8169279987,
				"element": "O" 
			},
			{
				"x": -1.8313575476,
				"y": -0.8857424184,
				"z": 5.2725292275,
				"element": "H" 
			},
			{
				"x": -0.1452380466,
				"y": -0.3647983863,
				"z": 5.3919564069,
				"element": "H" 
			},
			{
				"x": -1.4250713092,
				"y": 0.8359768088,
				"z": 5.2750453229,
				"element": "H" 
			},
			{
				"x": 0.1136596758,
				"y": 2.3776548985,
				"z": 4.0620211178,
				"element": "H" 
			},
			{
				"x": 1.3366570006,
				"y": 2.2749001824,
				"z": 2.7887848709,
				"element": "H" 
			},
			{
				"x": 1.4005922813,
				"y": 1.1837205525,
				"z": 4.1795700204,
				"element": "H" 
			},
			{
				"x": 0.608188307,
				"y": 1.2947579915,
				"z": 0.7957981919,
				"element": "H" 
			},
			{
				"x": -2.3074451407,
				"y": -1.848582964,
				"z": 0.7278010691,
				"element": "H" 
			},
			{
				"x": -2.452165909,
				"y": -1.7510097205,
				"z": 3.1838831424,
				"element": "H" 
			},
			{
				"x": -0.782226717,
				"y": 2.6396507406,
				"z": -3.2858758274,
				"element": "H" 
			},
			{
				"x": -0.9796396949,
				"y": 1.5472945192,
				"z": -4.6629873504,
				"element": "H" 
			},
			{
				"x": 1.7440081468,
				"y": 2.2858925555,
				"z": -2.1453199466,
				"element": "H" 
			},
			{
				"x": 4.1137818256,
				"y": 2.6578886496,
				"z": -2.7860749222,
				"element": "H" 
			},
			{
				"x": 4.7905063621,
				"y": 2.5429006004,
				"z": -5.1756227523,
				"element": "H" 
			},
			{
				"x": 3.0867873212,
				"y": 2.0540034714,
				"z": -6.9190808763,
				"element": "H" 
			},
			{
				"x": 0.7246073798,
				"y": 1.6810787809,
				"z": -6.2739195897,
				"element": "H" 
			},
			{
				"x": -0.6652271932,
				"y": -1.0648068874,
				"z": -4.0931958083,
				"element": "H" 
			},
			{
				"x": -0.8316061941,
				"y": -4.2697142243,
				"z": -0.7097995962,
				"element": "H" 
			}
		],
		 "valence_orbital": [ 
			{
				"type": "occ",
				"energy": -0.25785,
				"method": "rhf"
			},
			{
				"type": "occ",
				"energy": -0.25411,
				"method": "rhf"
			},
			{
				"type": "occ",
				"energy": -0.25216,
				"method": "rhf"
			},
			{
				"type": "occ",
				"energy": -0.23375,
				"method": "rhf"
			},
			{
				"type": "occ",
				"energy": -0.21579,
				"method": "rhf"
			},
			{
				"type": "unocc",
				"energy": -0.02529,
				"method": "rhf"
			},
			{
				"type": "unocc",
				"energy": -0.01644,
				"method": "rhf"
			},
			{
				"type": "unocc",
				"energy": -0.0092,
				"method": "rhf"
			},
			{
				"type": "unocc",
				"energy": -0.00329,
				"method": "rhf"
			},
			{
				"type": "unocc",
				"energy": 0.01221,
				"method": "rhf"
			}
		],
		"cosmo_sigma_profile": { 
			"-0.025": 0.0,
			"-0.024": 0.0,
			"-0.023": 0.0,
			"-0.022": 0.0,
			"-0.021": 0.0,
			"-0.02": 0.0,
			"-0.019": 0.0111037787128,
			"-0.018": 0.553042465792,
			"-0.017": 1.00547921148,
			"-0.016": 0.248258285577,
			"-0.015": 1.1461369411,
			"-0.014": 1.09555536542,
			"-0.013": 0.233892251713,
			"-0.012": 0.646649057409,
			"-0.011": 0.76926933763,
			"-0.01": 1.39448795146,
			"-0.009": 3.1697694592,
			"-0.008": 4.24996930662,
			"-0.007": 7.11951247646,
			"-0.006": 11.2987037795,
			"-0.005": 17.3200565917,
			"-0.004": 34.0985991819,
			"-0.003": 32.1563971208,
			"-0.002": 27.8798415402,
			"-0.001": 28.3901073077,
			"0.0": 31.8793847076,
			"0.001": 29.0949886206,
			"0.002": 27.2961715092,
			"0.003": 19.6322986345,
			"0.004": 17.9255184682,
			"0.005": 21.3407554397,
			"0.006": 14.9328905029,
			"0.007": 5.68577895836,
			"0.008": 2.99399617903,
			"0.009": 3.77818698344,
			"0.01": 2.94499604379,
			"0.011": 3.98674541984,
			"0.012": 5.55321079804,
			"0.013": 2.15507671821,
			"0.014": 0.255186310582,
			"0.015": 0.0160341298356,
			"0.016": 0.0,
			"0.017": 0.0,
			"0.018": 0.0,
			"0.019": 0.0,
			"0.02": 0.0,
			"0.021": 0.0,
			"0.022": 0.0,
			"0.023": 0.0,
			"0.024": 0.0,
			"0.025": 0.0
		}
	}
}
