{
	 "smiles": "CC(C)(C)N1C=CN=C1S", 
	 "Tm": 466.15, 
	 "num_atms": 22, 
	 "gaussian": { 
		 "optdone": 1, 
		 "sigma_profile": "yes", 
		 "theory": "DFT", 
		 "functional": "B3LYP", 
		 "basiset": "6-31G**", 
		 "properties": { 
			 "R2extent": 1842.0894, 
			 "electric_dipole_moment_norm": 3.34001045058, 
			 "electric_quadrupole_moment_norm": 3.23924250404, 
			 "total_energy": -781.662440963, 
			 "HOMO_LUMO_gap": 0.22002, 
			 "cosmo_polarized_energy": -8.83, 
			 "cosmo_cavitation_energy": 24.89, 
			 "cosmo_dispersion_energy": -18.59, 
			 "cosmo_repulsion_energy": 1.43, 
			 "cosmo_total_nonelectrostatic_energy": 7.72, 
			 "SMD_solvation_energy": 3.14 
		},
		"coords": [
			{
				"x": -1.067358705,
				"y": -0.1513588761,
				"z": -2.3680137523,
				"element": "C" 
			},
			{
				"x": -0.0306332588,
				"y": -0.81591967,
				"z": -1.4417587422,
				"element": "C" 
			},
			{
				"x": -0.5512369843,
				"y": -2.206894838,
				"z": -1.043447715,
				"element": "C" 
			},
			{
				"x": 1.3297771215,
				"y": -0.9850711326,
				"z": -2.1454218409,
				"element": "C" 
			},
			{
				"x": 0.1460232637,
				"y": 0.0199850366,
				"z": -0.2138057668,
				"element": "N" 
			},
			{
				"x": -0.1155616446,
				"y": -0.3780763714,
				"z": 1.0961019946,
				"element": "C" 
			},
			{
				"x": 0.181806932,
				"y": 0.6911983718,
				"z": 1.8933469599,
				"element": "C" 
			},
			{
				"x": 0.6220133416,
				"y": 1.7516246274,
				"z": 1.1370147505,
				"element": "N" 
			},
			{
				"x": 0.5889308905,
				"y": 1.3210679098,
				"z": -0.1071569556,
				"element": "C" 
			},
			{
				"x": 1.077720852,
				"y": 2.3573807323,
				"z": -1.4711662911,
				"element": "S" 
			},
			{
				"x": -1.2219946244,
				"y": -0.7742146012,
				"z": -3.2545586166,
				"element": "H" 
			},
			{
				"x": -2.0256148484,
				"y": -0.0421612045,
				"z": -1.8515371884,
				"element": "H" 
			},
			{
				"x": -0.7496751935,
				"y": 0.8376354885,
				"z": -2.7047955111,
				"element": "H" 
			},
			{
				"x": 0.1511806385,
				"y": -2.7335969123,
				"z": -0.3912670303,
				"element": "H" 
			},
			{
				"x": -1.5241793049,
				"y": -2.1512059401,
				"z": -0.5470499555,
				"element": "H" 
			},
			{
				"x": -0.6745619376,
				"y": -2.8042993449,
				"z": -1.950779577,
				"element": "H" 
			},
			{
				"x": 1.7492417677,
				"y": -0.0316773349,
				"z": -2.4733684236,
				"element": "H" 
			},
			{
				"x": 1.2112136845,
				"y": -1.6209151692,
				"z": -3.0282876719,
				"element": "H" 
			},
			{
				"x": 2.0506500838,
				"y": -1.4593459846,
				"z": -1.4728586279,
				"element": "H" 
			},
			{
				"x": -0.4802740848,
				"y": -1.3615420847,
				"z": 1.3346403387,
				"element": "H" 
			},
			{
				"x": 0.1051972876,
				"y": 0.7613872294,
				"z": 2.9696088287,
				"element": "H" 
			},
			{
				"x": 1.3554347228,
				"y": 3.3858000688,
				"z": -0.6490392061,
				"element": "H" 
			}
		],
		 "valence_orbital": [ 
			{
				"type": "occ",
				"energy": -0.3399,
				"method": "rhf"
			},
			{
				"type": "occ",
				"energy": -0.28777,
				"method": "rhf"
			},
			{
				"type": "occ",
				"energy": -0.2636,
				"method": "rhf"
			},
			{
				"type": "occ",
				"energy": -0.26241,
				"method": "rhf"
			},
			{
				"type": "occ",
				"energy": -0.20161,
				"method": "rhf"
			},
			{
				"type": "unocc",
				"energy": 0.01841,
				"method": "rhf"
			},
			{
				"type": "unocc",
				"energy": 0.03331,
				"method": "rhf"
			},
			{
				"type": "unocc",
				"energy": 0.06806,
				"method": "rhf"
			},
			{
				"type": "unocc",
				"energy": 0.07306,
				"method": "rhf"
			},
			{
				"type": "unocc",
				"energy": 0.08483,
				"method": "rhf"
			}
		],
		"cosmo_sigma_profile": { 
			"-0.025": 0.0,
			"-0.024": 0.0,
			"-0.023": 0.0,
			"-0.022": 0.0,
			"-0.021": 0.0,
			"-0.02": 0.0,
			"-0.019": 0.0,
			"-0.018": 0.0,
			"-0.017": 0.0,
			"-0.016": 0.0,
			"-0.015": 0.0,
			"-0.014": 0.0,
			"-0.013": 0.0,
			"-0.012": 0.0711629917906,
			"-0.011": 0.916770824171,
			"-0.01": 1.25360010089,
			"-0.009": 1.32693000987,
			"-0.008": 1.38009675588,
			"-0.007": 3.2736370545,
			"-0.006": 4.83807931439,
			"-0.005": 8.82827082842,
			"-0.004": 21.2485268195,
			"-0.003": 19.8223874341,
			"-0.002": 19.2036458823,
			"-0.001": 21.6898745231,
			"0.0": 23.6551086465,
			"0.001": 12.6897868697,
			"0.002": 9.14326811319,
			"0.003": 8.01901907425,
			"0.004": 8.66629821079,
			"0.005": 8.35196122335,
			"0.006": 7.1908944281,
			"0.007": 4.38092292503,
			"0.008": 2.18422858087,
			"0.009": 1.52079341743,
			"0.01": 1.69204892048,
			"0.011": 0.810799646348,
			"0.012": 0.663543919344,
			"0.013": 1.419997112,
			"0.014": 1.14971288888,
			"0.015": 1.20374961747,
			"0.016": 0.573200056706,
			"0.017": 0.688179728943,
			"0.018": 0.0604848286775,
			"0.019": 0.0,
			"0.02": 0.0,
			"0.021": 0.0,
			"0.022": 0.0,
			"0.023": 0.0,
			"0.024": 0.0,
			"0.025": 0.0
		}
	}
}
