{
	 "smiles": "NC1=C(C=C(C(Cl)=C1)S(N)(=O)=O)[N+]([O-])=O", 
	 "Tm": 531.15, 
	 "num_atms": 21, 
	 "gaussian": { 
		 "optdone": 1, 
		 "sigma_profile": "yes", 
		 "theory": "DFT", 
		 "functional": "B3LYP", 
		 "basiset": "6-31G**", 
		 "properties": { 
			 "R2extent": 5129.4348, 
			 "electric_dipole_moment_norm": 2.86567167868, 
			 "electric_quadrupole_moment_norm": 29.290014562, 
			 "total_energy": -1555.61304993, 
			 "HOMO_LUMO_gap": 0.14769, 
			 "cosmo_polarized_energy": -23.36, 
			 "cosmo_cavitation_energy": 29.15, 
			 "cosmo_dispersion_energy": -22.25, 
			 "cosmo_repulsion_energy": 1.7, 
			 "cosmo_total_nonelectrostatic_energy": 8.59, 
			 "SMD_solvation_energy": 6.44 
		},
		"coords": [
			{
				"x": 0.1874810779,
				"y": -0.7603565369,
				"z": -2.1057394033,
				"element": "N" 
			},
			{
				"x": 0.2046207496,
				"y": -0.0542025931,
				"z": -0.955348591,
				"element": "C" 
			},
			{
				"x": 0.0215263564,
				"y": 1.3559684307,
				"z": -0.8813016074,
				"element": "C" 
			},
			{
				"x": 0.0513494248,
				"y": 2.0250190141,
				"z": 0.3467200398,
				"element": "C" 
			},
			{
				"x": 0.2585679229,
				"y": 1.3492986019,
				"z": 1.5351792355,
				"element": "C" 
			},
			{
				"x": 0.4427989177,
				"y": -0.0542730811,
				"z": 1.4808110141,
				"element": "C" 
			},
			{
				"x": 0.7108866873,
				"y": -0.9921516363,
				"z": 2.9237371715,
				"element": "Cl" 
			},
			{
				"x": 0.4156436825,
				"y": -0.7258129427,
				"z": 0.2757844959,
				"element": "C" 
			},
			{
				"x": 0.2933400172,
				"y": 2.2301393262,
				"z": 3.1054354361,
				"element": "S" 
			},
			{
				"x": 0.0281949963,
				"y": 3.8249496347,
				"z": 2.6180332425,
				"element": "N" 
			},
			{
				"x": -0.8693186883,
				"y": 1.8113805416,
				"z": 3.8894942251,
				"element": "O" 
			},
			{
				"x": 1.6533831458,
				"y": 2.1561115851,
				"z": 3.6408581138,
				"element": "O" 
			},
			{
				"x": -0.203576984,
				"y": 2.1673187299,
				"z": -2.0621650185,
				"element": "N" 
			},
			{
				"x": -0.2353062217,
				"y": 1.605282937,
				"z": -3.1727846925,
				"element": "O" 
			},
			{
				"x": -0.3546062474,
				"y": 3.3795767307,
				"z": -1.9222155366,
				"element": "O" 
			},
			{
				"x": 0.3236499391,
				"y": -1.7573132218,
				"z": -2.088258227,
				"element": "H" 
			},
			{
				"x": 0.0361543711,
				"y": -0.262358201,
				"z": -2.9719023158,
				"element": "H" 
			},
			{
				"x": -0.0926989527,
				"y": 3.0966743709,
				"z": 0.3509114609,
				"element": "H" 
			},
			{
				"x": 0.5599895862,
				"y": -1.8006982149,
				"z": 0.2668108976,
				"element": "H" 
			},
			{
				"x": 0.8291029504,
				"y": 4.3949725179,
				"z": 2.8753356314,
				"element": "H" 
			},
			{
				"x": -0.8341827313,
				"y": 4.1671740071,
				"z": 3.0325044279,
				"element": "H" 
			}
		],
		 "valence_orbital": [ 
			{
				"type": "occ",
				"energy": -0.30988,
				"method": "rhf"
			},
			{
				"type": "occ",
				"energy": -0.30207,
				"method": "rhf"
			},
			{
				"type": "occ",
				"energy": -0.29778,
				"method": "rhf"
			},
			{
				"type": "occ",
				"energy": -0.28231,
				"method": "rhf"
			},
			{
				"type": "occ",
				"energy": -0.24745,
				"method": "rhf"
			},
			{
				"type": "unocc",
				"energy": -0.09976,
				"method": "rhf"
			},
			{
				"type": "unocc",
				"energy": -0.03849,
				"method": "rhf"
			},
			{
				"type": "unocc",
				"energy": -0.0211,
				"method": "rhf"
			},
			{
				"type": "unocc",
				"energy": 0.00287,
				"method": "rhf"
			},
			{
				"type": "unocc",
				"energy": 0.04651,
				"method": "rhf"
			}
		],
		"cosmo_sigma_profile": { 
			"-0.025": 0.0,
			"-0.024": 0.0,
			"-0.023": 0.0,
			"-0.022": 0.0,
			"-0.021": 0.0,
			"-0.02": 0.0,
			"-0.019": 0.0,
			"-0.018": 0.0,
			"-0.017": 0.0,
			"-0.016": 0.872481781197,
			"-0.015": 4.19313135522,
			"-0.014": 4.12534363742,
			"-0.013": 3.96505906705,
			"-0.012": 4.95308170788,
			"-0.011": 4.26066927435,
			"-0.01": 4.77839324538,
			"-0.009": 4.20523157709,
			"-0.008": 4.04273211734,
			"-0.007": 4.35227151512,
			"-0.006": 5.87318732367,
			"-0.005": 7.0773322148,
			"-0.004": 8.25689128269,
			"-0.003": 11.5105850275,
			"-0.002": 19.1251388956,
			"-0.001": 22.4275044725,
			"0.0": 16.1357447673,
			"0.001": 12.1538597989,
			"0.002": 11.4076192281,
			"0.003": 10.9283765938,
			"0.004": 5.70380687091,
			"0.005": 7.13603392325,
			"0.006": 6.52144779359,
			"0.007": 9.37934082425,
			"0.008": 9.99503862088,
			"0.009": 7.15570213155,
			"0.01": 14.2456543322,
			"0.011": 9.77919175544,
			"0.012": 0.925885224971,
			"0.013": 0.0,
			"0.014": 0.0,
			"0.015": 0.0,
			"0.016": 0.0,
			"0.017": 0.0,
			"0.018": 0.0,
			"0.019": 0.0,
			"0.02": 0.0,
			"0.021": 0.0,
			"0.022": 0.0,
			"0.023": 0.0,
			"0.024": 0.0,
			"0.025": 0.0
		}
	}
}
