{
	 "smiles": "C=CCOC1=NS(=O)(=O)C2=CC=CC=C12", 
	 "Tm": 411.15, 
	 "num_atms": 24, 
	 "gaussian": { 
		 "optdone": 1, 
		 "sigma_profile": "yes", 
		 "theory": "DFT", 
		 "functional": "B3LYP", 
		 "basiset": "6-31G**", 
		 "properties": { 
			 "R2extent": 4128.087, 
			 "electric_dipole_moment_norm": 6.252076647, 
			 "electric_quadrupole_moment_norm": 26.6353796016, 
			 "total_energy": -1064.98889621, 
			 "HOMO_LUMO_gap": 0.19448, 
			 "cosmo_polarized_energy": -17.15, 
			 "cosmo_cavitation_energy": 30.54, 
			 "cosmo_dispersion_energy": -22.17, 
			 "cosmo_repulsion_energy": 1.71, 
			 "cosmo_total_nonelectrostatic_energy": 10.08, 
			 "SMD_solvation_energy": 4.6 
		},
		"coords": [
			{
				"x": 0.4565780975,
				"y": 1.0121313167,
				"z": -3.3273611634,
				"element": "C" 
			},
			{
				"x": -0.389613464,
				"y": 0.1795064573,
				"z": -2.7221201469,
				"element": "C" 
			},
			{
				"x": -1.3815781831,
				"y": 0.6214707685,
				"z": -1.6893097208,
				"element": "C" 
			},
			{
				"x": -1.1118898423,
				"y": -0.0192699138,
				"z": -0.400002303,
				"element": "O" 
			},
			{
				"x": -0.2588592841,
				"y": 0.58522663,
				"z": 0.4175046729,
				"element": "C" 
			},
			{
				"x": 0.300738297,
				"y": 1.7258547658,
				"z": 0.178766714,
				"element": "N" 
			},
			{
				"x": 1.297832015,
				"y": 2.1504250176,
				"z": 1.500259288,
				"element": "S" 
			},
			{
				"x": 0.7382333664,
				"y": 3.3267039576,
				"z": 2.1645359752,
				"element": "O" 
			},
			{
				"x": 2.6947021903,
				"y": 2.1491319435,
				"z": 1.0688073798,
				"element": "O" 
			},
			{
				"x": 0.9299753317,
				"y": 0.6581643687,
				"z": 2.4462276829,
				"element": "C" 
			},
			{
				"x": 1.3855259024,
				"y": 0.2528324271,
				"z": 3.6898051805,
				"element": "C" 
			},
			{
				"x": 0.9170883578,
				"y": -0.9753465562,
				"z": 4.17500361,
				"element": "C" 
			},
			{
				"x": 0.0257655862,
				"y": -1.7541450437,
				"z": 3.4275631125,
				"element": "C" 
			},
			{
				"x": -0.4239605119,
				"y": -1.3289024288,
				"z": 2.1735317467,
				"element": "C" 
			},
			{
				"x": 0.0431173478,
				"y": -0.1080894056,
				"z": 1.693586463,
				"element": "C" 
			},
			{
				"x": 1.1513592929,
				"y": 0.6640548007,
				"z": -4.085791691,
				"element": "H" 
			},
			{
				"x": 0.488409083,
				"y": 2.0693758767,
				"z": -3.0792394919,
				"element": "H" 
			},
			{
				"x": -0.3945435549,
				"y": -0.8811370239,
				"z": -2.9679442869,
				"element": "H" 
			},
			{
				"x": -2.3938177927,
				"y": 0.2853683044,
				"z": -1.9284089801,
				"element": "H" 
			},
			{
				"x": -1.3711511183,
				"y": 1.7043821213,
				"z": -1.5544387371,
				"element": "H" 
			},
			{
				"x": 2.0764837798,
				"y": 0.8591539667,
				"z": 4.2658472881,
				"element": "H" 
			},
			{
				"x": 1.2514293132,
				"y": -1.3276496439,
				"z": 5.1460638693,
				"element": "H" 
			},
			{
				"x": -0.320989333,
				"y": -2.7017569794,
				"z": 3.8278862441,
				"element": "H" 
			},
			{
				"x": -1.1144348766,
				"y": -1.9258857273,
				"z": 1.5877272939,
				"element": "H" 
			}
		],
		 "valence_orbital": [ 
			{
				"type": "occ",
				"energy": -0.29714,
				"method": "rhf"
			},
			{
				"type": "occ",
				"energy": -0.2918,
				"method": "rhf"
			},
			{
				"type": "occ",
				"energy": -0.27981,
				"method": "rhf"
			},
			{
				"type": "occ",
				"energy": -0.27771,
				"method": "rhf"
			},
			{
				"type": "occ",
				"energy": -0.26807,
				"method": "rhf"
			},
			{
				"type": "unocc",
				"energy": -0.07359,
				"method": "rhf"
			},
			{
				"type": "unocc",
				"energy": -0.0423,
				"method": "rhf"
			},
			{
				"type": "unocc",
				"energy": -0.00946,
				"method": "rhf"
			},
			{
				"type": "unocc",
				"energy": 0.02772,
				"method": "rhf"
			},
			{
				"type": "unocc",
				"energy": 0.05723,
				"method": "rhf"
			}
		],
		"cosmo_sigma_profile": { 
			"-0.025": 0.0,
			"-0.024": 0.0,
			"-0.023": 0.0,
			"-0.022": 0.0,
			"-0.021": 0.0,
			"-0.02": 0.0,
			"-0.019": 0.0,
			"-0.018": 0.0,
			"-0.017": 0.0,
			"-0.016": 0.0,
			"-0.015": 0.0,
			"-0.014": 0.0,
			"-0.013": 0.0,
			"-0.012": 0.0,
			"-0.011": 0.0,
			"-0.01": 0.0280107552847,
			"-0.009": 1.98872039713,
			"-0.008": 7.66426445239,
			"-0.007": 12.9048288082,
			"-0.006": 18.0467233307,
			"-0.005": 19.1433150241,
			"-0.004": 18.2102707053,
			"-0.003": 15.7302032596,
			"-0.002": 16.5748192743,
			"-0.001": 17.4719010465,
			"0.0": 17.8934011961,
			"0.001": 21.4982379244,
			"0.002": 11.3519065235,
			"0.003": 7.98877597057,
			"0.004": 7.60963052526,
			"0.005": 5.98483466152,
			"0.006": 3.94126237087,
			"0.007": 5.60827737021,
			"0.008": 6.41385674977,
			"0.009": 5.40422464344,
			"0.01": 13.20912142,
			"0.011": 10.805726924,
			"0.012": 0.205757095945,
			"0.013": 0.0,
			"0.014": 0.0,
			"0.015": 0.0,
			"0.016": 0.0,
			"0.017": 0.0,
			"0.018": 0.0,
			"0.019": 0.0,
			"0.02": 0.0,
			"0.021": 0.0,
			"0.022": 0.0,
			"0.023": 0.0,
			"0.024": 0.0,
			"0.025": 0.0
		}
	}
}
