{
	 "smiles": "BrCC1=CC=C(C=O)C=C1", 
	 "Tm": 372.65, 
	 "num_atms": 17, 
	 "gaussian": { 
		 "optdone": 1, 
		 "sigma_profile": "yes", 
		 "theory": "DFT", 
		 "functional": "B3LYP", 
		 "basiset": "6-31G**", 
		 "properties": { 
			 "R2extent": 3992.2034, 
			 "electric_dipole_moment_norm": 2.88794360402, 
			 "electric_quadrupole_moment_norm": 13.0189748805, 
			 "total_energy": -2955.69503433, 
			 "HOMO_LUMO_gap": 0.18225, 
			 "cosmo_polarized_energy": -10.17, 
			 "cosmo_cavitation_energy": 24.04, 
			 "cosmo_dispersion_energy": -17.62, 
			 "cosmo_repulsion_energy": 1.43, 
			 "cosmo_total_nonelectrostatic_energy": 7.86, 
			 "SMD_solvation_energy": 3.94 
		},
		"coords": [
			{
				"x": -2.7757810295,
				"y": 0.5694470667,
				"z": -3.5754025119,
				"element": "Br" 
			},
			{
				"x": -2.1460838356,
				"y": 1.8569571936,
				"z": -2.1758344576,
				"element": "C" 
			},
			{
				"x": -1.2944244049,
				"y": 1.1863203484,
				"z": -1.1464333917,
				"element": "C" 
			},
			{
				"x": -1.8729348744,
				"y": 0.6483169464,
				"z": 0.0118406624,
				"element": "C" 
			},
			{
				"x": -1.0764594206,
				"y": 0.0371463531,
				"z": 0.9760209778,
				"element": "C" 
			},
			{
				"x": 0.3100527842,
				"y": -0.0454183376,
				"z": 0.7960051249,
				"element": "C" 
			},
			{
				"x": 1.1541394763,
				"y": -0.6922520057,
				"z": 1.8269944043,
				"element": "C" 
			},
			{
				"x": 2.3633419784,
				"y": -0.8017733293,
				"z": 1.7582482546,
				"element": "O" 
			},
			{
				"x": 0.8937938699,
				"y": 0.4898803462,
				"z": -0.3625959714,
				"element": "C" 
			},
			{
				"x": 0.0973022718,
				"y": 1.0979735201,
				"z": -1.3232859185,
				"element": "C" 
			},
			{
				"x": -1.6078012487,
				"y": 2.6208851361,
				"z": -2.7337679693,
				"element": "H" 
			},
			{
				"x": -3.0612232479,
				"y": 2.2729558909,
				"z": -1.7586518637,
				"element": "H" 
			},
			{
				"x": -2.9486929514,
				"y": 0.7085489125,
				"z": 0.1518647199,
				"element": "H" 
			},
			{
				"x": -1.5275455185,
				"y": -0.3767251143,
				"z": 1.8748466669,
				"element": "H" 
			},
			{
				"x": 0.5933360453,
				"y": -1.0873448525,
				"z": 2.7032593352,
				"element": "H" 
			},
			{
				"x": 1.9700420523,
				"y": 0.4169715379,
				"z": -0.4819728018,
				"element": "H" 
			},
			{
				"x": 0.5478380534,
				"y": 1.5089103876,
				"z": -2.2227352601,
				"element": "H" 
			}
		],
		 "valence_orbital": [ 
			{
				"type": "occ",
				"energy": -0.28398,
				"method": "rhf"
			},
			{
				"type": "occ",
				"energy": -0.28095,
				"method": "rhf"
			},
			{
				"type": "occ",
				"energy": -0.27274,
				"method": "rhf"
			},
			{
				"type": "occ",
				"energy": -0.26351,
				"method": "rhf"
			},
			{
				"type": "occ",
				"energy": -0.26086,
				"method": "rhf"
			},
			{
				"type": "unocc",
				"energy": -0.07861,
				"method": "rhf"
			},
			{
				"type": "unocc",
				"energy": -0.02405,
				"method": "rhf"
			},
			{
				"type": "unocc",
				"energy": -0.01313,
				"method": "rhf"
			},
			{
				"type": "unocc",
				"energy": 0.04348,
				"method": "rhf"
			},
			{
				"type": "unocc",
				"energy": 0.08354,
				"method": "rhf"
			}
		],
		"cosmo_sigma_profile": { 
			"-0.025": 0.0,
			"-0.024": 0.0,
			"-0.023": 0.0,
			"-0.022": 0.0,
			"-0.021": 0.0,
			"-0.02": 0.0,
			"-0.019": 0.0,
			"-0.018": 0.0,
			"-0.017": 0.0,
			"-0.016": 0.0,
			"-0.015": 0.0,
			"-0.014": 0.0,
			"-0.013": 0.0,
			"-0.012": 0.0,
			"-0.011": 0.0,
			"-0.01": 0.0,
			"-0.009": 0.0519236955537,
			"-0.008": 7.62040677365,
			"-0.007": 14.0624846931,
			"-0.006": 13.7434449967,
			"-0.005": 13.8046973654,
			"-0.004": 11.8554637118,
			"-0.003": 10.0073395475,
			"-0.002": 10.8454181118,
			"-0.001": 9.76940373795,
			"0.0": 10.935187837,
			"0.001": 13.1454635782,
			"0.002": 15.7234820169,
			"0.003": 16.804194064,
			"0.004": 8.40184921794,
			"0.005": 8.98649277931,
			"0.006": 12.8972082452,
			"0.007": 2.98873893687,
			"0.008": 1.96347447898,
			"0.009": 1.86121544549,
			"0.01": 2.53860774854,
			"0.011": 4.37706740988,
			"0.012": 2.71630879707,
			"0.013": 0.624264769017,
			"0.014": 0.0,
			"0.015": 0.0,
			"0.016": 0.0,
			"0.017": 0.0,
			"0.018": 0.0,
			"0.019": 0.0,
			"0.02": 0.0,
			"0.021": 0.0,
			"0.022": 0.0,
			"0.023": 0.0,
			"0.024": 0.0,
			"0.025": 0.0
		}
	}
}
