{
	 "smiles": "CC1=CC(O)=CC(=O)O1", 
	 "Tm": 462.15, 
	 "num_atms": 15, 
	 "gaussian": { 
		 "optdone": 1, 
		 "sigma_profile": "yes", 
		 "theory": "DFT", 
		 "functional": "B3LYP", 
		 "basiset": "6-31G**", 
		 "properties": { 
			 "R2extent": 1374.5356, 
			 "electric_dipole_moment_norm": 4.11265808207, 
			 "electric_quadrupole_moment_norm": 13.8555118693, 
			 "total_energy": -457.919328305, 
			 "HOMO_LUMO_gap": 0.18634, 
			 "cosmo_polarized_energy": -15.08, 
			 "cosmo_cavitation_energy": 19.65, 
			 "cosmo_dispersion_energy": -14.77, 
			 "cosmo_repulsion_energy": 1.23, 
			 "cosmo_total_nonelectrostatic_energy": 6.11, 
			 "SMD_solvation_energy": 5.45 
		},
		"coords": [
			{
				"x": -0.9830255946,
				"y": -2.2322983577,
				"z": -0.4586649722,
				"element": "C" 
			},
			{
				"x": -0.6167046231,
				"y": -0.9893345622,
				"z": 0.2871895944,
				"element": "C" 
			},
			{
				"x": 0.2065075112,
				"y": -0.9274768641,
				"z": 1.3632742898,
				"element": "C" 
			},
			{
				"x": 0.4495784962,
				"y": 0.352225511,
				"z": 1.9581044326,
				"element": "C" 
			},
			{
				"x": 1.2779432932,
				"y": 0.3465552267,
				"z": 3.0258625648,
				"element": "O" 
			},
			{
				"x": -0.1352284371,
				"y": 1.4808636066,
				"z": 1.4513399973,
				"element": "C" 
			},
			{
				"x": -1.0084278748,
				"y": 1.4181556119,
				"z": 0.3108254327,
				"element": "C" 
			},
			{
				"x": -1.5887750632,
				"y": 2.3232712144,
				"z": -0.2397459823,
				"element": "O" 
			},
			{
				"x": -1.2027210307,
				"y": 0.1110783942,
				"z": -0.2274066159,
				"element": "O" 
			},
			{
				"x": -2.0681265603,
				"y": -2.3793588217,
				"z": -0.4392282882,
				"element": "H" 
			},
			{
				"x": -0.4965117577,
				"y": -3.1069477228,
				"z": -0.0232335235,
				"element": "H" 
			},
			{
				"x": -0.6873091025,
				"y": -2.144096342,
				"z": -1.5094822963,
				"element": "H" 
			},
			{
				"x": 0.67309438,
				"y": -1.8143501052,
				"z": 1.7705782895,
				"element": "H" 
			},
			{
				"x": 1.3816663171,
				"y": 1.2495108298,
				"z": 3.357989225,
				"element": "H" 
			},
			{
				"x": 0.0296400463,
				"y": 2.463402381,
				"z": 1.8798978521,
				"element": "H" 
			}
		],
		 "valence_orbital": [ 
			{
				"type": "occ",
				"energy": -0.36003,
				"method": "rhf"
			},
			{
				"type": "occ",
				"energy": -0.3474,
				"method": "rhf"
			},
			{
				"type": "occ",
				"energy": -0.28669,
				"method": "rhf"
			},
			{
				"type": "occ",
				"energy": -0.26578,
				"method": "rhf"
			},
			{
				"type": "occ",
				"energy": -0.22785,
				"method": "rhf"
			},
			{
				"type": "unocc",
				"energy": -0.04151,
				"method": "rhf"
			},
			{
				"type": "unocc",
				"energy": 0.01729,
				"method": "rhf"
			},
			{
				"type": "unocc",
				"energy": 0.05388,
				"method": "rhf"
			},
			{
				"type": "unocc",
				"energy": 0.08914,
				"method": "rhf"
			},
			{
				"type": "unocc",
				"energy": 0.11504,
				"method": "rhf"
			}
		],
		"cosmo_sigma_profile": { 
			"-0.025": 0.0,
			"-0.024": 0.0,
			"-0.023": 0.0,
			"-0.022": 0.0,
			"-0.021": 0.0,
			"-0.02": 0.0640179832262,
			"-0.019": 0.873247238015,
			"-0.018": 1.18097596158,
			"-0.017": 1.01093878257,
			"-0.016": 1.28641716326,
			"-0.015": 0.851954312055,
			"-0.014": 1.24013011904,
			"-0.013": 0.759425804111,
			"-0.012": 0.752975404462,
			"-0.011": 0.905075083796,
			"-0.01": 1.12324340435,
			"-0.009": 0.912017479564,
			"-0.008": 3.28402614012,
			"-0.007": 4.47002120161,
			"-0.006": 8.00742740372,
			"-0.005": 8.39683279871,
			"-0.004": 9.03112055737,
			"-0.003": 10.1061875392,
			"-0.002": 15.3412085292,
			"-0.001": 11.57863415,
			"0.0": 9.5815505361,
			"0.001": 11.6216502664,
			"0.002": 10.1270707858,
			"0.003": 4.15122557692,
			"0.004": 4.01808889845,
			"0.005": 3.70731821535,
			"0.006": 2.30599422299,
			"0.007": 4.09902584185,
			"0.008": 4.06242444188,
			"0.009": 3.16137499666,
			"0.01": 2.61641106302,
			"0.011": 2.7869633084,
			"0.012": 4.41977216618,
			"0.013": 6.54944631589,
			"0.014": 2.21841691825,
			"0.015": 0.0098703899077,
			"0.016": 0.0,
			"0.017": 0.0,
			"0.018": 0.0,
			"0.019": 0.0,
			"0.02": 0.0,
			"0.021": 0.0,
			"0.022": 0.0,
			"0.023": 0.0,
			"0.024": 0.0,
			"0.025": 0.0
		}
	}
}
