{
	 "smiles": "CC1=CC(Br)=C(C=C1)S(Cl)(=O)=O", 
	 "Tm": 344.15, 
	 "num_atms": 18, 
	 "gaussian": { 
		 "optdone": 1, 
		 "sigma_profile": "yes", 
		 "theory": "DFT", 
		 "functional": "B3LYP", 
		 "basiset": "6-31G**", 
		 "properties": { 
			 "R2extent": 5207.4491, 
			 "electric_dipole_moment_norm": 6.33127639738, 
			 "electric_quadrupole_moment_norm": 13.993250508, 
			 "total_energy": -3850.52096099, 
			 "HOMO_LUMO_gap": 0.17963, 
			 "cosmo_polarized_energy": -9.69, 
			 "cosmo_cavitation_energy": 27.51, 
			 "cosmo_dispersion_energy": -21.02, 
			 "cosmo_repulsion_energy": 1.62, 
			 "cosmo_total_nonelectrostatic_energy": 8.11, 
			 "SMD_solvation_energy": 2.57 
		},
		"coords": [
			{
				"x": -0.3380785022,
				"y": -2.4024135204,
				"z": 1.0085575911,
				"element": "C" 
			},
			{
				"x": -0.3943282421,
				"y": -0.9611893743,
				"z": 0.567340712,
				"element": "C" 
			},
			{
				"x": 0.7412419589,
				"y": -0.1470707341,
				"z": 0.6444878981,
				"element": "C" 
			},
			{
				"x": 0.7173846228,
				"y": 1.1814964815,
				"z": 0.2189182954,
				"element": "C" 
			},
			{
				"x": 2.3197161045,
				"y": 2.1835867013,
				"z": 0.4036168678,
				"element": "Br" 
			},
			{
				"x": -0.4739078156,
				"y": 1.7105387355,
				"z": -0.2968217926,
				"element": "C" 
			},
			{
				"x": -1.6210209063,
				"y": 0.9108048065,
				"z": -0.3693619372,
				"element": "C" 
			},
			{
				"x": -1.5778592912,
				"y": -0.4106288212,
				"z": 0.0568372719,
				"element": "C" 
			},
			{
				"x": -0.6551293097,
				"y": 3.3806401244,
				"z": -0.9348156578,
				"element": "S" 
			},
			{
				"x": -0.577896942,
				"y": 4.5372305561,
				"z": 0.8485370786,
				"element": "Cl" 
			},
			{
				"x": 0.4975121083,
				"y": 3.759070537,
				"z": -1.7381982797,
				"element": "O" 
			},
			{
				"x": -2.0149581398,
				"y": 3.5233022366,
				"z": -1.4416372758,
				"element": "O" 
			},
			{
				"x": -1.2391510851,
				"y": -2.6818210785,
				"z": 1.5628333938,
				"element": "H" 
			},
			{
				"x": -0.270005237,
				"y": -3.0698342087,
				"z": 0.1411294258,
				"element": "H" 
			},
			{
				"x": 0.5296367678,
				"y": -2.5955104263,
				"z": 1.6440382377,
				"element": "H" 
			},
			{
				"x": 1.6669737867,
				"y": -0.5456203492,
				"z": 1.0449481683,
				"element": "H" 
			},
			{
				"x": -2.5346556853,
				"y": 1.3396174413,
				"z": -0.763368975,
				"element": "H" 
			},
			{
				"x": -2.4746741927,
				"y": -1.0197991075,
				"z": -0.0069410226,
				"element": "H" 
			}
		],
		 "valence_orbital": [ 
			{
				"type": "occ",
				"energy": -0.33098,
				"method": "rhf"
			},
			{
				"type": "occ",
				"energy": -0.31139,
				"method": "rhf"
			},
			{
				"type": "occ",
				"energy": -0.29796,
				"method": "rhf"
			},
			{
				"type": "occ",
				"energy": -0.28662,
				"method": "rhf"
			},
			{
				"type": "occ",
				"energy": -0.26817,
				"method": "rhf"
			},
			{
				"type": "unocc",
				"energy": -0.08854,
				"method": "rhf"
			},
			{
				"type": "unocc",
				"energy": -0.05166,
				"method": "rhf"
			},
			{
				"type": "unocc",
				"energy": -0.04196,
				"method": "rhf"
			},
			{
				"type": "unocc",
				"energy": -0.0127,
				"method": "rhf"
			},
			{
				"type": "unocc",
				"energy": 0.05683,
				"method": "rhf"
			}
		],
		"cosmo_sigma_profile": { 
			"-0.025": 0.0,
			"-0.024": 0.0,
			"-0.023": 0.0,
			"-0.022": 0.0,
			"-0.021": 0.0,
			"-0.02": 0.0,
			"-0.019": 0.0,
			"-0.018": 0.0,
			"-0.017": 0.0,
			"-0.016": 0.0,
			"-0.015": 0.0,
			"-0.014": 0.0,
			"-0.013": 0.0,
			"-0.012": 0.0,
			"-0.011": 0.0,
			"-0.01": 0.0,
			"-0.009": 0.079919034896,
			"-0.008": 3.3153068379,
			"-0.007": 7.09641147837,
			"-0.006": 10.1524880219,
			"-0.005": 13.6688301047,
			"-0.004": 13.8445588365,
			"-0.003": 15.43787812,
			"-0.002": 19.3531159212,
			"-0.001": 23.2128255938,
			"0.0": 23.5267132404,
			"0.001": 19.4669423055,
			"0.002": 14.8793931906,
			"0.003": 22.4757851929,
			"0.004": 10.32699101,
			"0.005": 4.01080070216,
			"0.006": 4.22031126589,
			"0.007": 6.2731846779,
			"0.008": 10.9009132274,
			"0.009": 3.89494201696,
			"0.01": 0.0,
			"0.011": 0.0,
			"0.012": 0.0,
			"0.013": 0.0,
			"0.014": 0.0,
			"0.015": 0.0,
			"0.016": 0.0,
			"0.017": 0.0,
			"0.018": 0.0,
			"0.019": 0.0,
			"0.02": 0.0,
			"0.021": 0.0,
			"0.022": 0.0,
			"0.023": 0.0,
			"0.024": 0.0,
			"0.025": 0.0
		}
	}
}
