{
	 "smiles": "ClC1=NC2=C(C=CC=C2)N=C1Cl", 
	 "Tm": 425.15, 
	 "num_atms": 16, 
	 "gaussian": { 
		 "optdone": 1, 
		 "sigma_profile": "yes", 
		 "theory": "DFT", 
		 "functional": "B3LYP", 
		 "basiset": "6-31G**", 
		 "properties": { 
			 "R2extent": 4283.8088, 
			 "electric_dipole_moment_norm": 3.46265983313, 
			 "electric_quadrupole_moment_norm": 4.32070066772, 
			 "total_energy": -1337.1458887, 
			 "HOMO_LUMO_gap": 0.17232, 
			 "cosmo_polarized_energy": -6.1, 
			 "cosmo_cavitation_energy": 24.41, 
			 "cosmo_dispersion_energy": -18.77, 
			 "cosmo_repulsion_energy": 1.49, 
			 "cosmo_total_nonelectrostatic_energy": 7.13, 
			 "SMD_solvation_energy": 0.62 
		},
		"coords": [
			{
				"x": -1.2598037058,
				"y": -0.6584425995,
				"z": -4.9341631859,
				"element": "Cl" 
			},
			{
				"x": -0.8713004578,
				"y": -0.452998963,
				"z": -3.2416431215,
				"element": "C" 
			},
			{
				"x": -1.4288592164,
				"y": -1.2588418083,
				"z": -2.3905949121,
				"element": "N" 
			},
			{
				"x": -1.1325667414,
				"y": -1.1074254244,
				"z": -1.0672148866,
				"element": "C" 
			},
			{
				"x": -0.231345854,
				"y": -0.0849267698,
				"z": -0.6464676203,
				"element": "C" 
			},
			{
				"x": 0.0691820828,
				"y": 0.0634939499,
				"z": 0.7289324852,
				"element": "C" 
			},
			{
				"x": -0.5146465265,
				"y": -0.7843137969,
				"z": 1.6458530473,
				"element": "C" 
			},
			{
				"x": -1.4106252233,
				"y": -1.8008241816,
				"z": 1.2275669015,
				"element": "C" 
			},
			{
				"x": -1.7190556,
				"y": -1.965339871,
				"z": -0.1059182958,
				"element": "C" 
			},
			{
				"x": 0.3392954378,
				"y": 0.7472515932,
				"z": -1.5651103639,
				"element": "N" 
			},
			{
				"x": 0.0390185892,
				"y": 0.5798298128,
				"z": -2.8166427904,
				"element": "C" 
			},
			{
				"x": 0.777568441,
				"y": 1.6531458642,
				"z": -3.9829722697,
				"element": "Cl" 
			},
			{
				"x": 0.7575710674,
				"y": 0.8487757075,
				"z": 1.0227824552,
				"element": "H" 
			},
			{
				"x": -0.289262188,
				"y": -0.6769469732,
				"z": 2.7025042085,
				"element": "H" 
			},
			{
				"x": -1.8562894033,
				"y": -2.454741126,
				"z": 1.9709465148,
				"element": "H" 
			},
			{
				"x": -2.4010807018,
				"y": -2.7347954138,
				"z": -0.4518581663,
				"element": "H" 
			}
		],
		 "valence_orbital": [ 
			{
				"type": "occ",
				"energy": -0.32907,
				"method": "rhf"
			},
			{
				"type": "occ",
				"energy": -0.3053,
				"method": "rhf"
			},
			{
				"type": "occ",
				"energy": -0.27918,
				"method": "rhf"
			},
			{
				"type": "occ",
				"energy": -0.2646,
				"method": "rhf"
			},
			{
				"type": "occ",
				"energy": -0.26104,
				"method": "rhf"
			},
			{
				"type": "unocc",
				"energy": -0.08872,
				"method": "rhf"
			},
			{
				"type": "unocc",
				"energy": -0.04539,
				"method": "rhf"
			},
			{
				"type": "unocc",
				"energy": -0.00868,
				"method": "rhf"
			},
			{
				"type": "unocc",
				"energy": 0.00952,
				"method": "rhf"
			},
			{
				"type": "unocc",
				"energy": 0.04194,
				"method": "rhf"
			}
		],
		"cosmo_sigma_profile": { 
			"-0.025": 0.0,
			"-0.024": 0.0,
			"-0.023": 0.0,
			"-0.022": 0.0,
			"-0.021": 0.0,
			"-0.02": 0.0,
			"-0.019": 0.0,
			"-0.018": 0.0,
			"-0.017": 0.0,
			"-0.016": 0.0,
			"-0.015": 0.0,
			"-0.014": 0.0,
			"-0.013": 0.0,
			"-0.012": 0.0,
			"-0.011": 0.0,
			"-0.01": 0.0,
			"-0.009": 0.0,
			"-0.008": 1.15054478074,
			"-0.007": 8.29146676336,
			"-0.006": 10.6112833805,
			"-0.005": 12.3627401777,
			"-0.004": 11.3500768241,
			"-0.003": 12.7745766191,
			"-0.002": 13.1388496608,
			"-0.001": 15.2094777429,
			"0.0": 20.3610902171,
			"0.001": 20.6505515098,
			"0.002": 23.247750903,
			"0.003": 23.1281574095,
			"0.004": 12.1943692034,
			"0.005": 4.77348461636,
			"0.006": 3.19321474239,
			"0.007": 2.60023493164,
			"0.008": 2.05613538894,
			"0.009": 1.58435301812,
			"0.01": 1.82282535219,
			"0.011": 1.34348167694,
			"0.012": 0.649487989435,
			"0.013": 0.0,
			"0.014": 0.0,
			"0.015": 0.0,
			"0.016": 0.0,
			"0.017": 0.0,
			"0.018": 0.0,
			"0.019": 0.0,
			"0.02": 0.0,
			"0.021": 0.0,
			"0.022": 0.0,
			"0.023": 0.0,
			"0.024": 0.0,
			"0.025": 0.0
		}
	}
}
