{
	 "smiles": "NNC(=O)C(O)(C1=CC=CC=C1)C1=CC=CC=C1", 
	 "Tm": 441.15, 
	 "num_atms": 32, 
	 "gaussian": { 
		 "optdone": 1, 
		 "sigma_profile": "yes", 
		 "theory": "DFT", 
		 "functional": "B3LYP", 
		 "basiset": "6-31G**", 
		 "properties": { 
			 "R2extent": 5360.4982, 
			 "electric_dipole_moment_norm": 2.09977235671, 
			 "electric_quadrupole_moment_norm": 6.07425794316, 
			 "total_energy": -801.855023293, 
			 "HOMO_LUMO_gap": 0.22728, 
			 "cosmo_polarized_energy": -13.51, 
			 "cosmo_cavitation_energy": 35.01, 
			 "cosmo_dispersion_energy": -24.53, 
			 "cosmo_repulsion_energy": 1.92, 
			 "cosmo_total_nonelectrostatic_energy": 12.4, 
			 "SMD_solvation_energy": 6.98 
		},
		"coords": [
			{
				"x": -0.3044205077,
				"y": -3.3944857806,
				"z": 1.9293067189,
				"element": "N" 
			},
			{
				"x": 0.3457519165,
				"y": -2.1948344451,
				"z": 1.5686537132,
				"element": "N" 
			},
			{
				"x": 1.076280491,
				"y": -2.0972591077,
				"z": 0.4308391142,
				"element": "C" 
			},
			{
				"x": 1.1459757701,
				"y": -3.0086101468,
				"z": -0.3921075084,
				"element": "O" 
			},
			{
				"x": 1.8432973517,
				"y": -0.764161582,
				"z": 0.1556626031,
				"element": "C" 
			},
			{
				"x": 2.9442265085,
				"y": -1.1401670074,
				"z": -0.6533554409,
				"element": "O" 
			},
			{
				"x": 2.3946193061,
				"y": -0.1543046867,
				"z": 1.4537382352,
				"element": "C" 
			},
			{
				"x": 3.6355364861,
				"y": -0.5932963516,
				"z": 1.937786513,
				"element": "C" 
			},
			{
				"x": 4.1428419462,
				"y": -0.0992068385,
				"z": 3.13866645,
				"element": "C" 
			},
			{
				"x": 3.4184299722,
				"y": 0.837865835,
				"z": 3.8792052893,
				"element": "C" 
			},
			{
				"x": 2.1853119058,
				"y": 1.2827638535,
				"z": 3.4035124494,
				"element": "C" 
			},
			{
				"x": 1.6779164409,
				"y": 0.7946278998,
				"z": 2.1961932674,
				"element": "C" 
			},
			{
				"x": 0.9311567668,
				"y": 0.2114243294,
				"z": -0.6187997265,
				"element": "C" 
			},
			{
				"x": 1.5269328916,
				"y": 1.0580649795,
				"z": -1.5631322109,
				"element": "C" 
			},
			{
				"x": 0.75916285,
				"y": 1.976611017,
				"z": -2.2771493119,
				"element": "C" 
			},
			{
				"x": -0.6187197394,
				"y": 2.0613764341,
				"z": -2.0636090696,
				"element": "C" 
			},
			{
				"x": -1.2208452203,
				"y": 1.2186136761,
				"z": -1.1303779037,
				"element": "C" 
			},
			{
				"x": -0.4513384173,
				"y": 0.2991745089,
				"z": -0.412216739,
				"element": "C" 
			},
			{
				"x": -1.1081075635,
				"y": -3.5033330626,
				"z": 1.3115496469,
				"element": "H" 
			},
			{
				"x": 0.3263354777,
				"y": -4.1600184283,
				"z": 1.6885791943,
				"element": "H" 
			},
			{
				"x": 0.4913493311,
				"y": -1.5361033275,
				"z": 2.3208105252,
				"element": "H" 
			},
			{
				"x": 2.6333051942,
				"y": -1.933110466,
				"z": -1.1300375653,
				"element": "H" 
			},
			{
				"x": 4.1995683186,
				"y": -1.3102705908,
				"z": 1.3527075966,
				"element": "H" 
			},
			{
				"x": 5.1086820309,
				"y": -0.4456368087,
				"z": 3.4958275966,
				"element": "H" 
			},
			{
				"x": 3.8153115376,
				"y": 1.2222071296,
				"z": 4.8143769778,
				"element": "H" 
			},
			{
				"x": 1.6181056758,
				"y": 2.0211245823,
				"z": 3.9632188167,
				"element": "H" 
			},
			{
				"x": 0.7313123853,
				"y": 1.1718189494,
				"z": 1.8227871059,
				"element": "H" 
			},
			{
				"x": 2.5937644967,
				"y": 0.9758949974,
				"z": -1.7371817418,
				"element": "H" 
			},
			{
				"x": 1.2379058193,
				"y": 2.6253105774,
				"z": -3.0054726664,
				"element": "H" 
			},
			{
				"x": -1.2171106929,
				"y": 2.7744933325,
				"z": -2.6233378987,
				"element": "H" 
			},
			{
				"x": -2.2928729795,
				"y": 1.2684197096,
				"z": -0.9610849625,
				"element": "H" 
			},
			{
				"x": -0.9387657502,
				"y": -0.353593181,
				"z": 0.305140932,
				"element": "H" 
			}
		],
		 "valence_orbital": [ 
			{
				"type": "occ",
				"energy": -0.2714,
				"method": "rhf"
			},
			{
				"type": "occ",
				"energy": -0.25492,
				"method": "rhf"
			},
			{
				"type": "occ",
				"energy": -0.25073,
				"method": "rhf"
			},
			{
				"type": "occ",
				"energy": -0.24431,
				"method": "rhf"
			},
			{
				"type": "occ",
				"energy": -0.24131,
				"method": "rhf"
			},
			{
				"type": "unocc",
				"energy": -0.01403,
				"method": "rhf"
			},
			{
				"type": "unocc",
				"energy": -0.01299,
				"method": "rhf"
			},
			{
				"type": "unocc",
				"energy": -0.00391,
				"method": "rhf"
			},
			{
				"type": "unocc",
				"energy": 0.00071,
				"method": "rhf"
			},
			{
				"type": "unocc",
				"energy": 0.01693,
				"method": "rhf"
			}
		],
		"cosmo_sigma_profile": { 
			"-0.025": 0.0,
			"-0.024": 0.0,
			"-0.023": 0.0,
			"-0.022": 0.0,
			"-0.021": 0.0,
			"-0.02": 0.0,
			"-0.019": 0.0,
			"-0.018": 0.0,
			"-0.017": 0.0,
			"-0.016": 0.0,
			"-0.015": 0.0,
			"-0.014": 0.0,
			"-0.013": 0.0,
			"-0.012": 1.18369290644,
			"-0.011": 3.03825427496,
			"-0.01": 4.80246827633,
			"-0.009": 3.40152266633,
			"-0.008": 3.44415967867,
			"-0.007": 4.21658224073,
			"-0.006": 11.7734412889,
			"-0.005": 19.2346292514,
			"-0.004": 26.4458947773,
			"-0.003": 23.8081046248,
			"-0.002": 19.0999611844,
			"-0.001": 17.6462867016,
			"0.0": 15.1257300164,
			"0.001": 15.9052498381,
			"0.002": 17.4307442248,
			"0.003": 18.8902484258,
			"0.004": 20.6125045667,
			"0.005": 20.6894959107,
			"0.006": 8.50211060036,
			"0.007": 2.85306250715,
			"0.008": 3.49950195813,
			"0.009": 3.3784634616,
			"0.01": 2.64910237023,
			"0.011": 2.93438592385,
			"0.012": 4.71936236809,
			"0.013": 1.48920852605,
			"0.014": 0.880919070088,
			"0.015": 0.416701798315,
			"0.016": 0.539386772923,
			"0.017": 0.0,
			"0.018": 0.0,
			"0.019": 0.0,
			"0.02": 0.0,
			"0.021": 0.0,
			"0.022": 0.0,
			"0.023": 0.0,
			"0.024": 0.0,
			"0.025": 0.0
		}
	}
}
