{
	 "smiles": "FC1=CC2=C(C=C1)C(=CN2)C(=O)CC#N", 
	 "Tm": 539.15, 
	 "num_atms": 22, 
	 "gaussian": { 
		 "optdone": 1, 
		 "sigma_profile": "yes", 
		 "theory": "DFT", 
		 "functional": "B3LYP", 
		 "basiset": "6-31G**", 
		 "properties": { 
			 "R2extent": 4441.7649, 
			 "electric_dipole_moment_norm": 6.92945824001, 
			 "electric_quadrupole_moment_norm": 44.5296879374, 
			 "total_energy": -707.932122109, 
			 "HOMO_LUMO_gap": 0.17288, 
			 "cosmo_polarized_energy": -21.95, 
			 "cosmo_cavitation_energy": 28.54, 
			 "cosmo_dispersion_energy": -20.15, 
			 "cosmo_repulsion_energy": 1.53, 
			 "cosmo_total_nonelectrostatic_energy": 9.91, 
			 "SMD_solvation_energy": 7.24 
		},
		"coords": [
			{
				"x": -3.4614874672,
				"y": 1.4538295082,
				"z": 0.0301952669,
				"element": "F" 
			},
			{
				"x": -2.2466968833,
				"y": 0.9324238821,
				"z": 0.2999954977,
				"element": "C" 
			},
			{
				"x": -1.9248819619,
				"y": -0.3075958722,
				"z": -0.2241701764,
				"element": "C" 
			},
			{
				"x": -0.6535345909,
				"y": -0.7942003261,
				"z": 0.0900980142,
				"element": "C" 
			},
			{
				"x": 0.280482774,
				"y": -0.0862698352,
				"z": 0.8968733419,
				"element": "C" 
			},
			{
				"x": -0.1072400704,
				"y": 1.1697015446,
				"z": 1.3997453937,
				"element": "C" 
			},
			{
				"x": -1.3669894394,
				"y": 1.6737960087,
				"z": 1.1002251952,
				"element": "C" 
			},
			{
				"x": 1.4654982816,
				"y": -0.9260099744,
				"z": 0.981138343,
				"element": "C" 
			},
			{
				"x": 1.1949891859,
				"y": -2.0639634183,
				"z": 0.243274649,
				"element": "C" 
			},
			{
				"x": -0.0594861518,
				"y": -1.9879668532,
				"z": -0.2853564714,
				"element": "N" 
			},
			{
				"x": 2.7588994176,
				"y": -0.764999645,
				"z": 1.6555440973,
				"element": "C" 
			},
			{
				"x": 3.6356471067,
				"y": -1.6120852029,
				"z": 1.5949152147,
				"element": "O" 
			},
			{
				"x": 2.9753104907,
				"y": 0.5355872756,
				"z": 2.455389304,
				"element": "C" 
			},
			{
				"x": 4.2881835471,
				"y": 0.6117240521,
				"z": 3.091987951,
				"element": "C" 
			},
			{
				"x": 5.3192467508,
				"y": 0.7106339601,
				"z": 3.6130914498,
				"element": "N" 
			},
			{
				"x": -2.6335939283,
				"y": -0.850541083,
				"z": -0.839498316,
				"element": "H" 
			},
			{
				"x": 0.5571614788,
				"y": 1.7596380973,
				"z": 2.0203878508,
				"element": "H" 
			},
			{
				"x": -1.6907899521,
				"y": 2.6384202102,
				"z": 1.4746298313,
				"element": "H" 
			},
			{
				"x": 1.8389921737,
				"y": -2.9144747044,
				"z": 0.0760805985,
				"element": "H" 
			},
			{
				"x": -0.4893413843,
				"y": -2.6942325346,
				"z": -0.8622498798,
				"element": "H" 
			},
			{
				"x": 2.8482720041,
				"y": 1.3959166037,
				"z": 1.7863177672,
				"element": "H" 
			},
			{
				"x": 2.1963586189,
				"y": 0.6204683067,
				"z": 3.2234850774,
				"element": "H" 
			}
		],
		 "valence_orbital": [ 
			{
				"type": "occ",
				"energy": -0.32129,
				"method": "rhf"
			},
			{
				"type": "occ",
				"energy": -0.30074,
				"method": "rhf"
			},
			{
				"type": "occ",
				"energy": -0.26421,
				"method": "rhf"
			},
			{
				"type": "occ",
				"energy": -0.25392,
				"method": "rhf"
			},
			{
				"type": "occ",
				"energy": -0.23178,
				"method": "rhf"
			},
			{
				"type": "unocc",
				"energy": -0.0589,
				"method": "rhf"
			},
			{
				"type": "unocc",
				"energy": -0.02377,
				"method": "rhf"
			},
			{
				"type": "unocc",
				"energy": -0.00014,
				"method": "rhf"
			},
			{
				"type": "unocc",
				"energy": 0.034,
				"method": "rhf"
			},
			{
				"type": "unocc",
				"energy": 0.03879,
				"method": "rhf"
			}
		],
		"cosmo_sigma_profile": { 
			"-0.025": 0.0,
			"-0.024": 0.0,
			"-0.023": 0.0,
			"-0.022": 0.0,
			"-0.021": 0.0,
			"-0.02": 0.0,
			"-0.019": 0.0,
			"-0.018": 0.0,
			"-0.017": 1.25856468749,
			"-0.016": 1.83326922819,
			"-0.015": 1.63491446328,
			"-0.014": 1.56334444551,
			"-0.013": 1.14961826674,
			"-0.012": 1.45770372497,
			"-0.011": 1.22739991476,
			"-0.01": 6.90256166121,
			"-0.009": 10.5303474623,
			"-0.008": 9.24330019773,
			"-0.007": 9.73066543359,
			"-0.006": 8.833532275,
			"-0.005": 8.04355003367,
			"-0.004": 8.62700951248,
			"-0.003": 7.21405492116,
			"-0.002": 7.41836198395,
			"-0.001": 8.9253132028,
			"0.0": 9.73419883153,
			"0.001": 18.0145163627,
			"0.002": 19.5029264926,
			"0.003": 20.5750951023,
			"0.004": 17.6056968967,
			"0.005": 9.36358245541,
			"0.006": 3.70194117985,
			"0.007": 4.07846956089,
			"0.008": 6.46273196985,
			"0.009": 5.53171685025,
			"0.01": 5.84060276231,
			"0.011": 6.13283804387,
			"0.012": 6.40603619551,
			"0.013": 2.13869159423,
			"0.014": 0.0608404721319,
			"0.015": 0.0,
			"0.016": 0.0,
			"0.017": 0.0,
			"0.018": 0.0,
			"0.019": 0.0,
			"0.02": 0.0,
			"0.021": 0.0,
			"0.022": 0.0,
			"0.023": 0.0,
			"0.024": 0.0,
			"0.025": 0.0
		}
	}
}
