{
	 "smiles": "COC(=O)C1=C(C)N=C(O)C=C1", 
	 "Tm": 496.15, 
	 "num_atms": 21, 
	 "gaussian": { 
		 "optdone": 1, 
		 "sigma_profile": "yes", 
		 "theory": "DFT", 
		 "functional": "B3LYP", 
		 "basiset": "6-31G**", 
		 "properties": { 
			 "R2extent": 2838.1476, 
			 "electric_dipole_moment_norm": 0.969555305282, 
			 "electric_quadrupole_moment_norm": 19.2348566922, 
			 "total_energy": -590.710788712, 
			 "HOMO_LUMO_gap": 0.20012, 
			 "cosmo_polarized_energy": -14.58, 
			 "cosmo_cavitation_energy": 25.35, 
			 "cosmo_dispersion_energy": -18.69, 
			 "cosmo_repulsion_energy": 1.49, 
			 "cosmo_total_nonelectrostatic_energy": 8.16, 
			 "SMD_solvation_energy": 5.16 
		},
		"coords": [
			{
				"x": -4.2444305566,
				"y": -0.2448946114,
				"z": -1.4412971895,
				"element": "C" 
			},
			{
				"x": -2.9208601184,
				"y": 0.3131980769,
				"z": -1.4180177262,
				"element": "O" 
			},
			{
				"x": -2.249758161,
				"y": 0.147257066,
				"z": -0.2558003286,
				"element": "C" 
			},
			{
				"x": -2.7361113174,
				"y": -0.4333497173,
				"z": 0.6984663418,
				"element": "O" 
			},
			{
				"x": -0.8811096135,
				"y": 0.7323423804,
				"z": -0.2524153192,
				"element": "C" 
			},
			{
				"x": -0.2420708421,
				"y": 1.420315132,
				"z": -1.3132084565,
				"element": "C" 
			},
			{
				"x": -0.8625911112,
				"y": 1.681655247,
				"z": -2.663925525,
				"element": "C" 
			},
			{
				"x": 1.0035954379,
				"y": 1.9025786281,
				"z": -1.1792154445,
				"element": "N" 
			},
			{
				"x": 1.6562713315,
				"y": 1.7359768336,
				"z": -0.0350281419,
				"element": "C" 
			},
			{
				"x": 2.9028322153,
				"y": 2.265898004,
				"z": -0.0228385686,
				"element": "O" 
			},
			{
				"x": 1.1153679635,
				"y": 1.0696548077,
				"z": 1.0765942771,
				"element": "C" 
			},
			{
				"x": -0.1663544886,
				"y": 0.5707118352,
				"z": 0.9466568624,
				"element": "C" 
			},
			{
				"x": -4.2110046303,
				"y": -1.3232361257,
				"z": -1.2678802394,
				"element": "H" 
			},
			{
				"x": -4.8698610058,
				"y": 0.2146384473,
				"z": -0.6720564524,
				"element": "H" 
			},
			{
				"x": -4.6359135986,
				"y": -0.0274874687,
				"z": -2.435074932,
				"element": "H" 
			},
			{
				"x": -1.7829255687,
				"y": 2.2650638221,
				"z": -2.5735702965,
				"element": "H" 
			},
			{
				"x": -1.1352537775,
				"y": 0.7487056162,
				"z": -3.1646735718,
				"element": "H" 
			},
			{
				"x": -0.1406793426,
				"y": 2.2272245216,
				"z": -3.2722673285,
				"element": "H" 
			},
			{
				"x": 3.3080125911,
				"y": 2.1038005828,
				"z": 0.8394671111,
				"element": "H" 
			},
			{
				"x": 1.6783169736,
				"y": 0.9508634145,
				"z": 1.9982177443,
				"element": "H" 
			},
			{
				"x": -0.6509723806,
				"y": 0.0445835075,
				"z": 1.7619671839,
				"element": "H" 
			}
		],
		 "valence_orbital": [ 
			{
				"type": "occ",
				"energy": -0.30177,
				"method": "rhf"
			},
			{
				"type": "occ",
				"energy": -0.28663,
				"method": "rhf"
			},
			{
				"type": "occ",
				"energy": -0.28121,
				"method": "rhf"
			},
			{
				"type": "occ",
				"energy": -0.2594,
				"method": "rhf"
			},
			{
				"type": "occ",
				"energy": -0.24152,
				"method": "rhf"
			},
			{
				"type": "unocc",
				"energy": -0.0414,
				"method": "rhf"
			},
			{
				"type": "unocc",
				"energy": -0.02254,
				"method": "rhf"
			},
			{
				"type": "unocc",
				"energy": 0.05768,
				"method": "rhf"
			},
			{
				"type": "unocc",
				"energy": 0.06092,
				"method": "rhf"
			},
			{
				"type": "unocc",
				"energy": 0.10404,
				"method": "rhf"
			}
		],
		"cosmo_sigma_profile": { 
			"-0.025": 0.0,
			"-0.024": 0.0,
			"-0.023": 0.0,
			"-0.022": 0.0,
			"-0.021": 0.0,
			"-0.02": 0.0,
			"-0.019": 0.66221429704,
			"-0.018": 1.14676516225,
			"-0.017": 1.15843826758,
			"-0.016": 1.41084965525,
			"-0.015": 1.06958456151,
			"-0.014": 0.543801522121,
			"-0.013": 0.799021923132,
			"-0.012": 1.0072921121,
			"-0.011": 1.52646755138,
			"-0.01": 0.93210499234,
			"-0.009": 1.13397198238,
			"-0.008": 1.99199791047,
			"-0.007": 3.49902015155,
			"-0.006": 7.47815643072,
			"-0.005": 9.70035201128,
			"-0.004": 14.0418292433,
			"-0.003": 16.6065016914,
			"-0.002": 17.1850936875,
			"-0.001": 16.6156977943,
			"0.0": 22.7729501644,
			"0.001": 15.4935424213,
			"0.002": 12.8765027714,
			"0.003": 9.09010584101,
			"0.004": 4.19100975804,
			"0.005": 4.2028649853,
			"0.006": 3.70444034458,
			"0.007": 3.27469825903,
			"0.008": 3.79623541319,
			"0.009": 3.55961109466,
			"0.01": 3.7790875035,
			"0.011": 5.09178630686,
			"0.012": 6.99065003537,
			"0.013": 2.25424335035,
			"0.014": 0.755584160233,
			"0.015": 1.09399213993,
			"0.016": 0.131757430354,
			"0.017": 0.0,
			"0.018": 0.0,
			"0.019": 0.0,
			"0.02": 0.0,
			"0.021": 0.0,
			"0.022": 0.0,
			"0.023": 0.0,
			"0.024": 0.0,
			"0.025": 0.0
		}
	}
}
