{
	 "smiles": "CC(CO)N1CC2=C(C1)C(N)=CC=C2", 
	 "Tm": 403.15, 
	 "num_atms": 30, 
	 "gaussian": { 
		 "optdone": 1, 
		 "sigma_profile": "yes", 
		 "theory": "DFT", 
		 "functional": "B3LYP", 
		 "basiset": "6-31G**", 
		 "properties": { 
			 "R2extent": 3793.3068, 
			 "electric_dipole_moment_norm": 1.45498260471, 
			 "electric_quadrupole_moment_norm": 20.7958663705, 
			 "total_energy": -613.523751229, 
			 "HOMO_LUMO_gap": 0.2119, 
			 "cosmo_polarized_energy": -13.67, 
			 "cosmo_cavitation_energy": 31.14, 
			 "cosmo_dispersion_energy": -22.8, 
			 "cosmo_repulsion_energy": 1.8, 
			 "cosmo_total_nonelectrostatic_energy": 10.14, 
			 "SMD_solvation_energy": 2.62 
		},
		"coords": [
			{
				"x": -0.7613336357,
				"y": 3.1812930035,
				"z": -0.1758063358,
				"element": "C" 
			},
			{
				"x": -1.1682075303,
				"y": 1.7614080207,
				"z": 0.246640638,
				"element": "C" 
			},
			{
				"x": -1.1646861754,
				"y": 1.6898972941,
				"z": 1.7788391882,
				"element": "C" 
			},
			{
				"x": -1.9211666182,
				"y": 0.5661249154,
				"z": 2.2184975683,
				"element": "O" 
			},
			{
				"x": -0.2611925855,
				"y": 0.7742580325,
				"z": -0.3390637995,
				"element": "N" 
			},
			{
				"x": -0.5139164136,
				"y": -0.6415924316,
				"z": 0.0095394644,
				"element": "C" 
			},
			{
				"x": 0.1404209572,
				"y": -1.3990569094,
				"z": -1.1166697421,
				"element": "C" 
			},
			{
				"x": 0.3582690333,
				"y": -0.5264784074,
				"z": -2.1792352154,
				"element": "C" 
			},
			{
				"x": -0.1051990322,
				"y": 0.8556707188,
				"z": -1.8035962127,
				"element": "C" 
			},
			{
				"x": 0.9214546726,
				"y": -0.9727704808,
				"z": -3.381966217,
				"element": "C" 
			},
			{
				"x": 1.1784461871,
				"y": -0.0845548726,
				"z": -4.433572307,
				"element": "N" 
			},
			{
				"x": 1.2743377684,
				"y": -2.3318232409,
				"z": -3.467897515,
				"element": "C" 
			},
			{
				"x": 1.060822189,
				"y": -3.1970830131,
				"z": -2.3938177874,
				"element": "C" 
			},
			{
				"x": 0.4850234701,
				"y": -2.7462694998,
				"z": -1.2018512955,
				"element": "C" 
			},
			{
				"x": 0.2636893479,
				"y": 3.3980599972,
				"z": 0.1444279891,
				"element": "H" 
			},
			{
				"x": -1.43115426,
				"y": 3.9195780539,
				"z": 0.2753214486,
				"element": "H" 
			},
			{
				"x": -0.8111260597,
				"y": 3.3141974542,
				"z": -1.2588451865,
				"element": "H" 
			},
			{
				"x": -2.2151657864,
				"y": 1.5848445165,
				"z": -0.0773528724,
				"element": "H" 
			},
			{
				"x": -0.1194537478,
				"y": 1.6366496024,
				"z": 2.1202778104,
				"element": "H" 
			},
			{
				"x": -1.602531627,
				"y": 2.6203898361,
				"z": 2.1723901417,
				"element": "H" 
			},
			{
				"x": -1.8047049932,
				"y": 0.4835523399,
				"z": 3.1727439406,
				"element": "H" 
			},
			{
				"x": -0.099502912,
				"y": -0.8823169342,
				"z": 0.9934698365,
				"element": "H" 
			},
			{
				"x": -1.5925038053,
				"y": -0.8762529345,
				"z": 0.0613164663,
				"element": "H" 
			},
			{
				"x": -1.0588109868,
				"y": 1.1048061484,
				"z": -2.3192502689,
				"element": "H" 
			},
			{
				"x": 0.6179277796,
				"y": 1.6340968462,
				"z": -2.0802738017,
				"element": "H" 
			},
			{
				"x": 1.3088886031,
				"y": -0.5279217788,
				"z": -5.3330993355,
				"element": "H" 
			},
			{
				"x": 0.5372071181,
				"y": 0.6943518717,
				"z": -4.4995170265,
				"element": "H" 
			},
			{
				"x": 1.7233783095,
				"y": -2.7071840477,
				"z": -4.3847136182,
				"element": "H" 
			},
			{
				"x": 1.3473154674,
				"y": -4.2405810803,
				"z": -2.4940109975,
				"element": "H" 
			},
			{
				"x": 0.3188752659,
				"y": -3.4266930202,
				"z": -0.3719249575,
				"element": "H" 
			}
		],
		 "valence_orbital": [ 
			{
				"type": "occ",
				"energy": -0.29524,
				"method": "rhf"
			},
			{
				"type": "occ",
				"energy": -0.26527,
				"method": "rhf"
			},
			{
				"type": "occ",
				"energy": -0.22797,
				"method": "rhf"
			},
			{
				"type": "occ",
				"energy": -0.1969,
				"method": "rhf"
			},
			{
				"type": "occ",
				"energy": -0.19505,
				"method": "rhf"
			},
			{
				"type": "unocc",
				"energy": 0.01685,
				"method": "rhf"
			},
			{
				"type": "unocc",
				"energy": 0.02376,
				"method": "rhf"
			},
			{
				"type": "unocc",
				"energy": 0.07458,
				"method": "rhf"
			},
			{
				"type": "unocc",
				"energy": 0.07927,
				"method": "rhf"
			},
			{
				"type": "unocc",
				"energy": 0.0962,
				"method": "rhf"
			}
		],
		"cosmo_sigma_profile": { 
			"-0.025": 0.0,
			"-0.024": 0.0,
			"-0.023": 0.0,
			"-0.022": 0.0,
			"-0.021": 0.0,
			"-0.02": 0.0,
			"-0.019": 0.0,
			"-0.018": 0.0,
			"-0.017": 0.0,
			"-0.016": 0.305202462032,
			"-0.015": 1.11858989378,
			"-0.014": 0.83357475956,
			"-0.013": 0.926509494037,
			"-0.012": 2.22040008059,
			"-0.011": 4.10251590015,
			"-0.01": 3.80038909191,
			"-0.009": 3.38811569606,
			"-0.008": 3.21919277173,
			"-0.007": 3.59042641855,
			"-0.006": 4.78089060918,
			"-0.005": 7.28998901468,
			"-0.004": 11.5244104761,
			"-0.003": 25.0954633208,
			"-0.002": 28.184571564,
			"-0.001": 26.9388699165,
			"0.0": 21.2519145437,
			"0.001": 15.2923975878,
			"0.002": 8.94887687493,
			"0.003": 8.86417810538,
			"0.004": 8.44400711864,
			"0.005": 9.49407452544,
			"0.006": 11.1242129946,
			"0.007": 10.30187823,
			"0.008": 6.28439582763,
			"0.009": 2.44939787997,
			"0.01": 2.89157221548,
			"0.011": 2.18479666233,
			"0.012": 2.49501170658,
			"0.013": 2.15165382651,
			"0.014": 1.71405337688,
			"0.015": 0.986534949508,
			"0.016": 0.244167359033,
			"0.017": 0.0,
			"0.018": 0.0,
			"0.019": 0.0,
			"0.02": 0.0,
			"0.021": 0.0,
			"0.022": 0.0,
			"0.023": 0.0,
			"0.024": 0.0,
			"0.025": 0.0
		}
	}
}
