{
	 "smiles": "[O-][N+](=O)C1=CC(=CC=C1C=C/C1=CC=CC=C1C=NNC1=CC=CC=C1)C#N", 
	 "Tm": 455.15, 
	 "num_atms": 44, 
	 "gaussian": { 
		 "optdone": 1, 
		 "sigma_profile": "yes", 
		 "theory": "DFT", 
		 "functional": "B3LYP", 
		 "basiset": "6-31G**", 
		 "properties": { 
			 "R2extent": 10774.1315, 
			 "electric_dipole_moment_norm": 3.74462055888, 
			 "electric_quadrupole_moment_norm": 33.2763359422, 
			 "total_energy": -1217.26058258, 
			 "HOMO_LUMO_gap": 0.08934, 
			 "cosmo_polarized_energy": -20.61, 
			 "cosmo_cavitation_energy": 50.29, 
			 "cosmo_dispersion_energy": -32.15, 
			 "cosmo_repulsion_energy": 2.41, 
			 "cosmo_total_nonelectrostatic_energy": 20.56, 
			 "SMD_solvation_energy": 11.12 
		},
		"coords": [
			{
				"x": -2.3520633225,
				"y": 1.9059111901,
				"z": -0.2274717397,
				"element": "O" 
			},
			{
				"x": -2.05762189,
				"y": 1.2206212301,
				"z": 0.7568838994,
				"element": "N" 
			},
			{
				"x": -1.4709476716,
				"y": 1.6371420157,
				"z": 1.7497955994,
				"element": "O" 
			},
			{
				"x": -2.441688483,
				"y": -0.1982616357,
				"z": 0.7223564935,
				"element": "C" 
			},
			{
				"x": -3.5997272255,
				"y": -0.5034962664,
				"z": 0.0130598816,
				"element": "C" 
			},
			{
				"x": -4.0103892368,
				"y": -1.8364969643,
				"z": -0.083947682,
				"element": "C" 
			},
			{
				"x": -3.2256581283,
				"y": -2.844169848,
				"z": 0.5050183825,
				"element": "C" 
			},
			{
				"x": -2.0627314978,
				"y": -2.5108106217,
				"z": 1.1859727137,
				"element": "C" 
			},
			{
				"x": -1.6350987472,
				"y": -1.1778331275,
				"z": 1.334227037,
				"element": "C" 
			},
			{
				"x": -0.3916396046,
				"y": -0.8917914162,
				"z": 2.0883982344,
				"element": "C" 
			},
			{
				"x": 0.8219180737,
				"y": -1.3392964493,
				"z": 1.731412223,
				"element": "C" 
			},
			{
				"x": 1.1339420245,
				"y": -2.1417330255,
				"z": 0.5176777954,
				"element": "C" 
			},
			{
				"x": 1.5871524823,
				"y": -3.457723051,
				"z": 0.6947135136,
				"element": "C" 
			},
			{
				"x": 1.7922942154,
				"y": -4.3115771576,
				"z": -0.3880864887,
				"element": "C" 
			},
			{
				"x": 1.5432332654,
				"y": -3.8525861873,
				"z": -1.6830209734,
				"element": "C" 
			},
			{
				"x": 1.1313471531,
				"y": -2.5381595817,
				"z": -1.8799411223,
				"element": "C" 
			},
			{
				"x": 0.9528577918,
				"y": -1.6525059531,
				"z": -0.8018038049,
				"element": "C" 
			},
			{
				"x": 0.618284907,
				"y": -0.2558801834,
				"z": -1.1152909261,
				"element": "C" 
			},
			{
				"x": 1.065073692,
				"y": 0.7221428398,
				"z": -0.4019833891,
				"element": "N" 
			},
			{
				"x": 0.7309492892,
				"y": 1.9733642196,
				"z": -0.7373389761,
				"element": "N" 
			},
			{
				"x": 1.1977965681,
				"y": 3.0769775332,
				"z": -0.015824856,
				"element": "C" 
			},
			{
				"x": 2.2127629195,
				"y": 2.9523963903,
				"z": 0.9440939542,
				"element": "C" 
			},
			{
				"x": 2.6616724266,
				"y": 4.0855024027,
				"z": 1.6181966866,
				"element": "C" 
			},
			{
				"x": 2.1231234239,
				"y": 5.3459280572,
				"z": 1.3471206302,
				"element": "C" 
			},
			{
				"x": 1.1149534165,
				"y": 5.4621117737,
				"z": 0.3879481568,
				"element": "C" 
			},
			{
				"x": 0.6502219728,
				"y": 4.3387173274,
				"z": -0.2912698211,
				"element": "C" 
			},
			{
				"x": -5.2140177985,
				"y": -2.1704290835,
				"z": -0.787511842,
				"element": "C" 
			},
			{
				"x": -6.1887588718,
				"y": -2.4485097422,
				"z": -1.3577083109,
				"element": "N" 
			},
			{
				"x": -4.1619423628,
				"y": 0.2928723769,
				"z": -0.4579364777,
				"element": "H" 
			},
			{
				"x": -3.5347215373,
				"y": -3.8806929158,
				"z": 0.4238074805,
				"element": "H" 
			},
			{
				"x": -1.4580673207,
				"y": -3.2935071748,
				"z": 1.6291767412,
				"element": "H" 
			},
			{
				"x": -0.4873906193,
				"y": -0.2605526554,
				"z": 2.9649566048,
				"element": "H" 
			},
			{
				"x": 1.6564939093,
				"y": -1.108686407,
				"z": 2.3921019155,
				"element": "H" 
			},
			{
				"x": 1.7493529534,
				"y": -3.8227040765,
				"z": 1.7058753005,
				"element": "H" 
			},
			{
				"x": 2.1296538369,
				"y": -5.3300801408,
				"z": -0.2204247337,
				"element": "H" 
			},
			{
				"x": 1.685292193,
				"y": -4.5099737448,
				"z": -2.5356896887,
				"element": "H" 
			},
			{
				"x": 0.9705146878,
				"y": -2.1698357112,
				"z": -2.8900130245,
				"element": "H" 
			},
			{
				"x": 0.0220389912,
				"y": -0.0750506248,
				"z": -2.0197039075,
				"element": "H" 
			},
			{
				"x": -0.0074509392,
				"y": 2.127990708,
				"z": -1.4193941757,
				"element": "H" 
			},
			{
				"x": 2.6302199889,
				"y": 1.9739897508,
				"z": 1.1475519167,
				"element": "H" 
			},
			{
				"x": 3.4470238637,
				"y": 3.9803070246,
				"z": 2.3618201602,
				"element": "H" 
			},
			{
				"x": 2.4825669723,
				"y": 6.2232412589,
				"z": 1.8758024232,
				"element": "H" 
			},
			{
				"x": 0.6799210154,
				"y": 6.432873838,
				"z": 0.1677496939,
				"element": "H" 
			},
			{
				"x": -0.1473467766,
				"y": 4.4320538084,
				"z": -1.0239554973,
				"element": "H" 
			}
		],
		 "valence_orbital": [ 
			{
				"type": "occ",
				"energy": -0.27076,
				"method": "rhf"
			},
			{
				"type": "occ",
				"energy": -0.25688,
				"method": "rhf"
			},
			{
				"type": "occ",
				"energy": -0.24395,
				"method": "rhf"
			},
			{
				"type": "occ",
				"energy": -0.24254,
				"method": "rhf"
			},
			{
				"type": "occ",
				"energy": -0.19083,
				"method": "rhf"
			},
			{
				"type": "unocc",
				"energy": -0.10149,
				"method": "rhf"
			},
			{
				"type": "unocc",
				"energy": -0.06961,
				"method": "rhf"
			},
			{
				"type": "unocc",
				"energy": -0.04748,
				"method": "rhf"
			},
			{
				"type": "unocc",
				"energy": -0.02697,
				"method": "rhf"
			},
			{
				"type": "unocc",
				"energy": -0.02029,
				"method": "rhf"
			}
		],
		"cosmo_sigma_profile": { 
			"-0.025": 0.0,
			"-0.024": 0.0181723350732,
			"-0.023": 0.0702128417793,
			"-0.022": 0.00184783214753,
			"-0.021": 0.130265597375,
			"-0.02": 0.0632382294547,
			"-0.019": 0.209757370067,
			"-0.018": 0.0217811291384,
			"-0.017": 0.0601228855598,
			"-0.016": 0.0121285737794,
			"-0.015": 0.194191542067,
			"-0.014": 0.569258814169,
			"-0.013": 0.283105773414,
			"-0.012": 1.54100413378,
			"-0.011": 2.06364240677,
			"-0.01": 2.05232537378,
			"-0.009": 5.06251671413,
			"-0.008": 6.83940140383,
			"-0.007": 11.4173463636,
			"-0.006": 20.9975686822,
			"-0.005": 27.1218417328,
			"-0.004": 29.7205084991,
			"-0.003": 32.2918347399,
			"-0.002": 32.6359297968,
			"-0.001": 29.4646623516,
			"0.0": 23.8239958858,
			"0.001": 19.1301757157,
			"0.002": 19.7427662051,
			"0.003": 23.631067049,
			"0.004": 25.510944946,
			"0.005": 23.3210810227,
			"0.006": 20.5306396509,
			"0.007": 20.0399044702,
			"0.008": 12.3201200901,
			"0.009": 5.51425593033,
			"0.01": 3.03695556723,
			"0.011": 2.47699744761,
			"0.012": 2.27140008328,
			"0.013": 0.530746232578,
			"0.014": 0.0,
			"0.015": 0.0,
			"0.016": 0.0,
			"0.017": 0.0,
			"0.018": 0.0,
			"0.019": 0.0,
			"0.02": 0.0,
			"0.021": 0.0,
			"0.022": 0.0,
			"0.023": 0.0,
			"0.024": 0.0,
			"0.025": 0.0
		}
	}
}
