{
	 "smiles": "NS(=O)(=O)C1=C(Cl)C=C2N=C(CSCC3=CC=CC=C3)NS(=O)(=O)C2=C1", 
	 "Tm": 505.15, 
	 "num_atms": 40, 
	 "gaussian": { 
		 "optdone": 1, 
		 "sigma_profile": "yes", 
		 "theory": "DFT", 
		 "functional": "B3LYP", 
		 "basiset": "6-31G**", 
		 "properties": { 
			 "R2extent": 19600.5117, 
			 "electric_dipole_moment_norm": 9.40307266057, 
			 "electric_quadrupole_moment_norm": 36.6398269101, 
			 "total_energy": -2699.78912958, 
			 "HOMO_LUMO_gap": 0.17316, 
			 "cosmo_polarized_energy": -30.49, 
			 "cosmo_cavitation_energy": 50.95, 
			 "cosmo_dispersion_energy": -36.84, 
			 "cosmo_repulsion_energy": 2.68, 
			 "cosmo_total_nonelectrostatic_energy": 16.78, 
			 "SMD_solvation_energy": 4.77 
		},
		"coords": [
			{
				"x": 4.9276844719,
				"y": -0.0735303934,
				"z": 3.823997708,
				"element": "N" 
			},
			{
				"x": 3.6699303205,
				"y": 0.4188480353,
				"z": 4.8029607661,
				"element": "S" 
			},
			{
				"x": 3.5404686951,
				"y": 1.8587796114,
				"z": 4.594433465,
				"element": "O" 
			},
			{
				"x": 3.8983456698,
				"y": -0.1703249063,
				"z": 6.1158164879,
				"element": "O" 
			},
			{
				"x": 2.1529185004,
				"y": -0.3093743654,
				"z": 4.1238274334,
				"element": "C" 
			},
			{
				"x": 1.915644877,
				"y": -1.6925613408,
				"z": 4.0012014282,
				"element": "C" 
			},
			{
				"x": 3.1345403737,
				"y": -2.8744449934,
				"z": 4.4361599351,
				"element": "Cl" 
			},
			{
				"x": 0.714480065,
				"y": -2.1702926009,
				"z": 3.4994279043,
				"element": "C" 
			},
			{
				"x": -0.3108741791,
				"y": -1.2882122018,
				"z": 3.1086973416,
				"element": "C" 
			},
			{
				"x": -1.4521824149,
				"y": -1.84926652,
				"z": 2.5527090689,
				"element": "N" 
			},
			{
				"x": -2.3091786152,
				"y": -1.0952301284,
				"z": 1.9428485473,
				"element": "C" 
			},
			{
				"x": -3.5183240455,
				"y": -1.745350979,
				"z": 1.3019151396,
				"element": "C" 
			},
			{
				"x": -4.1146186916,
				"y": -0.9580061147,
				"z": -0.2410230044,
				"element": "S" 
			},
			{
				"x": -2.7109534759,
				"y": -1.3569084676,
				"z": -1.3889780199,
				"element": "C" 
			},
			{
				"x": -2.9891847848,
				"y": -0.7738680901,
				"z": -2.750479554,
				"element": "C" 
			},
			{
				"x": -2.5294610019,
				"y": 0.5074859548,
				"z": -3.0830521201,
				"element": "C" 
			},
			{
				"x": -2.7941341369,
				"y": 1.0522409107,
				"z": -4.3395839093,
				"element": "C" 
			},
			{
				"x": -3.5261334752,
				"y": 0.322600722,
				"z": -5.2783306898,
				"element": "C" 
			},
			{
				"x": -3.9917512582,
				"y": -0.953526823,
				"z": -4.95495205,
				"element": "C" 
			},
			{
				"x": -3.7261304006,
				"y": -1.4970012225,
				"z": -3.6982280046,
				"element": "C" 
			},
			{
				"x": -2.2077596586,
				"y": 0.2716124592,
				"z": 1.8100813995,
				"element": "N" 
			},
			{
				"x": -1.3762209706,
				"y": 1.2402511775,
				"z": 2.9491637097,
				"element": "S" 
			},
			{
				"x": -0.9067533901,
				"y": 2.4263257165,
				"z": 2.2395408693,
				"element": "O" 
			},
			{
				"x": -2.2104247161,
				"y": 1.3835798081,
				"z": 4.1399593395,
				"element": "O" 
			},
			{
				"x": -0.0652640196,
				"y": 0.0944809123,
				"z": 3.2649514706,
				"element": "C" 
			},
			{
				"x": 1.1457092699,
				"y": 0.5788548352,
				"z": 3.75447155,
				"element": "C" 
			},
			{
				"x": 5.1022485186,
				"y": -1.0727114331,
				"z": 3.8527697416,
				"element": "H" 
			},
			{
				"x": 4.8914350994,
				"y": 0.3222347961,
				"z": 2.8906642975,
				"element": "H" 
			},
			{
				"x": 0.5434687893,
				"y": -3.2342235093,
				"z": 3.3877990311,
				"element": "H" 
			},
			{
				"x": -4.3633907976,
				"y": -1.671461902,
				"z": 1.9965431572,
				"element": "H" 
			},
			{
				"x": -3.2966713404,
				"y": -2.8036475388,
				"z": 1.1531958679,
				"element": "H" 
			},
			{
				"x": -1.7911430235,
				"y": -0.9436004196,
				"z": -0.9664323912,
				"element": "H" 
			},
			{
				"x": -2.6191353801,
				"y": -2.44581651,
				"z": -1.4337527221,
				"element": "H" 
			},
			{
				"x": -1.9582540454,
				"y": 1.0783826516,
				"z": -2.3551756497,
				"element": "H" 
			},
			{
				"x": -2.4273456995,
				"y": 2.044452142,
				"z": -4.5854591891,
				"element": "H" 
			},
			{
				"x": -3.730840082,
				"y": 0.7453268395,
				"z": -6.2575519925,
				"element": "H" 
			},
			{
				"x": -4.5599820405,
				"y": -1.5267938242,
				"z": -5.6816244247,
				"element": "H" 
			},
			{
				"x": -4.0904331311,
				"y": -2.4904532314,
				"z": -3.4491345345,
				"element": "H" 
			},
			{
				"x": -2.9007791594,
				"y": 0.74746894,
				"z": 1.2317718674,
				"element": "H" 
			},
			{
				"x": 1.3230492837,
				"y": 1.6449820032,
				"z": 3.8503507294,
				"element": "H" 
			}
		],
		 "valence_orbital": [ 
			{
				"type": "occ",
				"energy": -0.28518,
				"method": "rhf"
			},
			{
				"type": "occ",
				"energy": -0.26851,
				"method": "rhf"
			},
			{
				"type": "occ",
				"energy": -0.2644,
				"method": "rhf"
			},
			{
				"type": "occ",
				"energy": -0.25932,
				"method": "rhf"
			},
			{
				"type": "occ",
				"energy": -0.25806,
				"method": "rhf"
			},
			{
				"type": "unocc",
				"energy": -0.0849,
				"method": "rhf"
			},
			{
				"type": "unocc",
				"energy": -0.05956,
				"method": "rhf"
			},
			{
				"type": "unocc",
				"energy": -0.02857,
				"method": "rhf"
			},
			{
				"type": "unocc",
				"energy": -0.0165,
				"method": "rhf"
			},
			{
				"type": "unocc",
				"energy": -0.01219,
				"method": "rhf"
			}
		],
		"cosmo_sigma_profile": { 
			"-0.025": 0.0,
			"-0.024": 0.0,
			"-0.023": 0.0,
			"-0.022": 0.0,
			"-0.021": 0.0,
			"-0.02": 0.0,
			"-0.019": 0.0,
			"-0.018": 0.0,
			"-0.017": 0.112220813332,
			"-0.016": 1.45926154092,
			"-0.015": 2.37881104925,
			"-0.014": 1.77523428959,
			"-0.013": 3.71142551899,
			"-0.012": 3.61523537597,
			"-0.011": 2.6213402729,
			"-0.01": 3.88546575578,
			"-0.009": 8.75866021645,
			"-0.008": 7.54776653982,
			"-0.007": 10.6600630365,
			"-0.006": 21.7790598452,
			"-0.005": 27.4496434135,
			"-0.004": 28.0693773052,
			"-0.003": 28.5659104034,
			"-0.002": 31.2686119636,
			"-0.001": 26.8507769712,
			"0.0": 19.2568591656,
			"0.001": 19.0765783879,
			"0.002": 19.61868837,
			"0.003": 22.2030763119,
			"0.004": 18.3553089012,
			"0.005": 19.8740218568,
			"0.006": 14.7574819151,
			"0.007": 9.13158745672,
			"0.008": 11.1029044034,
			"0.009": 17.9953443824,
			"0.01": 20.9051243853,
			"0.011": 8.57325979441,
			"0.012": 0.429682384074,
			"0.013": 0.110189177789,
			"0.014": 0.0,
			"0.015": 0.0,
			"0.016": 0.0,
			"0.017": 0.0,
			"0.018": 0.0,
			"0.019": 0.0,
			"0.02": 0.0,
			"0.021": 0.0,
			"0.022": 0.0,
			"0.023": 0.0,
			"0.024": 0.0,
			"0.025": 0.0
		}
	}
}
