{
	 "smiles": "O=C(NCCN1CCOCC1)C1CCNCC1", 
	 "Tm": 401.15, 
	 "num_atms": 40, 
	 "gaussian": { 
		 "optdone": 1, 
		 "sigma_profile": "yes", 
		 "theory": "DFT", 
		 "functional": "B3LYP", 
		 "basiset": "6-31G**", 
		 "properties": { 
			 "R2extent": 7308.4157, 
			 "electric_dipole_moment_norm": 2.3428995433, 
			 "electric_quadrupole_moment_norm": 12.688008179, 
			 "total_energy": -785.83989151, 
			 "HOMO_LUMO_gap": 0.23874, 
			 "cosmo_polarized_energy": -14.91, 
			 "cosmo_cavitation_energy": 38.74, 
			 "cosmo_dispersion_energy": -28.07, 
			 "cosmo_repulsion_energy": 2.24, 
			 "cosmo_total_nonelectrostatic_energy": 12.9, 
			 "SMD_solvation_energy": 2.25 
		},
		"coords": [
			{
				"x": -0.141628459,
				"y": -2.5562957086,
				"z": -2.4322195772,
				"element": "O" 
			},
			{
				"x": 0.1765894628,
				"y": -1.6538096094,
				"z": -1.6566203915,
				"element": "C" 
			},
			{
				"x": -0.5571618324,
				"y": -0.5083038969,
				"z": -1.5480269137,
				"element": "N" 
			},
			{
				"x": -1.7620026174,
				"y": -0.2685830457,
				"z": -2.3203895975,
				"element": "C" 
			},
			{
				"x": -2.7545555603,
				"y": 0.5552827452,
				"z": -1.4957620513,
				"element": "C" 
			},
			{
				"x": -2.1484291994,
				"y": 1.7814376924,
				"z": -0.9665867839,
				"element": "N" 
			},
			{
				"x": -2.9046180617,
				"y": 2.3376656189,
				"z": 0.1605212326,
				"element": "C" 
			},
			{
				"x": -2.1798655097,
				"y": 3.5605281484,
				"z": 0.7182643891,
				"element": "C" 
			},
			{
				"x": -1.99555027,
				"y": 4.5518408543,
				"z": -0.2822464072,
				"element": "O" 
			},
			{
				"x": -1.2599030995,
				"y": 4.0296433764,
				"z": -1.3787568826,
				"element": "C" 
			},
			{
				"x": -1.9560839347,
				"y": 2.8155275946,
				"z": -1.990517192,
				"element": "C" 
			},
			{
				"x": 1.4079472318,
				"y": -1.7202509739,
				"z": -0.7513184125,
				"element": "C" 
			},
			{
				"x": 2.7175488427,
				"y": -1.7557270901,
				"z": -1.5798348123,
				"element": "C" 
			},
			{
				"x": 2.9688845239,
				"y": -3.1235830454,
				"z": -2.2235183568,
				"element": "C" 
			},
			{
				"x": 2.9773438889,
				"y": -4.1534541533,
				"z": -1.1772123793,
				"element": "N" 
			},
			{
				"x": 1.6717192458,
				"y": -4.2620209975,
				"z": -0.5137926524,
				"element": "C" 
			},
			{
				"x": 1.3569571393,
				"y": -2.9421956446,
				"z": 0.1995819446,
				"element": "C" 
			},
			{
				"x": -0.2911447894,
				"y": 0.2289670297,
				"z": -0.9096473176,
				"element": "H" 
			},
			{
				"x": -1.5258149907,
				"y": 0.2363890254,
				"z": -3.2679861208,
				"element": "H" 
			},
			{
				"x": -2.1953255158,
				"y": -1.2367001706,
				"z": -2.5842939873,
				"element": "H" 
			},
			{
				"x": -3.6534465301,
				"y": 0.7649809803,
				"z": -2.1045217072,
				"element": "H" 
			},
			{
				"x": -3.0764458123,
				"y": -0.047050633,
				"z": -0.6389193126,
				"element": "H" 
			},
			{
				"x": -2.993291588,
				"y": 1.5738292671,
				"z": 0.9418265708,
				"element": "H" 
			},
			{
				"x": -3.9276722892,
				"y": 2.6324465484,
				"z": -0.1407364559,
				"element": "H" 
			},
			{
				"x": -2.7659715969,
				"y": 4.0250778946,
				"z": 1.5164369541,
				"element": "H" 
			},
			{
				"x": -1.2056729007,
				"y": 3.250163316,
				"z": 1.131141863,
				"element": "H" 
			},
			{
				"x": -1.1779561335,
				"y": 4.8355026327,
				"z": -2.1137501105,
				"element": "H" 
			},
			{
				"x": -0.2449890582,
				"y": 3.7441819034,
				"z": -1.0555659175,
				"element": "H" 
			},
			{
				"x": -2.9231020465,
				"y": 3.1321353798,
				"z": -2.4257101434,
				"element": "H" 
			},
			{
				"x": -1.3394514121,
				"y": 2.4185505238,
				"z": -2.8035615209,
				"element": "H" 
			},
			{
				"x": 1.4244373904,
				"y": -0.8123527923,
				"z": -0.1340422039,
				"element": "H" 
			},
			{
				"x": 2.7031629863,
				"y": -0.9735351431,
				"z": -2.3482618042,
				"element": "H" 
			},
			{
				"x": 3.5502254901,
				"y": -1.5351814104,
				"z": -0.9010178878,
				"element": "H" 
			},
			{
				"x": 2.2062447006,
				"y": -3.3041276631,
				"z": -2.9976085569,
				"element": "H" 
			},
			{
				"x": 3.9509763341,
				"y": -3.1182064356,
				"z": -2.7111971092,
				"element": "H" 
			},
			{
				"x": 3.2164696525,
				"y": -5.0499410196,
				"z": -1.5924669971,
				"element": "H" 
			},
			{
				"x": 0.85402325,
				"y": -4.4973675414,
				"z": -1.2123577187,
				"element": "H" 
			},
			{
				"x": 1.72769219,
				"y": -5.0680390894,
				"z": 0.2276358113,
				"element": "H" 
			},
			{
				"x": 0.3773845486,
				"y": -3.0033983569,
				"z": 0.6883528088,
				"element": "H" 
			},
			{
				"x": 2.1070763296,
				"y": -2.7862261107,
				"z": 0.9843857073,
				"element": "H" 
			}
		],
		 "valence_orbital": [ 
			{
				"type": "occ",
				"energy": -0.26271,
				"method": "rhf"
			},
			{
				"type": "occ",
				"energy": -0.2465,
				"method": "rhf"
			},
			{
				"type": "occ",
				"energy": -0.23766,
				"method": "rhf"
			},
			{
				"type": "occ",
				"energy": -0.23251,
				"method": "rhf"
			},
			{
				"type": "occ",
				"energy": -0.20258,
				"method": "rhf"
			},
			{
				"type": "unocc",
				"energy": 0.03616,
				"method": "rhf"
			},
			{
				"type": "unocc",
				"energy": 0.07263,
				"method": "rhf"
			},
			{
				"type": "unocc",
				"energy": 0.08442,
				"method": "rhf"
			},
			{
				"type": "unocc",
				"energy": 0.09739,
				"method": "rhf"
			},
			{
				"type": "unocc",
				"energy": 0.10387,
				"method": "rhf"
			}
		],
		"cosmo_sigma_profile": { 
			"-0.025": 0.0,
			"-0.024": 0.0,
			"-0.023": 0.0,
			"-0.022": 0.0,
			"-0.021": 0.0,
			"-0.02": 0.0,
			"-0.019": 0.0,
			"-0.018": 0.0,
			"-0.017": 0.0,
			"-0.016": 0.0,
			"-0.015": 0.0,
			"-0.014": 0.0,
			"-0.013": 0.0,
			"-0.012": 0.0,
			"-0.011": 0.0325271628091,
			"-0.01": 1.06296537067,
			"-0.009": 2.82961617404,
			"-0.008": 2.12461067945,
			"-0.007": 1.81384532549,
			"-0.006": 3.29778611216,
			"-0.005": 13.7541129495,
			"-0.004": 23.4143217894,
			"-0.003": 45.4189085278,
			"-0.002": 54.4732915738,
			"-0.001": 36.8878161784,
			"0.0": 28.5220643273,
			"0.001": 17.7793603924,
			"0.002": 9.29559238716,
			"0.003": 6.73846723442,
			"0.004": 6.38711590471,
			"0.005": 4.28275850743,
			"0.006": 4.59251142807,
			"0.007": 4.38765044453,
			"0.008": 4.27779928606,
			"0.009": 3.33920206428,
			"0.01": 3.13960494253,
			"0.011": 4.52769418291,
			"0.012": 3.45019272203,
			"0.013": 4.25691147852,
			"0.014": 4.23653153764,
			"0.015": 2.69583824568,
			"0.016": 0.425609726117,
			"0.017": 0.456291311954,
			"0.018": 0.398615201513,
			"0.019": 0.233187074191,
			"0.02": 0.0,
			"0.021": 0.0,
			"0.022": 0.0,
			"0.023": 0.0,
			"0.024": 0.0,
			"0.025": 0.0
		}
	}
}
