{
	 "smiles": "COC1=C(C=C(C=C1)C(O)=O)C1=NN(C)C=C1", 
	 "Tm": 453.15, 
	 "num_atms": 29, 
	 "gaussian": { 
		 "optdone": 1, 
		 "sigma_profile": "yes", 
		 "theory": "DFT", 
		 "functional": "B3LYP", 
		 "basiset": "6-31G**", 
		 "properties": { 
			 "R2extent": 4859.6151, 
			 "electric_dipole_moment_norm": 6.80633255873, 
			 "electric_quadrupole_moment_norm": 32.8016938372, 
			 "total_energy": -799.664862592, 
			 "HOMO_LUMO_gap": 0.17912, 
			 "cosmo_polarized_energy": -21.87, 
			 "cosmo_cavitation_energy": 33.54, 
			 "cosmo_dispersion_energy": -24.42, 
			 "cosmo_repulsion_energy": 1.88, 
			 "cosmo_total_nonelectrostatic_energy": 11.0, 
			 "SMD_solvation_energy": 7.27 
		},
		"coords": [
			{
				"x": -2.0878649616,
				"y": 1.5272891668,
				"z": 3.1826132396,
				"element": "C" 
			},
			{
				"x": -1.0335965412,
				"y": 1.0353437067,
				"z": 2.3676418664,
				"element": "O" 
			},
			{
				"x": -1.3180573267,
				"y": 0.5975148445,
				"z": 1.1099590689,
				"element": "C" 
			},
			{
				"x": -0.2269175363,
				"y": 0.1364988814,
				"z": 0.3288917739,
				"element": "C" 
			},
			{
				"x": -0.5019676957,
				"y": -0.3139442398,
				"z": -0.9660546508,
				"element": "C" 
			},
			{
				"x": -1.7919361505,
				"y": -0.3014553709,
				"z": -1.5071336595,
				"element": "C" 
			},
			{
				"x": -2.853231431,
				"y": 0.144775026,
				"z": -0.7107226668,
				"element": "C" 
			},
			{
				"x": -2.6181608695,
				"y": 0.5886928015,
				"z": 0.5873389548,
				"element": "C" 
			},
			{
				"x": -1.9730461419,
				"y": -0.8093223842,
				"z": -2.901121357,
				"element": "C" 
			},
			{
				"x": -3.1088493449,
				"y": -0.4158272215,
				"z": -3.5482385538,
				"element": "O" 
			},
			{
				"x": -1.1837753504,
				"y": -1.5309799859,
				"z": -3.4645978155,
				"element": "O" 
			},
			{
				"x": 1.1662878209,
				"y": 0.1148870904,
				"z": 0.8132328098,
				"element": "C" 
			},
			{
				"x": 2.1447159225,
				"y": -0.1827808987,
				"z": -0.0596957425,
				"element": "N" 
			},
			{
				"x": 3.2816460217,
				"y": -0.1587983415,
				"z": 0.6523920058,
				"element": "N" 
			},
			{
				"x": 4.5467185914,
				"y": -0.3973649457,
				"z": -0.0161864057,
				"element": "C" 
			},
			{
				"x": 3.0667070554,
				"y": 0.1529862082,
				"z": 1.9590455201,
				"element": "C" 
			},
			{
				"x": 1.7080282768,
				"y": 0.3386519329,
				"z": 2.107756709,
				"element": "C" 
			},
			{
				"x": -1.6220773287,
				"y": 1.833370127,
				"z": 4.1203365081,
				"element": "H" 
			},
			{
				"x": -2.5806322407,
				"y": 2.3936756679,
				"z": 2.7246496239,
				"element": "H" 
			},
			{
				"x": -2.8358067998,
				"y": 0.7515339642,
				"z": 3.3878707124,
				"element": "H" 
			},
			{
				"x": 0.3150940459,
				"y": -0.6817930718,
				"z": -1.5748457466,
				"element": "H" 
			},
			{
				"x": -3.8795273185,
				"y": 0.1112974798,
				"z": -1.0683760115,
				"element": "H" 
			},
			{
				"x": -3.4533981949,
				"y": 0.9184376037,
				"z": 1.1921701156,
				"element": "H" 
			},
			{
				"x": -3.5406644974,
				"y": 0.2910824701,
				"z": -3.0494402399,
				"element": "H" 
			},
			{
				"x": 4.4801658483,
				"y": -1.3145847473,
				"z": -0.6050672246,
				"element": "H" 
			},
			{
				"x": 5.3306466451,
				"y": -0.5040583446,
				"z": 0.7355313838,
				"element": "H" 
			},
			{
				"x": 4.7943108843,
				"y": 0.4344680133,
				"z": -0.6824971822,
				"element": "H" 
			},
			{
				"x": 3.8802487303,
				"y": 0.2153176605,
				"z": 2.6672441529,
				"element": "H" 
			},
			{
				"x": 1.1774398873,
				"y": 0.5863869071,
				"z": 3.0099028115,
				"element": "H" 
			}
		],
		 "valence_orbital": [ 
			{
				"type": "occ",
				"energy": -0.28461,
				"method": "rhf"
			},
			{
				"type": "occ",
				"energy": -0.2607,
				"method": "rhf"
			},
			{
				"type": "occ",
				"energy": -0.24288,
				"method": "rhf"
			},
			{
				"type": "occ",
				"energy": -0.23972,
				"method": "rhf"
			},
			{
				"type": "occ",
				"energy": -0.21422,
				"method": "rhf"
			},
			{
				"type": "unocc",
				"energy": -0.0351,
				"method": "rhf"
			},
			{
				"type": "unocc",
				"energy": -0.02285,
				"method": "rhf"
			},
			{
				"type": "unocc",
				"energy": 0.02774,
				"method": "rhf"
			},
			{
				"type": "unocc",
				"energy": 0.05345,
				"method": "rhf"
			},
			{
				"type": "unocc",
				"energy": 0.07115,
				"method": "rhf"
			}
		],
		"cosmo_sigma_profile": { 
			"-0.025": 0.0,
			"-0.024": 0.0,
			"-0.023": 0.0,
			"-0.022": 0.0,
			"-0.021": 0.0,
			"-0.02": 0.0,
			"-0.019": 0.0,
			"-0.018": 0.544785520159,
			"-0.017": 0.908503948033,
			"-0.016": 0.852868373586,
			"-0.015": 0.82670431314,
			"-0.014": 1.39772811993,
			"-0.013": 0.84206075404,
			"-0.012": 1.2609636998,
			"-0.011": 1.44197985067,
			"-0.01": 0.740516089033,
			"-0.009": 2.73492482652,
			"-0.008": 6.0175473299,
			"-0.007": 9.72224842234,
			"-0.006": 18.2266000504,
			"-0.005": 19.3455255981,
			"-0.004": 20.0508986798,
			"-0.003": 23.4647745551,
			"-0.002": 11.3783514485,
			"-0.001": 12.409360597,
			"0.0": 12.4434240149,
			"0.001": 12.0957211346,
			"0.002": 15.8015623231,
			"0.003": 23.1548576458,
			"0.004": 16.5674014036,
			"0.005": 11.352952284,
			"0.006": 8.45806918574,
			"0.007": 5.6474061039,
			"0.008": 3.59721118623,
			"0.009": 4.91694903029,
			"0.01": 5.28767351505,
			"0.011": 6.6395912076,
			"0.012": 6.53427939525,
			"0.013": 3.13709435288,
			"0.014": 0.331160676062,
			"0.015": 0.0,
			"0.016": 0.0,
			"0.017": 0.0,
			"0.018": 0.0,
			"0.019": 0.0,
			"0.02": 0.0,
			"0.021": 0.0,
			"0.022": 0.0,
			"0.023": 0.0,
			"0.024": 0.0,
			"0.025": 0.0
		}
	}
}
