{
	 "smiles": "CC1=CC(NC(=O)NC2=CC(CN)=CC=C2)=CC=C1", 
	 "Tm": 437.15, 
	 "num_atms": 36, 
	 "gaussian": { 
		 "optdone": 1, 
		 "sigma_profile": "yes", 
		 "theory": "DFT", 
		 "functional": "B3LYP", 
		 "basiset": "6-31G**", 
		 "properties": { 
			 "R2extent": 9258.9211, 
			 "electric_dipole_moment_norm": 2.50850244967, 
			 "electric_quadrupole_moment_norm": 10.2498733485, 
			 "total_energy": -821.354175397, 
			 "HOMO_LUMO_gap": 0.19593, 
			 "cosmo_polarized_energy": -21.36, 
			 "cosmo_cavitation_energy": 39.89, 
			 "cosmo_dispersion_energy": -29.06, 
			 "cosmo_repulsion_energy": 2.24, 
			 "cosmo_total_nonelectrostatic_energy": 13.07, 
			 "SMD_solvation_energy": 5.6 
		},
		"coords": [
			{
				"x": -5.3471661607,
				"y": -0.8213597503,
				"z": 3.3220196811,
				"element": "C" 
			},
			{
				"x": -4.7956149758,
				"y": -1.0465690651,
				"z": 1.9326910677,
				"element": "C" 
			},
			{
				"x": -3.4916224998,
				"y": -0.6321875342,
				"z": 1.6309697858,
				"element": "C" 
			},
			{
				"x": -2.9546775779,
				"y": -0.8575070559,
				"z": 0.3562936718,
				"element": "C" 
			},
			{
				"x": -1.6518608717,
				"y": -0.4697236776,
				"z": -0.0247702845,
				"element": "N" 
			},
			{
				"x": -0.6851501944,
				"y": 0.1703205854,
				"z": 0.7377168855,
				"element": "C" 
			},
			{
				"x": -0.8427254237,
				"y": 0.5074734055,
				"z": 1.903276499,
				"element": "O" 
			},
			{
				"x": 0.486315321,
				"y": 0.3835858075,
				"z": 0.0208188736,
				"element": "N" 
			},
			{
				"x": 1.6741649473,
				"y": 1.0064289777,
				"z": 0.4554888363,
				"element": "C" 
			},
			{
				"x": 2.7272363183,
				"y": 1.0811472507,
				"z": -0.4716119078,
				"element": "C" 
			},
			{
				"x": 3.9449938063,
				"y": 1.6826352502,
				"z": -0.148170651,
				"element": "C" 
			},
			{
				"x": 5.0902417718,
				"y": 1.6897099065,
				"z": -1.1468816304,
				"element": "C" 
			},
			{
				"x": 6.0563552083,
				"y": 0.5864604997,
				"z": -1.0108851539,
				"element": "N" 
			},
			{
				"x": 4.1055017461,
				"y": 2.2279591435,
				"z": 1.1329143153,
				"element": "C" 
			},
			{
				"x": 3.0639380237,
				"y": 2.1545566318,
				"z": 2.0559076674,
				"element": "C" 
			},
			{
				"x": 1.8476553493,
				"y": 1.5493033867,
				"z": 1.7376542665,
				"element": "C" 
			},
			{
				"x": -3.7345864341,
				"y": -1.5001750975,
				"z": -0.6197105766,
				"element": "C" 
			},
			{
				"x": -5.0295025335,
				"y": -1.9071674404,
				"z": -0.3183095647,
				"element": "C" 
			},
			{
				"x": -5.5636312319,
				"y": -1.6830538093,
				"z": 0.9511578298,
				"element": "C" 
			},
			{
				"x": -6.4403252415,
				"y": -0.8590189531,
				"z": 3.3294044833,
				"element": "H" 
			},
			{
				"x": -4.9867576037,
				"y": -1.5887602083,
				"z": 4.0183238753,
				"element": "H" 
			},
			{
				"x": -5.0361830402,
				"y": 0.1482492186,
				"z": 3.7229066182,
				"element": "H" 
			},
			{
				"x": -2.8873543664,
				"y": -0.134017004,
				"z": 2.3762457263,
				"element": "H" 
			},
			{
				"x": -1.4193610953,
				"y": -0.6958061032,
				"z": -0.9805784278,
				"element": "H" 
			},
			{
				"x": 0.5170252081,
				"y": 0.0572426828,
				"z": -0.9338541384,
				"element": "H" 
			},
			{
				"x": 2.5909138917,
				"y": 0.6649303826,
				"z": -1.4697974436,
				"element": "H" 
			},
			{
				"x": 4.691039606,
				"y": 1.657589902,
				"z": -2.1673262848,
				"element": "H" 
			},
			{
				"x": 5.6487588449,
				"y": 2.6285057384,
				"z": -1.058572546,
				"element": "H" 
			},
			{
				"x": 5.5577163911,
				"y": -0.3001219829,
				"z": -1.0642927883,
				"element": "H" 
			},
			{
				"x": 6.4606152166,
				"y": 0.6120773388,
				"z": -0.0764431022,
				"element": "H" 
			},
			{
				"x": 5.0413486093,
				"y": 2.7125812993,
				"z": 1.4008434031,
				"element": "H" 
			},
			{
				"x": 3.1902493464,
				"y": 2.581867065,
				"z": 3.0469401638,
				"element": "H" 
			},
			{
				"x": 1.041288641,
				"y": 1.4965892578,
				"z": 2.4540854331,
				"element": "H" 
			},
			{
				"x": -3.3256976383,
				"y": -1.6756633505,
				"z": -1.6127692428,
				"element": "H" 
			},
			{
				"x": -5.6259592089,
				"y": -2.3993219727,
				"z": -1.0812921084,
				"element": "H" 
			},
			{
				"x": -6.5772821492,
				"y": -2.0010607256,
				"z": 1.1790067682,
				"element": "H" 
			}
		],
		 "valence_orbital": [ 
			{
				"type": "occ",
				"energy": -0.25443,
				"method": "rhf"
			},
			{
				"type": "occ",
				"energy": -0.24039,
				"method": "rhf"
			},
			{
				"type": "occ",
				"energy": -0.23366,
				"method": "rhf"
			},
			{
				"type": "occ",
				"energy": -0.2254,
				"method": "rhf"
			},
			{
				"type": "occ",
				"energy": -0.20758,
				"method": "rhf"
			},
			{
				"type": "unocc",
				"energy": -0.01165,
				"method": "rhf"
			},
			{
				"type": "unocc",
				"energy": -0.00232,
				"method": "rhf"
			},
			{
				"type": "unocc",
				"energy": 0.00185,
				"method": "rhf"
			},
			{
				"type": "unocc",
				"energy": 0.0153,
				"method": "rhf"
			},
			{
				"type": "unocc",
				"energy": 0.04012,
				"method": "rhf"
			}
		],
		"cosmo_sigma_profile": { 
			"-0.025": 0.0,
			"-0.024": 0.0,
			"-0.023": 0.0,
			"-0.022": 0.0,
			"-0.021": 0.0,
			"-0.02": 0.152023682174,
			"-0.019": 0.927198142376,
			"-0.018": 1.0949711883,
			"-0.017": 1.29035131007,
			"-0.016": 1.67826644445,
			"-0.015": 1.85084204608,
			"-0.014": 1.31527831922,
			"-0.013": 1.80639418765,
			"-0.012": 1.4354471097,
			"-0.011": 2.06564181618,
			"-0.01": 2.94169791105,
			"-0.009": 2.88039579291,
			"-0.008": 4.76684210585,
			"-0.007": 5.81498976712,
			"-0.006": 7.4610231914,
			"-0.005": 15.716988346,
			"-0.004": 25.3703533047,
			"-0.003": 24.7401271646,
			"-0.002": 23.0545846396,
			"-0.001": 20.9913243817,
			"0.0": 24.3110540321,
			"0.001": 19.1792639301,
			"0.002": 18.7005740015,
			"0.003": 19.8863617763,
			"0.004": 21.0133056104,
			"0.005": 20.1592462681,
			"0.006": 19.0108236885,
			"0.007": 7.71270013604,
			"0.008": 2.99911431083,
			"0.009": 1.65278433424,
			"0.01": 2.31118747155,
			"0.011": 2.57794270459,
			"0.012": 3.6704677608,
			"0.013": 1.59677724705,
			"0.014": 0.787376151883,
			"0.015": 0.671556106066,
			"0.016": 0.53839341666,
			"0.017": 0.12012704001,
			"0.018": 0.973056667656,
			"0.019": 0.676468871859,
			"0.02": 0.352612843522,
			"0.021": 0.0,
			"0.022": 0.0,
			"0.023": 0.0,
			"0.024": 0.0,
			"0.025": 0.0
		}
	}
}
