{
	 "smiles": "CN1C(=O)C(C2=NNC(=O)C2=CC2=CNC3=C2C=CC=C3)=C(O)C2=CC=CC=C12", 
	 "Tm": 570.15, 
	 "num_atms": 45, 
	 "gaussian": { 
		 "optdone": 1, 
		 "sigma_profile": "yes", 
		 "theory": "DFT", 
		 "functional": "B3LYP", 
		 "basiset": "6-31G**", 
		 "properties": { 
			 "R2extent": 9594.9706, 
			 "electric_dipole_moment_norm": 9.35737183081, 
			 "electric_quadrupole_moment_norm": 21.5299175479, 
			 "total_energy": -1292.649223, 
			 "HOMO_LUMO_gap": 0.12625, 
			 "cosmo_polarized_energy": -36.71, 
			 "cosmo_cavitation_energy": 48.52, 
			 "cosmo_dispersion_energy": -32.33, 
			 "cosmo_repulsion_energy": 2.4, 
			 "cosmo_total_nonelectrostatic_energy": 18.6, 
			 "SMD_solvation_energy": 8.07 
		},
		"coords": [
			{
				"x": -3.0227101961,
				"y": -0.8441409374,
				"z": 2.2140384287,
				"element": "C" 
			},
			{
				"x": -2.0717241294,
				"y": 0.1112248085,
				"z": 1.6474616006,
				"element": "N" 
			},
			{
				"x": -0.7123632658,
				"y": -0.0629822715,
				"z": 1.9984116368,
				"element": "C" 
			},
			{
				"x": -0.3728634364,
				"y": -1.0058422406,
				"z": 2.7103016845,
				"element": "O" 
			},
			{
				"x": 0.2281497001,
				"y": 0.9251115647,
				"z": 1.4728799169,
				"element": "C" 
			},
			{
				"x": 1.6251638274,
				"y": 0.8878214681,
				"z": 1.9630683473,
				"element": "C" 
			},
			{
				"x": 1.8509106154,
				"y": 1.1648363712,
				"z": 3.220915548,
				"element": "N" 
			},
			{
				"x": 3.2128755143,
				"y": 1.1760179784,
				"z": 3.4061649593,
				"element": "N" 
			},
			{
				"x": 3.9414622447,
				"y": 1.0095372641,
				"z": 2.2428815387,
				"element": "C" 
			},
			{
				"x": 5.1585789159,
				"y": 1.0565525737,
				"z": 2.1220257455,
				"element": "O" 
			},
			{
				"x": 2.8786910371,
				"y": 0.7392112356,
				"z": 1.2226272037,
				"element": "C" 
			},
			{
				"x": 3.2571148653,
				"y": 0.4950723233,
				"z": -0.0597672855,
				"element": "C" 
			},
			{
				"x": 2.5276450875,
				"y": 0.0487799736,
				"z": -1.2207980884,
				"element": "C" 
			},
			{
				"x": 2.8917558329,
				"y": 0.3995759935,
				"z": -2.5126433891,
				"element": "C" 
			},
			{
				"x": 2.0481534777,
				"y": -0.1872050489,
				"z": -3.4157271664,
				"element": "N" 
			},
			{
				"x": 1.1365638688,
				"y": -0.9884778715,
				"z": -2.7449870996,
				"element": "C" 
			},
			{
				"x": 1.4086855112,
				"y": -0.8701121761,
				"z": -1.3569791539,
				"element": "C" 
			},
			{
				"x": 0.686568617,
				"y": -1.6742238266,
				"z": -0.459776565,
				"element": "C" 
			},
			{
				"x": -0.3033381243,
				"y": -2.5137704961,
				"z": -0.9581109638,
				"element": "C" 
			},
			{
				"x": -0.5841690725,
				"y": -2.581260146,
				"z": -2.3373141516,
				"element": "C" 
			},
			{
				"x": 0.1389871594,
				"y": -1.8255406031,
				"z": -3.2529331179,
				"element": "C" 
			},
			{
				"x": -0.1940097337,
				"y": 1.9044878351,
				"z": 0.6195293581,
				"element": "C" 
			},
			{
				"x": 0.7151550805,
				"y": 2.8081721725,
				"z": 0.173409975,
				"element": "O" 
			},
			{
				"x": -1.5751987498,
				"y": 1.9898580333,
				"z": 0.1926820206,
				"element": "C" 
			},
			{
				"x": -2.0252964079,
				"y": 2.9352312363,
				"z": -0.7473399614,
				"element": "C" 
			},
			{
				"x": -3.361796782,
				"y": 3.0237136503,
				"z": -1.1042508678,
				"element": "C" 
			},
			{
				"x": -4.2812742376,
				"y": 2.1450294166,
				"z": -0.5186318444,
				"element": "C" 
			},
			{
				"x": -3.865745311,
				"y": 1.1860004195,
				"z": 0.3946569714,
				"element": "C" 
			},
			{
				"x": -2.5076151582,
				"y": 1.0807707561,
				"z": 0.7606755329,
				"element": "C" 
			},
			{
				"x": -3.4999994061,
				"y": -1.4328662709,
				"z": 1.4238161685,
				"element": "H" 
			},
			{
				"x": -2.4566631164,
				"y": -1.5046995939,
				"z": 2.866874555,
				"element": "H" 
			},
			{
				"x": -3.7932729637,
				"y": -0.3244375563,
				"z": 2.7917041828,
				"element": "H" 
			},
			{
				"x": 3.5841391644,
				"y": 1.4427694928,
				"z": 4.3042718526,
				"element": "H" 
			},
			{
				"x": 4.3246084094,
				"y": 0.6639335821,
				"z": -0.2189987496,
				"element": "H" 
			},
			{
				"x": 3.6860495297,
				"y": 1.0569239797,
				"z": -2.8378293669,
				"element": "H" 
			},
			{
				"x": 2.1011199674,
				"y": -0.0769452835,
				"z": -4.4156942555,
				"element": "H" 
			},
			{
				"x": 0.8961310078,
				"y": -1.6545629363,
				"z": 0.6034960379,
				"element": "H" 
			},
			{
				"x": -0.8655096813,
				"y": -3.1361189491,
				"z": -0.2683530404,
				"element": "H" 
			},
			{
				"x": -1.3656682117,
				"y": -3.2460520467,
				"z": -2.6933988384,
				"element": "H" 
			},
			{
				"x": -0.0522601995,
				"y": -1.8949776058,
				"z": -4.3200812803,
				"element": "H" 
			},
			{
				"x": 0.2612646867,
				"y": 3.570768765,
				"z": -0.2062035137,
				"element": "H" 
			},
			{
				"x": -1.3148359742,
				"y": 3.5992500138,
				"z": -1.2342285518,
				"element": "H" 
			},
			{
				"x": -3.6870559565,
				"y": 3.7589489279,
				"z": -1.8327279153,
				"element": "H" 
			},
			{
				"x": -5.3326367562,
				"y": 2.202585543,
				"z": -0.7843970971,
				"element": "H" 
			},
			{
				"x": -4.5957672502,
				"y": 0.5113304816,
				"z": 0.8220789987,
				"element": "H" 
			}
		],
		 "valence_orbital": [ 
			{
				"type": "occ",
				"energy": -0.23277,
				"method": "rhf"
			},
			{
				"type": "occ",
				"energy": -0.23045,
				"method": "rhf"
			},
			{
				"type": "occ",
				"energy": -0.22498,
				"method": "rhf"
			},
			{
				"type": "occ",
				"energy": -0.21585,
				"method": "rhf"
			},
			{
				"type": "occ",
				"energy": -0.19254,
				"method": "rhf"
			},
			{
				"type": "unocc",
				"energy": -0.06629,
				"method": "rhf"
			},
			{
				"type": "unocc",
				"energy": -0.0526,
				"method": "rhf"
			},
			{
				"type": "unocc",
				"energy": -0.01388,
				"method": "rhf"
			},
			{
				"type": "unocc",
				"energy": -0.01285,
				"method": "rhf"
			},
			{
				"type": "unocc",
				"energy": 0.02048,
				"method": "rhf"
			}
		],
		"cosmo_sigma_profile": { 
			"-0.025": 0.0,
			"-0.024": 0.0,
			"-0.023": 0.0,
			"-0.022": 0.0,
			"-0.021": 0.0,
			"-0.02": 0.0,
			"-0.019": 0.452540082797,
			"-0.018": 0.812578099487,
			"-0.017": 1.65446006966,
			"-0.016": 3.22657765151,
			"-0.015": 3.16128094636,
			"-0.014": 3.5772332205,
			"-0.013": 4.1600153807,
			"-0.012": 2.98842145142,
			"-0.011": 3.00625673813,
			"-0.01": 4.08329602189,
			"-0.009": 6.1284651472,
			"-0.008": 4.92731811906,
			"-0.007": 11.0030765201,
			"-0.006": 20.8786888406,
			"-0.005": 21.0462924661,
			"-0.004": 22.4975733782,
			"-0.003": 19.8513719489,
			"-0.002": 18.9080636768,
			"-0.001": 22.6548306669,
			"0.0": 25.1563993352,
			"0.001": 28.5747259215,
			"0.002": 32.1648459202,
			"0.003": 27.3132402548,
			"0.004": 22.9402424623,
			"0.005": 15.8475318711,
			"0.006": 12.2240853037,
			"0.007": 5.96657836586,
			"0.008": 5.8706402395,
			"0.009": 4.8136375284,
			"0.01": 3.72572256432,
			"0.011": 4.48242407822,
			"0.012": 4.35542944483,
			"0.013": 9.49731299345,
			"0.014": 9.60877551015,
			"0.015": 1.98274579002,
			"0.016": 0.0,
			"0.017": 0.0,
			"0.018": 0.0,
			"0.019": 0.0,
			"0.02": 0.0,
			"0.021": 0.0,
			"0.022": 0.0,
			"0.023": 0.0,
			"0.024": 0.0,
			"0.025": 0.0
		}
	}
}
