{
	 "smiles": "CC(Cl)C(=O)N1CCN(CC1)C1=NC=CC=N1", 
	 "Tm": 370.15, 
	 "num_atms": 32, 
	 "gaussian": { 
		 "optdone": 1, 
		 "sigma_profile": "yes", 
		 "theory": "DFT", 
		 "functional": "B3LYP", 
		 "basiset": "6-31G**", 
		 "properties": { 
			 "R2extent": 6985.1038, 
			 "electric_dipole_moment_norm": 3.15829141942, 
			 "electric_quadrupole_moment_norm": 12.2999004516, 
			 "total_energy": -1182.64571297, 
			 "HOMO_LUMO_gap": 0.1829, 
			 "cosmo_polarized_energy": -13.58, 
			 "cosmo_cavitation_energy": 35.55, 
			 "cosmo_dispersion_energy": -25.85, 
			 "cosmo_repulsion_energy": 2.01, 
			 "cosmo_total_nonelectrostatic_energy": 11.71, 
			 "SMD_solvation_energy": 2.87 
		},
		"coords": [
			{
				"x": -0.074451591,
				"y": 5.2298839509,
				"z": -1.5978242276,
				"element": "C" 
			},
			{
				"x": -0.4180156909,
				"y": 4.2371336226,
				"z": -2.7056610338,
				"element": "C" 
			},
			{
				"x": 1.0699667957,
				"y": 3.8215257416,
				"z": -3.702322121,
				"element": "Cl" 
			},
			{
				"x": -1.2111464258,
				"y": 3.0096731488,
				"z": -2.2210628381,
				"element": "C" 
			},
			{
				"x": -2.4235639521,
				"y": 3.0241512964,
				"z": -2.4263136468,
				"element": "O" 
			},
			{
				"x": -0.6210699665,
				"y": 1.9800441454,
				"z": -1.5495754718,
				"element": "N" 
			},
			{
				"x": 0.7854940934,
				"y": 1.8517833688,
				"z": -1.1616258363,
				"element": "C" 
			},
			{
				"x": 0.9094962997,
				"y": 1.3383971608,
				"z": 0.2736141239,
				"element": "C" 
			},
			{
				"x": 0.1914663202,
				"y": 0.0723203013,
				"z": 0.4198916317,
				"element": "N" 
			},
			{
				"x": -0.7152099765,
				"y": -0.3212132685,
				"z": -0.6548935664,
				"element": "C" 
			},
			{
				"x": -1.5170234003,
				"y": 0.8783250684,
				"z": -1.1513220012,
				"element": "C" 
			},
			{
				"x": 0.3432000244,
				"y": -0.6736137963,
				"z": 1.555246048,
				"element": "C" 
			},
			{
				"x": -0.3369795947,
				"y": -1.839771483,
				"z": 1.6377796422,
				"element": "N" 
			},
			{
				"x": -0.1669182235,
				"y": -2.5377263473,
				"z": 2.7588315003,
				"element": "C" 
			},
			{
				"x": 0.6636385818,
				"y": -2.1221202937,
				"z": 3.8000003183,
				"element": "C" 
			},
			{
				"x": 1.3159017789,
				"y": -0.9062925,
				"z": 3.6014552437,
				"element": "C" 
			},
			{
				"x": 1.1700863408,
				"y": -0.1697801164,
				"z": 2.5001522236,
				"element": "N" 
			},
			{
				"x": 0.3563666869,
				"y": 6.1389066384,
				"z": -2.0240419776,
				"element": "H" 
			},
			{
				"x": 0.6319789075,
				"y": 4.8229720806,
				"z": -0.8704881544,
				"element": "H" 
			},
			{
				"x": -0.9974599296,
				"y": 5.4955989292,
				"z": -1.0714405245,
				"element": "H" 
			},
			{
				"x": -1.0890429841,
				"y": 4.7051172668,
				"z": -3.4233334462,
				"element": "H" 
			},
			{
				"x": 1.2825320773,
				"y": 2.8159876298,
				"z": -1.2316578041,
				"element": "H" 
			},
			{
				"x": 1.3114700273,
				"y": 1.17826582,
				"z": -1.8502591431,
				"element": "H" 
			},
			{
				"x": 0.5173041487,
				"y": 2.0860567707,
				"z": 0.9765680986,
				"element": "H" 
			},
			{
				"x": 1.9663091324,
				"y": 1.1976810562,
				"z": 0.5206966632,
				"element": "H" 
			},
			{
				"x": -0.1578526713,
				"y": -0.7767566636,
				"z": -1.4862093835,
				"element": "H" 
			},
			{
				"x": -1.3906800804,
				"y": -1.0831011371,
				"z": -0.267276704,
				"element": "H" 
			},
			{
				"x": -2.2013886849,
				"y": 1.2281288074,
				"z": -0.3690331446,
				"element": "H" 
			},
			{
				"x": -2.1337460243,
				"y": 0.5948675389,
				"z": -2.0091532799,
				"element": "H" 
			},
			{
				"x": -0.7191363093,
				"y": -3.4747217316,
				"z": 2.8248589618,
				"element": "H" 
			},
			{
				"x": 0.7929320208,
				"y": -2.7061957389,
				"z": 4.7030877159,
				"element": "H" 
			},
			{
				"x": 1.9845422693,
				"y": -0.5006272668,
				"z": 4.3602121336,
				"element": "H" 
			}
		],
		 "valence_orbital": [ 
			{
				"type": "occ",
				"energy": -0.29947,
				"method": "rhf"
			},
			{
				"type": "occ",
				"energy": -0.25456,
				"method": "rhf"
			},
			{
				"type": "occ",
				"energy": -0.24934,
				"method": "rhf"
			},
			{
				"type": "occ",
				"energy": -0.24353,
				"method": "rhf"
			},
			{
				"type": "occ",
				"energy": -0.21651,
				"method": "rhf"
			},
			{
				"type": "unocc",
				"energy": -0.03361,
				"method": "rhf"
			},
			{
				"type": "unocc",
				"energy": -0.0099,
				"method": "rhf"
			},
			{
				"type": "unocc",
				"energy": -0.00058,
				"method": "rhf"
			},
			{
				"type": "unocc",
				"energy": 0.04477,
				"method": "rhf"
			},
			{
				"type": "unocc",
				"energy": 0.06948,
				"method": "rhf"
			}
		],
		"cosmo_sigma_profile": { 
			"-0.025": 0.0,
			"-0.024": 0.0,
			"-0.023": 0.0,
			"-0.022": 0.0,
			"-0.021": 0.0,
			"-0.02": 0.0,
			"-0.019": 0.0,
			"-0.018": 0.0,
			"-0.017": 0.0,
			"-0.016": 0.0,
			"-0.015": 0.0,
			"-0.014": 0.0,
			"-0.013": 0.0,
			"-0.012": 0.0,
			"-0.011": 0.0,
			"-0.01": 0.0,
			"-0.009": 0.0,
			"-0.008": 0.89199503973,
			"-0.007": 8.40606349317,
			"-0.006": 14.7527212935,
			"-0.005": 31.935130003,
			"-0.004": 30.3759703835,
			"-0.003": 25.2523695436,
			"-0.002": 20.0641788449,
			"-0.001": 18.2766991508,
			"0.0": 18.4668622663,
			"0.001": 20.0896066251,
			"0.002": 18.3096637149,
			"0.003": 14.6701181056,
			"0.004": 11.0583734014,
			"0.005": 9.9898942876,
			"0.006": 9.5022407011,
			"0.007": 5.50786355907,
			"0.008": 3.63951315372,
			"0.009": 2.75577900334,
			"0.01": 3.80023982895,
			"0.011": 3.72762527283,
			"0.012": 2.91515733792,
			"0.013": 5.35762646748,
			"0.014": 3.07636921798,
			"0.015": 0.0382155983933,
			"0.016": 0.0,
			"0.017": 0.0,
			"0.018": 0.0,
			"0.019": 0.0,
			"0.02": 0.0,
			"0.021": 0.0,
			"0.022": 0.0,
			"0.023": 0.0,
			"0.024": 0.0,
			"0.025": 0.0
		}
	}
}
