{
	 "smiles": "OC(=O)CC1=C(F)C=C(F)C=C1F", 
	 "Tm": 384.15, 
	 "num_atms": 18, 
	 "gaussian": { 
		 "optdone": 1, 
		 "sigma_profile": "yes", 
		 "theory": "DFT", 
		 "functional": "B3LYP", 
		 "basiset": "6-31G**", 
		 "properties": { 
			 "R2extent": 2884.2646, 
			 "electric_dipole_moment_norm": 4.43705789685, 
			 "electric_quadrupole_moment_norm": 18.8761815445, 
			 "total_energy": -757.822904464, 
			 "HOMO_LUMO_gap": 0.22358, 
			 "cosmo_polarized_energy": -12.0, 
			 "cosmo_cavitation_energy": 24.22, 
			 "cosmo_dispersion_energy": -17.29, 
			 "cosmo_repulsion_energy": 1.3, 
			 "cosmo_total_nonelectrostatic_energy": 8.24, 
			 "SMD_solvation_energy": 6.63 
		},
		"coords": [
			{
				"x": -0.6071589918,
				"y": -2.4821360133,
				"z": -2.4485564099,
				"element": "O" 
			},
			{
				"x": -1.8023689852,
				"y": -1.8700550603,
				"z": -2.2772858937,
				"element": "C" 
			},
			{
				"x": -2.4410951205,
				"y": -1.4833354882,
				"z": -3.2215235745,
				"element": "O" 
			},
			{
				"x": -2.2799255404,
				"y": -1.7282800127,
				"z": -0.8212989903,
				"element": "C" 
			},
			{
				"x": -1.3786381805,
				"y": -0.8782502075,
				"z": 0.0453440509,
				"element": "C" 
			},
			{
				"x": -1.6839539491,
				"y": 0.4505579203,
				"z": 0.3603630589,
				"element": "C" 
			},
			{
				"x": -2.8193697139,
				"y": 0.9753811436,
				"z": -0.129967768,
				"element": "F" 
			},
			{
				"x": -0.8834699688,
				"y": 1.2536472822,
				"z": 1.1648289676,
				"element": "C" 
			},
			{
				"x": 0.2822433831,
				"y": 0.6946852994,
				"z": 1.6749025198,
				"element": "C" 
			},
			{
				"x": 1.0758493749,
				"y": 1.4472049324,
				"z": 2.4526633453,
				"element": "F" 
			},
			{
				"x": 0.659296554,
				"y": -0.617764285,
				"z": 1.4066945211,
				"element": "C" 
			},
			{
				"x": -0.1909841827,
				"y": -1.3563772478,
				"z": 0.598984569,
				"element": "C" 
			},
			{
				"x": 0.1581317347,
				"y": -2.6445741125,
				"z": 0.3125483965,
				"element": "F" 
			},
			{
				"x": -0.230381852,
				"y": -2.7494307229,
				"z": -1.5956689904,
				"element": "H" 
			},
			{
				"x": -2.3635729935,
				"y": -2.7318465093,
				"z": -0.3871713152,
				"element": "H" 
			},
			{
				"x": -3.2747958864,
				"y": -1.2877728721,
				"z": -0.861301146,
				"element": "H" 
			},
			{
				"x": -1.1621438726,
				"y": 2.2764761643,
				"z": 1.3842351495,
				"element": "H" 
			},
			{
				"x": 1.5712381905,
				"y": -1.0418302108,
				"z": 1.8068095095,
				"element": "H" 
			}
		],
		 "valence_orbital": [ 
			{
				"type": "occ",
				"energy": -0.36475,
				"method": "rhf"
			},
			{
				"type": "occ",
				"energy": -0.31604,
				"method": "rhf"
			},
			{
				"type": "occ",
				"energy": -0.28839,
				"method": "rhf"
			},
			{
				"type": "occ",
				"energy": -0.27914,
				"method": "rhf"
			},
			{
				"type": "occ",
				"energy": -0.25858,
				"method": "rhf"
			},
			{
				"type": "unocc",
				"energy": -0.035,
				"method": "rhf"
			},
			{
				"type": "unocc",
				"energy": -0.03085,
				"method": "rhf"
			},
			{
				"type": "unocc",
				"energy": 0.00975,
				"method": "rhf"
			},
			{
				"type": "unocc",
				"energy": 0.04513,
				"method": "rhf"
			},
			{
				"type": "unocc",
				"energy": 0.09033,
				"method": "rhf"
			}
		],
		"cosmo_sigma_profile": { 
			"-0.025": 0.0,
			"-0.024": 0.0,
			"-0.023": 0.0,
			"-0.022": 0.0,
			"-0.021": 0.0,
			"-0.02": 0.0,
			"-0.019": 0.0,
			"-0.018": 0.0,
			"-0.017": 0.0,
			"-0.016": 0.0,
			"-0.015": 0.0,
			"-0.014": 0.0,
			"-0.013": 0.136410045919,
			"-0.012": 0.681177027893,
			"-0.011": 2.06658478546,
			"-0.01": 2.11882777186,
			"-0.009": 5.39497136701,
			"-0.008": 5.98278193615,
			"-0.007": 6.0428190353,
			"-0.006": 8.5136980134,
			"-0.005": 6.84105831155,
			"-0.004": 11.9033764514,
			"-0.003": 10.4008367289,
			"-0.002": 13.9452579028,
			"-0.001": 21.6568101472,
			"0.0": 19.2514136746,
			"0.001": 12.5779002127,
			"0.002": 11.2323030695,
			"0.003": 18.723274973,
			"0.004": 8.06826689581,
			"0.005": 2.31327035099,
			"0.006": 1.76571253308,
			"0.007": 2.41243096972,
			"0.008": 3.08874810806,
			"0.009": 3.42391295984,
			"0.01": 5.30285276895,
			"0.011": 5.73640962622,
			"0.012": 4.59615481996,
			"0.013": 0.945813907571,
			"0.014": 0.0,
			"0.015": 0.0,
			"0.016": 0.0,
			"0.017": 0.0,
			"0.018": 0.0,
			"0.019": 0.0,
			"0.02": 0.0,
			"0.021": 0.0,
			"0.022": 0.0,
			"0.023": 0.0,
			"0.024": 0.0,
			"0.025": 0.0
		}
	}
}
