{
	 "smiles": "CC1=CC(=CC(=C1O)C(C)(C)C)C(C)(C)C", 
	 "Tm": 324.15, 
	 "num_atms": 40, 
	 "gaussian": { 
		 "optdone": 1, 
		 "sigma_profile": "yes", 
		 "theory": "DFT", 
		 "functional": "B3LYP", 
		 "basiset": "6-31G**", 
		 "properties": { 
			 "R2extent": 5253.9902, 
			 "electric_dipole_moment_norm": 1.68961084573, 
			 "electric_quadrupole_moment_norm": 6.74745773607, 
			 "total_energy": -661.315089545, 
			 "HOMO_LUMO_gap": 0.21379, 
			 "cosmo_polarized_energy": -6.65, 
			 "cosmo_cavitation_energy": 38.23, 
			 "cosmo_dispersion_energy": -26.3, 
			 "cosmo_repulsion_energy": 2.05, 
			 "cosmo_total_nonelectrostatic_energy": 13.98, 
			 "SMD_solvation_energy": 6.99 
		},
		"coords": [
			{
				"x": -1.8032617443,
				"y": -0.3206123089,
				"z": 1.5086896039,
				"element": "C" 
			},
			{
				"x": -0.4375755434,
				"y": -0.0676250903,
				"z": 0.910332068,
				"element": "C" 
			},
			{
				"x": -0.2728157606,
				"y": 0.0692517591,
				"z": -0.4673983133,
				"element": "C" 
			},
			{
				"x": 0.9799340601,
				"y": 0.3035972194,
				"z": -1.045112652,
				"element": "C" 
			},
			{
				"x": 2.0739038423,
				"y": 0.3965924084,
				"z": -0.1760973714,
				"element": "C" 
			},
			{
				"x": 1.9771108906,
				"y": 0.268645011,
				"z": 1.218456358,
				"element": "C" 
			},
			{
				"x": 0.6908849934,
				"y": 0.0332876597,
				"z": 1.7436589114,
				"element": "C" 
			},
			{
				"x": 0.5485609023,
				"y": -0.0991985814,
				"z": 3.1067374295,
				"element": "O" 
			},
			{
				"x": 3.2196087308,
				"y": 0.3807854629,
				"z": 2.1290338824,
				"element": "C" 
			},
			{
				"x": 4.5083166039,
				"y": 0.6398468143,
				"z": 1.3220839823,
				"element": "C" 
			},
			{
				"x": 3.4239917552,
				"y": -0.9391029124,
				"z": 2.9136884227,
				"element": "C" 
			},
			{
				"x": 3.0490899479,
				"y": 1.5612629251,
				"z": 3.1174424507,
				"element": "C" 
			},
			{
				"x": 1.108454654,
				"y": 0.4473575201,
				"z": -2.5737413799,
				"element": "C" 
			},
			{
				"x": 0.2456685789,
				"y": 1.6380699931,
				"z": -3.0557720823,
				"element": "C" 
			},
			{
				"x": 2.5609753414,
				"y": 0.6994638734,
				"z": -3.0210724547,
				"element": "C" 
			},
			{
				"x": 0.6150003666,
				"y": -0.8494729744,
				"z": -3.2587667415,
				"element": "C" 
			},
			{
				"x": -2.5649830874,
				"y": -0.3702967577,
				"z": 0.7271858113,
				"element": "H" 
			},
			{
				"x": -2.1091771624,
				"y": 0.4762549019,
				"z": 2.2014169828,
				"element": "H" 
			},
			{
				"x": -1.8481917503,
				"y": -1.2716593298,
				"z": 2.0581833222,
				"element": "H" 
			},
			{
				"x": -1.1564005313,
				"y": -0.0116259097,
				"z": -1.0952461012,
				"element": "H" 
			},
			{
				"x": 3.0514175278,
				"y": 0.5773111764,
				"z": -0.5985739395,
				"element": "H" 
			},
			{
				"x": -0.3807031693,
				"y": -0.25493629,
				"z": 3.3135633239,
				"element": "H" 
			},
			{
				"x": 4.7255562413,
				"y": -0.1710646577,
				"z": 0.6188910979,
				"element": "H" 
			},
			{
				"x": 5.3554307115,
				"y": 0.7110303498,
				"z": 2.0120488847,
				"element": "H" 
			},
			{
				"x": 4.4625975877,
				"y": 1.5792552302,
				"z": 0.7611267807,
				"element": "H" 
			},
			{
				"x": 3.5804268689,
				"y": -1.7766192627,
				"z": 2.2249549769,
				"element": "H" 
			},
			{
				"x": 2.5655325804,
				"y": -1.1700995367,
				"z": 3.5453983709,
				"element": "H" 
			},
			{
				"x": 4.3106203129,
				"y": -0.8608054558,
				"z": 3.5537735305,
				"element": "H" 
			},
			{
				"x": 3.9346602447,
				"y": 1.6438582405,
				"z": 3.7584498014,
				"element": "H" 
			},
			{
				"x": 2.9390646113,
				"y": 2.5061715257,
				"z": 2.574021985,
				"element": "H" 
			},
			{
				"x": 2.17540831,
				"y": 1.4293230709,
				"z": 3.7566687175,
				"element": "H" 
			},
			{
				"x": -0.8110225778,
				"y": 1.50149993,
				"z": -2.8066433145,
				"element": "H" 
			},
			{
				"x": 0.578265166,
				"y": 2.5735127529,
				"z": -2.5938172777,
				"element": "H" 
			},
			{
				"x": 0.3191767293,
				"y": 1.7507235092,
				"z": -4.1437450564,
				"element": "H" 
			},
			{
				"x": 2.9642581195,
				"y": 1.6243545051,
				"z": -2.5956845825,
				"element": "H" 
			},
			{
				"x": 2.5999479646,
				"y": 0.7939035009,
				"z": -4.1113409349,
				"element": "H" 
			},
			{
				"x": 3.2239459124,
				"y": -0.124722407,
				"z": -2.7378507591,
				"element": "H" 
			},
			{
				"x": 1.2145380389,
				"y": -1.7099177193,
				"z": -2.9436993256,
				"element": "H" 
			},
			{
				"x": -0.4298512058,
				"y": -1.0653484257,
				"z": -3.0158368473,
				"element": "H" 
			},
			{
				"x": 0.6918349383,
				"y": -0.7618517204,
				"z": -4.3488075608,
				"element": "H" 
			}
		],
		 "valence_orbital": [ 
			{
				"type": "occ",
				"energy": -0.30599,
				"method": "rhf"
			},
			{
				"type": "occ",
				"energy": -0.30261,
				"method": "rhf"
			},
			{
				"type": "occ",
				"energy": -0.29819,
				"method": "rhf"
			},
			{
				"type": "occ",
				"energy": -0.23158,
				"method": "rhf"
			},
			{
				"type": "occ",
				"energy": -0.20487,
				"method": "rhf"
			},
			{
				"type": "unocc",
				"energy": 0.00892,
				"method": "rhf"
			},
			{
				"type": "unocc",
				"energy": 0.01878,
				"method": "rhf"
			},
			{
				"type": "unocc",
				"energy": 0.0662,
				"method": "rhf"
			},
			{
				"type": "unocc",
				"energy": 0.08478,
				"method": "rhf"
			},
			{
				"type": "unocc",
				"energy": 0.10334,
				"method": "rhf"
			}
		],
		"cosmo_sigma_profile": { 
			"-0.025": 0.0,
			"-0.024": 0.0,
			"-0.023": 0.0,
			"-0.022": 0.0,
			"-0.021": 0.0,
			"-0.02": 0.0,
			"-0.019": 0.0,
			"-0.018": 0.0,
			"-0.017": 0.0,
			"-0.016": 0.0725466118974,
			"-0.015": 0.44998677079,
			"-0.014": 0.890754202681,
			"-0.013": 0.886855235638,
			"-0.012": 1.02575839337,
			"-0.011": 1.08192185909,
			"-0.01": 0.779622314515,
			"-0.009": 1.17257103925,
			"-0.008": 1.47130880548,
			"-0.007": 1.9151277492,
			"-0.006": 1.21138969491,
			"-0.005": 5.38230104952,
			"-0.004": 10.6100972181,
			"-0.003": 17.1161728257,
			"-0.002": 45.241107869,
			"-0.001": 39.886251323,
			"0.0": 38.1720094285,
			"0.001": 42.7985851478,
			"0.002": 36.9051348876,
			"0.003": 10.7942560224,
			"0.004": 9.43517829482,
			"0.005": 10.7377393982,
			"0.006": 8.7253722372,
			"0.007": 7.58628265484,
			"0.008": 1.30542125465,
			"0.009": 0.0315522117536,
			"0.01": 0.0,
			"0.011": 0.0,
			"0.012": 0.0,
			"0.013": 0.0,
			"0.014": 0.0,
			"0.015": 0.0,
			"0.016": 0.0,
			"0.017": 0.0,
			"0.018": 0.0,
			"0.019": 0.0,
			"0.02": 0.0,
			"0.021": 0.0,
			"0.022": 0.0,
			"0.023": 0.0,
			"0.024": 0.0,
			"0.025": 0.0
		}
	}
}
