{
	 "smiles": "OC(=O)CCN1N=NN=C1S", 
	 "Tm": 430.15, 
	 "num_atms": 17, 
	 "gaussian": { 
		 "optdone": 1, 
		 "sigma_profile": "yes", 
		 "theory": "DFT", 
		 "functional": "B3LYP", 
		 "basiset": "6-31G**", 
		 "properties": { 
			 "R2extent": 2784.721, 
			 "electric_dipole_moment_norm": 6.20050581243, 
			 "electric_quadrupole_moment_norm": 14.1159698133, 
			 "total_energy": -923.628937347, 
			 "HOMO_LUMO_gap": 0.21972, 
			 "cosmo_polarized_energy": -21.24, 
			 "cosmo_cavitation_energy": 23.48, 
			 "cosmo_dispersion_energy": -17.95, 
			 "cosmo_repulsion_energy": 1.41, 
			 "cosmo_total_nonelectrostatic_energy": 6.94, 
			 "SMD_solvation_energy": 2.84 
		},
		"coords": [
			{
				"x": 3.4055521377,
				"y": 0.2827698329,
				"z": -0.8761448602,
				"element": "O" 
			},
			{
				"x": 2.9901053831,
				"y": -0.6914771212,
				"z": -0.0550433981,
				"element": "C" 
			},
			{
				"x": 3.7240527789,
				"y": -1.5889416785,
				"z": 0.2867627897,
				"element": "O" 
			},
			{
				"x": 1.5370853773,
				"y": -0.6203674912,
				"z": 0.4454186022,
				"element": "C" 
			},
			{
				"x": 0.4437698001,
				"y": -0.6633158629,
				"z": -0.6394695214,
				"element": "C" 
			},
			{
				"x": 0.0912989765,
				"y": 0.6581231935,
				"z": -1.1708026712,
				"element": "N" 
			},
			{
				"x": 1.0223689169,
				"y": 1.625487036,
				"z": -1.3706752417,
				"element": "N" 
			},
			{
				"x": 0.4104359472,
				"y": 2.6570113333,
				"z": -1.8482426696,
				"element": "N" 
			},
			{
				"x": -0.9114248237,
				"y": 2.4117291745,
				"z": -1.987193254,
				"element": "N" 
			},
			{
				"x": -1.0956972846,
				"y": 1.1674592026,
				"z": -1.565164842,
				"element": "C" 
			},
			{
				"x": -2.6157822284,
				"y": 0.2905819884,
				"z": -1.5139827026,
				"element": "S" 
			},
			{
				"x": 2.6953863318,
				"y": 0.9411291786,
				"z": -1.0477932622,
				"element": "H" 
			},
			{
				"x": 1.409591411,
				"y": -1.49432588,
				"z": 1.0861054061,
				"element": "H" 
			},
			{
				"x": 1.398158666,
				"y": 0.2715034757,
				"z": 1.0671743843,
				"element": "H" 
			},
			{
				"x": 0.7363915748,
				"y": -1.3111673926,
				"z": -1.4726396982,
				"element": "H" 
			},
			{
				"x": -0.4746671863,
				"y": -1.0710993306,
				"z": -0.2095199551,
				"element": "H" 
			},
			{
				"x": -3.3315257783,
				"y": 1.3697003415,
				"z": -1.8837891057,
				"element": "H" 
			}
		],
		 "valence_orbital": [ 
			{
				"type": "occ",
				"energy": -0.32985,
				"method": "rhf"
			},
			{
				"type": "occ",
				"energy": -0.3136,
				"method": "rhf"
			},
			{
				"type": "occ",
				"energy": -0.30851,
				"method": "rhf"
			},
			{
				"type": "occ",
				"energy": -0.28443,
				"method": "rhf"
			},
			{
				"type": "occ",
				"energy": -0.26798,
				"method": "rhf"
			},
			{
				"type": "unocc",
				"energy": -0.04826,
				"method": "rhf"
			},
			{
				"type": "unocc",
				"energy": -0.03086,
				"method": "rhf"
			},
			{
				"type": "unocc",
				"energy": -0.00553,
				"method": "rhf"
			},
			{
				"type": "unocc",
				"energy": 0.00673,
				"method": "rhf"
			},
			{
				"type": "unocc",
				"energy": 0.02547,
				"method": "rhf"
			}
		],
		"cosmo_sigma_profile": { 
			"-0.025": 0.0,
			"-0.024": 0.0,
			"-0.023": 0.0,
			"-0.022": 0.0,
			"-0.021": 0.0,
			"-0.02": 0.0,
			"-0.019": 0.0,
			"-0.018": 0.0,
			"-0.017": 0.0,
			"-0.016": 0.0,
			"-0.015": 0.0,
			"-0.014": 0.550203546439,
			"-0.013": 1.7896371399,
			"-0.012": 1.12987109208,
			"-0.011": 1.12819704433,
			"-0.01": 2.92557967426,
			"-0.009": 10.8165231699,
			"-0.008": 15.2155115167,
			"-0.007": 14.08134964,
			"-0.006": 10.7869050471,
			"-0.005": 8.79949650273,
			"-0.004": 9.22466955516,
			"-0.003": 7.73951988655,
			"-0.002": 7.32397785772,
			"-0.001": 8.59118824268,
			"0.0": 7.43843787028,
			"0.001": 7.22818174785,
			"0.002": 6.81638465332,
			"0.003": 6.93758592813,
			"0.004": 5.12148114076,
			"0.005": 6.06640400521,
			"0.006": 4.92398447137,
			"0.007": 5.15932058239,
			"0.008": 5.75502951523,
			"0.009": 5.6346208592,
			"0.01": 6.8443044797,
			"0.011": 7.91521714612,
			"0.012": 9.01181648661,
			"0.013": 4.44039788788,
			"0.014": 0.937765801422,
			"0.015": 0.0,
			"0.016": 0.0,
			"0.017": 0.0,
			"0.018": 0.0,
			"0.019": 0.0,
			"0.02": 0.0,
			"0.021": 0.0,
			"0.022": 0.0,
			"0.023": 0.0,
			"0.024": 0.0,
			"0.025": 0.0
		}
	}
}
